/*--------------------------------*- C++ -*----------------------------------*\
  =========                 |
  \\      /  F ield         | OpenFOAM: The Open Source CFD Toolbox
   \\    /   O peration     | Website:  https://openfoam.org
    \\  /    A nd           | Version:  7
     \\/     M anipulation  |
\*---------------------------------------------------------------------------*/
FoamFile
{
    version     2.0;
    format      ascii;
    class       volScalarField;
    location    "0.075";
    object      p;
}
// * * * * * * * * * * * * * * * * * * * * * * * * * * * * * * * * * * * * * //

dimensions      [0 2 -2 0 0 0 0];

internalField   nonuniform List<scalar> 
25600
(
2.45844e-09
-7.68147e-07
-4.25715e-06
-1.00291e-05
-1.72387e-05
-2.49808e-05
-3.26091e-05
-3.96331e-05
-4.57146e-05
-5.06286e-05
-5.42318e-05
-5.64492e-05
-5.72476e-05
-5.65995e-05
-5.4476e-05
-5.08713e-05
-4.58158e-05
-3.93565e-05
-3.15261e-05
-2.23375e-05
-1.18003e-05
6.4125e-08
1.32255e-05
2.76561e-05
4.33387e-05
6.02667e-05
7.84361e-05
9.78356e-05
0.000118447
0.000140252
0.000163243
0.000187418
0.000212772
0.000239296
0.000266974
0.000295794
0.000325747
0.000356827
0.000389029
0.000422341
0.000456746
0.000492233
0.000528792
0.000566413
0.000605087
0.000644798
0.000685531
0.00072727
0.000770005
0.000813722
0.000858406
0.000904042
0.00095061
0.000998095
0.00104648
0.00109575
0.00114589
0.00119688
0.00124869
0.00130131
0.00135473
0.00140891
0.00146384
0.0015195
0.00157586
0.0016329
0.0016906
0.00174893
0.00180788
0.00186741
0.0019275
0.00198813
0.00204926
0.00211087
0.00217293
0.00223542
0.0022983
0.00236155
0.00242514
0.00248903
0.00255319
0.0026176
0.00268222
0.00274701
0.00281196
0.00287701
0.00294215
0.00300733
0.00307253
0.0031377
0.00320281
0.00326783
0.00333272
0.00339745
0.00346197
0.00352626
0.00359027
0.00365398
0.00371734
0.00378031
0.00384287
0.00390496
0.00396656
0.00402763
0.00408812
0.00414801
0.00420725
0.00426581
0.00432364
0.00438071
0.00443699
0.00449243
0.00454699
0.00460065
0.00465335
0.00470508
0.00475578
0.00480542
0.00485397
0.00490139
0.00494765
0.00499271
0.00503653
0.00507909
0.00512035
0.00516029
0.00519886
0.00523603
0.00527179
0.00530609
0.00533891
0.00537023
0.0054
0.00542821
0.00545483
0.00547982
0.00550317
0.00552483
0.00554479
0.00556301
0.00557946
0.0055941
0.00560691
0.00561785
0.0056269
0.00563402
0.0056392
0.00564243
0.00564372
0.0056431
0.00564062
0.0056364
0.00563059
0.00562343
0.00561526
0.00560658
0.00559802
0.0055905
0.0055852
0.00558316
2.46291e-06
1.60973e-06
-1.30993e-06
-5.95568e-06
-1.16218e-05
-1.77277e-05
-2.37963e-05
-2.94287e-05
-3.43214e-05
-3.82502e-05
-4.10486e-05
-4.26091e-05
-4.28777e-05
-4.18252e-05
-3.94219e-05
-3.56413e-05
-3.04795e-05
-2.39571e-05
-1.61005e-05
-6.9263e-06
3.55796e-06
1.53433e-05
2.8414e-05
4.27495e-05
5.833e-05
7.51425e-05
9.31816e-05
0.000112442
0.000132914
0.000154581
0.00017743
0.000201453
0.000226646
0.000253003
0.000280513
0.000309163
0.000338941
0.00036984
0.000401852
0.000434968
0.000469176
0.000504462
0.000540815
0.000578223
0.000616677
0.000656165
0.00069667
0.000738179
0.000780678
0.000824152
0.000868589
0.000913973
0.000960287
0.00100751
0.00105563
0.00110464
0.0011545
0.00120521
0.00125674
0.00130908
0.00136221
0.00141609
0.00147073
0.00152608
0.00158214
0.00163888
0.00169627
0.00175429
0.00181291
0.00187212
0.00193189
0.00199219
0.00205299
0.00211426
0.00217599
0.00223814
0.00230068
0.00236358
0.00242682
0.00249036
0.00255418
0.00261823
0.00268249
0.00274693
0.00281152
0.00287621
0.00294099
0.00300581
0.00307064
0.00313545
0.00320019
0.00326485
0.00332937
0.00339373
0.00345789
0.00352181
0.00358546
0.0036488
0.0037118
0.00377441
0.0038366
0.00389833
0.00395957
0.00402028
0.00408042
0.00413995
0.00419884
0.00425704
0.00431453
0.00437126
0.00442719
0.00448229
0.00453652
0.00458984
0.00464222
0.00469362
0.00474401
0.00479334
0.00484158
0.00488869
0.00493465
0.00497941
0.00502295
0.00506523
0.00510622
0.00514588
0.00518419
0.00522111
0.00525661
0.00529068
0.00532326
0.00535435
0.00538391
0.00541191
0.00543833
0.00546314
0.00548631
0.00550782
0.00552764
0.00554575
0.00556211
0.0055767
0.00558951
0.0056005
0.00560967
0.005617
0.00562248
0.00562614
0.005628
0.0056281
0.00562654
0.00562343
0.00561895
0.00561334
0.00560691
0.00560009
0.00559339
0.00558748
0.00558315
0.00558112
8.30987e-06
6.37938e-06
3.12396e-06
-1.19806e-06
-6.18533e-06
-1.14307e-05
-1.65812e-05
-2.13268e-05
-2.54151e-05
-2.86499e-05
-3.08711e-05
-3.19536e-05
-3.18214e-05
-3.04416e-05
-2.77939e-05
-2.38513e-05
-1.85898e-05
-1.20052e-05
-4.11205e-06
5.07089e-06
1.55322e-05
2.7267e-05
4.02709e-05
5.45331e-05
7.00367e-05
8.67643e-05
0.000104706
0.000123857
0.000144214
0.000165767
0.000188501
0.000212403
0.000237468
0.000263689
0.000291059
0.000319569
0.000349205
0.000379956
0.000411814
0.000444771
0.000478817
0.000513939
0.000550125
0.000587362
0.000625639
0.000664945
0.000705266
0.000746589
0.000788898
0.000832179
0.000876417
0.000921599
0.000967709
0.00101473
0.00106264
0.00111143
0.00116108
0.00121157
0.00126288
0.00131499
0.00136789
0.00142154
0.00147594
0.00153106
0.00158688
0.00164338
0.00170052
0.0017583
0.00181667
0.00187563
0.00193515
0.00199519
0.00205574
0.00211675
0.00217822
0.00224011
0.00230238
0.00236502
0.00242799
0.00249126
0.00255481
0.00261859
0.00268258
0.00274674
0.00281105
0.00287547
0.00293997
0.00300451
0.00306906
0.00313359
0.00319806
0.00326243
0.00332668
0.00339076
0.00345464
0.00351828
0.00358165
0.00364471
0.00370743
0.00376976
0.00383168
0.00389314
0.0039541
0.00401454
0.00407441
0.00413367
0.00419229
0.00425023
0.00430745
0.00436392
0.00441959
0.00447443
0.0045284
0.00458147
0.0046336
0.00468475
0.00473489
0.00478398
0.00483198
0.00487886
0.00492459
0.00496913
0.00501244
0.0050545
0.00509527
0.00513473
0.00517283
0.00520956
0.00524487
0.00527875
0.00531116
0.00534208
0.00537148
0.00539932
0.0054256
0.00545027
0.00547333
0.00549473
0.00551446
0.00553249
0.00554881
0.00556339
0.00557622
0.00558728
0.00559657
0.00560408
0.00560982
0.00561382
0.00561612
0.00561677
0.00561588
0.00561355
0.00560997
0.00560535
0.00559998
0.00559419
0.00558841
0.00558313
0.00557881
0.00557581
1.62051e-05
1.26673e-05
8.64987e-06
4.15453e-06
-6.97481e-07
-5.60021e-06
-1.0284e-05
-1.45106e-05
-1.80733e-05
-2.08133e-05
-2.26035e-05
-2.33302e-05
-2.29029e-05
-2.12704e-05
-1.84115e-05
-1.43109e-05
-8.94744e-06
-2.30371e-06
5.62265e-06
1.48213e-05
2.52796e-05
3.69893e-05
4.99465e-05
6.41474e-05
7.95833e-05
9.62411e-05
0.000114107
0.000133173
0.000153434
0.000174884
0.000197515
0.000221314
0.000246271
0.000272377
0.000299626
0.000328011
0.000357522
0.000388147
0.000419875
0.000452696
0.000486601
0.00052158
0.000557622
0.000594712
0.000632839
0.00067199
0.000712154
0.000753317
0.000795465
0.000838582
0.000882654
0.000927666
0.000973602
0.00102045
0.00106818
0.0011168
0.00116626
0.00121657
0.00126769
0.00131962
0.00137233
0.0014258
0.00148
0.00153493
0.00159055
0.00164685
0.0017038
0.00176137
0.00181955
0.00187831
0.00193762
0.00199745
0.00205779
0.0021186
0.00217986
0.00224153
0.00230359
0.00236602
0.00242878
0.00249183
0.00255516
0.00261872
0.00268249
0.00274644
0.00281053
0.00287473
0.002939
0.00300332
0.00306765
0.00313196
0.00319621
0.00326036
0.00332438
0.00338824
0.0034519
0.00351533
0.00357848
0.00364132
0.00370382
0.00376594
0.00382764
0.00388888
0.00394963
0.00400985
0.00406951
0.00412856
0.00418697
0.0042447
0.00430171
0.00435796
0.00441343
0.00446807
0.00452184
0.00457471
0.00462663
0.00467759
0.00472753
0.00477642
0.00482423
0.00487092
0.00491646
0.00496082
0.00500396
0.00504584
0.00508644
0.00512573
0.00516367
0.00520024
0.00523541
0.00526914
0.00530141
0.0053322
0.00536147
0.0053892
0.00541537
0.00543994
0.00546291
0.00548424
0.00550391
0.00552191
0.00553821
0.0055528
0.00556567
0.00557681
0.00558621
0.00559389
0.00559986
0.00560414
0.00560678
0.00560785
0.00560744
0.00560566
0.00560267
0.00559866
0.00559387
0.00558857
0.0055831
0.00557783
0.00557288
0.00556828
2.50002e-05
1.97004e-05
1.47443e-05
9.86024e-06
4.90345e-06
9.91337e-08
-4.34727e-06
-8.26192e-06
-1.14777e-05
-1.38573e-05
-1.53014e-05
-1.57274e-05
-1.50559e-05
-1.32223e-05
-1.01904e-05
-5.94541e-06
-4.75901e-07
6.23268e-06
1.41911e-05
2.34012e-05
3.38577e-05
4.55527e-05
5.84783e-05
7.26292e-05
8.8002e-05
0.000104591
0.000122387
0.000141378
0.000161554
0.000182911
0.000205442
0.000229141
0.000253996
0.000279998
0.000307136
0.000335405
0.000364796
0.0003953
0.000426906
0.000459602
0.000493377
0.000528223
0.000564128
0.000601082
0.00063907
0.00067808
0.000718098
0.000759113
0.000801112
0.000844079
0.000887999
0.000932856
0.000978635
0.00102532
0.0010729
0.00112135
0.00117065
0.00122079
0.00127175
0.00132351
0.00137605
0.00142935
0.00148339
0.00153814
0.00159359
0.00164972
0.00170649
0.00176389
0.00182189
0.00188047
0.0019396
0.00199925
0.00205941
0.00212004
0.00218111
0.0022426
0.00230448
0.00236672
0.00242929
0.00249216
0.00255529
0.00261867
0.00268225
0.00274601
0.00280991
0.00287392
0.00293801
0.00300214
0.00306628
0.0031304
0.00319445
0.00325842
0.00332225
0.00338593
0.0034494
0.00351264
0.0035756
0.00363826
0.00370058
0.00376251
0.00382402
0.00388509
0.00394566
0.0040057
0.00406517
0.00412404
0.00418227
0.00423982
0.00429666
0.00435274
0.00440803
0.00446249
0.00451608
0.00456878
0.00462053
0.00467132
0.00472109
0.00476981
0.00481746
0.00486399
0.00490937
0.00495356
0.00499655
0.00503828
0.00507873
0.00511788
0.00515568
0.00519212
0.00522715
0.00526076
0.00529292
0.00532359
0.00535276
0.00538039
0.00540648
0.00543098
0.00545388
0.00547516
0.00549479
0.00551277
0.00552907
0.00554369
0.00555661
0.00556782
0.00557734
0.00558518
0.00559134
0.00559587
0.0055988
0.00560021
0.00560017
0.0055988
0.00559623
0.00559262
0.00558816
0.00558306
0.00557758
0.005572
0.00556614
0.0055597
3.40324e-05
2.69635e-05
2.09735e-05
1.55576e-05
1.0331e-05
5.45399e-06
1.08449e-06
-2.66504e-06
-5.67514e-06
-7.82648e-06
-9.02773e-06
-9.21646e-06
-8.33857e-06
-6.33909e-06
-3.17301e-06
1.1854e-06
6.74798e-06
1.35229e-05
2.15184e-05
3.07406e-05
4.11925e-05
5.28718e-05
6.57721e-05
7.98855e-05
9.52069e-05
0.000111733
0.000129461
0.00014838
0.000168481
0.000189756
0.000212198
0.000235803
0.000260561
0.000286464
0.000313502
0.000341665
0.000370947
0.000401339
0.00043283
0.00046541
0.000499067
0.000533792
0.000569573
0.0006064
0.000644261
0.000683142
0.000723029
0.000763912
0.000805775
0.000848606
0.000892388
0.000937108
0.000982747
0.00102929
0.00107673
0.00112503
0.0011742
0.00122419
0.00127501
0.00132662
0.00137901
0.00143216
0.00148605
0.00154066
0.00159596
0.00165193
0.00170855
0.0017658
0.00182365
0.00188208
0.00194106
0.00200056
0.00206056
0.00212104
0.00218196
0.00224329
0.00230502
0.0023671
0.00242951
0.00249222
0.00255521
0.00261843
0.00268185
0.00274545
0.00280919
0.00287305
0.00293698
0.00300095
0.00306494
0.0031289
0.0031928
0.00325661
0.00332029
0.00338381
0.00344713
0.00351022
0.00357304
0.00363555
0.00369771
0.0037595
0.00382086
0.00388178
0.0039422
0.0040021
0.00406142
0.00412015
0.00417823
0.00423564
0.00429233
0.00434827
0.00440341
0.00445773
0.00451118
0.00456373
0.00461535
0.00466599
0.00471562
0.00476421
0.00481171
0.00485811
0.00490335
0.00494742
0.00499027
0.00503188
0.00507221
0.00511124
0.00514893
0.00518525
0.00522019
0.0052537
0.00528576
0.00531634
0.00534543
0.005373
0.00539901
0.00542346
0.00544631
0.00546756
0.00548718
0.00550515
0.00552147
0.00553611
0.00554909
0.00556039
0.00557001
0.00557798
0.00558432
0.00558904
0.00559221
0.00559388
0.00559412
0.00559303
0.00559073
0.00558734
0.00558301
0.0055779
0.00557222
0.00556614
0.00555925
0.00555098
4.27438e-05
3.40162e-05
2.69859e-05
2.09595e-05
1.53502e-05
1.02691e-05
5.84435e-06
2.14629e-06
-7.55721e-07
-2.77607e-06
-3.83135e-06
-3.86137e-06
-2.82619e-06
-6.89868e-07
2.58507e-06
7.02968e-06
1.26622e-05
1.94917e-05
2.75236e-05
3.67627e-05
4.72128e-05
5.88755e-05
7.17497e-05
8.583e-05
0.00010111
0.000117585
0.00013525
0.000154102
0.000174132
0.000195334
0.000217698
0.000241219
0.000265888
0.000291699
0.000318644
0.000346713
0.000375897
0.000406187
0.000437574
0.000470048
0.000503598
0.000538215
0.000573886
0.0006106
0.000648346
0.000687111
0.000726883
0.000767648
0.000809393
0.000852104
0.000895766
0.000940364
0.000985882
0.00103231
0.00107962
0.0011278
0.00117684
0.00122671
0.00127741
0.0013289
0.00138116
0.00143419
0.00148796
0.00154244
0.00159761
0.00165346
0.00170996
0.00176709
0.00182481
0.00188311
0.00194197
0.00200135
0.00206123
0.00212158
0.00218237
0.00224358
0.00230518
0.00236714
0.00242943
0.00249202
0.00255487
0.00261797
0.00268127
0.00274475
0.00280837
0.0028721
0.00293591
0.00299976
0.00306363
0.00312747
0.00319125
0.00325494
0.00331851
0.00338191
0.00344512
0.00350809
0.00357079
0.00363319
0.00369524
0.00375691
0.00381817
0.00387897
0.00393929
0.00399907
0.00405829
0.00411691
0.00417488
0.00423218
0.00428876
0.00434458
0.00439962
0.00445382
0.00450717
0.00455961
0.00461111
0.00466164
0.00471116
0.00475964
0.00480704
0.00485333
0.00489848
0.00494244
0.00498519
0.00502671
0.00506695
0.00510588
0.00514348
0.00517973
0.00521458
0.00524802
0.00528001
0.00531053
0.00533956
0.00536708
0.00539305
0.00541747
0.0054403
0.00546153
0.00548114
0.00549912
0.00551546
0.00553015
0.00554318
0.00555455
0.00556428
0.00557237
0.00557884
0.00558373
0.00558707
0.00558892
0.00558935
0.00558844
0.00558628
0.00558297
0.00557863
0.00557336
0.00556732
0.00556064
0.00555271
0.00554272
5.06908e-05
4.04818e-05
3.24688e-05
2.58138e-05
1.97733e-05
1.44121e-05
9.83331e-06
6.08897e-06
3.21735e-06
1.26474e-06
2.90713e-07
3.52064e-07
1.48804e-06
3.72479e-06
7.08724e-06
1.16006e-05
1.72849e-05
2.41526e-05
3.22117e-05
4.14662e-05
5.19179e-05
6.35678e-05
7.64169e-05
9.04645e-05
0.000105707
0.000122137
0.00013975
0.000158542
0.000178507
0.00019964
0.000221934
0.00024538
0.000269971
0.0002957
0.00032256
0.000350543
0.00037964
0.00040984
0.000441134
0.000473513
0.000506968
0.000541488
0.000577061
0.000613676
0.000651322
0.000689985
0.000729655
0.000770319
0.000811962
0.00085457
0.000898128
0.000942623
0.000988038
0.00103436
0.00108157
0.00112965
0.00117859
0.00122836
0.00127895
0.00133034
0.0013825
0.00143543
0.0014891
0.00154348
0.00159856
0.00165431
0.00171071
0.00176773
0.00182536
0.00188357
0.00194233
0.00200161
0.00206139
0.00212165
0.00218235
0.00224346
0.00230497
0.00236684
0.00242903
0.00249153
0.00255429
0.00261729
0.0026805
0.00274389
0.00280742
0.00287106
0.00293479
0.00299855
0.00306233
0.00312609
0.00318979
0.0032534
0.00331688
0.0033802
0.00344333
0.00350622
0.00356885
0.00363117
0.00369314
0.00375474
0.00381592
0.00387665
0.00393689
0.0039966
0.00405575
0.00411429
0.00417219
0.00422941
0.00428591
0.00434166
0.00439662
0.00445075
0.00450402
0.00455638
0.00460781
0.00465826
0.00470771
0.00475611
0.00480343
0.00484965
0.00489472
0.00493861
0.0049813
0.00502274
0.00506292
0.00510179
0.00513934
0.00517552
0.00521033
0.00524371
0.00527566
0.00530615
0.00533515
0.00536264
0.00538859
0.00541299
0.00543581
0.00545704
0.00547666
0.00549467
0.00551104
0.00552577
0.00553885
0.0055503
0.0055601
0.00556829
0.00557487
0.00557988
0.00558335
0.00558533
0.00558587
0.00558505
0.00558293
0.0055796
0.00557513
0.00556961
0.00556314
0.00555585
0.00554691
0.0055354
5.75731e-05
4.60777e-05
3.71693e-05
2.98997e-05
2.34153e-05
1.77468e-05
1.2963e-05
9.09974e-06
6.18682e-06
4.24763e-06
3.31218e-06
3.42078e-06
4.61089e-06
6.90832e-06
1.03313e-05
1.48968e-05
2.06205e-05
2.75154e-05
3.55912e-05
4.48537e-05
5.5305e-05
6.69448e-05
7.97734e-05
9.37911e-05
0.000108997
0.000125386
0.000142953
0.000161693
0.000181601
0.000202673
0.000224902
0.000248281
0.000272803
0.00029846
0.000325245
0.000353151
0.000382169
0.000412289
0.000443502
0.000475799
0.000509171
0.000543606
0.000579094
0.000615624
0.000653184
0.000691761
0.000731345
0.000771922
0.000813478
0.000856
0.000899473
0.000943882
0.000989213
0.00103545
0.00108258
0.00113058
0.00117943
0.00122912
0.00127963
0.00133094
0.00138303
0.00143588
0.00148947
0.00154378
0.00159878
0.00165446
0.00171079
0.00176775
0.0018253
0.00188344
0.00194213
0.00200134
0.00206106
0.00212125
0.00218188
0.00224293
0.00230437
0.00236618
0.00242831
0.00249074
0.00255345
0.00261639
0.00267954
0.00274287
0.00280634
0.00286993
0.0029336
0.00299731
0.00306104
0.00312475
0.0031884
0.00325196
0.0033154
0.00337868
0.00344176
0.00350461
0.00356719
0.00362947
0.00369141
0.00375297
0.00381411
0.0038748
0.003935
0.00399467
0.00405378
0.00411228
0.00417014
0.00422732
0.00428378
0.00433949
0.00439441
0.00444849
0.00450171
0.00455403
0.00460542
0.00465583
0.00470523
0.00475359
0.00480087
0.00484704
0.00489207
0.00493592
0.00497857
0.00501998
0.00506012
0.00509896
0.00513648
0.00517264
0.00520742
0.00524079
0.00527272
0.00530319
0.00533218
0.00535966
0.00538561
0.00541001
0.00543284
0.00545409
0.00547373
0.00549176
0.00550817
0.00552294
0.00553608
0.00554759
0.00555747
0.00556573
0.0055724
0.00557749
0.00558104
0.00558309
0.00558369
0.00558288
0.00558074
0.00557731
0.00557266
0.00556683
0.00555992
0.005552
0.00554216
0.00552932
6.31838e-05
5.05962e-05
4.08993e-05
3.30498e-05
2.61201e-05
2.0135e-05
1.51304e-05
1.11129e-05
8.10558e-06
6.12767e-06
5.19172e-06
5.31717e-06
6.53099e-06
8.85734e-06
1.23128e-05
1.69098e-05
2.26603e-05
2.95744e-05
3.76604e-05
4.69241e-05
5.73696e-05
6.89981e-05
8.1809e-05
9.58014e-05
0.000110974
0.000127324
0.000144849
0.000163544
0.000183403
0.000204421
0.000226593
0.000249912
0.000274373
0.000299967
0.000326688
0.000354527
0.000383476
0.000413527
0.000444671
0.000476898
0.000510199
0.000544563
0.000579979
0.000616436
0.000653925
0.000692431
0.000731944
0.00077245
0.000813937
0.00085639
0.000899795
0.000944138
0.000989403
0.00103558
0.00108264
0.00113058
0.00117937
0.001229
0.00127945
0.00133071
0.00138274
0.00143554
0.00148908
0.00154334
0.00159829
0.00165392
0.0017102
0.00176711
0.00182463
0.00188272
0.00194137
0.00200054
0.00206022
0.00212037
0.00218096
0.00224198
0.00230339
0.00236516
0.00242726
0.00248966
0.00255233
0.00261525
0.00267837
0.00274168
0.00280513
0.00286869
0.00293234
0.00299603
0.00305974
0.00312344
0.00318707
0.00325062
0.00331405
0.00337732
0.00344039
0.00350324
0.00356582
0.00362809
0.00369002
0.00375158
0.00381272
0.00387341
0.0039336
0.00399327
0.00405237
0.00411087
0.00416872
0.0042259
0.00428235
0.00433805
0.00439296
0.00444704
0.00450025
0.00455256
0.00460393
0.00465433
0.00470372
0.00475207
0.00479934
0.0048455
0.00489053
0.00493437
0.00497701
0.00501842
0.00505855
0.00509739
0.00513491
0.00517107
0.00520585
0.00523923
0.00527117
0.00530165
0.00533065
0.00535815
0.00538411
0.00540853
0.00543139
0.00545266
0.00547234
0.00549041
0.00550685
0.00552167
0.00553486
0.00554642
0.00555636
0.00556468
0.0055714
0.00557655
0.00558014
0.00558222
0.00558283
0.00558199
0.00557977
0.0055762
0.00557133
0.00556516
0.0055578
0.00554931
0.00553867
0.00552472
6.73759e-05
5.38748e-05
4.35043e-05
3.51354e-05
2.77758e-05
2.14661e-05
1.62331e-05
1.20513e-05
8.92432e-06
6.86923e-06
5.89532e-06
6.00948e-06
7.2249e-06
9.55846e-06
1.30245e-05
1.76341e-05
2.33967e-05
3.03204e-05
3.84107e-05
4.7672e-05
5.81084e-05
6.97228e-05
8.25157e-05
9.64854e-05
0.000111629
0.000127946
0.000145433
0.000164087
0.000183903
0.000204875
0.000226998
0.000250266
0.000274673
0.000300214
0.00032688
0.000354662
0.000383554
0.000413547
0.000444632
0.000476801
0.000510044
0.000544349
0.000579707
0.000616107
0.000653538
0.000691989
0.000731447
0.0007719
0.000813333
0.000855734
0.000899089
0.000943384
0.000988603
0.00103473
0.00108175
0.00112965
0.0011784
0.001228
0.00127841
0.00132963
0.00138164
0.0014344
0.00148791
0.00154214
0.00159707
0.00165268
0.00170894
0.00176583
0.00182333
0.00188141
0.00194004
0.0019992
0.00205886
0.002119
0.00217959
0.0022406
0.002302
0.00236377
0.00242586
0.00248827
0.00255094
0.00261386
0.00267699
0.0027403
0.00280376
0.00286734
0.002931
0.00299471
0.00305844
0.00312215
0.0031858
0.00324938
0.00331283
0.00337612
0.00343923
0.0035021
0.00356471
0.00362701
0.00368898
0.00375056
0.00381173
0.00387245
0.00393268
0.00399238
0.00405151
0.00411004
0.00416792
0.00422512
0.00428161
0.00433733
0.00439227
0.00444637
0.00449961
0.00455194
0.00460334
0.00465376
0.00470317
0.00475155
0.00479884
0.00484503
0.00489008
0.00493395
0.00497662
0.00501805
0.00505821
0.00509708
0.00513463
0.00517082
0.00520563
0.00523904
0.00527101
0.00530153
0.00533056
0.00535809
0.00538409
0.00540855
0.00543145
0.00545276
0.00547247
0.00549058
0.00550707
0.00552193
0.00553517
0.00554677
0.00555675
0.00556512
0.00557188
0.00557705
0.00558067
0.00558274
0.00558332
0.00558242
0.00558008
0.00557634
0.00557122
0.00556473
0.00555695
0.00554793
0.00553659
0.00552171
7.00654e-05
5.57975e-05
4.4854e-05
3.60397e-05
2.8292e-05
2.16625e-05
1.61916e-05
1.18392e-05
8.58482e-06
6.43389e-06
5.39511e-06
5.47193e-06
6.6681e-06
8.99185e-06
1.24534e-05
1.70615e-05
2.28236e-05
2.9746e-05
3.78334e-05
4.70888e-05
5.7515e-05
6.91144e-05
8.18883e-05
9.58356e-05
0.000110954
0.000127242
0.000144697
0.000163315
0.000183094
0.000204026
0.000226108
0.000249334
0.000273697
0.000299193
0.000325812
0.000353549
0.000382395
0.000412341
0.00044338
0.000475503
0.0005087
0.00054296
0.000578274
0.000614632
0.000652021
0.000690431
0.00072985
0.000770266
0.000811663
0.000854031
0.000897354
0.00094162
0.000986812
0.00103291
0.00107991
0.00112779
0.00117652
0.0012261
0.0012765
0.00132771
0.00137971
0.00143247
0.00148597
0.0015402
0.00159513
0.00165074
0.00170701
0.0017639
0.00182141
0.00187949
0.00193814
0.00199731
0.00205699
0.00211715
0.00217776
0.00223879
0.00230021
0.002362
0.00242413
0.00248656
0.00254927
0.00261222
0.00267539
0.00273874
0.00280224
0.00286586
0.00292957
0.00299333
0.0030571
0.00312087
0.00318458
0.00324821
0.00331173
0.00337508
0.00343825
0.00350118
0.00356386
0.00362623
0.00368826
0.00374991
0.00381115
0.00387193
0.00393223
0.00399199
0.00405119
0.00410978
0.00416773
0.00422499
0.00428154
0.00433732
0.00439232
0.00444648
0.00449978
0.00455217
0.00460363
0.00465411
0.00470358
0.00475202
0.00479937
0.00484562
0.00489072
0.00493466
0.00497738
0.00501887
0.0050591
0.00509803
0.00513563
0.00517188
0.00520675
0.00524022
0.00527225
0.00530282
0.0053319
0.00535949
0.00538554
0.00541005
0.00543299
0.00545435
0.00547412
0.00549227
0.00550881
0.00552371
0.00553699
0.00554863
0.00555865
0.00556704
0.00557382
0.00557901
0.00558261
0.00558466
0.00558518
0.00558419
0.00558172
0.0055778
0.00557243
0.00556563
0.00555745
0.00554797
0.00553604
0.0055204
7.12152e-05
5.63006e-05
4.48603e-05
3.56624e-05
2.75816e-05
2.06594e-05
1.49499e-05
1.04182e-05
7.03095e-06
4.77765e-06
3.66032e-06
3.681e-06
4.83961e-06
7.13844e-06
1.05831e-05
1.51793e-05
2.09316e-05
2.78443e-05
3.59215e-05
4.51665e-05
5.5581e-05
6.71657e-05
7.9921e-05
9.38469e-05
0.000108942
0.000125205
0.000142633
0.000161222
0.000180969
0.000201869
0.000223917
0.000247109
0.000271437
0.000296897
0.000323481
0.000351181
0.000379991
0.000409903
0.000440908
0.000472998
0.000506162
0.000540391
0.000575675
0.000612004
0.000649368
0.000687754
0.00072715
0.000767545
0.000808925
0.000851277
0.000894587
0.000938842
0.000984026
0.00103012
0.00107712
0.00112499
0.00117373
0.00122332
0.00127373
0.00132495
0.00137696
0.00142974
0.00148326
0.00153751
0.00159246
0.0016481
0.00170439
0.00176132
0.00181886
0.00187698
0.00193566
0.00199488
0.0020546
0.0021148
0.00217546
0.00223654
0.00229801
0.00235986
0.00242204
0.00248453
0.0025473
0.00261032
0.00267356
0.00273698
0.00280056
0.00286425
0.00292804
0.00299188
0.00305575
0.0031196
0.0031834
0.00324713
0.00331073
0.00337419
0.00343745
0.00350048
0.00356325
0.00362573
0.00368786
0.00374961
0.00381095
0.00387184
0.00393223
0.0039921
0.00405139
0.00411008
0.00416813
0.00422549
0.00428213
0.00433802
0.00439311
0.00444737
0.00450076
0.00455325
0.0046048
0.00465538
0.00470495
0.00475347
0.00480092
0.00484726
0.00489246
0.00493649
0.00497931
0.00502089
0.00506121
0.00510022
0.00513792
0.00517425
0.00520921
0.00524275
0.00527486
0.00530551
0.00533467
0.00536232
0.00538845
0.00541302
0.00543602
0.00545744
0.00547726
0.00549547
0.00551205
0.005527
0.00554032
0.00555199
0.00556204
0.00557045
0.00557724
0.00558241
0.005586
0.005588
0.00558845
0.00558736
0.00558475
0.00558064
0.00557503
0.00556793
0.0055594
0.00554951
0.00553709
0.00552082
7.07974e-05
5.53505e-05
4.34794e-05
3.39387e-05
2.5568e-05
1.83914e-05
1.24592e-05
7.74561e-06
4.21925e-06
1.8592e-06
6.56985e-07
6.10847e-07
1.71931e-06
3.98137e-06
7.39846e-06
1.19733e-05
1.77083e-05
2.46057e-05
3.26682e-05
4.18988e-05
5.22988e-05
6.38682e-05
7.66064e-05
9.05132e-05
0.000105588
0.00012183
0.000139235
0.000157801
0.000177522
0.000198396
0.000220418
0.000243584
0.000267887
0.00029332
0.000319878
0.000347553
0.000376339
0.000406228
0.000437212
0.00046928
0.000502425
0.000536637
0.000571906
0.000608222
0.000645575
0.000683953
0.000723344
0.000763735
0.000805115
0.000847469
0.000890786
0.000935049
0.000980245
0.00102636
0.00107337
0.00112126
0.00117003
0.00121964
0.00127008
0.00132134
0.00137338
0.0014262
0.00147977
0.00153406
0.00158906
0.00164475
0.0017011
0.00175808
0.00181568
0.00187386
0.00193261
0.00199189
0.00205168
0.00211195
0.00217268
0.00223384
0.0022954
0.00235733
0.0024196
0.00248218
0.00254505
0.00260816
0.0026715
0.00273502
0.00279871
0.00286252
0.00292642
0.00299037
0.00305436
0.00311833
0.00318226
0.00324611
0.00330985
0.00337343
0.00343682
0.00349999
0.0035629
0.0036255
0.00368777
0.00374966
0.00381113
0.00387216
0.00393269
0.00399268
0.00405212
0.00411094
0.00416912
0.00422661
0.00428339
0.00433941
0.00439463
0.00444902
0.00450254
0.00455516
0.00460685
0.00465755
0.00470725
0.00475591
0.00480349
0.00484996
0.00489529
0.00493944
0.00498239
0.00502409
0.00506453
0.00510367
0.00514147
0.00517792
0.00521299
0.00524664
0.00527885
0.00530959
0.00533884
0.00536658
0.00539279
0.00541744
0.00544052
0.005462
0.00548188
0.00550015
0.00551678
0.00553178
0.00554513
0.00555684
0.00556691
0.00557533
0.00558212
0.00558728
0.00559083
0.00559278
0.00559315
0.00559195
0.00558919
0.0055849
0.00557907
0.00557169
0.00556285
0.00555262
0.00553978
0.00552301
6.87779e-05
5.2914e-05
4.06855e-05
3.08365e-05
2.22012e-05
1.48004e-05
8.67036e-06
3.78405e-06
1.16388e-07
-2.35494e-06
-3.64622e-06
-3.76479e-06
-2.71389e-06
-4.96633e-07
2.88486e-06
7.43057e-06
1.31417e-05
2.00194e-05
2.80645e-05
3.72783e-05
4.76616e-05
5.92147e-05
7.19369e-05
8.58276e-05
0.000100886
0.00011711
0.000134496
0.000153043
0.000172747
0.000193602
0.000215607
0.000238754
0.00026304
0.000288457
0.000314999
0.000342661
0.000371434
0.000401312
0.000432285
0.000464346
0.000497486
0.000531695
0.000566963
0.000603282
0.00064064
0.000679026
0.000718428
0.000758834
0.000800231
0.000842607
0.000885948
0.000930239
0.000975466
0.00102161
0.00106866
0.0011166
0.00116541
0.00121507
0.00126557
0.00131688
0.00136898
0.00142186
0.00147549
0.00152986
0.00158493
0.00164069
0.00169712
0.00175418
0.00181186
0.00187013
0.00192897
0.00198834
0.00204823
0.0021086
0.00216944
0.0022307
0.00229237
0.00235441
0.0024168
0.0024795
0.00254249
0.00260573
0.0026692
0.00273286
0.00279669
0.00286064
0.00292469
0.00298879
0.00305293
0.00311706
0.00318115
0.00324516
0.00330906
0.0033728
0.00343636
0.0034997
0.00356278
0.00362555
0.00368799
0.00375004
0.00381169
0.00387288
0.00393358
0.00399375
0.00405335
0.00411234
0.00417069
0.00422835
0.0042853
0.00434148
0.00439687
0.00445143
0.00450512
0.00455791
0.00460976
0.00466064
0.0047105
0.00475933
0.00480707
0.00485371
0.0048992
0.00494351
0.00498661
0.00502847
0.00506906
0.00510834
0.00514629
0.00518288
0.00521808
0.00525186
0.00528419
0.00531505
0.00534441
0.00537225
0.00539856
0.0054233
0.00544646
0.00546802
0.00548798
0.0055063
0.00552299
0.00553804
0.00555143
0.00556317
0.00557326
0.00558169
0.00558848
0.00559362
0.00559713
0.00559902
0.00559931
0.00559799
0.0055951
0.00559063
0.00558459
0.00557698
0.00556786
0.00555733
0.00554414
0.00552697
6.51397e-05
4.89566e-05
3.64458e-05
2.63327e-05
1.74539e-05
9.84658e-06
3.53988e-06
-1.50352e-06
-5.30805e-06
-7.89248e-06
-9.27538e-06
-9.46924e-06
-8.48043e-06
-6.31363e-06
-2.97322e-06
1.53836e-06
7.22096e-06
1.4075e-05
2.21003e-05
3.1296e-05
4.16621e-05
5.31989e-05
6.59063e-05
7.97831e-05
9.48278e-05
0.000111038
0.000128411
0.000146945
0.000166637
0.000187482
0.000209476
0.000232614
0.000256891
0.000282302
0.000308839
0.000336498
0.00036527
0.000395148
0.000426125
0.000458192
0.00049134
0.00052556
0.000560844
0.000597181
0.00063456
0.00067297
0.0007124
0.000752838
0.000794271
0.000836687
0.000880071
0.00092441
0.000969688
0.00101589
0.001063
0.001111
0.00115988
0.00120961
0.00126018
0.00131157
0.00136375
0.00141672
0.00147044
0.00152489
0.00158006
0.00163592
0.00169245
0.00174962
0.00180741
0.00186579
0.00192474
0.00198423
0.00204424
0.00210475
0.00216571
0.00222711
0.00228892
0.0023511
0.00241363
0.00247649
0.00253963
0.00260304
0.00266667
0.0027305
0.00279449
0.00285862
0.00292285
0.00298714
0.00305146
0.00311578
0.00318006
0.00324427
0.00330836
0.00337231
0.00343607
0.00349961
0.00356288
0.00362586
0.0036885
0.00375076
0.00381261
0.00387401
0.00393491
0.00399528
0.00405509
0.00411428
0.00417283
0.0042307
0.00428785
0.00434424
0.00439984
0.0044546
0.0045085
0.00456149
0.00461355
0.00466463
0.0047147
0.00476372
0.00481167
0.0048585
0.00490418
0.00494869
0.00499198
0.00503402
0.00507479
0.00511425
0.00515237
0.00518912
0.00522447
0.0052584
0.00529087
0.00532186
0.00535136
0.00537932
0.00540573
0.00543058
0.00545384
0.00547549
0.00549552
0.00551392
0.00553067
0.00554577
0.00555921
0.00557099
0.0055811
0.00558954
0.00559632
0.00560144
0.00560492
0.00560675
0.00560695
0.00560553
0.0056025
0.00559788
0.00559165
0.00558381
0.00557446
0.00556367
0.0055502
0.00553269
5.99012e-05
4.34611e-05
3.07259e-05
2.03981e-05
1.13059e-05
3.50651e-06
-2.96357e-06
-8.15009e-06
-1.20828e-05
-1.47781e-05
-1.6253e-05
-1.65233e-05
-1.55991e-05
-1.34867e-05
-1.01911e-05
-5.71636e-06
-6.46705e-08
6.76301e-06
1.47658e-05
2.39424e-05
3.42919e-05
4.5814e-05
5.85082e-05
7.23734e-05
8.74077e-05
0.000103609
0.000120974
0.000139501
0.000159187
0.000180028
0.00020202
0.000225158
0.000249436
0.00027485
0.000301393
0.00032906
0.000357842
0.000387734
0.000418727