/*--------------------------------*- C++ -*----------------------------------*\
  =========                 |
  \\      /  F ield         | OpenFOAM: The Open Source CFD Toolbox
   \\    /   O peration     | Website:  https://openfoam.org
    \\  /    A nd           | Version:  7
     \\/     M anipulation  |
\*---------------------------------------------------------------------------*/
FoamFile
{
    version     2.0;
    format      ascii;
    class       volScalarField;
    location    "0.0375";
    object      p;
}
// * * * * * * * * * * * * * * * * * * * * * * * * * * * * * * * * * * * * * //

dimensions      [0 2 -2 0 0 0 0];

internalField   nonuniform List<scalar> 
25600
(
-9.91194e-09
-2.34439e-05
-6.93898e-05
-0.000124857
-0.000182779
-0.000242753
-0.000303471
-0.000363597
-0.000421732
-0.000476562
-0.000527089
-0.00057265
-0.000612778
-0.000647052
-0.000675063
-0.000696524
-0.000711313
-0.000719341
-0.000720481
-0.000714619
-0.000701738
-0.000681924
-0.000655314
-0.000622011
-0.000582062
-0.000535498
-0.000482384
-0.000422838
-0.000357006
-0.000285028
-0.000207008
-0.000123018
-3.31337e-05
6.25502e-05
0.000163927
0.000270889
0.000383348
0.000501223
0.000624441
0.000752926
0.000886601
0.00102538
0.00116916
0.00131787
0.00147141
0.0016297
0.00179268
0.00196025
0.00213233
0.00230882
0.0024896
0.00267455
0.00286357
0.00305654
0.00325336
0.00345393
0.00365813
0.00386581
0.00407686
0.00429115
0.00450859
0.00472907
0.00495248
0.0051787
0.0054076
0.00563905
0.00587295
0.00610916
0.00634759
0.00658811
0.00683059
0.00707492
0.00732095
0.00756856
0.00781763
0.00806799
0.00831952
0.00857209
0.00882554
0.00907975
0.00933457
0.00958985
0.00984541
0.0101011
0.0103568
0.0106123
0.0108675
0.0111223
0.0113764
0.0116297
0.0118821
0.0121334
0.0123835
0.0126322
0.0128794
0.0131249
0.0133686
0.0136104
0.0138501
0.0140875
0.0143226
0.0145551
0.0147849
0.015012
0.015236
0.0154568
0.0156744
0.0158886
0.0160991
0.016306
0.016509
0.016708
0.0169029
0.0170935
0.0172796
0.0174612
0.017638
0.01781
0.0179769
0.0181387
0.0182952
0.0184463
0.0185918
0.0187317
0.0188658
0.018994
0.0191162
0.0192322
0.0193419
0.0194452
0.0195419
0.0196319
0.0197152
0.0197915
0.0198608
0.0199229
0.0199778
0.0200253
0.0200655
0.0200981
0.0201233
0.0201409
0.0201511
0.0201538
0.0201493
0.0201377
0.0201192
0.0200942
0.0200631
0.0200266
0.0199854
0.0199405
0.019893
0.0198444
0.0197966
0.0197518
0.0197129
0.019683
0.0196661
0.0196633
-1.88926e-05
-4.02339e-05
-7.73226e-05
-0.000122517
-0.000171656
-0.000223121
-0.000275468
-0.000327469
-0.000377978
-0.000425885
-0.000470203
-0.000510174
-0.000545281
-0.000575105
-0.00059925
-0.00061739
-0.000629316
-0.000634922
-0.000634116
-0.000626785
-0.000612838
-0.000592248
-0.00056506
-0.00053136
-0.00049122
-0.000444688
-0.000391815
-0.000332672
-0.000267357
-0.000195987
-0.000118667
-3.54844e-05
5.34874e-05
0.000148177
0.000248504
0.000354375
0.000465699
0.00058239
0.000704367
0.000831559
0.000963892
0.00110129
0.00124367
0.00139094
0.00154303
0.00169985
0.00186132
0.00202733
0.00219781
0.00237266
0.00255178
0.00273506
0.00292237
0.00311361
0.00330867
0.00350744
0.00370982
0.00391567
0.00412487
0.0043373
0.00455286
0.00477143
0.0049929
0.00521714
0.00544405
0.0056735
0.00590539
0.00613958
0.00637596
0.0066144
0.0068548
0.00709701
0.00734093
0.00758641
0.00783332
0.00808151
0.00833087
0.00858124
0.00883249
0.00908449
0.00933707
0.0095901
0.00984341
0.0100969
0.0103503
0.0106035
0.0108565
0.011109
0.0113608
0.0116119
0.011862
0.0121111
0.0123589
0.0126054
0.0128504
0.0130937
0.0133352
0.0135748
0.0138123
0.0140475
0.0142804
0.0145108
0.0147385
0.0149634
0.0151853
0.0154041
0.0156196
0.0158318
0.0160403
0.0162452
0.0164462
0.0166433
0.0168362
0.0170249
0.0172092
0.0173889
0.0175639
0.0177341
0.0178994
0.0180595
0.0182144
0.0183639
0.0185079
0.0186464
0.0187791
0.018906
0.0190269
0.0191417
0.0192503
0.0193525
0.0194483
0.0195376
0.0196202
0.019696
0.0197649
0.0198269
0.0198819
0.0199297
0.0199704
0.0200039
0.0200302
0.0200494
0.0200615
0.0200667
0.020065
0.0200568
0.0200422
0.0200218
0.0199959
0.0199651
0.0199303
0.0198923
0.0198523
0.0198116
0.0197718
0.0197348
0.0197027
0.0196778
0.0196632
0.0196604
-3.3047e-05
-4.99333e-05
-7.90042e-05
-0.000116549
-0.000159095
-0.000204494
-0.000250982
-0.00029721
-0.000342141
-0.000384849
-0.000424441
-0.000460143
-0.000491365
-0.000517694
-0.000538779
-0.00055427
-0.000563896
-0.000567504
-0.000565008
-0.000556333
-0.000541384
-0.000520069
-0.000492359
-0.000458289
-0.000417926
-0.000371335
-0.000318574
-0.000259693
-0.000194753
-0.000123836
-4.70392e-05
3.55422e-05
0.000123827
0.000217752
0.000317252
0.000422252
0.000532668
0.000648413
0.000769403
0.000895566
0.00102683
0.00116311
0.00130435
0.00145046
0.00160136
0.00175697
0.00191719
0.00208193
0.00225109
0.00242459
0.00260234
0.00278422
0.00297012
0.00315993
0.00335353
0.00355082
0.00375168
0.00395601
0.00416368
0.00437458
0.0045886
0.00480561
0.0050255
0.00524815
0.00547344
0.00570128
0.00593154
0.0061641
0.00639883
0.00663561
0.00687431
0.00711483
0.00735704
0.00760079
0.00784595
0.00809238
0.00833995
0.00858853
0.00883799
0.00908817
0.00933892
0.0095901
0.00984156
0.0100932
0.0103447
0.0105961
0.0108472
0.0110979
0.0113478
0.0115971
0.0118454
0.0120926
0.0123387
0.0125834
0.0128265
0.0130681
0.0133078
0.0135456
0.0137813
0.0140149
0.0142461
0.0144747
0.0147007
0.0149239
0.0151441
0.0153612
0.015575
0.0157855
0.0159924
0.0161957
0.0163951
0.0165906
0.0167819
0.0169691
0.0171518
0.0173301
0.0175037
0.0176725
0.0178364
0.0179952
0.0181488
0.0182971
0.0184399
0.0185773
0.0187089
0.0188347
0.0189547
0.0190686
0.0191763
0.0192778
0.019373
0.0194617
0.0195438
0.0196193
0.019688
0.01975
0.019805
0.0198531
0.0198943
0.0199286
0.0199559
0.0199763
0.01999
0.0199971
0.0199977
0.0199921
0.0199806
0.0199635
0.0199415
0.019915
0.0198848
0.0198517
0.0198168
0.0197813
0.0197465
0.0197141
0.0196856
0.0196629
0.0196483
0.0196433
-3.15292e-05
-4.7744e-05
-7.34751e-05
-0.000106623
-0.000144787
-0.000185963
-0.000228355
-0.000270535
-0.000311428
-0.000350191
-0.000386092
-0.00041842
-0.000446557
-0.000470066
-0.000488619
-0.000501907
-0.000509646
-0.000511612
-0.000507673
-0.000497758
-0.000481804
-0.000459739
-0.000431505
-0.000397084
-0.0003565
-0.000309806
-0.000257062
-0.000198327
-0.00013365
-6.3086e-05
1.32913e-05
9.53993e-05
0.000183155
0.000276486
0.000375329
0.000479616
0.000589274
0.000704225
0.000824394
0.000949704
0.00108008
0.00121544
0.00135572
0.00150084
0.00165073
0.00180529
0.00196444
0.00212808
0.00229612
0.00246847
0.00264502
0.00282567
0.00301033
0.00319888
0.00339122
0.00358724
0.00378681
0.00398982
0.00419618
0.00440576
0.00461846
0.00483416
0.00505272
0.00527403
0.00549798
0.00572446
0.00595336
0.00618456
0.00641791
0.0066533
0.00689061
0.00712971
0.00737048
0.00761278
0.00785648
0.00810142
0.00834748
0.00859453
0.00884245
0.00909109
0.00934028
0.00958988
0.00983975
0.0100897
0.0103397
0.0105896
0.0108391
0.0110881
0.0113365
0.0115842
0.011831
0.0120767
0.0123212
0.0125644
0.0128061
0.0130462
0.0132844
0.0135208
0.0137551
0.0139872
0.0142169
0.0144441
0.0146686
0.0148904
0.0151091
0.0153248
0.0155373
0.0157464
0.0159519
0.0161538
0.0163519
0.016546
0.0167361
0.0169219
0.0171034
0.0172804
0.0174528
0.0176205
0.0177832
0.0179409
0.0180935
0.0182408
0.0183827
0.0185191
0.0186499
0.018775
0.0188941
0.0190073
0.0191144
0.0192154
0.01931
0.0193983
0.0194801
0.0195554
0.019624
0.0196859
0.0197411
0.0197895
0.0198312
0.0198661
0.0198942
0.0199157
0.0199307
0.0199393
0.0199417
0.0199382
0.0199291
0.0199147
0.0198955
0.0198721
0.0198452
0.0198156
0.0197841
0.0197519
0.01972
0.0196898
0.0196626
0.01964
0.0196233
0.0196133
-1.46681e-05
-3.49514e-05
-6.11345e-05
-9.2642e-05
-0.000128308
-0.000166512
-0.000205767
-0.000244793
-0.000282516
-0.000318099
-0.000350891
-0.000380304
-0.000405772
-0.000426817
-0.000443096
-0.000454347
-0.000460321
-0.000460788
-0.000455566
-0.000444532
-0.000427617
-0.000404781
-0.000375979
-0.000341174
-0.000300357
-0.00025355
-0.000200794
-0.000142144
-7.76529e-05
-7.37346e-06
6.86372e-05
0.000150318
0.000237602
0.000330413
0.000428683
0.000532342
0.00064132
0.000755552
0.000874968
0.000999494
0.00112905
0.00126357
0.00140298
0.0015472
0.00169614
0.00184973
0.00200787
0.00217048
0.00233746
0.00250871
0.00268414
0.00286364
0.00304712
0.00323448
0.00342562
0.00362043
0.0038188
0.0040206
0.00422573
0.0044341
0.00464558
0.00486005
0.00507739
0.00529748
0.00552021
0.00574547
0.00597314
0.00620308
0.00643519
0.00666932
0.00690536
0.00714317
0.00738264
0.00762361
0.00786595
0.00810952
0.0083542
0.00859986
0.00884635
0.00909355
0.00934129
0.00958943
0.00983784
0.0100864
0.0103349
0.0105832
0.0108313
0.0110789
0.0113259
0.0115721
0.0118175
0.0120618
0.012305
0.0125468
0.0127871
0.0130259
0.0132628
0.0134978
0.0137308
0.0139616
0.01419
0.0144158
0.0146391
0.0148595
0.015077
0.0152914
0.0155025
0.0157104
0.0159147
0.0161153
0.0163121
0.016505
0.0166939
0.0168785
0.0170589
0.0172348
0.0174061
0.0175727
0.0177344
0.0178912
0.0180428
0.0181893
0.0183303
0.0184659
0.018596
0.0187203
0.0188388
0.0189514
0.019058
0.0191585
0.0192527
0.0193406
0.0194222
0.0194973
0.0195658
0.0196277
0.0196831
0.0197318
0.0197739
0.0198093
0.0198383
0.0198608
0.0198769
0.0198869
0.0198909
0.0198892
0.019882
0.0198698
0.019853
0.0198322
0.0198079
0.0197808
0.0197518
0.0197217
0.0196916
0.0196624
0.0196352
0.0196113
0.0195911
0.0195743
1.14858e-05
-1.46798e-05
-4.333e-05
-7.50988e-05
-0.000109928
-0.000146482
-0.000183572
-0.000220217
-0.0002555
-0.000288609
-0.0003189
-0.000345876
-0.000369066
-0.000388013
-0.000402349
-0.000411797
-0.000416141
-0.000415195
-0.000408781
-0.000396742
-0.000378976
-0.000355428
-0.000326061
-0.000290846
-0.000249767
-0.000202828
-0.000150046
-9.14528e-05
-2.70971e-05
4.29652e-05
0.00011868
0.000199995
0.000286857
0.000379203
0.000476963
0.000580067
0.000688448
0.000802044
0.000920786
0.0010446
0.00117342
0.00130716
0.00144577
0.00158916
0.00173725
0.00188994
0.00204715
0.00220879
0.00237477
0.002545
0.00271938
0.00289781
0.0030802
0.00326646
0.00345649
0.00365018
0.00384741
0.0040481
0.00425212
0.00445938
0.00466974
0.0048831
0.00509933
0.00531832
0.00553995
0.00576411
0.00599068
0.00621951
0.00645049
0.00668349
0.00691839
0.00715506
0.00739334
0.00763312
0.00787424
0.00811658
0.00836001
0.0086044
0.00884961
0.0090955
0.00934192
0.00958874
0.00983581
0.010083
0.0103302
0.0105772
0.0108239
0.0110702
0.0113159
0.0115609
0.011805
0.012048
0.01229
0.0125306
0.0127697
0.0130072
0.013243
0.0134768
0.0137086
0.0139382
0.0141654
0.0143901
0.0146122
0.0148314
0.0150477
0.015261
0.015471
0.0156777
0.0158808
0.0160804
0.0162761
0.0164679
0.0166556
0.0168392
0.0170186
0.0171935
0.0173638
0.0175294
0.0176903
0.0178462
0.017997
0.0181427
0.018283
0.0184179
0.0185473
0.018671
0.018789
0.018901
0.0190071
0.0191072
0.0192011
0.0192887
0.01937
0.019445
0.0195135
0.0195755
0.019631
0.01968
0.0197225
0.0197585
0.0197881
0.0198115
0.0198287
0.0198399
0.0198452
0.019845
0.0198396
0.0198292
0.0198143
0.0197954
0.0197731
0.0197479
0.0197205
0.0196917
0.0196623
0.0196331
0.019605
0.0195789
0.0195541
0.0195298
4.32465e-05
1.03929e-05
-2.18071e-05
-5.49669e-05
-9.01351e-05
-0.0001262
-0.000162131
-0.000197188
-0.000230688
-0.000261937
-0.000290313
-0.00031534
-0.00033663
-0.000353803
-0.000366505
-0.000374442
-0.00037739
-0.000375175
-0.00036765
-0.000354679
-0.000336141
-0.000311956
-0.000282072
-0.000246459
-0.000205103
-0.000158004
-0.000105167
-4.6609e-05
1.76374e-05
8.75258e-05
0.000163005
0.000244023
0.000330529
0.000422467
0.000519775
0.00062239
0.000730248
0.000843285
0.000961432
0.00108462
0.00121277
0.00134583
0.00148372
0.00162635
0.00177365
0.00192552
0.00208188
0.00224265
0.00240772
0.002577
0.00275042
0.00292787
0.00310927
0.00329453
0.00348354
0.00367621
0.00387242
0.00407209
0.00427511
0.00448136
0.00469073
0.0049031
0.00511834
0.00533635
0.00555701
0.00578021
0.0060058
0.00623366
0.00646365
0.00669566
0.00692955
0.00716519
0.00740244
0.00764116
0.00788121
0.00812246
0.00836478
0.00860805
0.00885213
0.00909686
0.00934211
0.00958775
0.00983364
0.0100797
0.0103257
0.0105715
0.0108171
0.0110622
0.0113067
0.0115506
0.0117936
0.0120356
0.0122764
0.012516
0.012754
0.0129905
0.0132252
0.013458
0.0136887
0.0139173
0.0141434
0.0143671
0.0145881
0.0148063
0.0150216
0.0152338
0.0154428
0.0156485
0.0158507
0.0160492
0.016244
0.0164348
0.0166217
0.0168044
0.0169828
0.0171568
0.0173263
0.0174911
0.0176512
0.0178063
0.0179564
0.0181014
0.0182411
0.0183754
0.0185042
0.0186274
0.0187448
0.0188564
0.0189621
0.0190618
0.0191554
0.0192428
0.0193239
0.0193987
0.0194672
0.0195293
0.019585
0.0196343
0.0196772
0.0197137
0.019744
0.0197682
0.0197863
0.0197985
0.019805
0.0198061
0.019802
0.0197931
0.0197797
0.0197623
0.0197413
0.0197173
0.0196909
0.0196627
0.0196332
0.0196032
0.0195733
0.0195443
0.0195145
0.0194823
7.80746e-05
3.81883e-05
1.7913e-06
-3.3487e-05
-6.97223e-05
-0.000106095
-0.000141699
-0.000175917
-0.000208235
-0.000238142
-0.0002651
-0.000288645
-0.000308418
-0.000324105
-0.000335413
-0.000342074
-0.000343851
-0.000340558
-0.000332058
-0.000318237
-0.000298988
-0.000274217
-0.000243861
-0.000207883
-0.000166262
-0.000118988
-6.6066e-05
-7.51196e-06
5.66509e-05
0.000126393
0.000201674
0.000282446
0.000368654
0.000460246
0.000557165
0.000659355
0.000766756
0.000879301
0.000996923
0.00111955
0.00124713
0.00137957
0.00151682
0.00165877
0.00180535
0.00195648
0.00211208
0.00227205
0.00243629
0.00260473
0.00277727
0.00295384
0.00313435
0.0033187
0.00350681
0.00369856
0.00389386
0.00409262
0.00429474
0.0045001
0.00470858
0.00492007
0.00513445
0.00535161
0.00557142
0.00579377
0.00601851
0.00624551
0.00647464
0.00670578
0.0069388
0.00717354
0.00740988
0.00764767
0.00788678
0.00812708
0.00836845
0.00861074
0.00885382
0.00909755
0.00934179
0.00958641
0.00983129
0.0100763
0.0103213
0.0105661
0.0108107
0.0110548
0.0112984
0.0115413
0.0117833
0.0120244
0.0122643
0.0125029
0.01274
0.0129756
0.0132093
0.0134412
0.0136711
0.0138987
0.014124
0.0143467
0.0145668
0.0147841
0.0149985
0.0152099
0.015418
0.0156229
0.0158242
0.0160219
0.0162158
0.0164059
0.0165919
0.0167738
0.0169515
0.0171248
0.0172935
0.0174576
0.017617
0.0177715
0.0179209
0.0180653
0.0182044
0.0183382
0.0184665
0.0185892
0.0187062
0.0188175
0.0189228
0.0190221
0.0191154
0.0192026
0.0192836
0.0193584
0.0194268
0.019489
0.0195449
0.0195945
0.0196378
0.0196748
0.0197057
0.0197306
0.0197495
0.0197626
0.0197701
0.0197723
0.0197693
0.0197615
0.0197492
0.0197329
0.0197128
0.0196895
0.0196635
0.0196352
0.0196051
0.0195737
0.0195415
0.0195092
0.0194742
0.0194341
0.000113958
6.70824e-05
2.61479e-05
-1.1778e-05
-4.9605e-05
-8.68072e-05
-0.000122667
-0.000156656
-0.000188343
-0.000217358
-0.000243298
-0.000265756
-0.000284382
-0.000298894
-0.000309048
-0.00031462
-0.0003154
-0.0003112
-0.000301875
-0.000287315
-0.000267424
-0.000242115
-0.000211325
-0.00017501
-0.000133139
-8.5694e-05
-3.26753e-05
2.59023e-05
9.00159e-05
0.000159644
0.00023476
0.000315322
0.000401279
0.000492578
0.000589169
0.000690998
0.000798006
0.000910126
0.00102729
0.00114944
0.0012765
0.00140841
0.00154508
0.00168643
0.00183237
0.00198284
0.00213775
0.002297
0.00246051
0.0026282
0.00279997
0.00297576
0.00315549
0.00333904
0.00352634
0.00371729
0.00391179
0.00410976
0.00431109
0.00451566
0.00472337
0.00493409
0.00514773
0.00536415
0.00558323
0.00580483
0.00602883
0.00625508
0.00648347
0.00671386
0.00694611
0.00718008
0.00741563
0.00765261
0.00789092
0.00813041
0.00837095
0.0086124
0.00885463
0.0090975
0.00934088
0.00958465
0.00982867
0.0100728
0.010317
0.010561
0.0108047
0.011048
0.0112907
0.0115328
0.0117741
0.0120143
0.0122534
0.0124912
0.0127276
0.0129624
0.0131954
0.0134265
0.0136556
0.0138824
0.0141069
0.0143289
0.0145483
0.0147648
0.0149785
0.0151891
0.0153966
0.0156007
0.0158013
0.0159983
0.0161916
0.0163809
0.0165663
0.0167476
0.0169246
0.0170973
0.0172654
0.0174289
0.0175877
0.0177416
0.0178905
0.0180344
0.018173
0.0183063
0.0184342
0.0185565
0.0186731
0.0187839
0.0188889
0.018988
0.0190811
0.0191681
0.019249
0.0193237
0.0193922
0.0194546
0.0195106
0.0195605
0.0196042
0.0196417
0.0196731
0.0196986
0.0197182
0.0197321
0.0197405
0.0197435
0.0197414
0.0197345
0.019723
0.0197074
0.0196878
0.0196648
0.0196387
0.0196098
0.0195786
0.0195454
0.0195106
0.0194747
0.0194346
0.019387
0.000149104
9.56122e-05
5.013e-05
9.23945e-06
-3.06092e-05
-6.90392e-05
-0.000105544
-0.00013975
-0.000171274
-0.000199811
-0.000225074
-0.000246747
-0.000264532
-0.000278164
-0.000287416
-0.000292098
-0.000292037
-0.000287068
-0.000277047
-0.000261858
-0.000241407
-0.000215618
-0.00018443
-0.000147798
-0.000105688
-5.80776e-05
-4.96266e-06
5.36498e-05
0.000117743
0.000187296
0.000262285
0.000342674
0.00042842
0.000519477
0.000615797
0.000717326
0.000824002
0.00093576
0.00105254
0.00117427
0.00130089
0.00143232
0.00156849
0.00170931
0.00185471
0.00200461
0.00215891
0.00231754
0.00248041
0.00264744
0.00281856
0.00299369
0.00317273
0.0033556
0.0035422
0.00373246
0.00392627
0.00412356
0.00432421
0.00452812
0.00473516
0.00494524
0.00515823
0.00537402
0.00559247
0.00581344
0.0060368
0.00626241
0.00649016
0.0067199
0.00695149
0.00718479
0.00741966
0.00765596
0.00789358
0.00813239
0.00837223
0.00861298
0.00885451
0.00909667
0.00933934
0.00958241
0.00982574
0.0100692
0.0103127
0.010556
0.010799
0.0110417
0.0112838
0.0115252
0.0117658
0.0120054
0.0122439
0.012481
0.0127167
0.0129508
0.0131832
0.0134137
0.0136421
0.0138684
0.0140923
0.0143136
0.0145324
0.0147484
0.0149614
0.0151715
0.0153783
0.0155819
0.0157819
0.0159784
0.0161711
0.01636
0.0165449
0.0167257
0.0169022
0.0170743
0.0172419
0.017405
0.0175632
0.0177167
0.0178651
0.0180085
0.0181467
0.0182796
0.0184071
0.018529
0.0186453
0.0187559
0.0188606
0.0189594
0.0190523
0.0191392
0.01922
0.0192948
0.0193634
0.0194258
0.0194821
0.0195322
0.0195763
0.0196142
0.0196462
0.0196722
0.0196925
0.019707
0.0197161
0.0197198
0.0197184
0.0197121
0.0197011
0.0196859
0.0196665
0.0196434
0.0196168
0.0195871
0.0195544
0.0195191
0.0194816
0.0194421
0.0193968
0.0193422
0.000182033
0.000122445
7.26354e-05
2.86962e-05
-1.34462e-05
-5.34267e-05
-9.08695e-05
-0.000125594
-0.000157307
-0.000185728
-0.000210632
-0.000231792
-0.000248976
-0.00026196
-0.000270537
-0.000274528
-0.000273787
-0.000268179
-0.00025757
-0.000241844
-0.000220911
-0.000194705
-0.000163163
-0.000126235
-8.38917e-05
-3.61179e-05
1.70959e-05
7.57533e-05
0.000139847
0.000209357
0.000284255
0.000364513
0.000450094
0.000540961
0.000637064
0.000738347
0.000844749
0.000956209
0.00107267
0.00119405
0.0013203
0.00145133
0.00158707
0.00172745
0.00187238
0.00202178
0.00217558
0.00233368
0.00249601
0.0026625
0.00283308
0.00300764
0.00318612
0.00336842
0.00355445
0.00374413
0.00393739
0.00413411
0.0043342
0.00453754
0.00474404
0.00495358
0.00516604
0.00538129
0.0055992
0.00581963
0.00604245
0.00626753
0.00649473
0.00672392
0.00695495
0.00718768
0.00742198
0.00765772
0.00789477
0.008133
0.00837228
0.00861246
0.00885342
0.00909502
0.00933714
0.00957967
0.00982246
0.0100654
0.0103083
0.0105511
0.0107937
0.0110358
0.0112774
0.0115183
0.0117584
0.0119975
0.0122355
0.0124721
0.0127073
0.012941
0.0131728
0.0134028
0.0136308
0.0138565
0.0140799
0.0143008
0.0145191
0.0147347
0.0149473
0.0151569
0.0153633
0.0155664
0.0157661
0.0159622
0.0161545
0.016343
0.0165275
0.0167079
0.016884
0.0170558
0.017223
0.0173857
0.0175436
0.0176966
0.0178447
0.0179878
0.0181256
0.0182582
0.0183853
0.0185069
0.0186229
0.0187332
0.0188377
0.0189364
0.0190292
0.019116
0.0191968
0.0192715
0.0193402
0.0194028
0.0194593
0.0195097
0.0195541
0.0195925
0.0196249
0.0196514
0.0196722
0.0196873
0.0196969
0.0197011
0.0197002
0.0196943
0.0196836
0.0196684
0.0196489
0.0196254
0.0195981
0.0195673
0.019533
0.0194954
0.019455
0.019412
0.0193619
0.0193008
0.000211716
0.000146513
9.26325e-05
4.57436e-05
1.22606e-06
-4.05359e-05
-7.91621e-05
-0.000114623
-0.000146757
-0.000175334
-0.00020016
-0.000221062
-0.000237862
-0.000250389
-0.000258471
-0.000261946
-0.00026068
-0.000254554
-0.000243454
-0.000227274
-0.000205931
-0.000179361
-0.000147502
-0.000110306
-6.77449e-05
-1.98072e-05
3.35171e-05
9.22366e-05
0.00015635
0.000225841
0.000300684
0.000380853
0.00046632
0.000557048
0.000652985
0.000754076
0.000860263
0.000971488
0.00108769
0.0012088
0.00133474
0.00146545
0.00160084
0.00174084
0.00188539
0.0020344
0.00218778
0.00234546
0.00250736
0.00267342
0.00284356
0.00301768
0.0031957
0.00337755
0.00356313
0.00375237
0.00394518
0.00414146
0.00434109
0.00454399
0.00475005
0.00495916
0.00517118
0.005386
0.00560347
0.00582345
0.00604582
0.00627045
0.0064972
0.00672594
0.0069565
0.00718877
0.00742261
0.00765789
0.00789449
0.00813227
0.0083711
0.00861084
0.00885137
0.00909256
0.00933428
0.00957642
0.00981884
0.0100614
0.010304
0.0105464
0.0107886
0.0110304
0.0112716
0.0115122
0.0117519
0.0119906
0.0122282
0.0124645
0.0126993
0.0129326
0.0131641
0.0133938
0.0136214
0.0138468
0.0140699
0.0142905
0.0145084
0.0147237
0.014936
0.0151453
0.0153515
0.0155543
0.0157537
0.0159496
0.0161416
0.0163299
0.0165141
0.0166943
0.0168701
0.0170417
0.0172086
0.017371
0.0175286
0.0176814
0.0178292
0.017972
0.0181096
0.0182418
0.0183687
0.0184901
0.0186059
0.018716
0.0188204
0.018919
0.0190117
0.0190985
0.0191793
0.0192541
0.0193229
0.0193856
0.0194424
0.019493
0.0195377
0.0195764
0.0196092
0.0196362
0.0196573
0.0196729
0.0196829
0.0196875
0.0196868
0.0196811
0.0196705
0.0196551
0.0196353
0.0196112
0.0195829
0.0195507
0.0195147
0.0194748
0.0194316
0.0193851
0.0193305
0.0192635
0.000237444
0.000167032
0.000109308
5.96096e-05
1.27711e-05
-3.08655e-05
-7.08652e-05
-0.00010725
-0.000139974
-0.000168892
-0.000193852
-0.00021471
-0.000231326
-0.00024357
-0.00025131
-0.000254412
-0.000252752
-0.000246219
-0.000234717
-0.000218159
-0.000196466
-0.000169574
-0.00013743
-9.99924e-05
-5.72332e-05
-9.13504e-06
4.43131e-05
0.000103117
0.000167273
0.000236771
0.000311592
0.000391716
0.000477116
0.000567752
0.000663574
0.000764527
0.000870558
0.000981609
0.00109762
0.00121851
0.00134422
0.00147467
0.0016098
0.00174952
0.00189378
0.00204248
0.00219554
0.0023529
0.00251448
0.00268022
0.00285003
0.00302382
0.00320151
0.00338303
0.00356829
0.0037572
0.00394968
0.00414563
0.00434494
0.00454751
0.00475324
0.00496201
0.00517369
0.00538816
0.00560527
0.0058249
0.00604692
0.0062712
0.00649759
0.00672596
0.00695616
0.00718807
0.00742155
0.00765649
0.00789276
0.00813021
0.00836872
0.00860816
0.00884839
0.00908931
0.00933079
0.00957269
0.00981488
0.0100572
0.0102996
0.0105418
0.0107838
0.0110253
0.0112664
0.0115067
0.0117462
0.0119847
0.0122221
0.0124581
0.0126927
0.0129258
0.0131571
0.0133865
0.0136139
0.0138391
0.014062
0.0142825
0.0145003
0.0147154
0.0149276
0.0151368
0.0153428
0.0155455
0.0157448
0.0159405
0.0161325
0.0163206
0.0165047
0.0166847
0.0168605
0.0170318
0.0171987
0.0173609
0.0175184
0.017671
0.0178186
0.0179612
0.0180986
0.0182307
0.0183574
0.0184786
0.0185943
0.0187043
0.0188086
0.0189072
0.0189999
0.0190867
0.0191676
0.0192425
0.0193114
0.0193743
0.0194312
0.0194822
0.0195271
0.0195661
0.0195992
0.0196265
0.019648
0.0196638
0.019674
0.0196788
0.0196782
0.0196725
0.0196617
0.0196461
0.0196257
0.0196008
0.0195715
0.0195378
0.0194999
0.0194578
0.0194118
0.019362
0.0193033
0.0192309
0.000258603
0.000183426
0.000122069
6.96579e-05
2.05999e-05
-2.48866e-05
-6.6354e-05
-0.000103809
-0.000137275
-0.000166679
-0.000191921
-0.000212897
-0.000229495
-0.000241609
-0.000249143
-0.00025199
-0.00025004
-0.000243194
-0.000231374
-0.000214505
-0.000192514
-0.000165339
-0.000132938
-9.52795e-05
-5.23343e-05
-4.07804e-06
4.95025e-05
0.000108407
0.00017263
0.000242165
0.000317003
0.000397125
0.000482499
0.000573086
0.000668838
0.000769707
0.000875639
0.000986575
0.00110245
0.00122319
0.00134873
0.001479
0.00161395
0.00175348
0.00189753
0.00204602
0.00219886
0.00235601
0.00251738
0.0026829
0.00285248
0.00302606
0.00320353
0.00338484
0.0035699
0.00375861
0.00395088
0.00414662
0.00434571
0.00454806
0.00475356
0.00496209
0.00517353
0.00538774
0.00560459
0.00582396
0.00604572
0.00626973
0.00649586
0.00672396
0.00695391
0.00718556
0.00741881
0.00765353
0.00788958
0.00812684
0.00836516
0.00860443
0.00884452
0.00908532
0.00932669
0.0095685
0.00981061
0.0100529
0.0102951
0.0105373
0.0107792
0.0110207
0.0112616
0.0115019
0.0117413
0.0119797
0.0122169
0.0124529
0.0126875
0.0129204
0.0131517
0.013381
0.0136084
0.0138335
0.0140564
0.0142768
0.0144946
0.0147097
0.0149219
0.0151312
0.0153372
0.0155399
0.0157392
0.0159349
0.0161269
0.016315
0.0164991
0.0166791
0.0168549
0.0170263
0.0171931
0.0173553
0.0175127
0.0176652
0.0178128
0.0179553
0.0180927
0.0182247
0.0183514
0.0184726
0.0185882
0.0186982
0.0188026
0.0189011
0.0189939
0.0190808
0.0191618
0.0192368
0.0193059
0.019369
0.0194261
0.0194772
0.0195223
0.0195616
0.0195949
0.0196224
0.0196441
0.01966
0.0196703
0.0196752
0.0196745
0.0196686
0.0196576
0.0196414
0.0196204
0.0195946
0.019564
0.0195289
0.0194892
0.0194448
0.0193961
0.0193434
0.0192809
0.0192037
0.000274621
0.000195191
0.000130466
7.54309e-05
2.42217e-05
-2.30481e-05
-6.59842e-05
-0.000104592
-0.000138913
-0.000168923
-0.000194567
-0.000215783
-0.00023249
-0.000244604
-0.000252046
-0.000254734
-0.00025258
-0.000245503
-0.000233435
-0.000216311
-0.000194065
-0.000166646
-0.000134019
-9.6156e-05
-5.30279e-05
-4.61082e-06
4.91068e-05
0.000108123
0.000172435
0.000242041
0.000316933
0.00039709
0.000482477
0.000573056
0.000668785
0.000769619
0.000875503
0.000986375
0.00110217
0.00122282
0.00134826
0.00147844
0.00161328
0.0017527
0.00189663
0.002045
0.00219773
0.00235476
0.00251602
0.00268142
0.0028509
0.00302436
0.00320174
0.00338296
0.00356793
0.00375655
0.00394873
0.00414436
0.00434334
0.00454557
0.00475095
0.00495934
0.00517062
0.00538467
0.00560135
0.00582056
0.00604215
0.006266
0.00649196
0.00671991
0.00694971
0.00718124
0.00741437
0.00764899
0.00788496
0.00812215
0.00836043
0.00859968
0.00883977
0.00908059
0.009322
0.00956386
0.00980602
0.0100483
0.0102907
0.0105329
0.0107748
0.0110164
0.0112574
0.0114977
0.0117371
0.0119756
0.0122129
0.0124489
0.0126835
0.0129165
0.0131479
0.0133773
0.0136047
0.01383
0.014053
0.0142735
0.0144915
0.0147067
0.0149191
0.0151284
0.0153346
0.0155375
0.0157369
0.0159328
0.0161249
0.0163131
0.0164974
0.0166775
0.0168534
0.0170249
0.0171918
0.0173541
0.0175116
0.0176642
0.0178118
0.0179544
0.0180918
0.0182239
0.0183506
0.0184719
0.0185876
0.0186977
0.0188021
0.0189008
0.0189937
0.0190807
0.0191619
0.0192371
0.0193063
0.0193695
0.0194268
0.0194781
0.0195234
0.0195628
0.0195962
0.0196238
0.0196456
0.0196616
0.0196719
0.0196766
0.0196758
0.0196696
0.0196581
0.0196414
0.0196195
0.0195927
0.019561
0.0195243
0.0194828
0.0194362
0.0193851
0.0193296
0.0192637
0.0191823
0.000285023
0.000201857
0.000134113
7.65944e-05
2.32803e-05
-2.5719e-05
-7.00902e-05
-0.000109871
-0.000145112
-0.000175816
-0.000201959
-0.00022351
-0.000240425
-0.000252638
-0.00026008
-0.00026269
-0.000260408
-0.000253169
-0.00024091
-0.000223574
-0.000201113
-0.000173489
-0.000140665
-0.000102611
-5.93015e-05
-1.07217e-05
4.31369e-05
0.000102278
0.000166703
0.00023641
0.000311388
0.000391611
0.000477046
0.000567659
0.00066341
0.000764254
0.000870134
0.00098099
0.00109676
0.00121738
0.0013428
0.00147295
0.00160776
0.00174715
0.00189104
0.00203938
0.00219209
0.0023491
0.00251034
0.00267574
0.0028452
0.00301867
0.00319607
0.00337731
0.0035623
0.00375094
0.00394313
0.00413876
0.00433774
0.00453996
0.0047453
0.00495365
0.00516487
0.00537885
0.00559547
0.00581462
0.00603615
0.00625993
0.00648584
0.00671374
0.00694351
0.00717504
0.00740819
0.00764284
0.00787887
0.00811613
0.00835451
0.00859389
0.00883413
0.00907512
0.00931671
0.00955876
0.00980111
0.0100436
0.0102862
0.0105286
0.0107707
0.0110125
0.0112537
0.0114941
0.0117338
0.0119724
0.0122099
0.0124461
0.0126809
0.0129141
0.0131456
0.0133753
0.013603
0.0138285
0.0140517
0.0142725
0.0144908
0.0147063
0.014919
0.0151286
0.0153351
0.0155382
0.0157379
0.015934
0.0161264
0.0163149
0.0164994
0.0166798
0.0168559
0.0170276
0.0171947
0.0173572
0.0175149
0.0176677
0.0178156
0.0179584
0.018096
0.0182282
0.0183551
0.0184766
0.0185925
0.0187028
0.0188074
0.0189062
0.0189993
0.0190865
0.0191678
0.0192432
0.0193126
0.019376
0.0194334
0.0194848
0.0195302
0.0195697
0.0196032
0.0196308
0.0196526
0.0196685
0.0196787
0.0196832
0.0196821
0.0196755
0.0196635
0.0196461
0.0196234
0.0195956
0.0195626
0.0195245
0.0194812
0.0194326
0.0193792
0.0193212
0.0192522
0.019167
0.000289495
0.000203044
0.000132631
7.28395e-05
1.75162e-05
-3.31703e-05
-7.89455e-05
-0.000119891
-0.000156077
-0.000187529
-0.000214242
-0.000236205
-0.0002534
-0.000265783
-0.000273299
-0.000275905
-0.00027356
-0.000266213
-0.000253808
-0.000236304
-0.000213669
-0.00018587
-0.00015287
-0.000114637
-7.11551e-05
-2.24153e-05
3.15906e-05
9.08728e-05
0.000155435
0.000225269
0.000300358
0.000380676
0.000466194
0.000556879
0.000652693
0.000753587
0.000859506
0.000970391
0.00108619
0.00120685
0.00133231
0.00146249
0.00159734
0.00173677
0.00188071
0.00202911
0.00218189
0.00233898
0.00250029
0.00266577
0.00283534
0.00300892
0.00318644
0.00336781
0.00355292
0.00374167
0.00393397
0.00412972
0.00432879
0.00453109
0.0047365
0.0049449
0.00515617
0.00537019
0.00558685
0.00580604
0.00602761
0.00625144
0.00647741
0.00670539
0.00693527
0.00716692
0.00740022
0.00763506
0.00787128
0.00810877
0.0083474
0.00858705
0.00882759
0.00906889
0.00931081
0.00955318
0.00979586
0.0100387
0.0102816
0.0105243
0.0107668
0.0110089
0.0112504
0.0114912
0.0117311
0.0119701
0.0122079
0.0124444
0.0126795
0.0129131
0.013145
0.0133751
0.0136031
0.013829
0.0140526
0.0142739
0.0144925
0.0147085
0.0149215
0.0151316
0.0153384
0.015542
0.0157421
0.0159386
0.0161313
0.0163202
0.0165051
0.0166859
0.0168623
0.0170343
0.0172018
0.0173646
0.0175227
0.0176758
0.017824
0.0179671
0.018105
0.0182376
0.0183648
0.0184865
0.0186027
0.0187132
0.0188181
0.0189172
0.0190105
0.019098
0.0191795
0.0192551
0.0193246
0.0193882
0.0194457
0.0194972
0.0195427
0.0195823
0.0196158
0.0196434
0.019665
0.0196808
0.0196908
0.0196951
0.0196936
0.0196866
0.019674
0.0196559
0.0196324
0.0196036