/*--------------------------------*- C++ -*----------------------------------*\
  =========                 |
  \\      /  F ield         | OpenFOAM: The Open Source CFD Toolbox
   \\    /   O peration     | Website:  https://openfoam.org
    \\  /    A nd           | Version:  7
     \\/     M anipulation  |
\*---------------------------------------------------------------------------*/
FoamFile
{
    version     2.0;
    format      ascii;
    class       surfaceScalarField;
    location    "0.0375";
    object      phi;
}
// * * * * * * * * * * * * * * * * * * * * * * * * * * * * * * * * * * * * * //

dimensions      [0 3 -1 0 0 0 0];

internalField   nonuniform List<scalar> 
50880
(
9.983e-12
-9.95719e-12
2.65474e-11
-1.65603e-11
3.85332e-11
-1.19912e-11
4.44258e-11
-5.89383e-12
4.19233e-11
2.50351e-12
2.86409e-11
1.32835e-11
3.06153e-12
2.55774e-11
-3.54787e-11
3.85394e-11
-8.70216e-11
5.15424e-11
-1.51258e-10
6.42344e-11
-2.27676e-10
7.64151e-11
-3.15562e-10
8.78851e-11
-4.14163e-10
9.86004e-11
-5.22667e-10
1.08505e-10
-6.40263e-10
1.17596e-10
-7.66124e-10
1.25863e-10
-8.9945e-10
1.33328e-10
-1.03949e-09
1.40039e-10
-1.1855e-09
1.46014e-10
-1.33679e-09
1.51293e-10
-1.49273e-09
1.55932e-10
-1.65266e-09
1.59938e-10
-1.81601e-09
1.63349e-10
-1.98223e-09
1.66216e-10
-2.15078e-09
1.68556e-10
-2.3212e-09
1.70412e-10
-2.49302e-09
1.71828e-10
-2.66583e-09
1.72813e-10
-2.83925e-09
1.73412e-10
-3.01292e-09
1.73668e-10
-3.1865e-09
1.73578e-10
-3.35968e-09
1.73181e-10
-3.53219e-09
1.72505e-10
-3.70374e-09
1.71551e-10
-3.87409e-09
1.70343e-10
-4.04301e-09
1.68915e-10
-4.21028e-09
1.6728e-10
-4.37574e-09
1.65455e-10
-4.53921e-09
1.63469e-10
-4.70053e-09
1.61327e-10
-4.85955e-09
1.59019e-10
-5.01612e-09
1.56566e-10
-5.17011e-09
1.53992e-10
-5.32141e-09
1.51302e-10
-5.46991e-09
1.48494e-10
-5.6155e-09
1.4559e-10
-5.7581e-09
1.42599e-10
-5.8976e-09
1.39508e-10
-6.03393e-09
1.36322e-10
-6.16699e-09
1.33061e-10
-6.29672e-09
1.29729e-10
-6.42304e-09
1.26318e-10
-6.54586e-09
1.2282e-10
-6.66511e-09
1.1925e-10
-6.78073e-09
1.15621e-10
-6.89266e-09
1.1193e-10
-7.00083e-09
1.08173e-10
-7.10518e-09
1.04351e-10
-7.20566e-09
1.00477e-10
-7.30221e-09
9.65498e-11
-7.39477e-09
9.25658e-11
-7.4833e-09
8.85284e-11
-7.56774e-09
8.44377e-11
-7.64803e-09
8.02902e-11
-7.72412e-09
7.60853e-11
-7.79595e-09
7.18307e-11
-7.86349e-09
6.75422e-11
-7.92672e-09
6.3223e-11
-7.98558e-09
5.88625e-11
-8.04004e-09
5.44581e-11
-8.09006e-09
5.0017e-11
-8.13561e-09
4.55465e-11
-8.17665e-09
4.10475e-11
-8.21317e-09
3.65159e-11
-8.24512e-09
3.19534e-11
-8.27249e-09
2.73672e-11
-8.29524e-09
2.27587e-11
-8.31337e-09
1.8125e-11
-8.32683e-09
1.3464e-11
-8.33562e-09
8.77855e-12
-8.33969e-09
4.07614e-12
-8.33905e-09
-6.43026e-13
-8.33367e-09
-5.38226e-12
-8.32353e-09
-1.01334e-11
-8.30864e-09
-1.48894e-11
-8.28899e-09
-1.96559e-11
-8.26455e-09
-2.44382e-11
-8.23531e-09
-2.92327e-11
-8.20128e-09
-3.40314e-11
-8.16246e-09
-3.88235e-11
-8.11886e-09
-4.36038e-11
-8.07048e-09
-4.83777e-11
-8.01733e-09
-5.31519e-11
-7.95941e-09
-5.79216e-11
-7.89673e-09
-6.26746e-11
-7.82933e-09
-6.74037e-11
-7.75722e-09
-7.21074e-11
-7.68044e-09
-7.67854e-11
-7.599e-09
-8.14372e-11
-7.51294e-09
-8.60578e-11
-7.4223e-09
-9.06375e-11
-7.32713e-09
-9.51757e-11
-7.22745e-09
-9.96806e-11
-7.12331e-09
-1.04146e-10
-7.01476e-09
-1.08552e-10
-6.90186e-09
-1.12889e-10
-6.7847e-09
-1.17169e-10
-6.6633e-09
-1.21393e-10
-6.53776e-09
-1.25549e-10
-6.40813e-09
-1.29628e-10
-6.27449e-09
-1.33634e-10
-6.13693e-09
-1.37567e-10
-5.99551e-09
-1.41414e-10
-5.85035e-09
-1.45162e-10
-5.70154e-09
-1.48807e-10
-5.5492e-09
-1.5234e-10
-5.39345e-09
-1.55746e-10
-5.23444e-09
-1.59015e-10
-5.0723e-09
-1.62141e-10
-4.90719e-09
-1.65109e-10
-4.73929e-09
-1.679e-10
-4.56879e-09
-1.70502e-10
-4.39587e-09
-1.72911e-10
-4.22076e-09
-1.75112e-10
-4.04367e-09
-1.77086e-10
-3.86486e-09
-1.78816e-10
-3.68457e-09
-1.80286e-10
-3.5031e-09
-1.81473e-10
-3.32075e-09
-1.82345e-10
-3.13787e-09
-1.82883e-10
-2.9548e-09
-1.83072e-10
-2.77191e-09
-1.82889e-10
-2.58961e-09
-1.823e-10
-2.40834e-09
-1.8127e-10
-2.22856e-09
-1.7978e-10
-2.05075e-09
-1.77806e-10
-1.87544e-09
-1.75311e-10
-1.70319e-09
-1.72253e-10
-1.53459e-09
-1.68598e-10
-1.37026e-09
-1.64323e-10
-1.21087e-09
-1.5939e-10
-1.05711e-09
-1.53759e-10
-9.09722e-10
-1.47393e-10
-7.69455e-10
-1.40268e-10
-6.37095e-10
-1.32362e-10
-5.13453e-10
-1.23641e-10
-3.99377e-10
-1.14075e-10
-2.9572e-10
-1.03655e-10
-2.03332e-10
-9.23893e-11
-1.23046e-10
-8.02865e-11
-5.56692e-11
-6.73768e-11
-1.9294e-12
-5.3739e-11
3.75984e-11
-3.95267e-11
6.25944e-11
-2.49949e-11
7.31527e-11
-1.05585e-11
7.00611e-11
3.09109e-12
5.52949e-11
1.47666e-11
3.28815e-11
2.24123e-11
1.04461e-11
2.24348e-11
1.04466e-11
2.64487e-11
-3.64024e-11
6.05913e-11
-5.07102e-11
8.07964e-11
-3.21927e-11
7.96399e-11
-4.74094e-12
5.18098e-11
3.03322e-11
-6.8223e-12
7.19155e-11
-9.88212e-11
1.17577e-10
-2.25402e-10
1.65119e-10
-3.86661e-10
2.12804e-10
-5.81894e-10
2.59466e-10
-8.09774e-10
3.04296e-10
-1.0687e-09
3.46811e-10
-1.35676e-09
3.86654e-10
-1.67193e-09
4.23677e-10
-2.01214e-09
4.57803e-10
-2.37528e-09
4.88995e-10
-2.75926e-09
5.17308e-10
-3.16207e-09
5.42837e-10
-3.58172e-09
5.65663e-10
-4.01633e-09
5.85906e-10
-4.46409e-09
6.03697e-10
-4.92329e-09
6.19137e-10
-5.39229e-09
6.32356e-10
-5.86957e-09
6.43492e-10
-6.35367e-09
6.52655e-10
-6.84324e-09
6.59979e-10
-7.33699e-09
6.65585e-10
-7.83376e-09
6.6958e-10
-8.33243e-09
6.72084e-10
-8.83197e-09
6.73207e-10
-9.33141e-09
6.73031e-10
-9.82988e-09
6.71657e-10
-1.03265e-08
6.69167e-10
-1.08206e-08
6.65629e-10
-1.13114e-08
6.61137e-10
-1.17983e-08
6.55769e-10
-1.22806e-08
6.49584e-10
-1.27578e-08
6.42657e-10
-1.32294e-08
6.35052e-10
-1.36948e-08
6.26801e-10
-1.41538e-08
6.17942e-10
-1.46057e-08
6.0853e-10
-1.50503e-08
5.98611e-10
-1.54872e-08
5.8821e-10
-1.59161e-08
5.77361e-10
-1.63366e-08
5.66108e-10
-1.67485e-08
5.54472e-10
-1.71515e-08
5.4246e-10
-1.75452e-08
5.30095e-10
-1.79296e-08
5.17409e-10
-1.83043e-08
5.04413e-10
-1.86691e-08
4.91112e-10
-1.90237e-08
4.77517e-10
-1.93681e-08
4.63646e-10
-1.9702e-08
4.49514e-10
-2.00252e-08
4.35124e-10
-2.03375e-08
4.20488e-10
-2.06388e-08
4.05623e-10
-2.09289e-08
3.90537e-10
-2.12076e-08
3.75232e-10
-2.14747e-08
3.59712e-10
-2.17302e-08
3.43986e-10
-2.19738e-08
3.28061e-10
-2.22054e-08
3.11934e-10
-2.2425e-08
2.95612e-10
-2.26322e-08
2.79113e-10
-2.28272e-08
2.62455e-10
-2.30096e-08
2.45643e-10
-2.31794e-08
2.28676e-10
-2.33365e-08
2.11555e-10
-2.34808e-08
1.94292e-10
-2.36121e-08
1.76895e-10
-2.37304e-08
1.59371e-10
-2.38357e-08
1.41724e-10
-2.39277e-08
1.23965e-10
-2.40064e-08
1.06104e-10
-2.40718e-08
8.81408e-11
-2.41237e-08
7.00779e-11
-2.41622e-08
5.19242e-11
-2.41871e-08
3.36885e-11
-2.41984e-08
1.53801e-11
-2.41961e-08
-2.99329e-12
-2.418e-08
-2.14298e-11
-2.41502e-08
-3.99186e-11
-2.41067e-08
-5.84416e-11
-2.40493e-08
-7.6995e-11
-2.39782e-08
-9.55802e-11
-2.38932e-08
-1.14184e-10
-2.37945e-08
-1.3279e-10
-2.36819e-08
-1.51385e-10
-2.35556e-08
-1.69958e-10
-2.34154e-08
-1.88503e-10
-2.32616e-08
-2.07017e-10
-2.3094e-08
-2.25487e-10
-2.29128e-08
-2.43892e-10
-2.2718e-08
-2.62216e-10
-2.25096e-08
-2.80453e-10
-2.22878e-08
-2.98594e-10
-2.20526e-08
-3.16621e-10
-2.18042e-08
-3.3452e-10
-2.15425e-08
-3.52281e-10
-2.12678e-08
-3.69892e-10
-2.09802e-08
-3.87341e-10
-2.06797e-08
-4.04613e-10
-2.03666e-08
-4.21688e-10
-2.00409e-08
-4.38539e-10
-1.97029e-08
-4.55152e-10
-1.93528e-08
-4.71522e-10
-1.89907e-08
-4.87633e-10
-1.86169e-08
-5.03458e-10
-1.82316e-08
-5.1897e-10
-1.7835e-08
-5.34154e-10
-1.74274e-08
-5.48991e-10
-1.70091e-08
-5.63448e-10
-1.65804e-08
-5.77479e-10
-1.61417e-08
-5.91051e-10
-1.56933e-08
-6.04137e-10
-1.52356e-08
-6.16702e-10
-1.47691e-08
-6.28699e-10
-1.42941e-08
-6.40078e-10
-1.38112e-08
-6.50793e-10
-1.33209e-08
-6.60792e-10
-1.28238e-08
-6.70017e-10
-1.23205e-08
-6.78408e-10
-1.18117e-08
-6.85903e-10
-1.12981e-08
-6.92441e-10
-1.07804e-08
-6.9795e-10
-1.02595e-08
-7.02346e-10
-9.73634e-09
-7.05543e-10
-9.21176e-09
-7.07461e-10
-8.68682e-09
-7.08018e-10
-8.1626e-09
-7.07112e-10
-7.64026e-09
-7.04634e-10
-7.12105e-09
-7.00482e-10
-6.60627e-09
-6.94558e-10
-6.09732e-09
-6.86755e-10
-5.59568e-09
-6.7695e-10
-5.10292e-09
-6.65015e-10
-4.62068e-09
-6.50835e-10
-4.15072e-09
-6.34293e-10
-3.69484e-09
-6.15262e-10
-3.25498e-09
-5.93617e-10
-2.83313e-09
-5.69248e-10
-2.43134e-09
-5.42059e-10
-2.05174e-09
-5.11963e-10
-1.6965e-09
-4.7888e-10
-1.36782e-09
-4.42757e-10
-1.06788e-09
-4.03593e-10
-7.98823e-10
-3.61445e-10
-5.6267e-10
-3.16435e-10
-3.61256e-10
-2.6879e-10
-1.9609e-10
-2.18907e-10
-6.81789e-11
-1.67438e-10
2.22335e-11
-1.15408e-10
7.60613e-11
-6.43867e-11
9.59411e-11
-1.67863e-11
8.70337e-11
2.36749e-11
5.8081e-11
5.13655e-11
2.24792e-11
5.80388e-11
3.29258e-11
3.12042e-11
-6.7612e-11
6.68981e-11
-8.64009e-11
7.88241e-11
-4.41183e-11
5.45373e-11
1.95456e-11
-1.36656e-11
9.85398e-11
-1.30781e-10
1.89031e-10
-2.99825e-10
2.86619e-10
-5.2205e-10
3.87341e-10
-7.97399e-10
4.88148e-10
-1.12477e-09
5.86833e-10
-1.50232e-09
6.81851e-10
-1.92768e-09
7.72169e-10
-2.39811e-09
8.57084e-10
-2.91065e-09
9.36224e-10
-3.46222e-09
1.00938e-09
-4.04969e-09
1.07646e-09
-4.66993e-09
1.13755e-09
-5.31985e-09
1.19276e-09
-5.99644e-09
1.24225e-09
-6.69679e-09
1.28626e-09
-7.4181e-09
1.32501e-09
-8.1577e-09
1.35873e-09
-8.91304e-09
1.38769e-09
-9.6817e-09
1.41215e-09
-1.04614e-08
1.43236e-09
-1.125e-08
1.44858e-09
-1.20455e-08
1.46106e-09
-1.28459e-08
1.47004e-09
-1.36496e-08
1.47576e-09
-1.44549e-08
1.47844e-09
-1.52601e-08
1.4783e-09
-1.6064e-08
1.47551e-09
-1.68651e-08
1.47028e-09
-1.76622e-08
1.46277e-09
-1.84543e-08
1.45315e-09
-1.92401e-08
1.44159e-09
-2.00187e-08
1.42823e-09
-2.07893e-08
1.41321e-09
-2.15509e-08
1.39665e-09
-2.23027e-08
1.37866e-09
-2.30441e-08
1.35934e-09
-2.37744e-08
1.33878e-09
-2.44928e-08
1.31707e-09
-2.51989e-08
1.29429e-09
-2.58921e-08
1.27051e-09
-2.65718e-08
1.24581e-09
-2.72375e-08
1.22022e-09
-2.78889e-08
1.1938e-09
-2.85254e-08
1.16661e-09
-2.91467e-08
1.13869e-09
-2.97523e-08
1.11006e-09
-3.03419e-08
1.08075e-09
-3.09152e-08
1.05081e-09
-3.14719e-08
1.02026e-09
-3.20115e-08
9.89127e-10
-3.25338e-08
9.57426e-10
-3.30385e-08
9.25184e-10
-3.35253e-08
8.92429e-10
-3.39939e-08
8.59178e-10
-3.44441e-08
8.25445e-10
-3.48757e-08
7.91247e-10
-3.52883e-08
7.56598e-10
-3.56817e-08
7.21511e-10
-3.60558e-08
6.85997e-10
-3.64103e-08
6.50072e-10
-3.67449e-08
6.13761e-10
-3.70595e-08
5.77087e-10
-3.7354e-08
5.40061e-10
-3.7628e-08
5.02692e-10
-3.78814e-08
4.64995e-10
-3.81141e-08
4.26984e-10
-3.83259e-08
3.88673e-10
-3.85166e-08
3.50077e-10
-3.86861e-08
3.11209e-10
-3.88342e-08
2.7209e-10
-3.89608e-08
2.32738e-10
-3.90659e-08
1.93163e-10
-3.91492e-08
1.53378e-10
-3.92106e-08
1.13397e-10
-3.92502e-08
7.32409e-11
-3.92677e-08
3.29269e-11
-3.92632e-08
-7.52808e-12
-3.92365e-08
-4.81067e-11
-3.91876e-08
-8.87882e-11
-3.91165e-08
-1.29551e-10
-3.90231e-08
-1.70378e-10
-3.89075e-08
-2.11256e-10
-3.87695e-08
-2.52161e-10
-3.86092e-08
-2.93062e-10
-3.84267e-08
-3.33932e-10
-3.82219e-08
-3.74754e-10
-3.79949e-08
-4.15513e-10
-3.77457e-08
-4.56188e-10
-3.74744e-08
-4.96749e-10
-3.71812e-08
-5.37168e-10
-3.6866e-08
-5.77422e-10
-3.65289e-08
-6.17481e-10
-3.61702e-08
-6.57318e-10
-3.57899e-08
-6.9691e-10
-3.53882e-08
-7.36228e-10
-3.49653e-08
-7.75237e-10
-3.45212e-08
-8.1391e-10
-3.40564e-08
-8.52227e-10
-3.35708e-08
-8.9015e-10
-3.30649e-08
-9.27631e-10
-3.25388e-08
-9.64631e-10
-3.19928e-08
-1.00112e-09
-3.14273e-08
-1.03707e-09
-3.08425e-08
-1.07242e-09
-3.02388e-08
-1.10712e-09
-2.96167e-08
-1.14114e-09
-2.89764e-08
-1.17442e-09
-2.83185e-08
-1.2069e-09
-2.76434e-08
-1.23851e-09
-2.69517e-08
-1.26919e-09
-2.62439e-08
-1.29886e-09
-2.55206e-08
-1.32744e-09
-2.47824e-08
-1.35485e-09
-2.40301e-08
-1.38101e-09
-2.32644e-08
-1.40581e-09
-2.2486e-08
-1.42914e-09
-2.16959e-08
-1.45088e-09
-2.08951e-08
-1.47091e-09
-2.00843e-08
-1.48911e-09
-1.92649e-08
-1.50534e-09
-1.84379e-08
-1.51944e-09
-1.76046e-08
-1.53126e-09
-1.67663e-08
-1.54064e-09
-1.59245e-08
-1.5474e-09
-1.50806e-08
-1.55135e-09
-1.42363e-08
-1.5523e-09
-1.33933e-08
-1.55005e-09
-1.25536e-08
-1.54437e-09
-1.1719e-08
-1.53505e-09
-1.08917e-08
-1.52186e-09
-1.00739e-08
-1.50456e-09
-9.26797e-09
-1.48292e-09
-8.47629e-09
-1.45669e-09
-7.70153e-09
-1.4256e-09
-6.9464e-09
-1.38942e-09
-6.21376e-09
-1.3479e-09
-5.50658e-09
-1.3008e-09
-4.82792e-09
-1.24791e-09
-4.18095e-09
-1.18902e-09
-3.56892e-09
-1.124e-09
-2.99508e-09
-1.05272e-09
-2.46271e-09
-9.7513e-10
-1.97502e-09
-8.91286e-10
-1.53509e-09
-8.01367e-10
-1.1458e-09
-7.0573e-10
-8.09612e-10
-6.04976e-10
-5.2846e-10
-5.00057e-10
-3.03462e-10
-3.92435e-10
-1.34583e-10
-2.84289e-10
-2.01528e-11
-1.78817e-10
4.37484e-11
-8.06864e-11
6.40907e-11
3.33398e-12
5.17463e-11
6.37123e-11
2.25713e-11
8.72128e-11
5.54985e-11
2.27786e-11
-9.03917e-11
4.14959e-11
-1.05121e-10
2.68831e-11
-2.95068e-11
-3.66657e-11
8.30929e-11
-1.58688e-10
2.20559e-10
-3.45127e-10
3.75473e-10
-5.9925e-10
5.40739e-10
-9.22408e-10
7.105e-10
-1.31443e-09
8.80173e-10
-1.77393e-09
1.04632e-09
-2.29862e-09
1.20654e-09
-2.88557e-09
1.35912e-09
-3.53143e-09
1.50294e-09
-4.23248e-09
1.63727e-09
-4.98486e-09
1.76175e-09
-5.78461e-09
1.87621e-09
-6.62772e-09
1.98066e-09
-7.51023e-09
2.07527e-09
-8.42827e-09
2.16029e-09
-9.37803e-09
2.23602e-09
-1.03559e-08
2.30284e-09
-1.13583e-08
2.36113e-09
-1.23819e-08
2.4113e-09
-1.34235e-08
2.45376e-09
-1.44801e-08
2.48896e-09
-1.55488e-08
2.5173e-09
-1.66269e-08
2.53921e-09
-1.7712e-08
2.55509e-09
-1.88015e-08
2.56532e-09
-1.98934e-08
2.57028e-09
-2.09854e-08
2.57034e-09
-2.20757e-08
2.56583e-09
-2.31625e-08
2.55706e-09
-2.42441e-08
2.54434e-09
-2.53189e-08
2.52795e-09
-2.63855e-08
2.50816e-09
-2.74424e-08
2.48522e-09
-2.84886e-08
2.45936e-09
-2.95227e-08
2.43079e-09
-3.05438e-08
2.39971e-09
-3.15507e-08
2.36629e-09
-3.25427e-08
2.33069e-09
-3.35186e-08
2.29306e-09
-3.44779e-08
2.25354e-09
-3.54196e-08
2.21226e-09
-3.63432e-08
2.16932e-09
-3.72478e-08
2.12483e-09
-3.81328e-08
2.07888e-09
-3.89978e-08
2.03155e-09
-3.9842e-08
1.98292e-09
-4.0665e-08
1.93304e-09
-4.14662e-08
1.88199e-09
-4.22452e-08
1.82981e-09
-4.30015e-08
1.77657e-09
-4.37347e-08
1.72229e-09
-4.44443e-08
1.66704e-09
-4.513e-08
1.61084e-09
-4.57913e-08
1.55373e-09
-4.64279e-08
1.49575e-09
-4.70393e-08
1.43693e-09
-4.76254e-08
1.3773e-09
-4.81857e-08
1.31688e-09
-4.87199e-08
1.25572e-09
-4.92277e-08
1.19381e-09
-4.97088e-08
1.13121e-09
-5.0163e-08
1.06793e-09
-5.05899e-08
1.004e-09
-5.09893e-08
9.39461e-10
-5.13609e-08
8.74322e-10
-5.17046e-08
8.08619e-10
-5.202e-08
7.42373e-10
-5.23069e-08
6.75605e-10
-5.25652e-08
6.0834e-10
-5.27946e-08
5.40608e-10
-5.29949e-08
4.72438e-10
-5.3166e-08
4.03856e-10
-5.33077e-08
3.34887e-10
-5.34199e-08
2.6556e-10
-5.35024e-08
1.95906e-10
-5.35551e-08
1.25954e-10
-5.3578e-08
5.57328e-11
-5.35707e-08
-1.47311e-11
-5.35335e-08
-8.54034e-11
-5.3466e-08
-1.56243e-10
-5.33683e-08
-2.27212e-10
-5.32404e-08
-2.98285e-10
-5.30822e-08
-3.69431e-10
-5.28938e-08
-4.40609e-10
-5.26751e-08
-5.1178e-10
-5.24261e-08
-5.82903e-10
-5.21469e-08
-6.53935e-10
-5.18376e-08
-7.24839e-10
-5.14982e-08
-7.95586e-10
-5.11288e-08
-8.66129e-10
-5.07296e-08
-9.36417e-10
-5.03006e-08
-1.00641e-09
-4.9842e-08
-1.07608e-09
-4.9354e-08
-1.14536e-09
-4.88367e-08
-1.2142e-09
-4.82903e-08
-1.28255e-09
-4.77152e-08
-1.35037e-09
-4.71115e-08
-1.41761e-09
-4.64795e-08
-1.48421e-09
-4.58196e-08
-1.55011e-09
-4.5132e-08
-1.61525e-09
-4.4417e-08
-1.67955e-09
-4.36752e-08
-1.74295e-09
-4.29069e-08
-1.80538e-09
-4.21125e-08
-1.86677e-09
-4.12926e-08
-1.92703e-09
-4.04477e-08
-1.98606e-09
-3.95784e-08
-2.04378e-09
-3.86852e-08
-2.10009e-09
-3.77688e-08
-2.15488e-09
-3.683e-08
-2.20802e-09
-3.58694e-08
-2.25938e-09
-3.48881e-08
-2.30884e-09
-3.38867e-08
-2.35624e-09
-3.28662e-08
-2.40144e-09
-3.18278e-08
-2.44425e-09
-3.07724e-08
-2.48449e-09
-2.97014e-08
-2.52196e-09
-2.86158e-08
-2.55645e-09
-2.75172e-08
-2.58773e-09
-2.6407e-08
-2.61557e-09
-2.52867e-08
-2.63971e-09
-2.41581e-08
-2.65989e-09
-2.30229e-08
-2.67582e-09
-2.18831e-08
-2.68719e-09
-2.07408e-08
-2.69368e-09
-1.95981e-08
-2.69498e-09
-1.84574e-08
-2.69073e-09
-1.73212e-08
-2.68057e-09
-1.61921e-08
-2.66411e-09
-1.5073e-08
-2.64099e-09
-1.39668e-08
-2.6108e-09
-1.28765e-08
-2.57315e-09
-1.18056e-08
-2.52761e-09
-1.07574e-08
-2.47378e-09
-9.73559e-09
-2.41127e-09
-8.74382e-09
-2.33967e-09
-7.78599e-09
-2.25863e-09
-6.86611e-09
-2.16779e-09
-5.98824e-09
-2.06689e-09
-5.15654e-09
-1.9557e-09
-4.37517e-09
-1.83409e-09
-3.64824e-09
-1.70206e-09
-2.97976e-09
-1.55977e-09
-2.3735e-09
-1.40763e-09
-1.8329e-09
-1.24633e-09
-1.36088e-09
-1.07699e-09
-9.59623e-10
-9.01313e-10
-6.30272e-10
-7.21787e-10
-3.72575e-10
-5.41986e-10
-1.84418e-10
-3.66972e-10
-6.12574e-11
-2.03848e-10
4.55728e-12
-6.24781e-11
2.45692e-11
4.3699e-11
1.51408e-11
9.66429e-11
7.06399e-11
8.85377e-12
-9.92448e-11
-1.05045e-12
-9.5217e-11
-5.56358e-11
2.5083e-11
-1.71319e-10
1.98774e-10
-3.58381e-10
4.0762e-10
-6.23195e-10
6.40288e-10
-9.69278e-10
8.8682e-10
-1.39797e-09
1.13919e-09
-1.90895e-09
1.39115e-09
-2.50063e-09
1.638e-09
-3.17038e-09
1.87629e-09
-3.91486e-09
2.10361e-09
-4.73019e-09
2.31827e-09
-5.6121e-09
2.51918e-09
-6.55608e-09
2.70572e-09
-7.55748e-09
2.87761e-09
-8.6116e-09
3.03478e-09
-9.71376e-09
3.17742e-09
-1.08593e-08
3.30585e-09
-1.20437e-08
3.42045e-09
-1.32626e-08
3.52174e-09
-1.45118e-08
3.61028e-09
-1.57871e-08
3.68663e-09
-1.70848e-08
3.75139e-09
-1.8401e-08
3.8052e-09
-1.97323e-08
3.84865e-09
-2.10755e-08
3.88235e-09
-2.24273e-08
3.90692e-09
-2.37849e-08
3.9229e-09
-2.51455e-08
3.93087e-09
-2.65065e-08
3.93136e-09
-2.78655e-08
3.92486e-09
-2.92203e-08
3.91186e-09
-3.05688e-08
3.89282e-09
-3.1909e-08
3.86816e-09
-3.32391e-08
3.83828e-09
-3.45575e-08
3.80355e-09
-3.58624e-08
3.76433e-09
-3.71526e-08
3.72093e-09
-3.84265e-08
3.67364e-09
-3.9683e-08
3.62275e-09
-4.09208e-08
3.56849e-09
-4.21388e-08
3.51109e-09
-4.3336e-08
3.45075e-09
-4.45114e-08
3.38769e-09
-4.56641e-08
3.32205e-09
-4.67933e-08
3.25401e-09
-4.78981e-08
3.1837e-09
-4.89778e-08
3.11125e-09
-5.00317e-08
3.03678e-09
-5.10591e-08
2.96039e-09
-5.20592e-08
2.88218e-09
-5.30317e-08
2.80223e-09
-5.39757e-08
2.72062e-09
-5.48908e-08
2.63743e-09
-5.57765e-08
2.55272e-09
-5.66323e-08
2.46657e-09
-5.74576e-08
2.37902e-09
-5.82519e-08
2.29012e-09
-5.90149e-08
2.19993e-09
-5.97461e-08
2.10849e-09
-6.04451e-08
2.01585e-09
-6.11114e-08
1.92206e-09
-6.17448e-08
1.82715e-09
-6.23447e-08
1.73118e-09
-6.2911e-08
1.63417e-09
-6.34432e-08
1.53617e-09
-6.39409e-08
1.43722e-09
-6.4404e-08
1.33737e-09
-6.4832e-08
1.23665e-09
-6.52247e-08
1.1351e-09
-6.55819e-08
1.03275e-09
-6.59032e-08
9.29655e-10
-6.61884e-08
8.25849e-10
-6.64374e-08
7.21378e-10
-6.66498e-08
6.16279e-10
-6.68255e-08
5.1059e-10
-6.69643e-08
4.04361e-10
-6.7066e-08
2.97643e-10
-6.71306e-08
1.90478e-10
-6.71577e-08
8.291e-11
-6.71474e-08
-2.50135e-11
-6.70996e-08
-1.33244e-10
-6.70141e-08
-2.41727e-10
-6.68909e-08
-3.50405e-10
-6.673e-08
-4.59227e-10
-6.65313e-08
-5.68143e-10
-6.62948e-08
-6.77097e-10
-6.60205e-08
-7.86026e-10
-6.57086e-08
-8.94874e-10
-6.53589e-08
-1.00359e-09
-6.49716e-08
-1.11211e-09
-6.45469e-08
-1.22036e-09
-6.40847e-08
-1.32829e-09
-6.35853e-08
-1.43582e-09
-6.30488e-08
-1.54291e-09
-6.24754e-08
-1.64947e-09
-6.18653e-08
-1.75544e-09
-6.12188e-08
-1.86073e-09
-6.05361e-08
-1.96528e-09
-5.98174e-08
-2.069e-09
-5.90633e-08
-2.17181e-09
-5.82738e-08
-2.27364e-09
-5.74496e-08
-2.37438e-09
-5.65909e-08
-2.47393e-09
-5.56982e-08
-2.5722e-09
-5.47721e-08
-2.66909e-09
-5.3813e-08
-2.76448e-09
-5.28215e-08
-2.85823e-09
-5.17983e-08
-2.95024e-09
-5.0744e-08
-3.04036e-09
-4.96594e-08
-3.12845e-09
-4.85451e-08
-3.21434e-09
-4.74021e-08
-3.29788e-09
-4.62313e-08
-3.37888e-09
-4.50335e-08
-3.45714e-09
-4.38099e-08
-3.53245e-09
-4.25615e-08
-3.60459e-09
-4.12897e-08
-3.67332e-09
-3.99955e-08
-3.73838e-09
-3.86805e-08
-3.79949e-09
-3.73461e-08
-3.85634e-09
-3.5994e-08
-3.90862e-09
-3.46257e-08
-3.95598e-09
-3.32432e-08
-3.99807e-09
-3.18484e-08
-4.0345e-09
-3.04435e-08
-4.06485e-09
-2.90306e-08
-4.08871e-09
-2.76122e-08
-4.10562e-09
-2.61907e-08
-4.1151e-09
-2.47691e-08
-4.11665e-09
-2.33501e-08
-4.10976e-09
-2.19367e-08
-4.09388e-09
-2.05324e-08
-4.06847e-09
-1.91404e-08
-4.03294e-09
-1.77645e-08
-3.98673e-09
-1.64084e-08
-3.92924e-09
-1.50762e-08
-3.85988e-09
-1.37719e-08
-3.77804e-09
-1.25e-08
-3.68317e-09
-1.1265e-08
-3.57471e-09
-1.00714e-08
-3.45216e-09
-8.92416e-09
-3.31506e-09
-7.82801e-09
-3.16304e-09
-6.78786e-09
-2.99584e-09
-5.8086e-09
-2.81335e-09
-4.895e-09
-2.61566e-09
-4.05167e-09
-2.4031e-09
-3.28293e-09
-2.17637e-09
-2.59263e-09
-1.93662e-09
-1.98403e-09
-1.6856e-09
-1.45947e-09
-1.42587e-09
-1.02019e-09
-1.16107e-09
-6.65901e-10
-8.96278e-10
-3.94394e-10
-6.3848e-10
-2.01068e-10
-3.97174e-10
-7.83735e-11
-1.85172e-10
-1.52335e-11
-1.94408e-11
3.72085e-12
7.76908e-11
7.43599e-11
-6.57139e-12
-9.26725e-11
-5.09716e-11
-5.08155e-11
-1.54019e-10
1.28131e-10
-3.3071e-10
3.75468e-10
-5.91063e-10
6.67975e-10
-9.41257e-10
9.90479e-10
-1.38468e-09
1.33025e-09
-1.92253e-09
1.67704e-09
-2.55431e-09
2.02292e-09
-3.27815e-09
2.36184e-09
-4.09117e-09
2.68931e-09
-4.98965e-09
3.00209e-09
-5.96929e-09
3.29791e-09
-7.02537e-09
3.57526e-09
-8.15285e-09
3.83321e-09
-9.34654e-09
4.07129e-09
-1.06011e-08
4.28939e-09
-1.19114e-08
4.48765e-09
-1.3272e-08
4.66643e-09
-1.46778e-08
4.82626e-09
-1.61238e-08
4.96774e-09
-1.76051e-08
5.0916e-09
-1.9117e-08
5.1986e-09
-2.06552e-08
5.28953e-09
-2.22152e-08
5.36522e-09
-2.37931e-08
5.42649e-09
-2.53849e-08
5.47417e-09
-2.6987e-08
5.50905e-09
-2.8596e-08
5.53194e-09
-3.02087e-08
5.54357e-09
-3.18221e-08
5.5447e-09
-3.34332e-08
5.53601e-09
-3.50395e-08
5.51816e-09
-3.66385e-08
5.49178e-09
-3.82278e-08
5.45747e-09
-3.98053e-08
5.41578e-09
-4.1369e-08
5.36723e-09
-4.2917e-08
5.31231e-09
-4.44475e-08
5.25145e-09
-4.59589e-08
5.18507e-09
-4.74497e-08
5.11356e-09
-4.89185e-08
5.03726e-09
-5.03639e-08
4.95648e-09
-5.17847e-08
4.87154e-09
-5.31797e-08
4.78268e-09
-5.45478e-08
4.69017e-09
-5.5888e-08
4.59421e-09
-5.71993e-08
4.49502e-09
-5.84809e-08
4.39278e-09
-5.97317e-08
4.28765e-09
-6.09511e-08
4.17979e-09
-6.21383e-08
4.06933e-09
-6.32925e-08
3.95639e-09
-6.44129e-08
3.8411e-09
-6.5499e-08
3.72355e-09
-6.65502e-08
3.60385e-09
-6.75657e-08
3.48208e-09
-6.8545e-08
3.35833e-09
-6.94875e-08
3.23268e-09
-7.03928e-08
3.10519e-09
-7.12603e-08
2.97594e-09
-7.20894e-08
2.84499e-09
-7.28797e-08
2.71241e-09
-7.36309e-08
2.57826e-09
-7.43423e-08
2.4426e-09
-7.50136e-08
2.30548e-09
-7.56444e-08
2.16697e-09
-7.62343e-08
2.02712e-09
-7.67829e-08
1.886e-09
-7.72899e-08
1.74365e-09
-7.7755e-08
1.60014e-09
-7.81777e-08
1.45551e-09
-7.85579e-08
1.30983e-09
-7.88952e-08
1.16315e-09
-7.91894e-08
1.01555e-09
-7.94401e-08
8.67064e-10
-7.96473e-08
7.17763e-10
-7.98107e-08
5.67709e-10
-7.993e-08
4.16971e-10
-8.00051e-08
2.65614e-10
-8.00359e-08
1.137e-10
-8.00222e-08
-3.87016e-11
-7.99639e-08
-1.91516e-10
-7.9861e-08
-3.4467e-10
-7.97133e-08
-4.98097e-10
-7.95208e-08
-6.51725e-10
-7.92835e-08
-8.05465e-10
-7.90014e-08
-9.59237e-10
-7.86744e-08
-1.11297e-09
-7.83027e-08
-1.26658e-09
-7.78863e-08
-1.41999e-09
-7.74253e-08
-1.5731e-09
-7.69198e-08
-1.72585e-09
-7.637e-08
-1.87812e-09
-7.5776e-08
-2.02982e-09
-7.5138e-08
-2.18088e-09
-7.44563e-08
-2.33119e-09
-7.37311e-08
-2.48064e-09
-7.29627e-08
-2.62913e-09
-7.21514e-08
-2.77656e-09
-7.12976e-08
-2.92282e-09
-7.04016e-08
-3.06778e-09
-6.9464e-08
-3.21132e-09
-6.8485e-08
-3.35331e-09
-6.74653e-08
-3.49361e-09
-6.64055e-08
-3.63209e-09
-6.5306e-08
-3.76859e-09
-6.41675e-08
-3.90295e-09
-6.29907e-08
-4.03499e-09
-6.17764e-08
-4.16454e-09
-6.05254e-08
-4.29139e-09
-5.92385e-08
-4.41535e-09
-5.79167e-08
-4.53619e-09
-5.65609e-08
-4.65367e-09
-5.51722e-08
-4.76753e-09
-5.37519e-08
-4.87749e-09
-5.2301e-08
-4.98327e-09
-5.08211e-08
-5.08455e-09
-4.93134e-08
-5.18099e-09
-4.77796e-08
-5.27221e-09
-4.62212e-08
-5.35783e-09
-4.46401e-08
-5.43743e-09
-4.30382e-08
-5.51057e-09
-4.14174e-08
-5.57676e-09
-3.978e-08
-5.6355e-09
-3.81282e-08
-5.68625e-09
-3.64646e-08
-5.72844e-09
-3.47918e-08
-5.76149e-09
-3.31127e-08
-5.78476e-09
-3.14302e-08
-5.79759e-09
-2.97475e-08
-5.7993e-09
-2.80681e-08
-5.78917e-09
-2.63955e-08
-5.76646e-09
-2.47336e-08
-5.73042e-09
-2.30863e-08
-5.68026e-09
-2.14578e-08
-5.6152e-09
-1.98526e-08
-5.53443e-09
-1.82753e-08
-5.43717e-09
-1.67307e-08
-5.32262e-09
-1.52239e-08
-5.19004e-09
-1.37599e-08
-5.03871e-09
-1.2344e-08
-4.86799e-09
-1.09818e-08
-4.6773e-09
-9.6786e-09
-4.46622e-09
-8.43999e-09
-4.23446e-09
-7.27138e-09
-3.98196e-09
-6.17811e-09
-3.70892e-09
-5.16527e-09
-3.41594e-09
-4.23759e-09
-3.10405e-09
-3.39929e-09
-2.77492e-09
-2.65389e-09
-2.43101e-09
-2.00396e-09
-2.07579e-09
-1.45091e-09
-1.71412e-09
-9.94626e-10
-1.35257e-09
-6.33137e-10
-9.99968e-10
-3.62263e-10
-6.68045e-10
-1.75196e-10
-3.7224e-10
-6.2105e-11
-1.32531e-10
-9.68896e-12
2.52747e-11
6.46712e-11
-2.20354e-11
-7.06392e-11
-1.03487e-10
3.06381e-11
-2.59572e-10
2.84215e-10
-5.02828e-10
6.18722e-10
-8.41898e-10
1.00704e-09
-1.28223e-09
1.43081e-09
-1.82671e-09
1.87473e-09
-2.47619e-09
2.32652e-09
-3.22981e-09
2.77655e-09
-4.08544e-09
3.21747e-09
-5.03987e-09
3.64373e-09
-6.08904e-09
4.05127e-09
-7.22831e-09
4.43718e-09
-8.45253e-09
4.79948e-09
-9.75625e-09
5.13693e-09
-1.11338e-08
5.44884e-09
-1.25794e-08
5.735e-09
-1.40873e-08
5.99551e-09
-1.56516e-08
6.23077e-09
-1.72667e-08
6.44139e-09
-1.89271e-08
6.6281e-09
-2.06273e-08
6.79179e-09
-2.23621e-08
6.9334e-09
-2.41265e-08
7.05394e-09
-2.59157e-08
7.15445e-09
-2.77252e-08
7.23598e-09
-2.95506e-08
7.29956e-09
-3.13878e-08
7.34625e-09
-3.32329e-08
7.37705e-09
-3.50823e-08
7.39294e-09
-3.69325e-08
7.39488e-09
-3.87802e-08
7.38378e-09
-4.06226e-08
7.36049e-09
-4.24566e-08
7.32584e-09
-4.42797e-08
7.2806e-09
-4.60895e-08
7.2255e-09
-4.78835e-08
7.16123e-09
-4.96596e-08
7.08842e-09
-5.14158e-08
7.00766e-09
-5.31502e-08
6.9195e-09
-5.48611e-08
6.82443e-09
-5.65468e-08
6.72293e-09
-5.82057e-08
6.61542e-09
-5.98365e-08
6.5023e-09
-6.14377e-08
6.38391e-09
-6.30081e-08
6.26059e-09
-6.45466e-08
6.13264e-09
-6.60519e-08
6.00033e-09
-6.7523e-08
5.86391e-09
-6.89589e-08
5.72359e-09
-7.03587e-08
5.57959e-09
-7.17215e-08
5.43209e-09
-7.30464e-08
5.28126e-09
-7.43325e-08
5.12726e-09
-7.55792e-08
4.97023e-09
-7.67857e-08
4.81031e-09
-7.79512e-08
4.64762e-09
-7.90752e-08
4.48226e-09
-8.01568e-08
4.31434e-09
-8.11956e-08
4.14397e-09
-8.21909e-08
3.97125e-09
-8.31422e-08
3.79625e-09
-8.40488e-08
3.61907e-09
-8.49104e-08
3.4398e-09
-8.57263e-08
3.2585e-09
-8.6496e-08
3.07527e-09
-8.72192e-08
2.89017e-09
-8.78954e-08
2.7033e-09
-8.85242e-08
2.51473e-09
-8.9105e-08
2.32453e-09
-8.96377e-08
2.13278e-09
-9.01217e-08
1.93955e-09
-9.05568e-08
1.74493e-09
-9.09427e-08
1.549e-09
-9.1279e-08
1.35182e-09
-9.15654e-08
1.15349e-09
-9.18017e-08
9.54083e-10
-9.19877e-08
7.53692e-10
-9.21231e-08
5.52398e-10
-9.22078e-08
3.50283e-10
-9.22415e-08
1.47441e-10
-9.22242e-08
-5.60274e-11
-9.21557e-08
-2.60035e-10
-9.20358e-08
-4.64487e-10
-9.18647e-08
-6.6928e-10
-9.16421e-08
-8.7432e-10
-9.1368e-08
-1.07951e-09
-9.10425e-08
-1.28473e-09
-9.06656e-08
-1.48988e-09
-9.02374e-08
-1.69485e-09
-8.97578e-08
-1.89954e-09
-8.92271e-08
-2.10383e-09
-8.86453e-08
-2.30759e-09
-8.80127e-08
-2.51072e-09
-8.73295e-08
-2.71309e-09
-8.65958e-08
-2.91458e-09
-8.58119e-08
-3.11504e-09
-8.49782e-08
-3.31435e-09
-8.4095e-08
-3.51237e-09
-8.31626e-08
-3.70895e-09
-8.21815e-08
-3.90394e-09
-8.11521e-08
-4.09718e-09
-8.00749e-08
-4.28851e-09
-7.89504e-08
-4.47776e-09
-7.77793e-08
-4.66473e-09
-7.65622e-08
-4.84924e-09
-7.52997e-08
-5.03108e-09
-7.39926e-08
-5.21004e-09
-7.26417e-08
-5.38588e-09
-7.12479e-08
-5.55835e-09
-6.98121e-08
-5.72721e-09
-6.83352e-08
-5.89217e-09
-6.68185e-08
-6.05293e-09
-6.5263e-08
-6.20917e-09
-6.367e-08
-6.36055e-09
-6.20408e-08
-6.5067e-09
-6.03768e-08
-6.64724e-09
-5.86796e-08
-6.78173e-09
-5.69509e-08
-6.90972e-09
-5.51924e-08
-7.03073e-09
-5.3406e-08
-7.14425e-09
-5.15937e-08
-7.2497e-09
-4.97577e-08
-7.34652e-09
-4.79004e-08
-7.43406e-09
-4.60243e-08
-7.51167e-09
-4.41319e-08
-7.57863e-09
-4.22261e-08
-7.63419e-09
-4.031e-08
-7.67758e-09
-3.83868e-08
-7.70798e-09
-3.64599e-08
-7.72452e-09
-3.45329e-08
-7.7263e-09
-3.26097e-08
-7.7124e-09
-3.06943e-08
-7.68186e-09
-2.8791e-08
-7.6337e-09
-2.69043e-08
-7.56691e-09
-2.5039e-08
-7.48048e-09
-2.32001e-08
-7.37339e-09
-2.13926e-08
-7.24462e-09
-1.96221e-08
-7.09321e-09
-1.78939e-08
-6.91821e-09
-1.62139e-08
-6.71873e-09
-1.45879e-08
-6.494e-09
-1.30218e-08
-6.24335e-09
-1.15217e-08
-5.9663e-09
-1.00936e-08
-5.66256e-09
-8.74341e-09
-5.33216e-09
-7.47688e-09
-4.97546e-09
-6.29951e-09
-4.59331e-09
-5.2164e-09
-4.18717e-09
-4.23209e-09
-3.75924e-09
-3.35038e-09
-3.31271e-09
-2.57416e-09
-2.85201e-09
-1.90513e-09
-2.38315e-09
-1.34354e-09
-1.91415e-09
-8.87991e-10
-1.45552e-09
-5.35084e-10
-1.02095e-09
-2.79219e-10
-6.28105e-10
-1.1237e-10
-2.99379e-10
-2.39082e-11
-6.31875e-11
4.07644e-11
-3.7023e-11
-3.3617e-11
-1.56099e-10
1.49714e-10
-3.67235e-10
4.95349e-10
-6.79854e-10
9.31341e-10
-1.10066e-09
1.42785e-09
-1.63388e-09
1.96402e-09
-2.28152e-09
2.52237e-09
-3.04382e-09
3.08881e-09
-3.91948e-09
3.65221e-09
-4.90595e-09
4.20394e-09
-5.99967e-09
4.73745e-09
-7.19625e-09
5.24784e-09
-8.49066e-09
5.73159e-09
-9.87743e-09
6.18625e-09
-1.13507e-08
6.61021e-09
-1.29044e-08
7.00257e-09
-1.45324e-08
7.36299e-09
-1.62284e-08
7.69151e-09
-1.79862e-08
7.98857e-09
-1.97997e-08
8.25485e-09
-2.16628e-08
8.4912e-09
-2.35697e-08
8.69866e-09
-2.55146e-08
8.87838e-09
-2.74923e-08
9.03155e-09
-2.94973e-08
9.15945e-09
-3.15246e-08
9.26336e-09
-3.35696e-08
9.34456e-09
-3.56277e-08
9.40434e-09
-3.76946e-08
9.44394e-09
-3.97663e-08
9.4646e-09
-4.18389e-08
9.46748e-09
-4.39088e-08
9.45372e-09
-4.59728e-08
9.42442e-09
-4.80275e-08
9.38059e-09
-5.00701e-08
9.32322e-09
-5.20979e-08
9.25322e-09
-5.41081e-08
9.17145e-09
-5.60984e-08
9.07871e-09
-5.80665e-08
8.97576e-09
-6.00103e-08
8.86328e-09
-6.19277e-08
8.74192e-09
-6.38171e-08
8.61227e-09
-6.56765e-08
8.47487e-09
-6.75045e-08
8.33023e-09
-6.92993e-08
8.1788e-09
-7.10597e-08