/*--------------------------------*- C++ -*----------------------------------*\
  =========                 |
  \\      /  F ield         | OpenFOAM: The Open Source CFD Toolbox
   \\    /   O peration     | Website:  https://openfoam.org
    \\  /    A nd           | Version:  7
     \\/     M anipulation  |
\*---------------------------------------------------------------------------*/
FoamFile
{
    version     2.0;
    format      ascii;
    class       surfaceScalarField;
    location    "0.4375";
    object      phi;
}
// * * * * * * * * * * * * * * * * * * * * * * * * * * * * * * * * * * * * * //

dimensions      [0 3 -1 0 0 0 0];

internalField   nonuniform List<scalar> 
50880
(
1.19535e-11
-1.19437e-11
4.07708e-11
-2.88155e-11
6.96961e-11
-2.8925e-11
9.09207e-11
-2.12272e-11
9.93093e-11
-8.3898e-12
9.23374e-11
6.97296e-12
6.89055e-11
2.34302e-11
2.87649e-11
4.01411e-11
-2.78067e-11
5.65707e-11
-1.00217e-10
7.2412e-11
-1.87691e-10
8.74687e-11
-2.89327e-10
1.01634e-10
-4.04186e-10
1.14855e-10
-5.313e-10
1.27112e-10
-6.69708e-10
1.38412e-10
-8.18481e-10
1.48772e-10
-9.76711e-10
1.58231e-10
-1.14353e-09
1.66822e-10
-1.31812e-09
1.7459e-10
-1.49971e-09
1.8159e-10
-1.68757e-09
1.8786e-10
-1.88102e-09
1.9345e-10
-2.07943e-09
1.98408e-10
-2.2822e-09
2.02776e-10
-2.4888e-09
2.06596e-10
-2.6987e-09
2.09908e-10
-2.91145e-09
2.12752e-10
-3.12662e-09
2.15166e-10
-3.3438e-09
2.1718e-10
-3.56262e-09
2.18821e-10
-3.78274e-09
2.20121e-10
-4.00384e-09
2.21108e-10
-4.22565e-09
2.21801e-10
-4.44787e-09
2.22218e-10
-4.67025e-09
2.22381e-10
-4.89256e-09
2.22305e-10
-5.11456e-09
2.22004e-10
-5.33605e-09
2.21487e-10
-5.5568e-09
2.20761e-10
-5.77664e-09
2.19834e-10
-5.99536e-09
2.18719e-10
-6.21278e-09
2.1742e-10
-6.42872e-09
2.15932e-10
-6.64297e-09
2.14257e-10
-6.85537e-09
2.12398e-10
-7.06572e-09
2.10354e-10
-7.27384e-09
2.08119e-10
-7.47954e-09
2.05694e-10
-7.68261e-09
2.03075e-10
-7.88286e-09
2.00253e-10
-8.08008e-09
1.97223e-10
-8.27407e-09
1.93983e-10
-8.46459e-09
1.90528e-10
-8.65144e-09
1.86847e-10
-8.83437e-09
1.8293e-10
-9.01315e-09
1.78774e-10
-9.18752e-09
1.74375e-10
-9.35725e-09
1.69725e-10
-9.52206e-09
1.64815e-10
-9.6817e-09
1.59638e-10
-9.83589e-09
1.54191e-10
-9.98435e-09
1.48468e-10
-1.01268e-08
1.42461e-10
-1.0263e-08
1.36169e-10
-1.03926e-08
1.29588e-10
-1.05153e-08
1.22715e-10
-1.06308e-08
1.15548e-10
-1.07389e-08
1.08086e-10
-1.08393e-08
1.00331e-10
-1.09315e-08
9.22859e-11
-1.10155e-08
8.39517e-11
-1.10908e-08
7.53317e-11
-1.11573e-08
6.64318e-11
-1.12145e-08
5.72584e-11
-1.12623e-08
4.78205e-11
-1.13005e-08
3.81298e-11
-1.13287e-08
2.81985e-11
-1.13467e-08
1.80394e-11
-1.13544e-08
7.66488e-12
-1.13515e-08
-2.90946e-12
-1.13378e-08
-1.36637e-11
-1.13132e-08
-2.45768e-11
-1.12776e-08
-3.56276e-11
-1.12308e-08
-4.67938e-11
-1.11727e-08
-5.80525e-11
-1.11034e-08
-6.93785e-11
-1.10226e-08
-8.07437e-11
-1.09305e-08
-9.21199e-11
-1.0827e-08
-1.03478e-10
-1.07122e-08
-1.14785e-10
-1.05862e-08
-1.26009e-10
-1.04491e-08
-1.3712e-10
-1.0301e-08
-1.48082e-10
-1.01422e-08
-1.58862e-10
-9.97274e-09
-1.69427e-10
-9.793e-09
-1.7974e-10
-9.60323e-09
-1.89766e-10
-9.40376e-09
-1.99473e-10
-9.19493e-09
-2.08824e-10
-8.97715e-09
-2.17784e-10
-8.75083e-09
-2.2632e-10
-8.51642e-09
-2.34402e-10
-8.27443e-09
-2.41997e-10
-8.02535e-09
-2.49076e-10
-7.76974e-09
-2.55609e-10
-7.50818e-09
-2.61566e-10
-7.24125e-09
-2.66923e-10
-6.9696e-09
-2.71655e-10
-6.69386e-09
-2.75742e-10
-6.41469e-09
-2.79163e-10
-6.13279e-09
-2.81903e-10
-5.84884e-09
-2.83948e-10
-5.56355e-09
-2.85286e-10
-5.27765e-09
-2.85904e-10
-4.99185e-09
-2.85798e-10
-4.70689e-09
-2.84962e-10
-4.42349e-09
-2.83396e-10
-4.14239e-09
-2.81103e-10
-3.8643e-09
-2.78089e-10
-3.58994e-09
-2.74359e-10
-3.32001e-09
-2.69926e-10
-3.05521e-09
-2.64803e-10
-2.79621e-09
-2.59005e-10
-2.54365e-09
-2.52553e-10
-2.29819e-09
-2.45466e-10
-2.06042e-09
-2.37768e-10
-1.83093e-09
-2.29485e-10
-1.61029e-09
-2.20647e-10
-1.399e-09
-2.11283e-10
-1.19757e-09
-2.01428e-10
-1.00646e-09
-1.91117e-10
-8.26071e-10
-1.80386e-10
-6.56799e-10
-1.69272e-10
-4.98983e-10
-1.57817e-10
-3.52923e-10
-1.46061e-10
-2.18875e-10
-1.34049e-10
-9.705e-11
-1.21825e-10
1.23879e-11
-1.09437e-10
1.09325e-10
-9.6936e-11
1.93698e-10
-8.43735e-11
2.65502e-10
-7.18047e-11
3.24791e-10
-5.92885e-11
3.7168e-10
-4.68887e-11
4.06355e-10
-3.46753e-11
4.29079e-10
-2.27246e-11
4.402e-10
-1.11211e-11
4.40162e-10
3.80828e-14
4.29522e-10
1.06399e-11
4.08971e-10
2.05503e-11
3.79362e-10
2.96095e-11
3.41741e-10
3.76216e-11
2.97399e-10
4.43421e-11
2.47938e-10
4.94603e-11
1.95362e-10
5.25758e-11
1.42196e-10
5.31679e-11
9.16242e-11
5.05728e-11
4.76173e-11
4.40064e-11
1.49817e-11
3.26346e-11
-1.10478e-12
1.60857e-11
-1.10519e-12
2.57484e-11
-3.76899e-11
7.14901e-11
-7.45642e-11
1.13338e-10
-7.07698e-11
1.34098e-10
-4.19875e-11
1.23235e-10
2.47609e-12
7.41918e-11
5.60147e-11
-1.65822e-11
1.14207e-10
-1.5052e-10
1.74075e-10
-3.27618e-10
2.33674e-10
-5.46931e-10
2.91725e-10
-8.06857e-10
3.47403e-10
-1.10541e-09
4.00194e-10
-1.44036e-09
4.49802e-10
-1.80932e-09
4.96076e-10
-2.20988e-09
5.38967e-10
-2.63961e-09
5.78512e-10
-3.09616e-09
6.14775e-10
-3.57721e-09
6.47868e-10
-4.08055e-09
6.77933e-10
-4.60408e-09
7.05117e-10
-5.1458e-09
7.29574e-10
-5.70381e-09
7.51469e-10
-6.27637e-09
7.70958e-10
-6.86179e-09
7.88198e-10
-7.45854e-09
8.03341e-10
-8.06516e-09
8.16531e-10
-8.68032e-09
8.2791e-10
-9.30276e-09
8.3761e-10
-9.93133e-09
8.45746e-10
-1.05649e-08
8.52431e-10
-1.12026e-08
8.57775e-10
-1.18434e-08
8.6187e-10
-1.24864e-08
8.64796e-10
-1.31308e-08
8.6663e-10
-1.37758e-08
8.67442e-10
-1.44208e-08
8.67294e-10
-1.5065e-08
8.66236e-10
-1.57079e-08
8.64311e-10
-1.63487e-08
8.61552e-10
-1.69868e-08
8.57991e-10
-1.76217e-08
8.53652e-10
-1.82529e-08
8.48554e-10
-1.88796e-08
8.42704e-10
-1.95015e-08
8.36108e-10
-2.01179e-08
8.28769e-10
-2.07282e-08
8.20684e-10
-2.13319e-08
8.11845e-10
-2.19285e-08
8.02241e-10
-2.25173e-08
7.91856e-10
-2.30977e-08
7.80673e-10
-2.36691e-08
7.68675e-10
-2.4231e-08
7.55845e-10
-2.47826e-08
7.42156e-10
-2.53233e-08
7.27582e-10
-2.58525e-08
7.12097e-10
-2.63694e-08
6.9568e-10
-2.68733e-08
6.78308e-10
-2.73636e-08
6.59953e-10
-2.78394e-08
6.40593e-10
-2.82999e-08
6.20205e-10
-2.87445e-08
5.98769e-10
-2.91723e-08
5.76265e-10
-2.95825e-08
5.52676e-10
-2.99743e-08
5.27989e-10
-3.03469e-08
5.02191e-10
-3.06995e-08
4.75272e-10
-3.10312e-08
4.47227e-10
-3.13411e-08
4.18058e-10
-3.16286e-08
3.8777e-10
-3.18927e-08
3.56371e-10
-3.21326e-08
3.23873e-10
-3.23476e-08
2.90291e-10
-3.25368e-08
2.5565e-10
-3.26995e-08
2.19977e-10
-3.2835e-08
1.83306e-10
-3.29425e-08
1.45678e-10
-3.30215e-08
1.07138e-10
-3.30712e-08
6.77385e-11
-3.3091e-08
2.75355e-11
-3.30805e-08
-1.34067e-11
-3.30392e-08
-5.50176e-11
-3.29665e-08
-9.72206e-11
-3.28622e-08
-1.39935e-10
-3.2726e-08
-1.83074e-10
-3.25575e-08
-2.26544e-10
-3.23566e-08
-2.70247e-10
-3.21233e-08
-3.14079e-10
-3.18574e-08
-3.57933e-10
-3.15592e-08
-4.01695e-10
-3.12288e-08
-4.45246e-10
-3.08663e-08
-4.88466e-10
-3.04722e-08
-5.3123e-10
-3.00469e-08
-5.73412e-10
-2.95909e-08
-6.14882e-10
-2.91048e-08
-6.5551e-10
-2.85893e-08
-6.95164e-10
-2.80454e-08
-7.33714e-10
-2.74738e-08
-7.71026e-10
-2.68757e-08
-8.06971e-10
-2.62521e-08
-8.41419e-10
-2.56041e-08
-8.74243e-10
-2.49332e-08
-9.05321e-10
-2.42407e-08
-9.34534e-10
-2.3528e-08
-9.61768e-10
-2.27967e-08
-9.86911e-10
-2.20484e-08
-1.00986e-09
-2.12848e-08
-1.03052e-09
-2.05077e-08
-1.0488e-09
-1.97188e-08
-1.06462e-09
-1.892e-08
-1.0779e-09
-1.81134e-08
-1.08858e-09
-1.73007e-08
-1.0966e-09
-1.64841e-08
-1.10193e-09
-1.56655e-08
-1.10451e-09
-1.48469e-08
-1.10434e-09
-1.40305e-08
-1.10139e-09
-1.32182e-08
-1.09566e-09
-1.24122e-08
-1.08715e-09
-1.16144e-08
-1.07589e-09
-1.08268e-08
-1.06191e-09
-1.00515e-08
-1.04524e-09
-9.2904e-09
-1.02593e-09
-8.54536e-09
-1.00405e-09
-7.81825e-09
-9.79659e-10
-7.11087e-09
-9.52849e-10
-6.42493e-09
-9.23706e-10
-5.76209e-09
-8.92327e-10
-5.12391e-09
-8.58823e-10
-4.51188e-09
-8.23311e-10
-3.92739e-09
-7.85916e-10
-3.37174e-09
-7.46771e-10
-2.84611e-09
-7.06015e-10
-2.35159e-09
-6.63796e-10
-1.88913e-09
-6.2027e-10
-1.4596e-09
-5.75596e-10
-1.0637e-09
-5.29944e-10
-7.02033e-10
-4.83492e-10
-3.75042e-10
-4.36426e-10
-8.30388e-11
-3.8894e-10
1.73825e-10
-3.41238e-10
3.95559e-10
-2.93538e-10
5.82343e-10
-2.46073e-10
7.34547e-10
-1.99093e-10
8.52744e-10
-1.52871e-10
9.37728e-10
-1.07708e-10
9.90547e-10
-6.3939e-11
1.01253e-09
-2.19427e-11
1.00532e-09
1.78461e-11
9.70946e-10
5.49231e-11
9.11868e-10
8.86884e-11
8.31063e-10
1.18428e-10
7.32125e-10
1.4328e-10
6.1939e-10
1.62195e-10
4.98073e-10
1.73894e-10
3.7441e-10
1.76832e-10
2.55757e-10
1.69225e-10
1.50539e-10
1.49224e-10
6.78227e-11
1.1535e-10
1.60304e-11
6.78766e-11
1.49247e-11
2.87686e-11
-6.64582e-11
6.93136e-11
-1.15106e-10
9.51154e-11
-9.65725e-11
8.63119e-11
-3.31828e-11
2.93324e-11
5.94532e-11
-8.46988e-11
1.70051e-10
-2.61002e-10
2.90506e-10
-5.02044e-10
4.15119e-10
-8.08304e-10
5.39928e-10
-1.17881e-09
6.62229e-10
-1.6116e-09
7.8019e-10
-2.10402e-09
8.92612e-10
-2.65296e-09
9.9875e-10
-3.25506e-09
1.09818e-09
-3.9068e-09
1.1907e-09
-4.6046e-09
1.27632e-09
-5.34493e-09
1.3551e-09
-6.1243e-09
1.42724e-09
-6.93934e-09
1.49298e-09
-7.78681e-09
1.55259e-09
-8.66362e-09
1.60639e-09
-9.56683e-09
1.65468e-09
-1.04937e-08
1.69779e-09
-1.14415e-08
1.73604e-09
-1.24079e-08
1.76973e-09
-1.33905e-08
1.79916e-09
-1.43872e-08
1.82464e-09
-1.5396e-08
1.84642e-09
-1.64151e-08
1.86476e-09
-1.74425e-08
1.8799e-09
-1.84768e-08
1.89205e-09
-1.95164e-08
1.90143e-09
-2.05598e-08
1.90821e-09
-2.16057e-08
1.91255e-09
-2.26529e-08
1.9146e-09
-2.37e-08
1.91448e-09
-2.47461e-08
1.91232e-09
-2.579e-08
1.9082e-09
-2.68307e-08
1.9022e-09
-2.78671e-08
1.89439e-09
-2.88982e-08
1.88483e-09
-2.99232e-08
1.87354e-09
-3.09411e-08
1.86055e-09
-3.19509e-08
1.84589e-09
-3.29516e-08
1.82954e-09
-3.39425e-08
1.81152e-09
-3.49224e-08
1.7918e-09
-3.58905e-08
1.77036e-09
-3.68459e-08
1.74718e-09
-3.77874e-08
1.72222e-09
-3.87142e-08
1.69543e-09
-3.96251e-08
1.66679e-09
-4.05192e-08
1.63624e-09
-4.13954e-08
1.60374e-09
-4.22525e-08
1.56922e-09
-4.30894e-08
1.53264e-09
-4.39051e-08
1.49395e-09
-4.46982e-08
1.4531e-09
-4.54677e-08
1.41004e-09
-4.62122e-08
1.36472e-09
-4.69305e-08
1.3171e-09
-4.76214e-08
1.26714e-09
-4.82835e-08
1.21481e-09
-4.89156e-08
1.16008e-09
-4.95164e-08
1.10293e-09
-5.00844e-08
1.04334e-09
-5.06185e-08
9.81306e-10
-5.11173e-08
9.16826e-10
-5.15794e-08
8.49913e-10
-5.20036e-08
7.80587e-10
-5.23887e-08
7.08881e-10
-5.27332e-08
6.34833e-10
-5.3036e-08
5.58494e-10
-5.3296e-08
4.79929e-10
-5.35119e-08
3.99216e-10
-5.36827e-08
3.16443e-10
-5.38072e-08
2.31712e-10
-5.38846e-08
1.45134e-10
-5.39139e-08
5.68373e-11
-5.38943e-08
-3.3037e-11
-5.3825e-08
-1.24336e-10
-5.37053e-08
-2.16893e-10
-5.35347e-08
-3.1053e-10
-5.33127e-08
-4.05057e-10
-5.3039e-08
-5.00271e-10
-5.27133e-08
-5.95957e-10
-5.23355e-08
-6.9189e-10
-5.19056e-08
-7.87835e-10
-5.14237e-08
-8.83546e-10
-5.08902e-08
-9.78768e-10
-5.03054e-08
-1.07324e-09
-4.967e-08
-1.16669e-09
-4.89845e-08
-1.25885e-09
-4.825e-08
-1.34943e-09
-4.74673e-08
-1.43816e-09
-4.66377e-08
-1.52476e-09
-4.57625e-08
-1.60892e-09
-4.48432e-08
-1.69039e-09
-4.38813e-08
-1.76886e-09
-4.28786e-08
-1.84406e-09
-4.18371e-08
-1.91573e-09
-4.07589e-08
-1.9836e-09
-3.9646e-08
-2.0474e-09
-3.85009e-08
-2.1069e-09
-3.73259e-08
-2.16185e-09
-3.61238e-08
-2.21204e-09
-3.4897e-08
-2.25725e-09
-3.36485e-08
-2.29729e-09
-3.23812e-08
-2.33199e-09
-3.10979e-08
-2.36119e-09
-2.98017e-08
-2.38474e-09
-2.84958e-08
-2.40254e-09
-2.71832e-08
-2.41447e-09
-2.58673e-08
-2.42047e-09
-2.45511e-08
-2.42048e-09
-2.32381e-08
-2.41446e-09
-2.19313e-08
-2.40242e-09
-2.06341e-08
-2.38436e-09
-1.93497e-08
-2.36032e-09
-1.80812e-08
-2.33036e-09
-1.68319e-08
-2.29458e-09
-1.56047e-08
-2.25307e-09
-1.44028e-08
-2.20597e-09
-1.3229e-08
-2.15343e-09
-1.20863e-08
-2.09563e-09
-1.09772e-08
-2.03275e-09
-9.90453e-09
-1.96502e-09
-8.87069e-09
-1.89266e-09
-7.87806e-09
-1.81594e-09
-6.92886e-09
-1.73512e-09
-6.02514e-09
-1.65049e-09
-5.1688e-09
-1.56236e-09
-4.36156e-09
-1.47104e-09
-3.60495e-09
-1.37688e-09
-2.90031e-09
-1.28023e-09
-2.24878e-09
-1.18147e-09
-1.6513e-09
-1.08097e-09
-1.10857e-09
-9.79157e-10
-6.21058e-10
-8.7645e-10
-1.88992e-10
-7.73304e-10
1.8767e-10
-6.70201e-10
5.0925e-10
-5.67654e-10
7.76374e-10
-4.66216e-10
9.89993e-10
-3.66491e-10
1.15142e-09
-2.69137e-10
1.26237e-09
-1.74889e-10
1.32499e-09
-8.45676e-11
1.34195e-09
8.85976e-13
1.31647e-09
8.04057e-11
1.25243e-09
1.52733e-10
1.15445e-09
2.16406e-10
1.02803e-09
2.697e-10
8.79646e-10
3.10578e-10
7.16889e-10
3.36652e-10
5.48545e-10
3.45175e-10
3.84617e-10
3.33152e-10
2.36174e-10
2.97668e-10
1.14914e-10
2.36608e-10
3.24169e-11
1.50373e-10
4.73412e-11
2.1311e-11
-8.77718e-11
4.15966e-11
-1.35394e-10
3.26102e-11
-8.75845e-11
-2.60195e-11
2.54437e-11
-1.48788e-10
1.82224e-10
-3.45507e-10
3.66766e-10
-6.22195e-10
5.67199e-10
-9.81932e-10
7.74855e-10
-1.42551e-09
9.83513e-10
-1.95203e-09
1.18875e-09
-2.55931e-09
1.38747e-09
-3.24428e-09
1.57758e-09
-4.00326e-09
1.75773e-09
-4.83214e-09
1.92706e-09
-5.72659e-09
2.08515e-09
-6.68215e-09
2.23187e-09
-7.69434e-09
2.36729e-09
-8.75873e-09
2.49163e-09
-9.871e-09
2.60524e-09
-1.10269e-08
2.70853e-09
-1.22225e-08
2.80198e-09
-1.34539e-08
2.88606e-09
-1.47174e-08
2.96131e-09
-1.60096e-08
3.02823e-09
-1.73272e-08
3.08732e-09
-1.86671e-08
3.13908e-09
-2.00265e-08
3.18399e-09
-2.14026e-08
3.22249e-09
-2.27928e-08
3.255e-09
-2.41948e-08
3.28193e-09
-2.56064e-08
3.30365e-09
-2.70255e-08
3.32048e-09
-2.845e-08
3.33274e-09
-2.98782e-08
3.3407e-09
-3.13082e-08
3.34462e-09
-3.27384e-08
3.34471e-09
-3.41673e-08
3.34116e-09
-3.55932e-08
3.33413e-09
-3.70148e-08
3.32377e-09
-3.84305e-08
3.31018e-09
-3.98392e-08
3.29346e-09
-4.12393e-08
3.27368e-09
-4.26296e-08
3.25087e-09
-4.40088e-08
3.22507e-09
-4.53756e-08
3.19629e-09
-4.67286e-08
3.16452e-09
-4.80665e-08
3.12975e-09
-4.93881e-08
3.09194e-09
-5.0692e-08
3.05104e-09
-5.19767e-08
3.00699e-09
-5.3241e-08
2.95975e-09
-5.44835e-08
2.90922e-09
-5.57026e-08
2.85535e-09
-5.68969e-08
2.79804e-09
-5.80649e-08
2.73721e-09
-5.9205e-08
2.67278e-09
-6.03157e-08
2.60466e-09
-6.13954e-08
2.53278e-09
-6.24424e-08
2.45705e-09
-6.34551e-08
2.37739e-09
-6.44317e-08
2.29374e-09
-6.53706e-08
2.20604e-09
-6.627e-08
2.11422e-09
-6.71282e-08
2.01825e-09
-6.79434e-08
1.9181e-09
-6.87138e-08
1.81373e-09
-6.94376e-08
1.70514e-09
-7.01131e-08
1.59235e-09
-7.07386e-08
1.47536e-09
-7.13122e-08
1.35423e-09
-7.18323e-08
1.22901e-09
-7.22973e-08
1.09976e-09
-7.27054e-08
9.66598e-10
-7.30551e-08
8.29621e-10
-7.33448e-08
6.8897e-10
-7.35732e-08
5.44802e-10
-7.37388e-08
3.97295e-10
-7.38403e-08
2.46646e-10
-7.38765e-08
9.30776e-11
-7.38464e-08
-6.31663e-11
-7.37489e-08
-2.21819e-10
-7.35832e-08
-3.82594e-10
-7.33485e-08
-5.45181e-10
-7.30444e-08
-7.09249e-10
-7.26702e-08
-8.74449e-10
-7.22257e-08
-1.04041e-09
-7.17109e-08
-1.20675e-09
-7.11257e-08
-1.37305e-09
-7.04703e-08
-1.5389e-09
-6.97452e-08
-1.70385e-09
-6.8951e-08
-1.86747e-09
-6.80884e-08
-2.02928e-09
-6.71584e-08
-2.18882e-09
-6.61623e-08
-2.3456e-09
-6.51013e-08
-2.49916e-09
-6.3977e-08
-2.64899e-09
-6.27914e-08
-2.79461e-09
-6.15462e-08
-2.93554e-09
-6.02438e-08
-3.0713e-09
-5.88864e-08
-3.2014e-09
-5.74768e-08
-3.3254e-09
-5.60175e-08
-3.44282e-09
-5.45117e-08
-3.55324e-09
-5.29623e-08
-3.65624e-09
-5.13728e-08
-3.7514e-09
-4.97465e-08
-3.83835e-09
-4.8087e-08
-3.91673e-09
-4.63981e-08
-3.98622e-09
-4.46836e-08
-4.04651e-09
-4.29474e-08
-4.09733e-09
-4.11937e-08
-4.13845e-09
-3.94266e-08
-4.16965e-09
-3.76503e-08
-4.19078e-09
-3.58691e-08
-4.2017e-09
-3.40872e-08
-4.20231e-09
-3.23091e-08
-4.19257e-09
-3.05391e-08
-4.17246e-09
-2.87814e-08
-4.142e-09
-2.70405e-08
-4.10125e-09
-2.53205e-08
-4.05033e-09
-2.36257e-08
-3.98938e-09
-2.19602e-08
-3.91857e-09
-2.0328e-08
-3.83814e-09
-1.87331e-08
-3.74834e-09
-1.71793e-08
-3.64948e-09
-1.56701e-08
-3.54188e-09
-1.42092e-08
-3.42591e-09
-1.27999e-08
-3.30198e-09
-1.14454e-08
-3.17052e-09
-1.01485e-08
-3.03199e-09
-8.91207e-09
-2.8869e-09
-7.73865e-09
-2.73577e-09
-6.63054e-09
-2.57916e-09
-5.58977e-09
-2.41765e-09
-4.61816e-09
-2.25185e-09
-3.71721e-09
-2.08242e-09
-2.88816e-09
-1.91002e-09
-2.13195e-09
-1.73537e-09
-1.44918e-09
-1.55922e-09
-8.40136e-10
-1.38235e-09
-3.04733e-10
-1.2056e-09
1.5749e-10
-1.02988e-09
5.47404e-10
-8.5613e-10
8.66322e-10
-6.85409e-10
1.11604e-09
-5.18852e-10
1.29887e-09
-3.5772e-10
1.41772e-09
-2.03417e-10
1.47613e-09
-5.75239e-11
1.47837e-09
7.81656e-11
1.42951e-09
2.01593e-10
1.33552e-09
3.10391e-10
1.20339e-09
4.01825e-10
1.04123e-09
4.72747e-10
8.58311e-10
5.19567e-10
6.65202e-10
5.38284e-10
4.73702e-10
5.24652e-10
2.96774e-10
4.74594e-10
1.48398e-10
3.84983e-10
4.35842e-11
2.55186e-10
9.09253e-11
8.84423e-12
-9.66157e-11
-2.40082e-12
-1.24147e-10
-6.00193e-11
-2.99685e-11
-1.83446e-10
1.48873e-10
-3.86843e-10
3.85616e-10
-6.79966e-10
6.59892e-10
-1.06897e-09
9.56198e-10
-1.55707e-09
1.26296e-09
-2.14515e-09
1.57159e-09
-2.83226e-09
1.87586e-09
-3.61607e-09
2.17128e-09
-4.4932e-09
2.45471e-09
-5.45952e-09
2.72405e-09
-6.5104e-09
2.97794e-09
-7.64088e-09
3.21563e-09
-8.8458e-09
3.4368e-09
-1.012e-08
3.64144e-09
-1.14581e-08
3.8298e-09
-1.28552e-08
4.00232e-09
-1.43062e-08
4.15952e-09
-1.58063e-08
4.30205e-09
-1.73508e-08
4.4306e-09
-1.89354e-08
4.54587e-09
-2.05557e-08
4.6486e-09
-2.22079e-08
4.73952e-09
-2.38882e-08
4.81933e-09
-2.55929e-08
4.88872e-09
-2.73188e-08
4.94834e-09
-2.90626e-08
4.99883e-09
-3.08214e-08
5.04077e-09
-3.25925e-08
5.07468e-09
-3.43731e-08
5.10109e-09
-3.61607e-08
5.12043e-09
-3.79532e-08
5.13313e-09
-3.97481e-08
5.13955e-09
-4.15434e-08
5.14003e-09
-4.33371e-08
5.13485e-09
-4.51272e-08
5.12425e-09
-4.69119e-08
5.10845e-09
-4.86894e-08
5.08762e-09
-5.04578e-08
5.06189e-09
-5.22155e-08
5.03137e-09
-5.39607e-08
4.99614e-09
-5.56919e-08
4.95623e-09
-5.74073e-08
4.91167e-09
-5.91052e-08
4.86246e-09
-6.0784e-08
4.80856e-09
-6.2442e-08
4.74993e-09
-6.40775e-08
4.68651e-09
-6.56887e-08
4.61821e-09
-6.72739e-08
4.54495e-09
-6.88313e-08
4.46663e-09
-7.03591e-08
4.38313e-09
-7.18554e-08
4.29433e-09
-7.33183e-08
4.20011e-09
-7.47459e-08
4.10036e-09
-7.61362e-08
3.99495e-09
-7.74871e-08
3.88376e-09
-7.87967e-08
3.76667e-09
-8.00629e-08
3.64358e-09
-8.12836e-08
3.51439e-09
-8.24565e-08
3.379e-09
-8.35797e-08
3.23735e-09
-8.46508e-08
3.08937e-09
-8.56677e-08
2.93502e-09
-8.66282e-08
2.77426e-09
-8.75302e-08
2.60711e-09
-8.83714e-08
2.43356e-09
-8.91497e-08
2.25367e-09
-8.9863e-08
2.0675e-09
-9.05091e-08
1.87513e-09
-9.10861e-08
1.6767e-09
-9.15918e-08
1.47234e-09
-9.20244e-08
1.26224e-09
-9.23821e-08
1.04661e-09
-9.26629e-08
8.2568e-10
-9.28654e-08
5.99737e-10
-9.29878e-08
3.69084e-10
-9.30288e-08
1.34062e-10
-9.2987e-08
-1.04957e-10
-9.28613e-08
-3.47566e-10
-9.26505e-08
-5.93325e-10
-9.2354e-08
-8.41763e-10
-9.19708e-08
-1.09238e-09
-9.15006e-08
-1.34463e-09
-9.09431e-08
-1.59797e-09
-9.0298e-08
-1.8518e-09
-8.95656e-08
-2.10551e-09
-8.8746e-08
-2.35845e-09
-8.78399e-08
-2.60997e-09
-8.6848e-08
-2.85939e-09
-8.57713e-08
-3.106e-09
-8.4611e-08
-3.34911e-09
-8.33686e-08
-3.58797e-09
-8.20459e-08
-3.82188e-09
-8.06448e-08
-4.05009e-09
-7.91675e-08
-4.27188e-09
-7.76165e-08
-4.4865e-09
-7.59946e-08
-4.69323e-09
-7.43047e-08
-4.89137e-09
-7.25498e-08
-5.0802e-09
-7.07336e-08
-5.25905e-09
-6.88596e-08
-5.42726e-09
-6.69316e-08
-5.5842e-09
-6.49538e-08
-5.72925e-09
-6.29303e-08
-5.86184e-09
-6.08656e-08
-5.98145e-09
-5.87642e-08
-6.08757e-09
-5.6631e-08
-6.17975e-09
-5.44707e-08
-6.25759e-09
-5.22884e-08
-6.32072e-09
-5.00892e-08
-6.36885e-09
-4.78783e-08
-6.40171e-09
-4.56609e-08
-6.41911e-09
-4.34423e-08
-6.4209e-09
-4.12279e-08
-6.40702e-09
-3.90229e-08
-6.37742e-09
-3.68328e-08
-6.33215e-09
-3.46627e-08
-6.27131e-09
-3.2518e-08
-6.19504e-09
-3.04038e-08
-6.10358e-09
-2.83252e-08
-5.99719e-09
-2.62871e-08
-5.87622e-09
-2.42944e-08
-5.74104e-09
-2.23518e-08
-5.59212e-09
-2.04637e-08
-5.42995e-09
-1.86345e-08
-5.25509e-09
-1.68683e-08
-5.06815e-09
-1.5169e-08
-4.86979e-09
-1.35403e-08
-4.66071e-09
-1.19856e-08
-4.44167e-09
-1.05079e-08
-4.21347e-09
-9.11006e-09
-3.97695e-09
-7.7947e-09
-3.73301e-09
-6.56397e-09
-3.48258e-09
-5.41975e-09
-3.22664e-09
-4.36354e-09
-2.96623e-09
-3.39648e-09
-2.70244e-09
-2.5193e-09
-2.4364e-09
-1.73232e-09
-2.16933e-09
-1.03542e-09
-1.9025e-09
-4.28004e-10
-1.63729e-09
9.10267e-11
-1.37516e-09
5.23313e-10
-1.11769e-09
8.71079e-10
-8.66618e-10
1.13718e-09
-6.23824e-10
1.32517e-09
-3.91408e-10
1.43936e-09
-1.71707e-10
1.48487e-09
3.26525e-11
1.46776e-09
2.18701e-10
1.39508e-09
3.83071e-10
1.27496e-09
5.21944e-10
1.11671e-09
6.30998e-10
9.30875e-10
7.05403e-10
7.29286e-10
7.39873e-10
5.25089e-10
7.28849e-10
3.3279e-10
6.66892e-10
1.68408e-10
5.49364e-10
5.00266e-11
3.73568e-10
1.40952e-10
-6.48102e-12
-9.01337e-11
-5.63086e-11
-7.43215e-11
-1.7206e-10
8.57878e-11
-3.71001e-10
3.47808e-10
-6.65951e-10
6.80571e-10
-1.06589e-09
1.05983e-09
-1.57651e-09
1.46682e-09
-2.20075e-09
1.8872e-09
-2.9393e-09
2.31014e-09
-3.79104e-09
2.7276e-09
-4.7534e-09
3.13364e-09
-5.82271e-09
3.52403e-09
-6.9945e-09
3.89583e-09
-8.26369e-09
4.24713e-09
-9.62482e-09
4.57676e-09
-1.10722e-08
4.88417e-09
-1.26e-08
5.16923e-09
-1.42024e-08
5.43219e-09
-1.58736e-08
5.67352e-09
-1.76079e-08
5.89388e-09
-1.93999e-08
6.09408e-09
-2.12443e-08
6.27498e-09
-2.3136e-08
6.43752e-09
-2.507e-08
6.58265e-09
-2.70419e-08
6.71134e-09
-2.9047e-08
6.82452e-09
-3.10814e-08
6.92312e-09
-3.31411e-08
7.00802e-09
-3.52223e-08
7.08006e-09
-3.73216e-08
7.14002e-09
-3.94356e-08
7.18866e-09
-4.15611e-08
7.22665e-09
-4.36953e-08
7.2546e-09
-4.58353e-08
7.2731e-09
-4.79784e-08
7.28265e-09
-5.0122e-08
7.2837e-09
-5.22638e-08
7.27665e-09
-5.44014e-08
7.26184e-09
-5.65325e-08
7.23957e-09
-5.8655e-08
7.21006e-09
-6.07666e-08
7.17353e-09
-6.28654e-08
7.1301e-09
-6.49491e-08
7.0799e-09
-6.70159e-08
7.02299e-09
-6.90636e-08
6.9594e-09
-7.10903e-08
6.88912e-09
-7.30938e-08
6.81213e-09
-7.50723e-08
6.72836e-09
-7.70235e-08
6.63773e-09
-7.89454e-08
6.54015e-09
-8.0836e-08
6.43547e-09
-8.26929e-08
6.32358e-09
-8.45141e-08
6.20432e-09
-8.62973e-08
6.07753e-09
-8.80403e-08
5.94306e-09
-8.97406e-08
5.80073e-09
-9.13961e-08
5.65039e-09
-9.30042e-08
5.49188e-09
-9.45625e-08
5.32503e-09
-9.60687e-08
5.14971e-09
-9.75201e-08
4.9658e-09
-9.89142e-08
4.77316e-09
-1.00249e-07
4.57171e-09
-1.01521e-07
4.36136e-09
-1.02728e-07
4.14207e-09
-1.03867e-07
3.9138e-09
-1.04937e-07
3.67656e-09
-1.05933e-07
3.43038e-09
-1.06855e-07
3.17531e-09
-1.07699e-07
2.91148e-09
-1.08463e-07
2.639e-09
-1.09144e-07
2.35805e-09
-1.09741e-07
2.06885e-09
-1.1025e-07
1.77166e-09
-1.1067e-07
1.46678e-09
-1.10999e-07
1.15455e-09
-1.11235e-07
8.35368e-10
-1.11375e-07
5.09664e-10
-1.11419e-07
1.77921e-10
-1.11365e-07
-1.59333e-10
-1.11211e-07
-5.01526e-10
-1.10956e-07
-8.48038e-10
-1.106e-07
-1.19821e-09
-1.10141e-07
-1.55132e-09
-1.09579e-07
-1.90664e-09
-1.08913e-07
-2.26338e-09
-1.08145e-07
-2.6207e-09
-1.07272e-07
-2.97776e-09
-1.06297e-07
-3.33365e-09
-1.0522e-07
-3.68745e-09
-1.04041e-07
-4.03822e-09
-1.02762e-07
-4.38497e-09
-1.01384e-07
-4.72673e-09
-9.99097e-08
-5.06248e-09
-9.83404e-08
-5.39121e-09
-9.66786e-08
-5.7119e-09
-9.49269e-08
-6.02353e-09
-9.30883e-08
-6.32508e-09
-9.1166e-08
-6.61555e-09
-8.91634e-08
-6.89393e-09
-8.70844e-08
-7.15926e-09
-8.49328e-08
-7.41059e-09
-8.27131e-08
-7.64701e-09
-8.04297e-08
-7.86762e-09
-7.80873e-08
-8.0716e-09
-7.5691e-08
-8.25815e-09
-7.32459e-08
-8.42652e-09
-7.07575e-08
-8.57603e-09
-6.82312e-08
-8.70604e-09
-6.56728e-08
-8.816e-09
-6.30881e-08
-8.9054e-09
-6.04831e-08
-8.97382e-09
-5.78639e-08
-9.02091e-09
-5.52367e-08
-9.04639e-09
-5.26075e-08
-9.05006e-09
-4.99827e-08
-9.03181e-09
-4.73685e-08
-8.99161e-09
-4.47712e-08
-8.92951e-09
-4.21968e-08
-8.84564e-09
-3.96517e-08
-8.74021e-09
-3.71417e-08
-8.61354e-09
-3.46729e-08
-8.46599e-09
-3.22511e-08
-8.29805e-09
-2.98819e-08
-8.11024e-09
-2.75708e-08
-7.90321e-09
-2.53231e-08
-7.67764e-09
-2.31439e-08
-7.43432e-09
-2.10379e-08
-7.17409e-09
-1.90098e-08
-6.89788e-09
-1.70639e-08
-6.60666e-09
-1.52041e-08
-6.30151e-09
-1.3434e-08
-5.98353e-09
-1.1757e-08
-5.65391e-09
-1.01761e-08
-5.31391e-09
-8.69387e-09
-4.96484e-09
-7.31242e-09
-4.60809e-09
-6.03354e-09
-4.24511e-09
-4.85855e-09
-3.87742e-09
-3.7883e-09
-3.50665e-09
-2.82315e-09
-3.13448e-09
-1.96293e-09
-2.76272e-09
-1.20693e-09
-2.39329e-09
-5.53845e-10
-2.02825e-09
-1.74675e-12
-1.66979e-09
4.51966e-10
-1.32033e-09
8.10616e-10
-9.82473e-10
1.0783e-09
-6.59095e-10
1.25997e-09
-3.53375e-10
1.36147e-09
-6.88492e-11
1.38964e-09
1.90533e-10
1.35236e-09
4.20347e-10
1.25867e-09
6.15642e-10
1.11877e-09
7.70898e-10
9.44147e-10
8.80021e-10
7.47616e-10
9.36405e-10
5.43382e-10
9.33084e-10
3.47229e-10
8.63044e-10
1.76866e-10
7.19726e-10
5.27095e-11
4.97725e-10
1.93662e-10
-2.32405e-11
-6.68949e-11
-1.15842e-10
1.82825e-11
-2.95875e-10
2.65817e-10
-5.77615e-10
6.29551e-10
-9.7186e-10
1.07481e-09
-1.4862e-09
1.57417e-09
-2.12539e-09
2.10601e-09
-2.89174e-09
2.65354e-09
-3.78547e-09
3.20388e-09
-4.80509e-09
3.74722e-09
-5.94771e-09
4.27625e-09
-7.20933e-09
4.78565e-09
-8.58512e-09
5.27162e-09
-1.00696e-08
5.73164e-09
-1.1657e-08
6.1641e-09
-1.3341e-08
6.56817e-09
-1.51153e-08
6.9436e-09
-1.69737e-08
7.29056e-09
-1.89098e-08
7.60957e-09
-2.09173e-08
7.9014e-09
-2.29902e-08
8.16699e-09
-2.51226e-08
8.40741e-09
-2.73089e-08
8.62381e-09
-2.95436e-08
8.81736e-09
-3.18216e-08
8.98927e-09
-3.41378e-08
9.14073e-09
-3.64876e-08
9.2729e-09
-3.88664e-08
9.3869e-09
-4.12702e-08
9.48382e-09
-4.36948e-08
9.56465e-09
-4.61365e-08
9.63035e-09
-4.85917e-08
9.68179e-09
-5.10568e-08
9.71979e-09
-5.35288e-08
9.74508e-09
-5.60045e-08
9.75832e-09
-5.84809e-08
9.7601e-09
-6.09552e-08
9.75093e-09
-6.34246e-08
9.73127e-09
-6.58865e-08
9.7015e-09
-6.83384e-08
9.66194e-09
-7.07777e-08
9.61284e-09
-7.3202e-08
9.55439e-09
-7.56088e-08
9.48675e-09
-7.79959e-08
9.41e-09
-8.03607e-08
9.3242e-09
-8.27009e-08
9.22934e-09
-8.50141e-08
9.12539e-09
-8.72981e-08
9.01227e-09
-8.95502e-08
8.88988e-09
-9.17682e-08
8.7581e-09
-9.39494e-08
8.61676e-09
-9.60916e-08
8.4657e-09
-9.8192e-08
8.30472e-09
-1.00248e-07
8.13363e-09
-1.02257e-07
7.95222e-09
-1.04217e-07
7.76029e-09
-1.06124e-07
7.55763e-09
-1.07976e-07
7.34404e-09
-1.0977e-07
7.11931e-09
-1.11504e-07
6.88328e-09
-1.13174e-07
6.63578e-09
-1.14778e-07
6.37667e-09
-1.16312e-07
6.10583e-09
-1.17773e-07
5.82317e-09
-1.1916e-07
5.52862e-09
-1.20468e-07
5.22216e-09
-1.21696e-07
4.90381e-09
-1.22839e-07
4.57361e-09
-1.23895e-07
4.23167e-09
-1.24862e-07
3.87812e-09
-1.25736e-07
3.51315e-09
-1.26515e-07
3.13701e-09
-1.27196e-07
2.74999e-09
-1.27777e-07
2.35244e-09
-1.28255e-07
1.94478e-09
-1.28628e-07
1.52746e-09
-1.28893e-07
1.10101e-09
-1.2905e-07
6.66024e-10
-1.29095e-07
2.23134e-10
-1.29027e-07
-2.26952e-10
-1.28845e-07
-6.83467e-10
-1.28548e-07
-1.14559e-09
-1.28134e-07
-1.61244e-09
-1.27602e-07
-2.08307e-09
-1.26952e-07
-2.5565e-09
-1.26184e-07
-3.03168e-09
-1.25297e-07
-3.50751e-09
-1.24292e-07
-3.98287e-09
-1.23169e-07
-4.45656e-09
-1.21929e-07
-4.92736e-09
-1.20573e-07
-5.39403e-09
-1.19103e-07
-5.85528e-09
-1.1752e-07
-6.3098e-09
-1.15826e-07
-6.75627e-09
-1.14024e-07
-7.19335e-09
-1.12116e-07
-7.61969e-09
-1.10106e-07
-8.03395e-09
-1.07996e-07
-8.4348e-09
-1.05791e-07
-8.8209e-09
-1.03494e-07
-9.19095e-09
-1.01109e-07
-9.54367e-09
-9.8642e-08
-9.87781e-09
-9.60969e-08
-1.01922e-08
-9.34789e-08
-1.04856e-08
-9.07935e-08
-1.0757e-08
-8.80464e-08
-1.10053e-08
-8.52434e-08
-1.12295e-08
-8.23907e-08
-1.14288e-08
-7.94945e-08
-1.16022e-08
-7.65614e-08
-1.17491e-08
-7.35979e-08
-1.18689e-08
-7.06108e-08
-1.19609e-08
-6.76071e-08
-1.20246e-08
-6.45937e-08
-1.20598e-08
-6.15775e-08
-1.20662e-08
-5.85658e-08
-1.20436e-08
-5.55655e-08
-1.19919e-08
-5.25838e-08
-1.19113e-08
-4.96276e-08
-1.18018e-08
-4.67039e-08
-1.16639e-08
-4.38196e-08
-1.14979e-08
-4.09813e-08
-1.13042e-08
-3.81958e-08
-1.10836e-08
-3.54694e-08
-1.08367e-08
-3.28083e-08
-1.05643e-08
-3.02186e-08
-1.02674e-08
-2.7706e-08
-9.94697e-09
-2.52759e-08
-9.60418e-09
-2.29335e-08
-9.24022e-09
-2.06838e-08
-8.8564e-09
-1.85312e-08
-8.45412e-09
-1.64798e-08
-8.03487e-09
-1.45335e-08
-7.60022e-09
-1.26956e-08
-7.15182e-09
-1.0969e-08
-6.69143e-09
-9.35621e-09
-6.2209e-09
-7.85918e-09
-5.74214e-09
-6.47941e-09
-5.25719e-09
-5.21785e-09
-4.76821e-09
-4.07489e-09
-4.27743e-09
-3.05034e-09
-3.78727e-09
-2.14338e-09
-3.30025e-09
-1.35254e-09
-2.81909e-09
-6.75624e-10
-2.34671e-09
-1.09724e-10
-1.88623e-09
3.4888e-10
-1.44108e-09
7.04749e-10
-1.01496e-09
9.63347e-10
-6.11974e-10
1.13111e-09
-2.36608e-10
1.21548e-09
1.06155e-10
1.22503e-09
4.10801e-10
1.16945e-09
6.71222e-10
1.05966e-09
8.80683e-10
9.07874e-10
1.03181e-09
7.27647e-10
1.11663e-09
5.34041e-10
1.12669e-09
3.4385e-10
1.05324e-09
1.76037e-10
8.87538e-10
5.25388e-11
6.21224e-10
2.46202e-10
-4.05628e-11
-2.63324e-11
-1.78188e-10
1.55904e-10
-4.26164e-10
5.13795e-10
-7.95346e-10
9.98732e-10
-1.29403e-09
1.57349e-09
-1.92799e-09
2.20813e-09
-2.70068e-09
2.8787e-09
-3.61344e-09
3.56631e-09
-4.66579e-09
4.25623e-09
-5.85569e-09
4.93711e-09
-7.17977e-09
5.60034e-09
-8.63366e-09
6.23954e-09
-1.02121e-08
6.85011e-09
-1.19094e-08
7.42888e-09
-1.37191e-08
7.97382e-09
-1.56347e-08
8.48381e-09
-1.76495e-08
8.95841e-09
-1.97567e-08
9.39774e-09
-2.19495e-08
9.80234e-09
-2.42212e-08
1.01731e-08
-2.65652e-08
1.0511e-08
-2.89752e-08
1.08174e-08
-3.14449e-08
1.10936e-08
-3.39686e-08
1.1341e-08
-3.65404e-08
1.15611e-08
-3.9155e-08
1.17553e-08
-4.18071e-08
1.1925e-08
-4.44918e-08
1.20716e-08
-4.72045e-08
1.21965e-08
-4.99406e-08
1.23008e-08
-5.2696e-08
1.23857e-08
-5.54665e-08
1.24523e-08
-5.82484e-08
1.25017e-08
-6.10379e-08
1.25346e-08
-6.38317e-08
1.25521e-08
-6.66262e-08
1.25547e-08
-6.94184e-08
1.25431e-08
-7.22051e-08
1.25179e-08
-7.49832e-08
1.24797e-08
-7.775e-08
1.24287e-08
-8.05024e-08
1.23653e-08
-8.32378e-08
1.22897e-08
-8.59533e-08
1.22023e-08
-8.86462e-08
1.21029e-08
-9.13138e-08
1.19918e-08
-9.39534e-08
1.18689e-08
-9.65623e-08
1.17343e-08
-9.91377e-08
1.15877e-08
-1.01677e-07
1.14291e-08
-1.04177e-07
1.12584e-08
-1.06636e-07
1.10753e-08
-1.0905e-07
1.08796e-08