/*--------------------------------*- C++ -*----------------------------------*\
  =========                 |
  \\      /  F ield         | OpenFOAM: The Open Source CFD Toolbox
   \\    /   O peration     | Website:  https://openfoam.org
    \\  /    A nd           | Version:  7
     \\/     M anipulation  |
\*---------------------------------------------------------------------------*/
FoamFile
{
    version     2.0;
    format      ascii;
    class       volScalarField;
    location    "0.375";
    object      p;
}
// * * * * * * * * * * * * * * * * * * * * * * * * * * * * * * * * * * * * * //

dimensions      [0 2 -2 0 0 0 0];

internalField   nonuniform List<scalar> 
25600
(
2.3202e-06
0.000115805
0.000144873
3.67055e-05
-0.000216675
-0.000611154
-0.00113563
-0.00177555
-0.00251553
-0.00334041
-0.00423572
-0.00518783
-0.00618409
-0.00721281
-0.00826328
-0.00932568
-0.010391
-0.011451
-0.0124981
-0.0135255
-0.0145267
-0.0154959
-0.0164279
-0.0173179
-0.0181613
-0.0189544
-0.0196936
-0.0203757
-0.0209977
-0.0215572
-0.0220518
-0.0224795
-0.0228385
-0.0231274
-0.0233449
-0.0234899
-0.0235616
-0.0235594
-0.0234828
-0.0233314
-0.0231052
-0.0228041
-0.0224284
-0.0219783
-0.0214545
-0.0208573
-0.0201877
-0.0194463
-0.0186341
-0.0177522
-0.0168018
-0.0157839
-0.0147001
-0.0135518
-0.0123404
-0.0110676
-0.00973503
-0.00834444
-0.00689765
-0.00539656
-0.00384315
-0.00223946
-0.000587573
0.00111035
0.00285212
0.0046355
0.00645818
0.00831782
0.010212
0.0121383
0.0140942
0.0160771
0.0180846
0.020114
0.0221627
0.0242281
0.0263073
0.0283979
0.0304969
0.0326017
0.0347095
0.0368175
0.0389229
0.0410229
0.0431147
0.0451955
0.0472624
0.0493127
0.0513436
0.0533523
0.055336
0.057292
0.0592175
0.0611098
0.0629663
0.0647843
0.0665612
0.0682946
0.0699818
0.0716204
0.0732081
0.0747424
0.0762212
0.0776422
0.0790033
0.0803025
0.0815379
0.0827075
0.0838097
0.0848428
0.0858053
0.0866957
0.0875127
0.0882553
0.0889223
0.0895129
0.0900263
0.090462
0.0908194
0.0910984
0.0912989
0.091421
0.0914649
0.0914312
0.0913205
0.0911338
0.0908722
0.0905371
0.09013
0.0896529
0.089108
0.0884975
0.0878243
0.0870913
0.0863019
0.0854597
0.0845687
0.0836334
0.0826586
0.0816494
0.0806117
0.0795516
0.0784757
0.0773913
0.0763062
0.0752288
0.0741685
0.0731349
0.0721389
0.0711919
0.0703064
0.0694954
0.068773
0.0681534
0.0676512
0.0672795
0.0670476
0.0669574
0.0669979
0.0671134
-0.000107521
4.56959e-06
8.75492e-06
-0.000112243
-0.000354374
-0.000715902
-0.00119023
-0.00176693
-0.00243406
-0.00317934
-0.00399055
-0.00485585
-0.00576398
-0.00670437
-0.00766715
-0.0086432
-0.00962406
-0.0106019
-0.0115696
-0.0125205
-0.0134483
-0.0143476
-0.0152131
-0.0160401
-0.0168243
-0.0175618
-0.0182492
-0.0188833
-0.0194611
-0.0199801
-0.020438
-0.0208327
-0.0211624
-0.0214257
-0.0216211
-0.0217477
-0.0218046
-0.021791
-0.0217064
-0.0215504
-0.0213229
-0.0210237
-0.020653
-0.0202112
-0.0196985
-0.0191155
-0.0184629
-0.0177414
-0.0169519
-0.0160952
-0.0151726
-0.0141852
-0.0131342
-0.012021
-0.0108471
-0.00961402
-0.00832328
-0.00697657
-0.00557565
-0.00412234
-0.00261853
-0.00106619
0.000532665
0.00217598
0.00386163
0.00558746
0.00735126
0.00915074
0.0109836
0.0128474
0.0147398
0.0166584
0.0186006
0.020564
0.0225461
0.0245441
0.0265556
0.028578
0.0306085
0.0326445
0.0346834
0.0367224
0.0387588
0.04079
0.0428132
0.0448257
0.0468248
0.0488077
0.0507718
0.0527144
0.0546328
0.0565244
0.0583865
0.0602165
0.0620118
0.06377
0.0654884
0.0671648
0.0687966
0.0703815
0.0719172
0.0734015
0.0748322
0.0762072
0.0775245
0.0787822
0.0799783
0.0811113
0.0821793
0.0831809
0.0841145
0.084979
0.0857729
0.0864954
0.0871454
0.0877222
0.088225
0.0886533
0.0890068
0.0892853
0.0894887
0.0896173
0.0896713
0.0896514
0.0895582
0.0893928
0.0891562
0.0888498
0.0884754
0.0880347
0.08753
0.0869636
0.0863383
0.0856569
0.0849229
0.0841397
0.0833114
0.0824422
0.0815369
0.0806006
0.0796387
0.0786573
0.0776627
0.0766619
0.0756622
0.0746717
0.073699
0.0727532
0.0718442
0.0709823
0.0701785
0.0694442
0.068791
0.0682307
0.0677742
0.0674307
0.0672057
0.0670991
0.067113
0.0672286
-0.000135902
6.72598e-07
4.90439e-06
-0.000117408
-0.000349634
-0.000688649
-0.00112902
-0.00166207
-0.00227779
-0.00296571
-0.00371517
-0.0045157
-0.00535718
-0.00622998
-0.00712501
-0.00803378
-0.00894835
-0.00986134
-0.0107659
-0.0116556
-0.0125247
-0.0133676
-0.0141793
-0.0149552
-0.0156911
-0.0163833
-0.0170283
-0.0176229
-0.0181644
-0.0186501
-0.0190776
-0.019445
-0.0197505
-0.0199925
-0.0201697
-0.020281
-0.0203254
-0.0203023
-0.020211
-0.0200512
-0.0198225
-0.0195249
-0.0191584
-0.0187234
-0.0182201
-0.0176489
-0.0170106
-0.0163057
-0.0155351
-0.0146997
-0.0138005
-0.0128386
-0.0118152
-0.0107316
-0.00958926
-0.00838955
-0.00713403
-0.00582428
-0.004462
-0.00304895
-0.00158695
-7.79006e-05
0.00147625
0.00307351
0.00471184
0.00638914
0.00810326
0.00985199
0.0116331
0.0134442
0.0152831
0.0171474
0.0190346
0.0209423
0.0228681
0.0248094
0.0267637
0.0287285
0.0307013
0.0326793
0.0346601
0.036641
0.0386193
0.0405925
0.0425579
0.0445128
0.0464547
0.0483809
0.0502888
0.0521758
0.0540393
0.0558767
0.0576854
0.059463
0.061207
0.0629148
0.0645842
0.0662127
0.067798
0.0693379
0.07083
0.0722723
0.0736627
0.0749992
0.0762798
0.0775027
0.0786661
0.0797683
0.0808078
0.081783
0.0826926
0.0835353
0.0843101
0.0850158
0.0856516
0.0862168
0.0867108
0.087133
0.0874832
0.0877612
0.0879671
0.0881011
0.0881635
0.088155
0.0880763
0.0879284
0.0877124
0.0874297
0.0870821
0.0866714
0.0861997
0.0856694
0.0850832
0.084444
0.0837551
0.08302
0.0822424
0.0814268
0.0805776
0.0796997
0.0787986
0.0778799
0.0769498
0.0760149
0.0750822
0.0741593
0.0732543
0.0723756
0.0715324
0.070734
0.0699903
0.0693114
0.0687073
0.068188
0.0677627
0.0674393
0.067222
0.0671128
0.0671268
0.0672691
-2.81343e-05
0.000121588
0.000127417
5.23477e-06
-0.000221039
-0.000546269
-0.000964766
-0.00146839
-0.00204818
-0.00269475
-0.00339858
-0.00415023
-0.0049405
-0.0057606
-0.00660213
-0.00745718
-0.00831831
-0.00917856
-0.0100314
-0.0108708
-0.0116911
-0.012487
-0.0132536
-0.0139866
-0.0146818
-0.0153356
-0.0159446
-0.0165056
-0.017016
-0.0174731
-0.0178747
-0.0182186
-0.0185031
-0.0187267
-0.0188882
-0.0189862
-0.0190199
-0.0189886
-0.0188915
-0.0187282
-0.0184986
-0.0182023
-0.0178396
-0.0174105
-0.0169154
-0.0163547
-0.015729
-0.0150387
-0.0142848
-0.013468
-0.0125894
-0.0116499
-0.0106509
-0.0095934
-0.00847885
-0.00730862
-0.00608418
-0.00480706
-0.0034789
-0.00210141
-0.000676351
0.000794436
0.00230907
0.00386562
0.00546211
0.0070965
0.0087667
0.0104706
0.0122059
0.0139704
0.015762
0.0175782
0.0194167
0.0212752
0.0231513
0.0250424
0.0269462
0.0288602
0.0307818
0.0327086
0.0346381
0.0365676
0.0384946
0.0404166
0.0423309
0.0442351
0.0461266
0.0480027
0.0498611
0.051699
0.053514
0.0553037
0.0570655
0.0587969
0.0604956
0.0621592
0.0637854
0.0653718
0.0669162
0.0684165
0.0698704
0.0712758
0.0726309
0.0739335
0.0751819
0.0763743
0.077509
0.0785843
0.0795988
0.0805509
0.0814395
0.0822633
0.0830212
0.0837122
0.0843357
0.0848907
0.0853769
0.0857938
0.0861411
0.0864187
0.0866266
0.0867652
0.0868349
0.0868362
0.0867699
0.086637
0.0864386
0.0861763
0.0858516
0.0854664
0.0850229
0.0845234
0.0839704
0.083367
0.0827162
0.0820215
0.0812866
0.0805158
0.0797133
0.0788841
0.0780332
0.077166
0.0762886
0.0754072
0.0745284
0.0736595
0.0728079
0.0719816
0.0711889
0.0704386
0.0697394
0.0691006
0.068531
0.0680396
0.0676348
0.067324
0.0671121
0.0670032
0.0670204
0.0671794
0.000224411
0.000363619
0.000359942
0.000231996
5.71917e-06
-0.000312547
-0.000716812
-0.00119928
-0.00175169
-0.00236557
-0.00303232
-0.0037434
-0.00449047
-0.00526546
-0.00606064
-0.00686869
-0.00768264
-0.00849597
-0.00930253
-0.0100966
-0.0108726
-0.0116257
-0.0123512
-0.0130448
-0.0137025
-0.0143209
-0.0148965
-0.0154265
-0.0159079
-0.0163384
-0.0167156
-0.0170375
-0.0173025
-0.0175089
-0.0176555
-0.0177411
-0.0177648
-0.0177257
-0.0176231
-0.0174568
-0.0172262
-0.0169314
-0.0165722
-0.0161489
-0.0156617
-0.015111
-0.0144973
-0.0138211
-0.0130832
-0.0122843
-0.0114254
-0.0105076
-0.00953188
-0.00849948
-0.00741167
-0.00626977
-0.0050752
-0.00382946
-0.00253412
-0.00119083
0.000198688
0.00163266
0.00310928
0.00462665
0.00618288
0.00777596
0.00940388
0.0110645
0.0127558
0.0144755
0.0162215
0.0179915
0.0197832
0.0215943
0.0234224
0.0252653
0.0271205
0.0289855
0.030858
0.0327355
0.0346156
0.0364957
0.0383734
0.0402461
0.0421114
0.0439668
0.0458098
0.0476379
0.0494486
0.0512395
0.0530081
0.0547519
0.0564686
0.0581558
0.0598111
0.0614323
0.063017
0.0645631
0.0660684
0.0675307
0.0689479
0.0703181
0.0716393
0.0729097
0.0741273
0.0752906
0.0763978
0.0774474
0.078438
0.0793681
0.0802365
0.0810422
0.081784
0.0824611
0.0830727
0.0836181
0.0840969
0.0845086
0.084853
0.0851301
0.0853399
0.0854828
0.0855591
0.0855695
0.0855148
0.0853959
0.0852141
0.0849707
0.0846673
0.0843059
0.0838886
0.0834175
0.0828953
0.0823249
0.0817092
0.0810517
0.080356
0.0796261
0.0788663
0.0780811
0.0772755
0.0764548
0.0756245
0.0747906
0.0739594
0.0731376
0.0723323
0.0715509
0.0708009
0.0700905
0.0694276
0.0688206
0.0682775
0.0678064
0.0674152
0.067111
0.0668992
0.0667855
0.0667956
0.0669487
0.000617968
0.000725394
0.000699736
0.000558064
0.000324526
5.91617e-06
-0.000391673
-0.000860834
-0.00139391
-0.0019832
-0.0026209
-0.00329929
-0.00401076
-0.00474795
-0.00550374
-0.00627135
-0.00704432
-0.00781653
-0.00858221
-0.0093359
-0.0100725
-0.0107871
-0.0114754
-0.0121333
-0.0127569
-0.0133429
-0.013888
-0.0143894
-0.0148442
-0.0152501
-0.0156049
-0.0159065
-0.0161533
-0.0163438
-0.0164766
-0.0165507
-0.016565
-0.0165187
-0.0164112
-0.0162419
-0.0160107
-0.0157172
-0.0153616
-0.0149439
-0.0144643
-0.0139231
-0.0133209
-0.0126581
-0.0119355
-0.0111537
-0.0103137
-0.00941652
-0.00846312
-0.00745467
-0.00639239
-0.00527757
-0.00411156
-0.00289581
-0.00163185
-0.000321275
0.00103425
0.00243302
0.00387327
0.00535318
0.00687088
0.00842445
0.0100119
0.0116312
0.0132804
0.0149572
0.0166595
0.0183853
0.0201321
0.0218979
0.0236803
0.025477
0.0272856
0.0291039
0.0309294
0.0327598
0.0345927
0.0364256
0.0382561
0.0400818
0.0419003
0.0437091
0.0455058
0.047288
0.0490532
0.0507992
0.0525234
0.0542236
0.0558973
0.0575423
0.0591563
0.0607371
0.0622824
0.06379
0.065258
0.0666842
0.0680666
0.0694033
0.0706923
0.0719319
0.0731203
0.0742558
0.075337
0.0763622
0.07733
0.0782392
0.0790886
0.0798771
0.0806036
0.0812674
0.0818678
0.082404
0.0828757
0.0832824
0.083624
0.0839005
0.0841119
0.0842586
0.0843411
0.0843599
0.0843158
0.0842099
0.0840432
0.0838173
0.0835336
0.0831941
0.0828007
0.0823558
0.0818618
0.0813215
0.0807378
0.0801141
0.0794539
0.078761
0.0780395
0.0772938
0.0765287
0.0757491
0.0749603
0.074168
0.0733781
0.0725969
0.0718309
0.0710871
0.0703724
0.0696942
0.0690599
0.0684768
0.0679526
0.0674945
0.0671099
0.0668057
0.0665875
0.0664615
0.0664526
0.0665788
0.001142
0.00120075
0.00114175
0.000978106
0.000729712
0.000403319
4.94224e-06
-0.000458503
-0.000979978
-0.00155244
-0.00216884
-0.00282214
-0.00350543
-0.00421197
-0.00493524
-0.00566896
-0.00640715
-0.00714411
-0.00787441
-0.00859291
-0.00929476
-0.00997544
-0.0106307
-0.0112567
-0.0118498
-0.0124068
-0.0129244
-0.0133999
-0.0138306
-0.0142141
-0.0145484
-0.0148315
-0.0150617
-0.0152377
-0.0153579
-0.0154214
-0.0154272
-0.0153743
-0.0152623
-0.0150905
-0.0148588
-0.0145668
-0.0142146
-0.0138022
-0.0133298
-0.0127978
-0.0122065
-0.0115565
-0.0108483
-0.0100828
-0.00926072
-0.00838306
-0.00745082
-0.00646508
-0.00542702
-0.00433786
-0.00319893
-0.00201163
-0.000777438
0.000502103
0.00182538
0.00319075
0.00459649
0.00604084
0.00752199
0.00903807
0.0105871
0.0121672
0.0137764
0.0154125
0.0170734
0.0187572
0.0204615
0.0221843
0.0239232
0.0256761
0.0274406
0.0292145
0.0309955
0.0327812
0.0345693
0.0363575
0.0381433
0.0399245
0.0416986
0.0434632
0.0452161
0.0469549
0.0486771
0.0503806
0.0520629
0.0537217
0.0553548
0.0569599
0.0585349
0.0600774
0.0615855
0.0630569
0.0644897
0.0658818
0.0672313
0.0685364
0.069795
0.0710056
0.0721665
0.0732759
0.0743324
0.0753346
0.0762811
0.0771707
0.0780021
0.0787743
0.0794865
0.0801378
0.0807275
0.081255
0.0817199
0.0821219
0.0824607
0.0827365
0.0829493
0.0830994
0.0831873
0.0832137
0.0831793
0.0830851
0.0829322
0.0827221
0.0824563
0.0821366
0.081765
0.0813437
0.0808751
0.0803619
0.079807
0.0792136
0.078585
0.0779249
0.0772373
0.0765264
0.0757967
0.0750528
0.0742999
0.0735432
0.0727883
0.0720411
0.0713076
0.0705943
0.0699076
0.0692542
0.0686408
0.0680743
0.0675615
0.0671093
0.0667243
0.0664131
0.0661813
0.0660352
0.0659962
0.0660785
0.00178271
0.00177981
0.00167774
0.00148439
0.0012139
0.000872687
0.00046657
1.8628e-06
-0.000515041
-0.00107775
-0.00167985
-0.00231499
-0.00297686
-0.00365932
-0.00435638
-0.00506227
-0.00577145
-0.00647861
-0.00717869
-0.00786685
-0.00853854
-0.0091895
-0.00981574
-0.0104136
-0.0109796
-0.0115106
-0.0120036
-0.0124558
-0.0128647
-0.0132281
-0.0135439
-0.0138102
-0.0140254
-0.0141881
-0.014297
-0.0143509
-0.0143489
-0.0142902
-0.0141741
-0.0140002
-0.0137681
-0.0134777
-0.0131288
-0.0127216
-0.0122562
-0.0117329
-0.011152
-0.010514
-0.00981963
-0.0090695
-0.00826443
-0.00740532
-0.00649313
-0.00552892
-0.0045138
-0.00344897
-0.0023357
-0.00117536
3.06127e-05
0.00128073
0.00257344
0.00390714
0.00528017
0.00669082
0.00813731
0.00961783
0.0111305
0.0126734
0.0142446
0.0158421
0.0174638
0.0191078
0.0207718
0.0224538
0.0241516
0.0258629
0.0275856
0.0293175
0.0310563
0.0327997
0.0345454
0.0362912
0.0380348
0.0397737
0.0415058
0.0432287
0.0449402
0.0466378
0.0483194
0.0499827
0.0516254
0.0532452
0.0548399
0.0564074
0.0579454
0.0594519
0.0609249
0.0623621
0.0637617
0.0651218
0.0664403
0.0677155
0.0689456
0.0701289
0.0712637
0.0723486
0.073382
0.0743626
0.075289
0.0761599
0.0769744
0.0777314
0.0784301
0.0790695
0.0796492
0.0801684
0.0806269
0.0810243
0.0813604
0.0816353
0.0818492
0.0820023
0.0820951
0.0821282
0.0821025
0.0820188
0.0818784
0.0816826
0.0814329
0.0811311
0.080779
0.0803789
0.0799331
0.0794441
0.0789148
0.0783482
0.0777475
0.0771164
0.0764585
0.0757778
0.0750787
0.0743656
0.0736432
0.0729166
0.0721908
0.0714715
0.0707642
0.0700749
0.0694095
0.0687741
0.0681749
0.0676181
0.06711
0.0666569
0.0662648
0.0659399
0.0656876
0.0655141
0.0654352
0.0654606
0.00252552
0.00245132
0.00229826
0.00206844
0.00176933
0.00140691
0.00098672
0.00051441
-4.29294e-06
-0.000563621
-0.00115779
-0.00178103
-0.00242763
-0.00309199
-0.00376863
-0.00445227
-0.00513777
-0.00582021
-0.00649487
-0.00715723
-0.00780304
-0.0084283
-0.00902926
-0.00960245
-0.0101446
-0.0106526
-0.0111237
-0.0115552
-0.0119447
-0.01229
-0.0125892
-0.0128404
-0.0130421
-0.0131929
-0.0132915
-0.0133368
-0.0133279
-0.013264
-0.0131444
-0.0129687
-0.0127365
-0.0124477
-0.0121022
-0.0117
-0.0112412
-0.0107261
-0.0101552
-0.00952872
-0.00884741
-0.00811189
-0.00732293
-0.0064814
-0.00558822
-0.00464439
-0.003651
-0.00260921
-0.00152025
-0.000385458
0.000793789
0.00201604
0.00327979
0.00458349
0.00592553
0.00730425
0.00871791
0.0101648
0.0116429
0.0131506
0.0146859
0.0162468
0.0178314
0.0194377
0.0210635
0.0227069
0.0243657
0.0260377
0.0277209
0.0294129
0.0311118
0.0328151
0.0345208
0.0362265
0.0379301
0.0396292
0.0413216
0.043005
0.0446773
0.0463361
0.0479793
0.0496047
0.0512099
0.0527929
0.0543514
0.0558834
0.0573867
0.0588592
0.060299
0.0617041
0.0630725
0.0644023
0.0656917
0.0669388
0.068142
0.0692996
0.0704101
0.0714718
0.0724835
0.0734437
0.0743512
0.0752047
0.0760033
0.0767459
0.0774318
0.0780601
0.0786302
0.0791416
0.079594
0.0799869
0.0803203
0.0805943
0.0808089
0.0809645
0.0810616
0.0811007
0.0810827
0.0810085
0.0808792
0.0806962
0.0804609
0.080175
0.0798404
0.0794591
0.0790335
0.078566
0.0780593
0.0775163
0.0769401
0.0763341
0.075702
0.0750474
0.0743745
0.0736874
0.0729906
0.0722887
0.0715867
0.0708897
0.0702028
0.0695315
0.0688812
0.0682577
0.0676664
0.0671132
0.0666037
0.0661435
0.0657382
0.0653934
0.0651143
0.0649066
0.06478
0.0647386
0.00335621
0.0032038
0.00299357
0.00272157
0.00238819
0.0019989
0.00155896
0.00107333
0.000547073
-1.4648e-05
-0.000606633
-0.00122368
-0.00186062
-0.00251236
-0.00317392
-0.00384044
-0.0045072
-0.00516964
-0.00582337
-0.0064642
-0.00708817
-0.00769153
-0.0082708
-0.00882266
-0.00934402
-0.00983196
-0.0102838
-0.010697
-0.0110693
-0.0113986
-0.011683
-0.0119208
-0.0121104
-0.0122506
-0.01234
-0.0123777
-0.0123627
-0.0122941
-0.0121715
-0.0119944
-0.0117624
-0.0114753
-0.0111331
-0.0107358
-0.0102834
-0.00977628
-0.00921475
-0.00859925
-0.00793035
-0.00720868
-0.006435
-0.00561012
-0.00473492
-0.00381039
-0.00283755
-0.00181755
-0.000751594
0.000359041
0.001513
0.00270889
0.00394525
0.00522058
0.00653331
0.00788183
0.00926444
0.0106794
0.012125
0.0135993
0.0151006
0.016627
0.0181765
0.0197471
0.0213369
0.0229437
0.0245657
0.0262005
0.0278463
0.0295008
0.0311619
0.0328274
0.0344953
0.0361632
0.037829
0.0394904
0.0411454
0.0427916
0.0444269
0.0460492
0.0476562
0.0492458
0.0508158
0.0523641
0.0538886
0.0553871
0.0568577
0.0582983
0.0597069
0.0610817
0.0624208
0.0637222
0.0649841
0.066205
0.0673829
0.0685164
0.069604
0.0706441
0.0716353
0.0725764
0.0734661
0.0743033
0.0750869
0.0758161
0.0764899
0.0771077
0.0776688
0.0781728
0.0786193
0.0790079
0.0793386
0.0796115
0.0798266
0.0799843
0.080085
0.0801294
0.0801182
0.0800523
0.0799329
0.0797612
0.0795386
0.0792668
0.0789476
0.078583
0.0781751
0.0777264
0.0772395
0.076717
0.076162
0.0755777
0.0749675
0.074335
0.073684
0.0730185
0.0723426
0.0716607
0.0709775
0.0702975
0.0696256
0.0689669
0.0683263
0.0677089
0.06712
0.0665646
0.066048
0.0655752
0.0651512
0.064781
0.0644694
0.0642218
0.0640413
0.063926
0.00426136
0.00402601
0.0037539
0.00343509
0.00306265
0.00264159
0.00217689
0.00167284
0.00113388
0.000564572
-3.04218e-05
-0.000646437
-0.00127882
-0.00192296
-0.00257433
-0.00322848
-0.00388107
-0.00452788
-0.00516488
-0.00578817
-0.00639409
-0.00697916
-0.00754009
-0.00807378
-0.0085773
-0.00904789
-0.009483
-0.00988024
-0.0102375
-0.0105527
-0.0108241
-0.01105
-0.0112291
-0.0113599
-0.0114412
-0.0114722
-0.0114518
-0.0113793
-0.0112542
-0.0110761
-0.0108445
-0.0105593
-0.0102203
-0.00982773
-0.00938155
-0.00888203
-0.0083295
-0.0077244
-0.00706728
-0.00635875
-0.00559952
-0.00479038
-0.00393219
-0.00302588
-0.00207246
-0.00107305
-2.88103e-05
0.001059
0.00218908
0.00336008
0.00457057
0.00581912
0.00710418
0.00842417
0.00977747
0.0111624
0.0125772
0.0140201
0.0154893
0.016983
0.0184993
0.0200363
0.021592
0.0231645
0.0247516
0.0263515
0.027962
0.029581
0.0312066
0.0328365
0.0344686
0.0361009
0.0377311
0.0393572
0.0409768
0.0425881
0.0441886
0.0457765
0.0473495
0.0489054
0.0504423
0.051958
0.0534504
0.0549176
0.0563574
0.0577681
0.0591475
0.0604939
0.0618054
0.0630802
0.0643165
0.0655126
0.066667
0.0677779
0.068844
0.0698638
0.0708359
0.0717592
0.0726323
0.0734541
0.0742237
0.0749402
0.0756027
0.0762106
0.0767633
0.0772602
0.077701
0.0780855
0.0784135
0.0786851
0.0789005
0.0790598
0.0791637
0.0792126
0.0792073
0.0791487
0.0790379
0.078876
0.0786646
0.0784052
0.0780994
0.0777493
0.0773569
0.0769245
0.0764545
0.0759496
0.0754126
0.0748467
0.0742549
0.0736407
0.0730077
0.0723596
0.0717003
0.071034
0.0703647
0.069697
0.0690353
0.0683841
0.067748
0.0671317
0.0665399
0.0659773
0.0654486
0.0649582
0.0645105
0.06411
0.0637612
0.0634691
0.0632297
0.0630356
0.00522861
0.00490721
0.0045698
0.00420049
0.00378501
0.00332797
0.00283416
0.00230722
0.00175097
0.00116944
0.000566775
-5.28768e-05
-0.000685336
-0.00132645
-0.00197209
-0.00261821
-0.00326083
-0.00389608
-0.00452024
-0.00512974
-0.00572117
-0.00629131
-0.00683709
-0.00735559
-0.00784405
-0.00829988
-0.00872067
-0.0091042
-0.00944841
-0.00975143
-0.0100115
-0.0102272
-0.010397
-0.0105196
-0.010594
-0.0106191
-0.0105941
-0.0105184
-0.0103913
-0.0102124
-0.00998148
-0.00969825
-0.00936264
-0.00897466
-0.00853443
-0.00804218
-0.00749824
-0.00690303
-0.00625708
-0.00556098
-0.00481542
-0.00402115
-0.00317901
-0.00228989
-0.00135479
-0.00037479
0.000648965
0.00171526
0.00282283
0.00397036
0.00515648
0.00637978
0.00763876
0.00893188
0.0102576
0.0116141
0.0129999
0.0144132
0.0158522
0.0173152
0.0188002
0.0203056
0.0218292
0.0233693
0.0249237
0.0264906
0.0280679
0.0296536
0.0312457
0.0328421
0.0344407
0.0360395
0.0376363
0.039229
0.0408156
0.0423939
0.0439619
0.0455174
0.0470584
0.0485829
0.0500887
0.0515738
0.0530363
0.054474
0.0558851
0.0572676
0.0586198
0.0599396
0.0612254
0.0624752
0.0636875
0.0648606
0.0659928
0.0670827
0.0681288
0.0691296
0.070084
0.0709905
0.0718481
0.0726556
0.0734121
0.0741167
0.0747687
0.0753673
0.0759119
0.0764021
0.0768376
0.077218
0.0775434
0.0778136
0.0780289
0.0781895
0.0782959
0.0783486
0.0783483
0.078296
0.0781927
0.0780394
0.0778376
0.0775888
0.0772947
0.076957
0.0765778
0.0761592
0.0757036
0.0752135
0.0746916
0.0741408
0.0735641
0.0729648
0.0723461
0.0717115
0.0710648
0.0704098
0.0697503
0.0690904
0.0684343
0.067786
0.0671498
0.06653
0.0659307
0.0653563
0.0648108
0.0642983
0.0638227
0.0633877
0.0629977
0.0626573
0.0623556
0.0620793
0.00624668
0.00583732
0.00543221
0.00500952
0.00454775
0.00405123
0.00352457
0.00297083
0.00239326
0.0017954
0.00118088
0.000553386
-8.33378e-05
-0.000725557
-0.00136954
-0.00201161
-0.00264812
-0.00327556
-0.00389051
-0.00448969
-0.00506996
-0.00562833
-0.00616193
-0.00666803
-0.00714406
-0.00758759
-0.00799636
-0.0083683
-0.00870146
-0.00899408
-0.00924453
-0.00945134
-0.00961316
-0.0097288
-0.00979718
-0.00981737
-0.00978859
-0.00971016
-0.00958156
-0.00940238
-0.00917232
-0.00889118
-0.00855889
-0.00817544
-0.00774096
-0.00725568
-0.00671992
-0.0061341
-0.00549873
-0.00481439
-0.00408173
-0.00330148
-0.00247445
-0.00160152
-0.000683673
0.000278052
0.00128253
0.00232857
0.00341497
0.00454043
0.00570363
0.00690318
0.00813764
0.0094055
0.0107052
0.0120351
0.0133936
0.014779
0.0161897
0.0176238
0.0190795
0.0205551
0.0220486
0.0235582
0.0250819
0.0266179
0.028164
0.0297184
0.0312791
0.0328441
0.0344112
0.0359786
0.0375441
0.0391056
0.0406611
0.0422087
0.0437461
0.0452714
0.0467825
0.0482775
0.0497543
0.0512108
0.0526452
0.0540555
0.0554397
0.056796
0.0581226
0.0594177
0.0606794
0.0619061
0.0630961
0.0642476
0.0653593
0.0664296
0.067457
0.0684402
0.0693779
0.0702689
0.0711121
0.0719063
0.0726506
0.0733441
0.0739862
0.074576
0.0751132
0.0755971
0.0760274
0.076404
0.0767266
0.0769953
0.0772103
0.0773718
0.0774802
0.077536
0.07754
0.077493
0.077396
0.07725
0.0770564
0.0768167
0.0765323
0.0762051
0.075837
0.07543
0.0749863
0.0745084
0.0739988
0.0734602
0.0728955
0.0723076
0.0716998
0.0710752
0.0704374
0.0697898
0.0691361
0.0684799
0.0678252
0.0671756
0.0665351
0.0659075
0.0652966
0.0647063
0.0641401
0.0636017
0.0630944
0.0626213
0.0621868
0.0617952
0.0614285
0.0610679
0.0073053
0.00680699
0.00633253
0.0058543
0.00534366
0.00480473
0.00424205
0.00365815
0.00305575
0.00243791
0.00180781
0.00116872
0.000523967
-0.000123102
-0.000769124
-0.00141076
-0.00204472
-0.00266781
-0.00327689
-0.00386898
-0.00444118
-0.00499072
-0.00551492
-0.00601125
-0.00647732
-0.00691087
-0.0073098
-0.00767216
-0.00799613
-0.00828006
-0.00852241
-0.00872178
-0.00887692
-0.00898667
-0.00905004
-0.00906616
-0.00903427
-0.00895375
-0.0088241
-0.00864495
-0.008416
-0.00813708
-0.0078081
-0.00742908
-0.00700016
-0.00652155
-0.00599359
-0.00541667
-0.00479131
-0.00411806
-0.00339755
-0.0026305
-0.00181768
-0.000959975
-5.83288e-05
0.000886226
0.0018726
0.00289964
0.00396616
0.00507091
0.00621261
0.0073899
0.00860135
0.00984551
0.0111208
0.0124258
0.0137587
0.015118
0.0165021
0.0179091
0.0193373
0.020785
0.0222503
0.0237314
0.0252263
0.0267333
0.0282503
0.0297754
0.0313067
0.0328423
0.03438
0.035918
0.0374542
0.0389866
0.0405131
0.0420319
0.0435408
0.0450379
0.0465212
0.0479886
0.0494383
0.0508682
0.0522765
0.0536612
0.0550204
0.0563524
0.0576552
0.0589273
0.0601667
0.0613718
0.062541
0.0636726
0.0647652
0.0658172
0.0668274
0.0677943
0.0687166
0.0695932
0.0704229
0.0712047
0.0719377
0.072621
0.0732538
0.0738355
0.0743656
0.0748435
0.075269
0.0756418
0.0759618
0.0762289
0.0764433
0.0766053
0.0767152
0.0767736
0.0767811
0.0767384
0.0766467
0.0765068
0.07632
0.0760878
0.0758116
0.075493
0.075134
0.0747364
0.0743023
0.0738341
0.0733342
0.072805
0.0722493
0.0716699
0.0710697
0.0704517
0.0698193
0.0691756
0.068524
0.0678679
0.0672107
0.0665561
0.0659075
0.0652683
0.064642
0.0640321
0.0634417
0.0628739
0.0623317
0.0618177
0.0613361
0.060891
0.0604576
0.0600115
0.00839512
0.00780754
0.00726272
0.00672736
0.00616582
0.00558211
0.00498077
0.00436382
0.00373353
0.00309251
0.00244355
0.00178952
0.00113336
0.000478074
-0.00017333
-0.000817847
-0.00145251
-0.00207442
-0.00268074
-0.00326872
-0.00383571
-0.00437913
-0.00489652
-0.00538555
-0.00584398
-0.00626974
-0.00666087
-0.00701556
-0.00733211
-0.00760896
-0.00784467
-0.00803795
-0.00818759
-0.00829253
-0.00835184
-0.00836468
-0.00833037
-0.00824833
-0.00811808
-0.00793928
-0.00771166
-0.00743506
-0.0071094
-0.00673472
-0.00631115
-0.00583893
-0.00531837
-0.0047499
-0.00413398
-0.00347117
-0.00276209
-0.00200742
-0.00120795
-0.000364514
0.00052194
0.00145041
0.00241982
0.00342907
0.00447699
0.00556238
0.00668396
0.00784041
0.00903036
0.0102523
0.0115049
0.0127865
0.0140955
0.0154304
0.0167896
0.0181713
0.0195738
0.0209955
0.0224344
0.0238889
0.025357
0.0268368
0.0283266
0.0298244
0.0313283
0.0328364
0.0343468
0.0358574
0.0373663
0.0388715
0.0403711
0.041863
0.0433454
0.0448163
0.0462737
0.0477156
0.0491401
0.0505453
0.0519293
0.0532903
0.0546264
0.0559357
0.0572166
0.0584673
0.0596861
0.0608712
0.0620212
0.0631344
0.0642093
0.0652446
0.0662387
0.0671905
0.0680986
0.0689619
0.0697793
0.0705496
0.0712721
0.0719459
0.0725702
0.0731444
0.0736679
0.0741402
0.0745611
0.0749303
0.0752476
0.075513
0.0757266
0.0758888
0.0759998
0.0760601
0.0760703
0.0760312
0.0759437
0.0758088
0.0756276
0.0754014
0.0751317
0.0748201
0.0744682
0.074078
0.0736514
0.0731906
0.0726978
0.0721754
0.071626
0.0710522
0.0704566
0.0698423
0.069212
0.0685689
0.067916
0.0672565
0.0665936
0.0659304
0.0652702
0.0646161
0.0639711
0.0633383
0.0627206
0.0621206
0.0615408
0.0609834
0.0604525
0.0599523
0.059451
0.0589189
0.00950761
0.00883096
0.00821525
0.00762165
0.00700767
0.00637728
0.00573507
0.00508264
0.00442181
0.00375484
0.00308413
0.00241219
0.00174163
0.0010751
0.000415292
-0.000235118
-0.000873461
-0.00149711
-0.00210351
-0.00269012
-0.00325453
-0.00379436
-0.00430736
-0.00479136
-0.00524434
-0.00566436
-0.00604961
-0.00639842
-0.0067092
-0.0069805
-0.00721098
-0.00739941
-0.0075447
-0.00764585
-0.00770198
-0.00771233
-0.00767625
-0.00759321
-0.00746279
-0.00728465
-0.00705856
-0.00678436
-0.00646203
-0.00609158
-0.00567318
-0.00520705
-0.00469354
-0.00413303
-0.00352601
-0.00287301
-0.00217464
-0.00143157
-0.000644581
0.000185502
0.00105776
0.0019712
0.00292478
0.00391743
0.004948
0.00601532
0.00711814
0.00825517
0.00942505
0.0106264
0.0118577
0.0131175
0.0144043
0.0157165
0.0170524
0.0184106
0.0197892
0.0211866
0.022601
0.0240307
0.0254737
0.0269284
0.0283929
0.0298653
0.0313438
0.0328264
0.0343113
0.0357964
0.03728
0.03876
0.0402346
0.0417017
0.0431595
0.0446061
0.0460395
0.0474578
0.048859
0.0502414
0.051603
0.0529421
0.0542567
0.0555453
0.0568059
0.0580369
0.0592367
0.0604035
0.0615357
0.062632
0.0636907
0.0647105
0.06569
0.0666279
0.0675229
0.068374
0.06918
0.0699398
0.0706527
0.0713177
0.0719341
0.0725013
0.0730187
0.0734859
0.0739024
0.0742681
0.0745828
0.0748465
0.0750592
0.0752212
0.0753328
0.0753945
0.0754068
0.0753704
0.0752862
0.0751551
0.0749782
0.0747568
0.0744922
0.0741859
0.0738394
0.0734547
0.0730335
0.0725779
0.07209
0.071572
0.0710263
0.0704554
0.0698617
0.0692481
0.0686171
0.0679716
0.0673144
0.0666484
0.0659765
0.0653016
0.0646267
0.0639546
0.063288
0.0626295
0.0619818
0.0613471
0.0607274
0.0601246
0.0595429
0.0589862
0.0584165
0.0577985
0.010635
0.00986986
0.00918313
0.00853056
0.007863
0.00718443
0.00649955
0.0058096
0.005116
0.00442067
0.00372568
0.00303323
0.0023456
0.00166511
0.000994155
0.000335119
-0.000309613
-0.000937675
-0.00154673
-0.0021345
-0.00269875
-0.00323732
-0.00374816
-0.00422929
-0.00467884
-0.00509503
-0.00547621
-0.00582081
-0.00612737
-0.00639455
-0.0066211
-0.0068059
-0.00694791
-0.00704621
-0.00710001
-0.00710858
-0.00707135
-0.00698783
-0.00685762
-0.00668042
-0.00645605
-0.00618436
-0.00586532
-0.00549901
-0.00508558
-0.00462527
-0.00411841
-0.00356542
-0.00296675
-0.00232293
-0.00163458
-0.000902349
-0.000127001
0.000690638
0.00154966
0.00244912
0.00338798
0.00436519
0.00537964
0.00643017
0.00751556
0.00863454
0.00978579
0.0109679
0.0121795
0.0134191
0.0146852
0.0159763
0.0172908
0.0186271
0.0199835
0.0213584
0.0227501
0.0241567
0.0255766
0.027008
0.028449
0.0298979
0.0313528
0.0328119
0.0342732
0.0357349
0.037195
0.0386518
0.0401032
0.0415475
0.0429826
0.0444068
0.045818
0.0472145
0.0485944
0.0499557
0.0512968
0.0526157
0.0539107
0.0551801
0.0564222
0.0576352
0.0588175
0.0599675
0.0610836
0.0621643
0.0632082
0.0642139
0.06518
0.0661052
0.0669883
0.0678282
0.0686238
0.0693741
0.0700781
0.0707351
0.0713444
0.0719052
0.072417
0.0728793
0.0732918
0.0736542
0.0739664
0.0742282
0.0744399
0.0746015
0.0747133
0.0747758
0.0747896
0.0747551
0.0746734
0.0745451
0.0743715
0.0741535
0.0738926
0.07359
0.0732474
0.0728664
0.0724487
0.0719962
0.0715111
0.0709952
0.0704509
0.0698804
0.0692861
0.0686705
0.068036
0.0673853
0.066721
0.0660457
0.0653621
0.0646728
0.0639804
0.0632875
0.0625966
0.06191
0.0612299
0.0605583
0.059897
0.0592471
0.0586134
0.0579996
0.0573611
0.0566576
0.0117702
0.0109175
0.0101599
0.00944792
0.00872597
0.00799807
0.00726908
0.0065399
0.00581163
0.00508588
0.00436444
0.00364918
0.0029421
0.00224522
0.00156066
0.000890518
0.000236941
-0.000397945
-0.00101203
-0.00160324
-0.00216956
-0.00270904
-0.00321979
-0.00370003
-0.00414804
-0.0045622
-0.00494097
-0.00528293
-0.00558672
-0.00585112
-0.00607498
-0.00625725
-0.00639698
-0.00649335
-0.0065456
-0.00655308
-0.00651527
-0.00643173
-0.00630209
-0.00612611
-0.00590361
-0.00563449
-0.00531875
-0.00495646
-0.00454779
-0.00409301
-0.00359244
-0.0030465
-0.00245565
-0.00182041
-0.00114138
-0.000419225
0.000345302
0.00115139
0.00199815
0.00288464
0.00380986
0.00477279
0.00577231
0.0068073
0.00787656