/*--------------------------------*- C++ -*----------------------------------*\
  =========                 |
  \\      /  F ield         | OpenFOAM: The Open Source CFD Toolbox
   \\    /   O peration     | Website:  https://openfoam.org
    \\  /    A nd           | Version:  7
     \\/     M anipulation  |
\*---------------------------------------------------------------------------*/
FoamFile
{
    version     2.0;
    format      ascii;
    class       surfaceScalarField;
    location    "0.375";
    object      phi;
}
// * * * * * * * * * * * * * * * * * * * * * * * * * * * * * * * * * * * * * //

dimensions      [0 3 -1 0 0 0 0];

internalField   nonuniform List<scalar> 
50880
(
5.94929e-12
-6.2778e-12
3.61921e-11
-3.02411e-11
8.1098e-11
-4.4906e-11
1.30742e-10
-4.96337e-11
1.7799e-10
-4.72377e-11
2.17862e-10
-3.98743e-11
2.46931e-10
-2.90806e-11
2.62891e-10
-1.59665e-11
2.64216e-10
-1.32432e-12
2.4994e-10
1.42821e-11
2.19499e-10
3.04464e-11
1.72628e-10
4.68712e-11
1.09293e-10
6.33336e-11
2.96273e-11
7.96633e-11
-6.61034e-11
9.57293e-11
-1.77535e-10
1.11431e-10
-3.04226e-10
1.2669e-10
-4.45674e-10
1.41447e-10
-6.01328e-10
1.55655e-10
-7.70602e-10
1.69275e-10
-9.52882e-10
1.82282e-10
-1.14753e-09
1.94651e-10
-1.3539e-09
2.06369e-10
-1.57133e-09
2.17424e-10
-1.79914e-09
2.27808e-10
-2.03666e-09
2.37518e-10
-2.28321e-09
2.46553e-10
-2.53812e-09
2.54914e-10
-2.80072e-09
2.62603e-10
-3.07034e-09
2.69623e-10
-3.34632e-09
2.7598e-10
-3.628e-09
2.81679e-10
-3.91473e-09
2.86729e-10
-4.20587e-09
2.91139e-10
-4.50079e-09
2.94918e-10
-4.79886e-09
2.98075e-10
-5.09948e-09
3.00621e-10
-5.40205e-09
3.02566e-10
-5.70597e-09
3.03921e-10
-6.01066e-09
3.04697e-10
-6.31557e-09
3.04905e-10
-6.62013e-09
3.04559e-10
-6.9238e-09
3.03669e-10
-7.22605e-09
3.02249e-10
-7.52636e-09
3.00311e-10
-7.82422e-09
2.97868e-10
-8.11915e-09
2.94931e-10
-8.41066e-09
2.91514e-10
-8.69829e-09
2.87629e-10
-8.98158e-09
2.8329e-10
-9.26009e-09
2.78509e-10
-9.53339e-09
2.73299e-10
-9.80106e-09
2.67674e-10
-1.00627e-08
2.61647e-10
-1.03179e-08
2.5523e-10
-1.05664e-08
2.48437e-10
-1.08077e-08
2.41281e-10
-1.10414e-08
2.33775e-10
-1.12674e-08
2.25932e-10
-1.14851e-08
2.17765e-10
-1.16944e-08
2.09289e-10
-1.18949e-08
2.00516e-10
-1.20864e-08
1.91461e-10
-1.22685e-08
1.82135e-10
-1.24411e-08
1.72553e-10
-1.26038e-08
1.62729e-10
-1.27565e-08
1.52675e-10
-1.28989e-08
1.42406e-10
-1.30308e-08
1.31936e-10
-1.31521e-08
1.21278e-10
-1.32625e-08
1.10447e-10
-1.3362e-08
9.94563e-11
-1.34503e-08
8.83204e-11
-1.35274e-08
7.70537e-11
-1.3593e-08
6.56705e-11
-1.36472e-08
5.41856e-11
-1.36898e-08
4.26136e-11
-1.37208e-08
3.09693e-11
-1.37401e-08
1.92677e-11
-1.37476e-08
7.52388e-12
-1.37434e-08
-4.24677e-12
-1.37273e-08
-1.60289e-11
-1.36995e-08
-2.78069e-11
-1.366e-08
-3.95654e-11
-1.36087e-08
-5.12884e-11
-1.35457e-08
-6.29601e-11
-1.34711e-08
-7.45644e-11
-1.33851e-08
-8.60848e-11
-1.32875e-08
-9.7505e-11
-1.31787e-08
-1.08809e-10
-1.30588e-08
-1.1998e-10
-1.29278e-08
-1.31001e-10
-1.27859e-08
-1.41855e-10
-1.26334e-08
-1.52526e-10
-1.24704e-08
-1.62997e-10
-1.22971e-08
-1.7325e-10
-1.21139e-08
-1.83269e-10
-1.19208e-08
-1.93036e-10
-1.17183e-08
-2.02535e-10
-1.15065e-08
-2.11748e-10
-1.12859e-08
-2.20659e-10
-1.10566e-08
-2.29249e-10
-1.08191e-08
-2.37503e-10
-1.05737e-08
-2.45403e-10
-1.03208e-08
-2.52933e-10
-1.00607e-08
-2.60076e-10
-9.79391e-09
-2.66816e-10
-9.52077e-09
-2.73135e-10
-9.24175e-09
-2.79018e-10
-8.95731e-09
-2.84448e-10
-8.6679e-09
-2.89411e-10
-8.37401e-09
-2.9389e-10
-8.07614e-09
-2.97871e-10
-7.7748e-09
-3.01339e-10
-7.47052e-09
-3.0428e-10
-7.16384e-09
-3.06679e-10
-6.85532e-09
-3.08523e-10
-6.54552e-09
-3.098e-10
-6.23502e-09
-3.10495e-10
-5.92442e-09
-3.10598e-10
-5.61433e-09
-3.10096e-10
-5.30535e-09
-3.0898e-10
-4.99811e-09
-3.0724e-10
-4.69324e-09
-3.04865e-10
-4.39139e-09
-3.01847e-10
-4.09322e-09
-2.98179e-10
-3.79936e-09
-2.93852e-10
-3.5105e-09
-2.88862e-10
-3.2273e-09
-2.83203e-10
-2.95043e-09
-2.76873e-10
-2.68056e-09
-2.69867e-10
-2.41837e-09
-2.62185e-10
-2.16455e-09
-2.53829e-10
-1.91975e-09
-2.44798e-10
-1.68465e-09
-2.35098e-10
-1.45991e-09
-2.24735e-10
-1.24619e-09
-2.13716e-10
-1.04414e-09
-2.02054e-10
-8.54371e-10
-1.89765e-10
-6.77504e-10
-1.76866e-10
-5.14123e-10
-1.63381e-10
-3.64784e-10
-1.4934e-10
-2.30007e-10
-1.34777e-10
-1.10267e-10
-1.19739e-10
-5.98596e-12
-1.04281e-10
8.24847e-11
-8.84702e-11
1.54879e-10
-7.23938e-11
2.11039e-10
-5.616e-11
2.50947e-10
-3.99069e-11
2.7476e-10
-2.38117e-11
2.82864e-10
-8.10361e-12
2.75949e-10
6.91464e-12
2.55115e-10
2.08357e-11
2.22016e-10
3.31004e-11
1.79088e-10
4.29286e-11
1.29855e-10
4.92313e-11
7.93348e-11
5.05189e-11
3.45998e-11
4.47427e-11
5.31188e-12
2.93105e-11
5.33507e-12
3.00597e-11
-3.63356e-11
1.01204e-10
-1.01371e-10
1.95458e-10
-1.39166e-10
2.9577e-10
-1.4996e-10
3.87793e-10
-1.39265e-10
4.60289e-10
-1.12367e-10
5.04794e-10
-7.35849e-11
5.15123e-10
-2.62982e-11
4.86886e-10
2.69109e-11
4.17084e-10
8.40875e-11
3.03792e-10
1.43744e-10
1.45921e-10
2.04744e-10
-5.69628e-11
2.66215e-10
-3.0478e-10
3.27477e-10
-5.97052e-10
3.87998e-10
-9.3298e-10
4.47358e-10
-1.31152e-09
5.05226e-10
-1.73141e-09
5.61342e-10
-2.19125e-09
6.15497e-10
-2.6895e-09
6.6753e-10
-3.22453e-09
7.17311e-10
-3.79462e-09
7.64741e-10
-4.398e-09
8.09744e-10
-5.03284e-09
8.52263e-10
-5.69729e-09
8.9226e-10
-6.38948e-09
9.29707e-10
-7.10751e-09
9.64589e-10
-7.84949e-09
9.969e-10
-8.61353e-09
1.02664e-09
-9.39772e-09
1.05382e-09
-1.02002e-08
1.07846e-09
-1.10191e-08
1.10057e-09
-1.18525e-08
1.12017e-09
-1.26987e-08
1.13731e-09
-1.35558e-08
1.152e-09
-1.4422e-08
1.16429e-09
-1.52956e-08
1.17421e-09
-1.61748e-08
1.18179e-09
-1.7058e-08
1.18708e-09
-1.79434e-08
1.19013e-09
-1.88295e-08
1.19096e-09
-1.97145e-08
1.18963e-09
-2.05971e-08
1.18619e-09
-2.14755e-08
1.18068e-09
-2.23483e-08
1.17314e-09
-2.32141e-08
1.16363e-09
-2.40713e-08
1.15219e-09
-2.49187e-08
1.13888e-09
-2.57548e-08
1.12374e-09
-2.65783e-08
1.10682e-09
-2.7388e-08
1.08817e-09
-2.81825e-08
1.06784e-09
-2.89607e-08
1.04589e-09
-2.97215e-08
1.02236e-09
-3.04635e-08
9.97302e-10
-3.11859e-08
9.70772e-10
-3.18874e-08
9.42819e-10
-3.25671e-08
9.13494e-10
-3.3224e-08
8.8285e-10
-3.38572e-08
8.50939e-10
-3.44657e-08
8.17813e-10
-3.50487e-08
7.83524e-10
-3.56054e-08
7.48125e-10
-3.61349e-08
7.11668e-10
-3.66366e-08
6.74207e-10
-3.71096e-08
6.35796e-10
-3.75535e-08
5.96487e-10
-3.79674e-08
5.56335e-10
-3.83508e-08
5.15395e-10
-3.87033e-08
4.73721e-10
-3.90242e-08
4.31368e-10
-3.93131e-08
3.88392e-10
-3.95697e-08
3.44849e-10
-3.97934e-08
3.00794e-10
-3.9984e-08
2.56286e-10
-4.01412e-08
2.11381e-10
-4.02647e-08
1.66137e-10
-4.03544e-08
1.20612e-10
-4.041e-08
7.48663e-11
-4.04314e-08
2.8958e-11
-4.04186e-08
-1.70526e-11
-4.03715e-08
-6.31052e-11
-4.02902e-08
-1.09139e-10
-4.01747e-08
-1.55092e-10
-4.00251e-08
-2.00902e-10
-3.98415e-08
-2.46508e-10
-3.96242e-08
-2.91845e-10
-3.93735e-08
-3.36851e-10
-3.90895e-08
-3.81461e-10
-3.87727e-08
-4.25611e-10
-3.84235e-08
-4.69236e-10
-3.80422e-08
-5.12271e-10
-3.76294e-08
-5.54651e-10
-3.71856e-08
-5.96308e-10
-3.67114e-08
-6.37178e-10
-3.62075e-08
-6.77194e-10
-3.56745e-08
-7.16289e-10
-3.51131e-08
-7.54397e-10
-3.45242e-08
-7.91452e-10
-3.39085e-08
-8.27387e-10
-3.32671e-08
-8.62135e-10
-3.26007e-08
-8.95631e-10
-3.19104e-08
-9.27808e-10
-3.11972e-08
-9.586e-10
-3.04622e-08
-9.87943e-10
-2.97065e-08
-1.01577e-09
-2.89313e-08
-1.04202e-09
-2.81378e-08
-1.06663e-09
-2.73272e-08
-1.08954e-09
-2.6501e-08
-1.11068e-09
-2.56604e-08
-1.12999e-09
-2.48069e-08
-1.14742e-09
-2.39419e-08
-1.1629e-09
-2.30668e-08
-1.17638e-09
-2.21833e-08
-1.18781e-09
-2.12929e-08
-1.19713e-09
-2.03971e-08
-1.20429e-09
-1.94976e-08
-1.20925e-09
-1.85962e-08
-1.21194e-09
-1.76945e-08
-1.21233e-09
-1.67942e-08
-1.21038e-09
-1.58971e-08
-1.20604e-09
-1.50051e-08
-1.19928e-09
-1.41199e-08
-1.19006e-09
-1.32434e-08
-1.17835e-09
-1.23774e-08
-1.16413e-09
-1.15239e-08
-1.14737e-09
-1.06847e-08
-1.12804e-09
-9.86178e-09
-1.10614e-09
-9.057e-09
-1.08166e-09
-8.27228e-09
-1.05458e-09
-7.50956e-09
-1.02491e-09
-6.77072e-09
-9.92659e-10
-6.05768e-09
-9.57836e-10
-5.37231e-09
-9.20465e-10
-4.71647e-09
-8.80578e-10
-4.09196e-09
-8.38217e-10
-3.50058e-09
-7.93437e-10
-2.94404e-09
-7.46305e-10
-2.424e-09
-6.96908e-10
-1.94203e-09
-6.4535e-10
-1.49961e-09
-5.91759e-10
-1.09809e-09
-5.36294e-10
-7.38684e-10
-4.79147e-10
-4.22407e-10
-4.20555e-10
-1.50066e-10
-3.60808e-10
7.78052e-11
-3.00264e-10
2.61013e-10
-2.39368e-10
3.9978e-10
-1.78675e-10
4.94855e-10
-1.18886e-10
5.47645e-10
-6.08913e-11
5.60394e-10
-5.83199e-12
5.36419e-10
4.4813e-11
4.8041e-10
8.91128e-11
3.98807e-10
1.24536e-10
3.00242e-10
1.47798e-10
1.95978e-10
1.54771e-10
1.00156e-10
1.40528e-10
2.92477e-11
1.00173e-10
3.45983e-11
4.48376e-11
-8.11734e-11
1.39139e-10
-1.95649e-10
2.56385e-10
-2.56404e-10
3.74949e-10
-2.68535e-10
4.76563e-10
-2.40899e-10
5.46364e-10
-1.82176e-10
5.72642e-10
-9.9862e-11
5.4644e-10
-9.1663e-14
4.61123e-10
1.12231e-10
3.11948e-10
2.33263e-10
9.5721e-11
3.5997e-10
-1.89509e-10
4.89973e-10
-5.44693e-10
6.21396e-10
-9.6997e-10
7.52752e-10
-1.46483e-09
8.82859e-10
-2.02825e-09
1.01077e-09
-2.65876e-09
1.13574e-09
-3.35456e-09
1.25715e-09
-4.11358e-09
1.37452e-09
-4.93351e-09
1.48746e-09
-5.81187e-09
1.59567e-09
-6.74603e-09
1.6989e-09
-7.73325e-09
1.79696e-09
-8.7707e-09
1.88971e-09
-9.85549e-09
1.97704e-09
-1.09847e-08
2.05888e-09
-1.21552e-08
2.13518e-09
-1.33642e-08
2.2059e-09
-1.46086e-08
2.27105e-09
-1.58854e-08
2.33062e-09
-1.71916e-08
2.38465e-09
-1.85242e-08
2.43317e-09
-1.98803e-08
2.47622e-09
-2.12568e-08
2.51386e-09
-2.2651e-08
2.54615e-09
-2.40599e-08
2.57316e-09
-2.54806e-08
2.59497e-09
-2.69105e-08
2.61165e-09
-2.83467e-08
2.6233e-09
-2.97866e-08
2.62999e-09
-3.12274e-08
2.63182e-09
-3.26667e-08
2.62889e-09
-3.41018e-08
2.62129e-09
-3.55302e-08
2.60913e-09
-3.69496e-08
2.59251e-09
-3.83575e-08
2.57152e-09
-3.97516e-08
2.54628e-09
-4.11296e-08
2.51689e-09
-4.24893e-08
2.48346e-09
-4.38286e-08
2.4461e-09
-4.51453e-08
2.40492e-09
-4.64375e-08
2.36003e-09
-4.77032e-08
2.31153e-09
-4.89403e-08
2.25955e-09
-5.01472e-08
2.20419e-09
-5.1322e-08
2.14556e-09
-5.2463e-08
2.08379e-09
-5.35685e-08
2.01898e-09
-5.46369e-08
1.95125e-09
-5.56666e-08
1.88071e-09
-5.66563e-08
1.80748e-09
-5.76045e-08
1.73168e-09
-5.85097e-08
1.65342e-09
-5.93709e-08
1.57281e-09
-6.01867e-08
1.48999e-09
-6.09559e-08
1.40505e-09
-6.16776e-08
1.31814e-09
-6.23506e-08
1.22935e-09
-6.2974e-08
1.13883e-09
-6.3547e-08
1.04667e-09
-6.40686e-08
9.53022e-10
-6.45382e-08
8.57992e-10
-6.49551e-08
7.61709e-10
-6.53186e-08
6.64297e-10
-6.56282e-08
5.65883e-10
-6.58834e-08
4.66595e-10
-6.60838e-08
3.6656e-10
-6.62291e-08
2.65909e-10
-6.6319e-08
1.64771e-10
-6.63533e-08
6.32793e-11
-6.6332e-08
-3.84344e-11
-6.62548e-08
-1.40236e-10
-6.6122e-08
-2.4199e-10
-6.59335e-08
-3.4356e-10
-6.56896e-08
-4.44808e-10
-6.53905e-08
-5.45597e-10
-6.50366e-08
-6.45786e-10
-6.46282e-08
-7.45235e-10
-6.41658e-08
-8.43803e-10
-6.36501e-08
-9.41346e-10
-6.30816e-08
-1.03772e-09
-6.24611e-08
-1.13279e-09
-6.17894e-08
-1.22639e-09
-6.10673e-08
-1.3184e-09
-6.02958e-08
-1.40866e-09
-5.9476e-08
-1.49702e-09
-5.86089e-08
-1.58334e-09
-5.76958e-08
-1.66747e-09
-5.6738e-08
-1.74927e-09
-5.57368e-08
-1.82859e-09
-5.46937e-08
-1.90528e-09
-5.36101e-08
-1.9792e-09
-5.24877e-08
-2.0502e-09
-5.13282e-08
-2.11814e-09
-5.01332e-08
-2.18287e-09
-4.89048e-08
-2.24425e-09
-4.76446e-08
-2.30215e-09
-4.63549e-08
-2.35642e-09
-4.50375e-08
-2.40692e-09
-4.36946e-08
-2.45353e-09
-4.23285e-08
-2.49611e-09
-4.09414e-08
-2.53452e-09
-3.95356e-08
-2.56865e-09
-3.81137e-08
-2.59837e-09
-3.66779e-08
-2.62356e-09
-3.52309e-08
-2.6441e-09
-3.37754e-08
-2.65989e-09
-3.23138e-08
-2.67081e-09
-3.0849e-08
-2.67677e-09
-2.93836e-08
-2.67766e-09
-2.79206e-08
-2.67339e-09
-2.64628e-08
-2.66389e-09
-2.5013e-08
-2.64906e-09
-2.35742e-08
-2.62885e-09
-2.21494e-08
-2.60317e-09
-2.07415e-08
-2.57198e-09
-1.93537e-08
-2.53523e-09
-1.79888e-08
-2.49288e-09
-1.66501e-08
-2.4449e-09
-1.53405e-08
-2.39127e-09
-1.4063e-08
-2.332e-09
-1.28209e-08
-2.26708e-09
-1.1617e-08
-2.19655e-09
-1.04544e-08
-2.12044e-09
-9.33602e-09
-2.03882e-09
-8.26484e-09
-1.95176e-09
-7.24368e-09
-1.85937e-09
-6.27533e-09
-1.76179e-09
-5.36244e-09
-1.65919e-09
-4.50759e-09
-1.55176e-09
-3.71317e-09
-1.43977e-09
-2.98141e-09
-1.32351e-09
-2.31434e-09
-1.20336e-09
-1.71372e-09
-1.07977e-09
-1.181e-09
-9.53274e-10
-7.17259e-10
-8.24544e-10
-3.23133e-10
-6.9439e-10
1.30359e-12
-5.63805e-10
2.56644e-10
-4.34016e-10
4.44303e-10
-3.06544e-10
5.66703e-10
-1.83289e-10
6.27507e-10
-6.66338e-11
6.319e-10
4.04202e-11
5.86927e-10
1.34084e-10
5.01877e-10
2.09589e-10
3.88676e-10
2.61014e-10
2.62234e-10
2.8124e-10
1.4058e-10
2.62201e-10
4.47012e-11
1.96028e-10
7.93032e-11
4.96964e-11
-1.30876e-10
1.50283e-10
-2.96235e-10
2.69148e-10
-3.7526e-10
3.81091e-10
-3.80481e-10
4.65311e-10
-3.25134e-10
5.04752e-10
-2.2163e-10
4.85697e-10
-8.08103e-11
3.97372e-10
8.82379e-11
2.31541e-10
2.78068e-10
-1.78528e-11
4.82658e-10
-3.55039e-10
6.97154e-10
-7.82726e-10
9.17657e-10
-1.30236e-09
1.14103e-09
-1.91437e-09
1.36475e-09
-2.61828e-09
1.58677e-09
-3.41296e-09
1.80545e-09
-4.29667e-09
2.01945e-09
-5.26719e-09
2.22768e-09
-6.32194e-09
2.42926e-09
-7.45797e-09
2.6235e-09
-8.6721e-09
2.80981e-09
-9.96094e-09
2.98774e-09
-1.13209e-08
3.15693e-09
-1.27483e-08
3.3171e-09
-1.42393e-08
3.46804e-09
-1.579e-08
3.6096e-09
-1.73965e-08
3.74166e-09
-1.90547e-08
3.86415e-09
-2.07607e-08
3.97705e-09
-2.25105e-08
4.08035e-09
-2.42999e-08
4.17408e-09
-2.6125e-08
4.25828e-09
-2.79818e-08
4.33303e-09
-2.98664e-08
4.3984e-09
-3.17747e-08
4.45449e-09
-3.3703e-08
4.50142e-09
-3.56473e-08
4.53931e-09
-3.76039e-08
4.56828e-09
-3.95691e-08
4.58848e-09
-4.15392e-08
4.60007e-09
-4.35105e-08
4.60319e-09
-4.54797e-08
4.598e-09
-4.7443e-08
4.58468e-09
-4.93973e-08
4.56339e-09
-5.13391e-08
4.5343e-09
-5.32652e-08
4.49761e-09
-5.51724e-08
4.45347e-09
-5.70576e-08
4.40209e-09
-5.89177e-08
4.34365e-09
-6.075e-08
4.27832e-09
-6.25514e-08
4.20632e-09
-6.43191e-08
4.12782e-09
-6.60506e-08
4.04301e-09
-6.77432e-08
3.9521e-09
-6.93943e-08
3.85528e-09
-7.10015e-08
3.75275e-09
-7.25624e-08
3.6447e-09
-7.40747e-08
3.53133e-09
-7.55363e-08
3.41285e-09
-7.69451e-08
3.28945e-09
-7.82989e-08
3.16134e-09
-7.95959e-08
3.02871e-09
-8.08343e-08
2.89179e-09
-8.20123e-08
2.75076e-09
-8.31281e-08
2.60584e-09
-8.41803e-08
2.45723e-09
-8.51673e-08
2.30514e-09
-8.60877e-08
2.14979e-09
-8.69403e-08
1.99139e-09
-8.77238e-08
1.83015e-09
-8.8437e-08
1.66628e-09
-8.9079e-08
1.49999e-09
-8.96488e-08
1.33152e-09
-9.01456e-08
1.16108e-09
-9.05686e-08
9.88887e-10
-9.09172e-08
8.15168e-10
-9.11908e-08
6.40149e-10
-9.13889e-08
4.64055e-10
-9.15113e-08
2.87117e-10
-9.15576e-08
1.09565e-10
-9.15276e-08
-6.83667e-11
-9.14214e-08
-2.46444e-10
-9.1239e-08
-4.2443e-10
-9.09804e-08
-6.02086e-10
-9.06461e-08
-7.7917e-10
-9.02362e-08
-9.55439e-10
-8.97514e-08
-1.13065e-09
-8.9192e-08
-1.30456e-09
-8.85589e-08
-1.47691e-09
-8.78528e-08
-1.64746e-09
-8.70746e-08
-1.81596e-09
-8.62252e-08
-1.98215e-09
-8.53058e-08
-2.14579e-09
-8.43176e-08
-2.30661e-09
-8.32619e-08
-2.46437e-09
-8.21401e-08
-2.6188e-09
-8.09538e-08
-2.76965e-09
-7.97046e-08
-2.91667e-09
-7.83943e-08
-3.0596e-09
-7.70247e-08
-3.19818e-09
-7.55978e-08
-3.33216e-09
-7.41158e-08
-3.46128e-09
-7.25807e-08
-3.5853e-09
-7.09948e-08
-3.70395e-09
-6.93607e-08
-3.817e-09
-6.76808e-08
-3.9242e-09
-6.59576e-08
-4.02529e-09
-6.4194e-08
-4.12005e-09
-6.23927e-08
-4.20823e-09
-6.05566e-08
-4.2896e-09
-5.86888e-08
-4.36393e-09
-5.67923e-08
-4.431e-09
-5.48703e-08
-4.49059e-09
-5.29262e-08
-4.54249e-09
-5.09633e-08
-4.58648e-09
-4.8985e-08
-4.62237e-09
-4.69949e-08
-4.64998e-09
-4.49967e-08
-4.6691e-09
-4.29938e-08
-4.67958e-09
-4.09903e-08
-4.68124e-09
-3.89897e-08
-4.67393e-09
-3.69961e-08
-4.65751e-09
-3.50133e-08
-4.63184e-09
-3.30454e-08
-4.5968e-09
-3.10962e-08
-4.55229e-09
-2.917e-08
-4.49821e-09
-2.72708e-08
-4.43449e-09
-2.54026e-08
-4.36107e-09
-2.35695e-08
-4.27791e-09
-2.17758e-08
-4.18499e-09
-2.00255e-08
-4.08232e-09
-1.83227e-08
-3.96992e-09
-1.66714e-08
-3.84784e-09
-1.50756e-08
-3.71618e-09
-1.35394e-08
-3.57506e-09
-1.20665e-08
-3.42463e-09
-1.06608e-08
-3.2651e-09
-9.32585e-09
-3.09673e-09
-8.06521e-09
-2.91983e-09
-6.88219e-09
-2.73478e-09
-5.7799e-09
-2.54206e-09
-4.76121e-09
-2.34221e-09
-3.82865e-09
-2.13592e-09
-2.98443e-09
-1.92399e-09
-2.2303e-09
-1.7074e-09
-1.56752e-09
-1.48733e-09
-9.96706e-10
-1.2652e-09
-5.17765e-10
-1.04275e-09
-1.29711e-10
-8.22072e-10
1.69491e-10
-6.05747e-10
3.83141e-10
-3.96936e-10
5.16047e-10
-1.99534e-10
5.74811e-10
-1.8339e-11
5.68152e-10
1.40742e-10
5.07243e-10
2.70485e-10
4.06079e-10
3.62165e-10
2.81814e-10
4.05507e-10
1.55085e-10
3.88951e-10
5.05587e-11
3.00549e-10
1.29862e-10
4.74961e-11
-1.78372e-10
1.40208e-10
-3.88965e-10
2.42685e-10
-4.77743e-10
3.27535e-10
-4.65334e-10
3.72391e-10
-3.69995e-10
3.58897e-10
-2.08143e-10
2.72144e-10
5.93891e-12
1.0023e-10
2.60152e-10
-1.66112e-10
5.44414e-10
-5.33855e-10
8.50402e-10
-1.00799e-09
1.17129e-09
-1.59182e-09
1.50148e-09
-2.2872e-09
1.83641e-09
-3.0948e-09
2.17235e-09
-4.01425e-09
2.50622e-09
-5.04434e-09
2.83554e-09
-6.18314e-09
3.15825e-09
-7.42812e-09
3.47266e-09
-8.77627e-09
3.77741e-09
-1.02241e-08
4.07137e-09
-1.1768e-08
4.35363e-09
-1.34037e-08
4.62345e-09
-1.5127e-08
4.88024e-09
-1.69334e-08
5.12354e-09
-1.88184e-08
5.35299e-09
-2.07771e-08
5.56831e-09
-2.28047e-08
5.76931e-09
-2.48964e-08
5.95586e-09
-2.70473e-08
6.12788e-09
-2.92523e-08
6.28534e-09
-3.15065e-08
6.42828e-09
-3.38049e-08
6.55672e-09
-3.61426e-08
6.67077e-09
-3.85148e-08
6.77053e-09
-4.09164e-08
6.85614e-09
-4.33427e-08
6.92776e-09
-4.5789e-08
6.98556e-09
-4.82504e-08
7.02973e-09
-5.07224e-08
7.06048e-09
-5.32004e-08
7.07803e-09
-5.56798e-08
7.08261e-09
-5.81563e-08
7.07446e-09
-6.06254e-08
7.05383e-09
-6.3083e-08
7.02097e-09
-6.55248e-08
6.97615e-09
-6.79469e-08
6.91964e-09
-7.03451e-08
6.8517e-09
-7.27156e-08
6.77263e-09
-7.50547e-08
6.68269e-09
-7.73586e-08
6.58219e-09
-7.96236e-08
6.4714e-09
-8.18464e-08
6.35062e-09
-8.40236e-08
6.22014e-09
-8.61517e-08
6.08027e-09
-8.82277e-08
5.9313e-09
-9.02485e-08
5.77353e-09
-9.22111e-08
5.60727e-09
-9.41126e-08
5.43283e-09
-9.59503e-08
5.25051e-09
-9.77214e-08
5.06061e-09
-9.94235e-08
4.86346e-09
-1.01054e-07
4.65937e-09
-1.02611e-07
4.44864e-09
-1.04092e-07
4.2316e-09
-1.05495e-07
4.00857e-09
-1.06817e-07
3.77986e-09
-1.08058e-07
3.54579e-09
-1.09215e-07
3.30671e-09
-1.10286e-07
3.06292e-09
-1.11271e-07
2.81476e-09
-1.12167e-07
2.56256e-09
-1.12974e-07
2.30665e-09
-1.1369e-07
2.04738e-09
-1.14314e-07
1.78507e-09
-1.14845e-07
1.52008e-09
-1.15282e-07
1.25275e-09
-1.15626e-07
9.83421e-10
-1.15874e-07
7.12449e-10
-1.16027e-07
4.40186e-10
-1.16085e-07
1.66988e-10
-1.16046e-07
-1.06784e-10
-1.15912e-07
-3.8077e-10
-1.15682e-07
-6.54602e-10
-1.15356e-07
-9.27914e-10
-1.14935e-07
-1.20033e-09
-1.14419e-07
-1.47149e-09
-1.13808e-07
-1.741e-09
-1.13104e-07
-2.00849e-09
-1.12308e-07
-2.27357e-09
-1.11419e-07
-2.53587e-09
-1.1044e-07
-2.795e-09
-1.09372e-07
-3.05057e-09
-1.08215e-07
-3.30219e-09
-1.06973e-07
-3.54946e-09
-1.05645e-07
-3.79201e-09
-1.04234e-07
-4.02943e-09
-1.02743e-07
-4.26133e-09
-1.01172e-07
-4.48732e-09
-9.95246e-08
-4.70702e-09
-9.78028e-08
-4.92001e-09
-9.6009e-08
-5.12592e-09
-9.41459e-08
-5.32436e-09
-9.22163e-08
-5.51494e-09
-9.0223e-08
-5.69727e-09
-8.8169e-08
-5.87097e-09
-8.60575e-08
-6.03568e-09
-8.38918e-08
-6.19101e-09
-8.16753e-08
-6.33659e-09
-7.94114e-08
-6.47207e-09
-7.7104e-08
-6.59709e-09
-7.47566e-08
-6.7113e-09
-7.23732e-08
-6.81436e-09
-6.99579e-08
-6.90593e-09
-6.75147e-08
-6.98571e-09
-6.50478e-08
-7.05336e-09
-6.25616e-08
-7.10859e-09
-6.00604e-08
-7.15112e-09
-5.75489e-08
-7.18066e-09
-5.50315e-08
-7.19695e-09
-5.2513e-08
-7.19974e-09
-4.99981e-08
-7.18881e-09
-4.74917e-08
-7.16393e-09
-4.49986e-08
-7.12492e-09
-4.25238e-08
-7.07159e-09
-4.00723e-08
-7.00379e-09
-3.76491e-08
-6.9214e-09
-3.52593e-08
-6.8243e-09
-3.2908e-08
-6.71243e-09
-3.06002e-08
-6.58572e-09
-2.8341e-08
-6.44417e-09
-2.61355e-08
-6.2878e-09
-2.39888e-08
-6.11666e-09
-2.19057e-08
-5.93087e-09
-1.98914e-08
-5.73056e-09
-1.79505e-08
-5.51597e-09
-1.60877e-08
-5.28734e-09
-1.43078e-08
-5.04503e-09
-1.26151e-08
-4.78945e-09
-1.10138e-08
-4.52112e-09
-9.50794e-09
-4.24065e-09
-8.10121e-09
-3.94878e-09
-6.79699e-09
-3.64642e-09
-5.59828e-09
-3.33463e-09
-4.5076e-09
-3.01466e-09
-3.52695e-09
-2.68805e-09
-2.65766e-09
-2.35661e-09
-1.90035e-09
-2.02252e-09
-1.25472e-09
-1.68838e-09
-7.19448e-10
-1.35734e-09
-2.91985e-10
-1.03321e-09
3.16524e-11
-7.20573e-10
2.57121e-10
-4.25e-10
3.92022e-10
-1.53232e-10
4.46186e-10
8.65869e-11
4.31987e-10
2.84686e-10
3.64679e-10
4.29464e-10
2.62798e-10
5.07377e-10
1.48689e-10
5.0307e-10
4.94347e-11
3.99805e-10
1.79298e-10
4.03989e-11
-2.18765e-10
1.14198e-10
-4.6278e-10
1.85669e-10
-5.49228e-10
2.26655e-10
-5.06327e-10
2.14116e-10
-3.57456e-10
1.2909e-10
-1.23115e-10
-4.39291e-11
1.78958e-10
-3.17443e-10
5.33666e-10
-7.01312e-10
9.28283e-10
-1.20306e-09
1.35215e-09
-1.82818e-09
1.7964e-09
-2.58037e-09
2.25367e-09
-3.46179e-09
2.71783e-09
-4.47328e-09
3.18383e-09
-5.61454e-09
3.64748e-09
-6.8843e-09
4.10531e-09
-8.28049e-09
4.55444e-09
-9.80032e-09
4.99249e-09
-1.14404e-08
5.41751e-09
-1.31969e-08
5.82788e-09
-1.50655e-08
6.22226e-09
-1.70417e-08
6.59957e-09
-1.91204e-08
6.95895e-09
-2.12965e-08
7.29968e-09
-2.35648e-08
7.62123e-09
-2.59196e-08
7.92315e-09
-2.83554e-08
8.20515e-09
-3.08666e-08
8.467e-09
-3.34473e-08
8.70856e-09
-3.60917e-08
8.92977e-09
-3.8794e-08
9.13062e-09
-4.15485e-08
9.31116e-09
-4.43492e-08
9.47149e-09
-4.71904e-08
9.61174e-09
-5.00663e-08
9.73208e-09
-5.29713e-08
9.83273e-09
-5.58996e-08
9.91391e-09
-5.88458e-08
9.97587e-09
-6.18042e-08
1.00189e-08
-6.47695e-08
1.00433e-08
-6.77363e-08
1.00494e-08
-7.06993e-08
1.00375e-08
-7.36534e-08
1.00079e-08
-7.65935e-08
9.96107e-09
-7.95146e-08
9.8973e-09
-8.24119e-08
9.81697e-09
-8.52807e-08
9.72046e-09
-8.81162e-08
9.60818e-09
-9.09141e-08
9.48051e-09
-9.36697e-08
9.33785e-09
-9.63789e-08
9.18062e-09
-9.90375e-08
9.00922e-09
-1.01641e-07
8.82407e-09
-1.04187e-07
8.62559e-09
-1.0667e-07
8.4142e-09
-1.09086e-07
8.19034e-09
-1.11434e-07
7.95442e-09
-1.13708e-07
7.70689e-09
-1.15905e-07
7.44817e-09
-1.18023e-07
7.17871e-09
-1.20059e-07
6.89895e-09
-1.22009e-07
6.60933e-09
-1.23871e-07
6.3103e-09
-1.25641e-07
6.00231e-09
-1.27318e-07
5.6858e-09
-1.289e-07
5.36125e-09
-1.30383e-07
5.0291e-09
-1.31766e-07
4.68982e-09
-1.33047e-07
4.34387e-09
-1.34224e-07
3.99172e-09
-1.35296e-07
3.63384e-09
-1.3626e-07
3.27071e-09
-1.37115e-07
2.9028e-09
-1.37861e-07
2.5306e-09
-1.38495e-07
2.1546e-09
-1.39018e-07
1.77528e-09
-1.39427e-07
1.39314e-09
-1.39724e-07
1.00868e-09
-1.39906e-07
6.22403e-10
-1.39974e-07
2.34811e-10
-1.39927e-07
-1.53584e-10
-1.39765e-07
-5.42266e-10
-1.39489e-07
-9.30716e-10
-1.39099e-07
-1.31841e-09
-1.38594e-07
-1.70482e-09
-1.37976e-07
-2.08942e-09
-1.37246e-07
-2.47167e-09
-1.36403e-07
-2.85104e-09
-1.3545e-07
-3.22698e-09
-1.34387e-07
-3.59895e-09
-1.33215e-07
-3.9664e-09
-1.31937e-07
-4.32878e-09
-1.30554e-07
-4.68555e-09
-1.29067e-07
-5.03614e-09
-1.27479e-07
-5.38e-09
-1.25792e-07
-5.71659e-09
-1.24008e-07
-6.04533e-09
-1.22129e-07
-6.36568e-09
-1.20159e-07
-6.67708e-09
-1.181e-07
-6.97897e-09
-1.15955e-07
-7.27081e-09
-1.13728e-07
-7.55205e-09
-1.11421e-07
-7.82213e-09
-1.09037e-07
-8.08053e-09
-1.06582e-07
-8.32669e-09
-1.04057e-07
-8.56009e-09
-1.01468e-07
-8.7802e-09
-9.88181e-08
-8.98651e-09
-9.61116e-08
-9.17851e-09
-9.3353e-08
-9.3557e-09
-9.05467e-08
-9.51758e-09
-8.76974e-08
-9.66368e-09
-8.48098e-08
-9.79354e-09
-8.18888e-08
-9.9067e-09
-7.89395e-08
-1.00027e-08
-7.59669e-08
-1.00812e-08
-7.29763e-08
-1.01417e-08
-6.99731e-08
-1.01839e-08
-6.69627e-08
-1.02073e-08
-6.39508e-08
-1.02117e-08
-6.09429e-08
-1.01967e-08
-5.79447e-08
-1.01621e-08
-5.49621e-08
-1.01075e-08
-5.20008e-08
-1.00328e-08
-4.90669e-08
-9.93772e-09
-4.61662e-08
-9.82208e-09
-4.33047e-08
-9.68577e-09
-4.04885e-08
-9.52868e-09
-3.77234e-08
-9.35078e-09
-3.50155e-08
-9.15205e-09
-3.23708e-08
-8.93255e-09
-2.97951e-08
-8.69238e-09
-2.72942e-08
-8.43173e-09
-2.4874e-08
-8.15082e-09
-2.25399e-08
-7.84998e-09
-2.02976e-08
-7.52963e-09
-1.81524e-08
-7.19027e-09
-1.61093e-08
-6.83254e-09
-1.41732e-08
-6.45719e-09
-1.23488e-08
-6.06513e-09
-1.06401e-08
-5.65746e-09
-9.05104e-09
-5.23546e-09
-7.585e-09
-4.80066e-09
-6.24476e-09
-4.3549e-09
-5.03251e-09
-3.90031e-09
-3.94966e-09
-3.43946e-09
-2.99679e-09
-2.97539e-09
-2.17346e-09
-2.5117e-09
-1.4781e-09
-2.05271e-09
-9.07761e-10
-1.60354e-09
-4.57995e-10
-1.17034e-09
-1.22574e-10
-7.60423e-10
1.06735e-10
-3.82544e-10
2.40438e-10
-4.71133e-11
2.91594e-10
2.33537e-10
2.76143e-10
4.44917e-10
2.13343e-10
5.7017e-10
1.26387e-10
5.90027e-10
4.34027e-11
4.82792e-10
2.22703e-10
2.99408e-11
-2.48704e-10
7.65348e-11
-5.09377e-10
1.05503e-10
-5.78206e-10
8.91268e-11
-4.89957e-10
4.4987e-12
-2.72828e-10
-1.67352e-10
4.87389e-11
-4.42036e-10
4.53645e-10
-8.32237e-10
9.23867e-10
-1.34804e-09
1.44409e-09
-1.99724e-09
2.00134e-09
-2.78554e-09
2.58471e-09
-3.71688e-09
3.185e-09
-4.79358e-09
3.79452e-09
-6.01655e-09
4.40681e-09
-7.38552e-09
5.01646e-09
-8.89916e-09
5.61895e-09
-1.05552e-08
6.21051e-09
-1.23507e-08
6.78799e-09
-1.4282e-08
7.34875e-09
-1.63447e-08
7.89062e-09
-1.85342e-08
8.41178e-09
-2.08454e-08
8.91075e-09
-2.32728e-08
9.38632e-09
-2.58106e-08
9.8375e-09
-2.84529e-08
1.02635e-08
-3.11935e-08
1.06638e-08
-3.40261e-08
1.10377e-08
-3.69442e-08
1.13852e-08
-3.99414e-08
1.17058e-08
-4.30111e-08
1.19995e-08
-4.61467e-08
1.22662e-08
-4.93415e-08
1.2506e-08
-5.25889e-08
1.27189e-08
-5.58824e-08
1.29052e-08
-5.92153e-08
1.3065e-08
-6.25812e-08
1.31986e-08
-6.59735e-08
1.33062e-08
-6.93859e-08
1.33883e-08
-7.28121e-08
1.34451e-08
-7.62458e-08
1.3477e-08
-7.96809e-08
1.34845e-08
-8.31113e-08
1.34679e-08
-8.65311e-08
1.34277e-08
-8.99345e-08
1.33645e-08
-9.33158e-08
1.32785e-08
-9.66692e-08
1.31705e-08
-9.99895e-08
1.30407e-08
-1.03271e-07
1.28899e-08
-1.06509e-07
1.27184e-08
-1.09698e-07
1.25269e-08
-1.12833e-07
1.23158e-08
-1.1591e-07
1.20857e-08
-1.18923e-07
1.18372e-08
-1.21868e-07
1.15709e-08
-1.24741e-07
1.12872e-08
-1.27538e-07
1.09868e-08
-1.30253e-07
1.06702e-08
-1.32884e-07
1.0338e-08
-1.35427e-07
9.99083e-09
-1.37878e-07
9.62925e-09
-1.40233e-07
9.25385e-09
-1.42488e-07
8.86521e-09
-1.44642e-07
8.46396e-09
-1.4669e-07
8.05067e-09
-1.48631e-07
7.62598e-09
-1.5046e-07
7.19047e-09
-1.52176e-07
6.74478e-09
-1.53775e-07
6.28953e-09
-1.55257e-07
5.82533e-09
-1.56618e-07
5.35282e-09
-1.57857e-07
4.87262e-09
-1.58971e-07
4.38539e-09
-1.5996e-07
3.89176e-09
-1.60822e-07
3.39238e-09
-1.61555e-07
2.8879e-09
-1.62159e-07
2.379e-09
-1.62632e-07
1.86632e-09
-1.62974e-07
1.35054e-09
-1.63184e-07
8.32332e-10
-1.63262e-07
3.12382e-10
-1.63206e-07
-2.08626e-10
-1.63019e-07
-7.3e-10
-1.62698e-07
-1.25104e-09
-1.62246e-07
-1.77106e-09
-1.61661e-07
-2.28933e-09
-1.60946e-07
-2.80514e-09
-1.60099e-07
-3.31779e-09
-1.59124e-07
-3.82655e-09
-1.5802e-07
-4.33069e-09
-1.5679e-07
-4.82948e-09
-1.55434e-07
-5.3222e-09
-1.53955e-07
-5.80809e-09
-1.52354e-07
-6.28643e-09
-1.50633e-07
-6.75648e-09
-1.48796e-07
-7.21748e-09
-1.46844e-07
-7.6687e-09
-1.4478e-07
-8.1094e-09
-1.42607e-07
-8.53883e-09
-1.40327e-07
-8.95624e-09
-1.37945e-07
-9.3609e-09
-1.35464e-07
-9.75207e-09
-1.32887e-07
-1.0129e-08
-1.30218e-07
-1.0491e-08
-1.27462e-07
-1.08373e-08
-1.24621e-07
-1.11673e-08
-1.21701e-07
-1.14801e-08
-1.18706e-07
-1.17751e-08
-1.15641e-07
-1.20517e-08
-1.1251e-07
-1.2309e-08
-1.09319e-07
-1.25466e-08
-1.06073e-07
-1.27637e-08
-1.02777e-07
-1.29596e-08
-9.94372e-08
-1.31338e-08
-9.60581e-08
-1.32857e-08
-9.26461e-08
-1.34147e-08
-8.92071e-08
-1.35202e-08
-8.5747e-08
-1.36017e-08
-8.22721e-08
-1.36588e-08
-7.87886e-08
-1.36908e-08
-7.53029e-08
-1.36974e-08
-7.18214e-08
-1.36782e-08
-6.83507e-08
-1.36328e-08
-6.48975e-08
-1.35608e-08
-6.14684e-08
-1.34619e-08
-5.80702e-08
-1.33359e-08
-5.47097e-08
-1.31826e-08
-5.13936e-08
-1.30018e-08
-4.81289e-08
-1.27934e-08
-4.49224e-08
-1.25573e-08
-4.17808e-08
-1.22936e-08
-3.8711e-08
-1.20024e-08
-3.57195e-08
-1.16838e-08
-3.28131e-08
-1.13381e-08
-2.99982e-08
-1.09657e-08
-2.72812e-08
-1.0567e-08
-2.46682e-08
-1.01426e-08
-2.21652e-08
-9.69323e-09
-1.9778e-08
-9.21975e-09
-1.7512e-08
-8.72323e-09
-1.53722e-08
-8.20492e-09
-1.33634e-08
-7.6663e-09
-1.14897e-08
-7.10914e-09
-9.75483e-09
-6.53551e-09
-8.16188e-09
-5.94785e-09
-6.71316e-09
-5.34903e-09
-5.41019e-09
-4.74243e-09
-4.25354e-09
-4.13204e-09
-3.24269e-09
-3.52255e-09
-2.37591e-09
-2.91949e-09
-1.65003e-09
-2.32942e-09
-1.06031e-09
-1.76006e-09
-6.00198e-10
-1.22053e-09
-2.61148e-10
-7.21598e-10
-3.23386e-11
-2.75927e-10
9.95662e-11
1.01635e-10
1.5073e-10
3.9376e-10
1.40561e-10
5.80339e-10
9.23154e-11
6.38274e-10
3.39627e-11
5.41147e-10
2.56667e-10
1.72245e-11
-2.65933e-10
3.05364e-11
-5.22683e-10
8.17733e-12
-5.55846e-10
-7.62276e-11
-4.05554e-10
-2.44775e-10
-1.04281e-10
-5.15924e-10
3.1989e-10
-9.04973e-10
8.42696e-10
-1.42443e-09
1.44332e-09
-2.08431e-09
2.10396e-09
-2.89237e-09
2.80941e-09
-3.85438e-09
3.54672e-09
-4.97428e-09
4.30491e-09
-6.25443e-09
5.07466e-09
-7.69573e-09
5.8481e-09
-9.29784e-09
6.61857e-09
-1.10593e-08
7.38045e-09
-1.29778e-08
8.12899e-09
-1.505e-08
8.86021e-09
-1.7272e-08
9.57075e-09
-1.96392e-08
1.02578e-08
-2.21465e-08
1.09191e-08
-2.47883e-08
1.15525e-08
-2.75587e-08
1.21567e-08
-3.04513e-08
1.27301e-08
-3.34596e-08
1.32719e-08
-3.65769e-08
1.3781e-08
-3.97962e-08
1.4257e-08
-4.31104e-08
1.46993e-08
-4.65122e-08
1.51076e-08
-4.99945e-08
1.54817e-08
-5.35499e-08
1.58216e-08
-5.7171e-08
1.61271e-08
-6.08505e-08
1.63984e-08
-6.4581e-08
1.66357e-08
-6.83552e-08
1.68392e-08
-7.21658e-08
1.70092e-08
-7.60056e-08
1.7146e-08
-7.98674e-08
1.72501e-08
-8.37442e-08
1.73219e-08
-8.7629e-08
1.73618e-08
-9.15149e-08
1.73703e-08
-9.53951e-08
1.73481e-08
-9.92629e-08
1.72956e-08
-1.03112e-07
1.72134e-08
-1.06935e-07
1.71021e-08
-1.10727e-07
1.69624e-08
-1.14481e-07
1.67949e-08
-1.18192e-07
1.66002e-08
-1.21852e-07
1.63791e-08
-1.25458e-07