/*--------------------------------*- C++ -*----------------------------------*\
  =========                 |
  \\      /  F ield         | OpenFOAM: The Open Source CFD Toolbox
   \\    /   O peration     | Website:  https://openfoam.org
    \\  /    A nd           | Version:  7
     \\/     M anipulation  |
\*---------------------------------------------------------------------------*/
FoamFile
{
    version     2.0;
    format      ascii;
    class       volVectorField;
    location    "0.375";
    object      U;
}
// * * * * * * * * * * * * * * * * * * * * * * * * * * * * * * * * * * * * * //

dimensions      [0 1 -1 0 0 0 0];

internalField   nonuniform List<vector> 
25600
(
(1.78456e-07 -2.05986e-07 0)
(2.83663e-06 -1.79453e-06 0)
(9.07483e-06 -2.8328e-06 0)
(1.69264e-05 -3.20586e-06 0)
(2.48854e-05 -3.12264e-06 0)
(3.2002e-05 -2.74567e-06 0)
(3.76229e-05 -2.18155e-06 0)
(4.12989e-05 -1.50103e-06 0)
(4.27314e-05 -7.50933e-07 0)
(4.17273e-05 3.80419e-08 0)
(3.81685e-05 8.45385e-07 0)
(3.19919e-05 1.65711e-06 0)
(2.31761e-05 2.4633e-06 0)
(1.17306e-05 3.25665e-06 0)
(-2.31124e-06 4.03175e-06 0)
(-1.88981e-05 4.78459e-06 0)
(-3.79647e-05 5.51228e-06 0)
(-5.94349e-05 6.21263e-06 0)
(-8.32239e-05 6.88402e-06 0)
(-0.000109241 7.52524e-06 0)
(-0.000137388 8.1354e-06 0)
(-0.000167567 8.71386e-06 0)
(-0.000199674 9.26026e-06 0)
(-0.000233603 9.77438e-06 0)
(-0.000269247 1.02561e-05 0)
(-0.000306499 1.07057e-05 0)
(-0.000345251 1.11231e-05 0)
(-0.000385394 1.15086e-05 0)
(-0.000426821 1.18624e-05 0)
(-0.000469424 1.2185e-05 0)
(-0.000513098 1.24765e-05 0)
(-0.000557736 1.27375e-05 0)
(-0.000603233 1.29684e-05 0)
(-0.000649488 1.31698e-05 0)
(-0.000696397 1.3342e-05 0)
(-0.00074386 1.34857e-05 0)
(-0.000791779 1.36014e-05 0)
(-0.000840058 1.36895e-05 0)
(-0.000888599 1.37507e-05 0)
(-0.000937311 1.37854e-05 0)
(-0.000986101 1.37944e-05 0)
(-0.00103488 1.3778e-05 0)
(-0.00108356 1.37371e-05 0)
(-0.00113205 1.36721e-05 0)
(-0.00118028 1.35836e-05 0)
(-0.00122815 1.34722e-05 0)
(-0.00127559 1.33386e-05 0)
(-0.00132253 1.31832e-05 0)
(-0.00136888 1.30068e-05 0)
(-0.00141457 1.28098e-05 0)
(-0.00145953 1.25929e-05 0)
(-0.00150369 1.23568e-05 0)
(-0.00154698 1.21019e-05 0)
(-0.00158935 1.18289e-05 0)
(-0.00163071 1.15384e-05 0)
(-0.00167102 1.1231e-05 0)
(-0.00171021 1.09073e-05 0)
(-0.00174823 1.05678e-05 0)
(-0.00178502 1.02132e-05 0)
(-0.00182053 9.84403e-06 0)
(-0.0018547 9.46096e-06 0)
(-0.0018875 9.06458e-06 0)
(-0.00191887 8.65547e-06 0)
(-0.00194876 8.23425e-06 0)
(-0.00197715 7.8015e-06 0)
(-0.00200398 7.35783e-06 0)
(-0.00202922 6.90385e-06 0)
(-0.00205284 6.44019e-06 0)
(-0.00207479 5.96746e-06 0)
(-0.00209506 5.48629e-06 0)
(-0.0021136 4.9973e-06 0)
(-0.0021304 4.5011e-06 0)
(-0.00214543 3.99834e-06 0)
(-0.00215866 3.48966e-06 0)
(-0.00217008 2.97569e-06 0)
(-0.00217967 2.4571e-06 0)
(-0.00218742 1.93455e-06 0)
(-0.00219331 1.40868e-06 0)
(-0.00219733 8.80182e-07 0)
(-0.00219948 3.4972e-07 0)
(-0.00219974 -1.82017e-07 0)
(-0.00219812 -7.14339e-07 0)
(-0.00219461 -1.24655e-06 0)
(-0.00218922 -1.77795e-06 0)
(-0.00218195 -2.30784e-06 0)
(-0.00217281 -2.8355e-06 0)
(-0.0021618 -3.36021e-06 0)
(-0.00214895 -3.88122e-06 0)
(-0.00213425 -4.3978e-06 0)
(-0.00211774 -4.90922e-06 0)
(-0.00209944 -5.41474e-06 0)
(-0.00207935 -5.9136e-06 0)
(-0.00205752 -6.40504e-06 0)
(-0.00203396 -6.88828e-06 0)
(-0.00200871 -7.36256e-06 0)
(-0.0019818 -7.82712e-06 0)
(-0.00195327 -8.28119e-06 0)
(-0.00192315 -8.72399e-06 0)
(-0.0018915 -9.15475e-06 0)
(-0.00185834 -9.57267e-06 0)
(-0.00182374 -9.97698e-06 0)
(-0.00178773 -1.03669e-05 0)
(-0.00175038 -1.07417e-05 0)
(-0.00171173 -1.11005e-05 0)
(-0.00167185 -1.14427e-05 0)
(-0.00163079 -1.17674e-05 0)
(-0.00158863 -1.20739e-05 0)
(-0.00154541 -1.23613e-05 0)
(-0.00150122 -1.26291e-05 0)
(-0.00145613 -1.28764e-05 0)
(-0.0014102 -1.31025e-05 0)
(-0.00136352 -1.33067e-05 0)
(-0.00131616 -1.34882e-05 0)
(-0.0012682 -1.36465e-05 0)
(-0.00121973 -1.37808e-05 0)
(-0.00117083 -1.38905e-05 0)
(-0.00112159 -1.39749e-05 0)
(-0.00107211 -1.40334e-05 0)
(-0.00102246 -1.40654e-05 0)
(-0.000972748 -1.40704e-05 0)
(-0.000923068 -1.40477e-05 0)
(-0.000873518 -1.39969e-05 0)
(-0.000824196 -1.39174e-05 0)
(-0.000775203 -1.38089e-05 0)
(-0.00072664 -1.36707e-05 0)
(-0.000678613 -1.35026e-05 0)
(-0.000631225 -1.33041e-05 0)
(-0.000584582 -1.30748e-05 0)
(-0.00053879 -1.28146e-05 0)
(-0.000493958 -1.25231e-05 0)
(-0.000450193 -1.22002e-05 0)
(-0.000407603 -1.18456e-05 0)
(-0.000366296 -1.14593e-05 0)
(-0.00032638 -1.10413e-05 0)
(-0.000287962 -1.05915e-05 0)
(-0.00025115 -1.01101e-05 0)
(-0.000216049 -9.59724e-06 0)
(-0.000182763 -9.05332e-06 0)
(-0.000151394 -8.47876e-06 0)
(-0.000122041 -7.87418e-06 0)
(-9.47994e-05 -7.24031e-06 0)
(-6.97618e-05 -6.57815e-06 0)
(-4.70143e-05 -5.88896e-06 0)
(-2.66368e-05 -5.1744e-06 0)
(-8.70162e-06 -4.43654e-06 0)
(6.72884e-06 -3.67798e-06 0)
(1.96043e-05 -2.90208e-06 0)
(2.98901e-05 -2.11324e-06 0)
(3.75706e-05 -1.31731e-06 0)
(4.26553e-05 -5.22049e-07 0)
(4.51854e-05 2.62103e-07 0)
(4.52439e-05 1.02062e-06 0)
(4.29697e-05 1.73271e-06 0)
(3.85771e-05 2.36765e-06 0)
(3.2386e-05 2.87902e-06 0)
(2.48642e-05 3.19657e-06 0)
(1.66777e-05 3.21595e-06 0)
(8.7782e-06 2.78115e-06 0)
(2.6415e-06 1.69901e-06 0)
(1.21101e-07 1.23537e-07 0)
(1.77697e-06 -2.87759e-06 0)
(9.382e-06 -9.41279e-06 0)
(2.31383e-05 -1.34174e-05 0)
(3.93765e-05 -1.47271e-05 0)
(5.52564e-05 -1.39628e-05 0)
(6.8786e-05 -1.16963e-05 0)
(7.84251e-05 -8.36715e-06 0)
(8.3016e-05 -4.3036e-06 0)
(8.17272e-05 2.537e-07 0)
(7.39809e-05 5.12926e-06 0)
(5.93935e-05 1.0194e-05 0)
(3.77318e-05 1.53522e-05 0)
(8.88014e-06 2.05317e-05 0)
(-2.71852e-05 2.56773e-05 0)
(-7.04159e-05 3.07465e-05 0)
(-0.000120707 3.57062e-05 0)
(-0.000177908 4.05306e-05 0)
(-0.000241833 4.51997e-05 0)
(-0.000312269 4.9698e-05 0)
(-0.000388978 5.40132e-05 0)
(-0.000471706 5.81358e-05 0)
(-0.000560184 6.20586e-05 0)
(-0.000654132 6.57764e-05 0)
(-0.000753261 6.92852e-05 0)
(-0.000857278 7.25825e-05 0)
(-0.000965883 7.56668e-05 0)
(-0.00107877 7.85376e-05 0)
(-0.00119565 8.11948e-05 0)
(-0.00131621 8.36389e-05 0)
(-0.00144014 8.58711e-05 0)
(-0.00156715 8.78928e-05 0)
(-0.00169693 8.97062e-05 0)
(-0.00182919 9.13135e-05 0)
(-0.00196363 9.27173e-05 0)
(-0.00209996 9.39206e-05 0)
(-0.0022379 9.49263e-05 0)
(-0.00237715 9.57374e-05 0)
(-0.00251744 9.63574e-05 0)
(-0.0026585 9.67897e-05 0)
(-0.00280005 9.70378e-05 0)
(-0.00294184 9.71053e-05 0)
(-0.00308359 9.69962e-05 0)
(-0.00322506 9.67142e-05 0)
(-0.003366 9.62632e-05 0)
(-0.00350615 9.56472e-05 0)
(-0.0036453 9.48701e-05 0)
(-0.0037832 9.3936e-05 0)
(-0.00391962 9.28487e-05 0)
(-0.00405435 9.16125e-05 0)
(-0.00418718 9.02314e-05 0)
(-0.00431788 8.87095e-05 0)
(-0.00444627 8.7051e-05 0)
(-0.00457213 8.52601e-05 0)
(-0.00469529 8.33409e-05 0)
(-0.00481556 8.12975e-05 0)
(-0.00493275 7.91342e-05 0)
(-0.00504671 7.68551e-05 0)
(-0.00515725 7.44644e-05 0)
(-0.00526422 7.19664e-05 0)
(-0.00536746 6.93653e-05 0)
(-0.00546683 6.66654e-05 0)
(-0.00556219 6.38709e-05 0)
(-0.00565339 6.09861e-05 0)
(-0.00574032 5.80153e-05 0)
(-0.00582284 5.49628e-05 0)
(-0.00590085 5.1833e-05 0)
(-0.00597422 4.86301e-05 0)
(-0.00604287 4.53586e-05 0)
(-0.00610668 4.20229e-05 0)
(-0.00616557 3.86275e-05 0)
(-0.00621946 3.51768e-05 0)
(-0.00626827 3.16753e-05 0)
(-0.00631192 2.81275e-05 0)
(-0.00635035 2.45381e-05 0)
(-0.00638352 2.09116e-05 0)
(-0.00641135 1.72527e-05 0)
(-0.00643382 1.35661e-05 0)
(-0.00645088 9.85646e-06 0)
(-0.0064625 6.12865e-06 0)
(-0.00646867 2.38747e-06 0)
(-0.00646936 -1.36222e-06 0)
(-0.00646457 -5.11551e-06 0)
(-0.0064543 -8.86746e-06 0)
(-0.00643855 -1.26131e-05 0)
(-0.00641733 -1.63473e-05 0)
(-0.00639067 -2.00651e-05 0)
(-0.00635859 -2.37612e-05 0)
(-0.00632114 -2.74306e-05 0)
(-0.00627835 -3.1068e-05 0)
(-0.00623027 -3.46682e-05 0)
(-0.00617697 -3.82259e-05 0)
(-0.00611851 -4.17358e-05 0)
(-0.00605497 -4.51926e-05 0)
(-0.00598642 -4.85907e-05 0)
(-0.00591296 -5.19249e-05 0)
(-0.00583468 -5.51898e-05 0)
(-0.00575169 -5.83799e-05 0)
(-0.00566411 -6.14899e-05 0)
(-0.00557206 -6.45141e-05 0)
(-0.00547566 -6.74473e-05 0)
(-0.00537505 -7.0284e-05 0)
(-0.00527039 -7.30187e-05 0)
(-0.00516181 -7.56461e-05 0)
(-0.00504949 -7.81608e-05 0)
(-0.00493359 -8.05574e-05 0)
(-0.00481429 -8.28307e-05 0)
(-0.00469177 -8.49754e-05 0)
(-0.00456622 -8.69862e-05 0)
(-0.00443785 -8.88581e-05 0)
(-0.00430686 -9.05859e-05 0)
(-0.00417346 -9.21646e-05 0)
(-0.00403787 -9.35895e-05 0)
(-0.00390033 -9.48557e-05 0)
(-0.00376107 -9.59585e-05 0)
(-0.00362032 -9.68934e-05 0)
(-0.00347834 -9.76559e-05 0)
(-0.00333537 -9.82418e-05 0)
(-0.00319169 -9.8647e-05 0)
(-0.00304755 -9.88674e-05 0)
(-0.00290323 -9.88993e-05 0)
(-0.002759 -9.87391e-05 0)
(-0.00261514 -9.83834e-05 0)
(-0.00247194 -9.7829e-05 0)
(-0.00232969 -9.7073e-05 0)
(-0.00218868 -9.61126e-05 0)
(-0.00204921 -9.49455e-05 0)
(-0.00191158 -9.35693e-05 0)
(-0.00177609 -9.19824e-05 0)
(-0.00164304 -9.01833e-05 0)
(-0.00151275 -8.81708e-05 0)
(-0.00138551 -8.59443e-05 0)
(-0.00126164 -8.35034e-05 0)
(-0.00114144 -8.08485e-05 0)
(-0.00102522 -7.79803e-05 0)
(-0.00091327 -7.49002e-05 0)
(-0.000805901 -7.16104e-05 0)
(-0.000703402 -6.81137e-05 0)
(-0.000606062 -6.44142e-05 0)
(-0.000514162 -6.05167e-05 0)
(-0.000427973 -5.64276e-05 0)
(-0.000347753 -5.21546e-05 0)
(-0.000273747 -4.77074e-05 0)
(-0.000206183 -4.30979e-05 0)
(-0.000145266 -3.83409e-05 0)
(-9.11758e-05 -3.34545e-05 0)
(-4.40615e-05 -2.84614e-05 0)
(-4.03161e-06 -2.33898e-05 0)
(2.88527e-05 -1.82749e-05 0)
(5.45902e-05 -1.31616e-05 0)
(7.3254e-05 -8.10712e-06 0)
(8.50106e-05 -3.18546e-06 0)
(9.01445e-05 1.50649e-06 0)
(8.90907e-05 5.83984e-06 0)
(8.24773e-05 9.64072e-06 0)
(7.11814e-05 1.26721e-05 0)
(5.63962e-05 1.46131e-05 0)
(3.96803e-05 1.50406e-05 0)
(2.30165e-05 1.34173e-05 0)
(9.18023e-06 9.18705e-06 0)
(1.6929e-06 2.64363e-06 0)
(2.82454e-06 -9.09148e-06 0)
(1.34072e-05 -2.31623e-05 0)
(3.10718e-05 -3.10696e-05 0)
(5.08416e-05 -3.31351e-05 0)
(6.91175e-05 -3.04568e-05 0)
(8.33403e-05 -2.41293e-05 0)
(9.14282e-05 -1.50802e-05 0)
(9.1739e-05 -4.05396e-06 0)
(8.304e-05 8.36929e-06 0)
(6.44361e-05 2.17417e-05 0)
(3.53053e-05 3.57181e-05 0)
(-4.75366e-06 5.0032e-05 0)
(-5.59646e-05 6.44761e-05 0)
(-0.000118408 7.88884e-05 0)
(-0.000192049 9.31413e-05 0)
(-0.00027676 0.000107134 0)
(-0.000372338 0.000120786 0)
(-0.000478519 0.000134034 0)
(-0.000594991 0.000146827 0)
(-0.000721401 0.000159126 0)
(-0.000857365 0.000170899 0)
(-0.00100247 0.000182121 0)
(-0.00115629 0.000192773 0)
(-0.00131838 0.000202842 0)
(-0.00148827 0.000212316 0)
(-0.00166551 0.000221189 0)
(-0.00184961 0.000229457 0)
(-0.00204009 0.000237117 0)
(-0.00223648 0.000244171 0)
(-0.0024383 0.000250618 0)
(-0.00264506 0.000256463 0)
(-0.00285628 0.00026171 0)
(-0.00307149 0.000266364 0)
(-0.00329021 0.000270432 0)
(-0.00351198 0.000273921 0)
(-0.00373634 0.00027684 0)
(-0.00396282 0.000279195 0)
(-0.00419098 0.000280997 0)
(-0.00442038 0.000282255 0)
(-0.00465057 0.000282979 0)
(-0.00488113 0.000283178 0)
(-0.00511164 0.000282864 0)
(-0.00534169 0.000282047 0)
(-0.00557087 0.000280738 0)
(-0.0057988 0.000278948 0)
(-0.00602507 0.000276689 0)
(-0.00624932 0.000273971 0)
(-0.00647117 0.000270807 0)
(-0.00669028 0.000267209 0)
(-0.00690629 0.000263187 0)
(-0.00711885 0.000258754 0)
(-0.00732764 0.000253922 0)
(-0.00753235 0.000248703 0)
(-0.00773265 0.000243109 0)
(-0.00792825 0.000237152 0)
(-0.00811885 0.000230844 0)
(-0.00830418 0.000224198 0)
(-0.00848396 0.000217225 0)
(-0.00865793 0.000209938 0)
(-0.00882585 0.000202349 0)
(-0.00898746 0.000194472 0)
(-0.00914254 0.000186317 0)
(-0.00929087 0.000177899 0)
(-0.00943223 0.000169229 0)
(-0.00956643 0.00016032 0)
(-0.00969328 0.000151184 0)
(-0.0098126 0.000141835 0)
(-0.00992421 0.000132286 0)
(-0.010028 0.000122549 0)
(-0.0101237 0.000112637 0)
(-0.0102113 0.000102564 0)
(-0.0102906 9.23431e-05 0)
(-0.0103616 8.1987e-05 0)
(-0.010424 7.15093e-05 0)
(-0.0104779 6.09237e-05 0)
(-0.0105231 5.02439e-05 0)
(-0.0105596 3.94836e-05 0)
(-0.0105872 2.86567e-05 0)
(-0.0106061 1.77773e-05 0)
(-0.010616 6.8594e-06 0)
(-0.010617 -4.08266e-06 0)
(-0.0106092 -1.50345e-05 0)
(-0.0105924 -2.59816e-05 0)
(-0.0105666 -3.69094e-05 0)
(-0.0105321 -4.7803e-05 0)
(-0.0104886 -5.86476e-05 0)
(-0.0104363 -6.94282e-05 0)
(-0.0103753 -8.01296e-05 0)
(-0.0103057 -9.07366e-05 0)
(-0.0102274 -0.000101234 0)
(-0.0101406 -0.000111606 0)
(-0.0100455 -0.000121838 0)
(-0.00994206 -0.000131913 0)
(-0.00983052 -0.000141817 0)
(-0.00971099 -0.000151533 0)
(-0.00958364 -0.000161045 0)
(-0.00944865 -0.000170339 0)
(-0.00930619 -0.000179397 0)
(-0.00915646 -0.000188205 0)
(-0.00899969 -0.000196746 0)
(-0.00883608 -0.000205005 0)
(-0.00866588 -0.000212965 0)
(-0.00848934 -0.000220612 0)
(-0.00830671 -0.00022793 0)
(-0.00811829 -0.000234903 0)
(-0.00792434 -0.000241515 0)
(-0.00772517 -0.000247752 0)
(-0.0075211 -0.000253599 0)
(-0.00731244 -0.000259041 0)
(-0.00709954 -0.000264063 0)
(-0.00688273 -0.000268651 0)
(-0.00666238 -0.00027279 0)
(-0.00643886 -0.000276468 0)
(-0.00621254 -0.000279671 0)
(-0.00598382 -0.000282385 0)
(-0.0057531 -0.000284598 0)
(-0.00552079 -0.000286299 0)
(-0.00528732 -0.000287474 0)
(-0.00505309 -0.000288114 0)
(-0.00481857 -0.000288207 0)
(-0.00458419 -0.000287743 0)
(-0.00435041 -0.000286713 0)
(-0.00411768 -0.000285108 0)
(-0.00388648 -0.00028292 0)
(-0.00365727 -0.000280142 0)
(-0.00343054 -0.000276768 0)
(-0.00320676 -0.00027279 0)
(-0.00298642 -0.000268207 0)
(-0.00277002 -0.000263013 0)
(-0.00255802 -0.000257206 0)
(-0.00235094 -0.000250786 0)
(-0.00214925 -0.000243753 0)
(-0.00195345 -0.000236109 0)
(-0.00176401 -0.000227858 0)
(-0.00158142 -0.000219005 0)
(-0.00140614 -0.000209558 0)
(-0.00123864 -0.000199528 0)
(-0.00107937 -0.000188929 0)
(-0.00092877 -0.000177777 0)
(-0.000787253 -0.000166093 0)
(-0.000655219 -0.000153903 0)
(-0.000533042 -0.000141239 0)
(-0.000421061 -0.000128139 0)
(-0.000319583 -0.00011465 0)
(-0.000228866 -0.000100829 0)
(-0.000149116 -8.67462e-05 0)
(-8.04736e-05 -7.24885e-05 0)
(-2.29993e-05 -5.81623e-05 0)
(2.33427e-05 -4.39006e-05 0)
(5.87067e-05 -2.98699e-05 0)
(8.33916e-05 -1.62805e-05 0)
(9.78743e-05 -3.40014e-06 0)
(0.000102851 8.42851e-06 0)
(9.9285e-05 1.87644e-05 0)
(8.84707e-05 2.70401e-05 0)
(7.20957e-05 3.25351e-05 0)
(5.22665e-05 3.43662e-05 0)
(3.15294e-05 3.15165e-05 0)
(1.34165e-05 2.3017e-05 0)
(2.77566e-06 8.77386e-06 0)
(3.20633e-06 -1.69379e-05 0)
(1.47524e-05 -3.94165e-05 0)
(3.32142e-05 -5.08518e-05 0)
(5.27264e-05 -5.2611e-05 0)
(6.91826e-05 -4.643e-05 0)
(7.96726e-05 -3.39813e-05 0)
(8.17845e-05 -1.67245e-05 0)
(7.35686e-05 4.1277e-06 0)
(5.35171e-05 2.75952e-05 0)
(2.05015e-05 5.28953e-05 0)
(-2.62882e-05 7.94062e-05 0)
(-8.7396e-05 0.000106634 0)
(-0.000163145 0.000134187 0)
(-0.000253677 0.000161752 0)
(-0.000358982 0.000189078 0)
(-0.000478926 0.000215964 0)
(-0.000613275 0.000242249 0)
(-0.000761709 0.000267803 0)
(-0.00092384 0.000292521 0)
(-0.00109922 0.000316319 0)
(-0.00128737 0.00033913 0)
(-0.00148774 0.000360901 0)
(-0.00169979 0.000381591 0)
(-0.00192293 0.000401167 0)
(-0.00215656 0.000419605 0)
(-0.00240005 0.000436889 0)
(-0.00265278 0.000453007 0)
(-0.00291412 0.000467952 0)
(-0.00318342 0.000481721 0)
(-0.00346004 0.000494315 0)
(-0.00374333 0.000505739 0)
(-0.00403265 0.000516 0)
(-0.00432737 0.000525106 0)
(-0.00462683 0.000533069 0)
(-0.00493042 0.000539902 0)
(-0.0052375 0.000545617 0)
(-0.00554745 0.000550232 0)
(-0.00585968 0.000553762 0)
(-0.00617357 0.000556226 0)
(-0.00648854 0.000557642 0)
(-0.006804 0.000558028 0)
(-0.00711938 0.000557406 0)
(-0.00743411 0.000555796 0)
(-0.00774766 0.000553218 0)
(-0.00805947 0.000549694 0)
(-0.00836903 0.000545246 0)
(-0.00867582 0.000539896 0)
(-0.00897933 0.000533667 0)
(-0.00927908 0.000526581 0)
(-0.00957459 0.000518661 0)
(-0.00986539 0.000509931 0)
(-0.010151 0.000500413 0)
(-0.0104311 0.000490132 0)
(-0.0107051 0.000479111 0)
(-0.0109727 0.000467373 0)
(-0.0112335 0.000454944 0)
(-0.011487 0.000441845 0)
(-0.0117329 0.000428103 0)
(-0.0119709 0.000413741 0)
(-0.0122007 0.000398783 0)
(-0.0124217 0.000383255 0)
(-0.0126339 0.00036718 0)
(-0.0128368 0.000350584 0)
(-0.0130302 0.00033349 0)
(-0.0132137 0.000315925 0)
(-0.0133872 0.000297914 0)
(-0.0135504 0.000279481 0)
(-0.0137031 0.000260653 0)
(-0.013845 0.000241455 0)
(-0.0139759 0.000221912 0)
(-0.0140957 0.000202051 0)
(-0.0142041 0.000181897 0)
(-0.0143011 0.000161478 0)
(-0.0143865 0.00014082 0)
(-0.0144601 0.00011995 0)
(-0.0145218 9.88938e-05 0)
(-0.0145716 7.768e-05 0)
(-0.0146094 5.63356e-05 0)
(-0.014635 3.48883e-05 0)
(-0.0146485 1.33662e-05 0)
(-0.0146499 -8.2026e-06 0)
(-0.014639 -2.97896e-05 0)
(-0.0146159 -5.13661e-05 0)
(-0.0145806 -7.29033e-05 0)
(-0.0145331 -9.43718e-05 0)
(-0.0144736 -0.000115742 0)
(-0.014402 -0.000136985 0)
(-0.0143184 -0.000158071 0)
(-0.014223 -0.000178969 0)
(-0.0141158 -0.000199649 0)
(-0.013997 -0.000220082 0)
(-0.0138668 -0.000240235 0)
(-0.0137253 -0.00026008 0)
(-0.0135726 -0.000279584 0)
(-0.013409 -0.000298716 0)
(-0.0132348 -0.000317447 0)
(-0.0130501 -0.000335744 0)
(-0.0128551 -0.000353578 0)
(-0.0126503 -0.000370915 0)
(-0.0124358 -0.000387726 0)
(-0.012212 -0.00040398 0)
(-0.0119792 -0.000419646 0)
(-0.0117378 -0.000434692 0)
(-0.011488 -0.000449089 0)
(-0.0112303 -0.000462806 0)
(-0.0109651 -0.000475814 0)
(-0.0106927 -0.000488081 0)
(-0.0104137 -0.00049958 0)
(-0.0101284 -0.000510281 0)
(-0.00983727 -0.000520156 0)
(-0.00954083 -0.000529176 0)
(-0.00923956 -0.000537315 0)
(-0.00893396 -0.000544545 0)
(-0.00862454 -0.000550842 0)
(-0.00831184 -0.000556178 0)
(-0.00799641 -0.000560531 0)
(-0.0076788 -0.000563877 0)
(-0.00735958 -0.000566192 0)
(-0.00703935 -0.000567456 0)
(-0.00671868 -0.000567647 0)
(-0.0063982 -0.000566748 0)
(-0.00607851 -0.00056474 0)
(-0.00576024 -0.000561606 0)
(-0.00544403 -0.000557331 0)
(-0.0051305 -0.000551903 0)
(-0.00482031 -0.000545309 0)
(-0.00451411 -0.000537539 0)
(-0.00421255 -0.000528586 0)
(-0.00391629 -0.000518444 0)
(-0.00362598 -0.000507111 0)
(-0.0033423 -0.000494585 0)
(-0.00306588 -0.000480869 0)
(-0.00279739 -0.00046597 0)
(-0.00253747 -0.000449895 0)
(-0.00228676 -0.00043266 0)
(-0.00204588 -0.000414281 0)
(-0.00181544 -0.000394784 0)
(-0.00159605 -0.000374196 0)
(-0.00138826 -0.000352554 0)
(-0.00119264 -0.000329904 0)
(-0.0010097 -0.000306301 0)
(-0.000839915 -0.000281809 0)
(-0.000683721 -0.00025651 0)
(-0.0005415 -0.000230499 0)
(-0.000413573 -0.000203894 0)
(-0.000300183 -0.000176837 0)
(-0.000201485 -0.000149501 0)
(-0.000117526 -0.000122097 0)
(-4.82262e-05 -9.48834e-05 0)
(6.64895e-06 -6.81809e-05 0)
(4.75173e-05 -4.23857e-05 0)
(7.5017e-05 -1.79913e-05 0)
(9.0049e-05 4.38651e-06 0)
(9.3825e-05 2.39795e-05 0)
(8.7925e-05 3.98345e-05 0)
(7.43549e-05 5.07852e-05 0)
(5.55586e-05 5.54478e-05 0)
(3.44412e-05 5.22683e-05 0)
(1.50627e-05 3.96965e-05 0)
(3.21436e-06 1.66712e-05 0)
(3.13481e-06 -2.49188e-05 0)
(1.40463e-05 -5.53678e-05 0)
(3.0675e-05 -6.921e-05 0)
(4.67815e-05 -6.91054e-05 0)
(5.79801e-05 -5.7565e-05 0)
(6.11382e-05 -3.68887e-05 0)
(5.36478e-05 -9.08387e-06 0)
(3.33736e-05 2.4156e-05 0)
(-1.36611e-06 6.14303e-05 0)
(-5.18569e-05 0.000101594 0)
(-0.000119043 0.000143718 0)
(-0.000203578 0.000187048 0)
(-0.000305866 0.000230972 0)
(-0.000426099 0.000274995 0)
(-0.000564294 0.000318715 0)
(-0.00072032 0.000361804 0)
(-0.000893919 0.000403997 0)
(-0.00108473 0.000445076 0)
(-0.00129231 0.000484866 0)
(-0.00151614 0.000523223 0)
(-0.00175563 0.000560032 0)
(-0.00201016 0.000595199 0)
(-0.00227905 0.000628652 0)
(-0.00256162 0.000660333 0)
(-0.00285711 0.000690197 0)
(-0.00316479 0.000718212 0)
(-0.0034839 0.000744354 0)
(-0.00381364 0.000768609 0)
(-0.00415324 0.000790968 0)
(-0.0045019 0.000811431 0)
(-0.00485884 0.000830001 0)
(-0.00522324 0.000846686 0)
(-0.00559433 0.000861499 0)
(-0.00597132 0.000874455 0)
(-0.00635341 0.000885574 0)
(-0.00673984 0.000894876 0)
(-0.00712984 0.000902385 0)
(-0.00752264 0.000908127 0)
(-0.0079175 0.000912129 0)
(-0.00831368 0.000914421 0)
(-0.00871045 0.000915032 0)
(-0.00910709 0.000913995 0)
(-0.00950291 0.000911343 0)
(-0.00989722 0.000907108 0)
(-0.0102893 0.000901325 0)
(-0.0106786 0.00089403 0)
(-0.0110644 0.000885257 0)
(-0.011446 0.000875044 0)
(-0.011823 0.000863427 0)
(-0.0121945 0.000850443 0)
(-0.0125602 0.00083613 0)
(-0.0129194 0.000820527 0)
(-0.0132715 0.00080367 0)
(-0.013616 0.0007856 0)
(-0.0139525 0.000766354 0)
(-0.0142804 0.000745972 0)
(-0.0145992 0.000724493 0)
(-0.0149084 0.000701957 0)
(-0.0152076 0.000678403 0)
(-0.0154964 0.000653872 0)
(-0.0157744 0.000628404 0)
(-0.0160411 0.000602038 0)
(-0.0162962 0.000574816 0)
(-0.0165393 0.000546779 0)
(-0.0167701 0.000517967 0)
(-0.0169882 0.000488423 0)
(-0.0171933 0.000458187 0)
(-0.0173852 0.000427302 0)
(-0.0175635 0.00039581 0)
(-0.0177281 0.000363753 0)
(-0.0178786 0.000331174 0)
(-0.0180149 0.000298116 0)
(-0.0181367 0.000264622 0)
(-0.018244 0.000230737 0)
(-0.0183364 0.000196504 0)
(-0.0184139 0.000161968 0)
(-0.0184764 0.000127174 0)
(-0.0185238 9.2167e-05 0)
(-0.0185559 5.69924e-05 0)
(-0.0185728 2.16963e-05 0)
(-0.0185743 -1.36749e-05 0)
(-0.0185605 -4.90745e-05 0)
(-0.0185313 -8.44551e-05 0)
(-0.0184868 -0.000119769 0)
(-0.018427 -0.000154969 0)
(-0.018352 -0.000190007 0)
(-0.0182619 -0.000224833 0)
(-0.0181567 -0.000259399 0)
(-0.0180367 -0.000293656 0)
(-0.0179018 -0.000327554 0)
(-0.0177524 -0.000361042 0)
(-0.0175885 -0.000394072 0)
(-0.0174105 -0.000426593 0)
(-0.0172185 -0.000458553 0)
(-0.0170128 -0.000489904 0)
(-0.0167936 -0.000520593 0)
(-0.0165614 -0.000550569 0)
(-0.0163163 -0.000579783 0)
(-0.0160587 -0.000608184 0)
(-0.0157891 -0.000635719 0)
(-0.0155078 -0.00066234 0)
(-0.0152151 -0.000687995 0)
(-0.0149116 -0.000712635 0)
(-0.0145976 -0.000736209 0)
(-0.0142737 -0.000758669 0)
(-0.0139404 -0.000779965 0)
(-0.013598 -0.000800049 0)
(-0.0132473 -0.000818873 0)
(-0.0128888 -0.00083639 0)
(-0.0125229 -0.000852555 0)
(-0.0121504 -0.000867321 0)
(-0.0117717 -0.000880645 0)
(-0.0113877 -0.000892483 0)
(-0.0109988 -0.000902793 0)
(-0.0106059 -0.000911534 0)
(-0.0102094 -0.000918668 0)
(-0.00981027 -0.000924155 0)
(-0.00940907 -0.000927961 0)
(-0.00900657 -0.000930049 0)
(-0.00860351 -0.000930389 0)
(-0.00820065 -0.00092895 0)
(-0.00779875 -0.000925702 0)
(-0.0073986 -0.000920621 0)
(-0.00700097 -0.000913683 0)
(-0.00660667 -0.000904867 0)
(-0.00621649 -0.000894156 0)
(-0.00583125 -0.000881534 0)
(-0.00545175 -0.000866992 0)
(-0.00507881 -0.000850522 0)
(-0.00471325 -0.000832121 0)
(-0.00435588 -0.00081179 0)
(-0.0040075 -0.000789536 0)
(-0.00366893 -0.00076537 0)
(-0.00334094 -0.000739312 0)
(-0.00302433 -0.000711387 0)
(-0.00271985 -0.000681627 0)
(-0.00242826 -0.000650075 0)
(-0.00215027 -0.000616783 0)
(-0.00188659 -0.000581815 0)
(-0.00163786 -0.00054525 0)
(-0.00140472 -0.000507181 0)
(-0.00118771 -0.000467721 0)
(-0.00098737 -0.000427007 0)
(-0.000804129 -0.0003852 0)
(-0.000638356 -0.000342498 0)
(-0.000490322 -0.000299133 0)
(-0.000360188 -0.000255391 0)
(-0.000247984 -0.000211612 0)
(-0.000153588 -0.000168211 0)
(-7.66985e-05 -0.000125693 0)
(-1.68009e-05 -8.46732e-05 0)
(2.68656e-05 -4.59027e-05 0)
(5.53505e-05 -1.03013e-05 0)
(7.00357e-05 2.10101e-05 0)
(7.26871e-05 4.66738e-05 0)
(6.55071e-05 6.50654e-05 0)
(5.11465e-05 7.42832e-05 0)
(3.27468e-05 7.21821e-05 0)
(1.46852e-05 5.64791e-05 0)
(3.20318e-06 2.48735e-05 0)
(2.77344e-06 -3.20944e-05 0)
(1.18616e-05 -6.90527e-05 0)
(2.45484e-05 -8.36282e-05 0)
(3.46769e-05 -7.97598e-05 0)
(3.77996e-05 -6.0789e-05 0)
(3.067e-05 -2.96716e-05 0)
(1.05809e-05 1.10289e-05 0)
(-2.4698e-05 5.91355e-05 0)
(-7.69442e-05 0.000112822 0)
(-0.000147536 0.000170572 0)
(-0.000237504 0.000231129 0)
(-0.000347573 0.000293459 0)
(-0.000478203 0.000356712 0)
(-0.000629625 0.000420187 0)
(-0.000801877 0.000483307 0)
(-0.000994826 0.000545599 0)
(-0.0012082 0.000606672 0)
(-0.0014416 0.000666206 0)
(-0.00169454 0.000723937 0)
(-0.00196643 0.000779647 0)
(-0.00225662 0.000833163 0)
(-0.00256439 0.000884339 0)
(-0.00288898 0.000933061 0)
(-0.00322957 0.000979238 0)
(-0.00358534 0.0010228 0)
(-0.00395541 0.00106369 0)
(-0.00433889 0.00110187 0)
(-0.00473487 0.00113731 0)
(-0.00514245 0.00117 0)
(-0.00556069 0.00119992 0)
(-0.00598866 0.00122709 0)
(-0.00642544 0.00125151 0)
(-0.00687008 0.0012732 0)
(-0.00732166 0.00129216 0)
(-0.00777926 0.00130844 0)
(-0.00824196 0.00132206 0)
(-0.00870885 0.00133304 0)
(-0.00917903 0.00134144 0)
(-0.00965162 0.00134728 0)
(-0.0101257 0.0013506 0)
(-0.0106005 0.00135146 0)
(-0.0110751 0.00134988 0)
(-0.0115487 0.00134594 0)
(-0.0120204 0.00133966 0)
(-0.0124895 0.0013311 0)
(-0.0129552 0.00132031 0)
(-0.0134166 0.00130734 0)
(-0.0138732 0.00129225 0)
(-0.014324 0.00127509 0)
(-0.0147685 0.00125591 0)
(-0.0152058 0.00123477 0)
(-0.0156354 0.00121172 0)
(-0.0160566 0.00118682 0)
(-0.0164687 0.00116013 0)
(-0.0168711 0.00113171 0)
(-0.0172632 0.0011016 0)
(-0.0176445 0.00106988 0)
(-0.0180143 0.00103659 0)
(-0.0183722 0.0010018 0)
(-0.0187175 0.000965564 0)
(-0.0190499 0.000927943 0)
(-0.0193689 0.000888997 0)
(-0.0196739 0.000848784 0)
(-0.0199646 0.000807367 0)
(-0.0202406 0.000764806 0)
(-0.0205013 0.000721161 0)
(-0.0207466 0.000676495 0)
(-0.020976 0.00063087 0)
(-0.0211892 0.000584348 0)
(-0.0213859 0.000536992 0)
(-0.0215658 0.000488865 0)
(-0.0217287 0.000440031 0)
(-0.0218743 0.000390555 0)
(-0.0220025 0.000340501 0)
(-0.0221129 0.000289935 0)
(-0.0222055 0.000238922 0)
(-0.0222801 0.000187529 0)
(-0.0223366 0.000135823 0)
(-0.0223749 8.38713e-05 0)
(-0.0223949 3.1742e-05 0)
(-0.0223966 -2.04962e-05 0)
(-0.0223799 -7.27741e-05 0)
(-0.0223449 -0.000125022 0)
(-0.0222916 -0.00017717 0)
(-0.02222 -0.000229146 0)
(-0.0221301 -0.00028088 0)
(-0.0220222 -0.000332299 0)
(-0.0218963 -0.000383332 0)
(-0.0217526 -0.000433905 0)
(-0.0215912 -0.000483945 0)
(-0.0214124 -0.000533379 0)
(-0.0212164 -0.000582132 0)
(-0.0210034 -0.000630131 0)
(-0.0207737 -0.000677301 0)
(-0.0205277 -0.000723567 0)
(-0.0202656 -0.000768855 0)
(-0.0199878 -0.000813089 0)
(-0.0196947 -0.000856194 0)
(-0.0193867 -0.000898097 0)
(-0.0190643 -0.000938721 0)
(-0.0187278 -0.000977994 0)
(-0.0183779 -0.00101584 0)
(-0.018015 -0.00105219 0)
(-0.0176396 -0.00108696 0)
(-0.0172523 -0.00112009 0)
(-0.0168538 -0.0011515 0)
(-0.0164445 -0.00118112 0)
(-0.0160252 -0.00120888 0)
(-0.0155965 -0.00123472 0)
(-0.0151592 -0.00125856 0)
(-0.0147138 -0.00128034 0)
(-0.0142612 -0.0013 0)
(-0.013802 -0.00131747 0)
(-0.0133371 -0.00133268 0)
(-0.0128673 -0.00134559 0)
(-0.0123933 -0.00135613 0)
(-0.0119161 -0.00136426 0)
(-0.0114363 -0.0013699 0)
(-0.010955 -0.00137303 0)
(-0.010473 -0.00137358 0)
(-0.00999122 -0.00137152 0)
(-0.0095105 -0.00136681 0)
(-0.0090318 -0.0013594 0)
(-0.00855606 -0.00134928 0)
(-0.00808421 -0.0013364 0)
(-0.0076172 -0.00132074 0)
(-0.00715599 -0.00130229 0)
(-0.00670154 -0.00128103 0)
(-0.00625479 -0.00125695 0)
(-0.00581672 -0.00123006 0)
(-0.00538827 -0.00120035 0)
(-0.0049704 -0.00116784 0)
(-0.00456404 -0.00113255 0)
(-0.00417013 -0.00109451 0)
(-0.00378956 -0.00105376 0)
(-0.00342324 -0.00101036 0)
(-0.00307203 -0.000964371 0)
(-0.00273677 -0.000915876 0)
(-0.00241825 -0.000864975 0)
(-0.00211723 -0.000811789 0)
(-0.00183441 -0.000756462 0)
(-0.00157045 -0.000699165 0)
(-0.00132592 -0.000640103 0)
(-0.00110132 -0.000579521 0)
(-0.000897051 -0.000517709 0)
(-0.000713403 -0.000455012 0)
(-0.000550542 -0.000391845 0)
(-0.000408486 -0.0003287 0)
(-0.000287079 -0.000266171 0)
(-0.000185969 -0.000204968 0)
(-0.000104573 -0.000145947 0)
(-4.20442e-05 -9.01361e-05 0)
(2.76276e-06 -3.87738e-05 0)
(3.13358e-05 6.656e-06 0)
(4.555e-05 4.43848e-05 0)
(4.77166e-05 7.23244e-05 0)
(4.05999e-05 8.80424e-05 0)
(2.74757e-05 8.87684e-05 0)
(1.28284e-05 7.14202e-05 0)
(2.89986e-06 3.24458e-05 0)
(2.22907e-06 -3.78242e-05 0)
(8.63591e-06 -7.89595e-05 0)
(1.57528e-05 -9.20604e-05 0)
(1.78527e-05 -8.22043e-05 0)
(1.06151e-05 -5.35392e-05 0)
(-9.22246e-06 -9.67073e-06 0)
(-4.43841e-05 4.62881e-05 0)
(-9.71225e-05 0.000111683 0)
(-0.000169249 0.000184268 0)
(-0.000262181 0.000262152 0)
(-0.00037699 0.00034375 0)
(-0.000514438 0.000427738 0)
(-0.000675017 0.000513012 0)
(-0.000858978 0.000598654 0)
(-0.00106637 0.000683897 0)
(-0.00129705 0.000768106 0)
(-0.00155073 0.000850751 0)
(-0.00182699 0.000931391 0)
(-0.00212528 0.00100966 0)
(-0.00244498 0.00108527 0)
(-0.00278536 0.00115795 0)
(-0.00314563 0.00122751 0)
(-0.00352493 0.00129379 0)
(-0.00392238 0.00135665 0)
(-0.00433703 0.00141598 0)
(-0.00476791 0.00147171 0)
(-0.00521402 0.00152377 0)
(-0.00567434 0.00157212 0)
(-0.00614783 0.00161673 0)
(-0.00663345 0.00165758 0)
(-0.00713013 0.00169469 0)
(-0.00763682 0.00172804 0)
(-0.00815247 0.00175766 0)
(-0.008676 0.00178357 0)
(-0.00920637 0.00180581 0)
(-0.00974254 0.0018244 0)
(-0.0102834 0.00183939 0)
(-0.0108281 0.00185082 0)
(-0.0113754 0.00185876 0)
(-0.0119245 0.00186324 0)
(-0.0124742 0.00186433 0)
(-0.0130237 0.00186209 0)
(-0.0135719 0.00185658 0)
(-0.014118 0.00184787 0)
(-0.014661 0.00183602 0)
(-0.0152 0.0018211 0)
(-0.0157341 0.00180319 0)
(-0.0162625 0.00178235 0)
(-0.0167843 0.00175866 0)
(-0.0172986 0.00173219 0)
(-0.0178048 0.00170302 0)
(-0.0183019 0.00167121 0)
(-0.0187892 0.00163686 0)
(-0.0192661 0.00160004 0)
(-0.0197317 0.00156082 0)
(-0.0201854 0.00151929 0)
(-0.0206266 0.00147552 0)
(-0.0210545 0.0014296 0)
(-0.0214685 0.0013816 0)
(-0.0218681 0.00133161 0)
(-0.0222527 0.00127971 0)
(-0.0226217 0.00122598 0)
(-0.0229746 0.0011705 0)
(-0.0233109 0.00111336 0)
(-0.0236301 0.00105464 0)
(-0.0239317 0.000994431 0)
(-0.0242154 0.00093281 0)
(-0.0244807 0.000869865 0)
(-0.0247273 0.000805684 0)
(-0.0249548 0.000740352 0)
(-0.0251629 0.000673959 0)
(-0.0253512 0.000606591 0)
(-0.0255196 0.000538337 0)
(-0.0256677 0.000469289 0)
(-0.0257953 0.000399534 0)
(-0.0259023 0.000329166 0)
(-0.0259885 0.000258275 0)
(-0.0260538 0.000186955 0)
(-0.0260979 0.000115298 0)
(-0.0261209 4.33978e-05 0)
(-0.0261227 -2.86497e-05 0)
(-0.0261033 -0.000100749 0)
(-0.0260627 -0.000172805 0)
(-0.0260008 -0.000244719 0)
(-0.0259178 -0.000316393 0)
(-0.0258138 -0.000387731 0)