/*--------------------------------*- C++ -*----------------------------------*\
  =========                 |
  \\      /  F ield         | OpenFOAM: The Open Source CFD Toolbox
   \\    /   O peration     | Website:  https://openfoam.org
    \\  /    A nd           | Version:  7
     \\/     M anipulation  |
\*---------------------------------------------------------------------------*/
FoamFile
{
    version     2.0;
    format      ascii;
    class       volScalarField;
    location    "0.1";
    object      p;
}
// * * * * * * * * * * * * * * * * * * * * * * * * * * * * * * * * * * * * * //

dimensions      [0 2 -2 0 0 0 0];

internalField   nonuniform List<scalar> 
25600
(
1.96107e-09
-3.24761e-07
-3.18986e-06
-8.41474e-06
-1.52413e-05
-2.29203e-05
-3.08391e-05
-3.85423e-05
-4.56928e-05
-5.2042e-05
-5.7414e-05
-6.17045e-05
-6.48508e-05
-6.67931e-05
-6.74733e-05
-6.6865e-05
-6.49865e-05
-6.18748e-05
-5.75521e-05
-5.2019e-05
-4.52753e-05
-3.73393e-05
-2.82456e-05
-1.8028e-05
-6.70526e-06
5.71877e-06
1.92417e-05
3.38506e-05
4.95233e-05
6.62398e-05
8.39919e-05
0.00010278
0.000122604
0.000143454
0.000165317
0.000188179
0.000212037
0.000236891
0.000262737
0.000289568
0.000317371
0.000346138
0.000375863
0.000406542
0.000438172
0.00047074
0.000504237
0.000538653
0.000573979
0.000610209
0.000647334
0.000685342
0.00072422
0.000763958
0.000804544
0.000845967
0.000888217
0.000931277
0.000975135
0.00101977
0.00106518
0.00111134
0.00115824
0.00120586
0.00125417
0.00130318
0.00135284
0.00140315
0.00145408
0.00150562
0.00155774
0.00161042
0.00166363
0.00171736
0.00177157
0.00182625
0.00188137
0.00193689
0.0019928
0.00204907
0.00210566
0.00216256
0.00221972
0.00227713
0.00233474
0.00239254
0.00245049
0.00250855
0.0025667
0.00262491
0.00268313
0.00274134
0.00279951
0.0028576
0.00291557
0.0029734
0.00303104
0.00308846
0.00314563
0.00320251
0.00325907
0.00331526
0.00337104
0.00342639
0.00348127
0.00353563
0.00358943
0.00364265
0.00369523
0.00374715
0.00379836
0.00384882
0.00389849
0.00394734
0.00399532
0.0040424
0.00408854
0.0041337
0.00417784
0.00422093
0.00426292
0.00430379
0.0043435
0.004382
0.00441928
0.00445529
0.00449
0.00452338
0.00455539
0.00458601
0.00461521
0.00464294
0.00466919
0.00469392
0.0047171
0.0047387
0.00475869
0.00477703
0.0047937
0.00480868
0.00482191
0.00483339
0.00484309
0.00485098
0.00485705
0.0048613
0.00486372
0.00486435
0.00486322
0.00486039
0.00485598
0.00485011
0.00484299
0.0048349
0.0048262
0.00481737
0.00480905
0.00480204
0.0047974
0.00479592
1.73316e-06
1.33369e-06
-1.14812e-06
-5.41298e-06
-1.08805e-05
-1.70519e-05
-2.34844e-05
-2.98036e-05
-3.57165e-05
-4.09919e-05
-4.5445e-05
-4.89466e-05
-5.14213e-05
-5.28187e-05
-5.30878e-05
-5.21828e-05
-5.00836e-05
-4.68e-05
-4.2352e-05
-3.6751e-05
-2.99968e-05
-2.20906e-05
-1.30455e-05
-2.88459e-06
8.36978e-06
2.07051e-05
3.41174e-05
4.86024e-05
6.41491e-05
8.07415e-05
9.83662e-05
0.000117016
0.00013669
0.000157383
0.000179089
0.000201795
0.000225493
0.000250178
0.000275846
0.000302494
0.000330112
0.000358693
0.000388227
0.000418708
0.000450131
0.000482489
0.000515772
0.000549971
0.000585075
0.000621077
0.000657967
0.000695735
0.00073437
0.000773861
0.000814195
0.000855361
0.000897347
0.00094014
0.000983725
0.00102809
0.00107321
0.00111909
0.0011657
0.00121302
0.00126103
0.00130973
0.00135909
0.00140908
0.0014597
0.00151091
0.00156271
0.00161505
0.00166793
0.00172132
0.00177519
0.00182952
0.00188429
0.00193946
0.00199501
0.00205092
0.00210715
0.00216368
0.00222047
0.0022775
0.00233475
0.00239216
0.00244973
0.00250741
0.00256518
0.002623
0.00268083
0.00273866
0.00279643
0.00285413
0.00291171
0.00296915
0.0030264
0.00308343
0.00314021
0.0031967
0.00325286
0.00330866
0.00336406
0.00341902
0.00347351
0.00352748
0.0035809
0.00363374
0.00368594
0.00373748
0.00378831
0.0038384
0.00388771
0.00393619
0.00398381
0.00403054
0.00407632
0.00412113
0.00416493
0.00420768
0.00424935
0.00428989
0.00432928
0.00436748
0.00440445
0.00444016
0.00447458
0.00450768
0.00453943
0.00456979
0.00459873
0.00462623
0.00465225
0.00467677
0.00469975
0.00472117
0.00474101
0.00475923
0.00477581
0.00479072
0.00480394
0.00481546
0.00482526
0.00483333
0.00483966
0.00484427
0.00484717
0.0048484
0.00484801
0.00484609
0.00484275
0.00483814
0.00483246
0.00482597
0.004819
0.00481196
0.00480535
0.00479976
0.00479593
0.00479445
6.56915e-06
5.3295e-06
2.58084e-06
-1.41316e-06
-6.26783e-06
-1.1631e-05
-1.71797e-05
-2.2615e-05
-2.76916e-05
-3.22136e-05
-3.60112e-05
-3.89434e-05
-4.09179e-05
-4.18861e-05
-4.1812e-05
-4.0653e-05
-3.83695e-05
-3.49445e-05
-3.0386e-05
-2.47098e-05
-1.79231e-05
-1.00234e-05
-1.01014e-06
9.10748e-06
2.03119e-05
3.25857e-05
4.59191e-05
6.03088e-05
7.57516e-05
9.22394e-05
0.000109759
0.0001283
0.000147853
0.000168418
0.00018999
0.000212564
0.000236128
0.000260675
0.000286198
0.000312693
0.000340157
0.000368582
0.000397958
0.000428277
0.000459531
0.000491715
0.000524822
0.000558842
0.000593765
0.00062958
0.000666279
0.000703851
0.000742288
0.000781579
0.000821709
0.000862667
0.000904441
0.000947017
0.000990383
0.00103452
0.00107943
0.00112507
0.00117144
0.00121853
0.00126631
0.00131476
0.00136387
0.00141361
0.00146398
0.00151493
0.00156647
0.00161855
0.00167116
0.00172428
0.00177788
0.00183193
0.00188642
0.00194131
0.00199658
0.0020522
0.00210814
0.00216438
0.00222088
0.00227762
0.00233457
0.00239169
0.00244896
0.00250634
0.00256381
0.00262132
0.00267886
0.00273638
0.00279386
0.00285125
0.00290853
0.00296566
0.00302261
0.00307934
0.00313582
0.00319201
0.00324787
0.00330337
0.00335847
0.00341313
0.00346732
0.003521
0.00357413
0.00362667
0.00367858
0.00372983
0.00378037
0.00383018
0.0038792
0.0039274
0.00397474
0.00402119
0.00406671
0.00411125
0.00415479
0.00419728
0.00423869
0.00427898
0.00431812
0.00435608
0.00439282
0.00442831
0.00446251
0.0044954
0.00452694
0.00455711
0.00458587
0.00461319
0.00463905
0.00466342
0.00468627
0.00470757
0.0047273
0.00474545
0.00476197
0.00477686
0.0047901
0.00480168
0.00481158
0.00481981
0.00482636
0.00483127
0.00483454
0.00483624
0.00483642
0.00483517
0.0048326
0.00482886
0.00482414
0.00481868
0.00481277
0.00480673
0.00480098
0.00479596
0.00479214
0.00478986
1.35378e-05
1.09741e-05
7.57914e-06
3.43381e-06
-1.28494e-06
-6.30928e-06
-1.13936e-05
-1.63024e-05
-2.08299e-05
-2.48164e-05
-2.81279e-05
-3.06391e-05
-3.22463e-05
-3.28846e-05
-3.2521e-05
-3.11286e-05
-2.86743e-05
-2.51292e-05
-2.04817e-05
-1.47368e-05
-7.90393e-06
1.19057e-08
9.01074e-06
1.90924e-05
3.0251e-05
4.24745e-05
5.57494e-05
7.00668e-05
8.54233e-05
0.000101817
0.00011924
0.000137683
0.000157136
0.000177591
0.000199047
0.0002215
0.000244943
0.000269367
0.000294764
0.000321129
0.000348456
0.000376741
0.000405977
0.000436153
0.000467262
0.000499295
0.000532247
0.00056611
0.000600874
0.000636529
0.000673064
0.000710469
0.000748735
0.000787852
0.000827808
0.000868589
0.000910182
0.000952575
0.000995755
0.00103971
0.00108442
0.00112987
0.00117604
0.00122293
0.0012705
0.00131875
0.00136765
0.00141719
0.00146734
0.00151808
0.00156939
0.00162125
0.00167364
0.00172653
0.00177991
0.00183373
0.00188798
0.00194264
0.00199767
0.00205305
0.00210876
0.00216475
0.00222101
0.00227751
0.00233421
0.00239109
0.00244811
0.00250525
0.00256247
0.00261974
0.00267703
0.00273431
0.00279154
0.0028487
0.00290573
0.00296262
0.00301933
0.00307582
0.00313206
0.003188
0.00324363
0.00329889
0.00335375
0.00340818
0.00346213
0.00351557
0.00356847
0.00362077
0.00367245
0.00372347
0.00377378
0.00382335
0.00387214
0.00392012
0.00396724
0.00401346
0.00405876
0.00410309
0.00414641
0.00418869
0.0042299
0.00426999
0.00430894
0.00434671
0.00438326
0.00441857
0.00445261
0.00448533
0.00451672
0.00454673
0.00457535
0.00460255
0.00462829
0.00465255
0.0046753
0.00469653
0.0047162
0.0047343
0.00475081
0.0047657
0.00477898
0.00479062
0.00480063
0.004809
0.00481576
0.00482091
0.0048245
0.00482656
0.00482718
0.00482642
0.00482441
0.00482127
0.00481719
0.00481236
0.00480703
0.00480148
0.00479602
0.004791
0.0047866
0.00478291
2.16766e-05
1.75816e-05
1.336e-05
8.8633e-06
4.0517e-06
-8.66037e-07
-5.70224e-06
-1.02848e-05
-1.44422e-05
-1.8033e-05
-2.09525e-05
-2.31096e-05
-2.44137e-05
-2.47886e-05
-2.41868e-05
-2.25836e-05
-1.99598e-05
-1.62937e-05
-1.15652e-05
-5.764e-06
1.10938e-06
9.04824e-06
1.8047e-05
2.81041e-05
3.92201e-05
5.13914e-05
6.46093e-05
7.88631e-05
9.41455e-05
0.000110453
0.000127782
0.000146128
0.000165482
0.000185837
0.000207185
0.000229523
0.000252847
0.000277151
0.000302427
0.000328668
0.000355868
0.000384021
0.00041312
0.000443159
0.00047413
0.000506022
0.00053883
0.000572545
0.000607159
0.000642662
0.000679043
0.000716293
0.000754401
0.000793357
0.00083315
0.000873766
0.000915193
0.000957417
0.00100043
0.0010442
0.00108874
0.00113401
0.00118001
0.00122671
0.0012741
0.00132216
0.00137087
0.00142021
0.00147016
0.00152071
0.00157182
0.00162349
0.00167567
0.00172836
0.00178152
0.00183514
0.00188918
0.00194362
0.00199844
0.00205361
0.00210909
0.00216487
0.00222092
0.00227719
0.00233368
0.00239034
0.00244715
0.00250407
0.00256107
0.00261813
0.00267521
0.00273227
0.00278929
0.00284623
0.00290306
0.00295974
0.00301624
0.00307252
0.00312855
0.00318429
0.00323971
0.00329476
0.00334942
0.00340364
0.00345739
0.00351063
0.00356332
0.00361542
0.0036669
0.00371772
0.00376783
0.0038172
0.00386579
0.00391357
0.00396049
0.00400653
0.00405163
0.00409577
0.00413891
0.00418101
0.00422204
0.00426196
0.00430074
0.00433834
0.00437474
0.0044099
0.00444379
0.00447638
0.00450763
0.00453753
0.00456604
0.00459313
0.00461877
0.00464295
0.00466564
0.00468681
0.00470644
0.00472452
0.00474102
0.00475594
0.00476926
0.00478097
0.00479109
0.00479961
0.00480654
0.00481192
0.00481577
0.00481815
0.00481912
0.00481876
0.00481718
0.0048145
0.00481086
0.00480645
0.00480145
0.00479609
0.00479062
0.0047853
0.00478004
0.00477465
3.04264e-05
2.47141e-05
1.95452e-05
1.45533e-05
9.48493e-06
4.50296e-06
-2.45483e-07
-4.64817e-06
-8.57898e-06
-1.1912e-05
-1.45501e-05
-1.64243e-05
-1.74722e-05
-1.76299e-05
-1.68414e-05
-1.50711e-05
-1.23005e-05
-8.51677e-06
-3.70532e-06
2.14797e-06
9.05141e-06
1.70058e-05
2.60071e-05
3.60509e-05
4.71349e-05
5.92581e-05
7.24179e-05
8.66089e-05
0.000101824
0.000118056
0.0001353
0.000153553
0.00017281
0.000193066
0.000214314
0.000236547
0.00025976
0.000283949
0.000309108
0.000335231
0.000362311
0.000390341
0.000419314
0.000449223
0.000480062
0.000511823
0.000544497
0.000578076
0.00061255
0.000647912
0.000684151
0.000721258
0.000759222
0.000798032
0.000837675
0.000878141
0.000919415
0.000961486
0.00100434
0.00104796
0.00109234
0.00113745
0.00118328
0.00122982
0.00127704
0.00132493
0.00137347
0.00142264
0.00147242
0.00152279
0.00157373
0.00162521
0.00167721
0.00172972
0.00178269
0.00183612
0.00188998
0.00194423
0.00199886
0.00205384
0.00210914
0.00216473
0.00222058
0.00227667
0.00233297
0.00238944
0.00244606
0.00250279
0.00255961
0.00261648
0.00267338
0.00273026
0.0027871
0.00284386
0.00290052
0.00295702
0.00301335
0.00306945
0.00312531
0.00318088
0.00323613
0.00329101
0.0033455
0.00339955
0.00345313
0.0035062
0.00355872
0.00361066
0.00366197
0.00371261
0.00376255
0.00381176
0.00386018
0.0039078
0.00395455
0.00400042
0.00404537
0.00408935
0.00413233
0.00417428
0.00421516
0.00425494
0.00429358
0.00433105
0.00436732
0.00440236
0.00443613
0.00446861
0.00449976
0.00452956
0.00455798
0.004585
0.00461057
0.00463469
0.00465733
0.00467847
0.00469808
0.00471615
0.00473267
0.00474761
0.00476099
0.00477278
0.00478299
0.00479164
0.00479874
0.00480431
0.00480839
0.00481102
0.00481227
0.00481222
0.00481095
0.00480858
0.00480523
0.00480104
0.00479618
0.0047908
0.00478511
0.00477929
0.00477303
0.00476587
3.92646e-05
3.19726e-05
2.58122e-05
2.02362e-05
1.47972e-05
9.6156e-06
4.8186e-06
4.79456e-07
-3.32666e-06
-6.5064e-06
-8.96916e-06
-1.06483e-05
-1.14975e-05
-1.1474e-05
-1.05324e-05
-8.63325e-06
-5.7507e-06
-1.87005e-06
3.01869e-06
8.92464e-06
1.58562e-05
2.38198e-05
3.28179e-05
4.28488e-05
5.3908e-05
6.5992e-05
7.90994e-05
9.32291e-05
0.000108378
0.000124539
0.000141707
0.000159876
0.000179042
0.000199204
0.000220355
0.00024249
0.000265601
0.000289684
0.000314733
0.000340745
0.000367713
0.000395628
0.000424485
0.000454275
0.000484992
0.000516631
0.000549182
0.000582636
0.000616984
0.000652218
0.000688328
0.000725305
0.000763139
0.000801816
0.000841327
0.000881658
0.000922796
0.00096473
0.00100745
0.00105093
0.00109516
0.00114013
0.00118582
0.00123221
0.00127929
0.00132703
0.00137542
0.00142444
0.00147407
0.00152428
0.00157506
0.00162639
0.00167823
0.00173058
0.0017834
0.00183666
0.00189036
0.00194445
0.00199892
0.00205373
0.00210887
0.0021643
0.00221999
0.00227592
0.00233206
0.00238837
0.00244484
0.00250142
0.00255809
0.00261481
0.00267155
0.00272829
0.00278499
0.00284161
0.00289812
0.00295448
0.00301067
0.00306664
0.00312236
0.0031778
0.00323291
0.00328766
0.00334201
0.00339593
0.00344938
0.00350231
0.0035547
0.0036065
0.00365767
0.00370818
0.00375799
0.00380706
0.00385535
0.00390283
0.00394946
0.0039952
0.00404001
0.00408387
0.00412673
0.00416855
0.00420932
0.00424898
0.00428752
0.00432489
0.00436106
0.004396
0.00442969
0.00446209
0.00449316
0.0045229
0.00455126
0.00457822
0.00460375
0.00462783
0.00465045
0.00467156
0.00469117
0.00470925
0.00472579
0.00474077
0.0047542
0.00476607
0.00477638
0.00478514
0.00479237
0.0047981
0.00480236
0.00480519
0.00480665
0.00480682
0.00480576
0.00480358
0.00480038
0.00479627
0.00479139
0.00478583
0.00477977
0.00477335
0.00476603
0.00475717
4.77742e-05
3.90049e-05
3.1868e-05
2.56707e-05
1.98028e-05
1.4339e-05
9.38851e-06
5.00971e-06
1.24621e-06
-1.84894e-06
-4.20902e-06
-5.77039e-06
-6.48704e-06
-6.3268e-06
-5.26007e-06
-3.25622e-06
-2.87907e-07
3.66455e-06
8.61292e-06
1.45641e-05
2.15234e-05
2.94964e-05
3.84884e-05
4.85019e-05
5.95352e-05
7.15845e-05
8.46471e-05
9.87217e-05
0.000113807
0.000129899
0.000146994
0.000165086
0.000184171
0.000204245
0.000225305
0.000247346
0.000270362
0.000294347
0.000319297
0.000345205
0.000372067
0.000399876
0.000428625
0.000458307
0.000488914
0.000520441
0.000552879
0.00058622
0.000620455
0.000655574
0.000691569
0.00072843
0.000766146
0.000804707
0.000844099
0.000884311
0.00092533
0.000967144
0.00100974
0.0010531
0.00109721
0.00114205
0.00118762
0.00123388
0.00128083
0.00132845
0.00137671
0.0014256
0.00147509
0.00152518
0.00157582
0.00162701
0.00167873
0.00173093
0.00178362
0.00183675
0.00189031
0.00194426
0.0019986
0.00205328
0.00210828
0.00216357
0.00221914
0.00227494
0.00233095
0.00238714
0.00244348
0.00249994
0.00255649
0.00261309
0.00266972
0.00272635
0.00278294
0.00283945
0.00289585
0.00295211
0.0030082
0.00306407
0.00311969
0.00317502
0.00323003
0.00328469
0.00333894
0.00339276
0.00344611
0.00349894
0.00355123
0.00360293
0.003654
0.00370441
0.00375412
0.00380308
0.00385127
0.00389865
0.00394518
0.00399082
0.00403554
0.0040793
0.00412207
0.00416381
0.00420449
0.00424408
0.00428253
0.00431983
0.00435593
0.00439082
0.00442444
0.00445679
0.00448782
0.00451751
0.00454583
0.00457276
0.00459827
0.00462234
0.00464494
0.00466606
0.00468568
0.00470377
0.00472034
0.00473537
0.00474885
0.00476079
0.00477118
0.00478004
0.00478739
0.00479324
0.00479764
0.00480062
0.00480223
0.00480253
0.0048016
0.00479952
0.00479636
0.00479222
0.0047872
0.00478137
0.00477486
0.00476778
0.00475943
0.004749
5.56364e-05
4.55311e-05
3.74688e-05
3.06403e-05
2.43172e-05
1.8536e-05
1.33729e-05
8.87392e-06
5.07511e-06
2.005e-06
-3.00605e-07
-1.79519e-06
-2.43454e-06
-2.18708e-06
-1.0307e-06
1.05529e-06
4.09213e-06
8.09853e-06
1.30882e-05
1.90701e-05
2.60499e-05
3.40315e-05
4.30184e-05
5.30134e-05
6.40181e-05
7.6032e-05
8.9053e-05
0.000103078
0.000118106
0.000134133
0.000151158
0.000169178
0.000188187
0.000208181
0.000229157
0.00025111
0.000274037
0.000297931
0.000322789
0.000348604
0.000375369
0.00040308
0.00043173
0.000461313
0.000491821
0.000523248
0.000555585
0.000588824
0.000622957
0.000657974
0.000693868
0.000730626
0.00076824
0.000806698
0.000845987
0.000886095
0.000927011
0.000968721
0.00101121
0.00105447
0.00109847
0.00114321
0.00118867
0.00123483
0.00128167
0.00132917
0.00137733
0.00142611
0.00147549
0.00152546
0.001576
0.00162708
0.00167868
0.00173077
0.00178335
0.00183637
0.00188982
0.00194366
0.00199789
0.00205246
0.00210736
0.00216255
0.00221801
0.00227371
0.00232963
0.00238572
0.00244197
0.00249834
0.0025548
0.00261133
0.00266788
0.00272443
0.00278094
0.00283738
0.00289371
0.0029499
0.00300592
0.00306172
0.00311728
0.00317254
0.00322749
0.00328208
0.00333627
0.00339002
0.0034433
0.00349607
0.00354829
0.00359992
0.00365093
0.00370127
0.00375091
0.00379981
0.00384793
0.00389524
0.00394171
0.00398729
0.00403194
0.00407565
0.00411836
0.00416004
0.00420067
0.00424021
0.00427862
0.00431587
0.00435194
0.00438678
0.00442038
0.0044527
0.00448371
0.00451338
0.00454169
0.00456861
0.00459411
0.00461818
0.00464079
0.00466192
0.00468156
0.00469968
0.00471629
0.00473136
0.00474489
0.00475689
0.00476736
0.0047763
0.00478374
0.00478969
0.00479419
0.00479727
0.00479897
0.00479936
0.00479849
0.00479642
0.00479323
0.00478898
0.00478375
0.00477758
0.00477058
0.00476284
0.00475353
0.00474169
6.26107e-05
5.13297e-05
4.24217e-05
3.49752e-05
2.81807e-05
2.20639e-05
1.66654e-05
1.20032e-05
8.10799e-06
5.00381e-06
2.70811e-06
1.24506e-06
6.46274e-07
9.40847e-07
2.1502e-06
4.29086e-06
7.37771e-06
1.14244e-05
1.64428e-05
2.2443e-05
2.94327e-05
3.74166e-05
4.63965e-05
5.6374e-05
6.73508e-05
7.93289e-05
9.23082e-05
0.000106287
0.000121261
0.00013723
0.00015419
0.00017214
0.000191078
0.000210999
0.000231898
0.000253772
0.000276616
0.000300427
0.0003252
0.000350928
0.000377607
0.000405229
0.00043379
0.000463284
0.000493704
0.000525041
0.000557289
0.000590438
0.000624482
0.000659411
0.000695215
0.000731886
0.000769412
0.000807781
0.000846981
0.000887002
0.00092783
0.000969453
0.00101185
0.00105502
0.00109894
0.00114359
0.00118896
0.00123503
0.00128178
0.0013292
0.00137726
0.00142595
0.00147525
0.00152513
0.00157558
0.00162657
0.00167808
0.00173009
0.00178257
0.00183551
0.00188887
0.00194264
0.00199678
0.00205128
0.0021061
0.00216122
0.00221661
0.00227224
0.00232809
0.00238412
0.00244031
0.00249663
0.00255304
0.00260951
0.00266602
0.00272252
0.00277899
0.00283539
0.00289168
0.00294784
0.00300382
0.00305959
0.00311511
0.00317035
0.00322527
0.00327982
0.00333398
0.0033877
0.00344095
0.00349369
0.00354587
0.00359747
0.00364844
0.00369875
0.00374835
0.00379722
0.00384531
0.00389259
0.00393902
0.00398457
0.0040292
0.00407288
0.00411556
0.00415723
0.00419784
0.00423736
0.00427575
0.004313
0.00434905
0.00438389
0.00441749
0.0044498
0.00448081
0.00451049
0.00453881
0.00456574
0.00459126
0.00461534
0.00463797
0.00465913
0.0046788
0.00469695
0.0047136
0.00472871
0.0047423
0.00475435
0.00476488
0.00477389
0.00478139
0.00478742
0.00479198
0.00479513
0.00479688
0.0047973
0.00479643
0.00479433
0.00479105
0.00478664
0.00478115
0.00477462
0.00476713
0.00475875
0.00474856
0.00473549
6.8518e-05
5.62154e-05
4.65587e-05
3.85387e-05
3.12736e-05
2.48038e-05
1.91566e-05
1.43153e-05
1.02914e-05
7.10759e-06
4.77777e-06
3.31212e-06
2.72624e-06
3.04075e-06
4.27495e-06
6.44379e-06
9.55889e-06
1.36302e-05
1.86669e-05
2.46771e-05
3.16685e-05
3.96465e-05
4.8614e-05
5.85725e-05
6.9523e-05
8.14671e-05
9.44056e-05
0.000108338
0.000123262
0.000139176
0.000156077
0.000173965
0.000192837
0.000212689
0.000233517
0.000255318
0.000278088
0.000301824
0.000326519
0.00035217
0.000378771
0.000406315
0.000434797
0.000464213
0.000494554
0.000525813
0.000557983
0.000591056
0.000625023
0.000659876
0.000695605
0.000732201
0.000769653
0.000807948
0.000847075
0.000887024
0.00092778
0.00096933
0.00101166
0.00105476
0.0010986
0.00114318
0.00118848
0.00123448
0.00128117
0.00132851
0.00137651
0.00142513
0.00147436
0.00152417
0.00157455
0.00162548
0.00167692
0.00172887
0.00178129
0.00183417
0.00188747
0.00194118
0.00199527
0.00204972
0.00210449
0.00215957
0.00221491
0.00227051
0.00232633
0.00238233
0.00243849
0.00249478
0.00255118
0.00260763
0.00266412
0.00272062
0.00277708
0.00283347
0.00288977
0.00294592
0.0030019
0.00305767
0.00311319
0.00316843
0.00322335
0.00327791
0.00333207
0.00338579
0.00343904
0.00349177
0.00354396
0.00359556
0.00364653
0.00369683
0.00374644
0.00379531
0.0038434
0.00389068
0.00393712
0.00398267
0.00402731
0.00407099
0.00411369
0.00415537
0.00419599
0.00423552
0.00427394
0.0043112
0.00434728
0.00438214
0.00441576
0.0044481
0.00447914
0.00450884
0.00453718
0.00456414
0.00458969
0.00461381
0.00463647
0.00465766
0.00467736
0.00469556
0.00471225
0.00472741
0.00474104
0.00475314
0.00476372
0.00477278
0.00478034
0.00478641
0.00479102
0.0047942
0.00479598
0.00479639
0.00479548
0.0047933
0.00478989
0.00478528
0.00477952
0.00477261
0.00476464
0.00475568
0.0047447
0.00473056
7.32427e-05
6.00467e-05
4.9731e-05
4.1202e-05
3.34972e-05
2.66694e-05
2.07572e-05
1.57259e-05
1.15613e-05
8.2738e-06
5.87618e-06
4.3747e-06
3.77512e-06
4.08816e-06
5.32714e-06
7.50382e-06
1.06276e-05
1.4707e-05
1.97498e-05
2.57621e-05
3.27492e-05
4.07157e-05
4.96655e-05
5.96014e-05
7.0525e-05
8.24366e-05
9.53364e-05
0.000109224
0.0001241
0.000139962
0.00015681
0.000174641
0.000193452
0.000213241
0.000234005
0.000255741
0.000278445
0.000302113
0.00032674
0.000352321
0.000378853
0.000406328
0.000434743
0.000464091
0.000494364
0.000525557
0.000557661
0.000590669
0.000624572
0.000659363
0.00069503
0.000731565
0.000768956
0.000807192
0.000846262
0.000886153
0.000926852
0.000968347
0.00101062
0.00105367
0.00109746
0.00114199
0.00118723
0.00123318
0.00127981
0.00132711
0.00137505
0.00142363
0.00147281
0.00152258
0.00157291
0.00162379
0.0016752
0.0017271
0.00177949
0.00183233
0.00188561
0.00193929
0.00199335
0.00204778
0.00210253
0.00215759
0.00221293
0.00226852
0.00232433
0.00238034
0.00243651
0.00249281
0.00254922
0.00260569
0.0026622
0.00271872
0.0027752
0.00283163
0.00288795
0.00294413
0.00300014
0.00305595
0.0031115
0.00316678
0.00322173
0.00327632
0.00333051
0.00338427
0.00343755
0.00349032
0.00354254
0.00359417
0.00364517
0.00369551
0.00374515
0.00379406
0.00384219
0.00388951
0.00393599
0.00398158
0.00402626
0.00406999
0.00411273
0.00415445
0.00419512
0.00423471
0.00427317
0.00431048
0.00434661
0.00438152
0.00441519
0.00444757
0.00447866
0.00450841
0.0045368
0.00456381
0.0045894
0.00461356
0.00463627
0.00465751
0.00467725
0.00469549
0.00471222
0.00472743
0.00474111
0.00475326
0.00476388
0.00477298
0.00478058
0.00478668
0.00479131
0.0047945
0.00479626
0.00479664
0.00479567
0.00479339
0.00478982
0.004785
0.00477895
0.00477168
0.00476326
0.00475376
0.00474209
0.00472704
7.67176e-05
6.27354e-05
5.18289e-05
4.28485e-05
3.47536e-05
2.75874e-05
2.14024e-05
1.61675e-05
1.18533e-05
8.45164e-06
5.96723e-06
4.40519e-06
3.76799e-06
4.05931e-06
5.28562e-06
7.45432e-06
1.05723e-05
1.46464e-05
1.96832e-05
2.56879e-05
3.26641e-05
4.0615e-05
4.9544e-05
5.94547e-05
7.03492e-05
8.22281e-05
9.50909e-05
0.000108937
0.000123768
0.000139583
0.000156381
0.000174159
0.000192916
0.000212648
0.000233355
0.000255032
0.000277677
0.000301285
0.000325853
0.000351375
0.000377846
0.000405263
0.000433621
0.000462911
0.000493129
0.000524267
0.000556317
0.000589272
0.000623124
0.000657865
0.000693484
0.000729972
0.000767317
0.000805508
0.000844534
0.000884383
0.000925042
0.000966497
0.00100873
0.00105174
0.00109549
0.00113998
0.0011852
0.00123111
0.00127771
0.00132498
0.00137289
0.00142144
0.00147059
0.00152033
0.00157065
0.00162151
0.0016729
0.00172479
0.00177716
0.00183
0.00188327
0.00193695
0.00199102
0.00204545
0.00210022
0.00215529
0.00221065
0.00226627
0.00232211
0.00237815
0.00243436
0.0024907
0.00254715
0.00260368
0.00266024
0.00271681
0.00277336
0.00282984
0.00288622
0.00294247
0.00299854
0.00305441
0.00311003
0.00316537
0.00322039
0.00327504
0.0033293
0.00338313
0.00343647
0.00348931
0.0035416
0.00359329
0.00364437
0.00369478
0.00374449
0.00379347
0.00384167
0.00388907
0.00393562
0.00398129
0.00402605
0.00406986
0.00411268
0.00415448
0.00419523
0.00423489
0.00427344
0.00431083
0.00434703
0.00438202
0.00441576
0.00444822
0.00447938
0.0045092
0.00453765
0.00456472
0.00459037
0.00461459
0.00463736
0.00465865
0.00467845
0.00469674
0.00471352
0.00472877
0.00474249
0.00475468
0.00476534
0.00477448
0.0047821
0.00478823
0.00479287
0.00479604
0.00479778
0.0047981
0.00479705
0.00479464
0.0047909
0.00478586
0.00477953
0.00477191
0.00476308
0.00475309
0.00474083
0.00472501
7.88856e-05
6.42254e-05
5.27889e-05
4.33953e-05
3.49518e-05
2.74823e-05
2.10359e-05
1.55901e-05
1.11153e-05
7.59118e-06
5.01033e-06
3.37336e-06
2.68103e-06
2.93297e-06
4.13046e-06
6.27724e-06
9.37785e-06
1.34367e-05
1.8458e-05
2.44459e-05
3.14038e-05
3.93346e-05
4.82407e-05
5.81249e-05
6.8989e-05
8.08342e-05
9.36607e-05
0.000107469
0.000122258
0.000138029
0.000154781
0.000172512
0.00019122
0.000210903
0.000231558
0.000253185
0.000275778
0.000299335
0.000323852
0.000349323
0.000375746
0.000403115
0.000431424
0.000460669
0.000490842
0.000521936
0.000553945
0.00058686
0.000620674
0.000655378
0.000690962
0.000727415
0.000764728
0.000802889
0.000841886
0.000881708
0.000922341
0.000963771
0.00100599
0.00104897
0.0010927
0.00113718
0.00118237
0.00122827
0.00127486
0.00132211
0.00137002
0.00141855
0.0014677
0.00151744
0.00156775
0.00161862
0.00167001
0.00172192
0.00177431
0.00182716
0.00188045
0.00193416
0.00198826
0.00204273
0.00209754
0.00215266
0.00220807
0.00226375
0.00231965
0.00237576
0.00243203
0.00248845
0.00254498
0.00260159
0.00265823
0.00271489
0.00277153
0.0028281
0.00288457
0.00294091
0.00299709
0.00305305
0.00310877
0.0031642
0.00321932
0.00327407
0.00332843
0.00338235
0.0034358
0.00348874
0.00354113
0.00359293
0.0036441
0.00369462
0.00374444
0.00379353
0.00384184
0.00388935
0.00393601
0.0039818
0.00402667
0.00407059
0.00411353
0.00415545
0.00419631
0.00423609
0.00427474
0.00431224
0.00434855
0.00438364
0.00441748
0.00445003
0.00448128
0.00451119
0.00453972
0.00456687
0.0045926
0.00461689
0.00463972
0.00466108
0.00468094
0.00469929
0.00471612
0.00473142
0.00474519
0.00475743
0.00476812
0.00477729
0.00478493
0.00479106
0.0047957
0.00479885
0.00480055
0.00480081
0.00479965
0.00479711
0.0047932
0.00478794
0.00478133
0.00477339
0.00476418
0.00475377
0.00474098
0.00472452
7.96833e-05
6.44631e-05
5.25682e-05
4.27936e-05
3.40263e-05
2.62838e-05
1.95998e-05
1.39486e-05
9.30647e-06
5.65152e-06
2.96746e-06
1.24721e-06
4.88133e-07
6.87486e-07
1.84333e-06
3.95643e-06
7.02922e-06
1.10639e-05
1.60622e-05
2.20265e-05
2.89601e-05
3.68661e-05
4.57466e-05
5.5603e-05
6.64365e-05
7.82483e-05
9.10396e-05
0.000104811
0.000119563
0.000135295
0.000152005
0.000169693
0.000188357
0.000207997
0.00022861
0.000250193
0.000272743
0.000296257
0.000320731
0.000346162
0.000372545
0.000399876
0.000428149
0.000457359
0.000487498
0.000518561
0.000550539
0.000583427
0.000617216
0.000651896
0.000687457
0.000723891
0.000761185
0.000799329
0.000838312
0.000878122
0.000918744
0.000960165
0.00100237
0.00104535
0.00108908
0.00113355
0.00117875
0.00122465
0.00127124
0.0013185
0.00136642
0.00141496
0.00146413
0.00151389
0.00156423
0.00161512
0.00166654
0.00171848
0.00177091
0.00182381
0.00187715
0.00193092
0.00198508
0.00203961
0.00209449
0.0021497
0.00220519
0.00226095
0.00231695
0.00237315
0.00242953
0.00248605
0.00254269
0.00259941
0.00265618
0.00271295
0.00276971
0.0028264
0.002883
0.00293947
0.00299576
0.00305185
0.0031077
0.00316326
0.00321851
0.00327339
0.00332788
0.00338194
0.00343552
0.00348859
0.00354112
0.00359306
0.00364438
0.00369504
0.003745
0.00379423
0.0038427
0.00389035
0.00393717
0.0039831
0.00402813
0.0040722
0.00411529
0.00415735
0.00419836
0.00423828
0.00427707
0.00431471
0.00435115
0.00438637
0.00442033
0.004453
0.00448436
0.00451437
0.00454301
0.00457025
0.00459607
0.00462045
0.00464336
0.00466479
0.00468472
0.00470314
0.00472003
0.00473539
0.00474921
0.00476149
0.00477222
0.00478142
0.00478907
0.00479521
0.00479983
0.00480296
0.0048046
0.00480478
0.00480352
0.00480084
0.00479676
0.00479128
0.00478443
0.00477618
0.00476662
0.00475583
0.0047426
0.0047256
7.9065e-05
6.3393e-05
5.11189e-05
4.10077e-05
3.19375e-05
2.394e-05
1.70394e-05
1.11974e-05
6.39001e-06
2.59945e-06
-1.93586e-07
-2.0033e-06
-2.83717e-06
-2.69964e-06
-1.59442e-06
4.76358e-07
3.51245e-06
7.51441e-06
1.24828e-05
1.84188e-05
2.53242e-05
3.32019e-05
4.20536e-05
5.18806e-05
6.26833e-05
7.4463e-05
8.72211e-05
0.000100958
0.000115675
0.000131371
0.000148045
0.000165696
0.000184323
0.000203926
0.000224502
0.000246049
0.000268564
0.000292044
0.000316485
0.000341885
0.000368239
0.000395543
0.00042379
0.000452975
0.000483092
0.000514135
0.000546097
0.000578969
0.000612745
0.000647414
0.000682966
0.000719393
0.000756682
0.000794825
0.000833807
0.000873618
0.000914245
0.000955672
0.000997887
0.00104087
0.00108462
0.00112911
0.00117432
0.00122024
0.00126685
0.00131414
0.00136209
0.00141067
0.00145987
0.00150967
0.00156006
0.001611
0.00166248
0.00171448
0.00176698
0.00181995
0.00187337
0.00192722
0.00198147
0.0020361
0.00209108
0.00214639
0.002202
0.00225788
0.002314
0.00237033
0.00242684
0.0024835
0.00254028
0.00259715
0.00265406
0.00271098
0.00276789
0.00282473
0.00288149
0.00293811
0.00299456
0.00305081
0.00310682
0.00316254
0.00321795
0.003273
0.00332765
0.00338187
0.00343563
0.00348887
0.00354157
0.00359369
0.00364518
0.00369602
0.00374617
0.00379559
0.00384423
0.00389208
0.00393908
0.0039852
0.00403041
0.00407467
0.00411794
0.00416019
0.00420137
0.00424146
0.00428042
0.00431822
0.00435482
0.00439019
0.0044243
0.00445711
0.0044886
0.00451874
0.0045475
0.00457485
0.00460078
0.00462526
0.00464827
0.00466979
0.0046898
0.0047083
0.00472526
0.00474068
0.00475456
0.00476688
0.00477765
0.00478687
0.00479455
0.00480068
0.00480529
0.00480838
0.00480997
0.00481007
0.0048087
0.00480588
0.00480163
0.00479595
0.00478885
0.00478033
0.00477046
0.00475934
0.00474572
0.00472826
7.70251e-05
6.09781e-05
4.83917e-05
3.79975e-05
2.86555e-05
2.04168e-05
1.33124e-05
7.29404e-06
2.33049e-06
-1.59519e-06
-4.50111e-06
-6.40502e-06
-7.31894e-06
-7.24949e-06
-6.20153e-06
-4.1796e-06
-1.18685e-06
2.7757e-06
7.70833e-06
1.36116e-05
2.04862e-05
2.83333e-05
3.71542e-05
4.69501e-05
5.77221e-05
6.94712e-05
8.21984e-05
9.59044e-05
0.000110589
0.000126253
0.000142895