/*--------------------------------*- C++ -*----------------------------------*\
  =========                 |
  \\      /  F ield         | OpenFOAM: The Open Source CFD Toolbox
   \\    /   O peration     | Website:  https://openfoam.org
    \\  /    A nd           | Version:  7
     \\/     M anipulation  |
\*---------------------------------------------------------------------------*/
FoamFile
{
    version     2.0;
    format      ascii;
    class       volVectorField;
    location    "0.1";
    object      U;
}
// * * * * * * * * * * * * * * * * * * * * * * * * * * * * * * * * * * * * * //

dimensions      [0 1 -1 0 0 0 0];

internalField   nonuniform List<vector> 
25600
(
(1.27092e-06 -1.0345e-06 0)
(3.69679e-06 -1.42354e-06 0)
(5.6691e-06 -9.83687e-07 0)
(5.35822e-06 -8.67284e-08 0)
(2.29106e-06 9.09606e-07 0)
(-3.64366e-06 1.85716e-06 0)
(-1.22552e-05 2.70518e-06 0)
(-2.32762e-05 3.43897e-06 0)
(-3.6409e-05 4.05486e-06 0)
(-5.13432e-05 4.5576e-06 0)
(-6.77896e-05 4.96696e-06 0)
(-8.54915e-05 5.30577e-06 0)
(-0.000104217 5.58228e-06 0)
(-0.000123754 5.79199e-06 0)
(-0.000143919 5.93629e-06 0)
(-0.000164554 6.03241e-06 0)
(-0.000185533 6.10216e-06 0)
(-0.000206751 6.15527e-06 0)
(-0.000228119 6.18732e-06 0)
(-0.000249563 6.19276e-06 0)
(-0.000271022 6.17586e-06 0)
(-0.00029245 6.14818e-06 0)
(-0.000313812 6.11895e-06 0)
(-0.000335081 6.0894e-06 0)
(-0.000356234 6.05487e-06 0)
(-0.000377254 6.01145e-06 0)
(-0.000398124 5.96066e-06 0)
(-0.000418833 5.90818e-06 0)
(-0.000439374 5.85845e-06 0)
(-0.00045974 5.8108e-06 0)
(-0.000479923 5.76098e-06 0)
(-0.000499917 5.70598e-06 0)
(-0.000519714 5.64683e-06 0)
(-0.000539309 5.58704e-06 0)
(-0.000558697 5.52887e-06 0)
(-0.000577871 5.47126e-06 0)
(-0.000596827 5.41118e-06 0)
(-0.000615556 5.34679e-06 0)
(-0.000634053 5.27908e-06 0)
(-0.00065231 5.21042e-06 0)
(-0.000670323 5.14201e-06 0)
(-0.000688083 5.07281e-06 0)
(-0.000705585 5.00083e-06 0)
(-0.000722821 4.92516e-06 0)
(-0.000739784 4.84669e-06 0)
(-0.000756466 4.76695e-06 0)
(-0.000772862 4.68652e-06 0)
(-0.000788964 4.60462e-06 0)
(-0.000804765 4.51999e-06 0)
(-0.000820257 4.43224e-06 0)
(-0.000835434 4.34204e-06 0)
(-0.000850288 4.25032e-06 0)
(-0.000864812 4.15731e-06 0)
(-0.000879 4.06246e-06 0)
(-0.000892844 3.96506e-06 0)
(-0.000906336 3.86499e-06 0)
(-0.000919471 3.76268e-06 0)
(-0.00093224 3.65865e-06 0)
(-0.000944637 3.55297e-06 0)
(-0.000956654 3.44532e-06 0)
(-0.000968286 3.33537e-06 0)
(-0.000979525 3.2231e-06 0)
(-0.000990364 3.10874e-06 0)
(-0.0010008 2.99253e-06 0)
(-0.00101081 2.87449e-06 0)
(-0.00102041 2.75449e-06 0)
(-0.00102959 2.63244e-06 0)
(-0.00103833 2.50835e-06 0)
(-0.00104663 2.38232e-06 0)
(-0.00105448 2.2544e-06 0)
(-0.00106188 2.1246e-06 0)
(-0.00106882 1.99293e-06 0)
(-0.0010753 1.85943e-06 0)
(-0.00108131 1.72417e-06 0)
(-0.00108685 1.58715e-06 0)
(-0.0010919 1.44837e-06 0)
(-0.00109646 1.30783e-06 0)
(-0.00110053 1.16561e-06 0)
(-0.00110411 1.02181e-06 0)
(-0.00110718 8.76499e-07 0)
(-0.00110974 7.29662e-07 0)
(-0.00111179 5.81293e-07 0)
(-0.00111332 4.31444e-07 0)
(-0.00111433 2.80223e-07 0)
(-0.00111482 1.27728e-07 0)
(-0.00111477 -2.59845e-08 0)
(-0.00111419 -1.80886e-07 0)
(-0.00111308 -3.36949e-07 0)
(-0.00111142 -4.94109e-07 0)
(-0.00110922 -6.52259e-07 0)
(-0.00110647 -8.11298e-07 0)
(-0.00110318 -9.71147e-07 0)
(-0.00109933 -1.13174e-06 0)
(-0.00109492 -1.29304e-06 0)
(-0.00108997 -1.45496e-06 0)
(-0.00108445 -1.61739e-06 0)
(-0.00107838 -1.78021e-06 0)
(-0.00107175 -1.9433e-06 0)
(-0.00106456 -2.10657e-06 0)
(-0.00105681 -2.26995e-06 0)
(-0.0010485 -2.43336e-06 0)
(-0.00103963 -2.5967e-06 0)
(-0.0010302 -2.75986e-06 0)
(-0.00102021 -2.92269e-06 0)
(-0.00100967 -3.08507e-06 0)
(-0.000998577 -3.24691e-06 0)
(-0.000986931 -3.40811e-06 0)
(-0.000974736 -3.56857e-06 0)
(-0.000961997 -3.72814e-06 0)
(-0.000948715 -3.88666e-06 0)
(-0.000934895 -4.04401e-06 0)
(-0.000920541 -4.20008e-06 0)
(-0.000905659 -4.35479e-06 0)
(-0.000890252 -4.50802e-06 0)
(-0.000874328 -4.65963e-06 0)
(-0.000857891 -4.80948e-06 0)
(-0.000840948 -4.95744e-06 0)
(-0.000823506 -5.10342e-06 0)
(-0.000805572 -5.24732e-06 0)
(-0.000787154 -5.38904e-06 0)
(-0.000768259 -5.52843e-06 0)
(-0.000748896 -5.66539e-06 0)
(-0.000729073 -5.79982e-06 0)
(-0.000708799 -5.93162e-06 0)
(-0.000688085 -6.06071e-06 0)
(-0.000666939 -6.18699e-06 0)
(-0.000645371 -6.31037e-06 0)
(-0.000623393 -6.43074e-06 0)
(-0.000601015 -6.54797e-06 0)
(-0.000578249 -6.66189e-06 0)
(-0.000555107 -6.77226e-06 0)
(-0.000531605 -6.87877e-06 0)
(-0.000507755 -6.98106e-06 0)
(-0.000483576 -7.07861e-06 0)
(-0.000459087 -7.17072e-06 0)
(-0.000434309 -7.2564e-06 0)
(-0.000409269 -7.33442e-06 0)
(-0.000383999 -7.40324e-06 0)
(-0.000358534 -7.46096e-06 0)
(-0.000332921 -7.50518e-06 0)
(-0.000307213 -7.53284e-06 0)
(-0.000281475 -7.5402e-06 0)
(-0.000255787 -7.52281e-06 0)
(-0.000230242 -7.47546e-06 0)
(-0.000204953 -7.39214e-06 0)
(-0.000180052 -7.26588e-06 0)
(-0.000155695 -7.0886e-06 0)
(-0.000132064 -6.85114e-06 0)
(-0.000109367 -6.54332e-06 0)
(-8.78432e-05 -6.15411e-06 0)
(-6.77602e-05 -5.67161e-06 0)
(-4.94171e-05 -5.08319e-06 0)
(-3.31401e-05 -4.37595e-06 0)
(-1.92767e-05 -3.53821e-06 0)
(-8.18079e-06 -2.56332e-06 0)
(-1.83947e-07 -1.45931e-06 0)
(4.45657e-06 -2.69807e-07 0)
(5.6913e-06 8.81658e-07 0)
(4.08097e-06 1.6723e-06 0)
(1.34596e-06 1.34669e-06 0)
(1.73964e-06 -3.7544e-06 0)
(4.31637e-06 -3.97118e-06 0)
(3.91356e-06 -8.13791e-07 0)
(-1.90002e-06 4.02434e-06 0)
(-1.42776e-05 9.37566e-06 0)
(-3.34783e-05 1.46421e-05 0)
(-5.92597e-05 1.95249e-05 0)
(-9.11274e-05 2.38917e-05 0)
(-0.000128447 2.76982e-05 0)
(-0.000170531 3.09416e-05 0)
(-0.0002167 3.36529e-05 0)
(-0.000266311 3.58882e-05 0)
(-0.000318764 3.77042e-05 0)
(-0.000373515 3.91442e-05 0)
(-0.00043008 4.02472e-05 0)
(-0.000488046 4.10614e-05 0)
(-0.000547061 4.16422e-05 0)
(-0.000606824 4.20374e-05 0)
(-0.000667079 4.22781e-05 0)
(-0.000727614 4.23854e-05 0)
(-0.00078826 4.2381e-05 0)
(-0.000848878 4.229e-05 0)
(-0.000909361 4.21359e-05 0)
(-0.000969619 4.19353e-05 0)
(-0.00102958 4.16965e-05 0)
(-0.00108918 4.14233e-05 0)
(-0.00114838 4.11201e-05 0)
(-0.00120714 4.07939e-05 0)
(-0.00126543 4.04522e-05 0)
(-0.00132323 4.00989e-05 0)
(-0.0013805 3.97332e-05 0)
(-0.00143723 3.93528e-05 0)
(-0.0014934 3.89572e-05 0)
(-0.00154899 3.85488e-05 0)
(-0.00160398 3.813e-05 0)
(-0.00165835 3.77014e-05 0)
(-0.00171209 3.7261e-05 0)
(-0.00176517 3.68064e-05 0)
(-0.00181757 3.63372e-05 0)
(-0.00186928 3.58546e-05 0)
(-0.00192028 3.53601e-05 0)
(-0.00197055 3.48534e-05 0)
(-0.00202007 3.43332e-05 0)
(-0.00206882 3.37982e-05 0)
(-0.00211677 3.32482e-05 0)
(-0.00216392 3.26843e-05 0)
(-0.00221023 3.21073e-05 0)
(-0.00225569 3.15171e-05 0)
(-0.00230028 3.09127e-05 0)
(-0.00234398 3.02935e-05 0)
(-0.00238677 2.96596e-05 0)
(-0.00242863 2.90118e-05 0)
(-0.00246953 2.83504e-05 0)
(-0.00250947 2.76753e-05 0)
(-0.00254841 2.69861e-05 0)
(-0.00258634 2.62825e-05 0)
(-0.00262324 2.55647e-05 0)
(-0.0026591 2.48332e-05 0)
(-0.00269388 2.40883e-05 0)
(-0.00272757 2.33299e-05 0)
(-0.00276016 2.25579e-05 0)
(-0.00279162 2.17722e-05 0)
(-0.00282193 2.0973e-05 0)
(-0.00285108 2.01606e-05 0)
(-0.00287905 1.93353e-05 0)
(-0.00290581 1.84971e-05 0)
(-0.00293136 1.7646e-05 0)
(-0.00295567 1.67822e-05 0)
(-0.00297873 1.59058e-05 0)
(-0.00300052 1.50171e-05 0)
(-0.00302102 1.41163e-05 0)
(-0.00304022 1.32036e-05 0)
(-0.00305809 1.22792e-05 0)
(-0.00307463 1.13433e-05 0)
(-0.00308981 1.03962e-05 0)
(-0.00310363 9.43818e-06 0)
(-0.00311607 8.46938e-06 0)
(-0.00312711 7.49011e-06 0)
(-0.00313674 6.50071e-06 0)
(-0.00314495 5.50153e-06 0)
(-0.00315171 4.49289e-06 0)
(-0.00315703 3.47508e-06 0)
(-0.00316089 2.44844e-06 0)
(-0.00316327 1.41337e-06 0)
(-0.00316417 3.70298e-07 0)
(-0.00316358 -6.80348e-07 0)
(-0.00316147 -1.73814e-06 0)
(-0.00315786 -2.80266e-06 0)
(-0.00315272 -3.87348e-06 0)
(-0.00314605 -4.95012e-06 0)
(-0.00313785 -6.03207e-06 0)
(-0.0031281 -7.11879e-06 0)
(-0.0031168 -8.20975e-06 0)
(-0.00310394 -9.30438e-06 0)
(-0.00308953 -1.04021e-05 0)
(-0.00307356 -1.15024e-05 0)
(-0.00305602 -1.26045e-05 0)
(-0.00303691 -1.37079e-05 0)
(-0.00301624 -1.48119e-05 0)
(-0.002994 -1.59158e-05 0)
(-0.00297019 -1.7019e-05 0)
(-0.00294482 -1.81208e-05 0)
(-0.00291789 -1.92205e-05 0)
(-0.00288941 -2.03175e-05 0)
(-0.00285937 -2.14108e-05 0)
(-0.00282779 -2.24998e-05 0)
(-0.00279467 -2.35837e-05 0)
(-0.00276002 -2.46617e-05 0)
(-0.00272385 -2.5733e-05 0)
(-0.00268617 -2.67969e-05 0)
(-0.00264699 -2.78525e-05 0)
(-0.00260632 -2.8899e-05 0)
(-0.00256419 -2.99357e-05 0)
(-0.00252059 -3.09617e-05 0)
(-0.00247556 -3.19764e-05 0)
(-0.0024291 -3.29788e-05 0)
(-0.00238124 -3.39683e-05 0)
(-0.00233199 -3.4944e-05 0)
(-0.00228137 -3.59052e-05 0)
(-0.00222941 -3.68512e-05 0)
(-0.00217612 -3.77811e-05 0)
(-0.00212154 -3.86944e-05 0)
(-0.00206568 -3.95902e-05 0)
(-0.00200857 -4.04678e-05 0)
(-0.00195024 -4.13266e-05 0)
(-0.00189072 -4.21657e-05 0)
(-0.00183003 -4.29843e-05 0)
(-0.0017682 -4.37813e-05 0)
(-0.00170527 -4.45557e-05 0)
(-0.00164128 -4.53058e-05 0)
(-0.00157625 -4.60296e-05 0)
(-0.00151024 -4.67248e-05 0)
(-0.00144327 -4.73879e-05 0)
(-0.00137542 -4.80148e-05 0)
(-0.00130673 -4.86001e-05 0)
(-0.00123726 -4.91368e-05 0)
(-0.00116711 -4.9616e-05 0)
(-0.00109636 -5.00268e-05 0)
(-0.00102512 -5.03555e-05 0)
(-0.000953532 -5.05854e-05 0)
(-0.000881742 -5.06964e-05 0)
(-0.000809943 -5.06643e-05 0)
(-0.000738359 -5.04608e-05 0)
(-0.000667258 -5.00531e-05 0)
(-0.000596951 -4.94036e-05 0)
(-0.000527807 -4.84703e-05 0)
(-0.000460248 -4.72064e-05 0)
(-0.000394763 -4.55609e-05 0)
(-0.000331904 -4.34797e-05 0)
(-0.000272292 -4.09068e-05 0)
(-0.00021661 -3.77868e-05 0)
(-0.000165598 -3.40687e-05 0)
(-0.000120039 -2.97129e-05 0)
(-8.07229e-05 -2.47022e-05 0)
(-4.84049e-05 -1.90651e-05 0)
(-2.37153e-05 -1.29192e-05 0)
(-7.02638e-06 -6.55351e-06 0)
(1.78059e-06 -5.72059e-07 0)
(3.8024e-06 3.80589e-06 0)
(1.66889e-06 4.07692e-06 0)
(1.06007e-06 -5.74891e-06 0)
(8.96435e-07 -3.73503e-06 0)
(-5.16068e-06 5.24404e-06 0)
(-1.94936e-05 1.76195e-05 0)
(-4.32725e-05 3.12438e-05 0)
(-7.6819e-05 4.48222e-05 0)
(-0.000119868 5.76111e-05 0)
(-0.000171804 6.92283e-05 0)
(-0.000231806 7.95042e-05 0)
(-0.000298947 8.83916e-05 0)
(-0.000372271 9.59266e-05 0)
(-0.000450861 0.000102201 0)
(-0.000533854 0.000107335 0)
(-0.000620451 0.000111451 0)
(-0.000709931 0.000114668 0)
(-0.000801662 0.000117103 0)
(-0.000895099 0.000118876 0)
(-0.000989778 0.000120098 0)
(-0.0010853 0.000120864 0)
(-0.00118134 0.000121253 0)
(-0.00127761 0.00012133 0)
(-0.0013739 0.000121156 0)
(-0.00147001 0.000120782 0)
(-0.0015658 0.000120251 0)
(-0.00166115 0.000119594 0)
(-0.00175597 0.000118837 0)
(-0.00185016 0.000117994 0)
(-0.00194367 0.000117082 0)
(-0.00203643 0.000116112 0)
(-0.00212841 0.000115094 0)
(-0.00221957 0.000114033 0)
(-0.00230985 0.000112931 0)
(-0.00239924 0.00011179 0)
(-0.00248769 0.000110609 0)
(-0.00257517 0.000109392 0)
(-0.00266165 0.000108139 0)
(-0.00274711 0.00010685 0)
(-0.00283151 0.000105523 0)
(-0.00291482 0.000104158 0)
(-0.00299701 0.000102754 0)
(-0.00307804 0.000101311 0)
(-0.0031579 9.98302e-05 0)
(-0.00323653 9.83103e-05 0)
(-0.00331392 9.67505e-05 0)
(-0.00339004 9.51502e-05 0)
(-0.00346484 9.35097e-05 0)
(-0.0035383 9.18293e-05 0)
(-0.00361039 9.01093e-05 0)
(-0.00368107 8.83492e-05 0)
(-0.00375031 8.65487e-05 0)
(-0.00381809 8.47077e-05 0)
(-0.00388436 8.28265e-05 0)
(-0.0039491 8.09055e-05 0)
(-0.00401228 7.8945e-05 0)
(-0.00407386 7.69449e-05 0)
(-0.00413382 7.49051e-05 0)
(-0.00419212 7.28259e-05 0)
(-0.00424874 7.07076e-05 0)
(-0.00430364 6.85508e-05 0)
(-0.00435679 6.63558e-05 0)
(-0.00440816 6.41226e-05 0)
(-0.00445772 6.18516e-05 0)
(-0.00450545 5.9543e-05 0)
(-0.00455132 5.71974e-05 0)
(-0.00459529 5.48152e-05 0)
(-0.00463735 5.23969e-05 0)
(-0.00467745 4.99428e-05 0)
(-0.00471558 4.74534e-05 0)
(-0.0047517 4.49292e-05 0)
(-0.0047858 4.23708e-05 0)
(-0.00481783 3.97787e-05 0)
(-0.00484779 3.71537e-05 0)
(-0.00487565 3.44963e-05 0)
(-0.00490137 3.18073e-05 0)
(-0.00492494 2.90874e-05 0)
(-0.00494633 2.63372e-05 0)
(-0.00496552 2.35577e-05 0)
(-0.0049825 2.07495e-05 0)
(-0.00499722 1.79137e-05 0)
(-0.00500969 1.5051e-05 0)
(-0.00501987 1.21625e-05 0)
(-0.00502776 9.24913e-06 0)
(-0.00503332 6.31201e-06 0)
(-0.00503654 3.35217e-06 0)
(-0.00503741 3.70768e-07 0)
(-0.00503592 -2.631e-06 0)
(-0.00503204 -5.65191e-06 0)
(-0.00502576 -8.6907e-06 0)
(-0.00501707 -1.17461e-05 0)
(-0.00500596 -1.48167e-05 0)
(-0.00499243 -1.79011e-05 0)
(-0.00497645 -2.09979e-05 0)
(-0.00495802 -2.41054e-05 0)
(-0.00493714 -2.72221e-05 0)
(-0.0049138 -3.03464e-05 0)
(-0.00488799 -3.34766e-05 0)
(-0.00485971 -3.66109e-05 0)
(-0.00482897 -3.97477e-05 0)
(-0.00479575 -4.2885e-05 0)
(-0.00476007 -4.60211e-05 0)
(-0.00472192 -4.91541e-05 0)
(-0.00468132 -5.2282e-05 0)
(-0.00463825 -5.54029e-05 0)
(-0.00459274 -5.85148e-05 0)
(-0.00454478 -6.16156e-05 0)
(-0.0044944 -6.47031e-05 0)
(-0.0044416 -6.77752e-05 0)
(-0.0043864 -7.08297e-05 0)
(-0.00432881 -7.38646e-05 0)
(-0.00426885 -7.68775e-05 0)
(-0.00420653 -7.98663e-05 0)
(-0.00414188 -8.28287e-05 0)
(-0.00407493 -8.57626e-05 0)
(-0.00400569 -8.86658e-05 0)
(-0.00393418 -9.15359e-05 0)
(-0.00386045 -9.43709e-05 0)
(-0.00378451 -9.71686e-05 0)
(-0.0037064 -9.99267e-05 0)
(-0.00362615 -0.000102643 0)
(-0.00354379 -0.000105316 0)
(-0.00345936 -0.000107943 0)
(-0.00337289 -0.000110521 0)
(-0.00328443 -0.00011305 0)
(-0.00319402 -0.000115526 0)
(-0.0031017 -0.000117948 0)
(-0.00300751 -0.000120313 0)
(-0.0029115 -0.000122618 0)
(-0.00281371 -0.000124861 0)
(-0.00271422 -0.000127036 0)
(-0.00261306 -0.00012914 0)
(-0.0025103 -0.000131166 0)
(-0.002406 -0.000133107 0)
(-0.00230025 -0.000134952 0)
(-0.00219312 -0.000136689 0)
(-0.00208471 -0.000138301 0)
(-0.00197513 -0.000139768 0)
(-0.00186451 -0.000141064 0)
(-0.001753 -0.000142158 0)
(-0.00164078 -0.000143009 0)
(-0.00152807 -0.000143572 0)
(-0.00141511 -0.000143789 0)
(-0.00130221 -0.000143594 0)
(-0.00118972 -0.000142909 0)
(-0.00107806 -0.000141644 0)
(-0.000967711 -0.000139698 0)
(-0.000859246 -0.000136961 0)
(-0.000753309 -0.000133309 0)
(-0.000650636 -0.000128614 0)
(-0.000552053 -0.000122741 0)
(-0.000458474 -0.000115556 0)
(-0.000370892 -0.000106936 0)
(-0.000290362 -9.67789e-05 0)
(-0.000217973 -8.5026e-05 0)
(-0.000154799 -7.1694e-05 0)
(-0.000101823 -5.693e-05 0)
(-5.9831e-05 -4.11049e-05 0)
(-2.92367e-05 -2.49679e-05 0)
(-9.84249e-06 -9.88052e-06 0)
(-5.55847e-07 1.78939e-06 0)
(8.81451e-07 5.68533e-06 0)
(1.09976e-07 -5.56582e-06 0)
(-4.0173e-06 1.99067e-06 0)
(-1.76266e-05 1.95565e-05 0)
(-4.22267e-05 4.21771e-05 0)
(-7.86742e-05 6.67584e-05 0)
(-0.000127225 9.13039e-05 0)
(-0.000187535 0.000114579 0)
(-0.000258882 0.000135886 0)
(-0.000340317 0.000154886 0)
(-0.000430759 0.000171464 0)
(-0.000529071 0.000185642 0)
(-0.000634129 0.00019754 0)
(-0.000744869 0.000207338 0)
(-0.000860308 0.000215251 0)
(-0.000979552 0.000221496 0)
(-0.0011018 0.000226284 0)
(-0.00122634 0.000229818 0)
(-0.00135257 0.00023229 0)
(-0.00147997 0.000233875 0)
(-0.00160811 0.000234727 0)
(-0.00173663 0.000234976 0)
(-0.00186521 0.000234733 0)
(-0.00199361 0.000234089 0)
(-0.00212162 0.000233123 0)
(-0.00224908 0.000231898 0)
(-0.00237584 0.000230465 0)
(-0.0025018 0.000228861 0)
(-0.00262686 0.000227114 0)
(-0.00275093 0.000225245 0)
(-0.00287396 0.000223272 0)
(-0.00299587 0.000221206 0)
(-0.00311662 0.000219056 0)
(-0.00323616 0.000216827 0)
(-0.00335443 0.00021452 0)
(-0.0034714 0.000212138 0)
(-0.00358702 0.000209681 0)
(-0.00370125 0.000207151 0)
(-0.00381404 0.000204547 0)
(-0.00392535 0.000201868 0)
(-0.00403515 0.000199114 0)
(-0.00414338 0.000196284 0)
(-0.00425 0.000193377 0)
(-0.00435498 0.000190393 0)
(-0.00445827 0.000187333 0)
(-0.00455982 0.000184195 0)
(-0.0046596 0.000180979 0)
(-0.00475756 0.000177686 0)
(-0.00485366 0.000174315 0)
(-0.00494786 0.000170866 0)
(-0.00504011 0.00016734 0)
(-0.00513038 0.000163736 0)
(-0.00521862 0.000160055 0)
(-0.00530478 0.000156297 0)
(-0.00538884 0.000152463 0)
(-0.00547074 0.000148552 0)
(-0.00555045 0.000144566 0)
(-0.00562792 0.000140504 0)
(-0.00570311 0.000136368 0)
(-0.005776 0.000132158 0)
(-0.00584652 0.000127874 0)
(-0.00591466 0.000123518 0)
(-0.00598036 0.000119089 0)
(-0.00604359 0.00011459 0)
(-0.00610431 0.000110019 0)
(-0.00616249 0.000105379 0)
(-0.00621809 0.00010067 0)
(-0.00627107 9.58933e-05 0)
(-0.00632139 9.10496e-05 0)
(-0.00636903 8.61401e-05 0)
(-0.00641395 8.11659e-05 0)
(-0.00645611 7.61282e-05 0)
(-0.00649548 7.10282e-05 0)
(-0.00653203 6.58672e-05 0)
(-0.00656573 6.06466e-05 0)
(-0.00659654 5.53678e-05 0)
(-0.00662444 5.00323e-05 0)
(-0.0066494 4.46417e-05 0)
(-0.00667139 3.91976e-05 0)
(-0.00669039 3.37016e-05 0)
(-0.00670636 2.81556e-05 0)
(-0.00671929 2.25615e-05 0)
(-0.00672914 1.69212e-05 0)
(-0.0067359 1.12368e-05 0)
(-0.00673954 5.51042e-06 0)
(-0.00674004 -2.55826e-07 0)
(-0.00673739 -6.0596e-06 0)
(-0.00673157 -1.18985e-05 0)
(-0.00672255 -1.77702e-05 0)
(-0.00671033 -2.3672e-05 0)
(-0.00669489 -2.96014e-05 0)
(-0.00667621 -3.55555e-05 0)
(-0.0066543 -4.15316e-05 0)
(-0.00662912 -4.75267e-05 0)
(-0.00660069 -5.35379e-05 0)
(-0.00656899 -5.95618e-05 0)
(-0.00653402 -6.55955e-05 0)
(-0.00649578 -7.16355e-05 0)
(-0.00645426 -7.76785e-05 0)
(-0.00640946 -8.37211e-05 0)
(-0.0063614 -8.97598e-05 0)
(-0.00631006 -9.57909e-05 0)
(-0.00625547 -0.000101811 0)
(-0.00619762 -0.000107816 0)
(-0.00613653 -0.000113802 0)
(-0.00607221 -0.000119765 0)
(-0.00600468 -0.000125701 0)
(-0.00593395 -0.000131607 0)
(-0.00586005 -0.000137477 0)
(-0.00578298 -0.000143309 0)
(-0.00570278 -0.000149097 0)
(-0.00561948 -0.000154837 0)
(-0.00553309 -0.000160526 0)
(-0.00544365 -0.00016616 0)
(-0.00535119 -0.000171733 0)
(-0.00525575 -0.000177242 0)
(-0.00515737 -0.000182682 0)
(-0.00505607 -0.00018805 0)
(-0.00495191 -0.000193341 0)
(-0.00484492 -0.000198551 0)
(-0.00473516 -0.000203675 0)
(-0.00462266 -0.000208711 0)
(-0.00450748 -0.000213654 0)
(-0.00438968 -0.000218499 0)
(-0.0042693 -0.000223243 0)
(-0.00414641 -0.00022788 0)
(-0.00402106 -0.000232407 0)
(-0.00389332 -0.000236816 0)
(-0.00376326 -0.000241102 0)
(-0.00363094 -0.000245256 0)
(-0.00349644 -0.000249268 0)
(-0.00335985 -0.000253127 0)
(-0.00322126 -0.000256815 0)
(-0.00308077 -0.000260314 0)
(-0.00293849 -0.000263597 0)
(-0.00279456 -0.000266632 0)
(-0.00264913 -0.000269379 0)
(-0.00250236 -0.000271789 0)
(-0.00235448 -0.000273798 0)
(-0.00220572 -0.000275333 0)
(-0.00205636 -0.000276303 0)
(-0.00190676 -0.0002766 0)
(-0.00175729 -0.0002761 0)
(-0.00160844 -0.000274656 0)
(-0.00146074 -0.000272105 0)
(-0.00131483 -0.00026826 0)
(-0.00117143 -0.00026292 0)
(-0.00103138 -0.000255865 0)
(-0.0008956 -0.000246867 0)
(-0.000765131 -0.000235695 0)
(-0.000641105 -0.000222124 0)
(-0.000524741 -0.000205958 0)
(-0.000417314 -0.000187049 0)
(-0.000320122 -0.000165341 0)
(-0.000234424 -0.000140918 0)
(-0.000161359 -0.000114098 0)
(-0.000101834 -8.55656e-05 0)
(-5.63516e-05 -5.65781e-05 0)
(-2.47987e-05 -2.92476e-05 0)
(-6.48211e-06 -6.97091e-06 0)
(-2.59413e-07 4.46622e-06 0)
(-9.01679e-07 -2.45356e-06 0)
(-9.4217e-06 1.43935e-05 0)
(-3.13809e-05 4.33886e-05 0)
(-6.70318e-05 7.8652e-05 0)
(-0.000116692 0.000116335 0)
(-0.000180416 0.000153847 0)
(-0.000257722 0.000189504 0)
(-0.000347753 0.000222293 0)
(-0.000449437 0.000251681 0)
(-0.000561575 0.000277467 0)
(-0.000682907 0.000299659 0)
(-0.000812172 0.000318403 0)
(-0.000948154 0.000333935 0)
(-0.00108973 0.00034655 0)
(-0.00123585 0.000356568 0)
(-0.00138561 0.000364312 0)
(-0.00153818 0.000370089 0)
(-0.00169283 0.000374183 0)
(-0.00184895 0.000376858 0)
(-0.002006 0.000378349 0)
(-0.00216356 0.000378862 0)
(-0.00232125 0.000378575 0)
(-0.00247875 0.000377633 0)
(-0.00263582 0.000376159 0)
(-0.00279223 0.000374249 0)
(-0.00294782 0.000371985 0)
(-0.00310244 0.00036943 0)
(-0.00325597 0.000366634 0)
(-0.0034083 0.000363633 0)
(-0.00355935 0.000360452 0)
(-0.00370903 0.000357111 0)
(-0.00385728 0.000353625 0)
(-0.00400403 0.000350003 0)
(-0.00414921 0.000346252 0)
(-0.00429278 0.000342377 0)
(-0.00443467 0.000338377 0)
(-0.00457484 0.000334253 0)
(-0.00471321 0.000330007 0)
(-0.00484976 0.000325639 0)
(-0.00498441 0.000321148 0)
(-0.00511712 0.000316534 0)
(-0.00524784 0.000311795 0)
(-0.0053765 0.000306931 0)
(-0.00550307 0.000301942 0)
(-0.00562748 0.000296829 0)
(-0.00574969 0.00029159 0)
(-0.00586964 0.000286226 0)
(-0.00598728 0.000280736 0)
(-0.00610256 0.000275122 0)
(-0.00621543 0.000269382 0)
(-0.00632583 0.000263518 0)
(-0.00643372 0.000257531 0)
(-0.00653904 0.00025142 0)
(-0.00664174 0.000245187 0)
(-0.00674178 0.000238832 0)
(-0.0068391 0.000232355 0)
(-0.00693365 0.000225759 0)
(-0.00702539 0.000219043 0)
(-0.00711427 0.00021221 0)
(-0.00720024 0.000205259 0)
(-0.00728325 0.000198192 0)
(-0.00736326 0.000191011 0)
(-0.00744022 0.000183716 0)
(-0.00751408 0.000176309 0)
(-0.00758481 0.000168792 0)
(-0.00765235 0.000161166 0)
(-0.00771666 0.000153432 0)
(-0.00777771 0.000145592 0)
(-0.00783545 0.000137648 0)
(-0.00788983 0.000129602 0)
(-0.00794083 0.000121456 0)
(-0.00798839 0.000113212 0)
(-0.00803248 0.000104872 0)
(-0.00807307 9.6438e-05 0)
(-0.00811012 8.79126e-05 0)
(-0.00814359 7.92984e-05 0)
(-0.00817345 7.05977e-05 0)
(-0.00819966 6.18133e-05 0)
(-0.0082222 5.29481e-05 0)
(-0.00824104 4.40048e-05 0)
(-0.00825613 3.49866e-05 0)
(-0.00826747 2.58966e-05 0)
(-0.00827501 1.67381e-05 0)
(-0.00827874 7.51456e-06 0)
(-0.00827863 -1.77045e-06 0)
(-0.00827465 -1.11133e-05 0)
(-0.0082668 -2.05101e-05 0)
(-0.00825504 -2.9957e-05 0)
(-0.00823937 -3.94498e-05 0)
(-0.00821976 -4.89843e-05 0)
(-0.00819621 -5.85561e-05 0)
(-0.00816869 -6.81607e-05 0)
(-0.0081372 -7.77933e-05 0)
(-0.00810174 -8.74493e-05 0)
(-0.00806229 -9.71235e-05 0)
(-0.00801885 -0.000106811 0)
(-0.00797142 -0.000116506 0)
(-0.00791999 -0.000126204 0)
(-0.00786458 -0.000135899 0)
(-0.00780519 -0.000145586 0)
(-0.00774181 -0.000155258 0)
(-0.00767447 -0.00016491 0)
(-0.00760317 -0.000174536 0)
(-0.00752793 -0.00018413 0)
(-0.00744876 -0.000193685 0)
(-0.00736568 -0.000203196 0)
(-0.00727872 -0.000212655 0)
(-0.00718789 -0.000222056 0)
(-0.00709322 -0.000231393 0)
(-0.00699475 -0.00024066 0)
(-0.00689251 -0.000249848 0)
(-0.00678652 -0.000258953 0)
(-0.00667683 -0.000267967 0)
(-0.00656348 -0.000276883 0)
(-0.00644651 -0.000285695 0)
(-0.00632596 -0.000294396 0)
(-0.00620189 -0.000302979 0)
(-0.00607433 -0.000311438 0)
(-0.00594336 -0.000319767 0)
(-0.00580902 -0.000327958 0)
(-0.00567136 -0.000336005 0)
(-0.00553047 -0.000343901 0)
(-0.00538639 -0.00035164 0)
(-0.00523919 -0.000359215 0)
(-0.00508895 -0.000366617 0)
(-0.00493574 -0.000373838 0)
(-0.00477964 -0.000380869 0)
(-0.00462073 -0.000387699 0)
(-0.00445911 -0.000394313 0)
(-0.00429486 -0.000400696 0)
(-0.00412809 -0.000406825 0)
(-0.00395892 -0.000412675 0)
(-0.00378747 -0.000418212 0)
(-0.00361389 -0.000423394 0)
(-0.00343834 -0.00042817 0)
(-0.00326101 -0.000432473 0)
(-0.00308211 -0.000436224 0)
(-0.00290191 -0.000439322 0)
(-0.0027207 -0.000441649 0)
(-0.00253883 -0.000443061 0)
(-0.00235671 -0.000443391 0)
(-0.00217483 -0.000442442 0)
(-0.00199374 -0.000439989 0)
(-0.0018141 -0.000435777 0)
(-0.00163666 -0.000429524 0)
(-0.00146226 -0.000420922 0)
(-0.00129189 -0.000409643 0)
(-0.00112663 -0.000395349 0)
(-0.000967657 -0.000377703 0)
(-0.000816278 -0.000356389 0)
(-0.000673869 -0.000331141 0)
(-0.000541865 -0.000301774 0)
(-0.00042171 -0.000268248 0)
(-0.000314801 -0.000230735 0)
(-0.000222408 -0.00018974 0)
(-0.000145578 -0.000146256 0)
(-8.49758e-05 -0.000102001 0)
(-4.07182e-05 -5.97054e-05 0)
(-1.27556e-05 -2.35279e-05 0)
(-1.43052e-06 -1.19266e-07 0)
(-1.86315e-06 3.53818e-06 0)
(-1.47605e-05 3.37016e-05 0)
(-4.5167e-05 7.71125e-05 0)
(-9.19645e-05 0.000127378 0)
(-0.000154798 0.000180134 0)
(-0.000233427 0.00023233 0)
(-0.000327168 0.000281922 0)
(-0.000435006 0.00032763 0)
(-0.000555734 0.000368737 0)
(-0.000688041 0.000404942 0)
(-0.000830566 0.000436233 0)
(-0.000981948 0.00046279 0)
(-0.00114087 0.000484912 0)
(-0.00130609 0.000502973 0)
(-0.00147648 0.000517394 0)
(-0.00165099 0.000528605 0)
(-0.00182874 0.000537028 0)
(-0.00200889 0.000543058 0)
(-0.00219077 0.000547057 0)
(-0.00237375 0.000549348 0)
(-0.00255735 0.000550218 0)
(-0.00274113 0.000549916 0)
(-0.00292473 0.000548652 0)
(-0.00310785 0.000546601 0)
(-0.00329024 0.000543905 0)
(-0.00347169 0.000540676 0)
(-0.00365203 0.000537007 0)
(-0.0038311 0.000532971 0)
(-0.00400879 0.000528621 0)
(-0.00418498 0.000524 0)
(-0.00435958 0.000519136 0)
(-0.0045325 0.00051405 0)
(-0.00470365 0.000508758 0)
(-0.00487298 0.00050327 0)
(-0.00504039 0.000497595 0)
(-0.00520584 0.000491735 0)
(-0.00536925 0.000485692 0)
(-0.00553055 0.000479467 0)
(-0.00568969 0.000473061 0)
(-0.0058466 0.000466474 0)
(-0.00600122 0.000459706 0)
(-0.00615349 0.000452757 0)
(-0.00630334 0.000445626 0)
(-0.00645071 0.000438311 0)
(-0.00659554 0.000430815 0)
(-0.00673778 0.000423137 0)
(-0.00687735 0.000415276 0)
(-0.00701421 0.000407234 0)
(-0.00714828 0.000399011 0)
(-0.00727951 0.000390607 0)
(-0.00740784 0.000382022 0)
(-0.00753321 0.000373259 0)
(-0.00765556 0.000364319 0)
(-0.00777484 0.000355201 0)
(-0.00789098 0.000345907 0)
(-0.00800392 0.000336439 0)
(-0.00811362 0.000326799 0)
(-0.00822002 0.000316986 0)
(-0.00832305 0.000307004 0)
(-0.00842267 0.000296854 0)
(-0.00851882 0.000286537 0)
(-0.00861145 0.000276056 0)
(-0.00870051 0.000265412 0)
(-0.00878594 0.000254607 0)
(-0.00886769 0.000243645 0)
(-0.00894571 0.000232526 0)
(-0.00901996 0.000221255 0)
(-0.00909038 0.000209832 0)
(-0.00915694 0.000198261 0)
(-0.00921957 0.000186544 0)
(-0.00927824 0.000174685 0)
(-0.0093329 0.000162686 0)
(-0.00938351 0.000150551 0)
(-0.00943003 0.000138283 0)
(-0.00947241 0.000125885 0)
(-0.00951062 0.000113361 0)
(-0.00954462 0.000100715 0)
(-0.00957437 8.79515e-05 0)
(-0.00959984 7.50734e-05 0)
(-0.00962099 6.20855e-05 0)
(-0.00963778 4.89923e-05 0)
(-0.0096502 3.57983e-05 0)
(-0.0096582 2.25083e-05 0)
(-0.00966177 9.12737e-06 0)
(-0.00966087 -4.33936e-06 0)
(-0.00965548 -1.78865e-05 0)
(-0.00964557 -3.15086e-05 0)
(-0.00963114 -4.51998e-05 0)
(-0.00961215 -5.89543e-05 0)
(-0.00958859 -7.27659e-05 0)
(-0.00956045 -8.66281e-05 0)
(-0.00952772 -0.000100535 0)
(-0.00949038 -0.000114479 0)
(-0.00944842 -0.000128453 0)
(-0.00940184 -0.000142451 0)
(-0.00935064 -0.000156465 0)
(-0.00929481 -0.000170487 0)
(-0.00923436 -0.000184511 0)
(-0.00916929 -0.000198527 0)
(-0.00909961 -0.000212528 0)
(-0.00902532 -0.000226505 0)
(-0.00894643 -0.000240451 0)
(-0.00886297 -0.000254357 0)
(-0.00877495 -0.000268213 0)
(-0.00868238 -0.000282011 0)
(-0.0085853 -0.000295742 0)
(-0.00848372 -0.000309397 0)
(-0.00837768 -0.000322966 0)
(-0.00826721 -0.000336441 0)
(-0.00815234 -0.00034981 0)
(-0.0080331 -0.000363066 0)
(-0.00790955 -0.000376199 0)
(-0.00778173 -0.000389199 0)
(-0.00764967 -0.000402056 0)
(-0.00751344 -0.000414761 0)
(-0.00737308 -0.000427304 0)
(-0.00722865 -0.000439675 0)
(-0.00708022 -0.000451866 0)
(-0.00692783 -0.000463867 0)
(-0.00677156 -0.000475668 0)
(-0.00661148 -0.000487259 0)
(-0.00644766 -0.00049863 0)
(-0.00628017 -0.000509773 0)
(-0.0061091 -0.000520675 0)
(-0.00593452 -0.000531326 0)
(-0.00575653 -0.000541713 0)
(-0.00557521 -0.000551821 0)
(-0.00539067 -0.000561633 0)
(-0.005203 -0.000571129 0)
(-0.00501233 -0.000580283 0)
(-0.00481878 -0.000589065 0)
(-0.00462247 -0.000597434 0)
(-0.00442357 -0.000605341 0)
(-0.00422224 -0.000612726 0)
(-0.00401868 -0.000619512 0)
(-0.0038131 -0.000625603 0)
(-0.00360576 -0.000630883 0)
(-0.00339697 -0.00063521 0)
(-0.00318706 -0.000638413 0)
(-0.00297645 -0.000640289 0)
(-0.0027656 -0.000640601 0)
(-0.00255507 -0.000639072 0)
(-0.00234549 -0.000635388 0)
(-0.0021376 -0.000629194 0)
(-0.00193225 -0.000620102 0)
(-0.00173039 -0.000607689 0)
(-0.0015331 -0.000591512 0)
(-0.00134157 -0.000571116 0)
(-0.00115711 -0.000546057 0)
(-0.000981144 -0.000515926 0)
(-0.000815159 -0.000480386 0)
(-0.000660708 -0.000439225 0)
(-0.000519352 -0.000392419 0)
(-0.000392607 -0.000340232 0)
(-0.000281878 -0.000283338 0)
(-0.000188385 -0.000222997 0)
(-0.000113028 -0.000161292 0)
(-5.62544e-05 -0.000101401 0)
(-1.87777e-05 -4.79603e-05 0)
(-2.50919e-06 -8.00181e-06 0)
(-2.72831e-06 1.2241e-05 0)
(-1.97497e-05 5.97181e-05 0)
(-5.8264e-05 0.000120533 0)
(-0.000115819 0.000188114 0)
(-0.000191357 0.000257795 0)
(-0.000284275 0.000326211 0)
(-0.000393635 0.000391054 0)
(-0.00051824 0.000450843 0)
(-0.000656744 0.000504721 0)
(-0.000807716 0.000552301 0)
(-0.000969698 0.00059355 0)
(-0.00114125 0.000628677 0)
(-0.00132097 0.000658051 0)
(-0.00150755 0.000682139 0)
(-0.00169976 0.000701459 0)
(-0.0018965 0.000716553 0)
(-0.00209679 0.000727956 0)
(-0.00229976 0.000736179 0)
(-0.00250464 0.000741689 0)
(-0.00271079 0.000744909 0)
(-0.00291763 0.000746213 0)
(-0.00312469 0.000745924 0)
(-0.00333156 0.000744321 0)
(-0.00353793 0.000741635 0)
(-0.00374349 0.000738058 0)
(-0.00394801 0.000733744 0)
(-0.00415129 0.000728815 0)
(-0.00435315 0.000723369 0)
(-0.00455346 0.000717482 0)
(-0.00475208 0.00071121 0)
(-0.0049489 0.000704596 0)
(-0.00514382 0.00069767 0)
(-0.00533675 0.000690455 0)
(-0.00552759 0.000682965 0)
(-0.00571627 0.000675211 0)
(-0.00590271 0.0006672 0)
(-0.00608682 0.000658938 0)
(-0.00626855 0.000650425 0)
(-0.00644781 0.000641662 0)
(-0.00662453 0.000632651 0)
(-0.00679865 0.000623392 0)
(-0.00697008 0.000613885 0)
(-0.00713877 0.00060413 0)
(-0.00730463 0.000594127 0)
(-0.00746761 0.000583875 0)
(-0.00762763 0.000573377 0)
(-0.00778462 0.000562631 0)
(-0.00793852 0.000551639 0)
(-0.00808925 0.000540402 0)
(-0.00823675 0.000528921 0)
(-0.00838096 0.000517196 0)
(-0.0085218 0.00050523 0)
(-0.00865922 0.000493024 0)
(-0.00879314 0.000480579 0)
(-0.0089235 0.000467898 0)
(-0.00905024 0.000454982 0)
(-0.00917329 0.000441833 0)
(-0.0092926 0.000428454 0)
(-0.0094081 0.000414846 0)
(-0.00951973 0.000401013 0)
(-0.00962742 0.000386957 0)
(-0.00973113 0.00037268 0)
(-0.0098308 0.000358185 0)
(-0.00992635 0.000343475 0)
(-0.0100178 0.000328554 0)
(-0.0101049 0.000313425 0)
(-0.0101878 0.000298091 0)
(-0.0102664 0.000282555 0)