/*--------------------------------*- C++ -*----------------------------------*\
  =========                 |
  \\      /  F ield         | OpenFOAM: The Open Source CFD Toolbox
   \\    /   O peration     | Website:  https://openfoam.org
    \\  /    A nd           | Version:  7
     \\/     M anipulation  |
\*---------------------------------------------------------------------------*/
FoamFile
{
    version     2.0;
    format      ascii;
    class       volScalarField;
    location    "0.2125";
    object      p;
}
// * * * * * * * * * * * * * * * * * * * * * * * * * * * * * * * * * * * * * //

dimensions      [0 2 -2 0 0 0 0];

internalField   nonuniform List<scalar> 
25600
(
3.10809e-07
0.000111486
0.000139327
3.03918e-05
-0.00022343
-0.000618154
-0.00114269
-0.00178269
-0.00252261
-0.0033473
-0.00424226
-0.0051939
-0.00618958
-0.00721768
-0.00826751
-0.00932922
-0.0103938
-0.0114529
-0.0124991
-0.0135255
-0.0145255
-0.0154936
-0.0164245
-0.0173132
-0.0181555
-0.0189476
-0.0196855
-0.0203664
-0.0209872
-0.0215454
-0.0220386
-0.022465
-0.0228228
-0.0231104
-0.0233266
-0.0234704
-0.0235409
-0.0235374
-0.0234595
-0.0233069
-0.0230795
-0.0227773
-0.0224005
-0.0219494
-0.0214244
-0.0208262
-0.0201554
-0.019413
-0.0185998
-0.0177169
-0.0167654
-0.0157466
-0.0146619
-0.0135126
-0.0123003
-0.0110265
-0.00969305
-0.00830155
-0.00685391
-0.00535201
-0.00379781
-0.00219331
-0.000540618
0.00115811
0.00290067
0.00468485
0.00650835
0.00836879
0.0102638
0.0121909
0.0141475
0.0161313
0.0181396
0.0201698
0.0222193
0.0242855
0.0263656
0.028457
0.0305569
0.0326625
0.0347711
0.0368799
0.0389861
0.041087
0.0431796
0.0452611
0.0473289
0.0493801
0.0514118
0.0534213
0.0554059
0.0573627
0.059289
0.0611822
0.0630396
0.0648585
0.0666363
0.0683705
0.0700586
0.0716981
0.0732867
0.074822
0.0763017
0.0777236
0.0790857
0.0803859
0.0816223
0.0827929
0.0838962
0.0849303
0.0858938
0.0867853
0.0876034
0.088347
0.0890151
0.0896069
0.0901214
0.0905582
0.0909169
0.091197
0.0913987
0.0915219
0.091567
0.0915345
0.091425
0.0912394
0.090979
0.0906451
0.0902392
0.0897632
0.0892194
0.08861
0.0879379
0.087206
0.0864177
0.0855765
0.0846866
0.0837523
0.0827784
0.0817702
0.0807334
0.0796741
0.0785989
0.0775151
0.0764306
0.0753537
0.0742937
0.0732605
0.0722646
0.0713176
0.0704319
0.0696206
0.0688976
0.0682775
0.0677746
0.067402
0.0671691
0.0670778
0.0671173
0.067232
-0.000109879
1.25557e-06
4.77357e-06
-0.000116754
-0.000359343
-0.000721188
-0.00119577
-0.0017726
-0.00243976
-0.00318491
-0.00399581
-0.00486066
-0.00576826
-0.00670808
-0.00767027
-0.0086457
-0.00962584
-0.0106029
-0.0115697
-0.0125195
-0.0134463
-0.0143445
-0.0152088
-0.0160347
-0.0168178
-0.0175542
-0.0182405
-0.0188733
-0.0194499
-0.0199676
-0.0204242
-0.0208177
-0.0211462
-0.0214082
-0.0216024
-0.0217278
-0.0217834
-0.0217686
-0.0216827
-0.0215256
-0.0212968
-0.0209965
-0.0206248
-0.0201818
-0.0196681
-0.019084
-0.0184304
-0.0177078
-0.0169172
-0.0160596
-0.015136
-0.0141476
-0.0130957
-0.0119816
-0.0108068
-0.00957273
-0.00828108
-0.0069335
-0.00553174
-0.00407764
-0.00257304
-0.00101991
0.000579748
0.00222386
0.00391032
0.00563694
0.00740151
0.00920176
0.0110354
0.0129
0.0147932
0.0167126
0.0186556
0.0206198
0.0226027
0.0246015
0.0266139
0.028637
0.0306684
0.0327052
0.0347449
0.0367847
0.038822
0.040854
0.0428779
0.0448912
0.0468911
0.0488749
0.0508398
0.0527833
0.0547025
0.0565949
0.0584578
0.0602887
0.0620849
0.063844
0.0655633
0.0672405
0.0688732
0.0704591
0.0719957
0.0734809
0.0749125
0.0762885
0.0776068
0.0788654
0.0800626
0.0811965
0.0822656
0.0832682
0.0842029
0.0850684
0.0858635
0.086587
0.0872381
0.0878159
0.0883199
0.0887493
0.089104
0.0893836
0.0895882
0.0897179
0.0897731
0.0897544
0.0896623
0.089498
0.0892625
0.0889573
0.088584
0.0881444
0.0876408
0.0870755
0.0864512
0.0857709
0.0850379
0.0842557
0.0834284
0.0825602
0.0816559
0.0807204
0.0797594
0.0787787
0.0777847
0.0767845
0.0757853
0.0747953
0.0738229
0.0728774
0.0719684
0.0711065
0.0703026
0.0695679
0.0689144
0.0683535
0.0678963
0.0675522
0.0673263
0.0672189
0.067232
0.0673467
-0.00013711
-1.3931e-06
2.3095e-06
-0.000120421
-0.000353076
-0.000692501
-0.00113325
-0.00166655
-0.00228234
-0.00297017
-0.00371934
-0.00451949
-0.00536051
-0.00623279
-0.00712724
-0.00803543
-0.00894932
-0.00986155
-0.0107652
-0.0116539
-0.0125219
-0.0133637
-0.0141743
-0.0149491
-0.015684
-0.0163751
-0.017019
-0.0176124
-0.0181526
-0.018637
-0.0190633
-0.0194295
-0.0197338
-0.0199746
-0.0201506
-0.0202606
-0.0203038
-0.0202795
-0.020187
-0.0200259
-0.0197961
-0.0194974
-0.0191299
-0.0186937
-0.0181893
-0.0176172
-0.0169778
-0.0162718
-0.0155002
-0.0146638
-0.0137636
-0.0128008
-0.0117764
-0.0106919
-0.00954866
-0.00834804
-0.00709162
-0.00578102
-0.00441793
-0.00300408
-0.00154131
-3.14852e-05
0.00152345
0.0031215
0.00476063
0.00643872
0.00815362
0.00990311
0.011685
0.0134969
0.0153366
0.0172016
0.0190896
0.0209981
0.0229246
0.0248668
0.0268219
0.0287875
0.0307611
0.0327399
0.0347215
0.0367032
0.0386823
0.0406563
0.0426225
0.0445782
0.0465209
0.048448
0.0503567
0.0522445
0.0541088
0.055947
0.0577567
0.0595351
0.06128
0.0629887
0.064659
0.0662883
0.0678745
0.0694153
0.0709083
0.0723516
0.0737429
0.0750803
0.0763619
0.0775858
0.0787502
0.0798534
0.0808939
0.0818701
0.0827808
0.0836246
0.0844004
0.0851072
0.0857441
0.0863104
0.0868054
0.0872288
0.0875801
0.0878593
0.0880663
0.0882014
0.088265
0.0882576
0.08818
0.0880332
0.0878183
0.0875367
0.0871902
0.0867806
0.08631
0.0857807
0.0851956
0.0845574
0.0838695
0.0831353
0.0823587
0.081544
0.0806957
0.0798187
0.0789183
0.0780003
0.0770708
0.0761365
0.0752043
0.0742818
0.0733771
0.0724987
0.0716556
0.0708572
0.0701133
0.0694341
0.0688296
0.0683099
0.067884
0.0675598
0.0673418
0.0672317
0.067245
0.0673863
-2.80483e-05
0.000120765
0.000126003
3.31583e-06
-0.000223412
-0.000549078
-0.00096797
-0.00147189
-0.00205178
-0.00269826
-0.00340184
-0.00415314
-0.00494301
-0.00576263
-0.00660364
-0.00745811
-0.00831858
-0.00917808
-0.0100301
-0.0108685
-0.0116877
-0.0124824
-0.013248
-0.0139799
-0.0146741
-0.0153268
-0.0159347
-0.0164946
-0.0170037
-0.0174596
-0.0178599
-0.0182026
-0.018486
-0.0187085
-0.0188687
-0.0189655
-0.018998
-0.0189654
-0.0188671
-0.0187027
-0.0184719
-0.0181746
-0.0178108
-0.0173806
-0.0168845
-0.0163227
-0.0156959
-0.0150046
-0.0142496
-0.0134319
-0.0125523
-0.0116119
-0.0106119
-0.00955354
-0.00843807
-0.00726692
-0.00604159
-0.00476364
-0.00343468
-0.0020564
-0.000630562
0.000841
0.00235641
0.00391374
0.005511
0.00714617
0.00881714
0.0105218
0.0122578
0.0140232
0.0158155
0.0176324
0.0194718
0.021331
0.0232078
0.0250998
0.0270043
0.0289191
0.0308416
0.0327692
0.0346994
0.0366297
0.0385575
0.0404803
0.0423954
0.0443004
0.0461927
0.0480696
0.0499288
0.0517676
0.0535835
0.0553739
0.0571366
0.0588689
0.0605685
0.062233
0.06386
0.0654473
0.0669926
0.0684937
0.0699485
0.0713549
0.0727109
0.0740145
0.0752639
0.0764573
0.0775929
0.0786693
0.0796847
0.0806379
0.0815275
0.0823523
0.0831113
0.0838035
0.084428
0.0849842
0.0854715
0.0858894
0.0862378
0.0865165
0.0867256
0.0868653
0.0869361
0.0869385
0.0868733
0.0867414
0.0865442
0.086283
0.0859593
0.0855752
0.0851327
0.0846342
0.0840823
0.0834798
0.08283
0.0821362
0.0814023
0.0806324
0.0798308
0.0790024
0.0781522
0.0772857
0.0764089
0.075528
0.0746497
0.0737811
0.0729299
0.0721038
0.0713113
0.0705609
0.0698616
0.0692224
0.0686525
0.0681607
0.0677553
0.0674439
0.0672312
0.0671214
0.0671377
0.0672956
0.000225456
0.000363769
0.000359431
0.00023091
4.1096e-06
-0.000314619
-0.000719239
-0.00120198
-0.00175448
-0.00236829
-0.00303481
-0.00374556
-0.00449228
-0.00526682
-0.0060615
-0.00686898
-0.00768227
-0.00849484
-0.00930052
-0.0100936
-0.0108686
-0.0116207
-0.0123451
-0.0130376
-0.0136944
-0.0143117
-0.0148862
-0.0154149
-0.0158952
-0.0163244
-0.0167004
-0.0170212
-0.0172851
-0.0174903
-0.0176358
-0.0177201
-0.0177426
-0.0177022
-0.0175985
-0.0174309
-0.0171993
-0.0169034
-0.0165432
-0.0161188
-0.0156306
-0.0150788
-0.014464
-0.0137867
-0.0130478
-0.012248
-0.0113882
-0.0104694
-0.00949276
-0.00845944
-0.00737069
-0.00622788
-0.00503244
-0.00378588
-0.00248975
-0.00114568
0.000244608
0.00167936
0.00315675
0.00467491
0.0062319
0.00782574
0.0094544
0.0111158
0.0128078
0.0145283
0.016275
0.0180457
0.0198382
0.02165
0.023479
0.0253226
0.0271786
0.0290444
0.0309177
0.032796
0.0346768
0.0365577
0.0384362
0.0403097
0.0421758
0.044032
0.0458758
0.0477047
0.0495162
0.0513079
0.0530773
0.054822
0.0565396
0.0582276
0.0598838
0.0615059
0.0630915
0.0646385
0.0661447
0.0676078
0.069026
0.0703971
0.0717193
0.0729906
0.0742092
0.0753734
0.0764816
0.0775322
0.0785238
0.079455
0.0803245
0.0811312
0.0818741
0.0825522
0.0831649
0.0837114
0.0841912
0.084604
0.0849496
0.0852278
0.0854387
0.0855827
0.0856601
0.0856716
0.0856179
0.0855001
0.0853193
0.085077
0.0847747
0.0844143
0.0839979
0.0835279
0.0830067
0.0824372
0.0818225
0.0811659
0.0804711
0.0797421
0.0789831
0.0781987
0.0773939
0.0765737
0.075744
0.0749106
0.0740799
0.0732585
0.0724536
0.0716723
0.0709225
0.070212
0.069549
0.0689417
0.0683983
0.0679268
0.0675351
0.0672302
0.0670177
0.066903
0.0669122
0.067064
0.000619766
0.000726199
0.000699819
0.000557511
0.000323407
4.36392e-06
-0.000393556
-0.0008629
-0.00139603
-0.00198524
-0.00262274
-0.00330081
-0.00401192
-0.00474867
-0.00550398
-0.00627102
-0.00704334
-0.00781477
-0.00857958
-0.0093323
-0.0100678
-0.0107815
-0.0114688
-0.0121256
-0.0127483
-0.0133332
-0.0138772
-0.0143774
-0.014831
-0.0152357
-0.0155893
-0.0158898
-0.0161355
-0.0163249
-0.0164565
-0.0165294
-0.0165424
-0.0164949
-0.0163862
-0.0162159
-0.0159835
-0.015689
-0.0153323
-0.0149135
-0.0144329
-0.0138906
-0.0132873
-0.0126236
-0.0118999
-0.0111172
-0.0102763
-0.00937814
-0.00842381
-0.00741444
-0.00635123
-0.0052355
-0.00406864
-0.00285207
-0.00158732
-0.000275977
0.00108032
0.00247985
0.00392087
0.00540155
0.00692002
0.00847434
0.0100625
0.0116826
0.0133325
0.01501
0.0167131
0.0184396
0.0201872
0.0219537
0.0237368
0.0255343
0.0273437
0.0291627
0.030989
0.0328202
0.0346538
0.0364875
0.0383188
0.0401453
0.0419646
0.0437742
0.0455717
0.0473547
0.0491207
0.0508675
0.0525925
0.0542935
0.0559681
0.057614
0.0592288
0.0608105
0.0623567
0.0638653
0.0653342
0.0667613
0.0681446
0.0694822
0.0707721
0.0720127
0.073202
0.0743386
0.0754207
0.0764469
0.0774158
0.078326
0.0791764
0.079966
0.0806936
0.0813584
0.0819598
0.0824971
0.0829698
0.0833777
0.0837204
0.083998
0.0842105
0.0843584
0.0844419
0.0844617
0.0844187
0.0843138
0.0841481
0.0839232
0.0836406
0.0833021
0.0829097
0.0824657
0.0819727
0.0814333
0.0808506
0.0802279
0.0795685
0.0788765
0.0781558
0.0774109
0.0766464
0.0758674
0.0750792
0.0742874
0.0734979
0.0727172
0.0719515
0.0712079
0.0704934
0.0698151
0.0691806
0.0685974
0.0680728
0.0676144
0.0672292
0.0669244
0.0667054
0.0665784
0.0665685
0.0666933
0.00114427
0.0012019
0.00114211
0.00097783
0.000728896
0.000402098
3.44689e-06
-0.000460138
-0.000981599
-0.00155394
-0.00217016
-0.00282315
-0.00350608
-0.00421217
-0.00493494
-0.00566807
-0.0064056
-0.00714178
-0.00787119
-0.00858874
-0.00928962
-0.00996931
-0.0106236
-0.0112487
-0.0118408
-0.0123966
-0.0129131
-0.0133874
-0.0138169
-0.0141993
-0.0145325
-0.0148145
-0.0150436
-0.0152184
-0.0153375
-0.0153998
-0.0154043
-0.0153503
-0.0152371
-0.0150643
-0.0148314
-0.0145384
-0.0141851
-0.0137716
-0.0132982
-0.0127651
-0.0121728
-0.0115217
-0.0108126
-0.0100461
-0.00922311
-0.00834452
-0.00741134
-0.00642466
-0.00538567
-0.00429563
-0.00315586
-0.00196775
-0.000732773
0.000547545
0.00187159
0.00323772
0.00464422
0.00608934
0.00757125
0.00908806
0.0106379
0.0122187
0.0138285
0.0154654
0.0171271
0.0188115
0.0205166
0.0222401
0.0239798
0.0257334
0.0274987
0.0292733
0.0310551
0.0328416
0.0346304
0.0364194
0.038206
0.0399879
0.0417628
0.0435282
0.0452819
0.0470215
0.0487445
0.0504488
0.0521319
0.0537915
0.0554255
0.0570314
0.0586073
0.0601507
0.0616597
0.063132
0.0645657
0.0659587
0.0673092
0.0686151
0.0698748
0.0710863
0.0722481
0.0733586
0.0744161
0.0754193
0.0763668
0.0772574
0.0780898
0.0788631
0.0795763
0.0802287
0.0808194
0.081348
0.0818139
0.0822169
0.0825569
0.0828338
0.0830477
0.0831989
0.0832879
0.0833153
0.0832819
0.0831887
0.0830369
0.0828278
0.082563
0.0822443
0.0818736
0.0814533
0.0809856
0.0804734
0.0799194
0.0793268
0.0786991
0.0780399
0.0773531
0.0766429
0.0759138
0.0751706
0.0744182
0.073662
0.0729076
0.0721608
0.0714277
0.0707146
0.0700279
0.0693745
0.068761
0.0681944
0.0676814
0.0672287
0.0668432
0.0665313
0.0662987
0.0661518
0.0661116
0.0661925
0.00178516
0.00178104
0.00167816
0.00148421
0.00121325
0.000871689
0.000465344
5.4823e-07
-0.000516304
-0.00107888
-0.00168076
-0.00231559
-0.00297708
-0.00365908
-0.0043556
-0.00506088
-0.00576938
-0.00647574
-0.00717495
-0.00786218
-0.00853293
-0.00918294
-0.00980825
-0.0104051
-0.0109701
-0.0115
-0.0119918
-0.0124429
-0.0128507
-0.013213
-0.0135277
-0.0137929
-0.014007
-0.0141686
-0.0142763
-0.014329
-0.0143258
-0.0142659
-0.0141487
-0.0139737
-0.0137406
-0.0134491
-0.0130992
-0.0126909
-0.0122244
-0.0117
-0.0111181
-0.0104791
-0.00978377
-0.00903268
-0.00822667
-0.00736662
-0.00645348
-0.00548832
-0.00447229
-0.00340658
-0.00229249
-0.00113136
7.54037e-05
0.0013263
0.00261978
0.00395425
0.00532804
0.00673944
0.00818667
0.00966791
0.0111813
0.012725
0.0142969
0.0158951
0.0175176
0.0191622
0.0208269
0.0225096
0.0242081
0.0259202
0.0276437
0.0293763
0.0311158
0.03286
0.0346065
0.036353
0.0380973
0.0398371
0.04157
0.0432937
0.0450059
0.0467043
0.0483867
0.0500508
0.0516943
0.0533149
0.0549104
0.0564788
0.0580177
0.0595251
0.0609989
0.0624371
0.0638376
0.0651985
0.066518
0.0677942
0.0690252
0.0702095
0.0713453
0.0724312
0.0734656
0.0744472
0.0753745
0.0762466
0.0770621
0.0778201
0.0785198
0.0791603
0.0797409
0.0802612
0.0807207
0.0811191
0.0814564
0.0817324
0.0819473
0.0821015
0.0821954
0.0822295
0.0822048
0.0821222
0.0819828
0.081788
0.0815393
0.0812384
0.0808873
0.0804881
0.0800432
0.0795551
0.0790267
0.078461
0.0778612
0.0772309
0.0765738
0.0758939
0.0751954
0.0744829
0.0737611
0.0730349
0.0723097
0.0715907
0.0708838
0.0701947
0.0695293
0.0688939
0.0682947
0.0677378
0.0672295
0.066776
0.0663834
0.0660579
0.0658048
0.0656304
0.0655504
0.0655743
0.00252788
0.00245251
0.00229865
0.00206829
0.00176878
0.00140609
0.000985715
0.000513343
-5.30161e-06
-0.000564466
-0.00115838
-0.00178129
-0.00242748
-0.00309136
-0.00376745
-0.00445043
-0.00513521
-0.00581684
-0.00649063
-0.00715209
-0.007797
-0.00842135
-0.00902139
-0.00959362
-0.0101347
-0.0106417
-0.0111116
-0.0115419
-0.0119303
-0.0122746
-0.0125727
-0.0128228
-0.0130234
-0.0131731
-0.0132705
-0.0133146
-0.0133045
-0.0132395
-0.0131188
-0.012942
-0.0127088
-0.0124189
-0.0120723
-0.011669
-0.0112092
-0.0106931
-0.0101211
-0.0094937
-0.00881141
-0.00807493
-0.00728503
-0.00644254
-0.0055484
-0.00460363
-0.00360934
-0.00256669
-0.00147691
-0.000341325
0.000838703
0.00206173
0.00332626
0.00463073
0.00597353
0.00735299
0.00876738
0.0102149
0.0116938
0.0132023
0.0147383
0.0162999
0.0178852
0.0194921
0.0211187
0.0227628
0.0244223
0.026095
0.0277789
0.0294718
0.0311713
0.0328754
0.0345818
0.0362883
0.0379926
0.0396925
0.0413856
0.0430699
0.044743
0.0464026
0.0480466
0.0496727
0.0512787
0.0528625
0.0544219
0.0559547
0.0574589
0.0589323
0.060373
0.0617789
0.0631482
0.0644789
0.0657692
0.0670173
0.0682215
0.0693801
0.0704916
0.0715543
0.072567
0.0735282
0.0744367
0.0752912
0.0760908
0.0768345
0.0775214
0.0781507
0.0787218
0.0792342
0.0796876
0.0800816
0.0804161
0.0806911
0.0809068
0.0810635
0.0811616
0.0812018
0.0811848
0.0811116
0.0809833
0.0808013
0.080567
0.080282
0.0799484
0.079568
0.0791433
0.0786767
0.0781709
0.0776287
0.0770534
0.0764483
0.0758169
0.075163
0.0744907
0.0738042
0.073108
0.0724067
0.0717052
0.0710085
0.0703219
0.0696508
0.0690007
0.0683772
0.0677859
0.0672326
0.0667229
0.0662624
0.0658567
0.0655113
0.0652315
0.0650229
0.0648952
0.0648523
0.00335832
0.00320484
0.0029939
0.00272142
0.00238767
0.00199816
0.00155811
0.00107244
0.000546261
-1.52667e-05
-0.000606971
-0.00122365
-0.00186015
-0.00251139
-0.00317237
-0.00383821
-0.00450422
-0.00516583
-0.00581869
-0.00645865
-0.00708175
-0.00768423
-0.00826256
-0.00881344
-0.00933376
-0.00982061
-0.0102713
-0.0106834
-0.0110546
-0.0113828
-0.0116661
-0.0119028
-0.0120914
-0.0122304
-0.0123187
-0.0123552
-0.012339
-0.0122694
-0.0121457
-0.0119675
-0.0117345
-0.0114464
-0.0111031
-0.0107047
-0.0102513
-0.00974312
-0.00918058
-0.00856409
-0.00789422
-0.0071716
-0.00639695
-0.00557109
-0.00469494
-0.00376947
-0.00279575
-0.00177491
-0.000708144
0.000403285
0.00155803
0.0027547
0.00399184
0.00526795
0.00658144
0.00793069
0.00931402
0.0107297
0.012176
0.0136511
0.0151531
0.0166802
0.0182303
0.0198016
0.0213921
0.0229997
0.0246223
0.0262579
0.0279044
0.0295596
0.0312215
0.0328878
0.0345563
0.0362249
0.0378915
0.0395537
0.0412094
0.0428565
0.0444926
0.0461156
0.0477234
0.0493138
0.0508846
0.0524336
0.0539589
0.0554583
0.0569298
0.0583713
0.0597808
0.0611565
0.0624964
0.0637987
0.0650616
0.0662834
0.0674623
0.0685968
0.0696853
0.0707264
0.0717187
0.0726608
0.0735515
0.0743897
0.0751743
0.0759045
0.0765793
0.0771981
0.0777602
0.0782652
0.0787127
0.0791024
0.0794342
0.0797081
0.0799243
0.080083
0.0801848
0.0802302
0.08022
0.0801552
0.0800368
0.079866
0.0796444
0.0793736
0.0790553
0.0786916
0.0782847
0.0778368
0.0773507
0.0768291
0.076275
0.0756915
0.075082
0.0744503
0.0737999
0.073135
0.0724597
0.0717784
0.0710956
0.070416
0.0697445
0.0690859
0.0684455
0.0678282
0.0672393
0.0666839
0.0661671
0.065694
0.0652697
0.0648989
0.0645867
0.0643383
0.0641567
0.06404
0.00426312
0.00402684
0.00375408
0.00343487
0.00306212
0.00264086
0.00217608
0.00167206
0.0011332
0.000564108
-3.05638e-05
-0.000646187
-0.00127809
-0.00192168
-0.00257243
-0.00322588
-0.0038777
-0.00452369
-0.00515983
-0.00578227
-0.00638735
-0.00697154
-0.00753154
-0.0080642
-0.00856668
-0.00903618
-0.00947017
-0.00986634
-0.0102225
-0.0105366
-0.010807
-0.0110318
-0.0112097
-0.0113394
-0.0114196
-0.0114494
-0.0114279
-0.0113544
-0.0112282
-0.011049
-0.0108164
-0.0105301
-0.0101901
-0.00979645
-0.00934925
-0.00884871
-0.00829519
-0.00768911
-0.00703102
-0.00632153
-0.00556132
-0.0047512
-0.00389205
-0.00298482
-0.00203054
-0.00103029
1.47473e-05
0.00110335
0.00223422
0.00340601
0.00461729
0.00586661
0.00715242
0.00847315
0.00982717
0.0112128
0.0126283
0.0140719
0.0155419
0.0170363
0.0185533
0.020091
0.0216474
0.0232205
0.0248084
0.0264089
0.0280201
0.0296399
0.0312662
0.0328968
0.0345297
0.0361627
0.0377937
0.0394204
0.0410409
0.0426529
0.0442543
0.0458429
0.0474166
0.0489734
0.050511
0.0520275
0.0535208
0.0549888
0.0564295
0.057841
0.0592213
0.0605686
0.061881
0.0631566
0.0643939
0.065591
0.0667463
0.0678582
0.0689252
0.069946
0.0709192
0.0718434
0.0727174
0.0735403
0.0743109
0.0750284
0.075692
0.0763009
0.0768545
0.0773524
0.0777942
0.0781798
0.0785089
0.0787815
0.0789979
0.0791583
0.0792631
0.0793131
0.0793088
0.0792513
0.0791415
0.0789807
0.0787702
0.0785117
0.0782069
0.0778577
0.0774661
0.0770346
0.0765654
0.0760614
0.0755253
0.0749601
0.0743691
0.0737556
0.0731233
0.0724759
0.0718172
0.0711513
0.0704826
0.0698153
0.0691539
0.0685029
0.067867
0.0672508
0.0666591
0.0660965
0.0655677
0.0650771
0.0646291
0.0642281
0.0638788
0.0635859
0.0633456
0.0631502
0.00522995
0.0049077
0.00456976
0.00420008
0.00378435
0.00332716
0.00283332
0.00230645
0.00175036
0.00116909
0.000566767
-5.24646e-05
-0.000684412
-0.00132492
-0.00196992
-0.0026153
-0.00325712
-0.00389156
-0.00451488
-0.00512353
-0.00571413
-0.00628339
-0.00682821
-0.00734569
-0.00783308
-0.00828782
-0.00870753
-0.00908999
-0.00943313
-0.00973509
-0.00999412
-0.0102087
-0.0103773
-0.0104988
-0.0105721
-0.0105961
-0.0105701
-0.0104933
-0.0103651
-0.0101852
-0.0099532
-0.0096689
-0.00933223
-0.00894321
-0.00850197
-0.00800872
-0.00746379
-0.00686761
-0.00622068
-0.0055236
-0.00477705
-0.0039818
-0.00313871
-0.00224869
-0.00131274
-0.000331926
0.000692626
0.00175971
0.00286808
0.00401641
0.00520333
0.0064274
0.00768713
0.00898098
0.0103074
0.0116647
0.0130512
0.0144652
0.0159049
0.0173686
0.0188543
0.0203603
0.0218847
0.0234254
0.0249805
0.0265481
0.0281261
0.0297126
0.0313054
0.0329025
0.0345018
0.0361013
0.0376988
0.0392923
0.0408797
0.0424588
0.0440275
0.0455838
0.0471256
0.0486508
0.0501574
0.0516433
0.0531066
0.0545452
0.0559571
0.0573405
0.0586935
0.0600142
0.0613008
0.0625516
0.0637648
0.0649389
0.066072
0.0671629
0.0682099
0.0692117
0.070167
0.0710745
0.071933
0.0727416
0.0734991
0.0742048
0.0748577
0.0754573
0.0760029
0.0764941
0.0769306
0.0773121
0.0776385
0.0779097
0.078126
0.0782877
0.0783951
0.0784488
0.0784496
0.0783984
0.078296
0.0781438
0.077943
0.0776951
0.0774019
0.0770651
0.0766868
0.0762691
0.0758143
0.0753251
0.074804
0.074254
0.0736781
0.0730794
0.0724614
0.0718275
0.0711814
0.070527
0.069868
0.0692085
0.0685527
0.0679047
0.0672687
0.0666491
0.0660499
0.0654755
0.06493
0.0644174
0.0639416
0.0635062
0.0631157
0.0627747
0.0624722
0.0621947
0.00624748
0.00583737
0.00543177
0.0050088
0.00454685
0.00405023
0.0035236
0.00296999
0.00239267
0.0017951
0.00118097
0.000553941
-8.22435e-05
-0.000723828
-0.00136713
-0.00200842
-0.00264415
-0.00327078
-0.00388489
-0.00448323
-0.00506264
-0.00562011
-0.00615273
-0.00665781
-0.00713276
-0.00757521
-0.00798292
-0.00835378
-0.00868589
-0.00897744
-0.00922681
-0.00943253
-0.00959324
-0.00970777
-0.00977505
-0.00979416
-0.00976431
-0.00968483
-0.00955518
-0.00937496
-0.00914383
-0.00886163
-0.00852828
-0.0081438
-0.00770832
-0.00722205
-0.00668531
-0.00609853
-0.00546217
-0.00477683
-0.00404318
-0.00326196
-0.00243399
-0.00156019
-0.000641503
0.000321029
0.0013263
0.00237314
0.00346033
0.00458661
0.00575061
0.00695094
0.00818614
0.00945472
0.0107551
0.0120858
0.013445
0.0148312
0.0162425
0.0176773
0.0191337
0.02061
0.0221042
0.0236144
0.0251388
0.0266754
0.0282223
0.0297775
0.0313389
0.0329045
0.0344724
0.0360405
0.0376067
0.039169
0.0407253
0.0422736
0.0438117
0.0453378
0.0468497
0.0483454
0.049823
0.0512803
0.0527155
0.0541266
0.0555117
0.0568689
0.0581964
0.0594923
0.0607549
0.0619825
0.0631733
0.0643258
0.0654384
0.0665096
0.067538
0.0685222
0.0694608
0.0703528
0.0711969
0.071992
0.0727374
0.0734319
0.074075
0.0746659
0.075204
0.0756889
0.0761202
0.0764978
0.0768215
0.0770912
0.0773072
0.0774697
0.0775791
0.077636
0.0776411
0.0775951
0.0774991
0.0773541
0.0771615
0.0769227
0.0766393
0.076313
0.0759458
0.0755396
0.0750968
0.0746198
0.074111
0.0735732
0.0730092
0.0724221
0.0718149
0.071191
0.0705538
0.0699068
0.0692536
0.0685979
0.0679436
0.0672943
0.0666541
0.0660267
0.065416
0.0648257
0.0642596
0.0637211
0.0632136
0.0627403
0.0623054
0.0619133
0.061546
0.0611844
0.00730534
0.00680645
0.00633158
0.00585315
0.00534241
0.00480346
0.00424089
0.00365718
0.00305507
0.00243759
0.00180796
0.00116938
0.000525204
-0.000121198
-0.000766495
-0.00140736
-0.00204052
-0.00266279
-0.00327106
-0.0038623
-0.0044336
-0.00498219
-0.0055054
-0.00600069
-0.0064657
-0.00689819
-0.00729605
-0.00765734
-0.00798026
-0.0082631
-0.00850437
-0.00870265
-0.00885668
-0.00896534
-0.00902764
-0.00904269
-0.00900975
-0.00892819
-0.00879751
-0.0086173
-0.00838729
-0.00810731
-0.00777728
-0.00739725
-0.00696732
-0.00648773
-0.00595879
-0.00538091
-0.00475456
-0.00408031
-0.00335881
-0.00259079
-0.00177707
-0.000918501
-1.60273e-05
0.000929327
0.00191649
0.00294433
0.00401166
0.00511723
0.00625972
0.00743777
0.00864997
0.00989486
0.0111709
0.0124766
0.0138102
0.0151703
0.016555
0.0179627
0.0193916
0.02084
0.022306
0.0237877
0.0252833
0.026791
0.0283087
0.0298345
0.0313666
0.0329028
0.0344413
0.03598
0.0375169
0.03905
0.0405773
0.0420968
0.0436065
0.0451043
0.0465883
0.0480566
0.049507
0.0509377
0.0523468
0.0537324
0.0550925
0.0564253
0.057729
0.0590019
0.0602421
0.0614481
0.0626182
0.0637507
0.0648442
0.0658972
0.0669083
0.067876
0.0687993
0.0696768
0.0705075
0.0712903
0.0720243
0.0727086
0.0733424
0.0739251
0.0744562
0.0749351
0.0753616
0.0757354
0.0760564
0.0763245
0.07654
0.076703
0.0768139
0.0768734
0.0768819
0.0768402
0.0767495
0.0766106
0.0764248
0.0761935
0.0759183
0.0756006
0.0752425
0.0748458
0.0744126
0.0739453
0.0734462
0.0729178
0.0723628
0.0717841
0.0711846
0.0705674
0.0699356
0.0692925
0.0686414
0.0679858
0.0673292
0.0666749
0.0660266
0.0653877
0.0647616
0.0641518
0.0635615
0.0629938
0.0624515
0.0619373
0.0614554
0.0610099
0.060576
0.0601291
0.00839415
0.00780618
0.0072611
0.00672563
0.00616409
0.00558047
0.00497931
0.00436264
0.00373271
0.00309214
0.00244369
0.00179022
0.0011347
0.000480112
-0.000170551
-0.00081428
-0.00144812
-0.00206923
-0.00267471
-0.0032618
-0.00382786
-0.00437031
-0.0048867
-0.00537466
-0.00583204
-0.00625675
-0.00664681
-0.00700044
-0.00731591
-0.00759168
-0.0078263
-0.00801848
-0.00816703
-0.00827089
-0.00832914
-0.00834094
-0.00830559
-0.00822252
-0.00809125
-0.00791139
-0.00768271
-0.00740505
-0.00707836
-0.00670266
-0.0062781
-0.0058049
-0.00528338
-0.00471393
-0.00409702
-0.00343321
-0.00272314
-0.00196753
-0.00116716
-0.000322883
0.000564383
0.00149364
0.00246385
0.00347391
0.00452265
0.00560884
0.00673121
0.00788842
0.0090791
0.0103018
0.0115551
0.0128374
0.0141472
0.0154828
0.0168426
0.018225
0.0196283
0.0210505
0.0224901
0.0239452
0.025414
0.0268946
0.0283851
0.0298836
0.0313882
0.0328971
0.0344081
0.0359194
0.037429
0.038935
0.0404353
0.041928
0.0434112
0.0448828
0.0463409
0.0477835
0.0492088
0.0506149
0.0519997
0.0533615
0.0546984
0.0560086
0.0572904
0.0585419
0.0597615
0.0609475
0.0620983
0.0632124
0.0642883
0.0653244
0.0663195
0.0672722
0.0681812
0.0690454
0.0698637
0.070635
0.0713585
0.0720333
0.0726586
0.0732338
0.0737583
0.0742316
0.0746535
0.0750237
0.075342
0.0756084
0.0758231
0.0759863
0.0760983
0.0761596
0.0761708
0.0761327
0.0760462
0.0759122
0.075732
0.0755068
0.0752381
0.0749274
0.0745765
0.0741872
0.0737615
0.0733016
0.0728096
0.0722881
0.0717394
0.0711663
0.0705714
0.0699578
0.0693282
0.0686857
0.0680335
0.0673745
0.0667121
0.0660494
0.0653896
0.0647358
0.0640911
0.0634585
0.0628409
0.062241
0.0616612
0.0611037
0.0605727
0.0600722
0.0595706
0.0590379
0.00950548
0.00882863
0.00821281
0.00761923
0.00700534
0.00637516
0.00573323
0.00508119
0.00442081
0.00375435
0.00308422
0.00241291
0.00174303
0.00107722
0.000418172
-0.00023143
-0.000868943
-0.00149177
-0.00209729
-0.00268298
-0.00324642
-0.00378525
-0.00429722
-0.00478019
-0.00523211
-0.00565106
-0.00603526
-0.00638299
-0.00669268
-0.0069629
-0.00719227
-0.00737961
-0.00752382
-0.00762389
-0.00767897
-0.00768828
-0.00765118
-0.00756713
-0.00743567
-0.00725649
-0.00702934
-0.0067541
-0.00643073
-0.00605927
-0.00563989
-0.0051728
-0.00465831
-0.00409682
-0.00348881
-0.00283482
-0.00213548
-0.00139149
-0.000603615
0.000227309
0.00110037
0.0020146
0.00296898
0.00396243
0.00499382
0.00606194
0.00716553
0.00830331
0.00947393
0.010676
0.011908
0.0131685
0.014456
0.0157689
0.0171056
0.0184644
0.0198437
0.0212417
0.0226568
0.0240871
0.0255309
0.0269863
0.0284515
0.0299246
0.0314038
0.0328871
0.0343726
0.0358585
0.0373428
0.0388236
0.0402989
0.0417668
0.0432253
0.0446726
0.0461067
0.0475258
0.0489278
0.050311
0.0516734
0.0530133
0.0543288
0.0556182
0.0568796
0.0581115
0.059312
0.0604797
0.0616128
0.0627099
0.0637695
0.0647902
0.0657706
0.0667094
0.0676053
0.0684573
0.0692642
0.0700251
0.0707389
0.0714049
0.0720223
0.0725905
0.0731089
0.0735771
0.0739946
0.0743613
0.074677
0.0749417
0.0751554
0.0753184
0.0754311
0.0754938
0.075507
0.0754716
0.0753884
0.0752583
0.0750824
0.074862
0.0745983
0.0742929
0.0739475
0.0735637
0.0731434
0.0726887
0.0722016
0.0716845
0.0711396
0.0705694
0.0699765
0.0693635
0.0687332
0.0680884
0.0674318
0.0667664
0.0660951
0.0654208
0.0647464
0.0640746
0.0634083
0.0627501
0.0621026
0.0614681
0.0608485
0.0602457
0.0596641
0.0591073
0.0585374
0.057919
0.0106316
0.00986641
0.00917974
0.00852733
0.00785999
0.00718173
0.00649726
0.0058078
0.00511473
0.00442
0.00372566
0.00303389
0.00234697
0.00166724
0.000997075
0.000338863
-0.000305018
-0.000932194
-0.00154033
-0.00212714
-0.00269039
-0.00322796
-0.00373774
-0.00421784
-0.00466633
-0.00508146
-0.00546157
-0.00580508
-0.00611055
-0.00637663
-0.00660208
-0.00678577
-0.0069267
-0.00702394
-0.00707668
-0.00708423
-0.00704599
-0.00696145
-0.00683021
-0.00665198
-0.00642655
-0.00615382
-0.00583376
-0.00546644
-0.00505203
-0.00459076
-0.00408294
-0.00352895
-0.0029293
-0.0022845
-0.00159519
-0.000862053
-8.58343e-05
0.000732636
0.00159246
0.00249271
0.00343237
0.00441038
0.00542564
0.00647695
0.00756311
0.00868283
0.00983481
0.0110177
0.01223
0.0134703
0.0147371
0.0160289
0.017344
0.018681
0.0200381
0.0214136
0.0228059
0.0242133
0.0256339
0.027066
0.0285077
0.0299573
0.0314129
0.0328726
0.0343346
0.035797
0.0372579
0.0387154
0.0401676
0.0416126
0.0430485
0.0444734
0.0458854
0.0472826
0.0486632
0.0500254
0.0513672
0.052687
0.0539829
0.0552531
0.056496
0.0577098
0.0588929
0.0600437
0.0611607
0.0622422
0.063287
0.0642936
0.0652605
0.0661866
0.0670707
0.0679115
0.068708
0.0694592
0.0701643
0.0708223
0.0714325
0.0719942
0.072507
0.0729703
0.0733838
0.0737472
0.0740604
0.0743232
0.0745359
0.0746985
0.0748113
0.0748749
0.0748896
0.0748561
0.0747753
0.074648
0.0744754
0.0742584
0.0739984
0.0736969
0.0733552
0.0729751
0.0725584
0.0721069
0.0716226
0.0711076
0.070564
0.0699943
0.0694008
0.0687859
0.0681522
0.0675022
0.0668385
0.0661639
0.0654809
0.0647922
0.0641003
0.0634079
0.0627174
0.0620312
0.0613514
0.0606801
0.0600189
0.0593692
0.0587356
0.0581218
0.0574834
0.0567797
0.0117654
0.0109128
0.0101554
0.00944378
0.0087222
0.00799474
0.00726629
0.00653769
0.00581005
0.00508498
0.00436423
0.0036497
0.00294337
0.00224729
0.00156354
0.000894263
0.000241592
-0.000392359
-0.00100548
-0.0015957
-0.002161
-0.00269943
-0.00320915
-0.00368833
-0.00413527
-0.00454835
-0.00492604
-0.0052669
-0.0055696
-0.00583288
-0.00605563
-0.0062368
-0.00637545
-0.00647074
-0.00652194
-0.00652841
-0.0064896
-0.00640504
-0.00627438
-0.00609736
-0.00587382
-0.00560367
-0.00528689
-0.00492361
-0.00451397
-0.00405822
-0.00355668
-0.00300976
-0.00241793
-0.00178172
-0.00110175
-0.000378695
0.000386693
0.0011936
0.00204115
0.00292844
0.00385446
0.00481818
0.00581849
0.00685426