/*--------------------------------*- C++ -*----------------------------------*\
  =========                 |
  \\      /  F ield         | OpenFOAM: The Open Source CFD Toolbox
   \\    /   O peration     | Website:  https://openfoam.org
    \\  /    A nd           | Version:  7
     \\/     M anipulation  |
\*---------------------------------------------------------------------------*/
FoamFile
{
    version     2.0;
    format      ascii;
    class       volVectorField;
    location    "0.2125";
    object      U;
}
// * * * * * * * * * * * * * * * * * * * * * * * * * * * * * * * * * * * * * //

dimensions      [0 1 -1 0 0 0 0];

internalField   nonuniform List<vector> 
25600
(
(1.94251e-07 -1.96416e-07 0)
(2.85621e-06 -1.78228e-06 0)
(9.06651e-06 -2.81905e-06 0)
(1.68826e-05 -3.19143e-06 0)
(2.48033e-05 -3.10753e-06 0)
(3.18794e-05 -2.73094e-06 0)
(3.74606e-05 -2.16669e-06 0)
(4.10978e-05 -1.48762e-06 0)
(4.24917e-05 -7.38442e-07 0)
(4.14504e-05 4.95925e-08 0)
(3.78549e-05 8.56535e-07 0)
(3.16438e-05 1.66786e-06 0)
(2.27946e-05 2.47332e-06 0)
(1.13175e-05 3.26642e-06 0)
(-2.75484e-06 4.04104e-06 0)
(-1.9372e-05 4.79362e-06 0)
(-3.8467e-05 5.52112e-06 0)
(-5.99649e-05 6.22083e-06 0)
(-8.3781e-05 6.89181e-06 0)
(-0.000109823 7.53293e-06 0)
(-0.000137996 8.14268e-06 0)
(-0.000168198 8.7209e-06 0)
(-0.000200326 9.26701e-06 0)
(-0.000234276 9.78074e-06 0)
(-0.00026994 1.02625e-05 0)
(-0.000307211 1.07117e-05 0)
(-0.000345981 1.11291e-05 0)
(-0.000386142 1.15142e-05 0)
(-0.000427586 1.18677e-05 0)
(-0.000470205 1.219e-05 0)
(-0.000513894 1.24813e-05 0)
(-0.000558546 1.27421e-05 0)
(-0.000604057 1.29728e-05 0)
(-0.000650325 1.31739e-05 0)
(-0.000697247 1.33459e-05 0)
(-0.000744723 1.34895e-05 0)
(-0.000792654 1.36053e-05 0)
(-0.000840944 1.36935e-05 0)
(-0.000889496 1.37545e-05 0)
(-0.000938218 1.3789e-05 0)
(-0.000987018 1.37976e-05 0)
(-0.00103581 1.37811e-05 0)
(-0.00108449 1.374e-05 0)
(-0.001133 1.3675e-05 0)
(-0.00118123 1.35867e-05 0)
(-0.00122911 1.34753e-05 0)
(-0.00127656 1.33413e-05 0)
(-0.00132351 1.31856e-05 0)
(-0.00136986 1.3009e-05 0)
(-0.00141556 1.2812e-05 0)
(-0.00146053 1.2595e-05 0)
(-0.00150469 1.23588e-05 0)
(-0.00154799 1.21039e-05 0)
(-0.00159036 1.18309e-05 0)
(-0.00163173 1.15403e-05 0)
(-0.00167204 1.12327e-05 0)
(-0.00171124 1.09089e-05 0)
(-0.00174926 1.05694e-05 0)
(-0.00178606 1.02147e-05 0)
(-0.00182157 9.84539e-06 0)
(-0.00185575 9.46218e-06 0)
(-0.00188855 9.06575e-06 0)
(-0.00191992 8.65659e-06 0)
(-0.00194982 8.23518e-06 0)
(-0.00197821 7.80223e-06 0)
(-0.00200504 7.35852e-06 0)
(-0.00203028 6.90461e-06 0)
(-0.0020539 6.44097e-06 0)
(-0.00207585 5.9682e-06 0)
(-0.00209612 5.48693e-06 0)
(-0.00211466 4.99778e-06 0)
(-0.00213146 4.50138e-06 0)
(-0.00214649 3.9984e-06 0)
(-0.00215973 3.48956e-06 0)
(-0.00217115 2.97556e-06 0)
(-0.00218074 2.45704e-06 0)
(-0.00218849 1.93453e-06 0)
(-0.00219437 1.40857e-06 0)
(-0.00219839 8.7984e-07 0)
(-0.00220054 3.49185e-07 0)
(-0.0022008 -1.82644e-07 0)
(-0.00219918 -7.15002e-07 0)
(-0.00219567 -1.24727e-06 0)
(-0.00219027 -1.77878e-06 0)
(-0.002183 -2.30878e-06 0)
(-0.00217386 -2.83653e-06 0)
(-0.00216285 -3.3613e-06 0)
(-0.00214999 -3.88238e-06 0)
(-0.0021353 -4.39903e-06 0)
(-0.00211878 -4.91049e-06 0)
(-0.00210047 -5.41602e-06 0)
(-0.00208038 -5.91491e-06 0)
(-0.00205854 -6.40643e-06 0)
(-0.00203498 -6.88978e-06 0)
(-0.00200973 -7.36413e-06 0)
(-0.00198282 -7.82868e-06 0)
(-0.00195428 -8.28271e-06 0)
(-0.00192417 -8.72553e-06 0)
(-0.00189251 -9.15636e-06 0)
(-0.00185935 -9.57433e-06 0)
(-0.00182474 -9.97861e-06 0)
(-0.00178873 -1.03685e-05 0)
(-0.00175137 -1.07432e-05 0)
(-0.00171272 -1.11021e-05 0)
(-0.00167284 -1.14444e-05 0)
(-0.00163178 -1.17691e-05 0)
(-0.00158961 -1.20756e-05 0)
(-0.00154639 -1.2363e-05 0)
(-0.0015022 -1.26306e-05 0)
(-0.0014571 -1.28779e-05 0)
(-0.00141117 -1.31041e-05 0)
(-0.00136448 -1.33084e-05 0)
(-0.00131711 -1.349e-05 0)
(-0.00126915 -1.36483e-05 0)
(-0.00122068 -1.37826e-05 0)
(-0.00117177 -1.38924e-05 0)
(-0.00112253 -1.39769e-05 0)
(-0.00107304 -1.40356e-05 0)
(-0.00102338 -1.40677e-05 0)
(-0.000973667 -1.40728e-05 0)
(-0.000923981 -1.40502e-05 0)
(-0.000874423 -1.39996e-05 0)
(-0.000825093 -1.39203e-05 0)
(-0.000776091 -1.38119e-05 0)
(-0.00072752 -1.3674e-05 0)
(-0.000679482 -1.35061e-05 0)
(-0.000632084 -1.33078e-05 0)
(-0.000585429 -1.30788e-05 0)
(-0.000539625 -1.28188e-05 0)
(-0.00049478 -1.25277e-05 0)
(-0.000451 -1.2205e-05 0)
(-0.000408394 -1.18507e-05 0)
(-0.000367071 -1.14648e-05 0)
(-0.000327137 -1.10472e-05 0)
(-0.000288701 -1.05979e-05 0)
(-0.000251868 -1.01169e-05 0)
(-0.000216745 -9.60455e-06 0)
(-0.000183436 -9.06111e-06 0)
(-0.000152042 -8.48702e-06 0)
(-0.000122662 -7.88289e-06 0)
(-9.5393e-05 -7.24949e-06 0)
(-7.03256e-05 -6.58781e-06 0)
(-4.75467e-05 -5.8991e-06 0)
(-2.71363e-05 -5.18499e-06 0)
(-9.16669e-06 -4.44754e-06 0)
(6.29975e-06 -3.68938e-06 0)
(1.92127e-05 -2.9139e-06 0)
(2.95372e-05 -2.12553e-06 0)
(3.72575e-05 -1.32997e-06 0)
(4.23826e-05 -5.3485e-07 0)
(4.49533e-05 2.49343e-07 0)
(4.50524e-05 1.00806e-06 0)
(4.28177e-05 1.72058e-06 0)
(3.84628e-05 2.35629e-06 0)
(3.23065e-05 2.86893e-06 0)
(2.48154e-05 3.18828e-06 0)
(1.66542e-05 3.20975e-06 0)
(8.77278e-06 2.77704e-06 0)
(2.64608e-06 1.69709e-06 0)
(1.24329e-07 1.24827e-07 0)
(1.78181e-06 -2.86095e-06 0)
(9.37105e-06 -9.37381e-06 0)
(2.30724e-05 -1.33608e-05 0)
(3.92349e-05 -1.46596e-05 0)
(5.50244e-05 -1.38882e-05 0)
(6.84555e-05 -1.16183e-05 0)
(7.79914e-05 -8.28787e-06 0)
(8.248e-05 -4.22575e-06 0)
(8.10906e-05 3.28309e-07 0)
(7.3245e-05 5.20098e-06 0)
(5.85621e-05 1.02631e-05 0)
(3.68073e-05 1.54189e-05 0)
(7.86742e-06 2.05963e-05 0)
(-2.82836e-05 2.57398e-05 0)
(-7.15975e-05 3.08064e-05 0)
(-0.000121968 3.57643e-05 0)
(-0.000179247 4.05865e-05 0)
(-0.000243247 4.52533e-05 0)
(-0.000313753 4.97493e-05 0)
(-0.000390531 5.40621e-05 0)
(-0.000473323 5.81824e-05 0)
(-0.000561862 6.21034e-05 0)
(-0.000655869 6.5819e-05 0)
(-0.000755054 6.93257e-05 0)
(-0.000859123 7.26217e-05 0)
(-0.000967779 7.5704e-05 0)
(-0.00108072 7.85731e-05 0)
(-0.00119764 8.12285e-05 0)
(-0.00131824 8.36709e-05 0)
(-0.00144221 8.59016e-05 0)
(-0.00156926 8.79219e-05 0)
(-0.00169908 8.97343e-05 0)
(-0.00183138 9.13405e-05 0)
(-0.00196585 9.27433e-05 0)
(-0.00210221 9.39455e-05 0)
(-0.00224018 9.49499e-05 0)
(-0.00237946 9.57601e-05 0)
(-0.00251978 9.63793e-05 0)
(-0.00266087 9.68108e-05 0)
(-0.00280245 9.7058e-05 0)
(-0.00294425 9.71246e-05 0)
(-0.00308603 9.70147e-05 0)
(-0.00322752 9.67318e-05 0)
(-0.00336848 9.628e-05 0)
(-0.00350866 9.56636e-05 0)
(-0.00364782 9.48861e-05 0)
(-0.00378574 9.39509e-05 0)
(-0.00392218 9.28628e-05 0)
(-0.00405693 9.16258e-05 0)
(-0.00418977 9.02439e-05 0)
(-0.00432049 8.87215e-05 0)
(-0.00444889 8.70625e-05 0)
(-0.00457477 8.5271e-05 0)
(-0.00469794 8.33512e-05 0)
(-0.00481822 8.13071e-05 0)
(-0.00493542 7.9143e-05 0)
(-0.00504939 7.68634e-05 0)
(-0.00515993 7.44724e-05 0)
(-0.00526691 7.19738e-05 0)
(-0.00537016 6.93719e-05 0)
(-0.00546954 6.66714e-05 0)
(-0.0055649 6.38765e-05 0)
(-0.00565612 6.09912e-05 0)
(-0.00574305 5.80197e-05 0)
(-0.00582557 5.49665e-05 0)
(-0.00590358 5.18362e-05 0)
(-0.00597696 4.86329e-05 0)
(-0.00604561 4.53611e-05 0)
(-0.00610942 4.2025e-05 0)
(-0.00616832 3.86292e-05 0)
(-0.00622221 3.5178e-05 0)
(-0.00627101 3.1676e-05 0)
(-0.00631466 2.81275e-05 0)
(-0.0063531 2.45375e-05 0)
(-0.00638626 2.09106e-05 0)
(-0.00641409 1.72515e-05 0)
(-0.00643656 1.35646e-05 0)
(-0.00645361 9.85456e-06 0)
(-0.00646524 6.12622e-06 0)
(-0.0064714 2.3846e-06 0)
(-0.00647209 -1.36543e-06 0)
(-0.00646729 -5.11911e-06 0)
(-0.00645701 -8.87144e-06 0)
(-0.00644126 -1.26174e-05 0)
(-0.00642003 -1.63519e-05 0)
(-0.00639337 -2.00699e-05 0)
(-0.00636129 -2.37663e-05 0)
(-0.00632383 -2.7436e-05 0)
(-0.00628103 -3.10737e-05 0)
(-0.00623295 -3.46741e-05 0)
(-0.00617964 -3.82318e-05 0)
(-0.00612117 -4.17417e-05 0)
(-0.00605762 -4.51987e-05 0)
(-0.00598907 -4.85972e-05 0)
(-0.0059156 -5.19317e-05 0)
(-0.00583732 -5.51966e-05 0)
(-0.00575433 -5.83866e-05 0)
(-0.00566674 -6.14965e-05 0)
(-0.00557468 -6.4521e-05 0)
(-0.00547827 -6.74544e-05 0)
(-0.00537766 -7.02911e-05 0)
(-0.00527299 -7.30257e-05 0)
(-0.00516441 -7.5653e-05 0)
(-0.00505208 -7.81677e-05 0)
(-0.00493617 -8.05645e-05 0)
(-0.00481687 -8.28379e-05 0)
(-0.00469434 -8.49827e-05 0)
(-0.00456879 -8.69935e-05 0)
(-0.00444041 -8.88654e-05 0)
(-0.00430941 -9.05933e-05 0)
(-0.004176 -9.21724e-05 0)
(-0.00404041 -9.35976e-05 0)
(-0.00390286 -9.48641e-05 0)
(-0.00376359 -9.59673e-05 0)
(-0.00362283 -9.69027e-05 0)
(-0.00348084 -9.76658e-05 0)
(-0.00333787 -9.82524e-05 0)
(-0.00319417 -9.86582e-05 0)
(-0.00305002 -9.88794e-05 0)
(-0.00290569 -9.89121e-05 0)
(-0.00276144 -9.87529e-05 0)
(-0.00261757 -9.83982e-05 0)
(-0.00247435 -9.78449e-05 0)
(-0.00233208 -9.70901e-05 0)
(-0.00219105 -9.6131e-05 0)
(-0.00205155 -9.49653e-05 0)
(-0.00191389 -9.35908e-05 0)
(-0.00177838 -9.20057e-05 0)
(-0.0016453 -9.02084e-05 0)
(-0.00151497 -8.8198e-05 0)
(-0.0013877 -8.59736e-05 0)
(-0.00126379 -8.35349e-05 0)
(-0.00114355 -8.08824e-05 0)
(-0.00102728 -7.80167e-05 0)
(-0.000915283 -7.49393e-05 0)
(-0.000807861 -7.16523e-05 0)
(-0.000705305 -6.81587e-05 0)
(-0.000607904 -6.44622e-05 0)
(-0.000515938 -6.05678e-05 0)
(-0.000429678 -5.64818e-05 0)
(-0.000349383 -5.22119e-05 0)
(-0.000275297 -4.77679e-05 0)
(-0.000207649 -4.31616e-05 0)
(-0.000146644 -3.84077e-05 0)
(-9.24616e-05 -3.35243e-05 0)
(-4.52506e-05 -2.85341e-05 0)
(-5.12025e-06 -2.3465e-05 0)
(2.78679e-05 -1.83524e-05 0)
(5.37118e-05 -1.32409e-05 0)
(7.24837e-05 -8.18725e-06 0)
(8.43488e-05 -3.26545e-06 0)
(8.95903e-05 1.4278e-06 0)
(8.86416e-05 5.76384e-06 0)
(8.21287e-05 9.5692e-06 0)
(7.09258e-05 1.26076e-05 0)
(5.6223e-05 1.45587e-05 0)
(3.9576e-05 1.4999e-05 0)
(2.29661e-05 1.33897e-05 0)
(9.16735e-06 9.17307e-06 0)
(1.69332e-06 2.64427e-06 0)
(2.81989e-06 -9.0673e-06 0)
(1.33693e-05 -2.30771e-05 0)
(3.09583e-05 -3.09347e-05 0)
(5.06248e-05 -3.29645e-05 0)
(6.87783e-05 -3.0265e-05 0)
(8.28617e-05 -2.39257e-05 0)
(9.08041e-05 -1.4873e-05 0)
(9.09651e-05 -3.84812e-06 0)
(8.2118e-05 8.56991e-06 0)
(6.33695e-05 2.19357e-05 0)
(3.40962e-05 3.59056e-05 0)
(-6.09939e-06 5.02136e-05 0)
(-5.74435e-05 6.46522e-05 0)
(-0.000120015 7.90582e-05 0)
(-0.000193779 9.33056e-05 0)
(-0.00027861 0.000107292 0)
(-0.000374303 0.000120938 0)
(-0.000480594 0.00013418 0)
(-0.000597171 0.000146967 0)
(-0.000723681 0.000159259 0)
(-0.00085974 0.000171026 0)
(-0.00100494 0.000182242 0)
(-0.00115884 0.000192888 0)
(-0.00132101 0.000202951 0)
(-0.00149098 0.00021242 0)
(-0.00166829 0.000221288 0)
(-0.00185245 0.000229551 0)
(-0.002043 0.000237206 0)
(-0.00223946 0.000244255 0)
(-0.00244133 0.000250698 0)
(-0.00264814 0.000256539 0)
(-0.00285941 0.000261782 0)
(-0.00307467 0.000266433 0)
(-0.00329344 0.000270499 0)
(-0.00351525 0.000273985 0)
(-0.00373965 0.0002769 0)
(-0.00396617 0.000279253 0)
(-0.00419437 0.000281053 0)
(-0.0044238 0.000282308 0)
(-0.00465402 0.000283029 0)
(-0.00488461 0.000283226 0)
(-0.00511515 0.00028291 0)
(-0.00534523 0.00028209 0)
(-0.00557444 0.000280779 0)
(-0.00580238 0.000278988 0)
(-0.00602868 0.000276726 0)
(-0.00625295 0.000274007 0)
(-0.00647483 0.000270841 0)
(-0.00669395 0.000267241 0)
(-0.00690998 0.000263217 0)
(-0.00712256 0.000258783 0)
(-0.00733137 0.000253949 0)
(-0.00753609 0.000248729 0)
(-0.0077364 0.000243133 0)
(-0.00793201 0.000237174 0)
(-0.00812263 0.000230864 0)
(-0.00830796 0.000224216 0)
(-0.00848775 0.000217242 0)
(-0.00866173 0.000209954 0)
(-0.00882965 0.000202364 0)
(-0.00899127 0.000194485 0)
(-0.00914636 0.000186329 0)
(-0.00929469 0.000177909 0)
(-0.00943606 0.000169237 0)
(-0.00957026 0.000160327 0)
(-0.00969711 0.000151191 0)
(-0.00981642 0.00014184 0)
(-0.00992804 0.00013229 0)
(-0.0100318 0.000122551 0)
(-0.0101275 0.000112639 0)
(-0.0102151 0.000102565 0)
(-0.0102945 9.23427e-05 0)
(-0.0103654 8.19854e-05 0)
(-0.0104278 7.15065e-05 0)
(-0.0104817 6.092e-05 0)
(-0.0105269 5.02393e-05 0)
(-0.0105634 3.94781e-05 0)
(-0.010591 2.86503e-05 0)
(-0.0106099 1.777e-05 0)
(-0.0106198 6.85147e-06 0)
(-0.0106208 -4.09123e-06 0)
(-0.0106129 -1.50438e-05 0)
(-0.0105961 -2.59917e-05 0)
(-0.0105704 -3.69201e-05 0)
(-0.0105358 -4.78141e-05 0)
(-0.0104923 -5.86591e-05 0)
(-0.0104401 -6.94399e-05 0)
(-0.0103791 -8.01417e-05 0)
(-0.0103094 -9.07491e-05 0)
(-0.0102311 -0.000101247 0)
(-0.0101443 -0.000111619 0)
(-0.0100492 -0.000121851 0)
(-0.00994577 -0.000131926 0)
(-0.00983422 -0.00014183 0)
(-0.00971469 -0.000151546 0)
(-0.00958734 -0.000161058 0)
(-0.00945234 -0.000170352 0)
(-0.00930988 -0.00017941 0)
(-0.00916015 -0.000188218 0)
(-0.00900337 -0.000196759 0)
(-0.00883976 -0.000205017 0)
(-0.00866956 -0.000212978 0)
(-0.00849301 -0.000220625 0)
(-0.00831039 -0.000227942 0)
(-0.00812196 -0.000234915 0)
(-0.00792801 -0.000241528 0)
(-0.00772884 -0.000247765 0)
(-0.00752477 -0.000253612 0)
(-0.00731611 -0.000259054 0)
(-0.0071032 -0.000264077 0)
(-0.00688639 -0.000268665 0)
(-0.00666604 -0.000272805 0)
(-0.00644251 -0.000276484 0)
(-0.00621619 -0.000279688 0)
(-0.00598747 -0.000282404 0)
(-0.00575675 -0.000284619 0)
(-0.00552443 -0.000286321 0)
(-0.00529094 -0.000287498 0)
(-0.00505671 -0.00028814 0)
(-0.00482217 -0.000288235 0)
(-0.00458778 -0.000287774 0)
(-0.00435398 -0.000286747 0)
(-0.00412123 -0.000285145 0)
(-0.00389001 -0.000282961 0)
(-0.00366078 -0.000280187 0)
(-0.00343402 -0.000276816 0)
(-0.00321021 -0.000272844 0)
(-0.00298983 -0.000268265 0)
(-0.00277339 -0.000263077 0)
(-0.00256135 -0.000257276 0)
(-0.00235422 -0.000250862 0)
(-0.00215248 -0.000243835 0)
(-0.00195662 -0.000236198 0)
(-0.00176711 -0.000227954 0)
(-0.00158445 -0.000219108 0)
(-0.0014091 -0.00020967 0)
(-0.00124152 -0.000199648 0)
(-0.00108216 -0.000189057 0)
(-0.000931461 -0.000177914 0)
(-0.000789841 -0.000166239 0)
(-0.000657697 -0.000154058 0)
(-0.000535402 -0.000141403 0)
(-0.000423297 -0.000128312 0)
(-0.000321687 -0.000114832 0)
(-0.000230832 -0.000101019 0)
(-0.000150938 -8.69447e-05 0)
(-8.21449e-05 -7.2694e-05 0)
(-2.45152e-05 -5.83737e-05 0)
(2.19862e-05 -4.41163e-05 0)
(5.75122e-05 -3.00878e-05 0)
(8.23598e-05 -1.64982e-05 0)
(9.70039e-05 -3.61424e-06 0)
(0.000102138 8.22177e-06 0)
(9.87234e-05 1.85695e-05 0)
(8.80504e-05 2.68625e-05 0)
(7.18025e-05 3.23816e-05 0)
(5.20812e-05 3.4244e-05 0)
(3.14302e-05 3.14309e-05 0)
(1.3381e-05 2.29685e-05 0)
(2.77049e-06 8.76315e-06 0)
(3.19782e-06 -1.68909e-05 0)
(1.47005e-05 -3.92681e-05 0)
(3.30736e-05 -5.06188e-05 0)
(5.24667e-05 -5.23141e-05 0)
(6.8776e-05 -4.60897e-05 0)
(7.9104e-05 -3.36167e-05 0)
(8.10401e-05 -1.63504e-05 0)
(7.26443e-05 4.50145e-06 0)
(5.24112e-05 2.79631e-05 0)
(1.92157e-05 5.32533e-05 0)
(-2.77487e-05 7.97539e-05 0)
(-8.90273e-05 0.000106971 0)
(-0.000164942 0.000134513 0)
(-0.000255633 0.000162067 0)
(-0.000361092 0.000189382 0)
(-0.000481184 0.000216256 0)
(-0.000615674 0.00024253 0)
(-0.000764243 0.000268071 0)
(-0.000926502 0.000292777 0)
(-0.00110201 0.000316563 0)
(-0.00129027 0.000339362 0)
(-0.00149075 0.000361122 0)
(-0.0017029 0.0003818 0)
(-0.00192613 0.000401365 0)
(-0.00215985 0.000419793 0)
(-0.00240342 0.000437067 0)
(-0.00265623 0.000453174 0)
(-0.00291765 0.000468109 0)
(-0.00318701 0.00048187 0)
(-0.0034637 0.000494456 0)
(-0.00374705 0.000505873 0)
(-0.00403642 0.000516127 0)
(-0.00433119 0.000525226 0)
(-0.0046307 0.000533183 0)
(-0.00493433 0.000540009 0)
(-0.00524145 0.00054572 0)
(-0.00555145 0.000550329 0)
(-0.00586371 0.000553855 0)
(-0.00617763 0.000556313 0)
(-0.00649263 0.000557724 0)
(-0.00680812 0.000558107 0)
(-0.00712352 0.00055748 0)
(-0.00743828 0.000555866 0)
(-0.00775185 0.000553285 0)
(-0.00806368 0.000549757 0)
(-0.00837326 0.000545305 0)
(-0.00868007 0.000539952 0)
(-0.00898359 0.00053372 0)
(-0.00928336 0.00052663 0)
(-0.00957888 0.000518707 0)
(-0.00986969 0.000509974 0)
(-0.0101553 0.000500454 0)
(-0.0104354 0.00049017 0)
(-0.0107094 0.000479145 0)
(-0.010977 0.000467405 0)
(-0.0112378 0.000454972 0)
(-0.0114913 0.000441872 0)
(-0.0117373 0.000428127 0)
(-0.0119753 0.000413762 0)
(-0.012205 0.000398802 0)
(-0.0124261 0.000383271 0)
(-0.0126382 0.000367194 0)
(-0.0128411 0.000350595 0)
(-0.0130345 0.000333499 0)
(-0.0132181 0.000315933 0)
(-0.0133916 0.000297919 0)
(-0.0135548 0.000279485 0)
(-0.0137074 0.000260655 0)
(-0.0138493 0.000241454 0)
(-0.0139802 0.00022191 0)
(-0.0141 0.000202047 0)
(-0.0142084 0.000181892 0)
(-0.0143054 0.000161472 0)
(-0.0143908 0.000140812 0)
(-0.0144644 0.00011994 0)
(-0.0145261 9.88832e-05 0)
(-0.0145759 7.7668e-05 0)
(-0.0146136 5.63224e-05 0)
(-0.0146393 3.48741e-05 0)
(-0.0146528 1.33513e-05 0)
(-0.0146541 -8.21818e-06 0)
(-0.0146432 -2.98059e-05 0)
(-0.0146201 -5.1383e-05 0)
(-0.0145848 -7.29206e-05 0)
(-0.0145373 -9.43895e-05 0)
(-0.0144778 -0.00011576 0)
(-0.0144062 -0.000137003 0)
(-0.0143226 -0.000158089 0)
(-0.0142272 -0.000178987 0)
(-0.01412 -0.000199667 0)
(-0.0140012 -0.000220099 0)
(-0.013871 -0.000240252 0)
(-0.0137294 -0.000260096 0)
(-0.0135768 -0.000279599 0)
(-0.0134132 -0.000298732 0)
(-0.013239 -0.000317462 0)
(-0.0130543 -0.000335758 0)
(-0.0128593 -0.000353591 0)
(-0.0126545 -0.000370928 0)
(-0.0124401 -0.000387739 0)
(-0.0122163 -0.000403992 0)
(-0.0119835 -0.000419657 0)
(-0.011742 -0.000434703 0)
(-0.0114923 -0.0004491 0)
(-0.0112346 -0.000462817 0)
(-0.0109694 -0.000475824 0)
(-0.010697 -0.000488091 0)
(-0.010418 -0.00049959 0)
(-0.0101327 -0.000510292 0)
(-0.00984157 -0.000520167 0)
(-0.00954515 -0.000529189 0)
(-0.00924388 -0.000537329 0)
(-0.00893829 -0.000544561 0)
(-0.00862888 -0.00055086 0)
(-0.00831619 -0.000556199 0)
(-0.00800076 -0.000560555 0)
(-0.00768315 -0.000563903 0)
(-0.00736394 -0.000566222 0)
(-0.0070437 -0.00056749 0)
(-0.00672303 -0.000567686 0)
(-0.00640255 -0.000566792 0)
(-0.00608285 -0.00056479 0)
(-0.00576457 -0.000561662 0)
(-0.00544834 -0.000557395 0)
(-0.00513479 -0.000551973 0)
(-0.00482458 -0.000545388 0)
(-0.00451834 -0.000537627 0)
(-0.00421675 -0.000528684 0)
(-0.00392045 -0.000518552 0)
(-0.00363011 -0.00050723 0)
(-0.00334637 -0.000494716 0)
(-0.0030699 -0.000481013 0)
(-0.00280134 -0.000466126 0)
(-0.00254135 -0.000450066 0)
(-0.00229055 -0.000432845 0)
(-0.00204958 -0.000414482 0)
(-0.00181905 -0.000395 0)
(-0.00159955 -0.000374429 0)
(-0.00139165 -0.000352805 0)
(-0.00119591 -0.000330172 0)
(-0.00101283 -0.000306586 0)
(-0.000842901 -0.000282112 0)
(-0.000686554 -0.000256829 0)
(-0.000544172 -0.000230836 0)
(-0.000416073 -0.000204247 0)
(-0.000302504 -0.000177205 0)
(-0.000203618 -0.000149882 0)
(-0.000119466 -0.000122489 0)
(-4.99665e-05 -9.52838e-05 0)
(5.11136e-06 -6.85856e-05 0)
(4.61837e-05 -4.279e-05 0)
(7.3886e-05 -1.83894e-05 0)
(8.91161e-05 4.00168e-06 0)
(9.30826e-05 2.36162e-05 0)
(8.73621e-05 3.95018e-05 0)
(7.39562e-05 5.04935e-05 0)
(5.53025e-05 5.52083e-05 0)
(3.4301e-05 5.20915e-05 0)
(1.50089e-05 3.9588e-05 0)
(3.20478e-06 1.6638e-05 0)
(3.12363e-06 -2.48415e-05 0)
(1.39857e-05 -5.51447e-05 0)
(3.05194e-05 -6.88677e-05 0)
(4.64943e-05 -6.8669e-05 0)
(5.75357e-05 -5.70609e-05 0)
(6.05134e-05 -3.63437e-05 0)
(5.28314e-05 -8.52012e-06 0)
(3.23565e-05 2.47234e-05 0)
(-2.58659e-06 6.19914e-05 0)
(-5.32792e-05 0.000102144 0)
(-0.000120664 0.000144254 0)
(-0.000205392 0.000187567 0)
(-0.000307865 0.000231474 0)
(-0.000428278 0.00027548 0)
(-0.000566646 0.000319181 0)
(-0.000722836 0.000362252 0)
(-0.000896593 0.000404425 0)
(-0.00108755 0.000445485 0)
(-0.00129527 0.000485255 0)
(-0.00151923 0.000523592 0)
(-0.00175884 0.000560382 0)
(-0.00201349 0.00059553 0)
(-0.00228249 0.000628965 0)
(-0.00256515 0.000660627 0)
(-0.00286074 0.000690475 0)
(-0.00316851 0.000718473 0)
(-0.00348769 0.000744599 0)
(-0.0038175 0.000768838 0)
(-0.00415717 0.000791184 0)
(-0.00450589 0.000811634 0)
(-0.00486288 0.000830191 0)
(-0.00522733 0.000846865 0)
(-0.00559847 0.000861667 0)
(-0.00597549 0.000874613 0)
(-0.00635762 0.000885722 0)
(-0.00674409 0.000895015 0)
(-0.00713411 0.000902516 0)
(-0.00752694 0.00090825 0)
(-0.00792182 0.000912245 0)
(-0.00831802 0.00091453 0)
(-0.0087148 0.000915134 0)
(-0.00911146 0.000914091 0)
(-0.0095073 0.000911432 0)
(-0.00990161 0.000907192 0)
(-0.0102937 0.000901403 0)
(-0.010683 0.000894103 0)
(-0.0110688 0.000885325 0)
(-0.0114505 0.000875107 0)
(-0.0118274 0.000863485 0)
(-0.012199 0.000850497 0)
(-0.0125646 0.00083618 0)
(-0.0129238 0.000820572 0)
(-0.0132759 0.000803711 0)
(-0.0136204 0.000785636 0)
(-0.0139569 0.000766387 0)
(-0.0142848 0.000746001 0)
(-0.0146035 0.000724518 0)
(-0.0149128 0.000701978 0)
(-0.015212 0.000678421 0)
(-0.0155008 0.000653886 0)
(-0.0157787 0.000628415 0)
(-0.0160455 0.000602046 0)
(-0.0163005 0.000574821 0)
(-0.0165436 0.000546781 0)
(-0.0167744 0.000517967 0)
(-0.0169925 0.00048842 0)
(-0.0171976 0.000458182 0)
(-0.0173894 0.000427295 0)
(-0.0175678 0.0003958 0)
(-0.0177323 0.000363741 0)
(-0.0178828 0.000331161 0)
(-0.0180191 0.000298101 0)
(-0.0181409 0.000264606 0)
(-0.0182481 0.000230719 0)
(-0.0183406 0.000196485 0)
(-0.0184181 0.000161948 0)
(-0.0184806 0.000127153 0)
(-0.0185279 9.21451e-05 0)
(-0.01856 5.69699e-05 0)
(-0.0185769 2.16734e-05 0)
(-0.0185784 -1.3698e-05 0)
(-0.0185646 -4.90975e-05 0)
(-0.0185354 -8.44781e-05 0)
(-0.0184909 -0.000119792 0)
(-0.0184311 -0.000154991 0)
(-0.0183561 -0.000190028 0)
(-0.018266 -0.000224853 0)
(-0.0181608 -0.000259418 0)
(-0.0180407 -0.000293674 0)
(-0.0179059 -0.00032757 0)
(-0.0177565 -0.000361057 0)
(-0.0175926 -0.000394086 0)
(-0.0174146 -0.000426605 0)
(-0.0172226 -0.000458564 0)
(-0.0170169 -0.000489912 0)
(-0.0167978 -0.000520599 0)
(-0.0165655 -0.000550574 0)
(-0.0163205 -0.000579786 0)
(-0.016063 -0.000608185 0)
(-0.0157933 -0.000635719 0)
(-0.015512 -0.000662338 0)
(-0.0152194 -0.000687992 0)
(-0.0149159 -0.00071263 0)
(-0.0146019 -0.000736204 0)
(-0.0142781 -0.000758663 0)
(-0.0139447 -0.000779958 0)
(-0.0136024 -0.000800042 0)
(-0.0132518 -0.000818866 0)
(-0.0128932 -0.000836384 0)
(-0.0125274 -0.00085255 0)
(-0.0121549 -0.000867318 0)
(-0.0117763 -0.000880643 0)
(-0.0113923 -0.000892484 0)
(-0.0110034 -0.000902797 0)
(-0.0106105 -0.000911542 0)
(-0.0102141 -0.000918679 0)
(-0.00981493 -0.000924172 0)
(-0.00941375 -0.000927983 0)
(-0.00901127 -0.000930079 0)
(-0.00860822 -0.000930426 0)
(-0.00820537 -0.000928995 0)
(-0.00780348 -0.000925757 0)
(-0.00740333 -0.000920686 0)
(-0.0070057 -0.000913759 0)
(-0.00661139 -0.000904955 0)
(-0.00622121 -0.000894257 0)
(-0.00583595 -0.00088165 0)
(-0.00545643 -0.000867124 0)
(-0.00508346 -0.00085067 0)
(-0.00471786 -0.000832287 0)
(-0.00436045 -0.000811975 0)
(-0.00401202 -0.000789741 0)
(-0.00367338 -0.000765597 0)
(-0.00334532 -0.000739562 0)
(-0.00302862 -0.00071166 0)
(-0.00272406 -0.000681925 0)
(-0.00243237 -0.000650399 0)
(-0.00215427 -0.000617133 0)
(-0.00189046 -0.000582193 0)
(-0.0016416 -0.000545656 0)
(-0.00140831 -0.000507615 0)
(-0.00119115 -0.000468183 0)
(-0.000990632 -0.000427496 0)
(-0.00080721 -0.000385717 0)
(-0.000641245 -0.00034304 0)
(-0.000493008 -0.0002997 0)
(-0.000362662 -0.000255979 0)
(-0.000250239 -0.000212217 0)
(-0.000155617 -0.000168829 0)
(-7.84958e-05 -0.000126319 0)
(-1.83652e-05 -8.52987e-05 0)
(2.55336e-05 -4.65197e-05 0)
(5.42465e-05 -1.08991e-05 0)
(6.91517e-05 2.04443e-05 0)
(7.20111e-05 4.6154e-05 0)
(6.50229e-05 6.46063e-05 0)
(5.08322e-05 7.39001e-05 0)
(3.25738e-05 7.18903e-05 0)
(1.46181e-05 5.62913e-05 0)
(3.19075e-06 2.48085e-05 0)
(2.76108e-06 -3.19839e-05 0)
(1.17963e-05 -6.8748e-05 0)
(2.43807e-05 -8.31677e-05 0)
(3.4373e-05 -7.91739e-05 0)
(3.73285e-05 -6.01108e-05 0)
(3.00116e-05 -2.89344e-05 0)
(9.71956e-06 1.17968e-05 0)
(-2.57703e-05 5.99121e-05 0)
(-7.82315e-05 0.000113594 0)
(-0.000149038 0.00017133 0)
(-0.000239217 0.000231868 0)
(-0.00034949 0.000294176 0)
(-0.000480316 0.000357405 0)
(-0.000631927 0.000420854 0)
(-0.000804358 0.000483948 0)
(-0.000997478 0.000546212 0)
(-0.00121101 0.000607257 0)
(-0.00144457 0.000666762 0)
(-0.00169765 0.000724464 0)
(-0.00196967 0.000780146 0)
(-0.00225998 0.000833633 0)
(-0.00256786 0.000884781 0)
(-0.00289255 0.000933476 0)
(-0.00323324 0.000979627 0)
(-0.00358908 0.00102316 0)
(-0.00395923 0.00106403 0)
(-0.00434277 0.00110218 0)
(-0.00473882 0.0011376 0)
(-0.00514645 0.00117027 0)
(-0.00556474 0.00120018 0)
(-0.00599275 0.00122733 0)
(-0.00642956 0.00125173 0)
(-0.00687423 0.0012734 0)
(-0.00732583 0.00129235 0)
(-0.00778345 0.00130862 0)
(-0.00824617 0.00132222 0)
(-0.00871307 0.0013332 0)
(-0.00918325 0.00134158 0)
(-0.00965584 0.00134741 0)
(-0.01013 0.00135072 0)
(-0.0106047 0.00135157 0)
(-0.0110793 0.00134999 0)
(-0.0115529 0.00134603 0)
(-0.0120246 0.00133974 0)
(-0.0124937 0.00133117 0)
(-0.0129593 0.00132038 0)
(-0.0134208 0.0013074 0)
(-0.0138773 0.00129231 0)
(-0.0143281 0.00127514 0)
(-0.0147726 0.00125595 0)
(-0.0152099 0.00123481 0)
(-0.0156395 0.00121175 0)
(-0.0160606 0.00118685 0)
(-0.0164727 0.00116016 0)
(-0.0168751 0.00113173 0)
(-0.0172672 0.00110162 0)
(-0.0176484 0.00106989 0)
(-0.0180182 0.0010366 0)
(-0.018376 0.0010018 0)
(-0.0187214 0.000965561 0)
(-0.0190538 0.000927936 0)
(-0.0193727 0.000888986 0)
(-0.0196777 0.000848771 0)
(-0.0199684 0.000807351 0)
(-0.0202443 0.000764787 0)
(-0.0205051 0.00072114 0)
(-0.0207503 0.000676472 0)
(-0.0209797 0.000630845 0)
(-0.0211928 0.000584321 0)
(-0.0213895 0.000536963 0)
(-0.0215694 0.000488835 0)
(-0.0217323 0.00044 0)
(-0.0218779 0.000390523 0)
(-0.022006 0.000340469 0)
(-0.0221164 0.000289902 0)
(-0.022209 0.000238889 0)
(-0.0222836 0.000187496 0)
(-0.0223401 0.00013579 0)
(-0.0223784 8.38393e-05 0)
(-0.0223984 3.17109e-05 0)
(-0.0224 -2.05261e-05 0)
(-0.0223834 -7.28027e-05 0)
(-0.0223484 -0.000125049 0)
(-0.022295 -0.000177194 0)
(-0.0222234 -0.000229168 0)
(-0.0221336 -0.000280899 0)
(-0.0220257 -0.000332316 0)
(-0.0218998 -0.000383346 0)
(-0.0217561 -0.000433915 0)
(-0.0215947 -0.000483952 0)
(-0.0214159 -0.000533382 0)
(-0.0212199 -0.000582132 0)
(-0.0210069 -0.000630128 0)
(-0.0207773 -0.000677294 0)
(-0.0205313 -0.000723556 0)
(-0.0202692 -0.000768839 0)
(-0.0199914 -0.00081307 0)
(-0.0196984 -0.000856172 0)
(-0.0193904 -0.000898071 0)
(-0.019068 -0.000938692 0)
(-0.0187316 -0.000977961 0)
(-0.0183817 -0.0010158 0)
(-0.0180189 -0.00105215 0)
(-0.0176435 -0.00108692 0)
(-0.0172563 -0.00112005 0)
(-0.0168578 -0.00115145 0)
(-0.0164486 -0.00118107 0)
(-0.0160294 -0.00120884 0)
(-0.0156007 -0.00123468 0)
(-0.0151634 -0.00125852 0)
(-0.0147181 -0.0012803 0)
(-0.0142655 -0.00129996 0)
(-0.0138064 -0.00131743 0)
(-0.0133416 -0.00133265 0)
(-0.0128718 -0.00134556 0)
(-0.0123979 -0.00135611 0)
(-0.0119206 -0.00136424 0)
(-0.011441 -0.0013699 0)
(-0.0109597 -0.00137303 0)
(-0.0104777 -0.00137359 0)
(-0.00999596 -0.00137155 0)
(-0.00951527 -0.00136685 0)
(-0.0090366 -0.00135946 0)
(-0.00856088 -0.00134935 0)
(-0.00808904 -0.00133648 0)
(-0.00762205 -0.00132085 0)
(-0.00716084 -0.00130242 0)
(-0.00670638 -0.00128118 0)
(-0.00625962 -0.00125713 0)
(-0.00582153 -0.00123026 0)
(-0.00539305 -0.00120058 0)
(-0.00497514 -0.0011681 0)
(-0.00456873 -0.00113284 0)
(-0.00417476 -0.00109483 0)
(-0.00379412 -0.00105412 0)
(-0.00342772 -0.00101075 0)
(-0.00307641 -0.000964802 0)
(-0.00274104 -0.000916346 0)
(-0.00242239 -0.000865485 0)
(-0.00212124 -0.000812339 0)
(-0.00183827 -0.000757052 0)
(-0.00157415 -0.000699796 0)
(-0.00132945 -0.000640775 0)
(-0.00110466 -0.000580232 0)
(-0.000900186 -0.000518457 0)
(-0.000716324 -0.000455795 0)
(-0.000553239 -0.000392657 0)
(-0.000410949 -0.000329538 0)
(-0.000289301 -0.000267028 0)
(-0.000187943 -0.000205837 0)
(-0.000106296 -0.000146816 0)
(-4.35169e-05 -9.09954e-05 0)
(1.53766e-06 -3.96084e-05 0)
(3.03509e-05 5.86297e-06 0)
(4.47931e-05 4.36526e-05 0)
(4.71707e-05 7.16736e-05 0)
(4.02429e-05 8.74941e-05 0)
(2.72785e-05 8.83434e-05 0)
(1.27519e-05 7.11393e-05 0)
(2.88571e-06 3.23427e-05 0)
(2.21658e-06 -3.76784e-05 0)
(8.56781e-06 -7.85686e-05 0)
(1.55787e-05 -9.14759e-05 0)
(1.75363e-05 -8.14631e-05 0)
(1.01298e-05 -5.26813e-05 0)
(-9.89907e-06 -8.73533e-06 0)
(-4.52663e-05 4.72661e-05 0)
(-9.82189e-05 0.000112677 0)
(-0.000170562 0.000185258 0)
(-0.000263712 0.000263125 0)
(-0.000378733 0.0003447 0)
(-0.000516388 0.000428658 0)
(-0.000677163 0.000513901 0)
(-0.000861312 0.000599507 0)
(-0.00106888 0.000684714 0)
(-0.00129972 0.000768885 0)
(-0.00155356 0.00085149 0)
(-0.00182996 0.000932092 0)
(-0.00212839 0.00101032 0)
(-0.00244821 0.00108589 0)
(-0.00278869 0.00115853 0)
(-0.00314906 0.00122806 0)
(-0.00352845 0.0012943 0)
(-0.00392598 0.00135712 0)
(-0.00434069 0.00141642 0)
(-0.00477163 0.00147211 0)
(-0.00521778 0.00152414 0)
(-0.00567814 0.00157246 0)
(-0.00615166 0.00161704 0)
(-0.0066373 0.00165787 0)
(-0.007134 0.00169495 0)
(-0.0076407 0.00172828 0)
(-0.00815635 0.00175788 0)
(-0.00867988 0.00178377 0)
(-0.00921025 0.00180599 0)
(-0.0097464 0.00182456 0)
(-0.0102873 0.00183953 0)
(-0.0108319 0.00185096 0)
(-0.0113792 0.00185887 0)
(-0.0119282 0.00186334 0)
(-0.0124779 0.00186442 0)
(-0.0130274 0.00186217 0)
(-0.0135756 0.00185665 0)
(-0.0141217 0.00184793 0)
(-0.0146646 0.00183607 0)
(-0.0152036 0.00182115 0)
(-0.0157376 0.00180323 0)
(-0.016266 0.00178238 0)
(-0.0167877 0.00175868 0)
(-0.017302 0.0017322 0)
(-0.0178081 0.00170302 0)
(-0.0183052 0.00167122 0)
(-0.0187925 0.00163686 0)
(-0.0192693 0.00160003 0)
(-0.0197349 0.00156081 0)
(-0.0201885 0.00151927 0)
(-0.0206296 0.0014755 0)
(-0.0210575 0.00142957 0)
(-0.0214715 0.00138157 0)
(-0.021871 0.00133157 0)
(-0.0222556 0.00127967 0)
(-0.0226245 0.00122593 0)
(-0.0229774 0.00117045 0)
(-0.0233136 0.00111331 0)
(-0.0236327 0.00105459 0)
(-0.0239344 0.000994378 0)
(-0.024218 0.000932755 0)
(-0.0244833 0.00086981 0)
(-0.0247299 0.000805628 0)
(-0.0249573 0.000740296 0)
(-0.0251653 0.000673903 0)
(-0.0253537 0.000606535 0)
(-0.025522 0.000538283 0)
(-0.0256701 0.000469235 0)
(-0.0257977 0.000399482 0)
(-0.0259047 0.000329116 0)
(-0.0259908 0.000258227 0)
(-0.0260561 0.000186909 0)
(-0.0261002 0.000115255 0)
(-0.0261232 4.33585e-05 0)
(-0.026125 -2.86853e-05 0)
(-0.0261056 -0.000100781 0)
(-0.0260649 -0.000172832 0)
(-0.0260031 -0.000244741 0)
(-0.0259201 -0.000316411 0)
(-0.0258161 -0.000387742 0)