/*--------------------------------*- C++ -*----------------------------------*\
  =========                 |
  \\      /  F ield         | OpenFOAM: The Open Source CFD Toolbox
   \\    /   O peration     | Website:  https://openfoam.org
    \\  /    A nd           | Version:  7
     \\/     M anipulation  |
\*---------------------------------------------------------------------------*/
FoamFile
{
    version     2.0;
    format      ascii;
    class       surfaceScalarField;
    location    "0.05";
    object      phi;
}
// * * * * * * * * * * * * * * * * * * * * * * * * * * * * * * * * * * * * * //

dimensions      [0 3 -1 0 0 0 0];

internalField   nonuniform List<scalar> 
50880
(
9.08562e-12
-9.08083e-12
3.36476e-11
-2.45637e-11
5.68794e-11
-2.32302e-11
7.48116e-11
-1.79357e-11
8.32849e-11
-8.47329e-12
8.01814e-11
3.10349e-12
6.44579e-11
1.57208e-11
3.57431e-11
2.87152e-11
-5.96133e-12
4.17034e-11
-6.03861e-11
5.44244e-11
-1.27076e-10
6.66893e-11
-2.05446e-10
7.83708e-11
-2.94841e-10
8.93969e-11
-3.94573e-10
9.97324e-11
-5.03942e-10
1.09368e-10
-6.22224e-10
1.1828e-10
-7.48698e-10
1.26474e-10
-8.82677e-10
1.33981e-10
-1.0235e-09
1.40822e-10
-1.17051e-09
1.47022e-10
-1.32312e-09
1.52604e-10
-1.4807e-09
1.57583e-10
-1.64268e-09
1.61984e-10
-1.80852e-09
1.65837e-10
-1.97769e-09
1.69166e-10
-2.14968e-09
1.71993e-10
-2.32403e-09
1.74347e-10
-2.50028e-09
1.76251e-10
-2.67801e-09
1.77728e-10
-2.85681e-09
1.78803e-10
-3.03632e-09
1.79504e-10
-3.21617e-09
1.79857e-10
-3.39606e-09
1.7988e-10
-3.57565e-09
1.79592e-10
-3.75466e-09
1.79011e-10
-3.93281e-09
1.78151e-10
-4.10984e-09
1.77031e-10
-4.28552e-09
1.75673e-10
-4.45961e-09
1.74097e-10
-4.63193e-09
1.72315e-10
-4.80226e-09
1.70332e-10
-4.97042e-09
1.68158e-10
-5.13623e-09
1.6581e-10
-5.29952e-09
1.63299e-10
-5.46015e-09
1.6063e-10
-5.61796e-09
1.5781e-10
-5.77281e-09
1.54852e-10
-5.92457e-09
1.51762e-10
-6.07312e-09
1.48549e-10
-6.21835e-09
1.45226e-10
-6.36015e-09
1.41798e-10
-6.49841e-09
1.38265e-10
-6.63305e-09
1.34633e-10
-6.76396e-09
1.30912e-10
-6.89106e-09
1.27106e-10
-7.01428e-09
1.23217e-10
-7.13352e-09
1.1925e-10
-7.24873e-09
1.1521e-10
-7.35983e-09
1.11094e-10
-7.46673e-09
1.069e-10
-7.56937e-09
1.02636e-10
-7.66767e-09
9.83078e-11
-7.76159e-09
9.39182e-11
-7.85106e-09
8.9467e-11
-7.93602e-09
8.49572e-11
-8.01641e-09
8.03923e-11
-8.09218e-09
7.57711e-11
-8.16327e-09
7.10906e-11
-8.22962e-09
6.63527e-11
-8.29118e-09
6.15625e-11
-8.34791e-09
5.67233e-11
-8.39974e-09
5.18334e-11
-8.44664e-09
4.68909e-11
-8.48854e-09
4.18979e-11
-8.52539e-09
3.68585e-11
-8.55717e-09
3.17766e-11
-8.58382e-09
2.66547e-11
-8.60532e-09
2.1495e-11
-8.62162e-09
1.63023e-11
-8.6327e-09
1.10796e-11
-8.63853e-09
5.82759e-12
-8.63908e-09
5.46984e-13
-8.63432e-09
-4.76141e-12
-8.62422e-09
-1.00942e-11
-8.60878e-09
-1.54465e-11
-8.58796e-09
-2.08139e-11
-8.56177e-09
-2.61909e-11
-8.5302e-09
-3.15722e-11
-8.49325e-09
-3.6953e-11
-8.45092e-09
-4.23271e-11
-8.40323e-09
-4.76895e-11
-8.35019e-09
-5.30382e-11
-8.29182e-09
-5.83704e-11
-8.22814e-09
-6.36818e-11
-8.15917e-09
-6.89673e-11
-8.08495e-09
-7.42233e-11
-8.0055e-09
-7.94507e-11
-7.92085e-09
-8.46518e-11
-7.83103e-09
-8.98253e-11
-7.73606e-09
-9.49667e-11
-7.63599e-09
-1.00069e-10
-7.53087e-09
-1.05125e-10
-7.42074e-09
-1.10124e-10
-7.30568e-09
-1.15061e-10
-7.18575e-09
-1.19929e-10
-7.06103e-09
-1.2472e-10
-6.9316e-09
-1.29428e-10
-6.79756e-09
-1.34042e-10
-6.65902e-09
-1.38549e-10
-6.51607e-09
-1.42943e-10
-6.36885e-09
-1.47219e-10
-6.21748e-09
-1.5137e-10
-6.06209e-09
-1.5539e-10
-5.90283e-09
-1.59266e-10
-5.73985e-09
-1.62984e-10
-5.57331e-09
-1.66532e-10
-5.40342e-09
-1.69898e-10
-5.23035e-09
-1.7307e-10
-5.05431e-09
-1.76038e-10
-4.87551e-09
-1.78795e-10
-4.69418e-09
-1.81327e-10
-4.51057e-09
-1.83617e-10
-4.32492e-09
-1.85645e-10
-4.13753e-09
-1.87391e-10
-3.94869e-09
-1.88835e-10
-3.75874e-09
-1.89956e-10
-3.568e-09
-1.90734e-10
-3.37685e-09
-1.91153e-10
-3.18565e-09
-1.91196e-10
-2.99481e-09
-1.90846e-10
-2.80472e-09
-1.90082e-10
-2.61584e-09
-1.8888e-10
-2.42863e-09
-1.87218e-10
-2.24355e-09
-1.85071e-10
-2.06114e-09
-1.82416e-10
-1.88191e-09
-1.79225e-10
-1.70644e-09
-1.75473e-10
-1.5353e-09
-1.71141e-10
-1.36908e-09
-1.66215e-10
-1.20841e-09
-1.60674e-10
-1.05391e-09
-1.54495e-10
-9.06246e-10
-1.47667e-10
-7.66069e-10
-1.40178e-10
-6.34065e-10
-1.32004e-10
-5.10942e-10
-1.23121e-10
-3.97419e-10
-1.13522e-10
-2.94206e-10
-1.03214e-10
-2.02003e-10
-9.22042e-11
-1.21497e-10
-8.05053e-11
-5.33445e-11
-6.81525e-11
1.87718e-12
-5.52235e-11
4.37182e-11
-4.18427e-11
7.19031e-11
-2.81849e-11
8.64459e-11
-1.45424e-11
8.78311e-11
-1.38453e-12
7.72866e-11
1.05465e-11
5.72209e-11
2.00661e-11
3.19973e-11
2.52227e-11
9.25726e-12
2.27402e-11
9.25726e-12
1.93869e-11
-2.84695e-11
5.77328e-11
-6.29073e-11
9.48438e-11
-6.03372e-11
1.16078e-10
-3.91686e-11
1.13388e-10
-5.78051e-12
8.13268e-11
3.51657e-11
1.67847e-11
8.02658e-11
-8.1735e-11
1.27235e-10
-2.14594e-10
1.74565e-10
-3.81407e-10
2.21238e-10
-5.81254e-10
2.66536e-10
-8.12854e-10
3.09969e-10
-1.07468e-09
3.51215e-10
-1.36502e-09
3.9008e-10
-1.6821e-09
4.26452e-10
-2.02409e-09
4.60266e-10
-2.38913e-09
4.91515e-10
-2.77538e-09
5.20228e-10
-3.18103e-09
5.46466e-10
-3.6043e-09
5.70295e-10
-4.04348e-09
5.91782e-10
-4.4969e-09
6.11003e-10
-4.96296e-09
6.28043e-10
-5.44012e-09
6.42995e-10
-5.9269e-09
6.55949e-10
-6.4219e-09
6.66994e-10
-6.92378e-09
6.76224e-10
-7.43126e-09
6.83732e-10
-7.94314e-09
6.89607e-10
-8.45828e-09
6.93943e-10
-8.9756e-09
6.96829e-10
-9.49409e-09
6.98347e-10
-1.00128e-08
6.98578e-10
-1.05308e-08
6.97597e-10
-1.10472e-08
6.95472e-10
-1.15614e-08
6.92271e-10
-1.20724e-08
6.88064e-10
-1.25797e-08
6.82918e-10
-1.30825e-08
6.76895e-10
-1.35802e-08
6.70048e-10
-1.40723e-08
6.62421e-10
-1.45582e-08
6.54055e-10
-1.50374e-08
6.44995e-10
-1.55093e-08
6.35287e-10
-1.59737e-08
6.24966e-10
-1.64299e-08
6.14065e-10
-1.68777e-08
6.02616e-10
-1.73166e-08
5.90655e-10
-1.77462e-08
5.78209e-10
-1.81663e-08
5.65308e-10
-1.85765e-08
5.5198e-10
-1.89765e-08
5.38247e-10
-1.9366e-08
5.24128e-10
-1.97447e-08
5.09641e-10
-2.01124e-08
4.94805e-10
-2.04688e-08
4.7964e-10
-2.08137e-08
4.64161e-10
-2.11469e-08
4.48377e-10
-2.14681e-08
4.32296e-10
-2.17771e-08
4.15926e-10
-2.20738e-08
3.9928e-10
-2.23578e-08
3.8237e-10
-2.26291e-08
3.65208e-10
-2.28875e-08
3.47803e-10
-2.31327e-08
3.30165e-10
-2.33646e-08
3.12302e-10
-2.3583e-08
2.94216e-10
-2.37879e-08
2.75915e-10
-2.39789e-08
2.57406e-10
-2.4156e-08
2.38696e-10
-2.43191e-08
2.1979e-10
-2.4468e-08
2.00693e-10
-2.46025e-08
1.8141e-10
-2.47225e-08
1.61948e-10
-2.4828e-08
1.42317e-10
-2.49187e-08
1.22529e-10
-2.49947e-08
1.02593e-10
-2.50557e-08
8.25212e-11
-2.51017e-08
6.23229e-11
-2.51327e-08
4.20076e-11
-2.51484e-08
2.15816e-11
-2.51489e-08
1.05305e-12
-2.51341e-08
-1.95667e-11
-2.51039e-08
-4.02657e-11
-2.50584e-08
-6.10309e-11
-2.49973e-08
-8.18486e-11
-2.49208e-08
-1.02704e-10
-2.48288e-08
-1.23578e-10
-2.47213e-08
-1.44456e-10
-2.45983e-08
-1.6532e-10
-2.44598e-08
-1.86156e-10
-2.43059e-08
-2.06946e-10
-2.41366e-08
-2.27679e-10
-2.3952e-08
-2.48339e-10
-2.3752e-08
-2.68913e-10
-2.35369e-08
-2.8939e-10
-2.33066e-08
-3.09757e-10
-2.30612e-08
-3.30006e-10
-2.28009e-08
-3.50125e-10
-2.25258e-08
-3.70095e-10
-2.2236e-08
-3.89894e-10
-2.19316e-08
-4.09499e-10
-2.16128e-08
-4.2888e-10
-2.12799e-08
-4.48012e-10
-2.09329e-08
-4.66865e-10
-2.05723e-08
-4.85412e-10
-2.01981e-08
-5.03623e-10
-1.98106e-08
-5.21466e-10
-1.94103e-08
-5.38909e-10
-1.89973e-08
-5.55918e-10
-1.85721e-08
-5.72462e-10
-1.81349e-08
-5.88513e-10
-1.76863e-08
-6.04032e-10
-1.72266e-08
-6.18979e-10
-1.67562e-08
-6.3331e-10
-1.62758e-08
-6.4698e-10
-1.57857e-08
-6.59944e-10
-1.52867e-08
-6.72156e-10
-1.47791e-08
-6.8357e-10
-1.42638e-08
-6.94136e-10
-1.37413e-08
-7.03802e-10
-1.32124e-08
-7.12509e-10
-1.26779e-08
-7.2019e-10
-1.21385e-08
-7.26775e-10
-1.15951e-08
-7.32192e-10
-1.10487e-08
-7.3637e-10
-1.05002e-08
-7.39236e-10
-9.95064e-09
-7.4072e-10
-9.40108e-09
-7.40751e-10
-8.85267e-09
-7.39257e-10
-8.3066e-09
-7.36159e-10
-7.7641e-09
-7.31378e-10
-7.22649e-09
-7.24829e-10
-6.69513e-09
-7.16425e-10
-6.17146e-09
-7.06082e-10
-5.65698e-09
-6.93712e-10
-5.15322e-09
-6.79228e-10
-4.66181e-09
-6.62552e-10
-4.18441e-09
-6.43616e-10
-3.72273e-09
-6.22355e-10
-3.27853e-09
-5.98697e-10
-2.85361e-09
-5.72584e-10
-2.44982e-09
-5.43965e-10
-2.06903e-09
-5.12798e-10
-1.7131e-09
-4.79047e-10
-1.38392e-09
-4.42704e-10
-1.08333e-09
-4.03801e-10
-8.13121e-10
-3.62415e-10
-5.74954e-10
-3.18674e-10
-3.70323e-10
-2.72787e-10
-2.0045e-10
-2.25096e-10
-6.61656e-11
-1.76125e-10
3.22864e-11
-1.26638e-10
9.55031e-11
-7.77611e-11
1.25293e-10
-3.11728e-11
1.2519e-10
1.06497e-11
1.01174e-10
4.40827e-11
6.25352e-11
6.3863e-11
2.26594e-11
6.26143e-11
3.19178e-11
2.51078e-11
-5.35757e-11
6.14141e-11
-9.9211e-11
8.86537e-11
-8.75773e-11
9.00915e-11
-4.06072e-11
5.46218e-11
2.96876e-11
-2.5129e-11
1.14915e-10
-1.53701e-10
2.08836e-10
-3.3349e-10
3.07025e-10
-5.6533e-10
4.06405e-10
-8.48915e-10
5.04824e-10
-1.18313e-09
6.0075e-10
-1.56628e-09
6.9312e-10
-1.99626e-09
7.81191e-10
-2.47065e-09
8.64472e-10
-2.98686e-09
9.42665e-10
-3.54218e-09
1.01559e-09
-4.13383e-09
1.08317e-09
-4.75902e-09
1.14543e-09
-5.41499e-09
1.20244e-09
-6.099e-09
1.2543e-09
-6.80837e-09
1.30115e-09
-7.54051e-09
1.34314e-09
-8.2929e-09
1.38044e-09
-9.06313e-09
1.41322e-09
-9.84887e-09
1.44169e-09
-1.06479e-08
1.46601e-09
-1.14581e-08
1.48641e-09
-1.22774e-08
1.50305e-09
-1.31039e-08
1.51613e-09
-1.39358e-08
1.52586e-09
-1.47714e-08
1.5324e-09
-1.5609e-08
1.53595e-09
-1.64471e-08
1.53667e-09
-1.72842e-08
1.53471e-09
-1.8119e-08
1.53024e-09
-1.89501e-08
1.52341e-09
-1.97764e-08
1.51435e-09
-2.05967e-08
1.50321e-09
-2.14099e-08
1.49011e-09
-2.2215e-08
1.47518e-09
-2.30111e-08
1.45851e-09
-2.37973e-08
1.44021e-09
-2.45727e-08
1.42038e-09
-2.53365e-08
1.3991e-09
-2.6088e-08
1.37646e-09
-2.68264e-08
1.35253e-09
-2.75512e-08
1.3274e-09
-2.82617e-08
1.30113e-09
-2.89573e-08
1.27377e-09
-2.96374e-08
1.24541e-09
-3.03015e-08
1.21609e-09
-3.09491e-08
1.18585e-09
-3.15797e-08
1.15474e-09
-3.21929e-08
1.12282e-09
-3.27882e-08
1.09012e-09
-3.33652e-08
1.05666e-09
-3.39235e-08
1.0225e-09
-3.44628e-08
9.87647e-10
-3.49826e-08
9.52139e-10
-3.54827e-08
9.15992e-10
-3.59627e-08
8.79233e-10
-3.64222e-08
8.41889e-10
-3.6861e-08
8.03984e-10
-3.72787e-08
7.65539e-10
-3.76751e-08
7.26572e-10
-3.80499e-08
6.87101e-10
-3.84028e-08
6.47141e-10
-3.87336e-08
6.06709e-10
-3.9042e-08
5.65823e-10
-3.93278e-08
5.245e-10
-3.95908e-08
4.82756e-10
-3.98307e-08
4.40605e-10
-4.00474e-08
3.98059e-10
-4.02406e-08
3.55136e-10
-4.04101e-08
3.11856e-10
-4.05558e-08
2.6824e-10
-4.06775e-08
2.2431e-10
-4.07751e-08
1.80088e-10
-4.08484e-08
1.35593e-10
-4.08972e-08
9.08468e-11
-4.09215e-08
4.58693e-11
-4.09211e-08
6.80424e-13
-4.0896e-08
-4.46955e-11
-4.0846e-08
-9.02331e-11
-4.07711e-08
-1.35906e-10
-4.06713e-08
-1.81685e-10
-4.05465e-08
-2.27542e-10
-4.03966e-08
-2.73443e-10
-4.02217e-08
-3.19355e-10
-4.00218e-08
-3.65248e-10
-3.97968e-08
-4.1109e-10
-3.95469e-08
-4.56848e-10
-3.92721e-08
-5.02489e-10
-3.89725e-08
-5.47981e-10
-3.86481e-08
-5.93294e-10
-3.82991e-08
-6.38396e-10
-3.79256e-08
-6.83256e-10
-3.75278e-08
-7.2784e-10
-3.71058e-08
-7.72113e-10
-3.66599e-08
-8.16035e-10
-3.61902e-08
-8.59559e-10
-3.56971e-08
-9.02633e-10
-3.51807e-08
-9.45203e-10
-3.46415e-08
-9.87211e-10
-3.40798e-08
-1.0286e-09
-3.34959e-08
-1.0693e-09
-3.28903e-08
-1.10925e-09
-3.22634e-08
-1.1484e-09
-3.16156e-08
-1.18665e-09
-3.09476e-08
-1.22396e-09
-3.02598e-08
-1.26024e-09
-2.95529e-08
-1.29541e-09
-2.88275e-08
-1.3294e-09
-2.80844e-08
-1.36212e-09
-2.73242e-08
-1.39348e-09
-2.65478e-08
-1.42337e-09
-2.57561e-08
-1.45171e-09
-2.49498e-08
-1.47838e-09
-2.41301e-08
-1.50328e-09
-2.3298e-08
-1.5263e-09
-2.24544e-08
-1.54731e-09
-2.16008e-08
-1.56619e-09
-2.07381e-08
-1.58281e-09
-1.98679e-08
-1.59702e-09
-1.89914e-08
-1.60866e-09
-1.81102e-08
-1.61759e-09
-1.72258e-08
-1.62366e-09
-1.63398e-08
-1.62671e-09
-1.5454e-08
-1.62658e-09
-1.45701e-08
-1.62311e-09
-1.36901e-08
-1.61614e-09
-1.2816e-08
-1.60549e-09
-1.19498e-08
-1.59099e-09
-1.10938e-08
-1.57246e-09
-1.02501e-08
-1.54973e-09
-9.42124e-09
-1.52261e-09
-8.60953e-09
-1.49094e-09
-7.81754e-09
-1.45455e-09
-7.04787e-09
-1.41328e-09
-6.30322e-09
-1.36701e-09
-5.58633e-09
-1.31559e-09
-4.9e-09
-1.25891e-09
-4.24707e-09
-1.19689e-09
-3.63042e-09
-1.12945e-09
-3.0529e-09
-1.05657e-09
-2.51731e-09
-9.78289e-10
-2.0264e-09
-8.94716e-10
-1.58274e-09
-8.06071e-10
-1.18871e-09
-7.12706e-10
-8.46339e-10
-6.15163e-10
-5.57191e-10
-5.14244e-10
-3.22191e-10
-4.11123e-10
-1.4136e-10
-3.07468e-10
-1.34793e-11
-2.05638e-10
6.43272e-11
-1.08979e-10
9.71632e-11
-2.21888e-11
9.30496e-11
4.81982e-11
6.36604e-11
9.32524e-11
2.50879e-11
1.01188e-10
5.70051e-11
2.01857e-11
-7.37642e-11
4.33092e-11
-1.22334e-10
4.63251e-11
-9.05944e-11
1.21385e-11
-6.42145e-12
-7.14208e-11
1.13249e-10
-2.1267e-10
2.56162e-10
-4.1691e-10
4.13078e-10
-6.87093e-10
5.77207e-10
-1.02438e-09
7.43692e-10
-1.42857e-09
9.09011e-10
-1.89845e-09
1.07063e-09
-2.43204e-09
1.22672e-09
-3.02684e-09
1.37598e-09
-3.6799e-09
1.51754e-09
-4.38802e-09
1.65078e-09
-5.14778e-09
1.77535e-09
-5.95569e-09
1.89107e-09
-6.80815e-09
1.9979e-09
-7.70161e-09
2.09589e-09
-8.6325e-09
2.18519e-09
-9.59735e-09
2.266e-09
-1.05927e-08
2.33854e-09
-1.16154e-08
2.40307e-09
-1.26621e-08
2.4599e-09
-1.37297e-08
2.50932e-09
-1.48153e-08
2.55165e-09
-1.59161e-08
2.5872e-09
-1.70294e-08
2.6163e-09
-1.81525e-08
2.63926e-09
-1.9283e-08
2.65641e-09
-2.04187e-08
2.66805e-09
-2.15572e-08
2.67448e-09
-2.26965e-08
2.67599e-09
-2.38347e-08
2.67285e-09
-2.49698e-08
2.66534e-09
-2.61001e-08
2.65371e-09
-2.72239e-08
2.63819e-09
-2.83398e-08
2.61903e-09
-2.94461e-08
2.59644e-09
-3.05415e-08
2.57062e-09
-3.16248e-08
2.54177e-09
-3.26946e-08
2.51005e-09
-3.37499e-08
2.47564e-09
-3.47895e-08
2.4387e-09
-3.58124e-08
2.39937e-09
-3.68176e-08
2.35778e-09
-3.78043e-08
2.31407e-09
-3.87716e-08
2.26836e-09
-3.97185e-08
2.22075e-09
-4.06445e-08
2.17135e-09
-4.15486e-08
2.12026e-09
-4.24304e-08
2.06756e-09
-4.3289e-08
2.01334e-09
-4.41238e-08
1.95766e-09
-4.49343e-08
1.90059e-09
-4.57198e-08
1.84221e-09
-4.64799e-08
1.78257e-09
-4.7214e-08
1.72172e-09
-4.79215e-08
1.6597e-09
-4.86021e-08
1.59658e-09
-4.92552e-08
1.53237e-09
-4.98805e-08
1.46714e-09
-5.04774e-08
1.40092e-09
-5.10457e-08
1.33376e-09
-5.15848e-08
1.26568e-09
-5.20944e-08
1.19672e-09
-5.25742e-08
1.12691e-09
-5.30237e-08
1.05627e-09
-5.34427e-08
9.84853e-10
-5.38309e-08
9.12675e-10
-5.41879e-08
8.39769e-10
-5.45135e-08
7.66163e-10
-5.48073e-08
6.91888e-10
-5.50692e-08
6.16973e-10
-5.52988e-08
5.41452e-10
-5.54959e-08
4.65359e-10
-5.56603e-08
3.88729e-10
-5.57918e-08
3.11598e-10
-5.58902e-08
2.34002e-10
-5.59553e-08
1.55979e-10
-5.5987e-08
7.75663e-11
-5.59852e-08
-1.19785e-12
-5.59496e-08
-8.02742e-11
-5.58802e-08
-1.59619e-10
-5.57769e-08
-2.39187e-10
-5.56397e-08
-3.18932e-10
-5.54684e-08
-3.98803e-10
-5.52631e-08
-4.78751e-10
-5.50237e-08
-5.5872e-10
-5.47503e-08
-6.38656e-10
-5.44429e-08
-7.18509e-10
-5.41015e-08
-7.98224e-10
-5.37263e-08
-8.77742e-10
-5.33173e-08
-9.57007e-10
-5.28746e-08
-1.03596e-09
-5.23985e-08
-1.11454e-09
-5.1889e-08
-1.19269e-09
-5.13465e-08
-1.27035e-09
-5.07712e-08
-1.34744e-09
-5.01633e-08
-1.42389e-09
-4.95233e-08
-1.49962e-09
-4.88514e-08
-1.57455e-09
-4.8148e-08
-1.64858e-09
-4.74136e-08
-1.72161e-09
-4.66486e-08
-1.79355e-09
-4.58536e-08
-1.86428e-09
-4.50292e-08
-1.93371e-09
-4.41759e-08
-2.0017e-09
-4.32944e-08
-2.06815e-09
-4.23854e-08
-2.13293e-09
-4.14497e-08
-2.19591e-09
-4.04882e-08
-2.25695e-09
-3.95017e-08
-2.31591e-09
-3.84912e-08
-2.37265e-09
-3.74577e-08
-2.42699e-09
-3.64022e-08
-2.47878e-09
-3.53261e-08
-2.52784e-09
-3.42305e-08
-2.57399e-09
-3.31168e-08
-2.61704e-09
-3.19863e-08
-2.65678e-09
-3.08406e-08
-2.69303e-09
-2.96812e-08
-2.72554e-09
-2.85099e-08
-2.7541e-09
-2.73285e-08
-2.77846e-09
-2.61388e-08
-2.79838e-09
-2.49428e-08
-2.81359e-09
-2.37426e-08
-2.82384e-09
-2.25404e-08
-2.82885e-09
-2.13387e-08
-2.82837e-09
-2.01397e-08
-2.82211e-09
-1.8946e-08
-2.80978e-09
-1.77604e-08
-2.7911e-09
-1.65856e-08
-2.76578e-09
-1.54246e-08
-2.73353e-09
-1.42802e-08
-2.69404e-09
-1.31558e-08
-2.64704e-09
-1.20545e-08
-2.59225e-09
-1.09797e-08
-2.52938e-09
-9.93474e-09
-2.4582e-09
-8.92327e-09
-2.37848e-09
-7.94884e-09
-2.29002e-09
-7.01512e-09
-2.19263e-09
-6.12579e-09
-2.08621e-09
-5.28455e-09
-1.97069e-09
-4.49505e-09
-1.84608e-09
-3.76084e-09
-1.7125e-09
-3.08534e-09
-1.57021e-09
-2.47176e-09
-1.41965e-09
-1.92295e-09
-1.26152e-09
-1.4413e-09
-1.09681e-09
-1.02859e-09
-9.26958e-10
-6.85732e-10
-7.53979e-10
-4.12538e-10
-5.8066e-10
-2.07345e-10
-4.1083e-10
-6.66094e-11
-2.49716e-10
1.5617e-11
-1.04414e-10
4.82881e-11
1.55263e-11
4.40312e-11
9.7509e-11
1.99722e-11
1.25247e-10
7.69765e-11
1.10139e-11
-8.47776e-11
1.12703e-11
-1.22588e-10
-2.11172e-11
-5.82086e-11
-1.02809e-10
7.52725e-11
-2.46076e-10
2.56515e-10
-4.59446e-10
4.69532e-10
-7.48469e-10
7.02101e-10
-1.11635e-09
9.45088e-10
-1.56439e-09
1.19173e-09
-2.09243e-09
1.43705e-09
-2.69916e-09
1.67736e-09
-3.38241e-09
1.90996e-09
-4.13932e-09
2.1329e-09
-4.96656e-09
2.34478e-09
-5.86042e-09
2.54464e-09
-6.81695e-09
2.73188e-09
-7.83204e-09
2.90616e-09
-8.90148e-09
3.06734e-09
-1.0021e-08
3.21544e-09
-1.11865e-08
3.35061e-09
-1.23936e-08
3.47311e-09
-1.36383e-08
3.58323e-09
-1.49165e-08
3.68136e-09
-1.62245e-08
3.76789e-09
-1.75585e-08
3.84325e-09
-1.89147e-08
3.90791e-09
-2.02898e-08
3.96232e-09
-2.16805e-08
4.00695e-09
-2.30835e-08
4.04227e-09
-2.44958e-08
4.06874e-09
-2.59146e-08
4.08683e-09
-2.73371e-08
4.09696e-09
-2.87607e-08
4.09959e-09
-3.01829e-08
4.09511e-09
-3.16015e-08
4.08393e-09
-3.30142e-08
4.06643e-09
-3.4419e-08
4.04298e-09
-3.58139e-08
4.01392e-09
-3.71971e-08
3.97958e-09
-3.85667e-08
3.94028e-09
-3.99212e-08
3.89629e-09
-4.12591e-08
3.84791e-09
-4.25788e-08
3.79537e-09
-4.3879e-08
3.73892e-09
-4.51585e-08
3.67878e-09
-4.64159e-08
3.61517e-09
-4.76501e-08
3.54829e-09
-4.886e-08
3.4783e-09
-5.00446e-08
3.40538e-09
-5.1203e-08
3.3297e-09
-5.23341e-08
3.25139e-09
-5.34371e-08
3.17059e-09
-5.45112e-08
3.08742e-09
-5.55556e-08
3.00201e-09
-5.65694e-08
2.91445e-09
-5.75521e-08
2.82484e-09
-5.85028e-08
2.73328e-09
-5.94209e-08
2.63985e-09
-6.03058e-08
2.54463e-09
-6.11569e-08
2.44769e-09
-6.19737e-08
2.34909e-09
-6.27554e-08
2.24891e-09
-6.35017e-08
2.1472e-09
-6.4212e-08
2.04403e-09
-6.48858e-08
1.93946e-09
-6.55226e-08
1.83352e-09
-6.61219e-08
1.72629e-09
-6.66835e-08
1.6178e-09
-6.72067e-08
1.50811e-09
-6.76913e-08
1.39726e-09
-6.81369e-08
1.2853e-09
-6.8543e-08
1.17228e-09
-6.89093e-08
1.05825e-09
-6.92356e-08
9.43252e-10
-6.95215e-08
8.2734e-10
-6.97667e-08
7.10565e-10
-6.9971e-08
5.92982e-10
-7.0134e-08
4.74643e-10
-7.02556e-08
3.55605e-10
-7.03356e-08
2.35925e-10
-7.03737e-08
1.15663e-10
-7.03697e-08
-5.12212e-12
-7.03236e-08
-1.26369e-10
-7.02352e-08
-2.48012e-10
-7.01044e-08
-3.69985e-10
-6.99312e-08
-4.92215e-10
-6.97153e-08
-6.14629e-10
-6.94569e-08
-7.37151e-10
-6.91559e-08
-8.59705e-10
-6.88124e-08
-9.82207e-10
-6.84263e-08
-1.10458e-09
-6.79978e-08
-1.22673e-09
-6.7527e-08
-1.34859e-09
-6.70139e-08
-1.47005e-09
-6.64589e-08
-1.59103e-09
-6.5862e-08
-1.71142e-09
-6.52235e-08
-1.83115e-09
-6.45438e-08
-1.95009e-09
-6.38231e-08
-2.06815e-09
-6.30618e-08
-2.1852e-09
-6.22603e-08
-2.30112e-09
-6.1419e-08
-2.41578e-09
-6.05386e-08
-2.52904e-09
-5.96194e-08
-2.64075e-09
-5.86622e-08
-2.75076e-09
-5.76676e-08
-2.85892e-09
-5.66363e-08
-2.96505e-09
-5.5569e-08
-3.06898e-09
-5.44666e-08
-3.17052e-09
-5.33301e-08
-3.26948e-09
-5.21603e-08
-3.36567e-09
-5.09584e-08
-3.45888e-09
-4.97254e-08
-3.54888e-09
-4.84626e-08
-3.63544e-09
-4.71713e-08
-3.71833e-09
-4.58528e-08
-3.79728e-09
-4.45086e-08
-3.87204e-09
-4.31403e-08
-3.94232e-09
-4.17495e-08
-4.00783e-09
-4.0338e-08
-4.06827e-09
-3.89077e-08
-4.12333e-09
-3.74605e-08
-4.17267e-09
-3.59987e-08
-4.21594e-09
-3.45244e-08
-4.25279e-09
-3.30399e-08
-4.28284e-09
-3.15478e-08
-4.30571e-09
-3.00506e-08
-4.32102e-09
-2.85511e-08
-4.32835e-09
-2.70522e-08
-4.3273e-09
-2.55568e-08
-4.31745e-09
-2.40682e-08
-4.29839e-09
-2.25896e-08
-4.26968e-09
-2.11245e-08
-4.23089e-09
-1.96765e-08
-4.1816e-09
-1.82491e-08
-4.12138e-09
-1.68464e-08
-4.0498e-09
-1.54721e-08
-3.96648e-09
-1.41305e-08
-3.87101e-09
-1.28256e-08
-3.76306e-09
-1.15618e-08
-3.64229e-09
-1.03434e-08
-3.50845e-09
-9.17473e-09
-3.3613e-09
-8.06022e-09
-3.20072e-09
-7.00425e-09
-3.02666e-09
-6.0111e-09
-2.83922e-09
-5.08495e-09
-2.63865e-09
-4.22975e-09
-2.42541e-09
-3.44915e-09
-2.20025e-09
-2.74638e-09
-1.96428e-09
-2.12411e-09
-1.71908e-09
-1.58425e-09
-1.46682e-09
-1.12773e-09
-1.2105e-09
-7.54241e-10
-9.54144e-10
-4.61922e-10
-7.03149e-10
-2.46947e-10
-4.64689e-10
-1.03112e-10
-2.4825e-10
-2.13174e-11
-6.62712e-11
1.09971e-11
6.51947e-11
1.05704e-11
1.25674e-10
8.7547e-11
-7.0644e-13
-8.40713e-11
-2.92146e-11
-9.40783e-11
-1.04793e-10
1.7367e-11
-2.42617e-10
2.13094e-10
-4.54202e-10
4.68101e-10
-7.47723e-10
7.63053e-10
-1.12857e-09
1.08294e-09
-1.59984e-09
1.41636e-09
-2.16281e-09
1.7547e-09
-2.81724e-09
2.09148e-09
-3.56171e-09
2.42182e-09
-4.39381e-09
2.74207e-09
-5.31045e-09
3.04954e-09
-6.30793e-09
3.34226e-09
-7.38216e-09
3.61887e-09
-8.52873e-09
3.87845e-09
-9.74303e-09
4.12046e-09
-1.10203e-08
4.34463e-09
-1.23558e-08
4.55092e-09
-1.37447e-08
4.73948e-09
-1.51821e-08
4.91058e-09
-1.66635e-08
5.06461e-09
-1.81842e-08
5.20203e-09
-1.97397e-08
5.32338e-09
-2.13256e-08
5.42921e-09
-2.29378e-08
5.52014e-09
-2.45723e-08
5.59677e-09
-2.62251e-08
5.65974e-09
-2.78925e-08
5.70968e-09
-2.9571e-08
5.74723e-09
-3.12572e-08
5.773e-09
-3.29478e-08
5.78761e-09
-3.46399e-08
5.79164e-09
-3.63304e-08
5.78566e-09
-3.80167e-08
5.77023e-09
-3.96962e-08
5.74587e-09
-4.13663e-08
5.7131e-09
-4.30248e-08
5.6724e-09
-4.46694e-08
5.62422e-09
-4.62981e-08
5.56899e-09
-4.7909e-08
5.50713e-09
-4.95001e-08
5.43901e-09
-5.10697e-08
5.365e-09
-5.26162e-08
5.28543e-09
-5.41381e-08
5.20063e-09
-5.56338e-08
5.11088e-09
-5.7102e-08
5.01647e-09
-5.85413e-08
4.91765e-09
-5.99506e-08
4.81465e-09
-6.13286e-08
4.70771e-09
-6.26742e-08
4.59703e-09
-6.39864e-08
4.4828e-09
-6.52642e-08
4.36519e-09
-6.65066e-08
4.24438e-09
-6.77126e-08
4.12051e-09
-6.88815e-08
3.99372e-09
-7.00124e-08
3.86414e-09
-7.11044e-08
3.73191e-09
-7.21569e-08
3.59711e-09
-7.31691e-08
3.45987e-09
-7.41403e-08
3.32029e-09
-7.50699e-08
3.17845e-09
-7.59571e-08
3.03445e-09
-7.68014e-08
2.88838e-09
-7.76023e-08
2.7403e-09
-7.83591e-08
2.59031e-09
-7.90713e-08
2.43847e-09
-7.97383e-08
2.28487e-09
-8.03598e-08
2.12957e-09
-8.09352e-08
1.97263e-09
-8.1464e-08
1.81414e-09
-8.19459e-08
1.65416e-09
-8.23804e-08
1.49276e-09
-8.27671e-08
1.33001e-09
-8.31058e-08
1.16598e-09
-8.3396e-08
1.00075e-09
-8.36374e-08
8.34388e-10
-8.38297e-08
6.66978e-10
-8.39727e-08
4.98596e-10
-8.40661e-08
3.29323e-10
-8.41097e-08
1.59243e-10
-8.41032e-08
-1.15578e-11
-8.40466e-08
-1.82993e-10
-8.39396e-08
-3.54971e-10
-8.37822e-08
-5.27399e-10
-8.35743e-08
-7.00174e-10
-8.33157e-08
-8.73196e-10
-8.30065e-08
-1.04636e-09
-8.26466e-08
-1.21955e-09
-8.22362e-08
-1.39267e-09
-8.17752e-08
-1.56559e-09
-8.12637e-08
-1.73819e-09
-8.07019e-08
-1.91036e-09
-8.009e-08
-2.08196e-09
-7.94282e-08
-2.25287e-09
-7.87167e-08
-2.42294e-09
-7.79558e-08
-2.59203e-09
-7.71459e-08
-2.76e-09
-7.62873e-08
-2.92669e-09
-7.53806e-08
-3.09193e-09
-7.44262e-08
-3.25554e-09
-7.34246e-08
-3.41734e-09
-7.23765e-08
-3.57713e-09
-7.12826e-08
-3.73472e-09
-7.01434e-08
-3.88987e-09
-6.896e-08
-4.04238e-09
-6.7733e-08
-4.192e-09
-6.64635e-08
-4.33849e-09
-6.51524e-08
-4.48159e-09
-6.38009e-08
-4.62103e-09
-6.24101e-08
-4.75652e-09
-6.09812e-08
-4.88777e-09
-5.95156e-08
-5.01447e-09
-5.80147e-08
-5.1363e-09
-5.64801e-08
-5.25291e-09
-5.49135e-08
-5.36394e-09
-5.33165e-08
-5.46902e-09
-5.1691e-08
-5.56776e-09
-5.00391e-08
-5.65975e-09
-4.83628e-08
-5.74457e-09
-4.66644e-08
-5.82177e-09
-4.49462e-08
-5.89088e-09
-4.32107e-08
-5.95143e-09
-4.14605e-08
-6.00292e-09
-3.96985e-08
-6.04484e-09
-3.79276e-08
-6.07665e-09
-3.61508e-08
-6.09781e-09
-3.43714e-08
-6.10777e-09
-3.25927e-08
-6.10597e-09
-3.08183e-08
-6.09182e-09
-2.9052e-08
-6.06476e-09
-2.72974e-08
-6.02419e-09
-2.55588e-08
-5.96952e-09
-2.38402e-08
-5.90019e-09
-2.2146e-08
-5.8156e-09
-2.04806e-08
-5.71521e-09
-1.88486e-08
-5.59848e-09
-1.72547e-08
-5.4649e-09
-1.57038e-08
-5.31402e-09
-1.42006e-08
-5.14542e-09
-1.27503e-08
-4.95877e-09
-1.13578e-08
-4.75383e-09
-1.0028e-08
-4.53046e-09
-8.76604e-09
-4.28867e-09
-7.57659e-09
-4.02866e-09
-6.46436e-09
-3.75088e-09
-5.43374e-09
-3.45604e-09
-4.48873e-09
-3.14526e-09
-3.63288e-09
-2.82014e-09
-2.86906e-09
-2.4829e-09
-2.19933e-09
-2.13655e-09
-1.62472e-09
-1.78511e-09
-1.14495e-09
-1.43391e-09
-7.58191e-10
-1.08991e-09
-4.60686e-10
-7.62194e-10
-2.46453e-10
-4.62484e-10
-1.06854e-10
-2.05871e-10
-3.01852e-11
-1.14727e-11
-1.17084e-12
9.66591e-11
8.63769e-11
-1.35963e-11
-7.04779e-11
-7.44107e-11
-3.32601e-11
-1.98233e-10
1.41187e-10
-3.98085e-10
4.12946e-10
-6.8408e-10
7.54097e-10
-1.06353e-09
1.1425e-09
-1.5413e-09
1.56071e-09
-2.12016e-09
1.99522e-09
-2.80111e-09
2.43566e-09
-3.58372e-09
2.8741e-09
-4.46635e-09
3.30445e-09
-5.4464e-09
3.72211e-09
-6.52047e-09
4.12361e-09
-7.68459e-09
4.50639e-09
-8.93433e-09
4.86861e-09
-1.02649e-08
5.20901e-09
-1.16712e-08
5.5268e-09
-1.31482e-08
5.82158e-09
-1.46905e-08
6.0932e-09
-1.62928e-08
6.34179e-09
-1.79498e-08
6.56764e-09
-1.96564e-08
6.7712e-09
-2.14074e-08
6.95303e-09
-2.31978e-08
7.11377e-09
-2.50227e-08
7.25413e-09
-2.68775e-08
7.37486e-09
-2.87575e-08
7.47675e-09
-3.06583e-08
7.5606e-09
-3.25759e-08
7.62722e-09
-3.4506e-08
7.67741e-09
-3.6445e-08
7.71199e-09
-3.83891e-08
7.73173e-09
-4.03349e-08
7.7374e-09
-4.2279e-08
7.72976e-09
-4.42183e-08
7.70951e-09
-4.61498e-08
7.67736e-09
-4.80706e-08
7.63397e-09
-4.99782e-08
7.57997e-09
-5.187e-08
7.51596e-09
-5.37435e-08
7.44252e-09
-5.55965e-08
7.36018e-09
-5.7427e-08
7.26946e-09
-5.92328e-08
7.17083e-09
-6.10121e-08
7.06474e-09
-6.27631e-08
6.95162e-09
-6.44841e-08
6.83186e-09
-6.61735e-08
6.70582e-09
-6.78297e-08
6.57385e-09
-6.94513e-08
6.43627e-09
-7.10369e-08
6.29337e-09
-7.25853e-08
6.14545e-09
-7.40953e-08
5.99274e-09
-7.55656e-08
5.83548e-09
-7.69951e-08
5.6739e-09
-7.83828e-08
5.50821e-09
-7.97277e-08
5.33859e-09
-8.10288e-08
5.16522e-09
-8.22851e-08
4.98827e-09
-8.34959e-08
4.80788e-09
-8.46602e-08
4.62421e-09
-8.57773e-08
4.43738e-09
-8.68464e-08
4.24753e-09
-8.78667e-08
4.05478e-09
-8.88376e-08
3.85925e-09
-8.97583e-08
3.66104e-09
-9.06283e-08
3.46026e-09
-9.14468e-08
3.25702e-09
-9.22134e-08
3.05141e-09
-9.29273e-08
2.84354e-09
-9.35882e-08
2.63349e-09
-9.41954e-08
2.42137e-09
-9.47485e-08
2.20727e-09
-9.5247e-08
1.99128e-09
-9.56906e-08
1.77351e-09
-9.60786e-08
1.55405e-09
-9.64109e-08
1.33299e-09
-9.66869e-08
1.11045e-09
-9.69065e-08
8.8652e-10
-9.70692e-08
6.61309e-10
-9.71748e-08
4.34929e-10
-9.7223e-08
2.07489e-10
-9.72137e-08
-2.08962e-11
-9.71466e-08
-2.50108e-10
-9.70215e-08
-4.80024e-10
-9.68384e-08
-7.1052e-10
-9.65971e-08
-9.41463e-10
-9.62976e-08
-1.17272e-09
-9.59398e-08
-1.40414e-09
-9.55238e-08
-1.63559e-09
-9.50495e-08
-1.86691e-09
-9.45171e-08
-2.09797e-09
-9.39268e-08
-2.32858e-09
-9.32785e-08
-2.55859e-09
-9.25727e-08
-2.78783e-09
-9.18094e-08
-3.01611e-09
-9.09891e-08
-3.24326e-09
-9.01121e-08
-3.46908e-09
-8.91787e-08
-3.69336e-09
-8.81895e-08
-3.9159e-09
-8.7145e-08
-4.13646e-09
-8.60457e-08
-4.35482e-09
-8.48923e-08
-4.57073e-09
-8.36855e-08
-4.78392e-09
-8.24261e-08
-4.99414e-09
-8.11149e-08
-5.20108e-09
-7.97528e-08
-5.40444e-09
-7.83409e-08
-5.60393e-09
-7.68802e-08
-5.7992e-09
-7.53719e-08
-5.98991e-09
-7.38172e-08
-6.17571e-09
-7.22175e-08
-6.35621e-09
-7.05742e-08
-6.53102e-09
-6.8889e-08
-6.69972e-09
-6.71634e-08
-6.86188e-09
-6.53993e-08
-7.01705e-09
-6.35985e-08
-7.16475e-09
-6.1763e-08
-7.30448e-09
-5.98951e-08
-7.43572e-09
-5.79969e-08
-7.55793e-09
-5.60709e-08
-7.67055e-09
-5.41197e-08
-7.77298e-09
-5.21459e-08
-7.86463e-09
-5.01525e-08
-7.94485e-09
-4.81424e-08
-8.013e-09
-4.61189e-08
-8.06839e-09
-4.40852e-08
-8.11033e-09
-4.20449e-08
-8.13812e-09
-4.00016e-08
-8.15103e-09
-3.79593e-08
-8.14831e-09
-3.59219e-08
-8.12923e-09
-3.38936e-08
-8.09303e-09
-3.18788e-08
-8.03896e-09
-2.98821e-08
-7.96625e-09
-2.79081e-08
-7.87417e-09
-2.59618e-08
-7.76198e-09
-2.4048e-08
-7.62897e-09
-2.2172e-08
-7.47447e-09
-2.0339e-08
-7.29786e-09
-1.85545e-08
-7.09857e-09
-1.68238e-08
-6.87611e-09
-1.51525e-08
-6.63009e-09
-1.3546e-08
-6.36026e-09
-1.201e-08
-6.0665e-09
-1.05498e-08
-5.74891e-09
-9.1706e-09
-5.40782e-09
-7.87759e-09
-5.04389e-09
-6.67548e-09
-4.65815e-09
-5.56859e-09
-4.25215e-09
-4.56073e-09
-3.828e-09
-3.655e-09
-3.38863e-09
-2.85366e-09
-2.93789e-09
-2.1579e-09
-2.48087e-09
-1.56764e-09
-2.02416e-09
-1.08131e-09
-1.57625e-09
-6.95541e-10
-1.14796e-09
-4.04946e-10
-7.53081e-10
-2.01823e-10
-4.08992e-10
-7.59024e-11
-1.37394e-10
-1.4066e-11
3.48228e-11
7.23112e-11
-2.68833e-11
-4.3595e-11
-1.21805e-10
6.16629e-11
-2.96825e-10
3.16208e-10
-5.62378e-10
6.78498e-10
-9.2672e-10
1.11844e-09
-1.39594e-09
1.61173e-09
-1.97406e-09
2.13883e-09
-2.66327e-09
2.68442e-09
-3.46414e-09
3.23653e-09
-4.3759e-09
3.78585e-09
-5.39662e-09
4.32517e-09
-6.52341e-09
4.84891e-09
-7.75262e-09
5.35282e-09
-9.07998e-09
5.83375e-09
-1.05007e-08
6.28935e-09
-1.20097e-08
6.71802e-09
-1.36016e-08
7.11869e-09
-1.52708e-08
7.49076e-09
-1.70116e-08
7.834e-09
-1.88183e-08
8.14848e-09
-2.06852e-08
8.43451e-09
-2.26066e-08
8.69258e-09
-2.45769e-08
8.92334e-09
-2.65906e-08
9.12755e-09
-2.86426e-08
9.30604e-09
-3.07274e-08
9.45973e-09
-3.28402e-08
9.58957e-09
-3.49762e-08
9.69655e-09
-3.71306e-08
9.78165e-09
-3.92991e-08
9.84588e-09
-4.14773e-08
9.89023e-09
-4.36613e-08
9.91567e-09
-4.58471e-08
9.92317e-09
-4.8031e-08
9.91366e-09
-5.02095e-08
9.88803e-09
-5.23793e-08
9.84717e-09
-5.45372e-08
9.79191e-09
-5.66803e-08
9.72304e-09
-5.88057e-08
9.64133e-09
-6.09107e-08
9.5475e-09
-6.29927e-08
9.44224e-09
-6.50495e-08
9.32619e-09
-6.70786e-08
9.19997e-09
-6.9078e-08
9.06414e-09
-7.10456e-08
8.91925e-09
-7.29796e-08
8.7658e-09