/*--------------------------------*- C++ -*----------------------------------*\
  =========                 |
  \\      /  F ield         | OpenFOAM: The Open Source CFD Toolbox
   \\    /   O peration     | Website:  https://openfoam.org
    \\  /    A nd           | Version:  7
     \\/     M anipulation  |
\*---------------------------------------------------------------------------*/
FoamFile
{
    version     2.0;
    format      ascii;
    class       volVectorField;
    location    "0.05";
    object      U;
}
// * * * * * * * * * * * * * * * * * * * * * * * * * * * * * * * * * * * * * //

dimensions      [0 1 -1 0 0 0 0];

internalField   nonuniform List<vector> 
25600
(
(3.05134e-08 -1.21086e-06 0)
(3.21673e-06 -2.28229e-06 0)
(7.01752e-06 -1.91017e-06 0)
(1.09131e-05 -1.54658e-06 0)
(1.30676e-05 -9.95095e-07 0)
(1.35319e-05 -3.5643e-07 0)
(1.2049e-05 3.08007e-07 0)
(8.50663e-06 9.72721e-07 0)
(2.86982e-06 1.63168e-06 0)
(-4.83627e-06 2.27153e-06 0)
(-1.45443e-05 2.88506e-06 0)
(-2.61697e-05 3.46118e-06 0)
(-3.96157e-05 3.99786e-06 0)
(-5.47703e-05 4.49699e-06 0)
(-7.15256e-05 4.9555e-06 0)
(-8.97647e-05 5.37198e-06 0)
(-0.000109369 5.75177e-06 0)
(-0.00013023 6.1011e-06 0)
(-0.000152241 6.42264e-06 0)
(-0.000175292 6.71725e-06 0)
(-0.000199286 6.98248e-06 0)
(-0.000224124 7.21569e-06 0)
(-0.00024971 7.4187e-06 0)
(-0.000275955 7.59505e-06 0)
(-0.000302776 7.74652e-06 0)
(-0.000330087 7.87461e-06 0)
(-0.000357813 7.98095e-06 0)
(-0.000385878 8.06565e-06 0)
(-0.000414212 8.12948e-06 0)
(-0.000442749 8.17418e-06 0)
(-0.000471428 8.20231e-06 0)
(-0.000500191 8.21644e-06 0)
(-0.000528983 8.21637e-06 0)
(-0.000557753 8.20151e-06 0)
(-0.000586453 8.17255e-06 0)
(-0.000615036 8.12943e-06 0)
(-0.00064346 8.0738e-06 0)
(-0.000671685 8.00875e-06 0)
(-0.000699676 7.93518e-06 0)
(-0.000727396 7.85272e-06 0)
(-0.000754816 7.76114e-06 0)
(-0.000781902 7.66026e-06 0)
(-0.000808625 7.55138e-06 0)
(-0.000834961 7.43605e-06 0)
(-0.000860881 7.31376e-06 0)
(-0.000886361 7.18381e-06 0)
(-0.000911379 7.04729e-06 0)
(-0.000935914 6.90552e-06 0)
(-0.000959943 6.7589e-06 0)
(-0.00098345 6.60746e-06 0)
(-0.00100642 6.4508e-06 0)
(-0.00102883 6.28851e-06 0)
(-0.00105066 6.12161e-06 0)
(-0.00107191 5.95202e-06 0)
(-0.00109255 5.78068e-06 0)
(-0.00111258 5.60672e-06 0)
(-0.00113198 5.42877e-06 0)
(-0.00115074 5.24595e-06 0)
(-0.00116885 5.05828e-06 0)
(-0.00118629 4.86703e-06 0)
(-0.00120306 4.67382e-06 0)
(-0.00121913 4.47913e-06 0)
(-0.00123451 4.28213e-06 0)
(-0.00124919 4.08206e-06 0)
(-0.00126314 3.87917e-06 0)
(-0.00127637 3.6738e-06 0)
(-0.00128887 3.46555e-06 0)
(-0.00130062 3.2539e-06 0)
(-0.00131162 3.03925e-06 0)
(-0.00132185 2.82259e-06 0)
(-0.00133132 2.6044e-06 0)
(-0.00134 2.38413e-06 0)
(-0.0013479 2.16082e-06 0)
(-0.00135501 1.93415e-06 0)
(-0.00136131 1.70459e-06 0)
(-0.00136681 1.47285e-06 0)
(-0.00137148 1.23927e-06 0)
(-0.00137533 1.00402e-06 0)
(-0.00137836 7.67363e-07 0)
(-0.00138055 5.29416e-07 0)
(-0.0013819 2.89988e-07 0)
(-0.00138242 4.88295e-08 0)
(-0.00138208 -1.94122e-07 0)
(-0.00138089 -4.38535e-07 0)
(-0.00137885 -6.83913e-07 0)
(-0.00137595 -9.29979e-07 0)
(-0.00137219 -1.17653e-06 0)
(-0.00136757 -1.4234e-06 0)
(-0.00136209 -1.67033e-06 0)
(-0.00135574 -1.91678e-06 0)
(-0.00134854 -2.16223e-06 0)
(-0.00134048 -2.40648e-06 0)
(-0.00133157 -2.64942e-06 0)
(-0.0013218 -2.89098e-06 0)
(-0.00131119 -3.13106e-06 0)
(-0.00129974 -3.36959e-06 0)
(-0.00128744 -3.60681e-06 0)
(-0.00127431 -3.84307e-06 0)
(-0.00126035 -4.07849e-06 0)
(-0.00124557 -4.31298e-06 0)
(-0.00122996 -4.54633e-06 0)
(-0.00121354 -4.778e-06 0)
(-0.00119632 -5.00731e-06 0)
(-0.00117831 -5.23366e-06 0)
(-0.0011595 -5.45668e-06 0)
(-0.00113993 -5.67628e-06 0)
(-0.00111959 -5.89236e-06 0)
(-0.00109851 -6.10441e-06 0)
(-0.0010767 -6.31179e-06 0)
(-0.00105418 -6.51408e-06 0)
(-0.00103096 -6.71114e-06 0)
(-0.00100707 -6.90271e-06 0)
(-0.000982519 -7.08839e-06 0)
(-0.000957341 -7.26756e-06 0)
(-0.000931555 -7.43949e-06 0)
(-0.000905187 -7.60357e-06 0)
(-0.000878266 -7.75926e-06 0)
(-0.000850821 -7.90623e-06 0)
(-0.000822884 -8.04443e-06 0)
(-0.000794488 -8.17374e-06 0)
(-0.000765668 -8.29351e-06 0)
(-0.000736462 -8.40258e-06 0)
(-0.000706911 -8.49974e-06 0)
(-0.000677057 -8.58395e-06 0)
(-0.000646947 -8.65415e-06 0)
(-0.000616631 -8.70916e-06 0)
(-0.000586162 -8.74793e-06 0)
(-0.000555596 -8.76968e-06 0)
(-0.000524993 -8.77395e-06 0)
(-0.000494414 -8.76024e-06 0)
(-0.000463923 -8.72766e-06 0)
(-0.000433589 -8.675e-06 0)
(-0.000403482 -8.60104e-06 0)
(-0.00037368 -8.50454e-06 0)
(-0.000344261 -8.3838e-06 0)
(-0.000315309 -8.2368e-06 0)
(-0.000286911 -8.0624e-06 0)
(-0.00025916 -7.86052e-06 0)
(-0.000232148 -7.6306e-06 0)
(-0.000205972 -7.371e-06 0)
(-0.000180735 -7.08093e-06 0)
(-0.000156537 -6.76097e-06 0)
(-0.000133483 -6.41006e-06 0)
(-0.000111682 -6.02425e-06 0)
(-9.12461e-05 -5.60064e-06 0)
(-7.22892e-05 -5.14033e-06 0)
(-5.49243e-05 -4.64542e-06 0)
(-3.92651e-05 -4.11488e-06 0)
(-2.54246e-05 -3.54545e-06 0)
(-1.35119e-05 -2.93642e-06 0)
(-3.62545e-06 -2.29155e-06 0)
(4.15056e-06 -1.61581e-06 0)
(9.75351e-06 -9.14609e-07 0)
(1.31574e-05 -2.01333e-07 0)
(1.43961e-05 4.98784e-07 0)
(1.35959e-05 1.14289e-06 0)
(1.10231e-05 1.65564e-06 0)
(7.18843e-06 1.89988e-06 0)
(3.14744e-06 1.636e-06 0)
(6.27941e-07 6.30462e-07 0)
(8.85063e-07 -2.91842e-06 0)
(5.6133e-06 -7.20889e-06 0)
(1.24434e-05 -6.8584e-06 0)
(1.76796e-05 -5.03998e-06 0)
(1.9432e-05 -2.10661e-06 0)
(1.67956e-05 1.47324e-06 0)
(9.14662e-06 5.39281e-06 0)
(-3.85876e-06 9.44183e-06 0)
(-2.23682e-05 1.34975e-05 0)
(-4.63682e-05 1.74808e-05 0)
(-7.57441e-05 2.133e-05 0)
(-0.000110316 2.50042e-05 0)
(-0.000149848 2.84804e-05 0)
(-0.00019409 3.17434e-05 0)
(-0.000242756 3.47867e-05 0)
(-0.000295552 3.7606e-05 0)
(-0.000352186 4.02006e-05 0)
(-0.00041236 4.25781e-05 0)
(-0.000475781 4.47481e-05 0)
(-0.000542164 4.67173e-05 0)
(-0.000611228 4.84914e-05 0)
(-0.0006827 5.00758e-05 0)
(-0.000756321 5.14771e-05 0)
(-0.000831837 5.27034e-05 0)
(-0.000909009 5.37637e-05 0)
(-0.000987605 5.46654e-05 0)
(-0.00106741 5.54169e-05 0)
(-0.00114821 5.60262e-05 0)
(-0.0012298 5.64998e-05 0)
(-0.00131201 5.68463e-05 0)
(-0.00139464 5.70734e-05 0)
(-0.00147755 5.71888e-05 0)
(-0.00156056 5.72001e-05 0)
(-0.00164353 5.71124e-05 0)
(-0.00172632 5.69309e-05 0)
(-0.0018088 5.66611e-05 0)
(-0.00189084 5.63081e-05 0)
(-0.00197233 5.58787e-05 0)
(-0.00205316 5.53798e-05 0)
(-0.00213322 5.48146e-05 0)
(-0.00221243 5.41856e-05 0)
(-0.00229069 5.34966e-05 0)
(-0.00236792 5.27516e-05 0)
(-0.00244403 5.19539e-05 0)
(-0.00251895 5.11064e-05 0)
(-0.00259262 5.02116e-05 0)
(-0.00266495 4.92721e-05 0)
(-0.0027359 4.82905e-05 0)
(-0.0028054 4.72702e-05 0)
(-0.00287339 4.62142e-05 0)
(-0.00293982 4.51241e-05 0)
(-0.00300465 4.40006e-05 0)
(-0.00306782 4.28452e-05 0)
(-0.00312929 4.16606e-05 0)
(-0.00318901 4.0449e-05 0)
(-0.00324695 3.92117e-05 0)
(-0.00330307 3.79496e-05 0)
(-0.00335732 3.6663e-05 0)
(-0.00340968 3.53516e-05 0)
(-0.00346011 3.40159e-05 0)
(-0.00350857 3.26576e-05 0)
(-0.00355503 3.12785e-05 0)
(-0.00359947 2.98796e-05 0)
(-0.00364184 2.84614e-05 0)
(-0.00368213 2.70244e-05 0)
(-0.00372031 2.55692e-05 0)
(-0.00375635 2.40956e-05 0)
(-0.00379021 2.26037e-05 0)
(-0.00382189 2.10943e-05 0)
(-0.00385135 1.95683e-05 0)
(-0.00387857 1.80264e-05 0)
(-0.00390353 1.64686e-05 0)
(-0.00392621 1.48948e-05 0)
(-0.00394658 1.33057e-05 0)
(-0.00396462 1.1702e-05 0)
(-0.00398032 1.00846e-05 0)
(-0.00399366 8.45469e-06 0)
(-0.00400462 6.81323e-06 0)
(-0.00401319 5.16143e-06 0)
(-0.00401935 3.50004e-06 0)
(-0.00402309 1.82922e-06 0)
(-0.00402439 1.49333e-07 0)
(-0.00402325 -1.53883e-06 0)
(-0.00401965 -3.23414e-06 0)
(-0.0040136 -4.93521e-06 0)
(-0.00400507 -6.6408e-06 0)
(-0.00399406 -8.34962e-06 0)
(-0.00398058 -1.006e-05 0)
(-0.00396462 -1.17705e-05 0)
(-0.00394618 -1.34793e-05 0)
(-0.00392527 -1.5185e-05 0)
(-0.00390187 -1.68864e-05 0)
(-0.00387601 -1.85826e-05 0)
(-0.0038477 -2.02725e-05 0)
(-0.00381693 -2.19548e-05 0)
(-0.00378371 -2.36286e-05 0)
(-0.00374807 -2.52933e-05 0)
(-0.00371002 -2.69489e-05 0)
(-0.00366956 -2.8595e-05 0)
(-0.00362672 -3.02301e-05 0)
(-0.00358152 -3.18524e-05 0)
(-0.00353398 -3.34595e-05 0)
(-0.00348412 -3.50489e-05 0)
(-0.00343197 -3.66182e-05 0)
(-0.00337757 -3.8165e-05 0)
(-0.00332095 -3.9687e-05 0)
(-0.00326215 -4.1182e-05 0)
(-0.00320121 -4.26471e-05 0)
(-0.00313818 -4.40792e-05 0)
(-0.0030731 -4.54758e-05 0)
(-0.00300603 -4.68346e-05 0)
(-0.00293702 -4.81535e-05 0)
(-0.00286614 -4.94296e-05 0)
(-0.00279345 -5.06596e-05 0)
(-0.00271903 -5.18394e-05 0)
(-0.00264295 -5.29651e-05 0)
(-0.00256529 -5.40331e-05 0)
(-0.00248614 -5.50397e-05 0)
(-0.00240558 -5.59814e-05 0)
(-0.00232373 -5.68548e-05 0)
(-0.00224067 -5.76559e-05 0)
(-0.00215653 -5.83793e-05 0)
(-0.00207143 -5.90193e-05 0)
(-0.00198548 -5.95696e-05 0)
(-0.00189883 -6.00239e-05 0)
(-0.00181161 -6.03761e-05 0)
(-0.00172397 -6.062e-05 0)
(-0.00163609 -6.075e-05 0)
(-0.00154811 -6.07603e-05 0)
(-0.00146023 -6.06452e-05 0)
(-0.00137262 -6.03984e-05 0)
(-0.00128549 -6.00128e-05 0)
(-0.00119903 -5.94811e-05 0)
(-0.00111345 -5.87961e-05 0)
(-0.00102899 -5.79499e-05 0)
(-0.000945882 -5.69346e-05 0)
(-0.000864361 -5.57425e-05 0)
(-0.000784684 -5.43673e-05 0)
(-0.000707112 -5.28036e-05 0)
(-0.000631917 -5.10456e-05 0)
(-0.000559377 -4.90869e-05 0)
(-0.000489777 -4.69226e-05 0)
(-0.000423407 -4.45487e-05 0)
(-0.000360566 -4.19593e-05 0)
(-0.000301556 -3.91482e-05 0)
(-0.000246676 -3.61129e-05 0)
(-0.000196225 -3.28557e-05 0)
(-0.000150495 -2.93813e-05 0)
(-0.000109763 -2.56961e-05 0)
(-7.42887e-05 -2.18133e-05 0)
(-4.42907e-05 -1.77582e-05 0)
(-1.99385e-05 -1.3572e-05 0)
(-1.32749e-06 -9.31555e-06 0)
(1.1558e-05 -5.08294e-06 0)
(1.88959e-05 -1.02237e-06 0)
(2.10937e-05 2.63668e-06 0)
(1.88684e-05 5.54199e-06 0)
(1.3379e-05 7.14741e-06 0)
(6.62338e-06 6.63918e-06 0)
(1.62537e-06 3.14318e-06 0)
(1.76148e-06 -6.89349e-06 0)
(6.82581e-06 -1.32979e-05 0)
(1.25819e-05 -1.25281e-05 0)
(1.55348e-05 -7.50469e-06 0)
(1.32024e-05 2.7012e-07 0)
(4.20922e-06 9.78108e-06 0)
(-1.23286e-05 2.02639e-05 0)
(-3.6936e-05 3.12063e-05 0)
(-6.98526e-05 4.22525e-05 0)
(-0.000111114 5.31644e-05 0)
(-0.000160595 6.37718e-05 0)
(-0.000218059 7.3962e-05 0)
(-0.000283198 8.36541e-05 0)
(-0.000355645 9.28006e-05 0)
(-0.000434998 0.000101375 0)
(-0.000520831 0.000109355 0)
(-0.000612698 0.000116737 0)
(-0.000710153 0.000123525 0)
(-0.000812755 0.00012973 0)
(-0.00092006 0.000135367 0)
(-0.00103163 0.000140455 0)
(-0.00114706 0.000145009 0)
(-0.00126592 0.00014905 0)
(-0.00138782 0.000152598 0)
(-0.00151239 0.000155675 0)
(-0.00163926 0.0001583 0)
(-0.00176807 0.000160496 0)
(-0.00189851 0.000162286 0)
(-0.00203025 0.000163689 0)
(-0.002163 0.000164728 0)
(-0.00229647 0.000165422 0)
(-0.00243038 0.000165791 0)
(-0.0025645 0.000165853 0)
(-0.00269857 0.000165629 0)
(-0.00283238 0.000165134 0)
(-0.0029657 0.000164383 0)
(-0.00309834 0.000163393 0)
(-0.00323011 0.000162179 0)
(-0.00336083 0.000160754 0)
(-0.00349034 0.000159134 0)
(-0.00361847 0.000157327 0)
(-0.00374508 0.000155345 0)
(-0.00387004 0.000153198 0)
(-0.00399321 0.000150896 0)
(-0.00411446 0.000148448 0)
(-0.00423368 0.000145863 0)
(-0.00435077 0.000143147 0)
(-0.00446561 0.000140309 0)
(-0.00457812 0.000137355 0)
(-0.00468819 0.000134293 0)
(-0.00479575 0.000131129 0)
(-0.00490071 0.000127868 0)
(-0.00500298 0.000124515 0)
(-0.0051025 0.000121073 0)
(-0.0051992 0.000117547 0)
(-0.005293 0.000113942 0)
(-0.00538385 0.000110261 0)
(-0.00547167 0.000106509 0)
(-0.00555641 0.000102686 0)
(-0.00563802 9.8794e-05 0)
(-0.00571644 9.48357e-05 0)
(-0.00579161 9.08144e-05 0)
(-0.00586348 8.67329e-05 0)
(-0.00593202 8.25936e-05 0)
(-0.00599716 7.83988e-05 0)
(-0.00605886 7.41501e-05 0)
(-0.00611709 6.98489e-05 0)
(-0.0061718 6.54965e-05 0)
(-0.00622295 6.10947e-05 0)
(-0.00627049 5.66453e-05 0)
(-0.00631441 5.215e-05 0)
(-0.00635464 4.76099e-05 0)
(-0.00639118 4.30264e-05 0)
(-0.00642397 3.84014e-05 0)
(-0.006453 3.37371e-05 0)
(-0.00647822 2.90359e-05 0)
(-0.00649962 2.43001e-05 0)
(-0.00651717 1.95322e-05 0)
(-0.00653084 1.47344e-05 0)
(-0.00654062 9.9091e-06 0)
(-0.00654647 5.05805e-06 0)
(-0.00654839 1.8331e-07 0)
(-0.00654635 -4.71237e-06 0)
(-0.00654035 -9.62612e-06 0)
(-0.00653036 -1.45551e-05 0)
(-0.00651639 -1.94962e-05 0)
(-0.00649842 -2.44461e-05 0)
(-0.00647644 -2.9401e-05 0)
(-0.00645046 -3.43567e-05 0)
(-0.00642047 -3.93097e-05 0)
(-0.00638648 -4.42564e-05 0)
(-0.00634849 -4.91932e-05 0)
(-0.00630651 -5.41172e-05 0)
(-0.00626056 -5.90248e-05 0)
(-0.00621063 -6.39127e-05 0)
(-0.00615676 -6.87777e-05 0)
(-0.00609895 -7.36165e-05 0)
(-0.00603724 -7.84263e-05 0)
(-0.00597164 -8.3204e-05 0)
(-0.0059022 -8.79455e-05 0)
(-0.00582894 -9.26455e-05 0)
(-0.00575191 -9.72982e-05 0)
(-0.00567114 -0.000101897 0)
(-0.00558668 -0.000106437 0)
(-0.00549859 -0.00011091 0)
(-0.00540693 -0.000115309 0)
(-0.00531175 -0.000119629 0)
(-0.00521313 -0.000123861 0)
(-0.00511113 -0.000127999 0)
(-0.00500585 -0.000132033 0)
(-0.00489736 -0.000135957 0)
(-0.00478576 -0.000139762 0)
(-0.00467115 -0.000143441 0)
(-0.00455364 -0.000146984 0)
(-0.00443335 -0.00015038 0)
(-0.00431039 -0.000153619 0)
(-0.0041849 -0.00015669 0)
(-0.00405703 -0.000159583 0)
(-0.00392691 -0.000162284 0)
(-0.00379472 -0.000164784 0)
(-0.00366062 -0.000167069 0)
(-0.0035248 -0.000169124 0)
(-0.00338744 -0.000170936 0)
(-0.00324876 -0.000172487 0)
(-0.00310896 -0.000173762 0)
(-0.00296829 -0.000174743 0)
(-0.00282697 -0.000175414 0)
(-0.00268527 -0.000175757 0)
(-0.00254346 -0.000175756 0)
(-0.00240181 -0.000175394 0)
(-0.00226062 -0.000174651 0)
(-0.00212021 -0.000173509 0)
(-0.00198091 -0.000171948 0)
(-0.00184304 -0.000169949 0)
(-0.00170698 -0.000167492 0)
(-0.00157308 -0.000164557 0)
(-0.00144173 -0.000161124 0)
(-0.00131333 -0.000157174 0)
(-0.0011883 -0.000152692 0)
(-0.00106704 -0.00014766 0)
(-0.000950008 -0.000142064 0)
(-0.00083764 -0.00013589 0)
(-0.000730387 -0.000129126 0)
(-0.000628707 -0.000121765 0)
(-0.000533061 -0.0001138 0)
(-0.000443904 -0.00010523 0)
(-0.000361681 -9.60657e-05 0)
(-0.000286818 -8.63267e-05 0)
(-0.000219716 -7.60475e-05 0)
(-0.000160733 -6.52821e-05 0)
(-0.000110163 -5.41148e-05 0)
(-6.82132e-05 -4.26722e-05 0)
(-3.49694e-05 -3.11372e-05 0)
(-1.03518e-05 -1.97753e-05 0)
(5.94941e-06 -8.97303e-06 0)
(1.45516e-05 7.11435e-07 0)
(1.64591e-05 8.4796e-06 0)
(1.31767e-05 1.32098e-05 0)
(7.11673e-06 1.33858e-05 0)
(1.88539e-06 7.16478e-06 0)
(1.65116e-06 -1.03363e-05 0)
(5.46288e-06 -1.84188e-05 0)
(8.22202e-06 -1.5454e-05 0)
(6.37637e-06 -5.44359e-06 0)
(-2.61173e-06 9.26103e-06 0)
(-2.0323e-05 2.69948e-05 0)
(-4.78073e-05 4.6531e-05 0)
(-8.56794e-05 6.69688e-05 0)
(-0.000134259 8.76808e-05 0)
(-0.000193604 0.000108216 0)
(-0.000263591 0.00012826 0)
(-0.000343961 0.000147586 0)
(-0.00043434 0.000166034 0)
(-0.000534289 0.000183501 0)
(-0.000643314 0.000199918 0)
(-0.000760882 0.000215248 0)
(-0.000886436 0.000229472 0)
(-0.00101941 0.000242585 0)
(-0.00115922 0.0002546 0)
(-0.00130531 0.000265536 0)
(-0.00145711 0.00027542 0)
(-0.00161406 0.000284285 0)
(-0.00177563 0.000292165 0)
(-0.0019413 0.000299096 0)
(-0.00211057 0.000305118 0)
(-0.00228294 0.00031027 0)
(-0.00245797 0.000314591 0)
(-0.00263519 0.000318121 0)
(-0.00281421 0.000320903 0)
(-0.00299459 0.000322975 0)
(-0.00317598 0.000324374 0)
(-0.003358 0.000325139 0)
(-0.00354031 0.000325303 0)
(-0.00372258 0.000324903 0)
(-0.00390451 0.00032397 0)
(-0.00408581 0.000322538 0)
(-0.00426621 0.000320634 0)
(-0.00444545 0.000318288 0)
(-0.00462328 0.000315527 0)
(-0.00479947 0.000312374 0)
(-0.00497382 0.000308854 0)
(-0.00514611 0.000304988 0)
(-0.00531617 0.000300796 0)
(-0.0054838 0.000296296 0)
(-0.00564884 0.000291508 0)
(-0.00581113 0.000286447 0)
(-0.00597052 0.00028113 0)
(-0.00612686 0.000275571 0)
(-0.00628003 0.000269782 0)
(-0.00642989 0.000263776 0)
(-0.00657633 0.000257567 0)
(-0.00671923 0.000251164 0)
(-0.00685848 0.000244578 0)
(-0.00699398 0.000237817 0)
(-0.00712563 0.000230887 0)
(-0.00725333 0.000223798 0)
(-0.007377 0.000216557 0)
(-0.00749656 0.00020917 0)
(-0.0076119 0.000201644 0)
(-0.00772297 0.000193984 0)
(-0.00782969 0.000186193 0)
(-0.00793198 0.000178277 0)
(-0.00802977 0.000170242 0)
(-0.008123 0.000162092 0)
(-0.0082116 0.000153831 0)
(-0.00829552 0.000145464 0)
(-0.00837468 0.000136993 0)
(-0.00844904 0.000128422 0)
(-0.00851854 0.000119756 0)
(-0.00858313 0.000110997 0)
(-0.00864276 0.00010215 0)
(-0.00869737 9.32161e-05 0)
(-0.00874694 8.41999e-05 0)
(-0.0087914 7.51051e-05 0)
(-0.00883072 6.59357e-05 0)
(-0.00886487 5.6696e-05 0)
(-0.0088938 4.73905e-05 0)
(-0.00891748 3.80235e-05 0)
(-0.00893588 2.85992e-05 0)
(-0.00894897 1.9122e-05 0)
(-0.00895673 9.59653e-06 0)
(-0.00895912 2.7336e-08 0)
(-0.00895612 -9.58049e-06 0)
(-0.00894773 -1.92216e-05 0)
(-0.00893392 -2.88908e-05 0)
(-0.00891468 -3.85824e-05 0)
(-0.00889 -4.82901e-05 0)
(-0.00885988 -5.80072e-05 0)
(-0.0088243 -6.77269e-05 0)
(-0.00878328 -7.74425e-05 0)
(-0.00873681 -8.71476e-05 0)
(-0.00868491 -9.68357e-05 0)
(-0.00862757 -0.0001065 0)
(-0.00856483 -0.000116133 0)
(-0.00849669 -0.000125729 0)
(-0.00842317 -0.000135279 0)
(-0.00834432 -0.000144778 0)
(-0.00826015 -0.000154218 0)
(-0.00817072 -0.000163591 0)
(-0.00807605 -0.000172888 0)
(-0.00797621 -0.000182099 0)
(-0.00787123 -0.000191214 0)
(-0.00776119 -0.000200221 0)
(-0.00764615 -0.000209108 0)
(-0.00752618 -0.000217863 0)
(-0.00740137 -0.000226473 0)
(-0.00727179 -0.000234924 0)
(-0.00713754 -0.000243202 0)
(-0.00699873 -0.000251294 0)
(-0.00685546 -0.000259182 0)
(-0.00670786 -0.000266853 0)
(-0.00655605 -0.00027429 0)
(-0.00640017 -0.000281475 0)
(-0.00624036 -0.00028839 0)
(-0.0060768 -0.000295016 0)
(-0.00590964 -0.000301331 0)
(-0.00573907 -0.000307316 0)
(-0.00556528 -0.000312949 0)
(-0.00538848 -0.000318205 0)
(-0.00520888 -0.000323062 0)
(-0.00502672 -0.000327493 0)
(-0.00484225 -0.000331472 0)
(-0.00465573 -0.00033497 0)
(-0.00446744 -0.000337958 0)
(-0.00427767 -0.000340405 0)
(-0.00408673 -0.000342278 0)
(-0.00389495 -0.000343546 0)
(-0.00370267 -0.000344177 0)
(-0.00351027 -0.000344136 0)
(-0.0033181 -0.000343389 0)
(-0.00312659 -0.000341902 0)
(-0.00293614 -0.000339639 0)
(-0.0027472 -0.000336564 0)
(-0.00256021 -0.000332639 0)
(-0.00237566 -0.000327828 0)
(-0.00219403 -0.000322095 0)
(-0.00201584 -0.000315404 0)
(-0.00184161 -0.000307721 0)
(-0.0016719 -0.000299015 0)
(-0.00150724 -0.000289256 0)
(-0.00134822 -0.000278418 0)
(-0.00119543 -0.000266477 0)
(-0.00104944 -0.000253414 0)
(-0.000910847 -0.000239222 0)
(-0.000780243 -0.000223897 0)
(-0.000658207 -0.00020745 0)
(-0.000545301 -0.000189906 0)
(-0.000442056 -0.000171316 0)
(-0.00034896 -0.000151759 0)
(-0.00026644 -0.000131355 0)
(-0.000194837 -0.000110276 0)
(-0.000134377 -8.87708e-05 0)
(-8.51286e-05 -6.71899e-05 0)
(-4.6959e-05 -4.60219e-05 0)
(-1.94689e-05 -2.59469e-05 0)
(-1.91874e-06 -7.90463e-06 0)
(6.84313e-06 6.81809e-06 0)
(8.48048e-06 1.64944e-05 0)
(5.52396e-06 1.88681e-05 0)
(1.64255e-06 1.09783e-05 0)
(1.18018e-06 -1.3024e-05 0)
(2.7127e-06 -2.05886e-05 0)
(8.02714e-07 -1.34741e-05 0)
(-7.71666e-06 3.4266e-06 0)
(-2.52938e-05 2.70116e-05 0)
(-5.354e-05 5.50004e-05 0)
(-9.3555e-05 8.56741e-05 0)
(-0.000146022 0.000117758 0)
(-0.000211272 0.000150322 0)
(-0.000289388 0.000182688 0)
(-0.000380239 0.000214361 0)
(-0.000483537 0.000244984 0)
(-0.000598875 0.000274299 0)
(-0.000725747 0.000302125 0)
(-0.000863586 0.000328339 0)
(-0.00101178 0.000352871 0)
(-0.00116967 0.000375681 0)
(-0.0013366 0.000396755 0)
(-0.00151189 0.000416102 0)
(-0.00169486 0.000433744 0)
(-0.00188482 0.000449717 0)
(-0.00208113 0.000464064 0)
(-0.00228313 0.000476837 0)
(-0.00249018 0.00048809 0)
(-0.00270168 0.000497884 0)
(-0.00291704 0.000506278 0)
(-0.00313568 0.000513334 0)
(-0.00335707 0.000519115 0)
(-0.00358069 0.000523682 0)
(-0.00380603 0.000527099 0)
(-0.00403263 0.000529425 0)
(-0.00426004 0.000530719 0)
(-0.00448783 0.000531039 0)
(-0.00471559 0.000530436 0)
(-0.00494295 0.000528964 0)
(-0.00516954 0.000526673 0)
(-0.00539502 0.000523613 0)
(-0.00561907 0.000519828 0)
(-0.00584138 0.00051536 0)
(-0.00606167 0.000510251 0)
(-0.00627967 0.000504537 0)
(-0.00649512 0.000498254 0)
(-0.00670779 0.000491437 0)
(-0.00691743 0.000484113 0)
(-0.00712385 0.000476314 0)
(-0.00732685 0.000468067 0)
(-0.00752622 0.000459398 0)
(-0.00772179 0.000450329 0)
(-0.0079134 0.000440884 0)
(-0.00810088 0.000431081 0)
(-0.00828407 0.000420939 0)
(-0.00846284 0.000410477 0)
(-0.00863704 0.000399711 0)
(-0.00880654 0.000388655 0)
(-0.00897123 0.000377324 0)
(-0.00913098 0.00036573 0)
(-0.00928567 0.000353883 0)
(-0.00943521 0.000341795 0)
(-0.00957947 0.000329476 0)
(-0.00971838 0.000316935 0)
(-0.00985183 0.000304181 0)
(-0.00997973 0.000291222 0)
(-0.010102 0.000278067 0)
(-0.0102185 0.000264723 0)
(-0.0103293 0.000251197 0)
(-0.0104341 0.000237496 0)
(-0.0105331 0.000223626 0)
(-0.010626 0.000209593 0)
(-0.0107128 0.000195404 0)
(-0.0107934 0.000181066 0)
(-0.0108678 0.000166583 0)
(-0.010936 0.000151962 0)
(-0.0109978 0.000137209 0)
(-0.0110532 0.00012233 0)
(-0.0111022 0.000107331 0)
(-0.0111447 9.22196e-05 0)
(-0.0111807 7.70028e-05 0)
(-0.01121 6.16875e-05 0)
(-0.0112328 4.62804e-05 0)
(-0.011249 3.0789e-05 0)
(-0.0112584 1.5221e-05 0)
(-0.0112612 -4.15481e-07 0)
(-0.0112572 -1.61128e-05 0)
(-0.0112464 -3.18627e-05 0)
(-0.0112289 -4.76562e-05 0)
(-0.0112045 -6.34841e-05 0)
(-0.0111734 -7.93366e-05 0)
(-0.0111355 -9.52036e-05 0)
(-0.0110907 -0.000111075 0)
(-0.0110392 -0.00012694 0)
(-0.0109808 -0.000142788 0)
(-0.0109156 -0.00015861 0)
(-0.0108437 -0.000174392 0)
(-0.010765 -0.000190124 0)
(-0.0106795 -0.000205794 0)
(-0.0105873 -0.000221389 0)
(-0.0104885 -0.000236899 0)
(-0.010383 -0.000252309 0)
(-0.010271 -0.000267606 0)
(-0.0101524 -0.000282774 0)
(-0.0100274 -0.000297798 0)
(-0.00989592 -0.00031266 0)
(-0.00975816 -0.000327343 0)
(-0.00961417 -0.000341827 0)
(-0.00946404 -0.000356093 0)
(-0.00930786 -0.000370119 0)
(-0.00914576 -0.000383884 0)
(-0.00897784 -0.000397364 0)
(-0.00880423 -0.000410537 0)
(-0.00862508 -0.000423378 0)
(-0.00844053 -0.000435861 0)
(-0.00825075 -0.000447958 0)
(-0.00805592 -0.000459642 0)
(-0.00785621 -0.000470882 0)
(-0.00765182 -0.000481647 0)
(-0.00744298 -0.000491903 0)
(-0.0072299 -0.000501617 0)
(-0.00701284 -0.000510752 0)
(-0.00679204 -0.000519271 0)
(-0.00656778 -0.000527135 0)
(-0.00634036 -0.000534301 0)
(-0.00611008 -0.000540727 0)
(-0.00587728 -0.000546367 0)
(-0.0056423 -0.000551175 0)
(-0.0054055 -0.000555101 0)
(-0.00516727 -0.000558095 0)
(-0.00492802 -0.000560105 0)
(-0.00468817 -0.00056108 0)
(-0.00444818 -0.000560965 0)
(-0.00420852 -0.000559706 0)
(-0.00396967 -0.000557247 0)
(-0.00373216 -0.000553533 0)
(-0.00349653 -0.000548505 0)
(-0.00326333 -0.000542108 0)
(-0.00303315 -0.000534282 0)
(-0.00280658 -0.000524974 0)
(-0.00258426 -0.000514128 0)
(-0.00236683 -0.000501694 0)
(-0.00215494 -0.000487622 0)
(-0.00194928 -0.000471869 0)
(-0.00175053 -0.000454398 0)
(-0.00155938 -0.000435176 0)
(-0.00137655 -0.000414181 0)
(-0.00120274 -0.000391404 0)
(-0.00103865 -0.000366854 0)
(-0.000884941 -0.000340557 0)
(-0.000742281 -0.00031257 0)
(-0.000611281 -0.000282984 0)
(-0.000492496 -0.00025194 0)
(-0.0003864 -0.000219641 0)
(-0.000293371 -0.000186373 0)
(-0.000213646 -0.00015253 0)
(-0.000147288 -0.000118655 0)
(-9.41349e-05 -8.54863e-05 0)
(-5.37474e-05 -5.40152e-05 0)
(-2.53404e-05 -2.55718e-05 0)
(-7.72022e-06 -1.92228e-06 0)
(8.04053e-07 1.46285e-05 0)
(2.65472e-06 2.11147e-05 0)
(1.13531e-06 1.35428e-05 0)
(5.3581e-07 -1.39254e-05 0)
(-8.45539e-07 -1.85036e-05 0)
(-8.53246e-06 -5.07696e-06 0)
(-2.50806e-05 2.07109e-05 0)
(-5.26477e-05 5.51127e-05 0)
(-9.27812e-05 9.52837e-05 0)
(-0.00014656 0.000139024 0)
(-0.00021464 0.000184692 0)
(-0.000297362 0.000231052 0)
(-0.00039479 0.000277188 0)
(-0.000506776 0.000322414 0)
(-0.000633011 0.000366224 0)
(-0.000773046 0.000408252 0)
(-0.000926332 0.000448229 0)
(-0.00109224 0.000485969 0)
(-0.00127008 0.000521352 0)
(-0.00145914 0.00055431 0)
(-0.00165865 0.000584812 0)
(-0.00186787 0.000612859 0)
(-0.002086 0.000638475 0)
(-0.0023123 0.000661701 0)
(-0.00254599 0.000682596 0)
(-0.00278634 0.000701224 0)
(-0.00303261 0.000717659 0)
(-0.00328409 0.000731984 0)
(-0.00354011 0.000744281 0)
(-0.0038 0.000754636 0)
(-0.00406313 0.000763139 0)
(-0.0043289 0.000769873 0)
(-0.00459671 0.000774928 0)
(-0.00486601 0.000778389 0)
(-0.00513628 0.00078034 0)
(-0.00540702 0.000780861 0)
(-0.00567774 0.000780032 0)
(-0.00594799 0.000777926 0)
(-0.00621735 0.000774616 0)
(-0.00648542 0.000770172 0)
(-0.0067518 0.000764659 0)
(-0.00701613 0.000758139 0)
(-0.00727808 0.000750671 0)
(-0.00753732 0.00074231 0)
(-0.00779354 0.000733108 0)
(-0.00804647 0.000723114 0)
(-0.00829583 0.000712373 0)
(-0.00854136 0.000700929 0)
(-0.00878282 0.000688819 0)
(-0.00901998 0.000676084 0)
(-0.00925263 0.000662756 0)
(-0.00948057 0.000648869 0)
(-0.0097036 0.000634453 0)
(-0.00992154 0.000619534 0)
(-0.0101342 0.000604139 0)
(-0.0103414 0.000588291 0)
(-0.0105431 0.000572012 0)
(-0.010739 0.000555323 0)
(-0.010929 0.000538244 0)
(-0.011113 0.000520792 0)
(-0.0112909 0.000502981 0)
(-0.0114625 0.000484827 0)
(-0.0116277 0.000466345 0)
(-0.0117864 0.000447546 0)
(-0.0119385 0.000428446 0)
(-0.0120839 0.000409054 0)
(-0.0122224 0.000389384 0)
(-0.012354 0.000369445 0)
(-0.0124787 0.000349247 0)
(-0.0125962 0.000328801 0)
(-0.0127066 0.000308117 0)
(-0.0128097 0.000287203 0)
(-0.0129054 0.000266069 0)
(-0.0129938 0.000244724 0)
(-0.0130747 0.000223178 0)
(-0.013148 0.00020144 0)
(-0.0132137 0.000179518 0)
(-0.0132718 0.000157424 0)
(-0.0133221 0.000135166 0)
(-0.0133646 0.000112755 0)
(-0.0133993 9.02013e-05 0)
(-0.0134262 6.75151e-05 0)
(-0.0134451 4.47077e-05 0)
(-0.0134561 2.17904e-05 0)
(-0.013459 -1.22531e-06 0)
(-0.013454 -2.43279e-05 0)
(-0.0134409 -4.75052e-05 0)
(-0.0134198 -7.07443e-05 0)
(-0.0133905 -9.40316e-05 0)
(-0.0133532 -0.000117353 0)
(-0.0133078 -0.000140694 0)
(-0.0132543 -0.00016404 0)
(-0.0131926 -0.000187377 0)
(-0.0131229 -0.000210688 0)
(-0.0130451 -0.000233958 0)
(-0.0129593 -0.00025717 0)
(-0.0128654 -0.000280307 0)
(-0.0127634 -0.00030335 0)
(-0.0126536 -0.000326283 0)
(-0.0125358 -0.000349085 0)
(-0.0124101 -0.000371738 0)
(-0.0122766 -0.00039422 0)
(-0.0121353 -0.000416508 0)
(-0.0119864 -0.00043858 0)
(-0.0118299 -0.000460409 0)
(-0.0116659 -0.00048197 0)
(-0.0114945 -0.000503235 0)
(-0.0113159 -0.000524175 0)
(-0.01113 -0.00054476 0)
(-0.0109372 -0.000564957 0)
(-0.0107374 -0.000584733 0)
(-0.0105309 -0.000604054 0)
(-0.0103179 -0.000622883 0)
(-0.0100984 -0.000641181 0)
(-0.00987279 -0.00065891 0)
(-0.00964117 -0.000676028 0)
(-0.0094038 -0.000692489 0)
(-0.0091609 -0.000708249 0)
(-0.00891273 -0.000723258 0)
(-0.00865957 -0.000737466 0)
(-0.0084017 -0.000750821 0)
(-0.00813943 -0.000763266 0)
(-0.00787308 -0.000774745 0)
(-0.00760301 -0.000785196 0)
(-0.00732958 -0.000794558 0)
(-0.00705318 -0.000802765 0)
(-0.00677423 -0.000809749 0)
(-0.00649314 -0.00081544 0)
(-0.00621039 -0.000819765 0)
(-0.00592644 -0.000822651 0)
(-0.00564181 -0.000824022 0)
(-0.00535702 -0.0008238 0)
(-0.00507264 -0.000821908 0)
(-0.00478923 -0.000818265 0)
(-0.0045074 -0.000812792 0)
(-0.00422779 -0.000805407 0)
(-0.00395104 -0.000796031 0)
(-0.00367784 -0.000784584 0)
(-0.00340889 -0.000770987 0)
(-0.00314491 -0.000755167 0)
(-0.00288665 -0.000737053 0)
(-0.00263487 -0.000716578 0)
(-0.00239035 -0.000693684 0)
(-0.00215387 -0.000668323 0)
(-0.00192625 -0.000640459 0)
(-0.00170827 -0.000610068 0)
(-0.00150073 -0.000577145 0)
(-0.00130443 -0.000541713 0)
(-0.00112011 -0.000503826 0)
(-0.000948518 -0.000463579 0)
(-0.000790317 -0.000421116 0)
(-0.000646121 -0.000376652 0)
(-0.000516448 -0.000330489 0)
(-0.000401701 -0.000283041 0)
(-0.000302137 -0.000234865 0)
(-0.000217827 -0.00018671 0)
(-0.000148614 -0.000139566 0)
(-9.40639e-05 -9.47378e-05 0)
(-5.34132e-05 -5.39298e-05 0)
(-2.55085e-05 -1.93566e-05 0)
(-8.73357e-06 6.15028e-06 0)
(-9.45751e-07 1.8998e-05 0)
(5.02116e-07 1.43596e-05 0)
(-1.61463e-07 -1.2824e-05 0)
(-4.80393e-06 -1.14625e-05 0)
(-1.89882e-05 1.07264e-05 0)
(-4.44607e-05 4.75401e-05 0)
(-8.29931e-05 9.47266e-05 0)
(-0.000135985 0.000148931 0)
(-0.000204407 0.000207548 0)
(-0.000288863 0.000268567 0)
(-0.000389636 0.00033047 0)
(-0.000506765 0.0003921 0)
(-0.000640071 0.000452577 0)
(-0.000789203 0.000511239 0)
(-0.000953678 0.000567598 0)
(-0.0011329 0.000621293 0)
(-0.0013262 0.000672068 0)
(-0.00153282 0.000719749 0)
(-0.00175197 0.000764232 0)
(-0.00198284 0.000805461 0)
(-0.00222459 0.000843426 0)
(-0.00247637 0.000878147 0)
(-0.00273733 0.000909672 0)
(-0.00300663 0.000938068 0)
(-0.00328344 0.000963416 0)
(-0.00356695 0.00098581 0)
(-0.00385637 0.00100535 0)
(-0.00415092 0.00102215 0)
(-0.00444988 0.00103632 0)
(-0.00475252 0.00104797 0)
(-0.00505815 0.00105722 0)
(-0.00536613 0.00106418 0)
(-0.00567581 0.00106896 0)
(-0.0059866 0.00107169 0)
(-0.00629793 0.00107245 0)
(-0.00660924 0.00107137 0)
(-0.00692004 0.00106854 0)
(-0.00722981 0.00106406 0)
(-0.00753811 0.00105801 0)
(-0.00784449 0.0010505 0)
(-0.00814853 0.0010416 0)
(-0.00844985 0.0010314 0)
(-0.00874806 0.00101996 0)
(-0.00904283 0.00100737 0)
(-0.00933381 0.000993681 0)
(-0.00962069 0.000978961 0)
(-0.00990319 0.000963269 0)
(-0.010181 0.000946659 0)
(-0.0104539 0.000929183 0)
(-0.0107216 0.000910886 0)
(-0.0109839 0.000891815 0)
(-0.0112405 0.000872011 0)
(-0.0114913 0.000851513 0)
(-0.011736 0.000830354 0)
(-0.0119745 0.000808569 0)
(-0.0122065 0.000786186 0)
(-0.0124319 0.000763234 0)
(-0.0126506 0.000739741 0)
(-0.0128623 0.000715731 0)
(-0.0130669 0.000691226 0)
(-0.0132643 0.000666246 0)
(-0.0134544 0.000640813 0)
(-0.0136369 0.000614943 0)
(-0.0138118 0.000588656 0)
(-0.013979 0.000561967 0)
(-0.0141383 0.000534894 0)
(-0.0142897 0.00050745 0)
(-0.014433 0.00047965 0)
(-0.0145681 0.000451509 0)
(-0.0146949 0.00042304 0)
(-0.0148134 0.000394257 0)
(-0.0149234 0.000365173 0)
(-0.0150248 0.000335801 0)
(-0.0151177 0.000306153 0)
(-0.0152018 0.000276242 0)
(-0.0152772 0.000246084 0)
(-0.0153438 0.00021569 0)
(-0.0154014 0.000185074 0)