0.05 	0.0003125 	0.005 	0.00689679
0.05 	0.0009375 	0.005 	0.00691331
0.05 	0.0015625 	0.005 	0.00692632
0.05 	0.0021875 	0.005 	0.00693683
0.05 	0.0028125 	0.005 	0.00694604
0.05 	0.0034375 	0.005 	0.00695386
0.05 	0.0040625 	0.005 	0.00696015
0.05 	0.0046875 	0.005 	0.00696488
0.05 	0.0053125 	0.005 	0.00696796
0.05 	0.0059375 	0.005 	0.00696931
0.05 	0.0065625 	0.005 	0.00696882
0.05 	0.0071875 	0.005 	0.00696636
0.05 	0.0078125 	0.005 	0.0069618
0.05 	0.0084375 	0.005 	0.00695498
0.05 	0.0090625 	0.005 	0.00694574
0.05 	0.0096875 	0.005 	0.0069339
0.05 	0.0103125 	0.005 	0.0069193
0.05 	0.0109375 	0.005 	0.00690173
0.05 	0.0115625 	0.005 	0.00688101
0.05 	0.0121875 	0.005 	0.00685693
0.05 	0.0128125 	0.005 	0.00682927
0.05 	0.0134375 	0.005 	0.00679777
0.05 	0.0140625 	0.005 	0.0067622
0.05 	0.0146875 	0.005 	0.00672227
0.05 	0.0153125 	0.005 	0.0066777
0.05 	0.0159375 	0.005 	0.00662819
0.05 	0.0165625 	0.005 	0.00657344
0.05 	0.0171875 	0.005 	0.00651314
0.05 	0.0178125 	0.005 	0.00644696
0.05 	0.0184375 	0.005 	0.00637454
0.05 	0.0190625 	0.005 	0.00629551
0.05 	0.0196875 	0.005 	0.0062095
0.05 	0.0203125 	0.005 	0.00611608
0.05 	0.0209375 	0.005 	0.00601484
0.05 	0.0215625 	0.005 	0.00590533
0.05 	0.0221875 	0.005 	0.00578713
0.05 	0.0228125 	0.005 	0.00565976
0.05 	0.0234375 	0.005 	0.00552274
0.05 	0.0240625 	0.005 	0.00537556
0.05 	0.0246875 	0.005 	0.00521767
0.05 	0.0253125 	0.005 	0.00504853
0.05 	0.0259375 	0.005 	0.00486753
0.05 	0.0265625 	0.005 	0.0046741
0.05 	0.0271875 	0.005 	0.00446761
0.05 	0.0278125 	0.005 	0.00424744
0.05 	0.0284375 	0.005 	0.00401291
0.05 	0.0290625 	0.005 	0.00376335
0.05 	0.0296875 	0.005 	0.00349805
0.05 	0.0303125 	0.005 	0.00321629
0.05 	0.0309375 	0.005 	0.0029173
0.05 	0.0315625 	0.005 	0.00260035
0.05 	0.0321875 	0.005 	0.00226467
0.05 	0.0328125 	0.005 	0.00190945
0.05 	0.0334375 	0.005 	0.0015339
0.05 	0.0340625 	0.005 	0.00113719
0.05 	0.0346875 	0.005 	0.000718463
0.05 	0.0353125 	0.005 	0.000276887
0.05 	0.0359375 	0.005 	-0.000188389
0.05 	0.0365625 	0.005 	-0.000678213
0.05 	0.0371875 	0.005 	-0.00119344
0.05 	0.0378125 	0.005 	-0.00173492
0.05 	0.0384375 	0.005 	-0.00230352
0.05 	0.0390625 	0.005 	-0.00290011
0.05 	0.0396875 	0.005 	-0.00352552
0.05 	0.0403125 	0.005 	-0.00418056
0.05 	0.0409375 	0.005 	-0.00486603
0.05 	0.0415625 	0.005 	-0.0055827
0.05 	0.0421875 	0.005 	-0.00633131
0.05 	0.0428125 	0.005 	-0.00711257
0.05 	0.0434375 	0.005 	-0.00792716
0.05 	0.0440625 	0.005 	-0.00877569
0.05 	0.0446875 	0.005 	-0.00965873
0.05 	0.0453125 	0.005 	-0.0105768
0.05 	0.0459375 	0.005 	-0.0115303
0.05 	0.0465625 	0.005 	-0.0125197
0.05 	0.0471875 	0.005 	-0.0135452
0.05 	0.0478125 	0.005 	-0.014607
0.05 	0.0484375 	0.005 	-0.0157053
0.05 	0.0490625 	0.005 	-0.0168401
0.05 	0.0496875 	0.005 	-0.0180113
0.05 	0.0503125 	0.005 	-0.0192187
0.05 	0.0509375 	0.005 	-0.020462
0.05 	0.0515625 	0.005 	-0.0217407
0.05 	0.0521875 	0.005 	-0.0230543
0.05 	0.0528125 	0.005 	-0.0244021
0.05 	0.0534375 	0.005 	-0.0257832
0.05 	0.0540625 	0.005 	-0.0271966
0.05 	0.0546875 	0.005 	-0.0286411
0.05 	0.0553125 	0.005 	-0.0301155
0.05 	0.0559375 	0.005 	-0.0316182
0.05 	0.0565625 	0.005 	-0.0331476
0.05 	0.0571875 	0.005 	-0.034702
0.05 	0.0578125 	0.005 	-0.0362792
0.05 	0.0584375 	0.005 	-0.0378773
0.05 	0.0590625 	0.005 	-0.0394938
0.05 	0.0596875 	0.005 	-0.0411264
0.05 	0.0603125 	0.005 	-0.0427722
0.05 	0.0609375 	0.005 	-0.0444287
0.05 	0.0615625 	0.005 	-0.0460927
0.05 	0.0621875 	0.005 	-0.0477611
0.05 	0.0628125 	0.005 	-0.0494308
0.05 	0.0634375 	0.005 	-0.0510983
0.05 	0.0640625 	0.005 	-0.05276
0.05 	0.0646875 	0.005 	-0.0544124
0.05 	0.0653125 	0.005 	-0.0560517
0.05 	0.0659375 	0.005 	-0.057674
0.05 	0.0665625 	0.005 	-0.0592754
0.05 	0.0671875 	0.005 	-0.060852
0.05 	0.0678125 	0.005 	-0.0623996
0.05 	0.0684375 	0.005 	-0.0639143
0.05 	0.0690625 	0.005 	-0.065392
0.05 	0.0696875 	0.005 	-0.0668285
0.05 	0.0703125 	0.005 	-0.0682199
0.05 	0.0709375 	0.005 	-0.0695621
0.05 	0.0715625 	0.005 	-0.0708511
0.05 	0.0721875 	0.005 	-0.0720832
0.05 	0.0728125 	0.005 	-0.0732546
0.05 	0.0734375 	0.005 	-0.0743616
0.05 	0.0740625 	0.005 	-0.0754007
0.05 	0.0746875 	0.005 	-0.0763687
0.05 	0.0753125 	0.005 	-0.0772625
0.05 	0.0759375 	0.005 	-0.0780791
0.05 	0.0765625 	0.005 	-0.0788159
0.05 	0.0771875 	0.005 	-0.0794706
0.05 	0.0778125 	0.005 	-0.0800411
0.05 	0.0784375 	0.005 	-0.0805255
0.05 	0.0790625 	0.005 	-0.0809224
0.05 	0.0796875 	0.005 	-0.0812306
0.05 	0.0803125 	0.005 	-0.0814495
0.05 	0.0809375 	0.005 	-0.0815786
0.05 	0.0815625 	0.005 	-0.081618
0.05 	0.0821875 	0.005 	-0.0815682
0.05 	0.0828125 	0.005 	-0.08143
0.05 	0.0834375 	0.005 	-0.0812048
0.05 	0.0840625 	0.005 	-0.0808943
0.05 	0.0846875 	0.005 	-0.080501
0.05 	0.0853125 	0.005 	-0.0800274
0.05 	0.0859375 	0.005 	-0.079477
0.05 	0.0865625 	0.005 	-0.0788533
0.05 	0.0871875 	0.005 	-0.0781607
0.05 	0.0878125 	0.005 	-0.0774038
0.05 	0.0884375 	0.005 	-0.0765878
0.05 	0.0890625 	0.005 	-0.0757184
0.05 	0.0896875 	0.005 	-0.0748014
0.05 	0.0903125 	0.005 	-0.0738435
0.05 	0.0909375 	0.005 	-0.0728515
0.05 	0.0915625 	0.005 	-0.0718324
0.05 	0.0921875 	0.005 	-0.0707936
0.05 	0.0928125 	0.005 	-0.0697427
0.05 	0.0934375 	0.005 	-0.0686874
0.05 	0.0940625 	0.005 	-0.0676355
0.05 	0.0946875 	0.005 	-0.0665945
0.05 	0.0953125 	0.005 	-0.065572
0.05 	0.0959375 	0.005 	-0.0645752
0.05 	0.0965625 	0.005 	-0.0636106
0.05 	0.0971875 	0.005 	-0.0626841
0.05 	0.0978125 	0.005 	-0.0618052
0.05 	0.0984375 	0.005 	-0.0609821
0.05 	0.0990625 	0.005 	-0.0601667
0.05 	0.0996875 	0.005 	-0.0593102
