/*--------------------------------*- C++ -*----------------------------------*\
  =========                 |
  \\      /  F ield         | OpenFOAM: The Open Source CFD Toolbox
   \\    /   O peration     | Website:  https://openfoam.org
    \\  /    A nd           | Version:  7
     \\/     M anipulation  |
\*---------------------------------------------------------------------------*/
FoamFile
{
    version     2.0;
    format      ascii;
    class       surfaceScalarField;
    location    "0.3125";
    object      phi;
}
// * * * * * * * * * * * * * * * * * * * * * * * * * * * * * * * * * * * * * //

dimensions      [0 3 -1 0 0 0 0];

internalField   nonuniform List<scalar> 
50880
(
6.87132e-12
-6.88671e-12
3.62031e-11
-2.9334e-11
7.82161e-11
-4.20124e-11
1.23155e-10
-4.49376e-11
1.64264e-10
-4.11055e-11
1.96962e-10
-3.26972e-11
2.18198e-10
-2.1235e-11
2.25991e-10
-7.79426e-12
2.19112e-10
6.87659e-12
1.96855e-10
2.22546e-11
1.58889e-10
3.79655e-11
1.05159e-10
5.37331e-11
3.58023e-11
6.93588e-11
-4.88919e-11
8.46953e-11
-1.4853e-10
9.96356e-11
-2.62629e-10
1.14099e-10
-3.90653e-10
1.28023e-10
-5.32018e-10
1.41364e-10
-6.86112e-10
1.54093e-10
-8.52301e-10
1.66189e-10
-1.02994e-09
1.77639e-10
-1.21837e-09
1.88435e-10
-1.41695e-09
1.98576e-10
-1.62501e-09
2.08062e-10
-1.84191e-09
2.16899e-10
-2.067e-09
2.25093e-10
-2.29966e-09
2.32655e-10
-2.53925e-09
2.39594e-10
-2.78517e-09
2.45922e-10
-3.03682e-09
2.51652e-10
-3.29362e-09
2.56798e-10
-3.55499e-09
2.61373e-10
-3.82038e-09
2.65391e-10
-4.08925e-09
2.68868e-10
-4.36107e-09
2.71815e-10
-4.63532e-09
2.74246e-10
-4.91149e-09
2.76173e-10
-5.1891e-09
2.77609e-10
-5.46767e-09
2.78567e-10
-5.74673e-09
2.7906e-10
-6.02583e-09
2.79099e-10
-6.30452e-09
2.78694e-10
-6.58238e-09
2.77858e-10
-6.85898e-09
2.766e-10
-7.13391e-09
2.74928e-10
-7.40676e-09
2.72852e-10
-7.67714e-09
2.70381e-10
-7.94466e-09
2.67523e-10
-8.20894e-09
2.64287e-10
-8.46962e-09
2.6068e-10
-8.72633e-09
2.56709e-10
-8.97872e-09
2.52385e-10
-9.22643e-09
2.47714e-10
-9.46914e-09
2.42705e-10
-9.70651e-09
2.37364e-10
-9.9382e-09
2.31693e-10
-1.01639e-08
2.25699e-10
-1.03833e-08
2.19387e-10
-1.0596e-08
2.12763e-10
-1.08019e-08
2.05834e-10
-1.10005e-08
1.98606e-10
-1.11916e-08
1.91085e-10
-1.13748e-08
1.83277e-10
-1.155e-08
1.75188e-10
-1.17169e-08
1.66827e-10
-1.18751e-08
1.58201e-10
-1.20244e-08
1.49316e-10
-1.21646e-08
1.40182e-10
-1.22954e-08
1.30805e-10
-1.24166e-08
1.21192e-10
-1.25279e-08
1.11356e-10
-1.26292e-08
1.01304e-10
-1.27203e-08
9.10466e-11
-1.28009e-08
8.05965e-11
-1.28708e-08
6.99628e-11
-1.293e-08
5.91589e-11
-1.29782e-08
4.81998e-11
-1.30153e-08
3.70968e-11
-1.30411e-08
2.58633e-11
-1.30557e-08
1.45145e-11
-1.30587e-08
3.06382e-12
-1.30502e-08
-8.47295e-12
-1.30302e-08
-2.00787e-11
-1.29984e-08
-3.17364e-11
-1.2955e-08
-4.34262e-11
-1.28999e-08
-5.51297e-11
-1.2833e-08
-6.68306e-11
-1.27545e-08
-7.85081e-11
-1.26644e-08
-9.01401e-11
-1.25627e-08
-1.01709e-10
-1.24495e-08
-1.13195e-10
-1.23249e-08
-1.24571e-10
-1.21891e-08
-1.35815e-10
-1.20422e-08
-1.46909e-10
-1.18844e-08
-1.57827e-10
-1.17158e-08
-1.68543e-10
-1.15368e-08
-1.79037e-10
-1.13475e-08
-1.89287e-10
-1.11482e-08
-1.99265e-10
-1.09393e-08
-2.08947e-10
-1.0721e-08
-2.18312e-10
-1.04937e-08
-2.27336e-10
-1.02577e-08
-2.35993e-10
-1.00134e-08
-2.44259e-10
-9.76128e-09
-2.52117e-10
-9.50174e-09
-2.59541e-10
-9.23523e-09
-2.66508e-10
-8.96223e-09
-2.72997e-10
-8.68325e-09
-2.78989e-10
-8.39878e-09
-2.8446e-10
-8.10939e-09
-2.89394e-10
-7.81562e-09
-2.93771e-10
-7.51804e-09
-2.97576e-10
-7.21726e-09
-3.00787e-10
-6.91387e-09
-3.03391e-10
-6.60849e-09
-3.05374e-10
-6.30177e-09
-3.06721e-10
-5.99436e-09
-3.07421e-10
-5.68689e-09
-3.07463e-10
-5.38005e-09
-3.0684e-10
-5.07451e-09
-3.05542e-10
-4.77095e-09
-3.0356e-10
-4.47006e-09
-3.00888e-10
-4.17253e-09
-2.97526e-10
-3.87906e-09
-2.93472e-10
-3.59034e-09
-2.88724e-10
-3.30705e-09
-2.83284e-10
-3.02989e-09
-2.77158e-10
-2.75954e-09
-2.70349e-10
-2.49668e-09
-2.62864e-10
-2.24196e-09
-2.54709e-10
-1.99606e-09
-2.459e-10
-1.75961e-09
-2.36451e-10
-1.53324e-09
-2.26374e-10
-1.31755e-09
-2.15686e-10
-1.11314e-09
-2.04409e-10
-9.2057e-10
-1.92569e-10
-7.40382e-10
-1.80191e-10
-5.73081e-10
-1.67304e-10
-4.19139e-10
-1.53942e-10
-2.78992e-10
-1.40146e-10
-1.53032e-10
-1.25961e-10
-4.15991e-11
-1.11436e-10
5.50291e-11
-9.66292e-11
1.36643e-10
-8.16112e-11
2.03112e-10
-6.64669e-11
2.54406e-10
-5.12954e-11
2.90617e-10
-3.62125e-11
3.11979e-10
-2.13625e-11
3.18909e-10
-6.92839e-12
3.12052e-10
6.85748e-12
2.92356e-10
1.96958e-11
2.61161e-10
3.11951e-11
2.20331e-10
4.08312e-11
1.72446e-10
4.7885e-11
1.21068e-10
5.13758e-11
7.10576e-11
5.00085e-11
2.8968e-11
4.20899e-11
3.25323e-12
2.57164e-11
3.25392e-12
2.9349e-11
-3.62388e-11
9.59808e-11
-9.59654e-11
1.81472e-10
-1.27509e-10
2.69144e-10
-1.32613e-10
3.45326e-10
-1.1729e-10
3.99596e-10
-8.69687e-11
4.24328e-10
-4.59649e-11
4.14132e-10
2.4058e-12
3.65355e-10
5.56587e-11
2.75668e-10
1.11944e-10
1.43753e-10
1.69877e-10
-3.09284e-11
2.28414e-10
-2.4833e-10
2.8676e-10
-5.07947e-10
3.44316e-10
-8.08934e-10
4.00624e-10
-1.15017e-09
4.55337e-10
-1.53035e-09
5.08193e-10
-1.94798e-09
5.58993e-10
-2.40148e-09
6.07592e-10
-2.88917e-09
6.53887e-10
-3.40934e-09
6.97806e-10
-3.96021e-09
7.39304e-10
-4.53999e-09
7.78356e-10
-5.14688e-09
8.14953e-10
-5.77908e-09
8.491e-10
-6.4348e-09
8.80812e-10
-7.11226e-09
9.10117e-10
-7.80972e-09
9.37047e-10
-8.52544e-09
9.61639e-10
-9.25773e-09
9.83938e-10
-1.00049e-08
1.00399e-09
-1.07654e-08
1.02183e-09
-1.15375e-08
1.03753e-09
-1.23197e-08
1.05111e-09
-1.31106e-08
1.06264e-09
-1.39085e-08
1.07215e-09
-1.4712e-08
1.07971e-09
-1.55198e-08
1.08535e-09
-1.63303e-08
1.08913e-09
-1.71423e-08
1.09109e-09
-1.79545e-08
1.09126e-09
-1.87655e-08
1.0897e-09
-1.95741e-08
1.08644e-09
-2.0379e-08
1.08153e-09
-2.11791e-08
1.07499e-09
-2.19731e-08
1.06687e-09
-2.27599e-08
1.0572e-09
-2.35384e-08
1.04601e-09
-2.43075e-08
1.03334e-09
-2.5066e-08
1.01921e-09
-2.5813e-08
1.00365e-09
-2.65473e-08
9.86702e-10
-2.72679e-08
9.68383e-10
-2.7974e-08
9.48723e-10
-2.86644e-08
9.27749e-10
-2.93381e-08
9.05485e-10
-2.99944e-08
8.81952e-10
-3.06322e-08
8.57174e-10
-3.12506e-08
8.31174e-10
-3.18487e-08
8.03977e-10
-3.24257e-08
7.75608e-10
-3.29808e-08
7.46094e-10
-3.35129e-08
7.15461e-10
-3.40215e-08
6.83736e-10
-3.45056e-08
6.50946e-10
-3.49645e-08
6.17121e-10
-3.53975e-08
5.82289e-10
-3.58038e-08
5.46482e-10
-3.61827e-08
5.09734e-10
-3.65336e-08
4.72076e-10
-3.68558e-08
4.33549e-10
-3.71487e-08
3.94193e-10
-3.74117e-08
3.54045e-10
-3.76442e-08
3.13152e-10
-3.78458e-08
2.71557e-10
-3.8016e-08
2.29306e-10
-3.81542e-08
1.86451e-10
-3.82602e-08
1.43044e-10
-3.83335e-08
9.91382e-11
-3.83737e-08
5.47939e-11
-3.83807e-08
1.00706e-11
-3.83542e-08
-3.4973e-11
-3.8294e-08
-8.02716e-11
-3.82e-08
-1.25757e-10
-3.80721e-08
-1.7136e-10
-3.79102e-08
-2.17007e-10
-3.77144e-08
-2.62623e-10
-3.74848e-08
-3.08134e-10
-3.72215e-08
-3.53463e-10
-3.69247e-08
-3.98525e-10
-3.65946e-08
-4.43239e-10
-3.62317e-08
-4.87523e-10
-3.58362e-08
-5.31288e-10
-3.54087e-08
-5.74443e-10
-3.49496e-08
-6.16903e-10
-3.44595e-08
-6.58576e-10
-3.39392e-08
-6.99372e-10
-3.33893e-08
-7.39199e-10
-3.28106e-08
-7.77969e-10
-3.2204e-08
-8.15586e-10
-3.15703e-08
-8.51958e-10
-3.09107e-08
-8.86996e-10
-3.0226e-08
-9.2061e-10
-2.95176e-08
-9.52708e-10
-2.87865e-08
-9.83201e-10
-2.8034e-08
-1.01201e-09
-2.72615e-08
-1.03904e-09
-2.64703e-08
-1.06422e-09
-2.56618e-08
-1.08746e-09
-2.48376e-08
-1.10868e-09
-2.39992e-08
-1.12782e-09
-2.31482e-08
-1.14479e-09
-2.22862e-08
-1.15954e-09
-2.1415e-08
-1.172e-09
-2.05363e-08
-1.18211e-09
-1.96518e-08
-1.18981e-09
-1.87635e-08
-1.19505e-09
-1.78731e-08
-1.1978e-09
-1.69826e-08
-1.198e-09
-1.60938e-08
-1.19562e-09
-1.52087e-08
-1.19063e-09
-1.43293e-08
-1.183e-09
-1.34574e-08
-1.17273e-09
-1.25952e-08
-1.15979e-09
-1.17444e-08
-1.14418e-09
-1.09073e-08
-1.12591e-09
-1.00856e-08
-1.10498e-09
-9.28133e-09
-1.0814e-09
-8.49648e-09
-1.0552e-09
-7.73293e-09
-1.0264e-09
-6.99258e-09
-9.95059e-10
-6.27728e-09
-9.61206e-10
-5.58883e-09
-9.24901e-10
-4.92899e-09
-8.86207e-10
-4.29947e-09
-8.45201e-10
-3.70192e-09
-8.01967e-10
-3.13789e-09
-7.56601e-10
-2.60886e-09
-7.09214e-10
-2.11623e-09
-6.59933e-10
-1.66127e-09
-6.08899e-10
-1.24515e-09
-5.56274e-10
-8.68873e-10
-5.02239e-10
-5.333e-10
-4.47007e-10
-2.39104e-10
-3.90824e-10
1.32559e-11
-3.33975e-10
2.23578e-10
-2.76794e-10
3.91959e-10
-2.19677e-10
5.18848e-10
-1.63101e-10
6.05129e-10
-1.07643e-10
6.52207e-10
-5.40102e-11
6.62134e-10
-3.07659e-12
6.3777e-10
4.40578e-11
5.82971e-10
8.59965e-11
5.02848e-10
1.20957e-10
4.04071e-10
1.46662e-10
2.95209e-10
1.60237e-10
1.87007e-10
1.58212e-10
9.24028e-11
1.36696e-10
2.56827e-11
9.24375e-11
2.89361e-11
4.20281e-11
-7.82667e-11
1.2762e-10
-1.81554e-10
2.304e-10
-2.30287e-10
3.29369e-10
-2.3158e-10
4.07173e-10
-1.95096e-10
4.50016e-10
-1.29813e-10
4.47318e-10
-4.32703e-11
3.91235e-10
5.84846e-11
2.76189e-10
1.70706e-10
9.84254e-11
2.89712e-10
-1.44349e-10
4.12654e-10
-4.53268e-10
5.3733e-10
-8.2854e-10
6.62031e-10
-1.26966e-09
7.85432e-10
-1.77553e-09
9.06502e-10
-2.34464e-09
1.02444e-09
-2.97509e-09
1.13865e-09
-3.66475e-09
1.24864e-09
-4.41123e-09
1.35408e-09
-5.21204e-09
1.45469e-09
-6.06452e-09
1.55029e-09
-6.96596e-09
1.64075e-09
-7.91361e-09
1.726e-09
-8.90464e-09
1.80599e-09
-9.93625e-09
1.88071e-09
-1.10056e-08
1.95019e-09
-1.211e-08
2.01446e-09
-1.32465e-08
2.07358e-09
-1.44125e-08
2.12762e-09
-1.56052e-08
2.17665e-09
-1.6822e-08
2.22078e-09
-1.80602e-08
2.26008e-09
-1.93174e-08
2.29467e-09
-2.05909e-08
2.32462e-09
-2.18783e-08
2.35006e-09
-2.31772e-08
2.37108e-09
-2.44853e-08
2.38777e-09
-2.58002e-08
2.40025e-09
-2.71197e-08
2.4086e-09
-2.84415e-08
2.41293e-09
-2.97636e-08
2.41332e-09
-3.10837e-08
2.40987e-09
-3.24e-08
2.40267e-09
-3.37102e-08
2.39179e-09
-3.50125e-08
2.37732e-09
-3.6305e-08
2.35933e-09
-3.75857e-08
2.33791e-09
-3.88528e-08
2.31312e-09
-4.01045e-08
2.28503e-09
-4.1339e-08
2.25371e-09
-4.25546e-08
2.21923e-09
-4.37495e-08
2.18165e-09
-4.49222e-08
2.14104e-09
-4.60709e-08
2.09744e-09
-4.71941e-08
2.05092e-09
-4.82901e-08
2.00153e-09
-4.93575e-08
1.94933e-09
-5.03947e-08
1.89438e-09
-5.14002e-08
1.83672e-09
-5.23727e-08
1.77641e-09
-5.33106e-08
1.71351e-09
-5.42125e-08
1.64807e-09
-5.50772e-08
1.58016e-09
-5.59033e-08
1.50984e-09
-5.66896e-08
1.43717e-09
-5.74347e-08
1.36221e-09
-5.81374e-08
1.28504e-09
-5.87967e-08
1.20572e-09
-5.94112e-08
1.12433e-09
-5.99801e-08
1.04095e-09
-6.05022e-08
9.55655e-10
-6.09766e-08
8.68539e-10
-6.14022e-08
7.79693e-10
-6.17783e-08
6.89211e-10
-6.21039e-08
5.97197e-10
-6.23784e-08
5.03755e-10
-6.26009e-08
4.08995e-10
-6.27709e-08
3.13035e-10
-6.28878e-08
2.15995e-10
-6.2951e-08
1.18002e-10
-6.29601e-08
1.91902e-11
-6.29148e-08
-8.03021e-11
-6.28147e-08
-1.80336e-10
-6.26597e-08
-2.80761e-10
-6.24496e-08
-3.81419e-10
-6.21845e-08
-4.82156e-10
-6.18643e-08
-5.82806e-10
-6.14892e-08
-6.832e-10
-6.10595e-08
-7.83165e-10
-6.05755e-08
-8.82525e-10
-6.00377e-08
-9.81096e-10
-5.94465e-08
-1.07869e-09
-5.88027e-08
-1.17512e-09
-5.81069e-08
-1.2702e-09
-5.73601e-08
-1.36372e-09
-5.65632e-08
-1.4555e-09
-5.57172e-08
-1.54533e-09
-5.48234e-08
-1.63301e-09
-5.3883e-08
-1.71835e-09
-5.28975e-08
-1.80113e-09
-5.18683e-08
-1.88117e-09
-5.0797e-08
-1.95826e-09
-4.96854e-08
-2.03221e-09
-4.85353e-08
-2.10282e-09
-4.73486e-08
-2.16989e-09
-4.61274e-08
-2.23325e-09
-4.48737e-08
-2.29269e-09
-4.35899e-08
-2.34806e-09
-4.22782e-08
-2.39916e-09
-4.0941e-08
-2.44584e-09
-3.95809e-08
-2.48792e-09
-3.82004e-08
-2.52526e-09
-3.68023e-08
-2.55771e-09
-3.53892e-08
-2.58513e-09
-3.39639e-08
-2.60739e-09
-3.25293e-08
-2.62437e-09
-3.10884e-08
-2.63596e-09
-2.96442e-08
-2.64206e-09
-2.81996e-08
-2.64259e-09
-2.67577e-08
-2.63748e-09
-2.53217e-08
-2.62664e-09
-2.38946e-08
-2.61005e-09
-2.24797e-08
-2.58765e-09
-2.10801e-08
-2.55943e-09
-1.96989e-08
-2.52537e-09
-1.83393e-08
-2.48549e-09
-1.70045e-08
-2.43981e-09
-1.56975e-08
-2.38835e-09
-1.44215e-08
-2.33118e-09
-1.31796e-08
-2.26836e-09
-1.19746e-08
-2.19999e-09
-1.08097e-08
-2.12617e-09
-9.68753e-09
-2.04703e-09
-8.61103e-09
-1.96271e-09
-7.58283e-09
-1.8734e-09
-6.60553e-09
-1.77927e-09
-5.68156e-09
-1.68057e-09
-4.81325e-09
-1.57753e-09
-4.00274e-09
-1.47045e-09
-3.25199e-09
-1.35965e-09
-2.56276e-09
-1.2455e-09
-1.93657e-09
-1.12842e-09
-1.37469e-09
-1.0089e-09
-8.78032e-10
-8.87477e-10
-4.472e-10
-7.64807e-10
-8.23582e-11
-6.41635e-10
2.16812e-10
-5.18846e-10
4.512e-10
-3.9749e-10
6.22378e-10
-2.78822e-10
7.32728e-10
-1.64359e-10
7.85601e-10
-5.59479e-11
7.85517e-10
4.41416e-11
7.38398e-10
1.33113e-10
6.51839e-10
2.07513e-10
5.35396e-10
2.63105e-10
4.00853e-10
2.94782e-10
2.62409e-10
2.96659e-10
1.36617e-10
2.62487e-10
4.20199e-11
1.87036e-10
7.09564e-11
4.50726e-11
-1.23343e-10
1.33073e-10
-2.69555e-10
2.32324e-10
-3.29538e-10
3.18666e-10
-3.17922e-10
3.72486e-10
-2.48913e-10
3.78019e-10
-1.35344e-10
3.22892e-10
1.18585e-11
1.97664e-10
1.83712e-10
-4.60056e-12
3.72969e-10
-2.88736e-10
5.73849e-10
-6.57841e-10
7.81763e-10
-1.11359e-09
9.93079e-10
-1.65649e-09
1.20493e-09
-2.2861e-09
1.41504e-09
-3.00124e-09
1.62164e-09
-3.8001e-09
1.8233e-09
-4.68039e-09
2.01894e-09
-5.63944e-09
2.20769e-09
-6.67427e-09
2.38891e-09
-7.78168e-09
2.56209e-09
-8.95826e-09
2.72687e-09
-1.02005e-08
2.883e-09
-1.15048e-08
3.03029e-09
-1.28674e-08
3.16865e-09
-1.42848e-08
3.29803e-09
-1.5753e-08
3.41845e-09
-1.72685e-08
3.52994e-09
-1.88275e-08
3.63258e-09
-2.04263e-08
3.72646e-09
-2.20614e-08
3.81172e-09
-2.37291e-08
3.88849e-09
-2.5426e-08
3.95691e-09
-2.71484e-08
4.01715e-09
-2.88932e-08
4.06935e-09
-3.06568e-08
4.11369e-09
-3.24361e-08
4.15033e-09
-3.42277e-08
4.17945e-09
-3.60287e-08
4.2012e-09
-3.78358e-08
4.21575e-09
-3.96462e-08
4.22327e-09
-4.14567e-08
4.22391e-09
-4.32647e-08
4.21782e-09
-4.50672e-08
4.20515e-09
-4.68614e-08
4.18605e-09
-4.86448e-08
4.16066e-09
-5.04146e-08
4.1291e-09
-5.21682e-08
4.09152e-09
-5.39031e-08
4.04803e-09
-5.56168e-08
3.99875e-09
-5.73069e-08
3.94381e-09
-5.8971e-08
3.88332e-09
-6.06067e-08
3.81738e-09
-6.22118e-08
3.74611e-09
-6.3784e-08
3.66961e-09
-6.5321e-08
3.58798e-09
-6.68208e-08
3.50132e-09
-6.82812e-08
3.40973e-09
-6.97001e-08
3.3133e-09
-7.10755e-08
3.21213e-09
-7.24055e-08
3.10633e-09
-7.3688e-08
2.99599e-09
-7.49211e-08
2.88122e-09
-7.61031e-08
2.76212e-09
-7.7232e-08
2.63881e-09
-7.83063e-08
2.51139e-09
-7.9324e-08
2.37998e-09
-8.02837e-08
2.24471e-09
-8.11837e-08
2.1057e-09
-8.20224e-08
1.96308e-09
-8.27985e-08
1.817e-09
-8.35104e-08
1.66759e-09
-8.41569e-08
1.51502e-09
-8.47366e-08
1.35944e-09
-8.52485e-08
1.20103e-09
-8.56912e-08
1.03997e-09
-8.60639e-08
8.76437e-10
-8.63655e-08
7.1063e-10
-8.65953e-08
5.42753e-10
-8.67523e-08
3.73022e-10
-8.68359e-08
2.01659e-10
-8.68457e-08
2.8893e-11
-8.67809e-08
-1.45031e-10
-8.66414e-08
-3.19861e-10
-8.64268e-08
-4.95341e-10
-8.6137e-08
-6.71201e-10
-8.5772e-08
-8.47159e-10
-8.53319e-08
-1.02293e-09
-8.48169e-08
-1.19823e-09
-8.42273e-08
-1.37274e-09
-8.35637e-08
-1.54616e-09
-8.28266e-08
-1.71818e-09
-8.20168e-08
-1.88846e-09
-8.11353e-08
-2.05668e-09
-8.01829e-08
-2.22251e-09
-7.91611e-08
-2.38561e-09
-7.80709e-08
-2.54563e-09
-7.6914e-08
-2.70224e-09
-7.56919e-08
-2.85508e-09
-7.44065e-08
-3.00381e-09
-7.30595e-08
-3.14809e-09
-7.16531e-08
-3.28756e-09
-7.01895e-08
-3.42187e-09
-6.8671e-08
-3.5507e-09
-6.71002e-08
-3.6737e-09
-6.54795e-08
-3.79054e-09
-6.38119e-08
-3.9009e-09
-6.21001e-08
-4.00445e-09
-6.03473e-08
-4.10088e-09
-5.85565e-08
-4.1899e-09
-5.67312e-08
-4.2712e-09
-5.48746e-08
-4.34453e-09
-5.29902e-08
-4.4096e-09
-5.10818e-08
-4.46616e-09
-4.91529e-08
-4.51398e-09
-4.72075e-08
-4.55284e-09
-4.52493e-08
-4.58253e-09
-4.32824e-08
-4.60286e-09
-4.13108e-08
-4.61367e-09
-3.93386e-08
-4.6148e-09
-3.73699e-08
-4.60614e-09
-3.5409e-08
-4.58756e-09
-3.34601e-08
-4.559e-09
-3.15273e-08
-4.52038e-09
-2.96151e-08
-4.47168e-09
-2.77276e-08
-4.41288e-09
-2.58691e-08
-4.34399e-09
-2.40438e-08
-4.26507e-09
-2.2256e-08
-4.17617e-09
-2.05098e-08
-4.07741e-09
-1.88092e-08
-3.9689e-09
-1.71584e-08
-3.85082e-09
-1.55612e-08
-3.72335e-09
-1.40215e-08
-3.58673e-09
-1.2543e-08
-3.44122e-09
-1.11293e-08
-3.28714e-09
-9.7837e-09
-3.12483e-09
-8.50956e-09
-2.95471e-09
-7.30988e-09
-2.77721e-09
-6.18746e-09
-2.59287e-09
-5.14487e-09
-2.40225e-09
-4.18434e-09
-2.20602e-09
-3.30783e-09
-2.00494e-09
-2.51689e-09
-1.79985e-09
-1.81263e-09
-1.59173e-09
-1.19571e-09
-1.38173e-09
-6.66191e-10
-1.17115e-09
-2.2351e-10
-9.61531e-10
1.33669e-10
-7.54673e-10
4.07558e-10
-5.52713e-10
6.01396e-10
-3.58196e-10
7.19625e-10
-1.74177e-10
7.68095e-10
-4.32916e-12
7.54292e-10
1.46916e-10
6.87583e-10
2.74222e-10
5.79468e-10
3.71221e-10
4.43809e-10
4.30442e-10
2.97034e-10
4.43432e-10
1.58314e-10
4.01205e-10
4.99573e-11
2.95394e-10
1.20916e-10
4.14303e-11
-1.64773e-10
1.18314e-10
-3.46438e-10
1.96837e-10
-4.08064e-10
2.51099e-10
-3.72186e-10
2.60224e-10
-2.58039e-10
2.07375e-10
-8.24964e-11
7.91789e-11
1.40057e-10
-1.34754e-10
3.97644e-10
-4.42214e-10
6.80429e-10
-8.48771e-10
9.80405e-10
-1.3581e-09
1.29109e-09
-1.97229e-09
1.60727e-09
-2.69211e-09
1.92474e-09
-3.5172e-09
2.24014e-09
-4.44632e-09
2.55076e-09
-5.47749e-09
2.85447e-09
-6.60809e-09
3.14955e-09
-7.83506e-09
3.43466e-09
-9.15492e-09
3.70876e-09
-1.05639e-08
3.97105e-09
-1.20579e-08
4.22091e-09
-1.36328e-08
4.45791e-09
-1.52843e-08
4.68173e-09
-1.70078e-08
4.89218e-09
-1.87989e-08
5.08916e-09
-2.06531e-08
5.27264e-09
-2.25658e-08
5.44265e-09
-2.45325e-08
5.59928e-09
-2.65487e-08
5.74265e-09
-2.86099e-08
5.87293e-09
-3.07117e-08
5.99028e-09
-3.28497e-08
6.09493e-09
-3.50197e-08
6.18709e-09
-3.72173e-08
6.26699e-09
-3.94385e-08
6.33486e-09
-4.16791e-08
6.39096e-09
-4.39352e-08
6.43551e-09
-4.62028e-08
6.46878e-09
-4.8478e-08
6.49099e-09
-5.07571e-08
6.5024e-09
-5.30364e-08
6.50323e-09
-5.53123e-08
6.49371e-09
-5.75813e-08
6.47407e-09
-5.98397e-08
6.44452e-09
-6.20843e-08
6.40527e-09
-6.43118e-08
6.35653e-09
-6.65187e-08
6.29849e-09
-6.87021e-08
6.23135e-09
-7.08586e-08
6.15529e-09
-7.29853e-08
6.07048e-09
-7.5079e-08
5.97711e-09
-7.7137e-08
5.87534e-09
-7.91562e-08
5.76534e-09
-8.11339e-08
5.64727e-09
-8.30672e-08
5.52129e-09
-8.49534e-08
5.38754e-09
-8.67899e-08
5.2462e-09
-8.8574e-08
5.0974e-09
-9.03032e-08
4.9413e-09
-9.19749e-08
4.77807e-09
-9.35868e-08
4.60785e-09
-9.51364e-08
4.43082e-09
-9.66214e-08
4.24713e-09
-9.80395e-08
4.05696e-09
-9.93886e-08
3.86048e-09
-1.00667e-07
3.65789e-09
-1.01871e-07
3.44936e-09
-1.03001e-07
3.23509e-09
-1.04053e-07
3.01531e-09
-1.05026e-07
2.79021e-09
-1.05918e-07
2.56004e-09
-1.06728e-07
2.32503e-09
-1.07454e-07
2.08544e-09
-1.08095e-07
1.84152e-09
-1.08649e-07
1.59356e-09
-1.09114e-07
1.34183e-09
-1.0949e-07
1.08666e-09
-1.09776e-07
8.28341e-10
-1.0997e-07
5.67216e-10
-1.10072e-07
3.03628e-10
-1.10081e-07
3.79329e-11
-1.09996e-07
-2.29498e-10
-1.09818e-07
-4.98277e-10
-1.09545e-07
-7.68002e-10
-1.09178e-07
-1.03826e-09
-1.08717e-07
-1.30863e-09
-1.08161e-07
-1.57867e-09
-1.07511e-07
-1.84792e-09
-1.06768e-07
-2.11593e-09
-1.05932e-07
-2.38223e-09
-1.05004e-07
-2.64631e-09
-1.03985e-07
-2.9077e-09
-1.02875e-07
-3.16588e-09
-1.01678e-07
-3.42036e-09
-1.00393e-07
-3.6706e-09
-9.90221e-08
-3.9161e-09
-9.7568e-08
-4.15633e-09
-9.60323e-08
-4.39075e-09
-9.44173e-08
-4.61885e-09
-9.27253e-08
-4.84008e-09
-9.09589e-08
-5.05393e-09
-8.91209e-08
-5.25987e-09
-8.72143e-08
-5.45737e-09
-8.5242e-08
-5.64593e-09
-8.32075e-08
-5.82505e-09
-8.11142e-08
-5.99421e-09
-7.89657e-08
-6.15294e-09
-7.67658e-08
-6.30078e-09
-7.45185e-08
-6.43726e-09
-7.22277e-08
-6.56193e-09
-6.98979e-08
-6.67438e-09
-6.75333e-08
-6.77421e-09
-6.51384e-08
-6.86103e-09
-6.27179e-08
-6.93448e-09
-6.02765e-08
-6.99422e-09
-5.78191e-08
-7.03996e-09
-5.53505e-08
-7.0714e-09
-5.28759e-08
-7.0883e-09
-5.04003e-08
-7.09043e-09
-4.79288e-08
-7.07759e-09
-4.54667e-08
-7.04965e-09
-4.30193e-08
-7.00646e-09
-4.05917e-08
-6.94795e-09
-3.81893e-08
-6.87407e-09
-3.58174e-08
-6.7848e-09
-3.34812e-08
-6.68018e-09
-3.1186e-08
-6.56029e-09
-2.89369e-08
-6.42522e-09
-2.67392e-08
-6.27516e-09
-2.45978e-08
-6.1103e-09
-2.25177e-08
-5.9309e-09
-2.05038e-08
-5.73728e-09
-1.85607e-08
-5.5298e-09
-1.6693e-08
-5.30888e-09
-1.49052e-08
-5.07501e-09
-1.32012e-08
-4.82875e-09
-1.15852e-08
-4.57073e-09
-1.00608e-08
-4.30167e-09
-8.63127e-09
-4.02236e-09
-7.29978e-09
-3.73373e-09
-6.06901e-09
-3.4368e-09
-4.9412e-09
-3.13274e-09
-3.91816e-09
-2.82288e-09
-3.00115e-09
-2.50874e-09
-2.19083e-09
-2.19205e-09
-1.48717e-09
-1.87481e-09
-8.89338e-10
-1.55936e-09
-3.95621e-10
-1.24839e-09
-3.25808e-12
-9.45076e-10
2.91692e-10
-6.53148e-10
4.9453e-10
-3.77017e-10
6.12105e-10
-1.21906e-10
6.53028e-10
1.05993e-10
6.27888e-10
2.99365e-10
5.49477e-10
4.49635e-10
4.33024e-10
5.46896e-10
2.96481e-10
5.79973e-10
1.60931e-10
5.36753e-10
5.14542e-11
4.04871e-10
1.72371e-10
3.32606e-11
-1.98034e-10
8.86791e-11
-4.01857e-10
1.3274e-10
-4.52123e-10
1.39183e-10
-3.7863e-10
8.676e-11
-2.05619e-10
-4.17427e-11
4.60057e-11
-2.60114e-10
3.5843e-10
-5.7918e-10
7.16713e-10
-1.00718e-09
1.10843e-09
-1.5501e-09
1.52332e-09
-2.21196e-09
1.95295e-09
-2.9951e-09
2.39042e-09
-3.90046e-09
2.8301e-09
-4.92775e-09
3.26742e-09
-6.07566e-09
3.69867e-09
-7.34205e-09
4.12085e-09
-8.72407e-09
4.53157e-09
-1.02183e-08
4.9289e-09
-1.18209e-08
5.31133e-09
-1.35275e-08
5.67768e-09
-1.53336e-08
6.02704e-09
-1.72345e-08
6.35874e-09
-1.9225e-08
6.6723e-09
-2.13002e-08
6.96738e-09
-2.34549e-08
7.24379e-09
-2.56837e-08
7.50145e-09
-2.79814e-08
7.74036e-09
-3.03427e-08
7.96061e-09
-3.27624e-08
8.16233e-09
-3.52352e-08
8.34571e-09
-3.77559e-08
8.51098e-09
-4.03193e-08
8.65841e-09
-4.29205e-08
8.78828e-09
-4.55544e-08
8.90088e-09
-4.82161e-08
8.99655e-09
-5.09007e-08
9.07559e-09
-5.36036e-08
9.13834e-09
-5.63199e-08
9.18513e-09
-5.90452e-08
9.21628e-09
-6.17749e-08
9.23213e-09
-6.45047e-08
9.233e-09
-6.72302e-08
9.21919e-09
-6.99472e-08
9.19102e-09
-7.26514e-08
9.1488e-09
-7.5339e-08
9.0928e-09
-7.80058e-08
9.02333e-09
-8.06479e-08
8.94064e-09
-8.32616e-08
8.84502e-09
-8.5843e-08
8.73672e-09
-8.83885e-08
8.61599e-09
-9.08945e-08
8.48308e-09
-9.33574e-08
8.33823e-09
-9.57737e-08
8.18168e-09
-9.81401e-08
8.01365e-09
-1.00453e-07
7.83437e-09
-1.0271e-07
7.64406e-09
-1.04906e-07
7.44295e-09
-1.0704e-07
7.23126e-09
-1.09108e-07
7.0092e-09
-1.11107e-07
6.77702e-09
-1.13034e-07
6.53492e-09
-1.14887e-07
6.28316e-09
-1.16661e-07
6.02196e-09
-1.18356e-07
5.75157e-09
-1.19968e-07
5.47226e-09
-1.21494e-07
5.18428e-09
-1.22933e-07
4.88791e-09
-1.24281e-07
4.58344e-09
-1.25537e-07
4.27116e-09
-1.26698e-07
3.95139e-09
-1.27763e-07
3.62446e-09
-1.28728e-07
3.29071e-09
-1.29593e-07
2.95049e-09
-1.30356e-07
2.6042e-09
-1.31015e-07
2.25222e-09
-1.31568e-07
1.89496e-09
-1.32014e-07
1.53286e-09
-1.32352e-07
1.16637e-09
-1.32581e-07
7.95959e-10
-1.32699e-07
4.2211e-10
-1.32707e-07
4.53372e-11
-1.32602e-07
-3.33831e-10
-1.32386e-07
-7.14849e-10
-1.32057e-07
-1.09715e-09
-1.31615e-07
-1.48014e-09
-1.3106e-07
-1.86323e-09
-1.30393e-07
-2.24578e-09
-1.29614e-07
-2.62717e-09
-1.28723e-07
-3.00674e-09
-1.27721e-07
-3.38381e-09
-1.2661e-07
-3.75771e-09
-1.2539e-07
-4.12773e-09
-1.24063e-07
-4.49318e-09
-1.2263e-07
-4.85332e-09
-1.21093e-07
-5.20744e-09
-1.19454e-07
-5.5548e-09
-1.17716e-07
-5.89466e-09
-1.1588e-07
-6.22629e-09
-1.1395e-07
-6.54892e-09
-1.11928e-07
-6.86183e-09
-1.09818e-07
-7.16427e-09
-1.07622e-07
-7.4555e-09
-1.05345e-07
-7.7348e-09
-1.0299e-07
-8.00144e-09
-1.0056e-07
-8.25472e-09
-9.80601e-08
-8.49394e-09
-9.54947e-08
-8.71842e-09
-9.28679e-08
-8.9275e-09
-9.01847e-08
-9.12054e-09
-8.74497e-08
-9.29692e-09
-8.4668e-08
-9.45606e-09
-8.18448e-08
-9.59738e-09
-7.89855e-08
-9.72036e-09
-7.60955e-08
-9.82448e-09
-7.31804e-08
-9.9093e-09
-7.0246e-08
-9.97436e-09
-6.72981e-08
-1.00193e-08
-6.43427e-08
-1.00437e-08
-6.13857e-08
-1.00474e-08
-5.84333e-08
-1.003e-08
-5.54916e-08
-9.99131e-09
-5.25669e-08
-9.9312e-09
-4.96653e-08
-9.84955e-09
-4.67931e-08
-9.74628e-09
-4.39565e-08
-9.6214e-09
-4.11617e-08
-9.47496e-09
-3.8415e-08
-9.30706e-09
-3.57223e-08
-9.1179e-09
-3.30897e-08
-8.90769e-09
-3.05233e-08
-8.67676e-09
-2.80287e-08
-8.42548e-09
-2.56117e-08
-8.1543e-09
-2.32777e-08
-7.86376e-09
-2.10321e-08
-7.55446e-09
-1.888e-08
-7.22712e-09
-1.68262e-08
-6.88254e-09
-1.48753e-08
-6.52164e-09
-1.30315e-08
-6.14544e-09
-1.12988e-08
-5.7551e-09
-9.68059e-09
-5.35193e-09
-8.17998e-09
-4.93741e-09
-6.79953e-09
-4.5132e-09
-5.54122e-09
-4.08119e-09
-4.40644e-09
-3.64352e-09
-3.39585e-09
-3.20264e-09
-2.50932e-09
-2.76134e-09
-1.74583e-09
-2.32285e-09
-1.10333e-09
-1.89089e-09
-5.78643e-10
-1.46977e-09
-1.67282e-10
-1.06451e-09
1.36677e-10
-6.80976e-10
3.40793e-10
-3.26024e-10
4.54444e-10
-7.66041e-12
4.89024e-10
2.64785e-10
4.58151e-10
4.80509e-10
3.77925e-10
6.27122e-10
2.67277e-10
6.90622e-10
1.48503e-10
6.55527e-10
4.82524e-11
5.05122e-10
2.20624e-10
2.20529e-11
-2.20088e-10
4.83742e-11
-4.28179e-10
4.73231e-11
-4.51072e-10
-6.56808e-12
-3.24736e-10
-1.34144e-10
-7.80423e-11
-3.5241e-10
2.64272e-10
-6.75091e-10
6.81109e-10
-1.11304e-09
1.15466e-09
-1.6746e-09
1.66999e-09
-2.36587e-09
2.2146e-09
-3.19102e-09
2.7781e-09
-4.15248e-09
3.35189e-09
-5.25124e-09
3.92886e-09
-6.487e-09
4.50318e-09
-7.85836e-09
5.07004e-09
-9.36305e-09
5.62554e-09
-1.0998e-08
6.1665e-09
-1.27594e-08
6.69036e-09
-1.46432e-08
7.19508e-09
-1.66445e-08
7.67903e-09
-1.87585e-08
8.14097e-09
-2.09796e-08
8.57994e-09
-2.33026e-08
8.99523e-09
-2.57215e-08
9.38635e-09
-2.82307e-08
9.75299e-09
-3.08243e-08
1.0095e-08
-3.34962e-08
1.04123e-08
-3.62405e-08
1.0705e-08
-3.90513e-08
1.09731e-08
-4.19227e-08
1.1217e-08
-4.48486e-08
1.14369e-08
-4.78234e-08
1.16332e-08
-5.08411e-08
1.1806e-08
-5.38961e-08
1.19559e-08
-5.69828e-08
1.20832e-08
-6.00956e-08
1.21884e-08
-6.32291e-08
1.22718e-08
-6.63778e-08
1.23339e-08
-6.95365e-08
1.2375e-08
-7.27001e-08
1.23957e-08
-7.58634e-08
1.23963e-08
-7.90216e-08
1.23773e-08
-8.21695e-08
1.2339e-08
-8.53026e-08
1.22819e-08
-8.84161e-08
1.22063e-08
-9.15053e-08
1.21125e-08
-9.45657e-08
1.20011e-08
-9.7593e-08
1.18723e-08
-1.00583e-07
1.17264e-08
-1.0353e-07
1.15638e-08
-1.06432e-07
1.13849e-08
-1.09284e-07
1.119e-08
-1.12082e-07
1.09793e-08
-1.14821e-07
1.07531e-08
-1.17499e-07
1.05119e-08
-1.2011e-07
1.02559e-08
-1.22653e-07
9.9853e-09
-1.25122e-07
9.70054e-09
-1.27515e-07
9.40187e-09
-1.29827e-07
9.0896e-09
-1.32056e-07
8.76404e-09
-1.34199e-07
8.42552e-09
-1.36251e-07
8.07435e-09
-1.38211e-07
7.71088e-09
-1.40074e-07
7.33545e-09
-1.41838e-07
6.94842e-09
-1.435e-07
6.55017e-09
-1.45058e-07
6.14108e-09
-1.46508e-07
5.72157e-09
-1.47849e-07
5.29206e-09
-1.49077e-07
4.85299e-09
-1.50191e-07
4.40483e-09
-1.51189e-07
3.94807e-09
-1.52068e-07
3.48321e-09
-1.52827e-07
3.01079e-09
-1.53463e-07
2.53136e-09
-1.53976e-07
2.04552e-09
-1.54363e-07
1.55385e-09
-1.54624e-07
1.057e-09
-1.54758e-07
5.55627e-10
-1.54763e-07
5.04076e-11
-1.54639e-07
-4.57946e-10
-1.54385e-07
-9.68696e-10
-1.54001e-07
-1.48109e-09
-1.53487e-07
-1.99433e-09
-1.52842e-07
-2.50763e-09
-1.52068e-07
-3.02013e-09
-1.51164e-07
-3.531e-09
-1.50131e-07
-4.03936e-09
-1.48971e-07
-4.54431e-09
-1.47684e-07
-5.04495e-09
-1.46271e-07
-5.54033e-09
-1.44735e-07
-6.02953e-09
-1.43077e-07
-6.51157e-09
-1.41298e-07
-6.9855e-09
-1.39403e-07
-7.45034e-09
-1.37393e-07
-7.9051e-09
-1.3527e-07
-8.3488e-09
-1.33038e-07
-8.78044e-09
-1.30701e-07
-9.19904e-09
-1.28262e-07
-9.60362e-09
-1.25724e-07
-9.99319e-09
-1.23092e-07
-1.03668e-08
-1.2037e-07
-1.07235e-08
-1.17563e-07
-1.10623e-08
-1.14674e-07
-1.13823e-08
-1.1171e-07
-1.16826e-08
-1.08675e-07
-1.19623e-08
-1.05575e-07
-1.22207e-08
-1.02415e-07
-1.24568e-08
-9.92017e-08
-1.26698e-08
-9.59399e-08
-1.28592e-08
-9.26362e-08
-1.3024e-08
-8.9297e-08
-1.31637e-08
-8.59286e-08
-1.32777e-08
-8.25376e-08
-1.33654e-08
-7.91307e-08
-1.34262e-08
-7.57147e-08
-1.34597e-08
-7.22965e-08
-1.34656e-08
-6.8883e-08
-1.34434e-08
-6.54813e-08
-1.3393e-08
-6.20986e-08
-1.3314e-08
-5.87418e-08
-1.32063e-08
-5.54181e-08
-1.307e-08
-5.21346e-08
-1.29049e-08
-4.88984e-08
-1.27111e-08
-4.57165e-08
-1.24889e-08
-4.2596e-08
-1.22385e-08
-3.95435e-08
-1.19601e-08
-3.6566e-08
-1.16543e-08
-3.36699e-08
-1.13215e-08
-3.08618e-08
-1.09624e-08
-2.81479e-08
-1.05777e-08
-2.55341e-08
-1.01682e-08
-2.30263e-08
-9.73496e-09
-2.06298e-08
-9.27898e-09
-1.83499e-08
-8.80155e-09
-1.61913e-08
-8.30405e-09
-1.41584e-08
-7.78806e-09
-1.2255e-08
-7.25534e-09
-1.04845e-08
-6.70788e-09
-8.84978e-09
-6.14791e-09
-7.35301e-09
-5.57795e-09
-5.99567e-09
-5.00087e-09
-4.77843e-09
-4.41988e-09
-3.7011e-09
-3.83867e-09
-2.76252e-09
-3.26144e-09
-1.96041e-09
-2.693e-09
-1.29128e-09
-2.1389e-09
-7.50283e-10
-1.60551e-09
-3.3106e-10
-1.1002e-09
-2.55942e-11
-6.31489e-10
1.75966e-10
-2.09221e-10
2.85489e-10
1.55262e-10
3.17065e-10
4.48934e-10
2.87261e-10
6.56926e-10
2.15499e-10
7.62384e-10
1.24599e-10
7.46428e-10
4.16767e-11
5.88045e-10
2.62301e-10
8.84444e-12
-2.28932e-10
5.73652e-13
-4.1991e-10
-5.36391e-11
-3.96862e-10
-1.77638e-10
-2.00737e-10
-3.91214e-10
1.35536e-10
-7.10671e-10
5.8373e-10
-1.14925e-09
1.11969e-09
-1.71751e-09
1.72292e-09
-2.42357e-09
2.37605e-09
-3.27343e-09
3.06446e-09
-4.27117e-09
3.77584e-09
-5.41918e-09
4.4999e-09
-6.71837e-09
5.22804e-09
-8.16832e-09
5.95314e-09
-9.76755e-09
6.66926e-09
-1.15136e-08
7.37155e-09
-1.34031e-08
8.056e-09
-1.54321e-08
8.71937e-09
-1.7596e-08
9.35902e-09
-1.98899e-08
9.97286e-09
-2.23081e-08
1.05592e-08
-2.4845e-08
1.11169e-08
-2.74946e-08
1.16448e-08
-3.02506e-08
1.21423e-08
-3.31066e-08
1.2609e-08
-3.60562e-08
1.30446e-08
-3.90928e-08
1.34489e-08
-4.22099e-08
1.3822e-08
-4.54009e-08
1.41641e-08
-4.86591e-08
1.44753e-08
-5.19781e-08
1.47559e-08
-5.53513e-08
1.50064e-08
-5.87723e-08
1.5227e-08
-6.22347e-08
1.54183e-08
-6.57322e-08
1.55808e-08
-6.92587e-08
1.57149e-08
-7.2808e-08
1.58211e-08
-7.63741e-08
1.58999e-08
-7.99511e-08
1.5952e-08
-8.35331e-08
1.59777e-08
-8.71144e-08
1.59777e-08
-9.06895e-08
1.59524e-08
-9.42529e-08
1.59023e-08
-9.7799e-08
1.5828e-08
-1.01323e-07
1.57299e-08
-1.04819e-07
1.56084e-08
-1.08282e-07
1.54642e-08
-1.11707e-07
1.52975e-08
-1.15089e-07
1.51089e-08
-1.18424e-07
1.48987e-08
-1.21707e-07