/*--------------------------------*- C++ -*----------------------------------*\
  =========                 |
  \\      /  F ield         | OpenFOAM: The Open Source CFD Toolbox
   \\    /   O peration     | Website:  https://openfoam.org
    \\  /    A nd           | Version:  7
     \\/     M anipulation  |
\*---------------------------------------------------------------------------*/
FoamFile
{
    version     2.0;
    format      ascii;
    class       volVectorField;
    location    "0.3125";
    object      U;
}
// * * * * * * * * * * * * * * * * * * * * * * * * * * * * * * * * * * * * * //

dimensions      [0 1 -1 0 0 0 0];

internalField   nonuniform List<vector> 
25600
(
(2.80369e-07 -2.7444e-07 0)
(2.96988e-06 -1.78541e-06 0)
(8.91066e-06 -2.70323e-06 0)
(1.61429e-05 -2.96602e-06 0)
(2.32227e-05 -2.79711e-06 0)
(2.92615e-05 -2.35935e-06 0)
(3.36695e-05 -1.75725e-06 0)
(3.60543e-05 -1.05837e-06 0)
(3.61671e-05 -3.0609e-07 0)
(3.38589e-05 4.7174e-07 0)
(2.90516e-05 1.2563e-06 0)
(2.17172e-05 2.03468e-06 0)
(1.18648e-05 2.7984e-06 0)
(-4.70173e-07 3.54183e-06 0)
(-1.52319e-05 4.26105e-06 0)
(-3.23489e-05 4.95287e-06 0)
(-5.17388e-05 5.61488e-06 0)
(-7.33117e-05 6.24585e-06 0)
(-9.69714e-05 6.845e-06 0)
(-0.000122618 7.41185e-06 0)
(-0.000150148 7.9462e-06 0)
(-0.000179459 8.44818e-06 0)
(-0.000210444 8.91814e-06 0)
(-0.000243 9.35655e-06 0)
(-0.000277022 9.76404e-06 0)
(-0.000312406 1.01409e-05 0)
(-0.00034905 1.04875e-05 0)
(-0.000386853 1.08044e-05 0)
(-0.000425718 1.10926e-05 0)
(-0.000465546 1.13529e-05 0)
(-0.000506244 1.15862e-05 0)
(-0.00054772 1.17934e-05 0)
(-0.000589883 1.19752e-05 0)
(-0.000632645 1.21322e-05 0)
(-0.00067592 1.2265e-05 0)
(-0.000719625 1.23742e-05 0)
(-0.000763678 1.24606e-05 0)
(-0.000808 1.25246e-05 0)
(-0.000852513 1.25671e-05 0)
(-0.000897141 1.25886e-05 0)
(-0.000941811 1.25899e-05 0)
(-0.000986452 1.25712e-05 0)
(-0.00103099 1.25331e-05 0)
(-0.00107537 1.24761e-05 0)
(-0.0011195 1.24006e-05 0)
(-0.00116334 1.23069e-05 0)
(-0.00120682 1.21958e-05 0)
(-0.00124986 1.20674e-05 0)
(-0.00129242 1.19219e-05 0)
(-0.00133443 1.17596e-05 0)
(-0.00137584 1.15809e-05 0)
(-0.00141658 1.13865e-05 0)
(-0.0014566 1.11771e-05 0)
(-0.00149585 1.09529e-05 0)
(-0.00153427 1.07139e-05 0)
(-0.00157181 1.04602e-05 0)
(-0.00160841 1.01919e-05 0)
(-0.00164403 9.90919e-06 0)
(-0.00167861 9.6125e-06 0)
(-0.00171211 9.30216e-06 0)
(-0.00174448 8.97831e-06 0)
(-0.00177567 8.64144e-06 0)
(-0.00180563 8.29157e-06 0)
(-0.00183431 7.92877e-06 0)
(-0.00186169 7.55377e-06 0)
(-0.0018877 7.16686e-06 0)
(-0.00191231 6.76818e-06 0)
(-0.00193548 6.35814e-06 0)
(-0.00195717 5.93682e-06 0)
(-0.00197734 5.50464e-06 0)
(-0.00199595 5.06239e-06 0)
(-0.00201297 4.61033e-06 0)
(-0.00202837 4.14868e-06 0)
(-0.0020421 3.67805e-06 0)
(-0.00205416 3.19887e-06 0)
(-0.00206449 2.71171e-06 0)
(-0.00207309 2.21731e-06 0)
(-0.00207992 1.71626e-06 0)
(-0.00208496 1.20922e-06 0)
(-0.00208819 6.9679e-07 0)
(-0.0020896 1.79442e-07 0)
(-0.00208917 -3.42184e-07 0)
(-0.00208689 -8.67383e-07 0)
(-0.00208275 -1.39534e-06 0)
(-0.00207673 -1.92491e-06 0)
(-0.00206885 -2.45516e-06 0)
(-0.00205909 -2.98561e-06 0)
(-0.00204746 -3.51544e-06 0)
(-0.00203397 -4.04352e-06 0)
(-0.00201862 -4.56908e-06 0)
(-0.00200142 -5.09123e-06 0)
(-0.0019824 -5.60859e-06 0)
(-0.00196156 -6.1201e-06 0)
(-0.00193894 -6.62509e-06 0)
(-0.00191455 -7.12245e-06 0)
(-0.00188843 -7.61088e-06 0)
(-0.00186062 -8.08943e-06 0)
(-0.00183114 -8.55705e-06 0)
(-0.00180004 -9.01233e-06 0)
(-0.00176738 -9.45412e-06 0)
(-0.00173318 -9.88163e-06 0)
(-0.00169752 -1.02938e-05 0)
(-0.00166044 -1.06893e-05 0)
(-0.001622 -1.10673e-05 0)
(-0.00158227 -1.14267e-05 0)
(-0.00154132 -1.17664e-05 0)
(-0.00149922 -1.20851e-05 0)
(-0.00145604 -1.23819e-05 0)
(-0.00141186 -1.2656e-05 0)
(-0.00136677 -1.29064e-05 0)
(-0.00132084 -1.31324e-05 0)
(-0.00127416 -1.33331e-05 0)
(-0.00122683 -1.35076e-05 0)
(-0.00117894 -1.36549e-05 0)
(-0.00113058 -1.37739e-05 0)
(-0.00108185 -1.38643e-05 0)
(-0.00103286 -1.39254e-05 0)
(-0.000983705 -1.39567e-05 0)
(-0.000934489 -1.3958e-05 0)
(-0.000885318 -1.39287e-05 0)
(-0.000836301 -1.38686e-05 0)
(-0.000787547 -1.37767e-05 0)
(-0.000739164 -1.36528e-05 0)
(-0.000691264 -1.34966e-05 0)
(-0.000643957 -1.33084e-05 0)
(-0.000597354 -1.3088e-05 0)
(-0.000551567 -1.28356e-05 0)
(-0.000506704 -1.25515e-05 0)
(-0.000462877 -1.22356e-05 0)
(-0.000420194 -1.18881e-05 0)
(-0.000378763 -1.1509e-05 0)
(-0.000338688 -1.1099e-05 0)
(-0.000300076 -1.06589e-05 0)
(-0.000263026 -1.01892e-05 0)
(-0.000227638 -9.69074e-06 0)
(-0.000194008 -9.16411e-06 0)
(-0.000162229 -8.61028e-06 0)
(-0.000132388 -8.03025e-06 0)
(-0.000104571 -7.42514e-06 0)
(-7.88541e-05 -6.79637e-06 0)
(-5.53117e-05 -6.1457e-06 0)
(-3.40099e-05 -5.4751e-06 0)
(-1.50075e-05 -4.78655e-06 0)
(1.64593e-06 -4.08222e-06 0)
(1.59107e-05 -3.36485e-06 0)
(2.7759e-05 -2.63802e-06 0)
(3.71775e-05 -1.90605e-06 0)
(4.417e-05 -1.1739e-06 0)
(4.87614e-05 -4.47802e-07 0)
(5.10025e-05 2.64077e-07 0)
(5.09759e-05 9.50724e-07 0)
(4.88065e-05 1.59712e-06 0)
(4.46735e-05 2.18264e-06 0)
(3.8828e-05 2.67779e-06 0)
(3.16196e-05 3.03875e-06 0)
(2.35331e-05 3.20071e-06 0)
(1.52305e-05 3.07065e-06 0)
(7.61529e-06 2.51621e-06 0)
(2.00182e-06 1.39404e-06 0)
(-5.35885e-08 -5.20835e-08 0)
(1.79219e-06 -2.97296e-06 0)
(9.06279e-06 -9.05444e-06 0)
(2.17597e-05 -1.24757e-05 0)
(3.62614e-05 -1.32504e-05 0)
(4.98339e-05 -1.20545e-05 0)
(6.06069e-05 -9.47149e-06 0)
(6.71749e-05 -5.93786e-06 0)
(6.85127e-05 -1.77344e-06 0)
(6.39117e-05 2.79243e-06 0)
(5.29067e-05 7.59549e-06 0)
(3.52163e-05 1.25165e-05 0)
(1.07001e-05 1.74674e-05 0)
(-2.06755e-05 2.23834e-05 0)
(-5.8862e-05 2.72161e-05 0)
(-0.000103747 3.19302e-05 0)
(-0.000155172 3.64987e-05 0)
(-0.000212939 4.09015e-05 0)
(-0.000276822 4.5124e-05 0)
(-0.000346576 4.91556e-05 0)
(-0.000421938 5.29892e-05 0)
(-0.000502635 5.66204e-05 0)
(-0.000588388 6.00461e-05 0)
(-0.00067891 6.32655e-05 0)
(-0.000773914 6.62787e-05 0)
(-0.000873111 6.90869e-05 0)
(-0.000976215 7.16921e-05 0)
(-0.00108294 7.4097e-05 0)
(-0.001193 7.63046e-05 0)
(-0.00130612 7.83187e-05 0)
(-0.00142203 8.01431e-05 0)
(-0.00154045 8.17822e-05 0)
(-0.00166113 8.324e-05 0)
(-0.0017838 8.45209e-05 0)
(-0.00190821 8.56291e-05 0)
(-0.00203411 8.65689e-05 0)
(-0.00216127 8.73443e-05 0)
(-0.00228944 8.79594e-05 0)
(-0.0024184 8.84183e-05 0)
(-0.00254792 8.87249e-05 0)
(-0.00267778 8.88832e-05 0)
(-0.00280777 8.88966e-05 0)
(-0.00293767 8.87687e-05 0)
(-0.00306729 8.8503e-05 0)
(-0.00319642 8.81025e-05 0)
(-0.00332487 8.75704e-05 0)
(-0.00345244 8.69094e-05 0)
(-0.00357895 8.61224e-05 0)
(-0.00370422 8.52123e-05 0)
(-0.00382807 8.41815e-05 0)
(-0.00395032 8.30325e-05 0)
(-0.0040708 8.17677e-05 0)
(-0.00418934 8.03897e-05 0)
(-0.00430578 7.8901e-05 0)
(-0.00441995 7.7304e-05 0)
(-0.00453171 7.56006e-05 0)
(-0.00464088 7.37924e-05 0)
(-0.00474732 7.18812e-05 0)
(-0.00485088 6.98687e-05 0)
(-0.00495141 6.77566e-05 0)
(-0.00504877 6.55473e-05 0)
(-0.00514282 6.32425e-05 0)
(-0.00523341 6.08445e-05 0)
(-0.00532042 5.83554e-05 0)
(-0.00540371 5.5777e-05 0)
(-0.00548315 5.31117e-05 0)
(-0.00555863 5.0362e-05 0)
(-0.00563001 4.75301e-05 0)
(-0.00569718 4.46185e-05 0)
(-0.00576002 4.16296e-05 0)
(-0.00581843 3.85662e-05 0)
(-0.0058723 3.54314e-05 0)
(-0.00592154 3.22285e-05 0)
(-0.00596603 2.89605e-05 0)
(-0.00600569 2.56313e-05 0)
(-0.00604045 2.2244e-05 0)
(-0.0060702 1.88027e-05 0)
(-0.00609489 1.53115e-05 0)
(-0.00611444 1.17747e-05 0)
(-0.00612879 8.19648e-06 0)
(-0.00613789 4.58192e-06 0)
(-0.00614168 9.35631e-07 0)
(-0.00614013 -2.73772e-06 0)
(-0.0061332 -6.4328e-06 0)
(-0.00612087 -1.0144e-05 0)
(-0.00610312 -1.38655e-05 0)
(-0.00607993 -1.75914e-05 0)
(-0.00605132 -2.13155e-05 0)
(-0.00601728 -2.50319e-05 0)
(-0.00597783 -2.87341e-05 0)
(-0.00593301 -3.24156e-05 0)
(-0.00588285 -3.60697e-05 0)
(-0.0058274 -3.96892e-05 0)
(-0.00576671 -4.32668e-05 0)
(-0.00570085 -4.67955e-05 0)
(-0.0056299 -5.0268e-05 0)
(-0.00555394 -5.36767e-05 0)
(-0.00547309 -5.70144e-05 0)
(-0.00538744 -6.02736e-05 0)
(-0.00529712 -6.34465e-05 0)
(-0.00520225 -6.65255e-05 0)
(-0.00510299 -6.95031e-05 0)
(-0.00499949 -7.23719e-05 0)
(-0.0048919 -7.51243e-05 0)
(-0.00478041 -7.77528e-05 0)
(-0.0046652 -8.02505e-05 0)
(-0.00454647 -8.26104e-05 0)
(-0.00442441 -8.48251e-05 0)
(-0.00429926 -8.68876e-05 0)
(-0.00417122 -8.87914e-05 0)
(-0.00404055 -9.05303e-05 0)
(-0.00390747 -9.20981e-05 0)
(-0.00377225 -9.3489e-05 0)
(-0.00363515 -9.46975e-05 0)
(-0.00349643 -9.57181e-05 0)
(-0.00335636 -9.65458e-05 0)
(-0.00321524 -9.71757e-05 0)
(-0.00307334 -9.76037e-05 0)
(-0.00293097 -9.78262e-05 0)
(-0.00278842 -9.78399e-05 0)
(-0.002646 -9.76418e-05 0)
(-0.00250402 -9.72292e-05 0)
(-0.00236278 -9.65998e-05 0)
(-0.0022226 -9.57521e-05 0)
(-0.00208379 -9.46849e-05 0)
(-0.00194667 -9.33976e-05 0)
(-0.00181156 -9.18905e-05 0)
(-0.00167878 -9.01641e-05 0)
(-0.00154862 -8.82197e-05 0)
(-0.00142142 -8.60587e-05 0)
(-0.00129747 -8.36834e-05 0)
(-0.00117709 -8.10967e-05 0)
(-0.00106056 -7.83023e-05 0)
(-0.000948194 -7.53045e-05 0)
(-0.000840263 -7.21081e-05 0)
(-0.000737049 -6.87192e-05 0)
(-0.00063882 -6.51444e-05 0)
(-0.000545833 -6.13914e-05 0)
(-0.000458332 -5.74686e-05 0)
(-0.000376547 -5.33859e-05 0)
(-0.000300693 -4.91543e-05 0)
(-0.000230964 -4.47867e-05 0)
(-0.000167536 -4.02974e-05 0)
(-0.000110559 -3.5703e-05 0)
(-6.0156e-05 -3.10228e-05 0)
(-1.64193e-05 -2.62793e-05 0)
(2.05965e-05 -2.14993e-05 0)
(5.08808e-05 -1.67148e-05 0)
(7.44749e-05 -1.19642e-05 0)
(9.14825e-05 -7.29435e-06 0)
(0.000102082 -2.7638e-06 0)
(0.000106546 1.55373e-06 0)
(0.00010526 5.56347e-06 0)
(9.87533e-05 9.14209e-06 0)
(8.77326e-05 1.21272e-05 0)
(7.31303e-05 1.43028e-05 0)
(5.61583e-05 1.53838e-05 0)
(3.8338e-05 1.50082e-05 0)
(2.15263e-05 1.27425e-05 0)
(8.20285e-06 8.20965e-06 0)
(1.38871e-06 2.00052e-06 0)
(2.70483e-06 -8.9112e-06 0)
(1.24875e-05 -2.17583e-05 0)
(2.82952e-05 -2.82692e-05 0)
(4.52997e-05 -2.90613e-05 0)
(6.00623e-05 -2.53419e-05 0)
(7.01808e-05 -1.82414e-05 0)
(7.37499e-05 -8.69067e-06 0)
(6.93096e-05 2.57877e-06 0)
(5.58021e-05 1.50064e-05 0)
(3.24959e-05 2.81665e-05 0)
(-1.07988e-06 4.17365e-05 0)
(-4.51885e-05 5.54704e-05 0)
(-9.99289e-05 6.91795e-05 0)
(-0.000165271 8.27208e-05 0)
(-0.000241081 9.59832e-05 0)
(-0.000327146 0.000108883 0)
(-0.00042319 0.000121355 0)
(-0.000528888 0.000133352 0)
(-0.000643875 0.000144838 0)
(-0.000767759 0.000155786 0)
(-0.000900128 0.000166178 0)
(-0.00104055 0.000176003 0)
(-0.00118859 0.000185253 0)
(-0.00134379 0.000193925 0)
(-0.00150572 0.00020202 0)
(-0.00167391 0.000209542 0)
(-0.00184791 0.000216495 0)
(-0.00202729 0.000222887 0)
(-0.0022116 0.000228726 0)
(-0.0024004 0.000234022 0)
(-0.00259327 0.000238785 0)
(-0.00278978 0.000243026 0)
(-0.00298951 0.000246755 0)
(-0.00319206 0.000249985 0)
(-0.00339703 0.000252726 0)
(-0.00360403 0.000254991 0)
(-0.00381269 0.000256789 0)
(-0.00402261 0.000258133 0)
(-0.00423345 0.000259032 0)
(-0.00444484 0.000259499 0)
(-0.00465644 0.000259542 0)
(-0.0048679 0.000259172 0)
(-0.00507889 0.000258398 0)
(-0.00528909 0.00025723 0)
(-0.00549818 0.000255675 0)
(-0.00570583 0.000253744 0)
(-0.00591176 0.000251443 0)
(-0.00611566 0.00024878 0)
(-0.00631723 0.000245764 0)
(-0.0065162 0.000242402 0)
(-0.00671227 0.0002387 0)
(-0.00690518 0.000234665 0)
(-0.00709466 0.000230305 0)
(-0.00728043 0.000225625 0)
(-0.00746225 0.000220631 0)
(-0.00763984 0.00021533 0)
(-0.00781298 0.000209727 0)
(-0.00798141 0.000203828 0)
(-0.00814488 0.000197638 0)
(-0.00830318 0.000191164 0)
(-0.00845606 0.00018441 0)
(-0.00860331 0.000177384 0)
(-0.00874469 0.000170092 0)
(-0.00888001 0.000162541 0)
(-0.00900905 0.000154736 0)
(-0.0091316 0.000146685 0)
(-0.00924748 0.000138395 0)
(-0.00935648 0.000129874 0)
(-0.00945843 0.000121129 0)
(-0.00955315 0.000112168 0)
(-0.00964047 0.000103002 0)
(-0.00972023 9.36377e-05 0)
(-0.00979226 8.40865e-05 0)
(-0.00985643 7.43584e-05 0)
(-0.0099126 6.44643e-05 0)
(-0.00996064 5.4415e-05 0)
(-0.0100004 4.42226e-05 0)
(-0.0100319 3.38997e-05 0)
(-0.0100548 2.3459e-05 0)
(-0.0100692 1.29143e-05 0)
(-0.010075 2.28038e-06 0)
(-0.0100722 -8.42848e-06 0)
(-0.0100605 -1.91973e-05 0)
(-0.0100401 -3.00097e-05 0)
(-0.0100109 -4.08489e-05 0)
(-0.00997292 -5.16981e-05 0)
(-0.00992609 -6.25394e-05 0)
(-0.00987046 -7.33546e-05 0)
(-0.00980607 -8.41252e-05 0)
(-0.00973296 -9.48321e-05 0)
(-0.00965119 -0.000105455 0)
(-0.00956085 -0.000115975 0)
(-0.00946202 -0.000126371 0)
(-0.00935482 -0.000136622 0)
(-0.00923938 -0.000146706 0)
(-0.00911584 -0.000156603 0)
(-0.00898436 -0.000166292 0)
(-0.00884513 -0.00017575 0)
(-0.00869834 -0.000184955 0)
(-0.00854421 -0.000193887 0)
(-0.00838297 -0.000202523 0)
(-0.00821486 -0.000210841 0)
(-0.00804016 -0.000218821 0)
(-0.00785915 -0.000226441 0)
(-0.00767213 -0.00023368 0)
(-0.00747941 -0.000240518 0)
(-0.00728133 -0.000246935 0)
(-0.00707824 -0.00025291 0)
(-0.00687051 -0.000258426 0)
(-0.0066585 -0.000263464 0)
(-0.00644262 -0.000268006 0)
(-0.00622327 -0.000272035 0)
(-0.00600087 -0.000275536 0)
(-0.00577586 -0.000278493 0)
(-0.00554867 -0.000280893 0)
(-0.00531977 -0.000282722 0)
(-0.00508961 -0.000283968 0)
(-0.00485868 -0.00028462 0)
(-0.00462745 -0.00028467 0)
(-0.00439641 -0.000284108 0)
(-0.00416606 -0.000282928 0)
(-0.00393689 -0.000281123 0)
(-0.0037094 -0.00027869 0)
(-0.00348411 -0.000275626 0)
(-0.00326152 -0.00027193 0)
(-0.00304213 -0.000267601 0)
(-0.00282646 -0.000262643 0)
(-0.00261499 -0.000257059 0)
(-0.00240823 -0.000250854 0)
(-0.00220668 -0.000244037 0)
(-0.00201081 -0.000236615 0)
(-0.0018211 -0.0002286 0)
(-0.00163802 -0.000220006 0)
(-0.00146202 -0.000210847 0)
(-0.00129354 -0.000201143 0)
(-0.001133 -0.000190914 0)
(-0.000980806 -0.000180182 0)
(-0.000837335 -0.000168975 0)
(-0.000702948 -0.000157323 0)
(-0.000577973 -0.00014526 0)
(-0.00046271 -0.000132825 0)
(-0.000357423 -0.000120062 0)
(-0.000262334 -0.000107023 0)
(-0.000177621 -9.37654e-05 0)
(-0.000103407 -8.03588e-05 0)
(-3.97569e-05 -6.68831e-05 0)
(1.33394e-05 -5.34336e-05 0)
(5.59748e-05 -4.01238e-05 0)
(8.83418e-05 -2.7091e-05 0)
(0.000110751 -1.45022e-05 0)
(0.000123654 -2.56322e-06 0)
(0.000127672 8.46926e-06 0)
(0.000123631 1.82735e-05 0)
(0.000112602 2.64448e-05 0)
(9.59459e-05 3.24755e-05 0)
(7.53679e-05 3.57402e-05 0)
(5.29144e-05 3.55038e-05 0)
(3.09677e-05 3.09752e-05 0)
(1.27277e-05 2.1528e-05 0)
(2.50729e-06 7.60382e-06 0)
(2.97411e-06 -1.61584e-05 0)
(1.32956e-05 -3.62896e-05 0)
(2.91644e-05 -4.52901e-05 0)
(4.50007e-05 -4.48669e-05 0)
(5.69253e-05 -3.69045e-05 0)
(6.22189e-05 -2.31357e-05 0)
(5.8679e-05 -5.03149e-06 0)
(4.4573e-05 1.62111e-05 0)
(1.86051e-05 3.96391e-05 0)
(-2.01509e-05 6.45036e-05 0)
(-7.23164e-05 9.02179e-05 0)
(-0.000138262 0.000116324 0)
(-0.000218152 0.000142464 0)
(-0.000311985 0.000168358 0)
(-0.000419625 0.000193787 0)
(-0.000540825 0.00021858 0)
(-0.000675255 0.000242606 0)
(-0.000822515 0.000265763 0)
(-0.000982148 0.000287974 0)
(-0.00115366 0.000309182 0)
(-0.00133651 0.000329345 0)
(-0.00153016 0.000348434 0)
(-0.00173403 0.00036643 0)
(-0.00194753 0.000383324 0)
(-0.00217008 0.000399112 0)
(-0.00240107 0.000413798 0)
(-0.00263992 0.000427387 0)
(-0.00288602 0.000439892 0)
(-0.00313879 0.000451325 0)
(-0.00339765 0.000461703 0)
(-0.00366201 0.000471044 0)
(-0.00393132 0.000479367 0)
(-0.004205 0.000486691 0)
(-0.00448251 0.000493038 0)
(-0.00476331 0.000498427 0)
(-0.00504687 0.000502881 0)
(-0.00533267 0.000506419 0)
(-0.0056202 0.000509064 0)
(-0.00590897 0.000510834 0)
(-0.00619849 0.000511751 0)
(-0.00648828 0.000511834 0)
(-0.00677788 0.000511102 0)
(-0.00706682 0.000509573 0)
(-0.00735467 0.000507264 0)
(-0.00764099 0.000504193 0)
(-0.00792534 0.000500376 0)
(-0.00820731 0.000495829 0)
(-0.0084865 0.000490568 0)
(-0.00876248 0.000484606 0)
(-0.00903489 0.000477959 0)
(-0.00930332 0.000470641 0)
(-0.00956739 0.000462664 0)
(-0.00982675 0.000454041 0)
(-0.010081 0.000444786 0)
(-0.0103298 0.00043491 0)
(-0.0105729 0.000424426 0)
(-0.0108098 0.000413344 0)
(-0.0110402 0.000401677 0)
(-0.0112638 0.000389437 0)
(-0.0114803 0.000376634 0)
(-0.0116894 0.000363282 0)
(-0.0118907 0.000349393 0)
(-0.012084 0.000334979 0)
(-0.012269 0.000320053 0)
(-0.0124453 0.000304629 0)
(-0.0126127 0.000288722 0)
(-0.012771 0.000272344 0)
(-0.0129198 0.000255513 0)
(-0.013059 0.000238243 0)
(-0.0131882 0.000220551 0)
(-0.0133073 0.000202455 0)
(-0.013416 0.000183974 0)
(-0.0135142 0.000165127 0)
(-0.0136015 0.000145934 0)
(-0.0136779 0.000126417 0)
(-0.0137432 0.000106599 0)
(-0.0137972 8.65034e-05 0)
(-0.0138397 6.61542e-05 0)
(-0.0138707 4.55779e-05 0)
(-0.01389 2.48009e-05 0)
(-0.0138975 3.85146e-06 0)
(-0.0138931 -1.72407e-05 0)
(-0.0138768 -3.84454e-05 0)
(-0.0138485 -5.97315e-05 0)
(-0.0138081 -8.10661e-05 0)
(-0.0137557 -0.000102415 0)
(-0.0136913 -0.000123744 0)
(-0.0136149 -0.000145018 0)
(-0.0135265 -0.000166199 0)
(-0.0134262 -0.00018725 0)
(-0.0133141 -0.000208133 0)
(-0.0131904 -0.000228807 0)
(-0.013055 -0.000249234 0)
(-0.0129083 -0.000269372 0)
(-0.0127503 -0.00028918 0)
(-0.0125813 -0.000308616 0)
(-0.0124014 -0.000327639 0)
(-0.012211 -0.000346207 0)
(-0.0120104 -0.000364277 0)
(-0.0117997 -0.000381806 0)
(-0.0115793 -0.000398752 0)
(-0.0113496 -0.000415074 0)
(-0.011111 -0.000430729 0)
(-0.0108637 -0.000445677 0)
(-0.0106083 -0.000459876 0)
(-0.0103451 -0.000473288 0)
(-0.0100747 -0.000485872 0)
(-0.00979736 -0.000497592 0)
(-0.00951375 -0.00050841 0)
(-0.00922433 -0.00051829 0)
(-0.00892963 -0.0005272 0)
(-0.00863022 -0.000535105 0)
(-0.00832665 -0.000541975 0)
(-0.00801951 -0.000547781 0)
(-0.00770942 -0.000552495 0)
(-0.00739697 -0.000556093 0)
(-0.00708281 -0.000558552 0)
(-0.00676756 -0.000559851 0)
(-0.00645189 -0.000559971 0)
(-0.00613646 -0.000558897 0)
(-0.00582192 -0.000556616 0)
(-0.00550897 -0.000553116 0)
(-0.00519826 -0.00054839 0)
(-0.00489049 -0.000542435 0)
(-0.00458634 -0.000535247 0)
(-0.00428649 -0.000526828 0)
(-0.00399163 -0.000517184 0)
(-0.00370241 -0.000506322 0)
(-0.00341952 -0.000494253 0)
(-0.00314362 -0.000480994 0)
(-0.00287535 -0.000466563 0)
(-0.00261536 -0.000450984 0)
(-0.00236426 -0.000434283 0)
(-0.00212266 -0.000416493 0)
(-0.00189114 -0.000397651 0)
(-0.00167026 -0.000377798 0)
(-0.00146056 -0.000356982 0)
(-0.00126254 -0.000335257 0)
(-0.00107666 -0.000312686 0)
(-0.000903367 -0.000289338 0)
(-0.000743035 -0.000265291 0)
(-0.000596003 -0.000240636 0)
(-0.000462554 -0.000215476 0)
(-0.000342903 -0.000189928 0)
(-0.000237194 -0.000164131 0)
(-0.000145489 -0.000138243 0)
(-6.77511e-05 -0.000112453 0)
(-3.83267e-06 -8.69815e-05 0)
(4.6545e-05 -6.20928e-05 0)
(8.38116e-05 -3.81047e-05 0)
(0.000108574 -1.54018e-05 0)
(0.000121647 5.5482e-06 0)
(0.000124088 2.4174e-05 0)
(0.000117235 3.97789e-05 0)
(0.00010275 5.15194e-05 0)
(8.26598e-05 5.83943e-05 0)
(5.93462e-05 5.92645e-05 0)
(3.55441e-05 5.29295e-05 0)
(1.50038e-05 3.83425e-05 0)
(3.06057e-06 1.52062e-05 0)
(2.8172e-06 -2.32719e-05 0)
(1.21553e-05 -4.99407e-05 0)
(2.55681e-05 -6.01289e-05 0)
(3.72338e-05 -5.68235e-05 0)
(4.30643e-05 -4.26967e-05 0)
(4.01558e-05 -2.0122e-05 0)
(2.61409e-05 8.87693e-06 0)
(-8.70126e-07 4.26237e-05 0)
(-4.23178e-05 7.97532e-05 0)
(-9.9257e-05 0.000119166 0)
(-0.000172415 0.000159979 0)
(-0.000262241 0.00020149 0)
(-0.000368953 0.000243139 0)
(-0.000492578 0.000284481 0)
(-0.00063298 0.000325161 0)
(-0.000789894 0.000364899 0)
(-0.000962948 0.000403477 0)
(-0.00115168 0.000440721 0)
(-0.00135557 0.000476499 0)
(-0.00157403 0.00051071 0)
(-0.00180644 0.000543278 0)
(-0.00205212 0.00057415 0)
(-0.00231041 0.000603288 0)
(-0.00258058 0.00063067 0)
(-0.00286193 0.000656286 0)
(-0.00315374 0.000680135 0)
(-0.00345527 0.000702223 0)
(-0.00376581 0.000722565 0)
(-0.00408462 0.000741177 0)
(-0.00441099 0.000758083 0)
(-0.0047442 0.000773309 0)
(-0.00508356 0.000786883 0)
(-0.00542837 0.000798834 0)
(-0.00577794 0.000809193 0)
(-0.00613161 0.000817993 0)
(-0.00648871 0.000825266 0)
(-0.00684861 0.000831045 0)
(-0.00721065 0.000835362 0)
(-0.00757423 0.000838249 0)
(-0.00793873 0.000839737 0)
(-0.00830355 0.000839859 0)
(-0.00866811 0.000838643 0)
(-0.00903184 0.000836119 0)
(-0.00939416 0.000832316 0)
(-0.00975454 0.00082726 0)
(-0.0101124 0.00082098 0)
(-0.0104673 0.000813499 0)
(-0.0108187 0.000804843 0)
(-0.011166 0.000795037 0)
(-0.0115088 0.000784102 0)
(-0.0118465 0.000772063 0)
(-0.0121788 0.00075894 0)
(-0.0125051 0.000744755 0)
(-0.0128249 0.000729529 0)
(-0.0131379 0.000713282 0)
(-0.0134436 0.000696034 0)
(-0.0137415 0.000677805 0)
(-0.0140313 0.000658614 0)
(-0.0143124 0.00063848 0)
(-0.0145846 0.000617425 0)
(-0.0148474 0.000595468 0)
(-0.0151004 0.00057263 0)
(-0.0153432 0.000548931 0)
(-0.0155756 0.000524395 0)
(-0.015797 0.000499043 0)
(-0.0160073 0.000472899 0)
(-0.016206 0.000445988 0)
(-0.0163928 0.000418334 0)
(-0.0165674 0.000389965 0)
(-0.0167295 0.000360907 0)
(-0.0168788 0.000331192 0)
(-0.0170151 0.000300849 0)
(-0.017138 0.000269911 0)
(-0.0172474 0.000238411 0)
(-0.017343 0.000206385 0)
(-0.0174245 0.000173871 0)
(-0.0174919 0.000140907 0)
(-0.0175449 0.000107534 0)
(-0.0175833 7.3795e-05 0)
(-0.017607 3.97338e-05 0)
(-0.0176159 5.39675e-06 0)
(-0.0176099 -2.91684e-05 0)
(-0.0175889 -6.39113e-05 0)
(-0.0175528 -9.87803e-05 0)
(-0.0175016 -0.000133722 0)
(-0.0174353 -0.000168681 0)
(-0.017354 -0.000203601 0)
(-0.0172575 -0.000238424 0)
(-0.0171461 -0.000273088 0)
(-0.0170197 -0.000307534 0)
(-0.0168785 -0.000341697 0)
(-0.0167227 -0.000375514 0)
(-0.0165524 -0.000408921 0)
(-0.0163677 -0.000441849 0)
(-0.0161691 -0.000474234 0)
(-0.0159565 -0.000506006 0)
(-0.0157305 -0.000537098 0)
(-0.0154912 -0.000567442 0)
(-0.0152391 -0.000596968 0)
(-0.0149744 -0.000625607 0)
(-0.0146976 -0.000653292 0)
(-0.0144092 -0.000679953 0)
(-0.0141095 -0.000705524 0)
(-0.0137991 -0.000729937 0)
(-0.0134784 -0.000753127 0)
(-0.013148 -0.00077503 0)
(-0.0128085 -0.000795582 0)
(-0.0124605 -0.000814721 0)
(-0.0121046 -0.000832389 0)
(-0.0117413 -0.000848528 0)
(-0.0113715 -0.000863082 0)
(-0.0109958 -0.000876 0)
(-0.0106148 -0.000887231 0)
(-0.0102294 -0.000896728 0)
(-0.00984029 -0.000904448 0)
(-0.00944819 -0.00091035 0)
(-0.00905391 -0.000914398 0)
(-0.00865826 -0.000916558 0)
(-0.00826203 -0.0009168 0)
(-0.00786606 -0.000915101 0)
(-0.00747117 -0.000911439 0)
(-0.0070782 -0.000905798 0)
(-0.00668798 -0.000898166 0)
(-0.00630137 -0.000888536 0)
(-0.00591922 -0.000876907 0)
(-0.00554236 -0.000863282 0)
(-0.00517164 -0.00084767 0)
(-0.00480789 -0.000830086 0)
(-0.00445194 -0.000810548 0)
(-0.00410461 -0.000789085 0)
(-0.0037667 -0.000765727 0)
(-0.00343899 -0.000740516 0)
(-0.00312224 -0.000713497 0)
(-0.00281721 -0.000684724 0)
(-0.00252459 -0.000654259 0)
(-0.00224509 -0.000622174 0)
(-0.00197934 -0.000588549 0)
(-0.00172796 -0.000553474 0)
(-0.00149152 -0.000517054 0)
(-0.00127053 -0.000479404 0)
(-0.00106545 -0.000440658 0)
(-0.00087668 -0.000400966 0)
(-0.000704551 -0.000360497 0)
(-0.000549309 -0.000319449 0)
(-0.00041111 -0.000278046 0)
(-0.000290008 -0.000236549 0)
(-0.00018594 -0.000195263 0)
(-9.87046e-05 -0.000154542 0)
(-2.79506e-05 -0.000114806 0)
(2.68518e-05 -7.65511e-05 0)
(6.64344e-05 -4.03708e-05 0)
(9.17613e-05 -6.97216e-06 0)
(0.000104061 2.27985e-05 0)
(0.00010486 4.7932e-05 0)
(9.60217e-05 6.72348e-05 0)
(7.97849e-05 7.93193e-05 0)
(5.8755e-05 8.26212e-05 0)
(3.59242e-05 7.5465e-05 0)
(1.54247e-05 5.62114e-05 0)
(3.19485e-06 2.35062e-05 0)
(2.39565e-06 -2.93805e-05 0)
(9.64179e-06 -6.08608e-05 0)
(1.86165e-05 -7.04029e-05 0)
(2.36938e-05 -6.22278e-05 0)
(2.07892e-05 -3.98275e-05 0)
(6.92311e-06 -6.2294e-06 0)
(-2.03398e-05 3.59868e-05 0)
(-6.29569e-05 8.46653e-05 0)
(-0.000122441 0.000138024 0)
(-0.000199917 0.000194601 0)
(-0.000296173 0.000253206 0)
(-0.000411709 0.00031287 0)
(-0.000546778 0.000372809 0)
(-0.000701422 0.000432393 0)
(-0.000875507 0.000491112 0)
(-0.00106875 0.000548558 0)
(-0.00128075 0.000604407 0)
(-0.00151099 0.0006584 0)
(-0.0017589 0.000710335 0)
(-0.00202381 0.000760057 0)
(-0.00230502 0.000807445 0)
(-0.00260177 0.000852414 0)
(-0.00291329 0.0008949 0)
(-0.00323875 0.000934864 0)
(-0.00357735 0.000972283 0)
(-0.00392823 0.00100715 0)
(-0.00429056 0.00103947 0)
(-0.0046635 0.00106925 0)
(-0.00504619 0.00109652 0)
(-0.00543779 0.0011213 0)
(-0.00583747 0.00114363 0)
(-0.00624441 0.00116354 0)
(-0.00665779 0.00118108 0)
(-0.00707679 0.00119629 0)
(-0.00750063 0.00120921 0)
(-0.00792853 0.00121989 0)
(-0.00835971 0.00122837 0)
(-0.00879343 0.0012347 0)
(-0.00922895 0.00123892 0)
(-0.00966552 0.00124108 0)
(-0.0101025 0.00124123 0)
(-0.010539 0.0012394 0)
(-0.0109746 0.00123564 0)
(-0.0114085 0.00122998 0)
(-0.01184 0.00122248 0)
(-0.0122685 0.00121316 0)
(-0.0126934 0.00120207 0)
(-0.013114 0.00118924 0)
(-0.0135297 0.00117471 0)
(-0.01394 0.0011585 0)
(-0.0143443 0.00114066 0)
(-0.0147419 0.00112122 0)
(-0.0151324 0.0011002 0)
(-0.0155152 0.00107765 0)
(-0.0158897 0.00105358 0)
(-0.0162554 0.00102803 0)
(-0.0166117 0.00100102 0)
(-0.0169583 0.000972597 0)
(-0.0172946 0.000942779 0)
(-0.01762 0.000911598 0)
(-0.0179342 0.000879085 0)
(-0.0182367 0.000845271 0)
(-0.018527 0.000810187 0)
(-0.0188047 0.000773868 0)
(-0.0190693 0.000736345 0)
(-0.0193204 0.000697656 0)
(-0.0195577 0.000657837 0)
(-0.0197808 0.000616925 0)
(-0.0199892 0.000574961 0)
(-0.0201826 0.000531986 0)
(-0.0203608 0.000488045 0)
(-0.0205232 0.000443183 0)
(-0.0206698 0.000397449 0)
(-0.0208001 0.000350893 0)
(-0.0209138 0.000303568 0)
(-0.0210108 0.00025553 0)
(-0.0210908 0.000206835 0)
(-0.0211536 0.000157544 0)
(-0.021199 0.000107722 0)
(-0.0212268 5.74327e-05 0)
(-0.0212369 6.74533e-06 0)
(-0.0212292 -4.42694e-05 0)
(-0.0212035 -9.55376e-05 0)
(-0.0211599 -0.000146983 0)
(-0.0210982 -0.000198527 0)
(-0.0210185 -0.000250088 0)
(-0.0209207 -0.000301582 0)
(-0.020805 -0.000352923 0)
(-0.0206714 -0.000404023 0)
(-0.0205199 -0.000454793 0)
(-0.0203509 -0.000505138 0)
(-0.0201643 -0.000554967 0)
(-0.0199605 -0.000604181 0)
(-0.0197396 -0.000652686 0)
(-0.0195019 -0.000700383 0)
(-0.0192478 -0.000747172 0)
(-0.0189775 -0.000792954 0)
(-0.0186915 -0.000837628 0)
(-0.0183902 -0.000881094 0)
(-0.0180739 -0.000923251 0)
(-0.0177432 -0.000963999 0)
(-0.0173986 -0.00100324 0)
(-0.0170406 -0.00104087 0)
(-0.0166698 -0.0010768 0)
(-0.0162868 -0.00111092 0)
(-0.0158923 -0.00114316 0)
(-0.0154869 -0.0011734 0)
(-0.0150714 -0.00120157 0)
(-0.0146464 -0.00122757 0)
(-0.0142127 -0.00125133 0)
(-0.0137712 -0.00127276 0)
(-0.0133226 -0.00129179 0)
(-0.0128678 -0.00130834 0)
(-0.0124076 -0.00132235 0)
(-0.011943 -0.00133375 0)
(-0.0114748 -0.00134248 0)
(-0.011004 -0.0013485 0)
(-0.0105314 -0.00135174 0)
(-0.0100582 -0.00135218 0)
(-0.00958522 -0.00134977 0)
(-0.00911345 -0.00134449 0)
(-0.00864389 -0.00133632 0)
(-0.00817753 -0.00132522 0)
(-0.00771538 -0.00131121 0)
(-0.00725843 -0.00129427 0)
(-0.00680767 -0.00127442 0)
(-0.0063641 -0.00125166 0)
(-0.0059287 -0.00122603 0)
(-0.00550245 -0.00119754 0)
(-0.00508629 -0.00116625 0)
(-0.00468118 -0.0011322 0)
(-0.00428803 -0.00109545 0)
(-0.00390773 -0.00105607 0)
(-0.00354116 -0.00101415 0)
(-0.00318915 -0.000969778 0)
(-0.00285249 -0.000923059 0)
(-0.00253193 -0.000874118 0)
(-0.0022282 -0.00082309 0)
(-0.00194193 -0.000770132 0)
(-0.00167372 -0.000715418 0)
(-0.00142411 -0.000659146 0)
(-0.00119353 -0.000601539 0)
(-0.000982362 -0.000542852 0)
(-0.000790875 -0.000483374 0)
(-0.000619234 -0.000423436 0)
(-0.000467488 -0.000363418 0)
(-0.000335547 -0.00030376 0)
(-0.000223171 -0.000244971 0)
(-0.000129948 -0.000187648 0)
(-5.52697e-05 -0.000132486 0)
(1.68837e-06 -8.03058e-05 0)
(4.19983e-05 -3.20703e-05 0)
(6.70072e-05 1.1086e-05 0)
(7.83684e-05 4.78322e-05 0)
(7.80758e-05 7.66183e-05 0)
(6.85019e-05 9.5662e-05 0)
(5.23981e-05 0.000102952 0)
(3.29319e-05 9.62844e-05 0)
(1.44376e-05 7.33338e-05 0)
(3.0456e-06 3.16221e-05 0)
(1.81175e-06 -3.38994e-05 0)
(6.18183e-06 -6.76506e-05 0)
(9.21365e-06 -7.4207e-05 0)
(5.80099e-06 -5.88695e-05 0)
(-7.95653e-06 -2.59103e-05 0)
(-3.50185e-05 2.10068e-05 0)
(-7.7807e-05 7.87611e-05 0)
(-0.000138276 0.000144727 0)
(-0.000217951 0.000216712 0)
(-0.000317974 0.000292894 0)
(-0.000439157 0.000371766 0)
(-0.00058202 0.000452087 0)
(-0.000746825 0.000532841 0)
(-0.000933621 0.000613195 0)
(-0.00114226 0.000692471 0)
(-0.00137246 0.00077012 0)
(-0.00162376 0.000845697 0)
(-0.00189563 0.000918847 0)
(-0.00218742 0.000989287 0)
(-0.00249842 0.0010568 0)
(-0.00282785 0.0011212 0)
(-0.00317488 0.00118238 0)
(-0.00353863 0.00124023 0)
(-0.00391821 0.00129469 0)
(-0.0043127 0.00134572 0)
(-0.00472116 0.0013933 0)
(-0.00514263 0.00143744 0)
(-0.00557617 0.00147813 0)
(-0.00602082 0.00151542 0)
(-0.00647562 0.00154932 0)
(-0.00693964 0.00157987 0)
(-0.00741193 0.00160714 0)
(-0.00789156 0.00163115 0)
(-0.00837761 0.00165198 0)
(-0.00886917 0.00166967 0)
(-0.00936534 0.00168429 0)
(-0.00986526 0.00169589 0)
(-0.010368 0.00170453 0)
(-0.0108728 0.00171028 0)
(-0.0113788 0.00171319 0)
(-0.0118852 0.00171332 0)
(-0.0123911 0.00171073 0)
(-0.0128958 0.00170548 0)
(-0.0133985 0.00169762 0)
(-0.0138984 0.00168721 0)
(-0.0143948 0.00167429 0)
(-0.0148869 0.00165892 0)
(-0.0153741 0.00164116 0)
(-0.0158556 0.00162103 0)
(-0.0163308 0.0015986 0)
(-0.0167989 0.00157391 0)
(-0.0172594 0.00154701 0)
(-0.0177115 0.00151792 0)
(-0.0181546 0.00148671 0)
(-0.0185881 0.00145341 0)
(-0.0190114 0.00141807 0)
(-0.0194239 0.00138071 0)
(-0.019825 0.0013414 0)
(-0.0202141 0.00130016 0)
(-0.0205906 0.00125704 0)
(-0.0209541 0.00121208 0)
(-0.021304 0.00116533 0)
(-0.0216397 0.00111683 0)
(-0.0219607 0.00106663 0)
(-0.0222666 0.00101477 0)
(-0.0225569 0.00096131 0)
(-0.0228312 0.000906291 0)
(-0.0230889 0.000849772 0)
(-0.0233296 0.000791808 0)
(-0.023553 0.000732456 0)
(-0.0237586 0.000671779 0)
(-0.0239461 0.000609841 0)
(-0.0241151 0.000546708 0)
(-0.0242653 0.00048245 0)
(-0.0243964 0.000417142 0)
(-0.0245081 0.00035086 0)
(-0.0246001 0.000283683 0)
(-0.0246721 0.000215697 0)
(-0.0247241 0.000146987 0)
(-0.0247557 7.76456e-05 0)
(-0.0247668 7.76643e-06 0)
(-0.0247573 -6.25522e-05 0)
(-0.0247271 -0.000133209 0)
(-0.0246761 -0.000204098 0)
(-0.0246042 -0.000275112 0)