/*--------------------------------*- C++ -*----------------------------------*\
  =========                 |
  \\      /  F ield         | OpenFOAM: The Open Source CFD Toolbox
   \\    /   O peration     | Website:  https://openfoam.org
    \\  /    A nd           | Version:  7
     \\/     M anipulation  |
\*---------------------------------------------------------------------------*/
FoamFile
{
    version     2.0;
    format      ascii;
    class       volScalarField;
    location    "0.075";
    object      p;
}
// * * * * * * * * * * * * * * * * * * * * * * * * * * * * * * * * * * * * * //

dimensions      [0 2 -2 0 0 0 0];

internalField   nonuniform List<scalar> 
6400
(
6.823e-06
3.55214e-05
-0.000436076
-0.00141662
-0.00279428
-0.00446061
-0.00631782
-0.00827928
-0.0102704
-0.0122277
-0.0140978
-0.0158361
-0.0174059
-0.0187766
-0.0199229
-0.0208248
-0.0214669
-0.0218376
-0.021929
-0.0217358
-0.0212557
-0.0204889
-0.0194381
-0.0181077
-0.0165041
-0.0146349
-0.0125095
-0.010139
-0.00753577
-0.00471326
-0.00168621
0.0015298
0.0049184
0.00846244
0.0121438
0.0159437
0.0198427
0.0238211
0.0278587
0.0319347
0.0360277
0.0401163
0.0441791
0.0481948
0.0521418
0.0559987
0.0597441
0.0633574
0.0668188
0.0701089
0.0732092
0.0761016
0.0787688
0.0811949
0.0833657
0.0852685
0.0868926
0.0882291
0.089271
0.0900134
0.0904541
0.0905937
0.0904357
0.0899875
0.0892598
0.0882671
0.087028
0.0855654
0.0839073
0.0820872
0.0801451
0.0781284
0.0760924
0.0741021
0.0722326
0.0705697
0.0692073
0.0682468
0.0677924
0.0678282
1.227e-05
3.4889e-05
-0.000389778
-0.00122861
-0.00238681
-0.00378687
-0.00535499
-0.0070211
-0.00872237
-0.0104034
-0.0120158
-0.0135187
-0.0148772
-0.0160621
-0.0170491
-0.0178185
-0.0183545
-0.0186455
-0.0186826
-0.0184602
-0.0179753
-0.0172272
-0.0162173
-0.0149494
-0.0134286
-0.0116615
-0.00965661
-0.00742387
-0.00497449
-0.00232072
0.00052394
0.00354497
0.0067271
0.0100544
0.01351
0.0170764
0.0207354
0.0244685
0.0282568
0.0320806
0.03592
0.039755
0.0435656
0.0473317
0.0510333
0.0546501
0.0581623
0.0615507
0.0647971
0.0678836
0.070793
0.0735086
0.0760144
0.0782961
0.0803408
0.0821371
0.0836758
0.0849491
0.0859509
0.0866776
0.0871276
0.0873023
0.0872062
0.0868469
0.0862356
0.0853867
0.0843185
0.0830532
0.0816173
0.0800428
0.0783667
0.0766325
0.0748899
0.0731956
0.071613
0.0702112
0.0690615
0.0682365
0.0678271
0.067864
0.000518952
0.000485406
5.49939e-05
-0.00072195
-0.00176295
-0.00300686
-0.00439434
-0.00586721
-0.00737189
-0.00886034
-0.0102895
-0.0116219
-0.0128252
-0.013872
-0.0147394
-0.0154085
-0.0158638
-0.0160937
-0.0160893
-0.0158445
-0.0153561
-0.0146229
-0.0136459
-0.0124276
-0.0109725
-0.00928672
-0.00737784
-0.00525505
-0.00292854
-0.000409607
0.00228916
0.00515414
0.00817094
0.0113246
0.0145993
0.0179786
0.0214454
0.0249821
0.0285706
0.0321926
0.0358291
0.0394614
0.0430705
0.0466375
0.0501431
0.0535684
0.0568949
0.0601045
0.0631801
0.0661051
0.0688632
0.0714387
0.073817
0.0759846
0.0779298
0.0796424
0.0811139
0.0823374
0.0833077
0.0840215
0.0844781
0.0846794
0.08463
0.084338
0.0838143
0.0830731
0.0821319
0.0810119
0.0797382
0.0783404
0.0768527
0.0753147
0.0737708
0.0722706
0.0708682
0.0696213
0.0685873
0.0678248
0.0674164
0.0674121
0.00152773
0.00134793
0.00084631
6.32891e-05
-0.000938205
-0.0021072
-0.00339382
-0.00474892
-0.00612647
-0.00748476
-0.00878599
-0.00999642
-0.0110866
-0.0120311
-0.0128086
-0.0134015
-0.0137952
-0.0139783
-0.013942
-0.0136805
-0.0131904
-0.0124702
-0.0115205
-0.0103433
-0.00894267
-0.00732407
-0.00549461
-0.00346274
-0.0012379
0.00116938
0.00374723
0.00648271
0.00936226
0.0123718
0.0154966
0.0187208
0.0220281
0.0254017
0.0288246
0.0322793
0.035748
0.0392127
0.0426552
0.0460576
0.0494014
0.0526689
0.0558425
0.0589052
0.0618407
0.0646332
0.0672673
0.0697282
0.0720022
0.0740767
0.0759409
0.0775853
0.079002
0.0801848
0.0811288
0.0818314
0.0822921
0.0825129
0.0824989
0.0822577
0.0818
0.0811394
0.0802924
0.079279
0.0781224
0.0768498
0.0754928
0.0740867
0.0726712
0.0712897
0.0699889
0.0688176
0.0678247
0.0670604
0.06659
0.0664556
0.00292988
0.00252993
0.00190305
0.00106711
5.69616e-05
-0.00108473
-0.00231604
-0.00359615
-0.00488609
-0.00614978
-0.00735446
-0.00847028
-0.0094708
-0.0103331
-0.0110377
-0.0115681
-0.0119109
-0.0120552
-0.011993
-0.0117185
-0.0112284
-0.0105211
-0.00959662
-0.0084571
-0.00710614
-0.0055488
-0.00379157
-0.00184221
0.000290441
0.00259639
0.00506433
0.00768208
0.010437
0.0133157
0.0163043
0.0193877
0.0225501
0.0257757
0.0290483
0.0323514
0.035668
0.0389809
0.0422727
0.0455261
0.0487238
0.0518489
0.0548848
0.0578152
0.0606247
0.0632981
0.0658208
0.0681788
0.0703593
0.0723505
0.0741422
0.0757254
0.0770929
0.0782388
0.0791586
0.07985
0.0803127
0.0805489
0.0805633
0.0803636
0.0799598
0.0793645
0.0785933
0.0776645
0.0765996
0.0754234
0.0741642
0.0728536
0.0715265
0.0702206
0.0689757
0.0678329
0.0668341
0.0660217
0.0654346
0.0650942
0.00462844
0.00396159
0.00316913
0.00224211
0.00118366
2.9385e-05
-0.00118543
-0.00242757
-0.00366462
-0.00486568
-0.00600237
-0.0070489
-0.00798204
-0.00878131
-0.00942905
-0.00991028
-0.0102127
-0.0103265
-0.0102443
-0.00996067
-0.00947239
-0.00877773
-0.00787686
-0.00677176
-0.00546588
-0.00396383
-0.00227155
-0.000396305
0.00165351
0.00386834
0.0062375
0.00874954
0.0113925
0.014154
0.0170203
0.0199771
0.0230094
0.0261023
0.0292403
0.0324077
0.0355882
0.0387653
0.0419222
0.0450426
0.04811
0.0511083
0.0540216
0.0568345
0.059532
0.0620997
0.0645236
0.0667906
0.0688884
0.0708059
0.0725334
0.0740625
0.0753861
0.0764987
0.0773963
0.0780766
0.0785393
0.0787866
0.078823
0.0786556
0.0782937
0.0777492
0.0770362
0.0761715
0.0751746
0.0740679
0.0728766
0.0716287
0.0703547
0.0690868
0.0678587
0.0667046
0.0656603
0.0647614
0.0640166
0.0634214
0.00653752
0.00557732
0.00459135
0.00354351
0.00240447
0.00120382
-2.8225e-05
-0.00126501
-0.00247988
-0.00364707
-0.00474229
-0.00574329
-0.00662993
-0.00738426
-0.00799057
-0.0084355
-0.00870805
-0.00879951
-0.00870319
-0.00841419
-0.00792941
-0.00724744
-0.00636858
-0.00529477
-0.00402923
-0.00257626
-0.000941469
0.000868194
0.00284468
0.00497889
0.00726079
0.00967957
0.0122239
0.0148817
0.0176401
0.0204852
0.0234029
0.0263788
0.0293984
0.0324464
0.0355072
0.0385649
0.0416035
0.0446074
0.0475607
0.0504483
0.0532547
0.0559651
0.0585651
0.0610408
0.0633789
0.0655669
0.067593
0.0694466
0.0711185
0.0726005
0.0738858
0.0749691
0.0758465
0.0765157
0.0769766
0.0772309
0.0772828
0.0771389
0.0768076
0.0762998
0.0756282
0.074808
0.0738569
0.0727948
0.0716439
0.070429
0.0691761
0.0679129
0.0666676
0.0654682
0.0643458
0.0633301
0.0623985
0.0615207
0.00858203
0.0073156
0.00611809
0.00492764
0.00368324
0.00240952
0.00113298
-0.000125393
-0.0013442
-0.002502
-0.00357847
-0.00455474
-0.0054134
-0.00613889
-0.00671755
-0.00713782
-0.00739015
-0.00746679
-0.00736172
-0.00707066
-0.00659102
-0.00592179
-0.00506346
-0.00401794
-0.00278824
-0.00137851
0.000205785
0.00195786
0.00387002
0.00593369
0.00813934
0.0104767
0.0129348
0.0155021
0.0181662
0.0209138
0.0237316
0.0266057
0.0295221
0.0324663
0.035423
0.0383771
0.0413131
0.044216
0.0470709
0.0498629
0.0525772
0.0551995
0.0577157
0.0601126
0.0623773
0.0644977
0.0664627
0.0682619
0.0698862
0.0713278
0.0725802
0.0736379
0.0744972
0.0751557
0.0756131
0.0758708
0.0759326
0.0758042
0.0754932
0.0750094
0.0743643
0.0735715
0.0726465
0.0716072
0.0704731
0.0692654
0.0680067
0.0667204
0.06543
0.0641582
0.0629321
0.0617769
0.0606397
0.0594654
0.0106984
0.00912212
0.00770215
0.00635348
0.00498529
0.0036181
0.00227517
0.000973157
-0.000271121
-0.00144024
-0.00251739
-0.0034867
-0.00433339
-0.00504418
-0.00560754
-0.00601363
-0.00625419
-0.00632253
-0.00621347
-0.00592343
-0.00545045
-0.00479396
-0.00395462
-0.00293432
-0.00173611
-0.000364154
0.00117615
0.00287825
0.00473479
0.00673757
0.00887747
0.0111446
0.0135283
0.0160175
0.0186003
0.0212642
0.023996
0.0267827
0.0296107
0.0324658
0.0353334
0.0381988
0.0410473
0.0438643
0.0466356
0.0493465
0.0519829
0.0545306
0.0569762
0.0593068
0.0615099
0.0635739
0.0654877
0.0672414
0.0688261
0.070234
0.0714586
0.0724945
0.0733379
0.0739863
0.074439
0.0746971
0.0747638
0.0746439
0.0743443
0.0738735
0.0732418
0.0724612
0.0715455
0.0705102
0.0693724
0.0681503
0.0668632
0.065531
0.0641728
0.0628071
0.0614581
0.0601471
0.0587929
0.0573173
0.0128335
0.0109492
0.00930159
0.00778401
0.00627814
0.0048017
0.00337534
0.00201179
0.000724148
-0.00047365
-0.00156785
-0.0025453
-0.00339382
-0.00410237
-0.0046613
-0.00506233
-0.00529849
-0.00536419
-0.00525528
-0.004969
-0.00450397
-0.00385995
-0.00303782
-0.0020397
-0.0008688
0.000470642
0.00197331
0.00363287
0.00544221
0.00739342
0.00947762
0.0116852
0.014006
0.0164292
0.0189434
0.0215365
0.024196
0.0269091
0.0296626
0.0324429
0.0352358
0.0380271
0.0408026
0.0435483
0.0462501
0.0488941
0.0514661
0.0539526
0.0563404
0.0586168
0.0607698
0.0627879
0.0646605
0.0663776
0.0679303
0.069311
0.070513
0.0715311
0.072361
0.0730002
0.0734475
0.0737036
0.073771
0.0736538
0.0733579
0.0728905
0.0722609
0.0714795
0.0705583
0.0695109
0.068352
0.0670972
0.065763
0.0643661
0.062922
0.0614457
0.0599591
0.0584811
0.0569037
0.0551276
0.0149426
0.0127554
0.0108785
0.00918524
0.00753189
0.00593404
0.00441084
0.00297148
0.00162588
0.000385056
-0.000739873
-0.00173834
-0.00260051
-0.00331747
-0.00388125
-0.00428499
-0.00452305
-0.00459109
-0.00448594
-0.00420563
-0.00374928
-0.00311708
-0.00231029
-0.00133133
-0.000183606
0.00112855
0.00259988
0.00422418
0.00599452
0.00790314
0.00994138
0.0120999
0.0143688
0.0167376
0.0191955
0.0217306
0.0243308
0.0269837
0.0296764
0.0323957
0.0351278
0.0378591
0.0405758
0.0432641
0.0459104
0.0485009
0.0510219
0.05346
0.0558023
0.0580365
0.0601506
0.0621334
0.0639743
0.0656634
0.0671919
0.0685519
0.0697368
0.070741
0.0715602
0.0721915
0.0726334
0.0728858
0.0729507
0.0728313
0.0725324
0.0720605
0.0714233
0.0706299
0.0696908
0.0686176
0.0674229
0.0661202
0.0647233
0.0632464
0.0617021
0.0601022
0.0584673
0.0568146
0.0550113
0.0529386
0.0169882
0.0145045
0.012399
0.0105262
0.00871855
0.00699038
0.00535984
0.00383336
0.00241812
0.00112265
-4.43818e-05
-0.00107472
-0.00196059
-0.00269485
-0.00327115
-0.00368413
-0.0039295
-0.00400407
-0.00390559
-0.00363276
-0.00318533
-0.00256401
-0.00177052
-0.000807587
0.000321157
0.00161129
0.00305754
0.00465376
0.0063931
0.0082679
0.0102696
0.0123892
0.014617
0.016943
0.0193563
0.0218457
0.0243993
0.027005
0.0296501
0.0323219
0.035007
0.037692
0.0403635
0.0430081
0.0456123
0.0481626
0.0506455
0.0530478
0.0553568
0.0575603
0.0596466
0.0616044
0.0634231
0.0650929
0.0666048
0.0679508
0.069124
0.0701187
0.0709305
0.0715557
0.0719926
0.0722405
0.0723004
0.0721749
0.0718679
0.0713847
0.0707318
0.0699172
0.0689497
0.0678392
0.0665965
0.0652331
0.063761
0.0621918
0.0605357
0.0588023
0.0570112
0.0551787
0.0531491
0.0507852
0.0189389
0.0161653
0.0138331
0.0117788
0.00981219
0.00794728
0.00620143
0.00457898
0.00308483
0.00172529
0.000506805
-0.000564318
-0.00148206
-0.00224092
-0.00283612
-0.00326379
-0.00352091
-0.00360531
-0.00351556
-0.00325112
-0.00281241
-0.00220071
-0.00141821
-0.000467958
0.000646169
0.00191961
0.00334703
0.00492228
0.0066385
0.00848809
0.0104627
0.0125533
0.0147506
0.0170447
0.0194252
0.0218809
0.0244003
0.0269713
0.0295818
0.0322192
0.0348705
0.0375227
0.0401624
0.0427766
0.0453519
0.0478749
0.0503324
0.0527113
0.054999
0.0571834
0.0592527
0.0611957
0.0630018
0.0646609
0.0661639
0.0675026
0.06867
0.0696601
0.0704678
0.0710894
0.0715224
0.0717655
0.071819
0.0716846
0.0713654
0.0708655
0.0701905
0.0693469
0.0683422
0.0671849
0.0658842
0.0644499
0.0628921
0.0612207
0.0594439
0.0575692
0.0556161
0.0536007
0.0513455
0.0486962
0.0207674
0.0177106
0.015154
0.0129174
0.010789
0.0087826
0.0069156
0.00519039
0.00360994
0.00217872
0.000901321
-0.00021766
-0.00117381
-0.00196318
-0.00258251
-0.00302926
-0.00330153
-0.00339808
-0.00331837
-0.00306265
-0.002632
-0.00202827
-0.00125411
-0.00031294
0.000791126
0.00205333
0.00346822
0.00502958
0.0067305
0.00856338
0.01052
0.0125915
0.0147687
0.017042
0.0194009
0.0218347
0.0243319
0.0268808
0.0294694
0.0320853
0.0347159
0.0373483
0.0399694
0.0425662
0.0451255
0.0476341
0.0500787
0.0524464
0.0547246
0.0569011
0.0589643
0.0609027
0.0627056
0.0643628
0.0658649
0.0672035
0.0683712
0.0693616
0.0701694
0.0707903
0.0712211
0.07146
0.0715066
0.0713615
0.0710271
0.0705064
0.069804
0.0689252
0.0678764
0.0666646
0.0652977
0.0637841
0.0621323
0.0603507
0.058446
0.0564241
0.0543048
0.0521045
0.0496251
0.0466959
0.0224501
0.019116
0.0163378
0.0139187
0.0116267
0.00947562
0.0074831
0.00564996
0.00397752
0.00246867
0.00112654
-4.58399e-05
-0.00104557
-0.00187015
-0.00251768
-0.00298677
-0.00327657
-0.00338678
-0.00331774
-0.00307046
-0.00264669
-0.00204884
-0.00128003
-0.000344027
0.00075476
0.00201133
0.00342006
0.00497462
0.00666804
0.00849272
0.0104405
0.0125026
0.0146701
0.0169332
0.0192819
0.0217053
0.0241922
0.0267311
0.0293103
0.0319175
0.0345402
0.0371657
0.0397812
0.0423735
0.0449295
0.0474363
0.0498804
0.052249
0.0545294
0.0567095
0.0587774
0.0607215
0.0625309
0.0641951
0.0657045
0.0670503
0.0682248
0.0692212
0.0700336
0.0706573
0.0710885
0.0713246
0.0713643
0.0712078
0.0708563
0.0703119
0.0695782
0.0686594
0.0675609
0.0662884
0.0648488
0.0632491
0.0614966
0.0595984
0.05756
0.0553863
0.0530978
0.0507112
0.048009
0.044805
0.0239657
0.0203597
0.0173624
0.0147614
0.0123047
0.0100067
0.00788547
0.00594053
0.00417181
0.00258089
0.00116956
-6.04988e-05
-0.00110778
-0.00197113
-0.00264979
-0.00314345
-0.00345226
-0.00357685
-0.00351841
-0.00327871
-0.00286012
-0.00226561
-0.00149874
-0.000563675
0.000534845
0.00179154
0.00320059
0.00475552
0.00644931
0.0082743
0.0102223
0.0122849
0.0144527
0.0167164
0.0190657
0.0214902
0.0239787
0.0265198
0.0291019
0.0317129
0.0343404
0.0369718
0.0395942
0.0421948
0.0447603
0.0472777
0.0497337
0.0521152
0.0544097
0.0566047
0.0586883
0.0606485
0.0624742
0.0641546
0.0656798
0.0670406
0.0682289
0.0692373
0.0700596
0.0706903
0.071125
0.0713605
0.0713946
0.0712268
0.0708572
0.0702873
0.0695196
0.0685574
0.0674048
0.066067
0.0645494
0.0628582
0.0609995
0.0589797
0.0568031
0.054474
0.0520137
0.04944
0.0465163
0.0430413
0.0252953
0.0214219
0.0182078
0.0154255
0.0128036
0.0103572
0.00810496
0.00604543
0.00417729
0.002501
0.00101716
-0.000273753
-0.00137148
-0.00227604
-0.00298774
-0.00350728
-0.00383576
-0.00397473
-0.00392619
-0.00369262
-0.00327696
-0.00268275
-0.00191403
-0.000975365
0.000128143
0.00139091
0.0028069
0.00436951
0.00607161
0.00790551
0.00986301
0.0119355
0.0141139
0.0163886
0.0187497
0.0211866
0.0236883
0.0262436
0.0288409
0.031468
0.0341129
0.0367628
0.039405
0.0420265
0.0446141
0.0471546
0.0496347
0.0520414
0.0543618
0.0565833
0.0586935
0.0606805
0.0625326
0.0642388
0.0657887
0.0671728
0.0683823
0.0694095
0.0702474
0.07089
0.0713321
0.0715699
0.0716005
0.0714224
0.071035
0.0704389
0.0696355
0.0686275
0.067418
0.0660112
0.0644117
0.0626247
0.0606556
0.0585099
0.0561915
0.053704
0.05107
0.0483083
0.045164
0.0414208
0.0264214
0.0222843
0.0188552
0.0158922
0.013105
0.0105093
0.00812445
0.00594832
0.00397853
0.00221452
0.000655842
-0.00069812
-0.00184821
-0.00279547
-0.00354121
-0.0040871
-0.00443519
-0.00458787
-0.00454788
-0.00431836
-0.00390287
-0.00330547
-0.00253072
-0.0015836
-0.000469593
0.000805424
0.00223518
0.00381293
0.00553144
0.00738289
0.00935901
0.0114511
0.0136502
0.0159465
0.0183302
0.0207908
0.0233175
0.0258989
0.0285235
0.0311793
0.0338539
0.036535
0.0392096
0.0418646
0.0444868
0.047063
0.0495798
0.0520238
0.0543821
0.0566416
0.0587899
0.0608146
0.0627036
0.0644455
0.0660295
0.0674455
0.0686843
0.0697374
0.0705974
0.0712575
0.0717119
0.0719558
0.0719859
0.0717995
0.0713954
0.0707733
0.0699339
0.0688788
0.0676105
0.0661322
0.0644478
0.0625618
0.0604789
0.0582042
0.055741
0.0530927
0.0502831
0.0473324
0.0439675
0.0399577
0.0273278
0.0229295
0.0192872
0.0161438
0.0131912
0.0104456
0.00792719
0.00563306
0.00356009
0.00170681
7.18234e-05
-0.00134651
-0.00254999
-0.0035406
-0.00432059
-0.0048926
-0.00525952
-0.00542454
-0.00539111
-0.00516301
-0.00474439
-0.00413988
-0.00335455
-0.0023938
-0.00126348
3.0228e-05
0.00148082
0.00308139
0.00482452
0.00670226
0.00870621
0.0108277
0.0130574
0.015386
0.0178033
0.020299
0.0228622
0.0254817
0.0281457
0.0308423
0.0335593
0.0362841
0.0390036
0.0417049
0.0443745
0.046999
0.0495649
0.0520587
0.054467
0.0567765
0.0589745
0.061048
0.0629847
0.0647727
0.0664006
0.0678579
0.0691345
0.0702216
0.0711109
0.0717948
0.072267
0.0725218
0.0725551
0.0723636
0.0719449
0.0712982
0.0704232
0.0693207
0.0679926
0.0664414
0.0646702
0.0626828
0.0604836
0.0580773
0.0554669
0.0526555
0.0496685
0.0465275
0.0429414
0.0386651
0.0279991
0.0233414
0.0194867
0.0161634
0.0130452
0.0101492
0.00749659
0.00508364
0.00290656
0.000963131
-0.000748939
-0.00223221
-0.00348933
-0.00452318
-0.00533694
-0.00593412
-0.00631843
-0.00649378
-0.0064643
-0.00623443
-0.00580892
-0.00519294
-0.00439207
-0.00341215
-0.00225937
-0.00094024
0.000538502
0.00216975
0.00394588
0.00585875
0.00789984
0.0100604
0.0123311
0.0147024
0.0171643
0.0197065
0.0223179
0.0249873
0.027703
0.0304528
0.0332246
0.0360056
0.038783
0.0415433
0.044273
0.0469586
0.0495864
0.0521424
0.0546131
0.0569849
0.0592444
0.0613784
0.0633741
0.065219
0.0669013
0.0684096
0.0697334
0.070863
0.0717894
0.0725044
0.0730008
0.0732722
0.0733135
0.0731206
0.0726906
0.0720214
0.0711123
0.0699633
0.0685755
0.0669507
0.0650915
0.0630013
0.060684
0.058144
0.0553841
0.0524076
0.0492411
0.0459081
0.0420994
0.0375553
0.0284204
0.023504
0.0194373
0.0159342
0.0126502
0.00960357
0.00681624
0.00428406
0.00200245
-3.14699e-05
-0.0018208
-0.0033689
-0.00467924
-0.00575558
-0.00660196
-0.0072227
-0.00762229
-0.00780534
-0.00777665
-0.0075413
-0.00710463
-0.00647238
-0.00565062
-0.00464559
-0.00346385
-0.00211224
-0.000597769
0.00107222
0.00288989
0.00484689
0.00693458
0.00914408
0.0114661
0.0138909
0.0164085
0.0190085
0.0216799
0.0244111
0.0271905
0.0300059
0.0328451
0.0356952
0.0385431
0.0413754
0.0441783
0.046938
0.0496405
0.0522717
0.0548175
0.057264
0.0595974
0.0618039
0.0638704
0.0657836
0.0675311
0.0691009
0.0704818
0.0716632
0.0726355
0.0733895
0.0739173
0.0742117
0.0742667
0.0740774
0.07364
0.0729517
0.0720109
0.070817
0.0693704
0.0676722
0.0657248
0.0635308
0.0610941
0.0584187
0.0555075
0.0523636
0.0490156
0.0454882
0.0414547
0.0366403
0.028577
0.0234016
0.0191227
0.0154396
0.0119896
0.00879195
0.00586971
0.00321816
0.000832022
-0.00129225
-0.00315846
-0.00477068
-0.00613321
-0.00725064
-0.00812785
-0.00876992
-0.00918204
-0.00936955
-0.0093379
-0.00909284
-0.00864027
-0.00798647
-0.007138
-0.00610151
-0.00488394
-0.00349248
-0.00193444
-0.000217412
0.00165055
0.00366088
0.00580479
0.00807333
0.0104571
0.0129463
0.0155307
0.0182
0.020943
0.0237481
0.0266035
0.029497
0.0324162
0.0353483
0.0382799
0.0411972
0.0440864
0.0469334
0.0497238
0.0524433
0.0550773
0.0576115
0.0600315
0.0623231
0.0644725
0.0664659
0.0682902
0.0699327
0.0713812
0.0726245
0.073652
0.0744539
0.0750212
0.075346
0.0754213
0.0752413
0.0748015
0.0740981
0.073129
0.0718927
0.070389
0.0686186
0.0665832
0.0642852
0.0617282
0.0589161
0.0558517
0.0525382
0.0490061
0.0452817
0.0410201
0.0359317
0.0284539
0.0230183
0.0185266
0.0146629
0.0110465
0.00769766
0.00464042
0.0018696
-0.000620734
-0.00283479
-0.00477697
-0.00645206
-0.00786518
-0.00902173
-0.00992734
-0.0105878
-0.0110092
-0.0111973
-0.0111584
-0.0108989
-0.0104251
-0.009744
-0.00886255
-0.00778784
-0.00652721
-0.00508821
-0.00347846
-0.00170582
0.000221426
0.00229451
0.0045045
0.00684233
0.00929845
0.0118629
0.0145255
0.0172756
0.020102
0.0229932
0.025937
0.0289212
0.0319333
0.0349604
0.0379887
0.0410045
0.0439934
0.046941
0.0498329
0.0526541
0.0553898
0.058025
0.0605448
0.0629345
0.0651797
0.0672659
0.0691791
0.0709059
0.0724333
0.0737493
0.0748424
0.0757018
0.0763176
0.076681
0.076784
0.0766201
0.0761837
0.0754704
0.0744771
0.0732018
0.0716437
0.0698028
0.0676803
0.0652785
0.0626006
0.0596507
0.0564313
0.052946
0.0492269
0.0453024
0.0408087
0.0354414
0.0280359
0.0223385
0.0176325
0.0135875
0.00980421
0.00630384
0.00311158
0.000221765
-0.00237218
-0.00467505
-0.00669182
-0.00842804
-0.00988963
-0.0110827
-0.0120138
-0.0126892
-0.0131158
-0.0133002
-0.0132493
-0.0129699
-0.0124692
-0.0117545
-0.0108333
-0.00971319
-0.00840189
-0.00690732
-0.00523743
-0.00340032
-0.00140452
0.000740999
0.00302715
0.0054447
0.00798396
0.0106348
0.0133869
0.0162295
0.0191514
0.0221408
0.0251855
0.0282732
0.0313913
0.0345265
0.037665
0.0407927
0.0438949
0.0469571
0.0499642
0.052901
0.0557522
0.0585021
0.0611355
0.063637
0.0659913
0.0681834
0.0701984
0.072022
0.0736405
0.0750409
0.0762106
0.0771379
0.0778121
0.0782232
0.0783625
0.0782223
0.0777962
0.0770789
0.0760666
0.0747565
0.0731472
0.0712382
0.0690303
0.0665253
0.0637265
0.0606376
0.0572616
0.053602
0.049693
0.0455645
0.0408342
0.0351818
0.0273076
0.0213458
0.0164238
0.0121962
0.00824532
0.00459316
0.00126595
-0.00174243
-0.00443912
-0.00682942
-0.00891901
-0.0107142
-0.0122216
-0.0134482
-0.014401
-0.0150874
-0.0155148
-0.0156905
-0.015622
-0.015317
-0.014783
-0.0140279
-0.0130598
-0.0118867
-0.0105167
-0.00895823
-0.00721942
-0.00530867
-0.00323475
-0.00100685
0.00136575
0.00387366
0.00650701
0.00925549
0.0121086
0.0150556
0.018085
0.021185
0.0243434
0.0275475
0.0307846
0.0340414
0.0373037
0.040557
0.0437866
0.0469773
0.0501138
0.0531805
0.0561614
0.0590405
0.0618018
0.0644291
0.0669066
0.0692184
0.0713488
0.0732826
0.0750052
0.0765023
0.0777607
0.0787675
0.0795109
0.0799799
0.0801649
0.080057
0.079649
0.0789347
0.0779094
0.0765697
0.0749132
0.0729392
0.0706479
0.068041
0.0651213
0.0618929
0.0583585
0.0545222
0.0504198
0.0460833
0.0411108
0.0351662
0.0262526
0.0200233
0.0148831
0.0104716
0.00635206
0.00254771
-0.000914327
-0.00404065
-0.00683889
-0.00931492
-0.0114752
-0.0133266
-0.0148767
-0.0161331
-0.0171036
-0.0177963
-0.0182194
-0.0183809
-0.0182889
-0.0179518
-0.0173776
-0.0165749
-0.0155522
-0.0143181
-0.012881
-0.0112498
-0.00943293
-0.00743904
-0.00527713
-0.00295664
-0.000487059
0.00212203
0.00486056
0.00771806
0.0106839
0.0137472
0.0168965
0.0201197
0.0234045
0.0267381
0.0301076
0.0334995
0.0368994
0.0402924
0.0436635
0.0469971
0.0502776
0.0534888
0.0566143
0.0596374
0.0625414
0.0653095
0.0679249
0.070371
0.0726313
0.0746895
0.0765298
0.0781373
0.0794973
0.080596
0.0814205
0.0819587
0.0821999
0.0821342
0.0817532
0.0810498
0.0800185
0.0786549
0.0769563
0.0749211
0.0725492
0.0698419
0.066802
0.0634335
0.0597392
0.0557234
0.051424
0.046875
0.0416541
0.0354089
0.0248543
0.0183534
0.0129925
0.00839526
0.0041061
0.000149051
-0.00344765
-0.00669107
-0.00958942
-0.0121492
-0.0143775
-0.0162822
-0.0178713
-0.0191533
-0.0201368
-0.0208306
-0.0212437
-0.0213848
-0.0212628
-0.0208865
-0.0202648
-0.0194066
-0.0183212
-0.0170175
-0.0155046
-0.0137915
-0.011887
-0.00980014
-0.00754007
-0.00511653
-0.00253923
0.000182042
0.00303705
0.00601515
0.00910558
0.0122973
0.0155789
0.018938
0.0223622
0.0258386
0.0293541
0.0328949
0.0364464
0.0399934
0.0435205
0.0470118
0.0504512
0.0538221
0.0571074
0.0602899
0.063352
0.0662764
0.0690453
0.0716412
0.0740465
0.0762442
0.0782172
0.0799495
0.0814252
0.0826294
0.083548
0.0841679
0.0844769
0.0844641
0.0841201
0.0834368
0.0824074
0.081027
0.0792919
0.0772001
0.074751
0.0719455
0.0687863
0.0652775
0.0614218
0.0572237
0.0527234
0.0479567
0.0424805
0.0359252
0.023095
0.0163181
0.0107334
0.00594853
0.00148846
-0.00262184
-0.00635297
-0.00971247
-0.0127093
-0.0153505
-0.0176441
-0.0195983
-0.0212223
-0.0225251
-0.0235163
-0.0242055
-0.0246023
-0.0247163
-0.0245571
-0.024134
-0.0234568
-0.0225349
-0.0213781
-0.0199959
-0.0183978
-0.0165931
-0.0145912
-0.0124011
-0.0100324
-0.00749503
-0.00479904
-0.00195435
0.00102863
0.00413911
0.00736619
0.0106988
0.0141252
0.0176332
0.02121
0.0248426
0.0285178
0.0322215
0.0359389
0.0396544
0.0433523
0.0470163
0.05063
0.0541762
0.0576372
0.060995
0.0642314
0.0673282
0.0702668
0.0730288
0.0755955
0.0779486
0.0800702
0.0819428
0.0835495
0.084874
0.085901
0.086616
0.0870057
0.087058
0.0867622
0.0861089
0.0850905
0.0837011
0.0819362
0.0797932
0.077271
0.0743702
0.0710931
0.0674438
0.0634253
0.0590422
0.0543368
0.0493467
0.0436074
0.0367314
0.0209564
0.0138984
0.00808627
0.00311165
-0.00152072
-0.00578482
-0.00965003
-0.0131245
-0.0162178
-0.0189379
-0.0212933
-0.0232931
-0.0249471
-0.0262655
-0.0272585
-0.0279366
-0.0283103
-0.0283898
-0.0281855
-0.0277076
-0.0269662
-0.0259717
-0.0247343
-0.0232641
-0.021571
-0.0196647
-0.0175549
-0.015251
-0.0127628
-0.0101007
-0.00727477
-0.00429518
-0.00117248
0.00208238
0.00545837
0.0089443
0.0125284
0.0161983
0.019941
0.0237436
0.0275923
0.0314732
0.0353709
0.0392698
0.0431537
0.047006
0.0508097
0.0545472
0.0582001
0.0617498
0.0651773
0.0684635
0.0715889
0.074534
0.0772792
0.0798049
0.082092
0.0841216
0.0858756
0.0873364
0.0884872
0.0893123
0.0897969
0.0899276
0.0896922
0.0890803
0.0880831
0.0866937
0.0849068
0.0827189
0.0801284
0.0771355
0.0737424
0.069953
0.0657703
0.0611992
0.056284
0.0510646
0.0450536
0.0378454
0.018419
0.0110743
0.00503089
-0.000136032
-0.00494222
-0.0093606
-0.0133594
-0.0169475
-0.0201353
-0.0229312
-0.0253445
-0.0273853
-0.0290641
-0.0303921
-0.0313804
-0.0320403
-0.0323833
-0.0324203
-0.0321624
-0.0316207
-0.030806
-0.0297294
-0.0284016
-0.0268333
-0.0250347
-0.0230163
-0.0207878
-0.0183591
-0.0157403
-0.012942
-0.00997462
-0.00684835
-0.00357395
-0.000162485
0.00337489
0.00702689
0.0107817
0.0146267
0.0185489
0.0225351
0.0265716
0.030644
0.0347369
0.0388343
0.0429196
0.046976
0.050986
0.0549313
0.058793
0.0625517
0.0661877
0.069681
0.073011
0.0761573
0.079099
0.0818155
0.084286
0.0864906
0.0884096
0.0900239
0.0913153
0.0922667
0.0928616
0.0930852
0.092924
0.0923662
0.0914016
0.0900223
0.0882221
0.0859966
0.0833435
0.0802625
0.0767556
0.0728267
0.0684786
0.0637165
0.0585868
0.0531315
0.0468395
0.0392864
0.0154627
0.00782496
0.00154594
-0.00381605
-0.00879764
-0.0133708
-0.0175028
-0.0212031
-0.0244828
-0.027351
-0.0298179
-0.0318945
-0.0335923
-0.0349232
-0.0358996
-0.0365336
-0.0368375
-0.0368231
-0.0365026
-0.0358875
-0.0349896
-0.0338206
-0.0323919
-0.0307147
-0.0287999
-0.0266581
-0.0242997
-0.0217348
-0.0189739
-0.0160277
-0.0129069
-0.0096219
-0.00618354
-0.00260301
0.00110843
0.0049394
0.00887798
0.0129115
0.0170269
0.0212107
0.0254493
0.0297279
0.0340309
0.0383422
0.0426447
0.0469214
0.0511543
0.0553244
0.0594123
0.0633978
0.0672604
0.0709792
0.0745326
0.077899
0.0810564
0.0839827
0.086656
0.0890547
0.0911575
0.092944
0.0943943
0.0954894
0.0962116
0.0965443
0.0964723
0.0959825
0.0950634
0.0937056
0.0919019
0.089647
0.0869379
0.0837736
0.0801559
0.0760883
0.0715738
0.0666175
0.0612683
0.0555701
0.0489874
0.0410759
0.0120657
0.0041282
-0.00239111
-0.00795109
-0.0131098
-0.0178384
-0.022103
-0.0259137
-0.0292824
-0.0322191
-0.0347348
-0.0368414
-0.0385515
-0.0398782
-0.0408347
-0.0414341
-0.0416897
-0.0416145
-0.0412212
-0.0405225
-0.0395307
-0.0382584
-0.0367177
-0.0349202
-0.0328775
-0.0306007
-0.0281006
-0.0253876
-0.0224726
-0.0193664
-0.01608
-0.0126239
-0.00900901
-0.00524674
-0.00134837
0.00267465
0.00681033
0.011046
0.0153683
0.019764
0.024219
0.0287186
0.0332471
0.0377879
0.0423238
0.0468373
0.05131
0.0557224
0.0600544
0.0642851
0.0683932
0.0723566
0.076153
0.0797594
0.0831526
0.0863092
0.0892057
0.0918189
0.0941259
0.0961046
0.0977333
0.0989914
0.0998593
0.100319
0.100353
0.0999464
0.0990869
0.0977635
0.0959675
0.0936926
0.0909349
0.087693
0.0839679
0.0797631
0.0750813
0.0699278
0.0643539
0.0584056
0.0515218
0.0432374
0.00820513
-3.96215e-05
-0.00680427
-0.0125654
-0.0179031
-0.0227876
-0.0271841
-0.0311033
-0.0345577
-0.0375585
-0.0401174
-0.0422476
-0.0439628
-0.0452771
-0.0462047
-0.0467601
-0.0469575
-0.0468108
-0.0463339
-0.0455403
-0.0444432
-0.0430558
-0.0413911
-0.0394613
-0.0372785
-0.0348544
-0.0322003
-0.0293268
-0.0262451
-0.0229665
-0.0195018
-0.0158619
-0.0120578
-0.00810087
-0.00400252
0.000225772
0.00457198
0.00902336
0.0135667
0.0181884
0.0228745
0.0276102
0.0323795
0.0371656
0.0419513
0.0467185
0.0514484
0.056121
0.0607155
0.0652104
0.0695833
0.0738114
0.0778712
0.0817385
0.0853889
0.0887973
0.0919387
0.0947882
0.0973212
0.0995136
0.101342
0.102784
0.103818
0.104423
0.104581
0.104276
0.103492
0.102217
0.100441
0.0981571
0.0953597
0.0920466
0.0882184
0.0838784
0.0790289
0.0736754
0.0678715
0.0616656
0.0544696
0.0457968
0.00385645
-0.00470356
-0.011719
-0.0176845
-0.0232033
-0.0282444
-0.0327718
-0.0367969
-0.0403334
-0.0433931
-0.0459892
-0.0481359
-0.0498479
-0.0511407
-0.0520297
-0.0525305
-0.0526586
-0.0524291
-0.0518567
-0.050956
-0.049741
-0.0482259
-0.0464243
-0.0443493
-0.0420136
-0.0394293
-0.0366081
-0.0335612
-0.0303
-0.0268359
-0.02318
-0.0193433
-0.0153369
-0.0111722
-0.00686067
-0.00241376
0.0021565
0.00683738
0.0116156
0.0164778
0.0214097
0.0263966
0.0314223
0.0364699
0.0415218
0.0465598
0.0515646
0.0565157
0.0613916
0.0661702
0.0708282
0.0753418
0.0796864
0.0838365
0.0877664
0.0914494
0.0948588
0.0979678
0.10075
0.10318
0.105231
0.106879
0.108101
0.108873
0.109176
0.10899
0.108299
0.107089
0.105348
0.103066
0.100239
0.0968625
0.0929365
0.0884639
0.0834467
0.0778906
0.0718515
0.0653802
0.0578603
0.0487826
-0.00100589
-0.0098899
-0.0171621
-0.0233358
-0.0290378
-0.0342359
-0.0388929
-0.043021
-0.0466353
-0.0497484
-0.0523748
-0.0545298
-0.0562295
-0.0574906
-0.0583301
-0.0587648
-0.0588115
-0.0584864
-0.0578056
-0.0567844
-0.0554381
-0.0537816
-0.0518295
-0.0495956
-0.0470932
-0.0443351
-0.0413333
-0.0380994
-0.0346451
-0.0309821
-0.0271217
-0.0230749
-0.0188529
-0.0144672
-0.00992907
-0.00525007
-0.000442119
0.0044821
0.0095094
0.0146263
0.0198189
0.0250721
0.0303698
0.0356951
0.0410301
0.0463563
0.051654
0.0569022
0.062079
0.0671613
0.0721253
0.0769459
0.0815975
0.0860534
0.0902863
0.0942679
0.0979697
0.101363
0.10442
0.107111
0.10941
0.111289
0.112722
0.113685
0.114155
0.11411
0.113532
0.112404
0.110712
0.108448
0.105602
0.102171
0.0981535
0.0935517
0.0883675
0.0826064
0.0763269
0.069582
0.0617257
0.0522255
-0.00640884
-0.0156264
-0.0231619
-0.0295478
-0.0354351
-0.0407905
-0.0455755
-0.0498037
-0.0534908
-0.056651