/*--------------------------------*- C++ -*----------------------------------*\
  =========                 |
  \\      /  F ield         | OpenFOAM: The Open Source CFD Toolbox
   \\    /   O peration     | Website:  https://openfoam.org
    \\  /    A nd           | Version:  7
     \\/     M anipulation  |
\*---------------------------------------------------------------------------*/
FoamFile
{
    version     2.0;
    format      ascii;
    class       surfaceScalarField;
    location    "0.075";
    object      phi;
}
// * * * * * * * * * * * * * * * * * * * * * * * * * * * * * * * * * * * * * //

dimensions      [0 3 -1 0 0 0 0];

internalField   nonuniform List<scalar> 
12640
(
1.83326e-10
-1.87131e-10
5.36972e-10
-3.53645e-10
8.51906e-10
-3.14926e-10
1.00715e-09
-1.5525e-10
9.43381e-10
6.37564e-11
6.34945e-10
3.0845e-10
7.55043e-11
5.59431e-10
-7.29802e-10
8.05322e-10
-1.7691e-09
1.0393e-09
-3.02636e-09
1.25727e-09
-4.48317e-09
1.45681e-09
-6.11974e-09
1.63656e-09
-7.91562e-09
1.79585e-09
-9.85002e-09
1.9344e-09
-1.19022e-08
2.0522e-09
-1.40517e-08
2.14951e-09
-1.62785e-08
2.22676e-09
-1.85629e-08
2.28446e-09
-2.08862e-08
2.32323e-09
-2.32299e-08
2.34371e-09
-2.55765e-08
2.34664e-09
-2.79093e-08
2.33274e-09
-3.0212e-08
2.30274e-09
-3.24695e-08
2.25746e-09
-3.46671e-08
2.19767e-09
-3.67912e-08
2.12409e-09
-3.88288e-08
2.03752e-09
-4.07676e-08
1.93882e-09
-4.25964e-08
1.82878e-09
-4.43046e-08
1.70821e-09
-4.58825e-08
1.57793e-09
-4.73213e-08
1.4388e-09
-4.8613e-08
1.29166e-09
-4.97503e-08
1.13731e-09
-5.07269e-08
9.76594e-10
-5.15372e-08
8.10361e-10
-5.21767e-08
6.39468e-10
-5.26415e-08
4.64764e-10
-5.29286e-08
2.87115e-10
-5.3036e-08
1.07432e-10
-5.29627e-08
-7.3334e-11
-5.27085e-08
-2.54225e-10
-5.22742e-08
-4.34291e-10
-5.16616e-08
-6.12576e-10
-5.08735e-08
-7.88097e-10
-4.99137e-08
-9.59842e-10
-4.87869e-08
-1.12678e-09
-4.7499e-08
-1.2879e-09
-4.60568e-08
-1.44217e-09
-4.44682e-08
-1.58859e-09
-4.27421e-08
-1.7261e-09
-4.08884e-08
-1.85366e-09
-3.89182e-08
-1.9702e-09
-3.68436e-08
-2.07467e-09
-3.46775e-08
-2.16605e-09
-3.24341e-08
-2.24337e-09
-3.01284e-08
-2.30569e-09
-2.77763e-08
-2.35211e-09
-2.53946e-08
-2.38174e-09
-2.30008e-08
-2.39376e-09
-2.06134e-08
-2.38739e-09
-1.82515e-08
-2.36194e-09
-1.59347e-08
-2.3168e-09
-1.36832e-08
-2.25146e-09
-1.15177e-08
-2.16555e-09
-9.45883e-09
-2.05883e-09
-7.52763e-09
-1.9312e-09
-5.74484e-09
-1.78278e-09
-4.13089e-09
-1.61394e-09
-2.70549e-09
-1.42538e-09
-1.4872e-09
-1.21828e-09
-4.92686e-10
-9.9451e-10
2.64277e-10
-7.56962e-10
7.74464e-10
-5.10185e-10
1.0359e-09
-2.61433e-10
1.05845e-09
-2.2551e-11
8.71503e-10
1.86942e-10
5.37767e-10
3.33723e-10
1.7944e-10
3.58325e-10
1.79443e-10
3.52735e-10
-5.39893e-10
8.52392e-10
-8.53322e-10
1.16603e-09
-6.28567e-10
1.08006e-09
-6.92279e-11
4.62608e-10
6.81201e-10
-7.56599e-10
1.52765e-09
-2.60501e-09
2.40781e-09
-5.08102e-09
3.28131e-09
-8.16361e-09
4.12189e-09
-1.18188e-08
4.91244e-09
-1.60039e-08
5.64192e-09
-2.06707e-08
6.30339e-09
-2.57675e-08
6.89266e-09
-3.12406e-08
7.40752e-09
-3.70354e-08
7.84706e-09
-4.30973e-08
8.21141e-09
-4.93721e-08
8.50147e-09
-5.58064e-08
8.71873e-09
-6.23482e-08
8.86504e-09
-6.8947e-08
8.94253e-09
-7.55539e-08
8.9536e-09
-8.2122e-08
8.90084e-09
-8.86063e-08
8.78696e-09
-9.49636e-08
8.61475e-09
-1.01153e-07
8.38707e-09
-1.07136e-07
8.10683e-09
-1.12875e-07
7.77704e-09
-1.18337e-07
7.40073e-09
-1.23489e-07
6.98098e-09
-1.28302e-07
6.52088e-09
-1.32748e-07
6.02359e-09
-1.36801e-07
5.49227e-09
-1.4044e-07
4.9301e-09
-1.43643e-07
4.3403e-09
-1.46392e-07
3.7261e-09
-1.48672e-07
3.09076e-09
-1.50471e-07
2.43758e-09
-1.51776e-07
1.7699e-09
-1.5258e-07
1.09114e-09
-1.52877e-07
4.04778e-10
-1.52665e-07
-2.85597e-10
-1.51943e-07
-9.76357e-10
-1.50713e-07
-1.66383e-09
-1.48981e-07
-2.34429e-09
-1.46756e-07
-3.01396e-09
-1.44046e-07
-3.66899e-09
-1.40868e-07
-4.30551e-09
-1.37236e-07
-4.9196e-09
-1.33171e-07
-5.50733e-09
-1.28695e-07
-6.06476e-09
-1.23833e-07
-6.58792e-09
-1.18614e-07
-7.07285e-09
-1.13068e-07
-7.51561e-09
-1.07231e-07
-7.9123e-09
-1.01138e-07
-8.25914e-09
-9.48284e-08
-8.55243e-09
-8.83455e-08
-8.78866e-09
-8.17331e-08
-8.96445e-09
-7.50382e-08
-9.07662e-09
-6.83098e-08
-9.12219e-09
-6.15987e-08
-9.09844e-09
-5.49577e-08
-9.00299e-09
-4.84406e-08
-8.83381e-09
-4.21028e-08
-8.5893e-09
-3.6e-08
-8.2684e-09
-3.01882e-08
-7.87062e-09
-2.47232e-08
-7.39623e-09
-1.96596e-08
-6.84636e-09
-1.50502e-08
-6.22333e-09
-1.09447e-08
-5.53091e-09
-7.38804e-09
-4.7749e-09
-4.41862e-09
-3.96391e-09
-2.06497e-09
-3.11059e-09
-3.41591e-10
-2.23353e-09
7.57282e-10
-1.36028e-09
1.26689e-09
-5.32145e-10
1.26515e-09
1.88699e-10
8.89948e-10
7.08931e-10
3.58363e-10
8.89912e-10
5.3781e-10
3.15009e-10
-8.5488e-10
6.32401e-10
-1.17069e-09
5.71809e-10
-5.67994e-10
-1.16712e-10
6.19301e-10
-1.59657e-09
2.16108e-09
-3.96223e-09
3.89331e-09
-7.25558e-09
5.70118e-09
-1.14798e-08
7.5055e-09
-1.66098e-08
9.25195e-09
-2.26007e-08
1.09033e-08
-2.93932e-08
1.24344e-08
-3.69183e-08
1.38284e-08
-4.51003e-08
1.50747e-08
-5.38594e-08
1.61666e-08
-6.31134e-08
1.71011e-08
-7.27793e-08
1.78773e-08
-8.27739e-08
1.84961e-08
-9.3015e-08
1.89598e-08
-1.03422e-07
1.92717e-08
-1.13915e-07
1.9436e-08
-1.24419e-07
1.94574e-08
-1.34859e-07
1.93412e-08
-1.45165e-07
1.90927e-08
-1.55268e-07
1.8718e-08
-1.65104e-07
1.82231e-08
-1.74612e-07
1.76141e-08
-1.83732e-07
1.68975e-08
-1.92411e-07
1.60799e-08
-2.00598e-07
1.51678e-08
-2.08245e-07
1.41679e-08
-2.15308e-07
1.3087e-08
-2.21748e-07
1.1932e-08
-2.27528e-07
1.07098e-08
-2.32615e-07
9.42738e-09
-2.36981e-07
8.09187e-09
-2.406e-07
6.71037e-09
-2.43453e-07
5.29014e-09
-2.45521e-07
3.83853e-09
-2.46793e-07
2.36301e-09
-2.4726e-07
8.71213e-10
-2.46916e-07
-6.29103e-10
-2.45763e-07
-2.13005e-09
-2.43803e-07
-3.62361e-09
-2.41045e-07
-5.10167e-09
-2.37503e-07
-6.55598e-09
-2.33194e-07
-7.9782e-09
-2.2814e-07
-9.35991e-09
-2.22367e-07
-1.06926e-08
-2.15906e-07
-1.19677e-08
-2.08794e-07
-1.31768e-08
-2.01071e-07
-1.43111e-08
-1.92782e-07
-1.53622e-08
-1.83976e-07
-1.63217e-08
-1.74707e-07
-1.71812e-08
-1.65033e-07
-1.79326e-08
-1.55018e-07
-1.85682e-08
-1.44726e-07
-1.90803e-08
-1.34229e-07
-1.94618e-08
-1.23599e-07
-1.97061e-08
-1.12914e-07
-1.98069e-08
-1.02254e-07
-1.97589e-08
-9.16999e-08
-1.9557e-08
-8.13362e-08
-1.91975e-08
-7.12481e-08
-1.86774e-08
-6.15215e-08
-1.7995e-08
-5.22423e-08
-1.71499e-08
-4.34949e-08
-1.61436e-08
-3.53617e-08
-1.49795e-08
-2.79211e-08
-1.36639e-08
-2.12458e-08
-1.22063e-08
-1.54001e-08
-1.06206e-08
-1.04371e-08
-8.9269e-09
-6.39413e-09
-7.1536e-09
-3.28692e-09
-5.34074e-09
-1.10223e-09
-3.54499e-09
2.12424e-10
-1.84682e-09
7.61797e-10
-3.60674e-10
7.17898e-10
7.52831e-10
3.36649e-10
1.27115e-09
8.74466e-10
1.61028e-10
-1.01593e-09
8.73384e-11
-1.09699e-09
-5.92027e-10
1.11374e-10
-2.12967e-09
2.15693e-09
-4.69476e-09
4.72618e-09
-8.38861e-09
7.58716e-09
-1.32578e-08
1.05703e-08
-1.93061e-08
1.35539e-08
-2.65049e-08
1.64507e-08
-3.48005e-08
1.9199e-08
-4.41212e-08
2.17551e-08
-5.43819e-08
2.40891e-08
-6.5488e-08
2.61807e-08
-7.73386e-08
2.80172e-08
-8.98289e-08
2.95915e-08
-1.02852e-07
3.09004e-08
-1.163e-07
3.19444e-08
-1.30067e-07
3.27261e-08
-1.44045e-07
3.32505e-08
-1.58133e-07
3.35236e-08
-1.72228e-07
3.35529e-08
-1.86234e-07
3.33469e-08
-2.00056e-07
3.29146e-08
-2.13604e-07
3.22657e-08
-2.26791e-07
3.14104e-08
-2.39536e-07
3.03592e-08
-2.51762e-07
2.91229e-08
-2.63394e-07
2.77126e-08
-2.74366e-07
2.61395e-08
-2.84614e-07
2.44152e-08
-2.94078e-07
2.25513e-08
-3.02706e-07
2.05597e-08
-3.10448e-07
1.84521e-08
-3.17261e-07
1.62407e-08
-3.23107e-07
1.39378e-08
-3.27953e-07
1.15557e-08
-3.31769e-07
9.10694e-09
-3.34535e-07
6.60429e-09
-3.36233e-07
4.06073e-09
-3.36851e-07
1.48941e-09
-3.36384e-07
-1.09627e-09
-3.34831e-07
-3.6827e-09
-3.32199e-07
-6.25605e-09
-3.28498e-07
-8.8023e-09
-3.23747e-07
-1.13073e-08
-3.17969e-07
-1.37566e-08
-3.11193e-07
-1.61357e-08
-3.03455e-07
-1.843e-08
-2.94798e-07
-2.06249e-08
-2.85269e-07
-2.27057e-08
-2.74923e-07
-2.46576e-08
-2.63819e-07
-2.64662e-08
-2.52023e-07
-2.81171e-08
-2.39608e-07
-2.95961e-08
-2.26652e-07
-3.08895e-08
-2.13236e-07
-3.1984e-08
-1.99449e-07
-3.28671e-08
-1.85384e-07
-3.35265e-08
-1.71139e-07
-3.39514e-08
-1.56814e-07
-3.41313e-08
-1.42516e-07
-3.40574e-08
-1.28351e-07
-3.3722e-08
-1.14429e-07
-3.3119e-08
-1.00863e-07
-3.2244e-08
-8.77628e-08
-3.1095e-08
-7.52402e-08
-2.96725e-08
-6.34038e-08
-2.798e-08
-5.23585e-08
-2.60248e-08
-4.22035e-08
-2.38189e-08
-3.30297e-08
-2.138e-08
-2.49167e-08
-1.87336e-08
-1.79287e-08
-1.59149e-08
-1.21098e-08
-1.29725e-08
-7.47799e-09
-9.97258e-09
-4.01711e-09
-7.00586e-09
-1.66788e-09
-4.19605e-09
-3.16508e-10
-1.71204e-09
2.17571e-10
2.18754e-10
1.96551e-10
1.29216e-09
1.07102e-09
-5.04414e-11
-9.65484e-10
-6.44557e-10
-5.02855e-10
-2.10561e-09
1.57241e-09
-4.66342e-09
4.71477e-09
-8.47453e-09
8.53729e-09
-1.36334e-08
1.2746e-08
-2.01822e-08
1.71191e-08
-2.81205e-08
2.14921e-08
-3.74133e-08
2.57435e-08
-4.79987e-08
2.97844e-08
-5.97939e-08
3.35504e-08
-7.27004e-08
3.69956e-08
-8.6608e-08
4.00883e-08
-1.01398e-07
4.28076e-08
-1.16948e-07
4.51407e-08
-1.33129e-07
4.70815e-08
-1.49813e-07
4.86288e-08
-1.66872e-07
4.97855e-08
-1.84179e-07
5.05574e-08
-2.01609e-07
5.09529e-08
-2.19038e-07
5.09824e-08
-2.36349e-07
5.06578e-08
-2.53427e-07
4.99922e-08
-2.70161e-07
4.89997e-08
-2.86446e-07
4.76955e-08
-3.02181e-07
4.6095e-08
-3.17273e-07
4.42144e-08
-3.31631e-07
4.20703e-08
-3.45171e-07
3.96796e-08
-3.57815e-07
3.70597e-08
-3.69492e-07
3.42281e-08
-3.80135e-07
3.12027e-08
-3.89685e-07
2.80015e-08
-3.98087e-07
2.4643e-08
-4.05294e-07
2.11455e-08
-4.11267e-07
1.75281e-08
-4.1597e-07
1.38098e-08
-4.19376e-07
1.00101e-08
-4.21463e-07
6.1486e-09
-4.22219e-07
2.2454e-09
-4.21637e-07
-1.67915e-09
-4.19715e-07
-5.60438e-09
-4.16462e-07
-9.50931e-09
-4.11891e-07
-1.33727e-08
-4.06026e-07
-1.7173e-08
-3.98894e-07
-2.08883e-08
-3.90533e-07
-2.44969e-08
-3.80986e-07
-2.79765e-08
-3.70306e-07
-3.13051e-08
-3.58551e-07
-3.44604e-08
-3.45789e-07
-3.74203e-08
-3.32092e-07
-4.0163e-08
-3.17542e-07
-4.26669e-08
-3.02227e-07
-4.49109e-08
-2.86242e-07
-4.68744e-08
-2.69689e-07
-4.85377e-08
-2.52674e-07
-4.98819e-08
-2.35311e-07
-5.08893e-08
-2.17719e-07
-5.15435e-08
-2.00021e-07
-5.18296e-08
-1.82343e-07
-5.17348e-08
-1.64817e-07
-5.12481e-08
-1.47575e-07
-5.03611e-08
-1.30751e-07
-4.90683e-08
-1.14478e-07
-4.73678e-08
-9.88893e-08
-4.52613e-08
-8.41136e-08
-4.27556e-08
-7.02753e-08
-3.98632e-08
-5.74906e-08
-3.66035e-08
-4.58659e-08
-3.30047e-08
-3.54935e-08
-2.91061e-08
-2.64475e-08
-2.49608e-08
-1.87795e-08
-2.06405e-08
-1.2512e-08
-1.62401e-08
-7.6317e-09
-1.18861e-08
-4.0819e-09
-7.74584e-09
-1.75329e-09
-4.04064e-09
-4.74853e-10
-1.05967e-09
-3.09979e-12
8.20394e-10
1.06792e-09
-2.87688e-10
-6.77807e-10
-1.47535e-09
6.84835e-10
-3.81959e-09
3.91664e-09
-7.51033e-09
8.4055e-09
-1.26782e-08
1.37052e-08
-1.94004e-08
1.94682e-08
-2.77068e-08
2.54256e-08
-3.75872e-08
3.13725e-08
-4.89973e-08
3.71536e-08
-6.18655e-08
4.26526e-08
-7.60982e-08
4.7783e-08
-9.15844e-08
5.24818e-08
-1.082e-07
5.6704e-08
-1.25812e-07
6.04193e-08
-1.44279e-07
6.36082e-08
-1.63458e-07
6.62604e-08
-1.83202e-07
6.83727e-08
-2.03364e-07
6.99472e-08
-2.23797e-07
7.09907e-08
-2.44358e-07
7.15138e-08
-2.64905e-07
7.15297e-08
-2.85302e-07
7.10541e-08
-3.05414e-07
7.01046e-08
-3.25114e-07
6.87002e-08
-3.4428e-07
6.68615e-08
-3.62795e-07
6.46096e-08
-3.80548e-07
6.19669e-08
-3.97434e-07
5.89563e-08
-4.13355e-07
5.56012e-08
-4.28221e-07
5.19257e-08
-4.41947e-07
4.79542e-08
-4.54456e-07
4.37118e-08
-4.65678e-07
3.92235e-08
-4.7555e-07
3.45152e-08
-4.84018e-07
2.96128e-08
-4.91032e-07
2.45427e-08
-4.96554e-07
1.93318e-08
-5.00551e-07
1.40073e-08
-5.03e-07
8.59679e-09
-5.03883e-07
3.12841e-09
-5.03192e-07
-2.36934e-09
-5.00929e-07
-7.8675e-09
-4.97102e-07
-1.33367e-08
-4.91727e-07
-1.87473e-08
-4.84831e-07
-2.4069e-08
-4.76448e-07
-2.92715e-08
-4.66621e-07
-3.43242e-08
-4.55401e-07
-3.91962e-08
-4.4285e-07
-4.38566e-08
-4.29036e-07
-4.82746e-08
-4.14036e-07
-5.24195e-08
-3.97938e-07
-5.6261e-08
-3.80836e-07
-5.97691e-08
-3.62832e-07
-6.29147e-08
-3.44037e-07
-6.56694e-08
-3.24569e-07
-6.8006e-08
-3.04552e-07
-6.98986e-08
-2.84119e-07
-7.13231e-08
-2.63405e-07
-7.22571e-08
-2.42554e-07
-7.26807e-08
-2.21712e-07
-7.25764e-08
-2.0103e-07
-7.19301e-08
-1.8066e-07
-7.0731e-08
-1.60756e-07
-6.89726e-08
-1.4147e-07
-6.66534e-08
-1.22955e-07
-6.37772e-08
-1.05355e-07
-6.03549e-08
-8.88134e-08
-5.64051e-08
-7.34605e-08
-5.19563e-08
-5.94165e-08
-4.70487e-08
-4.67856e-08
-4.1737e-08
-3.56523e-08
-3.60941e-08
-2.60769e-08
-3.02158e-08
-1.80901e-08
-2.42269e-08
-1.16871e-08
-1.82891e-08
-6.82146e-09
-1.26115e-08
-3.39889e-09
-7.46321e-09
-1.27115e-09
-3.1874e-09
-2.30379e-10
-2.20391e-10
8.37536e-10
-5.33649e-10
-1.44188e-10
-2.35046e-09
2.50169e-09
-5.63452e-09
7.20068e-09
-1.05266e-08
1.32976e-08
-1.71224e-08
2.03011e-08
-2.54741e-08
2.78198e-08
-3.55926e-08
3.55442e-08
-4.74531e-08
4.32329e-08
-6.09986e-08
5.06992e-08
-7.61459e-08
5.77999e-08
-9.27892e-08
6.44264e-08
-1.10806e-07
7.04981e-08
-1.30058e-07
7.59564e-08
-1.50399e-07
8.07603e-08
-1.71674e-07
8.4883e-08
-1.93723e-07
8.83093e-08
-2.16383e-07
9.10331e-08
-2.39492e-07
9.30557e-08
-2.62885e-07
9.43846e-08
-2.86404e-07
9.50322e-08
-3.09889e-07
9.50148e-08
-3.33187e-07
9.4352e-08
-3.56149e-07
9.30661e-08
-3.7863e-07
9.11815e-08
-4.00493e-07
8.87245e-08
-4.21606e-07
8.57229e-08
-4.41845e-07
8.22054e-08
-4.61091e-07
7.82022e-08
-4.79233e-07
7.3744e-08
-4.9617e-07
6.88624e-08
-5.11806e-07
6.35896e-08
-5.26052e-07
5.79586e-08
-5.38831e-07
5.20026e-08
-5.50072e-07
4.57556e-08
-5.59711e-07
3.92521e-08
-5.67695e-07
3.2527e-08
-5.73979e-07
2.5616e-08
-5.78527e-07
1.8555e-08
-5.81311e-07
1.13808e-08
-5.82313e-07
4.13053e-09
-5.81525e-07
-3.15805e-09
-5.78946e-07
-1.04466e-08
-5.74586e-07
-1.76963e-08
-5.68466e-07
-2.48677e-08
-5.60613e-07
-3.19211e-08
-5.51069e-07
-3.88164e-08
-5.3988e-07
-4.5513e-08
-5.27105e-07
-5.19704e-08
-5.12814e-07
-5.81477e-08
-4.97084e-07
-6.40045e-08
-4.80003e-07
-6.95005e-08
-4.61669e-07
-7.45956e-08
-4.42187e-07
-7.92508e-08
-4.21674e-07
-8.34277e-08
-4.00254e-07
-8.70895e-08
-3.78059e-07
-9.02006e-08
-3.55231e-07
-9.27273e-08
-3.31915e-07
-9.46384e-08
-3.08267e-07
-9.59051e-08
-2.84446e-07
-9.65018e-08
-2.60616e-07
-9.64065e-08
-2.36945e-07
-9.56013e-08
-2.13602e-07
-9.40733e-08
-1.9076e-07
-9.18151e-08
-1.68588e-07
-8.88258e-08
-1.47253e-07
-8.51121e-08
-1.26918e-07
-8.06893e-08
-1.0774e-07
-7.55835e-08
-8.98633e-08
-6.98329e-08
-7.34213e-08
-6.34907e-08
-5.85303e-08
-5.66281e-08
-4.52861e-08
-4.93384e-08
-3.376e-08
-4.17418e-08
-2.39945e-08
-3.39924e-08
-1.59982e-08
-2.62855e-08
-9.7415e-09
-1.88681e-08
-5.1529e-09
-1.20518e-08
-2.11587e-09
-6.22443e-09
-4.67747e-10
-1.86852e-09
3.69788e-10
-7.78995e-10
6.34795e-10
-3.23704e-09
4.95973e-09
-7.48692e-09
1.14506e-08
-1.36164e-08
1.9427e-08
-2.1681e-08
2.83657e-08
-3.17022e-08
3.7841e-08
-4.36675e-08
4.75095e-08
-5.75328e-08
5.70982e-08
-7.32254e-08
6.63918e-08
-9.06478e-08
7.52223e-08
-1.09681e-07
8.346e-08
-1.3019e-07
9.10068e-08
-1.52024e-07
9.77902e-08
-1.75022e-07
1.03759e-07
-1.99017e-07
1.08877e-07
-2.23833e-07
1.13126e-07
-2.49296e-07
1.16495e-07
-2.75225e-07
1.18985e-07
-3.01444e-07
1.20604e-07
-3.27777e-07
1.21365e-07
-3.54051e-07
1.21289e-07
-3.80098e-07
1.20399e-07
-4.05753e-07
1.18722e-07
-4.3086e-07
1.16288e-07
-4.55265e-07
1.1313e-07
-4.78825e-07
1.09283e-07
-5.01401e-07
1.04782e-07
-5.22864e-07
9.96653e-08
-5.43092e-07
9.3972e-08
-5.61971e-07
8.77417e-08
-5.79397e-07
8.10151e-08
-5.95272e-07
7.38338e-08
-6.0951e-07
6.62402e-08
-6.22032e-07
5.82774e-08
-6.32769e-07
4.9989e-08
-6.41661e-07
4.14197e-08
-6.4866e-07
3.26146e-08
-6.53724e-07
2.36195e-08
-6.56825e-07
1.44811e-08
-6.57941e-07
5.24655e-09
-6.57063e-07
-4.03602e-09
-6.54191e-07
-1.3318e-08
-6.49338e-07
-2.255e-08
-6.42523e-07
-3.16821e-08
-6.3378e-07
-4.06638e-08
-6.23153e-07
-4.94443e-08
-6.10693e-07
-5.79723e-08
-5.96467e-07
-6.61962e-08
-5.80551e-07
-7.40647e-08
-5.63029e-07
-8.15263e-08
-5.43999e-07
-8.85303e-08
-5.23568e-07
-9.50262e-08
-5.01854e-07
-1.00965e-07
-4.78984e-07
-1.06298e-07
-4.55095e-07
-1.10979e-07
-4.30332e-07
-1.14963e-07
-4.0485e-07
-1.1821e-07
-3.7881e-07
-1.20678e-07
-3.52382e-07
-1.22333e-07
-3.2574e-07
-1.23144e-07
-2.99064e-07
-1.23082e-07
-2.72538e-07
-1.22128e-07
-2.46347e-07
-1.20264e-07
-2.20678e-07
-1.17484e-07
-1.95718e-07
-1.13787e-07
-1.71647e-07
-1.09183e-07
-1.48644e-07
-1.03692e-07
-1.26879e-07
-9.73484e-08
-1.06512e-07
-9.02008e-08
-8.76865e-08
-8.23157e-08
-7.05334e-08
-7.37811e-08
-5.51612e-08
-6.47106e-08
-4.16547e-08
-5.52483e-08
-3.00712e-08
-4.55759e-08
-2.04371e-08
-3.59196e-08
-1.27447e-08
-2.65606e-08
-6.95056e-09
-1.78459e-08
-2.97529e-09
-1.01997e-08
-7.05505e-10
-4.13831e-09
-3.35722e-10
-1.01907e-09
1.65386e-09
-4.11618e-09
8.05684e-09
-9.33761e-09
1.6672e-08
-1.67177e-08
2.68071e-08
-2.62695e-08
3.79176e-08
-3.79805e-08
4.9552e-08
-5.18109e-08
6.13398e-08
-6.76941e-08
7.29815e-08
-8.55389e-08
8.42366e-08
-1.05231e-07
9.49147e-08
-1.26638e-07
1.04867e-07
-1.49609e-07
1.13978e-07
-1.73981e-07
1.22162e-07
-1.99581e-07
1.29358e-07
-2.26226e-07
1.35523e-07
-2.5373e-07
1.4063e-07
-2.81902e-07
1.44667e-07
-3.10551e-07
1.47634e-07
-3.39485e-07
1.49538e-07
-3.68516e-07
1.50396e-07
-3.97457e-07
1.5023e-07
-4.26126e-07
1.49068e-07
-4.54346e-07
1.46942e-07
-4.81948e-07
1.43889e-07
-5.08766e-07
1.39948e-07
-5.34645e-07
1.35161e-07
-5.59434e-07
1.29571e-07
-5.82994e-07
1.23225e-07
-6.05192e-07
1.1617e-07
-6.25906e-07
1.08455e-07
-6.45021e-07
1.0013e-07
-6.62432e-07
9.12452e-08
-6.78045e-07
8.18534e-08
-6.91775e-07
7.20076e-08
-7.03548e-07
6.17614e-08
-7.13298e-07
5.11697e-08
-7.20971e-07
4.02882e-08
-7.26525e-07
2.91733e-08
-7.29926e-07
1.78824e-08
-7.31154e-07
6.47374e-09
-7.30196e-07
-4.99354e-09
-7.27055e-07
-1.64595e-08
-7.21741e-07
-2.78635e-08
-7.14279e-07
-3.91441e-08
-7.04704e-07
-5.02393e-08
-6.93062e-07
-6.10864e-08
-6.79411e-07
-7.16225e-08
-6.63823e-07
-8.17844e-08
-6.46379e-07
-9.15091e-08
-6.27171e-07
-1.00734e-07
-6.06306e-07
-1.09395e-07
-5.83899e-07
-1.17433e-07
-5.60077e-07
-1.24787e-07
-5.34979e-07
-1.31397e-07
-5.08751e-07
-1.37207e-07
-4.81551e-07
-1.42163e-07
-4.53546e-07
-1.46214e-07
-4.24912e-07
-1.49313e-07
-3.95829e-07
-1.51416e-07
-3.66488e-07
-1.52485e-07
-3.37081e-07
-1.52489e-07
-3.07806e-07
-1.51402e-07
-2.78865e-07
-1.49206e-07
-2.50457e-07
-1.45891e-07
-2.22784e-07
-1.4146e-07
-1.96041e-07
-1.35925e-07
-1.7042e-07
-1.29312e-07
-1.46106e-07
-1.21663e-07
-1.2327e-07
-1.13037e-07
-1.02072e-07
-1.03513e-07
-8.26564e-08
-9.31972e-08
-6.51452e-08
-8.22218e-08
-4.96396e-08
-7.07539e-08
-3.62149e-08
-5.90006e-08
-2.49183e-08
-4.72162e-08
-1.57679e-08
-3.5711e-08
-8.75165e-09
-2.48622e-08
-3.82977e-09
-1.51216e-08
-9.3863e-10
-7.02945e-09
-1.27436e-09
-1.25165e-09
2.9055e-09
-4.97757e-09
1.17828e-08
-1.11635e-08
2.28579e-08
-1.97922e-08
3.54359e-08
-3.08339e-08
4.89592e-08
-4.424e-08
6.29581e-08
-5.99413e-08
7.70411e-08
-7.78463e-08
9.08865e-08
-9.78426e-08
1.04233e-07
-1.19798e-07
1.1687e-07
-1.43563e-07
1.28631e-07
-1.68972e-07
1.39387e-07
-1.95848e-07
1.49039e-07
-2.24004e-07
1.57514e-07
-2.53246e-07
1.64764e-07
-2.83373e-07
1.70757e-07
-3.14182e-07
1.75476e-07
-3.45469e-07
1.78921e-07
-3.7703e-07
1.811e-07
-4.08664e-07
1.8203e-07
-4.40172e-07
1.81738e-07
-4.7136e-07
1.80256e-07
-5.0204e-07
1.77622e-07
-5.3203e-07
1.73879e-07
-5.61154e-07
1.69072e-07
-5.89244e-07
1.63252e-07
-6.16143e-07
1.5647e-07
-6.417e-07
1.48782e-07
-6.65772e-07
1.40243e-07
-6.88229e-07
1.30912e-07
-7.08948e-07
1.20849e-07
-7.27819e-07
1.10115e-07
-7.44738e-07
9.87728e-08
-7.59616e-07
8.68853e-08
-7.72372e-07
7.45175e-08
-7.82937e-07
6.1735e-08
-7.91254e-07
4.86048e-08
-7.97275e-07
3.51947e-08
-8.00966e-07
2.15737e-08
-8.02304e-07
7.81164e-09
-8.01277e-07
-6.02037e-09
-7.97886e-07
-1.98504e-08
-7.92144e-07
-3.36057e-08
-7.84076e-07
-4.72124e-08
-7.73719e-07
-6.05962e-08
-7.61123e-07
-7.3682e-08
-7.46352e-07
-8.63944e-08
-7.29478e-07
-9.86577e-08
-7.10591e-07
-1.10396e-07
-6.89789e-07
-1.21535e-07
-6.67186e-07
-1.31999e-07
-6.42903e-07
-1.41715e-07
-6.17079e-07
-1.50611e-07
-5.89859e-07
-1.58617e-07
-5.61401e-07
-1.65665e-07
-5.31873e-07
-1.71691e-07
-5.01454e-07
-1.76633e-07
-4.70329e-07
-1.80437e-07
-4.38694e-07
-1.83051e-07
-4.0675e-07
-1.8443e-07
-3.74703e-07
-1.84536e-07
-3.42764e-07
-1.8334e-07
-3.11148e-07
-1.80822e-07
-2.80069e-07
-1.76971e-07
-2.4974e-07
-1.71789e-07
-2.20372e-07
-1.65293e-07
-1.9217e-07
-1.57514e-07
-1.65332e-07
-1.48501e-07
-1.40045e-07
-1.38324e-07
-1.16483e-07
-1.27075e-07
-9.48044e-08
-1.14876e-07
-7.51483e-08
-1.01878e-07
-5.76338e-08
-8.82684e-08
-4.23565e-08
-7.42779e-08
-2.93874e-08
-6.01853e-08
-1.87722e-08
-4.63262e-08
-1.05325e-08
-3.31018e-08
-4.66855e-09
-2.09855e-08
-1.16476e-09
-1.05332e-08
-2.43913e-09
-1.47599e-09
4.3815e-09
-5.81634e-09
1.61231e-08
-1.29522e-08
2.99938e-08
-2.2818e-08
4.53016e-08
-3.53413e-08
6.14826e-08
-5.04377e-08
7.80545e-08
-6.80066e-08
9.46099e-08
-8.793e-08
1.1081e-07
-1.10073e-07
1.26375e-07
-1.34282e-07
1.41079e-07
-1.60391e-07
1.5474e-07
-1.88218e-07
1.67214e-07
-2.17571e-07
1.78392e-07
-2.48249e-07
1.88193e-07
-2.80044e-07
1.96559e-07
-3.12744e-07
2.03456e-07
-3.46132e-07
2.08865e-07
-3.79993e-07
2.12782e-07
-4.1411e-07
2.15217e-07
-4.48271e-07
2.16191e-07
-4.82266e-07
2.15733e-07
-5.1589e-07
2.1388e-07
-5.48942e-07
2.10675e-07
-5.81232e-07
2.06168e-07
-6.12573e-07
2.00413e-07
-6.42789e-07
1.93468e-07
-6.71711e-07
1.85392e-07
-6.9918e-07
1.76251e-07
-7.25047e-07
1.6611e-07
-7.49172e-07
1.55037e-07
-7.71427e-07
1.43103e-07
-7.91691e-07
1.3038e-07
-8.0986e-07
1.16941e-07
-8.25835e-07
1.02861e-07
-8.39532e-07
8.82149e-08
-8.50879e-07
7.30815e-08
-8.59813e-07
5.75389e-08
-8.66286e-07
4.16672e-08
-8.70259e-07
2.55474e-08
-8.7171e-07
9.26195e-09
-8.70624e-07
-7.10568e-09
-8.67004e-07
-2.34708e-08
-8.60862e-07
-3.97477e-08
-8.52225e-07
-5.58497e-08
-8.41132e-07
-7.16892e-08
-8.27636e-07
-8.71781e-08
-8.11802e-07
-1.02228e-07
-7.93711e-07
-1.16749e-07
-7.73453e-07
-1.30654e-07
-7.51136e-07
-1.43853e-07
-7.26875e-07
-1.56259e-07
-7.00804e-07
-1.67787e-07
-6.73064e-07
-1.78351e-07
-6.43812e-07
-1.87869e-07
-6.13214e-07
-1.96263e-07
-5.81448e-07
-2.03457e-07
-5.48701e-07
-2.0938e-07
-5.15172e-07
-2.13966e-07
-4.81066e-07
-2.17157e-07
-4.46595e-07
-2.18901e-07
-4.11979e-07
-2.19152e-07
-3.77441e-07
-2.17878e-07
-3.43208e-07
-2.15055e-07
-3.09507e-07
-2.10672e-07
-2.76565e-07
-2.04731e-07
-2.44606e-07
-1.97252e-07
-2.13849e-07
-1.88271e-07
-1.84506e-07
-1.77844e-07
-1.5678e-07
-1.6605e-07
-1.30858e-07
-1.52997e-07
-1.06917e-07
-1.38817e-07
-8.51138e-08
-1.23681e-07
-6.55868e-08
-1.07795e-07
-4.84541e-08
-9.14106e-08
-3.3812e-08
-7.48274e-08
-2.17356e-08
-5.84026e-08
-1.22806e-08
-4.25569e-08
-5.48657e-09
-2.77796e-08
-1.38308e-09
-1.46367e-08
-3.8222e-09
-1.69218e-09
6.07367e-09
-6.63089e-09
2.10618e-08
-1.46984e-08
3.80613e-08
-2.5784e-08
5.63872e-08
-3.97746e-08
7.54732e-08
-5.65495e-08
9.48294e-08
-7.59766e-08
1.14037e-07
-9.79102e-08
1.32744e-07
-1.2219e-07
1.50656e-07
-1.48644e-07
1.67533e-07
-1.77083e-07
1.8318e-07
-2.07311e-07
1.97442e-07
-2.3912e-07
2.102e-07
-2.72292e-07
2.21365e-07
-3.06608e-07
2.30875e-07
-3.41841e-07
2.38689e-07
-3.77763e-07
2.44787e-07
-4.14147e-07
2.49165e-07
-4.50764e-07
2.51835e-07
-4.87392e-07
2.52819e-07
-5.23809e-07
2.5215e-07
-5.598e-07
2.49871e-07
-5.95156e-07
2.46031e-07
-6.29674e-07
2.40687e-07
-6.63161e-07
2.339e-07
-6.9543e-07
2.25737e-07
-7.26305e-07
2.16267e-07
-7.55619e-07
2.05565e-07
-7.83215e-07
1.93705e-07
-8.08946e-07
1.80768e-07
-8.32677e-07
1.66835e-07
-8.54284e-07
1.51987e-07
-8.73655e-07
1.36311e-07
-8.90687e-07
1.19893e-07
-9.05292e-07
1.0282e-07
-9.17392e-07
8.51823e-08
-9.26925e-07
6.70712e-08
-9.33836e-07
4.85789e-08
-9.38088e-07
2.97995e-08
-9.39655e-07
1.08283e-08
-9.38522e-07
-8.23803e-09
-9.34692e-07
-2.73015e-08
-9.28176e-07
-4.6263e-08
-9.19004e-07
-6.50221e-08
-9.07216e-07
-8.34776e-08
-8.92866e-07
-1.01528e-07
-8.76024e-07
-1.1907e-07
-8.56773e-07
-1.36001e-07
-8.35208e-07
-1.52218e-07
-8.11441e-07
-1.67621e-07
-7.85594e-07
-1.82106e-07
-7.57805e-07
-1.95576e-07
-7.28224e-07
-2.07932e-07
-6.97014e-07
-2.19079e-07
-6.6435e-07
-2.28927e-07
-6.30417e-07
-2.37389e-07
-5.95415e-07
-2.44382e-07
-5.59549e-07
-2.49832e-07
-5.23035e-07
-2.53671e-07
-4.86098e-07
-2.55838e-07
-4.48967e-07
-2.56283e-07
-4.11879e-07
-2.54967e-07
-3.75071e-07
-2.51863e-07
-3.38784e-07
-2.46959e-07
-3.03258e-07
-2.40257e-07
-2.68732e-07
-2.31779e-07
-2.35437e-07
-2.21565e-07
-2.03601e-07
-2.09679e-07
-1.73441e-07
-1.9621e-07
-1.45164e-07
-1.81274e-07
-1.18961e-07
-1.6502e-07
-9.50106e-08
-1.47632e-07
-7.34715e-08
-1.29334e-07
-5.44856e-08
-1.10397e-07
-3.81761e-08
-9.1137e-08
-2.4648e-08
-7.19307e-08
-1.39909e-08
-5.3214e-08
-6.2823e-09
-3.54882e-08
-1.59364e-09
-1.93254e-08
-5.41584e-09
-1.90079e-09
7.97446e-09
-7.42174e-09
2.65828e-08
-1.64014e-08
4.7041e-08
-2.86871e-08
6.86729e-08
-4.4127e-08
9.09131e-08
-6.2565e-08
1.13267e-07
-8.38372e-08
1.35309e-07
-1.0777e-07
1.56676e-07
-1.34177e-07
1.77063e-07
-1.62864e-07
1.96219e-07
-1.93622e-07
2.13938e-07
-2.26237e-07
2.30056e-07
-2.60482e-07
2.44446e-07
-2.96128e-07
2.57011e-07
-3.32938e-07
2.67685e-07
-3.70674e-07
2.76425e-07
-4.09095e-07
2.83208e-07
-4.47962e-07
2.88032e-07
-4.87037e-07
2.90909e-07
-5.26083e-07
2.91865e-07
-5.64871e-07
2.90938e-07
-6.03176e-07
2.88175e-07
-6.40779e-07
2.83634e-07
-6.77469e-07
2.77377e-07
-7.13043e-07
2.69474e-07
-7.47307e-07
2.60001e-07
-7.80078e-07
2.49038e-07
-8.1118e-07
2.36667e-07
-8.40451e-07
2.22976e-07
-8.67738e-07
2.08055e-07
-8.929e-07
1.91996e-07
-9.15807e-07
1.74894e-07
-9.36341e-07
1.56846e-07
-9.54398e-07
1.37949e-07
-9.69883e-07
1.18305e-07
-9.82718e-07
9.80168e-08
-9.92834e-07
7.71871e-08
-1.00018e-06
5.5922e-08
-1.00471e-06
3.43288e-08
-1.00639e-06
1.25163e-08
-1.00523e-06
-9.40526e-09
-1.0012e-06
-3.13239e-08
-9.94341e-07
-5.31265e-08
-9.84664e-07
-7.46986e-08
-9.72217e-07
-9.59248e-08
-9.57056e-07
-1.16689e-07
-9.39253e-07
-1.36873e-07
-9.18892e-07
-1.56361e-07
-8.96074e-07
-1.75036e-07
-8.70914e-07
-1.92781e-07
-8.4354e-07
-2.0948e-07
-8.14095e-07
-2.25021e-07
-7.82734e-07
-2.39292e-07
-7.49628e-07
-2.52186e-07
-7.14958e-07
-2.63597e-07
-6.78919e-07
-2.73428e-07
-6.41716e-07
-2.81585e-07
-6.03566e-07
-2.87982e-07
-5.64695e-07
-2.92542e-07
-5.25336e-07
-2.95196e-07
-4.85732e-07
-2.95887e-07
-4.46128e-07
-2.94571e-07
-4.06776e-07
-2.91215e-07
-3.67928e-07
-2.85807e-07
-3.29838e-07
-2.78347e-07
-2.92758e-07
-2.68859e-07
-2.56935e-07
-2.57388e-07
-2.22612e-07
-2.44003e-07
-1.90022e-07
-2.288e-07
-1.59389e-07
-2.11907e-07
-1.30925e-07
-1.93484e-07
-1.04827e-07
-1.7373e-07
-8.12776e-08
-1.52884e-07
-6.04435e-08
-1.31231e-07
-4.24749e-08
-1.09106e-07
-2.75072e-08
-8.68983e-08
-1.56632e-08
-6.50579e-08
-7.05651e-09
-4.40949e-08
-1.79705e-09
-2.45848e-08
-7.21289e-09
-2.10259e-09
1.00771e-08
-8.1907e-09
3.26709e-08
-1.80633e-08
5.69137e-08
-3.1529e-08
8.21386e-08
-4.83992e-08
1.07783e-07
-6.84832e-08
1.33351e-07
-9.15859e-08
1.58412e-07
-1.17504e-07
1.82595e-07
-1.46028e-07
2.05587e-07
-1.76937e-07
2.27128e-07
-2.10004e-07
2.47005e-07
-2.44992e-07
2.65045e-07
-2.81661e-07
2.81114e-07
-3.19763e-07
2.95113e-07
-3.59049e-07
3.0697e-07
-3.99264e-07
3.16641e-07
-4.40158e-07
3.24102e-07
-4.81478e-07
3.29352e-07
-5.22975e-07
3.32406e-07
-5.64403e-07
3.33294e-07
-6.05523e-07
3.32057e-07
-6.46099e-07
3.28751e-07
-6.85904e-07
3.23439e-07
-7.24719e-07
3.16192e-07
-7.62334e-07
3.07089e-07
-7.98547e-07
2.96214e-07
-8.33167e-07
2.83658e-07
-8.66013e-07
2.69514e-07
-8.96916e-07
2.5388e-07
-9.25719e-07
2.36858e-07
-9.52273e-07
2.18551e-07
-9.76446e-07
1.99067e-07
-9.98114e-07
1.78514e-07
-1.01717e-06
1.57005e-07
-1.03352e-06
1.34651e-07
-1.04707e-06
1.1157e-07
-1.05776e-06
8.78769e-08
-1.06553e-06
6.36923e-08
-1.07034e-06
3.91367e-08
-1.07215e-06
1.4333e-08
-1.07096e-06
-1.05945e-08
-1.06677e-06
-3.55195e-08
-1.05958e-06
-6.03146e-08
-1.04943e-06
-8.48505e-08
-1.03636e-06
-1.08997e-07
-1.02042e-06
-1.32623e-07
-1.0017e-06
-1.55597e-07
-9.80272e-07
-1.77786e-07
-9.56249e-07
-1.99059e-07
-9.29746e-07
-2.19284e-07
-9.00896e-07
-2.38331e-07
-8.69846e-07
-2.56072e-07
-8.36757e-07
-2.72381e-07
-8.01805e-07
-2.87138e-07
-7.65179e-07
-3.00223e-07
-7.2708e-07
-3.11527e-07
-6.87722e-07
-3.20943e-07
-6.4733e-07
-3.28374e-07
-6.06139e-07
-3.33733e-07
-5.64393e-07
-3.36942e-07
-5.22344e-07
-3.37937e-07
-4.80249e-07
-3.36665e-07
-4.38372e-07
-3.33092e-07
-3.96979e-07
-3.272e-07
-3.56335e-07
-3.18991e-07
-3.16708e-07
-3.08487e-07
-2.7836e-07
-2.95736e-07
-2.4155e-07
-2.80813e-07
-2.06528e-07
-2.63821e-07
-1.73538e-07
-2.44897e-07
-1.4281e-07
-2.24211e-07
-1.14565e-07
-2.01975e-07
-8.90077e-08
-1.78441e-07
-6.63305e-08
-1.53908e-07
-4.67117e-08
-1.28724e-07
-3.03168e-08
-1.03293e-07
-1.73007e-08
-7.8074e-08
-7.81138e-09
-5.35842e-08
-1.99421e-09
-3.0402e-08
-9.2071e-09
-2.29845e-09
1.23755e-08
-8.94014e-09
3.93125e-08
-1.96881e-08
6.76616e-08
-3.43148e-08
9.67653e-08
-5.25966e-08
1.26065e-07
-7.43099e-08
1.55065e-07
-9.92282e-08
1.8333e-07
-1.2712e-07
2.10487e-07
-1.57749e-07
2.36216e-07
-1.90871e-07
2.6025e-07
-2.26236e-07
2.8237e-07
-2.63589e-07
3.02398e-07
-3.0267e-07
3.20196e-07
-3.43216e-07
3.35659e-07
-3.84962e-07
3.48716e-07
-4.2764e-07
3.59319e-07
-4.70987e-07
3.67448e-07
-5.14737e-07
3.73102e-07
-5.5863e-07
3.763e-07
-6.02412e-07
3.77075e-07
-6.45831e-07
3.75477e-07
-6.88645e-07
3.71565e-07
-7.30617e-07
3.65411e-07
-7.71522e-07
3.57096e-07
-8.1114e-07
3.46707e-07
-8.49264e-07
3.34338e-07
-8.85696e-07
3.2009e-07
-9.2025e-07
3.04068e-07
-9.52751e-07
2.86381e-07
-9.83036e-07
2.67142e-07
-1.01095e-06
2.46468e-07
-1.03636e-06
2.24478e-07
-1.05914e-06
2.01294e-07
-1.07918e-06
1.7704e-07
-1.09637e-06
1.51842e-07
-1.11063e-06
1.2583e-07
-1.12189e-06
9.91346e-08
-1.13008e-06
7.18886e-08
-1.13517e-06
4.42272e-08
-1.13713e-06
1.62874e-08
-1.13593e-06
-1.17919e-08
-1.13158e-06
-3.98699e-08
-1.12409e-06
-6.78042e-08
-1.11349e-06
-9.54506e-08
-1.09983e-06
-1.22664e-07
-1.08315e-06
-1.49297e-07
-1.06355e-06
-1.75204e-07
-1.0411e-06
-2.00235e-07
-1.01591e-06