/*--------------------------------*- C++ -*----------------------------------*\
  =========                 |
  \\      /  F ield         | OpenFOAM: The Open Source CFD Toolbox
   \\    /   O peration     | Website:  https://openfoam.org
    \\  /    A nd           | Version:  7
     \\/     M anipulation  |
\*---------------------------------------------------------------------------*/
FoamFile
{
    version     2.0;
    format      ascii;
    class       volVectorField;
    location    "0.075";
    object      U;
}
// * * * * * * * * * * * * * * * * * * * * * * * * * * * * * * * * * * * * * //

dimensions      [0 1 -1 0 0 0 0];

internalField   nonuniform List<vector> 
6400
(
(7.0727e-06 -7.08468e-06 0)
(2.87648e-05 -1.39567e-05 0)
(5.72574e-05 -1.36924e-05 0)
(7.76499e-05 -9.37409e-06 0)
(8.21388e-05 -3.26168e-06 0)
(6.75807e-05 3.47848e-06 0)
(3.29283e-05 1.02595e-05 0)
(-2.17771e-05 1.67793e-05 0)
(-9.57847e-05 2.28736e-05 0)
(-0.000187938 2.84661e-05 0)
(-0.000296836 3.35212e-05 0)
(-0.000420932 3.80282e-05 0)
(-0.000558609 4.19894e-05 0)
(-0.000708204 4.5407e-05 0)
(-0.00086805 4.8293e-05 0)
(-0.0010365 5.06633e-05 0)
(-0.00121192 5.25338e-05 0)
(-0.00139274 5.39266e-05 0)
(-0.0015774 5.48595e-05 0)
(-0.00176442 5.5348e-05 0)
(-0.00195236 5.54144e-05 0)
(-0.00213985 5.50806e-05 0)
(-0.00232557 5.43659e-05 0)
(-0.00250827 5.32904e-05 0)
(-0.00268675 5.18726e-05 0)
(-0.00285988 5.01288e-05 0)
(-0.00302658 4.80787e-05 0)
(-0.00318586 4.57442e-05 0)
(-0.00333678 4.31443e-05 0)
(-0.00347846 4.02969e-05 0)
(-0.00361008 3.72225e-05 0)
(-0.00373092 3.39427e-05 0)
(-0.00384028 3.04767e-05 0)
(-0.00393757 2.68417e-05 0)
(-0.00402224 2.30565e-05 0)
(-0.00409382 1.91424e-05 0)
(-0.00415189 1.51202e-05 0)
(-0.00419613 1.10086e-05 0)
(-0.00422625 6.8255e-06 0)
(-0.00424206 2.59141e-06 0)
(-0.00424344 -1.67035e-06 0)
(-0.00423033 -5.93555e-06 0)
(-0.00420276 -1.01813e-05 0)
(-0.00416084 -1.43861e-05 0)
(-0.00410475 -1.85281e-05 0)
(-0.00403475 -2.25845e-05 0)
(-0.00395118 -2.65304e-05 0)
(-0.00385447 -3.03412e-05 0)
(-0.00374512 -3.39925e-05 0)
(-0.00362373 -3.74606e-05 0)
(-0.00349096 -4.07215e-05 0)
(-0.00334756 -4.37504e-05 0)
(-0.00319439 -4.65217e-05 0)
(-0.00303235 -4.90091e-05 0)
(-0.00286246 -5.11875e-05 0)
(-0.00268581 -5.30323e-05 0)
(-0.00250354 -5.45205e-05 0)
(-0.00231692 -5.56301e-05 0)
(-0.00212723 -5.63396e-05 0)
(-0.00193587 -5.66276e-05 0)
(-0.00174427 -5.64737e-05 0)
(-0.00155393 -5.58582e-05 0)
(-0.0013664 -5.47633e-05 0)
(-0.00118328 -5.31732e-05 0)
(-0.00100621 -5.10746e-05 0)
(-0.000836845 -4.84565e-05 0)
(-0.000676855 -4.53108e-05 0)
(-0.000527915 -4.16328e-05 0)
(-0.000391679 -3.74212e-05 0)
(-0.000269763 -3.26806e-05 0)
(-0.000163707 -2.74238e-05 0)
(-7.49388e-05 -2.16777e-05 0)
(-4.70098e-06 -1.54927e-05 0)
(4.60465e-05 -8.96151e-06 0)
(7.67971e-05 -2.25519e-06 0)
(8.77706e-05 4.30702e-06 0)
(8.03161e-05 1.01266e-05 0)
(5.78211e-05 1.40555e-05 0)
(2.84229e-05 1.39264e-05 0)
(6.73982e-06 6.73833e-06 0)
(1.39945e-05 -2.90242e-05 0)
(4.96668e-05 -4.96378e-05 0)
(8.61965e-05 -4.23031e-05 0)
(9.88862e-05 -1.8062e-05 0)
(7.27138e-05 1.51953e-05 0)
(1.51332e-07 5.26418e-05 0)
(-0.000122301 9.13115e-05 0)
(-0.000295482 0.000129407 0)
(-0.000518347 0.000165817 0)
(-0.000788585 0.000199848 0)
(-0.00110306 0.00023109 0)
(-0.0014581 0.000259293 0)
(-0.00184967 0.000284329 0)
(-0.00227351 0.000306138 0)
(-0.00272529 0.000324702 0)
(-0.00320062 0.000340058 0)
(-0.00369514 0.000352263 0)
(-0.00420453 0.00036139 0)
(-0.00472458 0.000367533 0)
(-0.00525118 0.000370793 0)
(-0.00578035 0.000371277 0)
(-0.00630825 0.000369097 0)
(-0.00683122 0.000364372 0)
(-0.00734571 0.000357225 0)
(-0.00784836 0.000347776 0)
(-0.00833598 0.000336148 0)
(-0.00880557 0.000322464 0)
(-0.00925429 0.000306854 0)
(-0.00967946 0.000289445 0)
(-0.0100786 0.000270368 0)
(-0.0104495 0.000249753 0)
(-0.0107899 0.000227733 0)
(-0.011098 0.000204439 0)
(-0.0113721 0.000180003 0)
(-0.0116105 0.000154557 0)
(-0.011812 0.000128237 0)
(-0.0119753 0.000101179 0)
(-0.0120997 7.35172e-05 0)
(-0.0121842 4.53919e-05 0)
(-0.0122283 1.69469e-05 0)
(-0.0122317 -1.16688e-05 0)
(-0.0121943 -4.03038e-05 0)
(-0.0121162 -6.88062e-05 0)
(-0.0119976 -9.70232e-05 0)
(-0.0118391 -0.000124799 0)
(-0.0116415 -0.000151975 0)
(-0.0114057 -0.00017839 0)
(-0.0111329 -0.00020388 0)
(-0.0108246 -0.000228284 0)
(-0.0104825 -0.000251438 0)
(-0.0101084 -0.000273177 0)
(-0.00970459 -0.000293337 0)
(-0.00927337 -0.000311751 0)
(-0.00881735 -0.000328254 0)
(-0.00833937 -0.000342687 0)
(-0.00784248 -0.000354894 0)
(-0.00732995 -0.000364727 0)
(-0.00680524 -0.000372043 0)
(-0.006272 -0.000376705 0)
(-0.00573409 -0.000378584 0)
(-0.0051955 -0.000377562 0)
(-0.00466037 -0.00037353 0)
(-0.00413298 -0.000366397 0)
(-0.0036177 -0.000356085 0)
(-0.00311898 -0.000342539 0)
(-0.0026413 -0.000325725 0)
(-0.00218915 -0.000305635 0)
(-0.00176697 -0.000282299 0)
(-0.00137906 -0.000255786 0)
(-0.00102955 -0.000226223 0)
(-0.00072227 -0.000193818 0)
(-0.000460594 -0.000158892 0)
(-0.000247269 -0.000121936 0)
(-8.41162e-05 -8.37046e-05 0)
(2.83814e-05 -4.53724e-05 0)
(9.16736e-05 -8.79615e-06 0)
(0.000109893 2.30617e-05 0)
(9.11106e-05 4.54421e-05 0)
(5.08018e-05 5.07491e-05 0)
(1.39238e-05 2.83975e-05 0)
(1.36595e-05 -5.7371e-05 0)
(4.24857e-05 -8.62843e-05 0)
(5.79111e-05 -5.74578e-05 0)
(3.22894e-05 7.60944e-06 0)
(-5.19169e-05 9.40385e-05 0)
(-0.000204461 0.000191573 0)
(-0.000430404 0.000293281 0)
(-0.000731325 0.000394529 0)
(-0.00110619 0.000492241 0)
(-0.00155205 0.000584363 0)
(-0.00206465 0.000669543 0)
(-0.00263877 0.000746916 0)
(-0.00326858 0.000815943 0)
(-0.00394782 0.000876326 0)
(-0.00466998 0.000927933 0)
(-0.00542841 0.000970747 0)
(-0.00621646 0.00100486 0)
(-0.0070275 0.00103042 0)
(-0.00785499 0.00104764 0)
(-0.00869253 0.00105676 0)
(-0.00953391 0.00105806 0)
(-0.0103731 0.00105182 0)
(-0.0112043 0.00103837 0)
(-0.012022 0.00101803 0)
(-0.0128208 0.000991135 0)
(-0.0135957 0.000958033 0)
(-0.014342 0.000919072 0)
(-0.015055 0.00087461 0)
(-0.0157306 0.000825012 0)
(-0.0163649 0.000770641 0)
(-0.0169541 0.000711869 0)
(-0.017495 0.00064907 0)
(-0.0179845 0.000582621 0)
(-0.0184197 0.000512901 0)
(-0.0187984 0.000440294 0)
(-0.0191182 0.000365186 0)
(-0.0193775 0.000287971 0)
(-0.0195747 0.000209044 0)
(-0.0197085 0.000128809 0)
(-0.0197781 4.76817e-05 0)
(-0.0197831 -3.3916e-05 0)
(-0.0197232 -0.000115555 0)
(-0.0195985 -0.000196801 0)
(-0.0194096 -0.000277212 0)
(-0.0191573 -0.000356343 0)
(-0.0188429 -0.000433738 0)
(-0.0184679 -0.000508939 0)
(-0.0180342 -0.000581481 0)
(-0.0175442 -0.000650902 0)
(-0.0170005 -0.000716733 0)
(-0.0164063 -0.000778508 0)
(-0.0157649 -0.00083576 0)
(-0.01508 -0.000888025 0)
(-0.0143559 -0.000934846 0)
(-0.013597 -0.000975777 0)
(-0.0128082 -0.00101039 0)
(-0.0119945 -0.00103826 0)
(-0.0111615 -0.001059 0)
(-0.010315 -0.00107224 0)
(-0.00946087 -0.00107763 0)
(-0.00860546 -0.00107485 0)
(-0.00775524 -0.00106364 0)
(-0.00691686 -0.00104376 0)
(-0.0060971 -0.00101503 0)
(-0.00530282 -0.000977345 0)
(-0.0045409 -0.000930656 0)
(-0.00381819 -0.000875014 0)
(-0.00314139 -0.000810577 0)
(-0.00251695 -0.000737642 0)
(-0.00195097 -0.000656689 0)
(-0.00144897 -0.000568441 0)
(-0.00101574 -0.000473954 0)
(-0.000654975 -0.00037476 0)
(-0.000368932 -0.000273077 0)
(-0.000157875 -0.000172126 0)
(-1.93802e-05 -7.66259e-05 0)
(5.24548e-05 6.50518e-06 0)
(6.81429e-05 6.72284e-05 0)
(4.5939e-05 9.11754e-05 0)
(1.41442e-05 5.78626e-05 0)
(9.51572e-06 -7.80514e-05 0)
(1.90014e-05 -9.95816e-05 0)
(-5.65874e-06 -3.21552e-05 0)
(-9.0049e-05 9.24154e-05 0)
(-0.000251494 0.00025221 0)
(-0.000500447 0.000431306 0)
(-0.000842498 0.000618323 0)
(-0.00127946 0.000805256 0)
(-0.00181017 0.000986509 0)
(-0.0024312 0.00115819 0)
(-0.00313741 0.00131761 0)
(-0.00392245 0.00146295 0)
(-0.00477905 0.00159303 0)
(-0.00569935 0.00170711 0)
(-0.00667509 0.00180483 0)
(-0.00769776 0.00188604 0)
(-0.00875875 0.0019508 0)
(-0.00984944 0.00199933 0)
(-0.0109613 0.00203197 0)
(-0.012086 0.00204911 0)
(-0.0132153 0.00205124 0)
(-0.0143413 0.00203889 0)
(-0.0154562 0.00201265 0)
(-0.0165527 0.00197311 0)
(-0.0176238 0.00192092 0)
(-0.0186627 0.00185671 0)
(-0.019663 0.00178117 0)
(-0.0206187 0.00169497 0)
(-0.0215242 0.00159881 0)
(-0.0223742 0.0014934 0)
(-0.0231638 0.00137945 0)
(-0.0238885 0.00125768 0)
(-0.0245442 0.00112882 0)
(-0.0251272 0.000993612 0)
(-0.0256343 0.000852803 0)
(-0.0260626 0.000707148 0)
(-0.0264096 0.00055741 0)
(-0.0266733 0.000404367 0)
(-0.0268521 0.00024881 0)
(-0.0269449 9.15461e-05 0)
(-0.026951 -6.66074e-05 0)
(-0.0268701 -0.000224819 0)
(-0.0267026 -0.000382244 0)
(-0.026449 -0.000538026 0)
(-0.0261105 -0.000691296 0)
(-0.0256888 -0.000841173 0)
(-0.0251859 -0.000986768 0)
(-0.0246046 -0.00112719 0)
(-0.023948 -0.00126153 0)
(-0.0232195 -0.0013889 0)
(-0.0224233 -0.00150839 0)
(-0.0215641 -0.0016191 0)
(-0.0206467 -0.00172015 0)
(-0.0196768 -0.00181068 0)
(-0.0186604 -0.00188982 0)
(-0.0176038 -0.00195676 0)
(-0.0165138 -0.00201072 0)
(-0.0153979 -0.00205094 0)
(-0.0142635 -0.00207674 0)
(-0.0131187 -0.00208746 0)
(-0.0119717 -0.00208255 0)
(-0.010831 -0.00206152 0)
(-0.00970531 -0.00202395 0)
(-0.00860357 -0.00196957 0)
(-0.0075347 -0.00189821 0)
(-0.00650761 -0.00180987 0)
(-0.00553113 -0.00170473 0)
(-0.00461384 -0.00158318 0)
(-0.00376394 -0.00144593 0)
(-0.0029891 -0.001294 0)
(-0.0022962 -0.00112893 0)
(-0.00169108 -0.000952867 0)
(-0.00117818 -0.000768806 0)
(-0.000760118 -0.000580935 0)
(-0.000437124 -0.000395082 0)
(-0.000206378 -0.000219378 0)
(-6.12641e-05 -6.51563e-05 0)
(9.60301e-06 5.19994e-05 0)
(2.45493e-05 0.000110853 0)
(1.04366e-05 8.08059e-05 0)
(3.68807e-06 -8.32855e-05 0)
(-1.32285e-05 -7.48464e-05 0)
(-9.01803e-05 5.08504e-05 0)
(-0.000247262 0.000253434 0)
(-0.000499551 0.000504586 0)
(-0.000857028 0.000783127 0)
(-0.00132496 0.00107331 0)
(-0.00190481 0.00136366 0)
(-0.00259503 0.00164582 0)
(-0.00339161 0.00191381 0)
(-0.00428865 0.00216333 0)
(-0.00527879 0.00239139 0)
(-0.00635363 0.00259595 0)
(-0.00750396 0.00277569 0)
(-0.00872003 0.00292984 0)
(-0.00999178 0.00305806 0)
(-0.011309 0.00316033 0)
(-0.0126613 0.00323688 0)
(-0.0140384 0.00328814 0)
(-0.0154303 0.0033147 0)
(-0.0168271 0.00331726 0)
(-0.018219 0.00329665 0)
(-0.0195968 0.00325373 0)
(-0.0209514 0.00318945 0)
(-0.0222742 0.0031048 0)
(-0.023557 0.00300081 0)
(-0.0247919 0.00287854 0)
(-0.0259716 0.00273909 0)
(-0.0270891 0.00258356 0)
(-0.028138 0.00241308 0)
(-0.0291122 0.00222881 0)
(-0.0300063 0.00203191 0)
(-0.0308151 0.00182356 0)
(-0.0315342 0.00160494 0)
(-0.0321595 0.00137728 0)
(-0.0326874 0.0011418 0)
(-0.033115 0.000899731 0)
(-0.0334399 0.000652347 0)
(-0.03366 0.000400928 0)
(-0.0337739 0.000146777 0)
(-0.0337809 -0.00010878 0)
(-0.0336807 -0.000364398 0)
(-0.0334735 -0.000618711 0)
(-0.0331601 -0.000870334 0)
(-0.0327422 -0.00111786 0)
(-0.0322216 -0.00135988 0)
(-0.0316011 -0.00159494 0)
(-0.0308839 -0.00182162 0)
(-0.0300737 -0.00203846 0)
(-0.029175 -0.00224401 0)
(-0.0281929 -0.00243684 0)
(-0.027133 -0.0026155 0)
(-0.0260015 -0.00277858 0)
(-0.0248051 -0.00292469 0)
(-0.0235511 -0.0030525 0)
(-0.0222475 -0.00316068 0)
(-0.0209026 -0.003248 0)
(-0.0195252 -0.0033133 0)
(-0.0181246 -0.00335547 0)
(-0.0167105 -0.00337354 0)
(-0.0152929 -0.00336663 0)
(-0.0138821 -0.003334 0)
(-0.0124888 -0.00327508 0)
(-0.0111234 -0.00318947 0)
(-0.0097969 -0.00307699 0)
(-0.00851983 -0.00293774 0)
(-0.00730274 -0.0027721 0)
(-0.00615578 -0.00258083 0)
(-0.00508865 -0.00236517 0)
(-0.0041103 -0.00212691 0)
(-0.00322875 -0.00186859 0)
(-0.00245075 -0.00159373 0)
(-0.00178144 -0.00130707 0)
(-0.0012239 -0.00101505 0)
(-0.000778655 -0.000726323 0)
(-0.000443071 -0.000452571 0)
(-0.000210696 -0.000209469 0)
(-7.04406e-05 -1.78244e-05 0)
(-5.86783e-06 9.48577e-05 0)
(4.9535e-06 8.93892e-05 0)
(-2.73072e-06 -7.01183e-05 0)
(-4.96763e-05 -4.58592e-06 0)
(-0.000186241 0.000201567 0)
(-0.000424942 0.000501628 0)
(-0.000777266 0.000861965 0)
(-0.0012518 0.00125672 0)
(-0.00185278 0.00166616 0)
(-0.00258082 0.00207542 0)
(-0.00343361 0.00247342 0)
(-0.0044064 0.00285193 0)
(-0.00549248 0.00320493 0)
(-0.00668359 0.00352807 0)
(-0.00797023 0.00381833 0)
(-0.00934206 0.00407365 0)
(-0.0107881 0.00429279 0)
(-0.0122968 0.0044751 0)
(-0.0138567 0.0046204 0)
(-0.0154558 0.00472892 0)
(-0.0170825 0.00480116 0)
(-0.0187251 0.00483788 0)
(-0.0203722 0.00484003 0)
(-0.0220126 0.0048087 0)
(-0.0236356 0.00474513 0)
(-0.0252306 0.00465063 0)
(-0.0267876 0.0045266 0)
(-0.0282971 0.0043745 0)
(-0.02975 0.00419587 0)
(-0.0311375 0.00399227 0)
(-0.0324517 0.00376529 0)
(-0.033685 0.00351657 0)
(-0.0348302 0.00324778 0)
(-0.0358811 0.00296061 0)
(-0.0368317 0.00265677 0)
(-0.0376766 0.002338 0)
(-0.0384112 0.00200607 0)
(-0.0390314 0.00166276 0)
(-0.0395336 0.00130989 0)
(-0.0399149 0.00094931 0)
(-0.0401731 0.000582883 0)
(-0.0403066 0.000212514 0)
(-0.0403144 -0.000159864 0)
(-0.0401962 -0.000532291 0)
(-0.0399523 -0.000902775 0)
(-0.0395838 -0.0012693 0)
(-0.0390923 -0.00162982 0)
(-0.0384804 -0.00198228 0)
(-0.037751 -0.00232459 0)
(-0.0369081 -0.00265466 0)
(-0.0359559 -0.00297039 0)
(-0.0348998 -0.00326969 0)
(-0.0337457 -0.00355046 0)
(-0.0325 -0.00381064 0)
(-0.03117 -0.00404818 0)
(-0.0297636 -0.00426111 0)
(-0.0282894 -0.00444747 0)
(-0.0267565 -0.00460541 0)
(-0.0251745 -0.00473316 0)
(-0.0235538 -0.00482905 0)
(-0.0219051 -0.00489155 0)
(-0.0202397 -0.00491927 0)
(-0.018569 -0.00491101 0)
(-0.016905 -0.00486577 0)
(-0.0152599 -0.00478277 0)
(-0.0136459 -0.00466155 0)
(-0.0120753 -0.00450194 0)
(-0.0105602 -0.00430417 0)
(-0.00911276 -0.00406891 0)
(-0.00774439 -0.00379741 0)
(-0.0064661 -0.00349154 0)
(-0.00528799 -0.00315403 0)
(-0.0042191 -0.0027886 0)
(-0.00326707 -0.00240027 0)
(-0.0024378 -0.00199572 0)
(-0.00173503 -0.00158376 0)
(-0.00115992 -0.00117592 0)
(-0.000710574 -0.000787323 0)
(-0.000381415 -0.000437697 0)
(-0.000162543 -0.000152509 0)
(-4.07741e-05 3.54265e-05 0)
(-1.19791e-06 8.04332e-05 0)
(-9.22996e-06 -3.73919e-05 0)
(-8.77448e-05 0.000115121 0)
(-0.000287765 0.000425903 0)
(-0.0006133 0.000843934 0)
(-0.00107141 0.00133143 0)
(-0.00166865 0.00185864 0)
(-0.00240762 0.00240229 0)
(-0.00328762 0.00294444 0)
(-0.00430528 0.00347135 0)
(-0.00545489 0.00397262 0)
(-0.0067288 0.00444043 0)
(-0.00811779 0.00486903 0)
(-0.00961138 0.0052543 0)
(-0.0111981 0.00559338 0)
(-0.0128659 0.00588445 0)
(-0.0146021 0.00612648 0)
(-0.0163937 0.00631912 0)
(-0.0182277 0.00646251 0)
(-0.020091 0.00655723 0)
(-0.0219707 0.00660419 0)
(-0.023854 0.00660458 0)
(-0.0257283 0.00655981 0)
(-0.0275816 0.00647147 0)
(-0.0294021 0.00634128 0)
(-0.0311786 0.00617111 0)
(-0.0329002 0.00596292 0)
(-0.0345567 0.00571872 0)
(-0.0361383 0.00544063 0)
(-0.037636 0.0051308 0)
(-0.0390412 0.00479145 0)
(-0.0403459 0.00442482 0)
(-0.0415428 0.0040332 0)
(-0.0426254 0.00361894 0)
(-0.0435875 0.00318438 0)
(-0.0444238 0.00273194 0)
(-0.0451297 0.00226405 0)
(-0.0457013 0.00178318 0)
(-0.0461352 0.00129185 0)
(-0.0464289 0.00079261 0)
(-0.0465806 0.000288051 0)
(-0.0465893 -0.000219198 0)
(-0.0464544 -0.000726466 0)
(-0.0461766 -0.00123105 0)
(-0.0457569 -0.00173019 0)
(-0.0451973 -0.00222114 0)
(-0.0445006 -0.00270107 0)
(-0.0436702 -0.00316717 0)
(-0.0427104 -0.00361661 0)
(-0.0416263 -0.00404653 0)
(-0.0404238 -0.00445411 0)
(-0.0391095 -0.00483652 0)
(-0.0376909 -0.00519097 0)
(-0.036176 -0.00551471 0)
(-0.0345738 -0.00580507 0)
(-0.0328939 -0.00605945 0)
(-0.0311466 -0.00627536 0)
(-0.0293428 -0.00645043 0)
(-0.027494 -0.00658246 0)
(-0.0256124 -0.0066694 0)
(-0.0237104 -0.00670945 0)
(-0.021801 -0.00670103 0)
(-0.0198976 -0.00664287 0)
(-0.0180137 -0.00653402 0)
(-0.0161629 -0.00637393 0)
(-0.0143589 -0.00616247 0)
(-0.0126153 -0.00590008 0)
(-0.0109454 -0.00558779 0)
(-0.00936183 -0.00522737 0)
(-0.00787685 -0.00482147 0)
(-0.00650162 -0.00437382 0)
(-0.00524617 -0.00388944 0)
(-0.00411908 -0.00337497 0)
(-0.00312712 -0.00283906 0)
(-0.00227493 -0.00229288 0)
(-0.00156464 -0.00175077 0)
(-0.000995554 -0.00123105 0)
(-0.00056355 -0.000757065 0)
(-0.000260563 -0.000358245 0)
(-7.75003e-05 -7.16146e-05 0)
(-7.47101e-06 5.26561e-05 0)
(-1.55652e-05 1.51153e-05 0)
(-0.000125959 0.000285999 0)
(-0.000391 0.000726943 0)
(-0.000805955 0.00128432 0)
(-0.00137305 0.00191728 0)
(-0.00209632 0.00259297 0)
(-0.00297636 0.00328514 0)
(-0.00401077 0.00397311 0)
(-0.00519481 0.00464073 0)
(-0.00652158 0.00527551 0)
(-0.00798237 0.0058679 0)
(-0.00956692 0.00641073 0)
(-0.0112637 0.00689874 0)
(-0.0130603 0.00732825 0)
(-0.0149434 0.00769679 0)
(-0.0168994 0.00800295 0)
(-0.0189141 0.0082461 0)
(-0.0209733 0.00842632 0)
(-0.0230628 0.00854422 0)
(-0.0251683 0.00860086 0)
(-0.027276 0.00859768 0)
(-0.0293722 0.0085364 0)
(-0.0314435 0.008419 0)
(-0.033477 0.00824765 0)
(-0.0354605 0.00802471 0)
(-0.0373819 0.00775264 0)
(-0.03923 0.00743406 0)
(-0.0409941 0.00707164 0)
(-0.0426641 0.00666816 0)
(-0.0442305 0.00622646 0)
(-0.0456847 0.00574946 0)
(-0.0470186 0.00524011 0)
(-0.0482248 0.00470142 0)
(-0.0492966 0.00413647 0)
(-0.0502282 0.00354836 0)
(-0.0510145 0.00294025 0)
(-0.0516511 0.00231537 0)
(-0.0521343 0.00167696 0)
(-0.0524614 0.00102833 0)
(-0.0526303 0.000372858 0)
(-0.0526399 -0.000286054 0)
(-0.0524899 -0.000944943 0)
(-0.0521805 -0.0016003 0)
(-0.0517133 -0.00224857 0)
(-0.0510902 -0.00288617 0)
(-0.0503144 -0.00350946 0)
(-0.0493898 -0.00411481 0)
(-0.048321 -0.00469854 0)
(-0.0471136 -0.00525698 0)
(-0.0457743 -0.00578649 0)
(-0.0443102 -0.00628342 0)
(-0.0427295 -0.00674418 0)
(-0.0410413 -0.00716526 0)
(-0.0392553 -0.00754321 0)
(-0.0373821 -0.0078747 0)
(-0.035433 -0.00815656 0)
(-0.03342 -0.00838577 0)
(-0.0313559 -0.00855953 0)
(-0.0292537 -0.00867526 0)
(-0.0271274 -0.00873069 0)
(-0.024991 -0.00872385 0)
(-0.0228593 -0.00865319 0)
(-0.0207469 -0.00851758 0)
(-0.0186688 -0.00831638 0)
(-0.0166399 -0.00804956 0)
(-0.0146751 -0.00771777 0)
(-0.0127887 -0.00732246 0)
(-0.0109947 -0.00686598 0)
(-0.00930631 -0.00635182 0)
(-0.00773584 -0.00578477 0)
(-0.00629433 -0.00517119 0)
(-0.00499137 -0.00451936 0)
(-0.00383479 -0.0038399 0)
(-0.00283033 -0.00314624 0)
(-0.00198143 -0.00245532 0)
(-0.00128893 -0.00178836 0)
(-0.000750605 -0.00117183 0)
(-0.000360662 -0.00063837 0)
(-0.000114522 -0.000228173 0)
(-1.36051e-05 5.73785e-06 0)
(-2.16282e-05 8.71173e-05 0)
(-0.000163536 0.000508303 0)
(-0.000493725 0.00110581 0)
(-0.000998874 0.00182459 0)
(-0.00167628 0.00262174 0)
(-0.00252721 0.00346202 0)
(-0.00354993 0.00431674 0)
(-0.00474007 0.0051629 0)
(-0.00609126 0.00598219 0)
(-0.00759523 0.00676024 0)
(-0.00924204 0.00748584 0)
(-0.0110203 0.00815046 0)
(-0.0129174 0.00874776 0)
(-0.0149198 0.00927317 0)
(-0.0170133 0.00972361 0)
(-0.019183 0.0100972 0)
(-0.0214138 0.0103931 0)
(-0.0236905 0.0106113 0)
(-0.0259976 0.0107523 0)
(-0.02832 0.0108175 0)
(-0.0306425 0.0108085 0)
(-0.0329505 0.0107273 0)
(-0.0352296 0.0105764 0)
(-0.0374658 0.0103583 0)
(-0.0396458 0.010076 0)
(-0.0417567 0.0097325 0)
(-0.0437863 0.00933097 0)
(-0.045723 0.00887476 0)
(-0.0475559 0.00836732 0)
(-0.0492747 0.00781216 0)
(-0.05087 0.00721291 0)
(-0.0523331 0.00657327 0)
(-0.0536559 0.00589698 0)
(-0.0548312 0.00518789 0)
(-0.0558527 0.00444987 0)
(-0.0567148 0.0036869 0)
(-0.0574127 0.00290297 0)
(-0.0579425 0.00210218 0)
(-0.0583013 0.00128866 0)
(-0.0584867 0.000466619 0)
(-0.0584976 -0.000359672 0)
(-0.0583335 -0.00118589 0)
(-0.057995 -0.00200764 0)
(-0.0574834 -0.0028205 0)
(-0.056801 -0.00361998 0)
(-0.0559513 -0.00440155 0)
(-0.0549383 -0.00516067 0)
(-0.0537673 -0.00589276 0)
(-0.0524442 -0.00659326 0)
(-0.0509762 -0.00725762 0)
(-0.0493711 -0.00788132 0)
(-0.0476378 -0.00845989 0)
(-0.045786 -0.00898898 0)
(-0.0438263 -0.00946431 0)
(-0.0417702 -0.00988178 0)
(-0.0396298 -0.0102375 0)
(-0.0374183 -0.0105276 0)
(-0.0351491 -0.0107488 0)
(-0.0328367 -0.010898 0)
(-0.0304959 -0.0109722 0)
(-0.0281421 -0.0109692 0)
(-0.0257909 -0.0108871 0)
(-0.0234582 -0.0107246 0)
(-0.0211603 -0.010481 0)
(-0.018913 -0.0101563 0)
(-0.0167325 -0.00975141 0)
(-0.0146342 -0.00926825 0)
(-0.0126333 -0.0087098 0)
(-0.0107439 -0.00808038 0)
(-0.00897954 -0.00738586 0)
(-0.00735233 -0.00663395 0)
(-0.00587299 -0.00583454 0)
(-0.00455055 -0.00500011 0)
(-0.00339209 -0.00414624 0)
(-0.00240258 -0.00329222 0)
(-0.00158473 -0.0024618 0)
(-0.000938463 -0.00168407 0)
(-0.000460532 -0.000994212 0)
(-0.000151008 -0.000434671 0)
(-1.94883e-05 -6.00929e-05 0)
(-2.73925e-05 0.000178059 0)
(-0.000200077 0.000781442 0)
(-0.000594668 0.00156231 0)
(-0.00118964 0.00246508 0)
(-0.00197739 0.00344554 0)
(-0.00295635 0.00446671 0)
(-0.00412225 0.00549799 0)
(-0.00546856 0.00651444 0)
(-0.00698707 0.00749591 0)
(-0.00866796 0.00842631 0)
(-0.0104999 0.00929298 0)
(-0.0124703 0.0100861 0)
(-0.0145654 0.0107983 0)
(-0.0167705 0.0114242 0)
(-0.0190703 0.01196 0)
(-0.0214491 0.0124036 0)
(-0.0238906 0.0127537 0)
(-0.0263785 0.0130102 0)
(-0.0288965 0.0131738 0)
(-0.0314283 0.0132458 0)
(-0.0339579 0.0132282 0)
(-0.0364696 0.0131235 0)
(-0.038948 0.0129343 0)
(-0.0413784 0.0126639 0)
(-0.0437463 0.0123157 0)
(-0.0460382 0.0118932 0)
(-0.0482408 0.0114004 0)
(-0.050342 0.0108412 0)
(-0.0523298 0.0102199 0)
(-0.0541935 0.00954063 0)
(-0.0559229 0.00880782 0)
(-0.0575086 0.00802594 0)
(-0.0589421 0.00719955 0)
(-0.0602157 0.00633331 0)
(-0.0613226 0.00543195 0)
(-0.0622567 0.00450027 0)
(-0.063013 0.00354315 0)
(-0.0635874 0.00256557 0)
(-0.0639764 0.00157255 0)
(-0.0641779 0.000569211 0)
(-0.0641905 -0.000439256 0)
(-0.0640137 -0.00144759 0)
(-0.063648 -0.00245047 0)
(-0.0630949 -0.0034425 0)
(-0.062357 -0.00441824 0)
(-0.0614378 -0.00537219 0)
(-0.0603417 -0.00629885 0)
(-0.0590743 -0.00719266 0)
(-0.057642 -0.0080481 0)
(-0.0560523 -0.00885966 0)
(-0.0543138 -0.00962186 0)
(-0.0524357 -0.0103293 0)
(-0.0504287 -0.0109768 0)
(-0.0483038 -0.011559 0)
(-0.0460734 -0.0120712 0)
(-0.0437506 -0.0125085 0)
(-0.041349 -0.0128665 0)
(-0.0388835 -0.0131411 0)
(-0.0363692 -0.0133285 0)
(-0.0338219 -0.0134254 0)
(-0.0312581 -0.013429 0)
(-0.0286944 -0.0133371 0)
(-0.026148 -0.0131482 0)
(-0.0236358 -0.0128616 0)
(-0.0211753 -0.0124774 0)
(-0.0187832 -0.0119966 0)
(-0.0164764 -0.0114218 0)
(-0.014271 -0.0107564 0)
(-0.0121824 -0.0100056 0)
(-0.0102251 -0.00917638 0)
(-0.00841248 -0.00827777 0)
(-0.00675648 -0.00732116 0)
(-0.0052675 -0.00632079 0)
(-0.00395415 -0.00529419 0)
(-0.00282312 -0.00426275 0)
(-0.0018792 -0.0032524 0)
(-0.00112464 -0.00229437 0)
(-0.000558871 -0.0014258 0)
(-0.000186545 -0.000690653 0)
(-2.50851e-05 -0.000144332 0)
(-3.2861e-05 0.00028729 0)
(-0.000235431 0.00110437 0)
(-0.000693203 0.00209549 0)
(-0.0013769 0.00320514 0)
(-0.00227422 0.00438837 0)
(-0.0033807 0.00560698 0)
(-0.00468948 0.00682893 0)
(-0.00619173 0.0080277 0)
(-0.00787725 0.00918161 0)
(-0.00973453 0.0102731 0)
(-0.0117507 0.0112882 0)
(-0.0139119 0.0122159 0)
(-0.0162031 0.013048 0)
(-0.0186084 0.0137782 0)
(-0.0211116 0.0144023 0)
(-0.0236956 0.0149175 0)
(-0.0263434 0.0153226 0)
(-0.0290377 0.0156172 0)
(-0.0317611 0.0158022 0)
(-0.0344965 0.015879 0)
(-0.0372269 0.0158498 0)
(-0.0399357 0.0157175 0)
(-0.0426066 0.0154852 0)
(-0.0452241 0.0151567 0)
(-0.047773 0.0147359 0)
(-0.0502387 0.0142271 0)
(-0.0526075 0.0136348 0)
(-0.0548662 0.0129638 0)
(-0.0570025 0.0122189 0)
(-0.0590049 0.0114053 0)
(-0.0608625 0.010528 0)
(-0.0625656 0.0095925 0)
(-0.0641049 0.0086041 0)
(-0.0654725 0.00756834 0)
(-0.0666609 0.00649085 0)
(-0.067664 0.00537734 0)
(-0.0684764 0.00423363 0)
(-0.0690935 0.00306561 0)
(-0.069512 0.00187927 0)
(-0.0697293 0.000680686 0)
(-0.069744 -0.000523963 0)
(-0.0695557 -0.00172843 0)
(-0.0691648 -0.00292639 0)
(-0.0685729 -0.00411143 0)
(-0.0677828 -0.00527709 0)
(-0.0667981 -0.00641686 0)
(-0.0656234 -0.00752419 0)
(-0.0642647 -0.0085925 0)
(-0.0627288 -0.00961524 0)
(-0.0610236 -0.0105859 0)
(-0.0591579 -0.0114979 0)
(-0.0571419 -0.012345 0)
(-0.0549865 -0.0131209 0)
(-0.0527036 -0.0138196 0)
(-0.0503062 -0.0144351 0)
(-0.0478079 -0.0149619 0)
(-0.0452236 -0.0153947 0)
(-0.0425685 -0.0157288 0)
(-0.0398589 -0.0159596 0)
(-0.0371116 -0.0160833 0)
(-0.0343437 -0.0160968 0)
(-0.031573 -0.0159973 0)
(-0.0288176 -0.0157832 0)
(-0.0260957 -0.0154537 0)
(-0.0234255 -0.0150089 0)
(-0.020825 -0.0144503 0)
(-0.0183121 -0.0137805 0)
(-0.0159039 -0.0130039 0)
(-0.0136173 -0.0121263 0)
(-0.0114677 -0.0111558 0)
(-0.00946985 -0.0101026 0)
(-0.00763711 -0.00897952 0)
(-0.00598132 -0.00780242 0)
(-0.00451277 -0.00659059 0)
(-0.00324007 -0.00536725 0)
(-0.00217017 -0.0041602 0)
(-0.0013078 -0.00300237 0)
(-0.000655028 -0.00193237 0)
(-0.000220964 -0.000995188 0)
(-3.03979e-05 -0.000246364 0)
(-3.80621e-05 0.000414142 0)
(-0.000269577 0.00147582 0)
(-0.000789092 0.00270399 0)
(-0.00156004 0.00404356 0)
(-0.00256563 0.00544925 0)
(-0.00379859 0.0068821 0)
(-0.00524943 0.00830899 0)
(-0.00690693 0.00970218 0)
(-0.00875883 0.0110387 0)
(-0.0107918 0.0122998 0)
(-0.0129914 0.0134704 0)
(-0.0153421 0.0145385 0)
(-0.0178278 0.0154948 0)
(-0.0204314 0.0163327 0)
(-0.0231354 0.0170473 0)
(-0.0259219 0.0176355 0)
(-0.0287727 0.0180958 0)
(-0.0316695 0.0184279 0)
(-0.034594 0.0186326 0)
(-0.0375283 0.0187116 0)
(-0.0404544 0.0186674 0)
(-0.043355 0.0185033 0)
(-0.046213 0.0182228 0)
(-0.0490119 0.0178303 0)
(-0.0517359 0.0173303 0)
(-0.0543698 0.0167278 0)
(-0.056899 0.0160279 0)
(-0.0593098 0.0152363 0)
(-0.0615892 0.0143586 0)
(-0.0637251 0.0134007 0)
(-0.0657062 0.0123685 0)
(-0.0675221 0.0112683 0)
(-0.0691633 0.0101065 0)
(-0.0706213 0.00888936 0)
(-0.0718884 0.00762355 0)
(-0.0729581 0.00631571 0)
(-0.0738245 0.00497262 0)
(-0.0744832 0.00360117 0)
(-0.0749304 0.00220835 0)
(-0.0751635 0.000801261 0)
(-0.075181 -0.000612905 0)
(-0.0749824 -0.00202685 0)
(-0.0745681 -0.00343319 0)
(-0.0739399 -0.00482446 0)
(-0.0731005 -0.00619312 0)
(-0.0720538 -0.00753157 0)
(-0.0708046 -0.00883218 0)
(-0.0693591 -0.0100873 0)
(-0.0677244 -0.0112893 0)
(-0.0659088 -0.0124305 0)
(-0.0639216 -0.0135035 0)
(-0.0617733 -0.0145008 0)
(-0.0594753 -0.0154151 0)
(-0.0570403 -0.0162394 0)
(-0.0544818 -0.0169669 0)
(-0.0518141 -0.0175911 0)
(-0.0490526 -0.018106 0)
(-0.0462137 -0.0185058 0)
(-0.0433141 -0.0187855 0)
(-0.0403715 -0.0189407 0)
(-0.0374041 -0.0189676 0)
(-0.0344306 -0.0188632 0)
(-0.03147 -0.0186256 0)
(-0.0285414 -0.0182538 0)
(-0.0256641 -0.0177481 0)
(-0.0228573 -0.0171101 0)
(-0.0201399 -0.0163428 0)
(-0.0175302 -0.0154512 0)
(-0.0150461 -0.0144419 0)
(-0.0127047 -0.0133238 0)
(-0.0105218 -0.0121084 0)
(-0.00851225 -0.0108097 0)
(-0.00668963 -0.00944509 0)
(-0.00506597 -0.00803541 0)
(-0.00365188 -0.00660546 0)
(-0.0024566 -0.00518459 0)
(-0.00148733 -0.00380713 0)
(-0.000748778 -0.00251278 0)
(-0.000254247 -0.00134713 0)
(-3.54482e-05 -0.00036555 0)
(-4.30308e-05 0.000557984 0)
(-0.000302584 0.0018945 0)
(-0.000882342 0.00338624 0)
(-0.00173891 0.0049788 0)
(-0.00285124 0.00662683 0)
(-0.00420935 0.00829094 0)
(-0.00580112 0.00993724 0)
(-0.00761291 0.0115371 0)
(-0.00963033 0.0130665 0)
(-0.0118381 0.0145056 0)
(-0.0142202 0.0158386 0)
(-0.0167595 0.0170524 0)
(-0.0194384 0.0181373 0)
(-0.0222388 0.0190858 0)
(-0.0251418 0.0198928 0)
(-0.0281284 0.0205548 0)
(-0.0311795 0.0210702 0)
(-0.0342758 0.0214386 0)
(-0.0373982 0.021661 0)
(-0.0405277 0.0217394 0)
(-0.0436456 0.0216765 0)
(-0.0467338 0.021476 0)
(-0.0497744 0.0211421 0)
(-0.0527502 0.0206796 0)
(-0.0556447 0.0200937 0)
(-0.058442 0.0193901 0)
(-0.061127 0.0185748 0)
(-0.0636853 0.017654 0)
(-0.0661034 0.0166342 0)
(-0.0683687 0.0155223 0)
(-0.0704693 0.0143251 0)
(-0.0723945 0.0130497 0)
(-0.0741344 0.0117033 0)
(-0.07568 0.0102935 0)
(-0.0770234 0.00882764 0)
(-0.0781577 0.00731348 0)
(-0.079077 0.00575879 0)
(-0.0797763 0.00417149 0)
(-0.0802518 0.00255961 0)
(-0.0805009 0.000931307 0)
(-0.0805219 -0.000705138 0)
(-0.0803142 -0.00234135 0)
(-0.0798783 -0.00396883 0)
(-0.079216 -0.00557902 0)
(-0.0783301 -0.00716324 0)
(-0.0772245 -0.00871278 0)
(-0.0759043 -0.0102189 0)
(-0.0743759 -0.0116727 0)
(-0.0726466 -0.0130656 0)
(-0.0707251 -0.0143887 0)
(-0.068621 -0.0156334 0)
(-0.0663453 -0.0167913 0)
(-0.0639098 -0.0178539 0)
(-0.0613276 -0.0188132 0)
(-0.0586127 -0.0196614 0)
(-0.0557804 -0.020391 0)
(-0.0528465 -0.0209952 0)
(-0.049828 -0.0214674 0)
(-0.0467425 -0.0218018 0)
(-0.0436086 -0.0219933 0)
(-0.0404452 -0.0220377 0)
(-0.0372719 -0.0219315 0)
(-0.0341086 -0.0216725 0)
(-0.0309756 -0.0212596 0)
(-0.027893 -0.020693 0)
(-0.0248812 -0.0199746 0)
(-0.0219602 -0.0191077 0)
(-0.0191496 -0.0180976 0)
(-0.0164684 -0.0169519 0)
(-0.0139352 -0.0156802 0)
(-0.0115672 -0.014295 0)
(-0.00938092 -0.0128116 0)
(-0.00739154 -0.0112487 0)
(-0.00561301 -0.00962831 0)
(-0.00405806 -0.00797676 0)
(-0.00273823 -0.00632465 0)
(-0.00166318 -0.00470746 0)
(-0.000840164 -0.0031657 0)
(-0.000286467 -0.00174531 0)
(-4.02666e-05 -0.000501287 0)
(-4.77963e-05 0.000718229 0)
(-0.000334561 0.00235913 0)
(-0.000973133 0.00414069 0)
(-0.00191369 0.00600923 0)
(-0.00313117 0.0079196 0)
(-0.00461296 0.00983216 0)
(-0.00634439 0.0117125 0)
(-0.00830939 0.0135314 0)
(-0.0104914 0.0152639 0)
(-0.0128732 0.0168897 0)
(-0.0154368 0.0183918 0)
(-0.0181638 0.0197568 0)
(-0.021035 0.0209741 0)
(-0.0240308 0.0220361 0)
(-0.0271313 0.022937 0)
(-0.0303164 0.0236733 0)
(-0.0335659 0.0242432 0)
(-0.0368594 0.0246466 0)
(-0.0401771 0.0248845 0)
(-0.0434989 0.0249591 0)
(-0.0468056 0.0248736 0)
(-0.050078 0.024632 0)
(-0.0532977 0.0242393 0)
(-0.0564468 0.0237006 0)
(-0.0595082 0.0230221 0)
(-0.0624652 0.0222101 0)
(-0.0653022 0.0212712 0)
(-0.0680043 0.0202128 0)
(-0.0705576 0.019042 0)
(-0.0729489 0.0177666 0)
(-0.0751659 0.0163944 0)
(-0.0771976 0.0149334 0)
(-0.0790336 0.013392 0)
(-0.0806646 0.0117784 0)
(-0.0820824 0.0101013 0)
(-0.0832799 0.00836923 0)
(-0.0842509 0.00659118 0)
(-0.0849903 0.00477607 0)
(-0.0854941 0.00293304 0)
(-0.0857595 0.00107134 0)
(-0.0857848 -0.00079966 0)
(-0.0855692 -0.00267043 0)
(-0.0851135 -0.00453136 0)
(-0.0844191 -0.00637271 0)
(-0.0834892 -0.00818467 0)
(-0.0823276 -0.00995733 0)
(-0.0809396 -0.0116808 0)
(-0.0793317 -0.013345 0)
(-0.0775116 -0.0149401 0)
(-0.0754881 -0.0164562 0)
(-0.0732711 -0.0178834 0)