0.05 	0.0003125 	0.005 	0.0339157
0.05 	0.0009375 	0.005 	0.0339492
0.05 	0.0015625 	0.005 	0.0339765
0.05 	0.0021875 	0.005 	0.0339985
0.05 	0.0028125 	0.005 	0.0340185
0.05 	0.0034375 	0.005 	0.0340366
0.05 	0.0040625 	0.005 	0.0340526
0.05 	0.0046875 	0.005 	0.0340661
0.05 	0.0053125 	0.005 	0.0340768
0.05 	0.0059375 	0.005 	0.0340844
0.05 	0.0065625 	0.005 	0.0340887
0.05 	0.0071875 	0.005 	0.0340896
0.05 	0.0078125 	0.005 	0.034087
0.05 	0.0084375 	0.005 	0.0340807
0.05 	0.0090625 	0.005 	0.0340708
0.05 	0.0096875 	0.005 	0.0340575
0.05 	0.0103125 	0.005 	0.0340405
0.05 	0.0109375 	0.005 	0.0340198
0.05 	0.0115625 	0.005 	0.0339947
0.05 	0.0121875 	0.005 	0.0339649
0.05 	0.0128125 	0.005 	0.0339303
0.05 	0.0134375 	0.005 	0.0338905
0.05 	0.0140625 	0.005 	0.033845
0.05 	0.0146875 	0.005 	0.0337934
0.05 	0.0153125 	0.005 	0.0337348
0.05 	0.0159375 	0.005 	0.0336687
0.05 	0.0165625 	0.005 	0.033595
0.05 	0.0171875 	0.005 	0.0335135
0.05 	0.0178125 	0.005 	0.0334238
0.05 	0.0184375 	0.005 	0.0333256
0.05 	0.0190625 	0.005 	0.0332184
0.05 	0.0196875 	0.005 	0.0331021
0.05 	0.0203125 	0.005 	0.0329763
0.05 	0.0209375 	0.005 	0.0328408
0.05 	0.0215625 	0.005 	0.0326948
0.05 	0.0221875 	0.005 	0.0325378
0.05 	0.0228125 	0.005 	0.0323693
0.05 	0.0234375 	0.005 	0.032189
0.05 	0.0240625 	0.005 	0.0319968
0.05 	0.0246875 	0.005 	0.0317919
0.05 	0.0253125 	0.005 	0.0315736
0.05 	0.0259375 	0.005 	0.0313414
0.05 	0.0265625 	0.005 	0.0310945
0.05 	0.0271875 	0.005 	0.0308322
0.05 	0.0278125 	0.005 	0.0305538
0.05 	0.0284375 	0.005 	0.0302586
0.05 	0.0290625 	0.005 	0.0299457
0.05 	0.0296875 	0.005 	0.0296143
0.05 	0.0303125 	0.005 	0.0292637
0.05 	0.0309375 	0.005 	0.0288931
0.05 	0.0315625 	0.005 	0.0285015
0.05 	0.0321875 	0.005 	0.0280882
0.05 	0.0328125 	0.005 	0.0276522
0.05 	0.0334375 	0.005 	0.0271927
0.05 	0.0340625 	0.005 	0.0267087
0.05 	0.0346875 	0.005 	0.0261997
0.05 	0.0353125 	0.005 	0.0256653
0.05 	0.0359375 	0.005 	0.025105
0.05 	0.0365625 	0.005 	0.0245181
0.05 	0.0371875 	0.005 	0.023904
0.05 	0.0378125 	0.005 	0.0232615
0.05 	0.0384375 	0.005 	0.0225899
0.05 	0.0390625 	0.005 	0.0218881
0.05 	0.0396875 	0.005 	0.0211552
0.05 	0.0403125 	0.005 	0.0203904
0.05 	0.0409375 	0.005 	0.0195929
0.05 	0.0415625 	0.005 	0.018762
0.05 	0.0421875 	0.005 	0.0178969
0.05 	0.0428125 	0.005 	0.0169969
0.05 	0.0434375 	0.005 	0.0160615
0.05 	0.0440625 	0.005 	0.0150902
0.05 	0.0446875 	0.005 	0.0140823
0.05 	0.0453125 	0.005 	0.0130377
0.05 	0.0459375 	0.005 	0.0119559
0.05 	0.0465625 	0.005 	0.0108363
0.05 	0.0471875 	0.005 	0.0096784
0.05 	0.0478125 	0.005 	0.00848163
0.05 	0.0484375 	0.005 	0.00724563
0.05 	0.0490625 	0.005 	0.00597032
0.05 	0.0496875 	0.005 	0.00465596
0.05 	0.0503125 	0.005 	0.00330306
0.05 	0.0509375 	0.005 	0.00191225
0.05 	0.0515625 	0.005 	0.000484098
0.05 	0.0521875 	0.005 	-0.000980985
0.05 	0.0528125 	0.005 	-0.0024827
0.05 	0.0534375 	0.005 	-0.00402073
0.05 	0.0540625 	0.005 	-0.00559456
0.05 	0.0546875 	0.005 	-0.00720343
0.05 	0.0553125 	0.005 	-0.00884618
0.05 	0.0559375 	0.005 	-0.0105214
0.05 	0.0565625 	0.005 	-0.0122271
0.05 	0.0571875 	0.005 	-0.0139615
0.05 	0.0578125 	0.005 	-0.0157223
0.05 	0.0584375 	0.005 	-0.0175076
0.05 	0.0590625 	0.005 	-0.0193152
0.05 	0.0596875 	0.005 	-0.021143
0.05 	0.0603125 	0.005 	-0.0229883
0.05 	0.0609375 	0.005 	-0.0248486
0.05 	0.0615625 	0.005 	-0.0267207
0.05 	0.0621875 	0.005 	-0.0286014
0.05 	0.0628125 	0.005 	-0.030487
0.05 	0.0634375 	0.005 	-0.032374
0.05 	0.0640625 	0.005 	-0.0342585
0.05 	0.0646875 	0.005 	-0.0361367
0.05 	0.0653125 	0.005 	-0.0380045
0.05 	0.0659375 	0.005 	-0.0398574
0.05 	0.0665625 	0.005 	-0.0416905
0.05 	0.0671875 	0.005 	-0.0434991
0.05 	0.0678125 	0.005 	-0.0452783
0.05 	0.0684375 	0.005 	-0.0470232
0.05 	0.0690625 	0.005 	-0.0487289
0.05 	0.0696875 	0.005 	-0.0503904
0.05 	0.0703125 	0.005 	-0.0520028
0.05 	0.0709375 	0.005 	-0.0535611
0.05 	0.0715625 	0.005 	-0.0550603
0.05 	0.0721875 	0.005 	-0.0564951
0.05 	0.0728125 	0.005 	-0.0578603
0.05 	0.0734375 	0.005 	-0.0591509
0.05 	0.0740625 	0.005 	-0.060362
0.05 	0.0746875 	0.005 	-0.0614888
0.05 	0.0753125 	0.005 	-0.0625274
0.05 	0.0759375 	0.005 	-0.0634739
0.05 	0.0765625 	0.005 	-0.0643248
0.05 	0.0771875 	0.005 	-0.065077
0.05 	0.0778125 	0.005 	-0.0657274
0.05 	0.0784375 	0.005 	-0.0662733
0.05 	0.0790625 	0.005 	-0.0667124
0.05 	0.0796875 	0.005 	-0.067043
0.05 	0.0803125 	0.005 	-0.0672639
0.05 	0.0809375 	0.005 	-0.0673746
0.05 	0.0815625 	0.005 	-0.0673751
0.05 	0.0821875 	0.005 	-0.0672664
0.05 	0.0828125 	0.005 	-0.0670497
0.05 	0.0834375 	0.005 	-0.0667271
0.05 	0.0840625 	0.005 	-0.0663012
0.05 	0.0846875 	0.005 	-0.0657755
0.05 	0.0853125 	0.005 	-0.0651543
0.05 	0.0859375 	0.005 	-0.0644424
0.05 	0.0865625 	0.005 	-0.0636451
0.05 	0.0871875 	0.005 	-0.0627689
0.05 	0.0878125 	0.005 	-0.0618204
0.05 	0.0884375 	0.005 	-0.0608072
0.05 	0.0890625 	0.005 	-0.0597368
0.05 	0.0896875 	0.005 	-0.0586175
0.05 	0.0903125 	0.005 	-0.0574577
0.05 	0.0909375 	0.005 	-0.0562663
0.05 	0.0915625 	0.005 	-0.0550524
0.05 	0.0921875 	0.005 	-0.0538255
0.05 	0.0928125 	0.005 	-0.0525951
0.05 	0.0934375 	0.005 	-0.0513707
0.05 	0.0940625 	0.005 	-0.0501617
0.05 	0.0946875 	0.005 	-0.0489773
0.05 	0.0953125 	0.005 	-0.0478262
0.05 	0.0959375 	0.005 	-0.0467167
0.05 	0.0965625 	0.005 	-0.0456562
0.05 	0.0971875 	0.005 	-0.0446514
0.05 	0.0978125 	0.005 	-0.0437121
0.05 	0.0984375 	0.005 	-0.0428471
0.05 	0.0990625 	0.005 	-0.04201
0.05 	0.0996875 	0.005 	-0.0411535
