0.05 	0.0003125 	0.005 	-0.00119519 	1.53683e-06 	0
0.05 	0.0009375 	0.005 	-0.00341259 	1.00005e-05 	0
0.05 	0.0015625 	0.005 	-0.005467 	2.78796e-05 	0
0.05 	0.0021875 	0.005 	-0.00736771 	5.2923e-05 	0
0.05 	0.0028125 	0.005 	-0.00912336 	8.38185e-05 	0
0.05 	0.0034375 	0.005 	-0.0107422 	0.000119735 	0
0.05 	0.0040625 	0.005 	-0.0122322 	0.0001599 	0
0.05 	0.0046875 	0.005 	-0.0136011 	0.000203628 	0
0.05 	0.0053125 	0.005 	-0.0148565 	0.000250336 	0
0.05 	0.0059375 	0.005 	-0.0160058 	0.000299536 	0
0.05 	0.0065625 	0.005 	-0.0170564 	0.000350825 	0
0.05 	0.0071875 	0.005 	-0.0180155 	0.000403877 	0
0.05 	0.0078125 	0.005 	-0.0188903 	0.000458436 	0
0.05 	0.0084375 	0.005 	-0.0196878 	0.000514308 	0
0.05 	0.0090625 	0.005 	-0.0204147 	0.000571356 	0
0.05 	0.0096875 	0.005 	-0.0210779 	0.000629493 	0
0.05 	0.0103125 	0.005 	-0.0216837 	0.000688675 	0
0.05 	0.0109375 	0.005 	-0.0222384 	0.000748897 	0
0.05 	0.0115625 	0.005 	-0.0227478 	0.000810189 	0
0.05 	0.0121875 	0.005 	-0.0232176 	0.000872608 	0
0.05 	0.0128125 	0.005 	-0.0236532 	0.000936238 	0
0.05 	0.0134375 	0.005 	-0.0240595 	0.00100118 	0
0.05 	0.0140625 	0.005 	-0.0244412 	0.00106757 	0
0.05 	0.0146875 	0.005 	-0.0248026 	0.00113553 	0
0.05 	0.0153125 	0.005 	-0.0251477 	0.00120522 	0
0.05 	0.0159375 	0.005 	-0.02548 	0.00127679 	0
0.05 	0.0165625 	0.005 	-0.0258029 	0.00135043 	0
0.05 	0.0171875 	0.005 	-0.0261193 	0.0014263 	0
0.05 	0.0178125 	0.005 	-0.0264318 	0.00150459 	0
0.05 	0.0184375 	0.005 	-0.0267429 	0.00158549 	0
0.05 	0.0190625 	0.005 	-0.0270547 	0.00166919 	0
0.05 	0.0196875 	0.005 	-0.0273689 	0.00175589 	0
0.05 	0.0203125 	0.005 	-0.0276873 	0.0018458 	0
0.05 	0.0209375 	0.005 	-0.0280112 	0.00193912 	0
0.05 	0.0215625 	0.005 	-0.0283418 	0.00203605 	0
0.05 	0.0221875 	0.005 	-0.0286802 	0.00213682 	0
0.05 	0.0228125 	0.005 	-0.0290274 	0.00224165 	0
0.05 	0.0234375 	0.005 	-0.0293841 	0.00235075 	0
0.05 	0.0240625 	0.005 	-0.029751 	0.00246436 	0
0.05 	0.0246875 	0.005 	-0.0301286 	0.00258271 	0
0.05 	0.0253125 	0.005 	-0.0305174 	0.00270605 	0
0.05 	0.0259375 	0.005 	-0.0309179 	0.00283463 	0
0.05 	0.0265625 	0.005 	-0.0313304 	0.00296869 	0
0.05 	0.0271875 	0.005 	-0.0317551 	0.0031085 	0
0.05 	0.0278125 	0.005 	-0.0321924 	0.00325434 	0
0.05 	0.0284375 	0.005 	-0.0326424 	0.00340649 	0
0.05 	0.0290625 	0.005 	-0.0331053 	0.00356523 	0
0.05 	0.0296875 	0.005 	-0.0335813 	0.00373087 	0
0.05 	0.0303125 	0.005 	-0.0340705 	0.00390371 	0
0.05 	0.0309375 	0.005 	-0.0345729 	0.00408407 	0
0.05 	0.0315625 	0.005 	-0.0350886 	0.00427229 	0
0.05 	0.0321875 	0.005 	-0.0356178 	0.0044687 	0
0.05 	0.0328125 	0.005 	-0.0361604 	0.00467366 	0
0.05 	0.0334375 	0.005 	-0.0367164 	0.00488754 	0
0.05 	0.0340625 	0.005 	-0.0372859 	0.00511069 	0
0.05 	0.0346875 	0.005 	-0.0378688 	0.00534352 	0
0.05 	0.0353125 	0.005 	-0.0384651 	0.00558641 	0
0.05 	0.0359375 	0.005 	-0.0390748 	0.00583978 	0
0.05 	0.0365625 	0.005 	-0.0396977 	0.00610404 	0
0.05 	0.0371875 	0.005 	-0.0403338 	0.00637963 	0
0.05 	0.0378125 	0.005 	-0.040983 	0.00666698 	0
0.05 	0.0384375 	0.005 	-0.0416452 	0.00696655 	0
0.05 	0.0390625 	0.005 	-0.0423201 	0.00727879 	0
0.05 	0.0396875 	0.005 	-0.0430076 	0.00760416 	0
0.05 	0.0403125 	0.005 	-0.0437074 	0.00794316 	0
0.05 	0.0409375 	0.005 	-0.0444194 	0.00829625 	0
0.05 	0.0415625 	0.005 	-0.0451432 	0.00866393 	0
0.05 	0.0421875 	0.005 	-0.0458786 	0.00904669 	0
0.05 	0.0428125 	0.005 	-0.0466251 	0.00944501 	0
0.05 	0.0434375 	0.005 	-0.0473825 	0.00985941 	0
0.05 	0.0440625 	0.005 	-0.0481502 	0.0102904 	0
0.05 	0.0446875 	0.005 	-0.0489278 	0.0107384 	0
0.05 	0.0453125 	0.005 	-0.0497147 	0.0112039 	0
0.05 	0.0459375 	0.005 	-0.0505105 	0.0116874 	0
0.05 	0.0465625 	0.005 	-0.0513146 	0.0121894 	0
0.05 	0.0471875 	0.005 	-0.0521261 	0.0127104 	0
0.05 	0.0478125 	0.005 	-0.0529446 	0.0132507 	0
0.05 	0.0484375 	0.005 	-0.0537691 	0.0138107 	0
0.05 	0.0490625 	0.005 	-0.0545988 	0.0143909 	0
0.05 	0.0496875 	0.005 	-0.055433 	0.0149915 	0
0.05 	0.0503125 	0.005 	-0.0562706 	0.015613 	0
0.05 	0.0509375 	0.005 	-0.0571107 	0.0162555 	0
0.05 	0.0515625 	0.005 	-0.0579521 	0.0169193 	0
0.05 	0.0521875 	0.005 	-0.0587939 	0.0176045 	0
0.05 	0.0528125 	0.005 	-0.0596349 	0.0183113 	0
0.05 	0.0534375 	0.005 	-0.0604737 	0.0190397 	0
0.05 	0.0540625 	0.005 	-0.0613092 	0.0197896 	0
0.05 	0.0546875 	0.005 	-0.06214 	0.020561 	0
0.05 	0.0553125 	0.005 	-0.0629648 	0.0213536 	0
0.05 	0.0559375 	0.005 	-0.0637821 	0.0221672 	0
0.05 	0.0565625 	0.005 	-0.0645904 	0.0230013 	0
0.05 	0.0571875 	0.005 	-0.0653883 	0.0238555 	0
0.05 	0.0578125 	0.005 	-0.0661743 	0.024729 	0
0.05 	0.0584375 	0.005 	-0.0669467 	0.0256212 	0
0.05 	0.0590625 	0.005 	-0.0677041 	0.0265312 	0
0.05 	0.0596875 	0.005 	-0.0684448 	0.027458 	0
0.05 	0.0603125 	0.005 	-0.0691674 	0.0284003 	0
0.05 	0.0609375 	0.005 	-0.0698701 	0.0293569 	0
0.05 	0.0615625 	0.005 	-0.0705516 	0.0303263 	0
0.05 	0.0621875 	0.005 	-0.0712103 	0.031307 	0
0.05 	0.0628125 	0.005 	-0.0718448 	0.0322971 	0
0.05 	0.0634375 	0.005 	-0.0724537 	0.0332947 	0
0.05 	0.0640625 	0.005 	-0.0730356 	0.0342977 	0
0.05 	0.0646875 	0.005 	-0.0735893 	0.0353039 	0
0.05 	0.0653125 	0.005 	-0.0741136 	0.036311 	0
0.05 	0.0659375 	0.005 	-0.0746074 	0.0373163 	0
0.05 	0.0665625 	0.005 	-0.0750697 	0.0383172 	0
0.05 	0.0671875 	0.005 	-0.0754994 	0.0393109 	0
0.05 	0.0678125 	0.005 	-0.0758957 	0.0402946 	0
0.05 	0.0684375 	0.005 	-0.0762578 	0.0412651 	0
0.05 	0.0690625 	0.005 	-0.0765846 	0.0422193 	0
0.05 	0.0696875 	0.005 	-0.0768754 	0.0431541 	0
0.05 	0.0703125 	0.005 	-0.0771291 	0.0440662 	0
0.05 	0.0709375 	0.005 	-0.0773446 	0.0449523 	0
0.05 	0.0715625 	0.005 	-0.0775202 	0.045809 	0
0.05 	0.0721875 	0.005 	-0.0776542 	0.0466331 	0
0.05 	0.0728125 	0.005 	-0.0777442 	0.0474211 	0
0.05 	0.0734375 	0.005 	-0.0777869 	0.0481697 	0
0.05 	0.0740625 	0.005 	-0.0777782 	0.0488756 	0
0.05 	0.0746875 	0.005 	-0.0777126 	0.0495356 	0
0.05 	0.0753125 	0.005 	-0.0775834 	0.0501464 	0
0.05 	0.0759375 	0.005 	-0.0773814 	0.0507047 	0
0.05 	0.0765625 	0.005 	-0.0770954 	0.0512076 	0
0.05 	0.0771875 	0.005 	-0.0767113 	0.0516517 	0
0.05 	0.0778125 	0.005 	-0.0762113 	0.0520339 	0
0.05 	0.0784375 	0.005 	-0.0755735 	0.052351 	0
0.05 	0.0790625 	0.005 	-0.0747712 	0.0525998 	0
0.05 	0.0796875 	0.005 	-0.0737719 	0.0527767 	0
0.05 	0.0803125 	0.005 	-0.0725365 	0.0528782 	0
0.05 	0.0809375 	0.005 	-0.0710179 	0.0529002 	0
0.05 	0.0815625 	0.005 	-0.0691606 	0.0528385 	0
0.05 	0.0821875 	0.005 	-0.0668989 	0.0526881 	0
0.05 	0.0828125 	0.005 	-0.0641558 	0.0524438 	0
0.05 	0.0834375 	0.005 	-0.0608417 	0.0520993 	0
0.05 	0.0840625 	0.005 	-0.056853 	0.0516479 	0
0.05 	0.0846875 	0.005 	-0.0520705 	0.0510818 	0
0.05 	0.0853125 	0.005 	-0.0463577 	0.0503923 	0
0.05 	0.0859375 	0.005 	-0.0395596 	0.0495699 	0
0.05 	0.0865625 	0.005 	-0.0315002 	0.0486042 	0
0.05 	0.0871875 	0.005 	-0.0219817 	0.0474841 	0
0.05 	0.0878125 	0.005 	-0.0107815 	0.0461979 	0
0.05 	0.0884375 	0.005 	0.00234892 	0.0447339 	0
0.05 	0.0890625 	0.005 	0.0176862 	0.0430808 	0
0.05 	0.0896875 	0.005 	0.0355372 	0.0412284 	0
0.05 	0.0903125 	0.005 	0.0562399 	0.0391684 	0
0.05 	0.0909375 	0.005 	0.0801647 	0.0368957 	0
0.05 	0.0915625 	0.005 	0.107713 	0.0344096 	0
0.05 	0.0921875 	0.005 	0.139316 	0.0317155 	0
0.05 	0.0928125 	0.005 	0.175428 	0.0288265 	0
0.05 	0.0934375 	0.005 	0.216513 	0.0257656 	0
0.05 	0.0940625 	0.005 	0.263035 	0.0225674 	0
0.05 	0.0946875 	0.005 	0.315425 	0.0192798 	0
0.05 	0.0953125 	0.005 	0.374051 	0.0159659 	0
0.05 	0.0959375 	0.005 	0.439174 	0.0127038 	0
0.05 	0.0965625 	0.005 	0.510887 	0.0095866 	0
0.05 	0.0971875 	0.005 	0.589056 	0.00672041 	0
0.05 	0.0978125 	0.005 	0.673248 	0.00421743 	0
0.05 	0.0984375 	0.005 	0.762669 	0.00218698 	0
0.05 	0.0990625 	0.005 	0.856114 	0.000758294 	0
0.05 	0.0996875 	0.005 	0.951938 	0.000106698 	0
