0.05 	0.0003125 	0.005 	0.00238848
0.05 	0.0009375 	0.005 	0.00239309
0.05 	0.0015625 	0.005 	0.00239667
0.05 	0.0021875 	0.005 	0.00239955
0.05 	0.0028125 	0.005 	0.00240204
0.05 	0.0034375 	0.005 	0.0024041
0.05 	0.0040625 	0.005 	0.00240567
0.05 	0.0046875 	0.005 	0.00240674
0.05 	0.0053125 	0.005 	0.00240729
0.05 	0.0059375 	0.005 	0.00240728
0.05 	0.0065625 	0.005 	0.0024067
0.05 	0.0071875 	0.005 	0.00240551
0.05 	0.0078125 	0.005 	0.00240369
0.05 	0.0084375 	0.005 	0.00240122
0.05 	0.0090625 	0.005 	0.00239808
0.05 	0.0096875 	0.005 	0.00239424
0.05 	0.0103125 	0.005 	0.00238969
0.05 	0.0109375 	0.005 	0.00238441
0.05 	0.0115625 	0.005 	0.00237837
0.05 	0.0121875 	0.005 	0.00237155
0.05 	0.0128125 	0.005 	0.00236393
0.05 	0.0134375 	0.005 	0.00235549
0.05 	0.0140625 	0.005 	0.00234621
0.05 	0.0146875 	0.005 	0.00233605
0.05 	0.0153125 	0.005 	0.00232499
0.05 	0.0159375 	0.005 	0.00231301
0.05 	0.0165625 	0.005 	0.00230006
0.05 	0.0171875 	0.005 	0.0022861
0.05 	0.0178125 	0.005 	0.00227111
0.05 	0.0184375 	0.005 	0.00225503
0.05 	0.0190625 	0.005 	0.00223782
0.05 	0.0196875 	0.005 	0.00221943
0.05 	0.0203125 	0.005 	0.00219979
0.05 	0.0209375 	0.005 	0.00217885
0.05 	0.0215625 	0.005 	0.00215653
0.05 	0.0221875 	0.005 	0.00213278
0.05 	0.0228125 	0.005 	0.0021075
0.05 	0.0234375 	0.005 	0.00208062
0.05 	0.0240625 	0.005 	0.00205204
0.05 	0.0246875 	0.005 	0.00202166
0.05 	0.0253125 	0.005 	0.00198939
0.05 	0.0259375 	0.005 	0.0019551
0.05 	0.0265625 	0.005 	0.00191868
0.05 	0.0271875 	0.005 	0.00187999
0.05 	0.0278125 	0.005 	0.00183891
0.05 	0.0284375 	0.005 	0.00179529
0.05 	0.0290625 	0.005 	0.00174896
0.05 	0.0296875 	0.005 	0.00169977
0.05 	0.0303125 	0.005 	0.00164754
0.05 	0.0309375 	0.005 	0.00159209
0.05 	0.0315625 	0.005 	0.00153322
0.05 	0.0321875 	0.005 	0.00147072
0.05 	0.0328125 	0.005 	0.00140438
0.05 	0.0334375 	0.005 	0.00133397
0.05 	0.0340625 	0.005 	0.00125924
0.05 	0.0346875 	0.005 	0.00117994
0.05 	0.0353125 	0.005 	0.0010958
0.05 	0.0359375 	0.005 	0.00100655
0.05 	0.0365625 	0.005 	0.000911892
0.05 	0.0371875 	0.005 	0.000811521
0.05 	0.0378125 	0.005 	0.000705118
0.05 	0.0384375 	0.005 	0.000592354
0.05 	0.0390625 	0.005 	0.000472885
0.05 	0.0396875 	0.005 	0.000346356
0.05 	0.0403125 	0.005 	0.0002124
0.05 	0.0409375 	0.005 	7.06392e-05
0.05 	0.0415625 	0.005 	-7.93149e-05
0.05 	0.0421875 	0.005 	-0.000237858
0.05 	0.0428125 	0.005 	-0.000405395
0.05 	0.0434375 	0.005 	-0.000582333
0.05 	0.0440625 	0.005 	-0.000769086
0.05 	0.0446875 	0.005 	-0.000966069
0.05 	0.0453125 	0.005 	-0.00117369
0.05 	0.0459375 	0.005 	-0.00139237
0.05 	0.0465625 	0.005 	-0.00162249
0.05 	0.0471875 	0.005 	-0.00186445
0.05 	0.0478125 	0.005 	-0.00211862
0.05 	0.0484375 	0.005 	-0.00238535
0.05 	0.0490625 	0.005 	-0.00266496
0.05 	0.0496875 	0.005 	-0.00295775
0.05 	0.0503125 	0.005 	-0.00326396
0.05 	0.0509375 	0.005 	-0.00358382
0.05 	0.0515625 	0.005 	-0.00391747
0.05 	0.0521875 	0.005 	-0.00426503
0.05 	0.0528125 	0.005 	-0.00462652
0.05 	0.0534375 	0.005 	-0.00500193
0.05 	0.0540625 	0.005 	-0.00539112
0.05 	0.0546875 	0.005 	-0.0057939
0.05 	0.0553125 	0.005 	-0.00620998
0.05 	0.0559375 	0.005 	-0.00663896
0.05 	0.0565625 	0.005 	-0.00708034
0.05 	0.0571875 	0.005 	-0.00753353
0.05 	0.0578125 	0.005 	-0.0079978
0.05 	0.0584375 	0.005 	-0.00847231
0.05 	0.0590625 	0.005 	-0.00895613
0.05 	0.0596875 	0.005 	-0.00944818
0.05 	0.0603125 	0.005 	-0.00994729
0.05 	0.0609375 	0.005 	-0.0104522
0.05 	0.0615625 	0.005 	-0.0109614
0.05 	0.0621875 	0.005 	-0.0114736
0.05 	0.0628125 	0.005 	-0.0119871
0.05 	0.0634375 	0.005 	-0.0125003
0.05 	0.0640625 	0.005 	-0.0130115
0.05 	0.0646875 	0.005 	-0.0135189
0.05 	0.0653125 	0.005 	-0.0140208
0.05 	0.0659375 	0.005 	-0.0145154
0.05 	0.0665625 	0.005 	-0.0150008
0.05 	0.0671875 	0.005 	-0.0154755
0.05 	0.0678125 	0.005 	-0.0159376
0.05 	0.0684375 	0.005 	-0.0163856
0.05 	0.0690625 	0.005 	-0.0168178
0.05 	0.0696875 	0.005 	-0.0172328
0.05 	0.0703125 	0.005 	-0.0176292
0.05 	0.0709375 	0.005 	-0.0180059
0.05 	0.0715625 	0.005 	-0.0183618
0.05 	0.0721875 	0.005 	-0.0186959
0.05 	0.0728125 	0.005 	-0.0190074
0.05 	0.0734375 	0.005 	-0.0192958
0.05 	0.0740625 	0.005 	-0.0195606
0.05 	0.0746875 	0.005 	-0.0198016
0.05 	0.0753125 	0.005 	-0.0200186
0.05 	0.0759375 	0.005 	-0.0202117
0.05 	0.0765625 	0.005 	-0.0203812
0.05 	0.0771875 	0.005 	-0.0205274
0.05 	0.0778125 	0.005 	-0.0206509
0.05 	0.0784375 	0.005 	-0.0207524
0.05 	0.0790625 	0.005 	-0.0208327
0.05 	0.0796875 	0.005 	-0.0208927
0.05 	0.0803125 	0.005 	-0.0209335
0.05 	0.0809375 	0.005 	-0.0209563
0.05 	0.0815625 	0.005 	-0.0209622
0.05 	0.0821875 	0.005 	-0.0209526
0.05 	0.0828125 	0.005 	-0.0209288
0.05 	0.0834375 	0.005 	-0.0208922
0.05 	0.0840625 	0.005 	-0.0208443
0.05 	0.0846875 	0.005 	-0.0207864
0.05 	0.0853125 	0.005 	-0.02072
0.05 	0.0859375 	0.005 	-0.0206463
0.05 	0.0865625 	0.005 	-0.0205666
0.05 	0.0871875 	0.005 	-0.020482
0.05 	0.0878125 	0.005 	-0.0203934
0.05 	0.0884375 	0.005 	-0.0203017
0.05 	0.0890625 	0.005 	-0.0202074
0.05 	0.0896875 	0.005 	-0.0201107
0.05 	0.0903125 	0.005 	-0.0200119
0.05 	0.0909375 	0.005 	-0.0199107
0.05 	0.0915625 	0.005 	-0.0198066
0.05 	0.0921875 	0.005 	-0.0196989
0.05 	0.0928125 	0.005 	-0.0195867
0.05 	0.0934375 	0.005 	-0.0194688
0.05 	0.0940625 	0.005 	-0.0193441
0.05 	0.0946875 	0.005 	-0.019211
0.05 	0.0953125 	0.005 	-0.0190682
0.05 	0.0959375 	0.005 	-0.018914
0.05 	0.0965625 	0.005 	-0.0187465
0.05 	0.0971875 	0.005 	-0.0185637
0.05 	0.0978125 	0.005 	-0.0183648
0.05 	0.0984375 	0.005 	-0.0181492
0.05 	0.0990625 	0.005 	-0.0178918
0.05 	0.0996875 	0.005 	-0.0175651
