0.05 	0.0003125 	0.005 	-0.00150523 	1.91791e-06 	0
0.05 	0.0009375 	0.005 	-0.00430671 	1.29633e-05 	0
0.05 	0.0015625 	0.005 	-0.00691315 	3.68246e-05 	0
0.05 	0.0021875 	0.005 	-0.00933758 	7.08866e-05 	0
0.05 	0.0028125 	0.005 	-0.0115922 	0.000113663 	0
0.05 	0.0034375 	0.005 	-0.0136887 	0.000164215 	0
0.05 	0.0040625 	0.005 	-0.0156379 	0.000221622 	0
0.05 	0.0046875 	0.005 	-0.0174502 	0.000285024 	0
0.05 	0.0053125 	0.005 	-0.0191355 	0.00035366 	0
0.05 	0.0059375 	0.005 	-0.020703 	0.000426866 	0
0.05 	0.0065625 	0.005 	-0.0221616 	0.000504068 	0
0.05 	0.0071875 	0.005 	-0.0235196 	0.00058478 	0
0.05 	0.0078125 	0.005 	-0.024785 	0.0006686 	0
0.05 	0.0084375 	0.005 	-0.0259653 	0.00075521 	0
0.05 	0.0090625 	0.005 	-0.0270676 	0.000844367 	0
0.05 	0.0096875 	0.005 	-0.0280988 	0.000935902 	0
0.05 	0.0103125 	0.005 	-0.0290653 	0.00102971 	0
0.05 	0.0109375 	0.005 	-0.0299732 	0.00112577 	0
0.05 	0.0115625 	0.005 	-0.0308284 	0.00122408 	0
0.05 	0.0121875 	0.005 	-0.0316364 	0.00132474 	0
0.05 	0.0128125 	0.005 	-0.0324024 	0.00142788 	0
0.05 	0.0134375 	0.005 	-0.0331314 	0.00153368 	0
0.05 	0.0140625 	0.005 	-0.0338281 	0.00164237 	0
0.05 	0.0146875 	0.005 	-0.034497 	0.00175421 	0
0.05 	0.0153125 	0.005 	-0.0351422 	0.00186951 	0
0.05 	0.0159375 	0.005 	-0.0357677 	0.00198862 	0
0.05 	0.0165625 	0.005 	-0.0363772 	0.00211192 	0
0.05 	0.0171875 	0.005 	-0.0369741 	0.00223981 	0
0.05 	0.0178125 	0.005 	-0.0375618 	0.00237275 	0
0.05 	0.0184375 	0.005 	-0.0381432 	0.0025112 	0
0.05 	0.0190625 	0.005 	-0.0387212 	0.00265566 	0
0.05 	0.0196875 	0.005 	-0.0392984 	0.00280666 	0
0.05 	0.0203125 	0.005 	-0.0398773 	0.00296477 	0
0.05 	0.0209375 	0.005 	-0.0404601 	0.00313055 	0
0.05 	0.0215625 	0.005 	-0.041049 	0.00330463 	0
0.05 	0.0221875 	0.005 	-0.0416457 	0.00348763 	0
0.05 	0.0228125 	0.005 	-0.0422521 	0.00368023 	0
0.05 	0.0234375 	0.005 	-0.0428697 	0.00388312 	0
0.05 	0.0240625 	0.005 	-0.0435001 	0.00409703 	0
0.05 	0.0246875 	0.005 	-0.0441445 	0.00432272 	0
0.05 	0.0253125 	0.005 	-0.0448042 	0.00456097 	0
0.05 	0.0259375 	0.005 	-0.0454802 	0.00481261 	0
0.05 	0.0265625 	0.005 	-0.0461735 	0.0050785 	0
0.05 	0.0271875 	0.005 	-0.0468849 	0.00535955 	0
0.05 	0.0278125 	0.005 	-0.0476152 	0.0056567 	0
0.05 	0.0284375 	0.005 	-0.0483651 	0.00597092 	0
0.05 	0.0290625 	0.005 	-0.0491352 	0.00630324 	0
0.05 	0.0296875 	0.005 	-0.0499258 	0.00665474 	0
0.05 	0.0303125 	0.005 	-0.0507374 	0.00702655 	0
0.05 	0.0309375 	0.005 	-0.0515704 	0.00741982 	0
0.05 	0.0315625 	0.005 	-0.0524248 	0.00783579 	0
0.05 	0.0321875 	0.005 	-0.0533009 	0.00827573 	0
0.05 	0.0328125 	0.005 	-0.0541987 	0.00874098 	0
0.05 	0.0334375 	0.005 	-0.0551181 	0.00923293 	0
0.05 	0.0340625 	0.005 	-0.0560591 	0.00975302 	0
0.05 	0.0346875 	0.005 	-0.0570214 	0.0103028 	0
0.05 	0.0353125 	0.005 	-0.0580046 	0.0108837 	0
0.05 	0.0359375 	0.005 	-0.0590085 	0.0114976 	0
0.05 	0.0365625 	0.005 	-0.0600323 	0.0121459 	0
0.05 	0.0371875 	0.005 	-0.0610756 	0.0128305 	0
0.05 	0.0378125 	0.005 	-0.0621374 	0.0135532 	0
0.05 	0.0384375 	0.005 	-0.0632169 	0.0143158 	0
0.05 	0.0390625 	0.005 	-0.064313 	0.0151202 	0
0.05 	0.0396875 	0.005 	-0.0654246 	0.0159684 	0
0.05 	0.0403125 	0.005 	-0.0665502 	0.0168623 	0
0.05 	0.0409375 	0.005 	-0.0676883 	0.0178039 	0
0.05 	0.0415625 	0.005 	-0.0688372 	0.0187954 	0
0.05 	0.0421875 	0.005 	-0.069995 	0.0198386 	0
0.05 	0.0428125 	0.005 	-0.0711594 	0.0209357 	0
0.05 	0.0434375 	0.005 	-0.0723282 	0.0220887 	0
0.05 	0.0440625 	0.005 	-0.0734987 	0.0232996 	0
0.05 	0.0446875 	0.005 	-0.0746681 	0.0245703 	0
0.05 	0.0453125 	0.005 	-0.0758332 	0.0259027 	0
0.05 	0.0459375 	0.005 	-0.0769908 	0.0272986 	0
0.05 	0.0465625 	0.005 	-0.078137 	0.0287597 	0
0.05 	0.0471875 	0.005 	-0.079268 	0.0302874 	0
0.05 	0.0478125 	0.005 	-0.0803795 	0.031883 	0
0.05 	0.0484375 	0.005 	-0.081467 	0.0335478 	0
0.05 	0.0490625 	0.005 	-0.0825255 	0.0352825 	0
0.05 	0.0496875 	0.005 	-0.08355 	0.0370876 	0
0.05 	0.0503125 	0.005 	-0.0845349 	0.0389635 	0
0.05 	0.0509375 	0.005 	-0.0854746 	0.0409098 	0
0.05 	0.0515625 	0.005 	-0.086363 	0.0429259 	0
0.05 	0.0521875 	0.005 	-0.0871938 	0.0450108 	0
0.05 	0.0528125 	0.005 	-0.0879607 	0.0471628 	0
0.05 	0.0534375 	0.005 	-0.0886569 	0.0493798 	0
0.05 	0.0540625 	0.005 	-0.0892756 	0.0516588 	0
0.05 	0.0546875 	0.005 	-0.08981 	0.0539964 	0
0.05 	0.0553125 	0.005 	-0.090253 	0.0563884 	0
0.05 	0.0559375 	0.005 	-0.0905979 	0.0588298 	0
0.05 	0.0565625 	0.005 	-0.0908378 	0.0613151 	0
0.05 	0.0571875 	0.005 	-0.0909662 	0.0638378 	0
0.05 	0.0578125 	0.005 	-0.0909766 	0.0663906 	0
0.05 	0.0584375 	0.005 	-0.0908631 	0.0689658 	0
0.05 	0.0590625 	0.005 	-0.0906202 	0.0715545 	0
0.05 	0.0596875 	0.005 	-0.0902428 	0.0741474 	0
0.05 	0.0603125 	0.005 	-0.0897267 	0.0767344 	0
0.05 	0.0609375 	0.005 	-0.0890681 	0.079305 	0
0.05 	0.0615625 	0.005 	-0.0882644 	0.0818479 	0
0.05 	0.0621875 	0.005 	-0.0873134 	0.0843517 	0
0.05 	0.0628125 	0.005 	-0.0862143 	0.0868043 	0
0.05 	0.0634375 	0.005 	-0.0849672 	0.0891936 	0
0.05 	0.0640625 	0.005 	-0.083573 	0.0915073 	0
0.05 	0.0646875 	0.005 	-0.0820341 	0.0937332 	0
0.05 	0.0653125 	0.005 	-0.0803536 	0.095859 	0
0.05 	0.0659375 	0.005 	-0.078536 	0.0978729 	0
0.05 	0.0665625 	0.005 	-0.0765867 	0.0997633 	0
0.05 	0.0671875 	0.005 	-0.0745123 	0.101519 	0
0.05 	0.0678125 	0.005 	-0.0723201 	0.10313 	0
0.05 	0.0684375 	0.005 	-0.0700184 	0.104586 	0
0.05 	0.0690625 	0.005 	-0.0676164 	0.105878 	0
0.05 	0.0696875 	0.005 	-0.065124 	0.106999 	0
0.05 	0.0703125 	0.005 	-0.0625513 	0.10794 	0
0.05 	0.0709375 	0.005 	-0.0599092 	0.108697 	0
0.05 	0.0715625 	0.005 	-0.0572086 	0.109263 	0
0.05 	0.0721875 	0.005 	-0.0544605 	0.109635 	0
0.05 	0.0728125 	0.005 	-0.0516757 	0.109811 	0
0.05 	0.0734375 	0.005 	-0.0488649 	0.109788 	0
0.05 	0.0740625 	0.005 	-0.0460378 	0.109566 	0
0.05 	0.0746875 	0.005 	-0.0432034 	0.109145 	0
0.05 	0.0753125 	0.005 	-0.0403697 	0.108528 	0
0.05 	0.0759375 	0.005 	-0.037543 	0.107716 	0
0.05 	0.0765625 	0.005 	-0.0347277 	0.106713 	0
0.05 	0.0771875 	0.005 	-0.0319261 	0.105524 	0
0.05 	0.0778125 	0.005 	-0.0291373 	0.104154 	0
0.05 	0.0784375 	0.005 	-0.0263573 	0.10261 	0
0.05 	0.0790625 	0.005 	-0.0235778 	0.100898 	0
0.05 	0.0796875 	0.005 	-0.0207855 	0.0990261 	0
0.05 	0.0803125 	0.005 	-0.0179613 	0.0970023 	0
0.05 	0.0809375 	0.005 	-0.015079 	0.0948352 	0
0.05 	0.0815625 	0.005 	-0.0121041 	0.0925336 	0
0.05 	0.0821875 	0.005 	-0.00899229 	0.0901064 	0
0.05 	0.0828125 	0.005 	-0.00568762 	0.0875626 	0
0.05 	0.0834375 	0.005 	-0.00212083 	0.0849106 	0
0.05 	0.0840625 	0.005 	0.00179296 	0.0821586 	0
0.05 	0.0846875 	0.005 	0.00615658 	0.0793137 	0
0.05 	0.0853125 	0.005 	0.0110934 	0.0763822 	0
0.05 	0.0859375 	0.005 	0.0167501 	0.073369 	0
0.05 	0.0865625 	0.005 	0.0232995 	0.0702774 	0
0.05 	0.0871875 	0.005 	0.0309439 	0.0671092 	0
0.05 	0.0878125 	0.005 	0.0399177 	0.0638644 	0
0.05 	0.0884375 	0.005 	0.0504905 	0.0605411 	0
0.05 	0.0890625 	0.005 	0.0629699 	0.0571362 	0
0.05 	0.0896875 	0.005 	0.0777035 	0.0536454 	0
0.05 	0.0903125 	0.005 	0.09508 	0.0500645 	0
0.05 	0.0909375 	0.005 	0.115529 	0.0463897 	0
0.05 	0.0915625 	0.005 	0.13952 	0.0426198 	0
0.05 	0.0921875 	0.005 	0.167556 	0.0387574 	0
0.05 	0.0928125 	0.005 	0.200163 	0.0348111 	0
0.05 	0.0934375 	0.005 	0.23788 	0.0307978 	0
0.05 	0.0940625 	0.005 	0.281236 	0.0267451 	0
0.05 	0.0946875 	0.005 	0.330718 	0.0226934 	0
0.05 	0.0953125 	0.005 	0.386735 	0.0186982 	0
0.05 	0.0959375 	0.005 	0.449567 	0.0148308 	0
0.05 	0.0965625 	0.005 	0.519308 	0.0111789 	0
0.05 	0.0971875 	0.005 	0.595793 	0.00784546 	0
0.05 	0.0978125 	0.005 	0.67853 	0.00494221 	0
0.05 	0.0984375 	0.005 	0.766627 	0.00258184 	0
0.05 	0.0990625 	0.005 	0.858732 	0.000908684 	0
0.05 	0.0996875 	0.005 	0.952989 	0.000133008 	0
