/*--------------------------------*- C++ -*----------------------------------*\
  =========                 |
  \\      /  F ield         | OpenFOAM: The Open Source CFD Toolbox
   \\    /   O peration     | Website:  https://openfoam.org
    \\  /    A nd           | Version:  7
     \\/     M anipulation  |
\*---------------------------------------------------------------------------*/
FoamFile
{
    version     2.0;
    format      ascii;
    class       surfaceScalarField;
    location    "0.35";
    object      phi;
}
// * * * * * * * * * * * * * * * * * * * * * * * * * * * * * * * * * * * * * //

dimensions      [0 3 -1 0 0 0 0];

internalField   nonuniform List<scalar> 
50880
(
6.97247e-12
-6.95137e-12
3.69583e-11
-2.99859e-11
8.00152e-11
-4.30586e-11
1.26177e-10
-4.61609e-11
1.68514e-10
-4.23365e-11
2.02333e-10
-3.38193e-11
2.24499e-10
-2.21643e-11
2.32974e-10
-8.47418e-12
2.26488e-10
6.48378e-12
2.04312e-10
2.21739e-11
1.66101e-10
3.82092e-11
1.11786e-10
5.4312e-11
4.15077e-11
7.02773e-11
-4.44436e-11
8.59518e-11
-1.45668e-10
1.01224e-10
-2.61678e-10
1.16011e-10
-3.91926e-10
1.3025e-10
-5.35821e-10
1.43896e-10
-6.9274e-10
1.56918e-10
-8.62034e-10
1.69295e-10
-1.04304e-09
1.81012e-10
-1.2351e-09
1.9206e-10
-1.43754e-09
2.02437e-10
-1.64968e-09
2.12145e-10
-1.87087e-09
2.21189e-10
-2.10045e-09
2.29579e-10
-2.33777e-09
2.37321e-10
-2.5822e-09
2.44425e-10
-2.83311e-09
2.50905e-10
-3.08988e-09
2.56771e-10
-3.35191e-09
2.62039e-10
-3.61864e-09
2.66722e-10
-3.88947e-09
2.70837e-10
-4.16387e-09
2.74395e-10
-4.44128e-09
2.77411e-10
-4.72118e-09
2.799e-10
-5.00306e-09
2.81872e-10
-5.2864e-09
2.83342e-10
-5.57072e-09
2.84324e-10
-5.85555e-09
2.84828e-10
-6.14041e-09
2.84866e-10
-6.42486e-09
2.8445e-10
-6.70845e-09
2.83591e-10
-6.99075e-09
2.82302e-10
-7.27134e-09
2.80592e-10
-7.54981e-09
2.78471e-10
-7.82576e-09
2.75947e-10
-8.09879e-09
2.73029e-10
-8.36851e-09
2.69727e-10
-8.63456e-09
2.66047e-10
-8.89656e-09
2.61996e-10
-9.15414e-09
2.57582e-10
-9.40695e-09
2.5281e-10
-9.65464e-09
2.47689e-10
-9.89686e-09
2.42221e-10
-1.01333e-08
2.36415e-10
-1.03636e-08
2.30278e-10
-1.05874e-08
2.23814e-10
-1.08044e-08
2.17031e-10
-1.10143e-08
2.09936e-10
-1.12169e-08
2.02534e-10
-1.14117e-08
1.94834e-10
-1.15985e-08
1.86841e-10
-1.17771e-08
1.78561e-10
-1.19471e-08
1.70002e-10
-1.21083e-08
1.6117e-10
-1.22604e-08
1.52073e-10
-1.24031e-08
1.42718e-10
-1.25362e-08
1.33115e-10
-1.26595e-08
1.23274e-10
-1.27727e-08
1.13204e-10
-1.28756e-08
1.02914e-10
-1.2968e-08
9.24172e-11
-1.30497e-08
8.1722e-11
-1.31206e-08
7.08413e-11
-1.31803e-08
5.97898e-11
-1.32289e-08
4.85767e-11
-1.32661e-08
3.72141e-11
-1.32918e-08
2.57187e-11
-1.33059e-08
1.41038e-11
-1.33083e-08
2.38582e-12
-1.32989e-08
-9.41514e-12
-1.32776e-08
-2.12841e-11
-1.32444e-08
-3.3205e-11
-1.31993e-08
-4.51561e-11
-1.31422e-08
-5.71207e-11
-1.30731e-08
-6.90827e-11
-1.29921e-08
-8.10174e-11
-1.28992e-08
-9.29023e-11
-1.27944e-08
-1.0472e-10
-1.2678e-08
-1.16447e-10
-1.25499e-08
-1.28058e-10
-1.24104e-08
-1.39533e-10
-1.22595e-08
-1.50851e-10
-1.20976e-08
-1.61984e-10
-1.19247e-08
-1.72908e-10
-1.17411e-08
-1.83604e-10
-1.1547e-08
-1.94048e-10
-1.13428e-08
-2.04212e-10
-1.11287e-08
-2.14072e-10
-1.09051e-08
-2.23606e-10
-1.06723e-08
-2.32786e-10
-1.04307e-08
-2.41587e-10
-1.01808e-08
-2.49988e-10
-9.92279e-09
-2.57967e-10
-9.65729e-09
-2.65496e-10
-9.38473e-09
-2.72555e-10
-9.10561e-09
-2.79124e-10
-8.82043e-09
-2.85181e-10
-8.52972e-09
-2.90705e-10
-8.23405e-09
-2.95675e-10
-7.93398e-09
-3.00073e-10
-7.63009e-09
-3.03883e-10
-7.323e-09
-3.07087e-10
-7.01334e-09
-3.09667e-10
-6.70173e-09
-3.1161e-10
-6.38883e-09
-3.12904e-10
-6.07529e-09
-3.13536e-10
-5.76179e-09
-3.13495e-10
-5.44902e-09
-3.1277e-10
-5.13767e-09
-3.11357e-10
-4.82841e-09
-3.09251e-10
-4.52196e-09
-3.06446e-10
-4.21903e-09
-3.02937e-10
-3.92031e-09
-2.9872e-10
-3.62651e-09
-2.93797e-10
-3.33835e-09
-2.88167e-10
-3.05651e-09
-2.81835e-10
-2.78171e-09
-2.74807e-10
-2.51461e-09
-2.67094e-10
-2.25591e-09
-2.58705e-10
-2.00626e-09
-2.49651e-10
-1.76632e-09
-2.39944e-10
-1.53671e-09
-2.29599e-10
-1.31807e-09
-2.18639e-10
-1.11098e-09
-2.07086e-10
-9.16022e-10
-1.94962e-10
-7.33726e-10
-1.82295e-10
-5.64606e-10
-1.69118e-10
-4.09139e-10
-1.55467e-10
-2.67761e-10
-1.41381e-10
-1.4086e-10
-1.26904e-10
-2.87693e-11
-1.12091e-10
6.8235e-11
-9.70039e-11
1.4995e-10
-8.1716e-11
2.16257e-10
-6.63097e-11
2.67141e-10
-5.08849e-11
3.02706e-10
-3.55653e-11
3.23208e-10
-2.05023e-11
3.29087e-10
-5.88181e-12
3.21023e-10
8.06223e-12
2.99997e-10
2.10263e-11
2.6739e-10
3.26085e-11
2.25119e-10
4.22719e-11
1.7583e-10
4.92874e-11
1.23165e-10
5.26634e-11
7.20792e-11
5.1087e-11
2.92331e-11
4.2848e-11
3.18529e-12
2.60482e-11
3.18357e-12
2.99697e-11
-3.69179e-11
9.82315e-11
-9.82517e-11
1.8604e-10
-1.30866e-10
2.76324e-10
-1.36444e-10
3.55087e-10
-1.211e-10
4.11649e-10
-9.0379e-11
4.38178e-10
-4.86927e-11
4.29135e-10
5.71388e-13
3.80756e-10
5.48666e-11
2.90634e-10
1.12298e-10
1.57405e-10
1.71443e-10
-1.95063e-11
2.31226e-10
-2.40065e-10
2.90836e-10
-5.03769e-10
3.49657e-10
-8.09763e-10
4.07216e-10
-1.15691e-09
4.63158e-10
-1.54388e-09
5.17212e-10
-1.96915e-09
5.69172e-10
-2.43113e-09
6.18887e-10
-2.92809e-09
6.66252e-10
-3.45827e-09
7.11192e-10
-4.01988e-09
7.53658e-10
-4.61107e-09
7.93624e-10
-5.23e-09
8.31079e-10
-5.87484e-09
8.6603e-10
-6.54375e-09
8.98492e-10
-7.23492e-09
9.28492e-10
-7.94655e-09
9.56061e-10
-8.67689e-09
9.81238e-10
-9.42418e-09
1.00406e-09
-1.01867e-08
1.02459e-09
-1.09629e-08
1.04286e-09
-1.17509e-08
1.05892e-09
-1.25494e-08
1.07283e-09
-1.33566e-08
1.08463e-09
-1.41711e-08
1.09438e-09
-1.49913e-08
1.10212e-09
-1.58159e-08
1.10789e-09
-1.66433e-08
1.11176e-09
-1.74722e-08
1.11376e-09
-1.83013e-08
1.11394e-09
-1.91292e-08
1.11235e-09
-1.99546e-08
1.10901e-09
-2.07763e-08
1.10399e-09
-2.1593e-08
1.09731e-09
-2.24036e-08
1.089e-09
-2.32068e-08
1.07912e-09
-2.40014e-08
1.06768e-09
-2.47864e-08
1.05473e-09
-2.55606e-08
1.04029e-09
-2.6323e-08
1.02439e-09
-2.70725e-08
1.00706e-09
-2.7808e-08
9.88326e-10
-2.85286e-08
9.68216e-10
-2.92331e-08
9.46753e-10
-2.99206e-08
9.23962e-10
-3.05902e-08
8.99867e-10
-3.12409e-08
8.74496e-10
-3.18717e-08
8.47874e-10
-3.24818e-08
8.20028e-10
-3.30703e-08
7.90982e-10
-3.36362e-08
7.60764e-10
-3.41788e-08
7.29401e-10
-3.46971e-08
6.96919e-10
-3.51905e-08
6.63346e-10
-3.5658e-08
6.2871e-10
-3.6099e-08
5.93042e-10
-3.65126e-08
5.56377e-10
-3.68983e-08
5.18747e-10
-3.72552e-08
4.80191e-10
-3.75827e-08
4.40749e-10
-3.78803e-08
4.00459e-10
-3.81472e-08
3.59363e-10
-3.8383e-08
3.17505e-10
-3.85871e-08
2.74931e-10
-3.8759e-08
2.31691e-10
-3.88983e-08
1.87837e-10
-3.90045e-08
1.4342e-10
-3.90772e-08
9.84948e-11
-3.91163e-08
5.31239e-11
-3.91212e-08
7.36547e-12
-3.90919e-08
-3.87151e-11
-3.90282e-08
-8.50467e-11
-3.89298e-08
-1.31562e-10
-3.87968e-08
-1.7819e-10
-3.86291e-08
-2.24853e-10
-3.84267e-08
-2.71478e-10
-3.81897e-08
-3.17989e-10
-3.79183e-08
-3.64302e-10
-3.76127e-08
-4.10331e-10
-3.72731e-08
-4.55994e-10
-3.69e-08
-5.01204e-10
-3.64936e-08
-5.45867e-10
-3.60546e-08
-5.89897e-10
-3.55834e-08
-6.33206e-10
-3.50806e-08
-6.75699e-10
-3.45469e-08
-7.17284e-10
-3.39831e-08
-7.57871e-10
-3.33899e-08
-7.97365e-10
-3.27683e-08
-8.35668e-10
-3.21193e-08
-8.72687e-10
-3.14437e-08
-9.08329e-10
-3.07428e-08
-9.42501e-10
-3.00177e-08
-9.75109e-10
-2.92696e-08
-1.00607e-09
-2.84998e-08
-1.03529e-09
-2.77097e-08
-1.06268e-09
-2.69006e-08
-1.08816e-09
-2.60741e-08
-1.11166e-09
-2.52318e-08
-1.13309e-09
-2.43751e-08
-1.15237e-09
-2.35057e-08
-1.16943e-09
-2.26254e-08
-1.18421e-09
-2.17358e-08
-1.19664e-09
-2.08388e-08
-1.20666e-09
-1.99362e-08
-1.21421e-09
-1.90299e-08
-1.21925e-09
-1.81217e-08
-1.22173e-09
-1.72136e-08
-1.22161e-09
-1.63075e-08
-1.21886e-09
-1.54054e-08
-1.21344e-09
-1.45093e-08
-1.20533e-09
-1.36213e-08
-1.19453e-09
-1.27432e-08
-1.181e-09
-1.18771e-08
-1.16476e-09
-1.10251e-08
-1.14581e-09
-1.01892e-08
-1.12413e-09
-9.37122e-09
-1.09977e-09
-8.57329e-09
-1.07274e-09
-7.79731e-09
-1.04307e-09
-7.0452e-09
-1.01082e-09
-6.31883e-09
-9.76018e-10
-5.62004e-09
-9.38733e-10
-4.95061e-09
-8.99032e-10
-4.31226e-09
-8.56988e-10
-3.70666e-09
-8.12692e-10
-3.13538e-09
-7.66245e-10
-2.59991e-09
-7.17765e-10
-2.10165e-09
-6.67381e-10
-1.64188e-09
-6.15239e-10
-1.22175e-09
-5.61505e-10
-8.42288e-10
-5.06369e-10
-5.04325e-10
-4.50053e-10
-2.08522e-10
-3.92808e-10
4.46854e-11
-3.34926e-10
2.55125e-10
-2.76749e-10
4.22929e-10
-2.18688e-10
5.48596e-10
-1.6123e-10
6.3306e-10
-1.04966e-10
6.77797e-10
-5.06186e-11
6.84944e-10
9.17134e-13
6.57451e-10
4.85199e-11
5.9929e-10
9.07682e-11
5.1571e-10
1.25851e-10
4.1354e-10
1.51456e-10
3.01532e-10
1.6467e-10
1.90631e-10
1.61987e-10
9.39797e-11
1.395e-10
2.60302e-11
9.39957e-11
2.92137e-11
4.30478e-11
-7.99694e-11
1.30925e-10
-1.86124e-10
2.36731e-10
-2.36676e-10
3.38993e-10
-2.38703e-10
4.19934e-10
-2.02043e-10
4.65416e-10
-1.35861e-10
4.64579e-10
-4.78579e-11
4.09366e-10
5.57824e-11
2.94028e-10
1.70202e-10
1.14692e-10
2.91631e-10
-1.31014e-10
4.17148e-10
-4.44278e-10
5.44488e-10
-8.25338e-10
6.71898e-10
-1.27369e-09
7.98013e-10
-1.78825e-09
9.21778e-10
-2.36747e-09
1.04237e-09
-3.00942e-09
1.15917e-09
-3.71192e-09
1.27168e-09
-4.47256e-09
1.37953e-09
-5.28878e-09
1.48246e-09
-6.15787e-09
1.58028e-09
-7.07706e-09
1.67285e-09
-8.04353e-09
1.76009e-09
-9.0544e-09
1.84195e-09
-1.01068e-08
1.91843e-09
-1.11979e-08
1.98955e-09
-1.23247e-08
2.05534e-09
-1.34845e-08
2.11586e-09
-1.46744e-08
2.17117e-09
-1.58917e-08
2.22137e-09
-1.71337e-08
2.26654e-09
-1.83976e-08
2.30678e-09
-1.96809e-08
2.34219e-09
-2.09809e-08
2.37286e-09
-2.22952e-08
2.39891e-09
-2.36213e-08
2.42043e-09
-2.49567e-08
2.43753e-09
-2.62991e-08
2.45031e-09
-2.76462e-08
2.45887e-09
-2.89957e-08
2.4633e-09
-3.03455e-08
2.46371e-09
-3.16933e-08
2.46019e-09
-3.30371e-08
2.45282e-09
-3.43748e-08
2.44169e-09
-3.57044e-08
2.42689e-09
-3.70239e-08
2.40849e-09
-3.83314e-08
2.38658e-09
-3.96249e-08
2.36123e-09
-4.09027e-08
2.3325e-09
-4.21629e-08
2.30047e-09
-4.34037e-08
2.26521e-09
-4.46234e-08
2.22676e-09
-4.58203e-08
2.1852e-09
-4.69927e-08
2.14059e-09
-4.81389e-08
2.09298e-09
-4.92574e-08
2.04242e-09
-5.03465e-08
1.98898e-09
-5.14047e-08
1.93271e-09
-5.24305e-08
1.87367e-09
-5.34224e-08
1.81192e-09
-5.43789e-08
1.74751e-09
-5.52987e-08
1.68051e-09
-5.61802e-08
1.61098e-09
-5.70223e-08
1.53897e-09
-5.78235e-08
1.46456e-09
-5.85826e-08
1.3878e-09
-5.92983e-08
1.30878e-09
-5.99695e-08
1.22756e-09
-6.0595e-08
1.14422e-09
-6.11736e-08
1.05884e-09
-6.17044e-08
9.71513e-10
-6.21863e-08
8.82326e-10
-6.26183e-08
7.91372e-10
-6.29995e-08
6.98751e-10
-6.33292e-08
6.04566e-10
-6.36064e-08
5.08925e-10
-6.38305e-08
4.11943e-10
-6.40008e-08
3.13741e-10
-6.41168e-08
2.14441e-10
-6.41778e-08
1.14177e-10
-6.41835e-08
1.30857e-11
-6.41336e-08
-8.8692e-11
-6.40276e-08
-1.91009e-10
-6.38654e-08
-2.93708e-10
-6.3647e-08
-3.96632e-10
-6.33722e-08
-4.99618e-10
-6.30412e-08
-6.02495e-10
-6.26541e-08
-7.05089e-10
-6.22112e-08
-8.07225e-10
-6.17128e-08
-9.0872e-10
-6.11594e-08
-1.00938e-09
-6.05516e-08
-1.10902e-09
-5.989e-08
-1.20745e-09
-5.91755e-08
-1.30446e-09
-5.84088e-08
-1.39986e-09
-5.7591e-08
-1.49345e-09
-5.67233e-08
-1.58502e-09
-5.58068e-08
-1.67437e-09
-5.48429e-08
-1.7613e-09
-5.38329e-08
-1.84559e-09
-5.27786e-08
-1.92705e-09
-5.16814e-08
-2.00547e-09
-5.05433e-08
-2.08064e-09
-4.9366e-08
-2.15237e-09
-4.81516e-08
-2.22046e-09
-4.69022e-08
-2.28473e-09
-4.56199e-08
-2.34497e-09
-4.43071e-08
-2.40101e-09
-4.2966e-08
-2.45268e-09
-4.15993e-08
-2.49979e-09
-4.02095e-08
-2.5422e-09
-3.87992e-08
-2.57973e-09
-3.73711e-08
-2.61225e-09
-3.59282e-08
-2.63961e-09
-3.44731e-08
-2.66168e-09
-3.3009e-08
-2.67835e-09
-3.15388e-08
-2.6895e-09
-3.00654e-08
-2.69504e-09
-2.85922e-08
-2.69488e-09
-2.71221e-08
-2.68895e-09
-2.56583e-08
-2.67718e-09
-2.42041e-08
-2.65953e-09
-2.27627e-08
-2.63597e-09
-2.13372e-08
-2.60646e-09
-1.9931e-08
-2.57102e-09
-1.85472e-08
-2.52963e-09
-1.7189e-08
-2.48233e-09
-1.58596e-08
-2.42916e-09
-1.45621e-08
-2.37018e-09
-1.32997e-08
-2.30546e-09
-1.20754e-08
-2.2351e-09
-1.08922e-08
-2.15922e-09
-9.75303e-09
-2.07795e-09
-8.66063e-09
-1.99143e-09
-7.61775e-09
-1.89986e-09
-6.62701e-09
-1.80343e-09
-5.69087e-09
-1.70238e-09
-4.81166e-09
-1.59698e-09
-3.99154e-09
-1.4875e-09
-3.23248e-09
-1.3743e-09
-2.53623e-09
-1.25776e-09
-1.9043e-09
-1.1383e-09
-1.33792e-09
-1.01643e-09
-8.38013e-10
-8.92714e-10
-4.05126e-10
-7.67812e-10
-3.93801e-11
-6.42498e-10
2.59603e-10
-5.17675e-10
4.92789e-10
-3.94418e-10
6.61835e-10
-2.7401e-10
7.69224e-10
-1.58005e-10
8.18431e-10
-4.82903e-11
8.14125e-10
5.2825e-11
7.62397e-10
1.42496e-10
6.71038e-10
2.17212e-10
5.49824e-10
2.72671e-10
4.10791e-10
3.03703e-10
2.68402e-10
3.04374e-10
1.39483e-10
2.68419e-10
4.28101e-11
1.90668e-10
7.20238e-11
4.62796e-11
-1.26248e-10
1.36875e-10
-2.76718e-10
2.39411e-10
-3.39212e-10
3.29174e-10
-3.28462e-10
3.86069e-10
-2.58935e-10
3.93936e-10
-1.43726e-10
3.40079e-10
6.00391e-12
2.14795e-10
1.81067e-10
1.0949e-11
3.74049e-10
-2.76448e-10
5.79029e-10
-6.50601e-10
7.913e-10
-1.11325e-09
1.00714e-09
-1.66495e-09
1.2236e-09
-2.30528e-09
1.43834e-09
-3.03304e-09
1.64954e-09
-3.8464e-09
1.85574e-09
-4.74305e-09
2.05581e-09
-5.72026e-09
2.24888e-09
-6.77498e-09
2.43426e-09
-7.90395e-09
2.61144e-09
-9.10371e-09
2.78004e-09
-1.03706e-08
2.93979e-09
-1.17011e-08
3.09052e-09
-1.30913e-08
3.23213e-09
-1.45374e-08
3.36455e-09
-1.60356e-08
3.4878e-09
-1.75822e-08
3.60192e-09
-1.91733e-08
3.70698e-09
-2.08052e-08
3.80309e-09
-2.24742e-08
3.89037e-09
-2.41766e-08
3.96896e-09
-2.59089e-08
4.03901e-09
-2.76674e-08
4.10067e-09
-2.94486e-08
4.15412e-09
-3.12492e-08
4.19953e-09
-3.30659e-08
4.23705e-09
-3.48952e-08
4.26687e-09
-3.6734e-08
4.28915e-09
-3.85792e-08
4.30406e-09
-4.04277e-08
4.31177e-09
-4.22764e-08
4.31243e-09
-4.41224e-08
4.30621e-09
-4.59629e-08
4.29326e-09
-4.77949e-08
4.27372e-09
-4.96158e-08
4.24774e-09
-5.14227e-08
4.21546e-09
-5.32131e-08
4.177e-09
-5.49844e-08
4.13251e-09
-5.6734e-08
4.08209e-09
-5.84594e-08
4.02587e-09
-6.01582e-08
3.96397e-09
-6.18279e-08
3.89649e-09
-6.34662e-08
3.82355e-09
-6.50709e-08
3.74524e-09
-6.66396e-08
3.66168e-09
-6.81701e-08
3.57295e-09
-6.96603e-08
3.47917e-09
-7.1108e-08
3.38043e-09
-7.25112e-08
3.27685e-09
-7.38678e-08
3.1685e-09
-7.51758e-08
3.05552e-09
-7.64333e-08
2.93799e-09
-7.76383e-08
2.81603e-09
-7.87891e-08
2.68975e-09
-7.98838e-08
2.55927e-09
-8.09207e-08
2.4247e-09
-8.18981e-08
2.28617e-09
-8.28144e-08
2.14382e-09
-8.36679e-08
1.99778e-09
-8.44573e-08
1.84819e-09
-8.5181e-08
1.69522e-09
-8.58377e-08
1.53901e-09
-8.6426e-08
1.37973e-09
-8.69448e-08
1.21756e-09
-8.7393e-08
1.05269e-09
-8.77693e-08
8.85301e-10
-8.8073e-08
7.15597e-10
-8.8303e-08
5.4379e-10
-8.84587e-08
3.70102e-10
-8.85393e-08
1.94759e-10
-8.85442e-08
1.80033e-11
-8.8473e-08
-1.59913e-10
-8.83252e-08
-3.38734e-10
-8.81008e-08
-5.18193e-10
-8.77994e-08
-6.9801e-10
-8.74211e-08
-8.77897e-10
-8.6966e-08
-1.05756e-09
-8.64344e-08
-1.23671e-09
-8.58266e-08
-1.41501e-09
-8.51432e-08
-1.59216e-09
-8.43847e-08
-1.76783e-09
-8.35521e-08
-1.94168e-09
-8.26461e-08
-2.11339e-09
-8.1668e-08
-2.2826e-09
-8.06189e-08
-2.44898e-09
-7.95002e-08
-2.61217e-09
-7.83134e-08
-2.77181e-09
-7.70602e-08
-2.92757e-09
-7.57424e-08
-3.07907e-09
-7.4362e-08
-3.22597e-09
-7.29212e-08
-3.36791e-09
-7.14221e-08
-3.50453e-09
-6.98673e-08
-3.63549e-09
-6.82592e-08
-3.76045e-09
-6.66006e-08
-3.87906e-09
-6.48943e-08
-3.99099e-09
-6.31434e-08
-4.09593e-09
-6.13508e-08
-4.19355e-09
-5.952e-08
-4.28354e-09
-5.76541e-08
-4.36563e-09
-5.57568e-08
-4.43951e-09
-5.38316e-08
-4.50492e-09
-5.18823e-08
-4.56161e-09
-4.99125e-08
-4.60934e-09
-4.79263e-08
-4.64789e-09
-4.59276e-08
-4.67704e-09
-4.39205e-08
-4.69662e-09
-4.19091e-08
-4.70646e-09
-3.98976e-08
-4.7064e-09
-3.78902e-08
-4.69633e-09
-3.58912e-08
-4.67614e-09
-3.3905e-08
-4.64576e-09
-3.19359e-08
-4.60512e-09
-2.99881e-08
-4.55419e-09
-2.80662e-08
-4.49297e-09
-2.61743e-08
-4.42148e-09
-2.43169e-08
-4.33977e-09
-2.24981e-08
-4.24792e-09
-2.07223e-08
-4.14602e-09
-1.89935e-08
-4.03424e-09
-1.73159e-08
-3.91273e-09
-1.56934e-08
-3.7817e-09
-1.413e-08
-3.64139e-09
-1.26293e-08
-3.49209e-09
-1.1195e-08
-3.33412e-09
-9.83063e-09
-3.16785e-09
-8.53933e-09
-2.99369e-09
-7.32419e-09
-2.81211e-09
-6.18805e-09
-2.62365e-09
-5.13345e-09
-2.4289e-09
-4.16264e-09
-2.22856e-09
-3.27756e-09
-2.02339e-09
-2.47971e-09
-1.81427e-09
-1.77021e-09
-1.60222e-09
-1.14962e-09
-1.38839e-09
-6.1798e-10
-1.17414e-09
-1.74619e-10
-9.61037e-10
1.81887e-10
-7.50922e-10
4.53861e-10
-5.45983e-10
6.44676e-10
-3.48822e-10
7.58934e-10
-1.62551e-10
8.02673e-10
9.08725e-12
7.83586e-10
1.61584e-10
7.11277e-10
2.8952e-10
5.97513e-10
3.86431e-10
4.56453e-10
4.44761e-10
3.04841e-10
4.55986e-10
1.62169e-10
4.11093e-10
5.10746e-11
3.01763e-10
1.23098e-10
4.26657e-11
-1.68915e-10
1.22133e-10
-3.56183e-10
2.03794e-10
-4.20876e-10
2.61134e-10
-3.85801e-10
2.72756e-10
-2.70557e-10
2.21396e-10
-9.23674e-11
9.33263e-11
1.34073e-10
-1.22123e-10
3.96518e-10
-4.32974e-10
6.84901e-10
-8.44966e-10
9.91021e-10
-1.3619e-09
1.30824e-09
-1.98595e-09
1.63119e-09
-2.71793e-09
1.95557e-09
-3.55752e-09
2.27793e-09
-4.50345e-09
2.59548e-09
-5.55373e-09
2.90602e-09
-6.70571e-09
3.20779e-09
-7.95624e-09
3.49941e-09
-9.3018e-09
3.77981e-09
-1.07385e-08
4.04815e-09
-1.22623e-08
4.3038e-09
-1.38688e-08
4.54631e-09
-1.55536e-08
4.77536e-09
-1.73123e-08
4.99074e-09
-1.91401e-08
5.19234e-09
-2.10324e-08
5.38014e-09
-2.29846e-08
5.55416e-09
-2.49921e-08
5.71448e-09
-2.70503e-08
5.86124e-09
-2.91545e-08
5.9946e-09
-3.13003e-08
6.11474e-09
-3.34832e-08
6.22188e-09
-3.56987e-08
6.31623e-09
-3.79426e-08
6.39803e-09
-4.02106e-08
6.46753e-09
-4.24985e-08
6.52496e-09
-4.48023e-08
6.5706e-09
-4.71178e-08
6.60467e-09
-4.94411e-08
6.62742e-09
-5.17685e-08
6.63911e-09
-5.4096e-08
6.63998e-09
-5.64201e-08
6.63025e-09
-5.8737e-08
6.61015e-09
-6.10432e-08
6.57992e-09
-6.33352e-08
6.53975e-09
-6.56096e-08
6.48987e-09
-6.78631e-08
6.43048e-09
-7.00923e-08
6.36176e-09
-7.22941e-08
6.28391e-09
-7.44654e-08
6.19711e-09
-7.66029e-08
6.10153e-09
-7.87038e-08
5.99736e-09
-8.0765e-08
5.88474e-09
-8.27836e-08
5.76386e-09
-8.47568e-08
5.63487e-09
-8.66818e-08
5.49793e-09
-8.85558e-08
5.35319e-09
-9.03762e-08
5.20081e-09
-9.21403e-08
5.04096e-09
-9.38456e-08
4.8738e-09
-9.54895e-08
4.69948e-09
-9.70697e-08
4.51818e-09
-9.85838e-08
4.33006e-09
-1.00029e-07
4.1353e-09
-1.01404e-07
3.93409e-09
-1.02706e-07
3.7266e-09
-1.03933e-07
3.51304e-09
-1.05083e-07
3.29362e-09
-1.06153e-07
3.06855e-09
-1.07143e-07
2.83805e-09
-1.0805e-07
2.60237e-09
-1.08873e-07
2.36174e-09
-1.0961e-07
2.11643e-09
-1.10259e-07
1.86671e-09
-1.10819e-07
1.61286e-09
-1.11289e-07
1.35519e-09
-1.11668e-07
1.09401e-09
-1.11953e-07
8.29639e-10
-1.12146e-07
5.62418e-10
-1.12244e-07
2.92706e-10
-1.12247e-07
2.08688e-11
-1.12154e-07
-2.52709e-10
-1.11965e-07
-5.27625e-10
-1.1168e-07
-8.03467e-10
-1.11298e-07
-1.07981e-09
-1.10819e-07
-1.35622e-09
-1.10245e-07
-1.63224e-09
-1.09574e-07
-1.90741e-09
-1.08808e-07
-2.18124e-09
-1.07947e-07
-2.45326e-09
-1.06992e-07
-2.72296e-09
-1.05943e-07
-2.98983e-09
-1.04803e-07
-3.25337e-09
-1.03573e-07
-3.51304e-09
-1.02254e-07
-3.76832e-09
-1.00847e-07
-4.01867e-09
-9.93554e-08
-4.26357e-09
-9.77805e-08
-4.50246e-09
-9.61248e-08
-4.7348e-09
-9.43907e-08
-4.96006e-09
-9.25809e-08
-5.17769e-09
-9.06983e-08
-5.38715e-09
-8.87459e-08
-5.58793e-09
-8.67268e-08
-5.77948e-09
-8.46446e-08
-5.96131e-09
-8.25027e-08
-6.1329e-09
-8.03048e-08
-6.29376e-09
-7.8055e-08
-6.44342e-09
-7.57571e-08
-6.5814e-09
-7.34155e-08
-6.70726e-09
-7.10344e-08
-6.82058e-09
-6.86184e-08
-6.92094e-09
-6.6172e-08
-7.00797e-09
-6.37001e-08
-7.08129e-09
-6.12074e-08
-7.14057e-09
-5.8699e-08
-7.1855e-09
-5.61798e-08
-7.21581e-09
-5.3655e-08
-7.23123e-09
-5.11298e-08
-7.23156e-09
-4.86096e-08
-7.2166e-09
-4.60995e-08
-7.1862e-09
-4.3605e-08
-7.14024e-09
-4.11315e-08
-7.07865e-09
-3.86843e-08
-7.00139e-09
-3.62688e-08
-6.90845e-09
-3.38904e-08
-6.79987e-09
-3.15545e-08
-6.67573e-09
-2.92662e-08
-6.53616e-09
-2.70309e-08
-6.38135e-09
-2.48537e-08
-6.2115e-09
-2.27395e-08
-6.0269e-09
-2.06933e-08
-5.82787e-09
-1.87199e-08
-5.61479e-09
-1.68239e-08
-5.38812e-09
-1.50097e-08
-5.14835e-09
-1.32814e-08
-4.89607e-09
-1.16432e-08
-4.63193e-09
-1.00986e-08
-4.35667e-09
-8.65115e-09
-4.07114e-09
-7.3038e-09
-3.77625e-09
-6.05927e-09
-3.47309e-09
-4.9198e-09
-3.16286e-09
-3.88717e-09
-2.84691e-09
-2.96258e-09
-2.52681e-09
-2.14664e-09
-2.20434e-09
-1.43923e-09
-1.88155e-09
-8.39434e-10
-1.56083e-09
-3.45413e-10
-1.24494e-09
4.57238e-11
-9.37121e-10
3.38079e-10
-6.41179e-10
5.37139e-10
-3.61612e-10
6.49967e-10
-1.0374e-10
6.85415e-10
1.26139e-10
6.54338e-10
3.20595e-10
5.69827e-10
4.70938e-10
4.47445e-10
5.67142e-10
3.05497e-10
5.97934e-10
1.65444e-10
5.51146e-10
5.2782e-11
4.14425e-10
1.75879e-10
3.44031e-11
-2.03319e-10
9.21305e-11
-4.13907e-10
1.38836e-10
-4.6758e-10
1.47614e-10
-3.94577e-10
9.6675e-11
-2.19617e-10
-3.16403e-11
3.59487e-11
-2.51491e-10
3.53924e-10
-5.74e-10
7.19029e-10
-1.00765e-09
1.11855e-09
-1.5586e-09
1.54197e-09
-2.23101e-09
1.98065e-09
-3.02734e-09
2.42752e-09
-3.94855e-09
2.87679e-09
-4.99438e-09
3.32376e-09
-6.16354e-09
3.76463e-09
-7.45384e-09
4.19632e-09
-8.86241e-09
4.61636e-09
-1.03858e-08
5.02276e-09
-1.20199e-08
5.41397e-09
-1.37605e-08
5.78878e-09
-1.5603e-08
6.14624e-09
-1.75423e-08
6.48565e-09
-1.95735e-08
6.80652e-09
-2.16912e-08
7.10851e-09
-2.38903e-08
7.3914e-09
-2.61653e-08
7.65512e-09
-2.85108e-08
7.89966e-09
-3.09214e-08
8.1251e-09
-3.33917e-08
8.33158e-09
-3.59164e-08
8.5193e-09
-3.84902e-08
8.68849e-09
-4.11077e-08
8.83941e-09
-4.37639e-08
8.97237e-09
-4.64535e-08
9.08765e-09
-4.91716e-08
9.1856e-09
-5.19131e-08
9.26653e-09
-5.46733e-08
9.33078e-09
-5.74473e-08
9.37869e-09
-6.02305e-08
9.4106e-09
-6.30182e-08
9.42684e-09
-6.5806e-08
9.42773e-09
-6.85893e-08
9.41361e-09
-7.1364e-08
9.38478e-09
-7.41256e-08
9.34156e-09
-7.68701e-08
9.28424e-09
-7.95933e-08
9.21312e-09
-8.22913e-08
9.12848e-09
-8.49602e-08
9.03059e-09
-8.7596e-08
8.91971e-09
-9.0195e-08
8.79611e-09
-9.27535e-08
8.66003e-09
-9.52678e-08
8.51172e-09
-9.77345e-08
8.35142e-09
-1.0015e-07
8.17936e-09
-1.02511e-07
7.99578e-09
-1.04814e-07
7.80089e-09
-1.07056e-07
7.59493e-09
-1.09233e-07
7.37813e-09
-1.11343e-07
7.15071e-09
-1.13382e-07
6.9129e-09
-1.15347e-07
6.66495e-09
-1.17236e-07
6.40709e-09
-1.19046e-07
6.13958e-09
-1.20773e-07
5.86265e-09
-1.22416e-07
5.57658e-09
-1.23971e-07
5.28163e-09
-1.25436e-07
4.9781e-09
-1.26808e-07
4.66628e-09
-1.28086e-07
4.34647e-09
-1.29267e-07
4.019e-09
-1.30349e-07
3.68422e-09
-1.3133e-07
3.34247e-09
-1.32207e-07
2.99413e-09
-1.3298e-07
2.63959e-09
-1.33647e-07
2.27925e-09
-1.34205e-07
1.91353e-09
-1.34654e-07
1.5429e-09
-1.34992e-07
1.1678e-09
-1.35218e-07
7.88731e-10
-1.35332e-07
4.06188e-10
-1.35332e-07
2.07014e-11
-1.35217e-07
-3.67187e-10
-1.34988e-07
-7.56912e-10
-1.34644e-07
-1.14789e-09
-1.34184e-07
-1.53951e-09
-1.33609e-07
-1.93115e-09
-1.32919e-07
-2.32218e-09
-1.32114e-07
-2.71194e-09
-1.31196e-07
-3.09976e-09
-1.30164e-07
-3.48494e-09
-1.2902e-07
-3.86679e-09
-1.27766e-07
-4.24459e-09
-1.26401e-07
-4.6176e-09
-1.24929e-07
-4.9851e-09
-1.23351e-07
-5.34635e-09
-1.21669e-07
-5.70058e-09
-1.19886e-07
-6.04704e-09
-1.18003e-07
-6.38497e-09
-1.16025e-07
-6.71362e-09
-1.13952e-07
-7.03221e-09
-1.1179e-07
-7.33999e-09
-1.09541e-07
-7.63622e-09
-1.07209e-07
-7.92014e-09
-1.04797e-07
-8.19102e-09
-1.02311e-07
-8.44813e-09
-9.97527e-08
-8.69078e-09
-9.71281e-08
-8.91827e-09
-9.44416e-08
-9.12993e-09
-9.16979e-08
-9.32511e-09
-8.8902e-08
-9.50318e-09
-8.6059e-08
-9.66355e-09
-8.31743e-08
-9.80564e-09
-8.02534e-08
-9.92892e-09
-7.73018e-08
-1.00329e-08
-7.43253e-08
-1.01171e-08
-7.13298e-08
-1.0181e-08
-6.83212e-08
-1.02244e-08
-6.53057e-08
-1.02468e-08
-6.22894e-08
-1.02479e-08
-5.92785e-08
-1.02275e-08
-5.62793e-08
-1.01854e-08
-5.32981e-08
-1.01214e-08
-5.03414e-08
-1.00354e-08
-4.74153e-08
-9.92742e-09
-4.45264e-08
-9.79739e-09
-4.16809e-08
-9.64539e-09
-3.8885e-08
-9.47156e-09
-3.61451e-08
-9.27608e-09
-3.34672e-08
-9.05922e-09
-3.08574e-08
-8.8213e-09
-2.83216e-08
-8.56273e-09
-2.58655e-08
-8.28397e-09
-2.34947e-08
-7.9856e-09
-2.12146e-08
-7.66824e-09
-1.90303e-08
-7.33264e-09
-1.69467e-08
-6.97964e-09
-1.49685e-08
-6.61017e-09
-1.30998e-08
-6.22531e-09
-1.13447e-08
-5.82626e-09
-9.70659e-09
-5.41435e-09
-8.18856e-09
-4.99112e-09
-6.79314e-09
-4.55828e-09
-5.52227e-09
-4.11777e-09
-4.37729e-09
-3.67179e-09
-3.35879e-09
-3.22284e-09
-2.46655e-09
-2.7738e-09
-1.69942e-09
-2.32796e-09
-1.05524e-09
-1.88912e-09
-5.30673e-10
-1.46169e-09
-1.21054e-10
-1.0508e-09
1.79751e-10
-6.62418e-10
3.79535e-10
-3.03525e-10
4.87939e-10
1.77348e-11
5.16645e-10
2.91888e-10
4.79598e-10
5.07983e-10
3.93257e-10
6.53482e-10
2.7694e-10
7.14251e-10
1.53373e-10
6.74714e-10
4.9691e-11
5.18106e-10
2.25569e-10
2.30141e-11
-2.26334e-10
5.11586e-11
-4.42051e-10
5.19734e-11
-4.68397e-10
-6.6283e-13
-3.41939e-10
-1.28135e-10
-9.21453e-11
-3.47902e-10
2.55718e-10
-6.74062e-10
6.80083e-10
-1.11777e-09
1.16274e-09
-1.68762e-09
1.68839e-09
-2.3899e-09
2.24425e-09
-3.2289e-09
2.81966e-09
-4.20719e-09
3.4058e-09
-5.32577e-09
3.99537e-09
-6.58439e-09
4.58238e-09
-7.98166e-09
5.1619e-09
-9.51526e-09
5.72991e-09
-1.11821e-08
6.28315e-09
-1.29783e-08
6.81898e-09
-1.48996e-08
7.33529e-09
-1.69412e-08
7.83041e-09
-1.9098e-08
8.30305e-09
-2.13646e-08
8.75223e-09
-2.37353e-08
9.1772e-09
-2.62043e-08
9.57747e-09
-2.87656e-08
9.9527e-09
-3.14132e-08
1.03027e-08
-3.4141e-08
1.06275e-08
-3.6943e-08
1.09271e-08
-3.9813e-08
1.12016e-08
-4.27449e-08
1.14512e-08
-4.57328e-08
1.16763e-08
-4.87706e-08
1.18772e-08
-5.18524e-08
1.20542e-08
-5.49723e-08
1.22076e-08
-5.81247e-08
1.2338e-08
-6.13038e-08
1.24456e-08
-6.4504e-08
1.2531e-08
-6.77198e-08
1.25945e-08
-7.09459e-08
1.26367e-08
-7.4177e-08
1.26579e-08
-7.74077e-08
1.26585e-08
-8.06332e-08
1.2639e-08
-8.38482e-08
1.25998e-08
-8.70479e-08
1.25413e-08
-9.02276e-08
1.24639e-08
-9.33824e-08
1.23679e-08
-9.65077e-08
1.22538e-08
-9.9599e-08
1.21219e-08
-1.02652e-07
1.19725e-08
-1.05662e-07
1.18061e-08
-1.08625e-07
1.16228e-08
-1.11536e-07
1.14232e-08
-1.14392e-07
1.12074e-08
-1.17188e-07
1.09758e-08
-1.19921e-07
1.07288e-08
-1.22587e-07
1.04665e-08
-1.25182e-07
1.01894e-08
-1.27701e-07
9.89774e-09
-1.30142e-07
9.59182e-09
-1.32501e-07
9.27197e-09
-1.34775e-07
8.93851e-09
-1.3696e-07
8.59176e-09
-1.39052e-07
8.23206e-09
-1.41049e-07
7.85977e-09
-1.42948e-07
7.47523e-09
-1.44745e-07
7.07881e-09
-1.46438e-07
6.67091e-09
-1.48023e-07
6.25193e-09
-1.49499e-07
5.82228e-09
-1.50863e-07
5.38241e-09
-1.52111e-07
4.93278e-09
-1.53243e-07
4.47386e-09
-1.54255e-07
4.00616e-09
-1.55145e-07
3.53021e-09
-1.55913e-07
3.04655e-09
-1.56555e-07
2.55576e-09
-1.5707e-07
2.05845e-09
-1.57458e-07
1.55522e-09
-1.57716e-07
1.04675e-09
-1.57843e-07
5.33709e-10
-1.57839e-07
1.6797e-11
-1.57703e-07
-5.0325e-10
-1.57435e-07
-1.02568e-09
-1.57033e-07
-1.5497e-09
-1.56498e-07
-2.07451e-09
-1.5583e-07
-2.59927e-09
-1.55029e-07
-3.12313e-09
-1.54095e-07
-3.64522e-09
-1.53031e-07
-4.16463e-09
-1.51835e-07
-4.68044e-09
-1.5051e-07
-5.19171e-09
-1.49057e-07
-5.6975e-09
-1.47478e-07
-6.19683e-09
-1.45774e-07
-6.68872e-09
-1.43949e-07
-7.17218e-09
-1.42003e-07
-7.64621e-09
-1.3994e-07
-8.1098e-09
-1.37763e-07
-8.56193e-09
-1.35475e-07
-9.00161e-09
-1.3308e-07
-9.42781e-09
-1.3058e-07
-9.83953e-09
-1.2798e-07
-1.02358e-08
-1.25285e-07
-1.06156e-08
-1.22498e-07
-1.09779e-08
-1.19624e-07
-1.13218e-08
-1.16669e-07
-1.16464e-08
-1.13636e-07
-1.19508e-08
-1.10532e-07
-1.2234e-08
-1.07362e-07
-1.24952e-08
-1.04132e-07
-1.27335e-08
-1.00847e-07
-1.29483e-08
-9.75141e-08
-1.31386e-08
-9.41391e-08
-1.33039e-08
-9.07286e-08
-1.34434e-08
-8.7289e-08
-1.35566e-08
-8.38273e-08
-1.36428e-08
-8.03501e-08
-1.37015e-08
-7.68644e-08
-1.37324e-08
-7.33774e-08
-1.37349e-08
-6.98961e-08
-1.37088e-08
-6.64277e-08
-1.36538e-08
-6.29794e-08
-1.35697e-08
-5.95585e-08
-1.34563e-08
-5.61722e-08
-1.33137e-08
-5.28279e-08
-1.31417e-08
-4.95326e-08
-1.29406e-08
-4.62936e-08
-1.27106e-08
-4.31179e-08
-1.24518e-08
-4.00126e-08
-1.21646e-08
-3.69844e-08
-1.18495e-08
-3.404e-08
-1.15071e-08
-3.11861e-08
-1.11379e-08
-2.84289e-08
-1.07428e-08
-2.57744e-08
-1.03227e-08
-2.32286e-08
-9.87848e-09
-2.07969e-08
-9.41135e-09
-1.84844e-08
-8.92259e-09
-1.62961e-08
-8.41364e-09
-1.42363e-08
-7.88611e-09
-1.23088e-08
-7.34184e-09
-1.0517e-08
-6.78287e-09
-8.86383e-09
-6.21149e-09
-7.3513e-09
-5.6303e-09
-5.98086e-09
-5.04223e-09
-4.75313e-09
-4.45058e-09
-3.6678e-09
-3.85913e-09
-2.72359e-09
-3.27218e-09
-1.91807e-09
-2.69464e-09
-1.24758e-09
-2.13217e-09
-7.07098e-10
-1.59129e-09
-2.90028e-10
-1.07949e-09
1.18933e-11
-6.05448e-10
2.08799e-10
-1.79171e-10
3.12866e-10
1.87821e-10
3.38526e-10
4.82321e-10
3.02729e-10
6.89278e-10
2.25314e-10
7.91665e-10
1.29569e-10
7.70459e-10
4.31475e-11
6.04528e-10
2.68716e-10
9.56008e-12
-2.35893e-10
2.46553e-12
-4.34954e-10
-5.08906e-11
-4.1504e-10
-1.74988e-10
-2.17842e-10
-3.90152e-10
1.23019e-10
-7.13128e-10
5.78695e-10
-1.15753e-09
1.12449e-09
-1.7342e-09
1.73942e-09
-2.45153e-09
2.40572e-09
-3.31569e-09
3.10841e-09
-4.3309e-09
3.83487e-09
-5.49965e-09
4.57455e-09
-6.8229e-09
5.31862e-09
-8.30028e-09
6.05976e-09
-9.93027e-09
6.79189e-09
-1.17104e-08
7.51001e-09
-1.36372e-08
8.21e-09
-1.57068e-08
8.88852e-09
-1.79143e-08
9.54287e-09
-2.02548e-08
1.01709e-08
-2.27226e-08
1.07708e-08
-2.53117e-08
1.13414e-08
-2.80162e-08
1.18816e-08
-3.08295e-08
1.23908e-08
-3.37452e-08
1.28684e-08
-3.67567e-08
1.33142e-08
-3.98573e-08
1.37281e-08
-4.30402e-08
1.411e-08
-4.62987e-08
1.44601e-08
-4.96261e-08
1.47786e-08
-5.30156e-08
1.50659e-08
-5.64606e-08
1.53222e-08
-5.99545e-08
1.55481e-08
-6.34909e-08
1.57439e-08
-6.70631e-08
1.59102e-08
-7.0665e-08
1.60475e-08
-7.42902e-08
1.61562e-08
-7.79326e-08
1.62369e-08
-8.15861e-08
1.62902e-08
-8.52448e-08
1.63165e-08
-8.89027e-08
1.63165e-08
-9.25543e-08
1.62905e-08
-9.61937e-08
1.62392e-08
-9.98155e-08
1.61631e-08
-1.03414e-07
1.60626e-08
-1.06985e-07
1.59382e-08
-1.10521e-07
1.57905e-08
-1.14019e-07
1.56198e-08
-1.17473e-07
1.54266e-08
-1.20878e-07