/*--------------------------------*- C++ -*----------------------------------*\
  =========                 |
  \\      /  F ield         | OpenFOAM: The Open Source CFD Toolbox
   \\    /   O peration     | Website:  https://openfoam.org
    \\  /    A nd           | Version:  7
     \\/     M anipulation  |
\*---------------------------------------------------------------------------*/
FoamFile
{
    version     2.0;
    format      ascii;
    class       volVectorField;
    location    "0.35";
    object      U;
}
// * * * * * * * * * * * * * * * * * * * * * * * * * * * * * * * * * * * * * //

dimensions      [0 1 -1 0 0 0 0];

internalField   nonuniform List<vector> 
25600
(
(2.7745e-07 -2.75137e-07 0)
(3.02412e-06 -1.82478e-06 0)
(9.10416e-06 -2.7681e-06 0)
(1.65263e-05 -3.04251e-06 0)
(2.38066e-05 -2.87474e-06 0)
(3.00368e-05 -2.43144e-06 0)
(3.46113e-05 -1.81917e-06 0)
(3.71268e-05 -1.10746e-06 0)
(3.7327e-05 -3.4074e-07 0)
(3.50578e-05 4.52652e-07 0)
(3.02378e-05 1.25355e-06 0)
(2.28373e-05 2.04877e-06 0)
(1.28642e-05 2.82957e-06 0)
(3.54744e-07 3.58977e-06 0)
(-1.46345e-05 4.32476e-06 0)
(-3.20315e-05 5.03187e-06 0)
(-5.17527e-05 5.70883e-06 0)
(-7.37064e-05 6.35402e-06 0)
(-9.77948e-05 6.96685e-06 0)
(-0.000123916 7.54696e-06 0)
(-0.000151965 8.09395e-06 0)
(-0.000181836 8.60788e-06 0)
(-0.000213421 9.0889e-06 0)
(-0.000246612 9.53752e-06 0)
(-0.000281305 9.95448e-06 0)
(-0.000317392 1.03403e-05 0)
(-0.000354769 1.06951e-05 0)
(-0.000393333 1.10197e-05 0)
(-0.000432983 1.13149e-05 0)
(-0.000473621 1.15815e-05 0)
(-0.000515148 1.18206e-05 0)
(-0.000557472 1.20327e-05 0)
(-0.000600498 1.22188e-05 0)
(-0.000644138 1.23792e-05 0)
(-0.000688304 1.25151e-05 0)
(-0.000732909 1.26268e-05 0)
(-0.000777871 1.27148e-05 0)
(-0.000823108 1.27804e-05 0)
(-0.00086854 1.2824e-05 0)
(-0.000914091 1.28462e-05 0)
(-0.000959684 1.2847e-05 0)
(-0.00100525 1.28273e-05 0)
(-0.00105071 1.27877e-05 0)
(-0.00109599 1.27291e-05 0)
(-0.00114104 1.26519e-05 0)
(-0.00118578 1.25564e-05 0)
(-0.00123015 1.2443e-05 0)
(-0.00127409 1.2312e-05 0)
(-0.00131752 1.21638e-05 0)
(-0.0013604 1.19988e-05 0)
(-0.00140266 1.18174e-05 0)
(-0.00144424 1.16199e-05 0)
(-0.00148508 1.14065e-05 0)
(-0.00152514 1.11775e-05 0)
(-0.00156434 1.09328e-05 0)
(-0.00160265 1.06728e-05 0)
(-0.00163999 1.03979e-05 0)
(-0.00167633 1.01083e-05 0)
(-0.00171161 9.80456e-06 0)
(-0.00174578 9.48668e-06 0)
(-0.00177879 9.15501e-06 0)
(-0.00181059 8.81016e-06 0)
(-0.00184114 8.45209e-06 0)
(-0.00187038 8.08108e-06 0)
(-0.00189828 7.69735e-06 0)
(-0.00192478 7.30093e-06 0)
(-0.00194985 6.89259e-06 0)
(-0.00197345 6.47256e-06 0)
(-0.00199552 6.04098e-06 0)
(-0.00201604 5.59874e-06 0)
(-0.00203497 5.14605e-06 0)
(-0.00205227 4.68305e-06 0)
(-0.0020679 4.21072e-06 0)
(-0.00208184 3.72941e-06 0)
(-0.00209405 3.23942e-06 0)
(-0.00210451 2.74173e-06 0)
(-0.00211318 2.23645e-06 0)
(-0.00212005 1.7236e-06 0)
(-0.00212509 1.20437e-06 0)
(-0.00212828 6.79619e-07 0)
(-0.0021296 1.49875e-07 0)
(-0.00212905 -3.8371e-07 0)
(-0.00212659 -9.20411e-07 0)
(-0.00212223 -1.46004e-06 0)
(-0.00211597 -2.0016e-06 0)
(-0.00210778 -2.54393e-06 0)
(-0.00209769 -3.08644e-06 0)
(-0.00208568 -3.62809e-06 0)
(-0.00207176 -4.16745e-06 0)
(-0.00205595 -4.70386e-06 0)
(-0.00203825 -5.2368e-06 0)
(-0.00201869 -5.76502e-06 0)
(-0.00199727 -6.28718e-06 0)
(-0.00197404 -6.80222e-06 0)
(-0.001949 -7.30896e-06 0)
(-0.0019222 -7.80632e-06 0)
(-0.00189367 -8.29362e-06 0)
(-0.00186345 -8.76996e-06 0)
(-0.00183158 -9.23398e-06 0)
(-0.0017981 -9.68427e-06 0)
(-0.00176307 -1.01197e-05 0)
(-0.00172655 -1.0539e-05 0)
(-0.00168858 -1.09412e-05 0)
(-0.00164924 -1.13254e-05 0)
(-0.00160859 -1.16903e-05 0)
(-0.00156669 -1.20348e-05 0)
(-0.00152363 -1.23577e-05 0)
(-0.00147947 -1.26583e-05 0)
(-0.00143431 -1.29355e-05 0)
(-0.00138822 -1.31882e-05 0)
(-0.00134128 -1.34157e-05 0)
(-0.0012936 -1.36171e-05 0)
(-0.00124526 -1.37916e-05 0)
(-0.00119636 -1.39381e-05 0)
(-0.001147 -1.40559e-05 0)
(-0.00109727 -1.41445e-05 0)
(-0.00104728 -1.42034e-05 0)
(-0.000997141 -1.42319e-05 0)
(-0.000946952 -1.42293e-05 0)
(-0.000896824 -1.41951e-05 0)
(-0.000846867 -1.41292e-05 0)
(-0.000797191 -1.40314e-05 0)
(-0.000747907 -1.39013e-05 0)
(-0.00069913 -1.37388e-05 0)
(-0.00065097 -1.35437e-05 0)
(-0.000603541 -1.33157e-05 0)
(-0.000556957 -1.30547e-05 0)
(-0.00051133 -1.27606e-05 0)
(-0.000466772 -1.24341e-05 0)
(-0.000423393 -1.20758e-05 0)
(-0.000381304 -1.16859e-05 0)
(-0.00034061 -1.12647e-05 0)
(-0.000301418 -1.08126e-05 0)
(-0.00026383 -1.03303e-05 0)
(-0.000227948 -9.81885e-06 0)
(-0.000193867 -9.27908e-06 0)
(-0.000161681 -8.71175e-06 0)
(-0.000131481 -8.11791e-06 0)
(-0.000103349 -7.4991e-06 0)
(-7.73649e-05 -6.85692e-06 0)
(-5.36021e-05 -6.19273e-06 0)
(-3.21265e-05 -5.50821e-06 0)
(-1.29963e-05 -4.80576e-06 0)
(3.73945e-06 -4.08813e-06 0)
(1.80419e-05 -3.35807e-06 0)
(2.9885e-05 -2.61871e-06 0)
(3.92571e-05 -1.87428e-06 0)
(4.61645e-05 -1.13043e-06 0)
(5.06347e-05 -3.94104e-07 0)
(5.27217e-05 3.26505e-07 0)
(5.25133e-05 1.02073e-06 0)
(5.01393e-05 1.67349e-06 0)
(4.57851e-05 2.26323e-06 0)
(3.97093e-05 2.75932e-06 0)
(3.22708e-05 3.11738e-06 0)
(2.3966e-05 3.27197e-06 0)
(1.5471e-05 3.12855e-06 0)
(7.7062e-06 2.55331e-06 0)
(2.00383e-06 1.40342e-06 0)
(-6.59892e-08 -6.57697e-08 0)
(1.82234e-06 -3.01897e-06 0)
(9.2601e-06 -9.262e-06 0)
(2.22853e-05 -1.27918e-05 0)
(3.71968e-05 -1.36166e-05 0)
(5.11961e-05 -1.24225e-05 0)
(6.23676e-05 -9.80619e-06 0)
(6.92696e-05 -6.21393e-06 0)
(7.08484e-05 -1.97271e-06 0)
(6.6375e-05 2.68247e-06 0)
(5.53697e-05 7.58305e-06 0)
(3.75412e-05 1.26064e-05 0)
(1.27422e-05 1.76626e-05 0)
(-1.9064e-05 2.26851e-05 0)
(-5.78301e-05 2.76242e-05 0)
(-0.000103444 3.24431e-05 0)
(-0.000155742 3.71141e-05 0)
(-0.000214526 4.16165e-05 0)
(-0.000279565 4.59353e-05 0)
(-0.00035061 5.00595e-05 0)
(-0.000427392 5.39819e-05 0)
(-0.000509634 5.76976e-05 0)
(-0.000597048 6.12035e-05 0)
(-0.000689343 6.44983e-05 0)
(-0.000786225 6.75822e-05 0)
(-0.000887399 7.04566e-05 0)
(-0.000992571 7.31235e-05 0)
(-0.00110145 7.55856e-05 0)
(-0.00121374 7.78457e-05 0)
(-0.00132917 7.99077e-05 0)
(-0.00144745 8.17752e-05 0)
(-0.0015683 8.34532e-05 0)
(-0.00169146 8.49455e-05 0)
(-0.00181666 8.62567e-05 0)
(-0.00194365 8.73913e-05 0)
(-0.00207216 8.83534e-05 0)
(-0.00220195 8.91473e-05 0)
(-0.00233279 8.97768e-05 0)
(-0.00246443 9.02465e-05 0)
(-0.00259665 9.05604e-05 0)
(-0.00272921 9.07224e-05 0)
(-0.00286191 9.0736e-05 0)
(-0.00299452 9.06049e-05 0)
(-0.00312683 9.03325e-05 0)
(-0.00325865 8.99226e-05 0)
(-0.00338977 8.93785e-05 0)
(-0.00352 8.8703e-05 0)
(-0.00364914 8.78992e-05 0)
(-0.00377701 8.69695e-05 0)
(-0.00390343 8.59169e-05 0)
(-0.00402821 8.47437e-05 0)
(-0.00415119 8.34523e-05 0)
(-0.00427218 8.20449e-05 0)
(-0.00439102 8.05237e-05 0)
(-0.00450754 7.88907e-05 0)
(-0.00462159 7.71478e-05 0)
(-0.00473299 7.52966e-05 0)
(-0.0048416 7.33397e-05 0)
(-0.00494726 7.12789e-05 0)
(-0.00504982 6.91163e-05 0)
(-0.00514913 6.68542e-05 0)
(-0.00524505 6.44944e-05 0)
(-0.00533743 6.20393e-05 0)
(-0.00542614 5.94912e-05 0)
(-0.00551105 5.68516e-05 0)
(-0.00559202 5.4123e-05 0)
(-0.00566892 5.13076e-05 0)
(-0.00574163 4.84076e-05 0)
(-0.00581003 4.5426e-05 0)
(-0.005874 4.23655e-05 0)
(-0.00593343 3.9229e-05 0)
(-0.00598821 3.602e-05 0)
(-0.00603825 3.27413e-05 0)
(-0.00608343 2.93963e-05 0)
(-0.00612367 2.59888e-05 0)
(-0.00615888 2.25224e-05 0)
(-0.00618898 1.90011e-05 0)
(-0.00621389 1.54291e-05 0)
(-0.00623354 1.18103e-05 0)
(-0.00624787 8.149e-06 0)
(-0.00625683 4.45028e-06 0)
(-0.00626036 7.19344e-07 0)
(-0.00625842 -3.03855e-06 0)
(-0.00625098 -6.81782e-06 0)
(-0.00623801 -1.06128e-05 0)
(-0.00621951 -1.44176e-05 0)
(-0.00619544 -1.82265e-05 0)
(-0.00616583 -2.20333e-05 0)
(-0.00613068 -2.58313e-05 0)
(-0.00609 -2.9614e-05 0)
(-0.00604383 -3.33744e-05 0)
(-0.0059922 -3.71056e-05 0)
(-0.00593517 -4.08003e-05 0)
(-0.0058728 -4.44513e-05 0)
(-0.00580515 -4.80515e-05 0)
(-0.0057323 -5.15929e-05 0)
(-0.00565435 -5.50681e-05 0)
(-0.00557141 -5.84701e-05 0)
(-0.00548358 -6.17912e-05 0)
(-0.00539099 -6.50234e-05 0)
(-0.00529377 -6.81588e-05 0)
(-0.00519208 -7.11898e-05 0)
(-0.00508606 -7.41083e-05 0)
(-0.0049759 -7.69064e-05 0)
(-0.00486177 -7.9577e-05 0)
(-0.00474386 -8.21129e-05 0)
(-0.00462238 -8.45065e-05 0)
(-0.00449753 -8.67505e-05 0)
(-0.00436954 -8.88382e-05 0)
(-0.00423864 -9.07633e-05 0)
(-0.00410507 -9.25189e-05 0)
(-0.00396908 -9.40983e-05 0)
(-0.00383093 -9.54961e-05 0)
(-0.00369089 -9.67067e-05 0)
(-0.00354923 -9.77246e-05 0)
(-0.00340623 -9.85445e-05 0)
(-0.00326219 -9.9162e-05 0)
(-0.0031174 -9.95732e-05 0)
(-0.00297216 -9.97742e-05 0)
(-0.00282678 -9.97615e-05 0)
(-0.00268157 -9.95319e-05 0)
(-0.00253684 -9.90834e-05 0)
(-0.0023929 -9.84143e-05 0)
(-0.00225009 -9.75231e-05 0)
(-0.00210872 -9.64084e-05 0)
(-0.00196911 -9.50697e-05 0)
(-0.00183159 -9.35066e-05 0)
(-0.00169647 -9.17198e-05 0)
(-0.00156408 -8.97102e-05 0)
(-0.00143473 -8.74803e-05 0)
(-0.00130874 -8.5033e-05 0)
(-0.00118642 -8.23712e-05 0)
(-0.00106807 -7.94987e-05 0)
(-0.000953986 -7.64198e-05 0)
(-0.000844459 -7.31398e-05 0)
(-0.00073977 -6.96648e-05 0)
(-0.000640191 -6.60019e-05 0)
(-0.00054598 -6.21592e-05 0)
(-0.000457383 -5.81455e-05 0)
(-0.000374632 -5.3971e-05 0)
(-0.000297943 -4.96475e-05 0)
(-0.000227509 -4.51877e-05 0)
(-0.000163506 -4.06067e-05 0)
(-0.000106083 -3.59218e-05 0)
(-5.53609e-05 -3.11531e-05 0)
(-1.14292e-05 -2.63237e-05 0)
(2.56623e-05 -2.14608e-05 0)
(5.59085e-05 -1.65971e-05 0)
(7.93569e-05 -1.17723e-05 0)
(9.61189e-05 -7.03505e-06 0)
(0.000106383 -2.44502e-06 0)
(0.000110434 1.92255e-06 0)
(0.000108671 5.97119e-06 0)
(0.00010164 9.57526e-06 0)
(9.00682e-05 1.25693e-05 0)
(7.49114e-05 1.47338e-05 0)
(5.74087e-05 1.57799e-05 0)
(3.91128e-05 1.53413e-05 0)
(2.19135e-05 1.29814e-05 0)
(8.32469e-06 8.32751e-06 0)
(1.40149e-06 2.00232e-06 0)
(2.7642e-06 -9.09414e-06 0)
(1.27954e-05 -2.22879e-05 0)
(2.90434e-05 -2.90282e-05 0)
(4.65742e-05 -2.9919e-05 0)
(6.18669e-05 -2.619e-05 0)
(7.24594e-05 -1.89947e-05 0)
(7.63982e-05 -9.28413e-06 0)
(7.21839e-05 2.19339e-06 0)
(5.8728e-05 1.48644e-05 0)
(3.52764e-05 2.82924e-05 0)
(1.34339e-06 4.21461e-05 0)
(-4.33455e-05 5.61726e-05 0)
(-9.88963e-05 7.01792e-05 0)
(-0.00016528 8.40179e-05 0)
(-0.000242365 9.75753e-05 0)
(-0.000329935 0.000110765 0)
(-0.000427709 0.00012352 0)
(-0.000535356 0.000135791 0)
(-0.000652505 0.000147541 0)
(-0.000778756 0.000158742 0)
(-0.000913688 0.000169375 0)
(-0.00105686 0.000179429 0)
(-0.00120783 0.000188895 0)
(-0.00136613 0.000197771 0)
(-0.0015313 0.000206056 0)
(-0.0017029 0.000213755 0)
(-0.00188044 0.000220873 0)
(-0.00206348 0.000227416 0)
(-0.00225157 0.000233394 0)
(-0.00244426 0.000238815 0)
(-0.00264111 0.000243691 0)
(-0.00284169 0.000248032 0)
(-0.00304556 0.000251851 0)
(-0.00325233 0.000255157 0)
(-0.00346157 0.000257965 0)
(-0.0036729 0.000260284 0)
(-0.00388591 0.000262125 0)
(-0.00410023 0.000263501 0)
(-0.00431548 0.000264423 0)
(-0.0045313 0.0002649 0)
(-0.00474734 0.000264945 0)
(-0.00496323 0.000264567 0)
(-0.00517864 0.000263776 0)
(-0.00539324 0.00026258 0)
(-0.00560671 0.000260991 0)
(-0.00581871 0.000259016 0)
(-0.00602894 0.000256664 0)
(-0.0062371 0.000253942 0)
(-0.00644288 0.000250858 0)
(-0.00664599 0.000247421 0)
(-0.00684614 0.000243635 0)
(-0.00704305 0.000239509 0)
(-0.00723644 0.000235049 0)
(-0.00742605 0.000230261 0)
(-0.0076116 0.000225151 0)
(-0.00779284 0.000219725 0)
(-0.00796951 0.000213989 0)
(-0.00814135 0.000207949 0)
(-0.00830814 0.000201611 0)
(-0.00846961 0.000194982 0)
(-0.00862554 0.000188067 0)
(-0.0087757 0.000180873 0)
(-0.00891986 0.000173407 0)
(-0.0090578 0.000165676 0)
(-0.00918932 0.000157684 0)
(-0.00931419 0.00014944 0)
(-0.00943223 0.000140952 0)
(-0.00954323 0.000132226 0)
(-0.009647 0.000123272 0)
(-0.00974338 0.000114097 0)
(-0.00983217 0.000104712 0)
(-0.00991322 9.51262e-05 0)
(-0.00998637 8.53491e-05 0)
(-0.0100515 7.53911e-05 0)
(-0.0101084 6.52637e-05 0)
(-0.0101569 5.49787e-05 0)
(-0.0101971 4.45479e-05 0)
(-0.0102287 3.39842e-05 0)
(-0.0102516 2.33013e-05 0)
(-0.0102658 1.25125e-05 0)
(-0.0102711 1.6328e-06 0)
(-0.0102676 -9.32215e-06 0)
(-0.0102551 -2.03365e-05 0)
(-0.0102337 -3.13941e-05 0)
(-0.0102032 -4.2477e-05 0)
(-0.0101638 -5.35677e-05 0)
(-0.0101153 -6.46487e-05 0)
(-0.0100579 -7.57014e-05 0)
(-0.00999144 -8.67058e-05 0)
(-0.00991612 -9.76425e-05 0)
(-0.00983196 -0.000108491 0)
(-0.00973904 -0.000119231 0)
(-0.00963745 -0.000129841 0)
(-0.00952733 -0.0001403 0)
(-0.00940879 -0.000150587 0)
(-0.009282 -0.000160679 0)
(-0.00914711 -0.000170555 0)
(-0.00900432 -0.000180193 0)
(-0.00885383 -0.000189571 0)
(-0.00869586 -0.000198665 0)
(-0.00853066 -0.000207454 0)
(-0.00835847 -0.000215916 0)
(-0.00817957 -0.000224028 0)
(-0.00799426 -0.000231769 0)
(-0.00780285 -0.000239118 0)
(-0.00760566 -0.000246054 0)
(-0.00740303 -0.000252556 0)
(-0.00719533 -0.000258605 0)
(-0.00698292 -0.000264182 0)
(-0.0067662 -0.000269267 0)
(-0.00654557 -0.000273844 0)
(-0.00632145 -0.000277894 0)
(-0.00609428 -0.000281402 0)
(-0.00586448 -0.000284352 0)
(-0.00563253 -0.000286732 0)
(-0.00539887 -0.000288526 0)
(-0.005164 -0.000289724 0)
(-0.0049284 -0.000290315 0)
(-0.00469255 -0.000290289 0)
(-0.00445695 -0.000289638 0)
(-0.00422212 -0.000288356 0)
(-0.00398855 -0.000286438 0)
(-0.00375678 -0.000283878 0)
(-0.0035273 -0.000280675 0)
(-0.00330063 -0.000276828 0)
(-0.0030773 -0.000272337 0)
(-0.00285781 -0.000267205 0)
(-0.00264268 -0.000261434 0)
(-0.00243241 -0.000255033 0)
(-0.0022275 -0.000248009 0)
(-0.00202844 -0.000240372 0)
(-0.00183573 -0.000232133 0)
(-0.00164982 -0.000223307 0)
(-0.00147118 -0.00021391 0)
(-0.00130025 -0.00020396 0)
(-0.00113746 -0.00019348 0)
(-0.000983218 -0.000182493 0)
(-0.000837902 -0.000171028 0)
(-0.000701874 -0.000159115 0)
(-0.000575466 -0.000146791 0)
(-0.000458976 -0.000134094 0)
(-0.000352668 -0.000121072 0)
(-0.000256761 -0.000107776 0)
(-0.00017143 -9.42685e-05 0)
(-9.67937e-05 -8.06183e-05 0)
(-3.29087e-05 -6.69085e-05 0)
(2.02429e-05 -5.32365e-05 0)
(6.27644e-05 -3.97189e-05 0)
(9.48607e-05 -2.64958e-05 0)
(0.000116858 -1.37386e-05 0)
(0.000129225 -1.65786e-06 0)
(0.000132606 9.48514e-06 0)
(0.000127852 1.93633e-05 0)
(0.000116061 2.75653e-05 0)
(9.86305e-05 3.35754e-05 0)
(7.73012e-05 3.67602e-05 0)
(5.4162e-05 3.63777e-05 0)
(3.16374e-05 3.16348e-05 0)
(1.29752e-05 2.1914e-05 0)
(2.54874e-06 7.6991e-06 0)
(3.04774e-06 -1.65232e-05 0)
(1.36571e-05 -3.72236e-05 0)
(3.00156e-05 -4.65738e-05 0)
(4.64127e-05 -4.62848e-05 0)
(5.88745e-05 -3.82754e-05 0)
(6.46151e-05 -2.43137e-05 0)
(6.13751e-05 -5.90229e-06 0)
(4.73754e-05 1.57351e-05 0)
(2.12834e-05 3.9623e-05 0)
(-1.78551e-05 6.49941e-05 0)
(-7.06816e-05 9.12472e-05 0)
(-0.000137581 0.000117912 0)
(-0.000218726 0.00014462 0)
(-0.00031412 0.000171083 0)
(-0.000423627 0.000197078 0)
(-0.000546999 0.000222429 0)
(-0.0006839 0.000247 0)
(-0.000833923 0.000270686 0)
(-0.000996602 0.000293407 0)
(-0.00117143 0.000315105 0)
(-0.00135787 0.000335735 0)
(-0.00155535 0.000355268 0)
(-0.00176329 0.000373685 0)
(-0.00198109 0.000390975 0)
(-0.00220814 0.000407134 0)
(-0.00244384 0.000422165 0)
(-0.00268758 0.000436075 0)
(-0.00293874 0.000448875 0)
(-0.00319673 0.000460579 0)
(-0.00346095 0.000471204 0)
(-0.00373081 0.000480766 0)
(-0.00400573 0.000489287 0)
(-0.00428512 0.000496785 0)
(-0.00456844 0.000503283 0)
(-0.00485512 0.000508802 0)
(-0.00514464 0.000513363 0)
(-0.00543644 0.000516987 0)
(-0.00573002 0.000519696 0)
(-0.00602487 0.000521511 0)
(-0.00632048 0.000522451 0)
(-0.00661638 0.000522537 0)
(-0.00691207 0.000521789 0)
(-0.00720711 0.000520225 0)
(-0.00750101 0.000517864 0)
(-0.00779335 0.000514722 0)
(-0.00808369 0.000510818 0)
(-0.00837158 0.000506167 0)
(-0.00865662 0.000500785 0)
(-0.00893839 0.000494687 0)
(-0.00921649 0.000487888 0)
(-0.00949052 0.0004804 0)
(-0.00976009 0.000472238 0)
(-0.0100248 0.000463415 0)
(-0.0102844 0.000453942 0)
(-0.0105383 0.000443834 0)
(-0.0107863 0.000433101 0)
(-0.0110281 0.000421755 0)
(-0.0112632 0.00040981 0)
(-0.0114914 0.000397276 0)
(-0.0117122 0.000384167 0)
(-0.0119255 0.000370495 0)
(-0.0121308 0.000356273 0)
(-0.0123279 0.000341513 0)
(-0.0125164 0.00032623 0)
(-0.0126961 0.000310436 0)
(-0.0128667 0.000294146 0)
(-0.0130279 0.000277376 0)
(-0.0131795 0.00026014 0)
(-0.0133211 0.000242456 0)
(-0.0134526 0.000224341 0)
(-0.0135737 0.000205813 0)
(-0.0136842 0.000186892 0)
(-0.0137838 0.000167597 0)
(-0.0138725 0.00014795 0)
(-0.0139499 0.000127972 0)
(-0.0140159 0.000107688 0)
(-0.0140703 8.71201e-05 0)
(-0.014113 6.6295e-05 0)
(-0.0141439 4.52391e-05 0)
(-0.0141628 2.39805e-05 0)
(-0.0141697 2.54794e-06 0)
(-0.0141644 -1.90287e-05 0)
(-0.0141469 -4.07175e-05 0)
(-0.0141171 -6.2486e-05 0)
(-0.0140751 -8.43007e-05 0)
(-0.0140207 -0.000106127 0)
(-0.013954 -0.000127928 0)
(-0.0138751 -0.000149668 0)
(-0.0137839 -0.000171309 0)
(-0.0136806 -0.000192813 0)
(-0.0135652 -0.000214138 0)
(-0.0134379 -0.000235247 0)
(-0.0132988 -0.000256096 0)
(-0.013148 -0.000276644 0)
(-0.0129858 -0.00029685 0)
(-0.0128123 -0.000316671 0)
(-0.0126278 -0.000336063 0)
(-0.0124325 -0.000354984 0)
(-0.0122267 -0.00037339 0)
(-0.0120108 -0.000391239 0)
(-0.011785 -0.000408485 0)
(-0.0115497 -0.000425087 0)
(-0.0113053 -0.000441002 0)
(-0.0110522 -0.000456188 0)
(-0.0107907 -0.000470602 0)
(-0.0105214 -0.000484206 0)
(-0.0102447 -0.000496959 0)
(-0.00996113 -0.000508822 0)
(-0.00967112 -0.000519759 0)
(-0.00937525 -0.000529733 0)
(-0.00907406 -0.00053871 0)
(-0.00876812 -0.000546657 0)
(-0.008458 -0.000553542 0)
(-0.00814432 -0.000559336 0)
(-0.00782769 -0.000564012 0)
(-0.00750874 -0.000567545 0)
(-0.00718811 -0.000569911 0)
(-0.00686646 -0.00057109 0)
(-0.00654446 -0.000571065 0)
(-0.00622278 -0.000569819 0)
(-0.0059021 -0.00056734 0)
(-0.00558311 -0.000563618 0)
(-0.00526651 -0.000558645 0)
(-0.00495298 -0.000552418 0)
(-0.00464323 -0.000544936 0)
(-0.00433796 -0.000536199 0)
(-0.00403784 -0.000526214 0)
(-0.00374358 -0.00051499 0)
(-0.00345584 -0.00050254 0)
(-0.00317531 -0.00048888 0)
(-0.00290264 -0.00047403 0)
(-0.00263847 -0.000458016 0)
(-0.00238345 -0.000440865 0)
(-0.00213817 -0.000422611 0)
(-0.00190324 -0.000403293 0)
(-0.00167921 -0.000382954 0)
(-0.00146663 -0.000361645 0)
(-0.001266 -0.000339421 0)
(-0.00107779 -0.000316346 0)
(-0.000902432 -0.000292492 0)
(-0.000740317 -0.00026794 0)
(-0.000591778 -0.000242785 0)
(-0.000457092 -0.000217131 0)
(-0.00033647 -0.0001911 0)
(-0.000230051 -0.000164833 0)
(-0.000137886 -0.000138495 0)
(-5.99271e-05 -0.000112277 0)
(3.98827e-06 -8.64054e-05 0)
(5.4154e-05 -6.11512e-05 0)
(9.10192e-05 -3.68388e-05 0)
(0.000115215 -1.38609e-05 0)
(0.000127584 7.30598e-06 0)
(0.000129215 2.60811e-05 0)
(0.000121482 4.17562e-05 0)
(0.000106086 5.34751e-05 0)
(8.50992e-05 6.02248e-05 0)
(6.09533e-05 6.08569e-05 0)
(3.64321e-05 5.41683e-05 0)
(1.5347e-05 3.9122e-05 0)
(3.12286e-06 1.54573e-05 0)
(2.89442e-06 -2.3837e-05 0)
(1.25242e-05 -5.12998e-05 0)
(2.64168e-05 -6.19413e-05 0)
(3.8606e-05 -5.87781e-05 0)
(4.49019e-05 -4.4532e-05 0)
(4.23273e-05 -2.16254e-05 0)
(2.84544e-05 7.87455e-06 0)
(1.34257e-06 4.22539e-05 0)
(-4.049e-05 8.01157e-05 0)
(-9.81294e-05 0.000120333 0)
(-0.000172326 0.000162003 0)
(-0.000263547 0.000204403 0)
(-0.00037202 0.000246958 0)
(-0.000497777 0.000289211 0)
(-0.000640683 0.000330798 0)
(-0.000800473 0.000371431 0)
(-0.000976768 0.000410883 0)
(-0.0011691 0.000448978 0)
(-0.00137694 0.000485578 0)
(-0.00159968 0.000520578 0)
(-0.00183668 0.000553901 0)
(-0.00208728 0.000585491 0)
(-0.00235077 0.000615309 0)
(-0.00262642 0.000643333 0)
(-0.00291352 0.000669551 0)
(-0.00321132 0.00069396 0)
(-0.00351907 0.00071657 0)
(-0.00383603 0.000737391 0)
(-0.00416147 0.000756444 0)
(-0.00449464 0.000773751 0)
(-0.00483482 0.000789338 0)
(-0.00518129 0.000803234 0)
(-0.00553333 0.000815469 0)
(-0.00589026 0.000826076 0)
(-0.00625138 0.000835087 0)
(-0.00661602 0.000842534 0)
(-0.00698351 0.000848453 0)
(-0.00735321 0.000852874 0)
(-0.00772448 0.000855832 0)
(-0.00809669 0.000857359 0)
(-0.00846923 0.000857485 0)
(-0.0088415 0.000856243 0)
(-0.00921292 0.000853662 0)
(-0.00958291 0.000849771 0)
(-0.0099509 0.000844598 0)
(-0.0103164 0.000838172 0)
(-0.0106787 0.000830517 0)
(-0.0110375 0.00082166 0)
(-0.0113921 0.000811624 0)
(-0.011742 0.000800434 0)
(-0.0120869 0.000788113 0)
(-0.0124261 0.000774681 0)
(-0.0127591 0.000760162 0)
(-0.0130856 0.000744575 0)
(-0.0134051 0.000727942 0)
(-0.0137171 0.000710283 0)
(-0.0140211 0.000691617 0)
(-0.0143168 0.000671966 0)
(-0.0146036 0.00065135 0)
(-0.0148813 0.000629788 0)
(-0.0151493 0.000607303 0)
(-0.0154073 0.000583916 0)
(-0.015655 0.000559647 0)
(-0.0158918 0.00053452 0)
(-0.0161175 0.000508558 0)
(-0.0163318 0.000481785 0)
(-0.0165341 0.000454225 0)
(-0.0167244 0.000425906 0)
(-0.0169021 0.000396856 0)
(-0.017067 0.000367102 0)
(-0.0172188 0.000336675 0)
(-0.0173573 0.000305607 0)
(-0.0174821 0.000273932 0)
(-0.017593 0.000241684 0)
(-0.0176898 0.000208901 0)
(-0.0177723 0.000175619 0)
(-0.0178402 0.00014188 0)
(-0.0178934 0.000107725 0)
(-0.0179317 7.31989e-05 0)
(-0.0179549 3.83465e-05 0)
(-0.017963 3.2161e-06 0)
(-0.0179558 -3.21426e-05 0)
(-0.0179333 -6.76787e-05 0)
(-0.0178954 -0.000103339 0)
(-0.017842 -0.000139067 0)
(-0.0177732 -0.000174807 0)
(-0.017689 -0.0002105 0)
(-0.0175893 -0.000246087 0)
(-0.0174743 -0.000281504 0)
(-0.0173441 -0.00031669 0)
(-0.0171988 -0.00035158 0)
(-0.0170385 -0.000386107 0)
(-0.0168634 -0.000420206 0)
(-0.0166737 -0.000453807 0)
(-0.0164696 -0.000486842 0)
(-0.0162515 -0.000519243 0)
(-0.0160196 -0.000550939 0)
(-0.0157741 -0.00058186 0)
(-0.0155156 -0.000611936 0)
(-0.0152443 -0.000641097 0)
(-0.0149607 -0.000669271 0)
(-0.0146652 -0.00069639 0)
(-0.0143583 -0.000722384 0)
(-0.0140404 -0.000747185 0)
(-0.0137122 -0.000770727 0)
(-0.0133741 -0.000792944 0)
(-0.0130268 -0.00081377 0)
(-0.0126708 -0.000833145 0)
(-0.0123068 -0.000851008 0)
(-0.0119355 -0.0008673 0)
(-0.0115575 -0.000881966 0)
(-0.0111735 -0.000894953 0)
(-0.0107844 -0.00090621 0)
(-0.0103907 -0.000915689 0)
(-0.00999333 -0.000923348 0)
(-0.00959304 -0.000929145 0)
(-0.00919062 -0.000933044 0)
(-0.0087869 -0.000935011 0)
(-0.0083827 -0.000935019 0)
(-0.00797885 -0.000933042 0)
(-0.00757621 -0.00092906 0)
(-0.00717564 -0.000923059 0)
(-0.00677798 -0.000915026 0)
(-0.00638411 -0.000904957 0)
(-0.00599488 -0.00089285 0)
(-0.00561116 -0.000878709 0)
(-0.0052338 -0.000862546 0)
(-0.00486365 -0.000844375 0)
(-0.00450156 -0.000824219 0)
(-0.00414835 -0.000802106 0)
(-0.00380484 -0.000778071 0)
(-0.00347182 -0.000752156 0)
(-0.00315007 -0.000724408 0)
(-0.00284033 -0.000694886 0)
(-0.00254334 -0.000663653 0)
(-0.00225978 -0.000630783 0)
(-0.00199031 -0.00059636 0)
(-0.00173555 -0.000560478 0)
(-0.00149605 -0.000523245 0)
(-0.00127235 -0.000484781 0)
(-0.00106491 -0.000445222 0)
(-0.000874106 -0.000404723 0)
(-0.000700279 -0.00036346 0)
(-0.000543665 -0.000321634 0)
(-0.000404413 -0.000279477 0)
(-0.000282566 -0.000237256 0)
(-0.000178044 -0.000195282 0)
(-9.06316e-05 -0.000153919 0)
(-1.99572e-05 -0.000113595 0)
(3.45321e-05 -7.48179e-05 0)
(7.35967e-05 -3.81917e-05 0)
(9.82329e-05 -4.437e-06 0)
(0.000109705 2.55851e-05 0)
(0.00010958 5.08496e-05 0)
(9.97656e-05 7.0146e-05 0)
(8.25528e-05 8.20707e-05 0)
(6.06015e-05 8.50463e-05 0)
(3.69587e-05 7.73913e-05 0)
(1.58309e-05 5.74725e-05 0)
(3.2702e-06 2.39559e-05 0)
(2.46894e-06 -3.01397e-05 0)
(9.98182e-06 -6.26197e-05 0)
(1.93766e-05 -7.26903e-05 0)
(2.48794e-05 -6.46293e-05 0)
(2.23004e-05 -4.19969e-05 0)
(8.58381e-06 -7.88353e-06 0)
(-1.87693e-05 3.50755e-05 0)
(-6.17694e-05 8.46756e-05 0)
(-0.000121972 0.000139093 0)
(-0.000200536 0.000196831 0)
(-0.000298275 0.000256668 0)
(-0.000415707 0.000317611 0)
(-0.000553096 0.000378857 0)
(-0.000710492 0.000439755 0)
(-0.000887761 0.000499784 0)
(-0.00108462 0.000558524 0)
(-0.00130066 0.000615639 0)
(-0.00153536 0.000670865 0)
(-0.00178812 0.000723993 0)
(-0.00205829 0.000774862 0)
(-0.00234512 0.000823349 0)
(-0.00264786 0.000869364 0)
(-0.00296571 0.000912842 0)
(-0.00329783 0.000953741 0)
(-0.00364339 0.000992038 0)
(-0.00400153 0.00102772 0)
(-0.00437138 0.0010608 0)
(-0.00475209 0.00109129 0)
(-0.00514278 0.0011192 0)
(-0.00554259 0.00114457 0)
(-0.00595068 0.00116743 0)
(-0.00636619 0.00118781 0)
(-0.00678829 0.00120577 0)
(-0.00721615 0.00122134 0)
(-0.00764897 0.00123457 0)
(-0.00808593 0.00124551 0)
(-0.00852627 0.00125419 0)
(-0.00896919 0.00126067 0)
(-0.00941395 0.001265 0)
(-0.00985981 0.00126721 0)
(-0.010306 0.00126736 0)
(-0.0107519 0.00126549 0)
(-0.0111967 0.00126164 0)
(-0.0116398 0.00125586 0)
(-0.0120804 0.00124818 0)
(-0.012518 0.00123864 0)
(-0.0129519 0.00122729 0)
(-0.0133814 0.00121416 0)
(-0.0138059 0.00119928 0)
(-0.0142248 0.00118269 0)
(-0.0146376 0.00116443 0)
(-0.0150435 0.00114452 0)
(-0.0154422 0.00112301 0)
(-0.0158329 0.00109991 0)
(-0.0162151 0.00107527 0)
(-0.0165884 0.0010491 0)
(-0.0169521 0.00102145 0)
(-0.0173057 0.000992339 0)
(-0.0176488 0.000961802 0)
(-0.0179808 0.000929869 0)
(-0.0183013 0.000896571 0)
(-0.0186098 0.00086194 0)
(-0.0189058 0.00082601 0)
(-0.0191888 0.000788812 0)
(-0.0194585 0.000750384 0)
(-0.0197144 0.000710761 0)
(-0.0199561 0.00066998 0)
(-0.0201833 0.000628082 0)
(-0.0203954 0.000585108 0)
(-0.0205922 0.000541101 0)
(-0.0207733 0.000496106 0)
(-0.0209384 0.00045017 0)
(-0.0210871 0.000403345 0)
(-0.0212192 0.00035568 0)
(-0.0213344 0.000307232 0)
(-0.0214325 0.000258058 0)
(-0.0215131 0.000208216 0)
(-0.0215761 0.000157769 0)
(-0.0216213 0.000106783 0)
(-0.0216485 5.53249e-05 0)
(-0.0216576 3.46527e-06 0)
(-0.0216485 -4.87223e-05 0)
(-0.021621 -0.000101161 0)
(-0.0215751 -0.000153774 0)
(-0.0215108 -0.000206478 0)
(-0.021428 -0.000259191 0)
(-0.0213268 -0.000311826 0)
(-0.0212072 -0.000364294 0)
(-0.0210694 -0.000416506 0)
(-0.0209133 -0.000468366 0)
(-0.0207392 -0.000519782 0)
(-0.0205473 -0.000570657 0)
(-0.0203377 -0.000620892 0)
(-0.0201107 -0.000670388 0)
(-0.0198666 -0.000719044 0)
(-0.0196058 -0.000766758 0)
(-0.0193284 -0.000813429 0)
(-0.0190351 -0.000858954 0)
(-0.018726 -0.00090323 0)
(-0.0184018 -0.000946153 0)
(-0.0180629 -0.000987622 0)
(-0.0177099 -0.00102753 0)
(-0.0173432 -0.00106579 0)
(-0.0169636 -0.00110229 0)
(-0.0165716 -0.00113693 0)
(-0.0161678 -0.00116962 0)
(-0.015753 -0.00120027 0)
(-0.015328 -0.00122879 0)
(-0.0148933 -0.00125508 0)
(-0.01445 -0.00127907 0)
(-0.0139987 -0.00130066 0)
(-0.0135402 -0.00131979 0)
(-0.0130756 -0.00133638 0)
(-0.0126055 -0.00135037 0)
(-0.012131 -0.00136168 0)
(-0.011653 -0.00137026 0)
(-0.0111725 -0.00137606 0)
(-0.0106903 -0.00137903 0)
(-0.0102075 -0.00137913 0)
(-0.00972509 -0.00137632 0)
(-0.00924403 -0.00137057 0)
(-0.00876535 -0.00136186 0)
(-0.00829006 -0.00135019 0)
(-0.00781918 -0.00133553 0)
(-0.00735373 -0.0013179 0)
(-0.00689472 -0.00129729 0)
(-0.00644317 -0.00127373 0)
(-0.00600006 -0.00124724 0)
(-0.00556639 -0.00121785 0)
(-0.00514314 -0.00118561 0)
(-0.00473126 -0.00115057 0)
(-0.00433168 -0.0011128 0)
(-0.00394531 -0.00107236 0)
(-0.00357302 -0.00102935 0)
(-0.00321567 -0.000983854 0)
(-0.00287405 -0.000935993 0)
(-0.00254893 -0.00088589 0)
(-0.00224101 -0.000833689 0)
(-0.00195096 -0.000779549 0)
(-0.00167938 -0.00072365 0)
(-0.00142678 -0.000666196 0)
(-0.00119361 -0.000607418 0)
(-0.00098024 -0.000547578 0)
(-0.000786934 -0.000486971 0)
(-0.000613848 -0.000425938 0)
(-0.000461015 -0.000364868 0)
(-0.000328331 -0.000304212 0)
(-0.000215536 -0.000244491 0)
(-0.000122194 -0.000186313 0)
(-4.76732e-05 -0.00013039 0)
(8.88423e-06 -7.75562e-05 0)
(4.85856e-05 -2.87928e-05 0)
(7.28174e-05 1.47459e-05 0)
(8.32765e-05 5.17086e-05 0)
(8.20061e-05 8.05243e-05 0)
(7.14342e-05 9.93895e-05 0)
(5.43713e-05 0.000106275 0)
(3.40462e-05 9.89647e-05 0)
(1.48779e-05 7.51315e-05 0)
(3.12751e-06 3.2296e-05 0)
(1.87596e-06 -3.48296e-05 0)
(6.46573e-06 -6.97464e-05 0)
(9.81714e-06 -7.68652e-05 0)
(6.68099e-06 -6.15701e-05 0)
(-6.94745e-06 -2.82199e-05 0)
(-3.41053e-05 1.94436e-05 0)
(-7.7279e-05 7.82315e-05 0)
(-0.000138477 0.000145459 0)
(-0.000219266 0.000218882 0)
(-0.000320827 0.000296633 0)
(-0.000443995 0.000377169 0)
(-0.000589308 0.000459216 0)
(-0.000757043 0.000541732 0)
(-0.000947253 0.000623861 0)
(-0.0011598 0.000704906 0)
(-0.00139438 0.000784304 0)
(-0.00165055 0.000861596 0)
(-0.00192775 0.000936417 0)
(-0.00222533 0.00100847 0)
(-0.00254257 0.00107754 0)
(-0.00287865 0.00114344 0)
(-0.00323275 0.00120604 0)
(-0.00360396 0.00126524 0)
(-0.00399136 0.00132097 0)
(-0.00439402 0.0013732 0)
(-0.00481098 0.0014219 0)
(-0.00524126 0.00146708 0)
(-0.00568388 0.00150873 0)
(-0.00613788 0.00154689 0)
(-0.00660228 0.00158159 0)
(-0.0070761 0.00161288 0)
(-0.00755839 0.00164078 0)
(-0.00804819 0.00166537 0)
(-0.00854457 0.00168669 0)
(-0.00904658 0.0017048 0)
(-0.00955332 0.00171977 0)
(-0.0100639 0.00173165 0)
(-0.0105774 0.0017405 0)
(-0.011093 0.00174638 0)
(-0.0116097 0.00174936 0)
(-0.0121269 0.0017495 0)
(-0.0126436 0.00174685 0)
(-0.013159 0.00174148 0)
(-0.0136724 0.00173343 0)
(-0.0141829 0.00172277 0)
(-0.0146899 0.00170955 0)
(-0.0151925 0.00169381 0)
(-0.01569 0.00167562 0)
(-0.0161817 0.00165502 0)
(-0.0166669 0.00163205 0)
(-0.0171449 0.00160677 0)
(-0.017615 0.00157922 0)
(-0.0180765 0.00154944 0)
(-0.0185289 0.00151748 0)
(-0.0189714 0.00148338 0)
(-0.0194034 0.00144718 0)
(-0.0198244 0.00140892 0)
(-0.0202337 0.00136865 0)
(-0.0206307 0.00132642 0)
(-0.0210148 0.00128225 0)
(-0.0213856 0.00123621 0)
(-0.0217424 0.00118832 0)
(-0.0220847 0.00113865 0)
(-0.022412 0.00108723 0)
(-0.0227237 0.00103412 0)
(-0.0230195 0.000979357 0)
(-0.0232988 0.000923008 0)
(-0.0235612 0.000865123 0)
(-0.0238063 0.000805759 0)
(-0.0240335 0.000744979 0)
(-0.0242425 0.000682843 0)
(-0.024433 0.00061942 0)
(-0.0246046 0.000554777 0)
(-0.0247569 0.000488987 0)
(-0.0248896 0.000422126 0)
(-0.0250024 0.000354274 0)
(-0.0250951 0.000285513 0)
(-0.0251674 0.00021593 0)
(-0.0252191 0.000145614 0)
(-0.02525 7.46589e-05 0)
(-0.0252599 3.16302e-06 0)
(-0.0252487 -6.87732e-05 0)
(-0.0252163 -0.000141045 0)
(-0.0251627 -0.000213543 0)
(-0.0250878 -0.000286156 0)
(-0.0249915 -0.00035877 0)