/*--------------------------------*- C++ -*----------------------------------*\
  =========                 |
  \\      /  F ield         | OpenFOAM: The Open Source CFD Toolbox
   \\    /   O peration     | Website:  https://openfoam.org
    \\  /    A nd           | Version:  7
     \\/     M anipulation  |
\*---------------------------------------------------------------------------*/
FoamFile
{
    version     2.0;
    format      ascii;
    class       volVectorField;
    location    "0.0875";
    object      U;
}
// * * * * * * * * * * * * * * * * * * * * * * * * * * * * * * * * * * * * * //

dimensions      [0 1 -1 0 0 0 0];

internalField   nonuniform List<vector> 
25600
(
(-4.96875e-07 -1.36382e-06 0)
(2.99726e-06 -2.7296e-06 0)
(7.33102e-06 -2.33686e-06 0)
(1.25566e-05 -2.09487e-06 0)
(1.62749e-05 -1.65987e-06 0)
(1.86832e-05 -1.11163e-06 0)
(1.94098e-05 -4.97245e-07 0)
(1.82683e-05 1.46475e-07 0)
(1.5171e-05 7.97355e-07 0)
(1.00822e-05 1.43124e-06 0)
(3.0134e-06 2.04479e-06 0)
(-5.99442e-06 2.63612e-06 0)
(-1.68964e-05 3.2017e-06 0)
(-2.96152e-05 3.74156e-06 0)
(-4.40737e-05 4.25262e-06 0)
(-6.0195e-05 4.73139e-06 0)
(-7.78835e-05 5.17916e-06 0)
(-9.7051e-05 5.60058e-06 0)
(-0.00011761 5.99469e-06 0)
(-0.000139464 6.36192e-06 0)
(-0.000162522 6.70371e-06 0)
(-0.000186696 7.01696e-06 0)
(-0.000211896 7.30033e-06 0)
(-0.000238033 7.55643e-06 0)
(-0.000265024 7.78756e-06 0)
(-0.000292787 7.99477e-06 0)
(-0.000321243 8.17965e-06 0)
(-0.000350314 8.34437e-06 0)
(-0.000379929 8.48863e-06 0)
(-0.000410013 8.61199e-06 0)
(-0.000440498 8.71549e-06 0)
(-0.000471316 8.79942e-06 0)
(-0.000502403 8.86473e-06 0)
(-0.000533697 8.91273e-06 0)
(-0.000565139 8.94448e-06 0)
(-0.000596672 8.96116e-06 0)
(-0.000628243 8.96271e-06 0)
(-0.000659797 8.94864e-06 0)
(-0.000691285 8.92043e-06 0)
(-0.000722658 8.87932e-06 0)
(-0.00075387 8.82565e-06 0)
(-0.000784879 8.7605e-06 0)
(-0.000815642 8.68444e-06 0)
(-0.000846118 8.597e-06 0)
(-0.000876269 8.49875e-06 0)
(-0.000906058 8.39054e-06 0)
(-0.000935449 8.27219e-06 0)
(-0.000964406 8.14379e-06 0)
(-0.000992898 8.00647e-06 0)
(-0.00102089 7.86076e-06 0)
(-0.00104836 7.70646e-06 0)
(-0.00107526 7.54395e-06 0)
(-0.00110159 7.37393e-06 0)
(-0.00112729 7.19669e-06 0)
(-0.00115236 7.01228e-06 0)
(-0.00117677 6.82089e-06 0)
(-0.00120048 6.62263e-06 0)
(-0.00122348 6.41761e-06 0)
(-0.00124575 6.20618e-06 0)
(-0.00126726 5.9889e-06 0)
(-0.00128799 5.76593e-06 0)
(-0.00130792 5.53723e-06 0)
(-0.00132703 5.30326e-06 0)
(-0.00134531 5.06471e-06 0)
(-0.00136273 4.82164e-06 0)
(-0.00137928 4.5734e-06 0)
(-0.00139493 4.31969e-06 0)
(-0.00140968 4.06103e-06 0)
(-0.00142351 3.79808e-06 0)
(-0.00143639 3.53105e-06 0)
(-0.00144832 3.25977e-06 0)
(-0.00145928 2.98418e-06 0)
(-0.00146926 2.70466e-06 0)
(-0.00147824 2.42143e-06 0)
(-0.00148622 2.13441e-06 0)
(-0.00149317 1.84372e-06 0)
(-0.00149908 1.54983e-06 0)
(-0.00150396 1.25317e-06 0)
(-0.00150778 9.53932e-07 0)
(-0.00151054 6.51871e-07 0)
(-0.00151222 3.46961e-07 0)
(-0.00151283 3.9745e-08 0)
(-0.00151235 -2.69022e-07 0)
(-0.00151078 -5.78788e-07 0)
(-0.00150811 -8.89537e-07 0)
(-0.00150435 -1.20157e-06 0)
(-0.00149948 -1.51484e-06 0)
(-0.0014935 -1.82879e-06 0)
(-0.00148643 -2.14259e-06 0)
(-0.00147825 -2.45548e-06 0)
(-0.00146896 -2.76717e-06 0)
(-0.00145858 -3.07787e-06 0)
(-0.00144711 -3.38764e-06 0)
(-0.00143455 -3.69622e-06 0)
(-0.0014209 -4.00295e-06 0)
(-0.00140618 -4.30702e-06 0)
(-0.0013904 -4.608e-06 0)
(-0.00137357 -4.90592e-06 0)
(-0.00135569 -5.20073e-06 0)
(-0.00133679 -5.49199e-06 0)
(-0.00131688 -5.77898e-06 0)
(-0.00129598 -6.06082e-06 0)
(-0.0012741 -6.33678e-06 0)
(-0.00125128 -6.60633e-06 0)
(-0.00122752 -6.86894e-06 0)
(-0.00120287 -7.12392e-06 0)
(-0.00117734 -7.37061e-06 0)
(-0.00115097 -7.60838e-06 0)
(-0.00112378 -7.83652e-06 0)
(-0.00109583 -8.0544e-06 0)
(-0.00106713 -8.26147e-06 0)
(-0.00103773 -8.45707e-06 0)
(-0.00100767 -8.64053e-06 0)
(-0.000977 -8.81128e-06 0)
(-0.000945756 -8.96877e-06 0)
(-0.000913989 -9.11231e-06 0)
(-0.000881748 -9.24127e-06 0)
(-0.000849084 -9.35517e-06 0)
(-0.000816052 -9.45357e-06 0)
(-0.000782707 -9.53591e-06 0)
(-0.000749108 -9.60147e-06 0)
(-0.000715314 -9.64943e-06 0)
(-0.000681388 -9.67898e-06 0)
(-0.000647395 -9.6896e-06 0)
(-0.0006134 -9.68101e-06 0)
(-0.000579472 -9.65278e-06 0)
(-0.000545682 -9.60403e-06 0)
(-0.000512102 -9.53374e-06 0)
(-0.000478808 -9.4412e-06 0)
(-0.000445876 -9.32609e-06 0)
(-0.000413384 -9.18822e-06 0)
(-0.000381411 -9.02725e-06 0)
(-0.000350039 -8.84259e-06 0)
(-0.00031935 -8.63349e-06 0)
(-0.000289429 -8.39923e-06 0)
(-0.000260361 -8.13933e-06 0)
(-0.000232234 -7.85354e-06 0)
(-0.000205134 -7.5415e-06 0)
(-0.000179151 -7.20274e-06 0)
(-0.000154372 -6.83689e-06 0)
(-0.000130887 -6.44388e-06 0)
(-0.000108785 -6.02386e-06 0)
(-8.81513e-05 -5.57699e-06 0)
(-6.90732e-05 -5.10343e-06 0)
(-5.16338e-05 -4.60343e-06 0)
(-3.59137e-05 -4.07749e-06 0)
(-2.19891e-05 -3.52637e-06 0)
(-9.93045e-06 -2.95144e-06 0)
(2.00606e-07 -2.35486e-06 0)
(8.35423e-06 -1.73986e-06 0)
(1.4497e-05 -1.11138e-06 0)
(1.86181e-05 -4.76841e-07 0)
(2.07392e-05 1.52608e-07 0)
(2.09282e-05 7.59051e-07 0)
(1.93218e-05 1.31304e-06 0)
(1.61588e-05 1.7665e-06 0)
(1.18253e-05 2.04115e-06 0)
(6.93878e-06 2.00732e-06 0)
(2.59289e-06 1.46894e-06 0)
(3.65716e-07 3.67313e-07 0)
(2.60863e-07 -2.43801e-06 0)
(5.2618e-06 -8.12458e-06 0)
(1.39788e-05 -8.65296e-06 0)
(2.23191e-05 -7.74146e-06 0)
(2.8239e-05 -5.5586e-06 0)
(3.0734e-05 -2.60539e-06 0)
(2.89566e-05 8.40393e-07 0)
(2.23767e-05 4.56642e-06 0)
(1.06668e-05 8.42407e-06 0)
(-6.32492e-06 1.23158e-05 0)
(-2.8634e-05 1.6169e-05 0)
(-5.62287e-05 1.99357e-05 0)
(-8.89912e-05 2.35887e-05 0)
(-0.000126773 2.71047e-05 0)
(-0.00016939 3.04635e-05 0)
(-0.000216627 3.36557e-05 0)
(-0.000268263 3.66728e-05 0)
(-0.000324062 3.95106e-05 0)
(-0.000383778 4.21695e-05 0)
(-0.000447166 4.46498e-05 0)
(-0.000513978 4.69525e-05 0)
(-0.000583966 4.90786e-05 0)
(-0.000656885 5.10303e-05 0)
(-0.000732495 5.2812e-05 0)
(-0.00081056 5.44282e-05 0)
(-0.000890851 5.58846e-05 0)
(-0.000973143 5.71865e-05 0)
(-0.00105722 5.83391e-05 0)
(-0.00114286 5.93477e-05 0)
(-0.00122988 6.02159e-05 0)
(-0.00131806 6.09485e-05 0)
(-0.00140722 6.15504e-05 0)
(-0.00149717 6.20259e-05 0)
(-0.00158773 6.23811e-05 0)
(-0.00167874 6.26216e-05 0)
(-0.00177003 6.27511e-05 0)
(-0.00186144 6.27741e-05 0)
(-0.00195282 6.26947e-05 0)
(-0.00204402 6.25169e-05 0)
(-0.0021349 6.22452e-05 0)
(-0.00222533 6.18844e-05 0)
(-0.00231518 6.14381e-05 0)
(-0.00240433 6.091e-05 0)
(-0.00249266 6.03035e-05 0)
(-0.00258005 5.96212e-05 0)
(-0.0026664 5.88657e-05 0)
(-0.00275161 5.80396e-05 0)
(-0.00283556 5.7146e-05 0)
(-0.00291816 5.61881e-05 0)
(-0.00299933 5.51682e-05 0)
(-0.00307897 5.40879e-05 0)
(-0.00315699 5.295e-05 0)
(-0.00323331 5.17577e-05 0)
(-0.00330786 5.05126e-05 0)
(-0.00338055 4.92159e-05 0)
(-0.00345131 4.7869e-05 0)
(-0.00352007 4.64738e-05 0)
(-0.00358676 4.50322e-05 0)
(-0.00365132 4.35461e-05 0)
(-0.00371367 4.20175e-05 0)
(-0.00377376 4.04481e-05 0)
(-0.00383153 3.88387e-05 0)
(-0.00388692 3.71905e-05 0)
(-0.00393987 3.55054e-05 0)
(-0.00399034 3.37845e-05 0)
(-0.00403826 3.20285e-05 0)
(-0.00408359 3.02381e-05 0)
(-0.00412627 2.84146e-05 0)
(-0.00416627 2.65596e-05 0)
(-0.00420354 2.46741e-05 0)
(-0.00423803 2.27591e-05 0)
(-0.00426969 2.08157e-05 0)
(-0.0042985 1.8845e-05 0)
(-0.00432441 1.68484e-05 0)
(-0.00434739 1.48267e-05 0)
(-0.0043674 1.27816e-05 0)
(-0.00438441 1.07148e-05 0)
(-0.00439839 8.628e-06 0)
(-0.00440931 6.52215e-06 0)
(-0.00441714 4.39841e-06 0)
(-0.00442186 2.2585e-06 0)
(-0.00442346 1.04741e-07 0)
(-0.00442191 -2.06073e-06 0)
(-0.00441719 -4.23614e-06 0)
(-0.0044093 -6.41988e-06 0)
(-0.00439822 -8.61036e-06 0)
(-0.00438394 -1.08056e-05 0)
(-0.00436647 -1.30028e-05 0)
(-0.0043458 -1.51993e-05 0)
(-0.00432193 -1.73925e-05 0)
(-0.00429487 -1.958e-05 0)
(-0.00426463 -2.17601e-05 0)
(-0.00423122 -2.39307e-05 0)
(-0.00419466 -2.60891e-05 0)
(-0.00415498 -2.82321e-05 0)
(-0.00411219 -3.03568e-05 0)
(-0.00406632 -3.24603e-05 0)
(-0.00401742 -3.45402e-05 0)
(-0.00396551 -3.65936e-05 0)
(-0.00391064 -3.86173e-05 0)
(-0.00385286 -4.06074e-05 0)
(-0.00379223 -4.25599e-05 0)
(-0.0037288 -4.44706e-05 0)
(-0.00366263 -4.63357e-05 0)
(-0.0035938 -4.81509e-05 0)
(-0.00352238 -4.99122e-05 0)
(-0.00344845 -5.16155e-05 0)
(-0.00337211 -5.32568e-05 0)
(-0.00329344 -5.48318e-05 0)
(-0.00321254 -5.6336e-05 0)
(-0.00312952 -5.7765e-05 0)
(-0.0030445 -5.91144e-05 0)
(-0.00295758 -6.03801e-05 0)
(-0.0028689 -6.15578e-05 0)
(-0.00277858 -6.26436e-05 0)
(-0.00268677 -6.36333e-05 0)
(-0.0025936 -6.45223e-05 0)
(-0.00249922 -6.53066e-05 0)
(-0.00240379 -6.59819e-05 0)
(-0.00230747 -6.65441e-05 0)
(-0.00221042 -6.69887e-05 0)
(-0.00211283 -6.73115e-05 0)
(-0.00201487 -6.75083e-05 0)
(-0.00191672 -6.75751e-05 0)
(-0.00181857 -6.75078e-05 0)
(-0.00172063 -6.73026e-05 0)
(-0.0016231 -6.69552e-05 0)
(-0.00152618 -6.64614e-05 0)
(-0.00143008 -6.58174e-05 0)
(-0.00133503 -6.50198e-05 0)
(-0.00124124 -6.40659e-05 0)
(-0.00114894 -6.29528e-05 0)
(-0.00105837 -6.16775e-05 0)
(-0.000969754 -6.02369e-05 0)
(-0.000883334 -5.86279e-05 0)
(-0.00079935 -5.68481e-05 0)
(-0.000718045 -5.48958e-05 0)
(-0.000639664 -5.27699e-05 0)
(-0.000564451 -5.04694e-05 0)
(-0.000492651 -4.7994e-05 0)
(-0.000424508 -4.53444e-05 0)
(-0.000360261 -4.25222e-05 0)
(-0.000300146 -3.95304e-05 0)
(-0.000244394 -3.63732e-05 0)
(-0.000193225 -3.30561e-05 0)
(-0.000146846 -2.95868e-05 0)
(-0.000105447 -2.59766e-05 0)
(-6.91989e-05 -2.22409e-05 0)
(-3.82393e-05 -1.84009e-05 0)
(-1.26677e-05 -1.44857e-05 0)
(7.46881e-06 -1.05359e-05 0)
(2.21937e-05 -6.60756e-06 0)
(3.16249e-05 -2.77919e-06 0)
(3.60076e-05 8.36801e-07 0)
(3.57606e-05 4.07715e-06 0)
(3.15383e-05 6.70541e-06 0)
(2.42909e-05 8.38196e-06 0)
(1.5353e-05 8.62315e-06 0)
(6.78717e-06 6.8024e-06 0)
(1.45924e-06 2.58938e-06 0)
(1.55831e-06 -6.54377e-06 0)
(7.64111e-06 -1.54367e-05 0)
(1.6305e-05 -1.74188e-05 0)
(2.403e-05 -1.48065e-05 0)
(2.80642e-05 -9.08586e-06 0)
(2.68167e-05 -1.27134e-06 0)
(1.91454e-05 7.89987e-06 0)
(4.22088e-06 1.79126e-05 0)
(-1.84586e-05 2.83848e-05 0)
(-4.91822e-05 3.90443e-05 0)
(-8.80647e-05 4.96834e-05 0)
(-0.000135074 6.01613e-05 0)
(-0.000190097 7.03736e-05 0)
(-0.000252931 8.02395e-05 0)
(-0.000323315 8.97108e-05 0)
(-0.000400953 9.87431e-05 0)
(-0.000485511 0.000107309 0)
(-0.000576636 0.000115393 0)
(-0.000673963 0.000122983 0)
(-0.000777117 0.000130076 0)
(-0.000885716 0.000136673 0)
(-0.00099938 0.000142779 0)
(-0.00111773 0.000148397 0)
(-0.00124039 0.000153539 0)
(-0.00136699 0.000158216 0)
(-0.00149717 0.000162438 0)
(-0.00163057 0.000166217 0)
(-0.00176684 0.000169567 0)
(-0.00190566 0.000172501 0)
(-0.00204668 0.000175032 0)
(-0.00218961 0.000177173 0)
(-0.00233412 0.000178939 0)
(-0.00247992 0.000180342 0)
(-0.00262673 0.000181396 0)
(-0.00277427 0.000182115 0)
(-0.00292228 0.000182512 0)
(-0.00307049 0.000182599 0)
(-0.00321867 0.000182389 0)
(-0.00336658 0.000181893 0)
(-0.00351398 0.000181124 0)
(-0.00366067 0.000180092 0)
(-0.00380643 0.000178809 0)
(-0.00395106 0.000177286 0)
(-0.00409437 0.000175531 0)
(-0.00423616 0.000173554 0)
(-0.00437628 0.000171364 0)
(-0.00451453 0.000168967 0)
(-0.00465076 0.000166372 0)
(-0.00478481 0.000163589 0)
(-0.00491653 0.000160623 0)
(-0.00504576 0.000157482 0)
(-0.00517238 0.000154171 0)
(-0.00529624 0.000150699 0)
(-0.00541722 0.000147071 0)
(-0.00553518 0.000143292 0)
(-0.00565001 0.000139367 0)
(-0.00576158 0.000135301 0)
(-0.0058698 0.000131099 0)
(-0.00597454 0.000126766 0)
(-0.00607571 0.000122308 0)
(-0.00617319 0.00011773 0)
(-0.0062669 0.000113034 0)
(-0.00635674 0.000108225 0)
(-0.00644262 0.000103305 0)
(-0.00652444 9.82801e-05 0)
(-0.00660213 9.31523e-05 0)
(-0.0066756 8.79252e-05 0)
(-0.00674477 8.26023e-05 0)
(-0.00680957 7.71876e-05 0)
(-0.00686992 7.16842e-05 0)
(-0.00692575 6.60954e-05 0)
(-0.006977 6.04248e-05 0)
(-0.0070236 5.46756e-05 0)
(-0.00706549 4.88516e-05 0)
(-0.00710261 4.29566e-05 0)
(-0.0071349 3.69949e-05 0)
(-0.00716232 3.0971e-05 0)
(-0.00718482 2.4889e-05 0)
(-0.00720234 1.87526e-05 0)
(-0.00721486 1.25663e-05 0)
(-0.00722233 6.33521e-06 0)
(-0.00722473 6.46102e-08 0)
(-0.00722201 -6.2401e-06 0)
(-0.00721416 -1.25737e-05 0)
(-0.00720115 -1.89307e-05 0)
(-0.00718297 -2.53054e-05 0)
(-0.00715962 -3.16918e-05 0)
(-0.00713107 -3.80832e-05 0)
(-0.00709735 -4.44726e-05 0)
(-0.00705843 -5.08528e-05 0)
(-0.00701435 -5.72168e-05 0)
(-0.00696511 -6.3558e-05 0)
(-0.00691074 -6.9869e-05 0)
(-0.00685127 -7.61422e-05 0)
(-0.00678673 -8.23689e-05 0)
(-0.00671716 -8.8541e-05 0)
(-0.00664262 -9.46499e-05 0)
(-0.00656316 -0.000100687 0)
(-0.00647885 -0.000106643 0)
(-0.00638976 -0.000112508 0)
(-0.00629596 -0.000118273 0)
(-0.00619756 -0.000123925 0)
(-0.00609463 -0.000129455 0)
(-0.0059873 -0.00013485 0)
(-0.00587567 -0.0001401 0)
(-0.00575987 -0.000145192 0)
(-0.00564002 -0.000150115 0)
(-0.00551629 -0.000154858 0)
(-0.0053888 -0.000159408 0)
(-0.00525773 -0.000163752 0)
(-0.00512325 -0.000167879 0)
(-0.00498554 -0.000171776 0)
(-0.00484478 -0.00017543 0)
(-0.00470118 -0.00017883 0)
(-0.00455495 -0.000181963 0)
(-0.00440632 -0.000184817 0)
(-0.0042555 -0.000187379 0)
(-0.00410275 -0.000189637 0)
(-0.00394831 -0.00019158 0)
(-0.00379244 -0.000193194 0)
(-0.00363541 -0.000194468 0)
(-0.00347751 -0.000195389 0)
(-0.00331902 -0.000195945 0)
(-0.00316023 -0.000196126 0)
(-0.00300147 -0.000195919 0)
(-0.00284304 -0.000195313 0)
(-0.00268526 -0.000194297 0)
(-0.00252848 -0.000192861 0)
(-0.00237303 -0.000190994 0)
(-0.00221926 -0.000188687 0)
(-0.00206752 -0.00018593 0)
(-0.00191818 -0.000182717 0)
(-0.0017716 -0.000179039 0)
(-0.00162817 -0.000174888 0)
(-0.00148824 -0.000170259 0)
(-0.00135221 -0.000165145 0)
(-0.00122046 -0.000159543 0)
(-0.00109337 -0.000153451 0)
(-0.000971322 -0.000146868 0)
(-0.000854702 -0.000139796 0)
(-0.000743886 -0.000132239 0)
(-0.000639245 -0.000124204 0)
(-0.00054114 -0.000115703 0)
(-0.000449919 -0.00010675 0)
(-0.000365914 -9.73663e-05 0)
(-0.000289432 -8.75807e-05 0)
(-0.000220748 -7.74316e-05 0)
(-0.0001601 -6.69699e-05 0)
(-0.000107672 -5.62638e-05 0)
(-6.35838e-05 -4.54043e-05 0)
(-2.78688e-05 -3.4513e-05 0)
(-4.48766e-07 -2.37528e-05 0)
(1.88972e-05 -1.33433e-05 0)
(3.05743e-05 -3.58383e-06 0)
(3.52268e-05 5.11781e-06 0)
(3.38019e-05 1.22086e-05 0)
(2.76011e-05 1.69489e-05 0)
(1.83458e-05 1.83803e-05 0)
(8.59039e-06 1.53592e-05 0)
(1.99104e-06 6.91728e-06 0)
(1.71023e-06 -1.04227e-05 0)
(7.36564e-06 -2.30099e-05 0)
(1.44103e-05 -2.49579e-05 0)
(1.90659e-05 -1.92877e-05 0)
(1.84421e-05 -8.31932e-06 0)
(1.07222e-05 6.32452e-06 0)
(-5.45196e-06 2.34536e-05 0)
(-3.10271e-05 4.21763e-05 0)
(-6.66591e-05 6.18318e-05 0)
(-0.000112725 8.19155e-05 0)
(-0.000169388 0.000102054 0)
(-0.000236657 0.000121962 0)
(-0.000314402 0.000141426 0)
(-0.000402395 0.000160294 0)
(-0.00050033 0.000178449 0)
(-0.000607842 0.000195807 0)
(-0.000724518 0.000212311 0)
(-0.000849915 0.000227917 0)
(-0.000983565 0.000242601 0)
(-0.00112498 0.000256349 0)
(-0.00127368 0.000269156 0)
(-0.00142917 0.000281026 0)
(-0.00159094 0.000291968 0)
(-0.0017585 0.000301996 0)
(-0.00193137 0.000311127 0)
(-0.00210907 0.000319382 0)
(-0.00229112 0.000326781 0)
(-0.00247706 0.000333348 0)
(-0.00266644 0.000339106 0)
(-0.00285883 0.00034408 0)
(-0.00305379 0.000348295 0)
(-0.00325091 0.000351777 0)
(-0.0034498 0.000354552 0)
(-0.00365007 0.000356645 0)
(-0.00385134 0.000358081 0)
(-0.00405326 0.000358884 0)
(-0.00425547 0.00035908 0)
(-0.00445765 0.00035869 0)
(-0.00465946 0.00035774 0)
(-0.00486061 0.00035625 0)
(-0.00506078 0.000354244 0)
(-0.00525971 0.00035174 0)
(-0.0054571 0.000348761 0)
(-0.00565269 0.000345324 0)
(-0.00584624 0.000341448 0)
(-0.00603749 0.000337148 0)
(-0.00622621 0.000332443 0)
(-0.00641218 0.000327347 0)
(-0.00659517 0.000321876 0)
(-0.00677498 0.000316045 0)
(-0.0069514 0.000309866 0)
(-0.00712425 0.000303354 0)
(-0.00729334 0.00029652 0)
(-0.00745848 0.000289378 0)
(-0.0076195 0.000281937 0)
(-0.00777624 0.000274208 0)
(-0.00792854 0.0002662 0)
(-0.00807624 0.000257924 0)
(-0.0082192 0.00024939 0)
(-0.00835726 0.000240607 0)
(-0.00849029 0.000231584 0)
(-0.00861815 0.000222329 0)
(-0.00874072 0.000212849 0)
(-0.00885786 0.000203153 0)
(-0.00896947 0.000193247 0)
(-0.00907541 0.000183138 0)
(-0.00917558 0.000172834 0)
(-0.00926987 0.000162341 0)
(-0.00935818 0.000151668 0)
(-0.00944041 0.00014082 0)
(-0.00951646 0.000129806 0)
(-0.00958623 0.000118631 0)
(-0.00964965 0.000107303 0)
(-0.00970663 9.58294e-05 0)
(-0.00975709 8.42176e-05 0)
(-0.00980095 7.24762e-05 0)
(-0.00983815 6.06135e-05 0)
(-0.00986863 4.86374e-05 0)
(-0.00989231 3.65562e-05 0)
(-0.00990915 2.4379e-05 0)
(-0.0099191 1.21158e-05 0)
(-0.00992211 -2.2355e-07 0)
(-0.00991815 -1.26288e-05 0)
(-0.00990718 -2.50895e-05 0)
(-0.00988917 -3.75949e-05 0)
(-0.00986411 -5.01332e-05 0)
(-0.00983198 -6.26924e-05 0)
(-0.00979278 -7.52597e-05 0)
(-0.0097465 -8.78217e-05 0)
(-0.00969316 -0.000100365 0)
(-0.00963277 -0.000112875 0)
(-0.00956535 -0.000125339 0)
(-0.00949094 -0.000137741 0)
(-0.00940958 -0.000150066 0)
(-0.00932132 -0.000162297 0)
(-0.00922622 -0.000174418 0)
(-0.00912434 -0.000186412 0)
(-0.00901577 -0.000198261 0)
(-0.0089006 -0.000209947 0)
(-0.00877893 -0.00022145 0)
(-0.00865086 -0.000232752 0)
(-0.00851652 -0.00024383 0)
(-0.00837605 -0.000254664 0)
(-0.00822959 -0.000265233 0)
(-0.0080773 -0.000275514 0)
(-0.00791934 -0.000285485 0)
(-0.00775589 -0.000295123 0)
(-0.00758717 -0.000304405 0)
(-0.00741336 -0.000313308 0)
(-0.00723469 -0.000321807 0)
(-0.00705139 -0.00032988 0)
(-0.00686371 -0.000337501 0)
(-0.00667191 -0.000344647 0)
(-0.00647626 -0.000351294 0)
(-0.00627705 -0.000357418 0)
(-0.00607458 -0.000362994 0)
(-0.00586916 -0.000367998 0)
(-0.00566112 -0.000372407 0)
(-0.0054508 -0.000376196 0)
(-0.00523855 -0.000379342 0)
(-0.00502474 -0.000381821 0)
(-0.00480974 -0.000383609 0)
(-0.00459395 -0.000384685 0)
(-0.00437778 -0.000385025 0)
(-0.00416163 -0.000384608 0)
(-0.00394594 -0.000383411 0)
(-0.00373114 -0.000381415 0)
(-0.00351768 -0.000378599 0)
(-0.00330603 -0.000374944 0)
(-0.00309664 -0.000370433 0)
(-0.00289 -0.00036505 0)
(-0.00268659 -0.000358778 0)
(-0.00248691 -0.000351603 0)
(-0.00229145 -0.000343514 0)
(-0.00210071 -0.0003345 0)
(-0.0019152 -0.000324551 0)
(-0.00173544 -0.000313664 0)
(-0.00156192 -0.000301835 0)
(-0.00139516 -0.000289067 0)
(-0.00123565 -0.000275366 0)
(-0.00108388 -0.000260743 0)
(-0.000940354 -0.000245215 0)
(-0.000805521 -0.000228808 0)
(-0.000679832 -0.000211558 0)
(-0.000563708 -0.000193509 0)
(-0.000457532 -0.000174726 0)
(-0.000361645 -0.000155289 0)
(-0.00027633 -0.000135305 0)
(-0.0002018 -0.000114912 0)
(-0.000138179 -9.42917e-05 0)
(-8.54762e-05 -7.36812e-05 0)
(-4.35616e-05 -5.33893e-05 0)
(-1.21276e-05 -3.38223e-05 0)
(9.35192e-06 -1.55144e-05 0)
(2.1676e-05 8.33629e-07 0)
(2.59748e-05 1.43078e-05 0)
(2.3752e-05 2.3732e-05 0)
(1.69436e-05 2.76379e-05 0)
(8.35675e-06 2.42854e-05 0)
(2.02439e-06 1.17795e-05 0)
(1.49281e-06 -1.43636e-05 0)
(5.62679e-06 -2.88861e-05 0)
(9.27444e-06 -2.90857e-05 0)
(8.80886e-06 -1.86948e-05 0)
(1.36347e-06 -7.27698e-07 0)
(-1.50058e-05 2.26062e-05 0)
(-4.17157e-05 4.9664e-05 0)
(-7.98283e-05 7.91762e-05 0)
(-0.000130042 0.00011017 0)
(-0.000192797 0.0001419 0)
(-0.000268301 0.000173786 0)
(-0.000356571 0.000205387 0)
(-0.000457481 0.000236365 0)
(-0.000570783 0.00026646 0)
(-0.00069613 0.00029548 0)
(-0.000833109 0.000323283 0)
(-0.000981246 0.000349764 0)
(-0.00114002 0.00037485 0)
(-0.00130889 0.000398494 0)
(-0.00148728 0.000420666 0)
(-0.00167461 0.000441352 0)
(-0.00187027 0.000460551 0)
(-0.00207368 0.000478272 0)
(-0.00228424 0.000494533 0)
(-0.00250135 0.000509356 0)
(-0.00272443 0.00052277 0)
(-0.00295291 0.000534807 0)
(-0.00318621 0.000545502 0)
(-0.00342379 0.000554891 0)
(-0.0036651 0.00056301 0)
(-0.00390962 0.0005699 0)
(-0.00415684 0.0005756 0)
(-0.00440626 0.00058015 0)
(-0.00465741 0.00058359 0)
(-0.00490982 0.000585961 0)
(-0.00516304 0.0005873 0)
(-0.00541664 0.000587645 0)
(-0.0056702 0.000587036 0)
(-0.00592331 0.000585509 0)
(-0.0061756 0.000583098 0)
(-0.00642668 0.000579839 0)
(-0.00667619 0.000575766 0)
(-0.0069238 0.000570911 0)
(-0.00716916 0.000565304 0)
(-0.00741195 0.000558975 0)
(-0.00765188 0.000551951 0)
(-0.00788864 0.00054426 0)
(-0.00812194 0.000535928 0)
(-0.00835151 0.000526978 0)
(-0.0085771 0.000517435 0)
(-0.00879844 0.000507321 0)
(-0.00901529 0.000496659 0)
(-0.00922742 0.000485468 0)
(-0.00943459 0.000473767 0)
(-0.0096366 0.000461575 0)
(-0.00983322 0.000448909 0)
(-0.0100243 0.000435787 0)
(-0.0102095 0.000422224 0)
(-0.0103888 0.000408236 0)
(-0.010562 0.000393839 0)
(-0.0107288 0.000379045 0)
(-0.0108891 0.000363869 0)
(-0.0110428 0.000348325 0)
(-0.0111897 0.000332424 0)
(-0.0113296 0.00031618 0)
(-0.0114623 0.000299604 0)
(-0.0115879 0.000282707 0)
(-0.011706 0.000265502 0)
(-0.0118166 0.000248001 0)
(-0.0119196 0.000230216 0)
(-0.0120148 0.000212158 0)
(-0.0121021 0.000193838 0)
(-0.0121814 0.000175269 0)
(-0.0122527 0.000156464 0)
(-0.0123157 0.000137434 0)
(-0.0123705 0.000118195 0)
(-0.0124169 9.87578e-05 0)
(-0.0124548 7.91372e-05 0)
(-0.0124842 5.93473e-05 0)
(-0.0125051 3.94029e-05 0)
(-0.0125173 1.93201e-05 0)
(-0.0125207 -8.84951e-07 0)
(-0.0125155 -2.11957e-05 0)
(-0.0125014 -4.15945e-05 0)
(-0.0124785 -6.20634e-05 0)
(-0.0124468 -8.25837e-05 0)
(-0.0124062 -0.000103135 0)
(-0.0123567 -0.000123698 0)
(-0.0122984 -0.000144249 0)
(-0.0122312 -0.000164767 0)
(-0.0121552 -0.000185229 0)
(-0.0120704 -0.000205611 0)
(-0.0119768 -0.000225889 0)
(-0.0118745 -0.000246038 0)
(-0.0117636 -0.000266029 0)
(-0.0116441 -0.000285838 0)
(-0.0115162 -0.000305434 0)
(-0.0113799 -0.000324788 0)
(-0.0112353 -0.000343872 0)
(-0.0110826 -0.000362653 0)
(-0.0109219 -0.000381099 0)
(-0.0107534 -0.000399177 0)
(-0.0105772 -0.000416853 0)
(-0.0103935 -0.000434092 0)
(-0.0102025 -0.000450858 0)
(-0.0100045 -0.000467115 0)
(-0.00979963 -0.000482827 0)
(-0.00958815 -0.000497955 0)
(-0.00937035 -0.000512462 0)
(-0.00914648 -0.00052631 0)
(-0.00891684 -0.00053946 0)
(-0.00868173 -0.000551873 0)
(-0.0084415 -0.00056351 0)
(-0.00819646 -0.000574332 0)
(-0.007947 -0.0005843 0)
(-0.00769347 -0.000593374 0)
(-0.00743627 -0.000601515 0)
(-0.00717581 -0.000608685 0)
(-0.00691251 -0.000614844 0)
(-0.00664681 -0.000619954 0)
(-0.00637917 -0.000623977 0)
(-0.00611005 -0.000626877 0)
(-0.00583996 -0.000628615 0)
(-0.00556938 -0.000629157 0)
(-0.00529884 -0.000628467 0)
(-0.00502886 -0.000626511 0)
(-0.00475999 -0.000623256 0)
(-0.00449278 -0.000618672 0)
(-0.00422781 -0.000612727 0)
(-0.00396564 -0.000605396 0)
(-0.00370687 -0.000596652 0)
(-0.00345211 -0.000586471 0)
(-0.00320194 -0.000574834 0)
(-0.00295699 -0.00056172 0)
(-0.00271788 -0.000547117 0)
(-0.00248521 -0.000531014 0)
(-0.00225961 -0.000513405 0)
(-0.00204171 -0.000494289 0)
(-0.00183211 -0.000473674 0)
(-0.00163141 -0.000451573 0)
(-0.00144022 -0.00042801 0)
(-0.00125911 -0.000403017 0)
(-0.00108863 -0.000376642 0)
(-0.000929321 -0.000348948 0)
(-0.000781665 -0.000320018 0)
(-0.000646111 -0.000289959 0)
(-0.000523047 -0.00025891 0)
(-0.000412791 -0.000227051 0)
(-0.000315573 -0.000194611 0)
(-0.000231516 -0.000161882 0)
(-0.000160608 -0.000129241 0)
(-0.000102678 -9.71683e-05 0)
(-5.7358e-05 -6.62814e-05 0)
(-2.40418e-05 -3.73706e-05 0)
(-1.83883e-06 -1.14461e-05 0)
(1.04786e-05 1.0209e-05 0)
(1.45141e-05 2.59816e-05 0)
(1.23058e-05 3.38873e-05 0)
(6.71809e-06 3.15516e-05 0)
(1.75565e-06 1.60992e-05 0)
(1.0746e-06 -1.70236e-05 0)
(2.91988e-06 -3.15518e-05 0)
(1.87402e-06 -2.81518e-05 0)
(-5.31393e-06 -1.1213e-05 0)
(-2.12963e-05 1.55533e-05 0)
(-4.80094e-05 4.94257e-05 0)
(-8.69126e-05 8.82877e-05 0)
(-0.000139064 0.000130512 0)
(-0.0002052 0.000174813 0)
(-0.000285777 0.000220182 0)
(-0.000381011 0.000265834 0)
(-0.000490933 0.000311148 0)
(-0.000615408 0.000355644 0)
(-0.000754167 0.000398954 0)
(-0.000906839 0.00044079 0)
(-0.00107296 0.000480936 0)
(-0.00125202 0.000519236 0)
(-0.00144342 0.000555572 0)
(-0.00164657 0.000589867 0)
(-0.0018608 0.00062207 0)
(-0.00208545 0.000652153 0)
(-0.00231986 0.000680109 0)
(-0.00256332 0.000705944 0)
(-0.00281516 0.000729675 0)
(-0.00307469 0.00075133 0)
(-0.00334124 0.000770947 0)
(-0.00361413 0.000788567 0)
(-0.0038927 0.000804235 0)
(-0.00417631 0.000818003 0)
(-0.00446433 0.000829922 0)
(-0.00475614 0.000840046 0)
(-0.00505114 0.000848431 0)
(-0.00534875 0.000855134 0)
(-0.00564841 0.00086021 0)
(-0.00594955 0.000863716 0)
(-0.00625166 0.000865709 0)
(-0.00655422 0.000866243 0)
(-0.00685673 0.000865371 0)
(-0.00715871 0.000863147 0)
(-0.00745971 0.000859622 0)
(-0.00775928 0.000854846 0)
(-0.00805699 0.000848868 0)
(-0.00835242 0.000841734 0)
(-0.00864519 0.000833489 0)
(-0.0089349 0.000824176 0)
(-0.00922118 0.000813835 0)
(-0.00950369 0.000802509 0)
(-0.00978208 0.000790233 0)
(-0.010056 0.000777044 0)
(-0.0103252 0.000762976 0)
(-0.0105893 0.000748064 0)
(-0.0108481 0.000732338 0)
(-0.0111012 0.000715829 0)
(-0.0113484 0.000698566 0)
(-0.0115894 0.000680575 0)
(-0.011824 0.000661883 0)
(-0.0120519 0.000642514 0)
(-0.012273 0.000622494 0)
(-0.0124869 0.000601846 0)
(-0.0126934 0.00058059 0)
(-0.0128924 0.000558747 0)
(-0.0130836 0.00053634 0)
(-0.0132669 0.000513387 0)
(-0.013442 0.000489907 0)
(-0.0136087 0.00046592 0)
(-0.013767 0.000441442 0)
(-0.0139166 0.000416492 0)
(-0.0140574 0.000391088 0)
(-0.0141892 0.000365247 0)
(-0.0143118 0.000338988 0)
(-0.0144252 0.000312327 0)
(-0.0145291 0.000285283 0)
(-0.0146235 0.000257873 0)
(-0.0147082 0.000230117 0)
(-0.0147831 0.000202032 0)
(-0.0148482 0.00017364 0)
(-0.0149032 0.000144959 0)
(-0.0149482 0.000116011 0)
(-0.014983 8.68163e-05 0)
(-0.0150075 5.73974e-05 0)
(-0.0150217 2.77773e-05 0)
(-0.0150255 -2.01972e-06 0)
(-0.0150189 -3.19689e-05 0)
(-0.0150018 -6.20443e-05 0)
(-0.0149741 -9.22192e-05 0)
(-0.0149359 -0.000122466 0)
(-0.0148871 -0.000152755 0)
(-0.0148278 -0.000183056 0)
(-0.0147579 -0.000213337 0)
(-0.0146774 -0.000243565 0)
(-0.0145864 -0.000273706 0)
(-0.014485 -0.000303726 0)
(-0.0143731 -0.000333588 0)
(-0.0142508 -0.000363254 0)
(-0.0141183 -0.000392686 0)
(-0.0139755 -0.000421841 0)
(-0.0138227 -0.00045068 0)
(-0.0136599 -0.000479157 0)
(-0.0134873 -0.000507231 0)
(-0.013305 -0.000534853 0)
(-0.0131132 -0.000561978 0)
(-0.0129122 -0.000588557 0)
(-0.012702 -0.000614539 0)
(-0.0124829 -0.000639874 0)
(-0.0122551 -0.00066451 0)
(-0.012019 -0.000688394 0)
(-0.0117747 -0.000711472 0)
(-0.0115226 -0.000733691 0)
(-0.0112629 -0.000754993 0)
(-0.0109961 -0.000775325 0)
(-0.0107224 -0.000794628 0)
(-0.0104423 -0.000812846 0)
(-0.010156 -0.000829923 0)
(-0.00986409 -0.000845801 0)
(-0.0095669 -0.000860422 0)
(-0.00926489 -0.00087373 0)
(-0.00895853 -0.000885668 0)
(-0.0086483 -0.000896178 0)
(-0.00833471 -0.000905204 0)
(-0.00801827 -0.00091269 0)
(-0.00769953 -0.000918583 0)
(-0.00737905 -0.000922826 0)
(-0.0070574 -0.000925367 0)
(-0.00673517 -0.000926155 0)
(-0.00641298 -0.000925139 0)
(-0.00609145 -0.00092227 0)
(-0.00577121 -0.000917503 0)
(-0.00545293 -0.000910791 0)
(-0.00513728 -0.000902095 0)
(-0.00482492 -0.000891374 0)
(-0.00451656 -0.000878593 0)
(-0.0042129 -0.00086372 0)
(-0.00391464 -0.000846727 0)
(-0.0036225 -0.000827591 0)
(-0.00333719 -0.000806293 0)
(-0.00305945 -0.000782823 0)
(-0.00278998 -0.000757175 0)
(-0.00252951 -0.000729354 0)
(-0.00227874 -0.000699375 0)
(-0.00203837 -0.000667262 0)
(-0.00180908 -0.000633056 0)
(-0.00159154 -0.000596811 0)
(-0.00138636 -0.000558604 0)
(-0.00119415 -0.000518534 0)
(-0.00101546 -0.000476729 0)
(-0.000850781 -0.000433353 0)
(-0.000700545 -0.000388618 0)
(-0.000565096 -0.000342787 0)
(-0.000444677 -0.000296194 0)
(-0.000339413 -0.000249263 0)
(-0.000249279 -0.000202522 0)
(-0.000174079 -0.000156641 0)
(-0.000113412 -0.000112459 0)
(-6.66306e-05 -7.10316e-05 0)
(-3.28066e-05 -3.36787e-05 0)
(-1.06814e-05 -2.04635e-06 0)
(1.3705e-06 2.18288e-05 0)
(5.39879e-06 3.54615e-05 0)
(4.16035e-06 3.58628e-05 0)
(1.31449e-06 1.92761e-05 0)
(5.38535e-07 -1.80703e-05 0)
(-3.75823e-07 -3.01045e-05 0)
(-7.04997e-06 -2.08966e-05 0)
(-2.21139e-05 4.55127e-06 0)
(-4.79186e-05 4.20176e-05 0)
(-8.63092e-05 8.82473e-05 0)
(-0.000138685 0.000140731 0)
(-0.000206084 0.000197471 0)
(-0.00028922 0.000256884 0)
(-0.000388535 0.00031771 0)
(-0.000504245 0.00037894 0)
(-0.000636366 0.000439774 0)
(-0.000784747 0.000499584 0)
(-0.000949101 0.000557874 0)
(-0.00112903 0.000614259 0)
(-0.00132403 0.000668444 0)
(-0.00153354 0.000720204 0)
(-0.00175693 0.000769376 0)
(-0.00199352 0.000815843 0)
(-0.00224261 0.000859526 0)
(-0.00250347 0.00090038 0)
(-0.00277533 0.000938385 0)
(-0.00305744 0.000973542 0)
(-0.00334904 0.00100587 0)
(-0.00364935 0.00103539 0)
(-0.00395763 0.00106216 0)
(-0.00427311 0.00108623 0)
(-0.00459506 0.00110765 0)
(-0.00492274 0.00112648 0)
(-0.00525544 0.0011428 0)
(-0.00559246 0.00115667 0)
(-0.00593312 0.00116817 0)
(-0.00627676 0.00117737 0)
(-0.00662272 0.00118434 0)
(-0.00697039 0.00118917 0)
(-0.00731915 0.00119192 0)
(-0.00766842 0.00119267 0)
(-0.00801763 0.00119149 0)
(-0.00836623 0.00118845 0)
(-0.00871369 0.00118362 0)
(-0.0090595 0.00117707 0)
(-0.00940316 0.00116886 0)
(-0.0097442 0.00115906 0)
(-0.0100822 0.00114773 0)
(-0.0104166 0.00113493 0)
(-0.0107471 0.0011207 0)
(-0.0110732 0.00110512 0)
(-0.0113946 0.00108822 0)
(-0.0117108 0.00107006 0)
(-0.0120215 0.00105069 0)
(-0.0123264 0.00103015 0)
(-0.0126251 0.00100849 0)
(-0.0129173 0.000985746 0)
(-0.0132026 0.000961957 0)
(-0.0134808 0.000937163 0)
(-0.0137516 0.0009114 0)
(-0.0140147 0.000884702 0)
(-0.0142697 0.000857103 0)
(-0.0145166 0.000828636 0)
(-0.0147549 0.000799329 0)
(-0.0149845 0.000769212 0)
(-0.0152051 0.000738315 0)
(-0.0154165 0.000706665 0)
(-0.0156185 0.000674289 0)
(-0.0158108 0.000641211 0)
(-0.0159934 0.000607458 0)
(-0.0161659 0.000573055 0)
(-0.0163281 0.000538027 0)
(-0.01648 0.000502398 0)
(-0.0166213 0.000466193 0)
(-0.0167519 0.000429437 0)
(-0.0168716 0.000392155 0)
(-0.0169803 0.000354372 0)
(-0.0170778 0.000316114 0)
(-0.017164 0.000277407 0)
(-0.0172387 0.00023828 0)