/*--------------------------------*- C++ -*----------------------------------*\
  =========                 |
  \\      /  F ield         | OpenFOAM: The Open Source CFD Toolbox
   \\    /   O peration     | Website:  https://openfoam.org
    \\  /    A nd           | Version:  7
     \\/     M anipulation  |
\*---------------------------------------------------------------------------*/
FoamFile
{
    version     2.0;
    format      ascii;
    class       volScalarField;
    location    "0.2375";
    object      p;
}
// * * * * * * * * * * * * * * * * * * * * * * * * * * * * * * * * * * * * * //

dimensions      [0 2 -2 0 0 0 0];

internalField   nonuniform List<scalar> 
25600
(
3.17616e-09
1.85679e-05
2.05421e-05
-2.58939e-06
-5.17924e-05
-0.000125853
-0.000222359
-0.000338341
-0.00047075
-0.000616669
-0.000773382
-0.000938408
-0.00110947
-0.0012845
-0.00146163
-0.00163917
-0.00181561
-0.00198956
-0.00215979
-0.00232519
-0.00248475
-0.00263758
-0.00278288
-0.00291994
-0.00304811
-0.00316684
-0.00327562
-0.00337402
-0.00346166
-0.0035382
-0.00360336
-0.00365692
-0.00369865
-0.00372838
-0.00374598
-0.00375132
-0.00374433
-0.00372494
-0.00369313
-0.0036489
-0.00359224
-0.00352319
-0.00344178
-0.00334807
-0.00324214
-0.00312407
-0.00299396
-0.00285192
-0.00269808
-0.00253257
-0.00235553
-0.00216713
-0.00196755
-0.00175697
-0.00153558
-0.00130358
-0.00106119
-0.000808623
-0.000546111
-0.000273908
7.72543e-06
0.000298518
0.000598191
0.000906451
0.00122298
0.00154747
0.00187959
0.00221898
0.00256531
0.00291818
0.00327721
0.00364203
0.0040122
0.00438731
0.00476692
0.00515057
0.00553782
0.00592819
0.00632118
0.00671631
0.00711306
0.00751092
0.00790934
0.00830778
0.00870569
0.00910251
0.0094977
0.00989067
0.0102808
0.0106676
0.0110504
0.0114286
0.0118017
0.0121691
0.0125301
0.0128843
0.0132309
0.0135695
0.0138995
0.0142203
0.0145314
0.0148322
0.0151222
0.015401
0.0156681
0.0159229
0.016165
0.0163941
0.0166097
0.0168114
0.016999
0.017172
0.0173303
0.0174736
0.0176017
0.0177144
0.0178115
0.017893
0.0179588
0.018009
0.0180434
0.0180623
0.0180657
0.0180538
0.0180268
0.017985
0.0179287
0.0178582
0.017774
0.0176766
0.0175664
0.0174441
0.0173102
0.0171655
0.0170108
0.0168469
0.0166746
0.016495
0.0163089
0.0161176
0.0159221
0.0157237
0.0155237
0.0153235
0.0151247
0.0149287
0.0147374
0.0145523
0.0143756
0.014209
0.0140549
0.0139153
0.0137925
0.013689
0.0136068
0.013548
0.0135136
0.0135032
0.0135139
0.0135356
-1.73537e-05
1.91669e-06
5.54111e-07
-2.36884e-05
-6.97006e-05
-0.000136782
-0.00022336
-0.000327218
-0.000445967
-0.000577219
-0.000718661
-0.000868122
-0.00102356
-0.00118311
-0.00134503
-0.00150775
-0.00166982
-0.00182994
-0.00198691
-0.00213966
-0.0022872
-0.00242867
-0.00256326
-0.00269027
-0.00280907
-0.0029191
-0.00301983
-0.00311083
-0.00319172
-0.00326214
-0.0033218
-0.00337046
-0.00340789
-0.0034339
-0.00344835
-0.0034511
-0.00344207
-0.00342119
-0.0033884
-0.00334368
-0.00328704
-0.00321848
-0.00313803
-0.00304576
-0.00294171
-0.00282596
-0.0026986
-0.00255973
-0.00240947
-0.00224794
-0.00207529
-0.00189167
-0.00169724
-0.00149217
-0.00127665
-0.0010509
-0.000815092
-0.000569454
-0.000314209
-4.96017e-05
0.000224119
0.000506692
0.000797838
0.00109727
0.00140468
0.00171976
0.0020422
0.00237166
0.00270778
0.00305021
0.00339856
0.00375247
0.00411153
0.00447532
0.00484341
0.00521538
0.00559078
0.00596915
0.00635
0.00673287
0.00711726
0.00750266
0.00788856
0.00827443
0.00865974
0.00904395
0.00942652
0.0098069
0.0101845
0.0105588
0.0109292
0.0112952
0.0116562
0.0120116
0.0123608
0.0127034
0.0130387
0.0133662
0.0136854
0.0139957
0.0142967
0.0145877
0.0148683
0.0151381
0.0153965
0.0156432
0.0158777
0.0160996
0.0163086
0.0165043
0.0166863
0.0168544
0.0170084
0.017148
0.017273
0.0173832
0.0174786
0.0175591
0.0176245
0.017675
0.0177106
0.0177312
0.0177372
0.0177285
0.0177055
0.0176684
0.0176175
0.0175533
0.017476
0.0173862
0.0172843
0.0171711
0.0170469
0.0169127
0.0167691
0.0166168
0.0164568
0.01629
0.0161174
0.0159399
0.0157588
0.0155751
0.0153902
0.0152054
0.0150221
0.0148418
0.014666
0.0144965
0.0143348
0.0141829
0.0140425
0.0139156
0.0138041
0.0137098
0.0136344
0.0135791
0.0135446
0.0135302
0.0135356
0.0135573
-1.6947e-05
6.03944e-06
4.6431e-06
-1.94961e-05
-6.32527e-05
-0.000125789
-0.000205781
-0.000301375
-0.000410564
-0.000531299
-0.000661584
-0.000799473
-0.00094313
-0.00109085
-0.00124102
-0.00139218
-0.00154297
-0.00169214
-0.00183856
-0.00198117
-0.00211905
-0.00225132
-0.00237721
-0.00249603
-0.00260714
-0.00271
-0.0028041
-0.00288898
-0.00296426
-0.0030296
-0.00308467
-0.00312924
-0.00316306
-0.00318595
-0.00319775
-0.00319832
-0.00318756
-0.0031654
-0.00313177
-0.00308664
-0.00302999
-0.00296183
-0.0028822
-0.00279111
-0.00268864
-0.00257485
-0.00244981
-0.00231363
-0.0021664
-0.00200824
-0.0018393
-0.00165972
-0.00146966
-0.00126927
-0.00105875
-0.000838287
-0.000608071
-0.000368312
-0.000119232
0.000138929
0.000405935
0.000681532
0.000965442
0.00125738
0.00155706
0.00186418
0.00217843
0.00249947
0.00282696
0.00316055
0.00349989
0.00384458
0.00419425
0.00454848
0.00490686
0.00526897
0.00563439
0.00600265
0.00637329
0.00674586
0.00711986
0.0074948
0.00787018
0.0082455
0.00862024
0.00899389
0.00936591
0.00973576
0.0101029
0.0104668
0.0108269
0.0111826
0.0115334
0.0118789
0.0122183
0.0125512
0.0128771
0.0131954
0.0135056
0.0138072
0.0140997
0.0143826
0.0146554
0.0149177
0.015169
0.015409
0.0156372
0.0158531
0.0160566
0.0162473
0.0164247
0.0165888
0.0167392
0.0168757
0.0169982
0.0171064
0.0172004
0.0172799
0.0173451
0.0173958
0.0174322
0.0174543
0.0174623
0.0174563
0.0174365
0.0174032
0.0173568
0.0172976
0.0172259
0.0171423
0.0170472
0.0169413
0.0168251
0.0166992
0.0165645
0.0164217
0.0162716
0.0161151
0.0159531
0.0157867
0.015617
0.0154451
0.0152721
0.0150993
0.0149282
0.01476
0.0145962
0.0144385
0.0142883
0.0141472
0.014017
0.0138993
0.0137957
0.0137079
0.0136372
0.0135847
0.0135508
0.0135355
0.0135411
0.0135681
9.65907e-06
3.34813e-05
3.16261e-05
7.20534e-06
-3.55546e-05
-9.55215e-05
-0.000171418
-0.000261559
-0.000364132
-0.00047735
-0.00059942
-0.000728604
-0.000863229
-0.00100173
-0.00114262
-0.00128454
-0.00142622
-0.00156646
-0.00170419
-0.00183841
-0.00196821
-0.00209277
-0.00221133
-0.00232321
-0.0024278
-0.00252453
-0.00261293
-0.00269254
-0.00276297
-0.0028239
-0.00287499
-0.00291599
-0.00294667
-0.00296683
-0.0029763
-0.00297495
-0.00296266
-0.00293936
-0.00290497
-0.00285947
-0.00280282
-0.00273502
-0.00265609
-0.00256607
-0.00246499
-0.00235294
-0.00222996
-0.00209616
-0.00195163
-0.00179647
-0.00163084
-0.00145487
-0.00126869
-0.00107249
-0.000866422
-0.000650681
-0.00042545
-0.000190932
5.26504e-05
0.000305068
0.000566091
0.00083547
0.00111293
0.0013982
0.001691
0.00199103
0.00229798
0.00261154
0.00293136
0.00325711
0.00358844
0.00392496
0.0042663
0.00461207
0.00496186
0.00531525
0.00567184
0.00603117
0.0063928
0.00675627
0.00712112
0.00748685
0.00785299
0.00821903
0.00858448
0.00894885
0.0093116
0.00967222
0.0100302
0.0103849
0.010736
0.0110828
0.0114248
0.0117615
0.0120924
0.0124169
0.0127346
0.0130448
0.0133472
0.0136413
0.0139264
0.0142022
0.0144683
0.0147241
0.0149692
0.0152033
0.015426
0.0156369
0.0158356
0.0160219
0.0161954
0.0163559
0.0165032
0.0166371
0.0167573
0.0168638
0.0169565
0.0170353
0.0171001
0.0171511
0.0171882
0.0172115
0.0172212
0.0172174
0.0172003
0.0171703
0.0171276
0.0170726
0.0170057
0.0169273
0.0168379
0.0167381
0.0166285
0.0165097
0.0163825
0.0162475
0.0161056
0.0159576
0.0158046
0.0156473
0.015487
0.0153246
0.0151613
0.0149983
0.0148369
0.0146783
0.0145241
0.0143755
0.0142341
0.0141013
0.0139786
0.0138676
0.0137698
0.0136865
0.013619
0.0135684
0.0135352
0.01352
0.0135266
0.0135578
6.2493e-05
8.27002e-05
7.81568e-05
5.21534e-05
9.1057e-06
-4.97182e-05
-0.000123063
-0.000209349
-0.000306963
-0.000414285
-0.000529724
-0.000651713
-0.000778735
-0.000909352
-0.00104222
-0.00117605
-0.00130966
-0.00144194
-0.00157187
-0.0016985
-0.00182096
-0.00193847
-0.00205028
-0.00215576
-0.00225429
-0.00234534
-0.00242842
-0.0025031
-0.00256899
-0.00262575
-0.00267308
-0.00271071
-0.00273841
-0.00275598
-0.00276324
-0.00276007
-0.00274633
-0.00272194
-0.00268684
-0.00264098
-0.00258432
-0.00251688
-0.00243864
-0.00234964
-0.00224993
-0.00213955
-0.00201857
-0.00188708
-0.00174516
-0.00159292
-0.0014305
-0.00125802
-0.00107562
-0.000883461
-0.000681718
-0.000470556
-0.000250159
-2.07295e-05
0.00021752
0.000464373
0.000719601
0.000982952
0.00125417
0.00153298
0.00181911
0.00211229
0.00241219
0.00271851
0.00303093
0.0033491
0.00367269
0.00400133
0.00433464
0.00467225
0.00501377
0.00535878
0.00570687
0.00605762
0.00641058
0.00676533
0.00712139
0.00747829
0.00783556
0.00819272
0.00854929
0.00890478
0.00925868
0.00961047
0.00995965
0.0103057
0.0106481
0.0109864
0.01132
0.0116484
0.0119712
0.0122877
0.0125976
0.0129002
0.0131952
0.013482
0.0137602
0.0140294
0.014289
0.0145387
0.014778
0.0150066
0.015224
0.0154301
0.0156243
0.0158064
0.0159762
0.0161334
0.0162777
0.0164091
0.0165272
0.0166321
0.0167236
0.0168016
0.0168661
0.0169172
0.0169549
0.0169793
0.0169905
0.0169888
0.0169742
0.0169472
0.0169079
0.0168568
0.0167942
0.0167206
0.0166365
0.0165423
0.0164388
0.0163264
0.016206
0.0160782
0.0159437
0.0158036
0.0156585
0.0155095
0.0153576
0.0152037
0.015049
0.0148947
0.0147418
0.0145917
0.0144457
0.014305
0.014171
0.0140451
0.0139286
0.013823
0.0137295
0.0136495
0.0135843
0.0135347
0.0135017
0.0134859
0.013492
0.0135236
0.000139971
0.000152778
0.000143248
0.000114161
6.94055e-05
1.02839e-05
-6.19584e-05
-0.000145902
-0.000240077
-0.000343021
-0.000453309
-0.000569524
-0.000690298
-0.000814327
-0.000940367
-0.00106723
-0.00119383
-0.00131912
-0.00144214
-0.001562
-0.00167788
-0.00178901
-0.0018947
-0.00199433
-0.00208732
-0.00217314
-0.00225131
-0.00232143
-0.0023831
-0.002436
-0.00247982
-0.0025143
-0.00253921
-0.00255434
-0.00255953
-0.00255464
-0.00253954
-0.00251415
-0.00247838
-0.00243219
-0.00237554
-0.00230844
-0.00223088
-0.00214287
-0.00204447
-0.00193572
-0.00181667
-0.0016874
-0.001548
-0.00139858
-0.00123925
-0.00107014
-0.000891388
-0.000703143
-0.000505563
-0.000298814
-8.30825e-05
0.000141441
0.000374553
0.000616043
0.000865686
0.00112323
0.00138843
0.00166103
0.00194075
0.00222733
0.00252046
0.00281982
0.00312513
0.00343604
0.00375221
0.00407329
0.00439891
0.0047287
0.0050623
0.00539929
0.00573926
0.00608182
0.00642652
0.00677293
0.00712061
0.0074691
0.00781793
0.00816665
0.00851477
0.00886183
0.00920732
0.00955074
0.0098916
0.0102294
0.0105637
0.0108939
0.0112195
0.0115401
0.0118552
0.0121642
0.0124667
0.0127622
0.0130502
0.0133302
0.0136019
0.0138647
0.0141183
0.0143622
0.014596
0.0148194
0.015032
0.0152335
0.0154235
0.0156018
0.015768
0.015922
0.0160636
0.0161926
0.0163088
0.016412
0.0165023
0.0165796
0.0166438
0.016695
0.0167333
0.0167586
0.0167713
0.0167713
0.0167591
0.0167347
0.0166986
0.016651
0.0165923
0.0165231
0.0164437
0.0163547
0.0162566
0.01615
0.0160357
0.0159143
0.0157866
0.0156534
0.0155155
0.0153738
0.0152294
0.015083
0.0149359
0.014789
0.0146436
0.0145007
0.0143616
0.0142275
0.0140997
0.0139793
0.0138677
0.0137662
0.0136759
0.0135982
0.013534
0.0134846
0.0134507
0.0134332
0.0134369
0.0134652
0.000239663
0.000242192
0.000225685
0.000192018
0.000144136
8.33272e-05
1.07544e-05
-7.2277e-05
-0.000164447
-0.000264457
-0.000371
-0.000482816
-0.000598665
-0.000717361
-0.000837767
-0.000958799
-0.00107943
-0.00119871
-0.00131573
-0.00142966
-0.00153973
-0.0016452
-0.00174543
-0.00183981
-0.00192779
-0.00200886
-0.00208258
-0.00214853
-0.00220635
-0.0022557
-0.00229629
-0.00232787
-0.0023502
-0.00236309
-0.00236636
-0.00235988
-0.00234353
-0.0023172
-0.00228082
-0.00223435
-0.00217774
-0.00211098
-0.00203407
-0.00194704
-0.00184991
-0.00174271
-0.00162551
-0.00149838
-0.00136141
-0.00121468
-0.00105832
-0.00089244
-0.00071718
-0.000532679
-0.000339087
-0.000136566
7.47003e-05
0.000294528
0.000522728
0.000759087
0.00100339
0.00125538
0.00151483
0.0017815
0.00205511
0.00233539
0.00262205
0.00291479
0.00321332
0.00351731
0.00382642
0.00414031
0.00445862
0.00478101
0.00510708
0.00543646
0.00576874
0.00610353
0.00644041
0.00677895
0.00711871
0.00745925
0.00780012
0.00814087
0.00848104
0.00882016
0.00915773
0.00949328
0.00982633
0.0101564
0.010483
0.0108057
0.0111239
0.0114371
0.011745
0.0120469
0.0123426
0.0126313
0.0129128
0.0131865
0.0134521
0.0137091
0.013957
0.0141955
0.0144242
0.0146428
0.0148508
0.0150481
0.0152342
0.0154088
0.0155718
0.0157229
0.0158619
0.0159887
0.016103
0.0162048
0.016294
0.0163705
0.0164344
0.0164857
0.0165243
0.0165506
0.0165644
0.0165661
0.0165558
0.0165339
0.0165005
0.0164561
0.016401
0.0163356
0.0162604
0.016176
0.0160827
0.0159814
0.0158725
0.0157568
0.015635
0.0155079
0.0153763
0.015241
0.015103
0.0149631
0.0148225
0.014682
0.0145428
0.014406
0.0142726
0.0141439
0.0140209
0.0139048
0.0137969
0.0136982
0.0136099
0.0135331
0.013469
0.0134186
0.0133827
0.0133623
0.0133617
0.0133837
0.000358786
0.000348922
0.000323779
0.000284163
0.000231865
0.000168062
9.38691e-05
1.04577e-05
-8.10144e-05
-0.000179367
-0.000283443
-0.000392101
-0.000504228
-0.000618742
-0.00073461
-0.000850841
-0.000966492
-0.00108067
-0.00119255
-0.00130135
-0.00140633
-0.00150683
-0.00160223
-0.00169193
-0.00177543
-0.00185224
-0.00192193
-0.00198411
-0.00203842
-0.00208454
-0.00212219
-0.00215111
-0.00217107
-0.0021819
-0.00218341
-0.00217548
-0.00215798
-0.0021308
-0.00209388
-0.00204717
-0.00199062
-0.00192422
-0.00184796
-0.00176187
-0.00166596
-0.00156027
-0.00144485
-0.00131978
-0.00118513
-0.00104099
-0.000887472
-0.000724695
-0.000552783
-0.000371865
-0.000182093
1.63759e-05
0.000223368
0.000438707
0.000662209
0.000893661
0.00113285
0.00137954
0.00163351
0.00189451
0.00216229
0.00243657
0.00271707
0.00300351
0.00329559
0.00359299
0.00389539
0.00420244
0.00451382
0.00482917
0.00514812
0.00547029
0.00579529
0.00612274
0.00645222
0.00678333
0.00711562
0.00744866
0.00778203
0.00811528
0.00844796
0.0087796
0.00910975
0.00943791
0.00976363
0.0100865
0.0104059
0.0107214
0.0110327
0.0113391
0.0116402
0.0119356
0.0122248
0.0125073
0.0127827
0.0130506
0.0133105
0.013562
0.0138047
0.0140382
0.0142621
0.0144762
0.0146801
0.0148734
0.0150558
0.0152271
0.0153871
0.0155354
0.015672
0.0157967
0.0159093
0.0160097
0.0160978
0.0161736
0.0162372
0.0162885
0.0163275
0.0163544
0.0163694
0.0163725
0.016364
0.0163442
0.0163133
0.0162716
0.0162196
0.0161577
0.0160862
0.0160058
0.0159169
0.0158201
0.015716
0.0156052
0.0154886
0.0153668
0.0152406
0.0151108
0.0149783
0.014844
0.0147088
0.0145737
0.0144397
0.0143078
0.014179
0.0140544
0.0139351
0.0138222
0.0137167
0.0136197
0.0135323
0.0134555
0.0133903
0.0133378
0.0132988
0.0132742
0.0132676
0.0132811
0.000494552
0.000470779
0.000435683
0.000388958
0.000331081
0.000263136
0.000186174
0.000101209
9.28268e-06
-8.85737e-05
-0.000191319
-0.000297939
-0.00040743
-0.000518809
-0.000631144
-0.00074353
-0.000855098
-0.000965035
-0.00107257
-0.00117698
-0.00127758
-0.00137375
-0.0014649
-0.00155048
-0.00163
-0.00170302
-0.0017691
-0.00182789
-0.00187903
-0.00192223
-0.0019572
-0.0019837
-0.00200152
-0.00201047
-0.00201039
-0.00200114
-0.00198259
-0.00195466
-0.00191727
-0.00187037
-0.00181391
-0.00174788
-0.00167227
-0.0015871
-0.00149238
-0.00138814
-0.00127445
-0.00115136
-0.00101894
-0.00087729
-0.000726507
-0.000566703
-0.000397997
-0.000220513
-3.44004e-05
0.000160187
0.00036309
0.000574138
0.000793146
0.00101991
0.00125421
0.00149585
0.00174458
0.00200019
0.0022624
0.00253096
0.0028056
0.00308604
0.00337198
0.00366312
0.00395915
0.00425973
0.00456453
0.00487321
0.00518541
0.00550075
0.00581888
0.00613939
0.00646189
0.00678598
0.00711122
0.0074372
0.00776352
0.00808972
0.00841536
0.00874
0.00906316
0.00938441
0.00970328
0.0100193
0.010332
0.010641
0.0109457
0.0112457
0.0115406
0.0118299
0.0121131
0.0123898
0.0126595
0.0129219
0.0131766
0.013423
0.0136608
0.0138897
0.0141093
0.0143192
0.0145191
0.0147088
0.0148878
0.015056
0.0152131
0.015359
0.0154933
0.0156161
0.015727
0.0158261
0.0159132
0.0159884
0.0160516
0.0161028
0.0161421
0.0161697
0.0161855
0.0161899
0.0161829
0.0161649
0.0161362
0.016097
0.0160477
0.0159888
0.0159206
0.0158437
0.0157585
0.0156657
0.0155657
0.0154593
0.0153471
0.0152299
0.0151083
0.0149832
0.0148554
0.0147257
0.014595
0.0144643
0.0143344
0.0142064
0.0140811
0.0139597
0.013843
0.0137321
0.013628
0.0135317
0.0134441
0.0133662
0.013299
0.0132433
0.0132001
0.0131703
0.0131562
0.0131594
0.000644299
0.000605571
0.000559533
0.000504722
0.000440284
0.000367195
0.000286438
0.000198901
0.000105476
7.08185e-06
-9.53619e-05
-0.00020095
-0.000308783
-0.000417986
-0.000527705
-0.000637121
-0.000745447
-0.000851936
-0.000955875
-0.0010566
-0.00115347
-0.00124592
-0.00133339
-0.00141538
-0.00149141
-0.00156107
-0.00162396
-0.00167972
-0.00172804
-0.00176861
-0.00180118
-0.00182551
-0.0018414
-0.00184866
-0.00184714
-0.0018367
-0.00181723
-0.00178864
-0.00175085
-0.00170381
-0.00164748
-0.00158184
-0.00150688
-0.00142262
-0.00132905
-0.00122623
-0.0011142
-0.00099302
-0.000862753
-0.000723492
-0.000575335
-0.000418383
-0.000252747
-7.85542e-05
0.000104053
0.00029493
0.000493926
0.000700873
0.000915583
0.00113786
0.00136751
0.00160432
0.00184807
0.00209853
0.00235544
0.00261856
0.00288763
0.00316237
0.0034425
0.0037277
0.00401768
0.00431212
0.0046107
0.00491307
0.00521888
0.00552779
0.00583942
0.00615339
0.00646932
0.0067868
0.00710541
0.00742477
0.00774446
0.00806405
0.0083831
0.00870117
0.00901781
0.00933259
0.00964505
0.00995475
0.0102612
0.010564
0.0108627
0.0111568
0.0114458
0.0117294
0.0120071
0.0122784
0.0125429
0.0128002
0.01305
0.0132917
0.0135251
0.0137497
0.0139652
0.0141712
0.0143676
0.0145538
0.0147298
0.0148951
0.0150496
0.0151931
0.0153254
0.0154463
0.0155558
0.0156536
0.0157398
0.0158143
0.0158771
0.0159283
0.0159678
0.0159958
0.0160124
0.0160178
0.0160122
0.0159958
0.0159689
0.0159319
0.015885
0.0158286
0.0157633
0.0156894
0.0156074
0.0155179
0.0154215
0.0153188
0.0152104
0.015097
0.0149793
0.0148581
0.0147341
0.0146082
0.0144812
0.0143539
0.0142273
0.0141021
0.0139795
0.0138602
0.0137451
0.0136353
0.0135316
0.0134349
0.0133462
0.0132663
0.0131961
0.0131364
0.013088
0.0130518
0.0130292
0.0130207
0.000805565
0.000751189
0.000693462
0.000629801
0.000557977
0.000478883
0.000393459
0.000302445
0.000206611
0.000106757
3.69014e-06
-0.000101771
-0.000208845
-0.000316736
-0.000424677
-0.000531932
-0.000637789
-0.000741561
-0.000842602
-0.000940298
-0.00103407
-0.00112337
-0.00120771
-0.0012866
-0.00135961
-0.00142634
-0.00148642
-0.00153952
-0.00158534
-0.00162358
-0.00165401
-0.0016764
-0.00169057
-0.00169633
-0.00169353
-0.00168205
-0.00166178
-0.00163262
-0.00159451
-0.00154738
-0.00149122
-0.001426
-0.00135169
-0.00126832
-0.0011759
-0.00107445
-0.000964033
-0.000844688
-0.000716493
-0.000579533
-0.000433895
-0.000279674
-0.000116982
5.40575e-05
0.000233313
0.000420646
0.000615908
0.000818937
0.00102955
0.00124755
0.00147277
0.00170499
0.00194399
0.00218955
0.00244143
0.00269938
0.00296316
0.00323249
0.00350709
0.00378667
0.00407093
0.00435957
0.00465226
0.00494868
0.00524848
0.00555131
0.00585683
0.00616466
0.0064744
0.00678567
0.00709807
0.00741122
0.00772471
0.00803811
0.00835099
0.00866293
0.00897349
0.00928224
0.00958874
0.00989255
0.0101932
0.0104903
0.0107833
0.0110719
0.0113556
0.0116339
0.0119064
0.0121728
0.0124325
0.0126851
0.0129304
0.0131678
0.013397
0.0136177
0.0138294
0.014032
0.014225
0.0144082
0.0145812
0.0147439
0.0148961
0.0150374
0.0151678
0.0152871
0.0153951
0.0154918
0.0155771
0.0156509
0.0157133
0.0157643
0.015804
0.0158324
0.0158496
0.0158559
0.0158514
0.0158364
0.0158111
0.0157758
0.0157309
0.0156768
0.0156139
0.0155425
0.0154633
0.0153767
0.0152833
0.0151836
0.0150783
0.0149681
0.0148536
0.0147355
0.0146146
0.0144917
0.0143674
0.0142428
0.0141185
0.0139954
0.0138744
0.0137563
0.013642
0.0135323
0.0134281
0.0133303
0.0132395
0.0131567
0.0130826
0.013018
0.0129636
0.0129203
0.0128883
0.0128672
0.000976081
0.000905624
0.000835696
0.000762582
0.000682703
0.000596889
0.000506038
0.000410764
0.000311717
0.00020959
0.000105094
-1.06389e-06
-0.000108177
-0.000215543
-0.000322473
-0.00042831
-0.000532406
-0.000634143
-0.000732935
-0.000828222
-0.000919469
-0.00100617
-0.00108788
-0.00116415
-0.00123458
-0.00129879
-0.00135645
-0.00140723
-0.00145086
-0.00148706
-0.00151561
-0.0015363
-0.00154895
-0.00155339
-0.00154947
-0.00153709
-0.00151613
-0.0014865
-0.00144814
-0.001401
-0.00134505
-0.00128026
-0.00120662
-0.00112414
-0.00103283
-0.00093273
-0.000823866
-0.000706301
-0.000580106
-0.000445356
-0.000302134
-0.000150532
9.3396e-06
0.000177362
0.000353412
0.000537365
0.000729064
0.00092835
0.00113505
0.00134899
0.00156998
0.00179783
0.00203231
0.00227322
0.00252033
0.00277339
0.00303215
0.00329636
0.00356573
0.00384
0.00411886
0.00440202
0.00468916
0.00497997
0.0052741
0.00557123
0.00587101
0.00617306
0.006477
0.00678246
0.00708905
0.0073964
0.0077041
0.00801172
0.00831886
0.00862509
0.00893
0.00923315
0.00953412
0.00983247
0.0101277
0.0104195
0.0107074
0.0109909
0.0112696
0.011543
0.0118109
0.0120726
0.0123279
0.0125763
0.0128174
0.0130509
0.0132763
0.0134934
0.0137017
0.013901
0.014091
0.0142714
0.0144418
0.0146021
0.014752
0.0148914
0.01502
0.0151377
0.0152445
0.0153401
0.0154245
0.0154978
0.0155598
0.0156106
0.0156503
0.015679
0.0156968
0.0157038
0.0157002
0.0156863
0.0156623
0.0156286
0.0155854
0.0155331
0.0154721
0.0154029
0.0153259
0.0152417
0.0151507
0.0150535
0.0149508
0.0148431
0.0147311
0.0146155
0.0144969
0.0143762
0.014254
0.0141312
0.0140084
0.0138865
0.0137664
0.0136487
0.0135342
0.0134239
0.0133184
0.0132184
0.0131249
0.0130384
0.0129597
0.0128894
0.0128284
0.0127772
0.0127352
0.0127007
0.0011538
0.00106703
0.000984541
0.000901522
0.000813057
0.000719932
0.00062301
0.000522798
0.000419837
0.000314727
0.000208071
0.000100499
-7.36907e-06
-0.000114919
-0.000221536
-0.000326627
-0.000429614
-0.000529946
-0.00062709
-0.000720534
-0.000809796
-0.000894421
-0.000973983
-0.00104809
-0.00111635
-0.00117843
-0.00123402
-0.00128282
-0.00132456
-0.001359
-0.00138593
-0.00140514
-0.00141647
-0.00141977
-0.0014149
-0.00140174
-0.00138021
-0.00135021
-0.00131168
-0.00126459
-0.0012089
-0.00114457
-0.00107161
-0.000990015
-0.000899809
-0.000801009
-0.000693657
-0.000577816
-0.00045355
-0.000320925
-0.000180019
-3.09315e-05
0.000126235
0.000291376
0.000464371
0.000645092
0.000833391
0.00102911
0.00123209
0.00144216
0.00165914
0.00188283
0.00211303
0.00234953
0.00259211
0.00284053
0.00309455
0.00335391
0.00361836
0.00388761
0.00416138
0.00443938
0.0047213
0.00500683
0.00529565
0.00558744
0.00588183
0.00617847
0.00647699
0.00677702
0.0070782
0.00738014
0.00768245
0.00798471
0.0082865
0.00858745
0.00888712
0.0091851
0.00948095
0.00977425
0.0100646
0.0103515
0.0106346
0.0109134
0.0111875
0.0114566
0.0117201
0.0119776
0.0122289
0.0124733
0.0127107
0.0129405
0.0131625
0.0133763
0.0135816
0.013778
0.0139652
0.014143
0.014311
0.0144691
0.0146171
0.0147547
0.0148817
0.014998
0.0151035
0.0151982
0.0152818
0.0153545
0.0154161
0.0154667
0.0155064
0.0155353
0.0155534
0.015561
0.0155582
0.0155452
0.0155223
0.0154897
0.0154479
0.0153971
0.0153378
0.0152703
0.0151951
0.0151128
0.0150237
0.0149285
0.0148277
0.014722
0.0146119
0.014498
0.0143812
0.0142619
0.0141411
0.0140193
0.0138973
0.0137759
0.0136558
0.0135377
0.0134224
0.0133106
0.013203
0.0131003
0.0130032
0.0129123
0.0128283
0.0127518
0.0126834
0.0126239
0.0125713
0.0125231
0.00133687
0.00123369
0.00113841
0.00104515
0.000947686
0.000846764
0.00074324
0.00063752
0.000530043
0.000421319
0.00031187
0.00020224
9.29717e-05
-1.53998e-05
-0.000122329
-0.000227289
-0.000329769
-0.000429271
-0.000525317
-0.000617448
-0.000705232
-0.000788253
-0.000866121
-0.000938479
-0.00100498
-0.00106531
-0.00111917
-0.0011663
-0.00120645
-0.00123939
-0.00126493
-0.00128289
-0.00129311
-0.00129544
-0.00128976
-0.00127597
-0.00125398
-0.0012237
-0.0011851
-0.00113812
-0.00108272
-0.00101889
-0.000946618
-0.000865912
-0.000776784
-0.00067926
-0.000573385
-0.000459214
-0.000336802
-0.000206221
-6.75442e-05
7.9134e-05
0.000233715
0.000396103
0.000566181
0.00074382
0.000928878
0.0011212
0.00132064
0.00152704
0.00174021
0.00195996
0.00218609
0.00241842
0.00265671
0.00290075
0.0031503
0.00340509
0.00366488
0.00392941
0.0041984
0.00447155
0.00474857
0.00502916
0.00531301
0.00559979
0.00588916
0.00618075
0.00647421
0.0067692
0.00706535
0.00736227
0.00765957
0.00795686
0.00825373
0.00854979
0.00884463
0.00913784
0.00942899
0.00971765
0.0100034
0.0102859
0.0105646
0.0108392
0.0111091
0.0113741
0.0116337
0.0118874
0.012135
0.0123759
0.0126099
0.0128365
0.0130554
0.0132662
0.0134687
0.0136624
0.0138472
0.0140226
0.0141885
0.0143447
0.0144908
0.0146268
0.0147524
0.0148674
0.0149719
0.0150656
0.0151485
0.0152206
0.0152818
0.0153323
0.0153719
0.0154009
0.0154193
0.0154273
0.015425
0.0154127
0.0153907
0.0153591
0.0153183
0.0152687
0.0152107
0.0151445
0.0150707
0.0149898
0.0149022
0.0148084
0.0147091
0.0146047
0.0144959
0.0143832
0.0142674
0.014149
0.0140288
0.0139074
0.0137855
0.0136639
0.0135431
0.0134239
0.013307
0.013193
0.0130827
0.0129765
0.0128752
0.0127794
0.0126896
0.0126062
0.01253
0.0124617
0.0123982
0.012336
0.00152358
0.00140401
0.00129582
0.00119208
0.00108529
0.000976192
0.000865626
0.000753914
0.000641405
0.000528529
0.000415733
0.000303478
0.000192234
8.24704e-05
-2.53362e-05
-0.000130725
-0.000233242
-0.000332443
-0.000427901
-0.000519212
-0.000605985
-0.000687846
-0.000764446
-0.000835457
-0.000900567
-0.000959488
-0.00101195
-0.00105771
-0.00109654
-0.00112825
-0.00115264
-0.00116955
-0.00117884
-0.00118038
-0.00117405
-0.00115976
-0.00113742
-0.00110697
-0.00106836
-0.00102155
-0.000966499
-0.000903191
-0.000831628
-0.000751809
-0.000663749
-0.000567477
-0.000463039
-0.000350486
-0.000229866
-0.000101249
3.52855e-05
0.000179653
0.000331764
0.000491525
0.000658821
0.000833522
0.00101549
0.00120459
0.00140068
0.00160358
0.00181313
0.00202915
0.00225145
0.00247983
0.00271408
0.00295398
0.0031993
0.0034498
0.00370523
0.00396532
0.00422982
0.00449842
0.00477086
0.00504684
0.00532605
0.00560816
0.00589284
0.00617973
0.00646851
0.00675883
0.00705031
0.00734259
0.00763527
0.00792797
0.0082203
0.00851188
0.00880229
0.00909113
0.00937797
0.00966241
0.00994404
0.0102224
0.0104972
0.0107679
0.0110341
0.0112954
0.0115514
0.0118017
0.012046
0.0122837
0.0125146
0.0127383
0.0129544
0.0131626
0.0133626
0.013554
0.0137365
0.0139099
0.014074
0.0142283
0.0143729
0.0145074
0.0146317
0.0147456
0.0148491
0.014942
0.0150242
0.0150958
0.0151567
0.0152068
0.0152464
0.0152754
0.015294
0.0153023
0.0153004
0.0152886
0.0152672
0.0152363
0.0151964
0.0151477
0.0150905
0.0150253
0.0149525
0.0148726
0.014786
0.0146932
0.0145948
0.0144912
0.0143831
0.0142711
0.0141557
0.0140376
0.0139174
0.0137958
0.0136734
0.0135508
0.0134287
0.0133077
0.0131886
0.0130718
0.0129581
0.0128479
0.0127419
0.0126405
0.0125443
0.0124536
0.0123693
0.0122918
0.0122171
0.0121409
0.0017124
0.00157654
0.00145539
0.00134101
0.00122467
0.00110708
0.000989118
0.000871011
0.000753029
0.000635537
0.000518904
0.000403522
0.000289798
0.000178137
6.89429e-05
-3.73781e-05
-0.000140424
-0.000239805
-0.000335148
-0.00042609
-0.000512285
-0.000593402
-0.000669128
-0.000739167
-0.000803237
-0.000861077
-0.000912449
-0.000957127
-0.000994912
-0.00102562
-0.00104908
-0.00106515
-0.0010737
-0.00107461
-0.00106777
-0.00105311
-0.00103054
-0.00100002
-0.000961481
-0.000914894
-0.000860233
-0.000797486
-0.000726646
-0.000647713
-0.00056071
-0.000465673
-0.000362636
-0.000251645
-0.000132754
-6.03354e-06
0.000128442
0.000270599
0.000420354
0.000577608
0.000742246
0.00091415
0.00109319
0.00127923
0.00147213
0.00167172
0.00187785
0.00209034
0.00230901
0.00253367
0.00276411
0.00300012
0.00324148
0.00348794
0.00373927
0.00399522
0.00425551
0.00451987
0.00478804
0.00505972
0.00533461
0.00561238
0.00589271
0.00617526
0.0064597
0.00674571
0.00703289
0.00732089
0.00760933
0.00789783
0.00818601
0.00847349
0.00875986
0.00904471
0.00932764
0.00960825
0.00988612
0.0101608
0.010432
0.0106992
0.010962
0.0112201
0.0114729
0.0117202
0.0119615
0.0121964
0.0124246
0.0126457
0.0128593
0.0130652
0.013263
0.0134523
0.0136329
0.0138045
0.0139669
0.0141197
0.0142629
0.0143961
0.0145193
0.0146322
0.0147348
0.014827
0.0149086
0.0149797
0.0150402
0.0150901
0.0151296
0.0151586
0.0151772
0.0151857
0.0151841
0.0151727
0.0151516
0.0151213
0.0150819
0.0150337
0.0149772
0.0149126
0.0148404
0.0147611
0.0146751
0.0145828
0.0144848
0.0143816
0.0142738
0.0141618
0.0140463
0.0139279
0.0138072
0.0136847
0.0135611
0.013437
0.013313
0.0131897
0.0130677
0.0129476
0.0128299
0.0127151
0.0126038
0.0124965
0.0123934
0.0122951
0.0122022
0.0121154
0.0120294
0.0119389
0.00190193
0.00174992
0.00161584
0.00149073
0.00136465
0.00123835
0.0011127
0.000987864
0.000864049
0.000741539
0.000620647
0.000501702
0.000385047
0.000271028
0.000159991
5.22907e-05
-5.17294e-05
-0.000151731
-0.000247387
-0.000338376
-0.000424393
-0.000505153
-0.00058037
-0.000649783
-0.00071314
-0.000770209
-0.000820778
-0.000864646
-0.000901634
-0.000931577
-0.000954322
-0.000969748
-0.000977735
-0.000978169
-0.000970966
-0.000956055
-0.000933373
-0.000902859
-0.000864467
-0.000818173
-0.000763956
-0.000701796
-0.00063169
-0.000553652
-0.000467703
-0.000373876
-0.000272201
-0.000162726
-4.55102e-05
7.93826e-05
0.000211888
0.000351932
0.000499434
0.000654296
0.000816404
0.000985648
0.0011619
0.00134504
0.00153492
0.00173139
0.00193429
0.00214345
0.00235871
0.00257986
0.00280672
0.00303907
0.00327671
0.00351939
0.00376689
0.00401896
0.00427533
0.00453575
0.00479995
0.00506764
0.00533852
0.00561228
0.00588859
0.00616714
0.0064476
0.00672963
0.00701287
0.00729696
0.00758152
0.0078662
0.0081506
0.00843435
0.00871706
0.00899831
0.00927772
0.00955488
0.00982939
0.0101008
0.0103688
0.0106329
0.0108927
0.0111478
0.0113979
0.0116424
0.0118811
0.0121136
0.0123394
0.0125583
0.0127698
0.0129736
0.0131694
0.013357
0.0135359
0.013706
0.0138669
0.0140185
0.0141604
0.0142926
0.0144148
0.0145269
0.0146287
0.0147203
0.0148013
0.014872
0.0149321
0.0149818
0.0150211
0.01505