/*--------------------------------*- C++ -*----------------------------------*\
  =========                 |
  \\      /  F ield         | OpenFOAM: The Open Source CFD Toolbox
   \\    /   O peration     | Website:  https://openfoam.org
    \\  /    A nd           | Version:  7
     \\/     M anipulation  |
\*---------------------------------------------------------------------------*/
FoamFile
{
    version     2.0;
    format      ascii;
    class       volVectorField;
    location    "0.25";
    object      U;
}
// * * * * * * * * * * * * * * * * * * * * * * * * * * * * * * * * * * * * * //

dimensions      [0 1 -1 0 0 0 0];

internalField   nonuniform List<vector> 
25600
(
(9.47775e-07 -8.91975e-07 0)
(3.24135e-06 -1.40529e-06 0)
(5.52547e-06 -1.11946e-06 0)
(6.23206e-06 -4.4443e-07 0)
(4.71115e-06 3.65779e-07 0)
(7.70618e-07 1.18696e-06 0)
(-5.55506e-06 1.95739e-06 0)
(-1.41511e-05 2.65808e-06 0)
(-2.48592e-05 3.29051e-06 0)
(-3.75002e-05 3.85795e-06 0)
(-5.18898e-05 4.36202e-06 0)
(-6.78492e-05 4.8057e-06 0)
(-8.52064e-05 5.19363e-06 0)
(-0.000103799 5.53142e-06 0)
(-0.000123478 5.82435e-06 0)
(-0.000144104 6.0758e-06 0)
(-0.000165549 6.28878e-06 0)
(-0.000187695 6.46799e-06 0)
(-0.00021044 6.61853e-06 0)
(-0.000233686 6.74337e-06 0)
(-0.000257348 6.84428e-06 0)
(-0.000281349 6.92363e-06 0)
(-0.000305621 6.98423e-06 0)
(-0.000330101 7.02876e-06 0)
(-0.000354738 7.05969e-06 0)
(-0.000379484 7.07874e-06 0)
(-0.000404296 7.08712e-06 0)
(-0.000429139 7.08624e-06 0)
(-0.000453981 7.07749e-06 0)
(-0.000478793 7.06185e-06 0)
(-0.000503553 7.0402e-06 0)
(-0.000528238 7.01359e-06 0)
(-0.000552831 6.98294e-06 0)
(-0.000577315 6.94871e-06 0)
(-0.000601676 6.91107e-06 0)
(-0.000625902 6.87023e-06 0)
(-0.00064998 6.82664e-06 0)
(-0.000673901 6.78079e-06 0)
(-0.000697656 6.73284e-06 0)
(-0.000721234 6.68261e-06 0)
(-0.000744627 6.63001e-06 0)
(-0.000767827 6.57526e-06 0)
(-0.000790825 6.5186e-06 0)
(-0.000813612 6.45993e-06 0)
(-0.000836181 6.39885e-06 0)
(-0.000858522 6.33502e-06 0)
(-0.000880626 6.26851e-06 0)
(-0.000902484 6.19964e-06 0)
(-0.000924086 6.12849e-06 0)
(-0.000945422 6.05462e-06 0)
(-0.000966483 5.97749e-06 0)
(-0.000987256 5.89687e-06 0)
(-0.00100773 5.81292e-06 0)
(-0.0010279 5.72578e-06 0)
(-0.00104774 5.6353e-06 0)
(-0.00106725 5.54121e-06 0)
(-0.00108641 5.44337e-06 0)
(-0.00110521 5.34166e-06 0)
(-0.00112364 5.23587e-06 0)
(-0.00114167 5.12571e-06 0)
(-0.00115931 5.0111e-06 0)
(-0.00117653 4.89225e-06 0)
(-0.00119331 4.76932e-06 0)
(-0.00120965 4.64207e-06 0)
(-0.00122552 4.51002e-06 0)
(-0.00124092 4.37286e-06 0)
(-0.00125581 4.23072e-06 0)
(-0.0012702 4.08384e-06 0)
(-0.00128406 3.93221e-06 0)
(-0.00129737 3.77561e-06 0)
(-0.00131012 3.61387e-06 0)
(-0.00132228 3.44704e-06 0)
(-0.00133385 3.2752e-06 0)
(-0.00134481 3.09819e-06 0)
(-0.00135513 2.91579e-06 0)
(-0.00136481 2.72804e-06 0)
(-0.00137382 2.53525e-06 0)
(-0.00138214 2.33764e-06 0)
(-0.00138976 2.13508e-06 0)
(-0.00139667 1.9273e-06 0)
(-0.00140284 1.71424e-06 0)
(-0.00140826 1.49621e-06 0)
(-0.00141291 1.27352e-06 0)
(-0.00141677 1.04625e-06 0)
(-0.00141984 8.14341e-07 0)
(-0.00142209 5.77821e-07 0)
(-0.00142352 3.36927e-07 0)
(-0.0014241 9.1891e-08 0)
(-0.00142382 -1.57175e-07 0)
(-0.00142267 -4.10158e-07 0)
(-0.00142064 -6.66777e-07 0)
(-0.00141772 -9.26643e-07 0)
(-0.00141389 -1.1895e-06 0)
(-0.00140915 -1.4553e-06 0)
(-0.00140349 -1.72397e-06 0)
(-0.00139689 -1.9951e-06 0)
(-0.00138935 -2.26814e-06 0)
(-0.00138087 -2.54267e-06 0)
(-0.00137144 -2.81856e-06 0)
(-0.00136106 -3.09566e-06 0)
(-0.00134971 -3.37365e-06 0)
(-0.00133741 -3.65199e-06 0)
(-0.00132416 -3.93016e-06 0)
(-0.00130994 -4.20783e-06 0)
(-0.00129477 -4.48468e-06 0)
(-0.00127865 -4.76031e-06 0)
(-0.00126158 -5.03424e-06 0)
(-0.00124357 -5.30605e-06 0)
(-0.00122464 -5.57533e-06 0)
(-0.00120478 -5.84158e-06 0)
(-0.00118401 -6.10423e-06 0)
(-0.00116234 -6.36277e-06 0)
(-0.00113979 -6.61676e-06 0)
(-0.00111638 -6.86581e-06 0)
(-0.00109211 -7.10937e-06 0)
(-0.00106702 -7.34677e-06 0)
(-0.00104113 -7.57735e-06 0)
(-0.00101445 -7.80058e-06 0)
(-0.000987021 -8.01592e-06 0)
(-0.000958863 -8.2227e-06 0)
(-0.00093001 -8.4202e-06 0)
(-0.000900495 -8.60769e-06 0)
(-0.000870353 -8.78446e-06 0)
(-0.000839623 -8.94971e-06 0)
(-0.000808345 -9.10254e-06 0)
(-0.000776565 -9.24206e-06 0)
(-0.00074433 -9.36739e-06 0)
(-0.000711691 -9.47761e-06 0)
(-0.000678702 -9.57157e-06 0)
(-0.000645421 -9.64806e-06 0)
(-0.000611911 -9.70591e-06 0)
(-0.000578238 -9.74401e-06 0)
(-0.000544472 -9.76112e-06 0)
(-0.00051069 -9.75566e-06 0)
(-0.000476972 -9.72592e-06 0)
(-0.000443404 -9.67028e-06 0)
(-0.000410076 -9.58731e-06 0)
(-0.000377087 -9.47542e-06 0)
(-0.000344539 -9.33267e-06 0)
(-0.000312542 -9.15682e-06 0)
(-0.000281211 -8.94565e-06 0)
(-0.000250669 -8.69708e-06 0)
(-0.000221047 -8.40892e-06 0)
(-0.000192481 -8.07865e-06 0)
(-0.000165116 -7.70348e-06 0)
(-0.000139103 -7.28057e-06 0)
(-0.000114604 -6.80703e-06 0)
(-9.17831e-05 -6.27978e-06 0)
(-7.08157e-05 -5.69549e-06 0)
(-5.18808e-05 -5.0508e-06 0)
(-3.51615e-05 -4.34265e-06 0)
(-2.08409e-05 -3.56891e-06 0)
(-9.09603e-06 -2.72955e-06 0)
(-8.6511e-08 -1.82881e-06 0)
(6.06498e-06 -8.79564e-07 0)
(9.30921e-06 8.69737e-08 0)
(9.72784e-06 9.98979e-07 0)
(7.66109e-06 1.70652e-06 0)
(4.09262e-06 1.89706e-06 0)
(1.05853e-06 1.0574e-06 0)
(1.482e-06 -3.25138e-06 0)
(4.38858e-06 -4.30473e-06 0)
(5.73165e-06 -2.21997e-06 0)
(3.05503e-06 1.4789e-06 0)
(-4.95473e-06 5.87437e-06 0)
(-1.88117e-05 1.046e-05 0)
(-3.86049e-05 1.4947e-05 0)
(-6.41878e-05 1.91873e-05 0)
(-9.52698e-05 2.31166e-05 0)
(-0.000131475 2.67109e-05 0)
(-0.000172387 2.9963e-05 0)
(-0.000217578 3.28792e-05 0)
(-0.000266623 3.54737e-05 0)
(-0.000319113 3.77653e-05 0)
(-0.000374658 3.97756e-05 0)
(-0.00043289 4.1526e-05 0)
(-0.000493469 4.30371e-05 0)
(-0.000556077 4.43297e-05 0)
(-0.000620426 4.54246e-05 0)
(-0.000686252 4.63413e-05 0)
(-0.000753315 4.70977e-05 0)
(-0.000821397 4.77101e-05 0)
(-0.000890304 4.81939e-05 0)
(-0.000959863 4.85638e-05 0)
(-0.00102992 4.88332e-05 0)
(-0.00110033 4.90142e-05 0)
(-0.00117097 4.91174e-05 0)
(-0.00124175 4.91525e-05 0)
(-0.00131255 4.9128e-05 0)
(-0.0013833 4.90513e-05 0)
(-0.00145393 4.89291e-05 0)
(-0.00152437 4.87672e-05 0)
(-0.00159457 4.85707e-05 0)
(-0.00166446 4.83437e-05 0)
(-0.00173402 4.80895e-05 0)
(-0.00180319 4.78108e-05 0)
(-0.00187195 4.75099e-05 0)
(-0.00194026 4.71887e-05 0)
(-0.00200809 4.68485e-05 0)
(-0.0020754 4.64903e-05 0)
(-0.00214218 4.61145e-05 0)
(-0.0022084 4.57217e-05 0)
(-0.00227403 4.53118e-05 0)
(-0.00233904 4.4885e-05 0)
(-0.00240341 4.44408e-05 0)
(-0.00246711 4.39787e-05 0)
(-0.00253011 4.34982e-05 0)
(-0.0025924 4.29987e-05 0)
(-0.00265393 4.24799e-05 0)
(-0.00271468 4.19408e-05 0)
(-0.00277462 4.13806e-05 0)
(-0.00283372 4.07983e-05 0)
(-0.00289195 4.01933e-05 0)
(-0.00294927 3.9565e-05 0)
(-0.00300565 3.89125e-05 0)
(-0.00306105 3.8235e-05 0)
(-0.00311544 3.75315e-05 0)
(-0.00316878 3.68014e-05 0)
(-0.00322104 3.60441e-05 0)
(-0.00327216 3.52587e-05 0)
(-0.00332211 3.44444e-05 0)
(-0.00337086 3.36005e-05 0)
(-0.00341835 3.27268e-05 0)
(-0.00346455 3.18226e-05 0)
(-0.00350941 3.08873e-05 0)
(-0.00355288 2.99201e-05 0)
(-0.00359493 2.89204e-05 0)
(-0.0036355 2.78882e-05 0)
(-0.00367455 2.68231e-05 0)
(-0.00371204 2.57247e-05 0)
(-0.00374791 2.45926e-05 0)
(-0.00378212 2.34267e-05 0)
(-0.00381461 2.22268e-05 0)
(-0.00384536 2.09928e-05 0)
(-0.00387429 1.97246e-05 0)
(-0.00390138 1.8422e-05 0)
(-0.00392656 1.70854e-05 0)
(-0.00394979 1.57152e-05 0)
(-0.00397103 1.43117e-05 0)
(-0.00399022 1.2875e-05 0)
(-0.00400733 1.14053e-05 0)
(-0.0040223 9.90322e-06 0)
(-0.0040351 8.36955e-06 0)
(-0.00404567 6.80503e-06 0)
(-0.00405397 5.21037e-06 0)
(-0.00405997 3.58633e-06 0)
(-0.00406363 1.93392e-06 0)
(-0.0040649 2.54307e-07 0)
(-0.00406375 -1.45131e-06 0)
(-0.00406014 -3.18171e-06 0)
(-0.00405403 -4.93554e-06 0)
(-0.00404541 -6.71123e-06 0)
(-0.00403424 -8.50706e-06 0)
(-0.00402049 -1.03214e-05 0)
(-0.00400413 -1.21527e-05 0)
(-0.00398515 -1.39991e-05 0)
(-0.00396353 -1.58584e-05 0)
(-0.00393925 -1.77285e-05 0)
(-0.00391229 -1.96071e-05 0)
(-0.00388266 -2.14923e-05 0)
(-0.00385033 -2.33817e-05 0)
(-0.0038153 -2.52729e-05 0)
(-0.00377759 -2.71632e-05 0)
(-0.00373718 -2.905e-05 0)
(-0.00369409 -3.09306e-05 0)
(-0.00364833 -3.28024e-05 0)
(-0.00359991 -3.46624e-05 0)
(-0.00354885 -3.65076e-05 0)
(-0.00349518 -3.83351e-05 0)
(-0.00343892 -4.01418e-05 0)
(-0.00338011 -4.19244e-05 0)
(-0.00331877 -4.36796e-05 0)
(-0.00325496 -4.54039e-05 0)
(-0.00318872 -4.70941e-05 0)
(-0.0031201 -4.87463e-05 0)
(-0.00304916 -5.03569e-05 0)
(-0.00297595 -5.19218e-05 0)
(-0.00290056 -5.3437e-05 0)
(-0.00282304 -5.48981e-05 0)
(-0.00274349 -5.63009e-05 0)
(-0.00266198 -5.76405e-05 0)
(-0.00257862 -5.8912e-05 0)
(-0.0024935 -6.01102e-05 0)
(-0.00240673 -6.12296e-05 0)
(-0.00231842 -6.22646e-05 0)
(-0.00222871 -6.32089e-05 0)
(-0.00213773 -6.4056e-05 0)
(-0.00204561 -6.47993e-05 0)
(-0.00195252 -6.54314e-05 0)
(-0.00185862 -6.59446e-05 0)
(-0.00176407 -6.63306e-05 0)
(-0.00166908 -6.6581e-05 0)
(-0.00157384 -6.66868e-05 0)
(-0.00147856 -6.66385e-05 0)
(-0.00138348 -6.64258e-05 0)
(-0.00128882 -6.60381e-05 0)
(-0.00119485 -6.54645e-05 0)
(-0.00110185 -6.46933e-05 0)
(-0.00101009 -6.37128e-05 0)
(-0.000919884 -6.25102e-05 0)
(-0.000831557 -6.10722e-05 0)
(-0.000745447 -5.93855e-05 0)
(-0.000661912 -5.74363e-05 0)
(-0.000581329 -5.52106e-05 0)
(-0.000504091 -5.26939e-05 0)
(-0.00043061 -4.98722e-05 0)
(-0.000361312 -4.67317e-05 0)
(-0.000296637 -4.32598e-05 0)
(-0.000237035 -3.94462e-05 0)
(-0.000182959 -3.5284e-05 0)
(-0.000134858 -3.07724e-05 0)
(-9.31613e-05 -2.59218e-05 0)
(-5.82562e-05 -2.07607e-05 0)
(-3.04545e-05 -1.53493e-05 0)
(-9.93734e-06 -9.8019e-06 0)
(3.32792e-06 -4.32653e-06 0)
(9.7062e-06 7.04362e-07 0)
(1.0083e-05 4.64118e-06 0)
(6.3509e-06 6.36201e-06 0)
(1.89313e-06 4.0852e-06 0)
(1.14475e-06 -5.55087e-06 0)
(2.2544e-06 -5.68886e-06 0)
(-4.72153e-07 5.03976e-07 0)
(-9.5585e-06 1.01442e-05 0)
(-2.64624e-05 2.14768e-05 0)
(-5.18804e-05 3.34068e-05 0)
(-8.59975e-05 4.52563e-05 0)
(-0.000128677 5.66275e-05 0)
(-0.000179574 6.73015e-05 0)
(-0.000238204 7.71678e-05 0)
(-0.000304008 8.6179e-05 0)
(-0.000376389 9.4329e-05 0)
(-0.000454743 0.000101637 0)
(-0.000538472 0.000108139 0)
(-0.000627001 0.00011388 0)
(-0.000719782 0.000118911 0)
(-0.000816296 0.000123282 0)
(-0.000916061 0.000127046 0)
(-0.00101863 0.000130255 0)
(-0.0011236 0.00013296 0)
(-0.00123058 0.000135208 0)
(-0.00133925 0.000137045 0)
(-0.00144928 0.000138513 0)
(-0.0015604 0.000139651 0)
(-0.00167237 0.000140496 0)
(-0.00178496 0.000141082 0)
(-0.00189796 0.000141438 0)
(-0.00201121 0.000141591 0)
(-0.00212455 0.000141567 0)
(-0.00223784 0.000141387 0)
(-0.00235096 0.000141069 0)
(-0.0024638 0.000140631 0)
(-0.00257626 0.000140086 0)
(-0.00268826 0.000139447 0)
(-0.00279972 0.000138724 0)
(-0.00291058 0.000137926 0)
(-0.00302077 0.000137058 0)
(-0.00313023 0.000136128 0)
(-0.00323892 0.000135138 0)
(-0.00334679 0.000134092 0)
(-0.00345378 0.000132993 0)
(-0.00355985 0.000131841 0)
(-0.00366496 0.000130637 0)
(-0.00376907 0.000129382 0)
(-0.00387212 0.000128075 0)
(-0.00397408 0.000126714 0)
(-0.00407491 0.0001253 0)
(-0.00417455 0.000123829 0)
(-0.00427297 0.000122301 0)
(-0.0043701 0.000120714 0)
(-0.00446592 0.000119065 0)
(-0.00456035 0.000117353 0)
(-0.00465336 0.000115576 0)
(-0.00474489 0.000113731 0)
(-0.00483489 0.000111817 0)
(-0.00492329 0.000109831 0)
(-0.00501004 0.000107771 0)
(-0.00509509 0.000105634 0)
(-0.00517836 0.00010342 0)
(-0.0052598 0.000101126 0)
(-0.00533935 9.87502e-05 0)
(-0.00541693 9.62907e-05 0)
(-0.00549249 9.37458e-05 0)
(-0.00556595 9.1114e-05 0)
(-0.00563724 8.8394e-05 0)
(-0.0057063 8.55842e-05 0)
(-0.00577306 8.26832e-05 0)
(-0.00583744 7.969e-05 0)
(-0.00589937 7.66036e-05 0)
(-0.00595877 7.34231e-05 0)
(-0.00601558 7.01478e-05 0)
(-0.00606971 6.67769e-05 0)
(-0.00612111 6.33104e-05 0)
(-0.00616968 5.97479e-05 0)
(-0.00621535 5.60894e-05 0)
(-0.00625806 5.2335e-05 0)
(-0.00629772 4.84849e-05 0)
(-0.00633426 4.454e-05 0)
(-0.00636761 4.05012e-05 0)
(-0.0063977 3.63694e-05 0)
(-0.00642445 3.21457e-05 0)
(-0.00644779 2.78316e-05 0)
(-0.00646766 2.34289e-05 0)
(-0.00648399 1.89397e-05 0)
(-0.0064967 1.43662e-05 0)
(-0.00650574 9.71093e-06 0)
(-0.00651105 4.97664e-06 0)
(-0.00651256 1.66509e-07 0)
(-0.00651022 -4.71605e-06 0)
(-0.00650397 -9.66745e-06 0)
(-0.00649377 -1.46838e-05 0)
(-0.00647956 -1.9761e-05 0)
(-0.00646129 -2.48944e-05 0)
(-0.00643894 -3.00791e-05 0)
(-0.00641246 -3.53103e-05 0)
(-0.00638181 -4.05827e-05 0)
(-0.00634697 -4.58908e-05 0)
(-0.00630792 -5.12285e-05 0)
(-0.00626463 -5.65899e-05 0)
(-0.00621708 -6.19684e-05 0)
(-0.00616528 -6.73578e-05 0)
(-0.00610921 -7.2751e-05 0)
(-0.00604888 -7.81409e-05 0)
(-0.00598428 -8.35202e-05 0)
(-0.00591544 -8.88812e-05 0)
(-0.00584238 -9.42162e-05 0)
(-0.0057651 -9.95172e-05 0)
(-0.00568366 -0.000104776 0)
(-0.00559807 -0.000109983 0)
(-0.0055084 -0.000115131 0)
(-0.00541468 -0.00012021 0)
(-0.00531699 -0.000125211 0)
(-0.00521537 -0.000130124 0)
(-0.00510991 -0.000134939 0)
(-0.00500069 -0.000139646 0)
(-0.0048878 -0.000144233 0)
(-0.00477134 -0.000148691 0)
(-0.00465141 -0.000153007 0)
(-0.00452814 -0.000157168 0)
(-0.00440164 -0.000161163 0)
(-0.00427206 -0.000164977 0)
(-0.00413955 -0.000168597 0)
(-0.00400426 -0.000172007 0)
(-0.00386637 -0.000175193 0)
(-0.00372606 -0.000178136 0)
(-0.00358353 -0.000180821 0)
(-0.003439 -0.000183228 0)
(-0.00329268 -0.000185338 0)
(-0.00314483 -0.000187129 0)
(-0.00299571 -0.000188581 0)
(-0.00284558 -0.000189669 0)
(-0.00269476 -0.00019037 0)
(-0.00254355 -0.000190658 0)
(-0.0023923 -0.000190505 0)
(-0.00224136 -0.000189884 0)
(-0.00209112 -0.000188765 0)
(-0.00194197 -0.000187116 0)
(-0.00179434 -0.000184907 0)
(-0.0016487 -0.000182102 0)
(-0.00150551 -0.00017867 0)
(-0.00136529 -0.000174573 0)
(-0.00122856 -0.000169776 0)
(-0.00109588 -0.000164244 0)
(-0.000967827 -0.00015794 0)
(-0.000845009 -0.000150828 0)
(-0.000728052 -0.000142876 0)
(-0.0006176 -0.000134055 0)
(-0.000514312 -0.000124338 0)
(-0.000418852 -0.000113712 0)
(-0.000331877 -0.000102177 0)
(-0.000254024 -8.97526e-05 0)
(-0.000185884 -7.64972e-05 0)
(-0.000127966 -6.25227e-05 0)
(-8.06501e-05 -4.80278e-05 0)
(-4.41126e-05 -3.33479e-05 0)
(-1.82261e-05 -1.9033e-05 0)
(-2.42697e-06 -5.96957e-06 0)
(4.4614e-06 4.45054e-06 0)
(4.62982e-06 1.00926e-05 0)
(1.69681e-06 7.63849e-06 0)
(4.60875e-07 -6.29999e-06 0)
(-1.46405e-06 -3.03404e-06 0)
(-1.0159e-05 9.58736e-06 0)
(-2.75831e-05 2.75324e-05 0)
(-5.5035e-05 4.82432e-05 0)
(-9.32275e-05 7.00299e-05 0)
(-0.000142373 9.17856e-05 0)
(-0.000202325 0.000112813 0)
(-0.000272698 0.000132694 0)
(-0.000352942 0.000151194 0)
(-0.000442403 0.000168195 0)
(-0.00054037 0.000183661 0)
(-0.000646111 0.000197605 0)
(-0.00075889 0.000210073 0)
(-0.000877988 0.000221132 0)
(-0.00100272 0.000230867 0)
(-0.00113241 0.000239364 0)
(-0.00126646 0.000246714 0)
(-0.00140428 0.00025301 0)
(-0.00154534 0.000258341 0)
(-0.00168915 0.000262794 0)
(-0.00183526 0.000266455 0)
(-0.00198325 0.000269401 0)
(-0.00213276 0.000271705 0)
(-0.00228345 0.000273435 0)
(-0.00243502 0.000274656 0)
(-0.0025872 0.000275424 0)
(-0.00273975 0.000275792 0)
(-0.00289246 0.000275805 0)
(-0.00304513 0.000275506 0)
(-0.0031976 0.000274931 0)
(-0.00334972 0.000274113 0)
(-0.00350135 0.00027308 0)
(-0.00365237 0.000271854 0)
(-0.00380268 0.000270458 0)
(-0.00395218 0.000268906 0)
(-0.00410077 0.000267214 0)
(-0.00424838 0.000265392 0)
(-0.00439494 0.000263449 0)
(-0.00454038 0.000261391 0)
(-0.00468462 0.000259225 0)
(-0.0048276 0.000256951 0)
(-0.00496926 0.000254573 0)
(-0.00510955 0.000252091 0)
(-0.00524839 0.000249503 0)
(-0.00538573 0.00024681 0)
(-0.0055215 0.000244009 0)
(-0.00565565 0.000241098 0)
(-0.00578812 0.000238073 0)
(-0.00591882 0.000234932 0)
(-0.00604771 0.00023167 0)
(-0.0061747 0.000228285 0)
(-0.00629974 0.000224772 0)
(-0.00642275 0.000221127 0)
(-0.00654365 0.000217347 0)
(-0.00666237 0.000213428 0)
(-0.00677884 0.000209365 0)
(-0.00689296 0.000205155 0)
(-0.00700467 0.000200795 0)
(-0.00711387 0.00019628 0)
(-0.00722049 0.000191607 0)
(-0.00732443 0.000186773 0)
(-0.00742561 0.000181775 0)
(-0.00752394 0.000176609 0)
(-0.00761933 0.000171273 0)
(-0.00771167 0.000165765 0)
(-0.00780089 0.000160082 0)
(-0.00788688 0.000154221 0)
(-0.00796956 0.000148182 0)
(-0.00804881 0.000141963 0)
(-0.00812455 0.000135561 0)
(-0.00819667 0.000128977 0)
(-0.00826508 0.00012221 0)
(-0.00832969 0.000115259 0)
(-0.00839038 0.000108124 0)
(-0.00844707 0.000100807 0)
(-0.00849966 9.33065e-05 0)
(-0.00854804 8.5625e-05 0)
(-0.00859213 7.7764e-05 0)
(-0.00863182 6.97256e-05 0)
(-0.00866703 6.15123e-05 0)
(-0.00869765 5.31268e-05 0)
(-0.00872361 4.45727e-05 0)
(-0.00874481 3.58538e-05 0)
(-0.00876117 2.69746e-05 0)
(-0.0087726 1.79401e-05 0)
(-0.00877902 8.75553e-06 0)
(-0.00878036 -5.73016e-07 0)
(-0.00877654 -1.0039e-05 0)
(-0.00876748 -1.96353e-05 0)
(-0.00875313 -2.93545e-05 0)
(-0.00873342 -3.91887e-05 0)
(-0.00870829 -4.91292e-05 0)
(-0.00867769 -5.91668e-05 0)
(-0.00864157 -6.92917e-05 0)
(-0.00859989 -7.94938e-05 0)
(-0.00855262 -8.97625e-05 0)
(-0.00849971 -0.000100087 0)
(-0.00844115 -0.000110455 0)
(-0.00837691 -0.000120854 0)
(-0.00830699 -0.000131272 0)
(-0.00823138 -0.000141697 0)
(-0.00815009 -0.000152113 0)
(-0.00806311 -0.000162507 0)
(-0.00797047 -0.000172865 0)
(-0.0078722 -0.000183171 0)
(-0.00776833 -0.000193411 0)
(-0.00765889 -0.000203567 0)
(-0.00754395 -0.000213625 0)
(-0.00742355 -0.000223566 0)
(-0.00729778 -0.000233374 0)
(-0.0071667 -0.00024303 0)
(-0.00703041 -0.000252515 0)
(-0.006889 -0.000261811 0)
(-0.00674259 -0.000270897 0)
(-0.00659129 -0.000279753 0)
(-0.00643524 -0.000288357 0)
(-0.00627458 -0.000296687 0)
(-0.00610946 -0.000304717 0)
(-0.00594007 -0.000312425 0)
(-0.00576657 -0.000319784 0)
(-0.00558917 -0.000326766 0)
(-0.00540809 -0.000333343 0)
(-0.00522355 -0.000339484 0)
(-0.0050358 -0.000345158 0)
(-0.00484511 -0.00035033 0)
(-0.00465176 -0.000354964 0)
(-0.00445605 -0.000359023 0)
(-0.0042583 -0.000362466 0)
(-0.00405887 -0.000365252 0)
(-0.00385813 -0.000367336 0)
(-0.00365647 -0.00036867 0)
(-0.00345432 -0.000369206 0)
(-0.00325212 -0.000368891 0)
(-0.00305034 -0.000367673 0)
(-0.0028495 -0.000365494 0)
(-0.00265012 -0.000362297 0)
(-0.00245278 -0.00035802 0)
(-0.00225808 -0.000352601 0)
(-0.00206664 -0.000345977 0)
(-0.00187912 -0.000338084 0)
(-0.00169622 -0.000328856 0)
(-0.00151867 -0.000318228 0)
(-0.00134721 -0.000306138 0)
(-0.00118263 -0.000292525 0)
(-0.00102572 -0.000277336 0)
(-0.000877324 -0.000260525 0)
(-0.000738253 -0.000242061 0)
(-0.000609339 -0.000221934 0)
(-0.00049139 -0.000200163 0)
(-0.000385176 -0.000176817 0)
(-0.000291393 -0.000152031 0)
(-0.000210628 -0.000126045 0)
(-0.000143297 -9.9249e-05 0)
(-8.95693e-05 -7.22636e-05 0)
(-4.92741e-05 -4.60449e-05 0)
(-2.17714e-05 -2.20445e-05 0)
(-5.79972e-06 -2.40911e-06 0)
(7.42313e-07 9.75238e-06 0)
(9.90884e-07 9.69259e-06 0)
(-3.56244e-07 -4.77696e-06 0)
(-5.89966e-06 5.00481e-06 0)
(-2.16144e-05 2.65567e-05 0)
(-4.85365e-05 5.50187e-05 0)
(-8.75836e-05 8.71944e-05 0)
(-0.000139356 0.000120865 0)
(-0.000204003 0.000154519 0)
(-0.000281328 0.000187166 0)
(-0.000370894 0.000218173 0)
(-0.000472096 0.000247163 0)
(-0.000584209 0.00027393 0)
(-0.000706441 0.000298389 0)
(-0.000837965 0.000320535 0)
(-0.000977943 0.000340418 0)
(-0.00112555 0.000358127 0)
(-0.00127998 0.000373771 0)
(-0.00144046 0.000387478 0)
(-0.00160627 0.000399379 0)
(-0.00177671 0.000409612 0)
(-0.00195116 0.000418312 0)
(-0.00212901 0.000425611 0)
(-0.00230973 0.000431638 0)
(-0.00249281 0.000436513 0)
(-0.00267781 0.000440352 0)
(-0.00286431 0.000443262 0)
(-0.00305194 0.00044534 0)
(-0.00324037 0.000446679 0)
(-0.0034293 0.00044736 0)
(-0.00361845 0.000447458 0)
(-0.0038076 0.00044704 0)
(-0.00399652 0.000446163 0)
(-0.00418502 0.000444882 0)
(-0.00437294 0.000443239 0)
(-0.00456012 0.000441275 0)
(-0.00474641 0.000439023 0)
(-0.00493171 0.000436509 0)
(-0.00511588 0.000433758 0)
(-0.00529884 0.000430788 0)
(-0.00548047 0.000427613 0)
(-0.00566069 0.000424245 0)
(-0.00583942 0.000420692 0)
(-0.00601656 0.00041696 0)
(-0.00619205 0.000413053 0)
(-0.00636579 0.000408972 0)
(-0.00653772 0.000404716 0)
(-0.00670775 0.000400285 0)
(-0.0068758 0.000395675 0)
(-0.00704181 0.000390884 0)
(-0.00720568 0.000385907 0)
(-0.00736734 0.000380739 0)
(-0.0075267 0.000375375 0)
(-0.00768368 0.000369809 0)
(-0.00783819 0.000364036 0)
(-0.00799014 0.000358049 0)
(-0.00813945 0.000351843 0)
(-0.00828601 0.000345412 0)
(-0.00842973 0.000338749 0)
(-0.00857051 0.000331849 0)
(-0.00870826 0.000324705 0)
(-0.00884287 0.000317313 0)
(-0.00897424 0.000309667 0)
(-0.00910225 0.000301763 0)
(-0.00922681 0.000293594 0)
(-0.00934781 0.000285157 0)
(-0.00946512 0.000276447 0)
(-0.00957864 0.00026746 0)
(-0.00968826 0.000258193 0)
(-0.00979386 0.000248643 0)
(-0.00989531 0.000238806 0)
(-0.00999252 0.000228681 0)
(-0.0100853 0.000218266 0)
(-0.0101737 0.000207558 0)
(-0.0102574 0.000196558 0)
(-0.0103364 0.000185265 0)
(-0.0104105 0.000173679 0)
(-0.0104797 0.000161801 0)
(-0.0105438 0.000149632 0)
(-0.0106027 0.000137175 0)
(-0.0106563 0.000124431 0)
(-0.0107044 0.000111406 0)
(-0.010747 9.81016e-05 0)
(-0.0107839 8.45241e-05 0)
(-0.010815 7.06787e-05 0)
(-0.0108403 5.65717e-05 0)
(-0.0108596 4.22104e-05 0)
(-0.0108729 2.76027e-05 0)
(-0.0108799 1.27575e-05 0)
(-0.0108807 -2.31586e-06 0)
(-0.0108751 -1.76068e-05 0)
(-0.0108631 -3.31039e-05 0)
(-0.0108446 -4.87952e-05 0)
(-0.0108194 -6.46676e-05 0)
(-0.0107876 -8.07075e-05 0)
(-0.0107491 -9.69003e-05 0)
(-0.0107038 -0.00011323 0)
(-0.0106517 -0.000129681 0)
(-0.0105927 -0.000146236 0)
(-0.0105267 -0.000162877 0)
(-0.0104539 -0.000179586 0)
(-0.010374 -0.000196342 0)
(-0.0102872 -0.000213126 0)
(-0.0101934 -0.000229916 0)
(-0.0100927 -0.000246692 0)
(-0.00998496 -0.000263429 0)
(-0.0098703 -0.000280106 0)
(-0.00974873 -0.000296699 0)
(-0.00962029 -0.000313181 0)
(-0.00948505 -0.000329529 0)
(-0.00934305 -0.000345715 0)
(-0.00919438 -0.000361713 0)
(-0.00903912 -0.000377494 0)
(-0.00887737 -0.000393029 0)
(-0.00870923 -0.00040829 0)
(-0.00853484 -0.000423244 0)
(-0.00835431 -0.000437859 0)
(-0.00816782 -0.000452103 0)
(-0.0079755 -0.000465939 0)
(-0.00777756 -0.000479332 0)
(-0.00757416 -0.000492244 0)
(-0.00736554 -0.000504635 0)
(-0.0071519 -0.000516462 0)
(-0.0069335 -0.000527682 0)
(-0.0067106 -0.000538249 0)
(-0.00648348 -0.000548112 0)
(-0.00625244 -0.000557221 0)
(-0.00601781 -0.000565522 0)
(-0.00577994 -0.000572955 0)
(-0.0055392 -0.000579462 0)
(-0.00529599 -0.000584976 0)
(-0.00505074 -0.000589431 0)
(-0.0048039 -0.000592755 0)
(-0.00455594 -0.000594873 0)
(-0.0043074 -0.000595708 0)
(-0.00405881 -0.000595175 0)
(-0.00381075 -0.000593191 0)
(-0.00356385 -0.000589666 0)
(-0.00331875 -0.000584507 0)
(-0.00307614 -0.000577622 0)
(-0.00283674 -0.000568912 0)
(-0.00260131 -0.000558279 0)
(-0.00237065 -0.000545624 0)
(-0.0021456 -0.000530849 0)
(-0.00192702 -0.000513857 0)
(-0.0017158 -0.000494557 0)
(-0.00151287 -0.000472863 0)
(-0.00131918 -0.000448703 0)
(-0.00113568 -0.000422019 0)
(-0.000963349 -0.000392782 0)
(-0.000803124 -0.000360995 0)
(-0.00065593 -0.000326717 0)
(-0.000522632 -0.00029008 0)
(-0.000404003 -0.000251325 0)
(-0.000300684 -0.000210845 0)
(-0.000213126 -0.000169253 0)
(-0.000141521 -0.000127474 0)
(-8.57162e-05 -8.68747e-05 0)
(-4.51054e-05 -4.94421e-05 0)
(-1.85e-05 -1.79949e-05 0)
(-4.16025e-06 3.53386e-06 0)
(9.54871e-08 9.30147e-06 0)
(-1.18812e-06 -8.13474e-07 0)
(-1.05651e-05 1.89819e-05 0)
(-3.37863e-05 5.21802e-05 0)
(-7.07891e-05 9.3425e-05 0)
(-0.000121985 0.000139063 0)
(-0.000187765 0.000186461 0)
(-0.000268135 0.000233766 0)
(-0.000362801 0.000279714 0)
(-0.000471252 0.000323473 0)
(-0.000592818 0.000364519 0)
(-0.000726712 0.000402552 0)
(-0.000872075 0.000437427 0)
(-0.00102801 0.000469114 0)
(-0.00119359 0.000497662 0)
(-0.00136791 0.000523173 0)
(-0.00155008 0.000545783 0)
(-0.00173924 0.000565656 0)
(-0.00193458 0.000582968 0)
(-0.00213531 0.000597901 0)
(-0.00234071 0.00061064 0)
(-0.00255012 0.000621367 0)
(-0.00276289 0.000630258 0)
(-0.00297847 0.000637483 0)
(-0.00319633 0.000643202 0)
(-0.00341598 0.000647566 0)
(-0.00363699 0.000650715 0)
(-0.00385898 0.000652777 0)
(-0.00408158 0.000653872 0)
(-0.00430448 0.000654104 0)
(-0.0045274 0.000653569 0)
(-0.00475008 0.000652354 0)
(-0.00497229 0.000650533 0)
(-0.00519381 0.000648171 0)
(-0.00541448 0.000645327 0)
(-0.00563411 0.000642047 0)
(-0.00585256 0.000638374 0)
(-0.00606969 0.000634341 0)
(-0.00628536 0.000629977 0)
(-0.00649947 0.000625303 0)
(-0.00671189 0.000620337 0)
(-0.00692252 0.000615092 0)
(-0.00713127 0.000609577 0)
(-0.00733802 0.000603798 0)
(-0.0075427 0.000597758 0)
(-0.00774519 0.000591458 0)
(-0.00794541 0.000584895 0)
(-0.00814326 0.000578069 0)
(-0.00833866 0.000570972 0)
(-0.00853149 0.000563602 0)
(-0.00872167 0.00055595 0)
(-0.0089091 0.000548009 0)
(-0.00909368 0.000539773 0)
(-0.00927529 0.000531233 0)
(-0.00945385 0.000522382 0)
(-0.00962924 0.000513209 0)
(-0.00980134 0.000503708 0)
(-0.00997006 0.00049387 0)
(-0.0101353 0.000483688 0)
(-0.0102969 0.000473152 0)
(-0.0104547 0.000462255 0)
(-0.0106087 0.00045099 0)
(-0.0107587 0.000439349 0)
(-0.0109045 0.000427327 0)
(-0.0110462 0.000414915 0)
(-0.0111834 0.00040211 0)
(-0.0113162 0.000388904 0)
(-0.0114443 0.000375294 0)
(-0.0115677 0.000361274 0)
(-0.0116861 0.000346841 0)
(-0.0117996 0.000331993 0)
(-0.0119078 0.000316725 0)
(-0.0120107 0.000301037 0)
(-0.0121082 0.000284928 0)
(-0.0122001 0.000268396 0)
(-0.0122863 0.000251444 0)
(-0.0123666 0.000234071 0)
(-0.0124409 0.00021628 0)
(-0.0125091 0.000198075 0)
(-0.012571 0.00017946 0)
(-0.0126265 0.000160439 0)
(-0.0126755 0.000141018 0)
(-0.0127178 0.000121206 0)
(-0.0127533 0.00010101 0)
(-0.012782 8.04388e-05 0)
(-0.0128036 5.95038e-05 0)
(-0.0128181 3.82163e-05 0)
(-0.0128253 1.65892e-05 0)
(-0.0128252 -5.36355e-06 0)
(-0.0128177 -2.7627e-05 0)
(-0.0128026 -5.01846e-05 0)
(-0.0127798 -7.30189e-05 0)
(-0.0127494 -9.6111e-05 0)
(-0.0127111 -0.000119441 0)
(-0.012665 -0.000142988 0)
(-0.0126109 -0.000166729 0)
(-0.0125488 -0.000190641 0)
(-0.0124787 -0.0002147 0)
(-0.0124006 -0.000238879 0)
(-0.0123143 -0.000263151 0)
(-0.0122199 -0.000287488 0)
(-0.0121173 -0.000311862 0)
(-0.0120066 -0.000336242 0)
(-0.0118877 -0.000360595 0)
(-0.0117607 -0.000384891 0)
(-0.0116256 -0.000409096 0)
(-0.0114825 -0.000433174 0)
(-0.0113314 -0.000457091 0)
(-0.0111723 -0.000480808 0)
(-0.0110053 -0.000504289 0)
(-0.0108306 -0.000527495 0)
(-0.0106482 -0.000550383 0)
(-0.0104582 -0.000572913 0)
(-0.0102608 -0.000595042 0)
(-0.0100561 -0.000616724 0)
(-0.00984429 -0.000637913 0)
(-0.00962551 -0.00065856 0)
(-0.00939996 -0.000678615 0)
(-0.00916785 -0.000698024 0)
(-0.00892941 -0.000716734 0)
(-0.00868488 -0.000734684 0)
(-0.00843453 -0.000751816 0)
(-0.00817865 -0.000768065 0)
(-0.00791753 -0.000783363 0)
(-0.00765152 -0.000797639 0)
(-0.00738096 -0.00081082 0)
(-0.00710624 -0.000822824 0)
(-0.00682776 -0.00083357 0)
(-0.00654596 -0.000842969 0)
(-0.0062613 -0.000850928 0)
(-0.00597428 -0.000857349 0)
(-0.00568542 -0.000862131 0)
(-0.0053953 -0.000865164 0)
(-0.0051045 -0.000866338 0)
(-0.00481366 -0.000865533 0)
(-0.00452345 -0.000862628 0)
(-0.0042346 -0.000857497 0)
(-0.00394784 -0.000850009 0)
(-0.00366396 -0.000840031 0)
(-0.00338381 -0.000827428 0)
(-0.00310825 -0.000812061 0)
(-0.0028382 -0.000793795 0)
(-0.0025746 -0.000772496 0)
(-0.00231844 -0.000748034 0)
(-0.00207074 -0.000720287 0)
(-0.00183253 -0.000689147 0)
(-0.00160488 -0.000654526 0)
(-0.00138885 -0.00061636 0)
(-0.00118552 -0.000574628 0)
(-0.000995935 -0.00052936 0)
(-0.000821094 -0.000480665 0)
(-0.00066194 -0.000428754 0)
(-0.00051931 -0.000373987 0)
(-0.000393896 -0.000316928 0)
(-0.000286199 -0.000258416 0)
(-0.000196467 -0.000199676 0)
(-0.000124631 -0.000142456 0)
(-7.02091e-05 -8.92107e-05 0)
(-3.22051e-05 -4.3314e-05 0)
(-9.41104e-06 -9.33215e-06 0)
(-8.36278e-07 6.17298e-06 0)
(-1.97739e-06 5.58695e-06 0)
(-1.51862e-05 3.90484e-05 0)
(-4.60227e-05 8.67477e-05 0)
(-9.32829e-05 0.000143096 0)
(-0.000156801 0.00020416 0)
(-0.000236697 0.000267017 0)
(-0.000332778 0.00032955 0)
(-0.000444603 0.000390275 0)
(-0.00057156 0.000448181 0)
(-0.0007129 0.000502613 0)
(-0.000867769 0.000553175 0)
(-0.00103524 0.000599668 0)
(-0.00121436 0.000642029 0)
(-0.00140414 0.000680301 0)
(-0.0016036 0.000714597 0)
(-0.00181178 0.000745081 0)
(-0.00202775 0.000771948 0)
(-0.00225063 0.000795418 0)
(-0.00247956 0.00081572 0)
(-0.00271374 0.00083309 0)
(-0.00295245 0.000847761 0)
(-0.00319497 0.000859962 0)
(-0.00344068 0.000869912 0)
(-0.00368899 0.000877823 0)
(-0.00393936 0.000883893 0)
(-0.0041913 0.000888307 0)
(-0.00444437 0.000891234 0)
(-0.00469817 0.000892833 0)
(-0.00495233 0.000893245 0)
(-0.00520653 0.0008926 0)
(-0.00546046 0.000891011 0)
(-0.00571388 0.00088858 0)
(-0.00596653 0.000885397 0)
(-0.00621821 0.000881538 0)
(-0.0064687 0.000877071 0)
(-0.00671785 0.000872051 0)
(-0.00696548 0.000866525 0)
(-0.00721143 0.000860533 0)
(-0.00745558 0.000854106 0)
(-0.00769779 0.000847267 0)
(-0.00793793 0.000840036 0)
(-0.00817589 0.000832427 0)
(-0.00841155 0.000824448 0)
(-0.00864479 0.000816104 0)
(-0.00887551 0.000807398 0)
(-0.0091036 0.000798328 0)
(-0.00932895 0.000788891 0)
(-0.00955144 0.000779081 0)
(-0.00977097 0.000768893 0)
(-0.00998742 0.000758319 0)
(-0.0102007 0.000747348 0)
(-0.0104106 0.000735972 0)
(-0.0106172 0.000724181 0)
(-0.0108202 0.000711963 0)
(-0.0110195 0.000699309 0)
(-0.011215 0.000686207 0)
(-0.0114067 0.000672646 0)
(-0.0115942 0.000658617 0)
(-0.0117776 0.000644108 0)
(-0.0119567 0.00062911 0)
(-0.0121314 0.000613613 0)
(-0.0123014 0.000597607 0)
(-0.0124667 0.000581083 0)
(-0.0126271 0.000564035 0)
(-0.0127825 0.000546453 0)
(-0.0129328 0.00052833 0)
(-0.0130777 0.000509661 0)
(-0.0132171 0.00049044 0)
(-0.013351 0.000470662 0)
(-0.013479 0.000450323 0)
(-0.0136012 0.000429419 0)
(-0.0137172 0.000407949 0)
(-0.013827 0.000385912 0)
(-0.0139305 0.000363307 0)
(-0.0140274 0.000340135 0)