/*--------------------------------*- C++ -*----------------------------------*\
  =========                 |
  \\      /  F ield         | OpenFOAM: The Open Source CFD Toolbox
   \\    /   O peration     | Website:  https://openfoam.org
    \\  /    A nd           | Version:  7
     \\/     M anipulation  |
\*---------------------------------------------------------------------------*/
FoamFile
{
    version     2.0;
    format      ascii;
    class       volScalarField;
    location    "0.25";
    object      p;
}
// * * * * * * * * * * * * * * * * * * * * * * * * * * * * * * * * * * * * * //

dimensions      [0 2 -2 0 0 0 0];

internalField   nonuniform List<scalar> 
25600
(
3.76946e-08
3.51113e-05
6.00069e-05
5.65549e-05
2.13635e-05
-4.19855e-05
-0.000130031
-0.000239207
-0.000366084
-0.000507498
-0.00066058
-0.000822695
-0.000991458
-0.00116469
-0.00134047
-0.00151704
-0.00169281
-0.00186638
-0.00203644
-0.00220185
-0.00236158
-0.00251471
-0.00266044
-0.00279803
-0.00292682
-0.00304621
-0.0031557
-0.00325482
-0.00334319
-0.00342048
-0.00348639
-0.00354066
-0.00358308
-0.00361345
-0.00363162
-0.00363751
-0.00363101
-0.00361208
-0.00358066
-0.00353672
-0.00348026
-0.00341129
-0.00332987
-0.00323602
-0.00312982
-0.00301136
-0.00288074
-0.00273806
-0.00258345
-0.00241705
-0.00223899
-0.00204945
-0.00184858
-0.00163658
-0.00141363
-0.00117993
-0.000935705
-0.000681184
-0.000416625
-0.000142268
0.000141636
0.000434814
0.000736984
0.00104785
0.00136711
0.00169444
0.00202948
0.00237189
0.00272132
0.00307741
0.00343976
0.00380795
0.00418158
0.00456024
0.00494346
0.0053308
0.00572177
0.00611592
0.00651276
0.00691176
0.00731238
0.00771409
0.00811638
0.00851871
0.00892051
0.00932121
0.0097202
0.0101169
0.0105107
0.0109011
0.0112875
0.0116692
0.0120456
0.0124162
0.0127803
0.0131374
0.0134868
0.0138281
0.0141606
0.0144837
0.0147969
0.0150997
0.0153916
0.015672
0.0159404
0.0161963
0.0164394
0.0166693
0.0168854
0.0170874
0.017275
0.0174479
0.0176057
0.0177482
0.0178753
0.0179868
0.0180825
0.0181623
0.0182261
0.018274
0.0183061
0.0183223
0.018323
0.0183081
0.018278
0.018233
0.0181733
0.0180993
0.0180115
0.0179103
0.0177963
0.0176701
0.0175324
0.0173838
0.0172252
0.0170573
0.016881
0.0166973
0.0165073
0.016312
0.0161127
0.0159106
0.0157071
0.0155035
0.0153014
0.0151024
0.0149081
0.0147204
0.0145412
0.0143725
0.0142165
0.0140754
0.0139515
0.0138472
0.0137646
0.0137057
0.0136714
0.0136615
0.0136728
0.0136949
-1.5821e-06
3.19533e-05
4.79753e-05
3.90843e-05
5.37748e-06
-5.17383e-05
-0.00013017
-0.000227344
-0.00034057
-0.000467258
-0.000604948
-0.000751364
-0.000904344
-0.00106193
-0.00122231
-0.00138385
-0.00154506
-0.0017046
-0.00186121
-0.0020138
-0.00216135
-0.00230295
-0.00243782
-0.0025652
-0.00268445
-0.00279499
-0.00289629
-0.00298789
-0.00306939
-0.00314043
-0.00320072
-0.00325
-0.00328803
-0.00331461
-0.00332959
-0.00333283
-0.00332423
-0.00330374
-0.0032713
-0.00322685
-0.00317038
-0.00310189
-0.00302142
-0.00292901
-0.00282471
-0.00270859
-0.00258075
-0.00244128
-0.00229029
-0.00212791
-0.00195429
-0.00176959
-0.00157394
-0.00136753
-0.00115055
-0.000923197
-0.000685662
-0.000438179
-0.000180995
8.56567e-05
0.000361528
0.000646345
0.000939833
0.00124171
0.0015517
0.00186947
0.00219467
0.00252697
0.00286603
0.00321149
0.00356297
0.00392007
0.00428239
0.00464951
0.00502102
0.00539645
0.00577536
0.00615729
0.00654177
0.00692828
0.00731632
0.00770536
0.00809491
0.00848444
0.00887341
0.00926126
0.00964741
0.0100313
0.0104124
0.0107901
0.0111639
0.0115331
0.0118972
0.0122556
0.0126077
0.012953
0.013291
0.013621
0.0139425
0.014255
0.0145579
0.0148508
0.0151331
0.0154044
0.0156641
0.0159118
0.0161472
0.0163698
0.0165792
0.0167751
0.0169572
0.017125
0.0172785
0.0174173
0.0175414
0.0176504
0.0177444
0.0178232
0.0178868
0.0179351
0.0179683
0.0179864
0.0179897
0.0179782
0.0179523
0.0179121
0.017858
0.0177904
0.0177097
0.0176163
0.0175109
0.0173939
0.0172662
0.0171283
0.0169809
0.0168249
0.0166612
0.0164906
0.0163142
0.016133
0.0159483
0.0157612
0.015573
0.015385
0.0151987
0.0150155
0.014837
0.014665
0.0145011
0.0143471
0.014205
0.0140767
0.0139641
0.013869
0.0137931
0.0137377
0.0137032
0.013689
0.0136949
0.0137171
2.12114e-05
5.31431e-05
6.28642e-05
4.986e-05
1.60959e-05
-3.77331e-05
-0.000110279
-0.000199584
-0.000303484
-0.000419774
-0.000546342
-0.000681155
-0.000822302
-0.000967991
-0.00111654
-0.00126642
-0.00141622
-0.00156467
-0.0017106
-0.00185292
-0.00199067
-0.00212297
-0.00224901
-0.00236808
-0.00247953
-0.0025828
-0.00267735
-0.00276273
-0.00283854
-0.0029044
-0.00296002
-0.00300512
-0.00303947
-0.00306287
-0.00307515
-0.00307617
-0.00306581
-0.003044
-0.00301068
-0.00296578
-0.00290929
-0.0028412
-0.00276153
-0.00267031
-0.00256761
-0.00245348
-0.00232798
-0.00219123
-0.00204331
-0.00188435
-0.0017145
-0.00153388
-0.00134266
-0.00114101
-0.000929095
-0.000707116
-0.000475273
-0.000233778
1.71401e-05
0.000277248
0.000546298
0.000824019
0.00111014
0.00140441
0.00170653
0.00201619
0.00233305
0.00265679
0.00298707
0.00332354
0.00366584
0.00401356
0.00436632
0.00472371
0.00508533
0.00545073
0.00581948
0.00619113
0.0065652
0.00694121
0.00731867
0.00769707
0.00807593
0.00845473
0.00883294
0.00921003
0.00958543
0.00995861
0.010329
0.0106961
0.0110594
0.0114182
0.011772
0.0121203
0.0124624
0.012798
0.0131263
0.013447
0.0137594
0.014063
0.0143574
0.014642
0.0149164
0.0151801
0.0154326
0.0156735
0.0159025
0.0161191
0.016323
0.0165138
0.0166912
0.016855
0.0170049
0.0171406
0.0172621
0.0173692
0.0174618
0.0175397
0.017603
0.0176517
0.0176858
0.0177055
0.0177108
0.0177021
0.0176795
0.0176433
0.0175938
0.0175313
0.0174563
0.0173693
0.0172708
0.0171614
0.0170417
0.0169124
0.0167742
0.0166277
0.016474
0.016314
0.0161485
0.0159786
0.0158055
0.0156303
0.0154542
0.0152784
0.0151044
0.0149335
0.0147672
0.0146071
0.0144547
0.0143118
0.01418
0.0140609
0.0139563
0.0138677
0.0137965
0.0137438
0.0137099
0.0136948
0.0137007
0.0137284
6.75494e-05
9.61952e-05
0.000101317
8.47744e-05
4.9805e-05
-2.9155e-06
-7.23025e-05
-0.000156747
-0.000254426
-0.000363467
-0.000481988
-0.000608182
-0.000740334
-0.000876802
-0.00101606
-0.00115667
-0.0012973
-0.00143675
-0.00157391
-0.00170775
-0.00183735
-0.00196184
-0.00208046
-0.0021925
-0.00229734
-0.00239439
-0.00248315
-0.00256318
-0.00263407
-0.00269546
-0.00274703
-0.00278851
-0.00281965
-0.00284026
-0.00285016
-0.00284921
-0.00283731
-0.00281433
-0.00278023
-0.00273494
-0.00267843
-0.00261069
-0.00253173
-0.00244158
-0.00234029
-0.00222791
-0.00210451
-0.00197017
-0.00182499
-0.00166908
-0.00150259
-0.00132564
-0.00113837
-0.000940951
-0.00073356
-0.000516384
-0.000289615
-5.34577e-05
0.000191863
0.00044612
0.000709075
0.000980467
0.00126003
0.00154751
0.00184263
0.00214508
0.00245452
0.00277064
0.00309311
0.0034216
0.00375575
0.00409515
0.00443942
0.0047882
0.00514106
0.0054976
0.00585737
0.00621992
0.00658481
0.00695156
0.0073197
0.00768873
0.00805817
0.00842753
0.00879629
0.00916393
0.0095299
0.00989368
0.0102548
0.0106126
0.0109666
0.0113163
0.0116612
0.0120006
0.012334
0.012661
0.0129811
0.0132936
0.013598
0.013894
0.0141809
0.0144584
0.0147259
0.014983
0.0152292
0.0154643
0.0156877
0.0158991
0.0160982
0.0162846
0.016458
0.0166182
0.016765
0.0168981
0.0170174
0.0171227
0.0172141
0.0172912
0.0173543
0.0174032
0.017438
0.017459
0.0174662
0.0174597
0.01744
0.0174071
0.0173614
0.0173033
0.0172332
0.0171515
0.0170589
0.0169558
0.0168428
0.0167207
0.01659
0.0164516
0.0163063
0.016155
0.0159985
0.0158379
0.0156744
0.0155089
0.0153426
0.0151767
0.0150126
0.0148515
0.0146948
0.014544
0.0144005
0.0142659
0.0141417
0.0140294
0.0139306
0.0138465
0.0137785
0.0137276
0.0136945
0.0136795
0.0136865
0.0137185
0.000135191
0.000158578
0.000158725
0.000138417
0.000101369
4.84305e-05
-1.93972e-05
-0.000100685
-0.000193888
-0.00029738
-0.000409518
-0.000528693
-0.00065334
-0.000781982
-0.000913225
-0.00104574
-0.0011783
-0.00130977
-0.00143908
-0.00156527
-0.00168747
-0.00180483
-0.00191664
-0.0020222
-0.00212091
-0.0022122
-0.00229558
-0.0023706
-0.00243687
-0.00249405
-0.0025418
-0.00257986
-0.00260797
-0.00262594
-0.00263359
-0.00263078
-0.00261739
-0.00259331
-0.00255847
-0.0025128
-0.00245628
-0.00238889
-0.00231062
-0.00222151
-0.0021216
-0.00201092
-0.00188954
-0.00175755
-0.00161502
-0.00146208
-0.00129885
-0.00112545
-0.000942025
-0.000748724
-0.000545731
-0.000333219
-0.000111367
0.000119617
0.000359509
0.000608089
0.000865128
0.00113038
0.00140359
0.0016845
0.00197284
0.0022683
0.00257056
0.00287931
0.00319424
0.00351502
0.0038413
0.00417267
0.00450876
0.00484923
0.00519367
0.00554167
0.00589279
0.0062466
0.00660266
0.00696053
0.00731973
0.00767977
0.00804018
0.0084005
0.00876022
0.00911882
0.00947579
0.00983059
0.0101827
0.0105317
0.010877
0.011218
0.0115543
0.0118853
0.0122105
0.0125293
0.0128414
0.0131462
0.0134432
0.0137318
0.0140117
0.0142824
0.0145433
0.0147942
0.0150346
0.015264
0.0154822
0.0156887
0.0158832
0.0160654
0.0162351
0.0163919
0.0165357
0.0166663
0.0167835
0.0168872
0.0169773
0.0170538
0.0171165
0.0171656
0.0172012
0.0172233
0.0172321
0.0172278
0.0172106
0.0171808
0.0171386
0.0170845
0.0170188
0.0169421
0.0168548
0.0167575
0.0166507
0.0165352
0.0164115
0.0162804
0.0161427
0.0159992
0.0158509
0.0156988
0.0155437
0.0153869
0.0152294
0.0150723
0.0149168
0.0147643
0.0146159
0.0144731
0.0143371
0.0142095
0.0140916
0.0139847
0.0138903
0.0138095
0.0137437
0.013694
0.0136609
0.0136454
0.013652
0.0136845
0.000225012
0.000240158
0.000233985
0.000209108
0.000168998
0.000114618
4.6951e-05
-3.27196e-05
-0.000123016
-0.000222522
-0.000329809
-0.000443434
-0.000562001
-0.000684162
-0.000808637
-0.000934226
-0.00105979
-0.00118425
-0.00130664
-0.00142604
-0.00154161
-0.00165256
-0.00175819
-0.00185785
-0.00195094
-0.00203695
-0.00211536
-0.00218577
-0.00224777
-0.00230102
-0.00234521
-0.00238007
-0.00240536
-0.00242085
-0.00242639
-0.00242184
-0.00240705
-0.00238194
-0.00234641
-0.00230041
-0.00224389
-0.00217684
-0.00209926
-0.00201117
-0.00191258
-0.00180355
-0.00168413
-0.0015544
-0.00141445
-0.00126437
-0.00110429
-0.000934319
-0.000754593
-0.000565275
-0.000366531
-0.000158524
5.85772e-05
0.000284569
0.000519225
0.000762333
0.00101367
0.00127301
0.0015401
0.00181468
0.00209649
0.00238523
0.00268058
0.00298225
0.00328995
0.00360332
0.00392204
0.00424571
0.00457398
0.00490649
0.00524287
0.00558269
0.00592554
0.006271
0.00661865
0.00696804
0.0073187
0.00767017
0.00802199
0.00837371
0.00872484
0.00907485
0.00942325
0.00976953
0.0101132
0.0104538
0.0107908
0.0111236
0.0114518
0.0117748
0.0120921
0.0124034
0.012708
0.0130055
0.0132954
0.0135772
0.0138504
0.0141146
0.0143695
0.0146145
0.0148493
0.0150735
0.0152867
0.0154886
0.0156788
0.0158572
0.0160233
0.0161769
0.0163179
0.0164461
0.0165614
0.0166635
0.0167524
0.0168282
0.0168906
0.0169399
0.016976
0.0169992
0.0170094
0.017007
0.0169922
0.0169651
0.0169262
0.0168757
0.0168141
0.0167418
0.0166594
0.0165673
0.0164661
0.0163565
0.0162391
0.0161145
0.0159837
0.0158473
0.0157063
0.0155616
0.0154142
0.015265
0.0151151
0.0149657
0.0148177
0.0146725
0.0145312
0.014395
0.0142653
0.0141433
0.0140303
0.0139276
0.0138364
0.0137579
0.0136932
0.0136436
0.0136097
0.0135924
0.0135967
0.013626
0.000335607
0.000339967
0.00032596
0.000295463
0.000251191
0.000194177
0.000125364
4.59197e-05
-4.2923e-05
-0.000139915
-0.000243784
-0.000353263
-0.000467102
-0.000584077
-0.000703026
-0.000822846
-0.000942487
-0.00106097
-0.00117737
-0.00129083
-0.00140057
-0.00150584
-0.00160597
-0.00170034
-0.00178838
-0.00186959
-0.00194351
-0.0020097
-0.00206781
-0.00211747
-0.00215839
-0.0021903
-0.00221297
-0.00222619
-0.00222979
-0.00222362
-0.00220756
-0.00218149
-0.00214535
-0.00209905
-0.00204256
-0.00197586
-0.00189894
-0.00181183
-0.00171453
-0.00160709
-0.00148956
-0.00136201
-0.00122453
-0.0010772
-0.000920136
-0.000753454
-0.000577283
-0.000391783
-0.000197109
6.58548e-06
0.000219134
0.000440337
0.000669975
0.000907846
0.00115374
0.00140743
0.00166866
0.00193719
0.00221276
0.00249508
0.00278385
0.00307878
0.00337957
0.00368589
0.00399741
0.00431376
0.00463458
0.00495954
0.00528826
0.00562032
0.00595534
0.00629289
0.00663257
0.00697394
0.00731653
0.00765991
0.00800363
0.00834723
0.00869025
0.00903218
0.00937251
0.00971077
0.0100465
0.0103792
0.0107084
0.0110335
0.0113541
0.0116697
0.0119797
0.0122838
0.0125814
0.0128721
0.0131553
0.0134307
0.0136977
0.013956
0.0142052
0.0144447
0.0146744
0.0148937
0.0151023
0.0152999
0.0154862
0.0156608
0.0158236
0.0159743
0.0161128
0.0162387
0.0163521
0.0164527
0.0165406
0.0166156
0.0166777
0.0167271
0.0167637
0.0167877
0.0167993
0.0167986
0.0167858
0.0167612
0.0167252
0.0166779
0.01662
0.0165517
0.0164736
0.0163862
0.01629
0.0161856
0.0160737
0.015955
0.0158302
0.0157
0.0155654
0.0154272
0.0152863
0.0151438
0.0150005
0.0148575
0.0147159
0.0145768
0.0144413
0.0143106
0.0141858
0.0140682
0.0139588
0.013859
0.0137698
0.0136923
0.0136277
0.0135771
0.0135412
0.013521
0.013521
0.0135441
0.000464687
0.000456289
0.000433064
0.000395864
0.000346362
0.000285578
0.000214447
0.000134005
4.53359e-05
-5.04363e-05
-0.000152181
-0.000258775
-0.000369099
-0.000482062
-0.000596609
-0.000711721
-0.00082645
-0.000939888
-0.00105118
-0.00115952
-0.00126418
-0.00136447
-0.00145973
-0.00154941
-0.00163295
-0.00170986
-0.00177971
-0.00184211
-0.00189667
-0.00194306
-0.001981
-0.00201022
-0.00203049
-0.00204163
-0.00204346
-0.00203581
-0.00201858
-0.00199165
-0.00195495
-0.0019084
-0.00185198
-0.00178564
-0.00170939
-0.00162323
-0.00152718
-0.00142128
-0.00130557
-0.00118012
-0.00104501
-0.000900318
-0.000746155
-0.000582637
-0.000409884
-0.000228045
-3.72683e-05
0.000162298
0.000370484
0.000587098
0.000811935
0.0010448
0.00128549
0.00153377
0.0017894
0.00205216
0.00232178
0.00259798
0.00288047
0.00316897
0.00346318
0.0037628
0.00406748
0.00437687
0.00469062
0.00500841
0.00532985
0.00565458
0.00598218
0.00631225
0.00664438
0.00697816
0.00731314
0.00764888
0.00798496
0.00832093
0.00865631
0.00899062
0.00932337
0.00965411
0.00998237
0.0103077
0.0106296
0.0109475
0.011261
0.0115696
0.0118728
0.0121702
0.0124613
0.0127456
0.0130227
0.0132921
0.0135533
0.0138061
0.0140499
0.0142844
0.0145093
0.014724
0.0149284
0.015122
0.0153045
0.0154758
0.0156356
0.0157835
0.0159195
0.0160434
0.016155
0.0162542
0.016341
0.0164153
0.0164772
0.0165266
0.0165636
0.0165884
0.0166011
0.0166018
0.0165909
0.0165685
0.016535
0.0164906
0.0164359
0.0163711
0.0162968
0.0162135
0.0161218
0.016022
0.015915
0.0158014
0.0156818
0.0155571
0.015428
0.0152954
0.0151602
0.0150232
0.0148855
0.0147479
0.0146116
0.0144775
0.0143466
0.0142202
0.0140992
0.0139847
0.0138778
0.0137797
0.0136914
0.0136139
0.0135483
0.0134955
0.0134565
0.0134321
0.0134261
0.0134406
0.000609771
0.000587154
0.000553536
0.000508661
0.000452934
0.000387359
0.000312856
0.000230322
0.000140716
4.50252e-05
-5.57442e-05
-0.000160578
-0.000268492
-0.000378506
-0.000489663
-0.000601049
-0.00071179
-0.000821051
-0.00092805
-0.00103204
-0.00113234
-0.0012283
-0.00131932
-0.00140485
-0.0014844
-0.0015575
-0.00162372
-0.00168269
-0.00173406
-0.00177751
-0.00181274
-0.00183952
-0.00185763
-0.00186687
-0.00186708
-0.00185811
-0.00183982
-0.00181213
-0.00177495
-0.00172821
-0.00167188
-0.00160592
-0.00153033
-0.00144511
-0.00135028
-0.00124587
-0.00113192
-0.0010085
-0.000875668
-0.000733513
-0.000582137
-0.000421657
-0.000252185
-7.38578e-05
0.000113182
0.000308788
0.000512796
0.000725022
0.000945268
0.00117334
0.00140905
0.00165216
0.00190246
0.00215971
0.00242365
0.00269402
0.00297053
0.0032529
0.00354086
0.0038341
0.00413228
0.00443506
0.0047421
0.00505308
0.00536766
0.00568543
0.00600601
0.006329
0.00665401
0.00698062
0.00730842
0.00763698
0.00796588
0.00829465
0.00862285
0.00895
0.00927565
0.00959933
0.00992061
0.010239
0.0105541
0.0108652
0.0111721
0.0114742
0.011771
0.0120622
0.0123472
0.0126256
0.012897
0.0131608
0.0134167
0.0136643
0.0139032
0.0141331
0.0143534
0.014564
0.0147644
0.0149543
0.0151334
0.0153016
0.0154585
0.0156039
0.0157376
0.0158595
0.0159695
0.0160674
0.0161532
0.0162268
0.0162883
0.0163377
0.0163751
0.0164005
0.0164142
0.0164162
0.0164069
0.0163864
0.0163551
0.0163133
0.0162613
0.0161997
0.0161287
0.016049
0.0159611
0.0158654
0.0157626
0.0156534
0.0155383
0.0154182
0.0152939
0.015166
0.0150356
0.0149033
0.0147702
0.0146371
0.014505
0.0143748
0.0142476
0.0141243
0.0140059
0.0138935
0.0137881
0.0136907
0.0136022
0.0135236
0.0134559
0.0134
0.0133567
0.0133271
0.0133136
0.0133177
0.00076843
0.000730537
0.000685598
0.000632185
0.000569382
0.000498119
0.000419292
0.000333697
0.000242162
0.00014555
4.47523e-05
-5.93396e-05
-0.000165838
-0.000273866
-0.000382567
-0.000491119
-0.000598726
-0.000704623
-0.000808091
-0.000908451
-0.00100506
-0.00109731
-0.00118467
-0.0012666
-0.00134265
-0.00141238
-0.0014754
-0.00153133
-0.00157984
-0.00162065
-0.00165346
-0.00167805
-0.00169422
-0.00170176
-0.00170051
-0.00169035
-0.00167113
-0.00164277
-0.00160519
-0.00155831
-0.00150212
-0.00143657
-0.00136164
-0.00127735
-0.00118371
-0.00108074
-0.000968499
-0.000847035
-0.000716408
-0.000576696
-0.000428002
-0.000270437
-0.000104109
7.08526e-05
0.00025431
0.00044612
0.000646131
0.000854161
0.00107002
0.00129352
0.00152446
0.00176265
0.00200786
0.00225985
0.00251839
0.0027832
0.00305402
0.00333058
0.0036126
0.00389978
0.00419179
0.0044883
0.00478898
0.00509353
0.0054016
0.0057128
0.00602675
0.00634306
0.00666135
0.00698122
0.00730228
0.00762408
0.00794621
0.00826823
0.00858969
0.00891015
0.00922915
0.00954624
0.009861
0.0101729
0.0104816
0.0107865
0.0110872
0.0113832
0.0116741
0.0119595
0.0122389
0.0125118
0.0127779
0.0130365
0.0132875
0.0135304
0.0137647
0.0139902
0.0142065
0.0144131
0.0146099
0.0147964
0.0149724
0.0151376
0.0152919
0.0154349
0.0155666
0.0156867
0.0157951
0.0158918
0.0159766
0.0160496
0.0161108
0.0161601
0.0161977
0.0162236
0.0162381
0.0162412
0.0162333
0.0162145
0.0161851
0.0161454
0.0160959
0.0160369
0.0159689
0.0158923
0.0158077
0.0157155
0.0156163
0.0155108
0.0153996
0.0152834
0.015163
0.0150391
0.0149126
0.0147842
0.0146547
0.0145252
0.0143963
0.0142691
0.0141445
0.0140234
0.0139067
0.0137954
0.0136904
0.0135927
0.013503
0.0134224
0.0133517
0.0132917
0.0132433
0.0132073
0.0131852
0.0131776
0.000938314
0.000884454
0.00082747
0.000764819
0.000694203
0.000616472
0.000532513
0.000443
0.00034865
0.000250228
0.000148497
4.42509e-05
-6.17143e-05
-0.000168631
-0.000275735
-0.000382268
-0.000487522
-0.000590807
-0.000691453
-0.000788841
-0.000882392
-0.000971542
-0.00105577
-0.00113462
-0.00120766
-0.00127446
-0.00133467
-0.00138792
-0.00143392
-0.00147238
-0.00150305
-0.0015257
-0.00154013
-0.00154615
-0.00154363
-0.00153242
-0.00151239
-0.00148346
-0.00144555
-0.00139861
-0.00134259
-0.00127747
-0.00120322
-0.00111985
-0.00102738
-0.000925823
-0.000815233
-0.000695659
-0.000567154
-0.000429795
-0.000283682
-0.000128918
3.43937e-05
0.00020613
0.000386159
0.00057434
0.000770526
0.000974545
0.0011862
0.00140533
0.00163175
0.00186525
0.00210561
0.00235259
0.00260597
0.00286551
0.00313093
0.00340197
0.00367835
0.00395979
0.00424595
0.00453652
0.00483121
0.00512968
0.00543161
0.00573661
0.0060443
0.00635432
0.00666629
0.00697984
0.00729456
0.00761002
0.00792581
0.00824151
0.00855667
0.00887088
0.00918367
0.00949463
0.0098033
0.0101092
0.010412
0.010711
0.011006
0.0112964
0.0115818
0.0118619
0.012136
0.0124039
0.012665
0.012919
0.0131654
0.0134038
0.013634
0.0138555
0.014068
0.0142711
0.0144644
0.0146478
0.0148209
0.0149835
0.0151353
0.0152762
0.0154059
0.0155244
0.0156314
0.0157269
0.0158108
0.0158832
0.015944
0.0159932
0.0160309
0.0160573
0.0160724
0.0160765
0.0160697
0.0160523
0.0160245
0.0159868
0.0159393
0.0158826
0.0158171
0.0157431
0.0156612
0.015572
0.0154758
0.0153735
0.0152655
0.0151525
0.0150353
0.0149147
0.0147912
0.0146659
0.0145393
0.0144124
0.0142859
0.0141608
0.0140379
0.013918
0.0138021
0.013691
0.0135855
0.0134865
0.0133948
0.0133113
0.0132367
0.0131718
0.0131173
0.0130741
0.0130425
0.0130222
0.00111723
0.00104696
0.000977445
0.000904987
0.00082593
0.000741083
0.00065129
0.000557121
0.000459191
0.000358159
0.000254698
0.000149499
4.32571e-05
-6.33313e-05
-0.000169596
-0.000274866
-0.000378489
-0.000479843
-0.000578331
-0.000673383
-0.000764457
-0.000851049
-0.000932689
-0.00100894
-0.00107941
-0.0011437
-0.00120147
-0.00125241
-0.00129622
-0.00133263
-0.00136141
-0.00138236
-0.00139526
-0.00139997
-0.00139633
-0.00138421
-0.00136349
-0.0013341
-0.00129596
-0.00124901
-0.00119321
-0.00112854
-0.00105498
-0.000972537
-0.000881213
-0.00078104
-0.000672057
-0.00055431
-0.00042785
-0.000292758
-0.000149129
2.94359e-06
0.000163364
0.000332012
0.000508759
0.00069347
0.000885999
0.00108618
0.00129384
0.00150881
0.00173092
0.00195995
0.00219568
0.0024379
0.00268639
0.00294092
0.00320122
0.00346702
0.00373807
0.00401406
0.00429469
0.00457967
0.00486869
0.00516144
0.00545758
0.00575673
0.00605854
0.00636265
0.0066687
0.00697633
0.00728511
0.00759464
0.0079045
0.00821429
0.00852359
0.00883198
0.00913901
0.00944425
0.00974727
0.0100476
0.0103449
0.0106385
0.0109282
0.0112134
0.0114938
0.0117689
0.0120383
0.0123015
0.0125581
0.0128077
0.0130499
0.0132844
0.0135107
0.0137286
0.0139376
0.0141374
0.0143276
0.0145081
0.0146786
0.0148387
0.0149884
0.0151273
0.0152552
0.0153721
0.0154778
0.0155723
0.0156554
0.0157271
0.0157875
0.0158366
0.0158744
0.0159011
0.0159168
0.0159216
0.0159157
0.0158995
0.0158731
0.0158369
0.0157912
0.0157364
0.0156729
0.0156011
0.0155216
0.0154347
0.0153411
0.0152412
0.0151358
0.0150255
0.0149109
0.0147927
0.0146716
0.0145485
0.014424
0.0142989
0.0141741
0.0140502
0.0139281
0.0138087
0.0136926
0.0135808
0.013474
0.013373
0.0132785
0.0131913
0.013112
0.0130414
0.0129801
0.012929
0.0128873
0.0128536
0.00130313
0.00121626
0.00113387
0.00105116
0.000963175
0.00087065
0.000774427
0.000674974
0.000572795
0.000468459
0.000362562
0.000255699
0.000148468
4.14889e-05
-6.4632e-05
-0.00016931
-0.000271961
-0.000372021
-0.000468956
-0.000562246
-0.000651395
-0.00073595
-0.00081549
-0.000889608
-0.000957928
-0.0010201
-0.00107582
-0.00112477
-0.0011667
-0.00120135
-0.00122851
-0.00124797
-0.00125957
-0.00126314
-0.00125855
-0.00124565
-0.00122437
-0.00119462
-0.00115632
-0.00110944
-0.00105392
-0.000989735
-0.000916877
-0.000835348
-0.000745164
-0.000646344
-0.000538924
-0.000422944
-0.000298464
-0.000165559
-2.43174e-05
0.000125174
0.000282825
0.000448517
0.000622121
0.000803511
0.000992547
0.00118907
0.00139293
0.00160394
0.00182193
0.0020467
0.00227804
0.00251574
0.0027596
0.00300939
0.00326483
0.00352568
0.00379167
0.00406252
0.00433795
0.00461765
0.00490134
0.0051887
0.00547939
0.00577306
0.00606935
0.00636793
0.00666845
0.00697053
0.00727377
0.00757775
0.00788209
0.00818639
0.00849025
0.00879324
0.00909492
0.00939488
0.00969267
0.00998787
0.01028
0.0105688
0.0108536
0.011134
0.0114098
0.0116804
0.0119453
0.0122043
0.0124567
0.0127024
0.0129408
0.0131716
0.0133944
0.013609
0.0138148
0.0140116
0.0141991
0.014377
0.014545
0.014703
0.0148506
0.0149877
0.0151141
0.0152295
0.015334
0.0154275
0.0155098
0.015581
0.015641
0.0156899
0.0157278
0.0157546
0.0157707
0.0157761
0.0157711
0.0157558
0.0157305
0.0156956
0.0156513
0.015598
0.0155362
0.0154662
0.0153885
0.0153035
0.0152119
0.015114
0.0150106
0.0149022
0.0147895
0.0146732
0.0145539
0.0144323
0.0143091
0.0141851
0.0140611
0.0139377
0.0138157
0.0136958
0.0135789
0.0134656
0.0133568
0.0132529
0.0131549
0.0130633
0.0129787
0.0129017
0.0128331
0.0127735
0.0127211
0.0126735
0.00149421
0.00139063
0.00129516
0.00120191
0.00110459
0.00100393
0.000900782
0.000795498
0.000688493
0.000580261
0.000471302
0.000362133
0.000253286
0.000145287
3.86721e-05
-6.60265e-05
-0.000168301
-0.000267656
-0.000363596
-0.000455654
-0.000543393
-0.000626405
-0.0007043
-0.000776706
-0.000843287
-0.000903723
-0.000957725
-0.00100502
-0.00104536
-0.00107853
-0.00110431
-0.00112253
-0.00113302
-0.00113563
-0.00113024
-0.00111672
-0.00109499
-0.00106498
-0.00102662
-0.000979859
-0.000924663
-0.000861004
-0.000788867
-0.000708265
-0.000619208
-0.000521711
-0.000415809
-0.000301547
-0.000178985
-4.81898e-05
9.07587e-05
0.000237777
0.000392774
0.000555633
0.00072623
0.000904445
0.00109015
0.0012832
0.00148342
0.00169067
0.00190475
0.00212548
0.00235265
0.00258607
0.00282554
0.00307084
0.00332169
0.00357785
0.00383907
0.00410508
0.00437561
0.00465036
0.00492903
0.00521133
0.00549691
0.00578545
0.00607659
0.00637
0.00666536
0.00696227
0.00726034
0.00755918
0.0078584
0.00815761
0.00845643
0.00875442
0.00905118
0.00934625
0.00963924
0.00992971
0.0102172
0.0105014
0.0107818
0.0110579
0.0113294
0.0115958
0.0118568
0.0121119
0.0123606
0.0126026
0.0128376
0.0130651
0.0132848
0.0134963
0.0136993
0.0138934
0.0140784
0.014254
0.0144198
0.0145758
0.0147216
0.0148571
0.014982
0.0150962
0.0151996
0.0152921
0.0153737
0.0154443
0.015504
0.0155527
0.0155905
0.0156176
0.0156339
0.0156398
0.0156353
0.0156208
0.0155964
0.0155624
0.0155193
0.0154672
0.0154067
0.015338
0.0152617
0.0151783
0.0150881
0.0149917
0.0148898
0.0147828
0.0146714
0.0145563
0.014438
0.0143173
0.0141948
0.0140712
0.0139472
0.0138236
0.0137009
0.01358
0.0134615
0.0133461
0.0132344
0.0131271
0.0130248
0.0129282
0.0128376
0.0127538
0.0126773
0.0126088
0.0125454
0.0124837
0.00168879
0.00156852
0.00145985
0.00135584
0.0012489
0.00113975
0.00102924
0.000917669
0.000805351
0.000692692
0.000580128
0.000468099
0.000357063
0.000247481
0.000139815
3.45322e-05
-6.79159e-05
-0.000167087
-0.000262541
-0.000353866
-0.000440676
-0.000522595
-0.000599269
-0.000670367
-0.000735588
-0.000794642
-0.000847265
-0.000893213
-0.000932257
-0.000964193
-0.000988835
-0.00100602
-0.0010156
-0.00101743
-0.00101139
-0.000997393
-0.000975344
-0.000945177
-0.000906834
-0.000860266
-0.000805444
-0.000742342
-0.000670951
-0.00059128
-0.000503337
-0.000407135
-0.000302716
-0.000190128
-6.9421e-05
5.93436e-05
0.00019609
0.000340737
0.000493188
0.000653333
0.000821056
0.000996243
0.00117877
0.00136851
0.00156529
0.00176895
0.00197932
0.00219621
0.00241943
0.00264881
0.00288414
0.00312519
0.0033717
0.00362345
0.00388018
0.00414164
0.00440757
0.00467767
0.00495164
0.00522919
0.00551001
0.00579375
0.00608009
0.00636871
0.00665925
0.00695136
0.00724465
0.00753872
0.0078332
0.00812772
0.0084219
0.00871531
0.00900752
0.00929812
0.00958671
0.00987285
0.0101561
0.0104362
0.0107125
0.0109847
0.0112523
0.011515
0.0117724
0.0120239
0.0122693
0.0125081
0.01274
0.0129645
0.0131814
0.0133902
0.0135907
0.0137824
0.0139651
0.0141386
0.0143026
0.0144568
0.014601
0.014735
0.0148586
0.0149717
0.0150741
0.0151658
0.0152467
0.0153168
0.0153761
0.0154246
0.0154624
0.0154895
0.015506
0.0155122
0.0155082
0.0154942
0.0154704
0.0154372
0.0153949
0.0153437
0.0152841
0.0152165
0.0151412
0.0150588
0.0149696
0.0148743
0.0147733
0.0146672
0.0145565
0.014442
0.0143242
0.0142037
0.0140813
0.0139574
0.0138329
0.0137083
0.0135844
0.0134617
0.0133409
0.0132227
0.0131076
0.0129962
0.0128891
0.0127869
0.0126899
0.0125987
0.0125139
0.0124362
0.0123615
0.0122855
0.00188536
0.0017485
0.00162659
0.00151165
0.00139487
0.00127695
0.00115875
0.0010405
0.000922446
0.000804912
0.000688269
0.000572893
0.000459167
0.000347494
0.000238274
0.000131903
2.87869e-05
-7.06778e-05
-0.000166116
-0.000257169
-0.000343486
-0.000424727
-0.000500579
-0.000570749
-0.000634967
-0.000692975
-0.000744534
-0.000789423
-0.000827437
-0.000858396
-0.000882135
-0.000898501
-0.000907352
-0.000908567
-0.000902045
-0.000887697
-0.000865443
-0.00083522
-0.000796976
-0.00075067
-0.000696272
-0.000633766
-0.000563143
-0.000484406
-0.000397564
-0.000302639
-0.000199673
-8.87107e-05
3.0204e-05
0.000157016
0.000291646
0.000434012
0.000584025
0.000741573
0.000906551
0.00107885
0.00125837
0.00144496
0.00163846
0.00183872
0.00204556
0.00225882
0.00247832
0.00270388
0.00293529
0.00317234
0.00341477
0.00366236
0.00391488
0.00417208
0.0044337
0.00469944
0.00496902
0.00524215
0.00551852
0.00579781
0.0060797
0.00636386
0.00664996
0.00693762
0.00722648
0.00751616
0.00780629
0.00809651
0.00838643
0.00867564
0.00896371
0.00925024
0.00953481
0.00981704
0.0100965
0.0103728
0.0106454
0.0109141
0.0111783
0.0114376
0.0116918
0.0119402
0.0121825
0.0124185
0.0126476
0.0128695
0.0130839
0.0132903
0.0134885
0.0136782
0.0138589
0.0140306
0.0141929
0.0143455
0.0144883
0.0146211
0.0147435
0.0148556
0.0149571
0.0150481
0.0151284
0.0151981
0.0152571
0.0153053
0.015343
0.0153701
0.0153867
0.0153931
0.0153894
0.0153757
0.0153524
0.0153198
0.015278
0.0152274
0.0151684
0.0151014
0.0150268
0.014945
0.0148565
0.0147616
0.0146611
0.0145553
0.0144449
0.0143305
0.0142126
0.0140918
0.0139688
0.0138441
0.0137184
0.0135923
0.0134664
0.0133413
0.0132177
0.013096
0.012977
0.012861
0.0127486
0.0126403
0.0125364
0.0124374
0.012344
0.0122569
0.0121707
0.0120803
0.00208252
0.0019292
0.00179408
0.00166814
0.00154135
0.00141445
0.00128829
0.00116304
0.00103889
0.000916101
0.000794967
0.000675809
0.000558957
0.000444746
0.000333515
0.00022561
0.000121387
2.11837e-05
-7.46766e-05
-0.000165874
-0.000252095
-0.000333041
-0.000408442
-0.000478039
-0.00054159
-0.000598867
-0.000649656
-0.00069376
-0.000731003
-0.000761228
-0.000784279
-0.000800018
-0.000808325
-0.000809096
-0.000802239
-0.000787673
-0.000765325
-0.000735143
-0.000697081
-0.000651102
-0.000597184
-0.000535311
-0.000465472
-0.000387673
-0.000301928
-0.000208265
-0.000106721
2.66477e-06
0.00011985
0.000244779
0.000377375
0.000517552
0.000665225
0.000820293
0.000982657
0.00115222
0.00132887
0.00151246
0.00170285
0.00189988
0.00210339
0.00231323
0.00252922
0.00275117
0.0029789
0.00321218
0.00345077
0.00369447
0.00394305
0.00419627
0.00445386
0.00471554
0.00498103
0.00525005
0.0055223
0.00579746
0.00607523
0.00635528
0.00663727
0.00692085
0.00720565
0.0074913
0.00777746
0.00806375
0.00834979
0.00863518
0.00891949
0.00920233
0.00948329
0.00976198
0.010038
0.0103109
0.0105803
0.0108458
0.0111069
0.0113633
0.0116146
0.0118602
0.0121
0.0123334
0.01256
0.0127797
0.0129919
0.0131963
0.0133925
0.0135803
0.0137594
0.0139295
0.0140903
0.0142417
0.0143833
0.0145149
0.0146363
0.0147475
0.0148484
0.0149387
0.0150185
0.0150878
0.0151464
0.0151945
0.015232
0.015259
0.0152757
0.0152821