0.05 	0.0003125 	0.005 	-0.00219819 	3.50852e-07 	0
0.05 	0.0009375 	0.005 	-0.00646336 	2.39554e-06 	0
0.05 	0.0015625 	0.005 	-0.0106053 	6.87876e-06 	0
0.05 	0.0021875 	0.005 	-0.0146317 	1.34008e-05 	0
0.05 	0.0028125 	0.005 	-0.0185491 	2.17503e-05 	0
0.05 	0.0034375 	0.005 	-0.022364 	3.18182e-05 	0
0.05 	0.0040625 	0.005 	-0.0260823 	4.34989e-05 	0
0.05 	0.0046875 	0.005 	-0.0297099 	5.66944e-05 	0
0.05 	0.0053125 	0.005 	-0.0332521 	7.1321e-05 	0
0.05 	0.0059375 	0.005 	-0.0367143 	8.73075e-05 	0
0.05 	0.0065625 	0.005 	-0.0401014 	0.000104595 	0
0.05 	0.0071875 	0.005 	-0.0434181 	0.000123136 	0
0.05 	0.0078125 	0.005 	-0.0466689 	0.000142896 	0
0.05 	0.0084375 	0.005 	-0.0498582 	0.00016385 	0
0.05 	0.0090625 	0.005 	-0.05299 	0.000185983 	0
0.05 	0.0096875 	0.005 	-0.0560682 	0.000209293 	0
0.05 	0.0103125 	0.005 	-0.0590965 	0.000233785 	0
0.05 	0.0109375 	0.005 	-0.0620784 	0.000259474 	0
0.05 	0.0115625 	0.005 	-0.0650171 	0.000286386 	0
0.05 	0.0121875 	0.005 	-0.0679159 	0.000314553 	0
0.05 	0.0128125 	0.005 	-0.0707777 	0.000344018 	0
0.05 	0.0134375 	0.005 	-0.0736053 	0.000374834 	0
0.05 	0.0140625 	0.005 	-0.0764014 	0.000407059 	0
0.05 	0.0146875 	0.005 	-0.0791685 	0.000440762 	0
0.05 	0.0153125 	0.005 	-0.081909 	0.000476019 	0
0.05 	0.0159375 	0.005 	-0.084625 	0.000512913 	0
0.05 	0.0165625 	0.005 	-0.0873187 	0.000551537 	0
0.05 	0.0171875 	0.005 	-0.0899919 	0.000591988 	0
0.05 	0.0178125 	0.005 	-0.0926465 	0.000634372 	0
0.05 	0.0184375 	0.005 	-0.0952841 	0.000678802 	0
0.05 	0.0190625 	0.005 	-0.0979064 	0.000725397 	0
0.05 	0.0196875 	0.005 	-0.100515 	0.000774283 	0
0.05 	0.0203125 	0.005 	-0.10311 	0.000825593 	0
0.05 	0.0209375 	0.005 	-0.105694 	0.000879466 	0
0.05 	0.0215625 	0.005 	-0.108268 	0.000936045 	0
0.05 	0.0221875 	0.005 	-0.110832 	0.000995483 	0
0.05 	0.0228125 	0.005 	-0.113387 	0.00105793 	0
0.05 	0.0234375 	0.005 	-0.115934 	0.00112356 	0
0.05 	0.0240625 	0.005 	-0.118473 	0.00119253 	0
0.05 	0.0246875 	0.005 	-0.121006 	0.00126502 	0
0.05 	0.0253125 	0.005 	-0.123531 	0.0013412 	0
0.05 	0.0259375 	0.005 	-0.126051 	0.00142125 	0
0.05 	0.0265625 	0.005 	-0.128563 	0.00150536 	0
0.05 	0.0271875 	0.005 	-0.131069 	0.00159371 	0
0.05 	0.0278125 	0.005 	-0.133568 	0.0016865 	0
0.05 	0.0284375 	0.005 	-0.13606 	0.00178392 	0
0.05 	0.0290625 	0.005 	-0.138544 	0.00188616 	0
0.05 	0.0296875 	0.005 	-0.141021 	0.00199342 	0
0.05 	0.0303125 	0.005 	-0.143488 	0.00210591 	0
0.05 	0.0309375 	0.005 	-0.145946 	0.00222382 	0
0.05 	0.0315625 	0.005 	-0.148393 	0.00234736 	0
0.05 	0.0321875 	0.005 	-0.150829 	0.00247671 	0
0.05 	0.0328125 	0.005 	-0.153251 	0.00261209 	0
0.05 	0.0334375 	0.005 	-0.155659 	0.00275368 	0
0.05 	0.0340625 	0.005 	-0.15805 	0.00290168 	0
0.05 	0.0346875 	0.005 	-0.160424 	0.00305628 	0
0.05 	0.0353125 	0.005 	-0.162778 	0.00321767 	0
0.05 	0.0359375 	0.005 	-0.165111 	0.00338602 	0
0.05 	0.0365625 	0.005 	-0.167419 	0.00356151 	0
0.05 	0.0371875 	0.005 	-0.169701 	0.0037443 	0
0.05 	0.0378125 	0.005 	-0.171955 	0.00393455 	0
0.05 	0.0384375 	0.005 	-0.174177 	0.00413241 	0
0.05 	0.0390625 	0.005 	-0.176364 	0.00433801 	0
0.05 	0.0396875 	0.005 	-0.178513 	0.00455147 	0
0.05 	0.0403125 	0.005 	-0.180622 	0.00477291 	0
0.05 	0.0409375 	0.005 	-0.182686 	0.00500242 	0
0.05 	0.0415625 	0.005 	-0.184703 	0.00524008 	0
0.05 	0.0421875 	0.005 	-0.186667 	0.00548594 	0
0.05 	0.0428125 	0.005 	-0.188576 	0.00574005 	0
0.05 	0.0434375 	0.005 	-0.190424 	0.00600243 	0
0.05 	0.0440625 	0.005 	-0.192207 	0.00627307 	0
0.05 	0.0446875 	0.005 	-0.193921 	0.00655194 	0
0.05 	0.0453125 	0.005 	-0.19556 	0.00683898 	0
0.05 	0.0459375 	0.005 	-0.19712 	0.00713412 	0
0.05 	0.0465625 	0.005 	-0.198594 	0.00743723 	0
0.05 	0.0471875 	0.005 	-0.199978 	0.00774818 	0
0.05 	0.0478125 	0.005 	-0.201265 	0.00806677 	0
0.05 	0.0484375 	0.005 	-0.202449 	0.00839281 	0
0.05 	0.0490625 	0.005 	-0.203524 	0.00872603 	0
0.05 	0.0496875 	0.005 	-0.204483 	0.00906614 	0
0.05 	0.0503125 	0.005 	-0.205319 	0.00941281 	0
0.05 	0.0509375 	0.005 	-0.206025 	0.00976566 	0
0.05 	0.0515625 	0.005 	-0.206594 	0.0101243 	0
0.05 	0.0521875 	0.005 	-0.207018 	0.0104882 	0
0.05 	0.0528125 	0.005 	-0.207288 	0.0108568 	0
0.05 	0.0534375 	0.005 	-0.207397 	0.0112297 	0
0.05 	0.0540625 	0.005 	-0.207336 	0.0116062 	0
0.05 	0.0546875 	0.005 	-0.207096 	0.0119856 	0
0.05 	0.0553125 	0.005 	-0.206668 	0.0123672 	0
0.05 	0.0559375 	0.005 	-0.206043 	0.0127502 	0
0.05 	0.0565625 	0.005 	-0.205211 	0.0131338 	0
0.05 	0.0571875 	0.005 	-0.204162 	0.0135171 	0
0.05 	0.0578125 	0.005 	-0.202886 	0.0138992 	0
0.05 	0.0584375 	0.005 	-0.201373 	0.0142791 	0
0.05 	0.0590625 	0.005 	-0.199611 	0.0146556 	0
0.05 	0.0596875 	0.005 	-0.19759 	0.0150278 	0
0.05 	0.0603125 	0.005 	-0.195298 	0.0153944 	0
0.05 	0.0609375 	0.005 	-0.192723 	0.0157542 	0
0.05 	0.0615625 	0.005 	-0.189855 	0.016106 	0
0.05 	0.0621875 	0.005 	-0.18668 	0.0164485 	0
0.05 	0.0628125 	0.005 	-0.183187 	0.0167802 	0
0.05 	0.0634375 	0.005 	-0.179363 	0.0170999 	0
0.05 	0.0640625 	0.005 	-0.175195 	0.017406 	0
0.05 	0.0646875 	0.005 	-0.17067 	0.0176972 	0
0.05 	0.0653125 	0.005 	-0.165775 	0.0179718 	0
0.05 	0.0659375 	0.005 	-0.160497 	0.0182285 	0
0.05 	0.0665625 	0.005 	-0.154822 	0.0184657 	0
0.05 	0.0671875 	0.005 	-0.148737 	0.0186818 	0
0.05 	0.0678125 	0.005 	-0.142227 	0.0188754 	0
0.05 	0.0684375 	0.005 	-0.13528 	0.0190448 	0
0.05 	0.0690625 	0.005 	-0.12788 	0.0191887 	0
0.05 	0.0696875 	0.005 	-0.120014 	0.0193055 	0
0.05 	0.0703125 	0.005 	-0.111668 	0.0193939 	0
0.05 	0.0709375 	0.005 	-0.102827 	0.0194524 	0
0.05 	0.0715625 	0.005 	-0.0934785 	0.0194797 	0
0.05 	0.0721875 	0.005 	-0.0836076 	0.0194747 	0
0.05 	0.0728125 	0.005 	-0.0732007 	0.0194361 	0
0.05 	0.0734375 	0.005 	-0.062244 	0.0193629 	0
0.05 	0.0740625 	0.005 	-0.050724 	0.0192543 	0
0.05 	0.0746875 	0.005 	-0.0386274 	0.0191094 	0
0.05 	0.0753125 	0.005 	-0.0259411 	0.0189276 	0
0.05 	0.0759375 	0.005 	-0.0126526 	0.0187084 	0
0.05 	0.0765625 	0.005 	0.00125071 	0.0184516 	0
0.05 	0.0771875 	0.005 	0.0157806 	0.018157 	0
0.05 	0.0778125 	0.005 	0.0309485 	0.0178248 	0
0.05 	0.0784375 	0.005 	0.0467655 	0.0174553 	0
0.05 	0.0790625 	0.005 	0.0632417 	0.017049 	0
0.05 	0.0796875 	0.005 	0.080387 	0.0166067 	0
0.05 	0.0803125 	0.005 	0.0982101 	0.0161296 	0
0.05 	0.0809375 	0.005 	0.116719 	0.0156189 	0
0.05 	0.0815625 	0.005 	0.135922 	0.0150762 	0
0.05 	0.0821875 	0.005 	0.155825 	0.0145034 	0
0.05 	0.0828125 	0.005 	0.176433 	0.0139026 	0
0.05 	0.0834375 	0.005 	0.19775 	0.0132764 	0
0.05 	0.0840625 	0.005 	0.21978 	0.0126273 	0
0.05 	0.0846875 	0.005 	0.242526 	0.0119584 	0
0.05 	0.0853125 	0.005 	0.265987 	0.0112729 	0
0.05 	0.0859375 	0.005 	0.290163 	0.0105742 	0
0.05 	0.0865625 	0.005 	0.315052 	0.00986623 	0
0.05 	0.0871875 	0.005 	0.340651 	0.00915276 	0
0.05 	0.0878125 	0.005 	0.366956 	0.00843795 	0
0.05 	0.0884375 	0.005 	0.393958 	0.00772607 	0
0.05 	0.0890625 	0.005 	0.421651 	0.00702154 	0
0.05 	0.0896875 	0.005 	0.450024 	0.00632883 	0
0.05 	0.0903125 	0.005 	0.479065 	0.00565246 	0
0.05 	0.0909375 	0.005 	0.508763 	0.00499696 	0
0.05 	0.0915625 	0.005 	0.5391 	0.00436678 	0
0.05 	0.0921875 	0.005 	0.570061 	0.00376627 	0
0.05 	0.0928125 	0.005 	0.601627 	0.0031996 	0
0.05 	0.0934375 	0.005 	0.633777 	0.00267067 	0
0.05 	0.0940625 	0.005 	0.666488 	0.00218309 	0
0.05 	0.0946875 	0.005 	0.699737 	0.0017401 	0
0.05 	0.0953125 	0.005 	0.733498 	0.00134444 	0
0.05 	0.0959375 	0.005 	0.767743 	0.000998351 	0
0.05 	0.0965625 	0.005 	0.802442 	0.000703435 	0
0.05 	0.0971875 	0.005 	0.837566 	0.000460628 	0
0.05 	0.0978125 	0.005 	0.873081 	0.000269978 	0
0.05 	0.0984375 	0.005 	0.908955 	0.000130447 	0
0.05 	0.0990625 	0.005 	0.945152 	4.15396e-05 	0
0.05 	0.0996875 	0.005 	0.981635 	4.90874e-06 	0
