/*--------------------------------*- C++ -*----------------------------------*\
  =========                 |
  \\      /  F ield         | OpenFOAM: The Open Source CFD Toolbox
   \\    /   O peration     | Website:  https://openfoam.org
    \\  /    A nd           | Version:  7
     \\/     M anipulation  |
\*---------------------------------------------------------------------------*/
FoamFile
{
    version     2.0;
    format      ascii;
    class       volVectorField;
    location    "0.4375";
    object      U;
}
// * * * * * * * * * * * * * * * * * * * * * * * * * * * * * * * * * * * * * //

dimensions      [0 1 -1 0 0 0 0];

internalField   nonuniform List<vector> 
25600
(
(1.2201e-06 -1.2558e-06 0)
(4.56986e-06 -2.09185e-06 0)
(8.15365e-06 -1.73557e-06 0)
(9.79543e-06 -8.52243e-07 0)
(8.46622e-06 2.23226e-07 0)
(3.90971e-06 1.32462e-06 0)
(-3.89896e-06 2.36316e-06 0)
(-1.48246e-05 3.33203e-06 0)
(-2.86363e-05 4.2095e-06 0)
(-4.51068e-05 4.9919e-06 0)
(-6.39854e-05 5.68197e-06 0)
(-8.50256e-05 6.28899e-06 0)
(-0.000107993 6.82292e-06 0)
(-0.000132666 7.28944e-06 0)
(-0.00015884 7.69241e-06 0)
(-0.000186324 8.03714e-06 0)
(-0.000214947 8.33102e-06 0)
(-0.000244551 8.58088e-06 0)
(-0.000274996 8.79169e-06 0)
(-0.000306156 8.96765e-06 0)
(-0.000337916 9.11178e-06 0)
(-0.000370173 9.22734e-06 0)
(-0.000402838 9.31908e-06 0)
(-0.000435832 9.39073e-06 0)
(-0.000469083 9.44422e-06 0)
(-0.000502528 9.48118e-06 0)
(-0.000536113 9.50342e-06 0)
(-0.000569786 9.513e-06 0)
(-0.000603507 9.51242e-06 0)
(-0.000637237 9.50356e-06 0)
(-0.000670942 9.48682e-06 0)
(-0.000704592 9.46209e-06 0)
(-0.000738159 9.43019e-06 0)
(-0.000771621 9.39258e-06 0)
(-0.000804954 9.35038e-06 0)
(-0.00083814 9.304e-06 0)
(-0.000871158 9.25337e-06 0)
(-0.000903992 9.19825e-06 0)
(-0.000936624 9.13845e-06 0)
(-0.000969038 9.07411e-06 0)
(-0.00100122 9.00568e-06 0)
(-0.00103314 8.93368e-06 0)
(-0.0010648 8.85806e-06 0)
(-0.00109618 8.77797e-06 0)
(-0.00112725 8.69248e-06 0)
(-0.001158 8.60134e-06 0)
(-0.00118841 8.50493e-06 0)
(-0.00121846 8.40351e-06 0)
(-0.00124812 8.2967e-06 0)
(-0.00127739 8.18366e-06 0)
(-0.00130623 8.06365e-06 0)
(-0.00133461 7.9363e-06 0)
(-0.00136252 7.8015e-06 0)
(-0.00138993 7.65912e-06 0)
(-0.0014168 7.50887e-06 0)
(-0.00144311 7.35027e-06 0)
(-0.00146884 7.18281e-06 0)
(-0.00149394 7.00604e-06 0)
(-0.00151838 6.81961e-06 0)
(-0.00154214 6.62323e-06 0)
(-0.00156517 6.41666e-06 0)
(-0.00158744 6.19968e-06 0)
(-0.00160892 5.97209e-06 0)
(-0.00162956 5.7336e-06 0)
(-0.00164933 5.48387e-06 0)
(-0.00166819 5.22255e-06 0)
(-0.0016861 4.94953e-06 0)
(-0.00170302 4.66487e-06 0)
(-0.00171891 4.36855e-06 0)
(-0.00173374 4.06052e-06 0)
(-0.00174745 3.7407e-06 0)
(-0.00176002 3.40906e-06 0)
(-0.00177139 3.06575e-06 0)
(-0.00178154 2.71096e-06 0)
(-0.00179042 2.3449e-06 0)
(-0.001798 1.96784e-06 0)
(-0.00180423 1.58009e-06 0)
(-0.00180909 1.18205e-06 0)
(-0.00181254 7.74181e-07 0)
(-0.00181455 3.56928e-07 0)
(-0.00181509 -6.91324e-08 0)
(-0.00181413 -5.03343e-07 0)
(-0.00181165 -9.44943e-07 0)
(-0.00180761 -1.39312e-06 0)
(-0.00180201 -1.84709e-06 0)
(-0.00179481 -2.30605e-06 0)
(-0.00178602 -2.76904e-06 0)
(-0.00177562 -3.23496e-06 0)
(-0.00176359 -3.7027e-06 0)
(-0.00174994 -4.17113e-06 0)
(-0.00173467 -4.63918e-06 0)
(-0.00171778 -5.1057e-06 0)
(-0.00169928 -5.56928e-06 0)
(-0.00167918 -6.02849e-06 0)
(-0.00165749 -6.48198e-06 0)
(-0.00163425 -6.92862e-06 0)
(-0.00160947 -7.36723e-06 0)
(-0.00158319 -7.79635e-06 0)
(-0.00155544 -8.21425e-06 0)
(-0.00152627 -8.61939e-06 0)
(-0.00149571 -9.01063e-06 0)
(-0.00146381 -9.38689e-06 0)
(-0.00143063 -9.74686e-06 0)
(-0.00139624 -1.00891e-05 0)
(-0.00136068 -1.04122e-05 0)
(-0.00132402 -1.07149e-05 0)
(-0.00128634 -1.09961e-05 0)
(-0.00124772 -1.12549e-05 0)
(-0.00120822 -1.149e-05 0)
(-0.00116793 -1.17007e-05 0)
(-0.00112693 -1.18862e-05 0)
(-0.00108531 -1.20458e-05 0)
(-0.00104317 -1.21785e-05 0)
(-0.00100058 -1.22834e-05 0)
(-0.000957654 -1.23601e-05 0)
(-0.000914477 -1.24084e-05 0)
(-0.000871147 -1.24284e-05 0)
(-0.000827764 -1.24197e-05 0)
(-0.000784425 -1.23818e-05 0)
(-0.000741231 -1.23146e-05 0)
(-0.000698279 -1.22181e-05 0)
(-0.000655671 -1.20925e-05 0)
(-0.000613503 -1.19384e-05 0)
(-0.000571875 -1.17559e-05 0)
(-0.000530882 -1.15455e-05 0)
(-0.000490622 -1.13077e-05 0)
(-0.000451188 -1.10429e-05 0)
(-0.000412673 -1.07515e-05 0)
(-0.000375167 -1.04338e-05 0)
(-0.00033876 -1.00907e-05 0)
(-0.000303537 -9.72363e-06 0)
(-0.000269583 -9.33351e-06 0)
(-0.000236977 -8.92084e-06 0)
(-0.000205798 -8.48584e-06 0)
(-0.000176123 -8.02912e-06 0)
(-0.000148023 -7.55201e-06 0)
(-0.000121566 -7.05615e-06 0)
(-9.68185e-05 -6.54269e-06 0)
(-7.38411e-05 -6.01226e-06 0)
(-5.26912e-05 -5.46551e-06 0)
(-3.34216e-05 -4.90362e-06 0)
(-1.60801e-05 -4.32807e-06 0)
(-7.09135e-07 -3.74037e-06 0)
(1.26554e-05 -3.1423e-06 0)
(2.3985e-05 -2.53608e-06 0)
(3.32607e-05 -1.92446e-06 0)
(4.04737e-05 -1.31025e-06 0)
(4.56286e-05 -6.96575e-07 0)
(4.87461e-05 -8.77659e-08 0)
(4.98679e-05 5.0949e-07 0)
(4.90628e-05 1.08528e-06 0)
(4.64354e-05 1.62639e-06 0)
(4.21378e-05 2.11543e-06 0)
(3.63857e-05 2.52772e-06 0)
(2.94828e-05 2.82497e-06 0)
(2.18578e-05 2.94765e-06 0)
(1.41061e-05 2.808e-06 0)
(7.03996e-06 2.28055e-06 0)
(1.80881e-06 1.23226e-06 0)
(-8.8992e-08 -8.72704e-08 0)
(2.05056e-06 -4.56191e-06 0)
(6.57329e-06 -6.61478e-06 0)
(9.59877e-06 -4.13009e-06 0)
(7.48901e-06 6.77166e-07 0)
(-1.68881e-06 6.5401e-06 0)
(-1.87257e-05 1.27296e-05 0)
(-4.3837e-05 1.88228e-05 0)
(-7.68707e-05 2.46345e-05 0)
(-0.000117445 3.00404e-05 0)
(-0.000165066 3.49898e-05 0)
(-0.000219172 3.9468e-05 0)
(-0.000279182 4.34848e-05 0)
(-0.000344521 4.70635e-05 0)
(-0.000414629 5.02311e-05 0)
(-0.000488974 5.30153e-05 0)
(-0.000567061 5.54457e-05 0)
(-0.000648428 5.75529e-05 0)
(-0.000732652 5.93679e-05 0)
(-0.000819347 6.09197e-05 0)
(-0.000908161 6.22347e-05 0)
(-0.000998776 6.33371e-05 0)
(-0.0010909 6.42489e-05 0)
(-0.00118429 6.49912e-05 0)
(-0.0012787 6.55837e-05 0)
(-0.00137393 6.60435e-05 0)
(-0.0014698 6.6386e-05 0)
(-0.00156614 6.66239e-05 0)
(-0.00166281 6.6769e-05 0)
(-0.00175968 6.68324e-05 0)
(-0.00185663 6.68243e-05 0)
(-0.00195355 6.67527e-05 0)
(-0.00205037 6.66238e-05 0)
(-0.00214698 6.64428e-05 0)
(-0.00224333 6.62147e-05 0)
(-0.00233933 6.59439e-05 0)
(-0.00243493 6.5634e-05 0)
(-0.00253006 6.52876e-05 0)
(-0.00262467 6.49064e-05 0)
(-0.00271871 6.44909e-05 0)
(-0.00281212 6.40413e-05 0)
(-0.00290485 6.35579e-05 0)
(-0.00299685 6.30415e-05 0)
(-0.00308807 6.24921e-05 0)
(-0.00317845 6.19083e-05 0)
(-0.00326795 6.12881e-05 0)
(-0.0033565 6.06295e-05 0)
(-0.00344406 5.99313e-05 0)
(-0.00353055 5.91924e-05 0)
(-0.00361593 5.84112e-05 0)
(-0.00370011 5.75851e-05 0)
(-0.00378304 5.67115e-05 0)
(-0.00386465 5.5788e-05 0)
(-0.00394486 5.48123e-05 0)
(-0.00402359 5.37823e-05 0)
(-0.00410076 5.2696e-05 0)
(-0.0041763 5.1551e-05 0)
(-0.00425011 5.03449e-05 0)
(-0.0043221 4.90752e-05 0)
(-0.00439218 4.77399e-05 0)
(-0.00446026 4.63369e-05 0)
(-0.00452624 4.48643e-05 0)
(-0.00459002 4.33205e-05 0)
(-0.00465148 4.17036e-05 0)
(-0.00471054 4.00124e-05 0)
(-0.00476708 3.82454e-05 0)
(-0.004821 3.64014e-05 0)
(-0.00487218 3.44794e-05 0)
(-0.00492051 3.24789e-05 0)
(-0.00496588 3.03997e-05 0)
(-0.00500819 2.82417e-05 0)
(-0.00504731 2.60051e-05 0)
(-0.00508314 2.36903e-05 0)
(-0.00511557 2.12981e-05 0)
(-0.00514449 1.88298e-05 0)
(-0.0051698 1.62867e-05 0)
(-0.00519139 1.36709e-05 0)
(-0.00520915 1.09848e-05 0)
(-0.00522301 8.23094e-06 0)
(-0.00523285 5.4125e-06 0)
(-0.0052386 2.53293e-06 0)
(-0.00524017 -4.03838e-07 0)
(-0.00523748 -3.39343e-06 0)
(-0.00523047 -6.43108e-06 0)
(-0.00521906 -9.51158e-06 0)
(-0.00520322 -1.26293e-05 0)
(-0.00518288 -1.57783e-05 0)
(-0.00515801 -1.89523e-05 0)
(-0.00512859 -2.21443e-05 0)
(-0.00509459 -2.53474e-05 0)
(-0.00505599 -2.8554e-05 0)
(-0.00501282 -3.17562e-05 0)
(-0.00496507 -3.49462e-05 0)
(-0.00491277 -3.81156e-05 0)
(-0.00485596 -4.12557e-05 0)
(-0.00479468 -4.43576e-05 0)
(-0.00472901 -4.74126e-05 0)
(-0.004659 -5.04118e-05 0)
(-0.00458474 -5.33463e-05 0)
(-0.00450635 -5.62067e-05 0)
(-0.00442391 -5.89837e-05 0)
(-0.00433757 -6.16683e-05 0)
(-0.00424745 -6.42519e-05 0)
(-0.0041537 -6.67259e-05 0)
(-0.00405649 -6.90817e-05 0)
(-0.00395599 -7.13109e-05 0)
(-0.00385238 -7.34054e-05 0)
(-0.00374586 -7.53577e-05 0)
(-0.00363662 -7.71607e-05 0)
(-0.0035249 -7.88074e-05 0)
(-0.00341091 -8.02915e-05 0)
(-0.00329488 -8.16073e-05 0)
(-0.00317705 -8.27494e-05 0)
(-0.00305769 -8.37131e-05 0)
(-0.00293703 -8.44939e-05 0)
(-0.00281533 -8.50881e-05 0)
(-0.00269288 -8.54927e-05 0)
(-0.00256992 -8.57056e-05 0)
(-0.00244675 -8.57251e-05 0)
(-0.00232362 -8.55499e-05 0)
(-0.00220082 -8.51789e-05 0)
(-0.00207863 -8.46122e-05 0)
(-0.00195731 -8.38503e-05 0)
(-0.00183715 -8.28945e-05 0)
(-0.00171843 -8.17464e-05 0)
(-0.00160141 -8.04082e-05 0)
(-0.00148636 -7.88824e-05 0)
(-0.00137354 -7.71723e-05 0)
(-0.00126323 -7.52813e-05 0)
(-0.00115567 -7.3213e-05 0)
(-0.00105111 -7.09717e-05 0)
(-0.000949808 -6.85624e-05 0)
(-0.000851987 -6.59905e-05 0)
(-0.000757882 -6.32616e-05 0)
(-0.000667715 -6.03809e-05 0)
(-0.000581699 -5.7354e-05 0)
(-0.000500041 -5.41872e-05 0)
(-0.000422934 -5.08881e-05 0)
(-0.000350563 -4.74643e-05 0)
(-0.000283102 -4.39236e-05 0)
(-0.000220712 -4.02742e-05 0)
(-0.000163539 -3.65254e-05 0)
(-0.000111715 -3.26883e-05 0)
(-6.53553e-05 -2.8775e-05 0)
(-2.4553e-05 -2.47996e-05 0)
(1.06215e-05 -2.07787e-05 0)
(4.01258e-05 -1.67327e-05 0)
(6.39509e-05 -1.26858e-05 0)
(8.21285e-05 -8.66802e-06 0)
(9.47407e-05 -4.71646e-06 0)
(0.000101932 -8.78928e-07 0)
(0.000103924 2.78184e-06 0)
(0.000101037 6.18349e-06 0)
(9.37187e-05 9.21759e-06 0)
(8.25731e-05 1.17396e-05 0)
(6.84093e-05 1.35542e-05 0)
(5.22928e-05 1.43999e-05 0)
(3.55776e-05 1.39393e-05 0)
(1.99178e-05 1.17662e-05 0)
(7.51276e-06 7.53148e-06 0)
(1.22357e-06 1.80743e-06 0)
(1.74551e-06 -8.16353e-06 0)
(4.15767e-06 -9.62695e-06 0)
(2.09738e-06 -2.08301e-06 0)
(-8.18974e-06 1.04928e-05 0)
(-2.8902e-05 2.56333e-05 0)
(-6.10988e-05 4.17668e-05 0)
(-0.000105141 5.79089e-05 0)
(-0.00016091 7.34835e-05 0)
(-0.000227967 8.81533e-05 0)
(-0.000305675 0.000101741 0)
(-0.000393283 0.000114167 0)
(-0.000489985 0.000125419 0)
(-0.000594962 0.000135524 0)
(-0.000707403 0.000144533 0)
(-0.000826528 0.000152509 0)
(-0.000951596 0.000159524 0)
(-0.00108191 0.000165652 0)
(-0.00121682 0.000170967 0)
(-0.00135575 0.000175542 0)
(-0.00149813 0.000179448 0)
(-0.00164347 0.000182749 0)
(-0.00179133 0.000185506 0)
(-0.00194129 0.000187775 0)
(-0.00209298 0.000189608 0)
(-0.00224607 0.000191052 0)
(-0.00240027 0.000192151 0)
(-0.00255531 0.000192941 0)
(-0.00271095 0.000193457 0)
(-0.00286697 0.000193728 0)
(-0.00302319 0.000193781 0)
(-0.00317943 0.00019364 0)
(-0.00333554 0.000193324 0)
(-0.00349137 0.00019285 0)
(-0.0036468 0.000192233 0)
(-0.00380171 0.000191483 0)
(-0.00395598 0.00019061 0)
(-0.00410953 0.000189622 0)
(-0.00426225 0.000188526 0)
(-0.00441404 0.000187324 0)
(-0.00456482 0.000186019 0)
(-0.00471451 0.000184612 0)
(-0.00486301 0.000183102 0)
(-0.00501024 0.000181489 0)
(-0.0051561 0.000179771 0)
(-0.00530052 0.000177945 0)
(-0.00544339 0.000176006 0)
(-0.00558462 0.00017395 0)
(-0.00572412 0.000171772 0)
(-0.00586178 0.000169468 0)
(-0.0059975 0.000167032 0)
(-0.00613116 0.000164458 0)
(-0.00626265 0.000161738 0)
(-0.00639185 0.000158868 0)
(-0.00651863 0.00015584 0)
(-0.00664287 0.000152649 0)
(-0.00676444 0.000149288 0)
(-0.00688319 0.000145751 0)
(-0.00699898 0.000142032 0)
(-0.00711166 0.000138124 0)
(-0.00722108 0.000134023 0)
(-0.00732709 0.000129723 0)
(-0.00742952 0.000125219 0)
(-0.00752822 0.000120507 0)
(-0.00762301 0.000115583 0)
(-0.00771372 0.000110443 0)
(-0.00780019 0.000105084 0)
(-0.00788225 9.95047e-05 0)
(-0.0079597 9.37027e-05 0)
(-0.00803239 8.76775e-05 0)
(-0.00810014 8.14291e-05 0)
(-0.00816277 7.49583e-05 0)
(-0.0082201 6.82667e-05 0)
(-0.00827197 6.13571e-05 0)
(-0.00831821 5.42328e-05 0)
(-0.00835865 4.68985e-05 0)
(-0.00839313 3.93598e-05 0)
(-0.00842149 3.16234e-05 0)
(-0.00844359 2.36971e-05 0)
(-0.00845927 1.55899e-05 0)
(-0.00846841 7.31186e-06 0)
(-0.00847087 -1.12574e-06 0)
(-0.00846654 -9.71049e-06 0)
(-0.0084553 -1.84288e-05 0)
(-0.00843707 -2.72661e-05 0)
(-0.00841175 -3.62063e-05 0)
(-0.00837927 -4.52325e-05 0)
(-0.00833959 -5.43266e-05 0)
(-0.00829264 -6.34695e-05 0)
(-0.00823842 -7.26411e-05 0)
(-0.00817689 -8.18203e-05 0)
(-0.00810807 -9.09852e-05 0)
(-0.00803198 -0.000100113 0)
(-0.00794866 -0.000109181 0)
(-0.00785817 -0.000118164 0)
(-0.00776058 -0.000127038 0)
(-0.007656 -0.000135778 0)
(-0.00754454 -0.000144359 0)
(-0.00742633 -0.000152755 0)
(-0.00730153 -0.000160942 0)
(-0.00717032 -0.000168892 0)
(-0.00703289 -0.000176582 0)
(-0.00688945 -0.000183986 0)
(-0.00674025 -0.000191079 0)
(-0.00658553 -0.000197839 0)
(-0.00642556 -0.000204241 0)
(-0.00626063 -0.000210263 0)
(-0.00609105 -0.000215885 0)
(-0.00591715 -0.000221085 0)
(-0.00573924 -0.000225844 0)
(-0.0055577 -0.000230145 0)
(-0.00537288 -0.00023397 0)
(-0.00518517 -0.000237305 0)
(-0.00499494 -0.000240136 0)
(-0.00480261 -0.000242452 0)
(-0.00460857 -0.00024424 0)
(-0.00441325 -0.000245494 0)
(-0.00421706 -0.000246204 0)
(-0.00402045 -0.000246367 0)
(-0.00382382 -0.000245977 0)
(-0.00362763 -0.000245034 0)
(-0.00343231 -0.000243536 0)
(-0.00323829 -0.000241484 0)
(-0.00304601 -0.000238881 0)
(-0.0028559 -0.000235731 0)
(-0.0026684 -0.000232039 0)
(-0.00248391 -0.000227812 0)
(-0.00230288 -0.000223059 0)
(-0.0021257 -0.000217789 0)
(-0.00195279 -0.000212013 0)
(-0.00178454 -0.000205742 0)
(-0.00162133 -0.00019899 0)
(-0.00146356 -0.00019177 0)
(-0.00131157 -0.000184099 0)
(-0.00116573 -0.000175992 0)
(-0.00102637 -0.000167466 0)
(-0.000893826 -0.000158539 0)
(-0.0007684 -0.000149233 0)
(-0.000650387 -0.000139569 0)
(-0.000540062 -0.00012957 0)
(-0.000437676 -0.000119263 0)
(-0.000343461 -0.000108677 0)
(-0.000257621 -9.78449e-05 0)
(-0.000180331 -8.68035e-05 0)
(-0.00011173 -7.55966e-05 0)
(-5.19213e-05 -6.42753e-05 0)
(-9.57494e-07 -5.29009e-05 0)
(4.11628e-05 -4.15473e-05 0)
(7.45076e-05 -3.03043e-05 0)
(9.92255e-05 -1.92837e-05 0)
(0.000115563 -8.62409e-06 0)
(0.000123887 1.49902e-06 0)
(0.000124711 1.08622e-05 0)
(0.000118729 1.91804e-05 0)
(0.000106853 2.60898e-05 0)
(9.02611e-05 3.11278e-05 0)
(7.04438e-05 3.37189e-05 0)
(4.92127e-05 3.318e-05 0)
(2.86819e-05 2.87736e-05 0)
(1.16918e-05 1.99158e-05 0)
(2.25428e-06 7.01104e-06 0)
(8.75658e-07 -9.81783e-06 0)
(-6.45433e-07 -7.51248e-06 0)
(-1.05357e-05 8.21744e-06 0)
(-3.18743e-05 3.17535e-05 0)
(-6.66756e-05 5.94985e-05 0)
(-0.000116041 8.90193e-05 0)
(-0.000180363 0.000118704 0)
(-0.000259516 0.000147529 0)
(-0.000353016 0.000174871 0)
(-0.00046014 0.000200369 0)
(-0.000580016 0.000223844 0)
(-0.000711682 0.000245233 0)
(-0.000854146 0.00026455 0)
(-0.00100642 0.000281864 0)
(-0.00116752 0.000297273 0)
(-0.00133652 0.000310893 0)
(-0.00151254 0.000322851 0)
(-0.00169476 0.000333275 0)
(-0.00188239 0.000342292 0)
(-0.00207474 0.00035003 0)
(-0.00227114 0.000356606 0)
(-0.00247101 0.000362132 0)
(-0.0026738 0.000366712 0)
(-0.00287901 0.000370442 0)
(-0.00308621 0.00037341 0)
(-0.00329499 0.000375697 0)
(-0.00350498 0.000377374 0)
(-0.00371587 0.000378506 0)
(-0.00392735 0.00037915 0)
(-0.00413916 0.000379358 0)
(-0.00435106 0.000379173 0)
(-0.00456284 0.000378635 0)
(-0.00477429 0.000377776 0)
(-0.00498523 0.000376624 0)
(-0.0051955 0.000375202 0)
(-0.00540494 0.000373529 0)
(-0.00561341 0.000371621 0)
(-0.00582076 0.000369488 0)
(-0.00602688 0.00036714 0)
(-0.00623162 0.000364581 0)
(-0.00643486 0.000361814 0)
(-0.00663649 0.00035884 0)
(-0.00683637 0.000355656 0)
(-0.00703438 0.000352259 0)
(-0.00723041 0.000348643 0)
(-0.00742431 0.000344804 0)
(-0.00761595 0.000340731 0)
(-0.00780521 0.000336417 0)
(-0.00799194 0.000331851 0)
(-0.00817598 0.000327024 0)
(-0.0083572 0.000321924 0)
(-0.00853544 0.000316539 0)
(-0.00871052 0.000310859 0)
(-0.00888229 0.00030487 0)
(-0.00905056 0.000298562 0)
(-0.00921517 0.000291923 0)
(-0.0093759 0.00028494 0)
(-0.00953259 0.000277602 0)
(-0.00968502 0.0002699 0)
(-0.00983299 0.000261821 0)
(-0.0099763 0.000253357 0)
(-0.0101147 0.000244498 0)
(-0.0102481 0.000235236 0)
(-0.0103761 0.000225564 0)
(-0.0104985 0.000215476 0)
(-0.0106152 0.000204966 0)
(-0.0107259 0.00019403 0)
(-0.0108303 0.000182666 0)
(-0.0109283 0.000170873 0)
(-0.0110196 0.00015865 0)
(-0.0111039 0.000146001 0)
(-0.011181 0.000132927 0)
(-0.0112508 0.000119436 0)
(-0.011313 0.000105533 0)
(-0.0113673 9.12284e-05 0)
(-0.0114136 7.65329e-05 0)
(-0.0114516 6.14599e-05 0)
(-0.0114812 4.60245e-05 0)
(-0.0115021 3.02442e-05 0)
(-0.0115143 1.41387e-05 0)
(-0.0115174 -2.27005e-06 0)
(-0.0115114 -1.89581e-05 0)
(-0.0114962 -3.58993e-05 0)
(-0.0114715 -5.30651e-05 0)
(-0.0114373 -7.04249e-05 0)
(-0.0113935 -8.7946e-05 0)
(-0.01134 -0.000105594 0)
(-0.0112768 -0.000123331 0)
(-0.0112039 -0.000141119 0)
(-0.0111211 -0.000158919 0)
(-0.0110286 -0.000176687 0)
(-0.0109263 -0.000194381 0)
(-0.0108144 -0.000211955 0)
(-0.0106929 -0.000229364 0)
(-0.0105618 -0.00024656 0)
(-0.0104214 -0.000263497 0)
(-0.0102718 -0.000280125 0)
(-0.0101132 -0.000296397 0)
(-0.0099457 -0.000312263 0)
(-0.00976965 -0.000327675 0)
(-0.00958528 -0.000342585 0)
(-0.00939286 -0.000356945 0)
(-0.00919272 -0.000370709 0)
(-0.00898518 -0.000383831 0)
(-0.00877061 -0.000396267 0)
(-0.00854938 -0.000407974 0)
(-0.0083219 -0.000418911 0)
(-0.0080886 -0.000429039 0)
(-0.00784993 -0.000438321 0)
(-0.00760634 -0.000446724 0)
(-0.00735833 -0.000454215 0)
(-0.00710639 -0.000460765 0)
(-0.00685104 -0.000466348 0)
(-0.00659281 -0.000470941 0)
(-0.00633223 -0.000474523 0)
(-0.00606985 -0.000477076 0)
(-0.00580624 -0.000478587 0)
(-0.00554197 -0.000479045 0)
(-0.0052776 -0.000478441 0)
(-0.00501371 -0.000476771 0)
(-0.00475087 -0.000474034 0)
(-0.00448968 -0.00047023 0)
(-0.0042307 -0.000465364 0)
(-0.0039745 -0.000459444 0)
(-0.00372167 -0.000452478 0)
(-0.00347276 -0.000444479 0)
(-0.00322834 -0.000435463 0)
(-0.00298895 -0.000425448 0)
(-0.00275514 -0.000414453 0)
(-0.00252743 -0.000402501 0)
(-0.00230634 -0.000389616 0)
(-0.00209238 -0.000375826 0)
(-0.00188603 -0.000361158 0)
(-0.00168777 -0.000345646 0)
(-0.00149805 -0.000329322 0)
(-0.00131729 -0.000312223 0)
(-0.00114593 -0.000294388 0)
(-0.000984337 -0.000275862 0)
(-0.000832886 -0.00025669 0)
(-0.000691909 -0.000236926 0)
(-0.000561708 -0.000216629 0)
(-0.00044255 -0.000195864 0)
(-0.00033466 -0.000174709 0)
(-0.000238215 -0.000153249 0)
(-0.000153338 -0.00013159 0)
(-8.00882e-05 -0.000109852 0)
(-1.84478e-05 -8.81816e-05 0)
(3.16891e-05 -6.67571e-05 0)
(7.05356e-05 -4.57948e-05 0)
(9.84312e-05 -2.55604e-05 0)
(0.000115866 -6.38227e-06 0)
(0.00012351 1.13319e-05 0)
(0.000122249 2.7075e-05 0)
(0.00011322 4.02188e-05 0)
(9.78529e-05 4.99937e-05 0)
(7.79146e-05 5.54779e-05 0)
(5.55015e-05 5.56146e-05 0)
(3.30277e-05 4.92848e-05 0)
(1.38081e-05 3.55102e-05 0)
(2.75935e-06 1.40096e-05 0)
(-2.03814e-07 -8.51747e-06 0)
(-6.58148e-06 1.73992e-06 0)
(-2.59368e-05 2.90772e-05 0)
(-6.01495e-05 6.66369e-05 0)
(-0.000110742 0.000109876 0)
(-0.000178678 0.000155597 0)
(-0.000264264 0.000201597 0)
(-0.000367303 0.000246415 0)
(-0.000487244 0.000289113 0)
(-0.000623288 0.000329122 0)
(-0.000774471 0.000366133 0)
(-0.000939722 0.000400017 0)
(-0.00111792 0.000430761 0)
(-0.00130794 0.000458439 0)
(-0.00150866 0.000483176 0)
(-0.00171901 0.000505134 0)
(-0.00193794 0.000524492 0)
(-0.0021645 0.000541437 0)
(-0.00239775 0.000556161 0)
(-0.00263687 0.000568848 0)
(-0.00288105 0.00057968 0)
(-0.00312959 0.000588829 0)
(-0.00338182 0.000596453 0)
(-0.00363715 0.000602702 0)
(-0.00389501 0.000607713 0)
(-0.00415492 0.000611612 0)
(-0.00441642 0.000614511 0)
(-0.00467911 0.000616515 0)
(-0.00494261 0.000617713 0)
(-0.00520659 0.000618188 0)
(-0.00547075 0.000618009 0)
(-0.0057348 0.000617239 0)
(-0.0059985 0.00061593 0)
(-0.00626161 0.00061413 0)
(-0.00652391 0.000611875 0)
(-0.00678521 0.000609197 0)
(-0.00704531 0.00060612 0)
(-0.00730404 0.000602664 0)
(-0.00756123 0.000598843 0)
(-0.0078167 0.000594666 0)
(-0.0080703 0.000590138 0)
(-0.00832187 0.000585262 0)
(-0.00857124 0.000580034 0)
(-0.00881827 0.00057445 0)
(-0.00906277 0.000568502 0)
(-0.0093046 0.000562181 0)
(-0.00954358 0.000555474 0)
(-0.00977955 0.000548368 0)
(-0.0100123 0.000540848 0)
(-0.0102417 0.000532897 0)
(-0.0104675 0.000524499 0)
(-0.0106895 0.000515636 0)
(-0.0109076 0.000506289 0)
(-0.0111214 0.000496441 0)
(-0.0113309 0.000486071 0)
(-0.0115357 0.000475163 0)
(-0.0117357 0.000463698 0)
(-0.0119306 0.000451658 0)
(-0.0121201 0.000439026 0)
(-0.012304 0.000425787 0)
(-0.012482 0.000411924 0)
(-0.012654 0.000397424 0)
(-0.0128195 0.000382275 0)
(-0.0129784 0.000366464 0)
(-0.0131303 0.000349983 0)
(-0.013275 0.000332824 0)
(-0.0134122 0.000314981 0)
(-0.0135416 0.000296449 0)
(-0.0136629 0.000277229 0)
(-0.0137759 0.000257321 0)
(-0.0138802 0.000236728 0)
(-0.0139757 0.000215457 0)
(-0.0140619 0.000193517 0)
(-0.0141386 0.000170919 0)
(-0.0142056 0.00014768 0)
(-0.0142627 0.000123818 0)
(-0.0143095 9.93533e-05 0)
(-0.0143458 7.43119e-05 0)
(-0.0143714 4.8722e-05 0)
(-0.0143861 2.26155e-05 0)
(-0.0143897 -3.97231e-06 0)
(-0.0143819 -3.10025e-05 0)
(-0.0143627 -5.84328e-05 0)
(-0.0143319 -8.62172e-05 0)
(-0.0142893 -0.000114307 0)
(-0.0142349 -0.000142648 0)
(-0.0141685 -0.000171187 0)
(-0.0140901 -0.000199863 0)
(-0.0139996 -0.000228614 0)
(-0.0138971 -0.000257378 0)
(-0.0137826 -0.000286085 0)
(-0.013656 -0.000314667 0)
(-0.0135176 -0.000343051 0)
(-0.0133672 -0.000371166 0)
(-0.0132052 -0.000398935 0)
(-0.0130317 -0.000426284 0)
(-0.0128468 -0.000453134 0)
(-0.0126509 -0.000479408 0)
(-0.012444 -0.00050503 0)
(-0.0122266 -0.00052992 0)
(-0.0119989 -0.000554004 0)
(-0.0117614 -0.000577206 0)
(-0.0115143 -0.00059945 0)
(-0.0112581 -0.000620664 0)
(-0.0109932 -0.000640778 0)
(-0.0107201 -0.000659724 0)
(-0.0104394 -0.000677436 0)
(-0.0101514 -0.000693853 0)
(-0.00985676 -0.000708916 0)
(-0.00955606 -0.000722569 0)
(-0.00924987 -0.000734763 0)
(-0.0089388 -0.00074545 0)
(-0.00862348 -0.000754588 0)
(-0.00830455 -0.00076214 0)
(-0.00798266 -0.000768072 0)
(-0.0076585 -0.000772357 0)
(-0.00733273 -0.000774972 0)
(-0.00700606 -0.000775899 0)
(-0.00667918 -0.000775123 0)
(-0.00635279 -0.000772638 0)
(-0.00602759 -0.000768439 0)
(-0.0057043 -0.000762528 0)
(-0.00538362 -0.000754912 0)
(-0.00506624 -0.0007456 0)
(-0.00475288 -0.000734608 0)
(-0.00444421 -0.000721956 0)
(-0.00414093 -0.000707666 0)
(-0.0038437 -0.000691767 0)
(-0.00355319 -0.00067429 0)
(-0.00327005 -0.00065527 0)
(-0.00299491 -0.000634747 0)
(-0.00272838 -0.000612764 0)
(-0.00247107 -0.000589366 0)
(-0.00222355 -0.000564604 0)
(-0.00198638 -0.000538534 0)
(-0.00176009 -0.000511216 0)
(-0.00154518 -0.000482714 0)
(-0.00134213 -0.0004531 0)
(-0.00115138 -0.000422452 0)
(-0.000973342 -0.000390857 0)
(-0.000808372 -0.000358413 0)
(-0.000656792 -0.00032523 0)
(-0.000518869 -0.000291434 0)
(-0.00039481 -0.000257172 0)
(-0.000284752 -0.000222615 0)
(-0.000188753 -0.000187963 0)
(-0.000106781 -0.000153454 0)
(-3.86917e-05 -0.000119374 0)
(1.57826e-05 -8.60687e-05 0)
(5.70599e-05 -5.3955e-05 0)
(8.57306e-05 -2.35414e-05 0)
(0.000102587 4.55395e-06 0)
(0.000108653 2.95793e-05 0)
(0.000105224 5.0625e-05 0)
(9.38977e-05 6.66021e-05 0)
(7.6618e-05 7.62333e-05 0)
(5.5667e-05 7.80697e-05 0)
(3.367e-05 7.05537e-05 0)
(1.4262e-05 5.21632e-05 0)
(2.88177e-06 2.16617e-05 0)
(-1.32479e-06 -3.93149e-06 0)
(-1.29486e-05 1.90433e-05 0)
(-4.2611e-05 6.17403e-05 0)
(-9.0724e-05 0.000116491 0)
(-0.000158125 0.000178035 0)
(-0.0002455 0.000242554 0)
(-0.000352961 0.000307337 0)
(-0.000480176 0.000370524 0)
(-0.00062649 0.000430877 0)
(-0.000791016 0.000487616 0)
(-0.0009727 0.000540294 0)
(-0.00117038 0.000588697 0)
(-0.00138285 0.000632781 0)
(-0.00160886 0.000672615 0)
(-0.00184718 0.000708349 0)
(-0.00209663 0.000740181 0)
(-0.00235605 0.000768345 0)
(-0.00262435 0.000793089 0)
(-0.00290051 0.000814668 0)
(-0.00318355 0.000833334 0)
(-0.00347258 0.000849334 0)
(-0.00376679 0.000862903 0)
(-0.0040654 0.000874264 0)
(-0.00436772 0.000883626 0)
(-0.00467311 0.000891181 0)
(-0.00498098 0.000897106 0)
(-0.00529082 0.000901562 0)
(-0.00560212 0.000904694 0)
(-0.00591446 0.000906633 0)
(-0.00622743 0.000907495 0)
(-0.00654067 0.000907383 0)
(-0.00685384 0.000906386 0)
(-0.00716664 0.00090458 0)
(-0.00747878 0.000902033 0)
(-0.00778999 0.0008988 0)
(-0.00810004 0.000894926 0)
(-0.00840869 0.00089045 0)
(-0.00871573 0.000885399 0)
(-0.00902093 0.000879794 0)
(-0.0093241 0.000873651 0)
(-0.00962504 0.000866979 0)
(-0.00992356 0.000859779 0)
(-0.0102194 0.000852051 0)
(-0.0105125 0.000843788 0)
(-0.0108026 0.00083498 0)
(-0.0110894 0.000825613 0)
(-0.0113728 0.000815672 0)
(-0.0116526 0.000805137 0)
(-0.0119286 0.000793988 0)
(-0.0122005 0.000782202 0)
(-0.0124681 0.000769755 0)
(-0.0127311 0.000756623 0)
(-0.0129894 0.000742779 0)
(-0.0132427 0.000728197 0)
(-0.0134907 0.000712852 0)
(-0.0137331 0.000696717 0)
(-0.0139697 0.000679767 0)
(-0.0142002 0.000661977 0)
(-0.0144243 0.000643323 0)
(-0.0146417 0.000623783 0)
(-0.0148522 0.000603335 0)
(-0.0150553 0.00058196 0)
(-0.0152507 0.000559639 0)
(-0.0154383 0.000536358 0)
(-0.0156175 0.000512103 0)
(-0.0157882 0.000486865 0)
(-0.01595 0.000460634 0)
(-0.0161025 0.000433408 0)
(-0.0162454 0.000405184 0)
(-0.0163784 0.000375964 0)
(-0.0165011 0.000345755 0)
(-0.0166133 0.000314567 0)
(-0.0167146 0.000282413 0)
(-0.0168047 0.000249312 0)
(-0.0168833 0.000215286 0)
(-0.0169501 0.000180363 0)
(-0.0170048 0.000144574 0)
(-0.0170471 0.000107956 0)
(-0.0170768 7.05509e-05 0)
(-0.0170936 3.24056e-05 0)
(-0.0170973 -6.42859e-06 0)
(-0.0170877 -4.58949e-05 0)
(-0.0170646 -8.59318e-05 0)
(-0.0170278 -0.000126472 0)
(-0.0169772 -0.000167445 0)
(-0.0169127 -0.000208775 0)
(-0.0168341 -0.000250379 0)
(-0.0167414 -0.000292173 0)
(-0.0166345 -0.000334068 0)
(-0.0165135 -0.000375971 0)
(-0.0163783 -0.000417783 0)
(-0.0162291 -0.000459406 0)
(-0.0160659 -0.000500736 0)
(-0.0158888 -0.000541667 0)
(-0.015698 -0.000582091 0)
(-0.0154937 -0.000621899 0)
(-0.0152761 -0.00066098 0)
(-0.0150455 -0.000699223 0)
(-0.0148022 -0.000736517 0)
(-0.0145464 -0.00077275 0)
(-0.0142787 -0.000807811 0)
(-0.0139993 -0.000841593 0)
(-0.0137088 -0.000873989 0)
(-0.0134077 -0.000904893 0)
(-0.0130963 -0.000934205 0)
(-0.0127754 -0.000961827 0)
(-0.0124453 -0.000987665 0)
(-0.0121069 -0.00101163 0)
(-0.0117606 -0.00103364 0)
(-0.0114072 -0.00105361 0)
(-0.0110473 -0.00107147 0)
(-0.0106817 -0.00108715 0)
(-0.010311 -0.0011006 0)
(-0.00993604 -0.00111175 0)
(-0.00955756 -0.00112057 0)
(-0.00917635 -0.001127 0)
(-0.0087932 -0.00113102 0)
(-0.00840889 -0.00113259 0)
(-0.00802426 -0.00113171 0)
(-0.0076401 -0.00112835 0)
(-0.00725724 -0.00112252 0)
(-0.00687651 -0.0011142 0)
(-0.00649871 -0.00110342 0)
(-0.00612467 -0.00109018 0)
(-0.0057552 -0.0010745 0)
(-0.0053911 -0.00105642 0)
(-0.00503317 -0.00103597 0)
(-0.00468219 -0.00101318 0)
(-0.00433893 -0.0009881 0)
(-0.00400414 -0.000960782 0)
(-0.00367857 -0.000931281 0)
(-0.00336293 -0.00089966 0)
(-0.00305791 -0.000865986 0)
(-0.00276419 -0.000830332 0)
(-0.00248242 -0.00079278 0)
(-0.00221321 -0.000753418 0)
(-0.00195715 -0.00071234 0)
(-0.00171478 -0.000669654 0)
(-0.00148662 -0.000625476 0)
(-0.00127314 -0.000579934 0)
(-0.00107474 -0.000533176 0)
(-0.000891795 -0.000485364 0)
(-0.000724606 -0.000436688 0)
(-0.0005734 -0.000387364 0)
(-0.000438327 -0.000337642 0)
(-0.000319441 -0.000287819 0)
(-0.000216693 -0.000238241 0)
(-0.000129908 -0.000189319 0)
(-5.87716e-05 -0.000141543 0)
(-2.80428e-06 -9.55028e-05 0)
(3.86609e-05 -5.19007e-05 0)
(6.65054e-05 -1.15815e-05 0)
(8.18537e-05 2.44463e-05 0)
(8.61042e-05 5.49834e-05 0)
(8.0964e-05 7.86176e-05 0)
(6.84861e-05 9.37107e-05 0)
(5.10699e-05 9.84049e-05 0)
(3.14796e-05 9.06618e-05 0)
(1.35118e-05 6.83373e-05 0)
(2.75647e-06 2.91935e-05 0)
(-2.40427e-06 4.02503e-06 0)
(-1.9347e-05 4.4772e-05 0)
(-5.96344e-05 0.000106807 0)
(-0.000122098 0.000182012 0)
(-0.000206789 0.00026465 0)
(-0.000314022 0.000350441 0)
(-0.000443633 0.000436267 0)
(-0.000595088 0.000519934 0)
(-0.00076759 0.000599944 0)
(-0.000960139 0.000675324 0)
(-0.00117159 0.00074549 0)
(-0.00140069 0.000810147 0)
(-0.00164614 0.000869212 0)
(-0.00190661 0.000922748 0)
(-0.00218079 0.000970923 0)
(-0.00246738 0.00101397 0)
(-0.00276516 0.00105218 0)
(-0.00307292 0.00108585 0)
(-0.00338954 0.00111532 0)
(-0.00371397 0.00114089 0)
(-0.00404523 0.00116288 0)
(-0.00438238 0.0011816 0)
(-0.00472459 0.00119734 0)
(-0.00507108 0.00121037 0)
(-0.00542113 0.00122093 0)
(-0.00577407 0.00122928 0)
(-0.00612931 0.00123561 0)
(-0.0064863 0.00124012 0)
(-0.00684453 0.00124298 0)
(-0.00720354 0.00124435 0)
(-0.00756291 0.00124437 0)
(-0.00792225 0.00124316 0)
(-0.0082812 0.00124082 0)
(-0.00863944 0.00123744 0)
(-0.00899665 0.00123309 0)
(-0.00935254 0.00122785 0)
(-0.00970684 0.00122176 0)
(-0.0100593 0.00121485 0)
(-0.0104097 0.00120717 0)
(-0.0107577 0.00119873 0)
(-0.0111031 0.00118955 0)
(-0.0114458 0.00117962 0)
(-0.0117854 0.00116895 0)
(-0.0121217 0.00115754 0)
(-0.0124546 0.00114536 0)
(-0.0127837 0.00113241 0)
(-0.0131089 0.00111865 0)
(-0.0134298 0.00110407 0)
(-0.0137463 0.00108865 0)
(-0.014058 0.00107234 0)
(-0.0143648 0.00105512 0)
(-0.0146663 0.00103695 0)
(-0.0149623 0.00101781 0)
(-0.0152524 0.000997655 0)
(-0.0155365 0.000976454 0)
(-0.0158141 0.000954172 0)
(-0.0160849 0.000930775 0)
(-0.0163487 0.000906231 0)
(-0.0166051 0.000880508 0)
(-0.0168537 0.000853577 0)
(-0.0170943 0.000825409 0)
(-0.0173264 0.00079598 0)
(-0.0175497 0.000765265 0)
(-0.0177639 0.000733246 0)
(-0.0179685 0.000699905 0)
(-0.0181633 0.00066523 0)
(-0.0183478 0.00062921 0)
(-0.0185216 0.000591841 0)
(-0.0186845 0.000553122 0)
(-0.0188359 0.000513056 0)
(-0.0189756 0.000471654 0)
(-0.0191032 0.000428929 0)
(-0.0192183 0.000384901 0)
(-0.0193206 0.000339596 0)
(-0.0194097 0.000293044 0)
(-0.0194853 0.000245285 0)
(-0.019547 0.000196362 0)
(-0.0195947 0.000146325 0)
(-0.0196279 9.52323e-05 0)
(-0.0196464 4.31469e-05 0)
(-0.01965 -9.86052e-06 0)
(-0.0196383 -6.37126e-05 0)