/*--------------------------------*- C++ -*----------------------------------*\
  =========                 |
  \\      /  F ield         | OpenFOAM: The Open Source CFD Toolbox
   \\    /   O peration     | Website:  https://openfoam.org
    \\  /    A nd           | Version:  7
     \\/     M anipulation  |
\*---------------------------------------------------------------------------*/
FoamFile
{
    version     2.0;
    format      ascii;
    class       volScalarField;
    location    "0.025";
    object      p;
}
// * * * * * * * * * * * * * * * * * * * * * * * * * * * * * * * * * * * * * //

dimensions      [0 2 -2 0 0 0 0];

internalField   nonuniform List<scalar> 
6400
(
-2.6807e-07
-7.92296e-05
-0.000644313
-0.00174828
-0.00320445
-0.00484655
-0.00656635
-0.00828435
-0.00993705
-0.0114742
-0.0128611
-0.0140686
-0.015077
-0.0158718
-0.0164352
-0.0167578
-0.0168356
-0.0166646
-0.0162419
-0.0155687
-0.0146508
-0.0134944
-0.0121051
-0.0104894
-0.00865689
-0.00661876
-0.00438412
-0.00196076
0.000642051
0.00341375
0.00634259
0.00941619
0.0126212
0.0159435
0.0193705
0.0228913
0.0264927
0.0301574
0.0338672
0.0376062
0.0413606
0.0451165
0.0488569
0.0525626
0.0562148
0.0597975
0.0632967
0.0666975
0.0699834
0.0731377
0.0761459
0.0789965
0.0816792
0.0841821
0.0864914
0.0885939
0.0904796
0.0921425
0.093578
0.0947818
0.0957496
0.0964786
0.096968
0.0972192
0.0972357
0.0970227
0.096587
0.0959383
0.0950912
0.0940678
0.0928959
0.091608
0.0902408
0.088839
0.0874596
0.0861738
0.0850656
0.0842331
0.0837895
0.0837804
2.50794e-05
-0.000257034
-0.000867035
-0.00184724
-0.00307911
-0.00444524
-0.00587485
-0.00730834
-0.00869542
-0.00999516
-0.0111673
-0.0121857
-0.0130309
-0.0136843
-0.0141334
-0.0143675
-0.0143797
-0.0141657
-0.0137217
-0.0130475
-0.0121468
-0.0110242
-0.00968479
-0.00813497
-0.00638175
-0.00443313
-0.00229735
1.75745e-05
0.00250193
0.00514536
0.00793862
0.0108707
0.0139276
0.0170951
0.020362
0.0237176
0.0271493
0.0306409
0.0341751
0.0377368
0.0413132
0.0448903
0.0484515
0.051979
0.0554567
0.0588698
0.0622035
0.0654425
0.068571
0.0715746
0.0744408
0.0771593
0.0797202
0.0821114
0.084319
0.0863311
0.0881398
0.0897406
0.0911297
0.0923026
0.0932556
0.0939869
0.0944975
0.0947901
0.0948683
0.0947372
0.0944043
0.0938806
0.0931816
0.0923285
0.091347
0.0902665
0.0891207
0.0879494
0.0868027
0.0857408
0.0848303
0.0841446
0.0837731
0.0837696
0.000381912
-7.25319e-05
-0.000743836
-0.00167147
-0.00277676
-0.00398209
-0.00522791
-0.00647134
-0.00767587
-0.00880213
-0.00981898
-0.0106988
-0.01142
-0.0119677
-0.0123292
-0.0124933
-0.0124537
-0.0122042
-0.0117413
-0.0110653
-0.0101768
-0.00907848
-0.00777622
-0.00627684
-0.00458596
-0.00270796
-0.000649674
0.0015797
0.00397075
0.00651385
0.0091999
0.0120189
0.0149575
0.0180019
0.0211418
0.0243671
0.0276643
0.0310175
0.0344116
0.0378334
0.0412696
0.0447056
0.0481253
0.0515125
0.0548523
0.0581313
0.0613351
0.064447
0.0674511
0.0703349
0.0730892
0.075705
0.0781709
0.0804739
0.0826013
0.0845432
0.0862933
0.0878475
0.0892014
0.0903503
0.091291
0.0920233
0.0925497
0.0928735
0.0929981
0.0929284
0.0926724
0.092242
0.0916529
0.0909241
0.090078
0.0891405
0.0881424
0.0871198
0.0861166
0.0851844
0.0843784
0.0837569
0.0833895
0.0833251
0.000956456
0.000344213
-0.000399408
-0.00131239
-0.00235424
-0.00346276
-0.00459719
-0.00572011
-0.00679775
-0.00780115
-0.00870336
-0.00947924
-0.010108
-0.0105758
-0.0108701
-0.0109804
-0.0108991
-0.0106203
-0.010142
-0.00946362
-0.00858398
-0.00750506
-0.00623259
-0.00477233
-0.00312951
-0.00130822
0.000686611
0.00284633
0.00516157
0.00762399
0.0102237
0.0129494
0.0157895
0.018733
0.0217695
0.0248883
0.0280756
0.0313157
0.0345946
0.0379013
0.0412234
0.0445451
0.0478499
0.051123
0.0543515
0.0575224
0.0606204
0.0636284
0.0665317
0.0693201
0.0719856
0.0745186
0.0769075
0.0791393
0.0812028
0.08309
0.0847951
0.0863133
0.0876393
0.088768
0.0896975
0.0904291
0.0909663
0.0913128
0.0914716
0.0914478
0.0912496
0.0908888
0.0903797
0.0897386
0.0889845
0.0881408
0.0872354
0.0863014
0.0853773
0.0845071
0.0837379
0.0831172
0.0826911
0.0824898
0.00171663
0.000944412
0.000118045
-0.000810321
-0.00182269
-0.00287505
-0.00393735
-0.00497671
-0.00596469
-0.006877
-0.0076901
-0.00838257
-0.00893747
-0.00933986
-0.00957789
-0.00964294
-0.00952674
-0.00922403
-0.00873256
-0.00805112
-0.00717905
-0.00611811
-0.00487296
-0.00344734
-0.00184492
-7.15942e-05
0.00186682
0.00396423
0.00621243
0.00860253
0.0111249
0.0137679
0.0165199
0.0193722
0.0223161
0.0253397
0.0284281
0.031567
0.0347449
0.0379503
0.0411696
0.0443878
0.0475906
0.0507646
0.0538961
0.0569709
0.0599738
0.0628894
0.0657045
0.0684103
0.0709987
0.0734592
0.0757797
0.0779486
0.079957
0.0817976
0.0834644
0.0849511
0.0862518
0.087362
0.0882811
0.0890115
0.0895572
0.0899213
0.0901074
0.0901206
0.0899693
0.0896638
0.0892163
0.0886408
0.0879541
0.0871768
0.0863339
0.0854549
0.0845735
0.083727
0.0829548
0.0822951
0.0817659
0.0813735
0.00263967
0.00170546
0.000778234
-0.000187941
-0.00120598
-0.00223828
-0.00325984
-0.00424665
-0.00517636
-0.00602662
-0.00677623
-0.00740717
-0.00790539
-0.00825697
-0.00845072
-0.00847861
-0.00833412
-0.00801347
-0.00751225
-0.00682765
-0.00596171
-0.00491715
-0.00369592
-0.00230034
-0.00073334
0.000999296
0.00288997
0.00493299
0.00712274
0.00944978
0.0119026
0.0144714
0.0171474
0.0199215
0.0227832
0.0257209
0.0287221
0.0317739
0.0348641
0.0379806
0.0411092
0.0442363
0.0473497
0.0504373
0.0534845
0.0564756
0.0593952
0.0622299
0.064969
0.0676044
0.0701269
0.0725246
0.0747855
0.0769003
0.0788621
0.0806638
0.0822976
0.0837564
0.0850345
0.0861287
0.0870391
0.0877687
0.0883213
0.0887
0.0889079
0.0889497
0.0888332
0.0885677
0.0881641
0.0876345
0.0869937
0.0862596
0.0854539
0.0846025
0.0837339
0.0828795
0.0820721
0.0813421
0.0806789
0.0800644
0.00368104
0.00257475
0.0015381
0.000511147
-0.000541026
-0.00158265
-0.00259268
-0.00355426
-0.00445058
-0.00526213
-0.00596993
-0.00655951
-0.00701715
-0.00733113
-0.00749168
-0.00749135
-0.00732558
-0.0069908
-0.00648229
-0.00579675
-0.0049365
-0.00390541
-0.00270357
-0.00133164
0.000205432
0.00190182
0.00375273
0.00575231
0.00789247
0.0101637
0.0125564
0.0150622
0.0176731
0.0203799
0.0231714
0.026036
0.0289626
0.0319396
0.0349547
0.0379948
0.0410455
0.0440943
0.0471313
0.0501447
0.0531191
0.0560375
0.0588859
0.0616525
0.0643283
0.0669047
0.0693713
0.0717154
0.073926
0.0759957
0.0779189
0.079688
0.0812939
0.0827286
0.0839873
0.085068
0.0859717
0.0867014
0.0872606
0.0876513
0.0878753
0.0879368
0.0878429
0.0876033
0.0872278
0.0867268
0.0861126
0.0854007
0.0846102
0.0837627
0.0828822
0.0819937
0.0811247
0.0803
0.0794823
0.0786316
0.00479381
0.00350578
0.00234774
0.00124442
0.000140611
-0.000933053
-0.00195712
-0.00291749
-0.00380068
-0.00459242
-0.00527694
-0.00584001
-0.00627037
-0.00655827
-0.00669483
-0.00667466
-0.00649418
-0.00614778
-0.00563256
-0.00494855
-0.00409519
-0.00307341
-0.00188556
-0.000533372
0.000979577
0.00264756
0.00446567
0.0064287
0.00852802
0.010753
0.0130951
0.0155479
0.0181045
0.0207549
0.0234871
0.0262906
0.0291558
0.0320709
0.0350224
0.0379965
0.0409806
0.0439639
0.0469373
0.0498881
0.0527995
0.0556556
0.0584441
0.0611553
0.0637796
0.0663073
0.068727
0.0710264
0.0731953
0.0752282
0.0771198
0.0788621
0.0804446
0.081859
0.0831014
0.0841715
0.085071
0.0858024
0.0863675
0.0867668
0.0870008
0.0870732
0.0869918
0.0867663
0.0864062
0.0859194
0.0853158
0.0846082
0.0838133
0.0829497
0.0820367
0.0810935
0.0801433
0.0792065
0.0782226
0.0771326
0.00593378
0.00445777
0.00316518
0.00197539
0.000806182
-0.00031622
-0.00137291
-0.00235073
-0.00323884
-0.00402666
-0.00470218
-0.00525166
-0.00566515
-0.00593582
-0.0060575
-0.0060247
-0.00583314
-0.00547869
-0.00495928
-0.00427571
-0.00342767
-0.00241384
-0.00123585
0.000102246
0.00159633
0.00324241
0.00503594
0.00697013
0.00903544
0.0112224
0.0135243
0.0159355
0.0184482
0.0210518
0.0237353
0.0264899
0.0293066
0.0321717
0.0350701
0.037989
0.0409178
0.0438477
0.0467691
0.049668
0.0525269
0.0553312
0.0580714
0.0607387
0.0633224
0.065811
0.0681924
0.0704551
0.0725907
0.0745948
0.0764622
0.0781833
0.0797464
0.0811437
0.0823728
0.0834355
0.0843336
0.0850678
0.0856373
0.0860409
0.086279
0.0863557
0.0862792
0.0860589
0.0857029
0.0852177
0.0846106
0.0838921
0.0830764
0.0821792
0.0812162
0.0802022
0.0791568
0.0780972
0.0769423
0.0756167
0.00706113
0.00539297
0.00396306
0.00267475
0.0014275
0.000244245
-0.000857863
-0.00186763
-0.00277565
-0.00357338
-0.00425049
-0.00479692
-0.00520376
-0.00546535
-0.00557877
-0.00553914
-0.00534017
-0.0049802
-0.00445974
-0.00377704
-0.00293033
-0.0019205
-0.000750429
0.000576893
0.00205857
0.00369051
0.00546657
0.00737847
0.00941708
0.0115751
0.0138473
0.0162271
0.0187056
0.0212727
0.0239191
0.0266372
0.0294167
0.0322423
0.0350983
0.0379735
0.0408593
0.0437476
0.0466279
0.0494851
0.0523021
0.0550661
0.0577698
0.0604045
0.0629576
0.0654157
0.0677666
0.0700008
0.0721119
0.0740959
0.0759461
0.0776512
0.0791989
0.0805826
0.0818023
0.0828609
0.0837593
0.0844955
0.0850666
0.0854707
0.0857088
0.0857857
0.0857092
0.0854871
0.0851258
0.0846302
0.0840062
0.0832631
0.0824128
0.0814682
0.080442
0.0793452
0.0781952
0.0770069
0.0756809
0.0741268
0.0081389
0.00628466
0.00471286
0.00331836
0.00198341
0.000729464
-0.000428203
-0.00148146
-0.00242096
-0.00323958
-0.00392807
-0.00447914
-0.0048883
-0.00515071
-0.00526113
-0.00521634
-0.00501445
-0.0046541
-0.00413323
-0.00344932
-0.00260211
-0.00159439
-0.000429069
0.000892467
0.00236798
0.00399192
0.00575629
0.00765269
0.00967341
0.0118125
0.0140644
0.0164216
0.0188753
0.0214171
0.0240388
0.0267322
0.0294851
0.0322809
0.035105
0.0379486
0.0408044
0.0436631
0.0465128
0.0493385
0.0521244
0.0548603
0.0575398
0.0601525
0.0626835
0.0651185
0.067447
0.0696619
0.071758
0.0737301
0.0755696
0.0772635
0.0788001
0.0801748
0.0813895
0.0824467
0.0833455
0.0840819
0.0846518
0.0850539
0.08529
0.085365
0.085285
0.0850554
0.0846802
0.0841633
0.0835104
0.0827304
0.0818343
0.0808326
0.0797342
0.078547
0.0772863
0.0759666
0.0744718
0.0726977
0.00914347
0.00710499
0.00539111
0.00388642
0.00245618
0.00112254
-9.95719e-05
-0.00120486
-0.0021847
-0.00303144
-0.00374039
-0.00430575
-0.00472417
-0.00499234
-0.00510531
-0.00506078
-0.00485962
-0.0045003
-0.00397853
-0.00329244
-0.00244424
-0.00143706
-0.000272308
0.00104925
0.00252414
0.00414493
0.00590307
0.00779138
0.00980348
0.0119331
0.0141735
0.0165167
0.0189554
0.0214833
0.0240922
0.0267717
0.0295076
0.0322834
0.0350869
0.0379117
0.0407501
0.0435904
0.0464197
0.0492242
0.051991
0.0547115
0.0573781
0.0599778
0.062494
0.0649134
0.0672286
0.0694344
0.0715249
0.0734927
0.0753272
0.0770152
0.0785461
0.079917
0.0811304
0.0821879
0.0830864
0.0838209
0.0843881
0.0847877
0.0850218
0.0850935
0.0850064
0.084763
0.0843659
0.0838184
0.083127
0.0823012
0.0813515
0.080286
0.0791097
0.0778269
0.0764521
0.0750001
0.0733395
0.0713536
0.0100555
0.00783343
0.00597853
0.00436145
0.00283074
0.00140866
0.000114507
-0.0010482
-0.00207514
-0.00295876
-0.00369548
-0.00428228
-0.00471609
-0.00499404
-0.00511407
-0.00507582
-0.00487872
-0.00451974
-0.00399591
-0.00330784
-0.00245836
-0.00144908
-0.000280199
0.00104647
0.00252516
0.00414731
0.00590541
0.00779383
0.00980611
0.0119344
0.014171
0.0165091
0.0189438
0.0214693
0.0240757
0.0267501
0.0294778
0.0322444
0.0350401
0.0378588
0.0406907
0.0435226
0.0463418
0.0491371
0.0518978
0.0546148
0.0572782
0.0598727
0.0623816
0.0647944
0.0671065
0.0693132
0.0714067
0.0733772
0.0752128
0.0769011
0.0784328
0.0798053
0.0810208
0.0820792
0.0829767
0.0837085
0.0842728
0.0846706
0.084903
0.0849701
0.0848714
0.0846077
0.0841809
0.0835956
0.0828596
0.0819828
0.0809747
0.0798406
0.0785817
0.0771993
0.0757081
0.0741237
0.0723007
0.0701109
0.0108565
0.00845596
0.00645824
0.00472501
0.00309101
0.00157727
0.000204007
-0.0010236
-0.00210263
-0.00303001
-0.00380191
-0.00441576
-0.00486906
-0.00516134
-0.00529354
-0.00526506
-0.00507269
-0.00471358
-0.00418815
-0.0034986
-0.002646
-0.00163032
-0.000452821
0.000882262
0.00236803
0.00399688
0.00576259
0.00765934
0.00967896
0.0118125
0.0140531
0.0163963
0.0188382
0.0213717
0.0239839
0.0266609
0.0293901
0.0321597
0.0349605
0.0377845
0.0406198
0.0434529
0.0462736
0.049073
0.0518404
0.0545648
0.0572336
0.0598308
0.0623418
0.0647588
0.0670788
0.069296
0.0714004
0.0733802
0.0752239
0.0769199
0.0784595
0.0798393
0.08106
0.0821207
0.0830176
0.0837474
0.08431
0.0847066
0.0849366
0.0849961
0.0848812
0.0845909
0.0841286
0.0835011
0.0827174
0.081787
0.0807168
0.0795091
0.0781625
0.0766767
0.0750674
0.0733513
0.0713693
0.0689831
0.0115366
0.0089561
0.00681392
0.00496297
0.0032226
0.00161362
0.000157176
-0.00114108
-0.002279
-0.00325562
-0.00406757
-0.00471232
-0.00518988
-0.0055023
-0.00565031
-0.00563157
-0.00544318
-0.00508524
-0.00455985
-0.00386761
-0.00300781
-0.00198149
-0.000792624
0.000553276
0.00205044
0.00369274
0.00547363
0.00738528
0.00941801
0.0115636
0.0138176
0.0161767
0.018636
0.0211854
0.0238108
0.0264994
0.0292415
0.0320266
0.0348442
0.0376836
0.0405319
0.0433775
0.0462127
0.0490296
0.0518158
0.0545574
0.0572405
0.0598504
0.0623749
0.0648082
0.067147
0.0693838
0.0715066
0.0735031
0.0753626
0.0770743
0.0786291
0.0800221
0.081252
0.0823175
0.0832161
0.0839462
0.0845088
0.0849044
0.0851298
0.0851778
0.0850418
0.0847209
0.0842202
0.0835487
0.082716
0.0817293
0.0805924
0.0793053
0.0778653
0.0762726
0.0745439
0.0726969
0.0705595
0.0679834
0.0120821
0.00932252
0.0070342
0.00506138
0.00321185
0.00150487
-3.80364e-05
-0.0014121
-0.00261551
-0.00364525
-0.00450011
-0.00517997
-0.00568745
-0.00602407
-0.00618838
-0.00617864
-0.0059954
-0.00564056
-0.00511449
-0.00441586
-0.00354498
-0.00250578
-0.0013037
5.68436e-05
0.00157169
0.0032344
0.00503622
0.00696762
0.00901954
0.011186
0.013464
0.0158489
0.0183333
0.0209056
0.0235524
0.0262637
0.0290311
0.0318435
0.0346877
0.0375519
0.040424
0.0432948
0.0461581
0.0490051
0.0518209
0.0545896
0.0572975
0.0599318
0.0624827
0.0649444
0.0673124
0.0695771
0.0717258
0.073747
0.0756308
0.0773666
0.0789439
0.0803559
0.0815999
0.0826748
0.0835792
0.0843131
0.0848775
0.0852716
0.0854896
0.085522
0.0853617
0.0850087
0.0844695
0.0837541
0.0828706
0.0818236
0.080614
0.0792408
0.0777026
0.0760002
0.0741512
0.0721742
0.0698838
0.0671221
0.0124801
0.00954316
0.00710807
0.00501027
0.00304803
0.00123958
-0.000394301
-0.00184848
-0.00312044
-0.00420722
-0.00510943
-0.00582956
-0.00637013
-0.0067312
-0.00691162
-0.00691252
-0.00673656
-0.00638426
-0.00585382
-0.00514489
-0.00426103
-0.00320771
-0.00198901
-0.00060774
0.000931453
0.00261979
0.00444673
0.00640327
0.00848252
0.01068
0.0129916
0.0154103
0.0179265
0.0205293
0.0232079
0.0259539
0.0287585
0.0316082
0.0344883
0.0373871
0.0402948
0.0432039
0.0461081
0.0489963
0.0518516
0.0546577
0.0574023
0.0600745
0.0626647
0.0651662
0.0675724
0.0698727
0.072055
0.0741091
0.0760259
0.0777942
0.0794014
0.0808389
0.082103
0.083193
0.0841085
0.0848501
0.0854182
0.0858102
0.0860185
0.0860331
0.0858476
0.0854632
0.0848868
0.0841271
0.0831896
0.0820765
0.0807877
0.0793231
0.077683
0.075869
0.0738991
0.0717921
0.0693492
0.0664032
0.0127219
0.00960569
0.00702404
0.00480012
0.00272044
0.000805411
-0.000923489
-0.00246037
-0.00380294
-0.00495162
-0.00590676
-0.00667041
-0.00724425
-0.00762933
-0.00782746
-0.00784136
-0.00767228
-0.00731883
-0.00678021
-0.00605926
-0.00516131
-0.00409057
-0.00284933
-0.00144091
0.000127507
0.00184518
0.00370208
0.00569141
0.00780772
0.0100456
0.0123987
0.0148576
0.017413
0.0200561
0.022778
0.0255703
0.0284222
0.0313183
0.0342434
0.0371877
0.0401433
0.0431031
0.0460591
0.0489983
0.0519028
0.0547576
0.0575518
0.0602752
0.0629171
0.0654687
0.0679217
0.0702657
0.0724896
0.074585
0.0765435
0.0783523
0.0799969
0.0814669
0.0827581
0.08387
0.0848026
0.085556
0.0861295
0.0865194
0.0867176
0.0867146
0.0865051
0.0860907
0.0854776
0.0846715
0.0836756
0.0824906
0.0811173
0.0795575
0.077813
0.0758855
0.0737932
0.0715545
0.0689577
0.0658265
0.0127995
0.00950071
0.0067697
0.00441703
0.0022164
0.000191187
-0.00163551
-0.00325843
-0.00467632
-0.00589067
-0.00690151
-0.00770928
-0.00831658
-0.00872744
-0.00894531
-0.00897163
-0.00880583
-0.00844749
-0.00789904
-0.00716516
-0.00624997
-0.00515588
-0.00388567
-0.00244535
-0.000844339
0.00090703
0.00280104
0.00483257
0.00699536
0.00928143
0.011682
0.014188
0.0167917
0.0194864
0.0222633
0.025112
0.0280199
0.0309709
0.0339513
0.0369527
0.0399681
0.0429895
0.046007
0.0490063
0.0519705
0.0548861
0.0577431
0.0605304
0.0632352
0.0658466
0.0683554
0.070752
0.0730271
0.0751733
0.0771821
0.0790394
0.0807289
0.082239
0.0835651
0.0847064
0.0856624
0.086432
0.0870135
0.0874029
0.0875926
0.0875741
0.0873425
0.0868989
0.0862476
0.0853917
0.0843327
0.0830716
0.0816107
0.0799533
0.0781017
0.0760576
0.0738395
0.0714656
0.0687118
0.0653932
0.0127044
0.00921756
0.00633192
0.00384685
0.00152327
-0.000614502
-0.00254239
-0.00425582
-0.00575383
-0.00703559
-0.00810195
-0.00895426
-0.00959697
-0.0100355
-0.0102724
-0.0103077
-0.0101416
-0.00977676
-0.0092176
-0.00846778
-0.00752954
-0.00640573
-0.00510191
-0.00362655
-0.00198883
-0.00019681
0.00174353
0.00382644
0.00604319
0.00838347
0.0108382
0.0133998
0.0160626
0.0188203
0.0216624
0.0245765
0.0275489
0.0305645
0.0336112
0.0366816
0.0397679
0.0428605
0.0459483
0.0490175
0.052053
0.0550423
0.0579752
0.0608384
0.0636166
0.0662976
0.0688723
0.0713322
0.0736696
0.0758771
0.0779452
0.079859
0.0816012
0.0831595
0.0845288
0.0857074
0.0866934
0.0874844
0.088078
0.0884702
0.0886546
0.0886233
0.0883711
0.0878979
0.0872059
0.0862969
0.0851718
0.0838325
0.0822822
0.0805246
0.078562
0.0763965
0.0740475
0.071534
0.0686198
0.0651102
0.012425
0.00874365
0.0056984
0.00307722
0.000627539
-0.00162616
-0.00365922
-0.00546661
-0.00704611
-0.00839619
-0.00951848
-0.0104168
-0.0110965
-0.0115619
-0.0118146
-0.0118555
-0.0116877
-0.0113156
-0.0107429
-0.00997144
-0.00900384
-0.00784579
-0.00650546
-0.00499119
-0.00330996
-0.00146801
0.000527973
0.0026697
0.0049462
0.00734689
0.00986412
0.012492
0.0152252
0.0180561
0.0209723
0.0239602
0.0270067
0.030098
0.0332231
0.036374
0.0395414
0.0427144
0.0458821
0.0490322
0.0521512
0.0552272
0.0582482
0.0611985
0.0640608
0.0668222
0.0694743
0.0720099
0.0744213
0.076701
0.078838
0.0808166
0.0826194
0.0842342
0.085655
0.0868789
0.0879021
0.0887207
0.0893318
0.0897318
0.0899148
0.089873
0.0896009
0.089097
0.0883627
0.0873991
0.0862071
0.0847887
0.083147
0.0812855
0.079207
0.0769147
0.0744293
0.0717716
0.0686931
0.0649875
0.0119467
0.00806573
0.00485647
0.00209477
-0.000486128
-0.00286014
-0.00500097
-0.00690356
-0.00856454
-0.00998395
-0.011164
-0.0121094
-0.0128252
-0.0133147
-0.0135801
-0.0136254
-0.0134552
-0.0130734
-0.0124818
-0.0116826
-0.0106813
-0.0094862
-0.00810551
-0.00654557
-0.0048116
-0.00291039
-0.000851147
0.00135534
0.00369768
0.00616684
0.0087569
0.0114622
0.0142763
0.0171894
0.0201882
0.0232595
0.026391
0.0295702
0.0327858
0.0360282
0.0392865
0.0425498
0.0458084
0.0490515
0.0522667
0.0554413
0.0585614
0.0616092
0.0645665
0.0674206
0.0701635
0.0727877
0.0752854
0.0776477
0.0798628
0.0819148
0.0837866
0.0854663
0.0869473
0.0882248
0.0892927
0.0901459
0.0907806
0.0911934
0.0913787
0.0913286
0.0910372
0.0905026
0.0897261
0.0887088
0.0874504
0.0859518
0.0842155
0.0822457
0.0800466
0.0776226
0.0749963
0.0721899
0.0689419
0.0650339
0.0112562
0.00716928
0.00379034
0.000883275
-0.00183313
-0.00433109
-0.00658147
-0.00857943
-0.0103232
-0.0118133
-0.0130523
-0.0140441
-0.0147934
-0.0153044
-0.0155818
-0.0156309
-0.0154559
-0.0150593
-0.0144432
-0.0136123
-0.0125747
-0.0113388
-0.0099109
-0.0082959
-0.00649974
-0.00453164
-0.00240315
-0.000125676
0.00229065
0.00483849
0.00751241
0.0103056
0.0132096
0.0162136
0.0193045
0.02247
0.0256988
0.0289783
0.0322958
0.0356402
0.0389999
0.0423648
0.0457266
0.0490756
0.0523991
0.0556832
0.0589124
0.0620681
0.0651322
0.0680923
0.0709399
0.0736664
0.0762622
0.0787175
0.0810202
0.0831547
0.0851049
0.0868588
0.0884089
0.0897484
0.0908692
0.0917641
0.0924287
0.0928592
0.0930501
0.0929941
0.0926853
0.0921222
0.0913056
0.0902359
0.088911
0.0873301
0.0854958
0.0834141
0.0810909
0.0785315
0.0757601
0.0727999
0.0693755
0.065257
0.0103402
0.00603939
0.00248385
-0.000573767
-0.00342841
-0.00605202
-0.00841412
-0.0105092
-0.0123376
-0.0138994
-0.0151967
-0.016233
-0.0170138
-0.0175458
-0.0178348
-0.0178856
-0.0177012
-0.0172845
-0.01664
-0.0157749
-0.0146974
-0.0134141
-0.0119297
-0.0102501
-0.0083839
-0.0063428
-0.00413885
-0.00178224
0.00071841
0.00335618
0.00612445
0.00901464
0.0120172
0.0151214
0.0183151
0.0215871
0.0249257
0.0283172
0.0317478
0.0352052
0.0386782
0.0421574
0.0456357
0.0491033
0.0525466
0.0559507
0.0592991
0.0625737
0.0657572
0.0688371
0.0718036
0.0746457
0.0773518
0.0799111
0.0823116
0.084539
0.0865782
0.0884171
0.0900463
0.0914568
0.0926385
0.0935825
0.0942833
0.0947366
0.0949375
0.0948794
0.0945573
0.0939693
0.0931154
0.0919938
0.0906008
0.0889351
0.0870004
0.0848051
0.0823558
0.0796577
0.0767361
0.0736153
0.0700059
0.0656674
0.00918558
0.00466236
0.000923559
-0.00228955
-0.00528578
-0.00803711
-0.0105133
-0.0127087
-0.0146229
-0.0162562
-0.0176105
-0.01869
-0.0195021
-0.0200548
-0.0203534
-0.0204017
-0.0202031
-0.0197627
-0.0190874
-0.0181847
-0.0170608
-0.015721
-0.0141709
-0.012419
-0.0104766
-0.00835615
-0.0060685
-0.00362244
-0.00102616
0.00171231
0.00458449
0.00758057
0.010691
0.0139061
0.0172147
0.0206054
0.0240658
0.0275808
0.0311359
0.0347187
0.0383183
0.041926
0.0455344
0.0491328
0.052707
0.0562416
0.0597206
0.0631266
0.0664431
0.0696568
0.0727557
0.0757263
0.078555
0.0812302
0.0837406
0.0860732
0.0882136
0.0901491
0.0918684
0.0933595
0.0946102
0.0956106
0.0963543
0.0968373
0.0970546
0.0970005
0.0966704
0.0960616
0.0951719
0.0939977
0.0925348
0.090783
0.0887479
0.0864385
0.083861
0.0810197
0.0779409
0.0746511
0.0708475
0.0662776
0.00777997
0.00302621
-0.000902071
-0.00427567
-0.00741829
-0.0103016
-0.0128948
-0.0151928
-0.0171934
-0.0188975
-0.0203082
-0.0214313
-0.0222749
-0.0228462
-0.0231505
-0.0231917
-0.0229756
-0.0225093
-0.0218
-0.0208533
-0.0196742
-0.0182688
-0.0166455
-0.0148154
-0.0127907
-0.0105825
-0.00820063
-0.00565365
-0.00295085
-0.000101887
0.00288345
0.00599518
0.00922449
0.0125625
0.0159981
0.0195195
0.023113
0.0267629
0.0304548
0.0341767
0.0379177
0.0416687
0.0454209
0.0491624
0.0528788
0.0565555
0.0601777
0.0637288
0.0671924
0.0705535
0.0737976
0.076909
0.0798727
0.082677
0.0853111
0.0877626
0.0900174
0.0920617
0.0938817
0.095463
0.0967914
0.097856
0.0986509
0.099172
0.0994144
0.099372
0.0990395
0.0984126
0.0974875
0.0962599
0.0947269
0.09289
0.0907556
0.0883313
0.0856219
0.0826311
0.079387
0.0759194
0.0719116
0.067098
0.00611222
0.00111912
-0.00300528
-0.0065455
-0.0098405
-0.0128606
-0.0155739
-0.0179753
-0.020063
-0.0218384
-0.0233063
-0.0244733
-0.0253468
-0.0259334
-0.0262389
-0.0262698
-0.0260339
-0.0255384
-0.0247889
-0.0237897
-0.0225465
-0.0210681
-0.0193658
-0.0174516
-0.0153365
-0.0130302
-0.0105425
-0.00788339
-0.0050639
-0.00209489
0.00101362
0.00425216
0.00761251
0.0110858
0.0146605
0.0183238
0.0220616
0.0258586
0.0297009
0.0335765
0.0374739
0.0413828
0.0452924
0.0491899
0.0530611
0.056893
0.060672
0.0643824
0.0680067
0.0715282
0.0749299
0.0781944
0.0813062
0.0842536
0.0870263
0.0896115
0.0919942
0.094159
0.0960901
0.0977711
0.0991865
0.100325
0.101181
0.101751
0.102028
0.102005
0.101674
0.101031
0.100071
0.0987913
0.0971902
0.0952705
0.093037
0.090495
0.087648
0.0845001
0.0810826
0.077429
0.0732066
0.0681364
0.00417174
-0.00107201
-0.00540082
-0.00911429
-0.0125678
-0.0157289
-0.018565
-0.0210712
-0.0232479
-0.0250965
-0.0266223
-0.0278316
-0.0287317
-0.0293297
-0.0296336
-0.0296518
-0.0293925
-0.0288615
-0.0280632
-0.0270027
-0.0256883
-0.0241315
-0.0223443
-0.020338
-0.0181223
-0.0157065
-0.0131018
-0.0103203
-0.00737423
-0.00427473
-0.00103157
0.0023461
0.00584997
0.00947052
0.0131956
0.0170119
0.0209058
0.0248631
0.0288702
0.0329145
0.0369831
0.0410639
0.0451446
0.0492118
0.0532522
0.057254
0.0612048
0.0650885
0.068887
0.0725816
0.0761535
0.0795843
0.0828585
0.0859643
0.0888909
0.0916247
0.0941489
0.096446
0.0984988
0.10029
0.101803
0.103028
0.103957
0.104587
0.104908
0.104911
0.104586
0.10393
0.102937
0.101608
0.0999427
0.0979414
0.0956066
0.0929417
0.0899504
0.0866383
0.0830401
0.0791923
0.0747444
0.0694038
0.00194608
-0.00356146
-0.00810474
-0.011998
-0.0156152
-0.0189219
-0.0218841
-0.0244985
-0.0267665
-0.0286898
-0.0302727
-0.0315215
-0.0324445
-0.0330513
-0.0333512
-0.033353
-0.0330637
-0.0324885
-0.0316325
-0.0305034
-0.0291122
-0.0274713
-0.0255917
-0.0234832
-0.0211555
-0.0186194
-0.0158878
-0.0129741
-0.00989112
-0.00664949
-0.00325904
0.000270496
0.00392996
0.00770913
0.0115956
0.0155766
0.0196395
0.0237709
0.0279575
0.0321852
0.0364392
0.0407057
0.0449717
0.0492238
0.0534494
0.0576376
0.0617758
0.0658475
0.0698337
0.0737146
0.0774705
0.0810824
0.0845348
0.0878153
0.0909119
0.0938089
0.096488
0.0989298
0.101116
0.103029
0.104654
0.105978
0.106995
0.107695
0.10807
0.108105
0.107792
0.107126
0.106107
0.104735
0.103008
0.100923
0.098483
0.0956898
0.0925483
0.0890656
0.0852796
0.0812288
0.076544
0.0709171
-0.000579993
-0.00636485
-0.0111331
-0.0152136
-0.0189998
-0.0224578
-0.0255512
-0.0282777
-0.0306387
-0.0326362
-0.0342743
-0.0355599
-0.0365038
-0.0371169
-0.0374088
-0.0373875
-0.0370594
-0.0364309
-0.0355098
-0.0343063
-0.0328325
-0.0310996
-0.0291174
-0.0268957
-0.0244453
-0.0217791
-0.0189111
-0.0158552
-0.0126238
-0.00922755
-0.00567698
-0.00198317
0.00184358
0.00579273
0.00985242
0.0140108
0.0182562
0.0225759
0.0269561
0.0313812
0.0358346
0.0403013
0.0447678
0.0492211
0.0536492
0.0580409
0.0623827
0.0666576
0.0708459
0.0749276
0.0788827
0.0826922
0.0863399
0.089812
0.0930943
0.0961692
0.0990167
0.101617
0.10395
0.106
0.107751
0.10919
0.110307
0.11109
0.111526
0.111602
0.111308
0.110642
0.109604
0.108193
0.106405
0.104236
0.101686
0.0987599
0.0954638
0.091805
0.0878235
0.0835602
0.0786261
0.0726946
-0.00342367
-0.00949979
-0.0145039
-0.0187806
-0.0227434
-0.0263587
-0.0295888
-0.0324304
-0.0348848
-0.0369551
-0.0386466
-0.0399678
-0.0409305
-0.0415458
-0.0418229
-0.0417695
-0.0413935
-0.0407042
-0.0397119
-0.0384278
-0.0368629
-0.0350276
-0.0329314
-0.0305855
-0.0280027
-0.025197
-0.0221826
-0.0189731
-0.0155808
-0.0120171
-0.008294
-0.004424
-0.000418212
0.00371307
0.00795899
0.0123086
0.0167506
0.0212725
0.0258596
0.0304953
0.0351619
0.0398438
0.044527
0.0491987
0.0538467
0.058459
0.063021
0.0675148
0.0719208
0.0762193
0.0803904
0.0844149
0.0882753
0.0919557
0.0954395
0.0987071
0.101738
0.104511
0.107007
0.10921
0.111103
0.112672
0.113902
0.114779
0.115287
0.115413
0.115149
0.114493
0.113444
0.111999
0.110149
0.107893
0.105232
0.102172
0.098717
0.0948762
0.0906911
0.0862052
0.0810068
0.0747511
-0.00660443
-0.012987
-0.0182393
-0.0227225
-0.0268711
-0.0306495
-0.0340199
-0.0369782
-0.0395263
-0.0416688
-0.0434129
-0.0447682
-0.0457459
-0.0463566
-0.04661
-0.0465156
-0.0460843
-0.0453276
-0.044257
-0.0428831
-0.0412159
-0.0392658
-0.0370441
-0.034564
-0.0318393
-0.028884
-0.0257116
-0.0223359
-0.0187697
-0.0150261
-0.0111184
-0.0070603
-0.002863
0.00146375
0.00590998
0.0104652
0.015118
0.0198554
0.0246622
0.0295213
0.034415
0.0393274
0.044244
0.0491513
0.0540364
0.0588861
0.0636848
0.0684141
0.0730548
0.0775876
0.0819927
0.0862501
0.0903408
0.0942465
0.0979481
0.101424
0.104654
0.107618
0.110295
0.112669
0.11472
0.116433
0.117788
0.118771
0.119363
0.119553
0.119333
0.118698
0.117645
0.116167
0.114259
0.111917
0.109145
0.105947
0.10233
0.0982999
0.0939023
0.0891822
0.0837022
0.0771009
-0.0101447
-0.0168507
-0.0223645
-0.027065
-0.0314075
-0.0353546
-0.0388676
-0.0419442
-0.0445875
-0.0468029
-0.0485987
-0.0499846
-0.0509709
-0.0515688
-0.0517901
-0.0516474
-0.0511538
-0.0503221
-0.0491631
-0.0476869
-0.0459041
-0.0438269
-0.0414687
-0.038844
-0.0359667
-0.0328498
-0.0295067
-0.0259515
-0.0221989
-0.0182631
-0.0141588
-0.00989985
-0.00549728
-0.000960527
0.00370076
0.00847602
0.0133534
0.0183193
0.0233586
0.0284544
0.0335894
0.0387477
0.0439141
0.0490739
0.0542128
0.0593165
0.0643687
0.0693512
0.074245
0.079031
0.083689
0.0881979
0.092537
0.0966858
0.100623
0.104327
0.107776
0.110949
0.113827
0.116389
0.118616
0.120487
0.121983
0.123086
0.123778
0.124048
0.123883
0.123279
0.122228
0.120724
0.118759
0.116335
0.113452
0.110115
0.106329
0.102102
0.0974816
0.0925133
0.0867332
0.0797615
-0.0140686
-0.021117
-0.0269058
-0.031833
-0.0363768
-0.0404982
-0.0441575
-0.0473553
-0.0500958
-0.0523845
-0.0542292
-0.0556397
-0.0566271
-0.0572047
-0.0573871
-0.0571891
-0.0566251
-0.0557073
-0.0544465
-0.0528538
-0.050942
-0.0487257
-0.0462198
-0.0434388
-0.0403959
-0.0371038
-0.0335763
-0.0298287
-0.0258772
-0.0217372
-0.0174235
-0.0129497
-0.0083269
-0.00356476
0.00132655
0.00633593
0.0114512
0.0166588
0.021944
0.0272904
0.0326814
0.0381007
0.0435326
0.0489609
0.05437
0.0597446
0.0650678
0.0703219
0.0754881
0.080547
0.0854775
0.090257
0.0948633
0.0992744
0.103468
0.10742
0.111109
0.114514
0.117613
0.120384
0.122803
0.124849
0.126503
0.127744
0.128554
0.128918
0.128824
0.12826
0.127219
0.125695
0.123682
0.121179
0.118185
0.114705
0.110744
0.106311
0.101455
0.0962222
0.0901227
0.0827532
-0.0183997
-0.0258109
-0.0318888
-0.0370515
-0.0418044
-0.046107
-0.0499185
-0.0532409
-0.0560795
-0.0584395
-0.0603283
-0.0617568
-0.0627387
-0.0632897
-0.0634263
-0.0631644
-0.0625181
-0.0615001
-0.0601224
-0.0583989
-0.0563453
-0.0539777
-0.0513114
-0.0483603
-0.0451371
-0.0416551
-0.0379293
-0.0339767
-0.0298139
-0.0254567
-0.0209197
-0.0162163
-0.0113577
-0.0063548
-0.00121876
0.00403856
0.00940498
0.0148677
0.0204128
0.0260244
0.0316861
0.0373813
0.0430933
0.0488052
0.0545004
0.0601627
0.0657752
0.0713198
0.0767779
0.0821294
0.0873519
0.0924218
0.0973154
0.10201
0.106481
0.110705
0.114659
0.118318
0.12166
0.124659
0.127291
0.129533
0.131364
0.132763
0.13371
0.134185
0.134173
0.133662
0.132643
0.13111
0.129056
0.126476
0.12337
0.119742
0.1156
0.110951
0.105846
0.100333
0.0938927
0.0860978
-0.0231626
-0.0309577
-0.0373402
-0.0427494
-0.0477205
-0.0522121
-0.0561817
-0.059631
-0.0625665
-0.0649938
-0.0669216
-0.0683627
-0.0693333
-0.069851