/*--------------------------------*- C++ -*----------------------------------*\
  =========                 |
  \\      /  F ield         | OpenFOAM: The Open Source CFD Toolbox
   \\    /   O peration     | Website:  https://openfoam.org
    \\  /    A nd           | Version:  7
     \\/     M anipulation  |
\*---------------------------------------------------------------------------*/
FoamFile
{
    version     2.0;
    format      ascii;
    class       volScalarField;
    location    "0.3625";
    object      p;
}
// * * * * * * * * * * * * * * * * * * * * * * * * * * * * * * * * * * * * * //

dimensions      [0 2 -2 0 0 0 0];

internalField   nonuniform List<scalar> 
25600
(
-5.75321e-08
2.04191e-05
2.26013e-05
-3.22923e-06
-5.79142e-05
-0.000140066
-0.000247075
-0.000375778
-0.000522909
-0.000685329
-0.000860094
-0.00104449
-0.00123604
-0.00143248
-0.00163177
-0.00183203
-0.00203159
-0.00222894
-0.00242269
-0.00261162
-0.00279462
-0.00297069
-0.00313895
-0.00329861
-0.00344897
-0.00358941
-0.00371936
-0.00383835
-0.00394595
-0.00404178
-0.00412552
-0.00419689
-0.00425565
-0.00430162
-0.00433462
-0.00435455
-0.00436129
-0.0043548
-0.00433501
-0.00430191
-0.0042555
-0.00419579
-0.00412282
-0.00403665
-0.00393735
-0.00382501
-0.00369971
-0.00356157
-0.00341071
-0.00324726
-0.00307137
-0.00288322
-0.00268297
-0.00247081
-0.00224694
-0.00201157
-0.00176492
-0.00150722
-0.00123872
-0.000959678
-0.000670368
-0.000371076
-6.20967e-05
0.000256245
0.00058362
0.000919681
0.00126406
0.0016164
0.00197631
0.00234339
0.00271722
0.00309737
0.00348338
0.00387481
0.00427117
0.00467197
0.00507672
0.00548488
0.00589591
0.00630927
0.00672439
0.00714067
0.00755756
0.00797443
0.00839068
0.00880571
0.00921889
0.00962957
0.0100371
0.0104409
0.0108402
0.0112345
0.0116231
0.0120053
0.0123804
0.012748
0.0131072
0.0134575
0.0137982
0.0141288
0.0144487
0.0147573
0.0150539
0.0153382
0.0156095
0.0158673
0.0161112
0.0163407
0.0165554
0.0167549
0.0169389
0.0171069
0.0172589
0.0173944
0.0175134
0.0176156
0.0177009
0.0177693
0.0178206
0.0178551
0.0178726
0.0178734
0.0178575
0.0178253
0.017777
0.0177129
0.0176333
0.0175389
0.0174299
0.0173071
0.0171709
0.0170221
0.0168614
0.0166896
0.0165076
0.0163164
0.0161168
0.01591
0.0156971
0.0154793
0.015258
0.0150344
0.0148101
0.0145865
0.0143654
0.0141484
0.0139373
0.0137341
0.0135408
0.0133596
0.0131927
0.0130425
0.0129114
0.0128018
0.0127158
0.0126555
0.0126216
0.0126134
0.0126273
0.0126518
-2.06578e-05
-1.39304e-07
-2.10794e-06
-2.93992e-05
-8.07184e-05
-0.000155285
-0.000251447
-0.000366889
-0.000499049
-0.000645369
-0.00080335
-0.000970618
-0.00114496
-0.00132431
-0.0015068
-0.00169066
-0.00187432
-0.00205634
-0.00223538
-0.00241027
-0.00257991
-0.00274333
-0.00289967
-0.00304814
-0.00318805
-0.00331875
-0.0034397
-0.0035504
-0.00365043
-0.00373938
-0.00381694
-0.00388279
-0.0039367
-0.00397846
-0.00400788
-0.00402484
-0.00402924
-0.00402098
-0.00400001
-0.00396629
-0.00391981
-0.00386056
-0.00378858
-0.00370392
-0.00360663
-0.00349679
-0.00337448
-0.00323979
-0.00309284
-0.00293376
-0.00276268
-0.00257977
-0.00238519
-0.00217912
-0.00196174
-0.00173327
-0.00149391
-0.00124389
-0.000983448
-0.00071283
-0.000432301
-0.000142149
0.000157339
0.000465851
0.000783065
0.00110865
0.00144225
0.00178351
0.00213205
0.00248748
0.00284939
0.00321737
0.00359098
0.00396977
0.00435328
0.00474104
0.00513256
0.00552733
0.00592482
0.0063245
0.00672583
0.00712824
0.00753117
0.00793405
0.00833628
0.00873727
0.00913642
0.00953312
0.00992675
0.0103167
0.0107023
0.011083
0.0114582
0.0118272
0.0121894
0.0125441
0.0128909
0.013229
0.0135579
0.0138771
0.0141859
0.0144838
0.0147702
0.0150447
0.0153067
0.0155558
0.0157915
0.0160134
0.0162211
0.0164143
0.0165925
0.0167555
0.016903
0.0170349
0.0171509
0.0172508
0.0173347
0.0174023
0.0174538
0.017489
0.0175082
0.0175114
0.0174988
0.0174707
0.0174272
0.0173688
0.0172957
0.0172085
0.0171077
0.0169936
0.0168671
0.0167286
0.0165791
0.0164191
0.0162496
0.0160714
0.0158856
0.0156932
0.0154952
0.0152929
0.0150874
0.0148801
0.0146723
0.0144656
0.0142613
0.0140613
0.0138671
0.0136805
0.0135034
0.0133377
0.0131854
0.0130485
0.012929
0.0128287
0.0127493
0.012692
0.0126572
0.012644
0.0126518
0.0126762
-2.29525e-05
1.76747e-06
-1.84474e-07
-2.73199e-05
-7.61256e-05
-0.000145671
-0.000234595
-0.000340955
-0.000462617
-0.00059738
-0.000743071
-0.000897592
-0.00105894
-0.00122524
-0.00139474
-0.00156583
-0.001737
-0.00190688
-0.0020742
-0.00223783
-0.0023967
-0.00254989
-0.00269654
-0.00283588
-0.00296721
-0.00308992
-0.00320345
-0.0033073
-0.00340103
-0.00348427
-0.00355666
-0.00361791
-0.00366775
-0.00370597
-0.00373238
-0.00374685
-0.00374926
-0.00373951
-0.00371753
-0.00368328
-0.00363672
-0.00357787
-0.00350672
-0.00342333
-0.00332774
-0.00322002
-0.00310023
-0.00296847
-0.00282485
-0.00266947
-0.00250248
-0.00232403
-0.00213427
-0.00193338
-0.00172153
-0.00149892
-0.00126577
-0.00102228
-0.000768689
-0.000505236
-0.000232177
5.02092e-05
0.000341636
0.000641803
0.000950393
0.00126709
0.00159155
0.00192341
0.00226232
0.00260789
0.00295972
0.0033174
0.00368051
0.00404863
0.0044213
0.00479805
0.00517842
0.0055619
0.00594799
0.00633617
0.0067259
0.00711665
0.00750787
0.00789899
0.00828946
0.0086787
0.0090661
0.00945109
0.00983308
0.0102115
0.0105856
0.010955
0.011319
0.0116769
0.0120283
0.0123725
0.0127088
0.0130369
0.013356
0.0136656
0.0139652
0.0142542
0.0145322
0.0147986
0.0150529
0.0152948
0.0155237
0.0157393
0.0159412
0.016129
0.0163025
0.0164613
0.0166052
0.016734
0.0168475
0.0169456
0.0170282
0.0170952
0.0171467
0.0171826
0.0172031
0.0172083
0.0171983
0.0171735
0.017134
0.0170801
0.0170124
0.0169311
0.0168368
0.0167299
0.0166111
0.0164811
0.0163405
0.0161901
0.0160306
0.0158631
0.0156884
0.0155074
0.0153214
0.0151314
0.0149385
0.0147441
0.0145494
0.0143558
0.0141648
0.0139779
0.0137967
0.0136229
0.013458
0.0133039
0.0131624
0.0130351
0.0129238
0.0128301
0.0127554
0.0127006
0.0126662
0.0126517
0.0126595
0.0126901
2.72779e-06
2.89998e-05
2.69181e-05
-2.33195e-07
-4.77254e-05
-0.000114324
-0.000198678
-0.000298998
-0.000413367
-0.000539839
-0.000676477
-0.000821392
-0.000972765
-0.00112888
-0.00128813
-0.00144899
-0.00161006
-0.00177004
-0.00192772
-0.00208202
-0.00223192
-0.00237652
-0.00251499
-0.00264658
-0.00277062
-0.00288649
-0.00299364
-0.00309159
-0.0031799
-0.00325818
-0.00332608
-0.0033833
-0.00342959
-0.00346471
-0.00348848
-0.00350076
-0.00350142
-0.00349036
-0.00346749
-0.00343276
-0.00338615
-0.00332764
-0.00325724
-0.00317498
-0.00308091
-0.00297507
-0.00285754
-0.0027284
-0.00258774
-0.00243569
-0.00227235
-0.00209789
-0.00191244
-0.00171618
-0.00150927
-0.00129192
-0.00106431
-0.000826665
-0.000579199
-0.00032215
-5.57702e-05
0.000219676
0.000503906
0.000796623
0.00109753
0.00140629
0.0017226
0.0020461
0.00237644
0.00271323
0.0030561
0.00340463
0.00375844
0.00411709
0.00448014
0.00484715
0.00521765
0.00559115
0.00596716
0.00634519
0.0067247
0.00710517
0.00748607
0.00786686
0.00824698
0.00862588
0.00900298
0.00937771
0.00974949
0.0101177
0.0104819
0.0108414
0.0111955
0.0115439
0.0118858
0.0122207
0.012548
0.0128672
0.0131778
0.0134791
0.0137707
0.0140521
0.0143227
0.014582
0.0148297
0.0150653
0.0152883
0.0154985
0.0156953
0.0158786
0.0160479
0.016203
0.0163438
0.0164699
0.0165813
0.0166777
0.0167592
0.0168257
0.0168772
0.0169136
0.0169352
0.0169421
0.0169343
0.0169122
0.016876
0.0168261
0.0167628
0.0166865
0.0165976
0.0164968
0.0163846
0.0162617
0.0161286
0.0159861
0.0158351
0.0156764
0.0155109
0.0153396
0.0151634
0.0149835
0.014801
0.0146171
0.0144331
0.0142502
0.0140698
0.0138935
0.0137225
0.0135585
0.0134031
0.0132578
0.0131243
0.0130041
0.0128987
0.0128096
0.0127381
0.0126852
0.0126515
0.0126371
0.0126463
0.0126821
5.72763e-05
8.03143e-05
7.57381e-05
4.71949e-05
-3.7285e-07
-6.55544e-05
-0.000146994
-0.000243019
-0.000351883
-0.000471841
-0.000601153
-0.000738118
-0.00088109
-0.0010285
-0.00117885
-0.00133075
-0.00148288
-0.00163402
-0.00178304
-0.0019289
-0.00207063
-0.00220738
-0.00233833
-0.00246277
-0.00258004
-0.00268954
-0.00279074
-0.00288316
-0.00296637
-0.00303999
-0.00310365
-0.00315707
-0.00319998
-0.00323217
-0.00325344
-0.00326364
-0.00326263
-0.00325032
-0.00322661
-0.00319145
-0.00314479
-0.00308662
-0.00301695
-0.0029358
-0.0028432
-0.00273921
-0.00262387
-0.00249728
-0.00235952
-0.00221069
-0.00205091
-0.00188032
-0.00169907
-0.00150732
-0.00130522
-0.00109298
-0.000870765
-0.000638794
-0.000397281
-0.000146454
0.000113438
0.00038214
0.000659382
0.000944872
0.00123832
0.00153941
0.00184781
0.00216321
0.00248525
0.00281356
0.00314776
0.00348747
0.00383228
0.0041818
0.00453559
0.0048932
0.0052542
0.0056181
0.00598442
0.00635269
0.00672238
0.00709299
0.00746401
0.00783489
0.0082051
0.00857411
0.00894134
0.00930626
0.0096683
0.0100269
0.0103815
0.0107315
0.0110764
0.0114155
0.0117485
0.0120746
0.0123933
0.0127041
0.0130066
0.0133
0.013584
0.0138581
0.0141217
0.0143744
0.0146158
0.0148454
0.0150629
0.0152679
0.0154599
0.0156388
0.0158042
0.0159559
0.0160937
0.0162173
0.0163266
0.0164215
0.0165019
0.0165678
0.0166192
0.0166562
0.0166788
0.0166871
0.0166814
0.0166618
0.0166287
0.0165823
0.0165231
0.0164514
0.0163676
0.0162723
0.0161662
0.0160496
0.0159235
0.0157883
0.015645
0.0154944
0.0153372
0.0151746
0.0150074
0.0148366
0.0146635
0.014489
0.0143144
0.014141
0.01397
0.0138028
0.0136408
0.0134853
0.0133379
0.0131999
0.013073
0.0129584
0.0128577
0.0127721
0.0127028
0.012651
0.0126174
0.0126025
0.0126116
0.0126486
0.000139441
0.000155039
0.000145434
0.00011381
6.45979e-05
-7.39565e-07
-8.08719e-05
-0.000174242
-0.000279268
-0.000394366
-0.00051797
-0.000648547
-0.000784609
-0.000924719
-0.00106751
-0.00121169
-0.00135604
-0.00149941
-0.00164075
-0.00177907
-0.00191347
-0.00204311
-0.00216724
-0.00228515
-0.00239621
-0.00249986
-0.00259557
-0.00268287
-0.00276134
-0.00283061
-0.00289032
-0.00294018
-0.00297994
-0.00300937
-0.00302829
-0.00303654
-0.00303398
-0.0030205
-0.00299601
-0.00296045
-0.00291377
-0.00285596
-0.00278701
-0.00270693
-0.00261577
-0.00251356
-0.00240037
-0.00227624
-0.00214128
-0.00199558
-0.00183925
-0.00167242
-0.00149523
-0.00130783
-0.00111039
-0.000903084
-0.000686091
-0.000459608
-0.000223851
2.09625e-05
0.000274593
0.000536783
0.000807279
0.0010858
0.00137205
0.00166574
0.00196655
0.00227414
0.0025882
0.00290834
0.00323422
0.00356545
0.00390165
0.0042424
0.00458731
0.00493593
0.00528783
0.00564255
0.00599962
0.00635856
0.00671888
0.00708009
0.00744168
0.00780313
0.00816392
0.00852352
0.00888139
0.00923699
0.00958978
0.00993921
0.0102847
0.0106258
0.0109619
0.0112924
0.0116168
0.0119346
0.0122452
0.0125481
0.0128429
0.013129
0.0134058
0.013673
0.01393
0.0141765
0.014412
0.014636
0.0148482
0.0150483
0.0152359
0.0154107
0.0155724
0.0157209
0.0158558
0.015977
0.0160844
0.0161778
0.0162572
0.0163225
0.0163739
0.0164112
0.0164346
0.0164443
0.0164404
0.0164232
0.0163928
0.0163497
0.0162941
0.0162266
0.0161474
0.0160572
0.0159565
0.0158458
0.0157259
0.0155973
0.015461
0.0153176
0.015168
0.0150131
0.0148539
0.0146913
0.0145264
0.0143603
0.014194
0.0140288
0.0138659
0.0137066
0.0135521
0.0134038
0.013263
0.0131311
0.0130093
0.0128991
0.0128017
0.0127184
0.0126504
0.0125987
0.0125642
0.0125477
0.0125547
0.0125889
0.000246784
0.000251653
0.000234758
0.000198366
0.000145931
7.88772e-05
-1.50882e-06
-9.38016e-05
-0.000196569
-0.000308383
-0.000427834
-0.000553531
-0.00068413
-0.000818328
-0.000954872
-0.00109257
-0.00123029
-0.00136698
-0.00150164
-0.00163335
-0.00176127
-0.0018846
-0.00200262
-0.00211466
-0.00222013
-0.00231847
-0.00240918
-0.00249181
-0.00256594
-0.00263121
-0.00268728
-0.00273387
-0.00277072
-0.00279761
-0.00281436
-0.0028208
-0.00281681
-0.00280226
-0.00277707
-0.00274116
-0.00269449
-0.00263704
-0.0025688
-0.00248979
-0.00240002
-0.00229954
-0.0021884
-0.00206667
-0.0019344
-0.00179171
-0.00163869
-0.00147548
-0.00130219
-0.00111899
-0.000926024
-0.000723461
-0.000511479
-0.000290266
-6.00313e-05
0.000179011
0.000426635
0.00068259
0.000946623
0.00121847
0.00149784
0.00178445
0.00207799
0.00237814
0.00268456
0.00299692
0.00331487
0.00363802
0.00396601
0.00429843
0.00463489
0.00497497
0.00531824
0.00566425
0.00601254
0.00636266
0.00671411
0.00706643
0.00741911
0.00777166
0.00812355
0.00847429
0.00882333
0.00917017
0.00951426
0.00985508
0.0101921
0.0105248
0.0108526
0.011175
0.0114914
0.0118014
0.0121045
0.0124
0.0126876
0.0129667
0.0132369
0.0134977
0.0137486
0.0139893
0.0142192
0.014438
0.0146454
0.0148409
0.0150243
0.0151953
0.0153536
0.015499
0.0156313
0.0157502
0.0158558
0.0159478
0.0160262
0.016091
0.0161422
0.0161798
0.016204
0.0162149
0.0162126
0.0161974
0.0161695
0.0161293
0.0160771
0.0160132
0.0159382
0.0158525
0.0157566
0.0156512
0.0155368
0.0154141
0.0152839
0.015147
0.015004
0.014856
0.0147038
0.0145483
0.0143906
0.0142316
0.0140725
0.0139144
0.0137584
0.0136056
0.0134574
0.0133149
0.0131793
0.013052
0.0129342
0.012827
0.0127318
0.0126495
0.0125815
0.0125289
0.0124923
0.012473
0.0124757
0.012504
0.000376317
0.000367984
0.000341895
0.000299184
0.000242057
0.000171848
8.97771e-05
-2.87114e-06
-0.00010481
-0.00021476
-0.000331452
-0.000453638
-0.000580098
-0.000709647
-0.000841148
-0.000973505
-0.00110568
-0.00123669
-0.00136562
-0.00149161
-0.00161386
-0.00173163
-0.00184423
-0.00195104
-0.00205149
-0.00214506
-0.00223125
-0.00230964
-0.00237982
-0.00244145
-0.0024942
-0.00253778
-0.00257196
-0.00259652
-0.00261129
-0.00261609
-0.00261079
-0.00259527
-0.00256945
-0.00253326
-0.00248664
-0.00242957
-0.00236204
-0.00228406
-0.00219566
-0.00209686
-0.00198772
-0.00186828
-0.00173863
-0.00159883
-0.00144901
-0.00128928
-0.00111975
-0.000940582
-0.000751914
-0.000553907
-0.000346737
-0.000130583
9.43536e-05
0.000327863
0.000569725
0.000819705
0.00107755
0.00134301
0.0016158
0.00189564
0.00218223
0.00247527
0.00277442
0.00307936
0.00338975
0.00370521
0.00402539
0.00434989
0.00467834
0.0050103
0.00534538
0.00568313
0.00602312
0.00636488
0.00670796
0.00705188
0.00739616
0.00774031
0.00808382
0.00842621
0.00876696
0.00910556
0.00944149
0.00977423
0.0101033
0.0104281
0.0107481
0.0110629
0.0113719
0.0116747
0.0119706
0.0122593
0.0125402
0.0128129
0.0130769
0.0133317
0.0135769
0.0138121
0.0140369
0.0142509
0.0144537
0.014645
0.0148246
0.014992
0.0151471
0.0152897
0.0154194
0.0155363
0.0156401
0.0157308
0.0158083
0.0158725
0.0159236
0.0159614
0.0159863
0.0159981
0.0159973
0.0159839
0.0159582
0.0159205
0.0158712
0.0158107
0.0157393
0.0156575
0.015566
0.0154652
0.0153557
0.0152383
0.0151135
0.0149822
0.014845
0.014703
0.0145568
0.0144075
0.0142559
0.0141031
0.01395
0.0137978
0.0136474
0.0135001
0.0133569
0.0132189
0.0130874
0.0129635
0.0128483
0.012743
0.0126487
0.0125665
0.0124974
0.0124426
0.0124029
0.0123793
0.0123759
0.0123956
0.000524987
0.00050165
0.000464843
0.000414474
0.00035135
0.000276689
0.00019165
9.7363e-05
-5.03237e-06
-0.000114392
-0.000229583
-0.000349486
-0.000473001
-0.000599057
-0.000726617
-0.000854684
-0.000982307
-0.00110858
-0.00123266
-0.00135375
-0.0014711
-0.00158402
-0.00169187
-0.00179406
-0.00189005
-0.00197935
-0.00206149
-0.00213606
-0.00220268
-0.00226101
-0.00231073
-0.00235159
-0.00238335
-0.0024058
-0.00241876
-0.00242207
-0.00241559
-0.00239922
-0.00237286
-0.00233644
-0.00228991
-0.00223324
-0.00216644
-0.00208949
-0.00200242
-0.00190526
-0.00179805
-0.00168085
-0.00155371
-0.00141672
-0.00126998
-0.00111359
-0.000947688
-0.000772397
-0.000587862
-0.000394237
-0.000191687
1.96088e-05
0.000239461
0.000467667
0.000704008
0.000948262
0.00120019
0.00145953
0.00172603
0.00199941
0.00227937
0.00256562
0.00285784
0.00315571
0.00345889
0.00376705
0.0040798
0.00439678
0.00471761
0.00504188
0.0053692
0.00569914
0.00603127
0.00636514
0.00670031
0.0070363
0.00737266
0.00770889
0.00804453
0.00837907
0.00871202
0.00904289
0.00937116
0.00969633
0.0100179
0.0103353
0.0106482
0.0109559
0.0112579
0.0115539
0.0118433
0.0121255
0.0124002
0.0126669
0.0129251
0.0131744
0.0134143
0.0136445
0.0138645
0.014074
0.0142726
0.01446
0.0146359
0.0148001
0.0149522
0.0150922
0.0152196
0.0153346
0.0154368
0.0155262
0.0156027
0.0156664
0.0157173
0.0157553
0.0157806
0.0157934
0.0157937
0.0157819
0.0157581
0.0157227
0.015676
0.0156183
0.0155501
0.0154719
0.0153842
0.0152874
0.0151822
0.0150693
0.0149492
0.0148228
0.0146907
0.0145538
0.0144128
0.0142687
0.0141224
0.0139747
0.0138266
0.0136792
0.0135335
0.0133904
0.0132511
0.0131166
0.0129879
0.0128663
0.0127526
0.0126481
0.0125536
0.0124703
0.0123991
0.012341
0.0122969
0.0122679
0.0122569
0.0122658
0.000689862
0.000650255
0.000601555
0.000542413
0.000472166
0.000391925
0.00030278
0.00020571
0.000101712
-8.20362e-06
-0.000123027
-0.000241759
-0.000363414
-0.000487026
-0.000611658
-0.000736405
-0.0008604
-0.000982817
-0.00110287
-0.00121983
-0.00133301
-0.00144176
-0.00154548
-0.00164363
-0.0017357
-0.00182123
-0.00189977
-0.00197093
-0.00203436
-0.00208972
-0.00213674
-0.00217515
-0.00220472
-0.00222527
-0.00223661
-0.00223858
-0.00223107
-0.00221395
-0.00218713
-0.00215056
-0.00210417
-0.00204794
-0.00198186
-0.00190594
-0.00182018
-0.00172463
-0.0016193
-0.00150426
-0.00137955
-0.00124527
-0.0011015
-0.000948348
-0.000785929
-0.000614371
-0.000433809
-0.000244395
-4.62831e-05
0.000160354
0.000375328
0.000598451
0.000829511
0.00106829
0.00131455
0.00156805
0.00182854
0.00209575
0.00236938
0.00264916
0.00293478
0.00322593
0.00352227
0.00382347
0.00412917
0.00443902
0.00475263
0.00506963
0.00538961
0.00571216
0.00603686
0.00636329
0.006691
0.00701953
0.00734843
0.00767723
0.00800546
0.00833265
0.0086583
0.00898192
0.00930303
0.00962112
0.00993569
0.0102463
0.0105524
0.0108535
0.0111491
0.0114388
0.011722
0.0119983
0.0122672
0.0125283
0.0127812
0.0130253
0.0132604
0.0134859
0.0137015
0.0139068
0.0141016
0.0142854
0.014458
0.0146191
0.0147685
0.014906
0.0150313
0.0151444
0.0152451
0.0153333
0.015409
0.0154721
0.0155227
0.0155609
0.0155866
0.0156001
0.0156015
0.015591
0.0155689
0.0155354
0.0154909
0.0154358
0.0153704
0.0152952
0.0152107
0.0151175
0.015016
0.014907
0.014791
0.0146687
0.0145409
0.0144083
0.0142717
0.014132
0.0139899
0.0138465
0.0137025
0.0135589
0.0134168
0.0132769
0.0131405
0.0130083
0.0128815
0.012761
0.0126479
0.012543
0.0124474
0.0123619
0.0122876
0.0122253
0.0121758
0.0121401
0.0121203
0.0121171
0.000868205
0.000811471
0.000749999
0.000681185
0.000602873
0.000516082
0.00042184
0.00032098
0.000214361
0.000102869
-1.26011e-05
-0.000131163
-0.000251941
-0.000374068
-0.000496698
-0.000619015
-0.000740233
-0.0008596
-0.000976402
-0.00108996
-0.00119965
-0.00130486
-0.00140506
-0.00149973
-0.0015884
-0.00167062
-0.001746
-0.00181416
-0.00187475
-0.00192749
-0.00197209
-0.00200831
-0.00203595
-0.0020548
-0.00206471
-0.00206551
-0.00205709
-0.00203934
-0.00201216
-0.0019755
-0.00192931
-0.00187355
-0.00180822
-0.00173332
-0.00164886
-0.00155487
-0.00145138
-0.00133844
-0.0012161
-0.00108443
-0.00094353
-0.000793492
-0.00063443
-0.000466465
-0.000289722
-0.000104349
8.95009e-05
0.000291669
0.000501972
0.000720225
0.00094623
0.00117977
0.00142062
0.00166855
0.00192331
0.00218463
0.00245224
0.00272586
0.0030052
0.00328996
0.0035798
0.00387441
0.00417343
0.00447652
0.00478331
0.00509342
0.00540647
0.00572205
0.00603977
0.00635919
0.00667988
0.00700139
0.0073233
0.00764513
0.00796642
0.00828672
0.00860554
0.0089224
0.00923682
0.00954831
0.0098564
0.0101606
0.0104604
0.0107554
0.011045
0.0113289
0.0116064
0.0118772
0.0121408
0.0123968
0.0126447
0.0128841
0.0131147
0.0133359
0.0135474
0.0137489
0.0139401
0.0141206
0.0142901
0.0144485
0.0145953
0.0147306
0.0148539
0.0149653
0.0150646
0.0151517
0.0152266
0.0152892
0.0153395
0.0153777
0.0154037
0.0154178
0.0154201
0.0154107
0.01539
0.0153582
0.0153156
0.0152627
0.0151997
0.0151271
0.0150454
0.0149551
0.0148568
0.0147511
0.0146385
0.0145197
0.0143955
0.0142665
0.0141335
0.0139973
0.0138587
0.0137186
0.0135778
0.0134371
0.0132976
0.0131601
0.0130255
0.0128947
0.0127687
0.0126485
0.0125349
0.0124287
0.012331
0.0122425
0.0121641
0.0120966
0.0120408
0.0119976
0.0119679
0.0119514
0.00105751
0.000983085
0.000908204
0.000829016
0.000741868
0.000647703
0.000547511
0.000441988
0.000331854
0.000217884
0.000100861
-1.84318e-05
-0.000139215
-0.00026072
-0.000382195
-0.000502902
-0.000622131
-0.0007392
-0.000853463
-0.000964301
-0.00107114
-0.00117343
-0.00127066
-0.00136238
-0.00144813
-0.00152751
-0.00160014
-0.00166567
-0.00172379
-0.00177422
-0.0018167
-0.00185101
-0.00187694
-0.00189431
-0.00190296
-0.00190275
-0.00189356
-0.00187529
-0.00184785
-0.00181118
-0.00176523
-0.00170998
-0.00164542
-0.00157155
-0.00148838
-0.00139593
-0.00129424
-0.00118334
-0.00106329
-0.000934152
-0.000796022
-0.00064899
-0.000493159
-0.000328649
-0.000155581
2.59105e-05
0.000215675
0.000413558
0.000619387
0.000832983
0.00105415
0.00128269
0.00151838
0.00176099
0.00201028
0.002266
0.00252788
0.00279565
0.00306903
0.00334772
0.00363141
0.00391977
0.00421248
0.00450918
0.00480952
0.00511313
0.00541965
0.00572868
0.00603981
0.00635265
0.00666675
0.0069817
0.00729705
0.00761236
0.00792717
0.00824104
0.00855349
0.00886405
0.00917226
0.00947762
0.00977969
0.010078
0.010372
0.0106613
0.0109454
0.0112239
0.0114962
0.0117619
0.0120206
0.0122719
0.0125153
0.0127503
0.0129767
0.013194
0.0134018
0.0135998
0.0137877
0.0139652
0.0141319
0.0142877
0.0144323
0.0145654
0.014687
0.0147968
0.0148948
0.0149809
0.0150549
0.015117
0.0151671
0.0152052
0.0152315
0.015246
0.015249
0.0152406
0.0152211
0.0151907
0.0151497
0.0150986
0.0150376
0.0149672
0.0148878
0.0148001
0.0147044
0.0146014
0.0144916
0.0143757
0.0142543
0.0141282
0.0139981
0.0138647
0.0137288
0.0135912
0.0134527
0.0133141
0.0131763
0.0130402
0.0129065
0.0127763
0.0126503
0.0125293
0.0124143
0.0123061
0.0122053
0.012113
0.0120297
0.0119562
0.0118933
0.0118419
0.0118014
0.0117708
0.00125547
0.00116303
0.0010743
0.000984192
0.000887591
0.000785375
0.000678504
0.000567555
0.000453132
0.000335892
0.000216516
9.5692e-05
-2.58964e-05
-0.000147567
-0.000268651
-0.00038849
-0.000506448
-0.000621912
-0.000734295
-0.000843043
-0.000947627
-0.00104756
-0.00114237
-0.00123162
-0.00131493
-0.00139189
-0.00146218
-0.00152546
-0.00158145
-0.00162988
-0.00167052
-0.00170317
-0.00172762
-0.00174371
-0.0017513
-0.00175023
-0.00174041
-0.00172174
-0.00169412
-0.00165752
-0.00161188
-0.00155719
-0.00149342
-0.00142059
-0.0013387
-0.00124777
-0.00114783
-0.00103892
-0.000921091
-0.000794411
-0.000658958
-0.000514825
-0.000362109
-0.000200922
-3.13836e-05
0.000146379
0.000332225
0.000526005
0.000727551
0.000936694
0.00115324
0.001377
0.00160777
0.00184531
0.0020894
0.00233979
0.00259623
0.00285845
0.00312618
0.00339913
0.00367699
0.00395945
0.00424618
0.00453685
0.00483112
0.00512862
0.005429
0.00573186
0.00603683
0.00634349
0.00665143
0.00696022
0.00726946
0.00757869
0.00788747
0.00819536
0.0085019
0.00880661
0.00910905
0.00940875
0.00970525
0.00999808
0.0102868
0.0105708
0.0108499
0.0111234
0.0113909
0.0116519
0.0119062
0.0121531
0.0123924
0.0126235
0.0128461
0.0130598
0.0132642
0.0134591
0.013644
0.0138187
0.0139829
0.0141363
0.0142788
0.0144101
0.01453
0.0146384
0.0147352
0.0148203
0.0148936
0.0149551
0.0150049
0.015043
0.0150694
0.0150843
0.0150879
0.0150802
0.0150617
0.0150324
0.0149928
0.0149431
0.0148838
0.0148152
0.0147378
0.014652
0.0145585
0.0144576
0.0143501
0.0142365
0.0141174
0.0139935
0.0138656
0.0137342
0.0136003
0.0134644
0.0133274
0.0131901
0.0130532
0.0129177
0.0127842
0.0126536
0.0125267
0.0124042
0.012287
0.0121758
0.0120714
0.0119743
0.0118854
0.0118053
0.0117346
0.0116742
0.0116225
0.0115773
0.00146001
0.0013494
0.0012465
0.00114508
0.00103853
0.000927716
0.000813564
0.000696543
0.00057715
0.000455948
0.000333516
0.00021045
8.73473e-05
-3.51928e-05
-0.000156579
-0.00027623
-0.000393578
-0.000508074
-0.000619193
-0.000726437
-0.00082933
-0.000927427
-0.00102031
-0.00110758
-0.00118887
-0.00126384
-0.00133216
-0.00139354
-0.00144773
-0.00149446
-0.00153355
-0.00156478
-0.00158798
-0.00160299
-0.00160968
-0.00160792
-0.0015976
-0.00157864
-0.00155096
-0.0015145
-0.00146923
-0.00141513
-0.00135219
-0.00128041
-0.00119979
-0.00111036
-0.00101214
-0.000905177
-0.00078951
-0.000665208
-0.000532345
-0.000391008
-0.000241293
-8.33048e-05
8.28449e-05
0.00025703
0.000439119
0.00062897
0.000826421
0.00103131
0.00124345
0.00146266
0.00168873
0.00192145
0.00216059
0.00240592
0.0026572
0.00291416
0.00317654
0.00344405
0.00371641
0.00399329
0.0042744
0.0045594
0.00484795
0.00513972
0.00543433
0.00573143
0.00603061
0.0063315
0.00663369
0.00693676
0.0072403
0.00754388
0.00784706
0.00814941
0.00845046
0.00874978
0.00904691
0.00934139
0.00963276
0.00992057
0.0102044
0.0104837
0.010758
0.011027
0.0112901
0.011547
0.0117971
0.0120401
0.0122756
0.0125031
0.0127223
0.0129328
0.0131342
0.0133261
0.0135084
0.0136806
0.0138425
0.0139939
0.0141345
0.014264
0.0143825
0.0144896
0.0145853
0.0146695
0.0147421
0.0148031
0.0148526
0.0148906
0.0149171
0.0149323
0.0149362
0.0149292
0.0149114
0.0148831
0.0148445
0.014796
0.014738
0.0146708
0.014595
0.0145108
0.0144189
0.0143198
0.014214
0.014102
0.0139846
0.0138624
0.0137359
0.013606
0.0134732
0.0133384
0.0132022
0.0130654
0.0129288
0.012793
0.0126589
0.0125271
0.0123986
0.0122739
0.0121537
0.0120389
0.01193
0.0118276
0.0117324
0.011645
0.011566
0.0114962
0.0114328
0.0113726
0.00166922
0.00154039
0.00142317
0.00131013
0.00119327
0.0010734
0.000951465
0.000827831
0.000702891
0.000577119
0.000451011
0.000325072
0.00019982
7.57783e-05
-4.65356e-05
-0.000166611
-0.000283946
-0.000398057
-0.000508474
-0.000614758
-0.000716479
-0.000813238
-0.000904659
-0.000990383
-0.00107008
-0.00114343
-0.00121015
-0.00126998
-0.00132267
-0.001368
-0.00140578
-0.00143584
-0.00145801
-0.00147214
-0.00147812
-0.00147581
-0.00146513
-0.001446
-0.00141834
-0.00138211
-0.00133728
-0.00128382
-0.00122173
-0.00115101
-0.00107166
-0.000983717
-0.000887191
-0.000782124
-0.000668562
-0.000546564
-0.000416207
-0.00027757
-0.000130746
2.41646e-05
0.000187058
0.000357814
0.000536305
0.000722395
0.000915931
0.00111675
0.00132469
0.00153956
0.00176117
0.00198931
0.00222375
0.00246429
0.00271067
0.00296265
0.00321998
0.00348236
0.00374953
0.00402117
0.00429698
0.00457665
0.00485984
0.00514623
0.00543546
0.00572716
0.00602096
0.00631647
0.00661331
0.00691106
0.00720933
0.00750767
0.00780568
0.0081029
0.00839892
0.00869326
0.00898551
0.0092752
0.00956188
0.0098451
0.0101244
0.0103994
0.0106695
0.0109343
0.0111935
0.0114465
0.011693
0.0119325
0.0121646
0.0123889
0.012605
0.0128126
0.0130112
0.0132006
0.0133805
0.0135505
0.0137104
0.0138599
0.0139988
0.0141268
0.0142439
0.0143499
0.0144446
0.014528
0.0146
0.0146606
0.0147098
0.0147476
0.0147741
0.0147894
0.0147937
0.0147872
0.01477
0.0147423
0.0147046
0.014657
0.0146
0.0145339
0.0144592
0.0143762
0.0142855
0.0141876
0.014083
0.0139723
0.013856
0.0137347
0.0136092
0.01348
0.0133479
0.0132134
0.0130773
0.0129404
0.0128032
0.0126665
0.012531
0.0123975
0.0122665
0.0121389
0.0120151
0.011896
0.011782
0.0116737
0.0115717
0.0114765
0.0113887
0.0113091
0.0112337
0.0111583
0.00188135
0.00173438
0.00160275
0.00147789
0.00135042
0.00122115
0.00109103
0.000960325
0.000829347
0.000698487
0.000568159
0.000438793
0.000310832
0.000184725
6.09219e-05
-6.01331e-05
-0.000178
-0.000292256
-0.00040249
-0.00050831
-0.000609339
-0.000705219
-0.000795615
-0.000880205
-0.000958694
-0.0010308
-0.00109627
-0.00115485
-0.00120635
-0.00125055
-0.00128729
-0.00131641
-0.00133775
-0.0013512
-0.00135662
-0.00135392
-0.00134302
-0.00132382
-0.00129629
-0.00126037
-0.00121603
-0.00116326
-0.00110206
-0.00103241
-0.000954344
-0.000867868
-0.000773007
-0.000669797
-0.000558285
-0.000438526
-0.000310593
-0.000174564
-3.05259e-05
0.000121426
0.000281192
0.00044866
0.000623706
0.0008062
0.000995998
0.00119295
0.00139688
0.00160763
0.00182499
0.00204877
0.00227877
0.00251476
0.00275652
0.0030038
0.00325635
0.00351391
0.00377619
0.0040429
0.00431375
0.00458842
0.00486661
0.00514797
0.00543217
0.00571885
0.00600764
0.00629817
0.00659005
0.00688289
0.00717627
0.00746979
0.00776303
0.00805556
0.00834695
0.00863675
0.00892454
0.00920987
0.00949228
0.00977134
0.0100466
0.0103176
0.0105839
0.0108451
0.0111007
0.0113503
0.0115934
0.0118298
0.0120588
0.0122803
0.0124937
0.0126987
0.0128949
0.0130821
0.0132598
0.0134279
0.013586
0.0137338
0.0138713
0.013998
0.0141139
0.0142189
0.0143128
0.0143954
0.0144669
0.014527
0.0145759
0.0146136
0.0146401
0.0146555
0.01466
0.0146538
0.014637
0.0146099
0.0145727
0.0145258
0.0144695
0.0144042
0.0143302
0.0142481
0.0141582
0.014061
0.0139572
0.0138471
0.0137314
0.0136107
0.0134855
0.0133565
0.0132243
0.0130896
0.012953
0.0128152
0.0126768
0.0125386
0.0124011
0.0122651
0.0121311
0.0119999
0.0118719
0.0117479
0.0116282
0.0115135
0.0114042
0.0113007
0.0112038
0.0111141
0.0110265
0.0109359
0.00209483
0.00192984
0.00178379
0.00164699
0.00150871
0.00136977
0.00123113
0.00109298
0.000955546
0.000819149
0.000684132
0.000550855
0.000419689
0.000291015
0.000165221
4.26862e-05
-7.62083e-05
-0.000191095
-0.000301618
-0.000407433
-0.000508211
-0.000603634
-0.000693407
-0.000777249
-0.000854896
-0.000926101
-0.000990635
-0.00104829
-0.00109887
-0.00114221
-0.00117815
-0.00120655
-0.00122728
-0.00124021
-0.00124526
-0.00124231
-0.0012313
-0.00121216
-0.00118485
-0.00114931
-0.00110554
-0.00105351
-0.000993217
-0.000924671
-0.000847881
-0.000762864
-0.000669643
-0.000568253
-0.000458739
-0.000341156
-0.000215571
-8.20611e-05
5.92927e-05
0.000208399
0.000365164
0.000529479
0.000701229
0.000880289
0.00106652
0.00125978
0.0014599
0.00166673
0.00188006
0.00209972
0.00232551
0.00255721
0.0027946
0.00303745
0.00328551
0.00353852
0.00379622
0.00405831
0.00432451
0.00459452
0.00486804
0.00514472
0.00542425
0.00570627
0.00599042
0.00627635
0.00656365
0.00685196
0.00714087
0.00742996
0.00771884
0.00800708
0.00829425
0.00857993
0.00886367
0.00914504
0.0094236
0.00969892
0.00997053
0.010238
0.0105009
0.0107588
0.0110112
0.0112578
0.011498
0.0117316
0.011958
0.0121769
0.0123879
0.0125907
0.0127848
0.01297
0.013146
0.0133123
0.0134689
0.0136154
0.0137515
0.0138771
0.0139921
0.0140962
0.0141893
0.0142714
0.0143423
0.0144021
0.0144507
0.0144882