/*--------------------------------*- C++ -*----------------------------------*\
  =========                 |
  \\      /  F ield         | OpenFOAM: The Open Source CFD Toolbox
   \\    /   O peration     | Website:  https://openfoam.org
    \\  /    A nd           | Version:  7
     \\/     M anipulation  |
\*---------------------------------------------------------------------------*/
FoamFile
{
    version     2.0;
    format      ascii;
    class       surfaceScalarField;
    location    "0.3625";
    object      phi;
}
// * * * * * * * * * * * * * * * * * * * * * * * * * * * * * * * * * * * * * //

dimensions      [0 3 -1 0 0 0 0];

internalField   nonuniform List<scalar> 
50880
(
7.01767e-12
-6.97287e-12
3.71865e-11
-3.01719e-11
8.05261e-11
-4.3343e-11
1.27019e-10
-4.64933e-11
1.69692e-10
-4.26745e-11
2.03822e-10
-3.41321e-11
2.26252e-10
-2.24303e-11
2.34926e-10
-8.67606e-12
2.28571e-10
6.35517e-12
2.06446e-10
2.21235e-11
1.68202e-10
3.82432e-11
1.13768e-10
5.44329e-11
4.32834e-11
7.0487e-11
-4.29643e-11
8.62507e-11
-1.44574e-10
1.0161e-10
-2.61053e-10
1.16482e-10
-3.91855e-10
1.30801e-10
-5.36385e-10
1.44526e-10
-6.94012e-10
1.57624e-10
-8.64085e-10
1.70071e-10
-1.04594e-09
1.81854e-10
-1.2389e-09
1.92964e-10
-1.4423e-09
2.03398e-10
-1.65546e-09
2.13161e-10
-1.87771e-09
2.22256e-10
-2.1084e-09
2.3069e-10
-2.34687e-09
2.38472e-10
-2.59249e-09
2.45614e-10
-2.84462e-09
2.52129e-10
-3.10265e-09
2.5803e-10
-3.36598e-09
2.6333e-10
-3.63402e-09
2.68042e-10
-3.90619e-09
2.72179e-10
-4.18195e-09
2.75758e-10
-4.46074e-09
2.78791e-10
-4.74203e-09
2.81291e-10
-5.02531e-09
2.83274e-10
-5.31006e-09
2.84752e-10
-5.5958e-09
2.85739e-10
-5.88205e-09
2.86248e-10
-6.16834e-09
2.86288e-10
-6.45421e-09
2.85872e-10
-6.73922e-09
2.85011e-10
-7.02293e-09
2.83715e-10
-7.30493e-09
2.81996e-10
-7.5848e-09
2.79862e-10
-7.86212e-09
2.77324e-10
-8.13651e-09
2.7439e-10
-8.40758e-09
2.71065e-10
-8.67494e-09
2.6736e-10
-8.93822e-09
2.63282e-10
-9.19706e-09
2.58839e-10
-9.45109e-09
2.54037e-10
-9.69998e-09
2.48882e-10
-9.94336e-09
2.43382e-10
-1.01809e-08
2.37543e-10
-1.04123e-08
2.31373e-10
-1.06371e-08
2.24876e-10
-1.08552e-08
2.18058e-10
-1.10661e-08
2.10925e-10
-1.12696e-08
2.03483e-10
-1.14654e-08
1.95739e-10
-1.16531e-08
1.877e-10
-1.18324e-08
1.79372e-10
-1.20032e-08
1.70764e-10
-1.21651e-08
1.61881e-10
-1.23178e-08
1.52732e-10
-1.24611e-08
1.43326e-10
-1.25948e-08
1.33671e-10
-1.27186e-08
1.23776e-10
-1.28322e-08
1.13651e-10
-1.29355e-08
1.03304e-10
-1.30283e-08
9.27475e-11
-1.31103e-08
8.19938e-11
-1.31813e-08
7.10513e-11
-1.32413e-08
5.99336e-11
-1.32899e-08
4.86557e-11
-1.33271e-08
3.72293e-11
-1.33528e-08
2.56691e-11
-1.33668e-08
1.39911e-11
-1.3369e-08
2.20942e-12
-1.33594e-08
-9.65778e-12
-1.33378e-08
-2.15913e-11
-1.33042e-08
-3.35764e-11
-1.32586e-08
-4.55949e-11
-1.3201e-08
-5.7625e-11
-1.31313e-08
-6.9648e-11
-1.30497e-08
-8.1645e-11
-1.29561e-08
-9.35931e-11
-1.28506e-08
-1.05471e-10
-1.27333e-08
-1.17258e-10
-1.26044e-08
-1.28929e-10
-1.2464e-08
-1.40461e-10
-1.23121e-08
-1.51833e-10
-1.21491e-08
-1.63022e-10
-1.19751e-08
-1.74e-10
-1.17904e-08
-1.84744e-10
-1.15951e-08
-1.95232e-10
-1.13897e-08
-2.05438e-10
-1.11743e-08
-2.15339e-10
-1.09494e-08
-2.24909e-10
-1.07153e-08
-2.34124e-10
-1.04724e-08
-2.42958e-10
-1.0221e-08
-2.51388e-10
-9.96158e-09
-2.59392e-10
-9.69463e-09
-2.66949e-10
-9.42059e-09
-2.74032e-10
-9.13997e-09
-2.80621e-10
-8.85328e-09
-2.86695e-10
-8.56104e-09
-2.92233e-10
-8.26383e-09
-2.97213e-10
-7.96221e-09
-3.01618e-10
-7.65678e-09
-3.0543e-10
-7.34815e-09
-3.08631e-10
-7.03694e-09
-3.11206e-10
-6.7238e-09
-3.13142e-10
-6.40938e-09
-3.14424e-10
-6.09434e-09
-3.15039e-10
-5.77936e-09
-3.14977e-10
-5.46513e-09
-3.1423e-10
-5.15234e-09
-3.1279e-10
-4.84169e-09
-3.10648e-10
-4.53389e-09
-3.07801e-10
-4.22964e-09
-3.04247e-10
-3.92966e-09
-2.99984e-10
-3.63465e-09
-2.95011e-10
-3.34532e-09
-2.89332e-10
-3.06237e-09
-2.8295e-10
-2.7865e-09
-2.75872e-10
-2.5184e-09
-2.68103e-10
-2.25874e-09
-2.59653e-10
-2.0082e-09
-2.50538e-10
-1.76743e-09
-2.4077e-10
-1.53707e-09
-2.30366e-10
-1.31772e-09
-2.19343e-10
-1.11e-09
-2.07724e-10
-9.14466e-10
-1.95533e-10
-7.3167e-10
-1.82798e-10
-5.62119e-10
-1.69552e-10
-4.06288e-10
-1.5583e-10
-2.64612e-10
-1.41674e-10
-1.37483e-10
-1.27131e-10
-2.52349e-11
-1.1225e-10
7.18595e-11
-9.70943e-11
1.53599e-10
-8.17369e-11
2.19867e-10
-6.62652e-11
2.70646e-10
-5.07799e-11
3.06045e-10
-3.54012e-11
3.26326e-10
-2.02798e-11
3.31933e-10
-5.60514e-12
3.23549e-10
8.384e-12
3.02165e-10
2.13827e-11
2.69174e-10
3.29905e-11
2.26508e-10
4.26678e-11
1.76831e-10
4.96786e-11
1.23803e-10
5.30249e-11
7.24061e-11
5.13926e-11
2.93345e-11
4.30699e-11
3.17828e-12
2.61565e-11
3.17815e-12
3.01617e-11
-3.71391e-11
9.89025e-11
-9.89022e-11
1.87349e-10
-1.31789e-10
2.78351e-10
-1.37492e-10
3.5783e-10
-1.2215e-10
4.15031e-10
-9.1333e-11
4.42078e-10
-4.94754e-11
4.33381e-10
2.04036e-14
3.85159e-10
5.45778e-11
2.94979e-10
1.12304e-10
1.61463e-10
1.71759e-10
-1.59725e-11
2.31867e-10
-2.37295e-10
2.91808e-10
-5.02007e-10
3.50962e-10
-8.09248e-10
4.08852e-10
-1.15788e-09
4.65117e-10
-1.54656e-09
5.19483e-10
-1.97377e-09
5.71743e-10
-2.43789e-09
6.21745e-10
-2.9372e-09
6.69381e-10
-3.46992e-09
7.14575e-10
-4.03424e-09
7.57281e-10
-4.62831e-09
7.9747e-10
-5.25028e-09
8.35134e-10
-5.89831e-09
8.70279e-10
-6.57054e-09
9.02924e-10
-7.26516e-09
9.33091e-10
-7.98036e-09
9.60814e-10
-8.71437e-09
9.86133e-10
-9.46543e-09
1.00909e-09
-1.02318e-08
1.02973e-09
-1.10119e-08
1.0481e-09
-1.1804e-08
1.06426e-09
-1.26065e-08
1.07825e-09
-1.34178e-08
1.09011e-09
-1.42364e-08
1.09992e-09
-1.50608e-08
1.1077e-09
-1.58896e-08
1.11351e-09
-1.67213e-08
1.1174e-09
-1.75544e-08
1.11941e-09
-1.83877e-08
1.1196e-09
-1.92199e-08
1.11799e-09
-2.00495e-08
1.11465e-09
-2.08754e-08
1.10959e-09
-2.16962e-08
1.10287e-09
-2.25109e-08
1.09452e-09
-2.33181e-08
1.08457e-09
-2.41168e-08
1.07306e-09
-2.49058e-08
1.06003e-09
-2.56839e-08
1.0455e-09
-2.64501e-08
1.0295e-09
-2.72034e-08
1.01206e-09
-2.79425e-08
9.93208e-10
-2.86666e-08
9.72973e-10
-2.93746e-08
9.5138e-10
-3.00655e-08
9.28455e-10
-3.07384e-08
9.04223e-10
-3.13922e-08
8.78709e-10
-3.20261e-08
8.51938e-10
-3.26391e-08
8.23935e-10
-3.32303e-08
7.94725e-10
-3.37989e-08
7.64333e-10
-3.4344e-08
7.32787e-10
-3.48647e-08
7.00114e-10
-3.53603e-08
6.66344e-10
-3.583e-08
6.31507e-10
-3.62729e-08
5.95634e-10
-3.66883e-08
5.58759e-10
-3.70755e-08
5.20918e-10
-3.74339e-08
4.82144e-10
-3.77627e-08
4.42478e-10
-3.80614e-08
4.01959e-10
-3.83293e-08
3.60628e-10
-3.85658e-08
3.18531e-10
-3.87705e-08
2.75714e-10
-3.89428e-08
2.32225e-10
-3.90822e-08
1.88117e-10
-3.91884e-08
1.43447e-10
-3.9261e-08
9.82676e-11
-3.92997e-08
5.26407e-11
-3.93041e-08
6.62884e-12
-3.92741e-08
-3.97059e-11
-3.92094e-08
-8.6294e-11
-3.91099e-08
-1.33063e-10
-3.89755e-08
-1.79945e-10
-3.88063e-08
-2.26866e-10
-3.86022e-08
-2.73742e-10
-3.83633e-08
-3.20498e-10
-3.80899e-08
-3.67053e-10
-3.7782e-08
-4.1332e-10
-3.74401e-08
-4.59215e-10
-3.70643e-08
-5.04653e-10
-3.66553e-08
-5.49541e-10
-3.62133e-08
-5.93789e-10
-3.5739e-08
-6.37307e-10
-3.5233e-08
-6.80003e-10
-3.4696e-08
-7.2178e-10
-3.41287e-08
-7.62545e-10
-3.35319e-08
-8.02206e-10
-3.29066e-08
-8.4067e-10
-3.22536e-08
-8.77838e-10
-3.15741e-08
-9.13621e-10
-3.08692e-08
-9.47926e-10
-3.01399e-08
-9.80657e-10
-2.93876e-08
-1.01172e-09
-2.86135e-08
-1.04104e-09
-2.7819e-08
-1.06852e-09
-2.70055e-08
-1.09408e-09
-2.61746e-08
-1.11764e-09
-2.53277e-08
-1.13911e-09
-2.44665e-08
-1.15843e-09
-2.35926e-08
-1.17552e-09
-2.27077e-08
-1.1903e-09
-2.18136e-08
-1.20273e-09
-2.09121e-08
-1.21273e-09
-2.0005e-08
-1.22024e-09
-1.90942e-08
-1.22523e-09
-1.81816e-08
-1.22765e-09
-1.72691e-08
-1.22745e-09
-1.63587e-08
-1.2246e-09
-1.54524e-08
-1.21907e-09
-1.45522e-08
-1.21084e-09
-1.36602e-08
-1.19989e-09
-1.27782e-08
-1.18621e-09
-1.19084e-08
-1.16979e-09
-1.10528e-08
-1.15065e-09
-1.02133e-08
-1.12879e-09
-9.39202e-09
-1.10423e-09
-8.5909e-09
-1.07699e-09
-7.8119e-09
-1.04711e-09
-7.05692e-09
-1.01463e-09
-6.32786e-09
-9.79597e-10
-5.62657e-09
-9.42071e-10
-4.95481e-09
-9.02119e-10
-4.31432e-09
-8.59824e-10
-3.70677e-09
-8.15274e-10
-3.13374e-09
-7.68568e-10
-2.59671e-09
-7.19823e-10
-2.0971e-09
-6.6917e-10
-1.63617e-09
-6.1676e-10
-1.21508e-09
-5.6276e-10
-8.34859e-10
-5.07358e-10
-4.96332e-10
-4.50776e-10
-2.00159e-10
-3.93268e-10
5.32322e-11
-3.3513e-10
2.63672e-10
-2.76706e-10
4.313e-10
-2.18407e-10
5.56625e-10
-1.60724e-10
6.40598e-10
-1.04253e-10
6.84709e-10
-4.97188e-11
6.9111e-10
1.9774e-12
6.6278e-10
4.97097e-11
6.03719e-10
9.20495e-11
5.19211e-10
1.27175e-10
4.16128e-10
1.52761e-10
3.03268e-10
1.65885e-10
1.91632e-10
1.63031e-10
9.44173e-11
1.40287e-10
2.61284e-11
9.44444e-11
2.93055e-11
4.33523e-11
-8.04955e-11
1.31886e-10
-1.87436e-10
2.3854e-10
-2.38447e-10
3.41714e-10
-2.40667e-10
4.23532e-10
-2.03969e-10
4.69761e-10
-1.37562e-10
4.69467e-10
-4.91835e-11
4.14541e-10
5.49443e-11
2.99185e-10
1.69933e-10
1.195e-10
2.9199e-10
-1.26912e-10
4.18173e-10
-4.41252e-10
5.46206e-10
-8.23763e-10
6.74322e-10
-1.27395e-09
8.01147e-10
-1.79071e-09
9.25615e-10
-2.3725e-09
1.0469e-09
-3.01738e-09
1.16437e-09
-3.72317e-09
1.27752e-09
-4.48742e-09
1.386e-09
-5.30757e-09
1.48953e-09
-6.1809e-09
1.58791e-09
-7.10463e-09
1.68101e-09
-8.07591e-09
1.76875e-09
-9.09184e-09
1.85108e-09
-1.01496e-08
1.92799e-09
-1.12461e-08
1.99951e-09
-1.23787e-08
2.06567e-09
-1.35444e-08
2.12653e-09
-1.47405e-08
2.18217e-09
-1.5964e-08
2.23266e-09
-1.72124e-08
2.27809e-09
-1.84828e-08
2.31855e-09
-1.97727e-08
2.35416e-09
-2.10795e-08
2.385e-09
-2.24006e-08
2.41119e-09
-2.37335e-08
2.43283e-09
-2.50758e-08
2.45003e-09
-2.64252e-08
2.46288e-09
-2.77793e-08
2.47148e-09
-2.91358e-08
2.47594e-09
-3.04926e-08
2.47635e-09
-3.18474e-08
2.4728e-09
-3.31981e-08
2.46539e-09
-3.45427e-08
2.45419e-09
-3.58792e-08
2.4393e-09
-3.72054e-08
2.4208e-09
-3.85196e-08
2.39875e-09
-3.98198e-08
2.37324e-09
-4.11041e-08
2.34434e-09
-4.23707e-08
2.31211e-09
-4.36178e-08
2.27662e-09
-4.48437e-08
2.23794e-09
-4.60466e-08
2.19612e-09
-4.72249e-08
2.15124e-09
-4.83769e-08
2.10334e-09
-4.95009e-08
2.05248e-09
-5.05954e-08
1.99872e-09
-5.16588e-08
1.94212e-09
-5.26896e-08
1.88274e-09
-5.36863e-08
1.82062e-09
-5.46474e-08
1.75584e-09
-5.55715e-08
1.68845e-09
-5.64572e-08
1.6185e-09
-5.73032e-08
1.54607e-09
-5.81081e-08
1.47122e-09
-5.88706e-08
1.39402e-09
-5.95895e-08
1.31453e-09
-6.02635e-08
1.23284e-09
-6.08916e-08
1.14901e-09
-6.14726e-08
1.06314e-09
-6.20055e-08
9.7531e-10
-6.24891e-08
8.85607e-10
-6.29226e-08
7.94128e-10
-6.33051e-08
7.0097e-10
-6.36356e-08
6.06242e-10
-6.39134e-08
5.10051e-10
-6.41378e-08
4.12511e-10
-6.43081e-08
3.13746e-10
-6.44237e-08
2.13883e-10
-6.44841e-08
1.13052e-10
-6.44889e-08
1.13916e-11
-6.44376e-08
-9.09537e-11
-6.43301e-08
-1.93837e-10
-6.41661e-08
-2.97103e-10
-6.39454e-08
-4.00588e-10
-6.36681e-08
-5.04133e-10
-6.33343e-08
-6.07565e-10
-6.29441e-08
-7.10708e-10
-6.24978e-08
-8.13381e-10
-6.19957e-08
-9.15403e-10
-6.14383e-08
-1.01658e-09
-6.08263e-08
-1.11673e-09
-6.01602e-08
-1.21565e-09
-5.94408e-08
-1.31314e-09
-5.86691e-08
-1.409e-09
-5.78461e-08
-1.50303e-09
-5.69728e-08
-1.59503e-09
-5.60506e-08
-1.68478e-09
-5.50807e-08
-1.77209e-09
-5.40646e-08
-1.85674e-09
-5.30039e-08
-1.93854e-09
-5.19003e-08
-2.01727e-09
-5.07555e-08
-2.09273e-09
-4.95714e-08
-2.16474e-09
-4.835e-08
-2.23307e-09
-4.70935e-08
-2.29755e-09
-4.58041e-08
-2.35799e-09
-4.44839e-08
-2.4142e-09
-4.31356e-08
-2.466e-09
-4.17615e-08
-2.51322e-09
-4.03642e-08
-2.5557e-09
-3.89465e-08
-2.59328e-09
-3.75109e-08
-2.62581e-09
-3.60605e-08
-2.65315e-09
-3.45981e-08
-2.67518e-09
-3.31265e-08
-2.69177e-09
-3.1649e-08
-2.70281e-09
-3.01684e-08
-2.7082e-09
-2.8688e-08
-2.70786e-09
-2.72109e-08
-2.70172e-09
-2.57402e-08
-2.68971e-09
-2.42793e-08
-2.67179e-09
-2.28313e-08
-2.64791e-09
-2.13994e-08
-2.61807e-09
-1.99869e-08
-2.58226e-09
-1.85971e-08
-2.54048e-09
-1.72331e-08
-2.49277e-09
-1.58982e-08
-2.43917e-09
-1.45954e-08
-2.37973e-09
-1.3328e-08
-2.31454e-09
-1.2099e-08
-2.24369e-09
-1.09113e-08
-2.16729e-09
-9.76783e-09
-2.08549e-09
-8.67152e-09
-1.99843e-09
-7.62504e-09
-1.90631e-09
-6.631e-09
-1.80931e-09
-5.69188e-09
-1.70768e-09
-4.81001e-09
-1.60169e-09
-3.98755e-09
-1.49163e-09
-3.22647e-09
-1.37785e-09
-2.52852e-09
-1.26071e-09
-1.89521e-09
-1.14067e-09
-1.32777e-09
-1.01821e-09
-8.27107e-10
-8.93929e-10
-3.93764e-10
-7.68473e-10
-2.78488e-11
-6.4262e-10
2.71029e-10
-5.17285e-10
5.03852e-10
-3.93547e-10
6.72298e-10
-2.72699e-10
7.78878e-10
-1.56299e-10
8.27101e-10
-4.62435e-11
8.21669e-10
5.51432e-11
7.68716e-10
1.45e-10
6.76083e-10
2.19803e-10
5.53608e-10
2.75233e-10
4.13389e-10
3.06104e-10
2.6996e-10
3.06462e-10
1.40215e-10
2.7003e-10
4.30051e-11
1.91652e-10
7.23102e-11
4.6631e-11
-1.27126e-10
1.37966e-10
-2.78768e-10
2.41426e-10
-3.41907e-10
3.32143e-10
-3.31384e-10
3.89906e-10
-2.61732e-10
3.98446e-10
-1.46103e-10
3.44981e-10
4.28127e-12
2.19745e-10
1.8018e-10
1.55428e-11
3.74133e-10
-2.72651e-10
5.80181e-10
-6.48067e-10
7.9359e-10
-1.11247e-09
1.01061e-09
-1.66641e-09
1.22827e-09
-2.30948e-09
1.44422e-09
-3.04048e-09
1.65662e-09
-3.85757e-09
1.864e-09
-4.75843e-09
2.06522e-09
-5.7403e-09
2.2594e-09
-6.80015e-09
2.44585e-09
-7.93467e-09
2.62405e-09
-9.14039e-09
2.79363e-09
-1.04137e-08
2.9543e-09
-1.17508e-08
3.1059e-09
-1.31481e-08
3.24832e-09
-1.46016e-08
3.3815e-09
-1.61075e-08
3.50546e-09
-1.76621e-08
3.62023e-09
-1.92615e-08
3.7259e-09
-2.09019e-08
3.82256e-09
-2.25796e-08
3.91034e-09
-2.42909e-08
3.98938e-09
-2.60321e-08
4.05983e-09
-2.77998e-08
4.12185e-09
-2.95904e-08
4.17559e-09
-3.14005e-08
4.22125e-09
-3.32266e-08
4.25898e-09
-3.50655e-08
4.28896e-09
-3.6914e-08
4.31135e-09
-3.87689e-08
4.32634e-09
-4.0627e-08
4.33408e-09
-4.24854e-08
4.33474e-09
-4.43411e-08
4.32848e-09
-4.61911e-08
4.31544e-09
-4.80327e-08
4.29577e-09
-4.98631e-08
4.26963e-09
-5.16794e-08
4.23715e-09
-5.34791e-08
4.19845e-09
-5.52595e-08
4.15368e-09
-5.70182e-08
4.10295e-09
-5.87524e-08
4.04638e-09
-6.04599e-08
3.9841e-09
-6.21382e-08
3.9162e-09
-6.37849e-08
3.84281e-09
-6.53977e-08
3.76402e-09
-6.69743e-08
3.67995e-09
-6.85125e-08
3.59069e-09
-7.00101e-08
3.49634e-09
-7.1465e-08
3.39702e-09
-7.28751e-08
3.29281e-09
-7.42383e-08
3.18382e-09
-7.55526e-08
3.07016e-09
-7.68161e-08
2.95194e-09
-7.80268e-08
2.82925e-09
-7.9183e-08
2.70222e-09
-8.02827e-08
2.57096e-09
-8.13243e-08
2.4356e-09
-8.2306e-08
2.29625e-09
-8.32262e-08
2.15306e-09
-8.40834e-08
2.00616e-09
-8.48759e-08
1.8557e-09
-8.56024e-08
1.70183e-09
-8.62615e-08
1.5447e-09
-8.68519e-08
1.3845e-09
-8.73723e-08
1.22139e-09
-8.78216e-08
1.05556e-09
-8.81988e-08
8.87198e-10
-8.85028e-08
7.16516e-10
-8.87328e-08
5.43722e-10
-8.88879e-08
3.69041e-10
-8.89676e-08
1.92705e-10
-8.89711e-08
1.49525e-11
-8.88981e-08
-1.63963e-10
-8.87482e-08
-3.43781e-10
-8.85211e-08
-5.24232e-10
-8.82166e-08
-7.05036e-10
-8.78348e-08
-8.85902e-10
-8.73759e-08
-1.06654e-09
-8.68399e-08
-1.24663e-09
-8.62274e-08
-1.42588e-09
-8.55389e-08
-1.60395e-09
-8.47749e-08
-1.78053e-09
-8.39364e-08
-1.95527e-09
-8.30242e-08
-2.12784e-09
-8.20395e-08
-2.29789e-09
-8.09834e-08
-2.46507e-09
-7.98574e-08
-2.62903e-09
-7.8663e-08
-2.78942e-09
-7.74019e-08
-2.94589e-09
-7.60759e-08
-3.09806e-09
-7.46871e-08
-3.24559e-09
-7.32375e-08
-3.38813e-09
-7.17294e-08
-3.5253e-09
-7.01654e-08
-3.65678e-09
-6.85479e-08
-3.78221e-09
-6.68797e-08
-3.90125e-09
-6.51637e-08
-4.01357e-09
-6.34029e-08
-4.11883e-09
-6.16003e-08
-4.21674e-09
-5.97594e-08
-4.30697e-09
-5.78834e-08
-4.38923e-09
-5.59758e-08
-4.46325e-09
-5.40404e-08
-4.52874e-09
-5.20807e-08
-4.58545e-09
-5.01007e-08
-4.63315e-09
-4.81043e-08
-4.67161e-09
-4.60954e-08
-4.70062e-09
-4.40782e-08
-4.72e-09
-4.20568e-08
-4.72959e-09
-4.00355e-08
-4.72922e-09
-3.80184e-08
-4.71879e-09
-3.60099e-08
-4.69818e-09
-3.40144e-08
-4.66732e-09
-3.20361e-08
-4.62616e-09
-3.00796e-08
-4.57466e-09
-2.8149e-08
-4.51282e-09
-2.62488e-08
-4.44066e-09
-2.43834e-08
-4.35824e-09
-2.25569e-08
-4.26563e-09
-2.07737e-08
-4.16295e-09
-1.90379e-08
-4.05034e-09
-1.73536e-08
-3.92797e-09
-1.57248e-08
-3.79605e-09
-1.41555e-08
-3.65483e-09
-1.26493e-08
-3.50459e-09
-1.121e-08
-3.34565e-09
-9.84092e-09
-3.17839e-09
-8.54537e-09
-3.00323e-09
-7.32643e-09
-2.82064e-09
-6.18691e-09
-2.63116e-09
-5.12936e-09
-2.43539e-09
-4.15605e-09
-2.23402e-09
-3.26888e-09
-2.02784e-09
-2.46938e-09
-1.81772e-09
-1.75862e-09
-1.60468e-09
-1.13719e-09
-1.3899e-09
-6.05083e-10
-1.17473e-09
-1.61624e-10
-9.60746e-10
1.94637e-10
-7.4981e-10
4.66055e-10
-5.44117e-10
6.56038e-10
-3.46282e-10
7.69227e-10
-1.59433e-10
8.11702e-10
1.26671e-11
7.91214e-10
1.65488e-10
7.1743e-10
2.93587e-10
6.02186e-10
3.90479e-10
4.59711e-10
4.48578e-10
3.06832e-10
4.59338e-10
1.63131e-10
4.13729e-10
5.13432e-11
3.0344e-10
1.23654e-10
4.30184e-11
-1.70145e-10
1.23216e-10
-3.58962e-10
2.05763e-10
-4.24455e-10
2.63969e-10
-3.89591e-10
2.76307e-10
-2.74069e-10
2.25397e-10
-9.51943e-11
9.74171e-11
1.3226e-10
-1.18378e-10
3.95973e-10
-4.30065e-10
6.8582e-10
-8.43432e-10
9.93547e-10
-1.36231e-09
1.31247e-09
-1.9889e-09
1.6372e-09
-2.72402e-09
1.96338e-09
-3.56735e-09
2.28755e-09
-4.51764e-09
2.6069e-09
-5.57286e-09
2.91922e-09
-6.73037e-09
3.22273e-09
-7.98701e-09
3.51604e-09
-9.33923e-09
3.79806e-09
-1.07831e-08
4.06795e-09
-1.23146e-08
4.32509e-09
-1.39293e-08
4.569e-09
-1.56228e-08
4.79938e-09
-1.73904e-08
5.016e-09
-1.92277e-08
5.21877e-09
-2.11299e-08
5.40765e-09
-2.30923e-08
5.58267e-09
-2.51104e-08
5.74392e-09
-2.71793e-08
5.89153e-09
-2.92946e-08
6.02565e-09
-3.14517e-08
6.14648e-09
-3.36461e-08
6.25422e-09
-3.58734e-08
6.34911e-09
-3.81292e-08
6.43137e-09
-4.04092e-08
6.50125e-09
-4.27092e-08
6.559e-09
-4.50251e-08
6.60488e-09
-4.73529e-08
6.63912e-09
-4.96885e-08
6.66199e-09
-5.20282e-08
6.67373e-09
-5.4368e-08
6.67458e-09
-5.67043e-08
6.66477e-09
-5.90334e-08
6.64454e-09
-6.13517e-08
6.6141e-09
-6.36558e-08
6.57368e-09
-6.59421e-08
6.52348e-09
-6.82074e-08
6.46371e-09
-7.04482e-08
6.39456e-09
-7.26615e-08
6.31622e-09
-7.4844e-08
6.22888e-09
-7.69926e-08
6.13271e-09
-7.91043e-08
6.02789e-09
-8.11761e-08
5.91458e-09
-8.3205e-08
5.79295e-09
-8.51882e-08
5.66317e-09
-8.71229e-08
5.52538e-09
-8.90063e-08
5.37977e-09
-9.08358e-08
5.22647e-09
-9.26086e-08
5.06565e-09
-9.43223e-08
4.89748e-09
-9.59742e-08
4.72211e-09
-9.7562e-08
4.53971e-09
-9.90832e-08
4.35047e-09
-1.00536e-07
4.15454e-09
-1.01917e-07
3.95212e-09
-1.03224e-07
3.74339e-09
-1.04457e-07
3.52856e-09
-1.05612e-07
3.30784e-09
-1.06687e-07
3.08143e-09
-1.07681e-07
2.84957e-09
-1.08591e-07
2.61249e-09
-1.09417e-07
2.37045e-09
-1.10156e-07
2.1237e-09
-1.10807e-07
1.87252e-09
-1.11369e-07
1.61719e-09
-1.1184e-07
1.35802e-09
-1.12219e-07
1.09533e-09
-1.12504e-07
8.29431e-10
-1.12696e-07
5.60677e-10
-1.12793e-07
2.89426e-10
-1.12794e-07
1.60514e-11
-1.12699e-07
-2.59064e-10
-1.12507e-07
-5.35517e-10
-1.12218e-07
-8.12892e-10
-1.11833e-07
-1.09076e-09
-1.1135e-07
-1.36868e-09
-1.1077e-07
-1.64619e-09
-1.10094e-07
-1.92283e-09
-1.09322e-07
-2.19811e-09
-1.08454e-07
-2.47155e-09
-1.07492e-07
-2.74264e-09
-1.06436e-07
-3.01088e-09
-1.05289e-07
-3.27574e-09
-1.0405e-07
-3.5367e-09
-1.02722e-07
-3.79322e-09
-1.01306e-07
-4.04477e-09
-9.98045e-08
-4.29081e-09
-9.82196e-08
-4.53079e-09
-9.65535e-08
-4.76417e-09
-9.48087e-08
-4.9904e-09
-9.29879e-08
-5.20895e-09
-9.10939e-08
-5.41928e-09
-8.91298e-08
-5.62084e-09
-8.70989e-08
-5.81313e-09
-8.50046e-08
-5.99561e-09
-8.28503e-08
-6.16779e-09
-8.064e-08
-6.32916e-09
-7.83775e-08
-6.47925e-09
-7.60669e-08
-6.6176e-09
-7.37124e-08
-6.74374e-09
-7.13183e-08
-6.85726e-09
-6.88893e-08
-6.95774e-09
-6.643e-08
-7.0448e-09
-6.39451e-08
-7.11807e-09
-6.14395e-08
-7.17722e-09
-5.89182e-08
-7.22194e-09
-5.63862e-08
-7.25194e-09
-5.38488e-08
-7.26698e-09
-5.13112e-08
-7.26683e-09
-4.87787e-08
-7.25132e-09
-4.62566e-08
-7.22029e-09
-4.37503e-08
-7.17362e-09
-4.12652e-08
-7.11123e-09
-3.88068e-08
-7.0331e-09
-3.63804e-08
-6.93921e-09
-3.39914e-08
-6.82961e-09
-3.16453e-08
-6.7044e-09
-2.93472e-08
-6.56369e-09
-2.71025e-08
-6.40768e-09
-2.49162e-08
-6.23657e-09
-2.27936e-08
-6.05066e-09
-2.07393e-08
-5.85028e-09
-1.87584e-08
-5.6358e-09
-1.68553e-08
-5.40769e-09
-1.50345e-08
-5.16645e-09
-1.33002e-08
-4.91267e-09
-1.16564e-08
-4.647e-09
-1.01069e-08
-4.3702e-09
-8.65491e-09
-4.0831e-09
-7.30363e-09
-3.78666e-09
-6.05571e-09
-3.48195e-09
-4.91338e-09
-3.17017e-09
-3.8784e-09
-2.8527e-09
-2.95198e-09
-2.53111e-09
-2.13469e-09
-2.20719e-09
-1.42641e-09
-1.88301e-09
-8.26193e-10
-1.56096e-09
-3.3217e-10
-1.24383e-09
5.85856e-11
-9.34872e-10
3.50216e-10
-6.37914e-10
5.48253e-10
-3.57473e-10
6.59815e-10
-9.88972e-11
6.93813e-10
1.31489e-10
6.61178e-10
3.26225e-10
5.75074e-10
4.76583e-10
4.51143e-10
5.72508e-10
3.07785e-10
6.02693e-10
1.66566e-10
5.54946e-10
5.31013e-11
4.16907e-10
1.76755e-10
3.47232e-11
-2.04869e-10
9.30988e-11
-4.17337e-10
1.40553e-10
-4.71907e-10
1.49997e-10
-3.99036e-10
9.95001e-11
-2.23573e-10
-2.87161e-11
3.30224e-11
-2.48909e-10
3.52451e-10
-5.72281e-10
7.19345e-10
-1.00737e-09
1.12091e-09
-1.5604e-09
1.54657e-09
-2.23555e-09
1.98762e-09
-3.0353e-09
2.43694e-09
-3.96063e-09
2.88872e-09
-5.01129e-09
3.33821e-09
-6.18598e-09
3.78159e-09
-7.48252e-09
4.21576e-09
-8.898e-09
4.63821e-09
-1.04289e-08
5.04696e-09
-1.20713e-08
5.44044e-09
-1.38208e-08
5.81742e-09
-1.56726e-08
6.17696e-09
-1.7622e-08
6.51835e-09
-1.96637e-08
6.84108e-09
-2.17925e-08
7.14482e-09
-2.40031e-08
7.42936e-09
-2.629e-08
7.6946e-09
-2.86479e-08
7.94056e-09
-3.10713e-08
8.1673e-09
-3.35548e-08
8.37497e-09
-3.60929e-08
8.56377e-09
-3.86803e-08
8.73393e-09
-4.13118e-08
8.88571e-09
-4.39821e-08
9.01941e-09
-4.66861e-08
9.13535e-09
-4.94187e-08
9.23383e-09
-5.21749e-08
9.3152e-09
-5.49498e-08
9.37979e-09
-5.77386e-08
9.42795e-09
-6.05366e-08
9.46001e-09
-6.33392e-08
9.4763e-09
-6.61418e-08
9.47717e-09
-6.894e-08
9.46293e-09
-7.17293e-08
9.43389e-09
-7.45056e-08
9.39038e-09
-7.72646e-08
9.33268e-09
-8.00022e-08
9.2611e-09
-8.27144e-08
9.17591e-09
-8.53973e-08
9.0774e-09
-8.80469e-08
8.96582e-09
-9.06594e-08
8.84144e-09
-9.32312e-08
8.70451e-09
-9.57586e-08
8.55528e-09
-9.8238e-08
8.39398e-09
-1.00666e-07
8.22085e-09
-1.03039e-07
8.03613e-09
-1.05354e-07
7.84004e-09
-1.07607e-07
7.63282e-09
-1.09795e-07
7.41469e-09
-1.11915e-07
7.18588e-09
-1.13964e-07
6.94663e-09
-1.15939e-07
6.69717e-09
-1.17837e-07
6.43774e-09
-1.19655e-07
6.1686e-09
-1.21391e-07
5.89e-09
-1.23041e-07
5.6022e-09
-1.24603e-07
5.30548e-09
-1.26075e-07
5.00013e-09
-1.27453e-07
4.68644e-09
-1.28737e-07
4.36472e-09
-1.29922e-07
4.0353e-09
-1.31008e-07
3.69853e-09
-1.31993e-07
3.35476e-09
-1.32873e-07
3.00436e-09
-1.33648e-07
2.64773e-09
-1.34317e-07
2.28528e-09
-1.34876e-07
1.91743e-09
-1.35325e-07
1.54464e-09
-1.35663e-07
1.16737e-09
-1.35889e-07
7.86119e-10
-1.36001e-07
4.01388e-10
-1.35998e-07
1.37086e-11
-1.35881e-07
-3.76368e-10
-1.35648e-07
-7.68276e-10
-1.353e-07
-1.16143e-09
-1.34835e-07
-1.55521e-09
-1.34255e-07
-1.949e-09
-1.33559e-07
-2.34215e-09
-1.32748e-07
-2.734e-09
-1.31822e-07
-3.12387e-09
-1.30782e-07
-3.51108e-09
-1.2963e-07
-3.8949e-09
-1.28366e-07
-4.27463e-09
-1.26993e-07
-4.64952e-09
-1.25511e-07
-5.01885e-09
-1.23922e-07
-5.38185e-09
-1.22229e-07
-5.73778e-09
-1.20434e-07
-6.08587e-09
-1.18539e-07
-6.42535e-09
-1.16548e-07
-6.75547e-09
-1.14463e-07
-7.07545e-09
-1.12287e-07
-7.38454e-09
-1.10025e-07
-7.68198e-09
-1.07678e-07
-7.96703e-09
-1.05253e-07
-8.23894e-09
-1.02751e-07
-8.49699e-09
-1.00179e-07
-8.74047e-09
-9.75391e-08
-8.96868e-09
-9.48374e-08
-9.18096e-09
-9.20783e-08
-9.37664e-09
-8.92669e-08
-9.55511e-09
-8.64084e-08
-9.71577e-09
-8.35081e-08
-9.85803e-09
-8.05716e-08
-9.98136e-09
-7.76044e-08
-1.00853e-08
-7.46124e-08
-1.01692e-08
-7.16014e-08
-1.02329e-08
-6.85775e-08
-1.02758e-08
-6.55468e-08
-1.02977e-08
-6.25155e-08
-1.02981e-08
-5.94899e-08
-1.0277e-08
-5.64762e-08
-1.0234e-08
-5.34808e-08
-1.0169e-08
-5.05101e-08
-1.00819e-08
-4.75705e-08
-9.97269e-09
-4.46684e-08
-9.84133e-09
-4.18101e-08
-9.68791e-09
-3.90019e-08
-9.51257e-09
-3.62501e-08
-9.31549e-09
-3.35608e-08
-9.09695e-09
-3.09401e-08
-8.85727e-09
-2.8394e-08
-8.59686e-09
-2.5928e-08
-8.3162e-09
-2.3548e-08
-8.01585e-09
-2.12592e-08
-7.69647e-09
-1.90668e-08
-7.35881e-09
-1.69758e-08
-7.00369e-09
-1.49907e-08
-6.63208e-09
-1.31159e-08
-6.24505e-09
-1.13552e-08
-5.84381e-09
-9.71211e-09
-5.42972e-09
-8.18975e-09
-5.00431e-09
-6.79061e-09
-4.56931e-09
-5.51664e-09
-4.12666e-09
-4.36915e-09
-3.6786e-09
-3.34872e-09
-3.22762e-09
-2.45509e-09
-2.77663e-09
-1.68712e-09
-2.32894e-09
-1.04258e-09
-1.88837e-09
-5.18106e-10
-1.45935e-09
-1.08989e-10
-1.04703e-09
1.90958e-10
-6.5742e-10
3.89586e-10
-2.97527e-10
4.96603e-10
2.44702e-11
5.2377e-10
2.99057e-10
4.85113e-10
5.15241e-10
3.97179e-10
6.60442e-10
2.79389e-10
7.20482e-10
1.54584e-10
6.79749e-10
5.00383e-11
5.21452e-10
2.26793e-10
2.32788e-11
-2.28148e-10
5.19316e-11
-4.45987e-10
5.32781e-11
-4.73253e-10
1.01271e-12
-3.46771e-10
-1.26394e-10
-9.61666e-11
-3.46522e-10
2.53151e-10
-6.73568e-10
6.79494e-10
-1.11877e-09
1.16455e-09
-1.69078e-09
1.69291e-09
-2.39593e-09
2.25172e-09
-3.23856e-09
2.83025e-09
-4.22125e-09
3.41963e-09
-5.34503e-09
4.0125e-09
-6.60964e-09
4.60283e-09
-8.01369e-09
5.18565e-09
-9.55485e-09
5.75692e-09
-1.123e-08
6.31334e-09
-1.30353e-08
6.85227e-09
-1.49664e-08
7.37158e-09
-1.70186e-08
7.86958e-09
-1.91866e-08
8.34497e-09
-2.1465e-08
8.79676e-09
-2.38481e-08
9.22421e-09
-2.63301e-08
9.62681e-09
-2.8905e-08
1.00042e-08
-3.15667e-08
1.03563e-08
-3.43091e-08
1.06829e-08
-3.7126e-08
1.09842e-08
-4.00114e-08
1.12603e-08
-4.2959e-08
1.15114e-08
-4.59629e-08
1.17378e-08
-4.9017e-08
1.19398e-08
-5.21154e-08
1.21178e-08
-5.52521e-08
1.22721e-08
-5.84215e-08
1.24031e-08
-6.16176e-08
1.25114e-08
-6.48351e-08
1.25972e-08
-6.80682e-08
1.26611e-08
-7.13116e-08
1.27034e-08
-7.456e-08
1.27247e-08
-7.78081e-08
1.27253e-08
-8.10508e-08
1.27056e-08
-8.4283e-08
1.26661e-08
-8.74998e-08
1.26072e-08
-9.06964e-08
1.25292e-08
-9.38679e-08
1.24326e-08
-9.70098e-08
1.23178e-08
-1.00117e-07
1.2185e-08
-1.03186e-07
1.20347e-08
-1.06212e-07
1.18672e-08
-1.0919e-07
1.16828e-08
-1.12117e-07
1.14819e-08
-1.14988e-07
1.12648e-08
-1.17799e-07
1.10317e-08
-1.20546e-07
1.07831e-08
-1.23225e-07
1.05193e-08
-1.25832e-07
1.02404e-08
-1.28365e-07
9.94697e-09
-1.30818e-07
9.63916e-09
-1.33189e-07
9.31735e-09
-1.35473e-07
8.98184e-09
-1.37669e-07
8.63297e-09
-1.39771e-07
8.27108e-09
-1.41778e-07
7.89652e-09
-1.43685e-07
7.50964e-09
-1.4549e-07
7.11083e-09
-1.47191e-07
6.70046e-09
-1.48783e-07
6.27895e-09
-1.50265e-07
5.84672e-09
-1.51634e-07
5.40422e-09
-1.52888e-07
4.9519e-09
-1.54023e-07
4.49025e-09
-1.55038e-07
4.01977e-09
-1.55932e-07
3.54101e-09
-1.56701e-07
3.0545e-09
-1.57344e-07
2.56084e-09
-1.5786e-07
2.06062e-09
-1.58247e-07
1.55447e-09
-1.58504e-07
1.04307e-09
-1.5863e-07
5.27082e-10
-1.58624e-07
7.22278e-12
-1.58484e-07
-5.1577e-10
-1.58211e-07
-1.04113e-09
-1.57805e-07
-1.56808e-09
-1.57264e-07
-2.09579e-09
-1.5659e-07
-2.62343e-09
-1.55782e-07
-3.15014e-09
-1.54841e-07
-3.67503e-09
-1.53767e-07
-4.1972e-09
-1.52563e-07
-4.71572e-09
-1.51228e-07
-5.22965e-09
-1.49765e-07
-5.73803e-09
-1.48174e-07
-6.23988e-09
-1.46459e-07
-6.73421e-09
-1.44621e-07
-7.22003e-09
-1.42662e-07
-7.69634e-09
-1.40586e-07
-8.1621e-09
-1.38395e-07
-8.61632e-09
-1.36092e-07
-9.05797e-09
-1.33682e-07
-9.48604e-09
-1.31167e-07
-9.89952e-09
-1.28551e-07
-1.02974e-08
-1.2584e-07
-1.06787e-08
-1.23036e-07
-1.10424e-08
-1.20146e-07
-1.13876e-08
-1.17173e-07
-1.17133e-08
-1.14123e-07
-1.20186e-08
-1.11001e-07
-1.23026e-08
-1.07813e-07
-1.25645e-08
-1.04565e-07
-1.28034e-08
-1.01262e-07
-1.30185e-08
-9.79112e-08
-1.32091e-08
-9.45181e-08
-1.33745e-08
-9.10894e-08
-1.35139e-08
-8.76318e-08
-1.36268e-08
-8.41521e-08
-1.37126e-08
-8.06571e-08
-1.37708e-08
-7.71538e-08
-1.3801e-08
-7.36493e-08
-1.38026e-08
-7.01508e-08
-1.37755e-08
-6.66655e-08
-1.37193e-08
-6.32007e-08
-1.36338e-08
-5.97636e-08
-1.3519e-08
-5.63615e-08
-1.33747e-08
-5.30018e-08
-1.32011e-08
-4.96916e-08
-1.29981e-08
-4.64381e-08
-1.2766e-08
-4.32486e-08
-1.25051e-08
-4.01299e-08
-1.22157e-08
-3.70889e-08
-1.18982e-08
-3.41324e-08
-1.15534e-08
-3.12669e-08
-1.11817e-08
-2.84987e-08
-1.0784e-08
-2.5834e-08
-1.03612e-08
-2.32786e-08
-9.91421e-09
-2.08381e-08
-9.44428e-09
-1.85175e-08
-8.95267e-09
-1.63217e-08
-8.44084e-09
-1.42551e-08
-7.91042e-09
-1.23216e-08
-7.36325e-09
-1.05245e-08
-6.80138e-09
-8.86665e-09
-6.22714e-09
-7.35019e-09
-5.64313e-09
-5.97649e-09
-5.05229e-09
-4.74616e-09
-4.45796e-09
-3.65886e-09
-3.86393e-09
-2.71327e-09
-3.27453e-09
-1.90694e-09
-2.6947e-09
-1.23617e-09
-2.13012e-09
-6.95861e-10
-1.58734e-09
-2.79386e-10
-1.07389e-09
2.15895e-11
-5.98502e-10
2.17268e-10
-1.7121e-10
3.19908e-10
1.96416e-10
3.4403e-10
4.91119e-10
3.06678e-10
6.97795e-10
2.27799e-10
7.99362e-10
1.30806e-10
7.7674e-10
4.35032e-11
6.08753e-10
2.70296e-10
9.75292e-12
-2.37902e-10
2.98238e-12
-4.39216e-10
-5.01238e-11
-4.20145e-10
-1.74224e-10
-2.22672e-10
-3.89787e-10
1.19393e-10
-7.13674e-10
5.77039e-10
-1.1596e-09
1.12542e-09
-1.73849e-09
1.74343e-09
-2.45878e-09
2.41321e-09
-3.32671e-09
3.11965e-09
-4.34653e-09
3.85007e-09
-5.52074e-09
4.59384e-09
-6.85032e-09
5.34208e-09
-8.33492e-09
6.08742e-09
-9.973e-09
6.82373e-09
-1.17621e-08
7.54597e-09
-1.36987e-08
8.25e-09
-1.57789e-08
8.93246e-09
-1.79979e-08
9.5906e-09
-2.03506e-08
1.02223e-08
-2.28313e-08
1.08257e-08
-2.54342e-08
1.13996e-08
-2.8153e-08
1.1943e-08
-3.09813e-08
1.24551e-08
-3.39126e-08
1.29355e-08
-3.69403e-08
1.33839e-08
-4.00575e-08
1.38002e-08
-4.32576e-08
1.41843e-08
-4.65336e-08
1.45364e-08
-4.9879e-08
1.48568e-08
-5.32868e-08
1.51457e-08
-5.67505e-08
1.54035e-08
-6.02634e-08
1.56306e-08
-6.38188e-08
1.58276e-08
-6.74105e-08
1.59948e-08
-7.10318e-08
1.61328e-08
-7.46767e-08
1.62421e-08
-7.83388e-08
1.63232e-08
-8.2012e-08
1.63767e-08
-8.56904e-08
1.64031e-08
-8.93681e-08
1.6403e-08
-9.30393e-08
1.63768e-08
-9.66983e-08
1.63251e-08
-1.0034e-07
1.62484e-08
-1.03958e-07
1.61472e-08
-1.07547e-07
1.6022e-08
-1.11102e-07
1.58733e-08
-1.14619e-07
1.57015e-08
-1.18091e-07
1.5507e-08
-1.21514e-07
1.52904e-08
-1.24884e-07
1.50521e-08