/*--------------------------------*- C++ -*----------------------------------*\
  =========                 |
  \\      /  F ield         | OpenFOAM: The Open Source CFD Toolbox
   \\    /   O peration     | Website:  https://openfoam.org
    \\  /    A nd           | Version:  7
     \\/     M anipulation  |
\*---------------------------------------------------------------------------*/
FoamFile
{
    version     2.0;
    format      ascii;
    class       volScalarField;
    location    "0.4125";
    object      p;
}
// * * * * * * * * * * * * * * * * * * * * * * * * * * * * * * * * * * * * * //

dimensions      [0 2 -2 0 0 0 0];

internalField   nonuniform List<scalar> 
25600
(
4.13563e-09
1.12254e-05
1.39071e-05
2.6581e-06
-2.29389e-05
-6.1528e-05
-0.000111466
-0.000170965
-0.0002383
-0.00031188
-0.000390256
-0.000472121
-0.000556312
-0.000641781
-0.000727595
-0.000812932
-0.000897063
-0.000979348
-0.00105922
-0.00113616
-0.00120975
-0.0012796
-0.00134536
-0.00140675
-0.00146352
-0.00151545
-0.00156236
-0.00160408
-0.00164049
-0.00167148
-0.00169695
-0.00171682
-0.00173103
-0.00173953
-0.0017423
-0.00173929
-0.0017305
-0.00171591
-0.00169553
-0.00166934
-0.00163735
-0.00159958
-0.00155604
-0.00150675
-0.00145173
-0.001391
-0.00132458
-0.00125252
-0.00117484
-0.00109156
-0.00100274
-0.00090842
-0.00080864
-0.000703456
-0.000592916
-0.000477078
-0.000356002
-0.000229758
-9.84266e-05
3.79083e-05
0.000179159
0.000325234
0.000476035
0.000631445
0.000791343
0.000955598
0.00112407
0.00129662
0.00147307
0.00165327
0.00183703
0.00202416
0.00221445
0.00240769
0.00260365
0.0028021
0.00300279
0.00320545
0.00340982
0.0036156
0.00382251
0.00403025
0.0042385
0.00444694
0.00465525
0.00486307
0.00507005
0.00527585
0.00548011
0.00568247
0.00588256
0.00608001
0.00627443
0.00646546
0.00665273
0.00683587
0.0070145
0.00718828
0.00735685
0.00751984
0.00767694
0.00782779
0.0079721
0.00810956
0.00823987
0.00836278
0.00847801
0.00858535
0.00868456
0.00877546
0.00885787
0.00893165
0.00899667
0.00905283
0.00910008
0.00913836
0.00916766
0.009188
0.00919942
0.009202
0.00919584
0.00918107
0.00915787
0.00912643
0.00908698
0.00903979
0.00898513
0.00892335
0.00885477
0.00877979
0.0086988
0.00861226
0.00852062
0.00842439
0.00832409
0.00822026
0.0081135
0.00800439
0.00789358
0.00778172
0.00766948
0.00755758
0.00744676
0.00733778
0.00723142
0.0071285
0.00702988
0.00693642
0.00684902
0.00676859
0.00669606
0.00663237
0.00657841
0.00653502
0.0065029
0.00648249
0.00647366
0.0064754
0.0064852
0.00649746
-5.51874e-06
5.61531e-06
6.05235e-06
-5.87275e-06
-2.94607e-05
-6.39856e-05
-0.000108357
-0.00016124
-0.000221275
-0.000287141
-0.000357591
-0.000431481
-0.000507761
-0.00058547
-0.000663748
-0.000741814
-0.000818972
-0.000894601
-0.00096815
-0.00103913
-0.0011071
-0.00117168
-0.00123253
-0.00128935
-0.00134189
-0.00138993
-0.00143327
-0.00147174
-0.00150521
-0.00153355
-0.00155665
-0.00157444
-0.00158684
-0.00159379
-0.00159526
-0.0015912
-0.00158159
-0.00156642
-0.00154566
-0.00151932
-0.0014874
-0.00144989
-0.00140682
-0.00135819
-0.00130403
-0.00124434
-0.00117916
-0.00110852
-0.00103244
-0.000950955
-0.000864099
-0.000771916
-0.000674457
-0.000571772
-0.000463911
-0.000350929
-0.000232888
-0.000109857
1.80861e-05
0.000150858
0.00028837
0.000430531
0.000577242
0.000728389
0.00088385
0.0010435
0.00120719
0.00137479
0.00154615
0.00172108
0.00189942
0.00208096
0.00226553
0.0024529
0.00264286
0.00283518
0.00302961
0.0032259
0.0034238
0.00362301
0.00382326
0.00402426
0.00422571
0.0044273
0.0046287
0.0048296
0.00502964
0.0052285
0.00542583
0.00562129
0.00581453
0.00600519
0.0061929
0.00637731
0.00655806
0.00673481
0.00690721
0.00707491
0.00723758
0.00739488
0.00754648
0.00769208
0.00783138
0.00796409
0.00808994
0.00820867
0.00832005
0.00842385
0.00851987
0.00860792
0.00868784
0.0087595
0.00882279
0.00887762
0.00892393
0.00896168
0.00899086
0.0090115
0.00902363
0.00902735
0.00902274
0.00900995
0.00898914
0.00896051
0.00892428
0.00888071
0.00883006
0.00877267
0.00870886
0.00863901
0.0085635
0.00848276
0.00839724
0.00830742
0.00821381
0.00811692
0.00801732
0.00791558
0.00781231
0.00770813
0.00760369
0.00749965
0.00739672
0.0072956
0.00719705
0.00710181
0.00701068
0.00692443
0.00684388
0.00676984
0.0067031
0.00664445
0.00659459
0.00655417
0.00652364
0.00650322
0.00649263
0.006491
0.00649746
0.00650972
9.59215e-08
1.18519e-05
1.12459e-05
-1.07565e-06
-2.35702e-05
-5.56389e-05
-9.64444e-05
-0.000144907
-0.000199892
-0.000260276
-0.000324975
-0.000392964
-0.000463292
-0.000535086
-0.000607547
-0.000679946
-0.00075162
-0.000821971
-0.000890473
-0.000956651
-0.00102008
-0.00108037
-0.0011372
-0.00119027
-0.00123932
-0.00128413
-0.00132449
-0.00136025
-0.00139125
-0.00141736
-0.00143847
-0.0014545
-0.00146536
-0.001471
-0.00147136
-0.00146639
-0.00145608
-0.0014404
-0.00141933
-0.00139286
-0.00136098
-0.0013237
-0.00128103
-0.00123298
-0.00117954
-0.00112076
-0.00105664
-0.000987217
-0.000912517
-0.000832569
-0.000747406
-0.000657071
-0.000561612
-0.000461079
-0.000355518
-0.000244988
-0.000129551
-9.27687e-06
0.000115759
0.000245477
0.00037979
0.000518606
0.000661825
0.000809336
0.000961016
0.00111674
0.00127637
0.00143978
0.0016068
0.00177727
0.00195102
0.00212786
0.00230759
0.00249002
0.00267493
0.00286209
0.00305127
0.00324222
0.00343468
0.00362839
0.00382308
0.00401845
0.00421423
0.00441011
0.00460577
0.00480091
0.00499518
0.00518828
0.00537987
0.00556962
0.00575719
0.00594223
0.00612439
0.00630333
0.00647871
0.0066502
0.00681745
0.00698016
0.00713797
0.00729058
0.00743767
0.00757895
0.00771413
0.00784294
0.00796513
0.00808044
0.00818865
0.00828954
0.00838293
0.00846863
0.00854651
0.00861643
0.00867828
0.008732
0.00877752
0.00881481
0.00884386
0.00886471
0.0088774
0.00888201
0.00887863
0.00886741
0.00884851
0.00882212
0.00878846
0.00874777
0.00870035
0.00864647
0.00858648
0.00852073
0.0084496
0.00837351
0.00829288
0.00820818
0.0081199
0.00802855
0.00793465
0.00783877
0.00774149
0.00764339
0.00754511
0.00744726
0.00735052
0.00725557
0.00716309
0.0070738
0.00698841
0.00690767
0.00683231
0.00676305
0.0067006
0.00664563
0.00659876
0.0065605
0.00653124
0.00651116
0.00650005
0.00649742
0.0065039
0.00651953
1.91453e-05
3.00713e-05
2.83261e-05
1.53299e-05
-6.91129e-06
-3.77558e-05
-7.64627e-05
-0.000122088
-0.00017364
-0.000230144
-0.000290642
-0.000354212
-0.000419992
-0.000487183
-0.000555043
-0.0006229
-0.000690127
-0.00075616
-0.000820494
-0.000882669
-0.000942277
-0.000998948
-0.00105236
-0.00110222
-0.00114826
-0.00119028
-0.00122806
-0.00126145
-0.00129028
-0.00131443
-0.00133379
-0.00134826
-0.00135776
-0.00136222
-0.00136159
-0.00135582
-0.00134488
-0.00132875
-0.00130739
-0.0012808
-0.00124897
-0.0012119
-0.00116959
-0.00112205
-0.00106929
-0.00101132
-0.000948168
-0.000879855
-0.000806408
-0.000727854
-0.000644227
-0.000555572
-0.000461933
-0.000363355
-0.000259882
-0.000151573
-3.84934e-05
7.92872e-05
0.000201697
0.000328657
0.000460084
0.000595886
0.000735965
0.000880208
0.0010285
0.0011807
0.0013367
0.00149636
0.00165952
0.00182602
0.00199569
0.00216833
0.00234378
0.00252183
0.00270227
0.00288488
0.00306942
0.00325566
0.00344335
0.00363223
0.00382203
0.00401248
0.00420329
0.00439418
0.00458483
0.00477494
0.0049642
0.00515229
0.00533889
0.00552368
0.00570633
0.0058865
0.00606386
0.00623807
0.00640882
0.00657576
0.00673859
0.00689698
0.00705061
0.00719918
0.0073424
0.00747996
0.00761161
0.00773707
0.0078561
0.00796847
0.00807396
0.00817235
0.00826347
0.00834716
0.00842327
0.00849168
0.00855229
0.00860503
0.00864984
0.00868671
0.00871563
0.00873663
0.00874974
0.00875506
0.00875269
0.00874276
0.00872543
0.00870089
0.00866936
0.00863107
0.0085863
0.00853534
0.00847852
0.00841617
0.00834868
0.00827643
0.00819986
0.0081194
0.00803554
0.00794875
0.00785957
0.00776851
0.00767614
0.00758303
0.00748977
0.00739697
0.00730525
0.00721526
0.00712764
0.00704308
0.00696225
0.00688582
0.00681447
0.00674886
0.00668965
0.00663743
0.00659276
0.00655611
0.00652786
0.00650827
0.00649727
0.00649471
0.0065023
0.00652135
5.08913e-05
5.90714e-05
5.52562e-05
4.09908e-05
1.8304e-05
-1.21271e-05
-4.96121e-05
-9.33024e-05
-0.000142329
-0.000195831
-0.000252959
-0.000312895
-0.000374862
-0.000438124
-0.000502005
-0.000565876
-0.000629162
-0.000691332
-0.000751907
-0.000810447
-0.00086656
-0.000919896
-0.000970141
-0.00101701
-0.00106025
-0.00109964
-0.001135
-0.00116615
-0.00119293
-0.00121521
-0.00123289
-0.00124587
-0.00125406
-0.0012574
-0.00125581
-0.00124927
-0.00123773
-0.00122116
-0.00119953
-0.00117283
-0.00114105
-0.00110419
-0.00106224
-0.00101521
-0.000963112
-0.000905956
-0.00084376
-0.000776547
-0.000704337
-0.000627159
-0.000545046
-0.000458045
-0.000366198
-0.000269542
-0.000168124
-6.20014e-05
4.87614e-05
0.000164096
0.000283932
0.000408194
0.000536797
0.000669653
0.000806665
0.000947719
0.0010927
0.00124149
0.00139396
0.00154998
0.0017094
0.00187205
0.00203776
0.00220636
0.00237768
0.00255151
0.00272764
0.00290587
0.00308597
0.00326769
0.00345081
0.00363507
0.0038202
0.00400595
0.00419203
0.00437816
0.00456404
0.00474938
0.00493387
0.00511721
0.00529909
0.00547919
0.00565719
0.00583276
0.00600559
0.00617534
0.00634171
0.00650438
0.00666304
0.00681737
0.00696708
0.00711186
0.00725143
0.00738551
0.00751383
0.00763615
0.00775223
0.00786184
0.00796476
0.00806081
0.00814981
0.00823159
0.00830603
0.00837301
0.00843244
0.00848425
0.00852839
0.00856484
0.0085936
0.00861469
0.00862817
0.00863412
0.00863263
0.00862385
0.00860794
0.00858507
0.00855545
0.00851934
0.00847698
0.00842866
0.00837471
0.00831544
0.00825124
0.00818248
0.00810958
0.00803296
0.00795308
0.00787042
0.00778548
0.00769876
0.00761081
0.00752217
0.0074334
0.00734508
0.00725781
0.0071722
0.00708887
0.00700844
0.00693155
0.00685882
0.00679089
0.00672837
0.00667185
0.00662188
0.00657898
0.00654361
0.00651616
0.00649694
0.00648604
0.00648356
0.00649183
0.00651277
9.46687e-05
9.83084e-05
9.13743e-05
7.51209e-05
5.12593e-05
2.04674e-05
-1.6591e-05
-5.91708e-05
-0.0001065
-0.000157807
-0.000212345
-0.000269385
-0.00032823
-0.000388214
-0.000448716
-0.000509158
-0.000569007
-0.000627772
-0.000685003
-0.000740284
-0.000793245
-0.000843551
-0.0008909
-0.000935019
-0.000975666
-0.00101263
-0.00104573
-0.00107477
-0.00109963
-0.00112016
-0.00113627
-0.00114783
-0.00115479
-0.00115705
-0.00115456
-0.00114729
-0.00113518
-0.0011182
-0.00109632
-0.00106952
-0.00103781
-0.00100116
-0.000959569
-0.000913048
-0.000861603
-0.000805246
-0.00074399
-0.000677856
-0.000606863
-0.000531038
-0.000450416
-0.000365037
-0.000274942
-0.000180167
-8.07573e-05
2.32277e-05
0.000131726
0.000244674
0.000362001
0.000483635
0.000609494
0.000739489
0.000873523
0.00101149
0.00115327
0.00129875
0.00144781
0.00160032
0.00175613
0.00191507
0.00207699
0.00224171
0.00240906
0.00257885
0.00275087
0.00292492
0.00310077
0.0032782
0.00345697
0.00363683
0.00381754
0.00399882
0.00418042
0.00436206
0.00454344
0.00472427
0.00490428
0.00508314
0.00526058
0.00543627
0.0056099
0.00578116
0.00594974
0.00611533
0.00627761
0.00643628
0.00659104
0.00674159
0.00688763
0.00702888
0.00716505
0.00729588
0.00742112
0.00754051
0.00765384
0.00776088
0.00786142
0.00795528
0.00804229
0.0081223
0.00819518
0.00826082
0.00831913
0.00837005
0.00841354
0.00844957
0.00847814
0.0084993
0.00851307
0.00851955
0.00851885
0.00851108
0.00849641
0.00847503
0.00844712
0.00841294
0.00837273
0.00832678
0.00827539
0.00821889
0.00815763
0.00809198
0.00802235
0.00794916
0.00787284
0.00779385
0.00771268
0.00762982
0.00754577
0.00746107
0.00737625
0.00729187
0.00720849
0.00712669
0.00704705
0.00697017
0.00689663
0.00682703
0.00676194
0.00670195
0.00664759
0.00659938
0.00655783
0.00652336
0.00649639
0.00647729
0.00646625
0.0064635
0.00647166
0.00649284
0.000149209
0.000146937
0.000135939
0.000116967
9.12115e-05
5.93304e-05
2.19416e-05
-2.02904e-05
-6.66835e-05
-0.000116558
-0.000169246
-0.000224099
-0.000280492
-0.000337829
-0.000395543
-0.000453107
-0.000510031
-0.000565857
-0.000620168
-0.000672579
-0.000722743
-0.000770339
-0.000815083
-0.000856713
-0.000895001
-0.000929747
-0.000960759
-0.000987874
-0.00101095
-0.00102986
-0.00104449
-0.00105475
-0.00106054
-0.0010618
-0.00105848
-0.00105053
-0.00103789
-0.00102053
-0.00099842
-0.000971551
-0.000939908
-0.000903476
-0.000862251
-0.000816236
-0.00076544
-0.000709869
-0.000649535
-0.000584455
-0.000514651
-0.000440148
-0.000360981
-0.000277186
-0.000188796
-9.58498e-05
1.60755e-06
0.000103517
0.000209819
0.000320453
0.000435352
0.000554446
0.000677655
0.000804888
0.000936051
0.00107104
0.00120974
0.00135206
0.00149785
0.001647
0.00179935
0.00195476
0.00211306
0.00227408
0.00243766
0.00260361
0.00277174
0.00294182
0.00311366
0.00328702
0.00346169
0.00363741
0.00381395
0.00399105
0.00416845
0.00434587
0.00452303
0.00469966
0.00487547
0.00505017
0.00522346
0.00539505
0.00556463
0.00573189
0.00589653
0.00605824
0.00621674
0.00637171
0.00652288
0.00666993
0.0068126
0.00695058
0.00708363
0.00721146
0.00733385
0.00745055
0.00756134
0.00766601
0.00776436
0.00785621
0.00794139
0.00801976
0.00809119
0.00815558
0.00821285
0.00826293
0.00830579
0.00834141
0.00836978
0.00839095
0.00840495
0.00841188
0.00841183
0.00840494
0.00839135
0.00837126
0.00834485
0.00831236
0.00827404
0.00823016
0.00818102
0.00812694
0.00806826
0.00800535
0.00793859
0.0078684
0.00779519
0.00771941
0.00764153
0.00756202
0.00748136
0.00740007
0.00731865
0.00723765
0.00715758
0.00707901
0.00700248
0.00692855
0.00685779
0.00679073
0.00672792
0.0066699
0.00661718
0.00657026
0.00652959
0.00649562
0.00646876
0.00644942
0.00643784
0.00643436
0.00644156
0.00646149
0.000213041
0.000203851
0.000187995
0.00016564
0.000137339
0.0001037
6.53064e-05
2.27468e-05
-2.3387e-05
-7.24975e-05
-0.000123994
-0.000177295
-0.000231846
-0.00028711
-0.000342578
-0.000397772
-0.000452242
-0.000505567
-0.000557364
-0.000607275
-0.000654978
-0.000700172
-0.000742587
-0.000781982
-0.000818143
-0.00085087
-0.000879982
-0.000905328
-0.000926769
-0.000944182
-0.000957455
-0.000966495
-0.000971219
-0.000971563
-0.000967468
-0.000958879
-0.000945752
-0.000928052
-0.000905751
-0.000878832
-0.000847277
-0.000811074
-0.000770216
-0.000724707
-0.000674553
-0.000619759
-0.000560332
-0.000496286
-0.000427647
-0.000354439
-0.000276692
-0.00019444
-0.000107711
-1.65457e-05
7.90122e-05
0.000178906
0.000283077
0.000391468
0.000504019
0.000620658
0.000741307
0.000865874
0.000994271
0.0011264
0.00126215
0.00140142
0.00154408
0.00169001
0.00183907
0.0019911
0.00214594
0.00230345
0.00246345
0.00262576
0.00279019
0.00295653
0.00312457
0.0032941
0.0034649
0.00363674
0.00380936
0.00398253
0.00415599
0.00432946
0.00450269
0.0046754
0.0048473
0.00501811
0.00518756
0.00535534
0.00552116
0.00568471
0.00584571
0.00600385
0.00615885
0.00631042
0.00645827
0.00660211
0.00674166
0.00687665
0.00700682
0.00713191
0.00725168
0.00736591
0.00747438
0.00757688
0.00767321
0.0077632
0.0078467
0.00792355
0.00799364
0.00805688
0.00811317
0.00816247
0.00820473
0.00823994
0.0082681
0.00828924
0.00830341
0.0083107
0.0083112
0.00830504
0.00829238
0.0082734
0.00824828
0.00821725
0.00818056
0.00813848
0.0080913
0.00803932
0.00798288
0.00792234
0.00785807
0.00779047
0.00771996
0.00764695
0.0075719
0.00749526
0.00741751
0.00733912
0.00726059
0.00718243
0.00710515
0.00702926
0.0069553
0.00688378
0.00681523
0.00675018
0.00668912
0.00663257
0.006581
0.00653489
0.00649467
0.00646077
0.00643361
0.00641362
0.00640105
0.00639629
0.00640172
0.00641918
0.000284686
0.000267859
0.000246523
0.00022022
0.000188802
0.000152824
0.000112837
6.93501e-05
2.28761e-05
-2.60626e-05
-7.69475e-05
-0.000129266
-0.000182521
-0.000236234
-0.000289952
-0.000343241
-0.000395691
-0.000446922
-0.000496581
-0.000544343
-0.000589903
-0.000632985
-0.000673342
-0.00071075
-0.000745
-0.000775905
-0.0008033
-0.000827039
-0.00084699
-0.000863034
-0.000875062
-0.000882986
-0.00088673
-0.000886231
-0.000881427
-0.000872264
-0.000858698
-0.000840698
-0.000818236
-0.000791291
-0.000759844
-0.000723884
-0.000683402
-0.000638402
-0.000588888
-0.000534862
-0.000476327
-0.000413301
-0.000345807
-0.000273868
-0.00019751
-0.000116761
-3.16527e-05
5.77782e-05
0.000151487
0.00024942
0.000351523
0.000457743
0.000568021
0.000682286
0.000800461
0.000922458
0.00104819
0.00117757
0.00131048
0.00144683
0.00158649
0.00172935
0.00187525
0.00202406
0.00217562
0.00232979
0.00248639
0.00264525
0.00280617
0.00296897
0.00313343
0.00329935
0.00346651
0.00363469
0.00380365
0.00397314
0.00414291
0.0043127
0.00448226
0.00465131
0.00481958
0.0049868
0.00515267
0.00531693
0.00547927
0.0056394
0.00579704
0.00595189
0.00610367
0.00625211
0.00639691
0.0065378
0.0066745
0.00680675
0.00693428
0.00705686
0.00717425
0.00728622
0.00739256
0.00749307
0.00758756
0.00767586
0.00775781
0.00783327
0.00790213
0.0079643
0.00801969
0.00806825
0.00810995
0.00814475
0.00817268
0.00819376
0.00820804
0.0082156
0.00821655
0.00821101
0.00819913
0.00818108
0.00815706
0.00812728
0.00809199
0.00805145
0.00800593
0.00795575
0.00790124
0.00784273
0.00778059
0.00771521
0.00764698
0.00757633
0.00750368
0.00742947
0.00735415
0.0072782
0.00720207
0.00712627
0.00705126
0.00697756
0.00690564
0.00683602
0.00676919
0.00670563
0.00664584
0.00659027
0.00653938
0.00649363
0.00645343
0.00641919
0.00639132
0.00637023
0.00635622
0.00634964
0.0063526
0.0063666
0.000362739
0.000337797
0.000310508
0.000279786
0.000244765
0.000205954
0.000163864
0.000118927
7.15853e-05
2.22937e-05
-2.84977e-05
-8.03375e-05
-0.000132789
-0.000185429
-0.000237847
-0.000289657
-0.000340492
-0.000390007
-0.000437883
-0.00048382
-0.00052754
-0.000568793
-0.000607351
-0.000643004
-0.000675556
-0.000704836
-0.000730691
-0.000752982
-0.000771587
-0.000786388
-0.000797286
-0.000804199
-0.000807056
-0.000805791
-0.000800346
-0.000790667
-0.000776715
-0.00075846
-0.000735873
-0.00070893
-0.000677614
-0.000641912
-0.00060182
-0.000557336
-0.000508462
-0.000455195
-0.000397543
-0.000335522
-0.000269155
-0.000198462
-0.000123462
-4.4182e-05
3.93464e-05
0.000127086
0.000218995
0.000315023
0.000415121
0.000519237
0.000627315
0.000739287
0.000855072
0.000974591
0.00109776
0.00122449
0.00135469
0.00148824
0.00162503
0.00176494
0.00190783
0.00205357
0.00220201
0.002353
0.00250638
0.00266197
0.00281959
0.00297904
0.00314013
0.00330266
0.00346641
0.00363116
0.00379668
0.00396273
0.00412907
0.00429543
0.00446158
0.00462724
0.00479214
0.00495602
0.00511861
0.00527961
0.00543874
0.00559573
0.00575028
0.00590212
0.00605096
0.00619652
0.00633855
0.00647674
0.00661084
0.00674059
0.00686573
0.00698602
0.00710124
0.00721115
0.00731557
0.00741427
0.00750709
0.00759384
0.00767439
0.00774858
0.00781632
0.0078775
0.00793206
0.00797993
0.00802109
0.00805551
0.00808319
0.00810418
0.00811852
0.00812628
0.00812758
0.00812254
0.0081113
0.00809403
0.00807092
0.00804219
0.00800807
0.00796882
0.00792471
0.00787605
0.00782314
0.00776633
0.00770598
0.00764246
0.00757615
0.00750745
0.00743679
0.00736459
0.00729127
0.0072173
0.00714313
0.0070692
0.00699601
0.006924
0.00685366
0.00678546
0.00671986
0.00665734
0.00659833
0.00654329
0.00649265
0.00644683
0.00640623
0.00637124
0.00634225
0.00631965
0.00630374
0.00629487
0.00629474
0.00630452
0.000445899
0.000412541
0.000378957
0.000343446
0.000304423
0.000262355
0.000217723
0.000170887
0.000122218
7.21093e-05
2.09542e-05
-3.08601e-05
-8.29496e-05
-0.000134941
-0.000186471
-0.000237195
-0.000286785
-0.000334937
-0.000381359
-0.000425777
-0.000467945
-0.000507637
-0.000544641
-0.000578762
-0.000609824
-0.000637669
-0.000662159
-0.00068316
-0.000700556
-0.000714241
-0.000724124
-0.000730133
-0.000732195
-0.000730244
-0.000724228
-0.000714097
-0.000699815
-0.000681352
-0.000658677
-0.000631767
-0.000600607
-0.000565185
-0.000525495
-0.000481535
-0.000433302
-0.000380793
-0.000324017
-0.000262991
-0.000197734
-0.000128262
-5.45918e-05
2.32519e-05
0.000105237
0.000191328
0.000281485
0.000375662
0.000473815
0.000575895
0.000681844
0.000791596
0.000905076
0.00102221
0.00114291
0.0012671
0.00139469
0.00152556
0.0016596
0.00179671
0.00193674
0.00207956
0.00222503
0.00237301
0.00252334
0.00267584
0.00283033
0.00298664
0.00314456
0.0033039
0.00346445
0.003626
0.00378832
0.00395116
0.0041143
0.00427749
0.00444047
0.00460299
0.00476479
0.0049256
0.00508515
0.00524317
0.00539937
0.00555347
0.0057052
0.00585428
0.00600044
0.00614341
0.0062829
0.00641865
0.0065504
0.00667788
0.00680086
0.00691908
0.00703234
0.00714041
0.00724308
0.00734016
0.00743146
0.00751683
0.0075961
0.00766914
0.00773586
0.00779615
0.00784994
0.00789718
0.00793783
0.00797187
0.00799931
0.00802018
0.00803453
0.00804243
0.008044
0.00803934
0.00802861
0.00801197
0.00798961
0.00796174
0.00792858
0.00789038
0.00784743
0.0078
0.00774842
0.00769301
0.00763412
0.00757211
0.00750736
0.00744025
0.00737119
0.00730058
0.00722886
0.00715645
0.00708379
0.00701131
0.00693947
0.00686872
0.0067995
0.00673227
0.00666746
0.00660552
0.00654687
0.00649193
0.00644112
0.00639482
0.00635342
0.00631729
0.00628679
0.00626228
0.00624407
0.00623247
0.00622878
0.00623375
0.000532988
0.000491027
0.000450911
0.000410334
0.000366989
0.000321311
0.000273766
0.000224644
0.000174251
0.000122923
7.09967e-05
1.88049e-05
-3.33158e-05
-8.50414e-05
-0.000136054
-0.000186049
-0.00023474
-0.000281851
-0.000327121
-0.000370309
-0.000411197
-0.000449579
-0.000485259
-0.000518065
-0.000547837
-0.000574433
-0.000597725
-0.000617588
-0.000633913
-0.00064661
-0.000655597
-0.000660804
-0.00066216
-0.000659606
-0.000653091
-0.000642574
-0.000628019
-0.000609395
-0.000586673
-0.000559831
-0.000528856
-0.000493737
-0.000454467
-0.000411039
-0.000363451
-0.0003117
-0.000255797
-0.000195756
-0.000131594
-6.33213e-05
9.04591e-06
8.5483e-05
0.00016596
0.000250441
0.000338893
0.000431273
0.000527538
0.000627645
0.000731534
0.000839142
0.000950399
0.00106523
0.00118357
0.00130532
0.0014304
0.00155871
0.00169013
0.00182455
0.00196185
0.0021019
0.00224456
0.00238969
0.00253713
0.00268672
0.00283828
0.00299162
0.00314657
0.00330293
0.0034605
0.00361906
0.00377839
0.00393826
0.00409844
0.00425868
0.00441875
0.00457838
0.00473733
0.00489532
0.00505209
0.00520738
0.0053609
0.00551238
0.00566155
0.00580814
0.00595187
0.00609248
0.00622969
0.00636324
0.00649287
0.00661832
0.00673936
0.00685573
0.00696724
0.00707365
0.00717477
0.0072704
0.00736035
0.00744447
0.0075226
0.00759462
0.00766042
0.00771991
0.00777301
0.00781967
0.00785985
0.00789353
0.00792072
0.00794145
0.00795577
0.00796375
0.0079655
0.00796114
0.0079508
0.00793465
0.00791287
0.00788567
0.00785327
0.00781592
0.00777388
0.00772745
0.00767692
0.00762261
0.00756487
0.00750405
0.00744051
0.00737464
0.00730681
0.00723743
0.00716691
0.00709566
0.0070241
0.00695265
0.00688175
0.00681183
0.0067433
0.00667661
0.00661217
0.00655039
0.00649169
0.00643646
0.00638508
0.00633792
0.00629535
0.00625771
0.00622534
0.00619857
0.00617768
0.006163
0.00615534
0.00615507
0.000622927
0.000572271
0.00052547
0.000479616
0.000431697
0.000382127
0.000331358
0.000279621
0.000227165
0.000174267
0.000121213
6.82903e-05
1.57866e-05
-3.60178e-05
-8.68471e-05
-0.00013644
-0.000184541
-0.000230905
-0.000275308
-0.000317538
-0.000357399
-0.000394705
-0.000429282
-0.000460978
-0.000489653
-0.000515176
-0.00053743
-0.000556301
-0.000571695
-0.000583531
-0.000591736
-0.000596242
-0.000596985
-0.000593909
-0.000586972
-0.000576136
-0.000561365
-0.000542629
-0.000519902
-0.000493166
-0.000462408
-0.000427618
-0.000388785
-0.000345901
-0.000298964
-0.000247975
-0.000192943
-0.000133881
-7.07991e-05
-3.70597e-06
6.73819e-05
0.00014244
0.000221441
0.000304352
0.000391142
0.000481776
0.000576211
0.000674404
0.0007763
0.000881836
0.000990948
0.00110357
0.00121963
0.00133905
0.00146173
0.00158758
0.0017165
0.00184837
0.00198308
0.00212049
0.00226049
0.00240292
0.00254764
0.00269449
0.00284328
0.00299385
0.00314602
0.0032996
0.00345438
0.00361017
0.00376673
0.00392385
0.00408129
0.00423882
0.00439621
0.00455319
0.00470953
0.00486495
0.0050192
0.005172
0.0053231
0.00547221
0.00561907
0.00576341
0.00590496
0.00604346
0.00617863
0.00631022
0.00643796
0.00656161
0.00668092
0.00679566
0.00690562
0.00701057
0.00711032
0.00720466
0.00729343
0.00737645
0.00745358
0.00752469
0.00758968
0.00764845
0.00770094
0.00774707
0.00778682
0.00782016
0.00784711
0.00786768
0.00788194
0.00788995
0.00789182
0.00788765
0.00787759
0.00786181
0.00784046
0.00781377
0.00778195
0.00774523
0.00770389
0.0076582
0.00760846
0.00755499
0.00749811
0.00743818
0.00737553
0.00731056
0.00724362
0.0071751
0.00710541
0.00703494
0.0069641
0.00689329
0.00682293
0.00675344
0.00668521
0.00661866
0.00655419
0.00649219
0.00643304
0.00637713
0.00632482
0.00627644
0.00623235
0.00619286
0.00615829
0.00612892
0.00610506
0.00608698
0.00607505
0.00606923
0.00071474
0.000655374
0.000601788
0.000550502
0.000497819
0.00044413
0.000389882
0.000335255
0.000280442
0.000225672
0.000171184
0.000117219
6.40221e-05
1.18313e-05
-3.91197e-05
-8.8603e-05
-0.000136394
-0.000182286
-0.000226084
-0.000267605
-0.000306671
-0.000343121
-0.000376804
-0.000407588
-0.000435348
-0.000459966
-0.000481335
-0.000499359
-0.000513957
-0.000525058
-0.000532592
-0.000536497
-0.000536717
-0.000533204
-0.000525921
-0.000514832
-0.000499904
-0.000481108
-0.000458422
-0.000431831
-0.000401324
-0.000366889
-0.000328512
-0.000286186
-0.000239911
-0.00018969
-0.00013553
-7.74389e-05
-1.54254e-05
5.05038e-05
0.000120333
0.000194038
0.000271593
0.000352971
0.000438143
0.000527079
0.000619738
0.000716075
0.00081604
0.000919576
0.00102662
0.00113711
0.00125099
0.00136816
0.00148855
0.00161206
0.00173859
0.00186803
0.00200028
0.0021352
0.00227268
0.00241257
0.00255472
0.00269898
0.00284519
0.00299316
0.00314274
0.00329372
0.00344593
0.00359914
0.00375314
0.00390772
0.00406265
0.0042177
0.00437264
0.00452721
0.00468117
0.00483426
0.00498622
0.00513679
0.0052857
0.00543269
0.00557749
0.00571983
0.00585944
0.00599607
0.00612944
0.0062593
0.00638538
0.00650744
0.00662525
0.00673856
0.00684716
0.00695085
0.0070494
0.00714263
0.00723037
0.00731244
0.0073887
0.00745903
0.00752331
0.00758146
0.0076334
0.00767907
0.00771843
0.00775146
0.00777818
0.00779859
0.00781276
0.00782075
0.00782267
0.00781862
0.00780875
0.0077932
0.00777216
0.00774582
0.0077144
0.00767813
0.00763728
0.00759211
0.00754292
0.00749002
0.00743374
0.00737439
0.00731235
0.00724795
0.00718157
0.00711358
0.00704437
0.00697433
0.00690384
0.0068333
0.00676311
0.00669366
0.00662535
0.00655857
0.00649369
0.0064311
0.00637116
0.00631422
0.00626062
0.00621069
0.00616475
0.0061231
0.00608602
0.00605378
0.00602666
0.00600493
0.00598849
0.00597689
0.000807532
0.000739483
0.000679073
0.000622254
0.000564658
0.000506673
0.000448741
0.000390994
0.000333577
0.000276676
0.000220488
0.000165209
0.000111044
5.81913e-05
6.84997e-06
-4.27839e-05
-9.05238e-05
-0.000136195
-0.000179631
-0.000220668
-0.000259156
-0.000294957
-0.000327945
-0.000358002
-0.000385018
-0.000408889
-0.000429523
-0.000446843
-0.000460776
-0.000471259
-0.00047823
-0.000481633
-0.000481422
-0.000477557
-0.000470004
-0.000458729
-0.000443703
-0.0004249
-0.000402303
-0.0003759
-0.000345678
-0.000311624
-0.000273724
-0.000231974
-0.000186375
-0.00013693
-8.36435e-05
-2.65186e-05
3.44372e-05
9.92164e-05
0.000167805
0.000240181
0.000316319
0.000396197
0.000479794
0.000567077
0.000658009
0.000752548
0.000850644
0.000952247
0.0010573
0.00116575
0.00127752
0.00139255
0.00151074
0.00163201
0.00175626
0.0018834
0.00201331
0.00214587
0.00228097
0.00241846
0.0025582
0.00270004
0.00284383
0.00298938
0.00313655
0.00328513
0.00343494
0.00358578
0.00373743
0.00388968
0.00404232
0.0041951
0.00434781
0.0045002
0.00465202
0.00480301
0.00495292
0.00510149
0.00524846
0.00539356
0.00553653
0.00567711
0.00581503
0.00595001
0.00608181
0.00621016
0.00633481
0.00645551
0.00657202
0.00668411
0.00679156
0.00689416
0.0069917
0.00708399
0.00717085
0.00725212
0.00732765
0.00739731
0.007461
0.00751862
0.00757009
0.00761536
0.00765438
0.00768714
0.00771363
0.00773388
0.00774795
0.00775589
0.00775781
0.00775381
0.00774403
0.00772862
0.00770775
0.00768162
0.00765044
0.00761444
0.00757388
0.00752902
0.00748016
0.00742759
0.00737163
0.00731261
0.00725087
0.00718676
0.00712063
0.00705285
0.0069838
0.00691384
0.00684336
0.00677274
0.00670236
0.00663261
0.00656387
0.0064965
0.00643087
0.00636734
0.00630625
0.00624795
0.00619275
0.00614096
0.00609288
0.00604878
0.00600892
0.00597355
0.00594294
0.00591735
0.00589622
0.0058787
0.000900486
0.000823824
0.000756584
0.000694167
0.000631556
0.000569138
0.000507357
0.000446301
0.000386075
0.000326824
0.000268705
0.000211876
0.000156501
0.000102746
5.07765e-05
7.53999e-07
-4.71708e-05
-9.28503e-05
-0.00013614
-0.000176903
-0.000215016
-0.000250364
-0.000282841
-0.000312342
-0.000338774
-0.00036205
-0.000382095
-0.000398847
-0.00041224
-0.00042222
-0.000428732
-0.000431733
-0.000431183
-0.000427049
-0.000419301
-0.000407906
-0.000392841
-0.000374087
-0.00035163
-0.000325457
-0.000295555
-0.00026191
-0.000224511
-0.000183357
-0.000138451
-8.97914e-05
-3.73797e-05
1.87813e-05
7.86866e-05
0.000142328
0.000209692
0.000280758
0.000355506
0.00043392
0.00051598
0.000601654
0.000690906
0.000783699
0.000879986
0.000979722
0.00108286
0.00118933
0.00129909
0.00141206
0.00152816
0.00164729
0.00176938
0.00189432
0.00202201
0.00215235
0.0022852
0.00242044
0.00255792
0.0026975
0.00283902
0.00298233
0.00312725
0.00327361
0.00342122
0.00356988
0.00371938
0.00386951
0.00402005
0.00417079
0.0043215
0.00447192
0.00462182
0.00477094
0.00491903
0.00506583
0.00521109
0.00535454
0.00549593
0.00563497
0.00577142
0.005905
0.00603545
0.00616252
0.00628595
0.0064055
0.00652092
0.00663199
0.00673848
0.00684018
0.00693689
0.0070284
0.00711455
0.00719516
0.00727009
0.00733922
0.00740242
0.00745961
0.00751071
0.00755564
0.00759438
0.0076269
0.00765319
0.00767329
0.00768724
0.0076951
0.00769697
0.00769296
0.00768319
0.00766782
0.00764702
0.00762097
0.00758988
0.00755399
0.00751354
0.00746879
0.00742004
0.00736758
0.00731171
0.00725276
0.00719106
0.00712695
0.00706078
0.0069929
0.00692369
0.0068535
0.0067827
0.00671168
0.00664078
0.0065704
0.00650088
0.00643259
0.00636587
0.00630108
0.00623853