/*--------------------------------*- C++ -*----------------------------------*\
  =========                 |
  \\      /  F ield         | OpenFOAM: The Open Source CFD Toolbox
   \\    /   O peration     | Website:  https://openfoam.org
    \\  /    A nd           | Version:  7
     \\/     M anipulation  |
\*---------------------------------------------------------------------------*/
FoamFile
{
    version     2.0;
    format      ascii;
    class       surfaceScalarField;
    location    "0.4125";
    object      phi;
}
// * * * * * * * * * * * * * * * * * * * * * * * * * * * * * * * * * * * * * //

dimensions      [0 3 -1 0 0 0 0];

internalField   nonuniform List<scalar> 
50880
(
7.85627e-12
-7.86537e-12
3.57874e-11
-2.79255e-11
7.41529e-11
-3.83694e-11
1.13273e-10
-3.91136e-11
1.46881e-10
-3.36125e-11
1.70841e-10
-2.3959e-11
1.825e-10
-1.16609e-11
1.80262e-10
2.23828e-12
1.63234e-10
1.70284e-11
1.31015e-10
3.22222e-11
8.35367e-11
4.74786e-11
2.09688e-11
6.25669e-11
-5.63527e-11
7.73188e-11
-1.47969e-10
9.16136e-11
-2.53336e-10
1.0537e-10
-3.71862e-10
1.18523e-10
-5.02904e-10
1.31042e-10
-6.45811e-10
1.42905e-10
-7.9991e-10
1.54098e-10
-9.64526e-10
1.64617e-10
-1.13899e-09
1.74464e-10
-1.32264e-09
1.83649e-10
-1.51483e-09
1.92185e-10
-1.71491e-09
2.00088e-10
-1.92229e-09
2.07373e-10
-2.13635e-09
2.14062e-10
-2.35651e-09
2.2017e-10
-2.58223e-09
2.25716e-10
-2.81294e-09
2.30722e-10
-3.04815e-09
2.3521e-10
-3.28734e-09
2.39195e-10
-3.53004e-09
2.42698e-10
-3.77578e-09
2.45739e-10
-4.02412e-09
2.48334e-10
-4.27463e-09
2.50503e-10
-4.52688e-09
2.52256e-10
-4.78049e-09
2.53611e-10
-5.03507e-09
2.5458e-10
-5.29025e-09
2.55175e-10
-5.54566e-09
2.55408e-10
-5.80095e-09
2.5529e-10
-6.05578e-09
2.54829e-10
-6.30981e-09
2.54034e-10
-6.56272e-09
2.52912e-10
-6.81419e-09
2.5147e-10
-7.0639e-09
2.49712e-10
-7.31154e-09
2.47641e-10
-7.55681e-09
2.45264e-10
-7.79939e-09
2.42582e-10
-8.03898e-09
2.39598e-10
-8.27529e-09
2.3631e-10
-8.50802e-09
2.32723e-10
-8.73685e-09
2.28837e-10
-8.96151e-09
2.24653e-10
-9.18168e-09
2.20171e-10
-9.39707e-09
2.1539e-10
-9.60738e-09
2.10309e-10
-9.81231e-09
2.04928e-10
-1.00116e-08
1.99246e-10
-1.02048e-08
1.93263e-10
-1.03918e-08
1.8698e-10
-1.05722e-08
1.80397e-10
-1.07457e-08
1.73514e-10
-1.0912e-08
1.66329e-10
-1.10709e-08
1.58847e-10
-1.1222e-08
1.5107e-10
-1.1365e-08
1.43e-10
-1.14996e-08
1.3464e-10
-1.16256e-08
1.25992e-10
-1.17426e-08
1.17064e-10
-1.18505e-08
1.07861e-10
-1.19489e-08
9.83875e-11
-1.20375e-08
8.86537e-11
-1.21162e-08
7.8667e-11
-1.21847e-08
6.84373e-11
-1.22426e-08
5.7977e-11
-1.22899e-08
4.72965e-11
-1.23263e-08
3.64089e-11
-1.23517e-08
2.53297e-11
-1.23657e-08
1.40729e-11
-1.23684e-08
2.65556e-12
-1.23595e-08
-8.90312e-12
-1.23389e-08
-2.05855e-11
-1.23065e-08
-3.23707e-11
-1.22623e-08
-4.42366e-11
-1.22061e-08
-5.61626e-11
-1.2138e-08
-6.81249e-11
-1.20579e-08
-8.00968e-11
-1.19659e-08
-9.20542e-11
-1.18619e-08
-1.03971e-10
-1.17461e-08
-1.1582e-10
-1.16185e-08
-1.27573e-10
-1.14793e-08
-1.39202e-10
-1.13286e-08
-1.50676e-10
-1.11667e-08
-1.61964e-10
-1.09936e-08
-1.73039e-10
-1.08097e-08
-1.83868e-10
-1.06153e-08
-1.94422e-10
-1.04107e-08
-2.0467e-10
-1.01961e-08
-2.14582e-10
-9.97195e-09
-2.24125e-10
-9.73868e-09
-2.33269e-10
-9.4967e-09
-2.41986e-10
-9.24645e-09
-2.50245e-10
-8.98843e-09
-2.58019e-10
-8.72315e-09
-2.65283e-10
-8.45114e-09
-2.72007e-10
-8.17297e-09
-2.78166e-10
-7.88924e-09
-2.83735e-10
-7.60055e-09
-2.88692e-10
-7.30753e-09
-2.93016e-10
-7.01084e-09
-2.96686e-10
-6.71116e-09
-2.99687e-10
-6.40916e-09
-3.02e-10
-6.10555e-09
-3.03611e-10
-5.80104e-09
-3.04508e-10
-5.49635e-09
-3.04683e-10
-5.19223e-09
-3.04127e-10
-4.8894e-09
-3.02832e-10
-4.5886e-09
-3.00795e-10
-4.29059e-09
-2.98018e-10
-3.99609e-09
-2.945e-10
-3.70584e-09
-2.90245e-10
-3.42058e-09
-2.85262e-10
-3.14102e-09
-2.79559e-10
-2.86788e-09
-2.73145e-10
-2.60185e-09
-2.66034e-10
-2.3436e-09
-2.58243e-10
-2.09381e-09
-2.49793e-10
-1.85311e-09
-2.40702e-10
-1.62211e-09
-2.30995e-10
-1.40142e-09
-2.20697e-10
-1.19158e-09
-2.0984e-10
-9.93125e-10
-1.98453e-10
-8.06556e-10
-1.8657e-10
-6.32327e-10
-1.74228e-10
-4.70856e-10
-1.61469e-10
-3.2252e-10
-1.48336e-10
-1.87647e-10
-1.34874e-10
-6.6513e-11
-1.21133e-10
4.06581e-11
-1.0717e-10
1.33704e-10
-9.3046e-11
2.12529e-10
-7.8826e-11
2.77113e-10
-6.45839e-11
3.27517e-10
-5.0404e-11
3.63899e-10
-3.63824e-11
3.86526e-10
-2.26286e-11
3.95797e-10
-9.27106e-12
3.92263e-10
3.5357e-12
3.76658e-10
1.56044e-11
3.4995e-10
2.67065e-11
3.13395e-10
3.65548e-11
2.68618e-10
4.47794e-11
2.17722e-10
5.08966e-11
1.63453e-10
5.42684e-11
1.09392e-10
5.40612e-11
6.0155e-11
4.9237e-11
2.15892e-11
3.85665e-11
5.51005e-13
2.10395e-11
5.5051e-13
2.9091e-11
-3.69504e-11
9.0456e-11
-8.92958e-11
1.65107e-10
-1.13021e-10
2.37189e-10
-1.11189e-10
2.93828e-10
-9.02502e-11
3.25574e-10
-5.57049e-11
3.25769e-10
-1.18553e-11
2.89946e-10
3.80595e-11
2.15302e-10
9.16699e-11
1.00282e-10
1.47239e-10
-5.57345e-11
2.03498e-10
-2.52676e-10
2.59515e-10
-4.89965e-10
3.14606e-10
-7.66626e-10
3.68276e-10
-1.08142e-09
4.20158e-10
-1.43288e-09
4.6999e-10
-1.81943e-09
5.17591e-10
-2.23936e-09
5.62841e-10
-2.69093e-09
6.05665e-10
-3.17234e-09
6.46027e-10
-3.68179e-09
6.83917e-10
-4.21749e-09
7.19347e-10
-4.77765e-09
7.52345e-10
-5.36052e-09
7.82955e-10
-5.96438e-09
8.11233e-10
-6.58755e-09
8.37237e-10
-7.22842e-09
8.61028e-10
-7.88538e-09
8.82676e-10
-8.55692e-09
9.02251e-10
-9.24153e-09
9.19821e-10
-9.9378e-09
9.35457e-10
-1.06443e-08
9.49224e-10
-1.13598e-08
9.61189e-10
-1.20828e-08
9.71416e-10
-1.28123e-08
9.79964e-10
-1.35469e-08
9.86894e-10
-1.42856e-08
9.92255e-10
-1.50271e-08
9.96099e-10
-1.57704e-08
9.98476e-10
-1.65144e-08
9.99425e-10
-1.72581e-08
9.98982e-10
-1.80005e-08
9.97186e-10
-1.87405e-08
9.94068e-10
-1.94772e-08
9.89654e-10
-2.02097e-08
9.83968e-10
-2.09371e-08
9.77032e-10
-2.16583e-08
9.68861e-10
-2.23725e-08
9.59472e-10
-2.30788e-08
9.48877e-10
-2.37763e-08
9.37086e-10
-2.44641e-08
9.24105e-10
-2.51413e-08
9.09938e-10
-2.5807e-08
8.94591e-10
-2.64604e-08
8.78065e-10
-2.71006e-08
8.60361e-10
-2.77267e-08
8.41481e-10
-2.83379e-08
8.21426e-10
-2.89331e-08
8.00194e-10
-2.95117e-08
7.77786e-10
-3.00726e-08
7.54202e-10
-3.06151e-08
7.29443e-10
-3.11382e-08
7.03511e-10
-3.16411e-08
6.76411e-10
-3.21229e-08
6.48146e-10
-3.25828e-08
6.18724e-10
-3.30199e-08
5.88156e-10
-3.34333e-08
5.56451e-10
-3.38223e-08
5.23624e-10
-3.4186e-08
4.89694e-10
-3.45236e-08
4.54679e-10
-3.48343e-08
4.18605e-10
-3.51175e-08
3.81496e-10
-3.53722e-08
3.43387e-10
-3.55978e-08
3.04312e-10
-3.57937e-08
2.64309e-10
-3.59591e-08
2.23421e-10
-3.60935e-08
1.81698e-10
-3.61963e-08
1.3919e-10
-3.6267e-08
9.5954e-11
-3.63049e-08
5.20523e-11
-3.63098e-08
7.54773e-12
-3.62812e-08
-3.74891e-11
-3.62188e-08
-8.29833e-11
-3.61223e-08
-1.28858e-10
-3.59916e-08
-1.75027e-10
-3.58263e-08
-2.21404e-10
-3.56265e-08
-2.67899e-10
-3.53922e-08
-3.14418e-10
-3.51234e-08
-3.60861e-10
-3.48203e-08
-4.07126e-10
-3.4483e-08
-4.53109e-10
-3.41118e-08
-4.987e-10
-3.37073e-08
-5.4379e-10
-3.32697e-08
-5.88267e-10
-3.27996e-08
-6.32015e-10
-3.22977e-08
-6.74918e-10
-3.17647e-08
-7.16861e-10
-3.12014e-08
-7.57725e-10
-3.06087e-08
-7.97391e-10
-2.99876e-08
-8.35743e-10
-2.9339e-08
-8.72666e-10
-2.86642e-08
-9.08043e-10
-2.79645e-08
-9.4176e-10
-2.7241e-08
-9.73707e-10
-2.64953e-08
-1.00377e-09
-2.57287e-08
-1.03186e-09
-2.49428e-08
-1.05785e-09
-2.41393e-08
-1.08167e-09
-2.33199e-08
-1.10321e-09
-2.24861e-08
-1.1224e-09
-2.164e-08
-1.13914e-09
-2.07834e-08
-1.15336e-09
-1.9918e-08
-1.165e-09
-1.90461e-08
-1.17399e-09
-1.81694e-08
-1.18028e-09
-1.72901e-08
-1.18382e-09
-1.64102e-08
-1.18458e-09
-1.55318e-08
-1.18253e-09
-1.4657e-08
-1.17764e-09
-1.37878e-08
-1.16991e-09
-1.29265e-08
-1.15933e-09
-1.20751e-08
-1.1459e-09
-1.12357e-08
-1.12965e-09
-1.04104e-08
-1.1106e-09
-9.60117e-09
-1.08878e-09
-8.81008e-09
-1.06423e-09
-8.03909e-09
-1.03703e-09
-7.29012e-09
-1.00721e-09
-6.56505e-09
-9.74868e-10
-5.86567e-09
-9.40076e-10
-5.19373e-09
-9.02932e-10
-4.5509e-09
-8.63538e-10
-3.93873e-09
-8.22006e-10
-3.35872e-09
-7.78461e-10
-2.81225e-09
-7.3304e-10
-2.30059e-09
-6.85888e-10
-1.8249e-09
-6.37162e-10
-1.3862e-09
-5.87036e-10
-9.85372e-10
-5.35698e-10
-6.23161e-10
-4.83347e-10
-3.00133e-10
-4.30202e-10
-1.66778e-11
-3.76503e-10
2.27017e-10
-3.22519e-10
4.30982e-10
-2.68547e-10
5.95498e-10
-2.14921e-10
7.21128e-10
-1.62013e-10
8.0876e-10
-1.10259e-10
8.59652e-10
-6.0163e-11
8.75502e-10
-1.23156e-11
8.58525e-10
3.25803e-11
8.11556e-10
7.36768e-11
7.38178e-10
1.09936e-10
6.42877e-10
1.4008e-10
5.31244e-10
1.62528e-10
4.10182e-10
1.7533e-10
2.88104e-10
1.76142e-10
1.74998e-10
1.62342e-10
8.21649e-11
1.31399e-10
2.10014e-11
8.22046e-11
2.15508e-11
3.90148e-11
-7.59691e-11
1.14571e-10
-1.64853e-10
1.99843e-10
-1.98303e-10
2.7477e-10
-1.86114e-10
3.23145e-10
-1.38628e-10
3.32489e-10
-6.50452e-11
2.93557e-10
2.70751e-11
1.99816e-10
1.31804e-10
4.69129e-11
2.44576e-10
-1.67775e-10
3.61924e-10
-4.45504e-10
4.81225e-10
-7.86481e-10
6.00491e-10
-1.1901e-09
7.18225e-10
-1.65513e-09
8.33307e-10
-2.17988e-09
9.44901e-10
-2.76228e-09
1.05239e-09
-3.40002e-09
1.15534e-09
-4.09061e-09
1.25343e-09
-4.83141e-09
1.34647e-09
-5.61972e-09
1.43433e-09
-6.45278e-09
1.51697e-09
-7.32781e-09
1.59438e-09
-8.24207e-09
1.6666e-09
-9.19281e-09
1.7337e-09
-1.01774e-08
1.79578e-09
-1.1193e-08
1.85293e-09
-1.22373e-08
1.9053e-09
-1.33076e-08
1.95301e-09
-1.44016e-08
1.99619e-09
-1.55168e-08
2.035e-09
-1.66509e-08
2.06957e-09
-1.78017e-08
2.10004e-09
-1.89671e-08
2.12655e-09
-2.01449e-08
2.14923e-09
-2.13331e-08
2.1682e-09
-2.25298e-08
2.18359e-09
-2.37331e-08
2.19551e-09
-2.4941e-08
2.20407e-09
-2.61519e-08
2.20936e-09
-2.7364e-08
2.21148e-09
-2.85755e-08
2.21051e-09
-2.97848e-08
2.20652e-09
-3.09904e-08
2.19958e-09
-3.21905e-08
2.18976e-09
-3.33836e-08
2.1771e-09
-3.45682e-08
2.16165e-09
-3.57428e-08
2.14344e-09
-3.69058e-08
2.12252e-09
-3.80559e-08
2.09891e-09
-3.91914e-08
2.07262e-09
-4.0311e-08
2.04369e-09
-4.14132e-08
2.01212e-09
-4.24965e-08
1.97792e-09
-4.35595e-08
1.9411e-09
-4.46008e-08
1.90167e-09
-4.5619e-08
1.85962e-09
-4.66125e-08
1.81497e-09
-4.758e-08
1.76771e-09
-4.85201e-08
1.71784e-09
-4.94313e-08
1.66538e-09
-5.03121e-08
1.61032e-09
-5.11613e-08
1.55267e-09
-5.19773e-08
1.49244e-09
-5.27588e-08
1.42965e-09
-5.35044e-08
1.36432e-09
-5.42128e-08
1.29647e-09
-5.48824e-08
1.22612e-09
-5.55121e-08
1.15332e-09
-5.61005e-08
1.0781e-09
-5.66463e-08
1.0005e-09
-5.71483e-08
9.20595e-10
-5.76053e-08
8.38433e-10
-5.8016e-08
7.54088e-10
-5.83793e-08
6.6764e-10
-5.86942e-08
5.79178e-10
-5.89595e-08
4.88796e-10
-5.91744e-08
3.96603e-10
-5.9338e-08
3.02714e-10
-5.94493e-08
2.07253e-10
-5.95076e-08
1.10357e-10
-5.95122e-08
1.21717e-11
-5.94625e-08
-8.71517e-11
-5.93581e-08
-1.87448e-10
-5.91984e-08
-2.88545e-10
-5.89832e-08
-3.90259e-10
-5.87122e-08
-4.92398e-10
-5.83853e-08
-5.94762e-10
-5.80026e-08
-6.97145e-10
-5.75641e-08
-7.99331e-10
-5.70701e-08
-9.01095e-10
-5.6521e-08
-1.00221e-09
-5.59173e-08
-1.10244e-09
-5.52596e-08
-1.20153e-09
-5.45486e-08
-1.29926e-09
-5.37852e-08
-1.39536e-09
-5.29706e-08
-1.48959e-09
-5.21057e-08
-1.58168e-09
-5.11921e-08
-1.6714e-09
-5.0231e-08
-1.75846e-09
-4.92241e-08
-1.84264e-09
-4.81731e-08
-1.92365e-09
-4.70799e-08
-2.00128e-09
-4.59464e-08
-2.07525e-09
-4.47748e-08
-2.14533e-09
-4.35672e-08
-2.2113e-09
-4.23262e-08
-2.27291e-09
-4.10541e-08
-2.32995e-09
-3.97536e-08
-2.38221e-09
-3.84273e-08
-2.42949e-09
-3.70781e-08
-2.4716e-09
-3.57088e-08
-2.50837e-09
-3.43226e-08
-2.53964e-09
-3.29223e-08
-2.56525e-09
-3.15112e-08
-2.58509e-09
-3.00925e-08
-2.59902e-09
-2.86693e-08
-2.60695e-09
-2.72451e-08
-2.6088e-09
-2.58231e-08
-2.60451e-09
-2.44068e-08
-2.59403e-09
-2.29993e-08
-2.57734e-09
-2.16042e-08
-2.55444e-09
-2.02248e-08
-2.52534e-09
-1.88644e-08
-2.49007e-09
-1.75263e-08
-2.44869e-09
-1.62138e-08
-2.40129e-09
-1.493e-08
-2.34795e-09
-1.36783e-08
-2.2888e-09
-1.24615e-08
-2.22398e-09
-1.12827e-08
-2.15366e-09
-1.01448e-08
-2.07802e-09
-9.05044e-09
-1.99726e-09
-8.00236e-09
-1.91162e-09
-7.00301e-09
-1.82135e-09
-6.05476e-09
-1.72672e-09
-5.15976e-09
-1.62804e-09
-4.32002e-09
-1.52563e-09
-3.53734e-09
-1.41984e-09
-2.81332e-09
-1.31106e-09
-2.14932e-09
-1.1997e-09
-1.54644e-09
-1.08622e-09
-1.00555e-09
-9.71094e-10
-5.27178e-10
-8.54874e-10
-1.11551e-10
-7.3815e-10
2.41479e-10
-6.21578e-10
5.32457e-10
-5.05897e-10
7.62381e-10
-3.91936e-10
9.32765e-10
-2.80645e-10
1.04571e-09
-1.73112e-10
1.104e-09
-7.06017e-11
1.11118e-09
2.53976e-11
1.07173e-09
1.13124e-10
9.91193e-10
1.90476e-10
8.76331e-10
2.5494e-10
7.35348e-10
3.03513e-10
5.78037e-10
3.32645e-10
4.15896e-10
3.38281e-10
2.62108e-10
3.16127e-10
1.31214e-10
2.62293e-10
3.84489e-11
1.74969e-10
5.9999e-11
3.97403e-11
-1.15703e-10
1.12778e-10
-2.37886e-10
1.88181e-10
-2.73704e-10
2.43023e-10
-2.40955e-10
2.59136e-10
-1.54739e-10
2.22318e-10
-2.82321e-11
1.21797e-10
1.27595e-10
-5.02937e-11
3.03894e-10
-2.99386e-10
4.93672e-10
-6.28918e-10
6.91457e-10
-1.04069e-09
8.92999e-10
-1.53521e-09
1.09501e-09
-2.11193e-09
1.29495e-09
-2.7695e-09
1.49087e-09
-3.50592e-09
1.68132e-09
-4.31871e-09
1.86518e-09
-5.20501e-09
2.04164e-09
-6.16168e-09
2.2101e-09
-7.18539e-09
2.37018e-09
-8.27268e-09
2.52162e-09
-9.41999e-09
2.66428e-09
-1.06237e-08
2.79812e-09
-1.18803e-08
2.92315e-09
-1.31861e-08
3.03948e-09
-1.45375e-08
3.14724e-09
-1.59312e-08
3.24657e-09
-1.73635e-08
3.33768e-09
-1.88313e-08
3.42077e-09
-2.03312e-08
3.49606e-09
-2.18599e-08
3.56378e-09
-2.34145e-08
3.62415e-09
-2.49919e-08
3.67741e-09
-2.65891e-08
3.72378e-09
-2.82034e-08
3.76347e-09
-2.98319e-08
3.7967e-09
-3.14719e-08
3.82366e-09
-3.3121e-08
3.84455e-09
-3.47765e-08
3.85955e-09
-3.64359e-08
3.86882e-09
-3.8097e-08
3.87251e-09
-3.97572e-08
3.87077e-09
-4.14144e-08
3.86373e-09
-4.30663e-08
3.85149e-09
-4.47107e-08
3.83417e-09
-4.63455e-08
3.81184e-09
-4.79684e-08
3.78461e-09
-4.95775e-08
3.75252e-09
-5.11706e-08
3.71564e-09
-5.27457e-08
3.67402e-09
-5.43008e-08
3.6277e-09
-5.58338e-08
3.5767e-09
-5.73428e-08
3.52107e-09
-5.88257e-08
3.46082e-09
-6.02805e-08
3.39596e-09
-6.17054e-08
3.3265e-09
-6.30982e-08
3.25246e-09
-6.44571e-08
3.17385e-09
-6.578e-08
3.09066e-09
-6.70651e-08
3.00292e-09
-6.83104e-08
2.91063e-09
-6.95139e-08
2.8138e-09
-7.06736e-08
2.71245e-09
-7.17878e-08
2.60661e-09
-7.28545e-08
2.4963e-09
-7.38717e-08
2.38156e-09
-7.48377e-08
2.26244e-09
-7.57505e-08
2.13898e-09
-7.66085e-08
2.01126e-09
-7.74097e-08
1.87934e-09
-7.81525e-08
1.74331e-09
-7.88352e-08
1.60327e-09
-7.94561e-08
1.45934e-09
-8.00137e-08
1.31164e-09
-8.05063e-08
1.16031e-09
-8.09327e-08
1.00551e-09
-8.12913e-08
8.47413e-10
-8.15809e-08
6.86199e-10
-8.18002e-08
5.22077e-10
-8.19482e-08
3.55266e-10
-8.20239e-08
1.86003e-10
-8.20263e-08
1.45417e-11
-8.19546e-08
-1.58848e-10
-8.18081e-08
-3.33881e-10
-8.15864e-08
-5.10256e-10
-8.1289e-08
-6.87654e-10
-8.09157e-08
-8.65743e-10
-8.04663e-08
-1.04418e-09
-7.99408e-08
-1.22259e-09
-7.93396e-08
-1.40061e-09
-7.86628e-08
-1.57785e-09
-7.79111e-08
-1.75392e-09
-7.70851e-08
-1.9284e-09
-7.61858e-08
-2.10088e-09
-7.52141e-08
-2.27094e-09
-7.41713e-08
-2.43813e-09
-7.30589e-08
-2.60204e-09
-7.18784e-08
-2.76221e-09
-7.06315e-08
-2.9182e-09
-6.93204e-08
-3.06959e-09
-6.79471e-08
-3.21592e-09
-6.6514e-08
-3.35675e-09
-6.50236e-08
-3.49167e-09
-6.34787e-08
-3.62024e-09
-6.18819e-08
-3.74205e-09
-6.02365e-08
-3.8567e-09
-5.85457e-08
-3.96379e-09
-5.68127e-08
-4.06295e-09
-5.5041e-08
-4.15382e-09
-5.32345e-08
-4.23604e-09
-5.13968e-08
-4.30932e-09
-4.95318e-08
-4.37333e-09
-4.76437e-08
-4.42781e-09
-4.57364e-08
-4.4725e-09
-4.38143e-08
-4.50717e-09
-4.18817e-08
-4.53164e-09
-3.99429e-08
-4.54572e-09
-3.80025e-08
-4.54929e-09
-3.60647e-08
-4.54222e-09
-3.41343e-08
-4.52446e-09
-3.22157e-08
-4.49597e-09
-3.03134e-08
-4.45672e-09
-2.8432e-08
-4.40676e-09
-2.65759e-08
-4.34614e-09
-2.47496e-08
-4.27498e-09
-2.29575e-08
-4.1934e-09
-2.12039e-08
-4.10158e-09
-1.9493e-08
-3.99973e-09
-1.78288e-08
-3.8881e-09
-1.62155e-08
-3.76697e-09
-1.46569e-08
-3.63668e-09
-1.31566e-08
-3.49757e-09
-1.17181e-08
-3.35007e-09
-1.03449e-08
-3.1946e-09
-9.03993e-09
-3.03166e-09
-7.8062e-09
-2.86176e-09
-6.64633e-09
-2.68549e-09
-5.56271e-09
-2.50347e-09
-4.5574e-09
-2.31636e-09
-3.63221e-09
-2.1249e-09
-2.78854e-09
-1.92988e-09
-2.02748e-09
-1.73216e-09
-1.34967e-09
-1.53268e-09
-7.55332e-10
-1.33249e-09
-2.44181e-10
-1.13273e-09
1.84602e-10
-9.3468e-10
5.32441e-10
-7.39777e-10
8.01437e-10
-5.49643e-10
9.94456e-10
-3.6613e-10
1.11522e-09
-1.91369e-10
1.16845e-09
-2.78247e-11
1.15994e-09
1.21629e-10
1.09678e-09
2.53632e-10
9.87473e-10
3.6425e-10
8.42087e-10
4.48903e-10
6.72396e-10
5.02334e-10
4.91968e-10
5.18705e-10
3.16185e-10
4.91913e-10
1.62191e-10
4.1629e-10
4.90722e-11
2.88086e-10
1.09071e-10
3.41382e-11
-1.49845e-10
9.18353e-11
-2.95581e-10
1.40988e-10
-3.2286e-10
1.57412e-10
-2.57377e-10
1.22002e-10
-1.19334e-10
1.97479e-11
7.40254e-11
-1.60917e-10
3.08257e-10
-4.28595e-10
5.71569e-10
-7.8937e-10
8.5445e-10
-1.24721e-09
1.1493e-09
-1.8043e-09
1.45009e-09
-2.46136e-09
1.75207e-09
-3.21793e-09
2.05151e-09
-4.07257e-09
2.34552e-09
-5.02309e-09
2.63184e-09
-6.06668e-09
2.90877e-09
-7.20006e-09
3.17502e-09
-8.4196e-09
3.42964e-09
-9.72138e-09
3.67197e-09
-1.11013e-08
3.90156e-09
-1.25552e-08
4.11815e-09
-1.40787e-08
4.32161e-09
-1.56675e-08
4.51194e-09
-1.73172e-08
4.68922e-09
-1.90236e-08
4.85361e-09
-2.07823e-08
5.00532e-09
-2.25892e-08
5.14461e-09
-2.44402e-08
5.27175e-09
-2.63312e-08
5.38706e-09
-2.82583e-08
5.49086e-09
-3.02176e-08
5.58346e-09
-3.22054e-08
5.6652e-09
-3.4218e-08
5.73641e-09
-3.62519e-08
5.79739e-09
-3.83037e-08
5.84846e-09
-4.03699e-08
5.8899e-09
-4.24474e-08
5.92201e-09
-4.45329e-08
5.94504e-09
-4.66233e-08
5.95924e-09
-4.87156e-08
5.96483e-09
-5.08069e-08
5.96204e-09
-5.28942e-08
5.95104e-09
-5.49747e-08
5.93202e-09
-5.70457e-08
5.90512e-09
-5.91043e-08
5.87049e-09
-6.11479e-08
5.82824e-09
-6.31739e-08
5.77849e-09
-6.51796e-08
5.72132e-09
-6.71624e-08
5.65681e-09
-6.91197e-08
5.58502e-09
-7.1049e-08
5.50601e-09
-7.29478e-08
5.41982e-09
-7.48134e-08
5.32648e-09
-7.66435e-08
5.22603e-09
-7.84355e-08
5.11848e-09
-8.01869e-08
5.00386e-09
-8.18952e-08
4.88219e-09
-8.3558e-08
4.75347e-09
-8.51728e-08
4.61773e-09
-8.67372e-08
4.475e-09
-8.82487e-08
4.32529e-09
-8.97049e-08
4.16864e-09
-9.11034e-08
4.00509e-09
-9.24418e-08
3.8347e-09
-9.37177e-08
3.65751e-09
-9.49289e-08
3.47362e-09
-9.6073e-08
3.28309e-09
-9.71478e-08
3.08605e-09
-9.8151e-08
2.8826e-09
-9.90806e-08
2.6729e-09
-9.99344e-08
2.45708e-09
-1.0071e-07
2.23533e-09
-1.01407e-07
2.00786e-09
-1.02021e-07
1.77487e-09
-1.02552e-07
1.53662e-09
-1.02998e-07
1.29337e-09
-1.03357e-07
1.04541e-09
-1.03628e-07
7.93053e-10
-1.0381e-07
5.36645e-10
-1.039e-07
2.76549e-10
-1.03899e-07
1.31525e-11
-1.03805e-07
-2.53127e-10
-1.03617e-07
-5.21853e-10
-1.03334e-07
-7.92563e-10
-1.02957e-07
-1.06477e-09
-1.02485e-07
-1.33796e-09
-1.01918e-07
-1.61161e-09
-1.01255e-07
-1.88516e-09
-1.00498e-07
-2.15805e-09
-9.96458e-08
-2.42968e-09
-9.87003e-08
-2.69945e-09
-9.7662e-08
-2.96673e-09
-9.6532e-08
-3.2309e-09
-9.53116e-08
-3.4913e-09
-9.40024e-08
-3.74729e-09
-9.26063e-08
-3.99819e-09
-9.11252e-08
-4.24334e-09
-8.95613e-08
-4.48207e-09
-8.79172e-08
-4.71372e-09
-8.61955e-08
-4.93761e-09
-8.43991e-08
-5.15309e-09
-8.25313e-08
-5.3595e-09
-8.05954e-08
-5.55619e-09
-7.85949e-08
-5.74255e-09
-7.65336e-08
-5.91795e-09
-7.44156e-08
-6.08181e-09
-7.2245e-08
-6.23356e-09
-7.00261e-08
-6.37265e-09
-6.77636e-08
-6.49856e-09
-6.54621e-08
-6.6108e-09
-6.31265e-08
-6.70893e-09
-6.07618e-08
-6.79252e-09
-5.83731e-08
-6.8612e-09
-5.59657e-08
-6.91461e-09
-5.35449e-08
-6.95247e-09
-5.11161e-08
-6.97452e-09
-4.86848e-08
-6.98055e-09
-4.62566e-08
-6.97041e-09
-4.38371e-08
-6.94398e-09
-4.14319e-08
-6.90121e-09
-3.90465e-08
-6.84208e-09
-3.66866e-08
-6.76666e-09
-3.43577e-08
-6.67503e-09
-3.20654e-08
-6.56735e-09
-2.98149e-08
-6.44385e-09
-2.76117e-08
-6.30478e-09
-2.5461e-08
-6.15047e-09
-2.33678e-08
-5.9813e-09
-2.1337e-08
-5.79772e-09
-1.93735e-08
-5.60023e-09
-1.74817e-08
-5.38938e-09
-1.56659e-08
-5.16579e-09
-1.39304e-08
-4.93015e-09
-1.22788e-08
-4.68321e-09
-1.07148e-08
-4.42578e-09
-9.24157e-09
-4.15874e-09
-7.86199e-09
-3.88305e-09
-6.57862e-09
-3.59974e-09
-5.39357e-09
-3.30994e-09
-4.30858e-09
-3.01488e-09
-3.32486e-09
-2.71587e-09
-2.44318e-09
-2.41436e-09
-1.66372e-09
-2.11195e-09
-9.86055e-10
-1.81039e-09
-4.09114e-10
-1.51162e-09
6.89116e-11
-1.2178e-09
4.50642e-10
-9.31374e-10
7.39598e-10
-6.55087e-10
9.40301e-10
-3.92073e-10
1.05839e-09
-1.45912e-10
1.10074e-09
7.92786e-11
1.07561e-09
2.78762e-10
9.92771e-10
4.47091e-10
8.6363e-10
5.78044e-10
7.01356e-10
6.64606e-10
5.20993e-10
6.99068e-10
3.39595e-10
6.73315e-10
1.76482e-10
5.79405e-10
5.39675e-11
4.10601e-10
1.63039e-10
2.44915e-11
-1.74335e-10
5.73266e-11
-3.28415e-10
6.75003e-11
-3.33031e-10
3.09581e-11
-2.20838e-10
-7.14184e-11
-1.69523e-11
-2.54779e-10
2.57386e-10
-5.30887e-10
5.84367e-10
-9.08615e-10
9.49295e-10
-1.39433e-09
1.34016e-09
-1.99223e-09
1.7472e-09
-2.70471e-09
2.16257e-09
-3.53261e-09
2.57997e-09
-4.47548e-09
2.99438e-09
-5.53181e-09
3.40185e-09
-6.69923e-09
3.79927e-09
-7.97468e-09
4.18422e-09
-9.35453e-09
4.55487e-09
-1.08347e-08
4.90985e-09
-1.24109e-08
5.24815e-09
-1.40785e-08
5.56909e-09
-1.58325e-08
5.87224e-09
-1.76683e-08
6.15735e-09
-1.95807e-08
6.42436e-09
-2.15648e-08
6.67333e-09
-2.36157e-08
6.90443e-09
-2.57282e-08
7.11791e-09
-2.78977e-08
7.31408e-09
-3.01193e-08
7.49329e-09
-3.23881e-08
7.65595e-09
-3.46997e-08
7.80246e-09
-3.70495e-08
7.93325e-09
-3.94331e-08
8.04877e-09
-4.18461e-08
8.14943e-09
-4.42844e-08
8.23567e-09
-4.67439e-08
8.3079e-09
-4.92205e-08
8.36651e-09
-5.17104e-08
8.41189e-09
-5.42097e-08
8.44439e-09
-5.67148e-08
8.46434e-09
-5.9222e-08
8.47207e-09
-6.17279e-08
8.46786e-09
-6.42288e-08
8.45197e-09
-6.67214e-08
8.42465e-09
-6.92024e-08
8.38611e-09
-7.16685e-08
8.33654e-09
-7.41164e-08
8.27612e-09
-7.65428e-08
8.20499e-09
-7.89448e-08
8.12327e-09
-8.13191e-08
8.03109e-09
-8.36626e-08
7.92853e-09
-8.59723e-08
7.81568e-09
-8.8245e-08
7.69259e-09
-9.04779e-08
7.55932e-09
-9.26677e-08
7.41592e-09
-9.48117e-08
7.26242e-09
-9.69067e-08
7.09887e-09
-9.89498e-08
6.92528e-09
-1.00938e-07
6.7417e-09
-1.02868e-07
6.54815e-09
-1.04738e-07
6.34467e-09
-1.06544e-07
6.13131e-09
-1.08284e-07
5.90813e-09
-1.09954e-07
5.67518e-09
-1.11552e-07
5.43255e-09
-1.13074e-07
5.18033e-09
-1.14519e-07
4.91863e-09
-1.15884e-07
4.64759e-09
-1.17165e-07
4.36736e-09
-1.18361e-07
4.07811e-09
-1.19468e-07
3.78005e-09
-1.20484e-07
3.47341e-09
-1.21407e-07
3.15844e-09
-1.22235e-07
2.83544e-09
-1.22965e-07
2.50471e-09
-1.23595e-07
2.16661e-09
-1.24123e-07
1.82152e-09
-1.24547e-07
1.46986e-09
-1.24866e-07
1.11207e-09
-1.25078e-07
7.48639e-10
-1.25182e-07
3.80088e-10
-1.25176e-07
6.96493e-12
-1.25059e-07
-3.70142e-10
-1.2483e-07
-7.50611e-10
-1.24489e-07
-1.13379e-09
-1.24034e-07
-1.51898e-09
-1.23467e-07
-1.90548e-09
-1.22786e-07
-2.29254e-09
-1.21992e-07
-2.67937e-09
-1.21085e-07
-3.06518e-09
-1.20065e-07
-3.44912e-09
-1.18934e-07
-3.83037e-09
-1.17693e-07
-4.20803e-09
-1.16343e-07
-4.58122e-09
-1.14885e-07
-4.94903e-09
-1.13322e-07
-5.31054e-09
-1.11655e-07
-5.66484e-09
-1.09887e-07
-6.01097e-09
-1.08021e-07
-6.348e-09
-1.0606e-07
-6.675e-09
-1.04007e-07
-6.99103e-09
-1.01865e-07
-7.29516e-09
-9.96377e-08
-7.58649e-09
-9.73298e-08
-7.86412e-09
-9.49452e-08
-8.12717e-09
-9.24883e-08
-8.37477e-09
-8.9964e-08
-8.60611e-09
-8.73772e-08
-8.8204e-09
-8.4733e-08
-9.01686e-09
-8.20368e-08
-9.19477e-09
-7.92941e-08
-9.35346e-09
-7.65108e-08
-9.49229e-09
-7.36926e-08
-9.61069e-09
-7.08457e-08
-9.70811e-09
-6.79762e-08
-9.78409e-09
-6.50905e-08
-9.83821e-09
-6.21949e-08
-9.87011e-09
-5.92959e-08
-9.87952e-09
-5.64001e-08
-9.86622e-09
-5.3514e-08
-9.83004e-09
-5.06443e-08
-9.77092e-09
-4.77976e-08
-9.68885e-09
-4.49803e-08
-9.5839e-09
-4.21991e-08
-9.45622e-09
-3.94604e-08
-9.30602e-09
-3.67707e-08
-9.13362e-09
-3.41361e-08
-8.93939e-09
-3.15627e-08
-8.7238e-09
-2.90566e-08
-8.48739e-09
-2.66236e-08
-8.23079e-09
-2.42691e-08
-7.95471e-09
-2.19985e-08
-7.65993e-09
-1.9817e-08
-7.34735e-09
-1.77292e-08
-7.01793e-09
-1.57397e-08
-6.67272e-09
-1.38526e-08
-6.3129e-09
-1.20716e-08
-5.9397e-09
-1.04002e-08
-5.55448e-09
-8.8412e-09
-5.15872e-09
-7.39713e-09
-4.75402e-09
-6.06992e-09
-4.34208e-09
-4.86098e-09
-3.9248e-09
-3.77113e-09
-3.50422e-09
-2.80052e-09
-3.08256e-09
-1.94863e-09
-2.66229e-09
-1.21415e-09
-2.2461e-09
-5.94943e-10
-1.837e-09
-8.79665e-11
-1.43835e-09
3.10841e-10
-1.0539e-09
6.06641e-10
-6.87872e-10
8.05799e-10
-3.45069e-10
9.16005e-10
-3.09268e-11
9.46391e-10
2.48377e-10
9.07645e-10
4.85839e-10
8.12134e-10
6.73556e-10
6.74027e-10
8.02714e-10
5.09452e-10
8.63647e-10
3.36739e-10
8.46029e-10
1.76877e-10
7.39265e-10
5.44402e-11
5.3304e-10
2.17479e-10
1.22313e-11
-1.86568e-10
1.34056e-11
-3.29587e-10
-2.50075e-11
-2.94622e-10
-1.25826e-10
-1.20023e-10
-3.07442e-10
1.64661e-10
-5.84542e-10
5.34488e-10
-9.68627e-10
9.68457e-10
-1.46844e-09
1.44911e-09
-2.09029e-09
1.96201e-09
-2.83839e-09
2.4953e-09
-3.71513e-09
3.03931e-09
-4.72133e-09
3.58616e-09
-5.85648e-09
4.12953e-09
-7.11895e-09
4.66433e-09
-8.50621e-09
5.18652e-09
-1.00149e-08
5.69295e-09
-1.16412e-08
6.18117e-09
-1.33807e-08
6.6493e-09
-1.52285e-08
7.09597e-09
-1.71796e-08
7.52021e-09
-1.92287e-08
7.92136e-09
-2.13704e-08
8.29905e-09
-2.35992e-08
8.65312e-09
-2.59094e-08
8.98358e-09
-2.82956e-08
9.2906e-09
-3.07521e-08
9.57444e-09
-3.32735e-08
9.83547e-09
-3.58544e-08
1.00741e-08
-3.84893e-08
1.02909e-08
-4.1173e-08
1.04862e-08
-4.39005e-08
1.06607e-08
-4.66665e-08
1.08148e-08
-4.94663e-08
1.09492e-08
-5.2295e-08
1.10644e-08
-5.51479e-08
1.11608e-08
-5.80204e-08
1.1239e-08
-6.0908e-08
1.12995e-08
-6.38064e-08
1.13427e-08
-6.67111e-08
1.13691e-08
-6.96182e-08
1.13791e-08
-7.25234e-08
1.1373e-08
-7.54227e-08
1.13513e-08
-7.83121e-08
1.13141e-08
-8.11879e-08
1.12618e-08
-8.4046e-08
1.11947e-08
-8.68829e-08
1.1113e-08
-8.96947e-08
1.10168e-08
-9.24778e-08
1.09064e-08
-9.52286e-08
1.07818e-08
-9.79434e-08
1.06433e-08
-1.00619e-07
1.04909e-08
-1.03251e-07
1.03247e-08
-1.05836e-07
1.01449e-08
-1.08372e-07
9.95135e-09
-1.10854e-07
9.74426e-09
-1.13278e-07
9.52364e-09
-1.15643e-07
9.28955e-09
-1.17943e-07
9.04204e-09
-1.20176e-07
8.78115e-09
-1.22338e-07
8.50695e-09
-1.24426e-07
8.21951e-09
-1.26437e-07
7.91891e-09
-1.28367e-07
7.60525e-09
-1.30213e-07
7.27864e-09
-1.31972e-07
6.93922e-09
-1.33641e-07
6.58715e-09
-1.35216e-07
6.22261e-09
-1.36694e-07
5.84583e-09
-1.38073e-07
5.45703e-09
-1.3935e-07
5.05651e-09
-1.40521e-07
4.64458e-09
-1.41584e-07
4.22159e-09
-1.42536e-07
3.78793e-09
-1.43376e-07
3.34403e-09
-1.441e-07
2.89037e-09
-1.44706e-07
2.42746e-09
-1.45192e-07
1.95586e-09
-1.45556e-07
1.47618e-09
-1.45796e-07
9.89072e-10
-1.45911e-07
4.95227e-10
-1.459e-07
-4.61087e-12
-1.4576e-07
-5.09657e-10
-1.45492e-07
-1.01908e-09
-1.45093e-07
-1.53201e-09
-1.44565e-07
-2.04752e-09
-1.43906e-07
-2.56466e-09
-1.43116e-07
-3.08243e-09
-1.42195e-07
-3.59979e-09
-1.41145e-07
-4.11568e-09
-1.39965e-07
-4.62899e-09
-1.38657e-07
-5.13859e-09
-1.37222e-07
-5.64331e-09
-1.35661e-07
-6.14199e-09
-1.33976e-07
-6.63341e-09
-1.32171e-07
-7.11635e-09
-1.30246e-07
-7.58958e-09
-1.28205e-07
-8.05187e-09
-1.26051e-07
-8.50198e-09
-1.23787e-07
-8.93865e-09
-1.21418e-07
-9.36065e-09
-1.18946e-07
-9.76677e-09
-1.16377e-07
-1.01558e-08
-1.13714e-07
-1.05265e-08
-1.10964e-07
-1.08778e-08
-1.0813e-07
-1.12085e-08
-1.05219e-07
-1.15176e-08
-1.02235e-07
-1.18039e-08
-9.91855e-08
-1.20665e-08
-9.60759e-08
-1.23044e-08
-9.29127e-08
-1.25167e-08
-8.97024e-08
-1.27026e-08
-8.64518e-08
-1.28613e-08
-8.31677e-08
-1.29921e-08
-7.98574e-08
-1.30945e-08
-7.65278e-08
-1.31677e-08
-7.31864e-08
-1.32115e-08
-6.98406e-08
-1.32254e-08
-6.64977e-08
-1.32091e-08
-6.31654e-08
-1.31624e-08
-5.9851e-08
-1.30852e-08
-5.65623e-08
-1.29776e-08
-5.33066e-08
-1.28396e-08
-5.00914e-08
-1.26714e-08
-4.69241e-08
-1.24733e-08
-4.38119e-08
-1.22458e-08
-4.0762e-08
-1.19893e-08
-3.77812e-08
-1.17045e-08
-3.48766e-08
-1.13921e-08
-3.20544e-08
-1.10529e-08
-2.93213e-08
-1.06879e-08
-2.6683e-08
-1.02981e-08
-2.41456e-08
-9.88482e-09
-2.17143e-08
-9.44923e-09
-1.93942e-08
-8.99279e-09
-1.719e-08
-8.51705e-09
-1.51061e-08
-8.02368e-09
-1.3146e-08
-7.5145e-09
-1.13133e-08
-6.99149e-09
-9.61054e-09
-6.45676e-09
-8.03998e-09
-5.91264e-09
-6.60319e-09
-5.3616e-09
-5.30103e-09
-4.80638e-09
-4.13367e-09
-4.24992e-09
-3.10048e-09
-3.69547e-09
-2.19999e-09
-3.14659e-09
-1.4298e-09
-2.60719e-09
-7.86523e-10
-2.08163e-09
-2.65679e-10
-1.57474e-09
1.38379e-10
-1.09193e-09
4.32567e-10
-6.39258e-10
6.25173e-10
-2.23534e-10
7.25961e-10
1.47591e-10
7.46271e-10
4.6553e-10
6.99145e-10
7.20683e-10
5.99456e-10
9.02404e-10
4.64104e-10
9.99e-10
3.12323e-10
9.97808e-10
1.66206e-10
8.85382e-10
5.15904e-11
6.47657e-10
2.69069e-10
-1.68441e-12
-1.84885e-10
-3.69105e-11
-2.94359e-10
-1.30968e-10
-2.0056e-10
-3.04695e-10
5.3704e-11
-5.75142e-10
4.35104e-10
-9.56054e-10
9.15397e-10
-1.45827e-09
1.47068e-09
-2.09007e-09
2.0809e-09
-2.85743e-09
2.72937e-09
-3.76434e-09
3.40221e-09
-4.813e-09
4.08797e-09
-6.00406e-09
4.77723e-09
-7.33688e-09
5.46235e-09
-8.80965e-09
6.13709e-09
-1.04196e-08
6.79649e-09
-1.21632e-08
7.43658e-09
-1.40363e-08
8.05424e-09
-1.60341e-08
8.6471e-09
-1.81515e-08
9.21335e-09
-2.0383e-08
9.75169e-09
-2.27228e-08
1.02612e-08
-2.51652e-08
1.07414e-08
-2.7704e-08
1.1192e-08
-3.03333e-08
1.16128e-08
-3.30468e-08
1.20042e-08
-3.58386e-08
1.23662e-08
-3.87025e-08
1.26994e-08
-4.16326e-08
1.30042e-08
-4.4623e-08
1.32812e-08
-4.76678e-08
1.3531e-08
-5.07612e-08
1.37542e-08
-5.38978e-08
1.39514e-08
-5.7072e-08
1.41234e-08
-6.02784e-08
1.42707e-08
-6.35117e-08
1.43941e-08
-6.67668e-08
1.44941e-08
-7.00387e-08
1.45714e-08
-7.33223e-08
1.46264e-08
-7.6613e-08
1.46598e-08
-7.99059e-08
1.4672e-08
-8.31964e-08
1.46636e-08
-8.648e-08
1.46348e-08
-8.97522e-08
1.45863e-08
-9.30085e-08
1.45182e-08
-9.62447e-08
1.44309e-08
-9.94564e-08
1.43247e-08
-1.02639e-07
1.41999e-08
-1.0579e-07
1.40566e-08
-1.08903e-07
1.38951e-08
-1.11975e-07
1.37156e-08
-1.15002e-07
1.35181e-08