/*--------------------------------*- C++ -*----------------------------------*\
  =========                 |
  \\      /  F ield         | OpenFOAM: The Open Source CFD Toolbox
   \\    /   O peration     | Website:  https://openfoam.org
    \\  /    A nd           | Version:  7
     \\/     M anipulation  |
\*---------------------------------------------------------------------------*/
FoamFile
{
    version     2.0;
    format      ascii;
    class       volScalarField;
    location    "0.2375";
    object      p;
}
// * * * * * * * * * * * * * * * * * * * * * * * * * * * * * * * * * * * * * //

dimensions      [0 2 -2 0 0 0 0];

internalField   nonuniform List<scalar> 
25600
(
1.21803e-05
0.000139059
0.000177568
7.58786e-05
-0.000173085
-0.000564073
-0.00108586
-0.00172351
-0.00246144
-0.00328447
-0.00417794
-0.00512814
-0.00612257
-0.00714957
-0.00819823
-0.00925898
-0.0103226
-0.011381
-0.0124264
-0.013452
-0.0144514
-0.0154189
-0.0163492
-0.0172374
-0.0180792
-0.0188707
-0.0196083
-0.0202887
-0.0209091
-0.0214669
-0.0219599
-0.022386
-0.0227435
-0.0230308
-0.0232467
-0.0233902
-0.0234604
-0.0234566
-0.0233784
-0.0232255
-0.0229978
-0.0226953
-0.0223182
-0.0218667
-0.0213414
-0.0207429
-0.0200718
-0.019329
-0.0185154
-0.0176321
-0.0166802
-0.015661
-0.0145759
-0.0134262
-0.0122134
-0.0109392
-0.0096053
-0.00821338
-0.00676529
-0.00526292
-0.00370824
-0.0021033
-0.00045015
0.00124905
0.00299211
0.00477675
0.00660068
0.00846154
0.0103569
0.0122844
0.0142414
0.0162256
0.0182342
0.0202648
0.0223146
0.0243811
0.0264615
0.0285531
0.0306533
0.0327591
0.0348679
0.036977
0.0390834
0.0411843
0.0432771
0.0453589
0.0474268
0.049478
0.0515098
0.0535194
0.055504
0.0574609
0.0593873
0.0612804
0.0631378
0.0649567
0.0667345
0.0684686
0.0701566
0.071796
0.0733845
0.0749196
0.0763991
0.0778209
0.0791828
0.0804828
0.0817189
0.0828893
0.0839922
0.085026
0.0859892
0.0868803
0.0876981
0.0884413
0.089109
0.0897003
0.0902144
0.0906507
0.0910089
0.0912886
0.0914897
0.0916124
0.091657
0.0916239
0.0915139
0.0913279
0.0910669
0.0907324
0.0903261
0.0898496
0.0893053
0.0886954
0.0880228
0.0872903
0.0865014
0.0856597
0.0847693
0.0838346
0.0828602
0.0818516
0.0808143
0.0797546
0.0786791
0.0775949
0.0765101
0.075433
0.0743727
0.0733392
0.0723432
0.0713961
0.0705104
0.0696991
0.0689762
0.0683562
0.0678535
0.0674812
0.0672486
0.0671577
0.0671976
0.0673126
-8.54694e-05
3.31945e-05
4.40186e-05
-7.16191e-05
-0.000309637
-0.000667775
-0.00113939
-0.00171375
-0.00237883
-0.00312224
-0.0039315
-0.00479492
-0.00570122
-0.00663984
-0.00760094
-0.00857537
-0.00955458
-0.0105308
-0.0114969
-0.0124461
-0.0133722
-0.0142697
-0.0151335
-0.0159589
-0.0167415
-0.0174774
-0.0181633
-0.0187957
-0.0193719
-0.0198893
-0.0203455
-0.0207386
-0.0210668
-0.0213285
-0.0215225
-0.0216477
-0.021703
-0.0216878
-0.0216017
-0.0214442
-0.0212152
-0.0209146
-0.0205425
-0.0200992
-0.0195851
-0.0190008
-0.0183467
-0.0176238
-0.0168328
-0.0159748
-0.0150508
-0.014062
-0.0130097
-0.0118952
-0.0107199
-0.00948544
-0.00819336
-0.00684534
-0.00544313
-0.00398854
-0.00248348
-0.000929897
0.00067021
0.00231479
0.00400171
0.00572881
0.00749385
0.00929454
0.0111286
0.0129936
0.0148872
0.0168069
0.0187503
0.0207149
0.022698
0.0246972
0.0267098
0.0287332
0.0307648
0.0328019
0.0348418
0.0368818
0.0389193
0.0409514
0.0429756
0.044989
0.046989
0.0489729
0.0509379
0.0528814
0.0548007
0.0566932
0.0585561
0.060387
0.0621832
0.0639422
0.0656615
0.0673387
0.0689713
0.070557
0.0720935
0.0735786
0.07501
0.0763858
0.0777039
0.0789623
0.0801592
0.0812929
0.0823616
0.0833639
0.0842983
0.0851634
0.0859581
0.0866813
0.087332
0.0879094
0.0884128
0.0888418
0.089196
0.0894752
0.0896793
0.0898085
0.0898632
0.0898439
0.0897513
0.0895865
0.0893505
0.0890448
0.088671
0.0882309
0.0877268
0.087161
0.0865362
0.0858554
0.0851218
0.0843392
0.0835114
0.0826427
0.0817379
0.080802
0.0798406
0.0788595
0.0778652
0.0768646
0.0758652
0.0748749
0.0739023
0.0729566
0.0720475
0.0711855
0.0703815
0.0696469
0.0689934
0.0684326
0.0679757
0.0676318
0.0674062
0.0672991
0.0673126
0.0674277
-0.000104437
3.55439e-05
4.3925e-05
-7.42707e-05
-0.000302912
-0.000639049
-0.00107685
-0.00160766
-0.00222136
-0.00290733
-0.00365493
-0.00445363
-0.00529331
-0.00616436
-0.00705782
-0.00796501
-0.00887798
-0.00978939
-0.0106923
-0.0115804
-0.0124477
-0.0132889
-0.0140989
-0.0148732
-0.0156076
-0.0162983
-0.0169417
-0.0175348
-0.0180746
-0.0185587
-0.0189847
-0.0193505
-0.0196545
-0.0198949
-0.0200707
-0.0201805
-0.0202234
-0.0201988
-0.020106
-0.0199446
-0.0197145
-0.0194154
-0.0190476
-0.0186112
-0.0181065
-0.0175339
-0.0168942
-0.0161879
-0.0154159
-0.0145791
-0.0136785
-0.0127152
-0.0116905
-0.0106056
-0.00946186
-0.00826081
-0.00700396
-0.00569292
-0.00432936
-0.00291504
-0.00145179
5.84997e-05
0.00161391
0.00321244
0.00485203
0.00653057
0.00824592
0.00999585
0.0117781
0.0135905
0.0154305
0.0172959
0.0191843
0.0210932
0.02302
0.0249625
0.0269179
0.0288838
0.0308576
0.0328367
0.0348185
0.0368003
0.0387797
0.0407538
0.0427202
0.0446761
0.046619
0.0485461
0.0504549
0.0523428
0.0542072
0.0560454
0.057855
0.0596335
0.0613783
0.0630871
0.0647573
0.0663866
0.0679727
0.0695133
0.0710062
0.0724493
0.0738405
0.0751777
0.0764591
0.0776827
0.0788468
0.0799498
0.0809899
0.0819659
0.0828762
0.0837196
0.0844951
0.0852015
0.085838
0.0864038
0.0868984
0.0873213
0.0876722
0.0879509
0.0881574
0.088292
0.0883551
0.0883472
0.088269
0.0881217
0.0879063
0.0876243
0.0872773
0.0868672
0.0863961
0.0858664
0.0852807
0.084642
0.0839536
0.0832189
0.0824419
0.0816267
0.0807779
0.0799005
0.0789998
0.0780814
0.0771516
0.0762169
0.0752844
0.0743617
0.0734568
0.0725782
0.071735
0.0709365
0.0701926
0.0695134
0.068909
0.0683894
0.0679637
0.0676397
0.067422
0.0673123
0.0673259
0.0674677
1.11079e-05
0.000162516
0.00017075
5.15028e-05
-0.000171989
-0.000494704
-0.000911032
-0.00141264
-0.00199044
-0.00263512
-0.00333716
-0.00408699
-0.00487555
-0.00569402
-0.00653396
-0.00738747
-0.00824708
-0.00910579
-0.00995704
-0.0107948
-0.0116134
-0.0124076
-0.0131726
-0.013904
-0.0145977
-0.01525
-0.0158574
-0.0164169
-0.0169257
-0.0173812
-0.0177812
-0.0181236
-0.0184067
-0.0186289
-0.0187888
-0.0188854
-0.0189176
-0.0188847
-0.0187861
-0.0186214
-0.0183903
-0.0180926
-0.0177285
-0.0172981
-0.0168016
-0.0162395
-0.0156123
-0.0149206
-0.0141653
-0.0133472
-0.0124672
-0.0115264
-0.010526
-0.00946719
-0.0083513
-0.00717974
-0.00595398
-0.00467556
-0.00334614
-0.0019674
-0.000541108
0.000930923
0.00244682
0.00400464
0.0056024
0.00723803
0.00890944
0.0106145
0.012351
0.0141167
0.0159094
0.0177268
0.0195665
0.0214261
0.0233032
0.0251955
0.0271004
0.0290154
0.0309381
0.032866
0.0347964
0.0367269
0.0386549
0.0405779
0.0424932
0.0443984
0.0462908
0.0481679
0.0500271
0.0518659
0.0536819
0.0554724
0.057235
0.0589674
0.0606669
0.0623314
0.0639584
0.0655456
0.0670909
0.0685919
0.0700465
0.0714527
0.0728085
0.0741119
0.0753611
0.0765542
0.0776896
0.0787656
0.0797808
0.0807336
0.0816229
0.0824474
0.083206
0.0838977
0.0845218
0.0850776
0.0855645
0.085982
0.0863299
0.0866081
0.0868167
0.0869559
0.0870262
0.087028
0.0869623
0.08683
0.0866323
0.0863706
0.0860465
0.0856619
0.085219
0.0847199
0.0841675
0.0835645
0.0829142
0.0822199
0.0814856
0.0807152
0.0799132
0.0790843
0.0782337
0.0773669
0.0764898
0.0756086
0.0747301
0.0738613
0.0730098
0.0721836
0.0713909
0.0706404
0.0699411
0.069302
0.0687322
0.0682405
0.0678353
0.067524
0.0673116
0.0672022
0.0672189
0.0673773
0.000269839
0.000409766
0.000407561
0.000281536
5.73093e-05
-0.000258899
-0.000661344
-0.00114197
-0.00169256
-0.00230466
-0.00296965
-0.003679
-0.00442445
-0.00519788
-0.00599152
-0.00679807
-0.00761054
-0.00842235
-0.00922732
-0.0100197
-0.0107941
-0.0115456
-0.0122695
-0.0129616
-0.0136178
-0.0142347
-0.0148088
-0.0153372
-0.0158171
-0.016246
-0.0166216
-0.0169421
-0.0172057
-0.0174107
-0.0175558
-0.0176399
-0.017662
-0.0176214
-0.0175174
-0.0173496
-0.0171177
-0.0168214
-0.0164609
-0.0160362
-0.0155477
-0.0149955
-0.0143804
-0.0137028
-0.0129635
-0.0121633
-0.0113031
-0.0103839
-0.00940685
-0.00837312
-0.00728397
-0.00614075
-0.00494487
-0.00369784
-0.00240124
-0.00105671
0.000334036
0.00176925
0.00324712
0.00476577
0.00632325
0.00791757
0.00954669
0.0112085
0.012901
0.0146219
0.016369
0.0181401
0.019933
0.0217452
0.0235744
0.0254184
0.0272746
0.0291408
0.0310143
0.0328929
0.034774
0.0366551
0.0385337
0.0404074
0.0422737
0.0441301
0.045974
0.047803
0.0496146
0.0514064
0.0531758
0.0549206
0.0566381
0.0583262
0.0599824
0.0616044
0.06319
0.0647369
0.066243
0.067706
0.069124
0.070495
0.0718169
0.073088
0.0743064
0.0754703
0.0765783
0.0776286
0.0786198
0.0795506
0.0804198
0.0812262
0.0819687
0.0826465
0.0832587
0.0838048
0.0842842
0.0846966
0.0850416
0.0853194
0.0855298
0.0856733
0.0857502
0.0857611
0.085707
0.0855887
0.0854074
0.0851646
0.0848619
0.0845011
0.0840842
0.0836137
0.083092
0.082522
0.0819068
0.0812497
0.0805545
0.079825
0.0790656
0.0782808
0.0774756
0.0766551
0.0758251
0.0749914
0.0741604
0.0733388
0.0725337
0.0717523
0.0710023
0.0702918
0.0696287
0.0690215
0.0684781
0.0680068
0.0676152
0.0673106
0.0670984
0.066984
0.0669936
0.067146
0.000668464
0.000776069
0.000751122
0.00061077
0.000378676
6.16421e-05
-0.000334334
-0.000801839
-0.0013333
-0.0019209
-0.00255696
-0.00323373
-0.00394369
-0.00467933
-0.00543365
-0.00619984
-0.00697134
-0.00774203
-0.00850616
-0.00925824
-0.0099932
-0.0107063
-0.011393
-0.0120494
-0.0126716
-0.0132561
-0.0137997
-0.0142995
-0.0147528
-0.0151572
-0.0155105
-0.0158107
-0.0160561
-0.0162451
-0.0163765
-0.0164491
-0.0164619
-0.0164141
-0.0163051
-0.0161345
-0.0159018
-0.015607
-0.01525
-0.0148309
-0.0143499
-0.0138074
-0.0132037
-0.0125396
-0.0118156
-0.0110325
-0.0101912
-0.00929266
-0.00833793
-0.00732815
-0.00626455
-0.00514841
-0.0039811
-0.00276408
-0.00149887
-0.00018706
0.0011697
0.00256971
0.00401121
0.00549238
0.00701133
0.00856612
0.0101548
0.0117753
0.0134256
0.0151036
0.0168071
0.018534
0.020282
0.0220489
0.0238323
0.0256301
0.0274398
0.0292592
0.0310857
0.0329172
0.0347511
0.0365849
0.0384165
0.0402431
0.0420626
0.0438723
0.04567
0.0474531
0.0492193
0.0509661
0.0526912
0.0543922
0.0560668
0.0577127
0.0593275
0.0609091
0.0624553
0.0639638
0.0654326
0.0668595
0.0682427
0.0695801
0.0708699
0.0721102
0.0732993
0.0744355
0.0755174
0.0765432
0.0775118
0.0784217
0.0792718
0.0800609
0.0807882
0.0814527
0.0820536
0.0825905
0.0830628
0.0834702
0.0838125
0.0840896
0.0843016
0.0844489
0.0845319
0.0845513
0.0845078
0.0844024
0.0842363
0.0840109
0.0837278
0.0833889
0.082996
0.0825516
0.0820581
0.0815182
0.080935
0.0803118
0.079652
0.0789595
0.0782384
0.0774931
0.0767282
0.0759489
0.0751604
0.0743683
0.0735786
0.0727976
0.0720318
0.071288
0.0705733
0.069895
0.0692605
0.0686773
0.0681528
0.0676945
0.0673095
0.0670049
0.0667862
0.0666596
0.0666501
0.0667754
0.00119665
0.00125518
0.00119652
0.0010337
0.000786299
0.000461179
6.41803e-05
-0.000397825
-0.000917811
-0.00148874
-0.00210363
-0.00275542
-0.00343725
-0.00414234
-0.00486421
-0.00559653
-0.00633327
-0.00706871
-0.00779749
-0.00851442
-0.00921471
-0.00989386
-0.0105477
-0.0111722
-0.0117639
-0.0123193
-0.0128354
-0.0133094
-0.0137386
-0.0141207
-0.0144535
-0.0147352
-0.0149641
-0.0151386
-0.0152574
-0.0153194
-0.0153237
-0.0152694
-0.0151559
-0.0149828
-0.0147496
-0.0144563
-0.0141027
-0.013689
-0.0132152
-0.0126818
-0.0120891
-0.0114377
-0.0107282
-0.0099614
-0.00913801
-0.00825903
-0.00732546
-0.0063384
-0.00529902
-0.00420855
-0.00306834
-0.00187978
-0.000644353
0.000636414
0.00196093
0.00332754
0.00473453
0.00618013
0.00766252
0.0091798
0.0107301
0.0123113
0.0139217
0.0155589
0.0172211
0.0189059
0.0206114
0.0223353
0.0240753
0.0258292
0.0275948
0.0293698
0.0311519
0.0329386
0.0347277
0.0365169
0.0383037
0.0400858
0.0418609
0.0436265
0.0453803
0.04712
0.0488432
0.0505475
0.0522306
0.0538903
0.0555243
0.0571303
0.058706
0.0602494
0.0617583
0.0632306
0.0646642
0.0660571
0.0674074
0.0687131
0.0699725
0.0711839
0.0723454
0.0734555
0.0745128
0.0755157
0.0764628
0.077353
0.0781851
0.0789581
0.0796709
0.0803229
0.0809132
0.0814413
0.0819069
0.0823095
0.082649
0.0829254
0.0831388
0.0832895
0.083378
0.0834049
0.083371
0.0832773
0.083125
0.0829155
0.0826503
0.0823311
0.08196
0.0815392
0.081071
0.0805583
0.0800038
0.0794108
0.0787826
0.078123
0.0774357
0.0767252
0.0759957
0.0752521
0.0744995
0.073743
0.0729883
0.0722413
0.071508
0.0707947
0.070108
0.0694545
0.068841
0.0682744
0.0677614
0.0673089
0.0669235
0.0666119
0.0663796
0.066233
0.0661933
0.0662747
0.00184085
0.00183739
0.00173538
0.00154255
0.00127283
0.000932623
0.000527627
6.4217e-05
-0.000451319
-0.00101265
-0.00161341
-0.00224713
-0.00290758
-0.00358869
-0.00428438
-0.00498889
-0.00569663
-0.00640233
-0.00710089
-0.00778753
-0.00845772
-0.00910722
-0.00973204
-0.0103285
-0.010893
-0.0114225
-0.011914
-0.0123647
-0.0127722
-0.0131341
-0.0134485
-0.0137135
-0.0139273
-0.0140886
-0.014196
-0.0142485
-0.014245
-0.0141849
-0.0140674
-0.0138921
-0.0136587
-0.0133669
-0.0130167
-0.0126082
-0.0121413
-0.0116166
-0.0110344
-0.0103951
-0.00969938
-0.00894793
-0.00814154
-0.00728111
-0.00636761
-0.00540208
-0.00438565
-0.00331952
-0.00220498
-0.0010434
0.000163801
0.00141515
0.00270909
0.00404403
0.00541831
0.00683019
0.00827791
0.00975962
0.0112735
0.0128176
0.0143899
0.0159886
0.0176115
0.0192566
0.0209217
0.0226048
0.0243037
0.0260161
0.0277399
0.0294728
0.0312127
0.0329571
0.0347038
0.0364506
0.0381951
0.0399351
0.0416682
0.043392
0.0451044
0.046803
0.0484855
0.0501496
0.0517931
0.0534138
0.0550094
0.0565777
0.0581166
0.059624
0.0610977
0.0625358
0.0639362
0.065297
0.0666163
0.0678922
0.069123
0.0703071
0.0714426
0.0725282
0.0735623
0.0745436
0.0754706
0.0763423
0.0771574
0.0779151
0.0786144
0.0792545
0.0798347
0.0803546
0.0808137
0.0812117
0.0815485
0.081824
0.0820384
0.0821921
0.0822855
0.0823192
0.082294
0.0822109
0.082071
0.0818757
0.0816265
0.0813252
0.0809737
0.080574
0.0801286
0.0796401
0.0791112
0.078545
0.0779448
0.077314
0.0766565
0.0759762
0.0752774
0.0745645
0.0738424
0.073116
0.0723905
0.0716713
0.0709642
0.0702749
0.0696095
0.068974
0.0683747
0.0678179
0.0673096
0.0668562
0.0664638
0.0661385
0.0658857
0.0657116
0.065632
0.0656564
0.00258658
0.00251162
0.0023584
0.00212893
0.00183046
0.00146884
0.00104959
0.00057842
6.09002e-05
-0.000497173
-0.00109006
-0.00171203
-0.00235732
-0.00302038
-0.00369568
-0.00437795
-0.00506204
-0.00574303
-0.00641619
-0.00707707
-0.00772145
-0.00834531
-0.00894488
-0.00951665
-0.0100573
-0.0105639
-0.0110335
-0.0114636
-0.0118516
-0.0121956
-0.0124934
-0.0127432
-0.0129436
-0.0130929
-0.0131901
-0.013234
-0.0132236
-0.0131583
-0.0130373
-0.0128603
-0.0126268
-0.0123367
-0.0119898
-0.0115862
-0.0111261
-0.0106097
-0.0100374
-0.00940959
-0.00872696
-0.00799012
-0.00719985
-0.006357
-0.00546251
-0.00451738
-0.00352269
-0.00247962
-0.00138941
-0.000253384
0.000927083
0.00215056
0.00341555
0.00472049
0.00606377
0.00744371
0.00885858
0.0103066
0.011786
0.0132948
0.0148313
0.0163934
0.0179791
0.0195865
0.0212135
0.0228579
0.0245178
0.0261909
0.0278751
0.0295683
0.0312682
0.0329726
0.0346792
0.0363859
0.0380905
0.0397905
0.0414839
0.0431683
0.0448416
0.0465013
0.0481454
0.0497716
0.0513777
0.0529615
0.0545209
0.0560537
0.0575579
0.0590313
0.0604719
0.0618777
0.0632469
0.0645774
0.0658676
0.0671154
0.0683194
0.0694778
0.0705889
0.0716514
0.0726638
0.0736246
0.0745328
0.075387
0.0761862
0.0769295
0.077616
0.0782449
0.0788157
0.0793277
0.0797806
0.0801742
0.0805082
0.0807828
0.080998
0.0811541
0.0812518
0.0812914
0.081274
0.0812003
0.0810716
0.0808891
0.0806543
0.0803689
0.0800347
0.0796539
0.0792287
0.0787616
0.0782553
0.0777127
0.077137
0.0765314
0.0758996
0.0752454
0.0745728
0.0738859
0.0731894
0.0724877
0.071786
0.0710891
0.0704024
0.0697311
0.0690809
0.0684573
0.067866
0.0673127
0.066803
0.0663426
0.065937
0.0655918
0.0653122
0.0651039
0.0649766
0.0649342
0.00341962
0.00326644
0.003056
0.00278419
0.00245132
0.00206269
0.00162359
0.0011389
0.000613674
5.30914e-05
-0.000537685
-0.00115353
-0.00178927
-0.00243974
-0.00309999
-0.00376517
-0.00443055
-0.00509155
-0.00574383
-0.00638324
-0.00700583
-0.00760783
-0.00818571
-0.00873617
-0.00925611
-0.00974261
-0.010193
-0.0106048
-0.0109757
-0.0113036
-0.0115867
-0.0118231
-0.0120114
-0.0121501
-0.0122382
-0.0122744
-0.012258
-0.0121881
-0.0120641
-0.0118857
-0.0116524
-0.011364
-0.0110204
-0.0106217
-0.010168
-0.00965956
-0.00909671
-0.00847991
-0.00780969
-0.00708671
-0.00631171
-0.00548552
-0.00460902
-0.00368319
-0.00270907
-0.00168781
-0.000620613
0.000491236
0.00164641
0.00284353
0.00408114
0.00535771
0.00667167
0.00802139
0.00940519
0.0108214
0.0122681
0.0137437
0.0152461
0.0167736
0.0183242
0.019896
0.0214868
0.0230948
0.0247178
0.0263538
0.0280006
0.0296562
0.0313183
0.0329849
0.0346537
0.0363226
0.0379894
0.0396518
0.0413077
0.0429549
0.0445912
0.0462144
0.0478223
0.0494127
0.0509836
0.0525327
0.054058
0.0555574
0.0570288
0.0584703
0.0598798
0.0612553
0.0625951
0.0638973
0.06516
0.0663815
0.0675602
0.0686945
0.0697827
0.0708235
0.0718155
0.0727573
0.0736476
0.0744855
0.0752698
0.0759996
0.076674
0.0772924
0.0778542
0.0783587
0.0788058
0.079195
0.0795263
0.0797997
0.0800154
0.0801737
0.080275
0.0803199
0.0803092
0.0802439
0.080125
0.0799538
0.0797317
0.0794604
0.0791417
0.0787775
0.0783701
0.0779218
0.0774352
0.0769131
0.0763585
0.0757746
0.0751648
0.0745326
0.0738819
0.0732167
0.0725411
0.0718595
0.0711764
0.0704966
0.0698249
0.0691662
0.0685257
0.0679083
0.0673193
0.0667639
0.0662472
0.0657742
0.0653499
0.0649793
0.0646673
0.0644191
0.0642379
0.0641217
0.00432672
0.0040907
0.00381834
0.00349958
0.00312758
0.00270708
0.0022431
0.00173984
0.00120182
0.000633549
3.96403e-05
-0.000575251
-0.00120646
-0.00184935
-0.00249945
-0.00315226
-0.00380347
-0.00444889
-0.00508449
-0.00570644
-0.00631102
-0.00689474
-0.00745431
-0.00798661
-0.00848873
-0.0089579
-0.00939159
-0.00978745
-0.0101433
-0.0104572
-0.0107273
-0.0109519
-0.0111295
-0.011259
-0.0113389
-0.0113685
-0.0113467
-0.0112729
-0.0111465
-0.010967
-0.0107341
-0.0104476
-0.0101073
-0.00971337
-0.00926587
-0.00876504
-0.00821122
-0.00760482
-0.00694639
-0.00623654
-0.00547601
-0.00466556
-0.00380607
-0.00289848
-0.0019438
-0.000943144
0.000102311
0.00119133
0.00232263
0.00349486
0.00470661
0.00595639
0.00724267
0.00856386
0.00991832
0.0113044
0.0127204
0.0141645
0.0156349
0.0171297
0.0186472
0.0201853
0.0217421
0.0233156
0.0249038
0.0265048
0.0281164
0.0297365
0.0313631
0.032994
0.0346271
0.0362604
0.0378916
0.0395186
0.0411392
0.0427514
0.0443529
0.0459417
0.0475155
0.0490724
0.0506101
0.0521266
0.0536199
0.0550879
0.0565286
0.0579401
0.0593203
0.0606675
0.0619798
0.0632553
0.0644923
0.0656892
0.0668442
0.0679559
0.0690227
0.0700432
0.071016
0.0719399
0.0728137
0.0736362
0.0744065
0.0751236
0.0757867
0.0763952
0.0769485
0.077446
0.0778874
0.0782725
0.078601
0.0788732
0.0790891
0.079249
0.0793534
0.0794028
0.0793981
0.07934
0.0792297
0.0790684
0.0788575
0.0785985
0.0782932
0.0779435
0.0775515
0.0771195
0.0766499
0.0761454
0.0756088
0.0750432
0.0744518
0.073838
0.0732053
0.0725575
0.0718986
0.0712325
0.0705635
0.0698959
0.0692343
0.0685832
0.0679471
0.0673309
0.0667391
0.0661765
0.0656476
0.065157
0.0647091
0.0643082
0.0639591
0.0636665
0.0634264
0.0632314
0.00529562
0.00497362
0.00463597
0.00426669
0.00385154
0.00339496
0.00290176
0.00237555
0.00182016
0.00123957
0.000637917
1.93148e-05
-0.000611987
-0.00125189
-0.00189628
-0.00254107
-0.00318233
-0.00381623
-0.00443906
-0.00504724
-0.00563736
-0.00620617
-0.0067506
-0.00726773
-0.0077548
-0.00820924
-0.00862866
-0.00901085
-0.00935376
-0.00965545
-0.00991423
-0.0101285
-0.0102969
-0.0104182
-0.0104912
-0.010515
-0.0104887
-0.0104116
-0.0102832
-0.010103
-0.00987078
-0.00958622
-0.00924928
-0.00885998
-0.00841846
-0.00792493
-0.0073797
-0.0067832
-0.00613594
-0.00543853
-0.00469167
-0.0038961
-0.00305266
-0.00216227
-0.00122593
-0.000244713
0.000780243
0.00184774
0.00295654
0.00410531
0.00529268
0.00651721
0.0077774
0.0090717
0.0103985
0.0117563
0.0131432
0.0145577
0.0159979
0.017462
0.0189482
0.0204546
0.0219793
0.0235204
0.025076
0.0266439
0.0282223
0.0298091
0.0314022
0.0329996
0.0345992
0.036199
0.0377967
0.0393904
0.040978
0.0425573
0.0441262
0.0456826
0.0472245
0.0487498
0.0502565
0.0517425
0.0532057
0.0546443
0.0560563
0.0574396
0.0587926
0.0601132
0.0613997
0.0626503
0.0638633
0.0650371
0.0661701
0.0672607
0.0683074
0.069309
0.070264
0.0711711
0.0720294
0.0728375
0.0735947
0.0743
0.0749525
0.0755517
0.076097
0.0765878
0.0770238
0.0774048
0.0777307
0.0780015
0.0782173
0.0783784
0.0784854
0.0785386
0.0785389
0.0784871
0.0783843
0.0782316
0.0780303
0.0777819
0.0774882
0.0771509
0.0767721
0.0763539
0.0758987
0.075409
0.0748876
0.0743371
0.0737608
0.0731618
0.0725434
0.0719092
0.0712628
0.0706081
0.0699488
0.0692891
0.0686331
0.0679849
0.0673488
0.066729
0.0661298
0.0655553
0.0650098
0.0644972
0.0640214
0.0635861
0.0631957
0.0628549
0.0625525
0.0622754
0.0063151
0.00590514
0.00549983
0.00507718
0.00461565
0.00411949
0.00359339
0.00304038
0.00246358
0.00186657
0.00125304
0.000626592
-9.01177e-06
-0.000650054
-0.00129279
-0.00193355
-0.00256874
-0.0031949
-0.00380856
-0.00440644
-0.00498541
-0.00554246
-0.00607473
-0.00657948
-0.00705413
-0.0074963
-0.00790376
-0.0082744
-0.00860626
-0.00889757
-0.00914669
-0.00935217
-0.00951266
-0.00962695
-0.00969398
-0.00971283
-0.00968271
-0.00960299
-0.00947311
-0.00929263
-0.00906125
-0.00877879
-0.00844517
-0.00806043
-0.00762468
-0.00713813
-0.00660109
-0.00601398
-0.00537731
-0.00469167
-0.00395771
-0.00317616
-0.00234785
-0.00147367
-0.000554604
0.000408315
0.00141398
0.00246123
0.00354886
0.00467557
0.00584002
0.00704079
0.00827644
0.00954547
0.0108463
0.0121774
0.0135371
0.0149237
0.0163355
0.0177707
0.0192276
0.0207042
0.0221988
0.0237095
0.0252343
0.0267713
0.0283185
0.029874
0.0314357
0.0330017
0.0345698
0.0361381
0.0377046
0.0392671
0.0408236
0.042372
0.0439104
0.0454366
0.0469486
0.0484444
0.049922
0.0513795
0.0528147
0.0542258
0.0556109
0.056968
0.0582954
0.0595913
0.0608537
0.0620811
0.0632718
0.0644241
0.0655365
0.0666075
0.0676356
0.0686195
0.0695578
0.0704495
0.0712932
0.0720881
0.072833
0.0735272
0.0741699
0.0747604
0.0752981
0.0757826
0.0762135
0.0765906
0.0769138
0.077183
0.0773985
0.0775605
0.0776695
0.0777258
0.0777304
0.0776839
0.0775874
0.0774419
0.0772488
0.0770095
0.0767256
0.0763988
0.0760311
0.0756245
0.0751812
0.0747037
0.0741945
0.0736563
0.0730919
0.0725044
0.0718969
0.0712727
0.0706352
0.0699879
0.0693344
0.0686785
0.0680239
0.0673745
0.0667341
0.0661065
0.0654957
0.0649053
0.0643391
0.0638006
0.0632932
0.0628198
0.0623851
0.0619931
0.0616259
0.0612645
0.0073748
0.00687597
0.00640134
0.00592313
0.00541271
0.00487414
0.00431197
0.00372873
0.00312708
0.00251008
0.00188095
0.0012429
0.000599237
-4.66459e-05
-0.000691432
-0.0013318
-0.0019645
-0.00258633
-0.00319416
-0.00378498
-0.00435589
-0.00490413
-0.005427
-0.005922
-0.00638673
-0.00681896
-0.00721661
-0.00757769
-0.00790037
-0.00818299
-0.00842403
-0.00862209
-0.00877591
-0.00888433
-0.00894636
-0.00896116
-0.00892797
-0.00884618
-0.00871526
-0.0085348
-0.00830453
-0.00802429
-0.00769402
-0.00731373
-0.00688355
-0.00640368
-0.00587444
-0.00529625
-0.00466959
-0.00399504
-0.00327324
-0.0025049
-0.00169082
-0.000831883
7.09592e-05
0.00101669
0.00200425
0.0030325
0.00410026
0.00520626
0.0063492
0.0075277
0.00874033
0.00998564
0.0112621
0.0125682
0.0139024
0.0152629
0.016648
0.0180562
0.0194855
0.0209343
0.0224006
0.0238828
0.0253788
0.0268868
0.0284049
0.029931
0.0314634
0.0329999
0.0345386
0.0360776
0.0376147
0.0391481
0.0406756
0.0421952
0.0437051
0.0452031
0.0466872
0.0481555
0.0496061
0.0510368
0.052446
0.0538315
0.0551916
0.0565243
0.057828
0.0591008
0.0603409
0.0615468
0.0627167
0.063849
0.0649423
0.0659951
0.0670059
0.0679734
0.0688964
0.0697736
0.0706039
0.0713864
0.07212
0.0728039
0.0734374
0.0740197
0.0745504
0.0750289
0.075455
0.0758283
0.0761488
0.0764164
0.0766314
0.0767939
0.0769043
0.0769632
0.0769712
0.0769291
0.0768378
0.0766984
0.0765122
0.0762804
0.0760046
0.0756865
0.0753279
0.0749307
0.074497
0.0740292
0.0735296
0.0730008
0.0724455
0.0718664
0.0712666
0.070649
0.0700169
0.0693735
0.0687221
0.0680663
0.0674094
0.0667549
0.0661064
0.0654673
0.0648411
0.0642312
0.0636408
0.063073
0.0625307
0.0620165
0.0615346
0.0610892
0.0606554
0.0602087
0.0084654
0.00787741
0.0073324
0.00679707
0.00623581
0.00565247
0.00505163
0.00443531
0.00380578
0.00316564
0.00251763
0.00186463
0.00120956
0.000555457
-9.47514e-05
-0.000738055
-0.00137151
-0.00199218
-0.00259725
-0.00318397
-0.00374968
-0.00429181
-0.00480789
-0.0052956
-0.00575274
-0.00617723
-0.0065671
-0.00692051
-0.00723576
-0.00751132
-0.00774575
-0.00793773
-0.00808606
-0.00818968
-0.00824767
-0.00825922
-0.00822365
-0.00814034
-0.00800882
-0.00782872
-0.00759978
-0.00732188
-0.00699495
-0.00661902
-0.0061942
-0.00572072
-0.0051989
-0.00462915
-0.00401195
-0.00334785
-0.00263748
-0.00188154
-0.00108082
-0.000236178
0.000651454
0.00158109
0.00255169
0.00356215
0.00461132
0.00569795
0.00682076
0.00797841
0.00916951
0.0103927
0.0116464
0.0129291
0.0142393
0.0155754
0.0169357
0.0183185
0.0197221
0.0211449
0.0225849
0.0240404
0.0255095
0.0269904
0.0284813
0.0299801
0.031485
0.0329941
0.0345054
0.036017
0.0375269
0.039033
0.0405336
0.0420264
0.0435097
0.0449815
0.0464397
0.0478825
0.0493078
0.0507139
0.0520988
0.0534606
0.0547975
0.0561077
0.0573893
0.0586408
0.0598603
0.0610462
0.0621968
0.0633107
0.0643864
0.0654223
0.0664172
0.0673696
0.0682783
0.0691422
0.0699602
0.0707312
0.0714543
0.0721287
0.0727536
0.0733284
0.0738525
0.0743255
0.0747469
0.0751166
0.0754344
0.0757004
0.0759145
0.0760772
0.0761887
0.0762495
0.0762602
0.0762216
0.0761346
0.0760002
0.0758194
0.0755937
0.0753245
0.0750133
0.0746619
0.0742721
0.0738459
0.0733855
0.0728931
0.0723711
0.071822
0.0712485
0.0706534
0.0700393
0.0694094
0.0687666
0.0681141
0.0674549
0.0667922
0.0661293
0.0654692
0.0648152
0.0641703
0.0635376
0.0629199
0.0623199
0.0617401
0.0611825
0.0606515
0.060151
0.0596494
0.0591168
0.00957838
0.00890144
0.00828562
0.00769212
0.00707842
0.00644842
0.00580674
0.00515499
0.00449495
0.00382885
0.00315911
0.00248821
0.00181876
0.00115337
0.000494714
-0.000154534
-0.00079168
-0.00141411
-0.00201927
-0.00260464
-0.00316778
-0.00370632
-0.00421802
-0.00470076
-0.00515248
-0.00557126
-0.00595526
-0.00630279
-0.00661228
-0.0068823
-0.00711151
-0.00729865
-0.00744263
-0.00754247
-0.00759731
-0.0076064
-0.00756908
-0.00748478
-0.00735308
-0.00717365
-0.00694626
-0.0066708
-0.0063472
-0.00597551
-0.00555586
-0.00508849
-0.00457372
-0.00401196
-0.00340366
-0.00274938
-0.00204972
-0.0013054
-0.000517175
0.000314095
0.00118751
0.00210212
0.00305689
0.00405076
0.00508257
0.00615112
0.00725516
0.00839336
0.0095644
0.0107669
0.0119993
0.0132603
0.0145483
0.0158616
0.0171987
0.0185579
0.0199376
0.0213361
0.0227515
0.0241822
0.0256264
0.0270821
0.0285477
0.0300211
0.0315005
0.0329841
0.03447
0.0359561
0.0374406
0.0389216
0.0403971
0.0418652
0.0433239
0.0447713
0.0462055
0.0476246
0.0490267
0.05041
0.0517724
0.0531123
0.0544278
0.0557172
0.0569786
0.0582103
0.0594108
0.0605783
0.0617113
0.0628082
0.0638677
0.0648881
0.0658683
0.0668068
0.0677025
0.0685542
0.0693608
0.0701213
0.0708347
0.0715004
0.0721174
0.0726852
0.0732032
0.0736709
0.074088
0.0744543
0.0747695
0.0750337
0.0752469
0.0754094
0.0755215
0.0755837
0.0755965
0.0755606
0.0754769
0.0753463
0.0751699
0.0749489
0.0746848
0.0743789
0.0740329
0.0736486
0.0732278
0.0727726
0.0722851
0.0717675
0.0712222
0.0706516
0.0700583
0.069445
0.0688144
0.0681692
0.0675123
0.0668466
0.0661751
0.0655005
0.0648258
0.0641539
0.0634874
0.062829
0.0621813
0.0615466
0.060927
0.0603241
0.0597424
0.0591856
0.0586157
0.0579973
0.010706
0.00994075
0.00925403
0.00860164
0.00793438
0.00725627
0.00657199
0.00588276
0.00518998
0.00449553
0.00380153
0.00311013
0.00242359
0.00174419
0.00107436
0.000416471
-0.000227066
-0.000853912
-0.00146175
-0.00204828
-0.00261127
-0.00314858
-0.00365815
-0.00413805
-0.00458638
-0.00500134
-0.00538125
-0.00572459
-0.00602989
-0.00629581
-0.00652108
-0.00670459
-0.0068453
-0.00694231
-0.00699484
-0.00700218
-0.00696372
-0.00687893
-0.00674745
-0.00656899
-0.00634334
-0.0060704
-0.00575012
-0.00538256
-0.00496789
-0.00450634
-0.00399825
-0.003444
-0.00284407
-0.00219897
-0.00150934
-0.000775862
6.96319e-07
0.000819504
0.00167969
0.00258031
0.00352036
0.00449879
0.00551447
0.00656622
0.0076528
0.00877295
0.00992535
0.0111086
0.0123214
0.0135621
0.0148294
0.0161216
0.0174372
0.0187746
0.0201321
0.021508
0.0229007
0.0243084
0.0257294
0.0271618
0.0286039
0.0300538
0.0315097
0.0329697
0.034432
0.0358946
0.0373557
0.0388134
0.0402658
0.0417109
0.043147
0.044572
0.0459841
0.0473814
0.0487621
0.0501243
0.0514662
0.0527859
0.0540818
0.055352
0.0565948
0.0578085
0.0589915
0.0601422
0.0612591
0.0623405
0.0633851
0.0643914
0.0653582
0.0662841
0.0671678
0.0680083
0.0688045
0.0695554
0.0702601
0.0709177
0.0715276
0.072089
0.0726013
0.0730642
0.0734773
0.0738402
0.0741529
0.0744153
0.0746274
0.0747895
0.0749019
0.0749649
0.0749791
0.0749452
0.0748639
0.0747361
0.0745629
0.0743454
0.0740849
0.0737828
0.0734406
0.0730601
0.0726428
0.0721908
0.071706
0.0711905
0.0706466
0.0700765
0.0694826
0.0688673
0.0682332
0.0675829
0.0669189
0.066244
0.0655607
0.0648717
0.0641796
0.063487
0.0627962
0.0621097
0.0614297
0.0607583
0.060097
0.0594472
0.0588134
0.0581996
0.0575611
0.0568573
0.0118414
0.0109887
0.0102312
0.00951949
0.00879792
0.00807056
0.00734225
0.00661382
0.0058864
0.0051616
0.00444113
0.00372691
0.00302087
0.00232506
0.00164161
0.000972626
0.000320232
-0.000313453
-0.000926323
-0.0015163
-0.00208137
-0.00261961
-0.00312916
-0.00360819
-0.00405498
-0.00446789
-0.00484542
-0.00518612
-0.00548868
-0.00575182
-0.00597439
-0.00615537
-0.00629382
-0.00638892
-0.00643993
-0.00644619
-0.00640714
-0.00632235
-0.00619146
-0.00601423
-0.00579048
-0.00552012
-0.00520313
-0.0048396
-0.0044297
-0.00397369
-0.0034719
-0.00292472
-0.0023326
-0.00169609
-0.0010158
-0.000292413
0.000473307
0.00128055
0.00212846
0.00301612
0.00394254
0.00490668
0.00590742