/*--------------------------------*- C++ -*----------------------------------*\
  =========                 |
  \\      /  F ield         | OpenFOAM: The Open Source CFD Toolbox
   \\    /   O peration     | Website:  https://openfoam.org
    \\  /    A nd           | Version:  7
     \\/     M anipulation  |
\*---------------------------------------------------------------------------*/
FoamFile
{
    version     2.0;
    format      ascii;
    class       surfaceScalarField;
    location    "0.0625";
    object      phi;
}
// * * * * * * * * * * * * * * * * * * * * * * * * * * * * * * * * * * * * * //

dimensions      [0 3 -1 0 0 0 0];

internalField   nonuniform List<scalar> 
50880
(
1.37543e-11
-1.37428e-11
3.51927e-11
-2.1443e-11
4.36374e-11
-8.4448e-12
3.60875e-11
7.55086e-12
1.04401e-11
2.56496e-11
-3.30547e-11
4.34952e-11
-9.31934e-11
6.01398e-11
-1.68361e-10
7.51672e-11
-2.56835e-10
8.84737e-11
-3.56905e-10
1.00068e-10
-4.6693e-10
1.10026e-10
-5.8538e-10
1.18452e-10
-7.1086e-10
1.25483e-10
-8.42107e-10
1.31249e-10
-9.77989e-10
1.35882e-10
-1.11751e-09
1.39524e-10
-1.25983e-09
1.42316e-10
-1.4042e-09
1.44378e-10
-1.55001e-09
1.45812e-10
-1.69672e-09
1.46704e-10
-1.84386e-09
1.47138e-10
-1.99105e-09
1.47195e-10
-2.138e-09
1.46947e-10
-2.28445e-09
1.46447e-10
-2.43018e-09
1.45732e-10
-2.57502e-09
1.44838e-10
-2.71882e-09
1.438e-10
-2.86146e-09
1.42641e-10
-3.00284e-09
1.4138e-10
-3.14287e-09
1.40034e-10
-3.28149e-09
1.38615e-10
-3.41862e-09
1.37131e-10
-3.55421e-09
1.35586e-10
-3.6882e-09
1.33987e-10
-3.82054e-09
1.32337e-10
-3.95117e-09
1.30637e-10
-4.08006e-09
1.28887e-10
-4.20715e-09
1.27089e-10
-4.33239e-09
1.25246e-10
-4.45575e-09
1.23356e-10
-4.57717e-09
1.21418e-10
-4.6966e-09
1.19429e-10
-4.81399e-09
1.17392e-10
-4.9293e-09
1.15309e-10
-5.04249e-09
1.13181e-10
-5.15349e-09
1.11006e-10
-5.26227e-09
1.0878e-10
-5.36877e-09
1.06504e-10
-5.47295e-09
1.0418e-10
-5.57476e-09
1.0181e-10
-5.67415e-09
9.93951e-11
-5.77109e-09
9.6934e-11
-5.86552e-09
9.44256e-11
-5.95739e-09
9.18709e-11
-6.04666e-09
8.92719e-11
-6.13329e-09
8.663e-11
-6.21723e-09
8.39452e-11
-6.29845e-09
8.12172e-11
-6.37689e-09
7.84459e-11
-6.45253e-09
7.56326e-11
-6.52531e-09
7.27795e-11
-6.59519e-09
6.98875e-11
-6.66215e-09
6.69565e-11
-6.72613e-09
6.39866e-11
-6.78711e-09
6.09787e-11
-6.84504e-09
5.7934e-11
-6.8999e-09
5.48537e-11
-6.95164e-09
5.17388e-11
-7.00023e-09
4.85902e-11
-7.04563e-09
4.54086e-11
-7.08783e-09
4.21945e-11
-7.12677e-09
3.89486e-11
-7.16244e-09
3.56719e-11
-7.19481e-09
3.23655e-11
-7.22384e-09
2.90307e-11
-7.24951e-09
2.56693e-11
-7.27179e-09
2.22825e-11
-7.29066e-09
1.88708e-11
-7.30609e-09
1.54353e-11
-7.31807e-09
1.19776e-11
-7.32657e-09
8.49948e-12
-7.33157e-09
5.00247e-12
-7.33306e-09
1.4877e-12
-7.33102e-09
-2.04384e-12
-7.32543e-09
-5.59068e-12
-7.31627e-09
-9.15073e-12
-7.30355e-09
-1.2722e-11
-7.28725e-09
-1.63029e-11
-7.26736e-09
-1.98923e-11
-7.24387e-09
-2.34894e-11
-7.21677e-09
-2.70928e-11
-7.18608e-09
-3.06996e-11
-7.15177e-09
-3.43072e-11
-7.11386e-09
-3.79142e-11
-7.07234e-09
-4.15194e-11
-7.02722e-09
-4.51213e-11
-6.9785e-09
-4.87183e-11
-6.92619e-09
-5.2308e-11
-6.8703e-09
-5.58882e-11
-6.81084e-09
-5.94567e-11
-6.74783e-09
-6.30117e-11
-6.68128e-09
-6.65512e-11
-6.61121e-09
-7.00738e-11
-6.53763e-09
-7.35774e-11
-6.46057e-09
-7.70594e-11
-6.38006e-09
-8.05171e-11
-6.29611e-09
-8.39485e-11
-6.20876e-09
-8.73513e-11
-6.11803e-09
-9.07235e-11
-6.02397e-09
-9.40631e-11
-5.9266e-09
-9.7368e-11
-5.82597e-09
-1.00636e-10
-5.7221e-09
-1.03865e-10
-5.61505e-09
-1.07054e-10
-5.50485e-09
-1.10198e-10
-5.39155e-09
-1.13298e-10
-5.2752e-09
-1.1635e-10
-5.15585e-09
-1.19352e-10
-5.03355e-09
-1.22303e-10
-4.90835e-09
-1.25201e-10
-4.7803e-09
-1.28044e-10
-4.64947e-09
-1.30831e-10
-4.51591e-09
-1.33558e-10
-4.37969e-09
-1.36224e-10
-4.24086e-09
-1.38824e-10
-4.09951e-09
-1.41356e-10
-3.95569e-09
-1.43816e-10
-3.80949e-09
-1.46198e-10
-3.661e-09
-1.48497e-10
-3.51029e-09
-1.50705e-10
-3.35748e-09
-1.52811e-10
-3.20268e-09
-1.54802e-10
-3.04602e-09
-1.56664e-10
-2.88764e-09
-1.58376e-10
-2.72773e-09
-1.59915e-10
-2.56648e-09
-1.6125e-10
-2.40413e-09
-1.62347e-10
-2.24097e-09
-1.63163e-10
-2.07732e-09
-1.63649e-10
-1.91357e-09
-1.63745e-10
-1.75019e-09
-1.63383e-10
-1.58771e-09
-1.62486e-10
-1.42674e-09
-1.60964e-10
-1.26803e-09
-1.58716e-10
-1.11239e-09
-1.55632e-10
-9.60804e-10
-1.51591e-10
-8.14341e-10
-1.46462e-10
-6.74234e-10
-1.40107e-10
-5.41854e-10
-1.32381e-10
-4.18716e-10
-1.23139e-10
-3.06475e-10
-1.12241e-10
-2.06909e-10
-9.9567e-11
-1.21876e-10
-8.50335e-11
-5.32457e-11
-6.86306e-11
-2.74725e-12
-5.04985e-11
2.83389e-11
-3.10869e-11
3.97041e-11
-1.13657e-11
3.31171e-11
6.58711e-12
1.48445e-11
1.82721e-11
1.48445e-11
1.46655e-11
-2.8413e-11
2.78e-11
-3.45629e-11
1.60788e-11
3.27348e-12
-3.38608e-11
5.74903e-11
-1.26314e-10
1.18101e-10
-2.62074e-10
1.79254e-10
-4.39512e-10
2.37576e-10
-6.55625e-10
2.9128e-10
-9.06716e-10
3.39564e-10
-1.18882e-09
3.82176e-10
-1.49797e-09
4.19167e-10
-1.83032e-09
4.50795e-10
-2.18227e-09
4.77433e-10
-2.55053e-09
4.99506e-10
-2.93211e-09
5.17466e-10
-3.32436e-09
5.31771e-10
-3.72492e-09
5.42871e-10
-4.13173e-09
5.51191e-10
-4.54303e-09
5.57109e-10
-4.95729e-09
5.60965e-10
-5.37321e-09
5.63065e-10
-5.78971e-09
5.63692e-10
-6.20585e-09
5.63091e-10
-6.62087e-09
5.61464e-10
-7.03412e-09
5.58979e-10
-7.44506e-09
5.55779e-10
-7.85324e-09
5.51982e-10
-8.25829e-09
5.47686e-10
-8.65988e-09
5.42969e-10
-9.05774e-09
5.37894e-10
-9.45163e-09
5.3251e-10
-9.84135e-09
5.2685e-10
-1.02267e-08
5.2094e-10
-1.06075e-08
5.14802e-10
-1.09836e-08
5.08452e-10
-1.13549e-08
5.019e-10
-1.17212e-08
4.95151e-10
-1.20823e-08
4.88209e-10
-1.24381e-08
4.81079e-10
-1.27885e-08
4.73762e-10
-1.31334e-08
4.66257e-10
-1.34725e-08
4.58564e-10
-1.38058e-08
4.50683e-10
-1.41331e-08
4.42618e-10
-1.44543e-08
4.34369e-10
-1.47692e-08
4.25935e-10
-1.50778e-08
4.17315e-10
-1.53798e-08
4.0851e-10
-1.56751e-08
3.99522e-10
-1.59637e-08
3.90355e-10
-1.62453e-08
3.8101e-10
-1.65198e-08
3.71487e-10
-1.67872e-08
3.61787e-10
-1.70472e-08
3.51914e-10
-1.72998e-08
3.4187e-10
-1.75448e-08
3.31661e-10
-1.77822e-08
3.21288e-10
-1.80117e-08
3.10753e-10
-1.82333e-08
3.00056e-10
-1.84469e-08
2.89202e-10
-1.86523e-08
2.78195e-10
-1.88495e-08
2.67038e-10
-1.90382e-08
2.55733e-10
-1.92185e-08
2.44284e-10
-1.93902e-08
2.32693e-10
-1.95533e-08
2.20964e-10
-1.97075e-08
2.091e-10
-1.98529e-08
1.97105e-10
-1.99893e-08
1.84982e-10
-2.01166e-08
1.72733e-10
-2.02348e-08
1.60363e-10
-2.03437e-08
1.47875e-10
-2.04433e-08
1.35273e-10
-2.05335e-08
1.22562e-10
-2.06142e-08
1.09746e-10
-2.06853e-08
9.68275e-11
-2.07469e-08
8.38133e-11
-2.07987e-08
7.07081e-11
-2.08408e-08
5.75166e-11
-2.08731e-08
4.42443e-11
-2.08955e-08
3.08967e-11
-2.09079e-08
1.74789e-11
-2.09104e-08
3.99571e-12
-2.09029e-08
-9.54698e-12
-2.08854e-08
-2.31429e-11
-2.08577e-08
-3.67855e-11
-2.082e-08
-5.04691e-11
-2.07721e-08
-6.41882e-11
-2.07141e-08
-7.79373e-11
-2.06458e-08
-9.17099e-11
-2.05674e-08
-1.055e-10
-2.04788e-08
-1.193e-10
-2.038e-08
-1.33103e-10
-2.02711e-08
-1.46902e-10
-2.01519e-08
-1.60692e-10
-2.00225e-08
-1.74466e-10
-1.9883e-08
-1.88217e-10
-1.97334e-08
-2.01937e-10
-1.95737e-08
-2.15618e-10
-1.94039e-08
-2.29254e-10
-1.92241e-08
-2.42835e-10
-1.90343e-08
-2.56357e-10
-1.88345e-08
-2.69809e-10
-1.86249e-08
-2.83184e-10
-1.84055e-08
-2.96474e-10
-1.81764e-08
-3.0967e-10
-1.79375e-08
-3.22764e-10
-1.76892e-08
-3.35747e-10
-1.74313e-08
-3.48613e-10
-1.7164e-08
-3.61353e-10
-1.68874e-08
-3.73957e-10
-1.66016e-08
-3.86419e-10
-1.63067e-08
-3.9873e-10
-1.60029e-08
-4.10882e-10
-1.56902e-08
-4.22867e-10
-1.53689e-08
-4.34677e-10
-1.50389e-08
-4.46304e-10
-1.47005e-08
-4.5774e-10
-1.43539e-08
-4.68979e-10
-1.3999e-08
-4.80013e-10
-1.36363e-08
-4.90833e-10
-1.32657e-08
-5.01432e-10
-1.28874e-08
-5.11799e-10
-1.25017e-08
-5.21924e-10
-1.21087e-08
-5.31795e-10
-1.17087e-08
-5.41397e-10
-1.13018e-08
-5.50712e-10
-1.08883e-08
-5.59721e-10
-1.04684e-08
-5.68396e-10
-1.00424e-08
-5.76704e-10
-9.61059e-09
-5.84605e-10
-9.17335e-09
-5.92047e-10
-8.73105e-09
-5.98968e-10
-8.28413e-09
-6.0529e-10
-7.83313e-09
-6.1092e-10
-7.37864e-09
-6.15742e-10
-6.92136e-09
-6.19623e-10
-6.46212e-09
-6.22399e-10
-6.00189e-09
-6.23881e-10
-5.54179e-09
-6.23849e-10
-5.08312e-09
-6.22049e-10
-4.62742e-09
-6.1819e-10
-4.17644e-09
-6.11948e-10
-3.73219e-09
-6.02963e-10
-3.29698e-09
-5.90839e-10
-2.87342e-09
-5.7515e-10
-2.46444e-09
-5.55445e-10
-2.07329e-09
-5.31258e-10
-1.70355e-09
-5.02123e-10
-1.35909e-09
-4.67594e-10
-1.04405e-09
-4.27282e-10
-7.62715e-10
-3.80907e-10
-5.19363e-10
-3.28386e-10
-3.18024e-10
-2.69969e-10
-1.62034e-10
-2.06489e-10
-5.33547e-11
-1.39767e-10
8.59668e-12
-7.33168e-11
2.86712e-11
-1.34886e-11
1.8255e-11
2.8688e-11
3.30991e-11
8.09137e-12
-3.65045e-11
-6.58708e-12
-1.98864e-11
-6.27875e-11
5.94773e-11
-1.74046e-10
1.68748e-10
-3.46287e-10
2.90344e-10
-5.80858e-10
4.13825e-10
-8.76031e-10
5.32749e-10
-1.22813e-09
6.43378e-10
-1.63233e-09
7.43765e-10
-2.08324e-09
8.33085e-10
-2.57529e-09
9.11221e-10
-3.103e-09
9.78509e-10
-3.66114e-09
1.03557e-09
-4.24481e-09
1.08318e-09
-4.84954e-09
1.1222e-09
-5.4713e-09
1.15354e-09
-6.10649e-09
1.17807e-09
-6.75194e-09
1.19664e-09
-7.40487e-09
1.21003e-09
-8.06288e-09
1.21897e-09
-8.72391e-09
1.22409e-09
-9.3862e-09
1.22599e-09
-1.00483e-08
1.22516e-09
-1.07088e-08
1.22204e-09
-1.13669e-08
1.217e-09
-1.20214e-08
1.21036e-09
-1.26718e-08
1.20236e-09
-1.33174e-08
1.19322e-09
-1.39575e-08
1.18312e-09
-1.45918e-08
1.1722e-09
-1.52199e-08
1.16056e-09
-1.58413e-08
1.14828e-09
-1.64558e-08
1.13543e-09
-1.7063e-08
1.12206e-09
-1.76628e-08
1.10819e-09
-1.82548e-08
1.09387e-09
-1.88387e-08
1.07911e-09
-1.94144e-08
1.06391e-09
-1.99816e-08
1.04829e-09
-2.05401e-08
1.03225e-09
-2.10896e-08
1.0158e-09
-2.163e-08
9.98934e-10
-2.2161e-08
9.8166e-10
-2.26824e-08
9.6398e-10
-2.31939e-08
9.45896e-10
-2.36954e-08
9.27407e-10
-2.41866e-08
9.08514e-10
-2.46673e-08
8.89221e-10
-2.51373e-08
8.69531e-10
-2.55964e-08
8.49451e-10
-2.60443e-08
8.28983e-10
-2.6481e-08
8.08131e-10
-2.69061e-08
7.86899e-10
-2.73195e-08
7.65291e-10
-2.77209e-08
7.43314e-10
-2.81102e-08
7.20975e-10
-2.84872e-08
6.9828e-10
-2.88517e-08
6.75234e-10
-2.92035e-08
6.51841e-10
-2.95424e-08
6.2811e-10
-2.98682e-08
6.04045e-10
-3.01809e-08
5.79656e-10
-3.04801e-08
5.54949e-10
-3.07657e-08
5.2993e-10
-3.10376e-08
5.04606e-10
-3.12956e-08
4.78984e-10
-3.15396e-08
4.53073e-10
-3.17694e-08
4.2688e-10
-3.19848e-08
4.00413e-10
-3.21858e-08
3.73678e-10
-3.23721e-08
3.46683e-10
-3.25436e-08
3.19437e-10
-3.27003e-08
2.9195e-10
-3.2842e-08
2.6423e-10
-3.29685e-08
2.36288e-10
-3.30798e-08
2.08132e-10
-3.31758e-08
1.79772e-10
-3.32563e-08
1.51219e-10
-3.33213e-08
1.22485e-10
-3.33706e-08
9.35796e-11
-3.34042e-08
6.4516e-11
-3.3422e-08
3.53054e-11
-3.3424e-08
5.95866e-12
-3.341e-08
-2.35123e-11
-3.33801e-08
-5.30944e-11
-3.33341e-08
-8.27741e-11
-3.3272e-08
-1.12538e-10
-3.31938e-08
-1.42374e-10
-3.30995e-08
-1.7227e-10
-3.2989e-08
-2.02213e-10
-3.28623e-08
-2.32187e-10
-3.27194e-08
-2.62179e-10
-3.25604e-08
-2.92174e-10
-3.23851e-08
-3.22156e-10
-3.21937e-08
-3.52113e-10
-3.19861e-08
-3.82029e-10
-3.17625e-08
-4.1189e-10
-3.15227e-08
-4.41679e-10
-3.1267e-08
-4.71381e-10
-3.09952e-08
-5.00977e-10
-3.07076e-08
-5.30453e-10
-3.04042e-08
-5.59792e-10
-3.0085e-08
-5.88976e-10
-2.97502e-08
-6.17989e-10
-2.93999e-08
-6.46812e-10
-2.90341e-08
-6.75429e-10
-2.86531e-08
-7.03821e-10
-2.82568e-08
-7.31972e-10
-2.78456e-08
-7.59863e-10
-2.74195e-08
-7.87477e-10
-2.69786e-08
-8.14796e-10
-2.65232e-08
-8.41802e-10
-2.60535e-08
-8.68478e-10
-2.55696e-08
-8.94806e-10
-2.50717e-08
-9.2077e-10
-2.456e-08
-9.46353e-10
-2.40348e-08
-9.71536e-10
-2.34962e-08
-9.96303e-10
-2.29445e-08
-1.02064e-09
-2.238e-08
-1.04452e-09
-2.18029e-08
-1.06794e-09
-2.12135e-08
-1.09087e-09
-2.0612e-08
-1.11329e-09
-1.99988e-08
-1.13517e-09
-1.93741e-08
-1.15649e-09
-1.87383e-08
-1.17721e-09
-1.80917e-08
-1.1973e-09
-1.74347e-08
-1.2167e-09
-1.67677e-08
-1.23536e-09
-1.60912e-08
-1.25319e-09
-1.54057e-08
-1.27011e-09
-1.47118e-08
-1.28601e-09
-1.401e-08
-1.30073e-09
-1.33012e-08
-1.31412e-09
-1.25861e-08
-1.32597e-09
-1.18658e-08
-1.33602e-09
-1.11415e-08
-1.34398e-09
-1.04144e-08
-1.34951e-09
-9.68604e-09
-1.3522e-09
-8.95832e-09
-1.35157e-09
-8.23327e-09
-1.3471e-09
-7.51329e-09
-1.33817e-09
-6.80114e-09
-1.3241e-09
-6.09995e-09
-1.30415e-09
-5.41328e-09
-1.27751e-09
-4.74511e-09
-1.24332e-09
-4.09987e-09
-1.20068e-09
-3.48245e-09
-1.14868e-09
-2.89813e-09
-1.08644e-09
-2.35258e-09
-1.01315e-09
-1.85171e-09
-9.28151e-10
-1.40154e-09
-8.3108e-10
-1.00791e-09
-7.22013e-10
-6.76122e-10
-6.01757e-10
-4.10336e-10
-4.72276e-10
-2.12731e-10
-3.37372e-10
-8.23057e-11
-2.03744e-10
-1.33306e-11
-8.24648e-11
6.62256e-12
8.73465e-12
3.97214e-11
-7.6404e-12
-2.88637e-11
-5.88919e-11
3.13654e-11
-1.70543e-10
1.71128e-10
-3.5354e-10
3.51747e-10
-6.13127e-10
5.4993e-10
-9.50257e-10
7.50957e-10
-1.36282e-09
9.45314e-10
-1.84659e-09
1.12714e-09
-2.39596e-09
1.29313e-09
-3.00458e-09
1.4417e-09
-3.66576e-09
1.57241e-09
-4.37285e-09
1.6856e-09
-5.1194e-09
1.78212e-09
-5.89933e-09
1.8631e-09
-6.70701e-09
1.92987e-09
-7.53729e-09
1.98382e-09
-8.38555e-09
2.02633e-09
-9.24769e-09
2.05878e-09
-1.01201e-08
2.08243e-09
-1.09996e-08
2.09847e-09
-1.18835e-08
2.10797e-09
-1.27694e-08
2.1119e-09
-1.36553e-08
2.11108e-09
-1.45395e-08
2.10627e-09
-1.54206e-08
2.09809e-09
-1.62973e-08
2.08706e-09
-1.71686e-08
2.07365e-09
-1.80336e-08
2.0582e-09
-1.88915e-08
2.04103e-09
-1.97417e-08
2.02237e-09
-2.05835e-08
2.00241e-09
-2.14165e-08
1.98131e-09
-2.22403e-08
1.95918e-09
-2.30543e-08
1.93611e-09
-2.38583e-08
1.91216e-09
-2.46518e-08
1.88739e-09
-2.54346e-08
1.86183e-09
-2.62062e-08
1.83551e-09
-2.69663e-08
1.80844e-09
-2.77147e-08
1.78064e-09
-2.8451e-08
1.75211e-09
-2.91749e-08
1.72287e-09
-2.98862e-08
1.69291e-09
-3.05845e-08
1.66225e-09
-3.12695e-08
1.63089e-09
-3.19409e-08
1.59883e-09
-3.25984e-08
1.56607e-09
-3.32418e-08
1.53263e-09
-3.38708e-08
1.4985e-09
-3.44851e-08
1.4637e-09
-3.50843e-08
1.42823e-09
-3.56683e-08
1.39211e-09
-3.62367e-08
1.35533e-09
-3.67893e-08
1.31791e-09
-3.73259e-08
1.27985e-09
-3.78461e-08
1.24118e-09
-3.83497e-08
1.20189e-09
-3.88364e-08
1.16199e-09
-3.93061e-08
1.12151e-09
-3.97584e-08
1.08044e-09
-4.01932e-08
1.03881e-09
-4.06102e-08
9.96621e-10
-4.10091e-08
9.53886e-10
-4.13898e-08
9.10619e-10
-4.1752e-08
8.66832e-10
-4.20956e-08
8.22538e-10
-4.24202e-08
7.7775e-10
-4.27258e-08
7.32481e-10
-4.30122e-08
6.86746e-10
-4.32791e-08
6.40557e-10
-4.35263e-08
5.9393e-10
-4.37537e-08
5.4688e-10
-4.39612e-08
4.99421e-10
-4.41486e-08
4.51569e-10
-4.43156e-08
4.03341e-10
-4.44622e-08
3.54756e-10
-4.45883e-08
3.05829e-10
-4.46936e-08
2.56578e-10
-4.47782e-08
2.07023e-10
-4.48418e-08
1.57182e-10
-4.48843e-08
1.07075e-10
-4.49058e-08
5.67219e-11
-4.49059e-08
6.14373e-12
-4.48848e-08
-4.46393e-11
-4.48423e-08
-9.56062e-11
-4.47783e-08
-1.46735e-10
-4.46929e-08
-1.98003e-10
-4.45859e-08
-2.49388e-10
-4.44573e-08
-3.00867e-10
-4.43071e-08
-3.52418e-10
-4.41352e-08
-4.04016e-10
-4.39418e-08
-4.55638e-10
-4.37267e-08
-5.07259e-10
-4.349e-08
-5.58852e-10
-4.32317e-08
-6.10393e-10
-4.29519e-08
-6.61857e-10
-4.26506e-08
-7.13217e-10
-4.23278e-08
-7.64447e-10
-4.19837e-08
-8.15519e-10
-4.16182e-08
-8.66405e-10
-4.12316e-08
-9.17075e-10
-4.08239e-08
-9.67502e-10
-4.03952e-08
-1.01766e-09
-3.99457e-08
-1.06751e-09
-3.94755e-08
-1.11704e-09
-3.89847e-08
-1.1662e-09
-3.84736e-08
-1.21497e-09
-3.79422e-08
-1.26332e-09
-3.73909e-08
-1.31122e-09
-3.68197e-08
-1.35864e-09
-3.62289e-08
-1.40555e-09
-3.56188e-08
-1.45192e-09
-3.49896e-08
-1.49771e-09
-3.43415e-08
-1.54291e-09
-3.36748e-08
-1.58747e-09
-3.29897e-08
-1.63138e-09
-3.22867e-08
-1.67459e-09
-3.15659e-08
-1.71709e-09
-3.08277e-08
-1.75884e-09
-3.00724e-08
-1.7998e-09
-2.93004e-08
-1.83995e-09
-2.8512e-08
-1.87925e-09
-2.77076e-08
-1.91767e-09
-2.68877e-08
-1.95515e-09
-2.60525e-08
-1.99165e-09
-2.52026e-08
-2.0271e-09
-2.43385e-08
-2.06143e-09
-2.34606e-08
-2.09456e-09
-2.25696e-08
-2.12638e-09
-2.16661e-08
-2.15674e-09
-2.07507e-08
-2.1855e-09
-1.98243e-08
-2.21244e-09
-1.88877e-08
-2.23733e-09
-1.79419e-08
-2.25987e-09
-1.69882e-08
-2.27971e-09
-1.60278e-08
-2.29641e-09
-1.50623e-08
-2.30947e-09
-1.40935e-08
-2.3183e-09
-1.31235e-08
-2.32221e-09
-1.21547e-08
-2.32041e-09
-1.11898e-08
-2.31201e-09
-1.02319e-08
-2.29599e-09
-9.28481e-09
-2.27123e-09
-8.35245e-09
-2.23651e-09
-7.43944e-09
-2.19052e-09
-6.55089e-09
-2.13187e-09
-5.69244e-09
-2.05913e-09
-4.87023e-09
-1.9709e-09
-4.09086e-09
-1.86581e-09
-3.3613e-09
-1.74271e-09
-2.68875e-09
-1.6007e-09
-2.08042e-09
-1.43941e-09
-1.5432e-09
-1.25924e-09
-1.08323e-09
-1.06172e-09
-7.053e-10
-8.50206e-10
-4.12024e-10
-6.30648e-10
-2.02825e-10
-4.12945e-10
-7.27486e-11
-2.12541e-10
-1.12015e-11
-5.28128e-11
2.85199e-11
-2.51998e-11
-3.66239e-12
-1.18657e-10
1.24821e-10
-2.91636e-10
3.44109e-10
-5.51668e-10
6.11777e-10
-9.0218e-10
9.00442e-10
-1.34301e-09
1.19179e-09
-1.87127e-09
1.47357e-09
-2.48206e-09
1.73794e-09
-3.16914e-09
1.98021e-09
-3.92542e-09
2.19798e-09
-4.74344e-09
2.39042e-09
-5.61565e-09
2.55782e-09
-6.53472e-09
2.70119e-09
-7.49366e-09
2.82204e-09
-8.48595e-09
2.92216e-09
-9.50559e-09
3.00345e-09
-1.05471e-08
3.06788e-09
-1.16057e-08
3.11737e-09
-1.26771e-08
3.15375e-09
-1.37573e-08
3.17873e-09
-1.48432e-08
3.19387e-09
-1.59319e-08
3.20056e-09
-1.70209e-08
3.20006e-09
-1.8108e-08
3.19345e-09
-1.91916e-08
3.18165e-09
-2.027e-08
3.16548e-09
-2.1342e-08
3.1456e-09
-2.24063e-08
3.12256e-09
-2.34621e-08
3.09682e-09
-2.45085e-08
3.06874e-09
-2.55447e-08
3.03864e-09
-2.65701e-08
3.00673e-09
-2.75842e-08
2.9732e-09
-2.85862e-08
2.93819e-09
-2.95759e-08
2.90182e-09
-3.05526e-08
2.86415e-09
-3.15161e-08
2.82525e-09
-3.24657e-08
2.78517e-09
-3.34012e-08
2.74393e-09
-3.43222e-08
2.70157e-09
-3.52281e-08
2.65809e-09
-3.61188e-08
2.61352e-09
-3.69937e-08
2.56785e-09
-3.78526e-08
2.52111e-09
-3.8695e-08
2.4733e-09
-3.95206e-08
2.42443e-09
-4.0329e-08
2.3745e-09
-4.11199e-08
2.32353e-09
-4.1893e-08
2.27153e-09
-4.26478e-08
2.21851e-09
-4.3384e-08
2.16448e-09
-4.41014e-08
2.10945e-09
-4.47995e-08
2.05343e-09
-4.5478e-08
1.99645e-09
-4.61367e-08
1.93851e-09
-4.67751e-08
1.87963e-09
-4.7393e-08
1.81982e-09
-4.79902e-08
1.75911e-09
-4.85661e-08
1.6975e-09
-4.91207e-08
1.63502e-09
-4.96536e-08
1.57168e-09
-5.01645e-08
1.50751e-09
-5.06531e-08
1.44252e-09
-5.11192e-08
1.37672e-09
-5.15625e-08
1.31015e-09
-5.19828e-08
1.24281e-09
-5.23798e-08
1.17474e-09
-5.27532e-08
1.10594e-09
-5.31029e-08
1.03645e-09
-5.34286e-08
9.66274e-10
-5.37302e-08
8.95449e-10
-5.40073e-08
8.23993e-10
-5.42598e-08
7.5193e-10
-5.44875e-08
6.79283e-10
-5.46902e-08
6.06079e-10
-5.48678e-08
5.32341e-10
-5.50201e-08
4.58099e-10
-5.51469e-08
3.83379e-10
-5.52481e-08
3.08209e-10
-5.53235e-08
2.32617e-10
-5.53731e-08
1.56634e-10
-5.53966e-08
8.02878e-11
-5.53941e-08
3.61145e-12
-5.53654e-08
-7.33638e-11
-5.53104e-08
-1.50606e-10
-5.5229e-08
-2.28083e-10
-5.51213e-08
-3.05761e-10
-5.49871e-08
-3.83607e-10
-5.48263e-08
-4.61585e-10
-5.46391e-08
-5.39661e-10
-5.44253e-08
-6.17798e-10
-5.4185e-08
-6.95961e-10
-5.39181e-08
-7.74112e-10
-5.36248e-08
-8.52213e-10
-5.33049e-08
-9.30226e-10
-5.29587e-08
-1.00811e-09
-5.25861e-08
-1.08583e-09
-5.21872e-08
-1.16334e-09
-5.17621e-08
-1.2406e-09
-5.1311e-08
-1.31757e-09
-5.08338e-08
-1.39421e-09
-5.03309e-08
-1.47047e-09
-4.98022e-08
-1.54631e-09
-4.9248e-08
-1.62168e-09
-4.86685e-08
-1.69655e-09
-4.80639e-08
-1.77087e-09
-4.74342e-08
-1.84458e-09
-4.67799e-08
-1.91766e-09
-4.61011e-08
-1.99004e-09
-4.5398e-08
-2.06169e-09
-4.4671e-08
-2.13257e-09
-4.39203e-08
-2.20262e-09
-4.31462e-08
-2.2718e-09
-4.23491e-08
-2.34006e-09
-4.15292e-08
-2.40737e-09
-4.06869e-08
-2.47367e-09
-3.98226e-08
-2.53893e-09
-3.89366e-08
-2.60308e-09
-3.80293e-08
-2.6661e-09
-3.71012e-08
-2.72793e-09
-3.61526e-08
-2.78851e-09
-3.51841e-08
-2.84779e-09
-3.4196e-08
-2.90572e-09
-3.3189e-08
-2.96221e-09
-3.21634e-08
-3.0172e-09
-3.11199e-08
-3.07058e-09
-3.00591e-08
-3.12223e-09
-2.89817e-08
-3.17203e-09
-2.78883e-08
-3.21979e-09
-2.67797e-08
-3.26532e-09
-2.56568e-08
-3.30836e-09
-2.45206e-08
-3.34861e-09
-2.33723e-08
-3.3857e-09
-2.2213e-08
-3.41916e-09
-2.10442e-08
-3.44847e-09
-1.98677e-08
-3.47298e-09
-1.86852e-08
-3.49194e-09
-1.7499e-08
-3.50446e-09
-1.63117e-08
-3.50952e-09
-1.51262e-08
-3.50596e-09
-1.39457e-08
-3.49244e-09
-1.27742e-08
-3.46751e-09
-1.16159e-08
-3.42953e-09
-1.04757e-08
-3.37673e-09
-9.35897e-09
-3.30724e-09
-8.27175e-09
-3.21909e-09
-7.2206e-09
-3.11028e-09
-6.21263e-09
-2.97886e-09
-5.25543e-09
-2.82302e-09
-4.35693e-09
-2.64121e-09
-3.52525e-09
-2.43238e-09
-2.76846e-09
-2.1962e-09
-2.09424e-09
-1.93345e-09
-1.50944e-09
-1.64652e-09
-1.01953e-09
-1.34012e-09
-6.27928e-10
-1.02225e-09
-3.35246e-10
-7.05626e-10
-1.38549e-10
-4.09238e-10
-3.07164e-11
-1.60646e-10
-2.196e-12
-4.29543e-11
3.92922e-11
-1.79754e-10
2.61619e-10
-4.15607e-10
5.79962e-10
-7.53966e-10
9.50138e-10
-1.19568e-09
1.34215e-09
-1.73893e-09
1.73504e-09
-2.37969e-09
2.11434e-09
-3.11223e-09
2.47049e-09
-3.92961e-09
2.79759e-09
-4.82411e-09
3.09248e-09
-5.78763e-09
3.35393e-09
-6.81197e-09
3.58216e-09
-7.88913e-09
3.77835e-09
-9.01143e-09
3.94434e-09
-1.01717e-08
4.08238e-09
-1.13631e-08
4.19495e-09
-1.25798e-08
4.28458e-09
-1.38163e-08
4.35379e-09
-1.50675e-08
4.40501e-09
-1.63293e-08
4.44051e-09
-1.75978e-08
4.46238e-09
-1.88698e-08
4.47252e-09
-2.01423e-08
4.47261e-09
-2.1413e-08
4.46412e-09
-2.26797e-08
4.44833e-09
-2.39405e-08
4.42635e-09
-2.5194e-08
4.39909e-09
-2.64388e-08
4.36732e-09
-2.76737e-08
4.33169e-09
-2.88976e-08
4.29272e-09
-3.01098e-08
4.25081e-09
-3.13094e-08
4.20631e-09
-3.24957e-08
4.15947e-09
-3.3668e-08
4.1105e-09
-3.48257e-08
4.05957e-09
-3.59683e-08
4.00678e-09
-3.70953e-08
3.95223e-09
-3.82061e-08
3.89598e-09
-3.93003e-08
3.8381e-09
-4.03773e-08
3.77861e-09
-4.14368e-08
3.71755e-09
-4.24782e-08
3.65493e-09
-4.35011e-08
3.59079e-09
-4.45051e-08
3.52513e-09
-4.54898e-08
3.45796e-09
-4.64547e-08
3.38931e-09
-4.73994e-08
3.31918e-09
-4.83234e-08
3.2476e-09
-4.92265e-08
3.17457e-09
-5.01081e-08
3.10012e-09
-5.09679e-08
3.02426e-09
-5.18054e-08
2.94701e-09
-5.26204e-08
2.86838e-09
-5.34123e-08
2.7884e-09
-5.41809e-08
2.7071e-09
-5.49258e-08
2.62448e-09
-5.56465e-08
2.54058e-09
-5.63429e-08
2.45541e-09
-5.70144e-08
2.36901e-09
-5.76607e-08
2.28139e-09
-5.82816e-08
2.19258e-09
-5.88767e-08
2.10261e-09
-5.94457e-08
2.0115e-09
-5.99883e-08
1.91929e-09
-6.05041e-08
1.82599e-09
-6.09929e-08
1.73164e-09
-6.14545e-08
1.63627e-09
-6.18884e-08
1.5399e-09
-6.22946e-08
1.44257e-09
-6.26726e-08
1.3443e-09
-6.30223e-08
1.24514e-09
-6.33434e-08
1.1451e-09
-6.36357e-08
1.04424e-09
-6.3899e-08
9.42568e-10
-6.4133e-08
8.40135e-10
-6.43377e-08
7.36972e-10
-6.45127e-08
6.33118e-10
-6.46579e-08
5.28611e-10
-6.47732e-08
4.2349e-10
-6.48584e-08
3.17796e-10
-6.49133e-08
2.11568e-10
-6.49379e-08
1.04849e-10
-6.49319e-08
-2.31773e-12
-6.48954e-08
-1.09889e-10
-6.48282e-08
-2.17818e-10
-6.47302e-08
-3.26062e-10
-6.46014e-08
-4.34572e-10
-6.44417e-08
-5.43304e-10
-6.42511e-08
-6.52207e-10
-6.40295e-08
-7.61234e-10
-6.3777e-08
-8.70334e-10
-6.34935e-08
-9.79455e-10
-6.31791e-08
-1.08855e-09
-6.28337e-08
-1.19756e-09
-6.24575e-08
-1.30643e-09
-6.20505e-08
-1.41511e-09
-6.16128e-08
-1.52355e-09
-6.11444e-08
-1.63169e-09
-6.06456e-08
-1.73946e-09
-6.01163e-08
-1.84682e-09
-5.95568e-08
-1.9537e-09
-5.89673e-08
-2.06005e-09
-5.83478e-08
-2.1658e-09
-5.76986e-08
-2.27089e-09
-5.70199e-08
-2.37526e-09
-5.63119e-08
-2.47885e-09
-5.55749e-08
-2.5816e-09
-5.48091e-08
-2.68345e-09
-5.40148e-08
-2.78432e-09
-5.31923e-08
-2.88417e-09
-5.2342e-08
-2.98292e-09
-5.14641e-08
-3.08051e-09
-5.0559e-08
-3.17689e-09
-4.96271e-08
-3.27198e-09
-4.86687e-08
-3.36573e-09
-4.76843e-08
-3.45807e-09
-4.66743e-08
-3.54893e-09
-4.56391e-08
-3.63826e-09
-4.45793e-08
-3.72599e-09
-4.34951e-08
-3.81204e-09
-4.23873e-08
-3.89634e-09
-4.12563e-08
-3.97882e-09
-4.01026e-08
-4.05938e-09
-3.89269e-08
-4.13792e-09
-3.77298e-08
-4.21432e-09
-3.65119e-08
-4.28845e-09
-3.5274e-08
-4.36013e-09
-3.40169e-08
-4.42918e-09
-3.27413e-08
-4.49535e-09
-3.14483e-08
-4.55835e-09
-3.01388e-08
-4.61781e-09
-2.88141e-08
-4.67332e-09
-2.74755e-08
-4.72434e-09
-2.61244e-08
-4.77025e-09
-2.47626e-08
-4.81029e-09
-2.3392e-08
-4.84359e-09
-2.20148e-08
-4.86909e-09
-2.06337e-08
-4.88559e-09
-1.92515e-08
-4.8917e-09
-1.78717e-08
-4.88582e-09
-1.64979e-08
-4.86616e-09
-1.51347e-08
-4.83074e-09
-1.37869e-08
-4.77737e-09
-1.24599e-08
-4.70372e-09
-1.11598e-08
-4.60728e-09
-9.89345e-09
-4.48548e-09
-8.668e-09
-4.33574e-09
-7.49133e-09
-4.15553e-09
-6.37176e-09
-3.94258e-09
-5.31796e-09
-3.69501e-09
-4.33874e-09
-3.41159e-09
-3.44286e-09
-3.09208e-09
-2.63867e-09
-2.73765e-09
-1.93373e-09
-2.35147e-09
-1.33437e-09
-1.93947e-09
-8.45198e-10
-1.51143e-09
-4.68606e-10
-1.08222e-09
-2.0443e-10
-6.73415e-10
-4.98526e-11
-3.15223e-10
-5.20481e-11
-5.97633e-11
9.90561e-11
-2.38604e-10
4.40457e-10
-5.35939e-10
8.77296e-10
-9.50984e-10
1.36518e-09
-1.4816e-09
1.87277e-09
-2.12395e-09
2.37739e-09
-2.87261e-09
2.86299e-09
-3.72083e-09
3.3187e-09
-4.66089e-09
3.73765e-09
-5.68443e-09
4.11602e-09
-6.78278e-09
4.45228e-09
-7.94721e-09
4.74659e-09
-9.16917e-09
5.00031e-09
-1.04405e-08
5.21564e-09
-1.17534e-08
5.39529e-09
-1.31007e-08
5.54228e-09
-1.44759e-08
5.65976e-09
-1.5873e-08
5.75088e-09
-1.72867e-08
5.81868e-09
-1.87122e-08
5.86601e-09
-2.01453e-08
5.89554e-09
-2.15825e-08
5.90967e-09
-2.30204e-08
5.91057e-09
-2.44564e-08
5.90013e-09
-2.58881e-08
5.88001e-09
-2.73134e-08
5.85163e-09
-2.87305e-08
5.81618e-09
-3.01379e-08
5.7747e-09
-3.15342e-08
5.728e-09
-3.29182e-08
5.67678e-09
-3.4289e-08
5.6216e-09
-3.56456e-08
5.56289e-09
-3.69872e-08
5.50103e-09
-3.83129e-08
5.43627e-09
-3.96222e-08
5.36884e-09
-4.09144e-08
5.29891e-09
-4.21887e-08
5.22661e-09
-4.34448e-08
5.15202e-09
-4.46819e-08
5.07523e-09
-4.58996e-08
4.99629e-09
-4.70973e-08
4.91524e-09
-4.82745e-08
4.83212e-09
-4.94307e-08
4.74697e-09
-5.05653e-08
4.6598e-09
-5.1678e-08
4.57063e-09
-5.27682e-08
4.4795e-09
-5.38354e-08
4.38641e-09
-5.48792e-08
4.2914e-09
-5.58991e-08
4.19447e-09
-5.68947e-08
4.09567e-09
-5.78654e-08
3.995e-09
-5.88109e-08
3.8925e-09
-5.97307e-08
3.7882e-09
-6.06244e-08
3.68211e-09
-6.14916e-08
3.57427e-09
-6.23318e-08
3.46471e-09
-6.31447e-08
3.35345e-09
-6.39298e-08
3.24054e-09
-6.46868e-08
3.126e-09
-6.54153e-08
3.00986e-09
-6.61148e-08
2.89216e-09
-6.67852e-08
2.77294e-09
-6.74259e-08
2.65223e-09
-6.80367e-08
2.53006e-09
-6.86171e-08
2.40648e-09
-6.9167e-08
2.28151e-09
-6.9686e-08
2.15521e-09
-7.01737e-08
2.02762e-09
-7.06299e-08
1.89876e-09
-7.10543e-08
1.76868e-09
-7.14466e-08
1.63744e-09
-7.18065e-08
1.50506e-09
-7.21339e-08
1.37159e-09
-7.24284e-08
1.23709e-09
-7.26898e-08
1.10159e-09
-7.2918e-08
9.65152e-10
-7.31127e-08
8.27815e-10
-7.32737e-08
6.89633e-10
-7.34009e-08
5.50658e-10
-7.34941e-08
4.10942e-10
-7.3553e-08
2.70541e-10
-7.35777e-08
1.29509e-10
-7.35679e-08
-1.2098e-11
-7.35236e-08
-1.54221e-10
-7.34446e-08
-2.96802e-10
-7.33309e-08
-4.39779e-10
-7.31824e-08
-5.83093e-10
-7.2999e-08
-7.26681e-10
-7.27807e-08
-8.7048e-10
-7.25275e-08
-1.01443e-09
-7.22394e-08
-1.15845e-09
-7.19164e-08
-1.30249e-09
-7.15584e-08
-1.44648e-09
-7.11657e-08
-1.59034e-09
-7.07381e-08
-1.734e-09
-7.02758e-08
-1.8774e-09
-6.97789e-08
-2.02046e-09
-6.92475e-08
-2.16311e-09
-6.86817e-08
-2.30527e-09
-6.80816e-08
-2.44686e-09
-6.74475e-08
-2.58781e-09
-6.67795e-08
-2.72804e-09
-6.60779e-08
-2.86747e-09
-6.53427e-08
-3.00602e-09
-6.45744e-08
-3.14361e-09
-6.37731e-08
-3.28016e-09
-6.29391e-08
-3.41559e-09
-6.20727e-08
-3.54981e-09
-6.11743e-08
-3.68275e-09
-6.02442e-08
-3.81432e-09
-5.92827e-08
-3.94443e-09
-5.82902e-08
-4.07301e-09
-5.72671e-08
-4.19998e-09
-5.62138e-08
-4.32524e-09
-5.51308e-08
-4.44872e-09
-5.40185e-08
-4.57033e-09
-5.28775e-08
-4.68999e-09
-5.17081e-08
-4.80761e-09
-5.0511e-08
-4.9231e-09
-4.92867e-08
-5.03637e-09
-4.80357e-08
-5.14732e-09
-4.67587e-08
-5.25583e-09
-4.54563e-08
-5.36178e-09
-4.41292e-08
-5.46505e-09
-4.2778e-08
-5.56546e-09
-4.14036e-08
-5.66283e-09
-4.00069e-08
-5.75693e-09
-3.85885e-08
-5.84751e-09
-3.71497e-08
-5.93423e-09
-3.56913e-08
-6.0167e-09
-3.42147e-08
-6.09445e-09
-3.27211e-08
-6.16691e-09
-3.1212e-08
-6.23338e-09
-2.96892e-08
-6.29304e-09
-2.81546e-08
-6.3449e-09
-2.66104e-08
-6.38782e-09
-2.50591e-08
-6.42042e-09
-2.35035e-08
-6.44115e-09
-2.1947e-08
-6.44821e-09
-2.03933e-08
-6.43955e-09
-1.88465e-08
-6.41288e-09
-1.73116e-08
-6.36567e-09
-1.57938e-08
-6.29516e-09
-1.42992e-08
-6.19838e-09
-1.28342e-08
-6.07221e-09
-1.14063e-08
-5.91345e-09
-1.00231e-08
-5.71888e-09
-8.69321e-09
-5.48545e-09
-7.42541e-09
-5.21039e-09
-6.22893e-09
-4.89148e-09
-5.1132e-09
-4.52733e-09
-4.08753e-09
-4.11774e-09
-3.16096e-09
-3.66422e-09
-2.34186e-09
-3.17057e-09
-1.63759e-09
-2.64374e-09
-1.05425e-09
-2.09477e-09
-5.96387e-10
-1.54008e-09
-2.66964e-10
-1.00284e-09
-6.76696e-11
-5.14516e-10
-1.19718e-10
-7.5119e-11
1.74175e-10
-2.93343e-10
6.58679e-10
-6.48911e-10
1.23286e-09
-1.13697e-09
1.85324e-09
-1.75231e-09
2.48811e-09
-2.48887e-09
3.11396e-09
-3.33965e-09
3.71377e-09
-4.29674e-09
4.27579e-09
-5.35154e-09
4.79246e-09
-6.49503e-09
5.25951e-09
-7.71797e-09
5.67522e-09
-9.01115e-09
6.03977e-09
-1.03656e-08
6.35474e-09
-1.17726e-08
6.62269e-09
-1.32242e-08
6.84683e-09
-1.47126e-08
7.03073e-09
-1.6231e-08
7.17816e-09
-1.77731e-08
7.29291e-09
-1.9333e-08
7.37864e-09
-2.09058e-08
7.43884e-09
-2.2487e-08
7.47674e-09
-2.40727e-08
7.49529e-09
-2.56592e-08
7.49714e-09
-2.72438e-08
7.48465e-09
-2.88236e-08
7.45986e-09
-3.03965e-08
7.42454e-09
-3.19605e-08
7.38019e-09
-3.35139e-08
7.32807e-09
-3.50552e-08
7.26925e-09
-3.6583e-08
7.2046e-09
-3.80962e-08
7.13481e-09
-3.95937e-08
7.06046e-09
-4.10747e-08
6.98201e-09
-4.25383e-08
6.89982e-09
-4.39836e-08
6.81417e-09
-4.541e-08
6.72527e-09
-4.68167e-08
6.63331e-09
-4.8203e-08
6.5384e-09
-4.95685e-08
6.44066e-09
-5.09123e-08
6.34015e-09
-5.22341e-08
6.23695e-09
-5.3533e-08
6.1311e-09
-5.48087e-08
6.02264e-09
-5.60605e-08
5.91161e-09
-5.72879e-08
5.79804e-09