/*--------------------------------*- C++ -*----------------------------------*\
  =========                 |
  \\      /  F ield         | OpenFOAM: The Open Source CFD Toolbox
   \\    /   O peration     | Website:  https://openfoam.org
    \\  /    A nd           | Version:  7
     \\/     M anipulation  |
\*---------------------------------------------------------------------------*/
FoamFile
{
    version     2.0;
    format      ascii;
    class       volScalarField;
    location    "0.125";
    object      p;
}
// * * * * * * * * * * * * * * * * * * * * * * * * * * * * * * * * * * * * * //

dimensions      [0 2 -2 0 0 0 0];

internalField   nonuniform List<scalar> 
25600
(
1.22703e-08
-2.48682e-07
-2.95146e-06
-7.9051e-06
-1.44538e-05
-2.19542e-05
-2.98592e-05
-3.77277e-05
-4.52312e-05
-5.21314e-05
-5.82568e-05
-6.34845e-05
-6.77181e-05
-7.08713e-05
-7.288e-05
-7.37194e-05
-7.33959e-05
-7.19187e-05
-6.92869e-05
-6.54962e-05
-6.05516e-05
-5.44732e-05
-4.72911e-05
-3.9031e-05
-2.97049e-05
-1.93161e-05
-7.87326e-06
4.60438e-06
1.80944e-05
3.25818e-05
4.80618e-05
6.45337e-05
8.19925e-05
0.000100426
0.000119821
0.00014017
0.000161471
0.000183725
0.000206927
0.000231069
0.000256142
0.000282138
0.000309056
0.000336895
0.000365649
0.000395309
0.000425866
0.000457314
0.000489648
0.000522863
0.000556951
0.000591903
0.000627708
0.000664357
0.000701843
0.000740157
0.000779289
0.000819225
0.000859954
0.000901464
0.000943742
0.000986776
0.00103055
0.00107505
0.00112027
0.00116618
0.00121277
0.00126002
0.00130792
0.00135645
0.00140558
0.00145531
0.0015056
0.00155644
0.0016078
0.00165966
0.00171201
0.00176481
0.00181804
0.00187167
0.00192568
0.00198005
0.00203474
0.00208972
0.00214497
0.00220046
0.00225615
0.00231202
0.00236804
0.00242416
0.00248036
0.00253661
0.00259286
0.00264908
0.00270525
0.00276131
0.00281724
0.00287299
0.00292854
0.00298383
0.00303883
0.00309351
0.00314782
0.00320172
0.00325517
0.00330813
0.00336056
0.00341242
0.00346367
0.00351427
0.00356418
0.00361335
0.00366174
0.00370932
0.00375604
0.00380186
0.00384674
0.00389065
0.00393355
0.00397538
0.00401613
0.00405574
0.00409419
0.00413143
0.00416743
0.00420214
0.00423555
0.0042676
0.00429827
0.00432752
0.00435532
0.00438163
0.00440642
0.00442966
0.00445131
0.00447134
0.00448972
0.00450643
0.00452143
0.0045347
0.00454621
0.00455595
0.0045639
0.00457005
0.00457441
0.00457699
0.00457781
0.00457693
0.0045744
0.00457032
0.00456482
0.00455806
0.00455026
0.00454172
0.0045328
0.00452399
0.0045159
0.00450927
0.00450507
0.00450393
1.13689e-06
8.23012e-07
-1.5391e-06
-5.62147e-06
-1.09274e-05
-1.70172e-05
-2.35009e-05
-3.00249e-05
-3.62997e-05
-4.20966e-05
-4.72373e-05
-5.15933e-05
-5.50736e-05
-5.76022e-05
-5.91097e-05
-5.95472e-05
-5.88953e-05
-5.71532e-05
-5.4322e-05
-5.03987e-05
-4.53793e-05
-3.92669e-05
-3.20755e-05
-2.38255e-05
-1.45332e-05
-4.20589e-06
7.15229e-06
1.9533e-05
3.29223e-05
4.73053e-05
6.26715e-05
7.90165e-05
9.63375e-05
0.000114629
0.000133883
0.000154089
0.000175241
0.000197335
0.000220371
0.000244343
0.000269245
0.000295068
0.000321807
0.000349458
0.000378017
0.000407479
0.000437835
0.000469078
0.000501201
0.000534197
0.000568061
0.000602784
0.000638356
0.000674768
0.00071201
0.000750074
0.000788949
0.000828624
0.000869088
0.000910326
0.000952327
0.000995079
0.00103857
0.00108278
0.00112769
0.0011733
0.00121958
0.00126652
0.0013141
0.0013623
0.00141111
0.0014605
0.00151045
0.00156094
0.00161196
0.00166347
0.00171545
0.00176789
0.00182075
0.00187401
0.00192765
0.00198163
0.00203594
0.00209054
0.0021454
0.00220049
0.00225579
0.00231125
0.00236686
0.00242258
0.00247837
0.0025342
0.00259004
0.00264585
0.00270159
0.00275724
0.00281274
0.00286808
0.0029232
0.00297806
0.00303264
0.0030869
0.00314078
0.00319426
0.00324728
0.00329983
0.00335184
0.00340328
0.00345412
0.0035043
0.0035538
0.00360256
0.00365055
0.00369773
0.00374405
0.00378948
0.00383398
0.00387751
0.00392003
0.0039615
0.00400188
0.00404114
0.00407924
0.00411614
0.00415181
0.0041862
0.00421929
0.00425105
0.00428143
0.0043104
0.00433794
0.004364
0.00438856
0.00441159
0.00443306
0.00445294
0.00447121
0.00448783
0.00450279
0.00451606
0.00452764
0.0045375
0.00454566
0.0045521
0.00455685
0.00455992
0.00456135
0.00456121
0.00455956
0.00455651
0.00455218
0.00454677
0.00454046
0.00453355
0.00452635
0.00451927
0.0045128
0.00450746
0.00450397
0.00450283
5.043e-06
4.10527e-06
1.58705e-06
-2.2308e-06
-6.95422e-06
-1.22696e-05
-1.78899e-05
-2.35406e-05
-2.89812e-05
-3.40084e-05
-3.84508e-05
-4.21736e-05
-4.50863e-05
-4.7125e-05
-4.82295e-05
-4.8343e-05
-4.74271e-05
-4.54672e-05
-4.24615e-05
-3.84102e-05
-3.33105e-05
-2.71576e-05
-1.99518e-05
-1.17028e-05
-2.42651e-06
7.86429e-06
1.91639e-05
3.14698e-05
4.47772e-05
5.90755e-05
7.4352e-05
9.05972e-05
0.000107807
0.000125981
0.000145114
0.000165199
0.000186226
0.00020819
0.000231086
0.000254914
0.000279669
0.000305345
0.000331933
0.000359427
0.000387823
0.000417117
0.000447302
0.000478373
0.000510319
0.000543133
0.000576809
0.000611339
0.000646716
0.000682929
0.000719969
0.000757825
0.000796488
0.000835946
0.000876189
0.000917203
0.000958976
0.00100149
0.00104475
0.00108872
0.00113339
0.00117875
0.00122478
0.00127146
0.00131878
0.00136672
0.00141526
0.00146437
0.00151405
0.00156427
0.001615
0.00166623
0.00171793
0.00177007
0.00182264
0.00187561
0.00192894
0.00198263
0.00203663
0.00209092
0.00214547
0.00220025
0.00225523
0.00231039
0.00236568
0.00242108
0.00247655
0.00253206
0.00258757
0.00264306
0.00269848
0.00275379
0.00280897
0.00286398
0.00291877
0.00297331
0.00302757
0.00308149
0.00313505
0.0031882
0.0032409
0.00329312
0.00334481
0.00339594
0.00344645
0.00349632
0.0035455
0.00359395
0.00364164
0.00368851
0.00373453
0.00377967
0.00382387
0.00386711
0.00390935
0.00395054
0.00399065
0.00402964
0.00406747
0.00410412
0.00413953
0.00417369
0.00420655
0.00423808
0.00426825
0.00429702
0.00432436
0.00435025
0.00437465
0.00439754
0.00441888
0.00443866
0.00445685
0.00447343
0.00448838
0.00450168
0.00451333
0.00452332
0.00453165
0.00453834
0.0045434
0.00454686
0.00454877
0.00454918
0.00454819
0.00454589
0.00454241
0.00453793
0.00453263
0.00452676
0.00452061
0.00451452
0.00450886
0.00450407
0.00450058
0.00449875
1.10749e-05
9.04247e-06
6.0136e-06
2.10547e-06
-2.46638e-06
-7.44342e-06
-1.25956e-05
-1.77074e-05
-2.25844e-05
-2.70619e-05
-3.09949e-05
-3.42541e-05
-3.67408e-05
-3.83906e-05
-3.91555e-05
-3.89887e-05
-3.78489e-05
-3.57086e-05
-3.25542e-05
-2.83826e-05
-2.31949e-05
-1.69899e-05
-9.76345e-06
-1.51435e-06
7.75028e-06
1.80182e-05
2.92795e-05
4.15296e-05
5.47671e-05
6.89882e-05
8.41845e-05
0.000100345
0.000117463
0.000135535
0.000154559
0.000174531
0.000195445
0.000217293
0.000240068
0.000263767
0.000288389
0.000313929
0.00034038
0.000367734
0.000395984
0.000425128
0.000455159
0.000486072
0.000517859
0.000550511
0.000584021
0.00061838
0.000653582
0.000689617
0.000726477
0.000764149
0.000802624
0.000841892
0.00088194
0.000922756
0.000964329
0.00100664
0.00104969
0.00109345
0.00113791
0.00118305
0.00122886
0.00127532
0.00132242
0.00137013
0.00141844
0.00146733
0.00151677
0.00156675
0.00161725
0.00166823
0.00171969
0.00177159
0.00182391
0.00187663
0.00192972
0.00198315
0.0020369
0.00209093
0.00214523
0.00219975
0.00225448
0.00230937
0.0023644
0.00241954
0.00247474
0.00252999
0.00258524
0.00264047
0.00269562
0.00275068
0.00280559
0.00286034
0.00291487
0.00296914
0.00302313
0.0030768
0.00313009
0.00318298
0.00323543
0.00328739
0.00333882
0.00338969
0.00343996
0.00348957
0.0035385
0.00358671
0.00363415
0.00368078
0.00372656
0.00377146
0.00381544
0.00385845
0.00390046
0.00394144
0.00398133
0.00402011
0.00405775
0.00409419
0.00412942
0.00416339
0.00419607
0.00422743
0.00425744
0.00428606
0.00431326
0.00433902
0.00436331
0.0043861
0.00440736
0.00442707
0.00444522
0.00446178
0.00447674
0.00449009
0.00450182
0.00451193
0.00452042
0.00452732
0.00453264
0.00453643
0.00453871
0.00453957
0.00453908
0.00453733
0.00453447
0.00453063
0.004526
0.00452078
0.00451523
0.00450961
0.00450423
0.00449944
0.00449542
0.00449231
1.8445e-05
1.50655e-05
1.13177e-05
7.12022e-06
2.48957e-06
-2.36903e-06
-7.26835e-06
-1.20389e-05
-1.652e-05
-2.05764e-05
-2.4096e-05
-2.69742e-05
-2.91148e-05
-3.04449e-05
-3.09162e-05
-3.04926e-05
-2.91414e-05
-2.68334e-05
-2.35466e-05
-1.92685e-05
-1.39962e-05
-7.73148e-06
-4.73597e-07
7.78075e-06
1.70324e-05
2.72765e-05
3.85048e-05
5.071e-05
6.3888e-05
7.80365e-05
9.31523e-05
0.000109229
0.00012626
0.000144238
0.000163159
0.000183022
0.000203822
0.000225554
0.000248212
0.00027179
0.000296283
0.00032169
0.000348004
0.000375219
0.00040333
0.000432329
0.000462211
0.000492971
0.000524602
0.000557096
0.000590445
0.00062464
0.000659674
0.000695538
0.000732223
0.000769719
0.000808015
0.0008471
0.000886962
0.00092759
0.000968972
0.00101109
0.00105394
0.0010975
0.00114176
0.0011867
0.00123231
0.00127857
0.00132545
0.00137295
0.00142105
0.00146972
0.00151895
0.00156871
0.00161898
0.00166975
0.00172098
0.00177266
0.00182476
0.00187725
0.00193011
0.00198331
0.00203683
0.00209064
0.00214471
0.002199
0.00225349
0.00230816
0.00236296
0.00241786
0.00247284
0.00252786
0.00258288
0.00263787
0.00269279
0.00274762
0.0028023
0.00285681
0.00291111
0.00296516
0.00301892
0.00307236
0.00312543
0.0031781
0.00323032
0.00328205
0.00333327
0.00338392
0.00343396
0.00348336
0.00353208
0.00358008
0.00362731
0.00367373
0.00371931
0.00376402
0.00380779
0.00385061
0.00389244
0.00393323
0.00397294
0.00401155
0.00404901
0.00408529
0.00412036
0.00415418
0.00418671
0.00421793
0.00424781
0.00427631
0.0043034
0.00432906
0.00435326
0.00437597
0.00439718
0.00441686
0.00443498
0.00445154
0.00446653
0.00447993
0.00449174
0.00450197
0.00451062
0.00451772
0.00452327
0.00452734
0.00452995
0.00453118
0.0045311
0.0045298
0.00452741
0.00452405
0.00451989
0.00451511
0.0045099
0.00450448
0.0044991
0.00449401
0.00448918
0.00448448
2.66344e-05
2.17747e-05
1.71608e-05
1.25199e-05
7.67282e-06
2.77386e-06
-2.02838e-06
-6.61076e-06
-1.08453e-05
-1.46132e-05
-1.78208e-05
-2.03907e-05
-2.22468e-05
-2.33188e-05
-2.35533e-05
-2.29138e-05
-2.13729e-05
-1.89073e-05
-1.54972e-05
-1.11257e-05
-5.78233e-06
5.36498e-07
7.83023e-06
1.60985e-05
2.53422e-05
3.55619e-05
4.67558e-05
5.8919e-05
7.20456e-05
8.61308e-05
0.000101172
0.000117166
0.000134109
0.000151997
0.000170824
0.000190584
0.000211275
0.000232893
0.000255435
0.000278894
0.000303266
0.000328546
0.000354728
0.000381808
0.000409781
0.000438641
0.000468381
0.000498995
0.000530476
0.000562818
0.000596012
0.00063005
0.000664924
0.000700626
0.000737145
0.000774473
0.000812599
0.000851511
0.000891198
0.000931649
0.000972851
0.00101479
0.00105746
0.00110084
0.00114491
0.00118966
0.00123508
0.00128114
0.00132784
0.00137514
0.00142304
0.00147152
0.00152055
0.00157011
0.00162019
0.00167075
0.00172178
0.00177326
0.00182516
0.00187745
0.00193011
0.00198311
0.00203643
0.00209004
0.0021439
0.00219799
0.00225229
0.00230675
0.00236135
0.00241605
0.00247083
0.00252565
0.00258047
0.00263526
0.00268999
0.00274462
0.00279911
0.00285343
0.00290753
0.00296139
0.00301496
0.0030682
0.00312108
0.00317356
0.00322559
0.00327715
0.00332818
0.00337864
0.00342851
0.00347773
0.00352627
0.00357409
0.00362115
0.00366741
0.00371283
0.00375736
0.00380098
0.00384365
0.00388532
0.00392595
0.00396553
0.00400399
0.00404132
0.00407747
0.00411241
0.00414611
0.00417853
0.00420965
0.00423942
0.00426783
0.00429484
0.00432043
0.00434457
0.00436723
0.0043884
0.00440806
0.00442618
0.00444276
0.00445778
0.00447124
0.00448314
0.00449348
0.00450228
0.00450954
0.00451531
0.00451961
0.00452249
0.00452402
0.00452427
0.00452332
0.00452127
0.00451826
0.0045144
0.00450986
0.00450478
0.00449935
0.00449375
0.00448818
0.00448238
0.00447597
3.51581e-05
2.88084e-05
2.32591e-05
1.80668e-05
1.28769e-05
7.80591e-06
2.97454e-06
-1.53512e-06
-5.63529e-06
-9.22859e-06
-1.22292e-05
-1.45722e-05
-1.62021e-05
-1.70644e-05
-1.71097e-05
-1.62987e-05
-1.46025e-05
-1.20004e-05
-8.477e-06
-4.01899e-06
1.38636e-06
7.74872e-06
1.50719e-05
2.33552e-05
3.2597e-05
4.27977e-05
5.39584e-05
6.60789e-05
7.91555e-05
9.3183e-05
0.000108157
0.000124074
0.000140934
0.000158734
0.000177468
0.000197132
0.000217721
0.000239231
0.00026166
0.000285005
0.000309259
0.000334418
0.000360475
0.000387427
0.000415268
0.000443993
0.000473598
0.000504073
0.000535413
0.000567609
0.000600656
0.000634546
0.000669269
0.000704817
0.000741181
0.000778351
0.000816317
0.000855067
0.000894592
0.000934878
0.000975914
0.00101769
0.00106019
0.00110339
0.00114729
0.00119187
0.00123712
0.00128301
0.00132953
0.00137666
0.00142439
0.00147269
0.00152154
0.00157093
0.00162083
0.00167121
0.00172207
0.00177337
0.00182509
0.00187721
0.0019297
0.00198253
0.00203567
0.0020891
0.0021428
0.00219672
0.00225084
0.00230514
0.00235957
0.00241411
0.00246872
0.00252337
0.00257803
0.00263266
0.00268723
0.0027417
0.00279603
0.00285019
0.00290413
0.00295784
0.00301125
0.00306434
0.00311707
0.0031694
0.00322129
0.00327269
0.00332357
0.0033739
0.00342362
0.0034727
0.00352111
0.00356879
0.00361572
0.00366184
0.00370713
0.00375155
0.00379504
0.00383759
0.00387914
0.00391967
0.00395913
0.00399749
0.00403471
0.00407077
0.00410562
0.00413923
0.00417157
0.00420261
0.00423232
0.00426067
0.00428763
0.00431317
0.00433727
0.00435991
0.00438106
0.00440072
0.00441885
0.00443546
0.00445053
0.00446406
0.00447604
0.00448649
0.00449541
0.00450283
0.00450877
0.00451327
0.00451637
0.00451813
0.00451862
0.00451791
0.0045161
0.0045133
0.0045096
0.00450515
0.00450005
0.00449444
0.00448847
0.0044823
0.00447545
0.00446736
4.35972e-05
3.5826e-05
2.93371e-05
2.35416e-05
1.79331e-05
1.25949e-05
7.63002e-06
3.09701e-06
-9.51249e-07
-4.44953e-06
-7.32644e-06
-9.52092e-06
-1.0987e-05
-1.16855e-05
-1.15781e-05
-1.06296e-05
-8.81096e-06
-6.10022e-06
-2.48252e-06
2.0528e-06
7.51558e-06
1.39156e-05
2.12602e-05
2.95522e-05
3.87915e-05
4.89773e-05
6.01098e-05
7.21896e-05
8.52161e-05
9.91865e-05
0.000114097
0.000129945
0.000146727
0.000164442
0.000183086
0.000202657
0.000223148
0.000244557
0.00026688
0.000290114
0.000314255
0.000339297
0.000365235
0.000392065
0.000419781
0.000448379
0.000477853
0.000508197
0.000539402
0.000571463
0.000604371
0.000638119
0.0006727
0.000708105
0.000744324
0.000781347
0.000819163
0.000857764
0.000897137
0.000937271
0.000978155
0.00101978
0.00106212
0.00110517
0.00114892
0.00119334
0.00123843
0.00128416
0.00133053
0.0013775
0.00142507
0.00147322
0.00152192
0.00157115
0.0016209
0.00167113
0.00172184
0.00177299
0.00182456
0.00187653
0.00192887
0.00198155
0.00203455
0.00208784
0.00214139
0.00219518
0.00224916
0.00230332
0.00235762
0.00241202
0.0024665
0.00252102
0.00257555
0.00263005
0.00268449
0.00273883
0.00279304
0.00284708
0.00290091
0.00295449
0.00300779
0.00306077
0.00311338
0.00316559
0.00321737
0.00326866
0.00331944
0.00336966
0.00341928
0.00346826
0.00351656
0.00356415
0.00361098
0.00365701
0.00370221
0.00374653
0.00378995
0.00383241
0.00387388
0.00391433
0.00395372
0.00399201
0.00402917
0.00406516
0.00409995
0.00413351
0.0041658
0.0041968
0.00422647
0.00425478
0.00428171
0.00430723
0.00433132
0.00435396
0.00437512
0.00439479
0.00441295
0.0044296
0.00444472
0.00445831
0.00447038
0.00448092
0.00448996
0.0044975
0.00450359
0.00450824
0.00451151
0.00451345
0.00451411
0.00451356
0.0045119
0.0045092
0.00450555
0.00450106
0.00449582
0.00448993
0.0044835
0.00447665
0.00446876
0.00445909
5.16393e-05
4.25463e-05
3.5147e-05
2.87319e-05
2.26704e-05
1.7014e-05
1.18442e-05
7.20652e-06
3.13705e-06
-3.26709e-07
-3.13737e-06
-5.24435e-06
-6.60573e-06
-7.18881e-06
-6.96479e-06
-5.90677e-06
-3.99065e-06
-1.19588e-06
2.49393e-06
7.09069e-06
1.26026e-05
1.90363e-05
2.63981e-05
3.46933e-05
4.39252e-05
5.40947e-05
6.52013e-05
7.72442e-05
9.0223e-05
0.000104137
0.000118986
0.000134766
0.000151476
0.000169111
0.00018767
0.00020715
0.000227548
0.00024886
0.000271083
0.000294212
0.000318244
0.000343174
0.000368999
0.000395713
0.000423311
0.000451788
0.000481139
0.000511357
0.000542436
0.000574368
0.000607146
0.000640763
0.000675211
0.000710481
0.000746565
0.000783451
0.00082113
0.000859592
0.000898827
0.000938822
0.000979566
0.00102105
0.00106325
0.00110616
0.00114977
0.00119405
0.001239
0.0012846
0.00133083
0.00137767
0.0014251
0.00147311
0.00152168
0.00157078
0.00162039
0.0016705
0.00172108
0.0017721
0.00182355
0.0018754
0.00192762
0.00198018
0.00203307
0.00208624
0.00213968
0.00219336
0.00224723
0.00230128
0.00235548
0.00240978
0.00246416
0.00251858
0.00257302
0.00262743
0.00268177
0.00273603
0.00279015
0.0028441
0.00289784
0.00295134
0.00300456
0.00305745
0.00310999
0.00316213
0.00321383
0.00326505
0.00331576
0.00336591
0.00341546
0.00346437
0.00351261
0.00356014
0.00360691
0.00365289
0.00369803
0.0037423
0.00378566
0.00382808
0.00386951
0.00390992
0.00394926
0.00398752
0.00402465
0.00406061
0.00409537
0.00412891
0.00416118
0.00419216
0.00422182
0.00425012
0.00427705
0.00430258
0.00432668
0.00434933
0.00437051
0.00439021
0.00440841
0.00442511
0.00444029
0.00445395
0.00446609
0.00447672
0.00448585
0.00449351
0.00449971
0.00450448
0.00450788
0.00450993
0.0045107
0.00451026
0.00450865
0.00450597
0.00450229
0.00449768
0.00449222
0.00448597
0.00447903
0.0044715
0.00446261
0.00445148
5.90512e-05
4.87507e-05
4.04921e-05
3.34592e-05
2.69266e-05
2.09284e-05
1.55178e-05
1.07209e-05
6.5675e-06
3.08284e-06
2.92585e-07
-1.77072e-06
-3.07281e-06
-3.58425e-06
-3.28108e-06
-2.14298e-06
-1.52066e-07
2.70793e-06
6.45208e-06
1.10934e-05
1.66409e-05
2.31002e-05
3.04755e-05
3.87714e-05
4.79926e-05
5.81423e-05
6.92211e-05
8.12282e-05
9.41624e-05
0.000108024
0.000122812
0.000138527
0.000155166
0.000172726
0.000191204
0.000210598
0.000230906
0.000252125
0.000274252
0.000297282
0.000321211
0.000346036
0.000371753
0.000398357
0.000425843
0.000454207
0.000483442
0.000513542
0.000544501
0.000576313
0.00060897
0.000642464
0.000676789
0.000711934
0.000747893
0.000784653
0.000822207
0.000860543
0.000899651
0.000939521
0.000980139
0.00102149
0.00106357
0.00110636
0.00114984
0.00119401
0.00123883
0.00128431
0.00133042
0.00137714
0.00142446
0.00147236
0.00152081
0.0015698
0.00161931
0.00166931
0.00171979
0.00177071
0.00182206
0.00187381
0.00192594
0.00197841
0.00203121
0.0020843
0.00213766
0.00219125
0.00224505
0.00229903
0.00235315
0.00240738
0.00246169
0.00251605
0.00257042
0.00262477
0.00267906
0.00273326
0.00278732
0.00284122
0.00289492
0.00294837
0.00300154
0.00305439
0.00310689
0.00315899
0.00321065
0.00326184
0.00331251
0.00336262
0.00341215
0.00346103
0.00350925
0.00355675
0.0036035
0.00364945
0.00369458
0.00373883
0.00378218
0.00382458
0.003866
0.0039064
0.00394575
0.003984
0.00402112
0.00405709
0.00409186
0.0041254
0.00415768
0.00418867
0.00421835
0.00424667
0.00427362
0.00429917
0.0043233
0.00434599
0.00436721
0.00438695
0.0044052
0.00442195
0.00443719
0.00445091
0.00446313
0.00447384
0.00448306
0.0044908
0.00449709
0.00450195
0.00450543
0.00450756
0.0045084
0.00450798
0.00450638
0.00450366
0.00449987
0.00449509
0.00448935
0.0044827
0.00447523
0.00446703
0.0044572
0.00444477
6.56416e-05
5.42565e-05
4.52092e-05
3.75824e-05
3.05718e-05
2.42145e-05
1.85449e-05
1.35619e-05
9.28332e-06
5.73012e-06
2.91729e-06
8.61671e-07
-4.14393e-07
-8.87674e-07
-5.38318e-07
6.50026e-07
2.69149e-06
5.59875e-06
9.38335e-06
1.4056e-05
1.96259e-05
2.60995e-05
3.34813e-05
4.17749e-05
5.09839e-05
6.11116e-05
7.21601e-05
8.41299e-05
9.70205e-05
0.000110832
0.000125563
0.000141215
0.000157786
0.000175273
0.000193674
0.000212987
0.00023321
0.00025434
0.000276375
0.00029931
0.000323143
0.000347868
0.000373483
0.000399983
0.000427365
0.000455621
0.000484748
0.000514739
0.000545587
0.000577286
0.00060983
0.000643211
0.000677422
0.000712454
0.000748297
0.000784944
0.000822383
0.000860605
0.000899601
0.000939357
0.000979864
0.00102111
0.00106308
0.00110576
0.00114913
0.00119319
0.00123791
0.00128329
0.0013293
0.00137592
0.00142315
0.00147095
0.00151931
0.00156822
0.00161764
0.00166756
0.00171796
0.00176881
0.00182009
0.00187177
0.00192383
0.00197624
0.00202898
0.00208201
0.00213532
0.00218886
0.00224261
0.00229655
0.00235063
0.00240482
0.0024591
0.00251342
0.00256777
0.00262209
0.00267635
0.00273053
0.00278457
0.00283845
0.00289213
0.00294557
0.00299873
0.00305158
0.00310407
0.00315616
0.00320782
0.00325901
0.00330968
0.0033598
0.00340933
0.00345822
0.00350645
0.00355396
0.00360072
0.00364669
0.00369183
0.00373611
0.00377948
0.0038219
0.00386334
0.00390377
0.00394314
0.00398142
0.00401858
0.00405458
0.00408938
0.00412296
0.00415528
0.00418631
0.00421603
0.00424439
0.00427139
0.00429699
0.00432116
0.0043439
0.00436517
0.00438497
0.00440328
0.00442009
0.00443539
0.00444918
0.00446146
0.00447224
0.00448153
0.00448934
0.0044957
0.00450062
0.00450415
0.00450632
0.00450717
0.00450675
0.00450511
0.00450229
0.00449836
0.00449335
0.0044873
0.00448024
0.00447225
0.0044634
0.00445273
0.00443913
7.12617e-05
5.89095e-05
4.91499e-05
4.09753e-05
3.3501e-05
2.67743e-05
2.08308e-05
1.56478e-05
1.12226e-05
7.56847e-06
4.69668e-06
2.61604e-06
1.33786e-06
8.76562e-07
1.24643e-06
2.46005e-06
4.52911e-06
7.4644e-06
1.12748e-05
1.59676e-05
2.15497e-05
2.80278e-05
3.54077e-05
4.36933e-05
5.28873e-05
6.29919e-05
7.4009e-05
8.59402e-05
9.87867e-05
0.000112549
0.000127226
0.000142818
0.000159322
0.000176739
0.000195066
0.000214302
0.000234445
0.000255491
0.000277439
0.000300285
0.000324026
0.000348658
0.000374178
0.000400581
0.000427864
0.000456021
0.000485046
0.000514935
0.00054568
0.000577276
0.000609717
0.000642994
0.000677101
0.000712029
0.000747769
0.000784313
0.00082165
0.000859771
0.000898666
0.000938324
0.000978734
0.00101988
0.00106176
0.00110434
0.00114763
0.0011916
0.00123624
0.00128153
0.00132746
0.001374
0.00142115
0.00146889
0.00151718
0.00156602
0.00161539
0.00166525
0.00171559
0.00176639
0.00181762
0.00186926
0.00192129
0.00197366
0.00202637
0.00207938
0.00213265
0.00218618
0.00223991
0.00229383
0.0023479
0.00240209
0.00245636
0.00251069
0.00256503
0.00261936
0.00267364
0.00272782
0.00278188
0.00283578
0.00288948
0.00294294
0.00299612
0.00304899
0.00310151
0.00315364
0.00320533
0.00325655
0.00330726
0.00335742
0.00340699
0.00345593
0.0035042
0.00355175
0.00359856
0.00364459
0.00368978
0.00373411
0.00377753
0.00382002
0.00386152
0.00390201
0.00394144
0.00397978
0.004017
0.00405306
0.00408793
0.00412157
0.00415396
0.00418505
0.00421483
0.00424326
0.00427032
0.00429599
0.00432023
0.00434303
0.00436437
0.00438423
0.0044026
0.00441948
0.00443484
0.0044487
0.00446105
0.00447189
0.00448124
0.0044891
0.00449551
0.00450047
0.00450402
0.0045062
0.00450704
0.00450657
0.00450484
0.0045019
0.00449778
0.00449253
0.00448616
0.00447869
0.0044702
0.00446075
0.00444931
0.00443471
7.58129e-05
6.25965e-05
5.21908e-05
4.35188e-05
3.56155e-05
2.85273e-05
2.23002e-05
1.69047e-05
1.23206e-05
8.54749e-06
5.59206e-06
3.45938e-06
2.15356e-06
1.68098e-06
2.05018e-06
3.26983e-06
5.34834e-06
8.29411e-06
1.21145e-05
1.6815e-05
2.24003e-05
2.88758e-05
3.62469e-05
4.45183e-05
5.36925e-05
6.37713e-05
7.47563e-05
8.66491e-05
9.94516e-05
0.000113165
0.000127789
0.000143322
0.000159764
0.000177114
0.000195371
0.000214533
0.000234599
0.000255567
0.000277433
0.000300195
0.000323849
0.000348394
0.000373825
0.000400138
0.00042733
0.000455394
0.000484326
0.000514121
0.000544772
0.000576274
0.00060862
0.000641804
0.000675817
0.000710652
0.0007463
0.000782752
0.00082
0.000858033
0.000896841
0.000936415
0.000976741
0.00101781
0.0010596
0.00110211
0.00114533
0.00118923
0.0012338
0.00127903
0.00132489
0.00137139
0.00141848
0.00146617
0.00151442
0.00156322
0.00161254
0.00166237
0.00171269
0.00176346
0.00181467
0.0018663
0.0019183
0.00197067
0.00202338
0.00207638
0.00212967
0.0021832
0.00223695
0.00229088
0.00234498
0.00239919
0.00245349
0.00250785
0.00256223
0.00261659
0.00267091
0.00272514
0.00277924
0.00283319
0.00288694
0.00294046
0.0029937
0.00304663
0.00309922
0.00315141
0.00320317
0.00325446
0.00330524
0.00335548
0.00340512
0.00345414
0.00350249
0.00355013
0.00359702
0.00364313
0.00368841
0.00373283
0.00377634
0.00381892
0.00386051
0.00390109
0.00394062
0.00397905
0.00401637
0.00405252
0.00408748
0.00412121
0.00415369
0.00418487
0.00421474
0.00424326
0.0042704
0.00429615
0.00432047
0.00434335
0.00436477
0.00438471
0.00440316
0.0044201
0.00443553
0.00444946
0.00446186
0.00447276
0.00448216
0.00449006
0.0044965
0.00450148
0.00450504
0.00450719
0.00450799
0.00450745
0.00450562
0.00450253
0.00449821
0.0044927
0.004486
0.00447814
0.00446917
0.00445918
0.00444706
0.00443157
7.92233e-05
6.52403e-05
5.42461e-05
4.51165e-05
3.68224e-05
2.93971e-05
2.2889e-05
1.72719e-05
1.25186e-05
8.61624e-06
5.56254e-06
3.3585e-06
2.00403e-06
1.49985e-06
1.84972e-06
3.05893e-06
5.13231e-06
8.07463e-06
1.18912e-05
1.65868e-05
2.21657e-05
2.86317e-05
3.59888e-05
4.42409e-05
5.33906e-05
6.34401e-05
7.43912e-05
8.62456e-05
9.90048e-05
0.00011267
0.000127241
0.000142718
0.000159099
0.000176386
0.000194576
0.000213668
0.000233662
0.000254555
0.000276345
0.000299028
0.000322602
0.000347065
0.000372414
0.000398644
0.000425751
0.000453731
0.000482577
0.000512286
0.000542852
0.000574269
0.000606531
0.000639631
0.000673561
0.000708314
0.000743881
0.000780255
0.000817425
0.000855383
0.000894119
0.000933622
0.00097388
0.00101488
0.00105662
0.00109907
0.00114222
0.00118607
0.00123059
0.00127578
0.00132161
0.00136806
0.00141513
0.00146278
0.00151101
0.00155979
0.0016091
0.00165893
0.00170924
0.00176001
0.00181123
0.00186286
0.00191489
0.00196727
0.00202
0.00207304
0.00212636
0.00217993
0.00223372
0.0022877
0.00234184
0.00239611
0.00245047
0.00250489
0.00255933
0.00261377
0.00266816
0.00272247
0.00277665
0.00283068
0.00288452
0.00293813
0.00299146
0.00304449
0.00309717
0.00314946
0.00320132
0.00325272
0.00330361
0.00335396
0.00340371
0.00345284
0.00350131
0.00354907
0.00359608
0.00364231
0.00368772
0.00373226
0.0037759
0.00381859
0.00386031
0.00390102
0.00394067
0.00397923
0.00401667
0.00405294
0.00408802
0.00412187
0.00415446
0.00418576
0.00421574
0.00424436
0.00427161
0.00429746
0.00432188
0.00434485
0.00436636
0.00438638
0.00440491
0.00442193
0.00443743
0.00445142
0.00446388
0.00447483
0.00448427
0.0044922
0.00449866
0.00450364
0.00450719
0.00450931
0.00451004
0.00450942
0.00450746
0.00450421
0.00449968
0.0044939
0.00448689
0.00447865
0.00446925
0.00445876
0.00444604
0.0044298
8.14238e-05
6.67768e-05
5.52561e-05
4.57024e-05
3.70463e-05
2.9311e-05
2.25365e-05
1.66975e-05
1.1768e-05
7.72851e-06
4.56704e-06
2.27856e-06
8.60006e-07
3.08655e-07
6.23955e-07
1.80781e-06
3.86239e-06
6.7894e-06
1.05914e-05
1.52721e-05
2.08353e-05
2.72844e-05
3.46219e-05
4.28503e-05
5.1972e-05
6.19894e-05
7.29047e-05
8.47198e-05
9.74359e-05
0.000111054
0.000125573
0.000140995
0.000157319
0.000174544
0.000192671
0.000211698
0.000231624
0.000252447
0.000274164
0.000296775
0.000320275
0.000344663
0.000369936
0.000396089
0.000423119
0.000451021
0.000479791
0.000509423
0.000539912
0.000571254
0.000603441
0.000636467
0.000670325
0.000705007
0.000740506
0.000776813
0.000813919
0.000851816
0.000890493
0.00092994
0.000970146
0.0010111
0.00105279
0.0010952
0.00113831
0.00118213
0.00122662
0.00127178
0.00131759
0.00136403
0.00141108
0.00145873
0.00150696
0.00155575
0.00160507
0.00165491
0.00170524
0.00175604
0.00180729
0.00185896
0.00191102
0.00196346
0.00201624
0.00206933
0.00212271
0.00217635
0.00223021
0.00228427
0.00233849
0.00239285
0.0024473
0.00250181
0.00255635
0.00261089
0.00266539
0.0027198
0.0027741
0.00282825
0.00288221
0.00293594
0.0029894
0.00304255
0.00309536
0.00314779
0.00319979
0.00325133
0.00330236
0.00335285
0.00340276
0.00345204
0.00350066
0.00354857
0.00359574
0.00364212
0.00368769
0.00373239
0.00377618
0.00381904
0.00386092
0.00390178
0.00394159
0.0039803
0.00401789
0.00405431
0.00408954
0.00412353
0.00415626
0.0041877
0.00421781
0.00424656
0.00427393
0.0042999
0.00432443
0.00434751
0.00436911
0.00438923
0.00440785
0.00442495
0.00444052
0.00445457
0.00446709
0.00447809
0.00448756
0.00449552
0.00450198
0.00450696
0.00451048
0.00451256
0.00451322
0.00451249
0.0045104
0.00450697
0.00450224
0.00449621
0.00448889
0.00448029
0.00447049
0.00445956
0.00444631
0.00442943
8.2354e-05
6.71442e-05
5.51672e-05
4.52275e-05
3.62322e-05
2.82082e-05
2.11859e-05
1.51336e-05
1.00265e-05
5.844e-06
2.56768e-06
1.85795e-07
-1.30773e-06
-1.91771e-06
-1.64848e-06
-5.02144e-07
1.52119e-06
4.42177e-06
8.20019e-06
1.28582e-05
1.83986e-05
2.48238e-05
3.21356e-05
4.03358e-05
4.94265e-05
5.94098e-05
7.0288e-05
8.20628e-05
9.47354e-05
0.000108306
0.000122776
0.000138145
0.000154413
0.00017158
0.000189647
0.000208613
0.000228475
0.000249232
0.000270883
0.000293426
0.000316858
0.000341178
0.000366381
0.000392465
0.000419425
0.000447258
0.000475958
0.000505522
0.000535945
0.00056722
0.000599343
0.000632306
0.000666103
0.000700726
0.000736168
0.000772421
0.000809476
0.000847325
0.000885958
0.000925365
0.000965533
0.00100645
0.00104811
0.0010905
0.00113359
0.00117739
0.00122188
0.00126703
0.00131284
0.00135929
0.00140635
0.00145402
0.00150227
0.00155108
0.00160044
0.00165032
0.00170069
0.00175155
0.00180285
0.00185458
0.00190672
0.00195923
0.00201209
0.00206527
0.00211874
0.00217247
0.00222643
0.0022806
0.00233493
0.0023894
0.00244397
0.00249861
0.00255328
0.00260795
0.00266258
0.00271714
0.00277159
0.00282588
0.00287999
0.00293388
0.0029875
0.00304082
0.0030938
0.00314639
0.00319857
0.00325028
0.00330149
0.00335217
0.00340225
0.00345172
0.00350053
0.00354863
0.00359599
0.00364257
0.00368832
0.00373321
0.0037772
0.00382025
0.00386232
0.00390337
0.00394336
0.00398226
0.00402003
0.00405663
0.00409203
0.00412619
0.00415909
0.00419068
0.00422094
0.00424984
0.00427735
0.00430345
0.00432811
0.00435131
0.00437303
0.00439325
0.00441196
0.00442914
0.0044448
0.00445891
0.00447149
0.00448253
0.00449203
0.00450001
0.00450648
0.00451145
0.00451493
0.00451695
0.00451753
0.0045167
0.00451447
0.00451087
0.00450593
0.00449965
0.00449205
0.00448312
0.00447295
0.00446163
0.00444792
0.00443048
8.19812e-05
6.62933e-05
5.39262e-05
4.36459e-05
3.43376e-05
2.60421e-05
1.87887e-05
1.25359e-05
7.25504e-06
2.9267e-06
-4.69455e-07
-2.95029e-06
-4.52609e-06
-5.20375e-06
-4.99002e-06
-3.89048e-06
-1.90792e-06
9.5679e-07
4.70336e-06
9.33192e-06