/*--------------------------------*- C++ -*----------------------------------*\
  =========                 |
  \\      /  F ield         | OpenFOAM: The Open Source CFD Toolbox
   \\    /   O peration     | Website:  https://openfoam.org
    \\  /    A nd           | Version:  7
     \\/     M anipulation  |
\*---------------------------------------------------------------------------*/
FoamFile
{
    version     2.0;
    format      ascii;
    class       volScalarField;
    location    "0.25";
    object      p;
}
// * * * * * * * * * * * * * * * * * * * * * * * * * * * * * * * * * * * * * //

dimensions      [0 2 -2 0 0 0 0];

internalField   nonuniform List<scalar> 
6400
(
7.07124e-06
2.48866e-05
-0.00047992
-0.00151177
-0.00295348
-0.00469457
-0.00663442
-0.00868339
-0.0107644
-0.0128122
-0.0147719
-0.0165972
-0.0182497
-0.0196978
-0.0209155
-0.0218821
-0.0225816
-0.0230016
-0.0231338
-0.0229727
-0.0225158
-0.0217631
-0.0207172
-0.0193824
-0.0177654
-0.0158743
-0.0137191
-0.011311
-0.0086626
-0.00578788
-0.00270179
0.000579596
0.0040393
0.00765945
0.0114214
0.0153058
0.0192927
0.0233615
0.027491
0.0316598
0.035846
0.0400276
0.0441824
0.048288
0.0523222
0.056263
0.0600885
0.0637773
0.0673086
0.0706621
0.0738183
0.0767589
0.0794664
0.0819247
0.0841192
0.0860369
0.0876666
0.0889991
0.0900275
0.090747
0.0911559
0.0912551
0.0910484
0.0905434
0.0897511
0.0886864
0.0873688
0.0858223
0.0840763
0.0821661
0.0801333
0.0780271
0.0759051
0.0738341
0.0718917
0.0701664
0.0687552
0.0677623
0.0672943
0.0673318
1.12993e-06
1.57897e-05
-0.000436915
-0.00131976
-0.00253328
-0.0039979
-0.00563759
-0.00738003
-0.0091602
-0.010921
-0.0126129
-0.0141932
-0.0156259
-0.0168807
-0.0179325
-0.018761
-0.0193497
-0.0196864
-0.019762
-0.0195703
-0.019108
-0.0183744
-0.0173707
-0.0161007
-0.0145697
-0.0127848
-0.0107548
-0.00848982
-0.00600137
-0.00330213
-0.000405894
0.0026725
0.00591728
0.00931185
0.0128388
0.0164801
0.020217
0.0240302
0.0279001
0.0318064
0.0357287
0.0396463
0.0435385
0.0473843
0.0511631
0.0548541
0.0584373
0.0618925
0.0652005
0.0683426
0.0713007
0.074058
0.0765985
0.0789076
0.0809721
0.0827803
0.0843224
0.0855903
0.0865782
0.0872828
0.0877028
0.0878401
0.0876993
0.0872882
0.0866181
0.0857039
0.0845647
0.0832239
0.0817095
0.0800547
0.0782984
0.0764855
0.0746676
0.072903
0.0712572
0.0698013
0.0686085
0.0677537
0.0673304
0.067369
0.000509509
0.000471968
1.85046e-05
-0.000797215
-0.00188759
-0.00318916
-0.00464068
-0.00618217
-0.00775821
-0.00931893
-0.0108201
-0.0122229
-0.0134941
-0.0146053
-0.0155325
-0.0162563
-0.0167609
-0.0170338
-0.0170659
-0.0168507
-0.0163847
-0.0156663
-0.0146965
-0.0134779
-0.0120153
-0.0103151
-0.008385
-0.0062344
-0.00387381
-0.00131499
0.00142921
0.00434493
0.00741742
0.0106311
0.0139696
0.0174159
0.0209523
0.0245607
0.0282224
0.0319185
0.0356294
0.0393358
0.043018
0.0466563
0.0502311
0.0537231
0.0571131
0.0603825
0.063513
0.0664872
0.0692883
0.0719004
0.0743089
0.0765001
0.078462
0.0801839
0.0816569
0.0828739
0.0838299
0.0845222
0.0849502
0.0851161
0.085025
0.0846848
0.0841067
0.0833052
0.0822987
0.0811094
0.0797638
0.078293
0.0767326
0.0751236
0.0735117
0.0719481
0.0704886
0.0691925
0.0681189
0.0673281
0.0669056
0.0669028
0.00154332
0.00135827
0.000834638
1.56209e-05
-0.001032
-0.00225458
-0.00360044
-0.00501898
-0.0064627
-0.00788812
-0.00925609
-0.0105319
-0.0116851
-0.0126896
-0.0135233
-0.0141677
-0.0146078
-0.0148318
-0.0148307
-0.0145981
-0.0141301
-0.013425
-0.0124835
-0.0113077
-0.00990185
-0.00827168
-0.00642439
-0.00436854
-0.00211396
0.000328356
0.00294635
0.00572699
0.00865635
0.0117197
0.0149016
0.0181859
0.0215558
0.0249941
0.0284831
0.0320047
0.0355404
0.0390719
0.0425803
0.046047
0.0494534
0.0527812
0.0560121
0.0591286
0.0621133
0.0649497
0.067622
0.0701154
0.0724159
0.0745109
0.0763891
0.0780405
0.0794571
0.0806324
0.0815618
0.0822431
0.0826761
0.0828633
0.0828097
0.082523
0.0820141
0.0812969
0.0803888
0.0793106
0.0780872
0.0767469
0.0753225
0.0738506
0.0723721
0.0709315
0.069577
0.0683589
0.0673278
0.0665351
0.0660489
0.0659131
0.00299235
0.00258055
0.00192905
0.00105723
2.35607e-06
-0.00119078
-0.00247843
-0.00381842
-0.00517054
-0.00649734
-0.00776462
-0.00894169
-0.0100014
-0.0109201
-0.0116775
-0.0122567
-0.0126437
-0.0128273
-0.012799
-0.0125527
-0.0120845
-0.0113927
-0.0104776
-0.00934115
-0.00798717
-0.00642086
-0.0046489
-0.00267926
-0.000521117
0.00181522
0.00431839
0.00697612
0.00977526
0.0127019
0.0157413
0.0188782
0.0220967
0.0253804
0.0287124
0.0320756
0.0354524
0.0388252
0.0421761
0.0454875
0.0487416
0.051921
0.0550083
0.0579869
0.0608402
0.0635527
0.0661093
0.068496
0.0706997
0.0727084
0.0745115
0.0760997
0.0774655
0.0786029
0.0795077
0.080178
0.0806139
0.0808177
0.0807944
0.0805513
0.0800989
0.0794501
0.0786212
0.0776316
0.076504
0.0752642
0.0739418
0.0725693
0.0711827
0.0698207
0.0685242
0.0673357
0.0662985
0.0654562
0.0648499
0.064502
0.00475467
0.00406614
0.0032438
0.00227897
0.00117538
-2.9945e-05
-0.00129988
-0.0025998
-0.00389621
-0.00515727
-0.0063535
-0.00745815
-0.00844729
-0.00929988
-0.00999776
-0.0105255
-0.0108704
-0.0110221
-0.0109728
-0.0107167
-0.0102502
-0.0095717
-0.00868136
-0.00758104
-0.00627417
-0.00476563
-0.00306164
-0.00116967
0.000901629
0.00314254
0.00554236
0.00808948
0.0107714
0.013575
0.0164863
0.0194907
0.0225731
0.0257178
0.0289089
0.0321299
0.0353641
0.0385947
0.0418048
0.0449772
0.0480953
0.0511422
0.0541015
0.0569573
0.0596938
0.0622961
0.0647501
0.0670422
0.06916
0.0710923
0.0728288
0.074361
0.0756814
0.0767847
0.0776669
0.0783262
0.0787626
0.0789785
0.0789785
0.0787696
0.0783612
0.0777657
0.0769979
0.0760755
0.0750191
0.0738522
0.0726008
0.0712938
0.0699625
0.0686401
0.0673613
0.0661614
0.0650774
0.0641459
0.0633767
0.0627658
0.00673994
0.00574661
0.00472368
0.00363418
0.00244791
0.00119534
-9.17878e-05
-0.00138549
-0.00265825
-0.00388338
-0.00503583
-0.00609257
-0.00703282
-0.00783815
-0.00849252
-0.00898221
-0.00929578
-0.00942401
-0.00935974
-0.00909783
-0.00863503
-0.0079699
-0.00710266
-0.00603513
-0.00477055
-0.00331355
-0.00167
0.000153024
0.00214732
0.00430369
0.00661198
0.00906115
0.0116394
0.0143341
0.017132
0.0200192
0.0229813
0.0260034
0.0290701
0.0321658
0.0352744
0.0383799
0.0414659
0.0445164
0.0475151
0.050446
0.0532934
0.0560418
0.0586764
0.0611829
0.0635474
0.0657573
0.0678006
0.0696665
0.0713452
0.0728284
0.0741093
0.0751823
0.0760439
0.0766922
0.0771271
0.0773508
0.0773673
0.0771832
0.0768072
0.0762503
0.0755262
0.0746508
0.0736427
0.0725227
0.0713139
0.0700415
0.0687326
0.0674156
0.0661194
0.0648731
0.0637086
0.0626565
0.0616944
0.0607912
0.00886905
0.00755745
0.00631476
0.00507738
0.00378232
0.00245479
0.0011222
-0.000193232
-0.0014693
-0.00268392
-0.0038161
-0.00484632
-0.0057568
-0.00653165
-0.00715692
-0.00762063
-0.00791275
-0.00802515
-0.00795156
-0.00768748
-0.00723017
-0.00657847
-0.00573279
-0.00469494
-0.00346813
-0.0020568
-0.000466585
0.00129574
0.00322236
0.00530449
0.00753246
0.00989574
0.012383
0.0149824
0.017681
0.0204657
0.0233226
0.0262375
0.0291956
0.0321818
0.035181
0.0381776
0.0411559
0.0441005
0.0469958
0.0498263
0.0525769
0.0552329
0.0577797
0.0602037
0.0624915
0.064631
0.0666104
0.0684194
0.0700486
0.0714899
0.0727365
0.0737832
0.0746263
0.0752637
0.0756954
0.0759229
0.0759501
0.0757825
0.0754282
0.0748969
0.0742011
0.0733548
0.0723747
0.0712791
0.0700883
0.0688242
0.0675099
0.0661696
0.0648272
0.0635064
0.0622351
0.0610391
0.0598644
0.0586544
0.0110749
0.00944103
0.00796746
0.00656592
0.00514262
0.00371869
0.00231815
0.000958223
-0.000343476
-0.00156896
-0.0027009
-0.00372302
-0.00462035
-0.00537942
-0.00598831
-0.00643677
-0.0067162
-0.00681963
-0.00674173
-0.00647874
-0.00602847
-0.00539017
-0.00456448
-0.00355335
-0.00235997
-0.00098872
0.000554908
0.00226438
0.00413219
0.0061499
0.00830823
0.0105971
0.0130057
0.0155225
0.0181353
0.0208314
0.0235975
0.0264199
0.0292844
0.0321766
0.0350817
0.0379848
0.0408709
0.043725
0.046532
0.049277
0.0519455
0.054523
0.0569956
0.0593499
0.0615732
0.0636534
0.0655793
0.0673407
0.0689284
0.0703344
0.0715521
0.0725762
0.0734029
0.07403
0.0744571
0.0746853
0.0747179
0.0745597
0.0742177
0.0737007
0.0730196
0.0721869
0.0712172
0.0701266
0.0689328
0.0676545
0.0663117
0.0649245
0.0635127
0.0620954
0.0606972
0.0593404
0.0579415
0.0564196
0.0133013
0.0113471
0.0096372
0.00806068
0.00649498
0.00495826
0.003472
0.00204921
0.000703509
-0.000550707
-0.00169936
-0.00272912
-0.00362763
-0.00438366
-0.00498729
-0.00542991
-0.00570434
-0.00580481
-0.00572696
-0.00546784
-0.00502585
-0.00440071
-0.00359336
-0.00260595
-0.00144176
-0.000105173
0.00139842
0.00306263
0.00488019
0.00684294
0.00894193
0.0111674
0.0135091
0.0159557
0.0184956
0.0211165
0.0238057
0.0265498
0.0293353
0.0321481
0.034974
0.0377986
0.0406074
0.0433857
0.0461191
0.048793
0.0513933
0.0539059
0.0563174
0.0586146
0.060785
0.0628168
0.0646992
0.0664219
0.0679759
0.0693533
0.0705475
0.0715529
0.0723657
0.0729834
0.0734051
0.0736315
0.0736651
0.0735101
0.0731724
0.0726598
0.0719817
0.0711491
0.0701747
0.0690725
0.0678577
0.0665466
0.0651559
0.0637026
0.0622027
0.0606716
0.0591317
0.0576026
0.055973
0.0541404
0.0155015
0.0132321
0.0112843
0.00952607
0.00780797
0.00614615
0.00456034
0.00306002
0.00165536
0.000357657
-0.000821889
-0.00187259
-0.00278446
-0.00354838
-0.00415627
-0.00460114
-0.0048772
-0.00497985
-0.00490574
-0.00465272
-0.00421985
-0.00360734
-0.00281651
-0.00184977
-0.000710532
0.000596756
0.00206671
0.00369307
0.00546869
0.00738566
0.0094353
0.0116082
0.0138942
0.0162827
0.0187622
0.021321
0.0239466
0.0266262
0.0293466
0.0320942
0.0348553
0.0376159
0.0403617
0.0430787
0.0457526
0.0483693
0.050915
0.053376
0.055739
0.0579911
0.0601201
0.0621143
0.0639628
0.0656557
0.0671839
0.0685394
0.0697154
0.0707064
0.071508
0.0721176
0.0725336
0.0727564
0.0727877
0.0726308
0.0722908
0.0717742
0.0710891
0.070245
0.069253
0.0681251
0.0668744
0.0655147
0.0640602
0.0625251
0.0609224
0.0592642
0.0575717
0.0558625
0.0539998
0.0518607
0.0176361
0.0150585
0.0128736
0.0109298
0.0090525
0.00725655
0.00556058
0.00397115
0.00249553
0.00114231
-7.98275e-05
-0.00116254
-0.00209798
-0.00287898
-0.00349917
-0.00395311
-0.00423633
-0.00434541
-0.00427799
-0.00403273
-0.00360937
-0.00300865
-0.00223229
-0.001283
-0.000164421
0.0011189
0.00256156
0.00415732
0.00589916
0.00777933
0.00978932
0.01192
0.0141615
0.0165034
0.0189348
0.021444
0.024019
0.0266475
0.0293164
0.0320127
0.0347229
0.0374334
0.0401303
0.0427999
0.0454281
0.0480012
0.0505056
0.0529278
0.0552547
0.0574736
0.0595723
0.0615393
0.0633638
0.0650357
0.0665459
0.0678863
0.0690498
0.0700308
0.0708245
0.0714277
0.0718386
0.0720567
0.0720832
0.0719204
0.0715726
0.071045
0.0703446
0.0694795
0.0684591
0.0672937
0.0659946
0.0645733
0.063042
0.0614126
0.0596954
0.0579
0.0560469
0.0541528
0.0520568
0.049617
0.0196718
0.0167936
0.014374
0.0122427
0.0102017
0.00826518
0.00645106
0.00476353
0.0032074
0.00178899
0.000514756
-0.000609028
-0.00157645
-0.0023821
-0.00302122
-0.00348982
-0.00378471
-0.0039036
-0.00384507
-0.00360863
-0.00319468
-0.00260451
-0.00184029
-0.000905069
0.000197264
0.00146201
0.00288368
0.00445605
0.00617215
0.00802431
0.0100042
0.0121028
0.0143106
0.0166174
0.0190124
0.0214844
0.0240215
0.0266118
0.0292425
0.031901
0.0345739
0.0372479
0.0399096
0.0425453
0.0451414
0.0476841
0.0501602
0.0525562
0.0548592
0.0570565
0.0591362
0.0610864
0.0628965
0.0645563
0.0660564
0.0673887
0.0685457
0.0695214
0.0703108
0.0709101
0.0713169
0.0715302
0.0715503
0.0713788
0.0710188
0.0704747
0.0697523
0.0688582
0.0678006
0.066588
0.0652301
0.0637368
0.0621182
0.0603842
0.0585434
0.0566033
0.054584
0.052502
0.0501738
0.04744
0.02158
0.0184088
0.0157574
0.0134382
0.0112309
0.00914921
0.00721102
0.00541852
0.00377445
0.00228317
0.000949254
-0.000222881
-0.00122905
-0.00206546
-0.00272884
-0.00321655
-0.00352661
-0.0036578
-0.00360965
-0.00338246
-0.0029773
-0.00239603
-0.00164131
-0.000716536
0.000374125
0.00162578
0.00303283
0.00458899
0.00628731
0.00812018
0.0100794
0.012156
0.0143407
0.0166234
0.0189937
0.0214404
0.0239521
0.0265169
0.0291224
0.0317561
0.0344051
0.0370561
0.039696
0.0423112
0.0448882
0.0474137
0.0498742
0.0522565
0.0545476
0.0567351
0.0588066
0.0607506
0.062556
0.0642126
0.0657109
0.0670422
0.068199
0.0691748
0.0699639
0.0705623
0.0709669
0.0711759
0.071189
0.0710068
0.0706317
0.0700669
0.0693171
0.0683878
0.0672857
0.0660181
0.0645931
0.0630192
0.0613048
0.0594584
0.0574869
0.0553962
0.0532067
0.0509352
0.0483767
0.045355
0.0233357
0.0198786
0.0169988
0.0144922
0.0121169
0.00988711
0.0078206
0.00591798
0.00418028
0.00261021
0.00121067
-1.55287e-05
-0.00106577
-0.00193772
-0.00262947
-0.00313965
-0.00346742
-0.00361258
-0.00357555
-0.0033574
-0.00295989
-0.00238547
-0.00163724
-0.00071902
0.000364746
0.00160894
0.00300781
0.00455499
0.00624349
0.00806572
0.0100135
0.012078
0.0142501
0.0165197
0.0188767
0.02131
0.0238084
0.0263602
0.0289533
0.0315752
0.0342133
0.0368545
0.0394856
0.0420935
0.0446646
0.0471857
0.0496433
0.0520242
0.0543156
0.0565046
0.0585792
0.0605274
0.0623381
0.0640007
0.0655054
0.0668434
0.0680066
0.0689881
0.0697817
0.0703828
0.0707877
0.0709939
0.0710003
0.0708067
0.0704145
0.0698261
0.0690449
0.0680755
0.0669233
0.0655944
0.0640958
0.0624343
0.0606175
0.0586524
0.0565446
0.054299
0.0519366
0.0494745
0.0466877
0.0433838
0.0249168
0.0211802
0.0180755
0.0153823
0.0128385
0.0104586
0.00826073
0.00624426
0.00440871
0.00275537
0.00128571
1.09961e-06
-0.00109723
-0.00200829
-0.00273144
-0.00326646
-0.00361357
-0.00377354
-0.00374765
-0.00353772
-0.0031462
-0.0025761
-0.00183101
-0.000915132
0.000166755
0.0014093
0.00280656
0.00435206
0.00603873
0.00785895
0.00980456
0.0118669
0.0140366
0.016304
0.0186589
0.0210905
0.0235877
0.0261388
0.028732
0.0313549
0.033995
0.0366393
0.0392749
0.0418884
0.0444666
0.046996
0.0494633
0.0518552
0.0541588
0.0563611
0.0584498
0.0604129
0.0622389
0.0639169
0.0654369
0.0667895
0.0679662
0.0689596
0.069763
0.0703712
0.0707797
0.0709853
0.0709862
0.0707814
0.0703713
0.0697574
0.0689422
0.0679291
0.0667226
0.0653278
0.0637502
0.061996
0.0600714
0.0579827
0.0557343
0.0533304
0.0507929
0.0481397
0.0451264
0.041545
0.0263035
0.0222929
0.0189664
0.0160878
0.0133754
0.0108443
0.00851311
0.00638016
0.00444373
0.00270388
0.00116082
-0.000185355
-0.00133466
-0.00228734
-0.00304389
-0.00360516
-0.00397239
-0.00414724
-0.00413181
-0.00392869
-0.00354096
-0.00297219
-0.00222648
-0.00130842
-0.000223123
0.00102379
0.00242618
0.0039774
0.0056703
0.0074972
0.00944991
0.0115197
0.0136975
0.0159735
0.0183375
0.0207789
0.0232867
0.0258494
0.0284551
0.0310917
0.0337466
0.036407
0.0390598
0.041692
0.04429
0.0468406
0.0493302
0.0517456
0.0540734
0.0563008
0.058415
0.0604038
0.0622554
0.0639586
0.0655028
0.0668784
0.0680762
0.0690883
0.0699075
0.0705276
0.0709438
0.071152
0.0711495
0.0709347
0.070507
0.0698669
0.0690161
0.0679571
0.0666934
0.065229
0.0635687
0.0617176
0.0596812
0.057465
0.0550727
0.0525079
0.0497936
0.0469489
0.0437104
0.039855
0.0274777
0.0231977
0.0196521
0.0165893
0.0137087
0.0110257
0.00856002
0.00630886
0.00426949
0.0024409
0.000822204
-0.00058765
-0.00178982
-0.00278562
-0.00357664
-0.00416473
-0.00455204
-0.0047411
-0.0047348
-0.00453646
-0.00414978
-0.00357891
-0.00282841
-0.00190329
-0.00080901
0.000448528
0.00186296
0.00342747
0.00513477
0.00697709
0.0089462
0.0110334
0.0132294
0.0155246
0.0179089
0.0203717
0.0229019
0.0254883
0.0281189
0.0307817
0.0334642
0.0361534
0.0388366
0.0415002
0.0441311
0.0467156
0.0492402
0.0516914
0.0540557
0.05632
0.0584712
0.0604969
0.0623847
0.0641232
0.0657013
0.0671087
0.0683358
0.0693739
0.0702153
0.0708533
0.071282
0.0714967
0.071494
0.0712712
0.0708271
0.0701613
0.0692745
0.0681684
0.0668456
0.0653093
0.0635635
0.0616126
0.0594613
0.0571145
0.0545756
0.0518477
0.0489551
0.0459183
0.0424554
0.0383282
0.0284224
0.0238766
0.0201142
0.0168685
0.01382
0.0109851
0.00838418
0.0060138
0.00387021
0.00195152
0.000255835
-0.00121892
-0.00247492
-0.00351451
-0.00434022
-0.00495485
-0.00536145
-0.00556336
-0.00556422
-0.00536805
-0.00497917
-0.00440226
-0.00364239
-0.00270497
-0.00159582
-0.000321131
0.00111249
0.00269801
0.00442801
0.0062946
0.00828946
0.0104038
0.0126284
0.0149536
0.0173693
0.0198649
0.0224294
0.0250515
0.0277194
0.030421
0.0331436
0.0358747
0.0386009
0.0413091
0.0439857
0.046617
0.0491893
0.051689
0.0541022
0.0564155
0.0586157
0.0606896
0.0626248
0.064409
0.0660309
0.0674794
0.0687445
0.0698167
0.0706877
0.0713499
0.0717968
0.0720229
0.0720238
0.0717963
0.071338
0.0706478
0.0697257
0.0685724
0.0671898
0.0655803
0.0637471
0.0616942
0.0594256
0.056946
0.0542583
0.0513654
0.0482932
0.0450635
0.0413761
0.0369782
0.0291214
0.0243127
0.0203352
0.0169075
0.0136917
0.010705
0.00796866
0.00547856
0.00323014
0.00122069
-0.000552578
-0.00209265
-0.00340266
-0.00448587
-0.00534573
-0.00598591
-0.00641029
-0.006623
-0.00662844
-0.00643125
-0.00603638
-0.00544905
-0.0046748
-0.00371946
-0.00258922
-0.00129057
0.000169606
0.00178409
0.00354525
0.00544508
0.00747515
0.0096266
0.0118902
0.0142561
0.0167143
0.0192542
0.0218648
0.0245347
0.0272522
0.0300051
0.0327807
0.0355663
0.0383487
0.0411144
0.0438497
0.0465409
0.0491739
0.0517348
0.0542096
0.0565844
0.0588455
0.0609795
0.0629734
0.0648145
0.0664906
0.0679902
0.0693026
0.0704177
0.0713262
0.07202
0.0724915
0.0727347
0.0727441
0.0725158
0.0720466
0.0713345
0.0703786
0.069179
0.0677367
0.0660535
0.0641321
0.0619758
0.0595884
0.0569742
0.0541358
0.0510763
0.0478228
0.044399
0.0404864
0.0358174
0.0295595
0.0244895
0.0202982
0.0166893
0.0133067
0.0101684
0.00729667
0.00468679
0.00233345
0.000233171
-0.0016176
-0.00322272
-0.00458619
-0.00571213
-0.00660487
-0.00726888
-0.00770888
-0.00792973
-0.00793654
-0.00773459
-0.00732942
-0.0067268
-0.00593273
-0.00495347
-0.00379557
-0.00246586
-0.00097148
0.000680109
0.00248109
0.0044233
0.00649816
0.00869673
0.0110097
0.0134272
0.0159391
0.0185348
0.0212033
0.0239333
0.0267127
0.0295294
0.0323709
0.035224
0.0380755
0.0409119
0.0437191
0.0464833
0.0491901
0.0518253
0.0543745
0.0568236
0.0591582
0.0613646
0.063429
0.0653384
0.0670798
0.0686412
0.0700109
0.0711782
0.0721331
0.0728664
0.07337
0.0736368
0.0736606
0.0734364
0.0729604
0.0722298
0.0712427
0.0699985
0.0684976
0.0667413
0.0647315
0.0624712
0.0599639
0.0572136
0.054223
0.050995
0.0475587
0.0439391
0.0397997
0.0348581
0.0297211
0.0243909
0.0199865
0.016197
0.0126479
0.00935828
0.00635147
0.00362207
0.00116414
-0.00102649
-0.00295411
-0.00462338
-0.00603909
-0.00720621
-0.00812989
-0.0088154
-0.0092682
-0.0094939
-0.00949829
-0.00928728
-0.008867
-0.00824372
-0.00742395
-0.00641437
-0.00522189
-0.00385369
-0.00231719
-0.000620093
0.00122957
0.00322346
0.00535285
0.00760869
0.00998154
0.0124615
0.0150384
0.0177016
0.02044
0.023242
0.0260959
0.0289892
0.0319093
0.034843
0.0377768
0.0406971
0.0435896
0.0464402
0.0492342
0.051957
0.054594
0.0571303
0.0595514
0.0618428
0.0639903
0.06598
0.0677985
0.0694328
0.0708706
0.0721003
0.073111
0.0738929
0.0744367
0.0747346
0.0747794
0.0745654
0.0740877
0.0733428
0.072328
0.071042
0.0694845
0.0676561
0.0655585
0.0631941
0.0605662
0.057679
0.0545347
0.0511366
0.0475154
0.0436979
0.0393294
0.0341122
0.0295913
0.0240009
0.0193836
0.0154136
0.0116983
0.00825774
0.00511621
0.00226784
-0.000293976
-0.00257403
-0.00457733
-0.00630926
-0.00777542
-0.00898157
-0.00993362
-0.0106376
-0.0110998
-0.0113265
-0.0113241
-0.0110992
-0.0106584
-0.0100087
-0.00915688
-0.00811016
-0.00687582
-0.00546136
-0.00387452
-0.00212326
-0.000215816
0.00183926
0.0040331
0.00635652
0.00879996
0.0113535
0.0140068
0.0167491
0.0195693
0.0224558
0.0253966
0.0283792
0.0313909
0.0344183
0.0374479
0.0404655
0.0434569
0.0464075
0.0493023
0.0521265
0.0548647
0.0575019
0.0600228
0.0624124
0.0646559
0.0667387
0.0686465
0.0703657
0.0718831
0.0731862
0.0742632
0.0751034
0.0756966
0.076034
0.0761076
0.0759106
0.0754373
0.0746833
0.0736452
0.0723209
0.0707095
0.0688111
0.0666268
0.0641589
0.0614104
0.0583853
0.055086
0.051516
0.0477078
0.0436898
0.0390888
0.033592
0.0291547
0.0233034
0.0184727
0.0143222
0.0104408
0.0068496
0.00357388
0.000607296
-0.00205738
-0.00442553
-0.00650285
-0.00829547
-0.00980973
-0.0110522
-0.0120294
-0.0127484
-0.013216
-0.0134391
-0.013425
-0.0131808
-0.0127137
-0.0120311
-0.0111405
-0.0100494
-0.00876554
-0.00729672
-0.00565101
-0.00383664
-0.00186208
0.000263916
0.00253232
0.0049338
0.00745868
0.0100969
0.0128381
0.0156714
0.0185855
0.0215688
0.0246092
0.0276941
0.0308105
0.033945
0.0370837
0.0402124
0.0433165
0.0463809
0.0493906
0.0523301
0.0551836
0.0579356
0.0605703
0.0630719
0.0654249
0.0676141
0.0696243
0.0714411
0.0730503
0.0744387
0.0755934
0.0765025
0.0771553
0.0775415
0.0776525
0.0774803
0.0770185
0.0762616
0.0752056
0.0738475
0.0721858
0.07022
0.067951
0.0653805
0.0625115
0.059348
0.0558926
0.0521487
0.0481508
0.0439293
0.0390918
0.03331
0.0283956
0.022282
0.0172371
0.0129056
0.00885805
0.00511644
0.00170715
-0.0013767
-0.00414291
-0.00659749
-0.00874677
-0.0105976
-0.0121571
-0.0134325
-0.0144313
-0.015161
-0.0156293
-0.0158439
-0.0158126
-0.0155431
-0.0150433
-0.0143211
-0.0133844
-0.0122413
-0.0108998
-0.00936812
-0.00765467
-0.00576795
-0.00371666
-0.00150977
0.000843537
0.00333376
0.00595109
0.00868537
0.0115261
0.0144623
0.0174826
0.0205753
0.0237281
0.0269282
0.0301627
0.0334177
0.0366793
0.039933
0.0431637
0.0463563
0.0494951
0.0525643
0.0555476
0.0584289
0.0611917
0.0638196
0.0662965
0.068606
0.0707325
0.0726603
0.0743746
0.0758609
0.0771054
0.0780953
0.0788186
0.0792642
0.0794222
0.0792838
0.0788414
0.0780889
0.0770211
0.0756346
0.0739269
0.0718973
0.0695459
0.0668744
0.0638856
0.0605834
0.0569705
0.0530507
0.0488604
0.0444317
0.0393528
0.0332796
0.0272979
0.0209199
0.0156595
0.0111463
0.0069323
0.00304049
-0.000501733
-0.00370172
-0.0065679
-0.00910688
-0.0113257
-0.0132318
-0.0148331
-0.0161377
-0.0171537
-0.0178894
-0.0183533
-0.0185536
-0.018499
-0.0181977
-0.0176583
-0.0168891
-0.0158986
-0.0146953
-0.0132877
-0.0116844
-0.00989397
-0.00792533
-0.0057874
-0.00348936
-0.00104059
0.00154926
0.00427025
0.00711209
0.0100641
0.0131153
0.0162543
0.0194689
0.0227471
0.0260757
0.0294417
0.032831
0.0362294
0.0396221
0.0429939
0.0463292
0.0496118
0.0528255
0.0559535
0.058979
0.0618849
0.0646542
0.0672697
0.0697145
0.0719717
0.074025
0.0758584
0.0774562
0.0788039
0.0798873
0.0806932
0.0812095
0.0814253
0.0813306
0.0809168
0.0801768
0.0791046
0.0776958
0.0759475
0.073858
0.0714274
0.0686569
0.0655492
0.0621083
0.0583369
0.0542389
0.0498529
0.0452129
0.039887
0.0335147
0.0258451
0.0191997
0.013722
0.00902614
0.00464531
0.00060344
-0.003071
-0.00638586
-0.00935021
-0.0119712
-0.0142567
-0.0162147
-0.017854
-0.0191833
-0.0202116
-0.020948
-0.0214016
-0.0215815
-0.0214969
-0.0211568
-0.0205702
-0.0197462
-0.0186937
-0.0174216
-0.015939
-0.0142547
-0.0123777
-0.0103173
-0.00808248
-0.00568277
-0.00312771
-0.0004271
0.00240896
0.00537006
0.00844543
0.0116239
0.0148939
0.0182435
0.02166
0.0251306
0.0286416
0.0321791
0.0357285
0.0392747
0.0428022
0.046295
0.0497365
0.0531099
0.056398
0.0595833
0.062648
0.0655742
0.068344
0.0709395
0.073343
0.075537
0.0775044
0.0792286
0.0806936
0.0818841
0.082786
0.0833857
0.0836711
0.0836311
0.0832562
0.0825379
0.0814694
0.0800456
0.0782626
0.0761184
0.0736124
0.0707454
0.0675202
0.0639406
0.0600095
0.0557312
0.051146
0.0462901
0.0407107
0.0340307
0.0240197
0.0171036
0.0114063
0.00652649
0.00197824
-0.00221361
-0.00601952
-0.00944785
-0.0125083
-0.0152088
-0.0175575
-0.0195636
-0.0212365
-0.0225856
-0.0236208
-0.0243519
-0.0247888
-0.0249414
-0.0248195
-0.0244328
-0.0237911
-0.0229038
-0.0217805
-0.0204306
-0.0188635
-0.0170885
-0.0151151
-0.0129525
-0.0106103
-0.00809812
-0.00542567
-0.00260295
0.000359804
0.00345205
0.00666291
0.00998111
0.013395
0.0168923
0.0204606
0.0240865
0.0277565
0.0314563
0.0351711
0.0388855
0.0425836
0.0462491
0.049865
0.0534139
0.056878
0.0602391
0.0634787
0.0665782
0.0695187
0.0722813
0.0748474
0.0771983
0.0793157
0.0811819
0.0827796
0.0840923
0.0851044
0.0858013
0.0861693
0.0861964
0.0858716
0.0851854
0.0841301
0.0826994
0.0808888
0.0786955
0.0761184
0.0731582
0.0698171
0.0660993
0.0620076
0.0575464
0.0527583
0.0476813
0.0418414
0.0348437
0.0218037
0.0146128
0.00869319
0.00362795
-0.0010885
-0.00543031
-0.00936688
-0.0129071
-0.0160614
-0.0188383
-0.0212467
-0.0232966
-0.024998
-0.0263614
-0.0273974
-0.0281166
-0.0285298
-0.0286476
-0.0284805
-0.028039
-0.0273333
-0.0263738
-0.0251704
-0.023733
-0.0220716
-0.0201958
-0.0181154
-0.0158401
-0.0133796
-0.0107437
-0.00794251
-0.00498606
-0.00188475
0.00135074
0.00470944
0.00817997
0.0117505
0.0154089
0.0191422
0.0229373
0.0267803
0.0306567
0.0345514
0.038449
0.0423331
0.0461868
0.0499929
0.0537334
0.0573899
0.0609435
0.064375
0.0676648
0.0707931
0.0737401
0.076486
0.079011
0.0812955
0.0833205
0.0850675
0.0865185
0.0876565
0.0884655
0.0889305
0.0890381
0.088776
0.0881335
0.0871018
0.0856735
0.0838432
0.0816075
0.0789646
0.0759148
0.0724602
0.0686048
0.0643514
0.0597048
0.0547098
0.0494063
0.0432979
0.0359718
0.0191782
0.0117078
0.0055628
0.000310248
-0.00457533
-0.00906714
-0.0131335
-0.0167839
-0.0200295
-0.0228794
-0.0253434
-0.0274321
-0.0291566
-0.0305282
-0.0315583
-0.0322584
-0.0326401
-0.0327148
-0.0324939
-0.0319885
-0.0312097
-0.0301683
-0.0288748
-0.0273399
-0.0255737
-0.0235864
-0.0213882
-0.018989
-0.016399
-0.013628
-0.0106863
-0.00758426
-0.00433231
-0.000941257
0.00257782
0.00621345
0.00995376
0.0137864
0.0176985
0.0216766
0.0257067
0.0297742
0.0338639
0.0379598
0.0420454
0.0461034
0.050116
0.0540647
0.0579306
0.0616939
0.0653347
0.0688326
0.0721668
0.0753163
0.0782602
0.0809774
0.0834472
0.0856491
0.087563
0.0891697
0.0904505
0.091388
0.0919658
0.0921687
0.0919832
0.0913973
0.0904008
0.0889853
0.0871444
0.0848738
0.0821712
0.0790361
0.0754707
0.0714787
0.0670629
0.0622285
0.0570222
0.0514861
0.0451007
0.0374342
0.0161232
0.00836802
0.00199411
-0.00344784
-0.00850364
-0.0131455
-0.0173408
-0.0210994
-0.0244334
-0.0273526
-0.0298675
-0.0319898
-0.0337313
-0.0351042
-0.0361209
-0.036794
-0.0371357
-0.0371584
-0.0368743
-0.0362954
-0.0354334
-0.0342997
-0.0329057
-0.0312623
-0.0293804
-0.0272705
-0.0249431
-0.0224086
-0.0196772
-0.0167593
-0.0136652
-0.0104054
-0.00699044
-0.00343129
0.000260899
0.0040746
0.00799784
0.0120182
0.0161227
0.0202979
0.0245296
0.028803
0.0331027
0.0374124
0.0417153
0.0459938
0.0502297
0.0544037
0.0584964
0.0624873
0.0663558
0.0700802
0.0736391
0.0770101
0.0801712
0.0831001
0.0857744
0.0881724
0.0902724
0.0920535
0.0934955
0.0945792
0.0952868
0.0956013
0.0955078
0.0949927
0.0940444
0.0926534
0.0908121
0.0885153
0.0857597
0.0825446
0.0788716
0.0747444
0.0701657
0.0651408
0.0597187
0.0539437
0.0472719
0.0392522
0.0126177
0.00457189
-0.00203492
-0.00766862
-0.0128959
-0.0176879
-0.022011
-0.0258758
-0.029295
-0.0322792
-0.03484
-0.0369898
-0.0387415
-0.0401082
-0.0411035
-0.0417406
-0.0420331
-0.0419941
-0.0416367
-0.0409737
-0.0400177
-0.0387808
-0.0372749
-0.0355116
-0.0335023
-0.031258
-0.0287896
-0.0261078
-0.023223
-0.020146
-0.0168871
-0.013457
-0.00986654
-0.00612655
-0.00224832
0.00175656
0.0058761
0.0100978
0.0144087
0.0187951
0.0232429
0.0277371
0.032262
0.0368013
0.0413378
0.0458534
0.0503295
0.0547464
0.0590839
0.063321
0.0674358
0.0714062
0.0752094
0.078822
0.0822206
0.0853815
0.088281
0.0908955
0.093202
0.0951776
0.0968006
0.09805
0.0989059
0.09935
0.0993653
0.0989367
0.0980512
0.0966977
0.0948674
0.092554
0.0897535
0.0864643
0.0826877
0.0784271
0.0736852
0.0684672
0.0628247
0.056804
0.0498359
0.0414491
0.00863978
0.000296635
-0.0065475
-0.0123756
-0.0177757
-0.022718
-0.0271677
-0.0311362
-0.0346371
-0.0376817
-0.0402827
-0.0424533
-0.0442077
-0.0455599
-0.0465246
-0.0471163
-0.0473493
-0.047238
-0.0467962
-0.0460379
-0.0449762
-0.0436241
-0.0419944
-0.0400991
-0.0379501
-0.0355591
-0.0329372
-0.0300955
-0.0270448
-0.023796
-0.0203597
-0.0167467
-0.0129677
-0.00903395
-0.00495658
-0.000747227
0.00358209
0.00801888
0.0125501
0.0171621
0.0218407
0.0265707
0.0313364
0.0361212
0.0409076
0.0456772
0.050411
0.0550888
0.0596896
0.0641918
0.0685728
0.0728092
0.0768772
0.0807523
0.0844097
0.0878243
0.0909707
0.0938237
0.0963585
0.0985505
0.100376
0.101812
0.102836
0.103429
0.103572
0.103248
0.102441
0.101139
0.0993329
0.097014
0.0941775
0.0908211
0.0869455
0.082554
0.0776488
0.0722354
0.0663676
0.060094
0.052819
0.04405
0.0041659
-0.00448181
-0.0115682
-0.0175936
-0.023168
-0.0282607
-0.0328358
-0.0369053
-0.0404838
-0.0435837
-0.0462184
-0.0484025
-0.0501511
-0.0514797
-0.0524039
-0.0529395
-0.0531019
-0.0529065
-0.0523685
-0.0515024
-0.0503225
-0.0488426
-0.047076
-0.0450357
-0.0427341
-0.0401833
-0.0373949
-0.0343803
-0.0311507
-0.0277171
-0.0240903
-0.0202812
-0.0163008
-0.01216
-0.0078702
-0.00344296
0.00110974
0.00577544
0.0105411
0.0153932
0.0203173
0.0252983
0.0303204
0.0353668
0.0404197
0.0454606
0.0504698
0.0554268
0.0603101
0.065097
0.0697643
0.0742876
0.0786419
0.0828015
0.0867402
0.0904312
0.0938477
0.0969626
0.0997491
0.102181
0.104232
0.105877
0.107092
0.107856
0.108146
0.107944
0.107234
0.106001
0.104233
0.101921
0.0990585
0.095643
0.091674
0.0871544
0.0820864
0.0764752
0.0703773
0.0638433
0.0562501
0.0470829
-0.000828622
-0.00978895
-0.017123
-0.0233489
-0.0290993
-0.0343425
-0.0390414
-0.0432089
-0.0468606
-0.0500098
-0.0526711
-0.0548605
-0.0565941
-0.0578888
-0.0587615
-0.0592292
-0.0593087
-0.0590166
-0.0583691
-0.0573819
-0.0560702
-0.0544487
-0.0525316
-0.0503324
-0.0478644
-0.0451399
-0.0421713
-0.0389703
-0.0355482
-0.0319163
-0.0280856
-0.0240672
-0.0198718
-0.0155107
-0.010995
-0.00633629
-0.00154649
0.00336202
0.00837634
0.0134829
0.0186673
0.0239146
0.0292088
0.0345331
0.0398694
0.0451989
0.0505018
0.0557568
0.0609418
0.0660338
0.0710083
0.0758401
0.080503
0.0849701
0.0892136
0.0932051
0.0969161
0.100318
0.103381
0.106077
0.108378
0.110257
0.111688
0.112645
0.113105
0.113048
0.112454
0.111307
0.109593
0.107302
0.104426
0.10096
0.0969041
0.0922603
0.0870303
0.0812193
0.0748862
0.0680841
0.0601606
0.0505781
-0.00637001
-0.0156518
-0.0232395
-0.0296695
-0.0355978
-0.0409915
-0.0458124
-0.0500745
-0.0537942
-0.0569862