/*--------------------------------*- C++ -*----------------------------------*\
  =========                 |
  \\      /  F ield         | OpenFOAM: The Open Source CFD Toolbox
   \\    /   O peration     | Website:  https://openfoam.org
    \\  /    A nd           | Version:  7
     \\/     M anipulation  |
\*---------------------------------------------------------------------------*/
FoamFile
{
    version     2.0;
    format      ascii;
    class       surfaceScalarField;
    location    "0.25";
    object      phi;
}
// * * * * * * * * * * * * * * * * * * * * * * * * * * * * * * * * * * * * * //

dimensions      [0 3 -1 0 0 0 0];

internalField   nonuniform List<scalar> 
12640
(
1.88515e-10
-1.92534e-10
5.54951e-10
-3.66756e-10
8.82178e-10
-3.27328e-10
1.04511e-09
-1.62841e-10
9.81591e-10
6.36659e-11
6.64499e-10
3.17139e-10
8.70278e-11
5.77423e-10
-7.45649e-10
8.32599e-10
-1.8213e-09
1.0756e-09
-3.12347e-09
1.30216e-09
-4.63319e-09
1.50973e-09
-6.33e-09
1.69684e-09
-8.19269e-09
1.86271e-09
-1.01997e-08
2.00704e-09
-1.23296e-08
2.12986e-09
-1.4561e-08
2.23142e-09
-1.68731e-08
2.31212e-09
-1.92456e-08
2.37249e-09
-2.16588e-08
2.41315e-09
-2.40935e-08
2.43477e-09
-2.65316e-08
2.43807e-09
-2.89554e-08
2.42382e-09
-3.13482e-08
2.39281e-09
-3.3694e-08
2.34582e-09
-3.59777e-08
2.28369e-09
-3.8185e-08
2.20724e-09
-4.03023e-08
2.1173e-09
-4.2317e-08
2.0147e-09
-4.42173e-08
1.90029e-09
-4.59922e-08
1.77491e-09
-4.76316e-08
1.63942e-09
-4.91262e-08
1.49465e-09
-5.04677e-08
1.34148e-09
-5.16484e-08
1.18077e-09
-5.26618e-08
1.0134e-09
-5.35021e-08
8.40255e-10
-5.41643e-08
6.6224e-10
-5.46446e-08
4.80269e-10
-5.49399e-08
2.95272e-10
-5.50481e-08
1.08197e-10
-5.49681e-08
-7.99912e-11
-5.46997e-08
-2.6831e-10
-5.4244e-08
-4.5576e-10
-5.36026e-08
-6.41324e-10
-5.27787e-08
-8.23966e-10
-5.1776e-08
-1.00263e-09
-5.05998e-08
-1.17626e-09
-4.9256e-08
-1.34378e-09
-4.77519e-08
-1.50409e-09
-4.60958e-08
-1.6561e-09
-4.42971e-08
-1.79873e-09
-4.23662e-08
-1.93087e-09
-4.03148e-08
-2.05146e-09
-3.81553e-08
-2.15941e-09
-3.59017e-08
-2.25368e-09
-3.35684e-08
-2.33326e-09
-3.11712e-08
-2.39715e-09
-2.87268e-08
-2.4444e-09
-2.62527e-08
-2.47413e-09
-2.37672e-08
-2.48548e-09
-2.12895e-08
-2.4777e-09
-1.88395e-08
-2.45008e-09
-1.64374e-08
-2.40203e-09
-1.41044e-08
-2.33304e-09
-1.18617e-08
-2.24273e-09
-9.7308e-09
-2.13088e-09
-7.73339e-09
-1.99741e-09
-5.89092e-09
-1.84246e-09
-4.22445e-09
-1.66647e-09
-2.75426e-09
-1.47019e-09
-1.49938e-09
-1.25489e-09
-4.76828e-10
-1.02255e-09
2.99404e-10
-7.76227e-10
8.20102e-10
-5.20693e-10
1.08362e-09
-2.63526e-10
1.10069e-09
-1.7078e-11
9.02359e-10
1.98326e-10
5.5437e-10
3.47996e-10
1.83912e-10
3.70484e-10
1.83935e-10
3.64969e-10
-5.57798e-10
8.85448e-10
-8.87254e-10
1.21612e-09
-6.57774e-10
1.13382e-09
-8.03732e-11
5.00898e-10
6.96554e-10
-7.56356e-10
1.57428e-09
-2.66705e-09
2.488e-09
-5.23003e-09
3.39553e-09
-8.42386e-09
4.26943e-09
-1.22135e-08
5.09183e-09
-1.65549e-08
5.85116e-09
-2.13982e-08
6.54008e-09
-2.66896e-08
7.15414e-09
-3.23735e-08
7.69094e-09
-3.83931e-08
8.14951e-09
-4.46916e-08
8.52996e-09
-5.12127e-08
8.83316e-09
-5.79007e-08
9.06056e-09
-6.47016e-08
9.21404e-09
-7.15626e-08
9.29581e-09
-7.84329e-08
9.30835e-09
-8.52634e-08
9.25432e-09
-9.20071e-08
9.13652e-09
-9.86191e-08
8.95786e-09
-1.05057e-07
8.72134e-09
-1.1128e-07
8.43003e-09
-1.17249e-07
8.08705e-09
-1.2293e-07
7.69555e-09
-1.28289e-07
7.25871e-09
-1.33293e-07
6.77976e-09
-1.37916e-07
6.26194e-09
-1.4213e-07
5.70855e-09
-1.45911e-07
5.12288e-09
-1.49239e-07
4.5083e-09
-1.52093e-07
3.86818e-09
-1.54459e-07
3.20597e-09
-1.56322e-07
2.52515e-09
-1.57671e-07
1.82926e-09
-1.58498e-07
1.12189e-09
-1.58796e-07
4.06715e-10
-1.58564e-07
-3.12556e-10
-1.578e-07
-1.03213e-09
-1.56507e-07
-1.74817e-09
-1.54692e-07
-2.45675e-09
-1.52362e-07
-3.1539e-09
-1.49529e-07
-3.83559e-09
-1.46208e-07
-4.49775e-09
-1.42415e-07
-5.13627e-09
-1.38172e-07
-5.74702e-09
-1.33502e-07
-6.32584e-09
-1.28432e-07
-6.86861e-09
-1.22992e-07
-7.37118e-09
-1.17214e-07
-7.8295e-09
-1.11134e-07
-8.23954e-09
-1.0479e-07
-8.59738e-09
-9.82243e-08
-8.89923e-09
-9.148e-08
-9.14142e-09
-8.4604e-08
-9.32047e-09
-7.7645e-08
-9.43311e-09
-7.06542e-08
-9.47631e-09
-6.36845e-08
-9.44735e-09
-5.67908e-08
-9.34382e-09
-5.00291e-08
-9.16371e-09
-4.34567e-08
-8.90545e-09
-3.71314e-08
-8.56802e-09
-3.11113e-08
-8.15102e-09
-2.54539e-08
-7.65479e-09
-2.02157e-08
-7.08063e-09
-1.54512e-08
-6.43104e-09
-1.12113e-08
-5.71007e-09
-7.54231e-09
-4.92385e-09
-4.48339e-09
-4.08147e-09
-2.06344e-09
-3.19619e-09
-2.96672e-10
-2.28746e-09
8.2387e-10
-1.38406e-09
1.33581e-09
-5.29009e-10
1.32112e-09
2.12993e-10
9.24054e-10
7.45018e-10
3.70458e-10
9.24023e-10
5.5441e-10
3.29722e-10
-8.87589e-10
6.65356e-10
-1.2227e-09
6.12034e-10
-6.04189e-10
-9.13588e-11
6.23098e-10
-1.61553e-09
2.22071e-09
-4.05966e-09
4.0183e-09
-7.46804e-09
5.89627e-09
-1.18446e-08
7.77203e-09
-1.71639e-08
9.58878e-09
-2.33796e-08
1.13076e-08
-3.04305e-08
1.29021e-08
-3.82449e-08
1.43545e-08
-4.67444e-08
1.56537e-08
-5.58461e-08
1.67926e-08
-6.54646e-08
1.7768e-08
-7.55132e-08
1.85787e-08
-8.59056e-08
1.92256e-08
-9.65561e-08
1.97111e-08
-1.07381e-07
2.00384e-08
-1.18297e-07
2.0212e-08
-1.29225e-07
2.02365e-08
-1.40088e-07
2.01173e-08
-1.50812e-07
1.98603e-08
-1.61325e-07
1.94715e-08
-1.71561e-07
1.89573e-08
-1.81455e-07
1.8324e-08
-1.90947e-07
1.75784e-08
-1.99978e-07
1.67273e-08
-2.08497e-07
1.57774e-08
-2.16453e-07
1.47359e-08
-2.23801e-07
1.36097e-08
-2.30498e-07
1.2406e-08
-2.36507e-07
1.1132e-08
-2.41794e-07
9.79506e-09
-2.46328e-07
8.40256e-09
-2.50085e-07
6.96203e-09
-2.5304e-07
5.4811e-09
-2.55179e-07
3.96751e-09
-2.56486e-07
2.42914e-09
-2.56953e-07
8.73986e-10
-2.56576e-07
-6.89808e-10
-2.55354e-07
-2.25398e-09
-2.53292e-07
-3.81012e-09
-2.50399e-07
-5.34969e-09
-2.46689e-07
-6.86407e-09
-2.4218e-07
-8.34447e-09
-2.36896e-07
-9.78207e-09
-2.30864e-07
-1.1168e-08
-2.24118e-07
-1.24932e-08
-2.16695e-07
-1.37487e-08
-2.08638e-07
-1.49258e-08
-1.99994e-07
-1.60153e-08
-1.90815e-07
-1.70087e-08
-1.81157e-07
-1.78973e-08
-1.71082e-07
-1.86727e-08
-1.60654e-07
-1.93268e-08
-1.49943e-07
-1.98519e-08
-1.39023e-07
-2.02407e-08
-1.2797e-07
-2.04862e-08
-1.16864e-07
-2.05822e-08
-1.05788e-07
-2.05232e-08
-9.4828e-08
-2.03042e-08
-8.40703e-08
-1.99214e-08
-7.36038e-08
-1.9372e-08
-6.35175e-08
-1.86543e-08
-5.39004e-08
-1.77682e-08
-4.48398e-08
-1.67154e-08
-3.64207e-08
-1.54997e-08
-2.87241e-08
-1.41277e-08
-2.18245e-08
-1.26096e-08
-1.57883e-08
-1.09601e-08
-1.06694e-08
-9.20031e-09
-6.50569e-09
-7.35995e-09
-3.3123e-09
-5.48086e-09
-1.07422e-09
-3.62215e-09
2.64416e-10
-1.86763e-09
8.13742e-10
-3.36308e-10
7.53679e-10
8.05095e-10
3.50741e-10
1.32693e-09
9.05153e-10
1.71488e-10
-1.05896e-09
1.03884e-10
-1.15495e-09
-5.89413e-10
8.91553e-11
-2.17228e-09
2.20595e-09
-4.82176e-09
4.87009e-09
-8.64405e-09
7.84049e-09
-1.36885e-08
1.09406e-08
-1.99599e-08
1.40434e-08
-2.7429e-08
1.70579e-08
-3.60407e-08
1.99192e-08
-4.57205e-08
2.25819e-08
-5.63803e-08
2.50143e-08
-6.79219e-08
2.71953e-08
-8.02405e-08
2.91112e-08
-9.32271e-08
3.07546e-08
-1.0677e-07
3.2122e-08
-1.20758e-07
3.32136e-08
-1.35079e-07
3.40322e-08
-1.49624e-07
3.45826e-08
-1.64283e-07
3.48711e-08
-1.78952e-07
3.49055e-08
-1.93529e-07
3.46943e-08
-2.07915e-07
3.42469e-08
-2.22017e-07
3.35736e-08
-2.35745e-07
3.26846e-08
-2.49012e-07
3.15911e-08
-2.61738e-07
3.03043e-08
-2.73846e-07
2.88356e-08
-2.85265e-07
2.71969e-08
-2.9593e-07
2.54001e-08
-3.05777e-07
2.34573e-08
-3.14752e-07
2.13808e-08
-3.22803e-07
1.91832e-08
-3.29885e-07
1.6877e-08
-3.35958e-07
1.44751e-08
-3.40986e-07
1.19905e-08
-3.44941e-07
9.4364e-09
-3.478e-07
6.82622e-09
-3.49545e-07
4.17358e-09
-3.50163e-07
1.49234e-09
-3.49649e-07
-1.20343e-09
-3.48004e-07
-3.89944e-09
-3.45233e-07
-6.58116e-09
-3.41349e-07
-9.23389e-09
-3.3637e-07
-1.18427e-08
-3.30322e-07
-1.43926e-08
-3.23236e-07
-1.68682e-08
-3.15149e-07
-1.92543e-08
-3.06107e-07
-2.15356e-08
-2.96159e-07
-2.36967e-08
-2.85362e-07
-2.57223e-08
-2.7378e-07
-2.75973e-08
-2.61482e-07
-2.93067e-08
-2.48544e-07
-3.08359e-08
-2.35046e-07
-3.21708e-08
-2.21075e-07
-3.32976e-08
-2.06724e-07
-3.42032e-08
-1.92089e-07
-3.48754e-08
-1.77272e-07
-3.53028e-08
-1.6238e-07
-3.54749e-08
-1.4752e-07
-3.53828e-08
-1.32806e-07
-3.50186e-08
-1.18351e-07
-3.43763e-08
-1.04271e-07
-3.34519e-08
-9.06817e-08
-3.22434e-08
-7.76982e-08
-3.07517e-08
-6.54328e-08
-2.89807e-08
-5.3994e-08
-2.69385e-08
-4.34841e-08
-2.46377e-08
-3.39964e-08
-2.20972e-08
-2.56127e-08
-1.93438e-08
-1.83985e-08
-1.64145e-08
-1.23984e-08
-1.336e-08
-7.62963e-09
-1.02497e-08
-4.074e-09
-7.1778e-09
-1.66836e-09
-4.27329e-09
-2.92993e-10
-1.71167e-09
2.41168e-10
2.70955e-10
2.07591e-10
1.36049e-09
1.11274e-09
-4.76468e-11
-1.01116e-09
-6.55045e-10
-5.47574e-10
-2.15966e-09
1.59373e-09
-4.80184e-09
4.84801e-09
-8.74561e-09
8.81373e-09
-1.40902e-08
1.3185e-08
-2.08805e-08
1.77309e-08
-2.91167e-08
2.22797e-08
-3.87632e-08
2.67045e-08
-4.97563e-08
3.09123e-08
-6.20102e-08
3.48358e-08
-7.54227e-08
3.84269e-08
-8.98795e-08
4.1652e-08
-1.05257e-07
4.44892e-08
-1.21428e-07
4.6925e-08
-1.38259e-07
4.89527e-08
-1.55616e-07
5.05708e-08
-1.73366e-07
5.17821e-08
-1.91375e-07
5.25924e-08
-2.09515e-07
5.30104e-08
-2.27656e-07
5.30467e-08
-2.45675e-07
5.27136e-08
-2.63453e-07
5.20246e-08
-2.80874e-07
5.09944e-08
-2.97828e-07
4.96386e-08
-3.1421e-07
4.79733e-08
-3.29921e-07
4.60153e-08
-3.44867e-07
4.37819e-08
-3.58961e-07
4.12908e-08
-3.72121e-07
3.856e-08
-3.84272e-07
3.56078e-08
-3.95344e-07
3.24529e-08
-4.05274e-07
2.91141e-08
-4.14008e-07
2.56108e-08
-4.21495e-07
2.19623e-08
-4.27694e-07
1.81886e-08
-4.32567e-07
1.43097e-08
-4.36087e-07
1.0346e-08
-4.38231e-07
6.31823e-09
-4.38986e-07
2.24753e-09
-4.38345e-07
-1.84473e-09
-4.36308e-07
-5.93684e-09
-4.32882e-07
-1.00067e-08
-4.28084e-07
-1.40321e-08
-4.21936e-07
-1.79903e-08
-4.1447e-07
-2.18585e-08
-4.05725e-07
-2.56137e-08
-3.95746e-07
-2.92328e-08
-3.84589e-07
-3.26926e-08
-3.72316e-07
-3.59699e-08
-3.58997e-07
-3.90417e-08
-3.44709e-07
-4.18852e-08
-3.29537e-07
-4.44782e-08
-3.13575e-07
-4.67986e-08
-2.9692e-07
-4.88253e-08
-2.7968e-07
-5.05378e-08
-2.61967e-07
-5.19167e-08
-2.43898e-07
-5.2944e-08
-2.25598e-07
-5.36027e-08
-2.07195e-07
-5.38779e-08
-1.88821e-07
-5.37564e-08
-1.70613e-07
-5.32273e-08
-1.52707e-07
-5.22823e-08
-1.35242e-07
-5.09162e-08
-1.18358e-07
-4.91273e-08
-1.02192e-07
-4.69181e-08
-8.68767e-08
-4.42961e-08
-7.25407e-08
-4.12745e-08
-5.9304e-08
-3.78743e-08
-4.7276e-08
-3.41252e-08
-3.65514e-08
-3.00685e-08
-2.72059e-08
-2.57599e-08
-1.92916e-08
-2.12743e-08
-1.28303e-08
-1.67109e-08
-7.80669e-09
-1.22014e-08
-4.16005e-09
-7.91993e-09
-1.77518e-09
-4.09655e-09
-4.72705e-10
-1.03151e-09
1.8736e-12
8.85915e-10
1.11461e-09
-2.94442e-10
-7.16681e-10
-1.51889e-09
6.7678e-10
-3.94165e-09
4.0164e-09
-7.76176e-09
8.668e-09
-1.31163e-08
1.41682e-08
-2.00866e-08
2.01553e-08
-2.87047e-08
2.63491e-08
-3.89608e-08
3.25357e-08
-5.08096e-08
3.85533e-08
-6.41773e-08
4.428e-08
-7.89668e-08
4.96253e-08
-9.50631e-08
5.45232e-08
-1.12338e-07
5.89264e-08
-1.30651e-07
6.2803e-08
-1.49859e-07
6.61323e-08
-1.69809e-07
6.89034e-08
-1.90351e-07
7.11123e-08
-2.1133e-07
7.27611e-08
-2.32594e-07
7.38568e-08
-2.53993e-07
7.44098e-08
-2.75381e-07
7.4434e-08
-2.96612e-07
7.39453e-08
-3.1755e-07
7.2962e-08
-3.38059e-07
7.15039e-08
-3.58013e-07
6.9592e-08
-3.77288e-07
6.72485e-08
-3.95769e-07
6.44966e-08
-4.13347e-07
6.136e-08
-4.2992e-07
5.78633e-08
-4.45391e-07
5.40316e-08
-4.59674e-07
4.98903e-08
-4.72687e-07
4.54655e-08
-4.84356e-07
4.07838e-08
-4.94617e-07
3.58719e-08
-5.03412e-07
3.07572e-08
-5.10691e-07
2.54674e-08
-5.16412e-07
2.00308e-08
-5.20542e-07
1.4476e-08
-5.23056e-07
8.83205e-09
-5.23937e-07
3.12851e-09
-5.23177e-07
-2.60463e-09
-5.20777e-07
-8.33694e-09
-5.16746e-07
-1.40376e-08
-5.11103e-07
-1.96752e-08
-5.03875e-07
-2.52184e-08
-4.95098e-07
-3.0635e-08
-4.84819e-07
-3.58932e-08
-4.73091e-07
-4.09605e-08
-4.59979e-07
-4.58048e-08
-4.45555e-07
-5.03937e-08
-4.29901e-07
-5.46954e-08
-4.13108e-07
-5.86783e-08
-3.95275e-07
-6.23113e-08
-3.76509e-07
-6.55643e-08
-3.56927e-07
-6.84078e-08
-3.36651e-07
-7.08139e-08
-3.15812e-07
-7.27559e-08
-2.94547e-07
-7.4209e-08
-2.72999e-07
-7.51505e-08
-2.51317e-07
-7.556e-08
-2.29653e-07
-7.542e-08
-2.08164e-07
-7.47162e-08
-1.87009e-07
-7.34381e-08
-1.66345e-07
-7.15796e-08
-1.46333e-07
-6.91395e-08
-1.27129e-07
-6.61228e-08
-1.08883e-07
-6.25412e-08
-9.1743e-08
-5.84149e-08
-7.58432e-08
-5.37741e-08
-6.13072e-08
-4.86612e-08
-4.82419e-08
-4.31337e-08
-3.67338e-08
-3.72681e-08
-2.68439e-08
-3.11643e-08
-1.86022e-08
-2.49526e-08
-1.20021e-08
-1.88015e-08
-6.99362e-09
-1.29284e-08
-3.47687e-09
-7.61332e-09
-1.29597e-09
-3.21242e-09
-2.3307e-10
-1.76982e-10
8.81539e-10
-5.507e-10
-1.66044e-10
-2.43e-09
2.55595e-09
-5.83071e-09
7.41702e-09
-1.09007e-08
1.37379e-08
-1.77407e-08
2.10082e-08
-2.64058e-08
2.88204e-08
-3.69088e-08
3.68521e-08
-4.92244e-08
4.48513e-08
-6.32941e-08
5.26231e-08
-7.90319e-08
6.00178e-08
-9.63285e-08
6.6922e-08
-1.15056e-07
7.32509e-08
-1.35073e-07
7.8943e-08
-1.56225e-07
8.39554e-08
-1.78352e-07
8.82595e-08
-2.01288e-07
9.18391e-08
-2.24863e-07
9.46875e-08
-2.48908e-07
9.68057e-08
-2.73252e-07
9.8201e-08
-2.97728e-07
9.88861e-08
-3.22172e-07
9.88777e-08
-3.46423e-07
9.81959e-08
-3.70324e-07
9.68637e-08
-3.93727e-07
9.49065e-08
-4.16486e-07
9.23513e-08
-4.38465e-07
8.92271e-08
-4.59532e-07
8.55638e-08
-4.79565e-07
8.13927e-08
-4.98447e-07
7.67458e-08
-5.16072e-07
7.16562e-08
-5.32339e-07
6.61574e-08
-5.47157e-07
6.02839e-08
-5.60444e-07
5.40706e-08
-5.72125e-07
4.75531e-08
-5.82136e-07
4.07675e-08
-5.90419e-07
3.37507e-08
-5.96928e-07
2.65401e-08
-6.01626e-07
1.91735e-08
-6.04483e-07
1.16894e-08
-6.05482e-07
4.12717e-09
-6.04613e-07
-3.47363e-09
-6.01877e-07
-1.10727e-08
-5.97285e-07
-1.86291e-08
-5.90859e-07
-2.61016e-08
-5.82629e-07
-3.34485e-08
-5.72636e-07
-4.06275e-08
-5.60933e-07
-4.75964e-08
-5.47581e-07
-5.43125e-08
-5.32653e-07
-6.07334e-08
-5.1623e-07
-6.68167e-08
-4.98405e-07
-7.25205e-08
-4.7928e-07
-7.78031e-08
-4.58967e-07
-8.2624e-08
-4.37588e-07
-8.69436e-08
-4.15272e-07
-9.07237e-08
-3.92158e-07
-9.39276e-08
-3.68393e-07
-9.65207e-08
-3.44131e-07
-9.84711e-08
-3.19532e-07
-9.97492e-08
-2.94763e-07
-1.00329e-07
-2.69995e-07
-1.00189e-07
-2.45401e-07
-9.931e-08
-2.21159e-07
-9.76803e-08
-1.97445e-07
-9.52929e-08
-1.74437e-07
-9.21475e-08
-1.52308e-07
-8.8252e-08
-1.31226e-07
-8.36233e-08
-1.11352e-07
-7.82892e-08
-9.28356e-08
-7.22902e-08
-7.58142e-08
-6.56826e-08
-6.04068e-08
-5.85411e-08
-4.67116e-08
-5.09633e-08
-3.48008e-08
-4.3075e-08
-2.47167e-08
-3.50367e-08
-1.64664e-08
-2.70518e-08
-1.00173e-08
-1.93776e-08
-5.29301e-09
-1.23376e-08
-2.17057e-09
-6.33487e-09
-4.78855e-10
-1.8687e-09
4.02685e-10
-8.06519e-10
6.40398e-10
-3.35358e-09
5.10293e-09
-7.75962e-09
1.1823e-08
-1.41171e-08
2.00954e-08
-2.24851e-08
2.93762e-08
-3.28868e-08
3.92222e-08
-4.53102e-08
4.92755e-08
-5.97101e-08
5.92513e-08
-7.60119e-08
6.89249e-08
-9.41147e-08
7.81206e-08
-1.13896e-07
8.67028e-08
-1.35213e-07
9.45688e-08
-1.57913e-07
1.01642e-07
-1.81827e-07
1.07869e-07
-2.0678e-07
1.13213e-07
-2.32593e-07
1.17651e-07
-2.59079e-07
1.21174e-07
-2.86056e-07
1.23782e-07
-3.13336e-07
1.25481e-07
-3.40737e-07
1.26288e-07
-3.6808e-07
1.2622e-07
-3.95187e-07
1.25303e-07
-4.21888e-07
1.23565e-07
-4.48019e-07
1.21037e-07
-4.7342e-07
1.17753e-07
-4.97941e-07
1.13748e-07
-5.21437e-07
1.0906e-07
-5.43773e-07
1.03729e-07
-5.64822e-07
9.77942e-08
-5.84463e-07
9.12981e-08
-6.02589e-07
8.42829e-08
-6.19097e-07
7.67923e-08
-6.33897e-07
6.88705e-08
-6.46907e-07
6.05627e-08
-6.58054e-07
5.19149e-08
-6.67277e-07
4.29739e-08
-6.74524e-07
3.3787e-08
-6.79754e-07
2.44027e-08
-6.82934e-07
1.48698e-08
-6.84045e-07
5.23814e-09
-6.83077e-07
-4.4418e-09
-6.80031e-07
-1.41188e-08
-6.74919e-07
-2.37411e-08
-6.67764e-07
-3.32562e-08
-6.58601e-07
-4.26111e-08
-6.47476e-07
-5.17525e-08
-6.34446e-07
-6.06266e-08
-6.19579e-07
-6.91796e-08
-6.02955e-07
-7.73578e-08
-5.84664e-07
-8.51076e-08
-5.64808e-07
-9.2376e-08
-5.43501e-07
-9.91107e-08
-5.20864e-07
-1.0526e-07
-4.97032e-07
-1.10776e-07
-4.72148e-07
-1.15608e-07
-4.46364e-07
-1.19712e-07
-4.19841e-07
-1.23044e-07
-3.92749e-07
-1.25564e-07
-3.65262e-07
-1.27236e-07
-3.37564e-07
-1.28027e-07
-3.09842e-07
-1.27911e-07
-2.82286e-07
-1.26866e-07
-2.55088e-07
-1.24877e-07
-2.28444e-07
-1.21937e-07
-2.02545e-07
-1.18047e-07
-1.7758e-07
-1.13217e-07
-1.53732e-07
-1.07471e-07
-1.31178e-07
-1.00844e-07
-1.1008e-07
-9.33876e-08
-9.05904e-08
-8.51727e-08
-7.284e-08
-7.62915e-08
-5.69406e-08
-6.68627e-08
-4.29786e-08
-5.7037e-08
-3.10116e-08
-4.70037e-08
-2.10649e-08
-3.69985e-08
-1.31286e-08
-2.73139e-08
-7.15552e-09
-1.83106e-08
-3.06105e-09
-1.04293e-08
-7.25241e-10
-4.20452e-09
-3.22557e-10
-1.0568e-09
1.69717e-09
-4.26939e-09
8.31551e-09
-9.68658e-09
1.72402e-08
-1.73452e-08
2.7754e-08
-2.72598e-08
3.92908e-08
-3.94181e-08
5.13805e-08
-5.37798e-08
6.36372e-08
-7.02765e-08
7.5748e-08
-8.88139e-08
8.74623e-08
-1.09274e-07
9.85809e-08
-1.31519e-07
1.08948e-07
-1.55394e-07
1.18443e-07
-1.80728e-07
1.26977e-07
-2.07342e-07
1.34483e-07
-2.35047e-07
1.40918e-07
-2.63648e-07
1.46253e-07
-2.92948e-07
1.50474e-07
-3.22746e-07
1.5358e-07
-3.52845e-07
1.5558e-07
-3.83046e-07
1.56489e-07
-4.13156e-07
1.5633e-07
-4.42985e-07
1.55132e-07
-4.72349e-07
1.52929e-07
-5.01069e-07
1.49757e-07
-5.28974e-07
1.45658e-07
-5.559e-07
1.40674e-07
-5.81693e-07
1.34852e-07
-6.06204e-07
1.2824e-07
-6.29296e-07
1.20886e-07
-6.50839e-07
1.12842e-07
-6.70716e-07
1.04159e-07
-6.88816e-07
9.48923e-08
-7.0504e-07
8.5095e-08
-7.19301e-07
7.4823e-08
-7.31519e-07
6.4133e-08
-7.41627e-07
5.30824e-08
-7.4957e-07
4.17298e-08
-7.55302e-07
3.01345e-08
-7.58789e-07
1.83571e-08
-7.6001e-07
6.45859e-09
-7.58953e-07
-5.4987e-09
-7.5562e-07
-1.74518e-08
-7.50024e-07
-2.93369e-08
-7.42191e-07
-4.10896e-08
-7.32157e-07
-5.26446e-08
-7.19973e-07
-6.39364e-08
-7.05701e-07
-7.48992e-08
-6.89413e-07
-8.54667e-08
-6.71198e-07
-9.55732e-08
-6.51153e-07
-1.05153e-07
-6.29388e-07
-1.14141e-07
-6.06025e-07
-1.22474e-07
-5.81198e-07
-1.30088e-07
-5.5505e-07
-1.36923e-07
-5.27737e-07
-1.42921e-07
-4.99423e-07
-1.48025e-07
-4.70283e-07
-1.52184e-07
-4.40498e-07
-1.55349e-07
-4.10258e-07
-1.57475e-07
-3.79761e-07
-1.58524e-07
-3.49208e-07
-1.58465e-07
-3.18803e-07
-1.57271e-07
-2.88756e-07
-1.54925e-07
-2.59275e-07
-1.51419e-07
-2.30566e-07
-1.46755e-07
-2.02834e-07
-1.40949e-07
-1.76277e-07
-1.34028e-07
-1.51083e-07
-1.26038e-07
-1.27431e-07
-1.17039e-07
-1.05485e-07
-1.07118e-07
-8.53928e-08
-9.63841e-08
-6.72795e-08
-8.4976e-08
-5.12482e-08
-7.30683e-08
-3.7375e-08
-6.08769e-08
-2.5707e-08
-4.86665e-08
-1.62607e-08
-3.67602e-08
-9.02177e-09
-2.55496e-08
-3.94655e-09
-1.55046e-08
-9.66875e-10
-7.1842e-09
-1.28943e-09
-1.29916e-09
2.99633e-09
-5.1663e-09
1.21827e-08
-1.15868e-08
2.36607e-08
-2.05436e-08
3.67108e-08
-3.20063e-08
5.07535e-08
-4.59255e-08
6.52997e-08
-6.22297e-08
7.99414e-08
-8.08249e-08
9.43432e-08
-1.01595e-07
1.08232e-07
-1.24402e-07
1.21389e-07
-1.49093e-07
1.33638e-07
-1.75495e-07
1.44846e-07
-2.03426e-07
1.54908e-07
-2.3269e-07
1.63748e-07
-2.63086e-07
1.71314e-07
-2.94405e-07
1.77572e-07
-3.26438e-07
1.82506e-07
-3.5897e-07
1.86113e-07
-3.9179e-07
1.884e-07
-4.24688e-07
1.89387e-07
-4.57458e-07
1.89099e-07
-4.89897e-07
1.87571e-07
-5.21808e-07
1.8484e-07
-5.53001e-07
1.8095e-07
-5.83295e-07
1.75951e-07
-6.12513e-07
1.69892e-07
-6.40489e-07
1.62829e-07
-6.67067e-07
1.54818e-07
-6.92099e-07
1.45918e-07
-7.15447e-07
1.3619e-07
-7.36984e-07
1.25696e-07
-7.56592e-07
1.14501e-07
-7.74167e-07
1.0267e-07
-7.89613e-07
9.02687e-08
-8.02846e-07
7.73662e-08
-8.13795e-07
6.40312e-08
-8.22399e-07
5.03339e-08
-8.2861e-07
3.63458e-08
-8.32392e-07
2.21393e-08
-8.33722e-07
7.78803e-09
-8.32587e-07
-6.63334e-09
-8.2899e-07
-2.10492e-08
-8.22944e-07
-3.5383e-08
-8.14476e-07
-4.95572e-08
-8.03627e-07
-6.34939e-08
-7.90449e-07
-7.71145e-08
-7.75008e-07
-9.03398e-08
-7.57384e-07
-1.03091e-07
-7.37669e-07
-1.15289e-07
-7.15967e-07
-1.26855e-07
-6.92396e-07
-1.37712e-07
-6.67087e-07
-1.47783e-07
-6.40182e-07
-1.56993e-07
-6.11834e-07
-1.65271e-07
-5.82209e-07
-1.72546e-07
-5.51483e-07
-1.78752e-07
-5.19841e-07
-1.83826e-07
-4.87477e-07
-1.87712e-07
-4.54595e-07
-1.90357e-07
-4.21404e-07
-1.91716e-07
-3.88118e-07
-1.9175e-07
-3.54958e-07
-1.90431e-07
-3.22144e-07
-1.87738e-07
-2.899e-07
-1.83663e-07
-2.58445e-07
-1.7821e-07
-2.27999e-07
-1.71395e-07
-1.98773e-07
-1.63255e-07
-1.70971e-07
-1.5384e-07
-1.44785e-07
-1.43225e-07
-1.20395e-07
-1.31509e-07
-9.79624e-08
-1.18816e-07
-7.76312e-08
-1.05307e-07
-5.95223e-08
-9.11772e-08
-4.37328e-08
-7.66664e-08
-3.03343e-08
-6.20651e-08
-1.93721e-08
-4.77224e-08
-1.08664e-08
-3.40552e-08
-4.81555e-09
-2.15554e-08
-1.2012e-09
-1.07985e-08
-2.49064e-09
-1.53273e-09
4.52906e-09
-6.03884e-09
1.66889e-08
-1.34465e-08
3.10684e-08
-2.36881e-08
4.69524e-08
-3.66889e-08
6.37544e-08
-5.23617e-08
8.09725e-08
-7.06026e-08
9.81824e-08
-9.129e-08
1.15031e-07
-1.14284e-07
1.31226e-07
-1.39426e-07
1.46531e-07
-1.66544e-07
1.60756e-07
-1.95449e-07
1.73751e-07
-2.25943e-07
1.85402e-07
-2.57817e-07
1.95622e-07
-2.90855e-07
2.04351e-07
-3.24835e-07
2.11553e-07
-3.59535e-07
2.17206e-07
-3.94729e-07
2.21306e-07
-4.30192e-07
2.23864e-07
-4.65703e-07
2.24898e-07
-5.01044e-07
2.2444e-07
-5.36e-07
2.22527e-07
-5.70364e-07
2.19204e-07
-6.03935e-07
2.14521e-07
-6.3652e-07
2.08536e-07
-6.67934e-07
2.01306e-07
-6.98001e-07
1.92896e-07
-7.26555e-07
1.83372e-07
-7.5344e-07
1.72803e-07
-7.78511e-07
1.6126e-07
-8.01632e-07
1.48817e-07
-8.22679e-07
1.35549e-07
-8.41542e-07
1.21532e-07
-8.58119e-07
1.06845e-07
-8.72321e-07
9.15688e-08
-8.84073e-07
7.57834e-08
-8.93311e-07
5.95719e-08
-8.99984e-07
4.30184e-08
-9.04053e-07
2.62083e-08
-9.05493e-07
9.22817e-09
-9.04292e-07
-7.83415e-09
-9.00452e-07
-2.48896e-08
-8.93986e-07
-4.18483e-08
-8.84925e-07
-5.8619e-08
-8.73308e-07
-7.51101e-08
-8.59194e-07
-9.1229e-08
-8.42651e-07
-1.06883e-07
-8.23762e-07
-1.21979e-07
-8.02625e-07
-1.36425e-07
-7.79352e-07
-1.50129e-07
-7.54065e-07
-1.62998e-07
-7.26902e-07
-1.74945e-07
-6.98015e-07
-1.85881e-07
-6.67564e-07
-1.95721e-07
-6.35726e-07
-2.04384e-07
-6.02684e-07
-2.11793e-07
-5.68637e-07
-2.17874e-07
-5.33788e-07
-2.22561e-07
-4.98353e-07
-2.25792e-07
-4.62552e-07
-2.27516e-07
-4.26613e-07
-2.27689e-07
-3.90769e-07
-2.26275e-07
-3.55253e-07
-2.23254e-07
-3.20302e-07
-2.18614e-07
-2.86151e-07
-2.12361e-07
-2.5303e-07
-2.04516e-07
-2.21167e-07
-1.95118e-07
-1.9078e-07
-1.84227e-07
-1.62076e-07
-1.71929e-07
-1.3525e-07
-1.58334e-07
-1.10482e-07
-1.43584e-07
-8.79335e-08
-1.27856e-07
-6.77459e-08
-1.11365e-07
-5.00394e-08
-9.4373e-08
-3.49116e-08
-7.71928e-08
-2.24386e-08
-6.01954e-08
-1.26758e-08
-4.3818e-08
-5.66241e-09
-2.85688e-08
-1.42727e-09
-1.50337e-08
-3.91791e-09
-1.7575e-09
6.28656e-09
-6.88506e-09
2.18164e-08
-1.52597e-08
3.94431e-08
-2.67663e-08
5.8459e-08
-4.12879e-08
7.8276e-08
-5.86995e-08
9.83841e-08
-7.88643e-08
1.18347e-07
-1.01632e-07
1.37798e-07
-1.26837e-07
1.56431e-07
-1.54299e-07
1.73993e-07
-1.83826e-07
1.90283e-07
-2.15212e-07
2.05137e-07
-2.48241e-07
2.18431e-07
-2.82691e-07
2.30071e-07
-3.1833e-07
2.39991e-07
-3.54926e-07
2.48148e-07
-3.9224e-07
2.54521e-07
-4.30037e-07
2.59103e-07
-4.6808e-07
2.61907e-07
-5.06136e-07
2.62954e-07
-5.43975e-07
2.62279e-07
-5.81373e-07
2.59925e-07
-6.18111e-07
2.55943e-07
-6.5398e-07
2.5039e-07
-6.88777e-07
2.43332e-07
-7.22307e-07
2.34836e-07
-7.54387e-07
2.24976e-07
-7.84842e-07
2.13827e-07
-8.13508e-07
2.01469e-07
-8.40233e-07
1.87985e-07
-8.64874e-07
1.73459e-07
-8.87304e-07
1.57978e-07
-9.07402e-07
1.41631e-07
-9.25065e-07
1.24509e-07
-9.402e-07
1.06703e-07
-9.52726e-07
8.83092e-08
-9.62576e-07
6.94221e-08
-9.69697e-07
5.01392e-08
-9.74048e-07
3.05593e-08
-9.75602e-07
1.07828e-08
-9.74348e-07
-9.08885e-09
-9.70285e-07
-2.89525e-08
-9.63429e-07
-4.87041e-08
-9.5381e-07
-6.82382e-08
-9.41471e-07
-8.74488e-08
-9.26471e-07
-1.06229e-07
-9.08883e-07
-1.24471e-07
-8.88793e-07
-1.42069e-07
-8.66304e-07
-1.58914e-07
-8.41531e-07
-1.74901e-07
-8.14605e-07
-1.89925e-07
-7.85668e-07
-2.03881e-07
-7.5488e-07
-2.1667e-07
-7.22408e-07
-2.28192e-07
-6.88438e-07
-2.38355e-07
-6.53163e-07
-2.47068e-07
-6.16788e-07
-2.54249e-07
-5.7953e-07
-2.59819e-07
-5.41613e-07
-2.63709e-07
-5.03271e-07
-2.65859e-07
-4.64742e-07
-2.66218e-07
-4.26269e-07
-2.64748e-07
-3.88102e-07
-2.61422e-07
-3.50488e-07
-2.56228e-07
-3.13675e-07
-2.49174e-07
-2.7791e-07
-2.40281e-07
-2.43432e-07
-2.29595e-07
-2.10476e-07
-2.17183e-07
-1.79266e-07
-2.0314e-07
-1.50012e-07
-1.87588e-07
-1.22913e-07
-1.70683e-07
-9.81507e-08
-1.52618e-07
-7.58879e-08
-1.33628e-07
-5.62695e-08
-1.13991e-07
-3.94207e-08
-9.40415e-08
-2.54486e-08
-7.41675e-08
-1.4444e-08
-5.48226e-08
-6.48528e-09
-3.65275e-08
-1.64509e-09
-1.98739e-08
-5.56299e-09
-1.97396e-09
8.26053e-09
-7.70517e-09
2.75476e-08
-1.70247e-08
4.87627e-08
-2.97738e-08
7.12081e-08
-4.57948e-08
9.42969e-08
-6.49258e-08
1.17515e-07
-8.69973e-08
1.40419e-07
-1.11829e-07
1.6263e-07
-1.3923e-07
1.83831e-07
-1.68996e-07
2.0376e-07
-2.00914e-07
2.22201e-07
-2.3476e-07
2.38983e-07
-2.70301e-07
2.53972e-07
-3.07298e-07
2.67068e-07
-3.45507e-07
2.782e-07
-3.8468e-07
2.87321e-07
-4.24567e-07
2.94408e-07
-4.64919e-07
2.99456e-07
-5.0549e-07
3.02477e-07
-5.46034e-07
3.03498e-07
-5.86312e-07
3.02557e-07
-6.2609e-07
2.99702e-07
-6.65139e-07
2.94992e-07
-7.03241e-07
2.88492e-07
-7.40183e-07
2.80275e-07
-7.75764e-07
2.70418e-07
-8.09792e-07
2.59004e-07
-8.42085e-07
2.4612e-07
-8.72472e-07
2.31856e-07
-9.00794e-07
2.16307e-07
-9.26905e-07
1.99569e-07
-9.50668e-07
1.81741e-07
-9.71961e-07
1.62924e-07
-9.90674e-07
1.43222e-07
-1.00671e-06
1.2274e-07
-1.01999e-06
1.01585e-07
-1.03043e-06
7.98682e-08
-1.03799e-06
5.7699e-08
-1.04262e-06
3.51906e-08
-1.0443e-06
1.24575e-08
-1.043e-06
-1.03844e-08
-1.03874e-06
-3.32176e-08
-1.03152e-06
-5.59231e-08
-1.02138e-06
-7.83809e-08
-1.00835e-06
-1.0047e-07
-9.92516e-07
-1.22068e-07
-9.73934e-07
-1.43053e-07
-9.52699e-07
-1.63303e-07
-9.28918e-07
-1.82696e-07
-9.02709e-07
-2.0111e-07
-8.74209e-07
-2.18425e-07
-8.43567e-07
-2.34524e-07
-8.10946e-07
-2.49291e-07
-7.76523e-07
-2.62615e-07
-7.40489e-07
-2.74389e-07
-7.03046e-07
-2.84511e-07
-6.64409e-07
-2.92885e-07
-6.24804e-07
-2.99424e-07
-5.84464e-07
-3.04049e-07
-5.43632e-07
-3.0669e-07
-5.0256e-07
-3.0729e-07
-4.61504e-07
-3.05805e-07
-4.20721e-07
-3.02204e-07
-3.80476e-07
-2.96474e-07
-3.41028e-07
-2.88621e-07
-3.02639e-07
-2.78671e-07
-2.65563e-07
-2.66671e-07
-2.3005e-07
-2.52696e-07
-1.9634e-07
-2.36849e-07
-1.64665e-07
-2.19264e-07
-1.35239e-07
-2.00108e-07
-1.08267e-07
-1.7959e-07
-8.39353e-08
-1.5796e-07
-6.24133e-08
-1.35513e-07
-4.38551e-08
-1.126e-07
-2.8399e-08
-8.96236e-08
-1.61702e-08
-6.70515e-08
-7.28468e-09
-4.54131e-08
-1.85519e-09
-2.53034e-08
-7.41818e-09
-2.18287e-09
1.04434e-08
-8.50076e-09
3.38655e-08
-1.87434e-08
5.90053e-08
-3.27115e-08
8.51761e-08
-5.02088e-08
1.11794e-07
-7.1038e-08
1.38344e-07
-9.49965e-08
1.64377e-07
-1.21875e-07
1.89508e-07
-1.51454e-07
2.13411e-07
-1.83508e-07
2.35814e-07
-2.178e-07
2.56493e-07
-2.54088e-07
2.7527e-07
-2.9212e-07
2.92004e-07
-3.31641e-07
3.06589e-07
-3.72391e-07
3.1895e-07
-4.1411e-07
3.2904e-07
-4.56535e-07
3.36833e-07
-4.99406e-07
3.42326e-07
-5.42462e-07
3.45534e-07
-5.85449e-07
3.46486e-07
-6.28118e-07
3.45226e-07
-6.70225e-07
3.41809e-07
-7.11532e-07
3.363e-07
-7.51813e-07
3.28772e-07
-7.90847e-07
3.19309e-07
-8.28425e-07
3.07995e-07
-8.64347e-07
2.94926e-07
-8.98426e-07
2.80199e-07
-9.30485e-07
2.63915e-07
-9.60358e-07
2.46181e-07
-9.87894e-07
2.27105e-07
-1.01295e-06
2.06799e-07
-1.0354e-06
1.85377e-07
-1.05514e-06
1.62955e-07
-1.07205e-06
1.39654e-07
-1.08606e-06
1.15594e-07
-1.09709e-06
9.08986e-08
-1.10509e-06
6.56925e-08
-1.11e-06
4.01032e-08
-1.1118e-06
1.42597e-08
-1.11048e-06
-1.17071e-08
-1.10603e-06
-3.76648e-08
-1.09847e-06
-6.34794e-08
-1.08784e-06
-8.90154e-08
-1.07417e-06
-1.14136e-07
-1.05754e-06
-1.38705e-07
-1.03801e-06
-1.62583e-07
-1.01568e-06
-1.85633e-07
-9.90658e-07
-2.07716e-07
-9.6307e-07
-2.28698e-07
-9.33054e-07
-2.48441e-07
-9.00764e-07
-2.66814e-07
-8.66369e-07
-2.83686e-07
-8.30053e-07
-2.98931e-07
-7.92012e-07
-3.12429e-07
-7.52458e-07
-3.24066e-07
-7.11611e-07
-3.33732e-07
-6.69707e-07
-3.41328e-07
-6.2699e-07
-3.46767e-07
-5.83711e-07
-3.49968e-07
-5.40134e-07
-3.50868e-07
-4.96525e-07
-3.49414e-07
-4.53155e-07
-3.45573e-07
-4.103e-07
-3.39329e-07
-3.68235e-07
-3.30686e-07
-3.27235e-07
-3.19671e-07
-2.8757e-07
-3.06336e-07
-2.49507e-07
-2.9076e-07
-2.13303e-07
-2.73053e-07
-1.79208e-07
-2.53358e-07
-1.4746e-07
-2.31857e-07
-1.18283e-07
-2.08767e-07
-9.18881e-08
-1.84355e-07
-6.8472e-08
-1.5893e-07
-4.8217e-08
-1.32855e-07
-3.12925e-08
-1.06548e-07
-1.78572e-08
-8.04868e-08
-8.06262e-09
-5.52076e-08
-2.05844e-09
-3.13076e-08
-9.47662e-09
-2.38512e-09
1.28286e-08
-9.27416e-09
4.07546e-08
-2.04193e-08
7.01505e-08
-3.55836e-08
1.0034e-07
-5.45345e-08
1.30745e-07
-7.704e-08
1.6085e-07
-1.02865e-07
1.90203e-07
-1.31772e-07
2.18414e-07
-1.63513e-07
2.45152e-07
-1.97838e-07
2.70139e-07
-2.34488e-07
2.93144e-07
-2.732e-07
3.13982e-07
-3.13705e-07
3.32509e-07
-3.5573e-07
3.48614e-07
-3.99e-07
3.62221e-07
-4.4324e-07
3.7328e-07
-4.88175e-07
3.81768e-07
-5.33532e-07
3.87683e-07
-5.7904e-07
3.91042e-07
-6.24434e-07
3.9188e-07
-6.69454e-07
3.90246e-07
-7.13848e-07
3.86203e-07
-7.57371e-07
3.79822e-07
-7.99786e-07
3.71187e-07
-8.40866e-07
3.60389e-07
-8.80396e-07
3.47525e-07
-9.18169e-07
3.327e-07
-9.53992e-07
3.16021e-07
-9.87681e-07
2.97605e-07
-1.01907e-06
2.77567e-07
-1.04799e-06
2.56031e-07
-1.07431e-06
2.33119e-07
-1.0979e-06
2.08961e-07
-1.11863e-06
1.83687e-07
-1.13641e-06
1.57429e-07
-1.15113e-06
1.30323e-07
-1.16274e-06
1.02506e-07
-1.17117e-06
7.41176e-08
-1.17636e-06
4.53006e-08
-1.1783e-06
1.61987e-08
-1.17697e-06
-1.30422e-08
-1.17236e-06
-4.22742e-08
-1.16449e-06
-7.13477e-08
-1.15339e-06
-1.00112e-07
-1.13912e-06
-1.28413e-07
-1.12172e-06
-1.561e-07
-1.10129e-06
-1.83017e-07
-1.07791e-06
-2.09011e-07
-1.0517e-06
-2.33929e-07
-1.02278e-06