/*--------------------------------*- C++ -*----------------------------------*\
  =========                 |
  \\      /  F ield         | OpenFOAM: The Open Source CFD Toolbox
   \\    /   O peration     | Website:  https://openfoam.org
    \\  /    A nd           | Version:  7
     \\/     M anipulation  |
\*---------------------------------------------------------------------------*/
FoamFile
{
    version     2.0;
    format      ascii;
    class       volVectorField;
    location    "0.25";
    object      U;
}
// * * * * * * * * * * * * * * * * * * * * * * * * * * * * * * * * * * * * * //

dimensions      [0 1 -1 0 0 0 0];

internalField   nonuniform List<vector> 
6400
(
(7.17138e-06 -7.32634e-06 0)
(2.96622e-05 -1.44788e-05 0)
(5.9186e-05 -1.41798e-05 0)
(8.04984e-05 -9.72892e-06 0)
(8.53379e-05 -3.41795e-06 0)
(7.04589e-05 3.5515e-06 0)
(3.4741e-05 1.05672e-05 0)
(-2.17785e-05 1.73126e-05 0)
(-9.83404e-05 2.36267e-05 0)
(-0.000193755 2.94277e-05 0)
(-0.000306577 3.46768e-05 0)
(-0.000435213 3.93589e-05 0)
(-0.000577984 4.34727e-05 0)
(-0.000733171 4.70252e-05 0)
(-0.000899046 5.00283e-05 0)
(-0.00107389 5.24971e-05 0)
(-0.00125602 5.44488e-05 0)
(-0.00144379 5.59018e-05 0)
(-0.00163558 5.68758e-05 0)
(-0.00182985 5.73908e-05 0)
(-0.00202511 5.74671e-05 0)
(-0.00221991 5.71253e-05 0)
(-0.00241289 5.63859e-05 0)
(-0.00260274 5.52695e-05 0)
(-0.0027882 5.37965e-05 0)
(-0.00296811 5.19874e-05 0)
(-0.00314134 4.98625e-05 0)
(-0.00330686 4.74419e-05 0)
(-0.00346368 4.47455e-05 0)
(-0.00361089 4.17934e-05 0)
(-0.00374765 3.86053e-05 0)
(-0.00387319 3.52011e-05 0)
(-0.00398678 3.16008e-05 0)
(-0.00408781 2.78245e-05 0)
(-0.0041757 2.38924e-05 0)
(-0.00424994 1.9825e-05 0)
(-0.00431013 1.56429e-05 0)
(-0.0043559 1.13672e-05 0)
(-0.00438697 7.01949e-06 0)
(-0.00440314 2.62148e-06 0)
(-0.00440428 -1.80448e-06 0)
(-0.00439034 -6.23567e-06 0)
(-0.00436135 -1.06489e-05 0)
(-0.00431741 -1.50205e-05 0)
(-0.00425873 -1.93262e-05 0)
(-0.00418558 -2.35415e-05 0)
(-0.00409832 -2.76412e-05 0)
(-0.00399739 -3.16e-05 0)
(-0.00388332 -3.53921e-05 0)
(-0.00375674 -3.89916e-05 0)
(-0.00361836 -4.23724e-05 0)
(-0.00346896 -4.55081e-05 0)
(-0.00330943 -4.83729e-05 0)
(-0.00314074 -5.09408e-05 0)
(-0.00296395 -5.31862e-05 0)
(-0.00278018 -5.50842e-05 0)
(-0.00259065 -5.66101e-05 0)
(-0.00239666 -5.77402e-05 0)
(-0.00219958 -5.84519e-05 0)
(-0.00200083 -5.87234e-05 0)
(-0.00180193 -5.85342e-05 0)
(-0.00160444 -5.78655e-05 0)
(-0.00140996 -5.66998e-05 0)
(-0.00122016 -5.50215e-05 0)
(-0.00103673 -5.28173e-05 0)
(-0.000861381 -5.0076e-05 0)
(-0.000695848 -4.67894e-05 0)
(-0.000541861 -4.29529e-05 0)
(-0.000401126 -3.85662e-05 0)
(-0.000275308 -3.36352e-05 0)
(-0.000165989 -2.81747e-05 0)
(-7.46301e-05 -2.22144e-05 0)
(-2.49921e-06 -1.5808e-05 0)
(4.94348e-05 -9.05315e-06 0)
(8.06767e-05 -2.12896e-06 0)
(9.14901e-05 4.63079e-06 0)
(8.33187e-05 1.06016e-05 0)
(5.97258e-05 1.4588e-05 0)
(2.92174e-05 1.43464e-05 0)
(6.87016e-06 6.86853e-06 0)
(1.44053e-05 -2.99268e-05 0)
(5.14272e-05 -5.15385e-05 0)
(8.96635e-05 -4.40592e-05 0)
(0.000103362 -1.90588e-05 0)
(7.68053e-05 1.5352e-05 0)
(2.15099e-06 5.41532e-05 0)
(-0.000124297 9.42706e-05 0)
(-0.000303447 0.00013382 0)
(-0.00053425 0.000171644 0)
(-0.000814341 0.000207027 0)
(-0.00114048 0.000239531 0)
(-0.00150887 0.000268892 0)
(-0.00191531 0.000294968 0)
(-0.00235541 0.000317692 0)
(-0.00282466 0.000337054 0)
(-0.00331849 0.000353083 0)
(-0.00383237 0.000365834 0)
(-0.0043618 0.000375385 0)
(-0.00490241 0.000381828 0)
(-0.0054499 0.000385265 0)
(-0.00600013 0.000385809 0)
(-0.00654911 0.000383576 0)
(-0.00709298 0.00037869 0)
(-0.00762807 0.000371276 0)
(-0.00815088 0.000361462 0)
(-0.00865807 0.000349378 0)
(-0.0091465 0.000335155 0)
(-0.00961321 0.000318925 0)
(-0.0100554 0.000300821 0)
(-0.0104705 0.000280977 0)
(-0.0108562 0.000259528 0)
(-0.0112101 0.000236608 0)
(-0.0115304 0.000212355 0)
(-0.0118151 0.000186907 0)
(-0.0120628 0.000160402 0)
(-0.0122719 0.000132983 0)
(-0.0124413 0.000104792 0)
(-0.0125699 7.59752e-05 0)
(-0.0126571 4.66801e-05 0)
(-0.0127022 1.70574e-05 0)
(-0.0127049 -1.27397e-05 0)
(-0.012665 -4.25553e-05 0)
(-0.0125826 -7.22307e-05 0)
(-0.0124582 -0.000101604 0)
(-0.0122922 -0.000130512 0)
(-0.0120854 -0.000158786 0)
(-0.0118389 -0.00018626 0)
(-0.011554 -0.000212761 0)
(-0.0112321 -0.000238118 0)
(-0.0108751 -0.000262158 0)
(-0.010485 -0.000284708 0)
(-0.010064 -0.000305597 0)
(-0.00961455 -0.000324653 0)
(-0.0091395 -0.000341708 0)
(-0.00864176 -0.000356597 0)
(-0.00812453 -0.000369158 0)
(-0.00759123 -0.000379238 0)
(-0.00704548 -0.000386687 0)
(-0.0064911 -0.000391366 0)
(-0.00593208 -0.000393143 0)
(-0.00537261 -0.000391898 0)
(-0.00481699 -0.000387525 0)
(-0.00426966 -0.000379931 0)
(-0.00373517 -0.000369041 0)
(-0.00321813 -0.0003548 0)
(-0.00272319 -0.000337177 0)
(-0.00225498 -0.000316167 0)
(-0.00181808 -0.000291805 0)
(-0.00141695 -0.000264168 0)
(-0.00105584 -0.000233394 0)
(-0.000738667 -0.000199704 0)
(-0.000468907 -0.000163437 0)
(-0.000249349 -0.000125111 0)
(-8.18227e-05 -8.55166e-05 0)
(3.32426e-05 -4.58808e-05 0)
(9.74331e-05 -8.13922e-06 0)
(0.000115128 2.46239e-05 0)
(9.47902e-05 4.74611e-05 0)
(5.25826e-05 5.25362e-05 0)
(1.43424e-05 2.91944e-05 0)
(1.42641e-05 -5.94589e-05 0)
(4.44809e-05 -8.98721e-05 0)
(6.11377e-05 -6.03771e-05 0)
(3.54198e-05 6.82676e-06 0)
(-5.10269e-05 9.63401e-05 0)
(-0.000208415 0.000197516 0)
(-0.000442068 0.000303133 0)
(-0.000753684 0.000408358 0)
(-0.00114223 0.000509969 0)
(-0.00160469 0.000605824 0)
(-0.00213666 0.000694508 0)
(-0.00273274 0.000775106 0)
(-0.00338689 0.00084705 0)
(-0.00409259 0.000910018 0)
(-0.00484309 0.000963866 0)
(-0.00563148 0.00100858 0)
(-0.00645083 0.00104424 0)
(-0.00729422 0.001071 0)
(-0.00815486 0.00108906 0)
(-0.00902608 0.00109869 0)
(-0.0099014 0.00110016 0)
(-0.0107745 0.00109377 0)
(-0.0116395 0.00107986 0)
(-0.0124903 0.00105876 0)
(-0.0133216 0.00103082 0)
(-0.014128 0.000996404 0)
(-0.0149046 0.000955877 0)
(-0.0156466 0.00090961 0)
(-0.0163497 0.00085798 0)
(-0.0170096 0.000801365 0)
(-0.0176226 0.000740152 0)
(-0.0181852 0.000674727 0)
(-0.0186942 0.000605484 0)
(-0.0191467 0.000532819 0)
(-0.0195401 0.000457134 0)
(-0.0198722 0.000378836 0)
(-0.0201411 0.000298339 0)
(-0.0203451 0.000216062 0)
(-0.0204832 0.000132431 0)
(-0.0205543 4.78807e-05 0)
(-0.0205579 -3.71484e-05 0)
(-0.0204939 -0.000122208 0)
(-0.0203624 -0.000206842 0)
(-0.020164 -0.000290586 0)
(-0.0198996 -0.000372972 0)
(-0.0195704 -0.000453523 0)
(-0.0191781 -0.000531757 0)
(-0.0187249 -0.000607189 0)
(-0.0182131 -0.00067933 0)
(-0.0176455 -0.000747691 0)
(-0.0170254 -0.000811785 0)
(-0.0163564 -0.000871124 0)
(-0.0156424 -0.00092523 0)
(-0.0148878 -0.000973629 0)
(-0.0140972 -0.00101586 0)
(-0.0132757 -0.00105148 0)
(-0.0124288 -0.00108006 0)
(-0.0115621 -0.00110119 0)
(-0.0106816 -0.00111448 0)
(-0.00979362 -0.0011196 0)
(-0.00890469 -0.00111621 0)
(-0.00802153 -0.00110405 0)
(-0.00715107 -0.00108289 0)
(-0.00630035 -0.00105254 0)
(-0.00547648 -0.00101291 0)
(-0.00468661 -0.000963965 0)
(-0.0039378 -0.000905759 0)
(-0.00323698 -0.000838471 0)
(-0.00259082 -0.000762422 0)
(-0.00200559 -0.000678123 0)
(-0.00148697 -0.000586338 0)
(-0.00103987 -0.000488181 0)
(-0.00066804 -0.000385258 0)
(-0.000373743 -0.000279886 0)
(-0.000157153 -0.000175428 0)
(-1.56471e-05 -7.67988e-05 0)
(5.7014e-05 8.80628e-06 0)
(7.18492e-05 7.09641e-05 0)
(4.79345e-05 9.48522e-05 0)
(1.46683e-05 5.97637e-05 0)
(1.00378e-05 -8.11777e-05 0)
(2.03455e-05 -0.000104288 0)
(-4.39814e-06 -3.50056e-05 0)
(-9.09509e-05 9.383e-05 0)
(-0.000257452 0.000259461 0)
(-0.000514836 0.000445358 0)
(-0.000869002 0.000639669 0)
(-0.0013219 0.000834041 0)
(-0.00187237 0.00102262 0)
(-0.00251689 0.00120134 0)
(-0.00325016 0.00136738 0)
(-0.00406559 0.00151883 0)
(-0.00495566 0.00165445 0)
(-0.00591219 0.00177346 0)
(-0.00692658 0.00187546 0)
(-0.00798999 0.00196028 0)
(-0.00909346 0.002028 0)
(-0.010228 0.00207882 0)
(-0.0113848 0.00211306 0)
(-0.012555 0.00213117 0)
(-0.0137302 0.00213362 0)
(-0.0149021 0.00212097 0)
(-0.0160625 0.00209382 0)
(-0.0172039 0.0020528 0)
(-0.0183188 0.00199856 0)
(-0.0194002 0.00193179 0)
(-0.0204415 0.00185317 0)
(-0.0214364 0.00176343 0)
(-0.0223788 0.00166327 0)
(-0.0232634 0.00155345 0)
(-0.0240851 0.0014347 0)
(-0.024839 0.00130777 0)
(-0.025521 0.00117343 0)
(-0.0261272 0.00103245 0)
(-0.0266541 0.000885614 0)
(-0.0270988 0.000733713 0)
(-0.0274587 0.000577555 0)
(-0.0277317 0.000417959 0)
(-0.0279161 0.000255756 0)
(-0.0280108 9.17921e-05 0)
(-0.028015 -7.30743e-05 0)
(-0.0279286 -0.00023797 0)
(-0.0277517 -0.000402007 0)
(-0.0274852 -0.000564287 0)
(-0.0271303 -0.000723897 0)
(-0.0266886 -0.000879915 0)
(-0.0261626 -0.00103141 0)
(-0.0255549 -0.00117744 0)
(-0.0248688 -0.00131706 0)
(-0.0241081 -0.00144934 0)
(-0.0232771 -0.00157333 0)
(-0.0223806 -0.0016881 0)
(-0.021424 -0.00179273 0)
(-0.020413 -0.00188632 0)
(-0.0193539 -0.00196799 0)
(-0.0182533 -0.0020369 0)
(-0.0171186 -0.00209223 0)
(-0.0159571 -0.00213322 0)
(-0.014777 -0.00215915 0)
(-0.0135865 -0.00216938 0)
(-0.0123942 -0.00216333 0)
(-0.011209 -0.0021405 0)
(-0.01004 -0.0021005 0)
(-0.0088963 -0.00204305 0)
(-0.00778725 -0.001968 0)
(-0.00672209 -0.00187537 0)
(-0.00570995 -0.00176536 0)
(-0.00475969 -0.00163842 0)
(-0.0038798 -0.00149527 0)
(-0.00307816 -0.00133703 0)
(-0.00236184 -0.00116531 0)
(-0.00173682 -0.000982348 0)
(-0.00120763 -0.000791304 0)
(-0.000776867 -0.000596544 0)
(-0.000444662 -0.000404144 0)
(-0.000207965 -0.000222569 0)
(-5.97777e-05 -6.36029e-05 0)
(1.18372e-05 5.65806e-05 0)
(2.60639e-05 0.00011606 0)
(1.08939e-05 8.37844e-05 0)
(4.00782e-06 -8.69827e-05 0)
(-1.30528e-05 -7.93683e-05 0)
(-9.20572e-05 5.01742e-05 0)
(-0.00025407 0.000259883 0)
(-0.000514925 0.000520379 0)
(-0.000885057 0.000809623 0)
(-0.00137003 0.00111123 0)
(-0.00197147 0.00141321 0)
(-0.00268778 0.00170686 0)
(-0.00351487 0.00198591 0)
(-0.00444662 0.00224585 0)
(-0.00547544 0.00248355 0)
(-0.00659257 0.00269686 0)
(-0.00778846 0.00288438 0)
(-0.00905299 0.00304531 0)
(-0.0103757 0.00317927 0)
(-0.0117459 0.00328621 0)
(-0.0131528 0.00336637 0)
(-0.0145858 0.00342018 0)
(-0.0160343 0.00344824 0)
(-0.0174881 0.00345129 0)
(-0.0189369 0.00343015 0)
(-0.0203711 0.00338573 0)
(-0.0217813 0.00331901 0)
(-0.0231584 0.00323103 0)
(-0.0244939 0.00312284 0)
(-0.0257796 0.00299556 0)
(-0.0270077 0.00285032 0)
(-0.0281709 0.00268828 0)
(-0.0292627 0.00251061 0)
(-0.0302765 0.00231851 0)
(-0.0312067 0.00211321 0)
(-0.032048 0.00189592 0)
(-0.0327957 0.00166791 0)
(-0.0334454 0.00143044 0)
(-0.0339936 0.0011848 0)
(-0.0344371 0.0009323 0)
(-0.0347733 0.000674263 0)
(-0.0350003 0.000412041 0)
(-0.0351165 0.000147003 0)
(-0.0351211 -0.000119457 0)
(-0.0350139 -0.000385926 0)
(-0.0347951 -0.000650967 0)
(-0.0344658 -0.000913126 0)
(-0.0340274 -0.00117093 0)
(-0.0334822 -0.00142289 0)
(-0.0328328 -0.0016675 0)
(-0.0320829 -0.00190326 0)
(-0.0312363 -0.00212864 0)
(-0.0302978 -0.00234214 0)
(-0.0292726 -0.00254224 0)
(-0.0281667 -0.00272746 0)
(-0.0269866 -0.00289634 0)
(-0.0257393 -0.00304742 0)
(-0.0244325 -0.00317933 0)
(-0.0230746 -0.0032907 0)
(-0.0216741 -0.00338028 0)
(-0.0202404 -0.00344684 0)
(-0.0187832 -0.00348928 0)
(-0.0173125 -0.0035066 0)
(-0.0158388 -0.00349791 0)
(-0.0143727 -0.00346247 0)
(-0.0129254 -0.00339971 0)
(-0.0115078 -0.00330925 0)
(-0.0101312 -0.00319095 0)
(-0.00880645 -0.00304491 0)
(-0.00754458 -0.00287158 0)
(-0.00635605 -0.00267179 0)
(-0.00525086 -0.00244684 0)
(-0.00423824 -0.00219864 0)
(-0.00332643 -0.00192987 0)
(-0.00252235 -0.00164419 0)
(-0.00183121 -0.00134659 0)
(-0.00125609 -0.00104378 0)
(-0.00079742 -0.00074479 0)
(-0.000452325 -0.000461759 0)
(-0.000213967 -0.00021099 0)
(-7.07031e-05 -1.40815e-05 0)
(-5.27916e-06 0.000100552 0)
(5.25056e-06 9.30487e-05 0)
(-2.67489e-06 -7.36734e-05 0)
(-5.09587e-05 -7.17482e-06 0)
(-0.000191928 0.000205685 0)
(-0.000438796 0.000516527 0)
(-0.000803664 0.000890429 0)
(-0.00129553 0.00130049 0)
(-0.00191887 0.00172614 0)
(-0.00267441 0.00215188 0)
(-0.00355981 0.00256614 0)
(-0.00457019 0.00296031 0)
(-0.0056986 0.00332809 0)
(-0.00693646 0.00366492 0)
(-0.00827396 0.00396762 0)
(-0.00970033 0.00423403 0)
(-0.0112041 0.00446282 0)
(-0.0127735 0.00465329 0)
(-0.0143962 0.00480524 0)
(-0.01606 0.00491888 0)
(-0.0177528 0.00499473 0)
(-0.0194623 0.00503355 0)
(-0.0211767 0.00503631 0)
(-0.0228842 0.00500415 0)
(-0.0245737 0.00493833 0)
(-0.0262342 0.00484022 0)
(-0.0278552 0.00471127 0)
(-0.0294267 0.004553 0)
(-0.0309392 0.004367 0)
(-0.0323837 0.0041549 0)
(-0.0337517 0.00391836 0)
(-0.0350353 0.00365909 0)
(-0.0362271 0.00337883 0)
(-0.0373205 0.00307934 0)
(-0.0383092 0.00276242 0)
(-0.0391876 0.00242989 0)
(-0.0399509 0.0020836 0)
(-0.0405948 0.00172544 0)
(-0.0411155 0.0013573 0)
(-0.0415102 0.000981138 0)
(-0.0417763 0.000598914 0)
(-0.0419124 0.000212631 0)
(-0.0419173 -0.00017568 0)
(-0.0417908 -0.000563956 0)
(-0.0415333 -0.000950107 0)
(-0.0411458 -0.00133201 0)
(-0.0406304 -0.00170753 0)
(-0.0399894 -0.00207449 0)
(-0.0392261 -0.00243072 0)
(-0.0383446 -0.00277403 0)
(-0.0373497 -0.00310221 0)
(-0.0362467 -0.00341309 0)
(-0.0350419 -0.00370447 0)
(-0.0337421 -0.00397423 0)
(-0.032355 -0.00422023 0)
(-0.0308888 -0.00444041 0)
(-0.0293525 -0.00463278 0)
(-0.0277557 -0.00479541 0)
(-0.0261084 -0.00492647 0)
(-0.0244214 -0.00502427 0)
(-0.022706 -0.00508723 0)
(-0.0209738 -0.00511394 0)
(-0.0192369 -0.0051032 0)
(-0.0175077 -0.00505398 0)
(-0.0157987 -0.00496554 0)
(-0.0141228 -0.00483743 0)
(-0.0124926 -0.00466952 0)
(-0.0109209 -0.00446209 0)
(-0.00941994 -0.0042159 0)
(-0.00800172 -0.00393227 0)
(-0.00667752 -0.00361321 0)
(-0.00545779 -0.00326158 0)
(-0.00435181 -0.00288132 0)
(-0.00336739 -0.00247767 0)
(-0.00251054 -0.00205763 0)
(-0.00178502 -0.00163037 0)
(-0.00119189 -0.00120792 0)
(-0.000729032 -0.00080601 0)
(-0.000390521 -0.000445147 0)
(-0.00016593 -0.000151775 0)
(-4.13614e-05 4.01808e-05 0)
(-1.10516e-06 8.42062e-05 0)
(-9.45129e-06 -4.00069e-05 0)
(-9.06083e-05 0.000116467 0)
(-0.000297614 0.00043778 0)
(-0.000634828 0.000871064 0)
(-0.00110975 0.00137707 0)
(-0.00172925 0.00192483 0)
(-0.00249612 0.00249008 0)
(-0.00340972 0.00305411 0)
(-0.00446659 0.00360259 0)
(-0.00566086 0.00412462 0)
(-0.00698461 0.00461204 0)
(-0.00842828 0.0050588 0)
(-0.009981 0.00546059 0)
(-0.0116309 0.00581439 0)
(-0.0133653 0.00611828 0)
(-0.0151712 0.00637115 0)
(-0.017035 0.00657261 0)
(-0.0189432 0.00672277 0)
(-0.0208821 0.00682223 0)
(-0.0228383 0.00687189 0)
(-0.0247983 0.00687299 0)
(-0.0267492 0.00682697 0)
(-0.0286784 0.00673546 0)
(-0.0305735 0.00660027 0)
(-0.0324228 0.00642332 0)
(-0.034215 0.00620664 0)
(-0.0359393 0.00595233 0)
(-0.0375857 0.00566259 0)
(-0.0391445 0.00533967 0)
(-0.0406069 0.00498586 0)
(-0.0419644 0.00460353 0)
(-0.0432096 0.00419507 0)
(-0.0443354 0.00376292 0)
(-0.0453355 0.00330956 0)
(-0.0462044 0.0028375 0)
(-0.0469371 0.00234932 0)
(-0.0475297 0.00184761 0)
(-0.0479786 0.00133502 0)
(-0.0482813 0.000814222 0)
(-0.0484358 0.000287951 0)
(-0.048441 -0.000241028 0)
(-0.0482967 -0.000769908 0)
(-0.0480033 -0.00129584 0)
(-0.0475621 -0.00181595 0)
(-0.0469751 -0.00232732 0)
(-0.0462453 -0.00282702 0)
(-0.0453763 -0.00331208 0)
(-0.0443728 -0.00377954 0)
(-0.04324 -0.00422642 0)
(-0.0419842 -0.00464977 0)
(-0.0406123 -0.00504664 0)
(-0.0391322 -0.00541414 0)
(-0.0375524 -0.00574941 0)
(-0.0358822 -0.00604969 0)
(-0.0341317 -0.00631228 0)
(-0.0323117 -0.00653462 0)
(-0.0304335 -0.00671428 0)
(-0.0285093 -0.00684898 0)
(-0.0265516 -0.00693665 0)
(-0.0245736 -0.00697546 0)
(-0.0225886 -0.00696381 0)
(-0.0206106 -0.00690043 0)
(-0.0186536 -0.00678438 0)
(-0.0167319 -0.00661514 0)
(-0.0148595 -0.00639267 0)
(-0.0130506 -0.00611744 0)
(-0.0113189 -0.00579061 0)
(-0.00967754 -0.00541408 0)
(-0.00813906 -0.00499065 0)
(-0.006715 -0.00452426 0)
(-0.00541567 -0.00402019 0)
(-0.00424985 -0.0034854 0)
(-0.00322445 -0.00292891 0)
(-0.00234414 -0.00236239 0)
(-0.00161099 -0.00180077 0)
(-0.00102413 -0.0012631 0)
(-0.000579111 -0.000773657 0)
(-0.000267419 -0.00036301 0)
(-7.93864e-05 -6.94579e-05 0)
(-7.59877e-06 5.58876e-05 0)
(-1.60586e-05 1.42779e-05 0)
(-0.000130437 0.000293385 0)
(-0.000405141 0.000749719 0)
(-0.000835414 0.00132767 0)
(-0.00142372 0.0019848 0)
(-0.00217432 0.00268691 0)
(-0.00308791 0.00340663 0)
(-0.00416206 0.00412239 0)
(-0.0053919 0.00481733 0)
(-0.00677033 0.00547839 0)
(-0.00828832 0.00609558 0)
(-0.00993524 0.00666139 0)
(-0.0116992 0.00717031 0)
(-0.0135671 0.00761845 0)
(-0.0155254 0.0080032 0)
(-0.0175596 0.00832305 0)
(-0.0196553 0.00857732 0)
(-0.0217975 0.00876604 0)
(-0.0239715 0.00888984 0)
(-0.0261624 0.00894978 0)
(-0.0283556 0.00894733 0)
(-0.0305371 0.00888426 0)
(-0.0326928 0.00876262 0)
(-0.0348093 0.00858465 0)
(-0.0368737 0.00835278 0)
(-0.0388735 0.0080696 0)
(-0.0407969 0.00773778 0)
(-0.0426329 0.00736015 0)
(-0.0443707 0.00693958 0)
(-0.0460006 0.00647905 0)
(-0.0475134 0.00598158 0)
(-0.0489007 0.00545029 0)
(-0.0501547 0.00488832 0)
(-0.0512686 0.00429889 0)
(-0.0522363 0.00368527 0)
(-0.0530522 0.00305078 0)
(-0.0537119 0.00239879 0)
(-0.0542117 0.00173274 0)
(-0.0545486 0.0010561 0)
(-0.0547206 0.000372421 0)
(-0.0547264 -0.000314717 0)
(-0.0545657 -0.00100167 0)
(-0.054239 -0.00168476 0)
(-0.0537477 -0.00236024 0)
(-0.0530943 -0.00302435 0)
(-0.0522817 -0.00367329 0)
(-0.0513143 -0.00430323 0)
(-0.0501969 -0.00491035 0)
(-0.0489355 -0.0054908 0)
(-0.047537 -0.00604078 0)
(-0.046009 -0.00655649 0)
(-0.0443601 -0.00703421 0)
(-0.0425998 -0.00747027 0)
(-0.0407383 -0.00786113 0)
(-0.0387867 -0.00820334 0)
(-0.0367569 -0.00849362 0)
(-0.0346613 -0.00872887 0)
(-0.0325132 -0.00890622 0)
(-0.0303265 -0.00902305 0)
(-0.0281155 -0.00907703 0)
(-0.0258949 -0.00906621 0)
(-0.0236799 -0.00898901 0)
(-0.0214859 -0.00884433 0)
(-0.0193284 -0.00863159 0)
(-0.0172228 -0.00835083 0)
(-0.0151845 -0.0080028 0)
(-0.0132284 -0.00758907 0)
(-0.011369 -0.00711218 0)
(-0.00961976 -0.00657582 0)
(-0.00799343 -0.00598504 0)
(-0.00650137 -0.00534652 0)
(-0.00515339 -0.00466893 0)
(-0.00395748 -0.00396336 0)
(-0.00291947 -0.00324383 0)
(-0.00204275 -0.00252796 0)
(-0.00132806 -0.00183784 0)
(-0.000772909 -0.00120098 0)
(-0.000371132 -0.000651302 0)
(-0.000117748 -0.00023039 0)
(-1.3954e-05 7.73839e-06 0)
(-2.2387e-05 8.88873e-05 0)
(-0.000169597 0.000523869 0)
(-0.000512126 0.00114266 0)
(-0.00103626 0.00188821 0)
(-0.0017393 0.00271592 0)
(-0.00262264 0.00358909 0)
(-0.00368453 0.00447782 0)
(-0.00492051 0.00535813 0)
(-0.00632401 0.0062109 0)
(-0.00788648 0.0070211 0)
(-0.00959764 0.00777701 0)
(-0.0114457 0.00846972 0)
(-0.0134175 0.00909254 0)
(-0.0154992 0.00964068 0)
(-0.0176758 0.0101109 0)
(-0.0199319 0.0105012 0)
(-0.0222519 0.0108106 0)
(-0.0246198 0.011039 0)
(-0.0270197 0.0111871 0)
(-0.0294356 0.0112562 0)
(-0.0318519 0.0112478 0)
(-0.0342531 0.0111642 0)
(-0.0366245 0.0110077 0)
(-0.0389513 0.0107812 0)
(-0.0412196 0.0104876 0)
(-0.0434161 0.01013 0)
(-0.0455279 0.00971177 0)
(-0.0475428 0.0092364 0)
(-0.0494496 0.00870745 0)
(-0.0512375 0.0081286 0)
(-0.0528966 0.00750364 0)
(-0.0544177 0.00683644 0)
(-0.0557926 0.00613093 0)
(-0.0570137 0.00539112 0)
(-0.0580742 0.00462111 0)
(-0.0589685 0.00382504 0)
(-0.0596916 0.00300714 0)
(-0.0602394 0.0021717 0)
(-0.0606087 0.00132309 0)
(-0.0607973 0.000465712 0)
(-0.060804 -0.000395933 0)
(-0.0606282 -0.0012573 0)
(-0.0602707 -0.00211377 0)
(-0.0597329 -0.00296069 0)
(-0.0590174 -0.00379336 0)
(-0.0581275 -0.00460703 0)
(-0.0570679 -0.00539693 0)
(-0.0558439 -0.0061583 0)
(-0.054462 -0.00688634 0)
(-0.0529295 -0.00757633 0)
(-0.0512548 -0.00822356 0)
(-0.0494471 -0.00882338 0)
(-0.0475167 -0.00937127 0)
(-0.0454748 -0.00986282 0)
(-0.0433331 -0.0102938 0)
(-0.0411047 -0.0106601 0)
(-0.0388029 -0.010958 0)
(-0.0364422 -0.0111838 0)
(-0.0340374 -0.0113345 0)
(-0.0316039 -0.0114072 0)
(-0.0291579 -0.0113995 0)
(-0.0267154 -0.0113095 0)
(-0.0242932 -0.011136 0)
(-0.0219079 -0.0108783 0)
(-0.0195762 -0.0105366 0)
(-0.0173146 -0.0101119 0)
(-0.0151391 -0.00960624 0)
(-0.0130654 -0.00902284 0)
(-0.0111081 -0.00836626 0)
(-0.00928112 -0.00764271 0)
(-0.00759685 -0.00686028 0)
(-0.00606631 -0.00602931 0)
(-0.00469872 -0.00516284 0)
(-0.00350129 -0.00427712 0)
(-0.002479 -0.00339222 0)
(-0.00163451 -0.00253287 0)
(-0.000967554 -0.00172929 0)
(-0.000474625 -0.00101805 0)
(-0.000155564 -0.000443074 0)
(-2.00506e-05 -6.00141e-05 0)
(-2.84031e-05 0.000183245 0)
(-0.000207664 0.000807293 0)
(-0.00061721 0.00161639 0)
(-0.00123476 0.00255299 0)
(-0.0020525 0.0035711 0)
(-0.00306884 0.00463223 0)
(-0.00427943 0.00570449 0)
(-0.00567753 0.00676186 0)
(-0.00725467 0.00778332 0)
(-0.0090007 0.00875205 0)
(-0.0109039 0.00965482 0)
(-0.0129512 0.0104813 0)
(-0.0151283 0.0112239 0)
(-0.01742 0.0118767 0)
(-0.0198105 0.012436 0)
(-0.0222833 0.0128993 0)
(-0.0248216 0.0132653 0)
(-0.0274084 0.0135339 0)
(-0.0300268 0.0137056 0)
(-0.0326597 0.013782 0)
(-0.0352905 0.0137649 0)
(-0.0379028 0.0136569 0)
(-0.0404807 0.0134608 0)
(-0.0430086 0.0131799 0)
(-0.0454716 0.0128176 0)
(-0.0478554 0.0123779 0)
(-0.0501465 0.0118646 0)
(-0.0523317 0.0112819 0)
(-0.0543989 0.0106343 0)
(-0.0563368 0.00992606 0)
(-0.0581346 0.00916184 0)
(-0.0597826 0.00834631 0)
(-0.061272 0.00748426 0)
(-0.0625946 0.00658056 0)
(-0.0637433 0.00564017 0)
(-0.0647119 0.00466815 0)
(-0.0654951 0.00366964 0)
(-0.0660885 0.00264984 0)
(-0.0664889 0.00161407 0)
(-0.0666937 0.000567696 0)
(-0.0667016 -0.000483818 0)
(-0.0665121 -0.00153494 0)
(-0.066126 -0.00258008 0)
(-0.0655448 -0.00361357 0)
(-0.0647712 -0.00462971 0)
(-0.0638089 -0.00562273 0)
(-0.0626627 -0.00658685 0)
(-0.0613384 -0.00751629 0)
(-0.0598428 -0.00840527 0)
(-0.0581839 -0.00924804 0)
(-0.0563706 -0.0100389 0)
(-0.0544127 -0.0107723 0)
(-0.0523211 -0.0114427 0)
(-0.0501078 -0.0120448 0)
(-0.0477855 -0.0125734 0)
(-0.0453679 -0.0130238 0)
(-0.0428693 -0.0133914 0)
(-0.0403051 -0.0136718 0)
(-0.0376912 -0.0138614 0)
(-0.035044 -0.0139566 0)
(-0.0323806 -0.0139548 0)
(-0.0297184 -0.0138537 0)
(-0.027075 -0.0136519 0)
(-0.0244682 -0.0133486 0)
(-0.0219159 -0.0129442 0)
(-0.0194355 -0.01244 0)
(-0.0170445 -0.0118383 0)
(-0.0147594 -0.0111432 0)
(-0.0125961 -0.0103601 0)
(-0.0105697 -0.00949635 0)
(-0.00869372 -0.00856135 0)
(-0.00698053 -0.00756707 0)
(-0.00544073 -0.00652837 0)
(-0.00408309 -0.00546352 0)
(-0.0029144 -0.00439481 0)
(-0.00193944 -0.00334921 0)
(-0.00116039 -0.00235916 0)
(-0.0005765 -0.00146326 0)
(-0.000192385 -0.000707034 0)
(-2.58488e-05 -0.000146847 0)
(-3.41109e-05 0.000296658 0)
(-0.000244461 0.00114253 0)
(-0.00071969 0.00216987 0)
(-0.00142942 0.00332125 0)
(-0.00236092 0.00454992 0)
(-0.00350961 0.00581613 0)
(-0.0048684 0.00708649 0)
(-0.00642818 0.00833335 0)
(-0.0081784 0.00953408 0)
(-0.0101072 0.0106703 0)
(-0.0122012 0.0117275 0)
(-0.014446 0.0126941 0)
(-0.016826 0.0135615 0)
(-0.019325 0.014323 0)
(-0.0219258 0.0149742 0)
(-0.024611 0.0155123 0)
(-0.0273627 0.0159357 0)
(-0.0301629 0.0162442 0)
(-0.0329937 0.0164384 0)
(-0.0358371 0.0165199 0)
(-0.0386755 0.016491 0)
(-0.0414915 0.0163544 0)
(-0.0442684 0.0161135 0)
(-0.0469898 0.0157722 0)
(-0.0496398 0.0153345 0)
(-0.0522033 0.0148049 0)
(-0.054666 0.014188 0)
(-0.057014 0.0134889 0)
(-0.0592346 0.0127126 0)
(-0.0613157 0.0118643 0)
(-0.0632459 0.0109495 0)
(-0.065015 0.00997384 0)
(-0.0666135 0.00894288 0)
(-0.068033 0.00786244 0)
(-0.0692658 0.00673843 0)
(-0.0703054 0.00557685 0)
(-0.0711461 0.00438381 0)
(-0.0717835 0.00316551 0)
(-0.0722138 0.00192825 0)
(-0.0724345 0.000678426 0)
(-0.0724442 -0.000577473 0)
(-0.0722424 -0.00183288 0)
(-0.0718297 -0.00308113 0)
(-0.0712079 -0.00431552 0)
(-0.0703798 -0.00552926 0)
(-0.0693493 -0.00671551 0)
(-0.0681215 -0.00786743 0)
(-0.0667024 -0.00897815 0)
(-0.0650993 -0.0100408 0)
(-0.0633205 -0.0110486 0)
(-0.0613755 -0.0119948 0)
(-0.0592747 -0.0128728 0)
(-0.0570295 -0.0136761 0)
(-0.0546527 -0.0143985 0)
(-0.0521575 -0.0150338 0)
(-0.0495585 -0.0155763 0)
(-0.0468709 -0.0160207 0)
(-0.0441109 -0.016362 0)
(-0.0412952 -0.0165957 0)
(-0.0384412 -0.0167178 0)
(-0.0355671 -0.0167252 0)
(-0.0326911 -0.0166152 0)
(-0.029832 -0.0163862 0)
(-0.0270086 -0.0160375 0)
(-0.0242399 -0.0155693 0)
(-0.0215444 -0.0149833 0)
(-0.0189406 -0.0142824 0)
(-0.0164463 -0.0134712 0)
(-0.0140786 -0.012556 0)
(-0.0118537 -0.0115452 0)
(-0.00978653 -0.0104495 0)
(-0.00789083 -0.0092823 0)
(-0.00617876 -0.00806026 0)
(-0.00466079 -0.00680342 0)
(-0.00334569 -0.00553597 0)
(-0.0022405 -0.00428679 0)
(-0.00134995 -0.00309014 0)
(-0.000676043 -0.00198612 0)
(-0.000228024 -0.00102128 0)
(-3.13488e-05 -0.000252112 0)
(-3.95321e-05 0.000428408 0)
(-0.000279956 0.0015282 0)
(-0.000819283 0.00280157 0)
(-0.00161954 0.00419159 0)
(-0.0026633 0.0056512 0)
(-0.00394305 0.00713985 0)
(-0.00544897 0.00862303 0)
(-0.00716944 0.0100718 0)
(-0.00909178 0.0114623 0)
(-0.0112022 0.0127748 0)
(-0.0134858 0.0139937 0)
(-0.0159265 0.0151062 0)
(-0.0185075 0.0161029 0)
(-0.0212112 0.0169766 0)
(-0.0240194 0.0177221 0)
(-0.0269135 0.0183362 0)
(-0.0298747 0.0188173 0)
(-0.0328838 0.0191649 0)
(-0.0359221 0.0193798 0)
(-0.0389707 0.0194638 0)
(-0.042011 0.0194194 0)
(-0.0450249 0.0192499 0)
(-0.0479947 0.0189591 0)
(-0.0509031 0.0185512 0)
(-0.0537337 0.0180312 0)
(-0.0564705 0.0174041 0)
(-0.0590985 0.0166753 0)
(-0.0616033 0.0158506 0)
(-0.0639713 0.0149359 0)
(-0.0661899 0.0139373 0)
(-0.0682472 0.0128612 0)
(-0.0701325 0.011714 0)
(-0.0718359 0.0105023 0)
(-0.0733483 0.00923284 0)
(-0.074662 0.00791259 0)
(-0.0757698 0.0065485 0)
(-0.0766661 0.00514771 0)
(-0.0773459 0.00371747 0)
(-0.0778054 0.00226512 0)
(-0.078042 0.000798122 0)
(-0.0780541 -0.000675945 0)
(-0.0778413 -0.00214942 0)
(-0.0774041 -0.00361453 0)
(-0.0767443 -0.00506346 0)
(-0.075865 -0.00648829 0)
(-0.0747701 -0.00788106 0)
(-0.073465 -0.00923379 0)
(-0.071956 -0.0105385 0)
(-0.0702507 -0.0117871 0)
(-0.0683578 -0.0129719 0)
(-0.0662871 -0.0140848 0)
(-0.0640495 -0.0151183 0)
(-0.0616573 -0.0160647 0)
(-0.0591233 -0.0169168 0)
(-0.0564619 -0.0176676 0)
(-0.0536881 -0.0183105 0)
(-0.0508179 -0.018839 0)
(-0.0478682 -0.0192476 0)
(-0.0448566 -0.019531 0)
(-0.0418015 -0.0196847 0)
(-0.0387218 -0.019705 0)
(-0.0356368 -0.0195889 0)
(-0.0325663 -0.0193344 0)
(-0.02953 -0.0189408 0)
(-0.026548 -0.0184085 0)
(-0.0236401 -0.0177392 0)
(-0.0208256 -0.0169364 0)
(-0.0181237 -0.0160052 0)
(-0.0155527 -0.0149528 0)
(-0.01313 -0.0137885 0)
(-0.0108721 -0.0125242 0)
(-0.00879421 -0.0111748 0)
(-0.0069101 -0.00975838 0)
(-0.00523213 -0.00829656 0)
(-0.00377113 -0.00681522 0)
(-0.0025365 -0.00534486 0)
(-0.00153554 -0.00392116 0)
(-0.000772982 -0.00258534 0)
(-0.000262449 -0.00138458 0)
(-3.65714e-05 -0.000375134 0)
(-4.46961e-05 0.0005778 0)
(-0.000314202 0.00196287 0)
(-0.000915968 0.00350976 0)
(-0.00180489 0.00516227 0)
(-0.00295913 0.00687334 0)
(-0.00436831 0.00860196 0)
(-0.00601989 0.0103129 0)
(-0.00789975 0.0119761 0)
(-0.00999299 0.0135669 0)
(-0.0122838 0.0150643 0)
(-0.0147556 0.0164518 0)
(-0.0173907 0.0177159 0)
(-0.0201709 0.0188462 0)
(-0.0230773 0.0198349 0)
(-0.0260905 0.0206766 0)
(-0.0291907 0.0213676 0)
(-0.0323581 0.0219061 0)
(-0.0355726 0.0222917 0)
(-0.0388145 0.0225253 0)
(-0.0420639 0.0226088 0)
(-0.0453015 0.0225452 0)
(-0.0485084 0.022338 0)
(-0.0516659 0.0219918 0)
(-0.0547563 0.0215112 0)
(-0.0577622 0.020902 0)
(-0.060667 0.0201697 0)
(-0.0634551 0.0193208 0)
(-0.0661115 0.0183617 0)
(-0.068622 0.0172992 0)
(-0.0709734 0.0161403 0)
(-0.0731536 0.0148922 0)
(-0.0751511 0.0135625 0)
(-0.0769556 0.0121587 0)
(-0.0785579 0.0106885 0)
(-0.0799497 0.00915996 0)
(-0.0811237 0.007581 0)
(-0.0820739 0.00595985 0)
(-0.0827951 0.00430484 0)
(-0.0832834 0.00262442 0)
(-0.0835361 0.000927164 0)
(-0.0835514 -0.000778222 0)
(-0.0833288 -0.00248293 0)
(-0.082869 -0.00417806 0)
(-0.0821738 -0.00585459 0)
(-0.0812462 -0.00750345 0)
(-0.0800904 -0.0091155 0)
(-0.0787119 -0.0106816 0)
(-0.0771173 -0.0121925 0)
(-0.0753144 -0.0136391 0)
(-0.0733122 -0.0150123 0)
(-0.0711211 -0.0163031 0)
(-0.0687523 -0.0175027 0)
(-0.0662183 -0.0186024 0)
(-0.0635329 -0.0195939 0)
(-0.0607107 -0.0204691 0)
(-0.0577674 -0.0212204 0)
(-0.0547199 -0.0218407 0)
(-0.0515856 -0.0223233 0)
(-0.048383 -0.0226623 0)
(-0.0451312 -0.0228526 0)
(-0.04185 -0.0228899 0)
(-0.0385597 -0.0227708 0)
(-0.0352809 -0.022493 0)
(-0.0320346 -0.0220558 0)
(-0.0288416 -0.0214593 0)
(-0.025723 -0.0207058 0)
(-0.0226993 -0.0197988 0)
(-0.0197908 -0.0187442 0)
(-0.0170173 -0.0175497 0)
(-0.0143974 -0.0162257 0)
(-0.0119491 -0.0147853 0)
(-0.00968934 -0.0132443 0)
(-0.0076336 -0.0116223 0)
(-0.00579618 -0.00994236 0)
(-0.00419007 -0.00823174 0)
(-0.00282707 -0.00652229 0)
(-0.00171703 -0.00485084 0)
(-0.000867333 -0.00325946 0)
(-0.000295724 -0.00179565 0)
(-4.15472e-05 -0.000515264 0)
(-4.96352e-05 0.000744197 0)
(-0.0003473 0.00244514 0)
(-0.00100989 0.00429266 0)
(-0.00198561 0.0062314 0)
(-0.00324844 0.00821453 0)
(-0.00478525 0.0102008 0)
(-0.00658086 0.0121545 0)
(-0.00861862 0.0140449 0)
(-0.0108814 0.0158464 0)
(-0.0133514 0.0175375 0)
(-0.01601 0.0191006 0)
(-0.0188381 0.0205216 0)
(-0.021816 0.0217895 0)
(-0.0249232 0.0228961 0)
(-0.0281393 0.0238355 0)
(-0.0314433 0.0246038 0)
(-0.0348143 0.0251992 0)
(-0.0382313 0.0256213 0)
(-0.0416735 0.0258711 0)
(-0.0451203 0.0259509 0)
(-0.0485515 0.0258639 0)
(-0.0519474 0.0256143 0)
(-0.0552886 0.025207 0)
(-0.0585566 0.0246475 0)
(-0.0617334 0.023942 0)
(-0.064802 0.0230971 0)
(-0.0677459 0.0221198 0)
(-0.0705496 0.0210175 0)
(-0.0731985 0.0197979 0)
(-0.075679 0.0184689 0)
(-0.0779782 0.0170389 0)
(-0.0800847 0.015516 0)
(-0.0819875 0.0139091 0)
(-0.0836771 0.0122269 0)
(-0.0851449 0.0104784 0)
(-0.0863834 0.00867271 0)
(-0.0873863 0.0068191 0)
(-0.0881483 0.00492705 0)
(-0.0886652 0.00300613 0)
(-0.0889343 0.00106608 0)
(-0.0889536 -0.000883236 0)
(-0.0887226 -0.00283182 0)
(-0.088242 -0.00476958 0)
(-0.0875136 -0.00668629 0)
(-0.0865405 -0.00857166 0)
(-0.085327 -0.0104153 0)
(-0.0838787 -0.0122069 0)
(-0.0822023 -0.013936 0)
(-0.080306 -0.0155922 0)
(-0.078199 -0.0171652 0)
(-0.0758919 -0.0186448 0)
(-0.0733965 -0.020021 0)