/*--------------------------------*- C++ -*----------------------------------*\
  =========                 |
  \\      /  F ield         | OpenFOAM: The Open Source CFD Toolbox
   \\    /   O peration     | Website:  https://openfoam.org
    \\  /    A nd           | Version:  7
     \\/     M anipulation  |
\*---------------------------------------------------------------------------*/
FoamFile
{
    version     2.0;
    format      ascii;
    class       volVectorField;
    location    "0.2625";
    object      U;
}
// * * * * * * * * * * * * * * * * * * * * * * * * * * * * * * * * * * * * * //

dimensions      [0 1 -1 0 0 0 0];

internalField   nonuniform List<vector> 
25600
(
(2.8589e-07 -2.75199e-07 0)
(2.87134e-06 -1.70111e-06 0)
(8.52378e-06 -2.55413e-06 0)
(1.53771e-05 -2.79567e-06 0)
(2.20585e-05 -2.63046e-06 0)
(2.7724e-05 -2.20967e-06 0)
(3.18086e-05 -1.63144e-06 0)
(3.39358e-05 -9.60297e-07 0)
(3.38706e-05 -2.36958e-07 0)
(3.14719e-05 5.09914e-07 0)
(2.66665e-05 1.26386e-06 0)
(1.94315e-05 2.0114e-06 0)
(9.77709e-06 2.74489e-06 0)
(-2.26028e-06 3.45847e-06 0)
(-1.66242e-05 4.14844e-06 0)
(-3.32452e-05 4.81092e-06 0)
(-5.20431e-05 5.44532e-06 0)
(-7.293e-05 6.04904e-06 0)
(-9.58135e-05 6.62181e-06 0)
(-0.000120596 7.16391e-06 0)
(-0.000147179 7.67453e-06 0)
(-0.000175463 8.15389e-06 0)
(-0.000205345 8.60277e-06 0)
(-0.000236725 9.02082e-06 0)
(-0.000269504 9.40873e-06 0)
(-0.000303581 9.76785e-06 0)
(-0.000338859 1.00982e-05 0)
(-0.000375242 1.04002e-05 0)
(-0.000412636 1.06751e-05 0)
(-0.000450947 1.09233e-05 0)
(-0.000490085 1.11453e-05 0)
(-0.000529961 1.13424e-05 0)
(-0.00057049 1.15152e-05 0)
(-0.000611587 1.16637e-05 0)
(-0.000653169 1.17891e-05 0)
(-0.000695157 1.18922e-05 0)
(-0.000737473 1.19733e-05 0)
(-0.00078004 1.2033e-05 0)
(-0.000822785 1.20721e-05 0)
(-0.000865635 1.20909e-05 0)
(-0.00090852 1.20897e-05 0)
(-0.000951371 1.20697e-05 0)
(-0.000994122 1.2032e-05 0)
(-0.00103671 1.19765e-05 0)
(-0.00107906 1.19033e-05 0)
(-0.00112113 1.18128e-05 0)
(-0.00116284 1.1705e-05 0)
(-0.00120414 1.15803e-05 0)
(-0.00124497 1.14397e-05 0)
(-0.00128527 1.1284e-05 0)
(-0.00132499 1.11133e-05 0)
(-0.00136407 1.09273e-05 0)
(-0.00140247 1.07264e-05 0)
(-0.00144012 1.0511e-05 0)
(-0.00147697 1.02811e-05 0)
(-0.00151298 1.00373e-05 0)
(-0.0015481 9.77982e-06 0)
(-0.00158227 9.50892e-06 0)
(-0.00161545 9.22484e-06 0)
(-0.00164759 8.92764e-06 0)
(-0.00167865 8.61762e-06 0)
(-0.00170858 8.29532e-06 0)
(-0.00173734 7.96076e-06 0)
(-0.00176488 7.61424e-06 0)
(-0.00179117 7.25609e-06 0)
(-0.00181616 6.88631e-06 0)
(-0.00183981 6.50541e-06 0)
(-0.00186208 6.11375e-06 0)
(-0.00188294 5.71156e-06 0)
(-0.00190235 5.29946e-06 0)
(-0.00192028 4.87749e-06 0)
(-0.00193668 4.44586e-06 0)
(-0.00195154 4.00541e-06 0)
(-0.00196482 3.5565e-06 0)
(-0.00197649 3.09952e-06 0)
(-0.00198652 2.63516e-06 0)
(-0.00199489 2.16368e-06 0)
(-0.00200158 1.68549e-06 0)
(-0.00200656 1.20148e-06 0)
(-0.00200982 7.12177e-07 0)
(-0.00201134 2.18089e-07 0)
(-0.0020111 -2.7994e-07 0)
(-0.00200909 -7.81232e-07 0)
(-0.00200531 -1.28526e-06 0)
(-0.00199974 -1.79112e-06 0)
(-0.00199239 -2.29782e-06 0)
(-0.00198324 -2.80468e-06 0)
(-0.00197231 -3.31102e-06 0)
(-0.00195959 -3.81592e-06 0)
(-0.0019451 -4.31853e-06 0)
(-0.00192885 -4.81807e-06 0)
(-0.00191084 -5.31333e-06 0)
(-0.0018911 -5.80307e-06 0)
(-0.00186965 -6.28657e-06 0)
(-0.00184651 -6.76301e-06 0)
(-0.00182171 -7.23118e-06 0)
(-0.00179528 -7.69014e-06 0)
(-0.00176726 -8.13909e-06 0)
(-0.00173768 -8.57675e-06 0)
(-0.00170659 -9.00185e-06 0)
(-0.00167403 -9.41358e-06 0)
(-0.00164006 -9.81097e-06 0)
(-0.00160472 -1.01928e-05 0)
(-0.00156807 -1.0558e-05 0)
(-0.00153017 -1.09058e-05 0)
(-0.00149108 -1.12352e-05 0)
(-0.00145088 -1.1545e-05 0)
(-0.00140963 -1.18342e-05 0)
(-0.00136741 -1.21021e-05 0)
(-0.00132429 -1.23476e-05 0)
(-0.00128035 -1.25697e-05 0)
(-0.00123568 -1.27678e-05 0)
(-0.00119035 -1.29409e-05 0)
(-0.00114447 -1.30882e-05 0)
(-0.00109812 -1.3209e-05 0)
(-0.00105139 -1.33028e-05 0)
(-0.00100439 -1.33689e-05 0)
(-0.000957199 -1.34063e-05 0)
(-0.000909928 -1.34148e-05 0)
(-0.000862674 -1.33941e-05 0)
(-0.000815542 -1.33437e-05 0)
(-0.000768636 -1.3263e-05 0)
(-0.000722059 -1.31518e-05 0)
(-0.000675917 -1.30101e-05 0)
(-0.000630318 -1.28377e-05 0)
(-0.000585367 -1.26343e-05 0)
(-0.000541171 -1.23999e-05 0)
(-0.000497836 -1.21347e-05 0)
(-0.000455469 -1.18389e-05 0)
(-0.000414175 -1.15125e-05 0)
(-0.000374056 -1.11558e-05 0)
(-0.000335216 -1.07693e-05 0)
(-0.000297757 -1.03536e-05 0)
(-0.000261775 -9.90913e-06 0)
(-0.000227369 -9.43632e-06 0)
(-0.000194632 -8.93589e-06 0)
(-0.000163654 -8.40879e-06 0)
(-0.000134522 -7.85601e-06 0)
(-0.00010732 -7.27861e-06 0)
(-8.21253e-05 -6.6778e-06 0)
(-5.90109e-05 -6.05506e-06 0)
(-3.80433e-05 -5.41205e-06 0)
(-1.92821e-05 -4.75063e-06 0)
(-2.77852e-06 -4.07304e-06 0)
(1.14255e-05 -3.38191e-06 0)
(2.32994e-05 -2.68044e-06 0)
(3.28265e-05 -1.9726e-06 0)
(4.0006e-05 -1.2631e-06 0)
(4.48571e-05 -5.57937e-07 0)
(4.74233e-05 1.35023e-07 0)
(4.77793e-05 8.05389e-07 0)
(4.60395e-05 1.43902e-06 0)
(4.23703e-05 2.01624e-06 0)
(3.70068e-05 2.50881e-06 0)
(3.02794e-05 2.87476e-06 0)
(2.26486e-05 3.05167e-06 0)
(1.47466e-05 2.94907e-06 0)
(7.44123e-06 2.43741e-06 0)
(2.00777e-06 1.37354e-06 0)
(-2.39392e-08 -2.35417e-08 0)
(1.74803e-06 -2.88803e-06 0)
(8.70194e-06 -8.65125e-06 0)
(2.07663e-05 -1.18429e-05 0)
(3.44774e-05 -1.25283e-05 0)
(4.72311e-05 -1.13386e-05 0)
(5.72356e-05 -8.82208e-06 0)
(6.31464e-05 -5.39715e-06 0)
(6.39916e-05 -1.3709e-06 0)
(5.90964e-05 3.0347e-06 0)
(4.80244e-05 7.66204e-06 0)
(3.05166e-05 1.23968e-05 0)
(6.44468e-06 1.71545e-05 0)
(-2.42147e-05 2.18746e-05 0)
(-6.14094e-05 2.65109e-05 0)
(-0.000105027 3.10301e-05 0)
(-0.00015491 3.54065e-05 0)
(-0.000210864 3.96216e-05 0)
(-0.000272672 4.36613e-05 0)
(-0.000340093 4.75168e-05 0)
(-0.000412875 5.11806e-05 0)
(-0.000490756 5.46494e-05 0)
(-0.000573463 5.79207e-05 0)
(-0.000660725 6.09932e-05 0)
(-0.000752263 6.38679e-05 0)
(-0.0008478 6.65456e-05 0)
(-0.000947061 6.90288e-05 0)
(-0.00104977 7.13202e-05 0)
(-0.00115566 7.34227e-05 0)
(-0.00126447 7.534e-05 0)
(-0.00137592 7.70758e-05 0)
(-0.00148977 7.86337e-05 0)
(-0.00160575 8.00182e-05 0)
(-0.00172363 8.12333e-05 0)
(-0.00184316 8.22826e-05 0)
(-0.00196411 8.31707e-05 0)
(-0.00208623 8.3902e-05 0)
(-0.00220932 8.44797e-05 0)
(-0.00233314 8.49082e-05 0)
(-0.00245748 8.51915e-05 0)
(-0.00258213 8.53324e-05 0)
(-0.00270689 8.53344e-05 0)
(-0.00283155 8.52017e-05 0)
(-0.00295593 8.49376e-05 0)
(-0.00307983 8.4545e-05 0)
(-0.00320306 8.40271e-05 0)
(-0.00332545 8.3387e-05 0)
(-0.00344681 8.26266e-05 0)
(-0.00356697 8.17485e-05 0)
(-0.00368576 8.07557e-05 0)
(-0.00380301 7.9651e-05 0)
(-0.00391856 7.84364e-05 0)
(-0.00403226 7.71141e-05 0)
(-0.00414393 7.56861e-05 0)
(-0.00425343 7.41544e-05 0)
(-0.00436061 7.25209e-05 0)
(-0.00446532 7.07873e-05 0)
(-0.00456741 6.89562e-05 0)
(-0.00466674 6.70291e-05 0)
(-0.00476318 6.50078e-05 0)
(-0.00485659 6.28945e-05 0)
(-0.00494682 6.06906e-05 0)
(-0.00503376 5.83985e-05 0)
(-0.00511727 5.60201e-05 0)
(-0.00519723 5.35571e-05 0)
(-0.00527352 5.10121e-05 0)
(-0.00534602 4.83867e-05 0)
(-0.00541461 4.56831e-05 0)
(-0.00547918 4.29041e-05 0)
(-0.00553963 4.00521e-05 0)
(-0.00559585 3.71298e-05 0)
(-0.00564773 3.41397e-05 0)
(-0.0056952 3.10847e-05 0)
(-0.00573814 2.79678e-05 0)
(-0.00577648 2.47925e-05 0)
(-0.00581013 2.15622e-05 0)
(-0.00583902 1.82803e-05 0)
(-0.00586308 1.49507e-05 0)
(-0.00588224 1.15772e-05 0)
(-0.00589644 8.16377e-06 0)
(-0.00590562 4.71492e-06 0)
(-0.00590975 1.2355e-06 0)
(-0.00590878 -2.26993e-06 0)
(-0.00590267 -5.79671e-06 0)
(-0.00589141 -9.33949e-06 0)
(-0.00587497 -1.2893e-05 0)
(-0.00585335 -1.64518e-05 0)
(-0.00582654 -2.00098e-05 0)
(-0.00579455 -2.35611e-05 0)
(-0.00575739 -2.71001e-05 0)
(-0.0057151 -3.06206e-05 0)
(-0.00566769 -3.4116e-05 0)
(-0.00561522 -3.75797e-05 0)
(-0.00555774 -4.10052e-05 0)
(-0.00549531 -4.43853e-05 0)
(-0.005428 -4.77131e-05 0)
(-0.00535589 -5.09819e-05 0)
(-0.00527908 -5.41849e-05 0)
(-0.00519767 -5.73147e-05 0)
(-0.00511176 -6.03643e-05 0)
(-0.0050215 -6.33264e-05 0)
(-0.00492699 -6.61939e-05 0)
(-0.0048284 -6.89593e-05 0)
(-0.00472588 -7.16157e-05 0)
(-0.00461958 -7.41562e-05 0)
(-0.00450968 -7.65739e-05 0)
(-0.00439637 -7.88619e-05 0)
(-0.00427984 -8.10132e-05 0)
(-0.0041603 -8.30215e-05 0)
(-0.00403794 -8.48803e-05 0)
(-0.00391301 -8.65833e-05 0)
(-0.00378573 -8.81242e-05 0)
(-0.00365633 -8.94976e-05 0)
(-0.00352506 -9.06981e-05 0)
(-0.00339219 -9.17201e-05 0)
(-0.00325796 -9.25589e-05 0)
(-0.00312265 -9.321e-05 0)
(-0.00298653 -9.36691e-05 0)
(-0.00284989 -9.39323e-05 0)
(-0.002713 -9.3996e-05 0)
(-0.00257616 -9.38574e-05 0)
(-0.00243966 -9.35139e-05 0)
(-0.00230381 -9.29632e-05 0)
(-0.00216889 -9.22035e-05 0)
(-0.00203521 -9.12334e-05 0)
(-0.00190308 -9.00525e-05 0)
(-0.00177279 -8.86602e-05 0)
(-0.00164466 -8.70569e-05 0)
(-0.00151898 -8.52432e-05 0)
(-0.00139606 -8.32205e-05 0)
(-0.00127618 -8.09906e-05 0)
(-0.00115966 -7.85561e-05 0)
(-0.00104678 -7.59203e-05 0)
(-0.000937812 -7.3087e-05 0)
(-0.00083305 -7.00607e-05 0)
(-0.000732759 -6.68463e-05 0)
(-0.000637201 -6.34496e-05 0)
(-0.000546628 -5.98776e-05 0)
(-0.000461281 -5.61384e-05 0)
(-0.000381387 -5.22409e-05 0)
(-0.000307158 -4.81954e-05 0)
(-0.00023879 -4.40134e-05 0)
(-0.000176459 -3.97085e-05 0)
(-0.000120318 -3.52961e-05 0)
(-7.04966e-05 -3.07943e-05 0)
(-2.7092e-05 -2.62244e-05 0)
(9.83285e-06 -2.16115e-05 0)
(4.02563e-05 -1.69856e-05 0)
(6.42058e-05 -1.23833e-05 0)
(8.17682e-05 -7.84912e-06 0)
(9.31027e-05 -3.43895e-06 0)
(9.84565e-05 7.76619e-07 0)
(9.81867e-05 4.70714e-06 0)
(9.27868e-05 8.23468e-06 0)
(8.29232e-05 1.12032e-05 0)
(6.948e-05 1.34041e-05 0)
(5.36119e-05 1.45609e-05 0)
(3.67758e-05 1.43201e-05 0)
(2.0761e-05 1.22538e-05 0)
(7.97366e-06 7.97759e-06 0)
(1.37142e-06 2.00665e-06 0)
(2.61989e-06 -8.59169e-06 0)
(1.19294e-05 -2.0741e-05 0)
(2.68793e-05 -2.67829e-05 0)
(4.28599e-05 -2.73971e-05 0)
(5.65905e-05 -2.37035e-05 0)
(6.5776e-05 -1.67751e-05 0)
(6.85923e-05 -7.50598e-06 0)
(6.36495e-05 3.39707e-06 0)
(4.99471e-05 1.53923e-05 0)
(2.67975e-05 2.80737e-05 0)
(-6.23899e-06 4.11295e-05 0)
(-4.94003e-05 5.43282e-05 0)
(-0.000102771 6.74888e-05 0)
(-0.000166314 8.04769e-05 0)
(-0.000239891 9.31877e-05 0)
(-0.000323292 0.000105543 0)
(-0.000416246 0.000117481 0)
(-0.000518436 0.000128959 0)
(-0.00062951 0.00013994 0)
(-0.000749089 0.000150403 0)
(-0.000876773 0.000160331 0)
(-0.00101215 0.000169711 0)
(-0.0011548 0.000178539 0)
(-0.00130428 0.000186813 0)
(-0.00146017 0.000194532 0)
(-0.00162204 0.000201702 0)
(-0.00178945 0.000208327 0)
(-0.00196198 0.000214414 0)
(-0.00213921 0.000219972 0)
(-0.0023207 0.000225009 0)
(-0.00250606 0.000229536 0)
(-0.00269488 0.000233563 0)
(-0.00288676 0.000237101 0)
(-0.00308132 0.00024016 0)
(-0.00327817 0.000242752 0)
(-0.00347693 0.000244888 0)
(-0.00367725 0.000246578 0)
(-0.00387877 0.000247833 0)
(-0.00408113 0.000248665 0)
(-0.004284 0.000249082 0)
(-0.00448705 0.000249095 0)
(-0.00468994 0.000248713 0)
(-0.00489236 0.000247945 0)
(-0.00509401 0.000246801 0)
(-0.00529457 0.00024529 0)
(-0.00549374 0.000243419 0)
(-0.00569125 0.000241197 0)
(-0.00588679 0.00023863 0)
(-0.0060801 0.000235727 0)
(-0.0062709 0.000232494 0)
(-0.00645893 0.000228938 0)
(-0.00664391 0.000225065 0)
(-0.0068256 0.000220882 0)
(-0.00700375 0.000216396 0)
(-0.0071781 0.00021161 0)
(-0.00734841 0.000206532 0)
(-0.00751445 0.000201168 0)
(-0.00767599 0.000195522 0)
(-0.00783279 0.0001896 0)
(-0.00798464 0.000183409 0)
(-0.00813132 0.000176954 0)
(-0.00827261 0.000170241 0)
(-0.0084083 0.000163275 0)
(-0.0085382 0.000156063 0)
(-0.00866211 0.000148612 0)
(-0.00877983 0.000140927 0)
(-0.00889117 0.000133015 0)
(-0.00899597 0.000124884 0)
(-0.00909403 0.000116541 0)
(-0.00918519 0.000107994 0)
(-0.0092693 9.9251e-05 0)
(-0.0093462 9.03209e-05 0)
(-0.00941573 8.12128e-05 0)
(-0.00947776 7.19358e-05 0)
(-0.00953217 6.25003e-05 0)
(-0.00957882 5.29171e-05 0)
(-0.00961761 4.31969e-05 0)
(-0.00964842 3.33514e-05 0)
(-0.00967117 2.33932e-05 0)
(-0.00968576 1.33345e-05 0)
(-0.00969214 3.18857e-06 0)
(-0.00969022 -7.02981e-06 0)
(-0.00967997 -1.73068e-05 0)
(-0.00966134 -2.76279e-05 0)
(-0.00963431 -3.79768e-05 0)
(-0.00959886 -4.83377e-05 0)
(-0.009555 -5.86946e-05 0)
(-0.00950273 -6.90297e-05 0)
(-0.00944208 -7.93249e-05 0)
(-0.0093731 -8.95629e-05 0)
(-0.00929584 -9.97253e-05 0)
(-0.00921037 -0.000109793 0)
(-0.00911679 -0.000119746 0)
(-0.00901518 -0.000129566 0)
(-0.00890568 -0.000139232 0)
(-0.00878841 -0.000148724 0)
(-0.00866353 -0.000158022 0)
(-0.0085312 -0.000167105 0)
(-0.00839161 -0.000175954 0)
(-0.00824496 -0.000184546 0)
(-0.00809146 -0.000192862 0)
(-0.00793135 -0.000200882 0)
(-0.00776489 -0.000208583 0)
(-0.00759232 -0.000215948 0)
(-0.00741394 -0.000222954 0)
(-0.00723005 -0.000229583 0)
(-0.00704095 -0.000235816 0)
(-0.00684698 -0.000241633 0)
(-0.00664849 -0.000247017 0)
(-0.00644582 -0.000251949 0)
(-0.00623935 -0.000256412 0)
(-0.00602947 -0.000260389 0)
(-0.00581657 -0.000263866 0)
(-0.00560106 -0.000266827 0)
(-0.00538337 -0.000269258 0)
(-0.00516393 -0.000271147 0)
(-0.00494318 -0.000272481 0)
(-0.00472157 -0.00027325 0)
(-0.00449955 -0.000273443 0)
(-0.00427761 -0.000273053 0)
(-0.00405619 -0.000272072 0)
(-0.0038358 -0.000270494 0)
(-0.00361689 -0.000268314 0)
(-0.00339997 -0.000265529 0)
(-0.00318551 -0.000262137 0)
(-0.00297401 -0.000258138 0)
(-0.00276594 -0.000253532 0)
(-0.00256179 -0.000248324 0)
(-0.00236204 -0.000242516 0)
(-0.00216717 -0.000236115 0)
(-0.00197764 -0.00022913 0)
(-0.00179393 -0.000221569 0)
(-0.00161647 -0.000213446 0)
(-0.00144571 -0.000204773 0)
(-0.00128208 -0.000195567 0)
(-0.00112599 -0.000185846 0)
(-0.00097783 -0.000175632 0)
(-0.000837987 -0.000164949 0)
(-0.000706808 -0.000153825 0)
(-0.000584623 -0.000142291 0)
(-0.000471729 -0.000130385 0)
(-0.000368394 -0.000118146 0)
(-0.000274845 -0.000105623 0)
(-0.000191267 -9.28719e-05 0)
(-0.000117796 -7.99562e-05 0)
(-5.45084e-05 -6.69522e-05 0)
(-1.41234e-06 -5.39499e-05 0)
(4.15627e-05 -4.10572e-05 0)
(7.45825e-05 -2.84045e-05 0)
(9.79257e-05 -1.61517e-05 0)
(0.000112006 -4.49596e-06 0)
(0.000117401 6.31681e-06 0)
(0.000114883 1.59775e-05 0)
(0.000105462 2.40958e-05 0)
(9.04331e-05 3.01801e-05 0)
(7.14202e-05 3.36214e-05 0)
(5.0386e-05 3.36989e-05 0)
(2.96281e-05 2.96281e-05 0)
(1.22459e-05 2.07621e-05 0)
(2.43245e-06 7.43374e-06 0)
(2.85773e-06 -1.55054e-05 0)
(1.26107e-05 -3.44853e-05 0)
(2.74928e-05 -4.27639e-05 0)
(4.21966e-05 -4.20954e-05 0)
(5.30319e-05 -3.42261e-05 0)
(5.73998e-05 -2.08018e-05 0)
(5.31962e-05 -3.23836e-06 0)
(3.87725e-05 1.73068e-05 0)
(1.28997e-05 3.99173e-05 0)
(-2.52965e-05 6.38703e-05 0)
(-7.63946e-05 8.8609e-05 0)
(-0.000140737 0.000113694 0)
(-0.000218467 0.000138786 0)
(-0.000309572 0.00016362 0)
(-0.000413911 0.000187989 0)
(-0.00053124 0.000211733 0)
(-0.000661233 0.000234729 0)
(-0.000803502 0.000256881 0)
(-0.000957604 0.000278118 0)
(-0.00112306 0.000298386 0)
(-0.00129935 0.000317646 0)
(-0.00148595 0.000335872 0)
(-0.00168231 0.000353048 0)
(-0.00188786 0.000369165 0)
(-0.00210204 0.000384221 0)
(-0.00232427 0.00039822 0)
(-0.00255399 0.000411167 0)
(-0.00279062 0.000423076 0)
(-0.0030336 0.000433958 0)
(-0.00328237 0.00044383 0)
(-0.00353637 0.000452708 0)
(-0.00379507 0.000460612 0)
(-0.00405793 0.00046756 0)
(-0.00432441 0.000473572 0)
(-0.00459402 0.00047867 0)
(-0.00486622 0.000482872 0)
(-0.00514055 0.000486199 0)
(-0.0054165 0.000488672 0)
(-0.0056936 0.000490309 0)
(-0.00597138 0.000491131 0)
(-0.0062494 0.000491156 0)
(-0.00652721 0.000490404 0)
(-0.00680437 0.00048889 0)
(-0.00708045 0.000486633 0)
(-0.00735504 0.000483649 0)
(-0.00762773 0.000479954 0)
(-0.00789812 0.000475564 0)
(-0.00816582 0.000470493 0)
(-0.00843045 0.000464757 0)
(-0.00869163 0.000458367 0)
(-0.008949 0.000451339 0)
(-0.00920219 0.000443684 0)
(-0.00945086 0.000435415 0)
(-0.00969465 0.000426544 0)
(-0.00993323 0.000417084 0)
(-0.0101663 0.000407045 0)
(-0.0103934 0.000396439 0)
(-0.0106144 0.000385277 0)
(-0.0108289 0.000373571 0)
(-0.0110366 0.000361333 0)
(-0.0112371 0.000348574 0)
(-0.0114303 0.000335305 0)
(-0.0116158 0.000321539 0)
(-0.0117933 0.000307288 0)
(-0.0119626 0.000292565 0)
(-0.0121234 0.000277383 0)
(-0.0122755 0.000261756 0)
(-0.0124186 0.000245698 0)
(-0.0125525 0.000229225 0)
(-0.0126768 0.000212351 0)
(-0.0127916 0.000195093 0)
(-0.0128964 0.000177469 0)
(-0.0129912 0.000159498 0)
(-0.0130756 0.000141197 0)
(-0.0131497 0.000122587 0)
(-0.0132131 0.00010369 0)
(-0.0132657 8.45265e-05 0)
(-0.0133075 6.51203e-05 0)
(-0.0133382 4.54954e-05 0)
(-0.0133577 2.56775e-05 0)
(-0.013366 5.69237e-06 0)
(-0.013363 -1.44327e-05 0)
(-0.0133486 -3.46685e-05 0)
(-0.0133227 -5.49857e-05 0)
(-0.0132854 -7.53543e-05 0)
(-0.0132366 -9.57421e-05 0)
(-0.0131762 -0.000116116 0)
(-0.0131044 -0.000136444 0)
(-0.0130212 -0.000156691 0)
(-0.0129266 -0.00017682 0)
(-0.0128207 -0.000196796 0)
(-0.0127037 -0.000216582 0)
(-0.0125755 -0.00023614 0)
(-0.0124364 -0.000255432 0)
(-0.0122866 -0.000274418 0)
(-0.0121262 -0.00029306 0)
(-0.0119554 -0.000311318 0)
(-0.0117745 -0.000329151 0)
(-0.0115837 -0.00034652 0)
(-0.0113832 -0.000363385 0)
(-0.0111735 -0.000379704 0)
(-0.0109548 -0.000395439 0)
(-0.0107274 -0.000410549 0)
(-0.0104917 -0.000424994 0)
(-0.0102481 -0.000438737 0)
(-0.00999696 -0.000451739 0)
(-0.00973878 -0.000463962 0)
(-0.00947397 -0.00047537 0)
(-0.009203 -0.000485926 0)
(-0.00892635 -0.000495597 0)
(-0.00864454 -0.00050435 0)
(-0.00835808 -0.000512151 0)
(-0.00806751 -0.000518972 0)
(-0.00777339 -0.000524783 0)
(-0.00747629 -0.000529558 0)
(-0.00717679 -0.000533272 0)
(-0.0068755 -0.000535901 0)
(-0.00657303 -0.000537425 0)
(-0.00626998 -0.000537825 0)
(-0.00596701 -0.000537085 0)
(-0.00566473 -0.000535191 0)
(-0.0053638 -0.000532132 0)
(-0.00506487 -0.000527899 0)
(-0.00476859 -0.000522486 0)
(-0.00447562 -0.000515891 0)
(-0.0041866 -0.000508112 0)
(-0.0039022 -0.000499153 0)
(-0.00362307 -0.000489021 0)
(-0.00334984 -0.000477724 0)
(-0.00308317 -0.000465276 0)
(-0.00282367 -0.000451693 0)
(-0.00257197 -0.000436996 0)
(-0.00232867 -0.000421208 0)
(-0.00209436 -0.00040436 0)
(-0.00186961 -0.000386483 0)
(-0.00165496 -0.000367616 0)
(-0.00145095 -0.000347803 0)
(-0.00125805 -0.000327093 0)
(-0.00107675 -0.000305545 0)
(-0.000907468 -0.000283221 0)
(-0.000750587 -0.000260197 0)
(-0.000606449 -0.000236555 0)
(-0.000475343 -0.000212392 0)
(-0.000357498 -0.000187821 0)
(-0.000253071 -0.00016297 0)
(-0.000162142 -0.000137991 0)
(-8.46987e-05 -0.00011306 0)
(-2.06223e-05 -8.839e-05 0)
(3.03295e-05 -6.42317e-05 0)
(6.8545e-05 -4.08892e-05 0)
(9.45828e-05 -1.87305e-05 0)
(0.000109201 1.79486e-06 0)
(0.000113391 2.01365e-05 0)
(0.000108416 3.56208e-05 0)
(9.58559e-05 4.74292e-05 0)
(7.76438e-05 5.45855e-05 0)
(5.60635e-05 5.5971e-05 0)
(3.37498e-05 5.03941e-05 0)
(1.43241e-05 3.67843e-05 0)
(2.94307e-06 1.47313e-05 0)
(2.68414e-06 -2.22385e-05 0)
(1.14245e-05 -4.72776e-05 0)
(2.38363e-05 -5.6516e-05 0)
(3.43962e-05 -5.29388e-05 0)
(3.92227e-05 -3.90374e-05 0)
(3.55507e-05 -1.7059e-05 0)
(2.11217e-05 1.10493e-05 0)
(-5.86167e-06 4.36704e-05 0)
(-4.67667e-05 7.94871e-05 0)
(-0.000102587 0.000117446 0)
(-0.000174005 0.0001567 0)
(-0.000261438 0.000196581 0)
(-0.000365078 0.000236556 0)
(-0.000484938 0.000276201 0)
(-0.000620879 0.000315184 0)
(-0.000772634 0.000353241 0)
(-0.00093984 0.000390163 0)
(-0.00112205 0.00042579 0)
(-0.00131875 0.000459998 0)
(-0.00152938 0.000492692 0)
(-0.00175333 0.000523802 0)
(-0.00198996 0.00055328 0)
(-0.00223863 0.00058109 0)
(-0.00249864 0.000607214 0)
(-0.00276931 0.000631643 0)
(-0.00304995 0.000654377 0)
(-0.00333986 0.000675423 0)
(-0.00363835 0.000694794 0)
(-0.00394471 0.00071251 0)
(-0.00425827 0.000728592 0)
(-0.00457834 0.000743065 0)
(-0.00490424 0.000755955 0)
(-0.00523533 0.000767294 0)
(-0.00557093 0.00077711 0)
(-0.00591041 0.000785434 0)
(-0.00625314 0.000792298 0)
(-0.00659849 0.000797734 0)
(-0.00694588 0.000801773 0)
(-0.00729469 0.000804445 0)
(-0.00764434 0.000805781 0)
(-0.00799427 0.000805812 0)
(-0.00834392 0.000804566 0)
(-0.00869273 0.000802073 0)
(-0.00904018 0.000798359 0)
(-0.00938574 0.000793451 0)
(-0.0097289 0.000787375 0)
(-0.0100691 0.000780155 0)
(-0.010406 0.000771817 0)
(-0.010739 0.000762384 0)
(-0.0110676 0.000751876 0)
(-0.0113914 0.000740318 0)
(-0.0117099 0.000727729 0)
(-0.0120227 0.00071413 0)
(-0.0123293 0.000699542 0)
(-0.0126294 0.000683983 0)
(-0.0129224 0.000667473 0)
(-0.0132081 0.000650032 0)
(-0.0134859 0.000631678 0)
(-0.0137556 0.00061243 0)
(-0.0140166 0.000592307 0)
(-0.0142687 0.00057133 0)
(-0.0145114 0.000549517 0)
(-0.0147445 0.000526889 0)
(-0.0149675 0.000503467 0)
(-0.0151802 0.000479271 0)
(-0.0153821 0.000454324 0)
(-0.015573 0.00042865 0)
(-0.0157526 0.000402271 0)
(-0.0159206 0.000375213 0)
(-0.0160766 0.000347503 0)
(-0.0162205 0.000319167 0)
(-0.0163519 0.000290235 0)
(-0.0164706 0.000260736 0)
(-0.0165764 0.000230703 0)
(-0.016669 0.000200168 0)
(-0.0167482 0.000169167 0)
(-0.016814 0.000137735 0)
(-0.016866 0.000105911 0)
(-0.0169041 7.37342e-05 0)
(-0.0169282 4.12467e-05 0)
(-0.0169382 8.49202e-06 0)
(-0.0169339 -2.44855e-05 0)
(-0.0169154 -5.76394e-05 0)
(-0.0168824 -9.09204e-05 0)
(-0.0168351 -0.000124279 0)
(-0.0167733 -0.000157663 0)
(-0.0166971 -0.000191019 0)
(-0.0166065 -0.000224292 0)
(-0.0165016 -0.000257426 0)
(-0.0163824 -0.000290363 0)
(-0.0162491 -0.000323044 0)
(-0.0161017 -0.000355408 0)
(-0.0159405 -0.000387395 0)
(-0.0157656 -0.00041894 0)
(-0.0155771 -0.000449982 0)
(-0.0153755 -0.000480456 0)
(-0.0151608 -0.000510298 0)
(-0.0149335 -0.000539443 0)
(-0.0146937 -0.000567825 0)
(-0.014442 -0.000595379 0)
(-0.0141786 -0.00062204 0)
(-0.0139039 -0.000647742 0)
(-0.0136184 -0.000672422 0)
(-0.0133225 -0.000696015 0)
(-0.0130167 -0.00071846 0)
(-0.0127015 -0.000739692 0)
(-0.0123775 -0.000759652 0)
(-0.0120451 -0.000778281 0)
(-0.0117051 -0.00079552 0)
(-0.0113579 -0.000811315 0)
(-0.0110043 -0.000825611 0)
(-0.0106449 -0.000838357 0)
(-0.0102803 -0.000849505 0)
(-0.00991126 -0.000859008 0)
(-0.00953847 -0.000866823 0)
(-0.00916267 -0.000872909 0)
(-0.0087846 -0.000877231 0)
(-0.00840502 -0.000879754 0)
(-0.00802469 -0.000880449 0)
(-0.00764442 -0.00087929 0)
(-0.00726497 -0.000876255 0)
(-0.00688717 -0.000871327 0)
(-0.00651181 -0.000864492 0)
(-0.0061397 -0.000855742 0)
(-0.00577166 -0.000845071 0)
(-0.00540849 -0.000832482 0)
(-0.00505102 -0.00081798 0)
(-0.00470003 -0.000801576 0)
(-0.00435633 -0.000783287 0)
(-0.00402072 -0.000763136 0)
(-0.00369395 -0.00074115 0)
(-0.0033768 -0.000717365 0)
(-0.00307001 -0.000691823 0)
(-0.0027743 -0.000664571 0)
(-0.00249037 -0.000635666 0)
(-0.00221889 -0.000605173 0)
(-0.00196049 -0.000573167 0)
(-0.00171578 -0.00053973 0)
(-0.00148531 -0.00050496 0)
(-0.00126961 -0.000468964 0)
(-0.00106913 -0.000431865 0)
(-0.000884281 -0.000393805 0)
(-0.000715395 -0.000354944 0)
(-0.000562735 -0.000315467 0)
(-0.000426474 -0.000275586 0)
(-0.000306691 -0.00023555 0)
(-0.000203349 -0.000195645 0)
(-0.000116287 -0.000156211 0)
(-4.51933e-05 -0.000117649 0)
(1.04121e-05 -8.04335e-05 0)
(5.12037e-05 -4.51329e-05 0)
(7.80792e-05 -1.24279e-05 0)
(9.21913e-05 1.6865e-05 0)
(9.49825e-05 4.17693e-05 0)
(8.82226e-05 6.11255e-05 0)
(7.4047e-05 7.35792e-05 0)
(5.49516e-05 7.75939e-05 0)
(3.38137e-05 7.15098e-05 0)
(1.46098e-05 5.36733e-05 0)
(3.04991e-06 2.26365e-05 0)
(2.25972e-06 -2.79592e-05 0)
(8.93981e-06 -5.73614e-05 0)
(1.70028e-05 -6.57703e-05 0)
(2.1127e-05 -5.73567e-05 0)
(1.74395e-05 -3.53832e-05 0)
(3.11055e-06 -2.71647e-06 0)
(-2.41768e-05 3.81672e-05 0)
(-6.62817e-05 8.51905e-05 0)
(-0.000124636 0.00013664 0)
(-0.000200303 0.000191111 0)
(-0.000294022 0.000247462 0)
(-0.000406256 0.000304772 0)
(-0.000537233 0.000362293 0)
(-0.00068698 0.000419428 0)
(-0.000855356 0.000475693 0)
(-0.00104208 0.000530704 0)
(-0.00124676 0.000584155 0)
(-0.00146889 0.000635802 0)
(-0.00170791 0.000685457 0)
(-0.00196319 0.000732974 0)
(-0.00223403 0.000778242 0)
(-0.00251972 0.00082118 0)
(-0.00281951 0.000861732 0)
(-0.00313261 0.00089986 0)
(-0.00345823 0.000935546 0)
(-0.00379557 0.000968783 0)
(-0.00414382 0.000999575 0)
(-0.00450217 0.00102794 0)
(-0.00486982 0.00105389 0)
(-0.00524594 0.00107747 0)
(-0.00562975 0.00109869 0)
(-0.00602046 0.00111761 0)
(-0.00641727 0.00113425 0)
(-0.00681943 0.00114867 0)
(-0.00722617 0.00116089 0)
(-0.00763675 0.00117097 0)
(-0.00805043 0.00117895 0)
(-0.00846649 0.00118487 0)
(-0.00888422 0.00118878 0)
(-0.00930293 0.00119073 0)
(-0.00972195 0.00119074 0)
(-0.0101406 0.00118888 0)
(-0.0105582 0.00118517 0)
(-0.0109742 0.00117965 0)
(-0.0113879 0.00117237 0)
(-0.0117987 0.00116337 0)
(-0.012206 0.00115267 0)
(-0.0126092 0.00114031 0)
(-0.0130077 0.00112634 0)
(-0.013401 0.00111077 0)
(-0.0137884 0.00109365 0)
(-0.0141696 0.00107501 0)
(-0.0145439 0.00105487 0)
(-0.0149108 0.00103326 0)
(-0.0152698 0.00101022 0)
(-0.0156203 0.000985767 0)
(-0.015962 0.000959938 0)
(-0.0162943 0.00093276 0)
(-0.0166168 0.000904261 0)
(-0.0169289 0.000874469 0)
(-0.0172303 0.000843413 0)
(-0.0175205 0.000811124 0)
(-0.017799 0.000777632 0)
(-0.0180656 0.000742967 0)
(-0.0183196 0.000707162 0)
(-0.0185609 0.000670251 0)
(-0.0187889 0.000632267 0)
(-0.0190033 0.000593247 0)
(-0.0192038 0.000553229 0)
(-0.0193901 0.000512251 0)
(-0.0195617 0.000470354 0)
(-0.0197184 0.000427583 0)
(-0.0198599 0.000383981 0)
(-0.0199859 0.000339596 0)
(-0.0200962 0.000294477 0)
(-0.0201905 0.000248677 0)
(-0.0202686 0.000202249 0)
(-0.0203302 0.000155249 0)
(-0.0203753 0.000107737 0)
(-0.0204037 5.97746e-05 0)
(-0.0204151 1.14249e-05 0)
(-0.0204095 -3.72446e-05 0)
(-0.0203869 -8.61654e-05 0)
(-0.020347 -0.000135266 0)
(-0.02029 -0.000184473 0)
(-0.0202157 -0.000233709 0)
(-0.0201242 -0.000282896 0)
(-0.0200156 -0.000331953 0)
(-0.0198898 -0.000380797 0)
(-0.019747 -0.000429343 0)
(-0.0195873 -0.000477504 0)
(-0.0194109 -0.000525191 0)
(-0.019218 -0.000572315 0)
(-0.0190087 -0.000618783 0)
(-0.0187834 -0.000664504 0)
(-0.0185423 -0.000709382 0)
(-0.0182857 -0.000753324 0)
(-0.0180139 -0.000796234 0)
(-0.0177274 -0.000838017 0)
(-0.0174266 -0.000878577 0)
(-0.0171119 -0.000917819 0)
(-0.0167838 -0.000955647 0)
(-0.0164428 -0.000991969 0)
(-0.0160894 -0.00102669 0)
(-0.0157242 -0.00105972 0)
(-0.0153479 -0.00109096 0)
(-0.014961 -0.00112033 0)
(-0.0145642 -0.00114775 0)
(-0.0141582 -0.00117312 0)
(-0.0137438 -0.00119637 0)
(-0.0133217 -0.00121742 0)
(-0.0128926 -0.00123619 0)
(-0.0124573 -0.00125261 0)
(-0.0120167 -0.00126662 0)
(-0.0115717 -0.00127816 0)
(-0.011123 -0.00128716 0)
(-0.0106716 -0.00129357 0)
(-0.0102183 -0.00129734 0)
(-0.00976416 -0.00129844 0)
(-0.00930998 -0.00129682 0)
(-0.00885674 -0.00129245 0)
(-0.00840537 -0.00128531 0)
(-0.00795685 -0.00127538 0)
(-0.00751211 -0.00126265 0)
(-0.00707211 -0.00124711 0)
(-0.00663783 -0.00122877 0)
(-0.0062102 -0.00120763 0)
(-0.00579018 -0.00118371 0)
(-0.0053787 -0.00115705 0)
(-0.00497669 -0.00112767 0)
(-0.00458507 -0.00109562 0)
(-0.00420471 -0.00106095 0)
(-0.0038365 -0.00102372 0)
(-0.00348128 -0.000984013 0)
(-0.00313986 -0.00094191 0)
(-0.00281302 -0.000897509 0)
(-0.00250149 -0.000850924 0)
(-0.00220599 -0.000802279 0)
(-0.00192715 -0.00075172 0)
(-0.00166557 -0.00069941 0)
(-0.00142177 -0.000645532 0)
(-0.00119621 -0.000590298 0)
(-0.000989269 -0.000533945 0)
(-0.000801236 -0.000476748 0)
(-0.000632297 -0.000419019 0)
(-0.000482528 -0.000361119 0)
(-0.000351872 -0.000303466 0)
(-0.000240131 -0.000246547 0)
(-0.000146939 -0.00019093 0)
(-7.17453e-05 -0.000137283 0)
(-1.37886e-05 -8.63917e-05 0)
(2.79301e-05 -3.9185e-05 0)
(5.46752e-05 3.24249e-06 0)
(6.80078e-05 3.96019e-05 0)
(6.98202e-05 6.83871e-05 0)
(6.23734e-05 8.78581e-05 0)
(4.82992e-05 9.60412e-05 0)
(3.06376e-05 9.07609e-05 0)
(1.35443e-05 6.96943e-05 0)
(2.88522e-06 3.03019e-05 0)
(1.68439e-06 -3.21189e-05 0)
(5.56727e-06 -6.34166e-05 0)
(7.86267e-06 -6.87287e-05 0)
(3.75543e-06 -5.3259e-05 0)
(-1.04471e-05 -2.1006e-05 0)
(-3.75483e-05 2.45585e-05 0)
(-7.98479e-05 8.04449e-05 0)
(-0.000139195 0.000144132 0)
(-0.000217032 0.000213509 0)
(-0.00031444 0.000286827 0)
(-0.000432176 0.000362648 0)
(-0.000570723 0.000439784 0)
(-0.00073032 0.000517268 0)
(-0.000910997 0.00059431 0)
(-0.00111261 0.000670267 0)
(-0.00133485 0.000744619 0)
(-0.0015773 0.000816948 0)
(-0.00183942 0.000886919 0)
(-0.00212059 0.000954265 0)
(-0.00242013 0.00101878 0)
(-0.00273726 0.0010803 0)
(-0.00307121 0.00113872 0)
(-0.00342112 0.00119393 0)
(-0.00378614 0.00124589 0)
(-0.00416538 0.00129456 0)
(-0.00455794 0.00133992 0)
(-0.0049629 0.00138198 0)
(-0.00537936 0.00142074 0)
(-0.0058064 0.00145622 0)
(-0.00624311 0.00148847 0)
(-0.00668858 0.00151752 0)
(-0.00714192 0.00154342 0)
(-0.00760222 0.00156621 0)
(-0.00806861 0.00158595 0)
(-0.00854023 0.00160269 0)
(-0.00901622 0.00161649 0)
(-0.00949573 0.00162741 0)
(-0.00997794 0.0016355 0)
(-0.010462 0.00164083 0)
(-0.0109472 0.00164345 0)
(-0.0114327 0.00164342 0)
(-0.0119178 0.00164079 0)
(-0.0124016 0.00163561 0)
(-0.0128834 0.00162796 0)
(-0.0133626 0.00161786 0)
(-0.0138384 0.00160538 0)
(-0.0143101 0.00159057 0)
(-0.0147771 0.00157347 0)
(-0.0152386 0.00155413 0)
(-0.015694 0.00153259 0)
(-0.0161426 0.00150891 0)
(-0.0165839 0.00148311 0)
(-0.0170172 0.00145525 0)
(-0.0174419 0.00142536 0)
(-0.0178575 0.00139349 0)
(-0.0182632 0.00135968 0)
(-0.0186587 0.00132396 0)
(-0.0190432 0.00128638 0)
(-0.0194163 0.00124698 0)
(-0.0197774 0.00120579 0)
(-0.020126 0.00116286 0)
(-0.0204617 0.00111822 0)
(-0.0207838 0.00107193 0)
(-0.021092 0.00102402 0)
(-0.0213857 0.000974549 0)
(-0.0216646 0.000923549 0)
(-0.0219281 0.000871075 0)
(-0.0221758 0.000817177 0)
(-0.0224074 0.000761906 0)
(-0.0226225 0.000705319 0)
(-0.0228206 0.000647472 0)
(-0.0230015 0.000588425 0)
(-0.0231647 0.000528241 0)
(-0.0233101 0.000466985 0)
(-0.0234372 0.000404727 0)
(-0.0235457 0.000341537 0)
(-0.0236356 0.000277492 0)
(-0.0237064 0.000212669 0)
(-0.0237581 0.000147149 0)
(-0.0237903 8.10189e-05 0)
(-0.023803 1.43658e-05 0)
(-0.0237961 -5.27184e-05 0)
(-0.0237694 -0.000120138 0)