/*--------------------------------*- C++ -*----------------------------------*\
  =========                 |
  \\      /  F ield         | OpenFOAM: The Open Source CFD Toolbox
   \\    /   O peration     | Website:  https://openfoam.org
    \\  /    A nd           | Version:  7
     \\/     M anipulation  |
\*---------------------------------------------------------------------------*/
FoamFile
{
    version     2.0;
    format      ascii;
    class       surfaceScalarField;
    location    "0.4625";
    object      phi;
}
// * * * * * * * * * * * * * * * * * * * * * * * * * * * * * * * * * * * * * //

dimensions      [0 3 -1 0 0 0 0];

internalField   nonuniform List<scalar> 
50880
(
6.06257e-12
-6.16826e-12
3.62482e-11
-3.01904e-11
8.11303e-11
-4.48858e-11
1.30778e-10
-4.96273e-11
1.78047e-10
-4.72449e-11
2.17941e-10
-3.98936e-11
2.47026e-10
-2.91037e-11
2.62997e-10
-1.59852e-11
2.64339e-10
-1.33723e-12
2.5008e-10
1.42702e-11
2.19654e-10
3.0432e-11
1.72795e-10
4.68554e-11
1.09469e-10
6.33199e-11
2.98141e-11
7.96539e-11
-6.5908e-11
9.57238e-11
-1.77335e-10
1.11428e-10
-3.04026e-10
1.2669e-10
-4.45477e-10
1.4145e-10
-6.01137e-10
1.5566e-10
-7.7042e-10
1.69283e-10
-9.52711e-10
1.82291e-10
-1.14737e-09
1.94662e-10
-1.35376e-09
2.06382e-10
-1.5712e-09
2.17439e-10
-1.79902e-09
2.27827e-10
-2.03656e-09
2.3754e-10
-2.28314e-09
2.46577e-10
-2.53808e-09
2.54939e-10
-2.80071e-09
2.62628e-10
-3.07036e-09
2.69649e-10
-3.34637e-09
2.76007e-10
-3.62808e-09
2.81709e-10
-3.91484e-09
2.86761e-10
-4.20601e-09
2.91173e-10
-4.50096e-09
2.94953e-10
-4.79907e-09
2.98111e-10
-5.09973e-09
3.00657e-10
-5.40233e-09
3.02602e-10
-5.70629e-09
3.03957e-10
-6.01103e-09
3.04733e-10
-6.31597e-09
3.04942e-10
-6.62057e-09
3.04596e-10
-6.92427e-09
3.03707e-10
-7.22656e-09
3.02288e-10
-7.52691e-09
3.00349e-10
-7.82482e-09
2.97905e-10
-8.11979e-09
2.94968e-10
-8.41134e-09
2.91551e-10
-8.699e-09
2.87666e-10
-8.98233e-09
2.83326e-10
-9.26088e-09
2.78545e-10
-9.53421e-09
2.73335e-10
-9.80192e-09
2.67709e-10
-1.00636e-08
2.61681e-10
-1.03189e-08
2.55263e-10
-1.05673e-08
2.48469e-10
-1.08086e-08
2.41312e-10
-1.10425e-08
2.33805e-10
-1.12684e-08
2.25961e-10
-1.14862e-08
2.17794e-10
-1.16955e-08
2.09317e-10
-1.18961e-08
2.00543e-10
-1.20876e-08
1.91486e-10
-1.22697e-08
1.82159e-10
-1.24423e-08
1.72576e-10
-1.2605e-08
1.6275e-10
-1.27577e-08
1.52695e-10
-1.29002e-08
1.42424e-10
-1.30321e-08
1.31953e-10
-1.31534e-08
1.21293e-10
-1.32639e-08
1.10461e-10
-1.33633e-08
9.94687e-11
-1.34517e-08
8.83314e-11
-1.35287e-08
7.70633e-11
-1.35944e-08
6.56788e-11
-1.36486e-08
5.41925e-11
-1.36912e-08
4.26191e-11
-1.37222e-08
3.09734e-11
-1.37415e-08
1.92704e-11
-1.3749e-08
7.52512e-12
-1.37448e-08
-4.24711e-12
-1.37287e-08
-1.60309e-11
-1.37009e-08
-2.78107e-11
-1.36613e-08
-3.95708e-11
-1.361e-08
-5.12954e-11
-1.35471e-08
-6.29686e-11
-1.34725e-08
-7.45743e-11
-1.33864e-08
-8.60962e-11
-1.32889e-08
-9.75181e-11
-1.31801e-08
-1.08823e-10
-1.30601e-08
-1.19996e-10
-1.2929e-08
-1.31018e-10
-1.27872e-08
-1.41874e-10
-1.26346e-08
-1.52547e-10
-1.24716e-08
-1.63019e-10
-1.22983e-08
-1.73273e-10
-1.2115e-08
-1.83294e-10
-1.1922e-08
-1.93062e-10
-1.17194e-08
-2.02563e-10
-1.15076e-08
-2.11777e-10
-1.12869e-08
-2.20689e-10
-1.10577e-08
-2.29281e-10
-1.08201e-08
-2.37536e-10
-1.05747e-08
-2.45437e-10
-1.03217e-08
-2.52968e-10
-1.00616e-08
-2.60112e-10
-9.79476e-09
-2.66852e-10
-9.52159e-09
-2.73172e-10
-9.24253e-09
-2.79055e-10
-8.95805e-09
-2.84486e-10
-8.6686e-09
-2.8945e-10
-8.37467e-09
-2.9393e-10
-8.07676e-09
-2.97911e-10
-7.77538e-09
-3.0138e-10
-7.47106e-09
-3.04321e-10
-7.16434e-09
-3.0672e-10
-6.85577e-09
-3.08564e-10
-6.54593e-09
-3.0984e-10
-6.2354e-09
-3.10536e-10
-5.92476e-09
-3.10638e-10
-5.61462e-09
-3.10137e-10
-5.3056e-09
-3.0902e-10
-4.99832e-09
-3.07279e-10
-4.69342e-09
-3.04903e-10
-4.39154e-09
-3.01884e-10
-4.09332e-09
-2.98214e-10
-3.79944e-09
-2.93886e-10
-3.51054e-09
-2.88895e-10
-3.22731e-09
-2.83234e-10
-2.95041e-09
-2.76902e-10
-2.68051e-09
-2.69895e-10
-2.4183e-09
-2.62211e-10
-2.16445e-09
-2.53852e-10
-1.91963e-09
-2.4482e-10
-1.68451e-09
-2.35117e-10
-1.45976e-09
-2.24752e-10
-1.24602e-09
-2.13732e-10
-1.04395e-09
-2.02068e-10
-8.54179e-10
-1.89776e-10
-6.77305e-10
-1.76873e-10
-5.13918e-10
-1.63385e-10
-3.64575e-10
-1.49341e-10
-2.29798e-10
-1.34777e-10
-1.10063e-10
-1.19737e-10
-5.78984e-12
-1.04275e-10
8.26715e-11
-8.84601e-11
1.55056e-10
-7.23815e-11
2.11205e-10
-5.61476e-11
2.51099e-10
-3.98948e-11
2.74894e-10
-2.37977e-11
2.82978e-10
-8.08564e-12
2.76044e-10
6.9363e-12
2.5519e-10
2.08578e-11
2.22074e-10
3.31187e-11
1.79129e-10
4.29408e-11
1.29879e-10
4.924e-11
7.93403e-11
5.05305e-11
3.45916e-11
4.47595e-11
5.30345e-12
2.9327e-11
5.34168e-12
3.01232e-11
-3.62859e-11
1.01282e-10
-1.01347e-10
1.9554e-10
-1.39175e-10
2.95869e-10
-1.49986e-10
3.87934e-10
-1.39303e-10
4.60485e-10
-1.12416e-10
5.0504e-10
-7.36446e-11
5.15408e-10
-2.63622e-11
4.87205e-10
2.68499e-11
4.17439e-10
8.40323e-11
3.04183e-10
1.43693e-10
1.46345e-10
2.04698e-10
-5.65119e-11
2.66176e-10
-3.0431e-10
3.27448e-10
-5.96568e-10
3.87979e-10
-9.3249e-10
4.4735e-10
-1.31103e-09
5.05228e-10
-1.73093e-09
5.61353e-10
-2.19079e-09
6.15518e-10
-2.68907e-09
6.6756e-10
-3.22413e-09
7.1735e-10
-3.79426e-09
7.64789e-10
-4.39768e-09
8.09801e-10
-5.03257e-09
8.5233e-10
-5.69708e-09
8.92335e-10
-6.38933e-09
9.2979e-10
-7.10743e-09
9.64679e-10
-7.84949e-09
9.96996e-10
-8.61361e-09
1.02674e-09
-9.39789e-09
1.05393e-09
-1.02005e-08
1.07857e-09
-1.10194e-08
1.10069e-09
-1.1853e-08
1.1203e-09
-1.26992e-08
1.13744e-09
-1.35564e-08
1.15214e-09
-1.44227e-08
1.16443e-09
-1.52964e-08
1.17435e-09
-1.61758e-08
1.18193e-09
-1.7059e-08
1.18723e-09
-1.79446e-08
1.19027e-09
-1.88307e-08
1.19111e-09
-1.97159e-08
1.18978e-09
-2.05986e-08
1.18634e-09
-2.14771e-08
1.18083e-09
-2.235e-08
1.17329e-09
-2.32159e-08
1.16378e-09
-2.40733e-08
1.15234e-09
-2.49208e-08
1.13903e-09
-2.5757e-08
1.12388e-09
-2.65806e-08
1.10696e-09
-2.73904e-08
1.08831e-09
-2.8185e-08
1.06798e-09
-2.89634e-08
1.04602e-09
-2.97242e-08
1.02249e-09
-3.04663e-08
9.97433e-10
-3.11888e-08
9.70899e-10
-3.18904e-08
9.42942e-10
-3.25702e-08
9.13614e-10
-3.32272e-08
8.82967e-10
-3.38605e-08
8.51051e-10
-3.44691e-08
8.17921e-10
-3.50522e-08
7.83627e-10
-3.56089e-08
7.48223e-10
-3.61385e-08
7.11761e-10
-3.66402e-08
6.74296e-10
-3.71134e-08
6.35879e-10
-3.75572e-08
5.96565e-10
-3.79712e-08
5.56408e-10
-3.83547e-08
5.15463e-10
-3.87072e-08
4.73783e-10
-3.90282e-08
4.31425e-10
-3.93172e-08
3.88443e-10
-3.95737e-08
3.44894e-10
-3.97975e-08
3.00834e-10
-3.99881e-08
2.5632e-10
-4.01454e-08
2.11409e-10
-4.02689e-08
1.66159e-10
-4.03586e-08
1.20629e-10
-4.04142e-08
7.48771e-11
-4.04356e-08
2.89626e-11
-4.04228e-08
-1.70543e-11
-4.03757e-08
-6.31132e-11
-4.02944e-08
-1.09153e-10
-4.01788e-08
-1.55113e-10
-4.00292e-08
-2.00929e-10
-3.98456e-08
-2.46541e-10
-3.96283e-08
-2.91885e-10
-3.93775e-08
-3.36897e-10
-3.90935e-08
-3.81513e-10
-3.87767e-08
-4.25669e-10
-3.84274e-08
-4.693e-10
-3.8046e-08
-5.12341e-10
-3.76332e-08
-5.54726e-10
-3.71893e-08
-5.9639e-10
-3.67151e-08
-6.37265e-10
-3.62111e-08
-6.77287e-10
-3.5678e-08
-7.16388e-10
-3.51165e-08
-7.54502e-10
-3.45275e-08
-7.91562e-10
-3.39118e-08
-8.27502e-10
-3.32703e-08
-8.62255e-10
-3.26038e-08
-8.95755e-10
-3.19134e-08
-9.27936e-10
-3.12001e-08
-9.58733e-10
-3.0465e-08
-9.8808e-10
-2.97092e-08
-1.01591e-09
-2.89339e-08
-1.04217e-09
-2.81402e-08
-1.06678e-09
-2.73296e-08
-1.08968e-09
-2.65033e-08
-1.11083e-09
-2.56626e-08
-1.13014e-09
-2.48089e-08
-1.14757e-09
-2.39438e-08
-1.16306e-09
-2.30686e-08
-1.17654e-09
-2.2185e-08
-1.18797e-09
-2.12944e-08
-1.19729e-09
-2.03985e-08
-1.20446e-09
-1.9499e-08
-1.20941e-09
-1.85974e-08
-1.2121e-09
-1.76955e-08
-1.21249e-09
-1.67951e-08
-1.21054e-09
-1.5898e-08
-1.20619e-09
-1.50058e-08
-1.19943e-09
-1.41205e-08
-1.19021e-09
-1.32439e-08
-1.1785e-09
-1.23778e-08
-1.16427e-09
-1.15242e-08
-1.1475e-09
-1.0685e-08
-1.12817e-09
-9.86192e-09
-1.10627e-09
-9.05705e-09
-1.08177e-09
-8.27225e-09
-1.05469e-09
-7.50945e-09
-1.02501e-09
-6.77054e-09
-9.92755e-10
-6.05744e-09
-9.57924e-10
-5.37201e-09
-9.20545e-10
-4.71611e-09
-8.80649e-10
-4.09157e-09
-8.38279e-10
-3.50014e-09
-7.93489e-10
-2.94357e-09
-7.46348e-10
-2.4235e-09
-6.9694e-10
-1.94152e-09
-6.4537e-10
-1.49909e-09
-5.91768e-10
-1.09757e-09
-5.36294e-10
-7.38167e-10
-4.79139e-10
-4.21904e-10
-4.20539e-10
-1.49586e-10
-3.60782e-10
7.82599e-11
-3.00228e-10
2.61438e-10
-2.39323e-10
4.00172e-10
-1.78624e-10
4.95207e-10
-1.18831e-10
5.4795e-10
-6.08315e-11
5.60648e-10
-5.76707e-12
5.36621e-10
4.48821e-11
4.80564e-10
8.91819e-11
3.9892e-10
1.24599e-10
3.00322e-10
1.47848e-10
1.96026e-10
1.54808e-10
1.0017e-10
1.40556e-10
2.92373e-11
1.00191e-10
3.46095e-11
4.48671e-11
-8.11518e-11
1.39214e-10
-1.95659e-10
2.565e-10
-2.56458e-10
3.75104e-10
-2.68619e-10
4.76773e-10
-2.40996e-10
5.46643e-10
-1.8228e-10
5.72995e-10
-9.99752e-11
5.46856e-10
-2.13723e-13
4.6159e-10
1.12109e-10
3.12464e-10
2.33148e-10
9.62854e-11
3.5987e-10
-1.889e-10
4.89888e-10
-5.44048e-10
6.21326e-10
-9.69302e-10
7.527e-10
-1.46415e-09
8.82827e-10
-2.02757e-09
1.01076e-09
-2.65809e-09
1.13575e-09
-3.35391e-09
1.25718e-09
-4.11296e-09
1.37457e-09
-4.93294e-09
1.48753e-09
-5.81135e-09
1.59576e-09
-6.74558e-09
1.69901e-09
-7.73287e-09
1.79709e-09
-8.77041e-09
1.88986e-09
-9.85529e-09
1.97721e-09
-1.09846e-08
2.05907e-09
-1.21553e-08
2.13538e-09
-1.33644e-08
2.20612e-09
-1.46089e-08
2.27128e-09
-1.58859e-08
2.33087e-09
-1.71922e-08
2.38491e-09
-1.8525e-08
2.43344e-09
-1.98812e-08
2.4765e-09
-2.12579e-08
2.51415e-09
-2.26522e-08
2.54645e-09
-2.40612e-08
2.57347e-09
-2.54822e-08
2.59528e-09
-2.69122e-08
2.61197e-09
-2.83486e-08
2.62362e-09
-2.97886e-08
2.63031e-09
-3.12297e-08
2.63215e-09
-3.26691e-08
2.62922e-09
-3.41044e-08
2.62163e-09
-3.55331e-08
2.60946e-09
-3.69526e-08
2.59284e-09
-3.83607e-08
2.57185e-09
-3.97549e-08
2.54661e-09
-4.11331e-08
2.51722e-09
-4.2493e-08
2.48379e-09
-4.38325e-08
2.44642e-09
-4.51494e-08
2.40523e-09
-4.64418e-08
2.36034e-09
-4.77076e-08
2.31184e-09
-4.89449e-08
2.25985e-09
-5.0152e-08
2.20448e-09
-5.13269e-08
2.14585e-09
-5.24681e-08
2.08407e-09
-5.35737e-08
2.01925e-09
-5.46422e-08
1.95151e-09
-5.56722e-08
1.88096e-09
-5.6662e-08
1.80772e-09
-5.76102e-08
1.73191e-09
-5.85157e-08
1.65364e-09
-5.93769e-08
1.57302e-09
-6.01928e-08
1.49018e-09
-6.09622e-08
1.40524e-09
-6.16839e-08
1.31831e-09
-6.2357e-08
1.22952e-09
-6.29805e-08
1.13898e-09
-6.35536e-08
1.04681e-09
-6.40753e-08
9.53149e-10
-6.4545e-08
8.58107e-10
-6.49619e-08
7.6181e-10
-6.53254e-08
6.64386e-10
-6.56351e-08
5.65959e-10
-6.58903e-08
4.66658e-10
-6.60908e-08
3.6661e-10
-6.62361e-08
2.65945e-10
-6.6326e-08
1.64794e-10
-6.63603e-08
6.32885e-11
-6.63389e-08
-3.84391e-11
-6.62618e-08
-1.40254e-10
-6.61289e-08
-2.42022e-10
-6.59404e-08
-3.43606e-10
-6.56965e-08
-4.44869e-10
-6.53974e-08
-5.45671e-10
-6.50434e-08
-6.45874e-10
-6.46349e-08
-7.45337e-10
-6.41725e-08
-8.43919e-10
-6.36567e-08
-9.41476e-10
-6.30882e-08
-1.03786e-09
-6.24676e-08
-1.13294e-09
-6.17957e-08
-1.22656e-09
-6.10735e-08
-1.31858e-09
-6.03019e-08
-1.40885e-09
-5.9482e-08
-1.49723e-09
-5.86148e-08
-1.58356e-09
-5.77016e-08
-1.66771e-09
-5.67437e-08
-1.74952e-09
-5.57423e-08
-1.82885e-09
-5.4699e-08
-1.90555e-09
-5.36153e-08
-1.97948e-09
-5.24928e-08
-2.05048e-09
-5.13331e-08
-2.11843e-09
-5.0138e-08
-2.18317e-09
-4.89093e-08
-2.24456e-09
-4.7649e-08
-2.30247e-09
-4.63591e-08
-2.35674e-09
-4.50415e-08
-2.40725e-09
-4.36985e-08
-2.45386e-09
-4.23322e-08
-2.49644e-09
-4.09449e-08
-2.53487e-09
-3.95389e-08
-2.569e-09
-3.81167e-08
-2.59872e-09
-3.66808e-08
-2.62391e-09
-3.52336e-08
-2.64446e-09
-3.37779e-08
-2.66024e-09
-3.23161e-08
-2.67117e-09
-3.08511e-08
-2.67712e-09
-2.93856e-08
-2.67801e-09
-2.79224e-08
-2.67374e-09
-2.64643e-08
-2.66423e-09
-2.50144e-08
-2.6494e-09
-2.35754e-08
-2.62917e-09
-2.21504e-08
-2.60349e-09
-2.07424e-08
-2.57229e-09
-1.93544e-08
-2.53553e-09
-1.79894e-08
-2.49316e-09
-1.66505e-08
-2.44517e-09
-1.53407e-08
-2.39153e-09
-1.40631e-08
-2.33224e-09
-1.28208e-08
-2.26731e-09
-1.16168e-08
-2.19676e-09
-1.04541e-08
-2.12064e-09
-9.33567e-09
-2.03899e-09
-8.26441e-09
-1.95192e-09
-7.24317e-09
-1.85951e-09
-6.27475e-09
-1.76191e-09
-5.36181e-09
-1.65929e-09
-4.50691e-09
-1.55184e-09
-3.71245e-09
-1.43982e-09
-2.98068e-09
-1.32354e-09
-2.3136e-09
-1.20337e-09
-1.71298e-09
-1.07976e-09
-1.18027e-09
-9.53243e-10
-7.16559e-10
-8.24496e-10
-3.22468e-10
-6.94323e-10
1.92627e-12
-5.63719e-10
2.57218e-10
-4.33913e-10
4.44821e-10
-3.06429e-10
5.67158e-10
-1.83166e-10
6.27892e-10
-6.65046e-11
6.32212e-10
4.05539e-11
5.87167e-10
1.34219e-10
5.02052e-10
2.09719e-10
3.888e-10
2.61127e-10
2.62314e-10
2.81326e-10
1.40615e-10
2.62258e-10
4.4701e-11
1.96058e-10
7.93155e-11
4.97091e-11
-1.30882e-10
1.50351e-10
-2.96276e-10
2.69282e-10
-3.75356e-10
3.81291e-10
-3.80625e-10
4.65578e-10
-3.25305e-10
5.05093e-10
-2.21812e-10
4.86121e-10
-8.09979e-11
3.97875e-10
8.80462e-11
2.32111e-10
2.77878e-10
-1.7224e-11
4.82478e-10
-3.54357e-10
6.96996e-10
-7.81997e-10
9.17527e-10
-1.3016e-09
1.14093e-09
-1.91358e-09
1.36468e-09
-2.61749e-09
1.58674e-09
-3.41217e-09
1.80545e-09
-4.2959e-09
2.01948e-09
-5.26647e-09
2.22774e-09
-6.32126e-09
2.42936e-09
-7.45736e-09
2.62363e-09
-8.67158e-09
2.80998e-09
-9.96052e-09
2.98794e-09
-1.13206e-08
3.15717e-09
-1.27481e-08
3.31738e-09
-1.42392e-08
3.46835e-09
-1.57901e-08
3.60993e-09
-1.73968e-08
3.74202e-09
-1.90552e-08
3.86454e-09
-2.07614e-08
3.97746e-09
-2.25113e-08
4.08079e-09
-2.43009e-08
4.17454e-09
-2.61262e-08
4.25876e-09
-2.79833e-08
4.33353e-09
-2.9868e-08
4.39891e-09
-3.17766e-08
4.45502e-09
-3.37051e-08
4.50196e-09
-3.56497e-08
4.53986e-09
-3.76065e-08
4.56884e-09
-3.9572e-08
4.58905e-09
-4.15423e-08
4.60064e-09
-4.35139e-08
4.60377e-09
-4.54833e-08
4.59858e-09
-4.74469e-08
4.58526e-09
-4.94014e-08
4.56397e-09
-5.13435e-08
4.53489e-09
-5.32698e-08
4.49819e-09
-5.51773e-08
4.45405e-09
-5.70627e-08
4.40267e-09
-5.89231e-08
4.34422e-09
-6.07556e-08
4.27889e-09
-6.25572e-08
4.20687e-09
-6.43253e-08
4.12836e-09
-6.6057e-08
4.04355e-09
-6.77498e-08
3.95263e-09
-6.94011e-08
3.8558e-09
-7.10085e-08
3.75325e-09
-7.25696e-08
3.64518e-09
-7.40822e-08
3.5318e-09
-7.5544e-08
3.4133e-09
-7.69529e-08
3.28989e-09
-7.83069e-08
3.16176e-09
-7.96041e-08
3.02912e-09
-8.08427e-08
2.89217e-09
-8.20208e-08
2.75113e-09
-8.31368e-08
2.60619e-09
-8.41891e-08
2.45756e-09
-8.51763e-08
2.30545e-09
-8.60968e-08
2.15008e-09
-8.69495e-08
1.99166e-09
-8.77331e-08
1.83039e-09
-8.84464e-08
1.6665e-09
-8.90885e-08
1.5002e-09
-8.96584e-08
1.3317e-09
-9.01553e-08
1.16124e-09
-9.05783e-08
9.89022e-10
-9.0927e-08
8.15279e-10
-9.12006e-08
6.40236e-10
-9.13988e-08
4.64119e-10
-9.15211e-08
2.87156e-10
-9.15674e-08
1.0958e-10
-9.15375e-08
-6.83761e-11
-9.14313e-08
-2.46478e-10
-9.12488e-08
-4.24488e-10
-9.09902e-08
-6.02168e-10
-9.06558e-08
-7.79277e-10
-9.02459e-08
-9.55571e-10
-8.9761e-08
-1.13081e-09
-8.92016e-08
-1.30474e-09
-8.85684e-08
-1.47711e-09
-8.78622e-08
-1.64769e-09
-8.70838e-08
-1.81621e-09
-8.62343e-08
-1.98243e-09
-8.53148e-08
-2.14609e-09
-8.43265e-08
-2.30693e-09
-8.32706e-08
-2.46471e-09
-8.21487e-08
-2.61916e-09
-8.09622e-08
-2.77004e-09
-7.97128e-08
-2.91708e-09
-7.84023e-08
-3.06002e-09
-7.70325e-08
-3.19862e-09
-7.56055e-08
-3.33262e-09
-7.41232e-08
-3.46176e-09
-7.25879e-08
-3.5858e-09
-7.10018e-08
-3.70447e-09
-6.93675e-08
-3.81753e-09
-6.76873e-08
-3.92474e-09
-6.59639e-08
-4.02585e-09
-6.42e-08
-4.12062e-09
-6.23984e-08
-4.20881e-09
-6.05621e-08
-4.29019e-09
-5.8694e-08
-4.36453e-09
-5.67973e-08
-4.43161e-09
-5.48751e-08
-4.4912e-09
-5.29307e-08
-4.5431e-09
-5.09675e-08
-4.5871e-09
-4.8989e-08
-4.62299e-09
-4.69986e-08
-4.6506e-09
-4.50001e-08
-4.66972e-09
-4.2997e-08
-4.6802e-09
-4.09932e-08
-4.68185e-09
-3.89924e-08
-4.67454e-09
-3.69985e-08
-4.65811e-09
-3.50154e-08
-4.63243e-09
-3.30472e-08
-4.59737e-09
-3.10979e-08
-4.55285e-09
-2.91714e-08
-4.49875e-09
-2.72719e-08
-4.43502e-09
-2.54035e-08
-4.36158e-09
-2.35703e-08
-4.27839e-09
-2.17764e-08
-4.18545e-09
-2.00259e-08
-4.08275e-09
-1.83228e-08
-3.97032e-09
-1.66714e-08
-3.84822e-09
-1.50755e-08
-3.71653e-09
-1.35391e-08
-3.57538e-09
-1.20661e-08
-3.42491e-09
-1.06603e-08
-3.26535e-09
-9.32524e-09
-3.09694e-09
-8.06451e-09
-2.92001e-09
-6.88143e-09
-2.73492e-09
-5.77909e-09
-2.54216e-09
-4.76036e-09
-2.34228e-09
-3.82778e-09
-2.13595e-09
-2.98356e-09
-1.92398e-09
-2.22944e-09
-1.70736e-09
-1.56667e-09
-1.48726e-09
-9.95896e-10
-1.2651e-09
-5.17001e-10
-1.04262e-09
-1.29006e-10
-8.21911e-10
1.70129e-10
-6.05563e-10
3.83705e-10
-3.96736e-10
5.1653e-10
-1.99325e-10
5.75209e-10
-1.81264e-11
5.68462e-10
1.40955e-10
5.0747e-10
2.70693e-10
4.06237e-10
3.62357e-10
2.81918e-10
4.05667e-10
1.55139e-10
3.89066e-10
5.05721e-11
3.00613e-10
1.29881e-10
4.75079e-11
-1.78409e-10
1.4027e-10
-3.8905e-10
2.42824e-10
-4.77887e-10
3.27761e-10
-4.65536e-10
3.727e-10
-3.70241e-10
3.59285e-10
-2.08413e-10
2.72613e-10
5.66218e-12
1.00783e-10
2.5988e-10
-1.65483e-10
5.44152e-10
-5.33161e-10
8.50159e-10
-1.00724e-09
1.17107e-09
-1.59103e-09
1.50131e-09
-2.28638e-09
1.83628e-09
-3.09396e-09
2.17226e-09
-4.01342e-09
2.50619e-09
-5.04353e-09
2.83556e-09
-6.18237e-09
3.15832e-09
-7.42742e-09
3.47279e-09
-8.77564e-09
3.77759e-09
-1.02236e-08
4.0716e-09
-1.17675e-08
4.35391e-09
-1.34034e-08
4.62379e-09
-1.51269e-08
4.88063e-09
-1.69335e-08
5.12398e-09
-1.88186e-08
5.35347e-09
-2.07775e-08
5.56884e-09
-2.28053e-08
5.76988e-09
-2.48973e-08
5.95647e-09
-2.70483e-08
6.12853e-09
-2.92536e-08
6.28603e-09
-3.1508e-08
6.42899e-09
-3.38067e-08
6.55747e-09
-3.61448e-08
6.67155e-09
-3.85172e-08
6.77133e-09
-4.09191e-08
6.85696e-09
-4.33458e-08
6.9286e-09
-4.57923e-08
6.98641e-09
-4.82541e-08
7.0306e-09
-5.07264e-08
7.06136e-09
-5.32047e-08
7.07892e-09
-5.56844e-08
7.08351e-09
-5.81612e-08
7.07536e-09
-6.06307e-08
7.05474e-09
-6.30886e-08
7.02188e-09
-6.55307e-08
6.97706e-09
-6.79531e-08
6.92054e-09
-7.03516e-08
6.8526e-09
-7.27225e-08
6.77352e-09
-7.50619e-08
6.68358e-09
-7.7366e-08
6.58306e-09
-7.96314e-08
6.47226e-09
-8.18545e-08
6.35146e-09
-8.4032e-08
6.22097e-09
-8.61604e-08
6.08108e-09
-8.82367e-08
5.93209e-09
-9.02578e-08
5.77431e-09
-9.22206e-08
5.60803e-09
-9.41224e-08
5.43356e-09
-9.59603e-08
5.25121e-09
-9.77317e-08
5.06129e-09
-9.9434e-08
4.86412e-09
-1.01065e-07
4.65999e-09
-1.02622e-07
4.44924e-09
-1.04103e-07
4.23217e-09
-1.05506e-07
4.00911e-09
-1.06829e-07
3.78037e-09
-1.0807e-07
3.54627e-09
-1.09227e-07
3.30715e-09
-1.10298e-07
3.06333e-09
-1.11283e-07
2.81514e-09
-1.12179e-07
2.5629e-09
-1.12986e-07
2.30696e-09
-1.13702e-07
2.04766e-09
-1.14326e-07
1.78532e-09
-1.14858e-07
1.52029e-09
-1.15295e-07
1.25292e-09
-1.15639e-07
9.83555e-10
-1.15887e-07
7.12546e-10
-1.1604e-07
4.40245e-10
-1.16097e-07
1.6701e-10
-1.16059e-07
-1.068e-10
-1.15925e-07
-3.80823e-10
-1.15694e-07
-6.54694e-10
-1.15369e-07
-9.28043e-10
-1.14947e-07
-1.2005e-09
-1.14431e-07
-1.47169e-09
-1.13821e-07
-1.74124e-09
-1.13117e-07
-2.00877e-09
-1.1232e-07
-2.27389e-09
-1.11431e-07
-2.53623e-09
-1.10452e-07
-2.79539e-09
-1.09384e-07
-3.05099e-09
-1.08227e-07
-3.30264e-09
-1.06984e-07
-3.54996e-09
-1.05656e-07
-3.79254e-09
-1.04246e-07
-4.02999e-09
-1.02754e-07
-4.26193e-09
-1.01183e-07
-4.48795e-09
-9.95351e-08
-4.70767e-09
-9.7813e-08
-4.9207e-09
-9.6019e-08
-5.12664e-09
-9.41556e-08
-5.3251e-09
-9.22257e-08
-5.51571e-09
-9.02321e-08
-5.69806e-09
-8.81779e-08
-5.87179e-09
-8.60661e-08
-6.03652e-09
-8.39001e-08
-6.19187e-09
-8.16832e-08
-6.33747e-09
-7.94191e-08
-6.47297e-09
-7.71113e-08
-6.598e-09
-7.47636e-08
-6.71222e-09
-7.23799e-08
-6.81529e-09
-6.99642e-08
-6.90688e-09
-6.75207e-08
-6.98666e-09
-6.50534e-08
-7.05432e-09
-6.25669e-08
-7.10955e-09
-6.00654e-08
-7.15208e-09
-5.75535e-08
-7.18162e-09
-5.50358e-08
-7.1979e-09
-5.2517e-08
-7.20069e-09
-5.00018e-08
-7.18974e-09
-4.7495e-08
-7.16485e-09
-4.50016e-08
-7.12582e-09
-4.25265e-08
-7.07248e-09
-4.00747e-08
-7.00466e-09
-3.76512e-08
-6.92224e-09
-3.52611e-08
-6.82512e-09
-3.29095e-08
-6.71321e-09
-3.06014e-08
-6.58647e-09
-2.8342e-08
-6.44488e-09
-2.61363e-08
-6.28847e-09
-2.39893e-08
-6.11729e-09
-2.1906e-08
-5.93146e-09
-1.98915e-08
-5.73111e-09
-1.79504e-08
-5.51647e-09
-1.60875e-08
-5.28779e-09
-1.43074e-08
-5.04543e-09
-1.26146e-08
-4.7898e-09
-1.10132e-08
-4.52141e-09
-9.50719e-09
-4.24088e-09
-8.10039e-09
-3.94897e-09
-6.79611e-09
-3.64655e-09
-5.59737e-09
-3.3347e-09
-4.50667e-09
-3.01468e-09
-3.52601e-09
-2.68802e-09
-2.65674e-09
-2.35652e-09
-1.89946e-09
-2.02238e-09
-1.25387e-09
-1.6882e-09
-7.18659e-10
-1.35713e-09
-2.91268e-10
-1.03296e-09
3.22886e-11
-7.20293e-10
2.57671e-10
-4.24702e-10
3.92481e-10
-1.52928e-10
4.46552e-10
8.6888e-11
4.32259e-10
2.84977e-10
3.64864e-10
4.29734e-10
2.62915e-10
5.07612e-10
1.48751e-10
5.0325e-10
4.94563e-11
3.99917e-10
1.79333e-10
4.04217e-11
-2.18826e-10
1.14264e-10
-4.62922e-10
1.85808e-10
-5.49439e-10
2.26888e-10
-5.06599e-10
2.14444e-10
-3.57779e-10
1.29504e-10
-1.23472e-10
-4.34341e-11
1.7859e-10
-3.16869e-10
5.33308e-10
-7.00663e-10
9.27948e-10
-1.20235e-09
1.35185e-09
-1.82742e-09
1.79615e-09
-2.57958e-09
2.25346e-09
-3.46098e-09
2.71768e-09
-4.47247e-09
3.18375e-09
-5.61375e-09
3.64747e-09
-6.88356e-09
4.10537e-09
-8.27981e-09
4.55457e-09
-9.79973e-09
4.9927e-09
-1.14399e-08
5.4178e-09
-1.31966e-08
5.82823e-09
-1.50653e-08
6.22269e-09
-1.70416e-08
6.60008e-09
-1.91205e-08
6.95952e-09
-2.12969e-08
7.30033e-09
-2.35653e-08
7.62194e-09
-2.59204e-08
7.92393e-09
-2.83565e-08
8.20598e-09
-3.08679e-08
8.46789e-09
-3.34489e-08
8.7095e-09
-3.60936e-08
8.93076e-09
-3.87963e-08
9.13165e-09
-4.15511e-08
9.31223e-09
-4.43521e-08
9.4726e-09
-4.71937e-08
9.61288e-09
-5.007e-08
9.73326e-09
-5.29753e-08
9.83393e-09
-5.5904e-08
9.91513e-09
-5.88506e-08
9.97712e-09
-6.18094e-08
1.00202e-08
-6.4775e-08
1.00446e-08
-6.77422e-08
1.00507e-08
-7.07056e-08
1.00388e-08
-7.36601e-08
1.00092e-08
-7.66006e-08
9.96237e-09
-7.95222e-08
9.89859e-09
-8.24199e-08
9.81826e-09
-8.5289e-08
9.72175e-09
-8.81249e-08
9.60945e-09
-9.09231e-08
9.48177e-09
-9.36792e-08
9.3391e-09
-9.63888e-08
9.18185e-09
-9.90477e-08
9.01043e-09
-1.01652e-07
8.82525e-09
-1.04198e-07
8.62675e-09
-1.06681e-07
8.41534e-09
-1.09098e-07
8.19144e-09
-1.11446e-07
7.95549e-09
-1.1372e-07
7.70793e-09
-1.15918e-07
7.44918e-09
-1.18036e-07
7.17968e-09
-1.20072e-07
6.89988e-09
-1.22022e-07
6.61022e-09
-1.23884e-07
6.31115e-09
-1.25655e-07
6.00312e-09
-1.27333e-07
5.68658e-09
-1.28914e-07
5.36198e-09
-1.30398e-07
5.02979e-09
-1.31781e-07
4.69046e-09
-1.33062e-07
4.34446e-09
-1.34239e-07
3.99226e-09
-1.35311e-07
3.63434e-09
-1.36275e-07
3.27115e-09
-1.3713e-07
2.9032e-09
-1.37876e-07
2.53095e-09
-1.38511e-07
2.15489e-09
-1.39033e-07
1.77552e-09
-1.39443e-07
1.39333e-09
-1.39739e-07
1.00882e-09
-1.39922e-07
6.22487e-10
-1.39989e-07
2.3484e-10
-1.39943e-07
-1.53608e-10
-1.39781e-07
-5.42344e-10
-1.39505e-07
-9.30847e-10
-1.39114e-07
-1.3186e-09
-1.3861e-07
-1.70506e-09
-1.37992e-07
-2.08971e-09
-1.37261e-07
-2.47202e-09
-1.36418e-07
-2.85144e-09
-1.35465e-07
-3.22743e-09
-1.34402e-07
-3.59945e-09
-1.3323e-07
-3.96696e-09
-1.31952e-07
-4.32939e-09
-1.30568e-07
-4.6862e-09
-1.29081e-07
-5.03685e-09
-1.27493e-07
-5.38076e-09
-1.25806e-07
-5.71739e-09
-1.24021e-07
-6.04618e-09
-1.22143e-07
-6.36657e-09
-1.20172e-07
-6.67802e-09
-1.18113e-07
-6.97995e-09
-1.15968e-07
-7.27184e-09
-1.1374e-07
-7.55311e-09
-1.11432e-07
-7.82323e-09
-1.09049e-07
-8.08166e-09
-1.06593e-07
-8.32786e-09
-1.04068e-07
-8.56129e-09
-1.01478e-07
-8.78143e-09
-9.88281e-08
-8.98777e-09
-9.61212e-08
-9.17979e-09
-9.33622e-08
-9.357e-09
-9.05556e-08
-9.5189e-09
-8.77058e-08
-9.66502e-09
-8.48178e-08
-9.79489e-09
-8.18964e-08
-9.90805e-09
-7.89467e-08
-1.00041e-08
-7.59737e-08
-1.00826e-08
-7.29827e-08
-1.01431e-08
-6.99791e-08
-1.01852e-08
-6.69683e-08
-1.02087e-08
-6.3956e-08
-1.02131e-08
-6.09476e-08
-1.01981e-08
-5.79491e-08
-1.01634e-08
-5.49661e-08
-1.01088e-08
-5.20044e-08
-1.00341e-08
-4.90701e-08
-9.93896e-09
-4.61691e-08
-9.82329e-09
-4.33073e-08
-9.68693e-09
-4.04907e-08
-9.52981e-09
-3.77253e-08
-9.35185e-09
-3.50171e-08
-9.15308e-09
-3.2372e-08
-8.93352e-09
-2.9796e-08
-8.6933e-09
-2.72949e-08
-8.43258e-09
-2.48744e-08
-8.15161e-09
-2.25402e-08
-7.85071e-09
-2.02977e-08
-7.53029e-09
-1.81522e-08
-7.19086e-09
-1.6109e-08
-6.83306e-09
-1.41727e-08
-6.45763e-09
-1.23481e-08
-6.0655e-09
-1.06393e-08
-5.65774e-09
-9.05023e-09
-5.23566e-09
-7.58412e-09
-4.8008e-09
-6.24385e-09
-4.35495e-09
-5.03158e-09
-3.90029e-09
-3.94873e-09
-3.43937e-09
-2.99588e-09
-2.97523e-09
-2.17259e-09
-2.51149e-09
-1.47727e-09
-2.05244e-09
-9.07006e-10
-1.60322e-09
-4.57321e-10
-1.16998e-09
-1.21989e-10
-7.60037e-10
1.07228e-10
-3.82143e-10
2.40838e-10
-4.67126e-11
2.91898e-10
2.33922e-10
2.76353e-10
4.45272e-10
2.13471e-10
5.70479e-10
1.26451e-10
5.90271e-10
4.34245e-11
4.82951e-10
2.22758e-10
2.99726e-11
-2.48777e-10
7.66117e-11
-5.09573e-10
1.05646e-10
-5.78495e-10
8.93555e-11
-4.90315e-10
4.82265e-12
-2.73236e-10
-1.66936e-10
4.82979e-11
-4.41539e-10
4.53194e-10
-8.31668e-10
9.2343e-10
-1.34741e-09
1.44369e-09
-1.99655e-09
2.00099e-09
-2.78482e-09
2.58442e-09
-3.71614e-09
3.18478e-09
-4.79283e-09
3.79438e-09
-6.01583e-09
4.40675e-09
-7.38485e-09
5.01649e-09
-8.89856e-09
5.61908e-09
-1.05547e-08
6.21074e-09
-1.23503e-08
6.78831e-09
-1.42817e-08
7.34917e-09
-1.63446e-08
7.89114e-09
-1.85343e-08
8.4124e-09
-2.08457e-08
8.91147e-09
-2.32733e-08
9.38713e-09
-2.58114e-08
9.8384e-09
-2.8454e-08
1.02645e-08
-3.11949e-08
1.06648e-08
-3.40278e-08
1.10389e-08
-3.69463e-08
1.13864e-08
-3.99438e-08
1.17071e-08
-4.30139e-08
1.20008e-08
-4.61498e-08
1.22676e-08
-4.9345e-08
1.25074e-08
-5.25929e-08
1.27204e-08
-5.58868e-08
1.29068e-08
-5.92201e-08
1.30666e-08
-6.25864e-08
1.32002e-08
-6.59792e-08
1.33079e-08
-6.93921e-08
1.339e-08
-7.28187e-08
1.34468e-08
-7.62528e-08
1.34787e-08
-7.96884e-08
1.34862e-08
-8.31193e-08
1.34697e-08
-8.65395e-08
1.34295e-08
-8.99434e-08
1.33662e-08
-9.33251e-08
1.32803e-08
-9.6679e-08
1.31722e-08
-9.99998e-08
1.30425e-08
-1.03282e-07
1.28916e-08
-1.0652e-07
1.27201e-08
-1.0971e-07
1.25285e-08
-1.12845e-07
1.23174e-08
-1.15922e-07
1.20874e-08
-1.18936e-07
1.18388e-08
-1.21881e-07
1.15724e-08
-1.24755e-07
1.12887e-08
-1.27552e-07
1.09882e-08
-1.30268e-07
1.06716e-08
-1.32899e-07
1.03394e-08
-1.35442e-07
9.99219e-09
-1.37893e-07
9.63056e-09
-1.40248e-07
9.25511e-09
-1.42505e-07
8.86643e-09
-1.44659e-07
8.46511e-09
-1.46707e-07
8.05178e-09
-1.48648e-07
7.62702e-09
-1.50477e-07
7.19146e-09
-1.52193e-07
6.74571e-09
-1.53793e-07
6.29039e-09
-1.55275e-07
5.82613e-09
-1.56636e-07
5.35355e-09
-1.57875e-07
4.87329e-09
-1.5899e-07
4.38599e-09
-1.59979e-07
3.89229e-09
-1.60841e-07
3.39284e-09
-1.61574e-07
2.8883e-09
-1.62178e-07
2.37932e-09
-1.62651e-07
1.86657e-09
-1.62993e-07
1.35072e-09
-1.63203e-07
8.32443e-10
-1.63281e-07
3.12421e-10
-1.63226e-07
-2.0866e-10
-1.63038e-07
-7.30107e-10
-1.62717e-07
-1.25122e-09
-1.62265e-07
-1.77131e-09
-1.6168e-07
-2.28965e-09
-1.60964e-07
-2.80554e-09
-1.60118e-07
-3.31826e-09
-1.59142e-07
-3.82709e-09
-1.58039e-07
-4.3313e-09
-1.56808e-07
-4.83017e-09
-1.55452e-07
-5.32295e-09
-1.53972e-07
-5.80891e-09
-1.52371e-07
-6.28732e-09
-1.50651e-07
-6.75743e-09
-1.48813e-07
-7.2185e-09
-1.4686e-07
-7.66979e-09
-1.44796e-07
-8.11055e-09
-1.42623e-07
-8.54003e-09
-1.40343e-07
-8.95751e-09
-1.37961e-07
-9.36223e-09
-1.35479e-07
-9.75345e-09
-1.32902e-07
-1.01305e-08
-1.30233e-07
-1.04925e-08
-1.27475e-07
-1.08389e-08
-1.24634e-07
-1.11688e-08
-1.21714e-07
-1.14817e-08
-1.18719e-07
-1.17768e-08
-1.15653e-07
-1.20534e-08
-1.12522e-07
-1.23108e-08
-1.09331e-07
-1.25483e-08
-1.06084e-07
-1.27654e-08
-1.02788e-07
-1.29614e-08
-9.9447e-08
-1.31356e-08
-9.60675e-08
-1.32876e-08
-9.26551e-08
-1.34165e-08
-8.92156e-08
-1.35221e-08
-8.5755e-08
-1.36036e-08
-8.22796e-08
-1.36606e-08
-7.87956e-08
-1.36927e-08
-7.53094e-08
-1.36993e-08
-7.18275e-08
-1.368e-08
-6.83563e-08
-1.36346e-08
-6.49026e-08
-1.35625e-08
-6.14731e-08
-1.34636e-08
-5.80744e-08
-1.33376e-08
-5.47135e-08
-1.31842e-08
-5.1397e-08
-1.30034e-08
-4.8132e-08
-1.27949e-08
-4.4925e-08
-1.25588e-08
-4.17831e-08
-1.2295e-08
-3.87129e-08
-1.20037e-08
-3.57211e-08
-1.16851e-08
-3.28143e-08
-1.13393e-08
-2.99991e-08
-1.09668e-08
-2.72818e-08
-1.0568e-08
-2.46686e-08
-1.01435e-08
-2.21654e-08
-9.69405e-09
-1.9778e-08
-9.22048e-09
-1.75117e-08
-8.72386e-09
-1.53718e-08
-8.20544e-09
-1.33628e-08
-7.66672e-09
-1.1489e-08
-7.10946e-09
-9.75409e-09
-6.53573e-09
-8.16106e-09
-5.94797e-09
-6.7123e-09
-5.34905e-09
-5.40931e-09
-4.74236e-09
-4.25266e-09
-4.13188e-09
-3.24184e-09
-3.52231e-09
-2.3751e-09
-2.91918e-09
-1.64928e-09
-2.32904e-09
-1.05963e-09
-1.75963e-09
-5.99605e-10
-1.22006e-09
-2.60645e-10
-7.21106e-10
-3.19271e-11
-2.75429e-10
9.98844e-11
1.02118e-10
1.50954e-10
3.94207e-10
1.40699e-10
5.80728e-10
9.23821e-11
6.38583e-10
3.39822e-11
5.41351e-10
2.56742e-10
1.7254e-11
-2.66017e-10
3.06179e-11
-5.22925e-10
8.3235e-12
-5.56208e-10
-7.60055e-11
-4.06e-10
-2.44467e-10
-1.04778e-10
-5.1553e-10
3.19367e-10
-9.04501e-10
8.42171e-10
-1.42389e-09
1.44282e-09
-2.08372e-09
2.10351e-09
-2.89175e-09
2.80902e-09
-3.85374e-09
3.54641e-09
-4.97365e-09
4.30469e-09
-6.25381e-09
5.07455e-09
-7.69516e-09
5.8481e-09
-9.29736e-09
6.61868e-09
-1.1059e-08
7.38068e-09
-1.29776e-08
8.12934e-09
-1.50499e-08
8.86069e-09
-1.72721e-08
9.57136e-09
-1.96395e-08
1.02586e-08
-2.21471e-08
1.09199e-08
-2.47891e-08
1.15535e-08
-2.75598e-08
1.21578e-08
-3.04527e-08
1.27313e-08
-3.34614e-08
1.32732e-08
-3.6579e-08
1.37825e-08
-3.97986e-08
1.42585e-08
-4.31132e-08
1.47009e-08
-4.65155e-08
1.51093e-08
-4.99982e-08
1.54835e-08
-5.3554e-08
1.58234e-08
-5.71756e-08
1.6129e-08
-6.08556e-08
1.64004e-08
-6.45865e-08
1.66377e-08
-6.83612e-08
1.68413e-08
-7.21723e-08
1.70113e-08
-7.60127e-08
1.71482e-08
-7.9875e-08
1.72523e-08
-8.37523e-08
1.73241e-08
-8.76376e-08
1.7364e-08
-9.1524e-08
1.73726e-08
-9.54048e-08
1.73504e-08
-9.92731e-08
1.72979e-08
-1.03123e-07
1.72157e-08
-1.06947e-07
1.71044e-08
-1.10739e-07
1.69647e-08
-1.14494e-07
1.67972e-08
-1.18205e-07
1.66025e-08
-1.21866e-07