/*--------------------------------*- C++ -*----------------------------------*\
  =========                 |
  \\      /  F ield         | OpenFOAM: The Open Source CFD Toolbox
   \\    /   O peration     | Website:  https://openfoam.org
    \\  /    A nd           | Version:  7
     \\/     M anipulation  |
\*---------------------------------------------------------------------------*/
FoamFile
{
    version     2.0;
    format      ascii;
    class       volVectorField;
    location    "0.4625";
    object      U;
}
// * * * * * * * * * * * * * * * * * * * * * * * * * * * * * * * * * * * * * //

dimensions      [0 1 -1 0 0 0 0];

internalField   nonuniform List<vector> 
25600
(
(1.87643e-07 -1.96837e-07 0)
(2.85113e-06 -1.78944e-06 0)
(9.08202e-06 -2.83082e-06 0)
(1.69317e-05 -3.20543e-06 0)
(2.48928e-05 -3.12311e-06 0)
(3.20128e-05 -2.74661e-06 0)
(3.76366e-05 -2.18257e-06 0)
(4.13149e-05 -1.50193e-06 0)
(4.27499e-05 -7.51688e-07 0)
(4.17485e-05 3.72867e-08 0)
(3.81922e-05 8.44554e-07 0)
(3.20177e-05 1.65627e-06 0)
(2.32036e-05 2.46257e-06 0)
(1.17598e-05 3.2561e-06 0)
(-2.28056e-06 4.03137e-06 0)
(-1.88664e-05 4.78437e-06 0)
(-3.79326e-05 5.51219e-06 0)
(-5.9403e-05 6.21269e-06 0)
(-8.31929e-05 6.88421e-06 0)
(-0.000109211 7.52552e-06 0)
(-0.00013736 8.13574e-06 0)
(-0.00016754 8.71428e-06 0)
(-0.000199649 9.26079e-06 0)
(-0.00023358 9.77504e-06 0)
(-0.000269227 1.0257e-05 0)
(-0.000306483 1.07066e-05 0)
(-0.000345238 1.11241e-05 0)
(-0.000385385 1.15096e-05 0)
(-0.000426817 1.18635e-05 0)
(-0.000469425 1.21861e-05 0)
(-0.000513103 1.24777e-05 0)
(-0.000557746 1.27388e-05 0)
(-0.000603248 1.29699e-05 0)
(-0.000649508 1.31713e-05 0)
(-0.000696422 1.33436e-05 0)
(-0.000743891 1.34873e-05 0)
(-0.000791817 1.36029e-05 0)
(-0.000840101 1.36911e-05 0)
(-0.000888648 1.37523e-05 0)
(-0.000937366 1.3787e-05 0)
(-0.000986162 1.3796e-05 0)
(-0.00103495 1.37797e-05 0)
(-0.00108363 1.37388e-05 0)
(-0.00113213 1.36738e-05 0)
(-0.00118036 1.35853e-05 0)
(-0.00122824 1.34739e-05 0)
(-0.00127569 1.33402e-05 0)
(-0.00132263 1.31849e-05 0)
(-0.00136899 1.30084e-05 0)
(-0.00141469 1.28114e-05 0)
(-0.00145965 1.25945e-05 0)
(-0.00150382 1.23583e-05 0)
(-0.00154712 1.21034e-05 0)
(-0.00158949 1.18304e-05 0)
(-0.00163086 1.15399e-05 0)
(-0.00167117 1.12324e-05 0)
(-0.00171037 1.09086e-05 0)
(-0.00174839 1.05691e-05 0)
(-0.00178518 1.02145e-05 0)
(-0.0018207 9.84529e-06 0)
(-0.00185488 9.46219e-06 0)
(-0.00188768 9.06575e-06 0)
(-0.00191905 8.65659e-06 0)
(-0.00194895 8.23529e-06 0)
(-0.00197734 7.80248e-06 0)
(-0.00200418 7.35874e-06 0)
(-0.00202942 6.90471e-06 0)
(-0.00205304 6.44099e-06 0)
(-0.002075 5.96819e-06 0)
(-0.00209526 5.48695e-06 0)
(-0.00211381 4.99788e-06 0)
(-0.00213061 4.50162e-06 0)
(-0.00214564 3.9988e-06 0)
(-0.00215888 3.49006e-06 0)
(-0.0021703 2.97604e-06 0)
(-0.0021799 2.4574e-06 0)
(-0.00218764 1.93478e-06 0)
(-0.00219353 1.40886e-06 0)
(-0.00219755 8.80302e-07 0)
(-0.0021997 3.49776e-07 0)
(-0.00219996 -1.82031e-07 0)
(-0.00219834 -7.14428e-07 0)
(-0.00219483 -1.24672e-06 0)
(-0.00218944 -1.7782e-06 0)
(-0.00218217 -2.30816e-06 0)
(-0.00217303 -2.83589e-06 0)
(-0.00216202 -3.36066e-06 0)
(-0.00214916 -3.88174e-06 0)
(-0.00213447 -4.39839e-06 0)
(-0.00211796 -4.90988e-06 0)
(-0.00209965 -5.41546e-06 0)
(-0.00207956 -5.91438e-06 0)
(-0.00205772 -6.40587e-06 0)
(-0.00203416 -6.88918e-06 0)
(-0.00200891 -7.36354e-06 0)
(-0.00198199 -7.82817e-06 0)
(-0.00195346 -8.28231e-06 0)
(-0.00192334 -8.72517e-06 0)
(-0.00189168 -9.15598e-06 0)
(-0.00185852 -9.57397e-06 0)
(-0.00182391 -9.97835e-06 0)
(-0.0017879 -1.03683e-05 0)
(-0.00175054 -1.07432e-05 0)
(-0.00171189 -1.11021e-05 0)
(-0.001672 -1.14443e-05 0)
(-0.00163094 -1.1769e-05 0)
(-0.00158877 -1.20755e-05 0)
(-0.00154555 -1.2363e-05 0)
(-0.00150135 -1.26308e-05 0)
(-0.00145625 -1.28781e-05 0)
(-0.00141032 -1.31042e-05 0)
(-0.00136363 -1.33084e-05 0)
(-0.00131626 -1.349e-05 0)
(-0.0012683 -1.36483e-05 0)
(-0.00121982 -1.37826e-05 0)
(-0.00117091 -1.38923e-05 0)
(-0.00112167 -1.39767e-05 0)
(-0.00107217 -1.40353e-05 0)
(-0.00102252 -1.40673e-05 0)
(-0.000972805 -1.40722e-05 0)
(-0.000923119 -1.40495e-05 0)
(-0.000873562 -1.39987e-05 0)
(-0.000824234 -1.39192e-05 0)
(-0.000775234 -1.38106e-05 0)
(-0.000726666 -1.36724e-05 0)
(-0.000678633 -1.35042e-05 0)
(-0.000631239 -1.33056e-05 0)
(-0.000584591 -1.30763e-05 0)
(-0.000538795 -1.2816e-05 0)
(-0.000493957 -1.25244e-05 0)
(-0.000450188 -1.22014e-05 0)
(-0.000407593 -1.18468e-05 0)
(-0.000366282 -1.14604e-05 0)
(-0.000326362 -1.10422e-05 0)
(-0.000287941 -1.05923e-05 0)
(-0.000251126 -1.01108e-05 0)
(-0.000216023 -9.59791e-06 0)
(-0.000182735 -9.05391e-06 0)
(-0.000151364 -8.47923e-06 0)
(-0.000122009 -7.87445e-06 0)
(-9.4767e-05 -7.24041e-06 0)
(-6.97286e-05 -6.57813e-06 0)
(-4.69808e-05 -5.88889e-06 0)
(-2.66037e-05 -5.17423e-06 0)
(-8.6695e-06 -4.43616e-06 0)
(6.75958e-06 -3.67737e-06 0)
(1.96336e-05 -2.90136e-06 0)
(2.99176e-05 -2.11256e-06 0)
(3.75961e-05 -1.31666e-06 0)
(4.26782e-05 -5.21303e-07 0)
(4.52053e-05 2.6308e-07 0)
(4.52606e-05 1.02181e-06 0)
(4.29833e-05 1.73393e-06 0)
(3.85877e-05 2.36867e-06 0)
(3.23938e-05 2.87971e-06 0)
(2.48692e-05 3.19705e-06 0)
(1.66798e-05 3.21641e-06 0)
(8.77775e-06 2.78144e-06 0)
(2.6403e-06 1.69892e-06 0)
(1.21003e-07 1.2321e-07 0)
(1.78253e-06 -2.86348e-06 0)
(9.39398e-06 -9.40526e-06 0)
(2.31508e-05 -1.34154e-05 0)
(3.93907e-05 -1.47279e-05 0)
(5.52757e-05 -1.39657e-05 0)
(6.88127e-05 -1.1701e-05 0)
(7.84601e-05 -8.37287e-06 0)
(8.30583e-05 -4.30923e-06 0)
(8.17756e-05 2.4868e-07 0)
(7.40351e-05 5.12462e-06 0)
(5.94535e-05 1.01894e-05 0)
(3.77973e-05 1.53478e-05 0)
(8.9504e-06 2.05279e-05 0)
(-2.71113e-05 2.56745e-05 0)
(-7.03393e-05 3.07447e-05 0)
(-0.000120629 3.57053e-05 0)
(-0.000177829 4.05305e-05 0)
(-0.000241756 4.52004e-05 0)
(-0.000312194 4.96995e-05 0)
(-0.000388907 5.40154e-05 0)
(-0.000471639 5.81387e-05 0)
(-0.000560122 6.20623e-05 0)
(-0.000654076 6.57807e-05 0)
(-0.000753213 6.92904e-05 0)
(-0.000857239 7.25885e-05 0)
(-0.000965854 7.56736e-05 0)
(-0.00107876 7.85449e-05 0)
(-0.00119564 8.12025e-05 0)
(-0.00131621 8.36471e-05 0)
(-0.00144016 8.58797e-05 0)
(-0.00156718 8.7902e-05 0)
(-0.00169698 8.97159e-05 0)
(-0.00182925 9.13237e-05 0)
(-0.00196371 9.2728e-05 0)
(-0.00210006 9.39316e-05 0)
(-0.00223801 9.49374e-05 0)
(-0.00237728 9.57487e-05 0)
(-0.00251759 9.63689e-05 0)
(-0.00265866 9.68013e-05 0)
(-0.00280023 9.70495e-05 0)
(-0.00294203 9.71172e-05 0)
(-0.0030838 9.70082e-05 0)
(-0.00322529 9.67263e-05 0)
(-0.00336625 9.62754e-05 0)
(-0.00350642 9.56593e-05 0)
(-0.00364559 9.48822e-05 0)
(-0.0037835 9.39479e-05 0)
(-0.00391995 9.28605e-05 0)
(-0.00405469 9.16242e-05 0)
(-0.00418753 9.0243e-05 0)
(-0.00431826 8.8721e-05 0)
(-0.00444666 8.70623e-05 0)
(-0.00457254 8.52712e-05 0)
(-0.00469572 8.33517e-05 0)
(-0.004816 8.13081e-05 0)
(-0.00493321 7.91445e-05 0)
(-0.00504718 7.68651e-05 0)
(-0.00515774 7.44741e-05 0)
(-0.00526472 7.19758e-05 0)
(-0.00536798 6.93744e-05 0)
(-0.00546736 6.66741e-05 0)
(-0.00556273 6.38793e-05 0)
(-0.00565395 6.09941e-05 0)
(-0.00574089 5.80229e-05 0)
(-0.00582342 5.497e-05 0)
(-0.00590144 5.18397e-05 0)
(-0.00597482 4.86364e-05 0)
(-0.00604348 4.53645e-05 0)
(-0.0061073 4.20284e-05 0)
(-0.0061662 3.86325e-05 0)
(-0.00622009 3.51813e-05 0)
(-0.00626891 3.16794e-05 0)
(-0.00631257 2.81312e-05 0)
(-0.00635101 2.45413e-05 0)
(-0.00638417 2.09143e-05 0)
(-0.00641201 1.7255e-05 0)
(-0.00643448 1.35679e-05 0)
(-0.00645155 9.85782e-06 0)
(-0.00646317 6.12954e-06 0)
(-0.00646934 2.38786e-06 0)
(-0.00647003 -1.36234e-06 0)
(-0.00646524 -5.11615e-06 0)
(-0.00645497 -8.86862e-06 0)
(-0.00643921 -1.26148e-05 0)
(-0.00641799 -1.63495e-05 0)
(-0.00639133 -2.00678e-05 0)
(-0.00635925 -2.37644e-05 0)
(-0.00632179 -2.74343e-05 0)
(-0.00627899 -3.10722e-05 0)
(-0.00623091 -3.46729e-05 0)
(-0.0061776 -3.82311e-05 0)
(-0.00611913 -4.17415e-05 0)
(-0.00605558 -4.51987e-05 0)
(-0.00598702 -4.85973e-05 0)
(-0.00591355 -5.1932e-05 0)
(-0.00583526 -5.51974e-05 0)
(-0.00575226 -5.8388e-05 0)
(-0.00566467 -6.14983e-05 0)
(-0.0055726 -6.4523e-05 0)
(-0.00547619 -6.74567e-05 0)
(-0.00537557 -7.02937e-05 0)
(-0.00527089 -7.30289e-05 0)
(-0.0051623 -7.56566e-05 0)
(-0.00504996 -7.81716e-05 0)
(-0.00493405 -8.05685e-05 0)
(-0.00481473 -8.28421e-05 0)
(-0.00469219 -8.4987e-05 0)
(-0.00456663 -8.6998e-05 0)
(-0.00443824 -8.887e-05 0)
(-0.00430723 -9.05981e-05 0)
(-0.00417381 -9.2177e-05 0)
(-0.00403821 -9.36021e-05 0)
(-0.00390065 -9.48684e-05 0)
(-0.00376136 -9.59714e-05 0)
(-0.0036206 -9.69063e-05 0)
(-0.0034786 -9.7669e-05 0)
(-0.00333561 -9.82549e-05 0)
(-0.00319191 -9.86601e-05 0)
(-0.00304775 -9.88805e-05 0)
(-0.00290341 -9.89123e-05 0)
(-0.00275916 -9.87519e-05 0)
(-0.00261529 -9.8396e-05 0)
(-0.00247207 -9.78413e-05 0)
(-0.0023298 -9.7085e-05 0)
(-0.00218877 -9.61242e-05 0)
(-0.00204929 -9.49566e-05 0)
(-0.00191164 -9.35801e-05 0)
(-0.00177613 -9.19927e-05 0)
(-0.00164307 -9.01931e-05 0)
(-0.00151276 -8.81801e-05 0)
(-0.00138551 -8.59531e-05 0)
(-0.00126163 -8.35117e-05 0)
(-0.00114142 -8.08562e-05 0)
(-0.00102518 -7.79873e-05 0)
(-0.000913227 -7.49066e-05 0)
(-0.000805848 -7.1616e-05 0)
(-0.000703342 -6.81187e-05 0)
(-0.000605996 -6.44184e-05 0)
(-0.00051409 -6.05201e-05 0)
(-0.000427896 -5.643e-05 0)
(-0.000347672 -5.2156e-05 0)
(-0.000273664 -4.77079e-05 0)
(-0.000206099 -4.30977e-05 0)
(-0.000145182 -3.834e-05 0)
(-9.1094e-05 -3.34528e-05 0)
(-4.39825e-05 -2.84588e-05 0)
(-3.95649e-06 -2.33864e-05 0)
(2.89234e-05 -1.82709e-05 0)
(5.46558e-05 -1.31572e-05 0)
(7.33136e-05 -8.10237e-06 0)
(8.50632e-05 -3.1801e-06 0)
(9.01892e-05 1.51249e-06 0)
(8.91272e-05 5.84615e-06 0)
(8.25059e-05 9.64673e-06 0)
(7.12027e-05 1.26772e-05 0)
(5.64114e-05 1.46171e-05 0)
(3.96899e-05 1.50439e-05 0)
(2.3021e-05 1.34203e-05 0)
(9.18023e-06 9.18925e-06 0)
(1.69294e-06 2.64462e-06 0)
(2.82722e-06 -9.08521e-06 0)
(1.34156e-05 -2.31604e-05 0)
(3.10865e-05 -3.10737e-05 0)
(5.08628e-05 -3.3143e-05 0)
(6.91466e-05 -3.04668e-05 0)
(8.33795e-05 -2.41408e-05 0)
(9.14786e-05 -1.50933e-05 0)
(9.18004e-05 -4.06812e-06 0)
(8.31107e-05 8.35527e-06 0)
(6.45151e-05 2.17287e-05 0)
(3.53922e-05 3.57065e-05 0)
(-4.6594e-06 5.00218e-05 0)
(-5.58639e-05 6.44676e-05 0)
(-0.000118303 7.8882e-05 0)
(-0.000191941 9.31373e-05 0)
(-0.00027665 0.000107132 0)
(-0.000372229 0.000120787 0)
(-0.000478413 0.000134037 0)
(-0.000594889 0.000146833 0)
(-0.000721306 0.000159134 0)
(-0.000857278 0.000170909 0)
(-0.00100239 0.000182133 0)
(-0.00115623 0.000192787 0)
(-0.00131833 0.000202858 0)
(-0.00148823 0.000212334 0)
(-0.00166549 0.000221209 0)
(-0.0018496 0.000229479 0)
(-0.00204011 0.000237141 0)
(-0.00223652 0.000244195 0)
(-0.00243836 0.000250644 0)
(-0.00264514 0.00025649 0)
(-0.00285638 0.000261738 0)
(-0.00307162 0.000266394 0)
(-0.00329037 0.000270463 0)
(-0.00351216 0.000273953 0)
(-0.00373655 0.000276872 0)
(-0.00396306 0.000279229 0)
(-0.00419124 0.000281031 0)
(-0.00442067 0.00028229 0)
(-0.00465089 0.000283014 0)
(-0.00488148 0.000283213 0)
(-0.00511202 0.000282899 0)
(-0.0053421 0.000282082 0)
(-0.00557131 0.000280773 0)
(-0.00579926 0.000278983 0)
(-0.00602557 0.000276724 0)
(-0.00624984 0.000274006 0)
(-0.00647173 0.000270842 0)
(-0.00669087 0.000267243 0)
(-0.0069069 0.000263221 0)
(-0.00711949 0.000258788 0)
(-0.00732831 0.000253956 0)
(-0.00753305 0.000248736 0)
(-0.00773337 0.000243141 0)
(-0.007929 0.000237183 0)
(-0.00811963 0.000230875 0)
(-0.00830498 0.000224227 0)
(-0.00848479 0.000217253 0)
(-0.00865878 0.000209966 0)
(-0.00882672 0.000202376 0)
(-0.00898835 0.000194498 0)
(-0.00914346 0.000186342 0)
(-0.0092918 0.000177922 0)
(-0.00943319 0.000169251 0)
(-0.00956741 0.000160341 0)
(-0.00969427 0.000151204 0)
(-0.0098136 0.000141854 0)
(-0.00992523 0.000132304 0)
(-0.010029 0.000122565 0)
(-0.0101248 0.000112652 0)
(-0.0102124 0.000102578 0)
(-0.0102917 9.23553e-05 0)
(-0.0103627 8.19978e-05 0)
(-0.0104251 7.15188e-05 0)
(-0.010479 6.09319e-05 0)
(-0.0105242 5.02507e-05 0)
(-0.0105607 3.9489e-05 0)
(-0.0105883 2.86607e-05 0)
(-0.0106072 1.77798e-05 0)
(-0.0106171 6.86043e-06 0)
(-0.0106182 -4.08312e-06 0)
(-0.0106103 -1.50365e-05 0)
(-0.0105935 -2.59851e-05 0)
(-0.0105678 -3.69143e-05 0)
(-0.0105332 -4.78094e-05 0)
(-0.0104897 -5.86555e-05 0)
(-0.0104374 -6.94376e-05 0)
(-0.0103764 -8.01405e-05 0)
(-0.0103067 -9.0749e-05 0)
(-0.0102285 -0.000101248 0)
(-0.0101417 -0.000111622 0)
(-0.0100465 -0.000121855 0)
(-0.00994309 -0.000131931 0)
(-0.00983153 -0.000141836 0)
(-0.00971198 -0.000151554 0)
(-0.00958462 -0.000161068 0)
(-0.0094496 -0.000170362 0)
(-0.00930712 -0.000179422 0)
(-0.00915738 -0.000188231 0)
(-0.00900058 -0.000196773 0)
(-0.00883695 -0.000205033 0)
(-0.00866673 -0.000212995 0)
(-0.00849016 -0.000220643 0)
(-0.00830751 -0.000227961 0)
(-0.00811906 -0.000234935 0)
(-0.00792508 -0.000241548 0)
(-0.00772589 -0.000247786 0)
(-0.00752179 -0.000253634 0)
(-0.0073131 -0.000259076 0)
(-0.00710017 -0.000264099 0)
(-0.00688333 -0.000268687 0)
(-0.00666295 -0.000272827 0)
(-0.0064394 -0.000276506 0)
(-0.00621305 -0.000279708 0)
(-0.0059843 -0.000282423 0)
(-0.00575355 -0.000284637 0)
(-0.00552121 -0.000286337 0)
(-0.0052877 -0.000287512 0)
(-0.00505345 -0.000288152 0)
(-0.0048189 -0.000288244 0)
(-0.00458449 -0.00028778 0)
(-0.00435067 -0.00028675 0)
(-0.00411792 -0.000285144 0)
(-0.00388668 -0.000282955 0)
(-0.00365745 -0.000280176 0)
(-0.00343069 -0.0002768 0)
(-0.00320688 -0.000272822 0)
(-0.00298652 -0.000268237 0)
(-0.00277009 -0.000263042 0)
(-0.00255807 -0.000257234 0)
(-0.00235097 -0.000250812 0)
(-0.00214926 -0.000243778 0)
(-0.00195343 -0.000236132 0)
(-0.00176398 -0.000227879 0)
(-0.00158137 -0.000219024 0)
(-0.00140608 -0.000209575 0)
(-0.00123857 -0.000199543 0)
(-0.00107929 -0.000188941 0)
(-0.000928673 -0.000177787 0)
(-0.000787148 -0.000166101 0)
(-0.000655108 -0.000153908 0)
(-0.000532926 -0.000141242 0)
(-0.000420943 -0.000128139 0)
(-0.000319464 -0.000114648 0)
(-0.000228748 -0.000100825 0)
(-0.000149002 -8.67403e-05 0)
(-8.0364e-05 -7.24805e-05 0)
(-2.28959e-05 -5.81522e-05 0)
(2.34387e-05 -4.38888e-05 0)
(5.87942e-05 -2.98568e-05 0)
(8.34695e-05 -1.62665e-05 0)
(9.79415e-05 -3.38531e-06 0)
(0.000102906 8.44393e-06 0)
(9.93291e-05 1.87798e-05 0)
(8.85038e-05 2.70546e-05 0)
(7.21196e-05 3.25475e-05 0)
(5.22821e-05 3.43758e-05 0)
(3.15378e-05 3.15232e-05 0)
(1.34188e-05 2.30206e-05 0)
(2.776e-06 8.77571e-06 0)
(3.20763e-06 -1.69368e-05 0)
(1.47584e-05 -3.94206e-05 0)
(3.32299e-05 -5.08631e-05 0)
(5.27525e-05 -5.26284e-05 0)
(6.92197e-05 -4.64507e-05 0)
(7.97212e-05 -3.40037e-05 0)
(8.18458e-05 -1.67483e-05 0)
(7.36428e-05 4.10291e-06 0)
(5.36031e-05 2.75705e-05 0)
(2.05978e-05 5.28722e-05 0)
(-2.61829e-05 7.93857e-05 0)
(-8.72826e-05 0.000106617 0)
(-0.000163025 0.000134173 0)
(-0.000253552 0.000161742 0)
(-0.000358855 0.000189072 0)
(-0.000478799 0.000215963 0)
(-0.000613151 0.000242252 0)
(-0.00076159 0.00026781 0)
(-0.000923728 0.000292532 0)
(-0.00109912 0.000316335 0)
(-0.00128728 0.00033915 0)
(-0.00148767 0.000360926 0)
(-0.00169973 0.00038162 0)
(-0.00192289 0.0004012 0)
(-0.00215653 0.000419642 0)
(-0.00240005 0.000436929 0)
(-0.00265281 0.00045305 0)
(-0.00291417 0.000467998 0)
(-0.0031835 0.00048177 0)
(-0.00346015 0.000494367 0)
(-0.00374348 0.000505794 0)
(-0.00403283 0.000516058 0)
(-0.00432758 0.000525166 0)
(-0.00462708 0.000533131 0)
(-0.0049307 0.000539965 0)
(-0.00523782 0.000545682 0)
(-0.00554781 0.000550298 0)
(-0.00586008 0.00055383 0)
(-0.00617401 0.000556295 0)
(-0.00648902 0.000557711 0)
(-0.00680452 0.000558098 0)
(-0.00711993 0.000557476 0)
(-0.00743471 0.000555866 0)
(-0.0077483 0.000553288 0)
(-0.00806015 0.000549764 0)
(-0.00836975 0.000545316 0)
(-0.00867658 0.000539966 0)
(-0.00898014 0.000533736 0)
(-0.00927992 0.000526649 0)
(-0.00957547 0.000518729 0)
(-0.00986631 0.000509998 0)
(-0.010152 0.000500479 0)
(-0.0104321 0.000490197 0)
(-0.0107061 0.000479174 0)
(-0.0109738 0.000467435 0)
(-0.0112346 0.000455004 0)
(-0.0114881 0.000441904 0)
(-0.0117341 0.00042816 0)
(-0.0119722 0.000413796 0)
(-0.0122019 0.000398836 0)
(-0.012423 0.000383306 0)
(-0.0126352 0.000367229 0)
(-0.0128381 0.00035063 0)
(-0.0130315 0.000333535 0)
(-0.0132151 0.000315968 0)
(-0.0133886 0.000297954 0)
(-0.0135519 0.000279519 0)
(-0.0137045 0.000260688 0)
(-0.0138464 0.000241487 0)
(-0.0139774 0.000221941 0)
(-0.0140972 0.000202078 0)
(-0.0142057 0.000181922 0)
(-0.0143027 0.0001615 0)
(-0.014388 0.000140839 0)
(-0.0144616 0.000119966 0)
(-0.0145234 9.89073e-05 0)
(-0.0145732 7.76906e-05 0)
(-0.014611 5.63433e-05 0)
(-0.0146366 3.48931e-05 0)
(-0.0146501 1.33681e-05 0)
(-0.0146514 -8.20366e-06 0)
(-0.0146405 -2.97936e-05 0)
(-0.0146174 -5.13731e-05 0)
(-0.0145822 -7.29132e-05 0)
(-0.0145347 -9.43847e-05 0)
(-0.0144751 -0.000115758 0)
(-0.0144035 -0.000137004 0)
(-0.01432 -0.000158093 0)
(-0.0142245 -0.000178994 0)
(-0.0141173 -0.000199677 0)
(-0.0139985 -0.000220112 0)
(-0.0138683 -0.000240268 0)
(-0.0137267 -0.000260115 0)
(-0.013574 -0.000279622 0)
(-0.0134104 -0.000298758 0)
(-0.0132361 -0.000317491 0)
(-0.0130514 -0.000335791 0)
(-0.0128565 -0.000353627 0)
(-0.0126516 -0.000370967 0)
(-0.0124371 -0.00038778 0)
(-0.0122133 -0.000404036 0)
(-0.0119804 -0.000419704 0)
(-0.011739 -0.000434753 0)
(-0.0114891 -0.000449151 0)
(-0.0112314 -0.00046287 0)
(-0.0109662 -0.000475879 0)
(-0.0106938 -0.000488149 0)
(-0.0104147 -0.000499649 0)
(-0.0101293 -0.000510351 0)
(-0.00983817 -0.000520227 0)
(-0.0095417 -0.000529248 0)
(-0.00924038 -0.000537388 0)
(-0.00893474 -0.000544619 0)
(-0.00862528 -0.000550916 0)
(-0.00831254 -0.000556253 0)
(-0.00799706 -0.000560606 0)
(-0.00767941 -0.000563952 0)
(-0.00736015 -0.000566267 0)
(-0.00703987 -0.00056753 0)
(-0.00671917 -0.000567721 0)
(-0.00639864 -0.000566821 0)
(-0.00607891 -0.000564812 0)
(-0.0057606 -0.000561676 0)
(-0.00544435 -0.0005574 0)
(-0.00513078 -0.00055197 0)
(-0.00482055 -0.000545374 0)
(-0.00451431 -0.000537602 0)
(-0.00421272 -0.000528647 0)
(-0.00391642 -0.000518502 0)
(-0.00362609 -0.000507166 0)
(-0.00334237 -0.000494637 0)
(-0.00306593 -0.000480918 0)
(-0.00279741 -0.000466015 0)
(-0.00253746 -0.000449937 0)
(-0.00228672 -0.000432698 0)
(-0.00204582 -0.000414315 0)
(-0.00181537 -0.000394813 0)
(-0.00159595 -0.000374221 0)
(-0.00138816 -0.000352575 0)
(-0.00119253 -0.000329921 0)
(-0.00100957 -0.000306313 0)
(-0.000839781 -0.000281816 0)
(-0.000683582 -0.000256512 0)
(-0.00054136 -0.000230497 0)
(-0.000413433 -0.000203888 0)
(-0.000300046 -0.000176827 0)
(-0.000201352 -0.000149487 0)
(-0.0001174 -0.000122079 0)
(-4.81083e-05 -9.48625e-05 0)
(6.75678e-06 -6.81572e-05 0)
(4.76138e-05 -4.23601e-05 0)
(7.5101e-05 -1.79645e-05 0)
(9.01195e-05 4.41386e-06 0)
(9.38815e-05 2.40069e-05 0)
(8.79678e-05 3.98608e-05 0)
(7.43856e-05 5.08089e-05 0)
(5.55791e-05 5.54669e-05 0)
(3.44529e-05 5.22819e-05 0)
(1.50674e-05 3.97041e-05 0)
(3.21516e-06 1.66738e-05 0)
(3.13561e-06 -2.49223e-05 0)
(1.40515e-05 -5.53779e-05 0)
(3.06907e-05 -6.92292e-05 0)
(4.68104e-05 -6.91327e-05 0)
(5.80225e-05 -5.7598e-05 0)
(6.11938e-05 -3.69246e-05 0)
(5.37166e-05 -9.12084e-06 0)
(3.34557e-05 2.41189e-05 0)
(-1.27123e-06 6.13941e-05 0)
(-5.17506e-05 0.000101561 0)
(-0.000118928 0.000143689 0)
(-0.000203455 0.000187023 0)
(-0.000305736 0.000230953 0)
(-0.000425966 0.000274982 0)
(-0.00056416 0.000318708 0)
(-0.000720188 0.000361805 0)
(-0.000893793 0.000404004 0)
(-0.00108461 0.000445091 0)
(-0.0012922 0.000484887 0)
(-0.00151604 0.000523251 0)
(-0.00175555 0.000560067 0)
(-0.0020101 0.000595241 0)
(-0.00227902 0.000628701 0)
(-0.0025616 0.000660388 0)
(-0.00285713 0.000690258 0)
(-0.00316484 0.000718279 0)
(-0.00348398 0.000744427 0)
(-0.00381376 0.000768686 0)
(-0.00415339 0.000791051 0)
(-0.00450209 0.000811519 0)
(-0.00485907 0.000830093 0)
(-0.00522352 0.000846782 0)
(-0.00559465 0.000861598 0)
(-0.00597168 0.000874558 0)
(-0.00635382 0.000885679 0)
(-0.0067403 0.000894983 0)
(-0.00713035 0.000902495 0)
(-0.0075232 0.000908238 0)
(-0.00791811 0.000912242 0)
(-0.00831434 0.000914535 0)
(-0.00871116 0.000915148 0)
(-0.00910785 0.000914112 0)
(-0.00950373 0.000911459 0)
(-0.00989809 0.000907224 0)
(-0.0102903 0.000901441 0)
(-0.0106796 0.000894146 0)
(-0.0110654 0.000885372 0)
(-0.0114471 0.000875158 0)
(-0.0118241 0.00086354 0)
(-0.0121957 0.000850555 0)
(-0.0125614 0.000836241 0)
(-0.0129206 0.000820635 0)
(-0.0132728 0.000803777 0)
(-0.0136174 0.000785704 0)
(-0.0139539 0.000766456 0)
(-0.0142818 0.000746072 0)
(-0.0146007 0.00072459 0)
(-0.0149099 0.000702051 0)
(-0.0152092 0.000678494 0)
(-0.0154981 0.00065396 0)
(-0.0157761 0.000628488 0)
(-0.0160428 0.000602119 0)
(-0.0162979 0.000574893 0)
(-0.0165411 0.000546852 0)
(-0.0167719 0.000518037 0)
(-0.01699 0.000488489 0)
(-0.0171952 0.000458249 0)
(-0.0173871 0.00042736 0)
(-0.0175654 0.000395863 0)
(-0.01773 0.000363802 0)
(-0.0178806 0.000331218 0)
(-0.0180169 0.000298156 0)
(-0.0181387 0.000264658 0)
(-0.018246 0.000230768 0)
(-0.0183384 0.000196531 0)
(-0.018416 0.00016199 0)
(-0.0184785 0.000127192 0)
(-0.0185258 9.21796e-05 0)
(-0.018558 5.70001e-05 0)
(-0.0185748 2.16992e-05 0)
(-0.0185763 -1.36769e-05 0)
(-0.0185625 -4.90812e-05 0)
(-0.0185334 -8.44668e-05 0)
(-0.0184889 -0.000119786 0)
(-0.0184291 -0.000154991 0)
(-0.0183541 -0.000190033 0)
(-0.0182639 -0.000224864 0)
(-0.0181587 -0.000259435 0)
(-0.0180386 -0.000293697 0)
(-0.0179038 -0.000327599 0)
(-0.0177543 -0.000361092 0)
(-0.0175904 -0.000394127 0)
(-0.0174124 -0.000426652 0)
(-0.0172203 -0.000458617 0)
(-0.0170146 -0.000489972 0)
(-0.0167954 -0.000520665 0)
(-0.0165631 -0.000550646 0)
(-0.016318 -0.000579864 0)
(-0.0160604 -0.000608268 0)
(-0.0157908 -0.000635808 0)
(-0.0155094 -0.000662432 0)
(-0.0152167 -0.000688091 0)
(-0.0149131 -0.000712734 0)
(-0.0145991 -0.000736312 0)
(-0.0142752 -0.000758774 0)
(-0.0139417 -0.000780073 0)
(-0.0135994 -0.00080016 0)
(-0.0132486 -0.000818986 0)
(-0.01289 -0.000836506 0)
(-0.0125241 -0.000852672 0)
(-0.0121515 -0.00086744 0)
(-0.0117728 -0.000880766 0)
(-0.0113887 -0.000892605 0)
(-0.0109998 -0.000902916 0)
(-0.0106068 -0.000911658 0)
(-0.0102103 -0.000918791 0)
(-0.00981109 -0.000924279 0)
(-0.00940984 -0.000928084 0)
(-0.00900728 -0.000930172 0)
(-0.00860417 -0.000930511 0)
(-0.00820126 -0.00092907 0)
(-0.00779931 -0.000925821 0)
(-0.0073991 -0.000920738 0)
(-0.00700142 -0.000913797 0)
(-0.00660707 -0.000904978 0)
(-0.00621684 -0.000894264 0)
(-0.00583155 -0.000881639 0)
(-0.00545201 -0.000867093 0)
(-0.00507903 -0.000850618 0)
(-0.00471343 -0.000832212 0)
(-0.00435602 -0.000811876 0)
(-0.0040076 -0.000789617 0)
(-0.00366899 -0.000765446 0)
(-0.00334097 -0.000739382 0)
(-0.00302432 -0.000711451 0)
(-0.00271982 -0.000681684 0)
(-0.00242821 -0.000650126 0)
(-0.0021502 -0.000616826 0)
(-0.00188649 -0.000581852 0)
(-0.00163775 -0.000545279 0)
(-0.00140459 -0.000507202 0)
(-0.00118758 -0.000467736 0)
(-0.000987226 -0.000427014 0)
(-0.00080398 -0.0003852 0)
(-0.000638206 -0.000342491 0)
(-0.000490173 -0.00029912 0)
(-0.000360042 -0.000255371 0)
(-0.000247844 -0.000211587 0)
(-0.000153457 -0.000168181 0)
(-7.65777e-05 -0.000125658 0)
(-1.66923e-05 -8.46348e-05 0)
(2.69608e-05 -4.58623e-05 0)
(5.54313e-05 -1.02601e-05 0)
(7.01016e-05 2.10511e-05 0)
(7.27378e-05 4.67134e-05 0)
(6.55434e-05 6.51021e-05 0)
(5.11703e-05 7.43142e-05 0)
(3.27603e-05 7.22052e-05 0)
(1.4691e-05 5.64928e-05 0)
(3.20439e-06 2.48778e-05 0)
(2.77455e-06 -3.21021e-05 0)
(1.18679e-05 -6.90708e-05 0)
(2.45644e-05 -8.36566e-05 0)
(3.47065e-05 -7.97979e-05 0)
(3.78441e-05 -6.08346e-05 0)
(3.07292e-05 -2.97217e-05 0)
(1.06537e-05 1.09774e-05 0)
(-2.46121e-05 5.90849e-05 0)
(-7.68458e-05 0.000112774 0)
(-0.000147427 0.000170528 0)
(-0.000237386 0.000231091 0)
(-0.000347448 0.000293428 0)
(-0.000478074 0.000356689 0)
(-0.000629495 0.000420173 0)
(-0.000801748 0.000483302 0)
(-0.000994702 0.000545604 0)
(-0.00120808 0.000606688 0)
(-0.0014415 0.000666231 0)
(-0.00169445 0.000723972 0)
(-0.00196636 0.000779693 0)
(-0.00225657 0.000833218 0)
(-0.00256437 0.000884405 0)
(-0.00288898 0.000933136 0)
(-0.00322961 0.000979323 0)
(-0.00358541 0.00102289 0)
(-0.00395552 0.00106379 0)
(-0.00433904 0.00110198 0)
(-0.00473507 0.00113743 0)
(-0.00514269 0.00117012 0)
(-0.00556098 0.00120006 0)
(-0.005989 0.00122723 0)
(-0.00642583 0.00125166 0)
(-0.00687053 0.00127334 0)
(-0.00732217 0.00129232 0)
(-0.00777982 0.0013086 0)
(-0.00824258 0.00132222 0)
(-0.00870953 0.00133321 0)
(-0.00917977 0.0013416 0)
(-0.00965242 0.00134745 0)
(-0.0101266 0.00135077 0)
(-0.0106014 0.00135163 0)
(-0.0110761 0.00135006 0)
(-0.0115497 0.00134611 0)
(-0.0120215 0.00133983 0)
(-0.0124907 0.00133127 0)
(-0.0129564 0.00132048 0)
(-0.0134179 0.00130751 0)
(-0.0138745 0.00129242 0)
(-0.0143254 0.00127526 0)
(-0.01477 0.00125607 0)
(-0.0152074 0.00123493 0)
(-0.015637 0.00121188 0)
(-0.0160582 0.00118698 0)
(-0.0164704 0.00116029 0)
(-0.0168729 0.00113186 0)
(-0.017265 0.00110175 0)
(-0.0176463 0.00107002 0)
(-0.0180162 0.00103673 0)
(-0.0183741 0.00100194 0)
(-0.0187196 0.000965695 0)
(-0.019052 0.000928069 0)
(-0.019371 0.000889117 0)
(-0.0196761 0.000848899 0)
(-0.0199668 0.000807476 0)
(-0.0202428 0.000764909 0)
(-0.0205036 0.000721259 0)
(-0.0207489 0.000676587 0)
(-0.0209783 0.000630956 0)
(-0.0211916 0.000584428 0)
(-0.0213883 0.000537065 0)
(-0.0215683 0.000488932 0)
(-0.0217312 0.000440091 0)
(-0.0218768 0.000390608 0)
(-0.0220049 0.000340548 0)
(-0.0221154 0.000289974 0)
(-0.022208 0.000238955 0)
(-0.0222826 0.000187555 0)
(-0.0223391 0.000135841 0)
(-0.0223774 8.38826e-05 0)
(-0.0223975 3.17461e-05 0)
(-0.0223991 -2.04993e-05 0)
(-0.0223825 -7.27844e-05 0)
(-0.0223475 -0.00012504 0)
(-0.0222941 -0.000177194 0)
(-0.0222225 -0.000229178 0)
(-0.0221326 -0.000280919 0)
(-0.0220247 -0.000332345 0)
(-0.0218988 -0.000383385 0)
(-0.0217551 -0.000433965 0)
(-0.0215937 -0.000484012 0)
(-0.0214148 -0.000533453 0)
(-0.0212188 -0.000582214 0)
(-0.0210057 -0.000630219 0)
(-0.020776 -0.000677396 0)
(-0.0205299 -0.000723668 0)
(-0.0202678 -0.000768962 0)
(-0.01999 -0.000813202 0)
(-0.0196968 -0.000856314 0)
(-0.0193888 -0.000898223 0)
(-0.0190663 -0.000938853 0)
(-0.0187298 -0.000978131 0)
(-0.0183799 -0.00101598 0)
(-0.0180169 -0.00105233 0)
(-0.0176415 -0.00108711 0)
(-0.0172541 -0.00112024 0)
(-0.0168555 -0.00115166 0)
(-0.0164462 -0.00118128 0)
(-0.0160269 -0.00120905 0)
(-0.0155981 -0.00123489 0)
(-0.0151607 -0.00125874 0)
(-0.0147152 -0.00128052 0)
(-0.0142625 -0.00130018 0)
(-0.0138033 -0.00131765 0)
(-0.0133384 -0.00133287 0)
(-0.0128685 -0.00134578 0)
(-0.0123945 -0.00135632 0)
(-0.0119171 -0.00136444 0)
(-0.0114373 -0.00137009 0)
(-0.010956 -0.00137321 0)
(-0.0104739 -0.00137376 0)
(-0.00999202 -0.0013717 0)
(-0.00951123 -0.00136698 0)
(-0.00903247 -0.00135958 0)
(-0.00855667 -0.00134945 0)
(-0.00808476 -0.00133656 0)
(-0.00761769 -0.0013209 0)
(-0.00715643 -0.00130245 0)
(-0.00670191 -0.00128118 0)
(-0.00625512 -0.0012571 0)
(-0.00581699 -0.0012302 0)
(-0.0053885 -0.00120048 0)
(-0.00497058 -0.00116796 0)
(-0.00456418 -0.00113266 0)
(-0.00417022 -0.00109461 0)
(-0.00378962 -0.00105386 0)
(-0.00342326 -0.00101045 0)
(-0.00307202 -0.000964448 0)
(-0.00273672 -0.000915943 0)
(-0.00241818 -0.000865032 0)
(-0.00211714 -0.000811836 0)
(-0.0018343 -0.000756498 0)
(-0.00157033 -0.00069919 0)
(-0.00132579 -0.000640118 0)
(-0.00110118 -0.000579526 0)
(-0.000896903 -0.000517704 0)
(-0.000713253 -0.000454997 0)
(-0.000550394 -0.000391821 0)
(-0.000408342 -0.000328668 0)
(-0.000286943 -0.000266131 0)
(-0.000185842 -0.000204922 0)
(-0.000104458 -0.000145896 0)
(-4.19431e-05 -9.00814e-05 0)
(2.84932e-06 -3.87175e-05 0)
(3.14073e-05 6.71207e-06 0)
(4.56061e-05 4.44388e-05 0)
(4.77573e-05 7.23744e-05 0)
(4.06265e-05 8.80858e-05 0)
(2.74903e-05 8.8802e-05 0)
(1.28343e-05 7.14415e-05 0)
(2.90108e-06 3.24529e-05 0)
(2.23072e-06 -3.78348e-05 0)
(8.64362e-06 -7.89864e-05 0)
(1.57698e-05 -9.21004e-05 0)
(1.78824e-05 -8.22549e-05 0)
(1.06592e-05 -5.3598e-05 0)
(-9.16333e-06 -9.73476e-06 0)
(-4.4311e-05 4.62225e-05 0)
(-9.70368e-05 0.00011162 0)
(-0.000169152 0.000184209 0)
(-0.000262074 0.000262099 0)
(-0.000376876 0.000343705 0)
(-0.00051432 0.000427703 0)
(-0.000674897 0.000512988 0)
(-0.000858861 0.000598642 0)
(-0.00106625 0.000683898 0)
(-0.00129694 0.00076812 0)
(-0.00155064 0.000850778 0)
(-0.00182691 0.000931433 0)
(-0.00212523 0.00100972 0)
(-0.00244495 0.00108534 0)
(-0.00278536 0.00115803 0)
(-0.00314566 0.00122761 0)
(-0.003525 0.0012939 0)
(-0.00392249 0.00135677 0)
(-0.00433719 0.00141611 0)
(-0.00476811 0.00147185 0)
(-0.00521427 0.00152392 0)
(-0.00567464 0.00157228 0)
(-0.00614819 0.0016169 0)
(-0.00663386 0.00165777 0)
(-0.0071306 0.00169488 0)
(-0.00763736 0.00172824 0)
(-0.00815306 0.00175787 0)
(-0.00867667 0.00178379 0)
(-0.00920711 0.00180603 0)
(-0.00974334 0.00182462 0)
(-0.0102843 0.00183962 0)
(-0.010829 0.00185106 0)
(-0.0113764 0.00185899 0)
(-0.0119255 0.00186348 0)
(-0.0124754 0.00186457 0)
(-0.0130249 0.00186233 0)
(-0.0135732 0.00185682 0)
(-0.0141194 0.00184811 0)
(-0.0146625 0.00183626 0)
(-0.0152015 0.00182134 0)
(-0.0157357 0.00180343 0)
(-0.0162642 0.00178259 0)
(-0.016786 0.00175889 0)
(-0.0173004 0.00173242 0)
(-0.0178066 0.00170324 0)
(-0.0183038 0.00167144 0)
(-0.0187913 0.00163708 0)
(-0.0192682 0.00160026 0)
(-0.0197339 0.00156103 0)
(-0.0201877 0.0015195 0)
(-0.0206289 0.00147572 0)
(-0.0210568 0.00142979 0)
(-0.0214709 0.00138179 0)
(-0.0218706 0.00133179 0)
(-0.0222552 0.00127988 0)
(-0.0226243 0.00122615 0)
(-0.0229772 0.00117066 0)
(-0.0233135 0.00111351 0)
(-0.0236328 0.00105479 0)
(-0.0239345 0.000994567 0)
(-0.0242182 0.000932937 0)
(-0.0244836 0.000869984 0)
(-0.0247302 0.000805794 0)
(-0.0249577 0.000740454 0)
(-0.0251658 0.000674051 0)
(-0.0253542 0.000606674 0)
(-0.0255225 0.000538411 0)
(-0.0256707 0.000469353 0)
(-0.0257983 0.000399589 0)
(-0.0259054 0.000329211 0)
(-0.0259916 0.000258311 0)
(-0.0260568 0.00018698 0)
(-0.026101 0.000115313 0)
(-0.026124 4.34032e-05 0)
(-0.0261258 -2.86542e-05 0)
(-0.0261064 -0.000100764 0)
(-0.0260657 -0.000172829 0)
(-0.0260038 -0.000244753 0)
(-0.0259208 -0.000316438 0)