/*--------------------------------*- C++ -*----------------------------------*\
  =========                 |
  \\      /  F ield         | OpenFOAM: The Open Source CFD Toolbox
   \\    /   O peration     | Website:  https://openfoam.org
    \\  /    A nd           | Version:  7
     \\/     M anipulation  |
\*---------------------------------------------------------------------------*/
FoamFile
{
    version     2.0;
    format      ascii;
    class       volScalarField;
    location    "0.425";
    object      p;
}
// * * * * * * * * * * * * * * * * * * * * * * * * * * * * * * * * * * * * * //

dimensions      [0 2 -2 0 0 0 0];

internalField   nonuniform List<scalar> 
25600
(
2.75793e-06
0.000116342
0.000145448
3.72377e-05
-0.000216103
-0.000610502
-0.00113502
-0.00177514
-0.00251535
-0.00334042
-0.00423581
-0.00518797
-0.0061843
-0.00721315
-0.0082638
-0.00932641
-0.010392
-0.0114522
-0.0124995
-0.013527
-0.0145284
-0.0154978
-0.01643
-0.0173202
-0.018164
-0.0189574
-0.0196969
-0.0203792
-0.0210015
-0.0215611
-0.0220559
-0.0224837
-0.0228428
-0.0231318
-0.0233494
-0.0234945
-0.0235664
-0.0235643
-0.0234877
-0.0233365
-0.0231104
-0.0228095
-0.022434
-0.0219842
-0.0214605
-0.0208636
-0.0201941
-0.0194529
-0.0186409
-0.0177592
-0.0168089
-0.0157912
-0.0147075
-0.0135593
-0.012348
-0.0110753
-0.00974278
-0.00835226
-0.00690554
-0.00540454
-0.00385121
-0.00224759
-0.000595764
0.00110212
0.00284385
0.0046272
0.00644983
0.00830941
0.0102035
0.0121297
0.0140855
0.0160684
0.0180759
0.0201052
0.0221538
0.0242191
0.0262984
0.0283888
0.0304878
0.0325925
0.0347002
0.0368081
0.0389134
0.0410133
0.043105
0.0451857
0.0472525
0.0493028
0.0513336
0.0533422
0.0553259
0.0572818
0.0592073
0.0610996
0.062956
0.064774
0.0665509
0.0682842
0.0699713
0.0716099
0.0731974
0.0747317
0.0762104
0.0776313
0.0789923
0.0802914
0.0815267
0.0826962
0.0837984
0.0848314
0.0857938
0.0866841
0.0875011
0.0882436
0.0889106
0.089501
0.0900143
0.0904499
0.0908072
0.0910861
0.0912864
0.0914083
0.0914521
0.0914182
0.0913074
0.0911205
0.0908587
0.0905234
0.0901161
0.0896388
0.0890936
0.0884829
0.0878094
0.0870762
0.0862865
0.085444
0.0845529
0.0836174
0.0826423
0.081633
0.0805951
0.0795347
0.0784586
0.077374
0.0762887
0.0752112
0.0741507
0.073117
0.0721209
0.0711738
0.0702881
0.069477
0.0687545
0.0681349
0.0676327
0.067261
0.0670292
0.066939
0.0669794
0.0670949
-0.000107022
5.07149e-06
9.38746e-06
-0.00011159
-0.000353769
-0.000715343
-0.00118975
-0.00176659
-0.00243393
-0.00317938
-0.00399068
-0.00485603
-0.00576422
-0.00670473
-0.00766771
-0.00864398
-0.00962507
-0.0106031
-0.011571
-0.012522
-0.01345
-0.0143495
-0.0152152
-0.0160424
-0.0168269
-0.0175648
-0.0182525
-0.0188868
-0.0194648
-0.0199839
-0.0204419
-0.0208368
-0.0211666
-0.02143
-0.0216256
-0.0217523
-0.0218093
-0.0217958
-0.0217113
-0.0215554
-0.021328
-0.021029
-0.0206586
-0.0202169
-0.0197044
-0.0191217
-0.0184692
-0.0177479
-0.0169585
-0.016102
-0.0151796
-0.0141923
-0.0131415
-0.0120284
-0.0108546
-0.00962159
-0.00833092
-0.00698429
-0.00558345
-0.00413023
-0.00262651
-0.00107424
0.000524557
0.00216783
0.00385344
0.00557924
0.00734298
0.0091424
0.0109752
0.0128389
0.0147313
0.0166498
0.0185919
0.0205553
0.0225372
0.0245352
0.0265467
0.0285689
0.0305993
0.0326353
0.034674
0.036713
0.0387493
0.0407804
0.0428035
0.0448158
0.0468148
0.0487977
0.0507617
0.0527043
0.0546226
0.0565141
0.0583762
0.0602061
0.0620015
0.0637596
0.065478
0.0671543
0.068786
0.0703709
0.0719065
0.0733907
0.0748213
0.0761962
0.0775134
0.0787709
0.079967
0.0810999
0.0821678
0.0831693
0.0841029
0.0849673
0.0857612
0.0864836
0.0871336
0.0877102
0.0882129
0.0886411
0.0889945
0.0892728
0.0894761
0.0896045
0.0896584
0.0896383
0.089545
0.0893793
0.0891425
0.088836
0.0884613
0.0880205
0.0875155
0.0869489
0.0863233
0.0856417
0.0849074
0.084124
0.0832955
0.0824262
0.0815207
0.0805842
0.0796221
0.0786405
0.0776457
0.0766446
0.0756448
0.0746541
0.0736813
0.0727354
0.0718262
0.0709642
0.0701602
0.0694258
0.0687726
0.0682122
0.0677557
0.0674123
0.0671873
0.0670807
0.0670946
0.0672102
-0.000135418
1.08588e-06
5.46794e-06
-0.000116699
-0.000348918
-0.000688056
-0.00112861
-0.00166184
-0.00227772
-0.00296575
-0.00371529
-0.00451587
-0.00535744
-0.00623038
-0.00712561
-0.00803459
-0.00894938
-0.00986256
-0.0107673
-0.0116572
-0.0125263
-0.0133694
-0.0141813
-0.0149574
-0.0156937
-0.0163862
-0.0170315
-0.0176264
-0.018168
-0.0186538
-0.0190815
-0.019449
-0.0197546
-0.0199968
-0.0201741
-0.0202855
-0.02033
-0.020307
-0.0202158
-0.0200561
-0.0198275
-0.0195301
-0.0191639
-0.018729
-0.0182259
-0.017655
-0.0170168
-0.0163121
-0.0155417
-0.0147064
-0.0138074
-0.0128456
-0.0118224
-0.0107389
-0.00959665
-0.00839702
-0.00714157
-0.0058319
-0.00446971
-0.00305675
-0.00159485
-8.58752e-05
0.00146822
0.00306543
0.00470372
0.00638098
0.00809504
0.00984371
0.0116247
0.0134358
0.0152746
0.0171388
0.0190259
0.0209336
0.0228593
0.0248005
0.0267548
0.0287195
0.0306921
0.0326701
0.0346507
0.0366315
0.0386097
0.0405828
0.0425481
0.0445029
0.0464448
0.0483709
0.0502787
0.0521656
0.054029
0.0558664
0.0576751
0.0594527
0.0611966
0.0629044
0.0645738
0.0662022
0.0677874
0.0693272
0.0708192
0.0722615
0.0736518
0.0749881
0.0762686
0.0774914
0.0786547
0.0797568
0.0807962
0.0817713
0.0826809
0.0835236
0.0842982
0.0850039
0.0856397
0.0862048
0.0866986
0.0871207
0.0874707
0.0877486
0.0879544
0.0880882
0.0881505
0.0881418
0.0880629
0.0879148
0.0876986
0.0874158
0.087068
0.0866571
0.0861852
0.0856547
0.0850682
0.0844288
0.0837396
0.0830042
0.0822265
0.0814107
0.0805613
0.0796833
0.0787819
0.077863
0.0769327
0.0759976
0.0750648
0.0741417
0.0732366
0.0723578
0.0715144
0.0707159
0.0699721
0.0692931
0.0686889
0.0681696
0.0677443
0.0674209
0.0672036
0.0670944
0.0671084
0.0672507
-2.75677e-05
0.000122106
0.000127996
5.93125e-06
-0.00022031
-0.00054567
-0.000964381
-0.0014682
-0.00204813
-0.00269478
-0.00339867
-0.0041504
-0.00494079
-0.00576105
-0.00660277
-0.00745803
-0.00831936
-0.00917979
-0.0100328
-0.0108723
-0.0116927
-0.0124887
-0.0132556
-0.0139888
-0.0146844
-0.0153385
-0.0159477
-0.016509
-0.0170196
-0.0174768
-0.0178785
-0.0182225
-0.0185072
-0.018731
-0.0188925
-0.0189906
-0.0190244
-0.0189931
-0.0188962
-0.018733
-0.0185035
-0.0182075
-0.017845
-0.0174161
-0.0169212
-0.0163607
-0.0157351
-0.015045
-0.0142912
-0.0134746
-0.0125962
-0.0116569
-0.0106579
-0.00960059
-0.00848614
-0.00731599
-0.00609162
-0.00481459
-0.00348653
-0.00210914
-0.000684174
0.000786537
0.00230111
0.00385762
0.00545406
0.0070884
0.00875854
0.0104623
0.0121976
0.0139621
0.0157535
0.0175697
0.0194081
0.0212665
0.0231425
0.0250335
0.0269373
0.0288511
0.0307727
0.0326994
0.0346287
0.0365581
0.038485
0.0404069
0.0423211
0.0442252
0.0461166
0.0479926
0.0498509
0.0516888
0.0535038
0.0552934
0.0570551
0.0587865
0.0604852
0.0621488
0.0637749
0.0653613
0.0669056
0.0684057
0.0698595
0.0712649
0.0726198
0.0739224
0.0751707
0.0763629
0.0774975
0.0785727
0.079587
0.0805391
0.0814276
0.0822514
0.0830092
0.0837002
0.0843236
0.0848786
0.0853647
0.0857814
0.0861286
0.086406
0.0866139
0.0867523
0.0868218
0.0868229
0.0867564
0.0866233
0.0864248
0.0861623
0.0858374
0.0854521
0.0850083
0.0845086
0.0839554
0.0833517
0.0827007
0.0820057
0.0812707
0.0804997
0.0796971
0.0788676
0.0780165
0.0771491
0.0762715
0.0753899
0.074511
0.0736419
0.0727902
0.0719638
0.071171
0.0704205
0.0697212
0.0690823
0.0685127
0.0680213
0.0676164
0.0673056
0.0670937
0.0669848
0.067002
0.067161
0.000224994
0.000364291
0.000360612
0.000232676
6.36738e-06
-0.000312013
-0.000716459
-0.0011991
-0.00175163
-0.00236558
-0.0030324
-0.00374358
-0.00449078
-0.00526594
-0.00606132
-0.00686956
-0.00768371
-0.0084972
-0.00930389
-0.010098
-0.0108742
-0.0116275
-0.0123532
-0.013047
-0.0137051
-0.0143238
-0.0148997
-0.0154298
-0.0159114
-0.016342
-0.0167193
-0.0170414
-0.0173065
-0.0175131
-0.0176598
-0.0177455
-0.0177692
-0.0177301
-0.0176277
-0.0174615
-0.0172311
-0.0169365
-0.0165775
-0.0161544
-0.0156674
-0.0151169
-0.0145033
-0.0138273
-0.0130895
-0.0122908
-0.0114321
-0.0105144
-0.00953885
-0.00850657
-0.00741884
-0.00627703
-0.00508254
-0.0038369
-0.00254166
-0.00119848
0.000190945
0.00162484
0.00310139
0.00461872
0.0061749
0.00776793
0.00939578
0.0110564
0.0127476
0.0144672
0.0162131
0.017983
0.0197746
0.0215856
0.0234137
0.0252565
0.0271115
0.0289765
0.0308489
0.0327263
0.0346062
0.0364862
0.0383638
0.0402364
0.0421016
0.0439569
0.0457998
0.0476278
0.0494384
0.0512292
0.0529977
0.0547415
0.0564582
0.0581454
0.0598007
0.0614218
0.0630065
0.0645525
0.0660577
0.0675199
0.0689371
0.0703072
0.0716282
0.0728984
0.0741159
0.0752791
0.0763861
0.0774356
0.0784261
0.0793562
0.0802246
0.0810302
0.081772
0.082449
0.0830606
0.0836059
0.0840845
0.0844961
0.0848404
0.0851174
0.0853271
0.0854698
0.0855459
0.0855562
0.0855012
0.0853821
0.0852001
0.0849566
0.0846531
0.0842915
0.0838739
0.0834026
0.0828802
0.0823095
0.0816937
0.081036
0.0803401
0.07961
0.07885
0.0780646
0.0772588
0.0764379
0.0756074
0.0747733
0.073942
0.0731201
0.0723146
0.0715331
0.070783
0.0700725
0.0694094
0.0688023
0.0682591
0.0677881
0.0673968
0.0670927
0.0668809
0.0667671
0.0667773
0.0669303
0.000618489
0.000726094
0.000700438
0.000558698
0.000325066
6.34443e-06
-0.000391368
-0.000860648
-0.00139383
-0.00198319
-0.00262098
-0.00329948
-0.0040111
-0.00474846
-0.00550444
-0.00627224
-0.00704538
-0.00781774
-0.00858352
-0.00933729
-0.010074
-0.0107888
-0.0114774
-0.0121355
-0.0127595
-0.0133458
-0.0138911
-0.0143926
-0.0148476
-0.0152537
-0.0156086
-0.0159103
-0.0161573
-0.0163479
-0.0164808
-0.0165549
-0.0165693
-0.0165231
-0.0164156
-0.0162466
-0.0160155
-0.0157223
-0.0153668
-0.0149493
-0.0144699
-0.0139289
-0.0133268
-0.0126642
-0.0119417
-0.0111601
-0.0103203
-0.00942325
-0.00846999
-0.00746165
-0.00639946
-0.00528472
-0.0041188
-0.00290316
-0.00163931
-0.000328842
0.00102659
0.00242528
0.00386546
0.00534531
0.00686295
0.00841646
0.0100039
0.0116231
0.0132722
0.0149489
0.0166512
0.0183768
0.0201236
0.0218893
0.0236716
0.0254682
0.0272767
0.0290949
0.0309203
0.0327506
0.0345833
0.0364161
0.0382465
0.0400721
0.0418905
0.0436992
0.0454958
0.0472779
0.049043
0.0507889
0.0525131
0.0542132
0.0558869
0.0575318
0.0591458
0.0607265
0.0622718
0.0637794
0.0652473
0.0666734
0.0680557
0.0693922
0.0706811
0.0719206
0.0731088
0.0742443
0.0753253
0.0763503
0.0773181
0.0782273
0.0790766
0.079865
0.0805915
0.0812553
0.0818555
0.0823917
0.0828632
0.0832698
0.0836113
0.0838877
0.084099
0.0842456
0.0843279
0.0843465
0.0843022
0.084196
0.0840292
0.0838031
0.0835193
0.0831796
0.082786
0.0823409
0.0818467
0.0813061
0.0807223
0.0800984
0.079438
0.0787449
0.0780232
0.0772773
0.076512
0.0757321
0.0749432
0.0741507
0.0733606
0.0725793
0.0718133
0.0710693
0.0703545
0.0696762
0.0690417
0.0684586
0.0679343
0.0674762
0.0670916
0.0667874
0.0665691
0.0664431
0.0664342
0.0665604
0.00114247
0.00120135
0.00114238
0.00097867
0.000730173
0.000403681
5.22207e-06
-0.000458301
-0.000979862
-0.00155242
-0.00216893
-0.00282236
-0.0035058
-0.00421251
-0.00493595
-0.00566984
-0.00640819
-0.00714526
-0.00787565
-0.00859425
-0.00929624
-0.00997714
-0.0106327
-0.011259
-0.0118524
-0.0124096
-0.0129274
-0.013403
-0.0138339
-0.0142176
-0.014552
-0.0148353
-0.0150656
-0.0152417
-0.015362
-0.0154256
-0.0154314
-0.0153786
-0.0152667
-0.0150951
-0.0148635
-0.0145718
-0.0142197
-0.0138075
-0.0133353
-0.0128035
-0.0122123
-0.0115624
-0.0108545
-0.0100891
-0.00926721
-0.0083897
-0.00745759
-0.00647196
-0.00543399
-0.00434492
-0.00320609
-0.0020189
-0.000784821
0.000494609
0.00181779
0.00318308
0.00458874
0.00603303
0.00751412
0.00903012
0.0105791
0.0121591
0.0137682
0.0154042
0.0170651
0.0187488
0.020453
0.0221757
0.0239145
0.0256673
0.0274317
0.0292055
0.0309864
0.032772
0.03456
0.036348
0.0381337
0.0399148
0.0416887
0.0434533
0.0452061
0.0469447
0.0486669
0.0503703
0.0520525
0.0537113
0.0553443
0.0569494
0.0585243
0.0600669
0.0615749
0.0630462
0.0644789
0.065871
0.0672204
0.0685253
0.0697838
0.0709943
0.072155
0.0732643
0.0743207
0.0753228
0.0762692
0.0771586
0.07799
0.0787622
0.0794743
0.0801256
0.0807152
0.0812426
0.0817074
0.0821092
0.082448
0.0827236
0.0829363
0.0830862
0.083174
0.0832002
0.0831656
0.0830712
0.0829182
0.0827079
0.0824419
0.082122
0.0817502
0.0813287
0.0808599
0.0803465
0.0797914
0.0791977
0.078569
0.0779087
0.077221
0.0765098
0.0757799
0.0750358
0.0742827
0.0735258
0.0727708
0.0720235
0.0712899
0.0705765
0.0698896
0.0692361
0.0686226
0.0680561
0.0675432
0.0670909
0.0667059
0.0663947
0.0661629
0.0660168
0.0659778
0.0660602
0.00178318
0.00178029
0.00167824
0.00148488
0.00121433
0.000873048
0.000466867
2.08895e-06
-0.000514907
-0.00107773
-0.00167996
-0.00231523
-0.00297726
-0.00365987
-0.00435709
-0.00506313
-0.00577243
-0.00647969
-0.00717985
-0.00786813
-0.00854
-0.00919121
-0.00981775
-0.0104159
-0.0109822
-0.0115134
-0.0120065
-0.0124589
-0.012868
-0.0132315
-0.0135475
-0.0138139
-0.0140293
-0.014192
-0.014301
-0.0143549
-0.014353
-0.0142944
-0.0141785
-0.0140047
-0.0137728
-0.0134826
-0.0131339
-0.0127269
-0.0122616
-0.0117385
-0.0111577
-0.0105199
-0.00982572
-0.00907576
-0.00827085
-0.00741188
-0.00649981
-0.0055357
-0.00452067
-0.00345594
-0.00234279
-0.00118257
2.32938e-05
0.0012733
0.00256592
0.00389953
0.00527248
0.00668306
0.00812948
0.00960992
0.0111225
0.0126654
0.0142365
0.0158339
0.0174555
0.0190994
0.0207633
0.0224452
0.0241429
0.0258542
0.0275768
0.0293086
0.0310472
0.0327905
0.0345361
0.0362818
0.0380252
0.039764
0.041496
0.0432188
0.0449302
0.0466277
0.0483092
0.0499724
0.051615
0.0532347
0.0548294
0.0563969
0.0579349
0.0594414
0.0609142
0.0623514
0.0637509
0.0651109
0.0664293
0.0677043
0.0689343
0.0701175
0.0712522
0.0723369
0.0733702
0.0743507
0.075277
0.0761479
0.0769623
0.0777193
0.0784179
0.0790572
0.0796368
0.0801559
0.0806143
0.0810115
0.0813475
0.0816223
0.0818361
0.081989
0.0820817
0.0821146
0.0820887
0.0820049
0.0818643
0.0816683
0.0814184
0.0811164
0.0807642
0.0803638
0.0799178
0.0794286
0.0788991
0.0783323
0.0777315
0.0771002
0.0764421
0.0757613
0.0750619
0.0743486
0.0736261
0.0728992
0.0721733
0.0714539
0.0707465
0.070057
0.0693914
0.0687559
0.0681566
0.0675998
0.0670917
0.0666385
0.0662464
0.0659215
0.0656692
0.0654956
0.0654168
0.0654422
0.00252598
0.00245176
0.00229871
0.0020689
0.00176979
0.00140733
0.000987069
0.000514669
-4.145e-06
-0.0005636
-0.0011579
-0.00178129
-0.00242804
-0.00309254
-0.00376933
-0.00445309
-0.00513869
-0.00582122
-0.00649597
-0.00715848
-0.0078045
-0.00843003
-0.00903129
-0.00960475
-0.0101471
-0.0106554
-0.0111266
-0.0115583
-0.0119479
-0.0122934
-0.0125927
-0.0128441
-0.0130459
-0.0131967
-0.0132954
-0.0133408
-0.0133319
-0.0132681
-0.0131486
-0.0129731
-0.0127412
-0.0124526
-0.0121072
-0.0117052
-0.0112466
-0.0107317
-0.0101609
-0.00953461
-0.00885346
-0.0081181
-0.00732929
-0.00648789
-0.00559482
-0.00465109
-0.0036578
-0.00261612
-0.00152728
-0.000392607
0.000786523
0.00200867
0.00327233
0.00457594
0.0059179
0.00729653
0.00871012
0.0101569
0.011635
0.0131426
0.0146778
0.0162386
0.0178231
0.0194293
0.0210551
0.0226983
0.024357
0.026029
0.027712
0.029404
0.0311027
0.032806
0.0345115
0.0362171
0.0379205
0.0396195
0.0413117
0.0429951
0.0446673
0.046326
0.0479691
0.0495944
0.0511996
0.0527825
0.054341
0.0558729
0.0573761
0.0588486
0.0602884
0.0616934
0.0630617
0.0643913
0.0656806
0.0669276
0.0681307
0.0692882
0.0703985
0.0714601
0.0724717
0.0734317
0.0743391
0.0751926
0.0759911
0.0767337
0.0774195
0.0780478
0.0786178
0.0791291
0.0795813
0.0799741
0.0803074
0.0805812
0.0807957
0.0809512
0.0810481
0.0810871
0.0810689
0.0809945
0.0808651
0.0806819
0.0804464
0.0801603
0.0798255
0.079444
0.0790182
0.0785505
0.0780436
0.0775004
0.076924
0.0763179
0.0756856
0.0750308
0.0743576
0.0736703
0.0729734
0.0722714
0.0715692
0.070872
0.070185
0.0695135
0.0688632
0.0682395
0.0676482
0.0670949
0.0665853
0.0661251
0.0657198
0.065375
0.0650959
0.0648881
0.0647616
0.0647202
0.00335667
0.00320429
0.00299406
0.00272209
0.00238872
0.00199939
0.00155937
0.00107363
0.000547239
-1.46194e-05
-0.000606742
-0.00122393
-0.00186102
-0.0025129
-0.00317459
-0.00384121
-0.00450805
-0.00517058
-0.00582443
-0.00646544
-0.00708965
-0.0076933
-0.00827284
-0.00882494
-0.00934651
-0.00983465
-0.0102867
-0.0107
-0.0110725
-0.0114019
-0.0116864
-0.0119243
-0.0121141
-0.0122543
-0.0123438
-0.0123815
-0.0123666
-0.0122982
-0.0121758
-0.0119988
-0.011767
-0.0114801
-0.0111381
-0.0107409
-0.0102888
-0.00978181
-0.00922045
-0.00860512
-0.00793637
-0.00721486
-0.00644131
-0.00561654
-0.00474145
-0.00381701
-0.00284429
-0.00182441
-0.000758577
0.000351931
0.00150578
0.00270157
0.00393784
0.00521308
0.00652573
0.00787416
0.00925668
0.0106716
0.0121171
0.0135914
0.0150926
0.0166188
0.0181682
0.0197387
0.0213284
0.0229352
0.024557
0.0261918
0.0278375
0.0294919
0.0311529
0.0328183
0.034486
0.0361537
0.0378194
0.0394807
0.0411356
0.0427817
0.0444169
0.0460391
0.047646
0.0492355
0.0508055
0.0523537
0.0538781
0.0553766
0.0568471
0.0582877
0.0596963
0.061071
0.0624099
0.0637112
0.064973
0.0661937
0.0673715
0.0685049
0.0695923
0.0706323
0.0716234
0.0725644
0.073454
0.0742912
0.0750747
0.0758038
0.0764776
0.0770953
0.0776563
0.0781602
0.0786065
0.078995
0.0793256
0.0795983
0.0798133
0.0799708
0.0800714
0.0801157
0.0801043
0.0800383
0.0799187
0.0797468
0.0795241
0.0792521
0.0789327
0.0785678
0.0781598
0.0777109
0.0772237
0.076701
0.0761459
0.0755614
0.074951
0.0743183
0.0736671
0.0730014
0.0723254
0.0716434
0.07096
0.0702798
0.0696078
0.0689489
0.0683081
0.0676907
0.0671016
0.0665462
0.0660296
0.0655568
0.0651328
0.0647625
0.0644509
0.0642034
0.0640228
0.0639076
0.00426189
0.00402662
0.00375454
0.00343574
0.00306328
0.00264215
0.00217735
0.00167318
0.00113407
0.000564622
-3.05149e-05
-0.000646678
-0.00127921
-0.00192348
-0.00257495
-0.00322918
-0.00388185
-0.00452878
-0.00516593
-0.00578944
-0.00639561
-0.00698095
-0.00754214
-0.00807605
-0.00857977
-0.00905055
-0.00948583
-0.00988325
-0.0102406
-0.010556
-0.0108275
-0.0110535
-0.0112326
-0.0113635
-0.0114449
-0.0114759
-0.0114556
-0.0113833
-0.0112584
-0.0110804
-0.010849
-0.010564
-0.0102253
-0.00983287
-0.00938687
-0.00888753
-0.00833518
-0.00773025
-0.00707328
-0.00636488
-0.00560578
-0.00479674
-0.00393865
-0.00303245
-0.00207915
-0.00107987
-3.57632e-05
0.00105192
0.0021819
0.0033528
0.00456322
0.00581167
0.00709665
0.00841655
0.00976976
0.0111546
0.0125693
0.0140121
0.0154813
0.0169749
0.0184911
0.020028
0.0215836
0.0231559
0.024743
0.0263428
0.0279532
0.0295721
0.0311976
0.0328273
0.0344594
0.0360915
0.0377216
0.0393475
0.040967
0.0425781
0.0441786
0.0457664
0.0473393
0.0488952
0.050432
0.0519476
0.05344
0.0549071
0.0563469
0.0577575
0.0591369
0.0604832
0.0617945
0.0630692
0.0643053
0.0655013
0.0666555
0.0677663
0.0688323
0.069852
0.070824
0.0717471
0.0726201
0.0734419
0.0742115
0.0749279
0.0755904
0.0761982
0.0767507
0.0772475
0.0776882
0.0780725
0.0784004
0.0786719
0.0788871
0.0790463
0.07915
0.0791988
0.0791933
0.0791346
0.0790237
0.0788617
0.0786501
0.0783904
0.0780845
0.0777341
0.0773415
0.0769088
0.0764386
0.0759336
0.0753965
0.0748303
0.0742384
0.073624
0.0729908
0.0723425
0.0716831
0.0710166
0.0703472
0.0696793
0.0690174
0.068366
0.0677298
0.0671134
0.0665215
0.0659589
0.0654301
0.0649397
0.064492
0.0640914
0.0637427
0.0634505
0.0632112
0.0630171
0.00522928
0.00490796
0.00457059
0.00420126
0.00378573
0.00332861
0.00283467
0.00230759
0.0017512
0.00116953
0.000566704
-5.30981e-05
-0.000685697
-0.00132692
-0.00197266
-0.00261886
-0.00326157
-0.00389696
-0.00452131
-0.00513104
-0.00572273
-0.00629313
-0.00683914
-0.00735784
-0.00784649
-0.00830251
-0.00872348
-0.00910718
-0.00945154
-0.00975468
-0.0100149
-0.0102306
-0.0104004
-0.0105231
-0.0105976
-0.0106228
-0.0105979
-0.0105224
-0.0103954
-0.0102168
-0.00998601
-0.00970297
-0.00936755
-0.00897976
-0.00853972
-0.00804767
-0.0075039
-0.00690886
-0.00626306
-0.00556708
-0.00482163
-0.00402746
-0.00318541
-0.00229641
-0.00136145
-0.000381584
0.000642035
0.00170821
0.00281568
0.00396313
0.00514917
0.00637239
0.00763129
0.00892432
0.0102499
0.0116064
0.0129921
0.0144053
0.0158442
0.0173071
0.0187921
0.0202973
0.0218208
0.0233608
0.0249151
0.0264819
0.0280591
0.0296447
0.0312367
0.032833
0.0344314
0.03603
0.0376267
0.0392193
0.0408058
0.042384
0.0439519
0.0455073
0.0470483
0.0485726
0.0500784
0.0515634
0.0530258
0.0544635
0.0558746
0.0572571
0.0586091
0.0599288
0.0612144
0.0624642
0.0636763
0.0648493
0.0659813
0.0670711
0.068117
0.0691177
0.0700719
0.0709783
0.0718358
0.0726433
0.0733998
0.0741044
0.0747562
0.0753547
0.0758993
0.0763894
0.0768247
0.077205
0.0775302
0.0778003
0.0780154
0.0781759
0.0782821
0.0783347
0.0783343
0.0782819
0.0781784
0.078025
0.0778231
0.0775741
0.0772797
0.0769418
0.0765623
0.0761435
0.0756877
0.0751975
0.0746754
0.0741244
0.0735476
0.072948
0.0723291
0.0716944
0.0710476
0.0703924
0.0697328
0.0690727
0.0684163
0.0677679
0.0671315
0.0665116
0.0659122
0.0653377
0.0647922
0.0642798
0.0638041
0.0633691
0.0629791
0.0626387
0.062337
0.0620607
0.00624753
0.00583823
0.00543312
0.00501039
0.00454855
0.00405191
0.00352512
0.00297124
0.00239353
0.00179551
0.00118084
0.000553203
-8.36514e-05
-0.000725976
-0.00137005
-0.00201221
-0.00264885
-0.00327646
-0.00389162
-0.00449104
-0.00507156
-0.00563015
-0.00616396
-0.00667026
-0.00714648
-0.00759019
-0.00799915
-0.00837124
-0.00870454
-0.00899727
-0.00924781
-0.00945469
-0.00961657
-0.00973226
-0.00980072
-0.00982102
-0.00979237
-0.00971411
-0.00958569
-0.00940669
-0.00917681
-0.00889587
-0.00856376
-0.00818051
-0.00774623
-0.00726114
-0.00672557
-0.00613992
-0.00550468
-0.00482045
-0.00408789
-0.00330774
-0.00248081
-0.00160801
-0.000690305
0.000271275
0.00127562
0.00232155
0.00340786
0.00453324
0.00569637
0.00689585
0.00813022
0.00939798
0.0106976
0.0120274
0.0133858
0.0147712
0.0161817
0.0176157
0.0190714
0.0205468
0.0220403
0.0235497
0.0250734
0.0266092
0.0281552
0.0297096
0.0312701
0.032835
0.034402
0.0359692
0.0375345
0.0390959
0.0406514
0.0421988
0.0437361
0.0452613
0.0467724
0.0482673
0.0497439
0.0512004
0.0526348
0.054045
0.0554292
0.0567855
0.058112
0.0594069
0.0606685
0.0618951
0.0630849
0.0642363
0.0653478
0.0664179
0.0674452
0.0684283
0.0693659
0.0702567
0.0710998
0.0718939
0.0726382
0.0733317
0.0739737
0.0745635
0.0751005
0.0755843
0.0760145
0.0763909
0.0767133
0.0769819
0.0771968
0.0773581
0.0774664
0.0775221
0.077526
0.0774788
0.0773816
0.0772356
0.0770418
0.0768019
0.0765173
0.0761899
0.0758215
0.0754143
0.0749705
0.0744924
0.0739826
0.0734438
0.0728789
0.0722908
0.0716828
0.0710581
0.0704201
0.0697723
0.0691184
0.0684622
0.0678072
0.0671575
0.0665168
0.0658891
0.0652781
0.0646877
0.0641214
0.063583
0.0630757
0.0626026
0.0621681
0.0617765
0.0614098
0.0610493
0.00730631
0.00680802
0.00633353
0.00585523
0.0053445
0.00480545
0.00424265
0.00365861
0.00305606
0.00243807
0.00180782
0.0011686
0.000523725
-0.000123449
-0.000769577
-0.00141134
-0.00204547
-0.00266874
-0.00327805
-0.00387037
-0.0044428
-0.00499254
-0.00551693
-0.00601346
-0.00647972
-0.00691345
-0.00731255
-0.00767505
-0.00799915
-0.00828318
-0.0085256
-0.00872504
-0.00888023
-0.00899006
-0.00905352
-0.00906976
-0.00903802
-0.00895767
-0.0088282
-0.00864923
-0.00842046
-0.00814173
-0.00781294
-0.00743413
-0.00700541
-0.006527
-0.00599922
-0.00542247
-0.00479723
-0.00412408
-0.00340367
-0.00263671
-0.00182402
-0.000966445
-6.49483e-05
0.000879461
0.0018657
0.00289264
0.00395908
0.00506377
0.0062054
0.00738261
0.00859398
0.00983804
0.0111133
0.0124181
0.013751
0.0151102
0.0164941
0.0179011
0.0193292
0.0207768
0.022242
0.0237229
0.0252178
0.0267246
0.0282415
0.0297666
0.0312978
0.0328332
0.0343708
0.0359086
0.0374446
0.0389769
0.0405033
0.042022
0.0435308
0.0450278
0.046511
0.0479784
0.049428
0.0508579
0.0522661
0.0536507
0.0550099
0.0563418
0.0576446
0.0589165
0.0601558
0.0613607
0.0625298
0.0636612
0.0647537
0.0658056
0.0668156
0.0677823
0.0687045
0.0695809
0.0704105
0.0711923
0.0719252
0.0726084
0.0732412
0.0738229
0.0743528
0.0748307
0.075256
0.0756287
0.0759485
0.0762154
0.0764297
0.0765916
0.0767013
0.0767596
0.0767669
0.0767242
0.0766323
0.0764922
0.0763053
0.0760729
0.0757965
0.0754778
0.0751185
0.0747207
0.0742865
0.0738181
0.0733179
0.0727885
0.0722326
0.071653
0.0710526
0.0704345
0.0698019
0.069158
0.0685063
0.06785
0.0671927
0.066538
0.0658891
0.0652498
0.0646234
0.0640134
0.0634229
0.0628551
0.0623129
0.0617988
0.0613172
0.0608721
0.0604388
0.0599927
0.00839624
0.00780864
0.00726377
0.00672833
0.00616669
0.00558287
0.0049814
0.00436432
0.00373389
0.00309273
0.00244364
0.00178948
0.00113321
0.000477795
-0.000173747
-0.00081843
-0.00145329
-0.00207541
-0.00268194
-0.00327014
-0.00383732
-0.00438094
-0.00489852
-0.00538774
-0.00584636
-0.00627229
-0.00666358
-0.00701839
-0.00733505
-0.00761199
-0.00784778
-0.00804111
-0.00819082
-0.00829585
-0.00835526
-0.00836824
-0.00833409
-0.00825222
-0.00812215
-0.00794353
-0.0077161
-0.00743969
-0.00711423
-0.00673975
-0.00631639
-0.00584437
-0.005324
-0.00475567
-0.00413988
-0.00347717
-0.00276818
-0.00201362
-0.00121426
-0.000370974
0.000515328
0.00144365
0.00241295
0.0034221
0.00446995
0.00555527
0.00667679
0.00783317
0.00902302
0.0102449
0.0114973
0.0127788
0.0140878
0.0154226
0.0167817
0.0181633
0.0195657
0.0209873
0.0224261
0.0238804
0.0253484
0.0268282
0.0283179
0.0298156
0.0313194
0.0328273
0.0343375
0.035848
0.0373567
0.0388618
0.0403613
0.0418532
0.0433355
0.0448062
0.0462635
0.0477053
0.0491298
0.050535
0.0519189
0.0532799
0.0546159
0.0559252
0.057206
0.0584566
0.0596752
0.0608602
0.06201
0.063123
0.0641978
0.0652329
0.0662269
0.0671785
0.0680865
0.0689496
0.0697669
0.0705372
0.0712596
0.0719333
0.0725576
0.0731317
0.0736551
0.0741273
0.0745481
0.0749171
0.0752342
0.0754995
0.075713
0.075875
0.0759859
0.076046
0.0760561
0.0760169
0.0759292
0.0757941
0.0756128
0.0753864
0.0751166
0.0748048
0.0744527
0.0740623
0.0736355
0.0731745
0.0726815
0.0721589
0.0716093
0.0710353
0.0704395
0.069825
0.0691946
0.0685513
0.0678982
0.0672386
0.0665756
0.0659122
0.0652519
0.0645976
0.0639525
0.0633196
0.0627017
0.0621017
0.0615219
0.0609644
0.0604336
0.0599333
0.0594321
0.0589
0.00950881
0.00883212
0.00821634
0.00762266
0.00700858
0.00637807
0.00573575
0.0050832
0.00442225
0.00375516
0.00308433
0.00241226
0.00174156
0.00107487
0.000414883
-0.000235725
-0.000874278
-0.00149814
-0.00210473
-0.00269154
-0.00325613
-0.00379615
-0.00430934
-0.00479354
-0.00524669
-0.00566688
-0.00605227
-0.00640119
-0.00671207
-0.00698344
-0.00721399
-0.00740249
-0.00754785
-0.0076491
-0.00770534
-0.00771584
-0.00767992
-0.00759707
-0.00746683
-0.00728888
-0.00706298
-0.00678898
-0.00646684
-0.00609661
-0.00567841
-0.00521249
-0.00469915
-0.00413879
-0.00353188
-0.00287898
-0.00218071
-0.00143775
-0.000650888
0.000179049
0.00105115
0.00196446
0.00291793
0.00391049
0.00494099
0.00600825
0.007111
0.00824795
0.00941773
0.010619
0.0118502
0.0131099
0.0143965
0.0157086
0.0170445
0.0184026
0.0197811
0.0211784
0.0225927
0.0240222
0.0254652
0.0269198
0.0283842
0.0298565
0.0313348
0.0328173
0.034302
0.035787
0.0372705
0.0387504
0.0402248
0.0416919
0.0431496
0.0445961
0.0460293
0.0474475
0.0488487
0.050231
0.0515926
0.0529316
0.0542463
0.0555347
0.0567952
0.0580261
0.0592257
0.0603924
0.0615245
0.0626206
0.0636792
0.0646988
0.0656781
0.0666158
0.0675108
0.0683617
0.0691676
0.0699273
0.0706401
0.0713051
0.0719214
0.0724886
0.0730059
0.0734729
0.0738893
0.0742549
0.0745694
0.0748329
0.0750455
0.0752074
0.0753189
0.0753804
0.0753926
0.075356
0.0752717
0.0751404
0.0749634
0.0747418
0.074477
0.0741705
0.0738239
0.073439
0.0730176
0.0725618
0.0720736
0.0715554
0.0710095
0.0704384
0.0698446
0.0692307
0.0685995
0.0679538
0.0672965
0.0666303
0.0659584
0.0652834
0.0646084
0.0639361
0.0632693
0.0626107
0.0619628
0.061328
0.0607083
0.0601054
0.0595238
0.0589671
0.0583975
0.0577794
0.0106363
0.00987109
0.00918429
0.00853163
0.00786397
0.00718529
0.00650031
0.00581025
0.00511654
0.0044211
0.00372599
0.00303339
0.00234558
0.0016649
0.000993732
0.00033448
-0.000310461
-0.000938718
-0.00154796
-0.0021359
-0.00270033
-0.0032391
-0.00375013
-0.00423144
-0.00468116
-0.0050975
-0.00547881
-0.00582351
-0.00613016
-0.00639741
-0.00662403
-0.0068089
-0.00695099
-0.0070494
-0.00710332
-0.00711205
-0.00707499
-0.00699166
-0.00686164
-0.00668465
-0.00646046
-0.00618897
-0.00587014
-0.00550404
-0.00509081
-0.0046307
-0.00412402
-0.00357116
-0.00297261
-0.00232889
-0.00164063
-0.000908514
-0.000133296
0.000684198
0.00154308
0.0024424
0.00338116
0.00435828
0.00537267
0.00642313
0.00750845
0.00862734
0.00977849
0.0109605
0.012172
0.0134115
0.0146775
0.0159685
0.0172829
0.0186191
0.0199754
0.0213502
0.0227417
0.0241483
0.0255681
0.0269994
0.0284403
0.0298891
0.0313438
0.0328027
0.0342639
0.0357255
0.0371855
0.0386421
0.0400935
0.0415376
0.0429727
0.0443967
0.0458079
0.0472043
0.0485841
0.0499454
0.0512864
0.0526053
0.0539002
0.0551696
0.0564115
0.0576244
0.0588066
0.0599564
0.0610724
0.062153
0.0631967
0.0642022
0.0651681
0.0660932
0.0669762
0.0678159
0.0686114
0.0693616
0.0700656
0.0707226
0.0713317
0.0718924
0.0724041
0.0728663
0.0732787
0.0736409
0.0739529
0.0742147
0.0744262
0.0745876
0.0746993
0.0747617
0.0747753
0.0747408
0.0746588
0.0745304
0.0743566
0.0741384
0.0738773
0.0735746
0.0732318
0.0728506
0.0724327
0.0719801
0.0714947
0.0709786
0.070434
0.0698633
0.0692689
0.0686531
0.0680184
0.0673675
0.066703
0.0660276
0.0653438
0.0646544
0.063962
0.0632689
0.0625779
0.0618911
0.0612109
0.0605392
0.0598778
0.0592279
0.0585941
0.0579803
0.0573419
0.0566384
0.0117716
0.0109188
0.0101611
0.00944908
0.00872703
0.00799903
0.00726994
0.00654067
0.00581229
0.00508643
0.00436483
0.0036494
0.0029421
0.002245
0.0015602
0.000889851
0.000236079
-0.000398987
-0.00101325
-0.00160463
-0.00217114
-0.0027108
-0.00322174
-0.00370215
-0.00415031
-0.00456461
-0.0049435
-0.00528555
-0.00558943
-0.0058539
-0.00607783
-0.00626017
-0.0064
-0.00649648
-0.00654886
-0.00655651
-0.00651888
-0.00643553
-0.00630611
-0.00613033
-0.00590803
-0.00563911
-0.00532357
-0.00496149
-0.00455303
-0.00409843
-0.00359803
-0.00305223
-0.00246148
-0.00182634
-0.00114741
-0.000425372
0.000339026
0.00114497
0.00199159
0.00287796
0.00380308