/*--------------------------------*- C++ -*----------------------------------*\
  =========                 |
  \\      /  F ield         | OpenFOAM: The Open Source CFD Toolbox
   \\    /   O peration     | Website:  https://openfoam.org
    \\  /    A nd           | Version:  7
     \\/     M anipulation  |
\*---------------------------------------------------------------------------*/
FoamFile
{
    version     2.0;
    format      ascii;
    class       surfaceScalarField;
    location    "0.425";
    object      phi;
}
// * * * * * * * * * * * * * * * * * * * * * * * * * * * * * * * * * * * * * //

dimensions      [0 3 -1 0 0 0 0];

internalField   nonuniform List<scalar> 
50880
(
5.93406e-12
-6.29118e-12
3.61828e-11
-3.02521e-11
8.1104e-11
-4.49218e-11
1.30753e-10
-4.96566e-11
1.78004e-10
-4.72567e-11
2.17892e-10
-3.98829e-11
2.46985e-10
-2.9085e-11
2.62961e-10
-1.59743e-11
2.64296e-10
-1.33588e-12
2.50023e-10
1.42694e-11
2.19588e-10
3.04351e-11
1.72729e-10
4.68617e-11
1.09405e-10
6.33256e-11
2.97506e-11
7.96573e-11
-6.59732e-11
9.5725e-11
-1.77401e-10
1.11428e-10
-3.0409e-10
1.26688e-10
-4.45536e-10
1.41446e-10
-6.0119e-10
1.55655e-10
-7.70464e-10
1.69277e-10
-9.52747e-10
1.82284e-10
-1.1474e-09
1.94655e-10
-1.35377e-09
2.06374e-10
-1.5712e-09
2.17431e-10
-1.79902e-09
2.27817e-10
-2.03655e-09
2.37529e-10
-2.28311e-09
2.46565e-10
-2.53804e-09
2.54926e-10
-2.80065e-09
2.62616e-10
-3.07029e-09
2.69637e-10
-3.34628e-09
2.75995e-10
-3.62798e-09
2.81695e-10
-3.91472e-09
2.86746e-10
-4.20588e-09
2.91155e-10
-4.50082e-09
2.94934e-10
-4.79891e-09
2.98093e-10
-5.09955e-09
3.0064e-10
-5.40213e-09
3.02585e-10
-5.70607e-09
3.0394e-10
-6.01079e-09
3.04715e-10
-6.31571e-09
3.04924e-10
-6.62029e-09
3.04579e-10
-6.92398e-09
3.0369e-10
-7.22625e-09
3.0227e-10
-7.52658e-09
3.00331e-10
-7.82446e-09
2.97887e-10
-8.11941e-09
2.94951e-10
-8.41095e-09
2.91534e-10
-8.6986e-09
2.87649e-10
-8.98191e-09
2.8331e-10
-9.26043e-09
2.78528e-10
-9.53375e-09
2.73318e-10
-9.80145e-09
2.67693e-10
-1.00631e-08
2.61665e-10
-1.03184e-08
2.55248e-10
-1.05668e-08
2.48454e-10
-1.08081e-08
2.41297e-10
-1.10419e-08
2.33791e-10
-1.12678e-08
2.25947e-10
-1.14856e-08
2.17781e-10
-1.16949e-08
2.09304e-10
-1.18955e-08
2.00531e-10
-1.20869e-08
1.91474e-10
-1.22691e-08
1.82148e-10
-1.24417e-08
1.72565e-10
-1.26044e-08
1.6274e-10
-1.27571e-08
1.52686e-10
-1.28995e-08
1.42416e-10
-1.30314e-08
1.31945e-10
-1.31527e-08
1.21287e-10
-1.32632e-08
1.10455e-10
-1.33626e-08
9.94635e-11
-1.3451e-08
8.83269e-11
-1.3528e-08
7.70592e-11
-1.35937e-08
6.5675e-11
-1.36479e-08
5.41892e-11
-1.36905e-08
4.26166e-11
-1.37215e-08
3.09718e-11
-1.37407e-08
1.92698e-11
-1.37483e-08
7.52523e-12
-1.3744e-08
-4.24645e-12
-1.3728e-08
-1.60297e-11
-1.37002e-08
-2.78088e-11
-1.36606e-08
-3.95681e-11
-1.36093e-08
-5.12917e-11
-1.35464e-08
-6.29641e-11
-1.34718e-08
-7.45691e-11
-1.33857e-08
-8.60906e-11
-1.32882e-08
-9.75119e-11
-1.31794e-08
-1.08817e-10
-1.30594e-08
-1.19988e-10
-1.29284e-08
-1.3101e-10
-1.27865e-08
-1.41865e-10
-1.2634e-08
-1.52537e-10
-1.2471e-08
-1.63009e-10
-1.22977e-08
-1.73263e-10
-1.21144e-08
-1.83282e-10
-1.19214e-08
-1.93051e-10
-1.17188e-08
-2.0255e-10
-1.15071e-08
-2.11764e-10
-1.12864e-08
-2.20675e-10
-1.10571e-08
-2.29266e-10
-1.08196e-08
-2.37521e-10
-1.05742e-08
-2.45422e-10
-1.03212e-08
-2.52952e-10
-1.00611e-08
-2.60095e-10
-9.79429e-09
-2.66834e-10
-9.52114e-09
-2.73154e-10
-9.2421e-09
-2.79037e-10
-8.95763e-09
-2.84468e-10
-8.6682e-09
-2.89431e-10
-8.37429e-09
-2.93911e-10
-8.0764e-09
-2.97893e-10
-7.77504e-09
-3.01361e-10
-7.47074e-09
-3.04301e-10
-7.16403e-09
-3.06701e-10
-6.85549e-09
-3.08545e-10
-6.54567e-09
-3.09821e-10
-6.23515e-09
-3.10517e-10
-5.92453e-09
-3.10619e-10
-5.61441e-09
-3.10118e-10
-5.30541e-09
-3.09002e-10
-4.99815e-09
-3.0726e-10
-4.69327e-09
-3.04885e-10
-4.3914e-09
-3.01866e-10
-4.0932e-09
-2.98197e-10
-3.79933e-09
-2.93869e-10
-3.51045e-09
-2.88878e-10
-3.22723e-09
-2.83219e-10
-2.95035e-09
-2.76888e-10
-2.68047e-09
-2.69881e-10
-2.41827e-09
-2.62198e-10
-2.16443e-09
-2.5384e-10
-1.91962e-09
-2.44808e-10
-1.68451e-09
-2.35107e-10
-1.45977e-09
-2.24741e-10
-1.24605e-09
-2.13722e-10
-1.04399e-09
-2.02061e-10
-8.5422e-10
-1.89771e-10
-6.77353e-10
-1.76869e-10
-5.13971e-10
-1.6338e-10
-3.64632e-10
-1.49337e-10
-2.29857e-10
-1.34774e-10
-1.10124e-10
-1.19735e-10
-5.84967e-12
-1.04274e-10
8.26137e-11
-8.84616e-11
1.55e-10
-7.23854e-11
2.1115e-10
-5.61518e-11
2.51046e-10
-3.98972e-11
2.74847e-10
-2.37992e-11
2.82939e-10
-8.08981e-12
2.76013e-10
6.92783e-12
2.55164e-10
2.08481e-11
2.22051e-10
3.3113e-11
1.79111e-10
4.29408e-11
1.29869e-10
4.92408e-11
7.93418e-11
5.05237e-11
3.46022e-11
4.47424e-11
5.31291e-12
2.9306e-11
5.3314e-12
3.00518e-11
-3.63468e-11
1.01192e-10
-1.01384e-10
1.95475e-10
-1.39184e-10
2.95815e-10
-1.49996e-10
3.8786e-10
-1.39315e-10
4.60383e-10
-1.12414e-10
5.04923e-10
-7.36218e-11
5.15289e-10
-2.63311e-11
4.87081e-10
2.68743e-11
4.173e-10
8.40465e-11
3.0403e-10
1.43704e-10
1.46185e-10
2.04711e-10
-5.66715e-11
2.66189e-10
-3.04467e-10
3.27456e-10
-5.96724e-10
3.8798e-10
-9.32644e-10
4.47343e-10
-1.31118e-09
5.05216e-10
-1.73106e-09
5.61339e-10
-2.19091e-09
6.15501e-10
-2.68916e-09
6.67539e-10
-3.2242e-09
7.17325e-10
-3.7943e-09
7.64759e-10
-4.39769e-09
8.09767e-10
-5.03256e-09
8.52292e-10
-5.69703e-09
8.92295e-10
-6.38925e-09
9.29747e-10
-7.10731e-09
9.64632e-10
-7.84933e-09
9.96946e-10
-8.61341e-09
1.02669e-09
-9.39765e-09
1.05388e-09
-1.02002e-08
1.07852e-09
-1.10191e-08
1.10063e-09
-1.18526e-08
1.12024e-09
-1.26988e-08
1.13738e-09
-1.3556e-08
1.15207e-09
-1.44222e-08
1.16436e-09
-1.52959e-08
1.17428e-09
-1.61751e-08
1.18187e-09
-1.70584e-08
1.18716e-09
-1.79438e-08
1.1902e-09
-1.883e-08
1.19104e-09
-1.97151e-08
1.18971e-09
-2.05977e-08
1.18627e-09
-2.14761e-08
1.18076e-09
-2.2349e-08
1.17322e-09
-2.32149e-08
1.16371e-09
-2.40722e-08
1.15227e-09
-2.49196e-08
1.13896e-09
-2.57558e-08
1.12382e-09
-2.65794e-08
1.10689e-09
-2.73891e-08
1.08824e-09
-2.81837e-08
1.06792e-09
-2.89619e-08
1.04596e-09
-2.97227e-08
1.02243e-09
-3.04648e-08
9.97372e-10
-3.11872e-08
9.70839e-10
-3.18888e-08
9.42884e-10
-3.25686e-08
9.13558e-10
-3.32255e-08
8.82913e-10
-3.38588e-08
8.50999e-10
-3.44673e-08
8.17871e-10
-3.50504e-08
7.8358e-10
-3.56071e-08
7.48178e-10
-3.61366e-08
7.11719e-10
-3.66383e-08
6.74256e-10
-3.71114e-08
6.35841e-10
-3.75553e-08
5.9653e-10
-3.79692e-08
5.56375e-10
-3.83527e-08
5.15432e-10
-3.87052e-08
4.73755e-10
-3.90261e-08
4.314e-10
-3.93151e-08
3.88421e-10
-3.95716e-08
3.44874e-10
-3.97954e-08
3.00817e-10
-3.9986e-08
2.56305e-10
-4.01432e-08
2.11397e-10
-4.02668e-08
1.6615e-10
-4.03564e-08
1.20623e-10
-4.0412e-08
7.48736e-11
-4.04334e-08
2.89619e-11
-4.04206e-08
-1.70525e-11
-4.03736e-08
-6.31088e-11
-4.02922e-08
-1.09146e-10
-4.01767e-08
-1.55102e-10
-4.00271e-08
-2.00916e-10
-3.98435e-08
-2.46525e-10
-3.96262e-08
-2.91866e-10
-3.93754e-08
-3.36875e-10
-3.90915e-08
-3.81489e-10
-3.87746e-08
-4.25642e-10
-3.84253e-08
-4.6927e-10
-3.8044e-08
-5.12309e-10
-3.76312e-08
-5.54691e-10
-3.71874e-08
-5.96352e-10
-3.67132e-08
-6.37225e-10
-3.62092e-08
-6.77245e-10
-3.56761e-08
-7.16343e-10
-3.51147e-08
-7.54455e-10
-3.45258e-08
-7.91512e-10
-3.39101e-08
-8.2745e-10
-3.32686e-08
-8.622e-10
-3.26021e-08
-8.95698e-10
-3.19118e-08
-9.27877e-10
-3.11985e-08
-9.58671e-10
-3.04635e-08
-9.88016e-10
-2.97077e-08
-1.01585e-09
-2.89325e-08
-1.0421e-09
-2.81389e-08
-1.06671e-09
-2.73283e-08
-1.08962e-09
-2.6502e-08
-1.11076e-09
-2.56614e-08
-1.13007e-09
-2.48078e-08
-1.1475e-09
-2.39427e-08
-1.16298e-09
-2.30676e-08
-1.17647e-09
-2.2184e-08
-1.1879e-09
-2.12935e-08
-1.19722e-09
-2.03977e-08
-1.20438e-09
-1.94981e-08
-1.20933e-09
-1.85966e-08
-1.21203e-09
-1.76948e-08
-1.21242e-09
-1.67945e-08
-1.21046e-09
-1.58974e-08
-1.20612e-09
-1.50053e-08
-1.19936e-09
-1.412e-08
-1.19014e-09
-1.32435e-08
-1.17843e-09
-1.23775e-08
-1.1642e-09
-1.15239e-08
-1.14744e-09
-1.06847e-08
-1.12811e-09
-9.86167e-09
-1.10621e-09
-9.05684e-09
-1.08172e-09
-8.27209e-09
-1.05463e-09
-7.50933e-09
-1.02496e-09
-6.77046e-09
-9.92704e-10
-6.05739e-09
-9.57877e-10
-5.37199e-09
-9.20502e-10
-4.71613e-09
-8.8061e-10
-4.09161e-09
-8.38243e-10
-3.50021e-09
-7.93456e-10
-2.94366e-09
-7.46319e-10
-2.42361e-09
-6.96917e-10
-1.94164e-09
-6.45351e-10
-1.49923e-09
-5.91754e-10
-1.09772e-09
-5.36283e-10
-7.38317e-10
-4.79132e-10
-4.22057e-10
-4.20535e-10
-1.49736e-10
-3.60782e-10
7.8115e-11
-3.00234e-10
2.61299e-10
-2.39335e-10
4.00038e-10
-1.78638e-10
4.95083e-10
-1.18844e-10
5.47841e-10
-6.08446e-11
5.60559e-10
-5.78474e-12
5.36552e-10
4.48565e-11
4.80509e-10
8.9152e-11
3.98875e-10
1.24574e-10
3.00285e-10
1.47834e-10
1.96002e-10
1.54802e-10
1.00168e-10
1.4055e-10
2.92538e-11
1.00182e-10
3.45976e-11
4.48482e-11
-8.11945e-11
1.39141e-10
-1.95693e-10
2.5641e-10
-2.56453e-10
3.75016e-10
-2.68594e-10
4.76678e-10
-2.40973e-10
5.46522e-10
-1.82259e-10
5.72843e-10
-9.99444e-11
5.46683e-10
-1.7122e-13
4.61406e-10
1.12152e-10
3.12268e-10
2.33182e-10
9.6078e-11
3.59894e-10
-1.89116e-10
4.89908e-10
-5.44265e-10
6.21342e-10
-9.69517e-10
7.52708e-10
-1.46436e-09
8.82824e-10
-2.02777e-09
1.01075e-09
-2.65827e-09
1.13572e-09
-3.35407e-09
1.25714e-09
-4.1131e-09
1.37453e-09
-4.93304e-09
1.48748e-09
-5.81141e-09
1.5957e-09
-6.7456e-09
1.69894e-09
-7.73285e-09
1.79702e-09
-8.77033e-09
1.88978e-09
-9.85516e-09
1.97712e-09
-1.09844e-08
2.05897e-09
-1.2155e-08
2.13527e-09
-1.33641e-08
2.20601e-09
-1.46085e-08
2.27116e-09
-1.58854e-08
2.33075e-09
-1.71917e-08
2.38478e-09
-1.85244e-08
2.43331e-09
-1.98805e-08
2.47636e-09
-2.12571e-08
2.51401e-09
-2.26514e-08
2.54631e-09
-2.40603e-08
2.57332e-09
-2.54812e-08
2.59513e-09
-2.69111e-08
2.61182e-09
-2.83474e-08
2.62346e-09
-2.97874e-08
2.63016e-09
-3.12283e-08
2.63199e-09
-3.26677e-08
2.62906e-09
-3.41029e-08
2.62147e-09
-3.55314e-08
2.60931e-09
-3.69509e-08
2.59268e-09
-3.83589e-08
2.5717e-09
-3.97531e-08
2.54645e-09
-4.11312e-08
2.51707e-09
-4.2491e-08
2.48364e-09
-4.38304e-08
2.44627e-09
-4.51472e-08
2.40509e-09
-4.64395e-08
2.36019e-09
-4.77052e-08
2.31169e-09
-4.89425e-08
2.25971e-09
-5.01495e-08
2.20434e-09
-5.13243e-08
2.14571e-09
-5.24654e-08
2.08394e-09
-5.3571e-08
2.01912e-09
-5.46394e-08
1.95139e-09
-5.56693e-08
1.88084e-09
-5.6659e-08
1.80761e-09
-5.76072e-08
1.7318e-09
-5.85126e-08
1.65353e-09
-5.93738e-08
1.57293e-09
-6.01896e-08
1.49009e-09
-6.09589e-08
1.40516e-09
-6.16806e-08
1.31823e-09
-6.23537e-08
1.22944e-09
-6.29772e-08
1.13891e-09
-6.35502e-08
1.04675e-09
-6.40719e-08
9.53092e-10
-6.45415e-08
8.58056e-10
-6.49584e-08
7.61765e-10
-6.53219e-08
6.64346e-10
-6.56316e-08
5.65925e-10
-6.58868e-08
4.6663e-10
-6.60872e-08
3.66589e-10
-6.62325e-08
2.65931e-10
-6.63224e-08
1.64786e-10
-6.63568e-08
6.3286e-11
-6.63354e-08
-3.84356e-11
-6.62582e-08
-1.40245e-10
-6.61254e-08
-2.42006e-10
-6.59369e-08
-3.43583e-10
-6.5693e-08
-4.44839e-10
-6.53939e-08
-5.45636e-10
-6.50399e-08
-6.45833e-10
-6.46315e-08
-7.4529e-10
-6.41691e-08
-8.43865e-10
-6.36533e-08
-9.41415e-10
-6.30848e-08
-1.0378e-09
-6.24643e-08
-1.13287e-09
-6.17925e-08
-1.22648e-09
-6.10703e-08
-1.3185e-09
-6.02988e-08
-1.40876e-09
-5.94789e-08
-1.49713e-09
-5.86118e-08
-1.58346e-09
-5.76986e-08
-1.6676e-09
-5.67407e-08
-1.7494e-09
-5.57395e-08
-1.82873e-09
-5.46962e-08
-1.90543e-09
-5.36126e-08
-1.97935e-09
-5.24901e-08
-2.05035e-09
-5.13305e-08
-2.11829e-09
-5.01355e-08
-2.18303e-09
-4.89069e-08
-2.24442e-09
-4.76467e-08
-2.30232e-09
-4.63568e-08
-2.35659e-09
-4.50393e-08
-2.4071e-09
-4.36964e-08
-2.45371e-09
-4.23302e-08
-2.49629e-09
-4.09429e-08
-2.5347e-09
-3.95371e-08
-2.56884e-09
-3.8115e-08
-2.59856e-09
-3.66792e-08
-2.62375e-09
-3.52321e-08
-2.64429e-09
-3.37764e-08
-2.66008e-09
-3.23147e-08
-2.671e-09
-3.08498e-08
-2.67695e-09
-2.93844e-08
-2.67784e-09
-2.79212e-08
-2.67358e-09
-2.64633e-08
-2.66407e-09
-2.50134e-08
-2.64924e-09
-2.35745e-08
-2.62902e-09
-2.21496e-08
-2.60333e-09
-2.07417e-08
-2.57214e-09
-1.93537e-08
-2.53538e-09
-1.79888e-08
-2.49302e-09
-1.665e-08
-2.44504e-09
-1.53403e-08
-2.3914e-09
-1.40628e-08
-2.33212e-09
-1.28206e-08
-2.26719e-09
-1.16166e-08
-2.19665e-09
-1.0454e-08
-2.12053e-09
-9.3356e-09
-2.0389e-09
-8.26438e-09
-1.95183e-09
-7.24319e-09
-1.85943e-09
-6.27481e-09
-1.76184e-09
-5.36191e-09
-1.65922e-09
-4.50704e-09
-1.55178e-09
-3.71261e-09
-1.43978e-09
-2.98086e-09
-1.32351e-09
-2.31379e-09
-1.20334e-09
-1.71318e-09
-1.07974e-09
-1.18048e-09
-9.53234e-10
-7.16773e-10
-8.24494e-10
-3.22677e-10
-6.94329e-10
1.72657e-12
-5.63735e-10
2.57029e-10
-4.3394e-10
4.44645e-10
-3.06463e-10
5.66997e-10
-1.83201e-10
6.27753e-10
-6.65408e-11
6.321e-10
4.05131e-11
5.87083e-10
1.34171e-10
5.0199e-10
2.09667e-10
3.88751e-10
2.61082e-10
2.62276e-10
2.81297e-10
1.40597e-10
2.62243e-10
4.47086e-11
1.96051e-10
7.9309e-11
4.97144e-11
-1.30896e-10
1.50309e-10
-2.96304e-10
2.69194e-10
-3.75351e-10
3.81182e-10
-3.80581e-10
4.65462e-10
-3.25243e-10
5.04962e-10
-2.21752e-10
4.85957e-10
-8.09419e-11
3.97678e-10
8.81027e-11
2.31892e-10
2.77935e-10
-1.74538e-11
4.8253e-10
-3.54593e-10
6.97037e-10
-7.82238e-10
9.17555e-10
-1.30184e-09
1.14095e-09
-1.91382e-09
1.36468e-09
-2.61772e-09
1.58672e-09
-3.41238e-09
1.80541e-09
-4.29609e-09
2.01943e-09
-5.26662e-09
2.22768e-09
-6.32137e-09
2.42929e-09
-7.45743e-09
2.62354e-09
-8.67159e-09
2.80987e-09
-9.96046e-09
2.98782e-09
-1.13205e-08
3.15703e-09
-1.27479e-08
3.31723e-09
-1.4239e-08
3.46819e-09
-1.57898e-08
3.60976e-09
-1.73963e-08
3.74183e-09
-1.90547e-08
3.86434e-09
-2.07608e-08
3.97725e-09
-2.25106e-08
4.08057e-09
-2.43001e-08
4.17431e-09
-2.61253e-08
4.25852e-09
-2.79822e-08
4.33328e-09
-2.98669e-08
4.39866e-09
-3.17754e-08
4.45476e-09
-3.37037e-08
4.5017e-09
-3.56482e-08
4.53959e-09
-3.76049e-08
4.56857e-09
-3.95702e-08
4.58878e-09
-4.15405e-08
4.60037e-09
-4.3512e-08
4.60349e-09
-4.54812e-08
4.59831e-09
-4.74447e-08
4.58499e-09
-4.93991e-08
4.5637e-09
-5.1341e-08
4.53461e-09
-5.32672e-08
4.49791e-09
-5.51746e-08
4.45378e-09
-5.70599e-08
4.4024e-09
-5.89202e-08
4.34395e-09
-6.07526e-08
4.27862e-09
-6.25541e-08
4.20661e-09
-6.4322e-08
4.12811e-09
-6.60536e-08
4.0433e-09
-6.77463e-08
3.95238e-09
-6.93975e-08
3.85556e-09
-7.10048e-08
3.75302e-09
-7.25658e-08
3.64496e-09
-7.40783e-08
3.53158e-09
-7.554e-08
3.41309e-09
-7.69488e-08
3.28969e-09
-7.83028e-08
3.16156e-09
-7.95999e-08
3.02893e-09
-8.08384e-08
2.892e-09
-8.20164e-08
2.75096e-09
-8.31324e-08
2.60603e-09
-8.41846e-08
2.45741e-09
-8.51717e-08
2.30531e-09
-8.60922e-08
2.14995e-09
-8.69448e-08
1.99154e-09
-8.77283e-08
1.83028e-09
-8.84417e-08
1.6664e-09
-8.90837e-08
1.50011e-09
-8.96536e-08
1.33162e-09
-9.01504e-08
1.16117e-09
-9.05734e-08
9.88961e-10
-9.0922e-08
8.1523e-10
-9.11956e-08
6.40198e-10
-9.13938e-08
4.64092e-10
-9.15161e-08
2.87141e-10
-9.15624e-08
1.09575e-10
-9.15325e-08
-6.837e-11
-9.14263e-08
-2.46461e-10
-9.12438e-08
-4.2446e-10
-9.09853e-08
-6.02128e-10
-9.06509e-08
-7.79225e-10
-9.0241e-08
-9.55509e-10
-8.97561e-08
-1.13073e-09
-8.91968e-08
-1.30465e-09
-8.85636e-08
-1.47702e-09
-8.78574e-08
-1.64758e-09
-8.70791e-08
-1.8161e-09
-8.62297e-08
-1.9823e-09
-8.53102e-08
-2.14595e-09
-8.4322e-08
-2.30678e-09
-8.32662e-08
-2.46455e-09
-8.21443e-08
-2.61899e-09
-8.09579e-08
-2.76986e-09
-7.97086e-08
-2.91689e-09
-7.83982e-08
-3.05983e-09
-7.70285e-08
-3.19842e-09
-7.56015e-08
-3.33241e-09
-7.41193e-08
-3.46154e-09
-7.25841e-08
-3.58556e-09
-7.09982e-08
-3.70423e-09
-6.93639e-08
-3.81729e-09
-6.76839e-08
-3.92449e-09
-6.59606e-08
-4.02559e-09
-6.41968e-08
-4.12036e-09
-6.23954e-08
-4.20854e-09
-6.05592e-08
-4.28992e-09
-5.86912e-08
-4.36425e-09
-5.67946e-08
-4.43133e-09
-5.48725e-08
-4.49092e-09
-5.29282e-08
-4.54281e-09
-5.09652e-08
-4.58681e-09
-4.89867e-08
-4.6227e-09
-4.69965e-08
-4.65031e-09
-4.49981e-08
-4.66943e-09
-4.29951e-08
-4.67991e-09
-4.09914e-08
-4.68157e-09
-3.89907e-08
-4.67425e-09
-3.6997e-08
-4.65782e-09
-3.50141e-08
-4.63215e-09
-3.3046e-08
-4.5971e-09
-3.10967e-08
-4.55258e-09
-2.91704e-08
-4.49849e-09
-2.7271e-08
-4.43476e-09
-2.54027e-08
-4.36133e-09
-2.35696e-08
-4.27816e-09
-2.17758e-08
-4.18522e-09
-2.00253e-08
-4.08253e-09
-1.83224e-08
-3.97012e-09
-1.66711e-08
-3.84802e-09
-1.50752e-08
-3.71635e-09
-1.35389e-08
-3.5752e-09
-1.2066e-08
-3.42476e-09
-1.06602e-08
-3.26521e-09
-9.32525e-09
-3.09682e-09
-8.06458e-09
-2.91989e-09
-6.88154e-09
-2.73482e-09
-5.77924e-09
-2.54208e-09
-4.76054e-09
-2.34221e-09
-3.82799e-09
-2.13589e-09
-2.98378e-09
-1.92394e-09
-2.22967e-09
-1.70734e-09
-1.56692e-09
-1.48725e-09
-9.96142e-10
-1.26511e-09
-5.17241e-10
-1.04264e-09
-1.29231e-10
-8.21946e-10
1.69921e-10
-6.05612e-10
3.83515e-10
-3.96795e-10
5.1636e-10
-1.99388e-10
5.75065e-10
-1.81907e-11
5.6835e-10
1.40887e-10
5.07393e-10
2.70619e-10
4.06183e-10
3.62281e-10
2.81875e-10
4.05602e-10
1.55112e-10
3.89021e-10
5.05685e-11
3.00592e-10
1.29875e-10
4.75041e-11
-1.78394e-10
1.40248e-10
-3.89046e-10
2.42757e-10
-4.77866e-10
3.27653e-10
-4.65479e-10
3.72569e-10
-3.70152e-10
3.59138e-10
-2.08314e-10
2.72443e-10
5.75301e-12
1.00581e-10
2.59959e-10
-1.6571e-10
5.44224e-10
-5.33401e-10
8.50224e-10
-1.00749e-09
1.17113e-09
-1.59127e-09
1.50134e-09
-2.28662e-09
1.83629e-09
-3.0942e-09
2.17225e-09
-4.01363e-09
2.50615e-09
-5.04372e-09
2.8355e-09
-6.18252e-09
3.15824e-09
-7.42751e-09
3.47268e-09
-8.77569e-09
3.77746e-09
-1.02236e-08
4.07145e-09
-1.17675e-08
4.35374e-09
-1.34032e-08
4.62359e-09
-1.51266e-08
4.88041e-09
-1.69331e-08
5.12374e-09
-1.88181e-08
5.35321e-09
-2.07769e-08
5.56856e-09
-2.28047e-08
5.76958e-09
-2.48965e-08
5.95615e-09
-2.70475e-08
6.1282e-09
-2.92526e-08
6.28569e-09
-3.15069e-08
6.42864e-09
-3.38055e-08
6.5571e-09
-3.61434e-08
6.67116e-09
-3.85156e-08
6.77094e-09
-4.09174e-08
6.85656e-09
-4.33439e-08
6.92819e-09
-4.57903e-08
6.986e-09
-4.82519e-08
7.03018e-09
-5.07241e-08
7.06094e-09
-5.32022e-08
7.0785e-09
-5.56818e-08
7.08308e-09
-5.81584e-08
7.07494e-09
-6.06278e-08
7.05431e-09
-6.30855e-08
7.02145e-09
-6.55275e-08
6.97663e-09
-6.79497e-08
6.92012e-09
-7.03481e-08
6.85218e-09
-7.27188e-08
6.7731e-09
-7.50581e-08
6.68316e-09
-7.73621e-08
6.58265e-09
-7.96273e-08
6.47186e-09
-8.18503e-08
6.35107e-09
-8.40276e-08
6.22059e-09
-8.61559e-08
6.0807e-09
-8.82321e-08
5.93172e-09
-9.0253e-08
5.77395e-09
-9.22157e-08
5.60768e-09
-9.41174e-08
5.43322e-09
-9.59551e-08
5.25088e-09
-9.77264e-08
5.06098e-09
-9.94287e-08
4.86382e-09
-1.01059e-07
4.65971e-09
-1.02616e-07
4.44896e-09
-1.04097e-07
4.23191e-09
-1.055e-07
4.00886e-09
-1.06823e-07
3.78013e-09
-1.08064e-07
3.54605e-09
-1.09221e-07
3.30695e-09
-1.10292e-07
3.06314e-09
-1.11277e-07
2.81496e-09
-1.12173e-07
2.56275e-09
-1.1298e-07
2.30682e-09
-1.13696e-07
2.04753e-09
-1.1432e-07
1.78521e-09
-1.14851e-07
1.5202e-09
-1.15289e-07
1.25284e-09
-1.15632e-07
9.83497e-10
-1.15881e-07
7.12504e-10
-1.16034e-07
4.40221e-10
-1.16091e-07
1.67002e-10
-1.16053e-07
-1.06791e-10
-1.15918e-07
-3.80796e-10
-1.15688e-07
-6.54649e-10
-1.15362e-07
-9.27981e-10
-1.14941e-07
-1.20042e-09
-1.14425e-07
-1.4716e-09
-1.13815e-07
-1.74113e-09
-1.13111e-07
-2.00864e-09
-1.12314e-07
-2.27374e-09
-1.11425e-07
-2.53606e-09
-1.10446e-07
-2.79521e-09
-1.09378e-07
-3.0508e-09
-1.08221e-07
-3.30243e-09
-1.06978e-07
-3.54973e-09
-1.05651e-07
-3.79229e-09
-1.0424e-07
-4.02973e-09
-1.02748e-07
-4.26165e-09
-1.01177e-07
-4.48766e-09
-9.95298e-08
-4.70737e-09
-9.78078e-08
-4.92038e-09
-9.60139e-08
-5.12631e-09
-9.41507e-08
-5.32476e-09
-9.22209e-08
-5.51535e-09
-9.02274e-08
-5.6977e-09
-8.81733e-08
-5.87142e-09
-8.60616e-08
-6.03613e-09
-8.38958e-08
-6.19147e-09
-8.16791e-08
-6.33706e-09
-7.94151e-08
-6.47255e-09
-7.71074e-08
-6.59758e-09
-7.47599e-08
-6.71179e-09
-7.23763e-08
-6.81486e-09
-6.99608e-08
-6.90644e-09
-6.75174e-08
-6.98622e-09
-6.50503e-08
-7.05387e-09
-6.25639e-08
-7.10911e-09
-6.00626e-08
-7.15163e-09
-5.75509e-08
-7.18117e-09
-5.50333e-08
-7.19745e-09
-5.25147e-08
-7.20024e-09
-4.99996e-08
-7.1893e-09
-4.7493e-08
-7.16442e-09
-4.49998e-08
-7.12539e-09
-4.25248e-08
-7.07205e-09
-4.00731e-08
-7.00424e-09
-3.76498e-08
-6.92184e-09
-3.52598e-08
-6.82472e-09
-3.29083e-08
-6.71282e-09
-3.06004e-08
-6.5861e-09
-2.83411e-08
-6.44453e-09
-2.61355e-08
-6.28813e-09
-2.39886e-08
-6.11697e-09
-2.19055e-08
-5.93115e-09
-1.9891e-08
-5.73082e-09
-1.795e-08
-5.5162e-09
-1.60873e-08
-5.28754e-09
-1.43073e-08
-5.0452e-09
-1.26145e-08
-4.78959e-09
-1.10131e-08
-4.52123e-09
-9.50725e-09
-4.24072e-09
-8.10049e-09
-3.94883e-09
-6.79627e-09
-3.64644e-09
-5.59755e-09
-3.33461e-09
-4.50689e-09
-3.01461e-09
-3.52625e-09
-2.68797e-09
-2.65699e-09
-2.35651e-09
-1.89971e-09
-2.02239e-09
-1.25412e-09
-1.68822e-09
-7.18903e-10
-1.35717e-09
-2.91494e-10
-1.03302e-09
3.20839e-11
-7.20372e-10
2.57487e-10
-4.24795e-10
3.92319e-10
-1.53026e-10
4.46419e-10
8.67904e-11
4.32163e-10
2.8488e-10
3.64803e-10
4.29637e-10
2.62875e-10
5.07521e-10
1.48726e-10
5.03178e-10
4.94472e-11
3.99873e-10
1.7932e-10
4.03986e-11
-2.18799e-10
1.14241e-10
-4.62875e-10
1.85758e-10
-5.4938e-10
2.26796e-10
-5.06517e-10
2.14314e-10
-3.57671e-10
1.29348e-10
-1.23349e-10
-4.3611e-11
1.78711e-10
-3.17067e-10
5.33414e-10
-7.0088e-10
9.28038e-10
-1.20258e-09
1.35193e-09
-1.82765e-09
1.7962e-09
-2.5798e-09
2.25349e-09
-3.4612e-09
2.71768e-09
-4.47267e-09
3.18372e-09
-5.61392e-09
3.6474e-09
-6.88369e-09
4.10527e-09
-8.27989e-09
4.55444e-09
-9.79974e-09
4.99254e-09
-1.14399e-08
5.4176e-09
-1.31964e-08
5.828e-09
-1.50651e-08
6.22243e-09
-1.70413e-08
6.59978e-09
-1.91201e-08
6.9592e-09
-2.12963e-08
7.29998e-09
-2.35647e-08
7.62156e-09
-2.59196e-08
7.92352e-09
-2.83556e-08
8.20555e-09
-3.08669e-08
8.46743e-09
-3.34477e-08
8.70903e-09
-3.60923e-08
8.93026e-09
-3.87948e-08
9.13114e-09
-4.15494e-08
9.3117e-09
-4.43503e-08
9.47205e-09
-4.71917e-08
9.61232e-09
-5.00678e-08
9.73269e-09
-5.2973e-08
9.83335e-09
-5.59015e-08
9.91454e-09
-5.88478e-08
9.97652e-09
-6.18065e-08
1.00196e-08
-6.47719e-08
1.0044e-08
-6.77389e-08
1.00501e-08
-7.07022e-08
1.00382e-08
-7.36565e-08
1.00086e-08
-7.65968e-08
9.96176e-09
-7.95181e-08
9.89799e-09
-8.24157e-08
9.81765e-09
-8.52846e-08
9.72115e-09
-8.81204e-08
9.60886e-09
-9.09184e-08
9.48118e-09
-9.36743e-08
9.33852e-09
-9.63837e-08
9.18127e-09
-9.90425e-08
9.00987e-09
-1.01647e-07
8.8247e-09
-1.04192e-07
8.62621e-09
-1.06675e-07
8.41481e-09
-1.09092e-07
8.19093e-09
-1.11439e-07
7.955e-09
-1.13714e-07
7.70745e-09
-1.15912e-07
7.44871e-09
-1.1803e-07
7.17923e-09
-1.20065e-07
6.89945e-09
-1.22016e-07
6.60981e-09
-1.23877e-07
6.31076e-09
-1.25648e-07
6.00275e-09
-1.27326e-07
5.68622e-09
-1.28907e-07
5.36165e-09
-1.3039e-07
5.02947e-09
-1.31774e-07
4.69017e-09
-1.33055e-07
4.34419e-09
-1.34232e-07
3.99202e-09
-1.35303e-07
3.63411e-09
-1.36267e-07
3.27095e-09
-1.37123e-07
2.90302e-09
-1.37868e-07
2.53079e-09
-1.38503e-07
2.15476e-09
-1.39025e-07
1.77542e-09
-1.39435e-07
1.39325e-09
-1.39731e-07
1.00876e-09
-1.39914e-07
6.22452e-10
-1.39982e-07
2.3483e-10
-1.39935e-07
-1.53594e-10
-1.39773e-07
-5.42305e-10
-1.39497e-07
-9.30783e-10
-1.39107e-07
-1.31851e-09
-1.38602e-07
-1.70495e-09
-1.37984e-07
-2.08958e-09
-1.37253e-07
-2.47186e-09
-1.36411e-07
-2.85125e-09
-1.35457e-07
-3.22722e-09
-1.34394e-07
-3.59922e-09
-1.33223e-07
-3.9667e-09
-1.31944e-07
-4.32911e-09
-1.30561e-07
-4.6859e-09
-1.29074e-07
-5.03652e-09
-1.27486e-07
-5.38041e-09
-1.25799e-07
-5.71702e-09
-1.24014e-07
-6.04579e-09
-1.22136e-07
-6.36616e-09
-1.20166e-07
-6.67758e-09
-1.18107e-07
-6.9795e-09
-1.15962e-07
-7.27136e-09
-1.13734e-07
-7.55262e-09
-1.11426e-07
-7.82273e-09
-1.09043e-07
-8.08114e-09
-1.06587e-07
-8.32732e-09
-1.04062e-07
-8.56074e-09
-1.01473e-07
-8.78087e-09
-9.88229e-08
-8.98719e-09
-9.61163e-08
-9.1792e-09
-9.33574e-08
-9.3564e-09
-9.05509e-08
-9.51829e-09
-8.77014e-08
-9.6644e-09
-8.48136e-08
-9.79426e-09
-8.18924e-08
-9.90742e-09
-7.89428e-08
-1.00034e-08
-7.597e-08
-1.00819e-08
-7.29792e-08
-1.01424e-08
-6.99758e-08
-1.01846e-08
-6.69652e-08
-1.0208e-08
-6.3953e-08
-1.02124e-08
-6.09449e-08
-1.01974e-08
-5.79465e-08
-1.01628e-08
-5.49637e-08
-1.01082e-08
-5.20022e-08
-1.00335e-08
-4.90681e-08
-9.93837e-09
-4.61672e-08
-9.82271e-09
-4.33056e-08
-9.68637e-09
-4.04892e-08
-9.52926e-09
-3.77239e-08
-9.35132e-09
-3.50159e-08
-9.15257e-09
-3.2371e-08
-8.93303e-09
-2.97951e-08
-8.69283e-09
-2.72941e-08
-8.43214e-09
-2.48738e-08
-8.1512e-09
-2.25396e-08
-7.85032e-09
-2.02973e-08
-7.52993e-09
-1.81519e-08
-7.19053e-09
-1.61088e-08
-6.83276e-09
-1.41726e-08
-6.45736e-09
-1.23481e-08
-6.06526e-09
-1.06394e-08
-5.65754e-09
-9.05031e-09
-5.23549e-09
-7.58426e-09
-4.80066e-09
-6.24403e-09
-4.35485e-09
-5.03178e-09
-3.90022e-09
-3.94896e-09
-3.43933e-09
-2.99611e-09
-2.97523e-09
-2.17283e-09
-2.51151e-09
-1.47751e-09
-2.05249e-09
-9.07235e-10
-1.6033e-09
-4.57531e-10
-1.17007e-09
-1.22175e-10
-7.6015e-10
1.07065e-10
-3.8227e-10
2.40699e-10
-4.68441e-11
2.9179e-10
2.33794e-10
2.76281e-10
4.45151e-10
2.13429e-10
5.70368e-10
1.2643e-10
5.90179e-10
4.34165e-11
4.82889e-10
2.22736e-10
2.99454e-11
-2.48751e-10
7.65772e-11
-5.09498e-10
1.05598e-10
-5.78392e-10
8.92784e-11
-4.90195e-10
4.70588e-12
-2.73104e-10
-1.67088e-10
4.84392e-11
-4.41713e-10
4.53335e-10
-8.31855e-10
9.23559e-10
-1.34761e-09
1.44379e-09
-1.99675e-09
2.00107e-09
-2.78502e-09
2.58447e-09
-3.71633e-09
3.1848e-09
-4.793e-09
3.79435e-09
-6.01597e-09
4.40668e-09
-7.38495e-09
5.01638e-09
-8.8986e-09
5.61893e-09
-1.05547e-08
6.21054e-09
-1.23502e-08
6.78807e-09
-1.42815e-08
7.34889e-09
-1.63443e-08
7.89081e-09
-1.85339e-08
8.41203e-09
-2.08452e-08
8.91106e-09
-2.32727e-08
9.38668e-09
-2.58106e-08
9.83792e-09
-2.84531e-08
1.0264e-08
-3.11938e-08
1.06643e-08
-3.40265e-08
1.10383e-08
-3.69449e-08
1.13858e-08
-3.99423e-08
1.17064e-08
-4.30121e-08
1.20001e-08
-4.61479e-08
1.22669e-08
-4.93429e-08
1.25067e-08
-5.25905e-08
1.27197e-08
-5.58842e-08
1.2906e-08
-5.92174e-08
1.30658e-08
-6.25835e-08
1.31994e-08
-6.5976e-08
1.33071e-08
-6.93887e-08
1.33892e-08
-7.28151e-08
1.3446e-08
-7.6249e-08
1.34779e-08
-7.96844e-08
1.34854e-08
-8.3115e-08
1.34688e-08
-8.65351e-08
1.34287e-08
-8.99387e-08
1.33654e-08
-9.33202e-08
1.32795e-08
-9.66739e-08
1.31714e-08
-9.99944e-08
1.30417e-08
-1.03276e-07
1.28908e-08
-1.06515e-07
1.27193e-08
-1.09704e-07
1.25278e-08
-1.12839e-07
1.23167e-08
-1.15916e-07
1.20866e-08
-1.18929e-07
1.18381e-08
-1.21875e-07
1.15717e-08
-1.24748e-07
1.1288e-08
-1.27545e-07
1.09876e-08
-1.30261e-07
1.0671e-08
-1.32892e-07
1.03388e-08
-1.35435e-07
9.99157e-09
-1.37885e-07
9.62996e-09
-1.4024e-07
9.25453e-09
-1.42497e-07
8.86587e-09
-1.4465e-07
8.46458e-09
-1.46699e-07
8.05127e-09
-1.48639e-07
7.62654e-09
-1.50469e-07
7.19101e-09
-1.52184e-07
6.74529e-09
-1.53784e-07
6.29e-09
-1.55266e-07
5.82576e-09
-1.56627e-07
5.35322e-09
-1.57866e-07
4.87299e-09
-1.58981e-07
4.38572e-09
-1.5997e-07
3.89205e-09
-1.60832e-07
3.39263e-09
-1.61565e-07
2.88812e-09
-1.62169e-07
2.37918e-09
-1.62642e-07
1.86646e-09
-1.62984e-07
1.35064e-09
-1.63194e-07
8.32396e-10
-1.63271e-07
3.12407e-10
-1.63216e-07
-2.08641e-10
-1.63028e-07
-7.30055e-10
-1.62708e-07
-1.25114e-09
-1.62255e-07
-1.77119e-09
-1.61671e-07
-2.2895e-09
-1.60955e-07
-2.80536e-09
-1.60109e-07
-3.31805e-09
-1.59133e-07
-3.82684e-09
-1.58029e-07
-4.33102e-09
-1.56799e-07
-4.82985e-09
-1.55443e-07
-5.3226e-09
-1.53964e-07
-5.80854e-09
-1.52363e-07
-6.28691e-09
-1.50642e-07
-6.75699e-09
-1.48804e-07
-7.21803e-09
-1.46852e-07
-7.66929e-09
-1.44788e-07
-8.11002e-09
-1.42615e-07
-8.53948e-09
-1.40335e-07
-8.95692e-09
-1.37953e-07
-9.36162e-09
-1.35472e-07
-9.75282e-09
-1.32895e-07
-1.01298e-08
-1.30225e-07
-1.04918e-08
-1.27468e-07
-1.08382e-08
-1.24628e-07
-1.11681e-08
-1.21707e-07
-1.1481e-08
-1.18712e-07
-1.1776e-08
-1.15647e-07
-1.20526e-08
-1.12516e-07
-1.231e-08
-1.09325e-07
-1.25475e-08
-1.06079e-07
-1.27646e-08
-1.02782e-07
-1.29606e-08
-9.94419e-08
-1.31348e-08
-9.60626e-08
-1.32867e-08
-9.26504e-08
-1.34157e-08
-8.92111e-08
-1.35212e-08
-8.57508e-08
-1.36027e-08
-8.22756e-08
-1.36598e-08
-7.87918e-08
-1.36918e-08
-7.53058e-08
-1.36984e-08
-7.18241e-08
-1.36792e-08
-6.83532e-08
-1.36337e-08
-6.48997e-08
-1.35617e-08
-6.14704e-08
-1.34628e-08
-5.80719e-08
-1.33368e-08
-5.47112e-08
-1.31835e-08
-5.13949e-08
-1.30026e-08
-4.813e-08
-1.27942e-08
-4.49233e-08
-1.25581e-08
-4.17815e-08
-1.22943e-08
-3.87115e-08
-1.20031e-08
-3.57199e-08
-1.16844e-08
-3.28133e-08
-1.13387e-08
-2.99982e-08
-1.09662e-08
-2.72811e-08
-1.05675e-08
-2.4668e-08
-1.0143e-08
-2.21649e-08
-9.6936e-09
-1.97776e-08
-9.22006e-09
-1.75115e-08
-8.72348e-09
-1.53716e-08
-8.20511e-09
-1.33627e-08
-7.66644e-09
-1.1489e-08
-7.10922e-09
-9.75414e-09
-6.53553e-09
-8.16117e-09
-5.94782e-09
-6.71245e-09
-5.34894e-09
-5.40949e-09
-4.74229e-09
-4.25286e-09
-4.13185e-09
-3.24205e-09
-3.52232e-09
-2.37531e-09
-2.91923e-09
-1.64949e-09
-2.32912e-09
-1.05983e-09
-1.75973e-09
-5.99786e-10
-1.22019e-09
-2.60802e-10
-7.21255e-10
-3.20606e-11
-2.7559e-10
9.97769e-11
1.01957e-10
1.50876e-10
3.94055e-10
1.40653e-10
5.80592e-10
9.23617e-11
6.38471e-10
3.39758e-11
5.41274e-10
2.56712e-10
1.72405e-11
-2.65992e-10
3.05813e-11
-5.22838e-10
8.27011e-12
-5.56076e-10
-7.60794e-11
-4.05845e-10
-2.4457e-10
-1.04616e-10
-5.15664e-10
3.19529e-10
-9.04656e-10
8.42328e-10
-1.42406e-09
1.44297e-09
-2.08388e-09
2.10362e-09
-2.89191e-09
2.8091e-09
-3.85389e-09
3.54645e-09
-4.97378e-09
4.30468e-09
-6.25391e-09
5.07449e-09
-7.69522e-09
5.84799e-09
-9.29735e-09
6.61852e-09
-1.10589e-08
7.38046e-09
-1.29774e-08
8.12907e-09
-1.50497e-08
8.86036e-09
-1.72718e-08
9.57097e-09
-1.96391e-08
1.02581e-08
-2.21465e-08
1.09194e-08
-2.47884e-08
1.1553e-08
-2.75589e-08
1.21572e-08
-3.04516e-08
1.27307e-08
-3.34601e-08
1.32725e-08
-3.65776e-08
1.37817e-08
-3.9797e-08
1.42578e-08
-4.31114e-08
1.47001e-08
-4.65135e-08
1.51085e-08
-4.9996e-08
1.54826e-08
-5.35516e-08
1.58225e-08
-5.7173e-08
1.61281e-08
-6.08527e-08
1.63994e-08
-6.45834e-08
1.66368e-08
-6.83579e-08
1.68403e-08
-7.21688e-08
1.70103e-08
-7.60088e-08
1.71472e-08
-7.98709e-08
1.72513e-08
-8.3748e-08
1.73231e-08
-8.76331e-08
1.7363e-08
-9.15192e-08
1.73715e-08
-9.53997e-08
1.73493e-08
-9.92678e-08
1.72968e-08
-1.03117e-07
1.72146e-08
-1.06941e-07
1.71033e-08
-1.10733e-07
1.69636e-08
-1.14488e-07
1.67961e-08
-1.18198e-07
1.66014e-08
-1.21859e-07