/*--------------------------------*- C++ -*----------------------------------*\
  =========                 |
  \\      /  F ield         | OpenFOAM: The Open Source CFD Toolbox
   \\    /   O peration     | Website:  https://openfoam.org
    \\  /    A nd           | Version:  7
     \\/     M anipulation  |
\*---------------------------------------------------------------------------*/
FoamFile
{
    version     2.0;
    format      ascii;
    class       volVectorField;
    location    "0.425";
    object      U;
}
// * * * * * * * * * * * * * * * * * * * * * * * * * * * * * * * * * * * * * //

dimensions      [0 1 -1 0 0 0 0];

internalField   nonuniform List<vector> 
25600
(
(1.76766e-07 -2.07447e-07 0)
(2.83433e-06 -1.79578e-06 0)
(9.07428e-06 -2.83401e-06 0)
(1.69279e-05 -3.20756e-06 0)
(2.48875e-05 -3.12388e-06 0)
(3.20054e-05 -2.74609e-06 0)
(3.76295e-05 -2.18154e-06 0)
(4.13089e-05 -1.50131e-06 0)
(4.27435e-05 -7.51584e-07 0)
(4.17404e-05 3.72879e-08 0)
(3.81823e-05 8.44763e-07 0)
(3.20071e-05 1.65663e-06 0)
(2.31932e-05 2.46293e-06 0)
(1.17496e-05 3.25641e-06 0)
(-2.29089e-06 4.03157e-06 0)
(-1.88769e-05 4.78443e-06 0)
(-3.79431e-05 5.51209e-06 0)
(-5.9413e-05 6.21247e-06 0)
(-8.32019e-05 6.88394e-06 0)
(-0.000109218 7.52524e-06 0)
(-0.000137366 8.13547e-06 0)
(-0.000167546 8.71402e-06 0)
(-0.000199653 9.26049e-06 0)
(-0.000233582 9.7747e-06 0)
(-0.000269228 1.02566e-05 0)
(-0.000306481 1.07062e-05 0)
(-0.000345234 1.11236e-05 0)
(-0.00038538 1.15091e-05 0)
(-0.000426809 1.1863e-05 0)
(-0.000469415 1.21856e-05 0)
(-0.000513091 1.24773e-05 0)
(-0.000557731 1.27383e-05 0)
(-0.000603231 1.29692e-05 0)
(-0.000649489 1.31705e-05 0)
(-0.0006964 1.33427e-05 0)
(-0.000743867 1.34865e-05 0)
(-0.000791789 1.36022e-05 0)
(-0.00084007 1.36903e-05 0)
(-0.000888614 1.37515e-05 0)
(-0.000937329 1.37862e-05 0)
(-0.000986122 1.37952e-05 0)
(-0.0010349 1.37789e-05 0)
(-0.00108359 1.3738e-05 0)
(-0.00113208 1.3673e-05 0)
(-0.00118031 1.35845e-05 0)
(-0.00122819 1.34731e-05 0)
(-0.00127563 1.33394e-05 0)
(-0.00132257 1.31841e-05 0)
(-0.00136892 1.30077e-05 0)
(-0.00141462 1.28107e-05 0)
(-0.00145958 1.25938e-05 0)
(-0.00150375 1.23576e-05 0)
(-0.00154704 1.21027e-05 0)
(-0.00158941 1.18297e-05 0)
(-0.00163078 1.15392e-05 0)
(-0.00167109 1.12317e-05 0)
(-0.00171028 1.0908e-05 0)
(-0.0017483 1.05685e-05 0)
(-0.00178509 1.02138e-05 0)
(-0.00182061 9.84471e-06 0)
(-0.00185478 9.46163e-06 0)
(-0.00188758 9.06523e-06 0)
(-0.00191895 8.65609e-06 0)
(-0.00194885 8.23483e-06 0)
(-0.00197724 7.80204e-06 0)
(-0.00200407 7.35834e-06 0)
(-0.00202932 6.90433e-06 0)
(-0.00205293 6.44062e-06 0)
(-0.00207489 5.96786e-06 0)
(-0.00209515 5.48665e-06 0)
(-0.0021137 4.99764e-06 0)
(-0.0021305 4.50142e-06 0)
(-0.00214553 3.99863e-06 0)
(-0.00215876 3.4899e-06 0)
(-0.00217019 2.97588e-06 0)
(-0.00217978 2.45725e-06 0)
(-0.00218753 1.93467e-06 0)
(-0.00219342 1.4088e-06 0)
(-0.00219744 8.80295e-07 0)
(-0.00219958 3.49805e-07 0)
(-0.00219985 -1.81985e-07 0)
(-0.00219822 -7.14371e-07 0)
(-0.00219472 -1.24664e-06 0)
(-0.00218932 -1.77808e-06 0)
(-0.00218205 -2.30799e-06 0)
(-0.00217291 -2.83567e-06 0)
(-0.00216191 -3.36041e-06 0)
(-0.00214905 -3.88148e-06 0)
(-0.00213436 -4.39812e-06 0)
(-0.00211785 -4.90958e-06 0)
(-0.00209954 -5.41512e-06 0)
(-0.00207945 -5.91401e-06 0)
(-0.00205761 -6.40547e-06 0)
(-0.00203405 -6.88876e-06 0)
(-0.0020088 -7.3631e-06 0)
(-0.00198189 -7.82771e-06 0)
(-0.00195336 -8.28182e-06 0)
(-0.00192324 -8.72464e-06 0)
(-0.00189158 -9.15542e-06 0)
(-0.00185843 -9.57338e-06 0)
(-0.00182382 -9.97773e-06 0)
(-0.00178781 -1.03677e-05 0)
(-0.00175045 -1.07425e-05 0)
(-0.0017118 -1.11014e-05 0)
(-0.00167192 -1.14435e-05 0)
(-0.00163086 -1.17682e-05 0)
(-0.00158869 -1.20747e-05 0)
(-0.00154547 -1.23622e-05 0)
(-0.00150128 -1.263e-05 0)
(-0.00145618 -1.28773e-05 0)
(-0.00141025 -1.31034e-05 0)
(-0.00136356 -1.33076e-05 0)
(-0.0013162 -1.34892e-05 0)
(-0.00126824 -1.36475e-05 0)
(-0.00121977 -1.37818e-05 0)
(-0.00117086 -1.38915e-05 0)
(-0.00112162 -1.39759e-05 0)
(-0.00107213 -1.40344e-05 0)
(-0.00102248 -1.40664e-05 0)
(-0.000972767 -1.40714e-05 0)
(-0.000923084 -1.40487e-05 0)
(-0.00087353 -1.39979e-05 0)
(-0.000824205 -1.39184e-05 0)
(-0.000775208 -1.38097e-05 0)
(-0.000726643 -1.36716e-05 0)
(-0.000678612 -1.35034e-05 0)
(-0.000631221 -1.33048e-05 0)
(-0.000584575 -1.30755e-05 0)
(-0.000538781 -1.28153e-05 0)
(-0.000493947 -1.25238e-05 0)
(-0.000450179 -1.22008e-05 0)
(-0.000407587 -1.18462e-05 0)
(-0.000366278 -1.14598e-05 0)
(-0.00032636 -1.10417e-05 0)
(-0.000287941 -1.05918e-05 0)
(-0.000251128 -1.01103e-05 0)
(-0.000216026 -9.59743e-06 0)
(-0.000182739 -9.0536e-06 0)
(-0.00015137 -8.47907e-06 0)
(-0.000122016 -7.8743e-06 0)
(-9.47751e-05 -7.24019e-06 0)
(-6.97374e-05 -6.57794e-06 0)
(-4.699e-05 -5.8888e-06 0)
(-2.66133e-05 -5.1742e-06 0)
(-8.67917e-06 -4.43615e-06 0)
(6.75011e-06 -3.67746e-06 0)
(1.96244e-05 -2.9016e-06 0)
(2.99086e-05 -2.11283e-06 0)
(3.75873e-05 -1.31679e-06 0)
(4.26701e-05 -5.2133e-07 0)
(4.51984e-05 2.62889e-07 0)
(4.52551e-05 1.02132e-06 0)
(4.29787e-05 1.73334e-06 0)
(3.85837e-05 2.36832e-06 0)
(3.23905e-05 2.8797e-06 0)
(2.48671e-05 3.1971e-06 0)
(1.66793e-05 3.21606e-06 0)
(8.77887e-06 2.78079e-06 0)
(2.64173e-06 1.69834e-06 0)
(1.21206e-07 1.23066e-07 0)
(1.77574e-06 -2.87965e-06 0)
(9.37976e-06 -9.41488e-06 0)
(2.31384e-05 -1.342e-05 0)
(3.93815e-05 -1.47315e-05 0)
(5.52652e-05 -1.39681e-05 0)
(6.87987e-05 -1.17002e-05 0)
(7.84426e-05 -8.36978e-06 0)
(8.30395e-05 -4.3062e-06 0)
(8.17562e-05 2.50476e-07 0)
(7.4014e-05 5.1255e-06 0)
(5.94299e-05 1.01904e-05 0)
(3.77721e-05 1.53492e-05 0)
(8.92477e-06 2.05294e-05 0)
(-2.71366e-05 2.56756e-05 0)
(-7.03644e-05 3.0745e-05 0)
(-0.000120654 3.57049e-05 0)
(-0.000177854 4.05296e-05 0)
(-0.000241779 4.51993e-05 0)
(-0.000312214 4.96981e-05 0)
(-0.000388923 5.40138e-05 0)
(-0.000471652 5.81367e-05 0)
(-0.000560132 6.20599e-05 0)
(-0.000654082 6.57781e-05 0)
(-0.000753214 6.92874e-05 0)
(-0.000857234 7.25853e-05 0)
(-0.000965844 7.56701e-05 0)
(-0.00107874 7.85412e-05 0)
(-0.00119562 8.11985e-05 0)
(-0.00131618 8.36429e-05 0)
(-0.00144012 8.58754e-05 0)
(-0.00156714 8.78976e-05 0)
(-0.00169693 8.97112e-05 0)
(-0.0018292 9.13187e-05 0)
(-0.00196365 9.27226e-05 0)
(-0.00209998 9.3926e-05 0)
(-0.00223793 9.49319e-05 0)
(-0.00237719 9.57433e-05 0)
(-0.00251749 9.63634e-05 0)
(-0.00265856 9.67957e-05 0)
(-0.00280012 9.70438e-05 0)
(-0.00294191 9.71116e-05 0)
(-0.00308367 9.70026e-05 0)
(-0.00322515 9.67207e-05 0)
(-0.0033661 9.62697e-05 0)
(-0.00350627 9.56536e-05 0)
(-0.00364542 9.48764e-05 0)
(-0.00378333 9.39423e-05 0)
(-0.00391976 9.2855e-05 0)
(-0.0040545 9.16188e-05 0)
(-0.00418734 9.02376e-05 0)
(-0.00431805 8.87156e-05 0)
(-0.00444644 8.7057e-05 0)
(-0.00457232 8.5266e-05 0)
(-0.00469549 8.33466e-05 0)
(-0.00481576 8.13031e-05 0)
(-0.00493297 7.91396e-05 0)
(-0.00504693 7.68604e-05 0)
(-0.00515748 7.44695e-05 0)
(-0.00526445 7.19714e-05 0)
(-0.0053677 6.93702e-05 0)
(-0.00546708 6.66701e-05 0)
(-0.00556244 6.38754e-05 0)
(-0.00565366 6.09905e-05 0)
(-0.00574059 5.80195e-05 0)
(-0.00582312 5.49667e-05 0)
(-0.00590113 5.18367e-05 0)
(-0.00597451 4.86336e-05 0)
(-0.00604316 4.53618e-05 0)
(-0.00610698 4.20259e-05 0)
(-0.00616587 3.86303e-05 0)
(-0.00621977 3.51794e-05 0)
(-0.00626858 3.16776e-05 0)
(-0.00631223 2.81296e-05 0)
(-0.00635067 2.45399e-05 0)
(-0.00638383 2.09131e-05 0)
(-0.00641167 1.72539e-05 0)
(-0.00643414 1.35671e-05 0)
(-0.0064512 9.85731e-06 0)
(-0.00646283 6.1293e-06 0)
(-0.00646899 2.38784e-06 0)
(-0.00646969 -1.36217e-06 0)
(-0.0064649 -5.11579e-06 0)
(-0.00645462 -8.86803e-06 0)
(-0.00643887 -1.26139e-05 0)
(-0.00641765 -1.63484e-05 0)
(-0.00639099 -2.00664e-05 0)
(-0.00635891 -2.37629e-05 0)
(-0.00632145 -2.74326e-05 0)
(-0.00627866 -3.10703e-05 0)
(-0.00623058 -3.46707e-05 0)
(-0.00617728 -3.82287e-05 0)
(-0.00611881 -4.17388e-05 0)
(-0.00605526 -4.51958e-05 0)
(-0.00598671 -4.85943e-05 0)
(-0.00591324 -5.19288e-05 0)
(-0.00583496 -5.5194e-05 0)
(-0.00575197 -5.83844e-05 0)
(-0.00566438 -6.14945e-05 0)
(-0.00557232 -6.4519e-05 0)
(-0.00547591 -6.74524e-05 0)
(-0.0053753 -7.02893e-05 0)
(-0.00527063 -7.30242e-05 0)
(-0.00516204 -7.56518e-05 0)
(-0.00504971 -7.81666e-05 0)
(-0.0049338 -8.05634e-05 0)
(-0.00481449 -8.28368e-05 0)
(-0.00469196 -8.49815e-05 0)
(-0.00456641 -8.69924e-05 0)
(-0.00443803 -8.88644e-05 0)
(-0.00430702 -9.05923e-05 0)
(-0.00417362 -9.21712e-05 0)
(-0.00403802 -9.35962e-05 0)
(-0.00390047 -9.48625e-05 0)
(-0.00376119 -9.59654e-05 0)
(-0.00362044 -9.69003e-05 0)
(-0.00347844 -9.76629e-05 0)
(-0.00333547 -9.82488e-05 0)
(-0.00319178 -9.8654e-05 0)
(-0.00304763 -9.88744e-05 0)
(-0.0029033 -9.89062e-05 0)
(-0.00275905 -9.87459e-05 0)
(-0.00261519 -9.83901e-05 0)
(-0.00247198 -9.78354e-05 0)
(-0.00232972 -9.70791e-05 0)
(-0.0021887 -9.61186e-05 0)
(-0.00204922 -9.49512e-05 0)
(-0.00191158 -9.35748e-05 0)
(-0.00177608 -9.19876e-05 0)
(-0.00164303 -9.01882e-05 0)
(-0.00151273 -8.81755e-05 0)
(-0.00138548 -8.59486e-05 0)
(-0.00126161 -8.35074e-05 0)
(-0.0011414 -8.08521e-05 0)
(-0.00102517 -7.79835e-05 0)
(-0.000913221 -7.49031e-05 0)
(-0.000805848 -7.16128e-05 0)
(-0.000703347 -6.81157e-05 0)
(-0.000606005 -6.44158e-05 0)
(-0.000514102 -6.0518e-05 0)
(-0.000427911 -5.64283e-05 0)
(-0.000347691 -5.21546e-05 0)
(-0.000273685 -4.77067e-05 0)
(-0.000206121 -4.30968e-05 0)
(-0.000145206 -3.83395e-05 0)
(-9.11183e-05 -3.34526e-05 0)
(-4.40068e-05 -2.8459e-05 0)
(-3.9802e-06 -2.33871e-05 0)
(2.89005e-05 -1.82721e-05 0)
(5.46338e-05 -1.31584e-05 0)
(7.32929e-05 -8.10336e-06 0)
(8.50445e-05 -3.18123e-06 0)
(9.01734e-05 1.51068e-06 0)
(8.91145e-05 5.84365e-06 0)
(8.24957e-05 9.64422e-06 0)
(7.11946e-05 1.26755e-05 0)
(5.64049e-05 1.46163e-05 0)
(3.96855e-05 1.50431e-05 0)
(2.3019e-05 1.34187e-05 0)
(9.18145e-06 9.18701e-06 0)
(1.69338e-06 2.64313e-06 0)
(2.82521e-06 -9.0941e-06 0)
(1.34078e-05 -2.31665e-05 0)
(3.10737e-05 -3.10744e-05 0)
(5.08486e-05 -3.31424e-05 0)
(6.91321e-05 -3.04663e-05 0)
(8.3362e-05 -2.41393e-05 0)
(9.14568e-05 -1.50893e-05 0)
(9.17745e-05 -4.06244e-06 0)
(8.30821e-05 8.36048e-06 0)
(6.44845e-05 2.17324e-05 0)
(3.53597e-05 3.57093e-05 0)
(-4.69341e-06 5.00243e-05 0)
(-5.58987e-05 6.44699e-05 0)
(-0.000118337 7.88835e-05 0)
(-0.000191975 9.31373e-05 0)
(-0.000276684 0.000107131 0)
(-0.00037226 0.000120784 0)
(-0.000478441 0.000134033 0)
(-0.000594913 0.000146828 0)
(-0.000721324 0.000159129 0)
(-0.00085729 0.000170902 0)
(-0.0010024 0.000182126 0)
(-0.00115623 0.000192779 0)
(-0.00131832 0.000202849 0)
(-0.00148822 0.000212324 0)
(-0.00166546 0.000221198 0)
(-0.00184957 0.000229467 0)
(-0.00204006 0.000237128 0)
(-0.00223646 0.000244183 0)
(-0.00243829 0.000250631 0)
(-0.00264506 0.000256477 0)
(-0.00285629 0.000261724 0)
(-0.00307152 0.000266379 0)
(-0.00329025 0.000270448 0)
(-0.00351204 0.000273938 0)
(-0.0037364 0.000276857 0)
(-0.0039629 0.000279213 0)
(-0.00419108 0.000281015 0)
(-0.00442048 0.000282273 0)
(-0.00465069 0.000282997 0)
(-0.00488127 0.000283197 0)
(-0.0051118 0.000282883 0)
(-0.00534186 0.000282066 0)
(-0.00557106 0.000280757 0)
(-0.005799 0.000278967 0)
(-0.00602529 0.000276707 0)
(-0.00624955 0.00027399 0)
(-0.00647142 0.000270826 0)
(-0.00669054 0.000267227 0)
(-0.00690656 0.000263205 0)
(-0.00711914 0.000258772 0)
(-0.00732795 0.00025394 0)
(-0.00753267 0.000248721 0)
(-0.00773299 0.000243126 0)
(-0.0079286 0.000237169 0)
(-0.00811922 0.00023086 0)
(-0.00830456 0.000224213 0)
(-0.00848435 0.00021724 0)
(-0.00865834 0.000209953 0)
(-0.00882626 0.000202364 0)
(-0.00898789 0.000194486 0)
(-0.00914298 0.000186331 0)
(-0.00929132 0.000177912 0)
(-0.00943269 0.000169241 0)
(-0.0095669 0.000160331 0)
(-0.00969376 0.000151195 0)
(-0.00981308 0.000141846 0)
(-0.00992471 0.000132296 0)
(-0.0100285 0.000122558 0)
(-0.0101242 0.000112646 0)
(-0.0102118 0.000102572 0)
(-0.0102912 9.235e-05 0)
(-0.0103621 8.1993e-05 0)
(-0.0104246 7.15146e-05 0)
(-0.0104784 6.09283e-05 0)
(-0.0105236 5.02477e-05 0)
(-0.0105601 3.94867e-05 0)
(-0.0105878 2.86591e-05 0)
(-0.0106066 1.77789e-05 0)
(-0.0106166 6.8602e-06 0)
(-0.0106176 -4.08272e-06 0)
(-0.0106097 -1.50354e-05 0)
(-0.0105929 -2.59833e-05 0)
(-0.0105672 -3.69119e-05 0)
(-0.0105326 -4.78063e-05 0)
(-0.0104891 -5.86517e-05 0)
(-0.0104369 -6.94331e-05 0)
(-0.0103759 -8.01354e-05 0)
(-0.0103062 -9.07433e-05 0)
(-0.0102279 -0.000101241 0)
(-0.0101411 -0.000111614 0)
(-0.010046 -0.000121847 0)
(-0.00994256 -0.000131923 0)
(-0.00983101 -0.000141827 0)
(-0.00971147 -0.000151544 0)
(-0.00958412 -0.000161057 0)
(-0.00944911 -0.000170352 0)
(-0.00930664 -0.000179411 0)
(-0.0091569 -0.000188219 0)
(-0.00900012 -0.000196761 0)
(-0.0088365 -0.00020502 0)
(-0.00866628 -0.000212981 0)
(-0.00848973 -0.000220629 0)
(-0.00830709 -0.000227947 0)
(-0.00811865 -0.00023492 0)
(-0.00792469 -0.000241533 0)
(-0.00772551 -0.00024777 0)
(-0.00752142 -0.000253618 0)
(-0.00731275 -0.00025906 0)
(-0.00709983 -0.000264082 0)
(-0.006883 -0.00026867 0)
(-0.00666264 -0.00027281 0)
(-0.0064391 -0.000276488 0)
(-0.00621277 -0.000279691 0)
(-0.00598403 -0.000282405 0)
(-0.0057533 -0.000284619 0)
(-0.00552097 -0.000286319 0)
(-0.00528747 -0.000287495 0)
(-0.00505324 -0.000288134 0)
(-0.0048187 -0.000288227 0)
(-0.0045843 -0.000287763 0)
(-0.0043505 -0.000286732 0)
(-0.00411776 -0.000285127 0)
(-0.00388654 -0.000282938 0)
(-0.00365732 -0.00028016 0)
(-0.00343057 -0.000276784 0)
(-0.00320678 -0.000272807 0)
(-0.00298643 -0.000268222 0)
(-0.00277001 -0.000263027 0)
(-0.00255801 -0.00025722 0)
(-0.00235091 -0.000250799 0)
(-0.00214921 -0.000243765 0)
(-0.0019534 -0.00023612 0)
(-0.00176395 -0.000227867 0)
(-0.00158135 -0.000219013 0)
(-0.00140607 -0.000209566 0)
(-0.00123857 -0.000199534 0)
(-0.00107929 -0.000188934 0)
(-0.000928686 -0.00017778 0)
(-0.000787166 -0.000166095 0)
(-0.000655131 -0.000153904 0)
(-0.000532953 -0.000141238 0)
(-0.000420973 -0.000128137 0)
(-0.000319496 -0.000114646 0)
(-0.000228782 -0.000100824 0)
(-0.000149036 -8.67403e-05 0)
(-8.0398e-05 -7.24814e-05 0)
(-2.29288e-05 -5.81544e-05 0)
(2.34075e-05 -4.3892e-05 0)
(5.87649e-05 -2.98605e-05 0)
(8.34425e-05 -1.62702e-05 0)
(9.79175e-05 -3.38944e-06 0)
(0.000102886 8.43889e-06 0)
(9.93134e-05 1.8774e-05 0)
(8.84921e-05 2.70488e-05 0)
(7.21107e-05 3.2543e-05 0)
(5.22755e-05 3.43729e-05 0)
(3.15338e-05 3.15212e-05 0)
(1.34182e-05 2.30194e-05 0)
(2.77619e-06 8.77419e-06 0)
(3.20767e-06 -1.69411e-05 0)
(1.47557e-05 -3.94252e-05 0)
(3.32194e-05 -5.08627e-05 0)
(5.2737e-05 -5.26233e-05 0)
(6.92016e-05 -4.64444e-05 0)
(7.97013e-05 -3.39974e-05 0)
(8.1822e-05 -1.67414e-05 0)
(7.36139e-05 4.11082e-06 0)
(5.35698e-05 2.75785e-05 0)
(2.05617e-05 5.28789e-05 0)
(-2.62204e-05 7.9391e-05 0)
(-8.7321e-05 0.000106621 0)
(-0.000163064 0.000134176 0)
(-0.000253591 0.000161743 0)
(-0.000358893 0.00018907 0)
(-0.000478835 0.000215959 0)
(-0.000613183 0.000242246 0)
(-0.000761617 0.000267803 0)
(-0.000923749 0.000292523 0)
(-0.00109913 0.000316324 0)
(-0.00128728 0.000339137 0)
(-0.00148766 0.000360911 0)
(-0.00169972 0.000381603 0)
(-0.00192287 0.000401181 0)
(-0.0021565 0.000419622 0)
(-0.0024 0.000436908 0)
(-0.00265275 0.000453027 0)
(-0.0029141 0.000467974 0)
(-0.00318341 0.000481745 0)
(-0.00346005 0.000494341 0)
(-0.00374335 0.000505767 0)
(-0.00403269 0.000516029 0)
(-0.00432742 0.000525136 0)
(-0.00462691 0.000533101 0)
(-0.00493051 0.000539934 0)
(-0.00523761 0.000545651 0)
(-0.00554759 0.000550266 0)
(-0.00585983 0.000553797 0)
(-0.00617375 0.000556262 0)
(-0.00648873 0.000557678 0)
(-0.00680421 0.000558065 0)
(-0.00711961 0.000557443 0)
(-0.00743437 0.000555833 0)
(-0.00774794 0.000553255 0)
(-0.00805977 0.000549731 0)
(-0.00836935 0.000545283 0)
(-0.00867616 0.000539933 0)
(-0.0089797 0.000533704 0)
(-0.00927947 0.000526617 0)
(-0.009575 0.000518697 0)
(-0.00986582 0.000509966 0)
(-0.0101515 0.000500448 0)
(-0.0104316 0.000490166 0)
(-0.0107056 0.000479145 0)
(-0.0109732 0.000467406 0)
(-0.011234 0.000454976 0)
(-0.0114875 0.000441877 0)
(-0.0117335 0.000428133 0)
(-0.0119715 0.00041377 0)
(-0.0122013 0.000398812 0)
(-0.0124224 0.000383282 0)
(-0.0126345 0.000367206 0)
(-0.0128374 0.000350609 0)
(-0.0130308 0.000333514 0)
(-0.0132144 0.000315948 0)
(-0.0133879 0.000297936 0)
(-0.0135511 0.000279502 0)
(-0.0137038 0.000260672 0)
(-0.0138457 0.000241472 0)
(-0.0139766 0.000221928 0)
(-0.0140964 0.000202066 0)
(-0.0142049 0.000181911 0)
(-0.0143019 0.00016149 0)
(-0.0143872 0.000140831 0)
(-0.0144609 0.000119959 0)
(-0.0145226 9.89013e-05 0)
(-0.0145724 7.7686e-05 0)
(-0.0146102 5.63401e-05 0)
(-0.0146358 3.48912e-05 0)
(-0.0146493 1.33675e-05 0)
(-0.0146506 -8.20294e-06 0)
(-0.0146397 -2.97915e-05 0)
(-0.0146166 -5.13696e-05 0)
(-0.0145814 -7.29083e-05 0)
(-0.0145339 -9.43785e-05 0)
(-0.0144744 -0.000115751 0)
(-0.0144028 -0.000136995 0)
(-0.0143192 -0.000158082 0)
(-0.0142238 -0.000178982 0)
(-0.0141166 -0.000199664 0)
(-0.0139978 -0.000220098 0)
(-0.0138675 -0.000240253 0)
(-0.013726 -0.000260099 0)
(-0.0135733 -0.000279604 0)
(-0.0134097 -0.000298739 0)
(-0.0132354 -0.000317471 0)
(-0.0130507 -0.00033577 0)
(-0.0128558 -0.000353604 0)
(-0.0126509 -0.000370943 0)
(-0.0124365 -0.000387755 0)
(-0.0122126 -0.00040401 0)
(-0.0119798 -0.000419677 0)
(-0.0117383 -0.000434725 0)
(-0.0114886 -0.000449123 0)
(-0.0112308 -0.000462841 0)
(-0.0109656 -0.000475849 0)
(-0.0106932 -0.000488117 0)
(-0.0104142 -0.000499617 0)
(-0.0101288 -0.000510318 0)
(-0.00983769 -0.000520194 0)
(-0.00954123 -0.000529215 0)
(-0.00923994 -0.000537354 0)
(-0.00893431 -0.000544585 0)
(-0.00862487 -0.000550881 0)
(-0.00831215 -0.000556218 0)
(-0.00799669 -0.000560571 0)
(-0.00767906 -0.000563917 0)
(-0.00735982 -0.000566232 0)
(-0.00703956 -0.000567495 0)
(-0.00671888 -0.000567687 0)
(-0.00639837 -0.000566787 0)
(-0.00607866 -0.000564778 0)
(-0.00576037 -0.000561643 0)
(-0.00544414 -0.000557367 0)
(-0.00513059 -0.000551938 0)
(-0.00482038 -0.000545342 0)
(-0.00451416 -0.000537571 0)
(-0.00421258 -0.000528617 0)
(-0.0039163 -0.000518473 0)
(-0.00362598 -0.000507138 0)
(-0.00334228 -0.00049461 0)
(-0.00306585 -0.000480893 0)
(-0.00279735 -0.000465991 0)
(-0.00253741 -0.000449915 0)
(-0.00228669 -0.000432677 0)
(-0.0020458 -0.000414296 0)
(-0.00181535 -0.000394796 0)
(-0.00159595 -0.000374206 0)
(-0.00138817 -0.000352562 0)
(-0.00119254 -0.000329909 0)
(-0.00100959 -0.000306303 0)
(-0.000839808 -0.000281808 0)
(-0.000683614 -0.000256506 0)
(-0.000541395 -0.000230493 0)
(-0.000413471 -0.000203886 0)
(-0.000300084 -0.000176827 0)
(-0.000201391 -0.000149489 0)
(-0.000117439 -0.000122082 0)
(-4.81457e-05 -9.48675e-05 0)
(6.72195e-06 -6.81639e-05 0)
(4.75818e-05 -4.23676e-05 0)
(7.5072e-05 -1.79724e-05 0)
(9.00943e-05 4.40549e-06 0)
(9.38611e-05 2.39977e-05 0)
(8.79527e-05 3.9851e-05 0)
(7.4375e-05 5.07996e-05 0)
(5.55715e-05 5.54595e-05 0)
(3.44478e-05 5.2277e-05 0)
(1.50652e-05 3.97016e-05 0)
(3.21499e-06 1.66727e-05 0)
(3.13531e-06 -2.49221e-05 0)
(1.40496e-05 -5.53799e-05 0)
(3.06837e-05 -6.9227e-05 0)
(4.67963e-05 -6.91249e-05 0)
(5.80035e-05 -5.75861e-05 0)
(6.11716e-05 -3.6912e-05 0)
(5.36911e-05 -9.10908e-06 0)
(3.34256e-05 2.41298e-05 0)
(-1.3058e-06 6.14045e-05 0)
(-5.17883e-05 0.00010157 0)
(-0.000118967 0.000143696 0)
(-0.000203494 0.000187028 0)
(-0.000305775 0.000230955 0)
(-0.000426004 0.000274981 0)
(-0.000564196 0.000318704 0)
(-0.000720221 0.000361798 0)
(-0.00089382 0.000403994 0)
(-0.00108463 0.000445078 0)
(-0.00129222 0.000484871 0)
(-0.00151605 0.000523232 0)
(-0.00175554 0.000560045 0)
(-0.00201008 0.000595216 0)
(-0.00227899 0.000628673 0)
(-0.00256156 0.000660358 0)
(-0.00285707 0.000690225 0)
(-0.00316476 0.000718243 0)
(-0.00348388 0.000744388 0)
(-0.00381364 0.000768646 0)
(-0.00415326 0.000791009 0)
(-0.00450194 0.000811475 0)
(-0.0048589 0.000830047 0)
(-0.00522333 0.000846734 0)
(-0.00559444 0.000861549 0)
(-0.00597145 0.000874508 0)
(-0.00635357 0.000885628 0)
(-0.00674002 0.000894931 0)
(-0.00713004 0.000902442 0)
(-0.00752287 0.000908185 0)
(-0.00791776 0.000912188 0)
(-0.00831396 0.000914481 0)
(-0.00871075 0.000915093 0)
(-0.00910743 0.000914057 0)
(-0.00950327 0.000911404 0)
(-0.00989761 0.000907169 0)
(-0.0102898 0.000901387 0)
(-0.0106791 0.000894091 0)
(-0.0110649 0.000885318 0)
(-0.0114465 0.000875105 0)
(-0.0118235 0.000863487 0)
(-0.0121951 0.000850503 0)
(-0.0125608 0.000836189 0)
(-0.01292 0.000820585 0)
(-0.0132721 0.000803727 0)
(-0.0136167 0.000785656 0)
(-0.0139532 0.000766409 0)
(-0.0142811 0.000746025 0)
(-0.0145999 0.000724545 0)
(-0.0149091 0.000702007 0)
(-0.0152084 0.000678452 0)
(-0.0154972 0.000653919 0)
(-0.0157752 0.000628449 0)
(-0.016042 0.000602082 0)
(-0.0162971 0.000574858 0)
(-0.0165402 0.000546819 0)
(-0.016771 0.000518005 0)
(-0.0169891 0.000488459 0)
(-0.0171942 0.000458221 0)
(-0.0173861 0.000427334 0)
(-0.0175645 0.000395839 0)
(-0.017729 0.00036378 0)
(-0.0178796 0.000331198 0)
(-0.0180159 0.000298138 0)
(-0.0181377 0.000264642 0)
(-0.018245 0.000230754 0)
(-0.0183374 0.000196519 0)
(-0.018415 0.000161981 0)
(-0.0184775 0.000127184 0)
(-0.0185248 9.21742e-05 0)
(-0.0185569 5.69969e-05 0)
(-0.0185738 2.16982e-05 0)
(-0.0185753 -1.36757e-05 0)
(-0.0185615 -4.90778e-05 0)
(-0.0185323 -8.44611e-05 0)
(-0.0184878 -0.000119778 0)
(-0.0184281 -0.000154981 0)
(-0.0183531 -0.000190021 0)
(-0.0182629 -0.00022485 0)
(-0.0181577 -0.000259418 0)
(-0.0180376 -0.000293678 0)
(-0.0179028 -0.000327578 0)
(-0.0177533 -0.000361069 0)
(-0.0175895 -0.000394102 0)
(-0.0174114 -0.000426625 0)
(-0.0172194 -0.000458588 0)
(-0.0170137 -0.00048994 0)
(-0.0167945 -0.000520632 0)
(-0.0165622 -0.000550611 0)
(-0.0163171 -0.000579827 0)
(-0.0160596 -0.000608229 0)
(-0.0157899 -0.000635767 0)
(-0.0155086 -0.00066239 0)
(-0.0152159 -0.000688047 0)
(-0.0149123 -0.000712688 0)
(-0.0145983 -0.000736264 0)
(-0.0142744 -0.000758725 0)
(-0.013941 -0.000780023 0)
(-0.0135987 -0.000800108 0)
(-0.0132479 -0.000818934 0)
(-0.0128893 -0.000836452 0)
(-0.0125235 -0.000852618 0)
(-0.0121509 -0.000867385 0)
(-0.0117723 -0.00088071 0)
(-0.0113882 -0.000892548 0)
(-0.0109993 -0.000902858 0)
(-0.0106063 -0.0009116 0)
(-0.0102098 -0.000918733 0)
(-0.00981063 -0.000924221 0)
(-0.0094094 -0.000928026 0)
(-0.00900688 -0.000930115 0)
(-0.00860379 -0.000930454 0)
(-0.0082009 -0.000929013 0)
(-0.00779898 -0.000925765 0)
(-0.00739879 -0.000920682 0)
(-0.00700114 -0.000913742 0)
(-0.00660681 -0.000904925 0)
(-0.00621661 -0.000894211 0)
(-0.00583134 -0.000881588 0)
(-0.00545182 -0.000867043 0)
(-0.00507886 -0.00085057 0)
(-0.00471328 -0.000832166 0)
(-0.00435589 -0.000811832 0)
(-0.00400749 -0.000789575 0)
(-0.0036689 -0.000765407 0)
(-0.00334089 -0.000739345 0)
(-0.00302427 -0.000711416 0)
(-0.00271978 -0.000681652 0)
(-0.00242817 -0.000650097 0)
(-0.00215018 -0.000616801 0)
(-0.00188649 -0.000581828 0)
(-0.00163776 -0.000545259 0)
(-0.0014046 -0.000507185 0)
(-0.0011876 -0.000467722 0)
(-0.000987253 -0.000427003 0)
(-0.000804013 -0.000385193 0)
(-0.000638242 -0.000342486 0)
(-0.000490212 -0.000299119 0)
(-0.000360082 -0.000255373 0)
(-0.000247885 -0.000211591 0)
(-0.000153497 -0.000168187 0)
(-7.66154e-05 -0.000125667 0)
(-1.67269e-05 -8.46459e-05 0)
(2.69295e-05 -4.58748e-05 0)
(5.54036e-05 -1.02732e-05 0)
(7.00781e-05 2.10377e-05 0)
(7.27196e-05 4.66997e-05 0)
(6.55308e-05 6.50883e-05 0)
(5.11621e-05 7.4302e-05 0)
(3.27553e-05 7.21961e-05 0)
(1.46886e-05 5.64877e-05 0)
(3.20397e-06 2.48763e-05 0)
(2.77302e-06 -3.20989e-05 0)
(1.18644e-05 -6.90667e-05 0)
(2.45585e-05 -8.36503e-05 0)
(3.46952e-05 -7.97866e-05 0)
(3.78266e-05 -6.08188e-05 0)
(3.07064e-05 -2.97039e-05 0)
(1.06269e-05 1.09943e-05 0)
(-2.46424e-05 5.90998e-05 0)
(-7.68794e-05 0.000112787 0)
(-0.000147463 0.000170539 0)
(-0.000237423 0.0002311 0)
(-0.000347485 0.000293434 0)
(-0.00047811 0.00035669 0)
(-0.000629529 0.000420169 0)
(-0.000801778 0.000483294 0)
(-0.000994726 0.000545592 0)
(-0.0012081 0.000606671 0)
(-0.00144151 0.000666211 0)
(-0.00169445 0.000723947 0)
(-0.00196635 0.000779663 0)
(-0.00225655 0.000833184 0)
(-0.00256433 0.000884366 0)
(-0.00288893 0.000933094 0)
(-0.00322954 0.000979276 0)
(-0.00358532 0.00102284 0)
(-0.0039554 0.00106374 0)
(-0.0043389 0.00110192 0)
(-0.00473491 0.00113737 0)
(-0.00514251 0.00117006 0)
(-0.00556077 0.00119999 0)
(-0.00598877 0.00122716 0)
(-0.00642558 0.00125158 0)
(-0.00687025 0.00127327 0)
(-0.00732186 0.00129224 0)
(-0.00777949 0.00130852 0)
(-0.00824222 0.00132214 0)
(-0.00870914 0.00133313 0)
(-0.00917935 0.00134152 0)
(-0.00965196 0.00134736 0)
(-0.0101261 0.00135069 0)
(-0.0106009 0.00135155 0)
(-0.0110755 0.00134998 0)
(-0.0115491 0.00134603 0)
(-0.0120209 0.00133975 0)
(-0.01249 0.00133119 0)
(-0.0129557 0.0013204 0)
(-0.0134173 0.00130743 0)
(-0.0138738 0.00129234 0)
(-0.0143247 0.00127518 0)
(-0.0147692 0.001256 0)
(-0.0152066 0.00123486 0)
(-0.0156362 0.00121181 0)
(-0.0160574 0.00118691 0)
(-0.0164695 0.00116022 0)
(-0.0168719 0.00113179 0)
(-0.0172641 0.00110168 0)
(-0.0176454 0.00106996 0)
(-0.0180152 0.00103667 0)
(-0.0183731 0.00100187 0)
(-0.0187185 0.000965634 0)
(-0.019051 0.000928011 0)
(-0.0193699 0.000889061 0)
(-0.019675 0.000848846 0)
(-0.0199657 0.000807426 0)
(-0.0202417 0.000764862 0)
(-0.0205025 0.000721214 0)
(-0.0207478 0.000676545 0)
(-0.0209772 0.000630917 0)
(-0.0211904 0.000584391 0)
(-0.0213871 0.000537032 0)
(-0.021567 0.000488902 0)
(-0.0217299 0.000440064 0)
(-0.0218756 0.000390584 0)
(-0.0220037 0.000340527 0)
(-0.0221142 0.000289957 0)
(-0.0222068 0.00023894 0)
(-0.0222814 0.000187543 0)
(-0.0223379 0.000135834 0)
(-0.0223762 8.38779e-05 0)
(-0.0223962 3.17447e-05 0)
(-0.0223979 -2.04974e-05 0)
(-0.0223812 -7.27793e-05 0)
(-0.0223462 -0.000125031 0)
(-0.0222929 -0.000177182 0)
(-0.0222212 -0.000229163 0)
(-0.0221314 -0.0002809 0)
(-0.0220235 -0.000332324 0)
(-0.0218976 -0.00038336 0)
(-0.0217538 -0.000433937 0)
(-0.0215925 -0.000483981 0)
(-0.0214136 -0.000533419 0)
(-0.0212176 -0.000582176 0)
(-0.0210046 -0.000630179 0)
(-0.0207749 -0.000677352 0)
(-0.0205288 -0.000723622 0)
(-0.0202667 -0.000768913 0)
(-0.0199889 -0.00081315 0)
(-0.0196958 -0.000856259 0)
(-0.0193877 -0.000898165 0)
(-0.0190653 -0.000938792 0)
(-0.0187288 -0.000978068 0)
(-0.0183789 -0.00101592 0)
(-0.0180159 -0.00105227 0)
(-0.0176405 -0.00108704 0)
(-0.0172532 -0.00112017 0)
(-0.0168546 -0.00115158 0)
(-0.0164453 -0.00118121 0)
(-0.016026 -0.00120897 0)
(-0.0155973 -0.00123481 0)
(-0.0151599 -0.00125866 0)
(-0.0147145 -0.00128044 0)
(-0.0142618 -0.0013001 0)
(-0.0138026 -0.00131756 0)
(-0.0133377 -0.00133278 0)
(-0.0128678 -0.00134569 0)
(-0.0123938 -0.00135623 0)
(-0.0119165 -0.00136435 0)
(-0.0114368 -0.00137 0)
(-0.0109555 -0.00137312 0)
(-0.0104734 -0.00137368 0)
(-0.00999156 -0.00137162 0)
(-0.00951081 -0.0013669 0)
(-0.00903208 -0.00135949 0)
(-0.0085563 -0.00134936 0)
(-0.00808442 -0.00133648 0)
(-0.00761738 -0.00132082 0)
(-0.00715614 -0.00130237 0)
(-0.00670166 -0.00128111 0)
(-0.00625489 -0.00125703 0)
(-0.00581679 -0.00123013 0)
(-0.00538832 -0.00120041 0)
(-0.00497042 -0.0011679 0)
(-0.00456404 -0.0011326 0)
(-0.00417011 -0.00109456 0)
(-0.00378952 -0.00105381 0)
(-0.00342319 -0.0010104 0)
(-0.00307196 -0.000964404 0)
(-0.00273668 -0.000915904 0)
(-0.00241815 -0.000864997 0)
(-0.00211712 -0.000811805 0)
(-0.0018343 -0.000756471 0)
(-0.00157034 -0.000699168 0)
(-0.00132581 -0.000640101 0)
(-0.0011012 -0.000579513 0)
(-0.000896934 -0.000517695 0)
(-0.000713288 -0.000454993 0)
(-0.000550431 -0.000391821 0)
(-0.000408381 -0.000328672 0)
(-0.000286982 -0.000266139 0)
(-0.00018588 -0.000204933 0)
(-0.000104493 -0.000145909 0)
(-4.1975e-05 -9.00979e-05 0)
(2.82116e-06 -3.87355e-05 0)
(3.13831e-05 6.69366e-06 0)
(4.55865e-05 4.44207e-05 0)
(4.7743e-05 7.23568e-05 0)
(4.06174e-05 8.80696e-05 0)
(2.74854e-05 8.8789e-05 0)
(1.28324e-05 7.14333e-05 0)
(2.90072e-06 3.24502e-05 0)
(2.22902e-06 -3.78306e-05 0)
(8.63892e-06 -7.89768e-05 0)
(1.57633e-05 -9.20874e-05 0)
(1.78723e-05 -8.22386e-05 0)
(1.06437e-05 -5.35785e-05 0)
(-9.18487e-06 -9.71349e-06 0)
(-4.43372e-05 4.62435e-05 0)
(-9.70659e-05 0.000111638 0)
(-0.000169183 0.000184225 0)
(-0.000262106 0.000262112 0)
(-0.000376908 0.000343714 0)
(-0.000514352 0.000427707 0)
(-0.000674927 0.000512987 0)
(-0.000858886 0.000598634 0)
(-0.00106627 0.000683885 0)
(-0.00129696 0.000768101 0)
(-0.00155064 0.000850753 0)
(-0.0018269 0.000931401 0)
(-0.00212521 0.00100968 0)
(-0.00244492 0.00108529 0)
(-0.0027853 0.00115798 0)
(-0.00314559 0.00122756 0)
(-0.00352491 0.00129384 0)
(-0.00392238 0.0013567 0)
(-0.00433705 0.00141604 0)
(-0.00476795 0.00147178 0)
(-0.00521409 0.00152384 0)
(-0.00567443 0.0015722 0)
(-0.00614795 0.00161681 0)
(-0.00663359 0.00165768 0)
(-0.00713031 0.00169478 0)
(-0.00763703 0.00172814 0)
(-0.00815271 0.00175777 0)
(-0.00867628 0.00178368 0)
(-0.00920668 0.00180592 0)
(-0.00974288 0.00182451 0)
(-0.0102838 0.00183951 0)
(-0.0108285 0.00185094 0)
(-0.0113759 0.00185888 0)
(-0.011925 0.00186336 0)
(-0.0124747 0.00186446 0)
(-0.0130243 0.00186222 0)
(-0.0135726 0.00185671 0)
(-0.0141187 0.001848 0)
(-0.0146617 0.00183615 0)
(-0.0152007 0.00182123 0)
(-0.0157349 0.00180332 0)
(-0.0162633 0.00178248 0)
(-0.0167851 0.00175878 0)
(-0.0172995 0.00173231 0)
(-0.0178057 0.00170314 0)
(-0.0183028 0.00167134 0)
(-0.0187902 0.00163698 0)
(-0.0192671 0.00160016 0)
(-0.0197328 0.00156094 0)
(-0.0201865 0.0015194 0)
(-0.0206277 0.00147563 0)
(-0.0210556 0.0014297 0)
(-0.0214697 0.0013817 0)
(-0.0218694 0.00133171 0)
(-0.022254 0.0012798 0)
(-0.022623 0.00122607 0)
(-0.0229759 0.00117059 0)
(-0.0233122 0.00111344 0)
(-0.0236314 0.00105472 0)
(-0.0239331 0.000994504 0)
(-0.0242168 0.000932879 0)
(-0.0244822 0.00086993 0)
(-0.0247288 0.000805744 0)
(-0.0249563 0.000740408 0)
(-0.0251644 0.000674009 0)
(-0.0253527 0.000606636 0)
(-0.0255211 0.000538378 0)
(-0.0256692 0.000469324 0)
(-0.0257969 0.000399565 0)
(-0.0259039 0.000329191 0)
(-0.0259901 0.000258295 0)
(-0.0260553 0.000186969 0)
(-0.0260995 0.000115306 0)
(-0.0261225 4.34013e-05 0)
(-0.0261243 -2.86516e-05 0)
(-0.0261049 -0.000100757 0)
(-0.0260642 -0.000172817 0)
(-0.0260024 -0.000244737 0)
(-0.0259194 -0.000316417 0)