/*--------------------------------*- C++ -*----------------------------------*\
  =========                 |
  \\      /  F ield         | OpenFOAM: The Open Source CFD Toolbox
   \\    /   O peration     | Website:  https://openfoam.org
    \\  /    A nd           | Version:  7
     \\/     M anipulation  |
\*---------------------------------------------------------------------------*/
FoamFile
{
    version     2.0;
    format      ascii;
    class       volVectorField;
    location    "0.425";
    object      U;
}
// * * * * * * * * * * * * * * * * * * * * * * * * * * * * * * * * * * * * * //

dimensions      [0 1 -1 0 0 0 0];

internalField   nonuniform List<vector> 
6400
(
(7.11237e-06 -7.38626e-06 0)
(2.95973e-05 -1.45217e-05 0)
(5.91964e-05 -1.42063e-05 0)
(8.05584e-05 -9.74721e-06 0)
(8.54237e-05 -3.43283e-06 0)
(7.05664e-05 3.54079e-06 0)
(3.48677e-05 1.05613e-05 0)
(-2.16394e-05 1.7311e-05 0)
(-9.81994e-05 2.36282e-05 0)
(-0.000193623 2.94314e-05 0)
(-0.000306464 3.46824e-05 0)
(-0.000435126 3.93663e-05 0)
(-0.000577928 4.3482e-05 0)
(-0.000733152 4.70361e-05 0)
(-0.000899068 5.00406e-05 0)
(-0.00107396 5.25106e-05 0)
(-0.00125614 5.44631e-05 0)
(-0.00144396 5.59168e-05 0)
(-0.0016358 5.68912e-05 0)
(-0.00183013 5.74065e-05 0)
(-0.00202544 5.74829e-05 0)
(-0.0022203 5.7141e-05 0)
(-0.00241334 5.64015e-05 0)
(-0.00260324 5.5285e-05 0)
(-0.00278876 5.38118e-05 0)
(-0.00296872 5.20024e-05 0)
(-0.003142 4.9877e-05 0)
(-0.00330757 4.74558e-05 0)
(-0.00346443 4.47586e-05 0)
(-0.00361169 4.18056e-05 0)
(-0.00374849 3.86165e-05 0)
(-0.00387406 3.52114e-05 0)
(-0.0039877 3.16101e-05 0)
(-0.00408876 2.78327e-05 0)
(-0.00417667 2.38995e-05 0)
(-0.00425094 1.98309e-05 0)
(-0.00431114 1.56476e-05 0)
(-0.00435692 1.13708e-05 0)
(-0.004388 7.02186e-06 0)
(-0.00440418 2.62262e-06 0)
(-0.00440532 -1.80462e-06 0)
(-0.00439138 -6.23712e-06 0)
(-0.00436238 -1.06517e-05 0)
(-0.00431843 -1.50245e-05 0)
(-0.00425974 -1.93315e-05 0)
(-0.00418656 -2.3548e-05 0)
(-0.00409927 -2.76489e-05 0)
(-0.00399831 -3.16088e-05 0)
(-0.00388421 -3.5402e-05 0)
(-0.0037576 -3.90025e-05 0)
(-0.00361917 -4.23842e-05 0)
(-0.00346973 -4.55209e-05 0)
(-0.00331016 -4.83865e-05 0)
(-0.00314142 -5.09551e-05 0)
(-0.00296457 -5.32012e-05 0)
(-0.00278074 -5.50997e-05 0)
(-0.00259116 -5.6626e-05 0)
(-0.00239712 -5.77565e-05 0)
(-0.00219997 -5.84682e-05 0)
(-0.00200117 -5.87395e-05 0)
(-0.00180222 -5.855e-05 0)
(-0.00160467 -5.78808e-05 0)
(-0.00141014 -5.67145e-05 0)
(-0.00122028 -5.50355e-05 0)
(-0.0010368 -5.28302e-05 0)
(-0.000861408 -5.00876e-05 0)
(-0.000695836 -4.67995e-05 0)
(-0.000541814 -4.29612e-05 0)
(-0.00040105 -3.85725e-05 0)
(-0.000275209 -3.36393e-05 0)
(-0.000165875 -2.81764e-05 0)
(-7.45092e-05 -2.22135e-05 0)
(-2.37831e-06 -1.58046e-05 0)
(4.95484e-05 -9.04738e-06 0)
(8.07761e-05 -2.12123e-06 0)
(9.1569e-05 4.64008e-06 0)
(8.3373e-05 1.06118e-05 0)
(5.97544e-05 1.45977e-05 0)
(2.92256e-05 1.43531e-05 0)
(6.87026e-06 6.86969e-06 0)
(1.43738e-05 -3.00104e-05 0)
(5.13991e-05 -5.16288e-05 0)
(8.96972e-05 -4.4139e-05 0)
(0.000103458 -1.91316e-05 0)
(7.69594e-05 1.5293e-05 0)
(2.3523e-06 5.41119e-05 0)
(-0.000124062 9.4249e-05 0)
(-0.000303199 0.000133817 0)
(-0.000534013 0.000171658 0)
(-0.00081414 0.000207056 0)
(-0.00114034 0.000239572 0)
(-0.0015088 0.000268946 0)
(-0.00191533 0.000295034 0)
(-0.00235554 0.000317768 0)
(-0.0028249 0.000337139 0)
(-0.00331887 0.000353176 0)
(-0.00383288 0.000365933 0)
(-0.00436246 0.000375488 0)
(-0.00490322 0.000381934 0)
(-0.00545087 0.000385374 0)
(-0.00600127 0.000385919 0)
(-0.0065504 0.000383686 0)
(-0.00709444 0.0003788 0)
(-0.00762969 0.000371384 0)
(-0.00815265 0.000361568 0)
(-0.00865999 0.000349481 0)
(-0.00914857 0.000335254 0)
(-0.00961542 0.00031902 0)
(-0.0100578 0.000300911 0)
(-0.010473 0.000281061 0)
(-0.0108588 0.000259605 0)
(-0.0112128 0.000236679 0)
(-0.0115332 0.000212419 0)
(-0.011818 0.000186963 0)
(-0.0120657 0.000160451 0)
(-0.0122749 0.000133023 0)
(-0.0124444 0.000104824 0)
(-0.0125731 7.59991e-05 0)
(-0.0126603 4.66955e-05 0)
(-0.0127054 1.7064e-05 0)
(-0.012708 -1.2742e-05 0)
(-0.0126681 -4.25665e-05 0)
(-0.0125858 -7.22508e-05 0)
(-0.0124613 -0.000101633 0)
(-0.0122952 -0.000130549 0)
(-0.0120884 -0.000158832 0)
(-0.0118418 -0.000186314 0)
(-0.0115568 -0.000212823 0)
(-0.0112349 -0.000238187 0)
(-0.0108777 -0.000262235 0)
(-0.0104875 -0.000284792 0)
(-0.0100663 -0.000305687 0)
(-0.00961679 -0.000324748 0)
(-0.00914159 -0.000341808 0)
(-0.0086437 -0.000356701 0)
(-0.00812632 -0.000369266 0)
(-0.00759286 -0.000379349 0)
(-0.00704695 -0.0003868 0)
(-0.0064924 -0.000391479 0)
(-0.00593322 -0.000393255 0)
(-0.00537358 -0.000392008 0)
(-0.0048178 -0.000387632 0)
(-0.00427032 -0.000380034 0)
(-0.00373568 -0.000369139 0)
(-0.0032185 -0.000354891 0)
(-0.00272342 -0.000337259 0)
(-0.0022551 -0.00031624 0)
(-0.0018181 -0.000291867 0)
(-0.00141688 -0.000264218 0)
(-0.00105569 -0.00023343 0)
(-0.000738471 -0.000199726 0)
(-0.000468678 -0.000163444 0)
(-0.000249107 -0.000125103 0)
(-8.15874e-05 -8.5495e-05 0)
(3.34548e-05 -4.58473e-05 0)
(9.76081e-05 -8.09688e-06 0)
(0.000115255 2.4671e-05 0)
(9.48657e-05 4.75064e-05 0)
(5.26126e-05 5.25695e-05 0)
(1.43478e-05 2.92055e-05 0)
(1.4256e-05 -5.95094e-05 0)
(4.44879e-05 -8.99911e-05 0)
(6.11853e-05 -6.05293e-05 0)
(3.55282e-05 6.68202e-06 0)
(-5.08604e-05 9.6223e-05 0)
(-0.000208202 0.000197439 0)
(-0.00044183 0.000303098 0)
(-0.000753453 0.000408365 0)
(-0.00114204 0.000510018 0)
(-0.00160457 0.000605913 0)
(-0.00213664 0.000694636 0)
(-0.00273286 0.000775269 0)
(-0.00338716 0.000847245 0)
(-0.00409304 0.000910242 0)
(-0.00484374 0.000964115 0)
(-0.00563235 0.00100885 0)
(-0.00645193 0.00104452 0)
(-0.00729557 0.0010713 0)
(-0.00815646 0.00108937 0)
(-0.00902794 0.00109901 0)
(-0.00990352 0.00110048 0)
(-0.0107769 0.00109409 0)
(-0.0116421 0.00108018 0)
(-0.0124932 0.00105907 0)
(-0.0133248 0.00103113 0)
(-0.0141315 0.000996703 0)
(-0.0149083 0.000956165 0)
(-0.0156505 0.000909885 0)
(-0.0163538 0.000858239 0)
(-0.0170139 0.000801608 0)
(-0.0176271 0.000740376 0)
(-0.0181899 0.000674932 0)
(-0.0186991 0.000605668 0)
(-0.0191517 0.000532981 0)
(-0.0195452 0.000457274 0)
(-0.0198774 0.000378953 0)
(-0.0201463 0.000298431 0)
(-0.0203505 0.00021613 0)
(-0.0204886 0.000132474 0)
(-0.0205597 4.78983e-05 0)
(-0.0205634 -3.71566e-05 0)
(-0.0204993 -0.000122242 0)
(-0.0203678 -0.000206901 0)
(-0.0201693 -0.000290672 0)
(-0.0199048 -0.000373083 0)
(-0.0195755 -0.000453658 0)
(-0.0191831 -0.000531916 0)
(-0.0187298 -0.00060737 0)
(-0.0182178 -0.000679534 0)
(-0.0176501 -0.000747916 0)
(-0.0170298 -0.000812029 0)
(-0.0163605 -0.000871386 0)
(-0.0156463 -0.000925508 0)
(-0.0148914 -0.000973922 0)
(-0.0141006 -0.00101617 0)
(-0.0132789 -0.0010518 0)
(-0.0124317 -0.00108038 0)
(-0.0115647 -0.00110151 0)
(-0.010684 -0.00111481 0)
(-0.00979571 -0.00111992 0)
(-0.00890651 -0.00111653 0)
(-0.0080231 -0.00110436 0)
(-0.00715238 -0.00108319 0)
(-0.00630141 -0.00105283 0)
(-0.00547731 -0.00101318 0)
(-0.00468722 -0.00096421 0)
(-0.00393821 -0.000905978 0)
(-0.00323721 -0.000838659 0)
(-0.0025909 -0.000762577 0)
(-0.00200554 -0.000678241 0)
(-0.00148683 -0.000586419 0)
(-0.00103966 -0.000488222 0)
(-0.000667789 -0.00038526 0)
(-0.00037348 -0.00027985 0)
(-0.000156904 -0.00017536 0)
(-1.54342e-05 -7.67065e-05 0)
(5.71753e-05 8.91148e-06 0)
(7.19498e-05 7.10668e-05 0)
(4.79782e-05 9.49314e-05 0)
(1.46775e-05 5.97962e-05 0)
(1.00402e-05 -8.12306e-05 0)
(2.03652e-05 -0.000104448 0)
(-4.33962e-06 -3.52149e-05 0)
(-9.08469e-05 9.36248e-05 0)
(-0.000257306 0.0002593 0)
(-0.000514668 0.000445262 0)
(-0.000868843 0.000639645 0)
(-0.00132179 0.000834092 0)
(-0.00187234 0.00102275 0)
(-0.00251699 0.00120154 0)
(-0.00325043 0.00136765 0)
(-0.00406606 0.00151917 0)
(-0.00495636 0.00165485 0)
(-0.00591314 0.00177392 0)
(-0.00692782 0.00187596 0)
(-0.00799154 0.00196082 0)
(-0.00909534 0.00202857 0)
(-0.0102303 0.00207941 0)
(-0.0113874 0.00211368 0)
(-0.012558 0.0021318 0)
(-0.0137335 0.00213426 0)
(-0.0149057 0.00212161 0)
(-0.0160666 0.00209446 0)
(-0.0172083 0.00205342 0)
(-0.0183236 0.00199917 0)
(-0.0194053 0.00193238 0)
(-0.020447 0.00185374 0)
(-0.0214421 0.00176397 0)
(-0.0223849 0.00166379 0)
(-0.0232698 0.00155393 0)
(-0.0240917 0.00143514 0)
(-0.0248459 0.00130818 0)
(-0.0255281 0.00117379 0)
(-0.0261345 0.00103277 0)
(-0.0266616 0.000885889 0)
(-0.0271064 0.000733942 0)
(-0.0274664 0.000577737 0)
(-0.0277394 0.000418092 0)
(-0.0279239 0.000255839 0)
(-0.0280186 9.18244e-05 0)
(-0.0280229 -7.3093e-05 0)
(-0.0279364 -0.000238039 0)
(-0.0277595 -0.000402128 0)
(-0.0274929 -0.000564458 0)
(-0.0271379 -0.000724118 0)
(-0.0266961 -0.000880183 0)
(-0.0261699 -0.00103172 0)
(-0.0255619 -0.0011778 0)
(-0.0248756 -0.00131747 0)
(-0.0241147 -0.00144978 0)
(-0.0232834 -0.00157381 0)
(-0.0223867 -0.00168862 0)
(-0.0214298 -0.00179328 0)
(-0.0204184 -0.0018869 0)
(-0.0193589 -0.00196859 0)
(-0.018258 -0.00203752 0)
(-0.0171229 -0.00209287 0)
(-0.0159611 -0.00213386 0)
(-0.0147807 -0.0021598 0)
(-0.0135898 -0.00217003 0)
(-0.0123971 -0.00216397 0)
(-0.0112115 -0.00214112 0)
(-0.0100421 -0.0021011 0)
(-0.00889809 -0.00204362 0)
(-0.00778872 -0.00196854 0)
(-0.00672325 -0.00187586 0)
(-0.00571082 -0.00176581 0)
(-0.00476031 -0.0016388 0)
(-0.0038802 -0.00149559 0)
(-0.00307836 -0.00133729 0)
(-0.00236189 -0.00116549 0)
(-0.00173675 -0.000982462 0)
(-0.00120747 -0.000791346 0)
(-0.000776664 -0.000596517 0)
(-0.000444448 -0.000404056 0)
(-0.000207768 -0.000222434 0)
(-5.962e-05 -6.34394e-05 0)
(1.19406e-05 5.67454e-05 0)
(2.61114e-05 0.000116192 0)
(1.09046e-05 8.38429e-05 0)
(4.01284e-06 -8.706e-05 0)
(-1.3029e-05 -7.95628e-05 0)
(-9.20038e-05 4.99255e-05 0)
(-0.000253992 0.00025965 0)
(-0.000514838 0.00052021 0)
(-0.000884991 0.000809546 0)
(-0.00137003 0.00111126 0)
(-0.00197157 0.00141336 0)
(-0.00268804 0.00170713 0)
(-0.00351532 0.00198628 0)
(-0.00444731 0.00224634 0)
(-0.0054764 0.00248414 0)
(-0.00659386 0.00269755 0)
(-0.0077901 0.00288516 0)
(-0.00905502 0.00304616 0)
(-0.0103781 0.00318018 0)
(-0.0117487 0.00328717 0)
(-0.0131561 0.00336737 0)
(-0.0145896 0.00342121 0)
(-0.0160386 0.00344929 0)
(-0.0174928 0.00345235 0)
(-0.0189421 0.0034312 0)
(-0.0203768 0.00338678 0)
(-0.0217874 0.00332004 0)
(-0.023165 0.00323203 0)
(-0.0245009 0.00312382 0)
(-0.025787 0.0029965 0)
(-0.0270155 0.00285121 0)
(-0.0281792 0.00268912 0)
(-0.0292713 0.0025114 0)
(-0.0302855 0.00231924 0)
(-0.031216 0.00211387 0)
(-0.0320576 0.00189652 0)
(-0.0328054 0.00166844 0)
(-0.0334554 0.00143089 0)
(-0.0340038 0.00118518 0)
(-0.0344474 0.000932596 0)
(-0.0347837 0.000674478 0)
(-0.0350108 0.000412173 0)
(-0.035127 0.000147052 0)
(-0.0351316 -0.000119492 0)
(-0.0350243 -0.000386044 0)
(-0.0348055 -0.000651169 0)
(-0.0344761 -0.000913411 0)
(-0.0340376 -0.0011713 0)
(-0.0334921 -0.00142334 0)
(-0.0328426 -0.00166802 0)
(-0.0320924 -0.00190385 0)
(-0.0312455 -0.00212931 0)
(-0.0303067 -0.00234287 0)
(-0.0292812 -0.00254304 0)
(-0.0281749 -0.00272832 0)
(-0.0269943 -0.00289725 0)
(-0.0257467 -0.00304838 0)
(-0.0244395 -0.00318032 0)
(-0.0230811 -0.00329173 0)
(-0.0216802 -0.00338133 0)
(-0.020246 -0.00344791 0)
(-0.0187883 -0.00349036 0)
(-0.0173171 -0.00350767 0)
(-0.0158429 -0.00349897 0)
(-0.0143764 -0.0034635 0)
(-0.0129286 -0.00340071 0)
(-0.0115106 -0.00331021 0)
(-0.0101335 -0.00319185 0)
(-0.00880834 -0.00304575 0)
(-0.00754609 -0.00287234 0)
(-0.00635721 -0.00267246 0)
(-0.00525171 -0.00244741 0)
(-0.00423883 -0.0021991 0)
(-0.00332679 -0.00193022 0)
(-0.00252252 -0.00164443 0)
(-0.00183124 -0.00134672 0)
(-0.00125603 -0.0010438 0)
(-0.000797303 -0.000744713 0)
(-0.00045219 -0.000461605 0)
(-0.000213846 -0.000210785 0)
(-7.06173e-05 -1.38637e-05 0)
(-5.23688e-06 0.000100733 0)
(5.26074e-06 9.31329e-05 0)
(-2.66925e-06 -7.37698e-05 0)
(-5.09387e-05 -7.39236e-06 0)
(-0.000191896 0.000205426 0)
(-0.000438774 0.000516304 0)
(-0.000803681 0.000890298 0)
(-0.00129562 0.00130049 0)
(-0.00191909 0.00172628 0)
(-0.00267482 0.00215219 0)
(-0.00356045 0.00256661 0)
(-0.0045711 0.00296094 0)
(-0.00569984 0.00332888 0)
(-0.00693808 0.00366586 0)
(-0.008276 0.00396869 0)
(-0.00970282 0.00423522 0)
(-0.0112071 0.00446411 0)
(-0.012777 0.00465467 0)
(-0.0144002 0.0048067 0)
(-0.0160647 0.00492039 0)
(-0.017758 0.00499628 0)
(-0.0194681 0.00503512 0)
(-0.021183 0.0050379 0)
(-0.0228912 0.00500573 0)
(-0.0245812 0.0049399 0)
(-0.0262423 0.00484176 0)
(-0.0278638 0.00471277 0)
(-0.0294359 0.00455446 0)
(-0.0309489 0.0043684 0)
(-0.0323939 0.00415623 0)
(-0.0337624 0.00391962 0)
(-0.0350464 0.00366027 0)
(-0.0362386 0.00337991 0)
(-0.0373324 0.00308033 0)
(-0.0383214 0.0027633 0)
(-0.0392001 0.00243067 0)
(-0.0399637 0.00208427 0)
(-0.0406078 0.00172599 0)
(-0.0411287 0.00135774 0)
(-0.0415234 0.000981453 0)
(-0.0417897 0.000599106 0)
(-0.0419258 0.000212699 0)
(-0.0419307 -0.000175737 0)
(-0.0418041 -0.000564139 0)
(-0.0415465 -0.000950414 0)
(-0.041159 -0.00133244 0)
(-0.0406433 -0.00170808 0)
(-0.0400021 -0.00207516 0)
(-0.0392386 -0.00243151 0)
(-0.0383568 -0.00277492 0)
(-0.0373615 -0.00310321 0)
(-0.0362581 -0.00341419 0)
(-0.0350529 -0.00370567 0)
(-0.0337527 -0.00397551 0)
(-0.0323651 -0.00422159 0)
(-0.0308984 -0.00444184 0)
(-0.0293615 -0.00463427 0)
(-0.0277641 -0.00479694 0)
(-0.0261163 -0.00492805 0)
(-0.0244287 -0.00502587 0)
(-0.0227127 -0.00508884 0)
(-0.0209799 -0.00511555 0)
(-0.0192425 -0.00510479 0)
(-0.0175126 -0.00505554 0)
(-0.0158031 -0.00496706 0)
(-0.0141266 -0.00483888 0)
(-0.0124959 -0.00467089 0)
(-0.0109237 -0.00446337 0)
(-0.00942224 -0.00421707 0)
(-0.00800357 -0.00393331 0)
(-0.00667897 -0.00361411 0)
(-0.00545888 -0.00326234 0)
(-0.00435259 -0.00288191 0)
(-0.00336791 -0.00247811 0)
(-0.00251085 -0.00205791 0)
(-0.00178517 -0.00163049 0)
(-0.00119192 -0.0012079 0)
(-0.000729002 -0.000805876 0)
(-0.000390465 -0.000444931 0)
(-0.000165879 -0.000151526 0)
(-4.13315e-05 4.03987e-05 0)
(-1.09695e-06 8.43119e-05 0)
(-9.44641e-06 -4.01105e-05 0)
(-9.05999e-05 0.000116251 0)
(-0.000297624 0.000437544 0)
(-0.000634893 0.000870896 0)
(-0.00110992 0.00137703 0)
(-0.00172956 0.00192496 0)
(-0.00249664 0.00249041 0)
(-0.00341051 0.00305466 0)
(-0.0044677 0.00360336 0)
(-0.00566234 0.0041256 0)
(-0.00698652 0.00461323 0)
(-0.00843068 0.00506019 0)
(-0.00998393 0.00546215 0)
(-0.0116344 0.00581611 0)
(-0.0133694 0.00612013 0)
(-0.0151759 0.00637312 0)
(-0.0170404 0.00657467 0)
(-0.0189493 0.0067249 0)
(-0.0208889 0.00682441 0)
(-0.0228457 0.00687411 0)
(-0.0248065 0.00687522 0)
(-0.0267581 0.00682919 0)
(-0.0286879 0.00673766 0)
(-0.0305837 0.00660243 0)
(-0.0324336 0.00642543 0)
(-0.0342265 0.00620867 0)
(-0.0359515 0.00595428 0)
(-0.0375984 0.00566445 0)
(-0.0391578 0.00534142 0)
(-0.0406207 0.00498749 0)
(-0.0419787 0.00460504 0)
(-0.0432243 0.00419644 0)
(-0.0443505 0.00376415 0)
(-0.0453509 0.00331064 0)
(-0.0462201 0.00283843 0)
(-0.0469531 0.00235009 0)
(-0.0475459 0.00184821 0)
(-0.047995 0.00133545 0)
(-0.0482977 0.000814482 0)
(-0.0484523 0.000288038 0)
(-0.0484575 -0.000241115 0)
(-0.0483132 -0.000770169 0)
(-0.0480196 -0.00129628 0)
(-0.0475782 -0.00181656 0)
(-0.046991 -0.0023281 0)
(-0.0462609 -0.00282796 0)
(-0.0453916 -0.00331318 0)
(-0.0443877 -0.00378079 0)
(-0.0432546 -0.00422782 0)
(-0.0419983 -0.00465131 0)
(-0.0406259 -0.00504831 0)
(-0.0391453 -0.00541593 0)
(-0.0375649 -0.00575131 0)
(-0.0358941 -0.00605169 0)
(-0.034143 -0.00631436 0)
(-0.0323223 -0.00653677 0)
(-0.0304435 -0.00671648 0)
(-0.0285186 -0.00685121 0)
(-0.0265602 -0.00693891 0)
(-0.0245814 -0.00697771 0)
(-0.0225957 -0.00696604 0)
(-0.020617 -0.00690262 0)
(-0.0186594 -0.00678651 0)
(-0.016737 -0.00661719 0)
(-0.014864 -0.00639461 0)
(-0.0130545 -0.00611927 0)
(-0.0113221 -0.00579229 0)
(-0.00968022 -0.00541559 0)
(-0.00814123 -0.00499198 0)
(-0.00671671 -0.00452539 0)
(-0.00541697 -0.00402112 0)
(-0.0042508 -0.00348611 0)
(-0.00322511 -0.00292941 0)
(-0.00234456 -0.00236268 0)
(-0.00161123 -0.00180087 0)
(-0.00102424 -0.00126303 0)
(-0.000579144 -0.000773472 0)
(-0.000267415 -0.000362761 0)
(-7.93743e-05 -6.92239e-05 0)
(-7.5936e-06 5.60074e-05 0)
(-1.60561e-05 1.41785e-05 0)
(-0.000130448 0.000293195 0)
(-0.00040521 0.000749547 0)
(-0.000835594 0.00132761 0)
(-0.00142407 0.00198492 0)
(-0.0021749 0.00268726 0)
(-0.00308879 0.00340724 0)
(-0.0041633 0.00412327 0)
(-0.00539357 0.00481849 0)
(-0.00677248 0.00547983 0)
(-0.00829102 0.00609728 0)
(-0.00993854 0.00666334 0)
(-0.0117031 0.00717248 0)
(-0.0135717 0.00762081 0)
(-0.0155307 0.00800573 0)
(-0.0175658 0.00832572 0)
(-0.0196622 0.0085801 0)
(-0.0218052 0.00876892 0)
(-0.02398 0.00889278 0)
(-0.0261717 0.00895275 0)
(-0.0283658 0.00895031 0)
(-0.0305481 0.00888723 0)
(-0.0327046 0.00876555 0)
(-0.0348219 0.00858753 0)
(-0.036887 0.00835558 0)
(-0.0388875 0.0080723 0)
(-0.0408117 0.00774038 0)
(-0.0426483 0.00736261 0)
(-0.0443868 0.0069419 0)
(-0.0460173 0.00648121 0)
(-0.0475306 0.00598358 0)
(-0.0489184 0.0054521 0)
(-0.0501729 0.00488994 0)
(-0.0512872 0.00430032 0)
(-0.0522552 0.00368649 0)
(-0.0530714 0.00305178 0)
(-0.0537314 0.00239958 0)
(-0.0542313 0.0017333 0)
(-0.0545683 0.00105644 0)
(-0.0547403 0.000372526 0)
(-0.0547461 -0.000314843 0)
(-0.0545853 -0.00100203 0)
(-0.0542585 -0.00168534 0)
(-0.0537671 -0.00236105 0)
(-0.0531133 -0.00302539 0)
(-0.0523005 -0.00367455 0)
(-0.0513327 -0.0043047 0)
(-0.0502149 -0.00491202 0)
(-0.048953 -0.00549267 0)
(-0.047554 -0.00604283 0)
(-0.0460254 -0.00655872 0)
(-0.0443759 -0.00703659 0)
(-0.0426149 -0.0074728 0)
(-0.0407527 -0.00786379 0)
(-0.0388004 -0.00820611 0)
(-0.0367698 -0.00849648 0)
(-0.0346735 -0.0087318 0)
(-0.0325246 -0.0089092 0)
(-0.0303371 -0.00902606 0)
(-0.0281252 -0.00908005 0)
(-0.0259038 -0.0090692 0)
(-0.023688 -0.00899196 0)
(-0.0214932 -0.0088472 0)
(-0.0193349 -0.00863436 0)
(-0.0172285 -0.00835347 0)
(-0.0151895 -0.00800528 0)
(-0.0132327 -0.00759137 0)
(-0.0113726 -0.00711427 0)
(-0.00962275 -0.00657768 0)
(-0.00799586 -0.00598665 0)
(-0.00650329 -0.00534787 0)
(-0.00515486 -0.00467001 0)
(-0.00395856 -0.00396417 0)
(-0.00292022 -0.00324436 0)
(-0.00204324 -0.00252825 0)
(-0.00132835 -0.00183791 0)
(-0.000773052 -0.00120088 0)
(-0.000371186 -0.000651095 0)
(-0.000117758 -0.000230166 0)
(-1.39525e-05 7.86202e-06 0)
(-2.23883e-05 8.88015e-05 0)
(-0.000169634 0.000523736 0)
(-0.000512267 0.0011426 0)
(-0.00103658 0.00188832 0)
(-0.00173986 0.00271628 0)
(-0.00262352 0.00358974 0)
(-0.00368581 0.00447881 0)
(-0.00492226 0.00535946 0)
(-0.00632629 0.00621258 0)
(-0.00788938 0.00702311 0)
(-0.0096012 0.00777935 0)
(-0.01145 0.00847235 0)
(-0.0134226 0.00909544 0)
(-0.0155051 0.00964382 0)
(-0.0176825 0.0101142 0)
(-0.0199395 0.0105047 0)
(-0.0222605 0.0108142 0)
(-0.0246293 0.0110428 0)
(-0.0270301 0.011191 0)
(-0.0294469 0.01126 0)
(-0.0318641 0.0112517 0)
(-0.0342664 0.011168 0)
(-0.0366386 0.0110115 0)
(-0.0389663 0.0107849 0)
(-0.0412355 0.0104912 0)
(-0.0434328 0.0101335 0)
(-0.0455454 0.0097151 0)
(-0.0475611 0.00923956 0)
(-0.0494686 0.00871042 0)
(-0.0512572 0.00813137 0)
(-0.0529169 0.0075062 0)
(-0.0544386 0.00683876 0)
(-0.055814 0.006133 0)
(-0.0570355 0.00539294 0)
(-0.0580965 0.00462266 0)
(-0.0589911 0.00382632 0)
(-0.0597144 0.00300814 0)
(-0.0602623 0.00217241 0)
(-0.0606318 0.0013235 0)
(-0.0608205 0.000465834 0)
(-0.0608271 -0.000396107 0)
(-0.0606513 -0.00125777 0)
(-0.0602936 -0.00211453 0)
(-0.0597556 -0.00296175 0)
(-0.0590397 -0.0037947 0)
(-0.0581496 -0.00460865 0)
(-0.0570895 -0.00539882 0)
(-0.055865 -0.00616045 0)
(-0.0544826 -0.00688875 0)
(-0.0529495 -0.00757897 0)
(-0.0512741 -0.00822642 0)
(-0.0494657 -0.00882645 0)
(-0.0475346 -0.00937453 0)
(-0.0454918 -0.00986624 0)
(-0.0433494 -0.0102973 0)
(-0.0411201 -0.0106638 0)
(-0.0388174 -0.0109617 0)
(-0.0364558 -0.0111877 0)
(-0.03405 -0.0113384 0)
(-0.0316157 -0.0114111 0)
(-0.0291686 -0.0114033 0)
(-0.0267253 -0.0113133 0)
(-0.0243021 -0.0111397 0)
(-0.0219159 -0.0108819 0)
(-0.0195833 -0.01054 0)
(-0.0173208 -0.0101152 0)
(-0.0151445 -0.00960928 0)
(-0.01307 -0.00902563 0)
(-0.011112 -0.00836877 0)
(-0.00928434 -0.00764492 0)
(-0.00759944 -0.00686217 0)
(-0.00606834 -0.00603086 0)
(-0.00470027 -0.00516405 0)
(-0.00350241 -0.00427799 0)
(-0.00247977 -0.00339278 0)
(-0.00163499 -0.00253315 0)
(-0.000967822 -0.00172933 0)
(-0.000474745 -0.00101793 0)
(-0.000155598 -0.000442894 0)
(-2.00532e-05 -5.98988e-05 0)
(-2.84093e-05 0.000183184 0)
(-0.000207731 0.000807251 0)
(-0.000617431 0.0016165 0)
(-0.00123522 0.00255335 0)
(-0.00205329 0.00357179 0)
(-0.00307005 0.00463329 0)
(-0.00428115 0.00570596 0)
(-0.00567983 0.00676375 0)
(-0.00725763 0.00778563 0)
(-0.0090044 0.00875477 0)
(-0.0109084 0.00965791 0)
(-0.0129565 0.0104848 0)
(-0.0151345 0.0112276 0)
(-0.0174273 0.0118808 0)
(-0.0198187 0.0124403 0)
(-0.0222926 0.0129037 0)
(-0.0248319 0.0132699 0)
(-0.0274198 0.0135386 0)
(-0.0300392 0.0137105 0)
(-0.0326731 0.0137869 0)
(-0.035305 0.0137698 0)
(-0.0379184 0.0136617 0)
(-0.0404973 0.0134655 0)
(-0.0430262 0.0131845 0)
(-0.0454902 0.0128221 0)
(-0.047875 0.0123822 0)
(-0.0501669 0.0118687 0)
(-0.0523529 0.0112859 0)
(-0.054421 0.010638 0)
(-0.0563596 0.00992951 0)
(-0.0581581 0.00916502 0)
(-0.0598068 0.00834919 0)
(-0.0612967 0.00748683 0)
(-0.0626197 0.00658281 0)
(-0.0637689 0.00564209 0)
(-0.0647378 0.00466973 0)
(-0.0655213 0.00367086 0)
(-0.066115 0.00265071 0)
(-0.0665154 0.00161457 0)
(-0.0667203 0.000567832 0)
(-0.0667282 -0.000484051 0)
(-0.0665386 -0.00153555 0)
(-0.0661523 -0.00258105 0)
(-0.0655708 -0.00361491 0)
(-0.0647969 -0.00463139 0)
(-0.0638342 -0.00562476 0)
(-0.0626875 -0.00658922 0)
(-0.0613627 -0.00751899 0)
(-0.0598665 -0.00840828 0)
(-0.058207 -0.00925134 0)
(-0.0563929 -0.0100425 0)
(-0.0544342 -0.0107761 0)
(-0.0523418 -0.0114467 0)
(-0.0501276 -0.012049 0)
(-0.0478044 -0.0125779 0)
(-0.0453858 -0.0130285 0)
(-0.0428862 -0.0133961 0)
(-0.040321 -0.0136766 0)
(-0.0377061 -0.0138662 0)
(-0.0350578 -0.0139615 0)
(-0.0323934 -0.0139597 0)
(-0.0297301 -0.0138585 0)
(-0.0270856 -0.0136566 0)
(-0.0244778 -0.0133532 0)
(-0.0219244 -0.0129486 0)
(-0.0194431 -0.0124441 0)
(-0.0170511 -0.0118422 0)
(-0.0147651 -0.0111468 0)
(-0.012601 -0.0103634 0)
(-0.0105738 -0.00949927 0)
(-0.00869705 -0.00856389 0)
(-0.00698318 -0.0075692 0)
(-0.00544278 -0.00653009 0)
(-0.00408461 -0.00546484 0)
(-0.00291547 -0.00439573 0)
(-0.00194013 -0.00334977 0)
(-0.0011608 -0.00235941 0)
(-0.000576694 -0.00146328 0)
(-0.000192446 -0.000706931 0)
(-2.58556e-05 -0.000146753 0)
(-3.41226e-05 0.000296636 0)
(-0.000244559 0.00114261 0)
(-0.000719996 0.0021702 0)
(-0.00143004 0.00332193 0)
(-0.00236196 0.00455102 0)
(-0.00351117 0.00581771 0)
(-0.00487058 0.00708857 0)
(-0.00643105 0.00833593 0)
(-0.00818207 0.00953715 0)
(-0.0101117 0.0106739 0)
(-0.0122066 0.0117315 0)
(-0.0144524 0.0126985 0)
(-0.0168335 0.0135662 0)
(-0.0193336 0.0143281 0)
(-0.0219355 0.0149796 0)
(-0.0246219 0.0155179 0)
(-0.0273748 0.0159415 0)
(-0.0301762 0.0162501 0)
(-0.0330081 0.0164444 0)
(-0.0358527 0.0165259 0)
(-0.0386923 0.0164969 0)
(-0.0415095 0.0163603 0)
(-0.0442876 0.0161193 0)
(-0.04701 0.0157779 0)
(-0.0496611 0.01534 0)
(-0.0522257 0.0148102 0)
(-0.0546893 0.0141931 0)
(-0.0570383 0.0134937 0)
(-0.0592598 0.0127171 0)
(-0.0613416 0.0118685 0)
(-0.0632726 0.0109534 0)
(-0.0650424 0.00997735 0)
(-0.0666416 0.00894601 0)
(-0.0680615 0.00786518 0)
(-0.0692948 0.00674076 0)
(-0.0703348 0.00557876 0)
(-0.0711758 0.00438529 0)
(-0.0718134 0.00316655 0)
(-0.0722438 0.00192884 0)
(-0.0724646 0.000678573 0)
(-0.0724742 -0.000577776 0)
(-0.0722723 -0.00183363 0)
(-0.0718595 -0.00308233 0)
(-0.0712374 -0.00431716 0)
(-0.0704089 -0.00553133 0)
(-0.069378 -0.00671801 0)
(-0.0681496 -0.00787034 0)
(-0.0667299 -0.00898146 0)
(-0.0651262 -0.0100445 0)
(-0.0633467 -0.0110527 0)
(-0.0614008 -0.0119992 0)
(-0.0592991 -0.0128775 0)
(-0.0570531 -0.0136811 0)
(-0.0546752 -0.0144037 0)
(-0.052179 -0.0150392 0)
(-0.049579 -0.015582 0)
(-0.0468903 -0.0160265 0)
(-0.0441291 -0.0163679 0)
(-0.0413123 -0.0166016 0)
(-0.0384572 -0.0167238 0)
(-0.0355818 -0.0167311 0)
(-0.0327047 -0.0166211 0)
(-0.0298444 -0.016392 0)
(-0.0270199 -0.0160431 0)
(-0.02425 -0.0155748 0)
(-0.0215534 -0.0149885 0)
(-0.0189485 -0.0142873 0)
(-0.0164532 -0.0134758 0)
(-0.0140845 -0.0125602 0)
(-0.0118586 -0.0115489 0)
(-0.00979061 -0.0104528 0)
(-0.00789412 -0.00928513 0)
(-0.00618133 -0.0080626 0)
(-0.00466273 -0.00680527 0)
(-0.00334707 -0.00553734 0)
(-0.00224142 -0.00428772 0)
(-0.00135049 -0.00309068 0)
(-0.000676313 -0.00198634 0)
(-0.000228112 -0.00102129 0)
(-3.13602e-05 -0.000252055 0)
(-3.95493e-05 0.000428441 0)
(-0.000280087 0.00152846 0)
(-0.000819675 0.00280219 0)
(-0.00162032 0.00419267 0)
(-0.00266459 0.00565282 0)
(-0.00394496 0.00714205 0)
(-0.00545161 0.00862582 0)
(-0.00717291 0.0100752 0)
(-0.00909617 0.0114663 0)
(-0.0112076 0.0127794 0)
(-0.0134922 0.0139987 0)
(-0.0159341 0.0151117 0)
(-0.0185163 0.0161088 0)
(-0.0212212 0.0169828 0)
(-0.0240307 0.0177286 0)
(-0.0269261 0.018343 0)
(-0.0298885 0.0188242 0)
(-0.032899 0.019172 0)
(-0.0359386 0.019387 0)
(-0.0389885 0.0194711 0)
(-0.0420301 0.0194266 0)
(-0.0450453 0.019257 0)
(-0.0480163 0.0189661 0)
(-0.050926 0.0185581 0)
(-0.0537577 0.0180378 0)
(-0.0564957 0.0174105 0)
(-0.0591248 0.0166814 0)
(-0.0616305 0.0158564 0)
(-0.0639995 0.0149413 0)
(-0.066219 0.0139424 0)
(-0.0682771 0.0128658 0)
(-0.0701632 0.0117182 0)
(-0.0718672 0.010506 0)
(-0.0733802 0.0092361 0)
(-0.0746944 0.00791535 0)
(-0.0758027 0.00655076 0)
(-0.0766992 0.00514946 0)
(-0.0773792 0.00371869 0)
(-0.0778389 0.00226581 0)
(-0.0780756 0.000798276 0)
(-0.0780877 -0.000676328 0)
(-0.0778747 -0.00215034 0)
(-0.0774372 -0.00361599 0)
(-0.0767772 -0.00506544 0)
(-0.0758975 -0.00649079 0)
(-0.0748021 -0.00788406 0)
(-0.0734964 -0.00923728 0)
(-0.0719868 -0.0105424 0)
(-0.0702807 -0.0117916 0)
(-0.068387 -0.0129767 0)
(-0.0663154 -0.01409 0)
(-0.0640769 -0.0151239 0)
(-0.0616836 -0.0160707 0)
(-0.0591486 -0.0169231 0)
(-0.0564861 -0.0176742 0)
(-0.0537111 -0.0183172 0)
(-0.0508397 -0.018846 0)
(-0.0478888 -0.0192547 0)
(-0.044876 -0.0195382 0)
(-0.0418196 -0.019692 0)
(-0.0387386 -0.0197122 0)
(-0.0356523 -0.019596 0)
(-0.0325805 -0.0193414 0)
(-0.0295429 -0.0189477 0)
(-0.0265597 -0.0184151 0)
(-0.0236505 -0.0177456 0)
(-0.0208348 -0.0169425 0)
(-0.0181317 -0.0160109 0)
(-0.0155596 -0.014958 0)
(-0.0131359 -0.0137932 0)
(-0.010877 -0.0125284 0)
(-0.00879815 -0.0111785 0)
(-0.00691321 -0.00976145 0)
(-0.00523449 -0.00829906 0)
(-0.00377283 -0.00681716 0)
(-0.00253765 -0.00534625 0)
(-0.00153623 -0.00392205 0)
(-0.00077333 -0.00258582 0)
(-0.000262566 -0.00138474 0)
(-3.65874e-05 -0.000375127 0)
(-4.47188e-05 0.000577906 0)
(-0.000314365 0.00196335 0)
(-0.000916447 0.00351074 0)
(-0.00180584 0.00516384 0)
(-0.00296068 0.00687557 0)
(-0.00437058 0.00860489 0)
(-0.006023 0.0103165 0)
(-0.00790381 0.0119805 0)
(-0.0099981 0.0135718 0)
(-0.0122901 0.0150699 0)
(-0.014763 0.016458 0)
(-0.0173994 0.0177226 0)
(-0.020181 0.0188534 0)
(-0.0230887 0.0198425 0)
(-0.0261033 0.0206845 0)
(-0.0292049 0.0213758 0)
(-0.0323737 0.0219145 0)
(-0.0355897 0.0223002 0)
(-0.038833 0.0225339 0)
(-0.0420839 0.0226174 0)
(-0.0453229 0.0225537 0)
(-0.0485312 0.0223465 0)
(-0.0516901 0.022 0)
(-0.0547817 0.0215193 0)
(-0.0577889 0.0209098 0)
(-0.060695 0.0201773 0)
(-0.0634842 0.019328 0)
(-0.0661417 0.0183685 0)
(-0.0686532 0.0173055 0)
(-0.0710056 0.0161462 0)
(-0.0731866 0.0148977 0)
(-0.0751849 0.0135674 0)
(-0.0769902 0.0121631 0)
(-0.0785931 0.0106924 0)
(-0.0799854 0.00916319 0)
(-0.0811599 0.00758363 0)
(-0.0821104 0.00596188 0)
(-0.0828318 0.00430625 0)
(-0.0833203 0.0026252 0)
(-0.083573 0.00092732 0)
(-0.0835883 -0.000778698 0)
(-0.0833655 -0.00248404 0)
(-0.0829055 -0.00417979 0)
(-0.0822099 -0.00585694 0)
(-0.0812819 -0.00750641 0)
(-0.0801256 -0.00911905 0)
(-0.0787464 -0.0106857 0)
(-0.0771511 -0.0121972 0)
(-0.0753475 -0.0136443 0)
(-0.0733444 -0.015018 0)
(-0.0711523 -0.0163093 0)
(-0.0687825 -0.0175093 0)
(-0.0662475 -0.0186094 0)
(-0.0635609 -0.0196013 0)
(-0.0607375 -0.0204768 0)
(-0.057793 -0.0212284 0)
(-0.0547441 -0.0218489 0)
(-0.0516085 -0.0223317 0)
(-0.0484045 -0.0226708 0)
(-0.0451513 -0.0228612 0)
(-0.0418688 -0.0228985 0)
(-0.038577 -0.0227793 0)
(-0.0352968 -0.0225014 0)
(-0.0320491 -0.022064 0)
(-0.0288548 -0.0214673 0)
(-0.0257347 -0.0207134 0)
(-0.0227098 -0.0198061 0)
(-0.0198 -0.018751 0)
(-0.0170252 -0.0175561 0)
(-0.0144041 -0.0162315 0)
(-0.0119548 -0.0147905 0)
(-0.00969393 -0.0132489 0)
(-0.00763723 -0.0116262 0)
(-0.00579896 -0.00994561 0)
(-0.00419209 -0.00823433 0)
(-0.00282844 -0.00652423 0)
(-0.00171787 -0.00485217 0)
(-0.000867758 -0.00326025 0)
(-0.00029587 -0.001796 0)
(-4.15676e-05 -0.000515323 0)
(-4.9663e-05 0.000744391 0)
(-0.000347495 0.00244588 0)
(-0.00101045 0.00429406 0)
(-0.00198672 0.00623355 0)
(-0.00325023 0.00821747 0)
(-0.00478787 0.0102046 0)
(-0.00658443 0.012159 0)
(-0.00862326 0.0140503 0)
(-0.0108872 0.0158525 0)
(-0.0133584 0.0175443 0)
(-0.0160184 0.019108 0)
(-0.0188479 0.0205296 0)
(-0.0218272 0.0217981 0)
(-0.024936 0.0229051 0)
(-0.0281536 0.0238448 0)
(-0.0314592 0.0246135 0)
(-0.0348317 0.0252091 0)
(-0.0382503 0.0256313 0)
(-0.0416941 0.0258812 0)
(-0.0451424 0.025961 0)
(-0.0485751 0.0258739 0)
(-0.0519724 0.0256242 0)
(-0.0553151 0.0252167 0)
(-0.0585845 0.0246569 0)
(-0.0617627 0.0239511 0)
(-0.0648326 0.0231058 0)
(-0.0677777 0.0221281 0)
(-0.0705826 0.0210254 0)
(-0.0732326 0.0198053 0)
(-0.0757141 0.0184758 0)
(-0.0780143 0.0170451 0)
(-0.0801215 0.0155217 0)
(-0.0820251 0.0139142 0)
(-0.0837154 0.0122313 0)
(-0.0851837 0.0104821 0)
(-0.0864227 0.00867575 0)
(-0.087426 0.00682143 0)
(-0.0881882 0.00492866 0)
(-0.0887053 0.00300701 0)
(-0.0889744 0.00106623 0)
(-0.0889937 -0.000883816 0)
(-0.0887626 -0.00283314 0)
(-0.0882817 -0.00477162 0)
(-0.0875529 -0.00668904 0)
(-0.0865793 -0.00857512 0)
(-0.0853653 -0.0104195 0)
(-0.0839163 -0.0122117 0)
(-0.0822392 -0.0139414 0)
(-0.080342 -0.0155983 0)
(-0.0782341 -0.0171718 0)
(-0.075926 -0.018652 0)
(-0.0734294 -0.0200288 0)