/*--------------------------------*- C++ -*----------------------------------*\
  =========                 |
  \\      /  F ield         | OpenFOAM: The Open Source CFD Toolbox
   \\    /   O peration     | Website:  https://openfoam.org
    \\  /    A nd           | Version:  7
     \\/     M anipulation  |
\*---------------------------------------------------------------------------*/
FoamFile
{
    version     2.0;
    format      ascii;
    class       volScalarField;
    location    "0.35";
    object      p;
}
// * * * * * * * * * * * * * * * * * * * * * * * * * * * * * * * * * * * * * //

dimensions      [0 2 -2 0 0 0 0];

internalField   nonuniform List<scalar> 
6400
(
1.2642e-05
3.40754e-05
-0.000471007
-0.00150379
-0.0029461
-0.00468771
-0.00662835
-0.00867851
-0.0107609
-0.0128101
-0.014771
-0.0165975
-0.0182511
-0.0197002
-0.0209188
-0.0218862
-0.0225864
-0.0230071
-0.0231399
-0.0229793
-0.0225229
-0.0217707
-0.0207253
-0.019391
-0.0177745
-0.015884
-0.0137292
-0.0113215
-0.00867351
-0.00579914
-0.00271336
0.000567788
0.0040273
0.00764731
0.0114092
0.0152935
0.0192803
0.0233489
0.0274783
0.031647
0.0358332
0.0400148
0.0441695
0.048275
0.0523092
0.05625
0.0600755
0.0637643
0.0672955
0.0706489
0.073805
0.0767455
0.0794528
0.0819109
0.0841052
0.0860227
0.0876521
0.0889843
0.0900123
0.0907315
0.09114
0.0912387
0.0910315
0.090526
0.089733
0.0886678
0.0873496
0.0858025
0.0840558
0.0821449
0.0801114
0.0780046
0.075882
0.0738106
0.0718678
0.0701422
0.0687309
0.0677381
0.0672702
0.0673078
9.95872e-06
2.43569e-05
-0.000429076
-0.00131235
-0.00252609
-0.00399116
-0.00563175
-0.00737545
-0.00915699
-0.0109191
-0.012612
-0.0141934
-0.0156271
-0.0168829
-0.0179356
-0.0187648
-0.0193543
-0.0196916
-0.0197677
-0.0195764
-0.0191147
-0.0183815
-0.0173784
-0.0161088
-0.0145783
-0.012794
-0.0107645
-0.00849995
-0.00601191
-0.00331304
-0.000417131
0.00266099
0.00590556
0.00929996
0.0128268
0.0164679
0.0202047
0.0240178
0.0278875
0.0317937
0.0357159
0.0396334
0.0435255
0.0473713
0.05115
0.054841
0.0584241
0.0618793
0.0651872
0.0683291
0.0712871
0.0740442
0.0765845
0.0788934
0.0809577
0.0827656
0.0843074
0.085575
0.0865626
0.0872668
0.0876864
0.0878233
0.087682
0.0872703
0.0865997
0.085685
0.0845453
0.0832039
0.0816889
0.0800334
0.0782765
0.0764631
0.0746447
0.0728797
0.0712335
0.0697773
0.0685845
0.0677298
0.0673066
0.0673453
0.000517872
0.000479714
2.58317e-05
-0.00079
-0.00188058
-0.00318267
-0.00463514
-0.00617787
-0.00775521
-0.00931711
-0.0108193
-0.0122231
-0.0134952
-0.0146072
-0.0155353
-0.0162599
-0.016765
-0.0170385
-0.0170711
-0.0168565
-0.0163909
-0.015673
-0.0147036
-0.0134856
-0.0120236
-0.0103239
-0.00839431
-0.00624418
-0.00388402
-0.0013256
0.00141824
0.00433368
0.00740593
0.0106194
0.0139577
0.0174039
0.0209401
0.0245484
0.0282099
0.0319057
0.0356165
0.0393228
0.0430049
0.0466431
0.0502179
0.0537098
0.0570998
0.060369
0.0634994
0.0664734
0.0692743
0.0718862
0.0742945
0.0764855
0.0784471
0.0801688
0.0816415
0.0828582
0.0838139
0.0845058
0.0849334
0.0850989
0.0850073
0.0846667
0.084088
0.083286
0.0822789
0.0810891
0.079743
0.0782716
0.0767107
0.0751011
0.0734888
0.0719248
0.070465
0.0691686
0.0680949
0.0673041
0.0668818
0.0668792
0.00155082
0.00136569
0.000842006
2.28609e-05
-0.00102513
-0.00224842
-0.00359529
-0.00501498
-0.00645987
-0.00788638
-0.00925532
-0.010532
-0.0116861
-0.0126914
-0.0135259
-0.014171
-0.0146118
-0.0148363
-0.0148356
-0.0146034
-0.0141358
-0.0134313
-0.0124903
-0.0113151
-0.00990979
-0.00828016
-0.00643339
-0.00437804
-0.00212392
0.000317979
0.0029356
0.00571593
0.00864505
0.0117082
0.0148899
0.018174
0.0215437
0.0249818
0.0284706
0.031992
0.0355276
0.0390588
0.0425671
0.0460338
0.0494401
0.0527678
0.0559986
0.0591149
0.0620994
0.0649356
0.0676078
0.0701009
0.0724012
0.0744959
0.0763739
0.0780251
0.0794414
0.0806164
0.0815455
0.0822264
0.082659
0.0828458
0.0827917
0.0825045
0.0819951
0.0812774
0.0803688
0.0792902
0.0780662
0.0767254
0.0753004
0.0738281
0.0723491
0.0709082
0.0695533
0.0683351
0.0673038
0.066511
0.066025
0.0658894
0.00299957
0.00258803
0.0019365
0.00106442
8.9589e-06
-0.00118505
-0.00247372
-0.00381477
-0.00516792
-0.00649569
-0.00776388
-0.0089418
-0.0100023
-0.0109218
-0.01168
-0.0122598
-0.0126474
-0.0128315
-0.0128036
-0.0125577
-0.0120899
-0.0113986
-0.0104841
-0.00934822
-0.00799481
-0.00642908
-0.00465766
-0.00268852
-0.000530858
0.00180504
0.00430783
0.00696524
0.00976412
0.0126905
0.0157297
0.0188664
0.0220847
0.0253682
0.0287
0.0320629
0.0354395
0.0388121
0.0421629
0.0454742
0.0487282
0.0519074
0.0549947
0.057973
0.0608262
0.0635384
0.0660948
0.0684813
0.0706847
0.0726931
0.074496
0.076084
0.0774495
0.0785865
0.0794911
0.080161
0.0805965
0.0807999
0.0807761
0.0805326
0.0800796
0.0794304
0.0786011
0.077611
0.0764828
0.0752425
0.0739196
0.0725467
0.0711596
0.0697972
0.0685004
0.0673118
0.0662744
0.065432
0.0648257
0.064478
0.00476204
0.00407369
0.00325116
0.00228586
0.00118157
-2.46439e-05
-0.00129555
-0.00259646
-0.0038938
-0.00515572
-0.00635279
-0.00745825
-0.00844818
-0.00930153
-0.0100001
-0.0105284
-0.0108738
-0.011026
-0.010977
-0.0107213
-0.0102553
-0.00957737
-0.0086876
-0.00758787
-0.00628159
-0.00477362
-0.00307019
-0.00117875
0.000892052
0.00313252
0.00553196
0.00807874
0.0107604
0.0135637
0.0164748
0.0194789
0.0225611
0.0257056
0.0288964
0.0321172
0.0353512
0.0385816
0.0417915
0.0449638
0.0480818
0.0511285
0.0540877
0.0569433
0.0596796
0.0622817
0.0647354
0.0670272
0.0691448
0.0710768
0.0728131
0.074345
0.0756652
0.0767681
0.07765
0.0783089
0.078745
0.0789605
0.07896
0.0787506
0.0783418
0.0777458
0.0769775
0.0760547
0.0749978
0.0738303
0.0725784
0.071271
0.0699393
0.0686165
0.0673374
0.0661372
0.0650531
0.0641215
0.0633523
0.0627415
0.00674748
0.0057541
0.00473077
0.00364067
0.00245365
0.00120025
-8.77582e-05
-0.00138236
-0.00265599
-0.00388193
-0.00503516
-0.00609268
-0.00703369
-0.00783974
-0.00849474
-0.00898497
-0.009299
-0.00942762
-0.00936373
-0.00910224
-0.00863993
-0.00797534
-0.00710869
-0.00604176
-0.00477779
-0.00332138
-0.0016784
0.00014407
0.00213786
0.00429379
0.00660168
0.00905052
0.0116285
0.0143229
0.0171205
0.0200075
0.0229694
0.0259912
0.0290576
0.032153
0.0352614
0.0383667
0.0414526
0.044503
0.0475015
0.0504323
0.0532795
0.0560277
0.0586621
0.0611683
0.0635326
0.0657422
0.0677852
0.0696508
0.0713292
0.0728122
0.0740928
0.0751656
0.0760268
0.0766747
0.0771093
0.0773325
0.0773486
0.0771641
0.0767875
0.0762302
0.0755057
0.0746298
0.0736212
0.0725007
0.0712913
0.0700185
0.0687092
0.0673919
0.0660953
0.0648487
0.0636839
0.0626317
0.0616695
0.0607663
0.00887661
0.00756475
0.00632155
0.0050835
0.00378771
0.00245941
0.00112603
-0.000190243
-0.00146713
-0.00268254
-0.00381548
-0.00484644
-0.00575764
-0.00653316
-0.00715902
-0.00762322
-0.00791576
-0.00802853
-0.00795532
-0.00769169
-0.00723487
-0.00658374
-0.00573866
-0.00470143
-0.00347524
-0.00206452
-0.0004749
0.00128686
0.00321297
0.00529466
0.00752224
0.00988518
0.0123722
0.0149712
0.0176696
0.020454
0.0233106
0.0262252
0.029183
0.0321691
0.035168
0.0381644
0.0411426
0.044087
0.0469821
0.0498125
0.0525629
0.0552186
0.0577653
0.0601889
0.0624765
0.0646157
0.0665948
0.0684036
0.0700325
0.0714736
0.0727199
0.0737663
0.074609
0.0752461
0.0756774
0.0759045
0.0759312
0.0757632
0.0754084
0.0748767
0.0741804
0.0733337
0.0723531
0.071257
0.0700656
0.068801
0.0674863
0.0661456
0.0648029
0.0634817
0.0622101
0.0610138
0.0598389
0.0586288
0.0110824
0.00944816
0.00797403
0.00657185
0.00514782
0.00372315
0.00232184
0.000961128
-0.000341366
-0.00156763
-0.0027003
-0.00372314
-0.00462115
-0.00538083
-0.00599026
-0.00643918
-0.006719
-0.0068228
-0.0067453
-0.00648278
-0.00603304
-0.00539532
-0.00457024
-0.00355975
-0.00236701
-0.00099639
0.000546636
0.00225555
0.00412285
0.00614012
0.00829806
0.0105866
0.0129949
0.0155113
0.0181238
0.0208197
0.0235855
0.0264076
0.0292718
0.0321637
0.0350686
0.0379716
0.0408576
0.0437115
0.0465183
0.0492632
0.0519314
0.0545087
0.056981
0.0593351
0.0615581
0.063638
0.0655636
0.0673247
0.0689121
0.0703179
0.0715353
0.0725592
0.0733855
0.0740123
0.074439
0.0746668
0.0746989
0.0745403
0.0741978
0.0736804
0.0729987
0.0721656
0.0711954
0.0701043
0.0689099
0.0676312
0.0662878
0.0649002
0.063488
0.0620702
0.0606718
0.0593146
0.0579153
0.0563933
0.013309
0.0113542
0.00964372
0.00806658
0.00650016
0.00496268
0.00347565
0.00205208
0.000705599
-0.000549374
-0.00169875
-0.0027292
-0.00362834
-0.00438495
-0.00498907
-0.00543213
-0.00570695
-0.00580781
-0.00573039
-0.00547176
-0.00503033
-0.00440578
-0.00359907
-0.00261231
-0.00144877
-0.000112824
0.00139016
0.00305382
0.00487088
0.00683319
0.00893179
0.011157
0.0134982
0.0159446
0.0184842
0.0211048
0.0237936
0.0265375
0.0293226
0.0321352
0.0349609
0.0377853
0.040594
0.0433722
0.0461054
0.0487791
0.0513792
0.0538916
0.0563028
0.0585996
0.0607698
0.0628013
0.0646834
0.0664058
0.0679595
0.0693367
0.0705306
0.0715358
0.0723483
0.0729656
0.0733869
0.0736129
0.0736461
0.0734906
0.0731525
0.0726394
0.0719608
0.0711277
0.0701527
0.06905
0.0678347
0.0665231
0.0651318
0.063678
0.0621776
0.060646
0.0591057
0.0575761
0.0559461
0.0541131
0.0155096
0.0132395
0.011291
0.00953209
0.00781324
0.00615063
0.00456402
0.0030629
0.00165746
0.000359023
-0.000821218
-0.00187257
-0.00278504
-0.0035495
-0.00415787
-0.00460318
-0.00487964
-0.00498272
-0.00490907
-0.00465657
-0.00422427
-0.00361238
-0.0028222
-0.00185612
-0.000717544
0.000589099
0.00205845
0.00368426
0.0054594
0.00737593
0.00942517
0.0115977
0.0138834
0.0162715
0.0187507
0.0213092
0.0239345
0.0266138
0.0293339
0.0320813
0.0348422
0.0376026
0.0403483
0.0430651
0.0457388
0.0483554
0.0509009
0.0533616
0.0557243
0.0579761
0.0601047
0.0620986
0.0639469
0.0656395
0.0671674
0.0685227
0.0696984
0.0706891
0.0714905
0.0720997
0.0725154
0.0727378
0.0727686
0.0726113
0.0722708
0.0717537
0.071068
0.0702235
0.0692309
0.0681025
0.0668512
0.065491
0.0640359
0.0625003
0.060897
0.0592382
0.0575451
0.0558354
0.0539721
0.0518324
0.0176449
0.0150664
0.0128807
0.0109361
0.00905795
0.00726116
0.00556436
0.00397411
0.0024977
0.00114376
-7.9039e-05
-0.00116236
-0.00209836
-0.00287988
-0.00350056
-0.00395496
-0.00423863
-0.00434817
-0.00428124
-0.00403653
-0.00361377
-0.00301368
-0.00223799
-0.00128937
-0.00017146
0.00111122
0.00255329
0.00414851
0.00588987
0.0077696
0.00977921
0.0119095
0.0141507
0.0164922
0.0189232
0.0214321
0.0240068
0.026635
0.0293036
0.0319997
0.0347097
0.03742
0.0401168
0.0427862
0.0454143
0.0479872
0.0504914
0.0529133
0.0552399
0.0574585
0.0595569
0.0615236
0.0633478
0.0650194
0.0665293
0.0678695
0.0690328
0.0700134
0.0708069
0.0714098
0.0718203
0.072038
0.072064
0.0719008
0.0715525
0.0710244
0.0703234
0.0694578
0.0684369
0.0672709
0.0659712
0.0645494
0.0630175
0.0613874
0.0596696
0.0578735
0.0560198
0.054125
0.0520283
0.0495878
0.0196814
0.0168021
0.0143815
0.0122493
0.0102074
0.00826998
0.00645499
0.00476662
0.0032097
0.00179058
0.000515725
-0.000608631
-0.00157659
-0.00238277
-0.0030224
-0.0034915
-0.00378689
-0.00390628
-0.00384828
-0.00361241
-0.00319908
-0.00260956
-0.00184602
-0.000911489
0.000190177
0.00145429
0.00287539
0.00444723
0.00616285
0.00801458
0.00999407
0.0120923
0.0142998
0.0166062
0.0190008
0.0214724
0.0240092
0.0265992
0.0292297
0.0318879
0.0345606
0.0372345
0.039896
0.0425316
0.0451274
0.04767
0.0501458
0.0525416
0.0548443
0.0570413
0.0591206
0.0610706
0.0628804
0.0645399
0.0660398
0.0673718
0.0685286
0.069504
0.0702931
0.0708921
0.0712986
0.0715115
0.0715311
0.0713591
0.0709986
0.070454
0.069731
0.0688364
0.0677781
0.066565
0.0652066
0.0637126
0.0620934
0.0603588
0.0585173
0.0565763
0.0545563
0.0524736
0.0501445
0.0474097
0.0215903
0.0184179
0.0157654
0.0134452
0.0112368
0.00915422
0.00721513
0.00542178
0.00377693
0.00228498
0.00095046
-0.000222232
-0.00122894
-0.0020659
-0.00272984
-0.0032181
-0.0035287
-0.00366044
-0.00361284
-0.00338624
-0.00298172
-0.00240114
-0.00164711
-0.000723029
0.00036697
0.00161801
0.0030245
0.00458015
0.00627799
0.00811042
0.0100692
0.0121454
0.0143297
0.0166121
0.0189819
0.0214283
0.0239397
0.0265042
0.0291095
0.031743
0.0343917
0.0370426
0.0396823
0.0422973
0.0448742
0.0473995
0.0498597
0.0522417
0.0545326
0.0567197
0.0587909
0.0607346
0.0625398
0.0641961
0.0656941
0.0670252
0.0681818
0.0691572
0.0699461
0.0705442
0.0709485
0.0711571
0.0711697
0.0709871
0.0706115
0.0700462
0.0692957
0.0683658
0.0672631
0.0659949
0.0645694
0.0629948
0.0612797
0.0594327
0.0574603
0.0553688
0.0531785
0.0509061
0.0483466
0.0453238
0.0233468
0.0198883
0.0170073
0.0144995
0.0121232
0.00989239
0.00782494
0.00592147
0.00418301
0.00261227
0.00121214
-1.46269e-05
-0.00106543
-0.00193798
-0.00263034
-0.00314113
-0.00346949
-0.00361522
-0.00357877
-0.00336124
-0.0029644
-0.00239067
-0.00164315
-0.000725618
0.000357497
0.00160109
0.00299942
0.0045461
0.00623413
0.00805591
0.0100033
0.0120674
0.014239
0.0165083
0.0188648
0.0212978
0.0237959
0.0263474
0.0289402
0.0315619
0.0341998
0.0368408
0.0394718
0.0420795
0.0446505
0.0471713
0.0496287
0.0520093
0.0543004
0.0564891
0.0585633
0.0605113
0.0623216
0.063984
0.0654885
0.0668263
0.0679893
0.0689704
0.0697639
0.0703647
0.0707692
0.0709751
0.070981
0.070787
0.0703943
0.0698052
0.0690234
0.0680534
0.0669005
0.0655711
0.0640718
0.0624097
0.0605922
0.0586264
0.0565177
0.0542712
0.0519078
0.0494447
0.0466568
0.0433517
0.0249287
0.0211905
0.0180844
0.01539
0.0128451
0.0104641
0.00826535
0.00624802
0.0044117
0.00275769
0.00128742
2.21065e-06
-0.00109674
-0.00200845
-0.00273227
-0.00326794
-0.00361569
-0.00377626
-0.00375098
-0.0035417
-0.00315086
-0.00258146
-0.00183707
-0.000921875
0.00015938
0.00140134
0.00279808
0.00434309
0.0060293
0.00784907
0.00979425
0.0118561
0.0140254
0.0162924
0.0186469
0.0210782
0.023575
0.0261259
0.0287188
0.0313415
0.0339814
0.0366256
0.039261
0.0418743
0.0444523
0.0469815
0.0494485
0.0518402
0.0541435
0.0563455
0.0584339
0.0603967
0.0622224
0.0639002
0.0654199
0.0667723
0.0679488
0.0689419
0.0697451
0.0703529
0.0707611
0.0709664
0.0709668
0.0707616
0.070351
0.0697365
0.0689206
0.0679069
0.0666998
0.0653043
0.0637261
0.0619712
0.0600459
0.0579564
0.0557071
0.0533022
0.0507637
0.0481094
0.0450949
0.041512
0.0263162
0.0223039
0.0189758
0.0160959
0.0133824
0.0108501
0.00851802
0.00638419
0.00444697
0.00270642
0.0011627
-0.000184118
-0.00133411
-0.00228749
-0.00304476
-0.00360673
-0.00397463
-0.00415013
-0.00413534
-0.00393288
-0.00354583
-0.00297777
-0.00223275
-0.00131534
-0.000230658
0.0010157
0.00241758
0.00396832
0.00566077
0.00748722
0.00943948
0.0115089
0.0136862
0.0159617
0.0183253
0.0207664
0.0232739
0.0258363
0.0284418
0.0310782
0.0337329
0.0363931
0.0390458
0.0416778
0.0442756
0.046826
0.0493153
0.0517304
0.0540579
0.056285
0.0583989
0.0603874
0.0622387
0.0639417
0.0654858
0.0668611
0.0680587
0.0690705
0.0698894
0.0705093
0.0709252
0.071133
0.0711302
0.0709149
0.0704866
0.069846
0.0689946
0.0679349
0.0666705
0.0652054
0.0635445
0.0616927
0.0596555
0.0574384
0.0550452
0.0524793
0.0497639
0.0469181
0.0436782
0.0398212
0.027491
0.0232092
0.0196619
0.0165979
0.013716
0.0110319
0.00856519
0.00631312
0.00427291
0.00244358
0.000824173
-0.00058639
-0.0017893
-0.00278587
-0.00357766
-0.00416649
-0.0045545
-0.00474423
-0.00473861
-0.00454094
-0.00415494
-0.00358475
-0.00283492
-0.00191043
-0.000816733
0.000440271
0.00185421
0.00341826
0.0051251
0.00696696
0.0089356
0.0110223
0.0132179
0.0155127
0.0178966
0.020359
0.022889
0.0254751
0.0281055
0.0307681
0.0334503
0.0361394
0.0388224
0.0414859
0.0441165
0.0467008
0.0492251
0.051676
0.0540401
0.0563041
0.058455
0.0604804
0.062368
0.0641063
0.0656842
0.0670913
0.0683182
0.0693561
0.0701973
0.0708349
0.0712633
0.0714777
0.0714746
0.0712514
0.0708067
0.0701403
0.0692529
0.0681462
0.0668227
0.0652857
0.0635392
0.0615875
0.0594354
0.0570877
0.0545478
0.0518188
0.0489251
0.0458871
0.0424227
0.0382938
0.0284363
0.0238886
0.0201244
0.0168773
0.0138276
0.0109915
0.00838955
0.0060182
0.00387373
0.00195424
0.000257782
-0.00121774
-0.00247453
-0.00351493
-0.00434146
-0.00495688
-0.00536421
-0.00556682
-0.00556837
-0.00537286
-0.00498465
-0.00440841
-0.00364918
-0.00271236
-0.00160376
-0.000329579
0.00110356
0.00268863
0.00441816
0.00628428
0.00827866
0.0103925
0.0126167
0.0149415
0.0173568
0.019852
0.0224163
0.0250381
0.0277058
0.0304071
0.0331296
0.0358605
0.0385866
0.0412946
0.0439709
0.046602
0.0491741
0.0516735
0.0540864
0.0563995
0.0585994
0.060673
0.062608
0.064392
0.0660137
0.067462
0.0687269
0.0697989
0.0706697
0.0713316
0.0717781
0.0720039
0.0720044
0.0717764
0.0713176
0.0706269
0.0697041
0.0685501
0.0671668
0.0655566
0.0637228
0.061669
0.0593997
0.0569191
0.0542304
0.0513364
0.0482629
0.0450319
0.0413429
0.0369433
0.0291359
0.0243251
0.0203458
0.0169167
0.0136995
0.0107115
0.00797412
0.00548299
0.00323364
0.00122332
-0.00055076
-0.00209165
-0.00340249
-0.00448655
-0.00534727
-0.00598826
-0.00641341
-0.00662684
-0.00663296
-0.00643643
-0.00604221
-0.00545552
-0.00468187
-0.0037271
-0.00259738
-0.00129923
0.000160477
0.00177449
0.00353519
0.00543454
0.00746412
0.00961509
0.0118782
0.0142437
0.0167015
0.0192411
0.0218515
0.0245212
0.0272384
0.0299911
0.0327666
0.035552
0.0383342
0.0410997
0.0438348
0.0465257
0.0491585
0.0517191
0.0541937
0.0565682
0.0588291
0.0609629
0.0629565
0.0647974
0.0664733
0.0679728
0.069285
0.0703998
0.0713082
0.0720016
0.0724729
0.0727157
0.0727248
0.072496
0.0720262
0.0713135
0.070357
0.0691567
0.0677137
0.0660298
0.0641077
0.0619506
0.0595624
0.0569472
0.0541078
0.051047
0.0477924
0.0443671
0.0404529
0.0357821
0.0295742
0.0245021
0.0203089
0.0166986
0.0133145
0.0101749
0.00730207
0.00469111
0.00233679
0.000235616
-0.00161601
-0.00322198
-0.00458631
-0.00571314
-0.00660676
-0.00727163
-0.00771241
-0.00793399
-0.00794146
-0.00774016
-0.00733561
-0.00673359
-0.00594009
-0.00496137
-0.00380398
-0.00247475
-0.000980838
0.000670278
0.00247078
0.00441249
0.00648686
0.00868495
0.0109974
0.0134145
0.0159261
0.0185215
0.0211898
0.0239195
0.0266987
0.0295153
0.0323565
0.0352094
0.0380608
0.0408969
0.043704
0.0464679
0.0491745
0.0518095
0.0543585
0.0568072
0.0591416
0.0613478
0.0634121
0.0653212
0.0670625
0.0686237
0.0699933
0.0711604
0.072115
0.0728481
0.0733514
0.0736178
0.0736412
0.0734166
0.0729401
0.0722088
0.0712211
0.0699763
0.0684747
0.0667176
0.0647071
0.062446
0.0599378
0.0571866
0.0541949
0.0509657
0.0475281
0.0439071
0.039766
0.0348225
0.0297359
0.0244035
0.0199972
0.0162061
0.0126556
0.00936466
0.00635665
0.00362615
0.0011672
-0.00102435
-0.00295285
-0.00462299
-0.00603959
-0.00720763
-0.00813221
-0.00881858
-0.00927217
-0.00949859
-0.00950363
-0.00929324
-0.00887354
-0.00825084
-0.00743161
-0.00642254
-0.00523056
-0.00386284
-0.00232681
-0.000630199
0.00121897
0.00321235
0.00534125
0.00759662
0.00996903
0.0124486
0.0150252
0.0176881
0.0204262
0.023228
0.0260817
0.0289748
0.0318946
0.0348281
0.0377618
0.0406819
0.0435742
0.0464246
0.0492184
0.051941
0.0545777
0.0571138
0.0595347
0.0618259
0.0639732
0.0659627
0.067781
0.0694152
0.0708528
0.0720824
0.0730929
0.0738745
0.0744181
0.0747156
0.0747601
0.0745457
0.0740675
0.0733219
0.0723064
0.0710198
0.0694615
0.0676325
0.0655341
0.0631689
0.0605402
0.0576519
0.0545066
0.0511073
0.0474848
0.0436659
0.0392956
0.0340765
0.0296059
0.0240133
0.019394
0.0154224
0.0117057
0.00826376
0.00512101
0.00227152
-0.000291318
-0.00257231
-0.00457649
-0.00630932
-0.00777639
-0.00898347
-0.00993643
-0.0106413
-0.0111043
-0.0113316
-0.0113299
-0.0111055
-0.0106653
-0.0100161
-0.00916485
-0.00811863
-0.00688478
-0.0054708
-0.00388445
-0.00213368
-0.000226745
0.00182782
0.00402118
0.00634414
0.00878716
0.0113403
0.0139933
0.0167353
0.0195553
0.0224415
0.0253821
0.0283646
0.031376
0.0344032
0.0374326
0.04045
0.0434412
0.0463916
0.0492863
0.0521102
0.0548482
0.0574852
0.060006
0.0623954
0.0646387
0.0667213
0.068629
0.070348
0.0718653
0.0731682
0.0742451
0.075085
0.075678
0.0760151
0.0760883
0.0758908
0.0754171
0.0746624
0.0736237
0.0722988
0.0706867
0.0687875
0.0666026
0.0641338
0.0613844
0.0583583
0.055058
0.0514867
0.0476772
0.0436578
0.039055
0.0335563
0.0291689
0.0233153
0.0184827
0.0143305
0.0104477
0.00685508
0.00357814
0.000610442
-0.00205525
-0.00442435
-0.00650257
-0.00829608
-0.00981126
-0.0110546
-0.0120328
-0.0127526
-0.0132209
-0.0134447
-0.0134312
-0.0131875
-0.012721
-0.0120389
-0.0111488
-0.0100582
-0.00877483
-0.0073065
-0.00566128
-0.00384741
-0.00187337
0.00025213
0.00252006
0.0049211
0.00744558
0.0100835
0.0128243
0.0156573
0.0185712
0.0215543
0.0245945
0.0276792
0.0307953
0.0339296
0.0370681
0.0401966
0.0433005
0.0463648
0.0493743
0.0523136
0.055167
0.0579188
0.0605533
0.0630547
0.0654076
0.0675966
0.0696067
0.0714234
0.0730325
0.0744206
0.0755751
0.0764841
0.0771366
0.0775226
0.0776332
0.0774607
0.0769983
0.0762409
0.0751842
0.0738254
0.072163
0.0701966
0.0679268
0.0653555
0.0624857
0.0593212
0.0558647
0.0521196
0.0481204
0.0438974
0.0390582
0.0332744
0.0284091
0.0222932
0.0172464
0.0129133
0.00886421
0.00512124
0.00171073
-0.00137423
-0.00414145
-0.00659696
-0.00874714
-0.0105989
-0.0121592
-0.0134356
-0.0144352
-0.0151658
-0.0156348
-0.01585
-0.0158192
-0.0155503
-0.015051
-0.0143293
-0.0133931
-0.0122505
-0.0109094
-0.00937829
-0.00766534
-0.00577912
-0.00372833
-0.00152192
0.000830921
0.00332072
0.00593767
0.00867161
0.011512
0.0144479
0.017468
0.0205604
0.023713
0.026913
0.0301472
0.033402
0.0366634
0.0399168
0.0431474
0.0463399
0.0494785
0.0525475
0.0555307
0.0584119
0.0611745
0.0638023
0.066279
0.0685885
0.0707148
0.0726426
0.0743567
0.0758428
0.0770872
0.0780769
0.0787999
0.0792453
0.079403
0.0792642
0.0788214
0.0780682
0.0769999
0.0756126
0.0739043
0.071874
0.0695219
0.0668496
0.0638599
0.0605568
0.0569428
0.0530218
0.0488302
0.0444001
0.0393194
0.0332443
0.0273104
0.0209301
0.0156678
0.011153
0.0069376
0.00304446
-0.000498966
-0.00370004
-0.00656722
-0.00910712
-0.0113268
-0.0132338
-0.014836
-0.0161414
-0.0171582
-0.0178947
-0.0183592
-0.0185602
-0.0185061
-0.0182054
-0.0176664
-0.0168977
-0.0159077
-0.0147049
-0.0132978
-0.011695
-0.00990507
-0.00793692
-0.00579949
-0.00350191
-0.00105358
0.00153587
0.0042565
0.00709801
0.0100498
0.0131007
0.0162393
0.0194538
0.0227317
0.0260601
0.0294258
0.0328149
0.0362131
0.0396057
0.0429773
0.0463124
0.049595
0.0528085
0.0559364
0.0589618
0.0618676
0.0646368
0.0672522
0.0696969
0.071954
0.0740072
0.0758404
0.0774381
0.0787856
0.0798688
0.0806745
0.0811907
0.0814061
0.0813111
0.0808969
0.0801563
0.0790835
0.077674
0.075925
0.073835
0.0714037
0.0686324
0.0655238
0.062082
0.0583095
0.0542104
0.0498231
0.0451817
0.0398541
0.0334798
0.0258564
0.0192089
0.0137293
0.00903186
0.00464961
0.000606445
-0.00306917
-0.00638509
-0.00935041
-0.0119723
-0.0142586
-0.0162174
-0.0178575
-0.0191877
-0.0202168
-0.0209539
-0.0214081
-0.0215886
-0.0215045
-0.0211649
-0.0205788
-0.0197553
-0.0187033
-0.0174317
-0.0159496
-0.0142657
-0.0123893
-0.0103293
-0.00809499
-0.00569572
-0.00314108
-0.000440854
0.00239485
0.00535563
0.00843071
0.0116089
0.0148787
0.018228
0.0216443
0.0251146
0.0286254
0.0321626
0.0357118
0.0392579
0.0427853
0.0462779
0.0497194
0.0530927
0.0563807
0.0595659
0.0626305
0.0655566
0.0683264
0.0709218
0.0733252
0.0755191
0.0774864
0.0792104
0.0806753
0.0818657
0.0827673
0.0833668
0.083652
0.0836117
0.0832363
0.0825175
0.0814485
0.080024
0.0782404
0.0760956
0.0735889
0.0707212
0.0674951
0.0639146
0.0599825
0.055703
0.0511166
0.0462593
0.0406783
0.0339963
0.0240297
0.0171115
0.0114123
0.00653105
0.00198141
-0.00221169
-0.00601872
-0.00944808
-0.0125095
-0.0152107
-0.0175603
-0.0195672
-0.0212408
-0.0225906
-0.0236266
-0.0243584
-0.0247959
-0.0249491
-0.0248277
-0.0244415
-0.0238002
-0.0229134
-0.0217906
-0.0204412
-0.0188746
-0.0171001
-0.0151271
-0.012965
-0.0106233
-0.0081115
-0.00543944
-0.00261709
0.000345329
0.00343727
0.00664784
0.00996577
0.0133794
0.0168765
0.0204444
0.0240702
0.0277399
0.0314395
0.0351541
0.0388683
0.0425664
0.0462318
0.0498476
0.0533964
0.0568605
0.0602215
0.0634611
0.0665605
0.0695009
0.0722635
0.0748295
0.0771803
0.0792976
0.0811637
0.0827613
0.0840738
0.0850858
0.0857824
0.0861503
0.0861771
0.0858518
0.0851652
0.0841093
0.082678
0.0808668
0.078673
0.0760953
0.0731343
0.0697925
0.0660737
0.061981
0.0575186
0.0527294
0.0476511
0.0418096
0.03481
0.0218121
0.0146192
0.00869791
0.00363123
-0.00108656
-0.00542957
-0.00936721
-0.0129084
-0.0160636
-0.0188412
-0.0212504
-0.0233009
-0.025003
-0.0263672
-0.0274039
-0.0281238
-0.0285375
-0.0286558
-0.0284892
-0.0280482
-0.0273431
-0.026384
-0.0251811
-0.0237442
-0.0220833
-0.020208
-0.018128
-0.0158531
-0.013393
-0.0107576
-0.0079567
-0.0050006
-0.00189962
0.00133557
0.00469398
0.00816423
0.0117345
0.0153926
0.0191257
0.0229205
0.0267633
0.0306394
0.0345341
0.0384315
0.0423155
0.0461692
0.0499753
0.0537158
0.0573722
0.0609258
0.0643572
0.0676469
0.0707752
0.0737222
0.076468
0.0789929
0.0812774
0.0833023
0.0850491
0.0865
0.0876379
0.0884467
0.0889116
0.0890189
0.0887564
0.0881135
0.0870812
0.0856524
0.0838216
0.0815853
0.0789418
0.0758913
0.0724359
0.0685796
0.0643253
0.0596777
0.0546815
0.0493767
0.0432668
0.0359389
0.0191849
0.0117127
0.00556604
0.000312141
-0.0045747
-0.00906763
-0.013135
-0.0167863
-0.0200327
-0.0228833
-0.0253479
-0.0274373
-0.0291625
-0.0305347
-0.0315654
-0.0322662
-0.0326485
-0.0327237
-0.0325033
-0.0319985
-0.0312201
-0.0301792
-0.0288862
-0.0273517
-0.025586
-0.0235992
-0.0214014
-0.0190026
-0.0164129
-0.0136423
-0.010701
-0.00759924
-0.00434761
-0.000956853
0.00256194
0.00619729
0.00993733
0.0137697
0.0176815
0.0216594
0.0256893
0.0297566
0.0338461
0.0379419
0.0420275
0.0460855
0.0500981
0.0540468
0.0579126
0.061676
0.0653168
0.0688146
0.0721488
0.0752983
0.0782421
0.0809593
0.083429
0.0856308
0.0875447
0.0891512
0.0904319
0.0913693
0.0919469
0.0921495
0.0919637
0.0913774
0.0903804
0.0889644
0.0871231
0.0848519
0.0821487
0.079013
0.0754469
0.071454
0.0670374
0.0622019
0.0569945
0.0514572
0.0450703
0.0374022
0.0161282
0.00837124
0.0019958
-0.0034474
-0.00850436
-0.0131473
-0.0173434
-0.0211029
-0.0244376
-0.0273574
-0.029873
-0.0319959
-0.033738
-0.0351115
-0.0361288
-0.0368025
-0.0371448
-0.037168
-0.0368845
-0.0363061
-0.0354445
-0.0343113
-0.0329178
-0.0312748
-0.0293933
-0.0272838
-0.0249568
-0.0224227
-0.0196917
-0.0167741
-0.0136803
-0.0104208
-0.0070062
-0.00344734
0.000244561
0.00405798
0.00798095
0.012001
0.0161053
0.0202803
0.0245118
0.028785
0.0330845
0.0373942
0.0416971
0.0459756
0.0502115
0.0543856
0.0584783
0.0624692
0.0663377
0.0700621
0.0736209
0.076992
0.0801531
0.0830819
0.0857562
0.0881541
0.090254
0.092035
0.0934769
0.0945606
0.0952679
0.0955823
0.0954885
0.094973
0.0940243
0.0926329
0.0907911
0.0884938
0.0857377
0.082522
0.0788483
0.0747203
0.0701408
0.0651149
0.0596918
0.0539156
0.0472425
0.0392212
0.0126209
0.00457337
-0.00203484
-0.00766969
-0.012898
-0.017691
-0.0220149
-0.0258804
-0.0293002
-0.0322851
-0.0348464
-0.0369968
-0.038749
-0.0401164
-0.0411122
-0.0417499
-0.0420429
-0.0420045
-0.0416476
-0.0409851
-0.0400296
-0.0387931
-0.0372877
-0.0355248
-0.0335159
-0.031272
-0.0288039
-0.0261224
-0.023238
-0.0201613
-0.0169027
-0.013473
-0.00988279
-0.00614309
-0.00226515
0.00173945
0.00585871
0.0100802
0.0143908
0.018777
0.0232246
0.0277187
0.0322435
0.0367828
0.0413192
0.0458349
0.050311
0.054728
0.0590656
0.0633026
0.0674176
0.071388
0.0751911
0.0788038
0.0822024
0.0853632
0.0882627
0.0908772
0.0931836
0.0951592
0.0967821
0.0980314
0.0988872
0.0993311
0.0993462
0.0989173
0.0980314
0.0966775
0.0948468
0.0925329
0.0897319
0.0864422
0.0826649
0.0784036
0.0736609
0.0684421
0.0627986
0.0567768
0.0498075
0.0414191
0.00864093
0.000296314
-0.00654908
-0.0123782
-0.0177792
-0.0227224
-0.0271729
-0.031142
-0.0346434
-0.0376886
-0.0402901
-0.0424613
-0.0442161
-0.0455689
-0.0465342
-0.0471264
-0.04736
-0.0472491
-0.0468079
-0.04605
-0.0449888
-0.0436372
-0.0420079
-0.0401129
-0.0379644
-0.0355736
-0.0329521
-0.0301107
-0.0270604
-0.0238119
-0.0203759
-0.0167631
-0.0129845
-0.00905102
-0.00497393
-0.000764859
0.00356419
0.00800073
0.0125317
0.0171436
0.021822
0.0265519
0.0313175
0.0361023
0.0408887
0.0456584
0.0503923
0.0550701
0.0596711
0.0641733
0.0685543
0.0727908
0.0768588
0.080734
0.0843914
0.0878059
0.0909523
0.0938054
0.0963401
0.0985321
0.100357
0.101793
0.102818
0.103411
0.103553
0.103228
0.102421
0.101119
0.0993126
0.0969933
0.0941564
0.0907996
0.0869234
0.0825312
0.0776253
0.072211
0.0663424
0.0600678
0.0527917
0.0440213
0.00416501
-0.004484
-0.0115715
-0.0175978
-0.023173
-0.0282665
-0.0328422
-0.0369123
-0.0404913
-0.0435917
-0.0462269
-0.0484115
-0.0501606
-0.0514897
-0.0524144
-0.0529505
-0.0531134
-0.0529186
-0.052381
-0.0515153
-0.0503359
-0.0488564
-0.0470902
-0.0450503
-0.042749
-0.0401985
-0.0374104
-0.0343961
-0.0311668
-0.0277335
-0.024107
-0.0202983
-0.0163181
-0.0121776
-0.00788811
-0.00346113
0.00109132
0.00575679
0.0105223
0.0153742
0.0202981
0.0252791
0.0303011
0.0353475
0.0404005
0.0454415
0.0504508
0.0554079
0.0602913
0.0650783
0.0697457
0.0742691
0.0786234
0.0827831
0.0867218
0.0904128
0.0938293
0.0969442
0.0997307
0.102162
0.104213
0.105858
0.107074
0.107837
0.108127
0.107925
0.107215
0.105981
0.104213
0.101901
0.099038
0.095622
0.0916525
0.0871323
0.0820636
0.0764518
0.070353
0.0638182
0.0562239
0.0470555
-0.000831619
-0.00979306
-0.017128
-0.0233547
-0.0291059
-0.0343497
-0.0390491
-0.0432172
-0.0468693
-0.0500189
-0.0526807
-0.0548705
-0.0566046
-0.0578997
-0.0587729
-0.0592411
-0.0593211
-0.0590295
-0.0583825
-0.0573956
-0.0560843
-0.0544632
-0.0525465
-0.0503477
-0.0478799
-0.0451558
-0.0421874
-0.0389867
-0.0355649
-0.0319333
-0.028103
-0.0240848
-0.0198897
-0.0155289
-0.0110135
-0.00635502
-0.00156545
0.00334286
0.008357
0.0134634
0.0186478
0.023895
0.0291892
0.0345135
0.0398499
0.0451795
0.0504824
0.0557376
0.0609228
0.0660149
0.0709895
0.0758214
0.0804844
0.0849516
0.0891951
0.0931867
0.0968978
0.100299
0.103363
0.106059
0.10836
0.110239
0.111669
0.112626
0.113087
0.113029
0.112435
0.111288
0.109574
0.107282
0.104406
0.10094
0.0968833
0.092239
0.0870083
0.0811967
0.0748629
0.06806
0.0601356
0.050552
-0.00637519
-0.015658
-0.0232464
-0.0296771
-0.0356059
-0.0410001
-0.0458216
-0.0500841
-0.0538042