/*--------------------------------*- C++ -*----------------------------------*\
  =========                 |
  \\      /  F ield         | OpenFOAM: The Open Source CFD Toolbox
   \\    /   O peration     | Website:  https://openfoam.org
    \\  /    A nd           | Version:  7
     \\/     M anipulation  |
\*---------------------------------------------------------------------------*/
FoamFile
{
    version     2.0;
    format      ascii;
    class       volVectorField;
    location    "0.35";
    object      U;
}
// * * * * * * * * * * * * * * * * * * * * * * * * * * * * * * * * * * * * * //

dimensions      [0 1 -1 0 0 0 0];

internalField   nonuniform List<vector> 
6400
(
(7.09991e-06 -7.39667e-06 0)
(2.95754e-05 -1.45252e-05 0)
(5.91779e-05 -1.42053e-05 0)
(8.05371e-05 -9.7454e-06 0)
(8.53982e-05 -3.43157e-06 0)
(7.05402e-05 3.5411e-06 0)
(3.48446e-05 1.05606e-05 0)
(-2.1656e-05 1.73094e-05 0)
(-9.82069e-05 2.36256e-05 0)
(-0.000193618 2.94279e-05 0)
(-0.000306444 3.46779e-05 0)
(-0.000435087 3.9361e-05 0)
(-0.000577868 4.34759e-05 0)
(-0.000733069 4.70295e-05 0)
(-0.00089896 5.00336e-05 0)
(-0.00107383 5.25031e-05 0)
(-0.00125598 5.44553e-05 0)
(-0.00144377 5.59087e-05 0)
(-0.00163558 5.6883e-05 0)
(-0.00182988 5.73981e-05 0)
(-0.00202516 5.74745e-05 0)
(-0.00222 5.71327e-05 0)
(-0.002413 5.63934e-05 0)
(-0.00260287 5.52769e-05 0)
(-0.00278836 5.3804e-05 0)
(-0.00296829 5.19948e-05 0)
(-0.00314155 4.98696e-05 0)
(-0.0033071 4.74487e-05 0)
(-0.00346394 4.4752e-05 0)
(-0.00361117 4.17994e-05 0)
(-0.00374795 3.86109e-05 0)
(-0.00387351 3.52062e-05 0)
(-0.00398712 3.16054e-05 0)
(-0.00408816 2.78285e-05 0)
(-0.00417606 2.38958e-05 0)
(-0.00425032 1.98278e-05 0)
(-0.00431052 1.56452e-05 0)
(-0.00435629 1.13692e-05 0)
(-0.00438737 7.02091e-06 0)
(-0.00440354 2.6223e-06 0)
(-0.00440468 -1.8044e-06 0)
(-0.00439074 -6.23638e-06 0)
(-0.00436175 -1.06504e-05 0)
(-0.00431781 -1.50226e-05 0)
(-0.00425912 -1.93289e-05 0)
(-0.00418596 -2.35446e-05 0)
(-0.00409869 -2.7645e-05 0)
(-0.00399774 -3.16044e-05 0)
(-0.00388366 -3.53972e-05 0)
(-0.00375706 -3.89972e-05 0)
(-0.00361866 -4.23784e-05 0)
(-0.00346924 -4.55145e-05 0)
(-0.00330969 -4.83796e-05 0)
(-0.00314098 -5.09479e-05 0)
(-0.00296416 -5.31938e-05 0)
(-0.00278036 -5.50922e-05 0)
(-0.00259081 -5.66183e-05 0)
(-0.00239679 -5.77483e-05 0)
(-0.00219968 -5.84597e-05 0)
(-0.00200091 -5.87309e-05 0)
(-0.00180198 -5.85417e-05 0)
(-0.00160446 -5.7873e-05 0)
(-0.00140996 -5.67071e-05 0)
(-0.00122013 -5.50283e-05 0)
(-0.00103668 -5.2823e-05 0)
(-0.000861312 -5.00804e-05 0)
(-0.000695764 -4.67928e-05 0)
(-0.000541763 -4.29557e-05 0)
(-0.000401018 -3.85683e-05 0)
(-0.000275194 -3.36361e-05 0)
(-0.000165874 -2.81738e-05 0)
(-7.45198e-05 -2.22112e-05 0)
(-2.39708e-06 -1.5803e-05 0)
(4.95253e-05 -9.04716e-06 0)
(8.07521e-05 -2.12257e-06 0)
(9.15468e-05 4.63766e-06 0)
(8.33549e-05 1.06086e-05 0)
(5.97431e-05 1.45936e-05 0)
(2.92218e-05 1.43483e-05 0)
(6.87014e-06 6.86767e-06 0)
(1.43649e-05 -3.00221e-05 0)
(5.13775e-05 -5.16286e-05 0)
(8.96668e-05 -4.41322e-05 0)
(0.000103419 -1.91253e-05 0)
(7.6918e-05 1.52955e-05 0)
(2.31553e-06 5.41091e-05 0)
(-0.000124086 9.42402e-05 0)
(-0.000303202 0.000133802 0)
(-0.000533987 0.000171636 0)
(-0.000814075 0.000207028 0)
(-0.00114023 0.000239539 0)
(-0.00150863 0.000268908 0)
(-0.0019151 0.000294991 0)
(-0.00235525 0.000317721 0)
(-0.00282454 0.000337089 0)
(-0.00331843 0.000353122 0)
(-0.00383237 0.000365877 0)
(-0.00436187 0.000375431 0)
(-0.00490254 0.000381876 0)
(-0.00545011 0.000385315 0)
(-0.00600042 0.00038586 0)
(-0.00654947 0.000383628 0)
(-0.00709342 0.000378742 0)
(-0.00762859 0.000371328 0)
(-0.00815147 0.000361513 0)
(-0.00865874 0.000349428 0)
(-0.00914724 0.000335203 0)
(-0.00961402 0.000318971 0)
(-0.0100563 0.000300865 0)
(-0.0104715 0.000281019 0)
(-0.0108572 0.000259566 0)
(-0.0112112 0.000236643 0)
(-0.0115315 0.000212387 0)
(-0.0118163 0.000186935 0)
(-0.012064 0.000160427 0)
(-0.0122731 0.000133004 0)
(-0.0124425 0.000104809 0)
(-0.0125712 7.5988e-05 0)
(-0.0126584 4.6689e-05 0)
(-0.0127035 1.70621e-05 0)
(-0.0127062 -1.27394e-05 0)
(-0.0126663 -4.25596e-05 0)
(-0.0125839 -7.22396e-05 0)
(-0.0124595 -0.000101618 0)
(-0.0122934 -0.000130529 0)
(-0.0120866 -0.000158808 0)
(-0.0118401 -0.000186285 0)
(-0.0115551 -0.00021279 0)
(-0.0112332 -0.000238151 0)
(-0.0108762 -0.000262195 0)
(-0.010486 -0.000284749 0)
(-0.0100649 -0.000305641 0)
(-0.00961541 -0.000324699 0)
(-0.00914029 -0.000341757 0)
(-0.00864247 -0.000356647 0)
(-0.00812517 -0.000369211 0)
(-0.00759179 -0.000379292 0)
(-0.00704596 -0.000386742 0)
(-0.0064915 -0.00039142 0)
(-0.00593241 -0.000393196 0)
(-0.00537285 -0.000391949 0)
(-0.00481715 -0.000387574 0)
(-0.00426975 -0.000379978 0)
(-0.0037352 -0.000369085 0)
(-0.00321809 -0.00035484 0)
(-0.00272309 -0.000337211 0)
(-0.00225484 -0.000316195 0)
(-0.0018179 -0.000291827 0)
(-0.00141674 -0.000264183 0)
(-0.0010556 -0.000233401 0)
(-0.000738418 -0.000199703 0)
(-0.00046866 -0.000163427 0)
(-0.000249117 -0.000125092 0)
(-8.16139e-05 -8.54897e-05 0)
(3.34199e-05 -4.58484e-05 0)
(9.75714e-05 -8.10354e-06 0)
(0.000115222 2.46604e-05 0)
(9.48415e-05 4.74933e-05 0)
(5.26036e-05 5.25562e-05 0)
(1.43471e-05 2.91988e-05 0)
(1.42506e-05 -5.95043e-05 0)
(4.44708e-05 -8.99769e-05 0)
(6.11563e-05 -6.05136e-05 0)
(3.54933e-05 6.69195e-06 0)
(-5.08921e-05 9.62221e-05 0)
(-0.000208219 0.000197423 0)
(-0.000441821 0.000303066 0)
(-0.000753404 0.000408316 0)
(-0.00114194 0.000509952 0)
(-0.0016044 0.00060583 0)
(-0.0021364 0.000694537 0)
(-0.00273253 0.000775157 0)
(-0.00338673 0.00084712 0)
(-0.00409251 0.000910106 0)
(-0.00484309 0.000963969 0)
(-0.00563158 0.00100869 0)
(-0.00645103 0.00104436 0)
(-0.00729454 0.00107113 0)
(-0.00815529 0.00108921 0)
(-0.00902664 0.00109884 0)
(-0.00990209 0.00110031 0)
(-0.0107754 0.00109392 0)
(-0.0116404 0.00108001 0)
(-0.0124914 0.00105891 0)
(-0.0133228 0.00103097 0)
(-0.0141294 0.00099655 0)
(-0.0149061 0.000956019 0)
(-0.0156482 0.000909746 0)
(-0.0163514 0.000858108 0)
(-0.0170114 0.000801486 0)
(-0.0176245 0.000740264 0)
(-0.0181872 0.00067483 0)
(-0.0186963 0.000605577 0)
(-0.0191488 0.000532902 0)
(-0.0195423 0.000457206 0)
(-0.0198744 0.000378897 0)
(-0.0201433 0.000298388 0)
(-0.0203475 0.000216098 0)
(-0.0204855 0.000132456 0)
(-0.0205566 4.78926e-05 0)
(-0.0205603 -3.71493e-05 0)
(-0.0204963 -0.000122222 0)
(-0.0203648 -0.000206868 0)
(-0.0201663 -0.000290626 0)
(-0.0199018 -0.000373025 0)
(-0.0195726 -0.000453588 0)
(-0.0191803 -0.000531833 0)
(-0.018727 -0.000607277 0)
(-0.0182151 -0.000679429 0)
(-0.0176475 -0.000747801 0)
(-0.0170273 -0.000811904 0)
(-0.0163581 -0.000871253 0)
(-0.015644 -0.000925366 0)
(-0.0148893 -0.000973773 0)
(-0.0140986 -0.00101601 0)
(-0.013277 -0.00105164 0)
(-0.0124299 -0.00108022 0)
(-0.0115631 -0.00110135 0)
(-0.0106824 -0.00111464 0)
(-0.00979434 -0.00111975 0)
(-0.00890527 -0.00111636 0)
(-0.00802199 -0.0011042 0)
(-0.00715141 -0.00108303 0)
(-0.00630057 -0.00105267 0)
(-0.00547659 -0.00101303 0)
(-0.00468662 -0.000964071 0)
(-0.00393772 -0.000905848 0)
(-0.00323683 -0.000838541 0)
(-0.00259061 -0.000762472 0)
(-0.00200533 -0.000678152 0)
(-0.00148669 -0.000586346 0)
(-0.00103957 -0.000488167 0)
(-0.000667753 -0.000385221 0)
(-0.000373478 -0.000279828 0)
(-0.000156923 -0.000175354 0)
(-1.54633e-05 -7.67152e-05 0)
(5.71449e-05 8.89221e-06 0)
(7.19252e-05 7.10433e-05 0)
(4.79661e-05 9.49097e-05 0)
(1.4675e-05 5.97838e-05 0)
(1.00364e-05 -8.12149e-05 0)
(2.03526e-05 -0.000104422 0)
(-4.35943e-06 -3.51926e-05 0)
(-9.0865e-05 9.3633e-05 0)
(-0.00025731 0.000259286 0)
(-0.000514644 0.00044522 0)
(-0.000868775 0.000639572 0)
(-0.00132166 0.000833987 0)
(-0.00187214 0.00102261 0)
(-0.00251669 0.00120137 0)
(-0.00325002 0.00136745 0)
(-0.00406553 0.00151895 0)
(-0.00495569 0.0016546 0)
(-0.00591233 0.00177365 0)
(-0.00692685 0.00187567 0)
(-0.0079904 0.00196052 0)
(-0.00909403 0.00202826 0)
(-0.0102288 0.00207909 0)
(-0.0113857 0.00211336 0)
(-0.0125561 0.00213147 0)
(-0.0137315 0.00213393 0)
(-0.0149035 0.00212128 0)
(-0.0160642 0.00209413 0)
(-0.0172057 0.00205311 0)
(-0.0183208 0.00199886 0)
(-0.0194024 0.00193208 0)
(-0.0204439 0.00185345 0)
(-0.0214389 0.0017637 0)
(-0.0223815 0.00166353 0)
(-0.0232663 0.00155369 0)
(-0.024088 0.00143492 0)
(-0.0248421 0.00130798 0)
(-0.0255243 0.00117362 0)
(-0.0261305 0.00103262 0)
(-0.0266575 0.000885757 0)
(-0.0271023 0.000733833 0)
(-0.0274622 0.000577652 0)
(-0.0277352 0.000418032 0)
(-0.0279197 0.000255804 0)
(-0.0280144 9.18139e-05 0)
(-0.0280187 -7.30784e-05 0)
(-0.0279322 -0.000238 0)
(-0.0277553 -0.000402063 0)
(-0.0274888 -0.000564369 0)
(-0.0271338 -0.000724004 0)
(-0.0266921 -0.000880046 0)
(-0.0261659 -0.00103156 0)
(-0.0255581 -0.00117762 0)
(-0.0248719 -0.00131726 0)
(-0.0241111 -0.00144956 0)
(-0.02328 -0.00157357 0)
(-0.0223834 -0.00168836 0)
(-0.0214266 -0.001793 0)
(-0.0204154 -0.00188661 0)
(-0.0193561 -0.00196829 0)
(-0.0182554 -0.00203721 0)
(-0.0171204 -0.00209255 0)
(-0.0159588 -0.00213354 0)
(-0.0147785 -0.00215947 0)
(-0.0135878 -0.0021697 0)
(-0.0123953 -0.00216364 0)
(-0.01121 -0.0021408 0)
(-0.0100407 -0.00210079 0)
(-0.00889687 -0.00204332 0)
(-0.00778766 -0.00196825 0)
(-0.00672235 -0.00187559 0)
(-0.00571008 -0.00176555 0)
(-0.00475971 -0.00163857 0)
(-0.00387972 -0.00149539 0)
(-0.003078 -0.00133711 0)
(-0.00236162 -0.00116534 0)
(-0.00173657 -0.000982343 0)
(-0.00120737 -0.000791259 0)
(-0.00077661 -0.000596461 0)
(-0.000444432 -0.00040403 0)
(-0.000207775 -0.000222435 0)
(-5.96361e-05 -6.34618e-05 0)
(1.1924e-05 5.67114e-05 0)
(2.61009e-05 0.000116158 0)
(1.09017e-05 8.38242e-05 0)
(4.01029e-06 -8.70389e-05 0)
(-1.30358e-05 -7.95313e-05 0)
(-9.20093e-05 4.99467e-05 0)
(-0.000253984 0.000259645 0)
(-0.000514802 0.000520169 0)
(-0.000884909 0.00080946 0)
(-0.00136988 0.00111112 0)
(-0.00197134 0.00141317 0)
(-0.0026877 0.00170689 0)
(-0.00351485 0.001986 0)
(-0.00444671 0.00224601 0)
(-0.00547564 0.00248377 0)
(-0.00659292 0.00269714 0)
(-0.00778898 0.00288472 0)
(-0.00905369 0.00304569 0)
(-0.0103766 0.00317968 0)
(-0.011747 0.00328666 0)
(-0.0131541 0.00336684 0)
(-0.0145874 0.00342068 0)
(-0.0160361 0.00344876 0)
(-0.0174901 0.00345181 0)
(-0.0189392 0.00343067 0)
(-0.0203737 0.00338625 0)
(-0.0217841 0.00331953 0)
(-0.0231615 0.00323153 0)
(-0.0244972 0.00312333 0)
(-0.025783 0.00299604 0)
(-0.0270114 0.00285078 0)
(-0.0281749 0.00268871 0)
(-0.0292668 0.00251101 0)
(-0.0302808 0.00231889 0)
(-0.0312112 0.00211355 0)
(-0.0320526 0.00189623 0)
(-0.0328004 0.00166819 0)
(-0.0334503 0.00143068 0)
(-0.0339986 0.001185 0)
(-0.0344421 0.00093246 0)
(-0.0347784 0.000674382 0)
(-0.0350054 0.000412117 0)
(-0.0351216 0.000147037 0)
(-0.0351262 -0.000119467 0)
(-0.035019 -0.000385978 0)
(-0.0348002 -0.000651063 0)
(-0.0344708 -0.000913265 0)
(-0.0340324 -0.00117111 0)
(-0.033487 -0.00142311 0)
(-0.0328376 -0.00166776 0)
(-0.0320875 -0.00190356 0)
(-0.0312408 -0.00212898 0)
(-0.0303021 -0.00234251 0)
(-0.0292767 -0.00254265 0)
(-0.0281706 -0.0027279 0)
(-0.0269903 -0.0028968 0)
(-0.0257428 -0.00304791 0)
(-0.0244358 -0.00317983 0)
(-0.0230776 -0.00329123 0)
(-0.0216769 -0.00338081 0)
(-0.020243 -0.00344738 0)
(-0.0187855 -0.00348982 0)
(-0.0173145 -0.00350714 0)
(-0.0158406 -0.00349843 0)
(-0.0143743 -0.00346298 0)
(-0.0129267 -0.0034002 0)
(-0.0115089 -0.00330971 0)
(-0.010132 -0.00319137 0)
(-0.00880712 -0.0030453 0)
(-0.00754505 -0.00287192 0)
(-0.00635636 -0.00267207 0)
(-0.00525103 -0.00244707 0)
(-0.00423829 -0.0021988 0)
(-0.00332638 -0.00192996 0)
(-0.00252223 -0.00164422 0)
(-0.00183104 -0.00134656 0)
(-0.0012559 -0.00104369 0)
(-0.000797236 -0.00074465 0)
(-0.000452163 -0.000461583 0)
(-0.000213841 -0.000210798 0)
(-7.06217e-05 -1.38999e-05 0)
(-5.24256e-06 0.000100691 0)
(5.25864e-06 9.31087e-05 0)
(-2.6705e-06 -7.37465e-05 0)
(-5.09384e-05 -7.36266e-06 0)
(-0.000191884 0.000205435 0)
(-0.000438734 0.000516272 0)
(-0.000803595 0.00089021 0)
(-0.00129547 0.00130033 0)
(-0.00191885 0.00172606 0)
(-0.00267446 0.00215189 0)
(-0.00355996 0.00256625 0)
(-0.00457046 0.00296051 0)
(-0.00569902 0.00332838 0)
(-0.00693706 0.00366531 0)
(-0.00827476 0.00396808 0)
(-0.00970136 0.00423457 0)
(-0.0112054 0.00446342 0)
(-0.012775 0.00465394 0)
(-0.014398 0.00480594 0)
(-0.0160622 0.00491962 0)
(-0.0177552 0.00499549 0)
(-0.019465 0.00503433 0)
(-0.0211797 0.00503711 0)
(-0.0228876 0.00500495 0)
(-0.0245774 0.00493913 0)
(-0.0262382 0.00484101 0)
(-0.0278595 0.00471204 0)
(-0.0294313 0.00455375 0)
(-0.0309441 0.00436773 0)
(-0.0323888 0.00415559 0)
(-0.0337571 0.00391902 0)
(-0.0350409 0.00365971 0)
(-0.036233 0.0033794 0)
(-0.0373265 0.00307986 0)
(-0.0383154 0.00276289 0)
(-0.039194 0.0024303 0)
(-0.0399574 0.00208396 0)
(-0.0406014 0.00172573 0)
(-0.0411223 0.00135754 0)
(-0.041517 0.000981313 0)
(-0.0417832 0.000599026 0)
(-0.0419192 0.000212678 0)
(-0.0419242 -0.000175699 0)
(-0.0417976 -0.000564041 0)
(-0.0415401 -0.000950256 0)
(-0.0411526 -0.00133223 0)
(-0.040637 -0.00170781 0)
(-0.0399959 -0.00207483 0)
(-0.0392325 -0.00243112 0)
(-0.0383509 -0.00277449 0)
(-0.0373557 -0.00310273 0)
(-0.0362525 -0.00341365 0)
(-0.0350475 -0.00370509 0)
(-0.0337475 -0.00397489 0)
(-0.0323601 -0.00422093 0)
(-0.0308937 -0.00444115 0)
(-0.0293571 -0.00463355 0)
(-0.0277599 -0.0047962 0)
(-0.0261123 -0.00492728 0)
(-0.024425 -0.00502509 0)
(-0.0227093 -0.00508806 0)
(-0.0209768 -0.00511477 0)
(-0.0192396 -0.005104 0)
(-0.01751 -0.00505477 0)
(-0.0158008 -0.0049663 0)
(-0.0141246 -0.00483815 0)
(-0.0124941 -0.00467019 0)
(-0.0109221 -0.0044627 0)
(-0.0094209 -0.00421644 0)
(-0.00800245 -0.00393274 0)
(-0.00667805 -0.0036136 0)
(-0.00545815 -0.00326188 0)
(-0.00435201 -0.00288152 0)
(-0.00336748 -0.00247778 0)
(-0.00251054 -0.00205765 0)
(-0.00178496 -0.00163031 0)
(-0.00119179 -0.00120778 0)
(-0.000728931 -0.000805816 0)
(-0.000390433 -0.000444922 0)
(-0.000165869 -0.000151553 0)
(-4.13312e-05 4.0357e-05 0)
(-1.0979e-06 8.42848e-05 0)
(-9.44635e-06 -4.00882e-05 0)
(-9.05918e-05 0.000116269 0)
(-0.000297592 0.000437527 0)
(-0.000634817 0.000870818 0)
(-0.00110978 0.00137688 0)
(-0.00172933 0.00192472 0)
(-0.00249629 0.00249008 0)
(-0.00341002 0.00305423 0)
(-0.00446704 0.00360283 0)
(-0.00566149 0.00412499 0)
(-0.00698546 0.00461253 0)
(-0.00842938 0.00505941 0)
(-0.00998238 0.0054613 0)
(-0.0116326 0.0058152 0)
(-0.0133673 0.00611917 0)
(-0.0151736 0.00637212 0)
(-0.0170377 0.00657363 0)
(-0.0189463 0.00672384 0)
(-0.0208856 0.00682333 0)
(-0.0228421 0.00687302 0)
(-0.0248025 0.00687413 0)
(-0.0267538 0.00682811 0)
(-0.0286833 0.0067366 0)
(-0.0305788 0.0066014 0)
(-0.0324285 0.00642442 0)
(-0.034221 0.00620771 0)
(-0.0359457 0.00595336 0)
(-0.0375924 0.00566357 0)
(-0.0391516 0.00534059 0)
(-0.0406142 0.00498673 0)
(-0.041972 0.00460433 0)
(-0.0432174 0.0041958 0)
(-0.0443434 0.00376358 0)
(-0.0453437 0.00331014 0)
(-0.0462128 0.002838 0)
(-0.0469457 0.00234974 0)
(-0.0475384 0.00184794 0)
(-0.0479874 0.00133526 0)
(-0.0482901 0.000814374 0)
(-0.0484446 0.000288011 0)
(-0.0484499 -0.00024106 0)
(-0.0483056 -0.000770033 0)
(-0.0480121 -0.00129606 0)
(-0.0475708 -0.00181626 0)
(-0.0469837 -0.00232772 0)
(-0.0462537 -0.00282751 0)
(-0.0453845 -0.00331265 0)
(-0.0443808 -0.00378019 0)
(-0.0432478 -0.00422715 0)
(-0.0419917 -0.00465058 0)
(-0.0406196 -0.00504752 0)
(-0.0391392 -0.00541508 0)
(-0.037559 -0.00575041 0)
(-0.0358885 -0.00605074 0)
(-0.0341377 -0.00631338 0)
(-0.0323173 -0.00653575 0)
(-0.0304388 -0.00671543 0)
(-0.0285142 -0.00685015 0)
(-0.0265561 -0.00693783 0)
(-0.0245776 -0.00697663 0)
(-0.0225923 -0.00696497 0)
(-0.0206139 -0.00690156 0)
(-0.0186566 -0.00678547 0)
(-0.0167344 -0.00661618 0)
(-0.0148617 -0.00639364 0)
(-0.0130525 -0.00611834 0)
(-0.0113205 -0.00579142 0)
(-0.00967881 -0.00541479 0)
(-0.00814006 -0.00499125 0)
(-0.00671575 -0.00452475 0)
(-0.00541621 -0.00402056 0)
(-0.00425022 -0.00348564 0)
(-0.00322468 -0.00292903 0)
(-0.00234426 -0.0023624 0)
(-0.00161103 -0.00180067 0)
(-0.00102412 -0.00126292 0)
(-0.00057908 -0.000773425 0)
(-0.000267388 -0.000362767 0)
(-7.93677e-05 -6.92569e-05 0)
(-7.59352e-06 5.59809e-05 0)
(-1.60548e-05 1.41958e-05 0)
(-0.000130432 0.000293193 0)
(-0.000405156 0.000749488 0)
(-0.000835478 0.00132746 0)
(-0.00142386 0.00198468 0)
(-0.00217458 0.0026869 0)
(-0.00308832 0.00340676 0)
(-0.00416266 0.00412267 0)
(-0.00539273 0.00481777 0)
(-0.00677142 0.00547899 0)
(-0.0082897 0.00609634 0)
(-0.00993695 0.0066623 0)
(-0.0117012 0.00717135 0)
(-0.0135696 0.00761961 0)
(-0.0155282 0.00800446 0)
(-0.0175629 0.0083244 0)
(-0.019659 0.00857874 0)
(-0.0218017 0.00876753 0)
(-0.0239761 0.00889136 0)
(-0.0261674 0.00895133 0)
(-0.0283612 0.00894889 0)
(-0.0305431 0.00888583 0)
(-0.0326992 0.00876417 0)
(-0.0348162 0.00858618 0)
(-0.036881 0.00835428 0)
(-0.0388812 0.00807104 0)
(-0.0408051 0.00773917 0)
(-0.0426414 0.00736147 0)
(-0.0443796 0.00694083 0)
(-0.0460098 0.00648021 0)
(-0.0475229 0.00598266 0)
(-0.0489105 0.00545127 0)
(-0.0501648 0.0048892 0)
(-0.0512789 0.00429967 0)
(-0.0522468 0.00368594 0)
(-0.0530629 0.00305133 0)
(-0.0537228 0.00239923 0)
(-0.0542226 0.00173306 0)
(-0.0545596 0.0010563 0)
(-0.0547316 0.000372494 0)
(-0.0547374 -0.000314769 0)
(-0.0545766 -0.00100185 0)
(-0.0542499 -0.00168506 0)
(-0.0537585 -0.00236066 0)
(-0.0531049 -0.0030249 0)
(-0.0522922 -0.00367395 0)
(-0.0513245 -0.00430401 0)
(-0.0502069 -0.00491124 0)
(-0.0489453 -0.0054918 0)
(-0.0475464 -0.00604187 0)
(-0.0460181 -0.00655768 0)
(-0.0443689 -0.00703548 0)
(-0.0426082 -0.00747163 0)
(-0.0407463 -0.00786255 0)
(-0.0387943 -0.00820482 0)
(-0.036764 -0.00849515 0)
(-0.034668 -0.00873044 0)
(-0.0325195 -0.00890781 0)
(-0.0303323 -0.00902465 0)
(-0.0281208 -0.00907863 0)
(-0.0258997 -0.00906779 0)
(-0.0236843 -0.00899056 0)
(-0.0214898 -0.00884583 0)
(-0.0193319 -0.00863303 0)
(-0.0172259 -0.00835219 0)
(-0.0151872 -0.00800407 0)
(-0.0132307 -0.00759022 0)
(-0.0113709 -0.00711321 0)
(-0.00962132 -0.00657671 0)
(-0.00799468 -0.00598578 0)
(-0.00650233 -0.00534711 0)
(-0.00515411 -0.00466937 0)
(-0.003958 -0.00396363 0)
(-0.00291981 -0.00324395 0)
(-0.00204296 -0.00252795 0)
(-0.00132817 -0.00183772 0)
(-0.000772953 -0.00120078 0)
(-0.00037114 -0.000651066 0)
(-0.000117744 -0.000230182 0)
(-1.39514e-05 7.8397e-06 0)
(-2.23858e-05 8.88096e-05 0)
(-0.000169609 0.000523702 0)
(-0.000512191 0.00114248 0)
(-0.00103642 0.00188809 0)
(-0.00173959 0.00271592 0)
(-0.00262311 0.00358924 0)
(-0.00368522 0.00447816 0)
(-0.00492147 0.00535866 0)
(-0.00632527 0.00621163 0)
(-0.00788809 0.00702202 0)
(-0.00959962 0.00777813 0)
(-0.0114481 0.00847101 0)
(-0.0134204 0.00909399 0)
(-0.0155025 0.00964228 0)
(-0.0176796 0.0101126 0)
(-0.0199362 0.010503 0)
(-0.0222568 0.0108125 0)
(-0.0246252 0.011041 0)
(-0.0270256 0.0111892 0)
(-0.029442 0.0112582 0)
(-0.0318589 0.0112499 0)
(-0.0342607 0.0111662 0)
(-0.0366325 0.0110098 0)
(-0.0389599 0.0107832 0)
(-0.0412287 0.0104895 0)
(-0.0434256 0.0101319 0)
(-0.0455379 0.00971359 0)
(-0.0475533 0.00923812 0)
(-0.0494605 0.00870907 0)
(-0.0512488 0.00813012 0)
(-0.0529082 0.00750504 0)
(-0.0544297 0.00683771 0)
(-0.0558049 0.00613207 0)
(-0.0570262 0.00539213 0)
(-0.058087 0.00462197 0)
(-0.0589815 0.00382575 0)
(-0.0597047 0.0030077 0)
(-0.0602526 0.00217211 0)
(-0.060622 0.00132333 0)
(-0.0608106 0.000465796 0)
(-0.0608173 -0.00039601 0)
(-0.0606415 -0.00125753 0)
(-0.0602838 -0.00211417 0)
(-0.0597459 -0.00296125 0)
(-0.0590302 -0.00379408 0)
(-0.0581402 -0.0046079 0)
(-0.0570803 -0.00539795 0)
(-0.0558561 -0.00615946 0)
(-0.0544738 -0.00688765 0)
(-0.052941 -0.00757777 0)
(-0.0512659 -0.00822511 0)
(-0.0494578 -0.00882505 0)
(-0.047527 -0.00937304 0)
(-0.0454845 -0.00986468 0)
(-0.0433425 -0.0102957 0)
(-0.0411135 -0.0106621 0)
(-0.0388113 -0.01096 0)
(-0.03645 -0.0111859 0)
(-0.0340446 -0.0113366 0)
(-0.0316107 -0.0114093 0)
(-0.029164 -0.0114016 0)
(-0.026721 -0.0113115 0)
(-0.0242983 -0.011138 0)
(-0.0219125 -0.0108802 0)
(-0.0195803 -0.0105384 0)
(-0.0173181 -0.0101136 0)
(-0.0151422 -0.00960782 0)
(-0.013068 -0.00902426 0)
(-0.0111103 -0.00836752 0)
(-0.00928291 -0.00764379 0)
(-0.00759829 -0.00686117 0)
(-0.00606743 -0.00603001 0)
(-0.00469956 -0.00516334 0)
(-0.00350189 -0.00427742 0)
(-0.00247941 -0.00339235 0)
(-0.00163475 -0.00253285 0)
(-0.000967686 -0.00172916 0)
(-0.00047468 -0.00101785 0)
(-0.000155577 -0.000442883 0)
(-2.00509e-05 -5.99136e-05 0)
(-2.84054e-05 0.000183178 0)
(-0.000207698 0.000807173 0)
(-0.000617332 0.00161631 0)
(-0.00123502 0.00255301 0)
(-0.00205295 0.00357129 0)
(-0.00306955 0.00463262 0)
(-0.00428043 0.00570511 0)
(-0.00567888 0.00676271 0)
(-0.00725641 0.00778441 0)
(-0.00900287 0.00875338 0)
(-0.0109065 0.00965637 0)
(-0.0129543 0.0104831 0)
(-0.015132 0.0112258 0)
(-0.0174243 0.0118788 0)
(-0.0198154 0.0124383 0)
(-0.0222888 0.0129017 0)
(-0.0248277 0.0132678 0)
(-0.0274151 0.0135364 0)
(-0.0300341 0.0137082 0)
(-0.0326676 0.0137846 0)
(-0.035299 0.0137676 0)
(-0.037912 0.0136595 0)
(-0.0404904 0.0134634 0)
(-0.0430189 0.0131824 0)
(-0.0454825 0.0128201 0)
(-0.0478669 0.0123803 0)
(-0.0501585 0.0118669 0)
(-0.0523442 0.0112841 0)
(-0.0544119 0.0106363 0)
(-0.0563502 0.00992798 0)
(-0.0581484 0.00916361 0)
(-0.0597969 0.00834792 0)
(-0.0612865 0.0074857 0)
(-0.0626094 0.00658182 0)
(-0.0637584 0.00564125 0)
(-0.0647272 0.00466904 0)
(-0.0655105 0.00367033 0)
(-0.0661041 0.00265034 0)
(-0.0665045 0.00161437 0)
(-0.0667094 0.000567791 0)
(-0.0667173 -0.000483929 0)
(-0.0665278 -0.00153526 0)
(-0.0661415 -0.0025806 0)
(-0.0655601 -0.0036143 0)
(-0.0647863 -0.00463063 0)
(-0.0638238 -0.00562384 0)
(-0.0626774 -0.00658815 0)
(-0.0613527 -0.00751777 0)
(-0.0598568 -0.00840693 0)
(-0.0581975 -0.00924986 0)
(-0.0563837 -0.0100409 0)
(-0.0544254 -0.0107744 0)
(-0.0523333 -0.0114449 0)
(-0.0501195 -0.0120471 0)
(-0.0477967 -0.0125759 0)
(-0.0453784 -0.0130264 0)
(-0.0428793 -0.013394 0)
(-0.0403145 -0.0136745 0)
(-0.0377 -0.013864 0)
(-0.0350522 -0.0139593 0)
(-0.0323882 -0.0139575 0)
(-0.0297253 -0.0138563 0)
(-0.0270813 -0.0136544 0)
(-0.0244739 -0.0133511 0)
(-0.0219209 -0.0129466 0)
(-0.01944 -0.0124422 0)
(-0.0170484 -0.0118404 0)
(-0.0147628 -0.0111451 0)
(-0.012599 -0.0103618 0)
(-0.0105721 -0.00949785 0)
(-0.00869568 -0.00856262 0)
(-0.00698209 -0.0075681 0)
(-0.00544193 -0.00652916 0)
(-0.00408398 -0.00546408 0)
(-0.00291502 -0.00439515 0)
(-0.00193984 -0.00334935 0)
(-0.00116062 -0.00235915 0)
(-0.000576608 -0.00146314 0)
(-0.000192417 -0.000706884 0)
(-2.5852e-05 -0.000146757 0)
(-3.41173e-05 0.000296612 0)
(-0.000244519 0.00114248 0)
(-0.000719874 0.00216992 0)
(-0.0014298 0.00332146 0)
(-0.00236156 0.00455036 0)
(-0.00351056 0.00581683 0)
(-0.00486974 0.00708747 0)
(-0.00642994 0.00833462 0)
(-0.00818065 0.00953563 0)
(-0.0101099 0.0106722 0)
(-0.0122045 0.0117296 0)
(-0.0144499 0.0126965 0)
(-0.0168306 0.013564 0)
(-0.0193302 0.0143257 0)
(-0.0219317 0.0149771 0)
(-0.0246176 0.0155153 0)
(-0.02737 0.0159389 0)
(-0.030171 0.0162474 0)
(-0.0330024 0.0164417 0)
(-0.0358466 0.0165232 0)
(-0.0386856 0.0164943 0)
(-0.0415024 0.0163577 0)
(-0.04428 0.0161168 0)
(-0.047002 0.0157754 0)
(-0.0496526 0.0153376 0)
(-0.0522168 0.0148078 0)
(-0.0546801 0.0141909 0)
(-0.0570287 0.0134916 0)
(-0.0592498 0.0127151 0)
(-0.0613313 0.0118667 0)
(-0.063262 0.0109517 0)
(-0.0650315 0.00997582 0)
(-0.0666304 0.00894465 0)
(-0.0680502 0.00786399 0)
(-0.0692833 0.00673975 0)
(-0.0703231 0.00557794 0)
(-0.071164 0.00438466 0)
(-0.0718015 0.00316611 0)
(-0.0722319 0.0019286 0)
(-0.0724526 0.000678528 0)
(-0.0724623 -0.000577624 0)
(-0.0722604 -0.00183328 0)
(-0.0718476 -0.00308179 0)
(-0.0712257 -0.00431642 0)
(-0.0703974 -0.0055304 0)
(-0.0693666 -0.0067169 0)
(-0.0681385 -0.00786905 0)
(-0.066719 -0.00898 0)
(-0.0651155 -0.0100429 0)
(-0.0633363 -0.0110509 0)
(-0.0613908 -0.0119973 0)
(-0.0592894 -0.0128755 0)
(-0.0570438 -0.0136789 0)
(-0.0546663 -0.0144014 0)
(-0.0521705 -0.0150368 0)
(-0.0495709 -0.0155795 0)
(-0.0468827 -0.016024 0)
(-0.0441219 -0.0163653 0)
(-0.0413055 -0.016599 0)
(-0.0384509 -0.0167212 0)
(-0.035576 -0.0167285 0)
(-0.0326993 -0.0166185 0)
(-0.0298395 -0.0163894 0)
(-0.0270155 -0.0160406 0)
(-0.024246 -0.0155723 0)
(-0.0215499 -0.0149862 0)
(-0.0189454 -0.0142851 0)
(-0.0164505 -0.0134737 0)
(-0.0140822 -0.0125582 0)
(-0.0118567 -0.0115472 0)
(-0.00978904 -0.0104512 0)
(-0.00789286 -0.00928376 0)
(-0.00618034 -0.00806143 0)
(-0.00466198 -0.00680431 0)
(-0.00334654 -0.00553658 0)
(-0.00224107 -0.00428716 0)
(-0.00135028 -0.0030903 0)
(-0.000676207 -0.00198612 0)
(-0.000228077 -0.0010212 0)
(-3.13552e-05 -0.000252044 0)
(-3.95428e-05 0.000428394 0)
(-0.000280038 0.00152826 0)
(-0.00081953 0.0028018 0)
(-0.00162003 0.00419206 0)
(-0.00266412 0.00565196 0)
(-0.00394426 0.00714093 0)
(-0.00545064 0.00862446 0)
(-0.00717163 0.0100736 0)
(-0.00909455 0.0114644 0)
(-0.0112056 0.0127773 0)
(-0.0134898 0.0139964 0)
(-0.0159312 0.0151092 0)
(-0.018513 0.0161062 0)
(-0.0212174 0.01698 0)
(-0.0240264 0.0177257 0)
(-0.0269213 0.01834 0)
(-0.0298833 0.0188212 0)
(-0.0328933 0.0191689 0)
(-0.0359324 0.0193839 0)
(-0.0389817 0.0194679 0)
(-0.0420228 0.0194235 0)
(-0.0450375 0.0192539 0)
(-0.048008 0.018963 0)
(-0.0509172 0.0185551 0)
(-0.0537485 0.0180349 0)
(-0.056486 0.0174077 0)
(-0.0591147 0.0166788 0)
(-0.06162 0.0158539 0)
(-0.0639886 0.014939 0)
(-0.0662077 0.0139402 0)
(-0.0682656 0.0128638 0)
(-0.0701514 0.0117164 0)
(-0.0718551 0.0105044 0)
(-0.0733679 0.00923471 0)
(-0.0746818 0.00791417 0)
(-0.07579 0.0065498 0)
(-0.0766864 0.00514872 0)
(-0.0773663 0.00371818 0)
(-0.077826 0.00226553 0)
(-0.0780626 0.000798229 0)
(-0.0780747 -0.000676143 0)
(-0.0778618 -0.00214992 0)
(-0.0774244 -0.00361534 0)
(-0.0767645 -0.00506457 0)
(-0.0758849 -0.00648969 0)
(-0.0747898 -0.00788275 0)
(-0.0734843 -0.00923576 0)
(-0.0719749 -0.0105407 0)
(-0.0702691 -0.0117896 0)
(-0.0683757 -0.0129746 0)
(-0.0663045 -0.0140878 0)
(-0.0640664 -0.0151214 0)
(-0.0616735 -0.0160681 0)
(-0.0591389 -0.0169204 0)
(-0.0564768 -0.0176713 0)
(-0.0537023 -0.0183143 0)
(-0.0508313 -0.018843 0)
(-0.0478809 -0.0192516 0)
(-0.0448686 -0.0195351 0)
(-0.0418127 -0.0196888 0)
(-0.0387322 -0.0197091 0)
(-0.0356465 -0.0195929 0)
(-0.0325751 -0.0193384 0)
(-0.0295381 -0.0189447 0)
(-0.0265553 -0.0184122 0)
(-0.0236466 -0.0177428 0)
(-0.0208314 -0.0169398 0)
(-0.0181287 -0.0160084 0)
(-0.015557 -0.0149557 0)
(-0.0131337 -0.0137911 0)
(-0.0108752 -0.0125265 0)
(-0.00879671 -0.0111768 0)
(-0.00691208 -0.00976 0)
(-0.00523363 -0.00829785 0)
(-0.00377222 -0.00681619 0)
(-0.00253723 -0.00534552 0)
(-0.00153598 -0.00392154 0)
(-0.000773204 -0.00258551 0)
(-0.000262523 -0.00138459 0)
(-3.65814e-05 -0.000375098 0)
(-4.4711e-05 0.000577833 0)
(-0.000314308 0.00196308 0)
(-0.000916279 0.00351022 0)
(-0.00180551 0.00516305 0)
(-0.00296014 0.0068745 0)
(-0.00436979 0.00860351 0)
(-0.00602191 0.0103148 0)
(-0.00790238 0.0119785 0)
(-0.00999629 0.0135696 0)
(-0.0122879 0.0150674 0)
(-0.0147604 0.0164553 0)
(-0.0173963 0.0177197 0)
(-0.0201773 0.0188502 0)
(-0.0230846 0.0198392 0)
(-0.0260986 0.0206811 0)
(-0.0291997 0.0213722 0)
(-0.032368 0.0219109 0)
(-0.0355834 0.0222966 0)
(-0.0388262 0.0225302 0)
(-0.0420765 0.0226137 0)
(-0.045315 0.0225501 0)
(-0.0485227 0.0223429 0)
(-0.0516811 0.0219965 0)
(-0.0547722 0.0215159 0)
(-0.0577789 0.0209064 0)
(-0.0606845 0.0201741 0)
(-0.0634733 0.0193249 0)
(-0.0661303 0.0183656 0)
(-0.0686415 0.0173028 0)
(-0.0709935 0.0161437 0)
(-0.0731742 0.0148954 0)
(-0.0751722 0.0135653 0)
(-0.0769771 0.0121612 0)
(-0.0785798 0.0106907 0)
(-0.0799719 0.00916183 0)
(-0.0811462 0.00758253 0)
(-0.0820966 0.00596103 0)
(-0.082818 0.00430567 0)
(-0.0833064 0.00262489 0)
(-0.0835591 0.000927272 0)
(-0.0835743 -0.000778478 0)
(-0.0833517 -0.00248355 0)
(-0.0828917 -0.00417904 0)
(-0.0821963 -0.00585592 0)
(-0.0812684 -0.00750514 0)
(-0.0801123 -0.00911753 0)
(-0.0787334 -0.0106839 0)
(-0.0771384 -0.0121952 0)
(-0.075335 -0.0136421 0)
(-0.0733323 -0.0150156 0)
(-0.0711406 -0.0163066 0)
(-0.0687711 -0.0175065 0)
(-0.0662365 -0.0186064 0)
(-0.0635504 -0.0195981 0)
(-0.0607274 -0.0204735 0)
(-0.0577834 -0.021225 0)
(-0.0547351 -0.0218454 0)
(-0.0516 -0.0223281 0)
(-0.0483965 -0.0226672 0)
(-0.0451439 -0.0228576 0)
(-0.0418618 -0.0228948 0)
(-0.0385706 -0.0227756 0)
(-0.035291 -0.0224978 0)
(-0.0320438 -0.0220604 0)
(-0.02885 -0.0214639 0)
(-0.0257305 -0.0207101 0)
(-0.022706 -0.019803 0)
(-0.0197967 -0.0187481 0)
(-0.0170223 -0.0175533 0)
(-0.0144017 -0.016229 0)
(-0.0119528 -0.0147882 0)
(-0.00969231 -0.0132469 0)
(-0.00763596 -0.0116245 0)
(-0.00579799 -0.00994413 0)
(-0.00419139 -0.00823313 0)
(-0.00282797 -0.0065233 0)
(-0.00171758 -0.00485151 0)
(-0.000867612 -0.00325983 0)
(-0.00029582 -0.00179579 0)
(-4.15608e-05 -0.000515271 0)
(-4.9654e-05 0.000744288 0)
(-0.000347429 0.00244552 0)
(-0.00101026 0.00429339 0)
(-0.00198635 0.00623256 0)
(-0.00324962 0.00821615 0)
(-0.00478698 0.0102029 0)
(-0.00658321 0.012157 0)
(-0.00862167 0.0140479 0)
(-0.0108852 0.0158499 0)
(-0.013356 0.0175414 0)
(-0.0160155 0.0191048 0)
(-0.0188445 0.0205262 0)
(-0.0218232 0.0217944 0)
(-0.0249315 0.0229013 0)
(-0.0281485 0.0238409 0)
(-0.0314535 0.0246094 0)
(-0.0348255 0.0252049 0)
(-0.0382435 0.0256271 0)
(-0.0416867 0.025877 0)
(-0.0451344 0.0259567 0)
(-0.0485666 0.0258697 0)
(-0.0519633 0.02562 0)
(-0.0553054 0.0252126 0)
(-0.0585743 0.024653 0)
(-0.061752 0.0239473 0)
(-0.0648214 0.0231022 0)
(-0.067766 0.0221246 0)
(-0.0705704 0.0210221 0)
(-0.0732201 0.0198022 0)
(-0.0757011 0.0184729 0)
(-0.078001 0.0170425 0)
(-0.0801079 0.0155194 0)
(-0.0820112 0.0139121 0)
(-0.0837012 0.0122295 0)
(-0.0851694 0.0104806 0)
(-0.0864082 0.00867449 0)
(-0.0874113 0.00682047 0)
(-0.0881734 0.004928 0)
(-0.0886905 0.00300666 0)
(-0.0889596 0.00106618 0)
(-0.0889788 -0.000883556 0)
(-0.0887478 -0.00283257 0)
(-0.088267 -0.00477075 0)
(-0.0875384 -0.00668787 0)
(-0.086565 -0.00857366 0)
(-0.0853511 -0.0104177 0)
(-0.0839024 -0.0122097 0)
(-0.0822255 -0.0139391 0)
(-0.0803287 -0.0155957 0)
(-0.0782212 -0.017169 0)
(-0.0759134 -0.018649 0)
(-0.0734173 -0.0200255 0)
(-0.0707457 -0.0212889 0)