/*--------------------------------*- C++ -*----------------------------------*\
  =========                 |
  \\      /  F ield         | OpenFOAM: The Open Source CFD Toolbox
   \\    /   O peration     | Website:  https://openfoam.org
    \\  /    A nd           | Version:  7
     \\/     M anipulation  |
\*---------------------------------------------------------------------------*/
FoamFile
{
    version     2.0;
    format      ascii;
    class       volScalarField;
    location    "0.05";
    object      p;
}
// * * * * * * * * * * * * * * * * * * * * * * * * * * * * * * * * * * * * * //

dimensions      [0 2 -2 0 0 0 0];

internalField   nonuniform List<scalar> 
25600
(
1.70622e-08
-1.08551e-06
-1.63332e-05
-4.59113e-05
-8.51806e-05
-0.00013052
-0.0001795
-0.000230244
-0.000281191
-0.00033104
-0.000378722
-0.000423354
-0.000464252
-0.000500845
-0.000532665
-0.000559324
-0.000580516
-0.00059606
-0.000605797
-0.000609561
-0.000607239
-0.00059875
-0.000584075
-0.000563278
-0.000536398
-0.000503439
-0.000464446
-0.000419478
-0.000368608
-0.000311956
-0.000249621
-0.000181648
-0.00010809
-2.90267e-05
5.54697e-05
0.000145308
0.000240369
0.000340544
0.00044574
0.000555866
0.000670835
0.000790574
0.000915029
0.00104415
0.00117786
0.00131609
0.00145876
0.00160577
0.00175701
0.00191238
0.0020718
0.00223519
0.00240248
0.00257358
0.0027484
0.00292682
0.00310874
0.00329404
0.00348264
0.00367447
0.00386941
0.00406733
0.00426812
0.00447165
0.00467781
0.00488648
0.00509758
0.00531101
0.00552661
0.00574424
0.00596375
0.00618504
0.00640797
0.00663241
0.00685821
0.00708523
0.00731334
0.00754239
0.00777226
0.00800282
0.00823396
0.00846559
0.00869757
0.00892977
0.00916207
0.00939435
0.00962646
0.00985827
0.0100896
0.0103204
0.0105503
0.0107794
0.0110074
0.0112342
0.0114597
0.0116838
0.0119062
0.012127
0.0123458
0.0125626
0.0127771
0.0129893
0.0131989
0.0134057
0.0136096
0.0138103
0.0140079
0.0142021
0.0143928
0.0145798
0.014763
0.0149424
0.0151177
0.0152888
0.0154555
0.0156176
0.0157751
0.0159278
0.0160756
0.0162182
0.0163555
0.0164875
0.016614
0.0167348
0.0168498
0.0169589
0.0170619
0.0171588
0.0172495
0.0173339
0.0174118
0.0174831
0.0175478
0.0176056
0.0176565
0.0177004
0.0177372
0.0177669
0.0177894
0.0178048
0.0178132
0.0178148
0.0178095
0.0177977
0.0177796
0.0177554
0.0177256
0.0176904
0.0176505
0.0176064
0.0175592
0.0175096
0.017459
0.0174088
0.0173609
0.0173174
0.0172808
0.0172539
0.0172399
0.0172392
-3.29159e-07
-3.9047e-06
-1.85194e-05
-4.39069e-05
-7.67874e-05
-0.00011469
-0.00015595
-0.000199068
-0.000242694
-0.000285659
-0.000326951
-0.000365725
-0.000401259
-0.000433013
-0.000460528
-0.00048337
-0.000501226
-0.000513845
-0.000521032
-0.000522663
-0.000518596
-0.000508703
-0.000492933
-0.000471275
-0.000443748
-0.000410392
-0.000371235
-0.000326296
-0.000275629
-0.000219311
-0.000157411
-9.00002e-05
-1.71461e-05
6.10932e-05
0.000144653
0.000233451
0.000327395
0.000426397
0.000530374
0.00063924
0.000752918
0.000871332
0.000994418
0.00112211
0.00125435
0.00139104
0.00153213
0.00167753
0.00182713
0.00198085
0.0021386
0.00230027
0.00246579
0.00263508
0.00280806
0.00298463
0.00316468
0.0033481
0.00353479
0.00372465
0.00391758
0.00411348
0.00431224
0.00451372
0.00471779
0.00492435
0.00513331
0.00534456
0.00555796
0.00577337
0.00599066
0.00620971
0.00643038
0.00665252
0.006876
0.00710069
0.00732646
0.00755316
0.00778067
0.00800886
0.00823762
0.00846685
0.00869642
0.0089262
0.00915607
0.00938592
0.00961559
0.00984495
0.0100738
0.0103021
0.0105296
0.0107563
0.0109818
0.0112062
0.0114293
0.0116509
0.011871
0.0120893
0.0123057
0.0125201
0.0127323
0.0129421
0.0131493
0.0133538
0.0135554
0.0137539
0.0139492
0.0141411
0.0143296
0.0145144
0.0146955
0.0148727
0.0150459
0.015215
0.0153796
0.0155398
0.0156954
0.0158463
0.0159922
0.016133
0.0162686
0.016399
0.0165238
0.0166431
0.0167567
0.0168645
0.0169663
0.0170621
0.0171519
0.0172355
0.0173128
0.0173836
0.0174479
0.0175057
0.0175567
0.0176009
0.0176383
0.0176688
0.0176926
0.0177096
0.0177199
0.0177237
0.0177212
0.0177126
0.0176981
0.0176781
0.0176528
0.0176228
0.0175886
0.0175508
0.0175102
0.0174677
0.0174245
0.017382
0.0173416
0.0173051
0.0172744
0.0172517
0.0172393
0.0172386
1.01275e-05
4.31129e-06
-1.0587e-05
-3.38668e-05
-6.30501e-05
-9.64257e-05
-0.000132711
-0.000170694
-0.000209217
-0.00024723
-0.000283842
-0.000318232
-0.00034971
-0.000377738
-0.000401857
-0.000421688
-0.00043688
-0.000447128
-0.000452247
-0.000452084
-0.000446508
-0.00043542
-0.000418708
-0.000396306
-0.000368226
-0.000334492
-0.000295126
-0.000250165
-0.000199628
-0.000143546
-8.19835e-05
-1.50064e-05
5.73229e-05
0.000134938
0.000217775
0.000305765
0.000398825
0.000496876
0.00059985
0.000707673
0.000820275
0.000937595
0.00105957
0.00118611
0.00131715
0.00145261
0.00159242
0.00173647
0.00188471
0.00203704
0.00219338
0.00235362
0.00251768
0.00268549
0.00285695
0.00303197
0.00321046
0.00339231
0.00357742
0.00376566
0.00395695
0.00415118
0.00434824
0.004548
0.00475035
0.00495518
0.00516239
0.00537185
0.00558343
0.005797
0.00601244
0.00622963
0.00644843
0.00666867
0.00689023
0.007113
0.00733683
0.0075616
0.00778717
0.00801343
0.00824026
0.00846753
0.00869513
0.00892292
0.0091508
0.00937865
0.0096063
0.00983363
0.0100605
0.0102868
0.0105123
0.0107369
0.0109605
0.0111829
0.0114041
0.0116237
0.0118419
0.0120582
0.0122727
0.0124851
0.0126953
0.0129032
0.0131085
0.013311
0.0135107
0.0137074
0.0139009
0.014091
0.0142777
0.0144607
0.0146401
0.0148156
0.0149871
0.0151544
0.0153175
0.0154761
0.0156301
0.0157795
0.0159239
0.0160633
0.0161976
0.0163266
0.0164502
0.0165682
0.0166807
0.0167874
0.0168884
0.0169834
0.0170725
0.0171554
0.0172322
0.0173027
0.0173668
0.0174245
0.0174756
0.0175202
0.0175581
0.0175894
0.0176142
0.0176325
0.0176444
0.0176502
0.0176499
0.0176438
0.0176322
0.0176154
0.0175937
0.0175676
0.0175376
0.0175044
0.0174687
0.0174313
0.0173932
0.0173557
0.0173201
0.0172878
0.0172604
0.0172394
0.0172272
0.0172249
3.07151e-05
2.15902e-05
5.43903e-06
-1.70798e-05
-4.44265e-05
-7.52733e-05
-0.000108554
-0.000143224
-0.000178263
-0.000212775
-0.000245948
-0.000277051
-0.000305446
-0.000330561
-0.000351977
-0.000369344
-0.000382312
-0.000390616
-0.000394017
-0.000392322
-0.000385436
-0.000373261
-0.000355679
-0.000332627
-0.000304067
-0.000269975
-0.000230386
-0.00018534
-0.000134845
-7.89292e-05
-1.76378e-05
4.89861e-05
0.000120884
0.000197988
0.000280238
0.000367567
0.000459896
0.000557161
0.000659295
0.00076623
0.000877909
0.000994284
0.00111528
0.00124083
0.00137086
0.00150528
0.001644
0.00178691
0.00193396
0.00208508
0.00224018
0.00239917
0.00256197
0.0027285
0.00289865
0.00307234
0.00324947
0.00342996
0.00361369
0.00380054
0.00399042
0.00418321
0.00437881
0.00457708
0.00477794
0.00498127
0.00518697
0.00539489
0.0056049
0.00581688
0.00603071
0.00624628
0.00646343
0.00668203
0.00690195
0.00712307
0.00734525
0.00756835
0.00779227
0.00801689
0.00824208
0.00846769
0.00869361
0.00891971
0.00914589
0.00937201
0.00959793
0.00982352
0.0100487
0.0102732
0.010497
0.01072
0.0109419
0.0111627
0.0113822
0.0116002
0.0118167
0.0120314
0.0122442
0.0124549
0.0126635
0.0128697
0.0130733
0.0132742
0.0134723
0.0136674
0.0138594
0.014048
0.0142332
0.0144148
0.0145926
0.0147667
0.0149367
0.0151027
0.0152644
0.0154217
0.0155744
0.0157225
0.0158657
0.0160039
0.016137
0.0162649
0.0163874
0.0165045
0.016616
0.0167219
0.0168222
0.0169166
0.0170051
0.0170876
0.017164
0.0172342
0.0172982
0.0173558
0.0174071
0.0174519
0.0174904
0.0175224
0.0175481
0.0175676
0.0175809
0.0175882
0.0175898
0.0175858
0.0175765
0.0175622
0.0175433
0.0175203
0.0174935
0.0174637
0.0174315
0.0173976
0.017363
0.0173287
0.0172959
0.0172657
0.0172395
0.0172187
0.0172046
0.0171983
6.03373e-05
4.65024e-05
2.80482e-05
5.1212e-06
-2.16469e-05
-5.11597e-05
-8.25353e-05
-0.000114894
-0.000147393
-0.000179214
-0.000209637
-0.000238051
-0.000263847
-0.000286508
-0.000305612
-0.000320785
-0.000331759
-0.000338285
-0.000340113
-0.000337061
-0.000328987
-0.000315777
-0.000297361
-0.000273666
-0.000244624
-0.000210204
-0.000170403
-0.000125238
-7.47382e-05
-1.89314e-05
4.21499e-05
0.000108466
0.000179969
0.000256603
0.000338306
0.000425014
0.000516667
0.000613207
0.000714571
0.000820699
0.000931543
0.00104705
0.00116714
0.00129176
0.00142082
0.00155424
0.00169193
0.00183378
0.00197974
0.00212972
0.00228365
0.00244145
0.00260306
0.00276838
0.00293731
0.00310976
0.00328563
0.00346482
0.00364724
0.00383278
0.00402133
0.00421278
0.004407
0.00460388
0.00480334
0.00500526
0.00520953
0.00541599
0.00562452
0.00583501
0.00604733
0.00626135
0.00647695
0.006694
0.00691238
0.00713197
0.00735261
0.00757418
0.00779658
0.00801968
0.00824334
0.00846742
0.00869178
0.00891631
0.00914091
0.00936542
0.00958973
0.00981371
0.0100372
0.0102602
0.0104825
0.0107039
0.0109243
0.0111436
0.0113616
0.0115781
0.011793
0.0120062
0.0122174
0.0124266
0.0126336
0.0128382
0.0130403
0.0132398
0.0134364
0.0136301
0.0138206
0.0140079
0.0141917
0.0143719
0.0145484
0.0147211
0.0148899
0.0150545
0.015215
0.0153711
0.0155226
0.0156695
0.0158116
0.0159487
0.0160807
0.0162076
0.0163292
0.0164454
0.0165561
0.0166614
0.0167609
0.0168548
0.0169428
0.0170249
0.017101
0.0171709
0.0172347
0.0172924
0.0173438
0.017389
0.0174279
0.0174606
0.0174872
0.0175078
0.0175224
0.0175312
0.0175344
0.0175322
0.0175249
0.0175129
0.0174964
0.0174759
0.0174518
0.0174247
0.0173952
0.017364
0.017332
0.0172999
0.0172687
0.0172396
0.0172134
0.0171914
0.0171742
0.0171621
9.74042e-05
7.78386e-05
5.60507e-05
3.16503e-05
4.40376e-06
-2.48176e-05
-5.52334e-05
-8.61714e-05
-0.000116924
-0.000146791
-0.000175146
-0.000201405
-0.000225073
-0.000245697
-0.000262838
-0.000276165
-0.000285411
-0.00029033
-0.000290744
-0.000286473
-0.000277334
-0.000263217
-0.000244038
-0.000219713
-0.000190194
-0.000155448
-0.000115437
-7.01623e-05
-1.96478e-05
3.60845e-05
9.70004e-05
0.000163058
0.000234218
0.000310432
0.000391639
0.000477783
0.000568818
0.000664688
0.000765341
0.000870735
0.000980815
0.00109552
0.00121479
0.00133855
0.00146672
0.00159919
0.0017359
0.00187676
0.0020217
0.00217063
0.00232348
0.0024802
0.0026407
0.00280488
0.00297267
0.00314396
0.00331865
0.00349665
0.00367784
0.00386214
0.00404945
0.00423964
0.00443258
0.00462819
0.00482635
0.00502697
0.00522988
0.00543498
0.00564213
0.00585123
0.00606214
0.00627474
0.0064889
0.00670452
0.00692148
0.00713964
0.00735886
0.00757904
0.00780006
0.00802176
0.00824401
0.00846667
0.00868961
0.00891271
0.00913584
0.00935888
0.00958171
0.00980422
0.0100263
0.0102479
0.0104687
0.0106887
0.0109077
0.0111256
0.0113422
0.0115574
0.0117709
0.0119826
0.0121925
0.0124003
0.0126058
0.012809
0.0130097
0.0132078
0.0134031
0.0135955
0.0137848
0.0139707
0.0141533
0.0143323
0.0145077
0.0146792
0.0148468
0.0150103
0.0151696
0.0153245
0.015475
0.0156208
0.0157619
0.015898
0.0160291
0.0161551
0.0162759
0.0163913
0.0165014
0.016606
0.0167051
0.0167984
0.016886
0.0169676
0.0170434
0.0171132
0.0171769
0.0172346
0.0172862
0.0173317
0.0173711
0.0174045
0.0174319
0.0174534
0.0174692
0.0174793
0.0174839
0.0174833
0.0174778
0.0174676
0.0174531
0.0174347
0.0174127
0.0173878
0.0173603
0.0173311
0.0173008
0.01727
0.0172396
0.0172104
0.0171834
0.0171593
0.0171379
0.0171189
0.000139752
0.000113744
8.79277e-05
6.12572e-05
3.26967e-05
2.94459e-06
-2.73522e-05
-5.76303e-05
-8.73295e-05
-0.000115906
-0.000142774
-0.000167428
-0.000189436
-0.000208381
-0.000223909
-0.000235714
-0.000243505
-0.000247074
-0.000246256
-0.00024088
-0.000230798
-0.000215885
-0.000196028
-0.000171139
-0.000141172
-0.000106092
-6.58635e-05
-2.04779e-05
3.0056e-05
8.57224e-05
0.000146492
0.000212325
0.000283184
0.000359025
0.000439796
0.00052545
0.000615939
0.000711214
0.000811234
0.000915963
0.00102534
0.00113932
0.00125783
0.0013808
0.00150813
0.00163974
0.00177555
0.00191549
0.00205948
0.00220745
0.00235934
0.00251506
0.00267455
0.00283769
0.00300442
0.00317463
0.00334823
0.00352512
0.0037052
0.00388837
0.00407453
0.00426355
0.00445532
0.00464976
0.00484674
0.00504615
0.00524783
0.00545167
0.00565756
0.00586538
0.00607499
0.00628629
0.00649916
0.00671349
0.00692915
0.00714601
0.00736396
0.00758288
0.00780263
0.00802307
0.00824405
0.00846542
0.00868707
0.00890888
0.0091307
0.00935241
0.00957392
0.00979513
0.0100159
0.0102362
0.0104557
0.0106745
0.0108923
0.0111089
0.0113243
0.0115382
0.0117505
0.011961
0.0121695
0.012376
0.0125803
0.0127823
0.0129818
0.0131786
0.0133727
0.0135639
0.013752
0.0139369
0.0141184
0.0142964
0.0144707
0.0146412
0.0148077
0.0149702
0.0151285
0.0152824
0.0154319
0.0155767
0.0157169
0.0158521
0.0159825
0.0161078
0.0162279
0.0163427
0.0164522
0.0165563
0.0166548
0.0167477
0.0168349
0.0169162
0.0169917
0.0170613
0.0171251
0.0171828
0.0172346
0.0172805
0.0173203
0.0173543
0.0173825
0.0174049
0.0174216
0.0174329
0.0174387
0.0174395
0.0174355
0.0174268
0.0174139
0.017397
0.0173767
0.0173533
0.0173273
0.0172994
0.01727
0.0172397
0.0172093
0.0171794
0.0171506
0.0171238
0.0170977
0.0170712
0.000185279
0.000152498
0.000122204
9.27235e-05
6.2274e-05
3.13589e-05
5.5116e-07
-2.96909e-05
-5.89455e-05
-8.67404e-05
-0.000112622
-0.000136152
-0.000156906
-0.000174546
-0.000188779
-0.000199314
-0.000205917
-0.000208383
-0.000206524
-0.000200201
-0.000189288
-0.000173652
-0.000153186
-0.000127804
-9.74355e-05
-6.2043e-05
-2.16033e-05
2.38978e-05
7.44579e-05
0.000130067
0.000190705
0.000256339
0.000326931
0.000402442
0.000482831
0.000568054
0.000658065
0.000752823
0.000852289
0.000956422
0.00106517
0.00117847
0.00129628
0.00141851
0.00154507
0.00167589
0.00181089
0.00194999
0.00209313
0.00224023
0.00239123
0.00254605
0.00270461
0.00286681
0.00303258
0.0032018
0.00337439
0.00355026
0.00372932
0.00391147
0.00409657
0.00428452
0.00447523
0.0046686
0.0048645
0.0050628
0.00526336
0.00546607
0.00567081
0.00587746
0.0060859
0.00629603
0.00650774
0.00672091
0.00693541
0.00715112
0.00736792
0.0075857
0.00780431
0.0080236
0.00824342
0.00846365
0.00868415
0.00890479
0.00912545
0.009346
0.00956636
0.00978642
0.0100061
0.0102252
0.0104436
0.0106612
0.0108779
0.0110934
0.0113077
0.0115205
0.0117316
0.011941
0.0121485
0.0123539
0.0125571
0.0127579
0.0129563
0.0131521
0.0133451
0.0135353
0.0137224
0.0139063
0.0140869
0.0142639
0.0144374
0.0146069
0.0147726
0.0149341
0.0150915
0.0152446
0.0153932
0.0155372
0.0156765
0.0158111
0.0159408
0.0160655
0.0161851
0.0162994
0.0164084
0.016512
0.0166101
0.0167026
0.0167894
0.0168705
0.0169458
0.0170153
0.0170791
0.0171369
0.0171889
0.0172351
0.0172754
0.0173099
0.0173387
0.0173619
0.0173795
0.0173917
0.0173986
0.0174006
0.0173977
0.0173902
0.0173785
0.0173628
0.0173436
0.0173213
0.0172963
0.017269
0.01724
0.0172097
0.0171786
0.0171473
0.0171163
0.0170863
0.0170552
0.0170212
0.000232178
0.000192608
0.00015762
0.000124984
9.22059e-05
5.96957e-05
2.79171e-05
-2.80264e-06
-3.20771e-05
-5.95447e-05
-8.4856e-05
-0.000107623
-0.000127502
-0.000144192
-0.000157415
-0.000166944
-0.000172588
-0.000174145
-0.000171441
-0.00016434
-0.000152712
-0.000136435
-0.000115421
-8.95889e-05
-5.88593e-05
-2.31911e-05
1.74371e-05
6.30429e-05
0.000113628
0.000169186
0.000229707
0.000295163
0.000365522
0.000440751
0.000520813
0.00060566
0.000695256
0.000789564
0.00088854
0.000992138
0.00110032
0.00121302
0.00133019
0.00145173
0.00157758
0.00170768
0.00184194
0.00198029
0.00212266
0.00226898
0.00241919
0.00257319
0.00273091
0.00289226
0.00305714
0.00322547
0.00339715
0.0035721
0.00375023
0.00393143
0.00411558
0.00430258
0.00449233
0.00468473
0.00487964
0.00507692
0.00527646
0.00547815
0.00568186
0.00588747
0.00609487
0.00630398
0.00651466
0.00672679
0.00694026
0.00715495
0.00737073
0.00758749
0.00780508
0.00802333
0.00824213
0.00846134
0.00868084
0.00890046
0.00912011
0.00933966
0.00955902
0.00977809
0.00999674
0.0102148
0.0104323
0.0106489
0.0108646
0.0110791
0.0112924
0.0115042
0.0117144
0.0119229
0.0121294
0.0123338
0.012536
0.0127359
0.0129333
0.0131282
0.0133203
0.0135095
0.0136958
0.0138789
0.0140587
0.0142349
0.0144076
0.0145764
0.0147413
0.014902
0.0150586
0.0152109
0.0153587
0.0155021
0.0156408
0.0157748
0.015904
0.0160282
0.0161473
0.0162612
0.0163698
0.016473
0.0165707
0.0166629
0.0167494
0.0168303
0.0169055
0.016975
0.0170387
0.0170967
0.0171488
0.0171953
0.017236
0.017271
0.0173004
0.0173242
0.0173426
0.0173556
0.0173634
0.0173662
0.0173642
0.0173577
0.0173469
0.0173321
0.0173136
0.017292
0.0172674
0.0172404
0.0172112
0.0171803
0.0171482
0.017115
0.0170815
0.0170479
0.0170117
0.0169704
0.000278972
0.000232786
0.000193084
0.000157081
0.000121693
8.72611e-05
5.41514e-05
2.26163e-05
-7.06587e-06
-3.45992e-05
-5.96697e-05
-8.20008e-05
-0.000101317
-0.000117345
-0.00012985
-0.000138639
-0.000143529
-0.000144357
-0.000140973
-0.000133234
-0.00012101
-0.000104193
-8.26988e-05
-5.64552e-05
-2.53981e-05
1.05149e-05
5.13096e-05
9.70048e-05
0.000147609
0.00020312
0.000263535
0.000328835
0.000398994
0.000473983
0.000553765
0.000638295
0.000727536
0.000821451
0.000919992
0.00102311
0.00113078
0.00124294
0.00135952
0.00148046
0.00160568
0.00173513
0.00186872
0.0020064
0.00214809
0.00229372
0.00244321
0.00259648
0.00275345
0.00291402
0.00307812
0.00324564
0.00341651
0.00359065
0.00376795
0.00394829
0.00413158
0.00431772
0.00450661
0.00469813
0.00489213
0.00508851
0.00528714
0.00548791
0.00569071
0.00589541
0.00610192
0.00631013
0.00651992
0.00673115
0.00694371
0.0071575
0.00737239
0.00758824
0.00780491
0.00802226
0.00824017
0.00845851
0.00867713
0.00889589
0.00911468
0.00933339
0.00955192
0.00977015
0.00998794
0.0102052
0.0104218
0.0106375
0.0108523
0.011066
0.0112784
0.0114894
0.0116988
0.0119064
0.0121121
0.0123157
0.0125171
0.0127162
0.0129128
0.0131069
0.0132982
0.0134867
0.0136722
0.0138546
0.0140337
0.0142093
0.0143813
0.0145494
0.0147136
0.0148738
0.0150297
0.0151814
0.0153286
0.0154714
0.0156096
0.0157432
0.0158719
0.0159957
0.0161144
0.0162279
0.0163361
0.016439
0.0165365
0.0166284
0.0167147
0.0167955
0.0168706
0.0169401
0.0170038
0.0170619
0.0171142
0.0171609
0.017202
0.0172374
0.0172673
0.0172917
0.0173107
0.0173244
0.0173329
0.0173364
0.0173351
0.0173292
0.017319
0.0173048
0.0172868
0.0172654
0.0172409
0.0172137
0.017184
0.0171522
0.0171186
0.0170834
0.017047
0.0170099
0.0169686
0.0169202
0.000324434
0.000271921
0.000227585
0.000188166
0.000150014
0.000113413
7.87387e-05
4.61181e-05
1.57348e-05
-1.21464e-05
-3.72896e-05
-5.94775e-05
-7.84835e-05
-9.41001e-05
-0.000106143
-0.000114421
-0.000118768
-0.000119049
-0.000115126
-0.000106861
-9.4146e-05
-7.68803e-05
-5.49751e-05
-2.83734e-05
2.97144e-06
3.91008e-05
8.00417e-05
0.000125814
0.000176433
0.000231905
0.000292228
0.000357396
0.000427388
0.000502172
0.000581714
0.000665974
0.000754911
0.000848481
0.00094664
0.00104935
0.00115657
0.00126823
0.00138429
0.00150469
0.00162936
0.00175823
0.00189124
0.00202833
0.00216942
0.00231443
0.00246329
0.00261592
0.00277222
0.00293211
0.0030955
0.00326232
0.00343249
0.0036059
0.00378245
0.00396204
0.00414457
0.00432994
0.00451806
0.00470878
0.00490198
0.00509756
0.00529539
0.00549537
0.00569738
0.0059013
0.00610705
0.00631449
0.00652351
0.00673397
0.00694576
0.00715877
0.00737287
0.00758793
0.00780382
0.0080204
0.00823755
0.00845514
0.00867303
0.00889107
0.00910917
0.0093272
0.00954504
0.00976256
0.00997964
0.0101962
0.010412
0.0106271
0.0108411
0.0110541
0.0112658
0.011476
0.0116847
0.0118917
0.0120967
0.0122997
0.0125004
0.0126988
0.0128948
0.0130882
0.0132789
0.0134667
0.0136517
0.0138335
0.014012
0.014187
0.0143584
0.014526
0.0146897
0.0148494
0.0150048
0.015156
0.0153028
0.0154451
0.015583
0.0157161
0.0158445
0.0159679
0.0160863
0.0161995
0.0163075
0.0164101
0.0165074
0.0165992
0.0166854
0.0167661
0.0168411
0.0169106
0.0169744
0.0170325
0.0170851
0.017132
0.0171734
0.0172092
0.0172395
0.0172644
0.0172838
0.017298
0.0173071
0.0173111
0.0173103
0.0173049
0.0172951
0.0172811
0.0172633
0.0172419
0.0172172
0.0171895
0.017159
0.0171259
0.0170906
0.0170531
0.0170138
0.0169731
0.0169269
0.0168719
0.000367604
0.000309078
0.000260276
0.000217473
0.000176488
0.000137613
0.000101184
6.72672e-05
3.59944e-05
7.53141e-06
-1.79403e-05
-4.02289e-05
-5.91672e-05
-7.46044e-05
-8.63836e-05
-9.43434e-05
-9.83392e-05
-9.8239e-05
-9.39081e-05
-8.52304e-05
-7.2115e-05
-5.44709e-05
-3.222e-05
-5.31766e-06
2.62729e-05
6.25892e-05
0.000103656
0.000149495
0.000200129
0.00025557
0.000315821
0.000380882
0.000450733
0.000525345
0.000604685
0.000688714
0.000777384
0.000870651
0.00096848
0.00107083
0.00117765
0.00128889
0.00140451
0.00152444
0.00164863
0.00177701
0.00190952
0.00204609
0.00218665
0.00233113
0.00247943
0.00263149
0.00278721
0.00294651
0.0031093
0.00327552
0.00344507
0.00361785
0.00379375
0.00397267
0.00415454
0.00433925
0.00452667
0.00471669
0.00490919
0.00510408
0.00530123
0.00550053
0.00570188
0.00590516
0.00611027
0.00631707
0.00652544
0.00673524
0.00694638
0.00715873
0.00737217
0.00758656
0.00780179
0.00801773
0.00823427
0.00845125
0.00866854
0.00888601
0.00910355
0.00932104
0.00953833
0.00975529
0.0099718
0.0101878
0.010403
0.0106175
0.0108309
0.0110433
0.0112544
0.0114641
0.0116722
0.0118786
0.0120831
0.0122856
0.0124858
0.0126837
0.0128792
0.0130721
0.0132623
0.0134497
0.0136341
0.0138154
0.0139935
0.014168
0.014339
0.0145062
0.0146695
0.0148288
0.0149839
0.0151347
0.0152812
0.0154233
0.0155608
0.0156936
0.0158217
0.0159448
0.0160629
0.0161759
0.0162838
0.0163863
0.0164835
0.0165751
0.0166613
0.0167419
0.016817
0.0168865
0.0169503
0.0170086
0.0170613
0.0171085
0.0171501
0.0171862
0.0172169
0.0172421
0.017262
0.0172766
0.017286
0.0172904
0.0172899
0.0172847
0.0172751
0.0172612
0.0172433
0.0172216
0.0171965
0.017168
0.0171365
0.017102
0.0170648
0.0170249
0.0169827
0.0169383
0.0168875
0.0168263
0.000407687
0.000343536
0.000290444
0.000244319
0.000200543
0.00015934
0.000121036
8.56915e-05
5.33586e-05
2.41322e-05
-1.84735e-06
-2.4446e-05
-4.3541e-05
-5.89981e-05
-7.06906e-05
-7.85008e-05
-8.2295e-05
-8.19408e-05
-7.73253e-05
-6.83451e-05
-5.49129e-05
-3.69597e-05
-1.44284e-05
1.27208e-05
4.45167e-05
8.09886e-05
0.000122163
0.000168065
0.000218718
0.000274138
0.000334338
0.000399315
0.000469051
0.000543519
0.000622688
0.000706515
0.000794952
0.000887961
0.000985511
0.00108755
0.00119404
0.00130493
0.00142018
0.00153972
0.00166351
0.00179147
0.00192355
0.00205968
0.00219978
0.00234379
0.00249161
0.00264319
0.00279841
0.0029572
0.00311949
0.0032852
0.00345423
0.00362647
0.00380181
0.00398018
0.00416148
0.0043456
0.00453243
0.00472185
0.00491378
0.00510809
0.00530467
0.00550342
0.00570423
0.005907
0.00611158
0.00631786
0.00652568
0.00673496
0.00694557
0.00715738
0.00737027
0.00758413
0.00779883
0.00801428
0.00823032
0.00844683
0.00866366
0.0088807
0.00909781
0.00931488
0.00953174
0.00974828
0.00996437
0.0101799
0.0103947
0.0106087
0.0108217
0.0110336
0.0112442
0.0114535
0.0116612
0.0118672
0.0120713
0.0122734
0.0124733
0.0126709
0.0128661
0.0130587
0.0132485
0.0134355
0.0136196
0.0138005
0.0139781
0.0141523
0.014323
0.0144899
0.0146529
0.014812
0.0149669
0.0151175
0.0152638
0.0154057
0.015543
0.0156756
0.0158034
0.0159263
0.0160443
0.0161572
0.016265
0.0163674
0.0164645
0.0165562
0.0166424
0.016723
0.0167981
0.0168676
0.0169315
0.01699
0.0170429
0.0170902
0.0171321
0.0171685
0.0171994
0.0172249
0.017245
0.0172598
0.0172695
0.0172741
0.0172738
0.0172687
0.0172591
0.017245
0.0172269
0.0172048
0.017179
0.0171496
0.0171169
0.0170809
0.0170417
0.0169994
0.0169542
0.0169064
0.0168512
0.0167842
0.000444017
0.000374638
0.000317488
0.000268167
0.000221639
0.000178108
0.000137907
0.000101029
6.74919e-05
3.73689e-05
1.07303e-05
-1.23482e-05
-3.17655e-05
-4.741e-05
-5.9185e-05
-6.6989e-05
-7.06973e-05
-7.01988e-05
-6.5401e-05
-5.62063e-05
-4.25377e-05
-2.43503e-05
-1.60234e-06
2.5741e-05
5.76997e-05
9.42976e-05
0.000135565
0.000181525
0.000232204
0.000287623
0.000347791
0.000412704
0.000482349
0.0005567
0.00063572
0.00071937
0.000807611
0.00090041
0.000997727
0.00109952
0.00120574
0.00131635
0.0014313
0.00155053
0.00167398
0.0018016
0.00193332
0.00206907
0.00220879
0.0023524
0.00249983
0.00265098
0.00280579
0.00296417
0.00312606
0.00329136
0.00345995
0.00363173
0.00380662
0.00398453
0.00416536
0.00434899
0.00453533
0.00472428
0.00491573
0.00510958
0.00530571
0.00550403
0.00570443
0.00590679
0.00611096
0.00631682
0.00652423
0.0067331
0.00694329
0.00715469
0.00736717
0.00758062
0.00779495
0.00801002
0.0082257
0.00844186
0.00865837
0.0088751
0.00909191
0.00930868
0.00952525
0.0097415
0.00995731
0.0101725
0.0103871
0.0106007
0.0108134
0.011025
0.0112354
0.0114443
0.0116517
0.0118575
0.0120613
0.0122632
0.0124629
0.0126604
0.0128554
0.0130477
0.0132374
0.0134242
0.013608
0.0137886
0.013966
0.0141399
0.0143103
0.0144771
0.01464
0.014799
0.0149538
0.0151043
0.0152505
0.0153923
0.0155294
0.0156619
0.0157896
0.0159124
0.0160304
0.0161432
0.0162509
0.0163534
0.0164505
0.0165422
0.0166284
0.0167091
0.0167842
0.0168538
0.0169179
0.0169765
0.0170296
0.0170771
0.0171192
0.0171557
0.0171868
0.0172124
0.0172327
0.0172477
0.0172576
0.0172623
0.017262
0.0172569
0.0172471
0.0172328
0.0172143
0.0171916
0.017165
0.0171346
0.0171005
0.0170628
0.0170216
0.0169768
0.0169288
0.0168777
0.0168184
0.0167461
0.000476015
0.000401823
0.000340902
0.000288523
0.000239309
0.000193507
0.000151397
0.000112929
7.81095e-05
4.6966e-05
1.95263e-05
-4.15724e-06
-2.40199e-05
-3.99891e-05
-5.1975e-05
-5.98807e-05
-6.36085e-05
-6.3065e-05
-5.81656e-05
-4.88323e-05
-3.50077e-05
-1.66583e-05
6.24597e-06
3.37303e-05
6.58109e-05
0.00010251
0.000143856
0.000189873
0.000240587
0.00029602
0.000356174
0.000421045
0.000490621
0.000564876
0.000643771
0.000727274
0.000815359
0.000907989
0.00100512
0.00110671
0.00121274
0.00132314
0.00143786
0.00155684
0.00168003
0.00180738
0.00193881
0.00207425
0.00221365
0.00235694
0.00250404
0.00265487
0.00280935
0.00296742
0.00312898
0.00329394
0.00346217
0.0036336
0.00380813
0.00398568
0.00416613
0.00434939
0.00453536
0.00472395
0.00491505
0.00510855
0.00530435
0.00550236
0.00570246
0.00590451
0.00610837
0.00631392
0.00652105
0.00672963
0.00693953
0.00715064
0.00736285
0.00757605
0.00779013
0.00800496
0.00822041
0.00843635
0.00865265
0.0088692
0.00908584
0.00930243
0.00951884
0.00973494
0.00995061
0.0101657
0.0103801
0.0105936
0.0108061
0.0110175
0.0112277
0.0114365
0.0116438
0.0118493
0.0120531
0.0122549
0.0124546
0.012652
0.0128469
0.0130393
0.0132288
0.0134155
0.0135992
0.0137797
0.0139569
0.0141308
0.0143011
0.0144678
0.0146307
0.0147896
0.0149444
0.015095
0.0152412
0.0153829
0.0155201
0.0156525
0.0157802
0.0159031
0.016021
0.0161339
0.0162416
0.0163441
0.0164412
0.016533
0.0166193
0.0167001
0.0167754
0.0168452
0.0169094
0.0169682
0.0170214
0.0170691
0.0171113
0.0171479
0.0171791
0.0172049
0.0172253
0.0172404
0.0172502
0.0172549
0.0172545
0.0172493
0.0172393
0.0172246
0.0172056
0.0171822
0.0171547
0.0171231
0.0170876
0.0170482
0.017005
0.0169578
0.016907
0.0168528
0.0167896
0.0167125
0.000503239
0.000424649
0.000360215
0.000304952
0.000253186
0.000205145
0.000161132
0.000121077
8.4921e-05
5.26617e-05
2.43219e-05
-7.18088e-08
-2.04925e-05
-3.68863e-05
-4.9169e-05
-5.72642e-05
-6.10981e-05
-6.05846e-05
-5.56546e-05
-4.62582e-05
-3.23514e-05
-1.39066e-05
9.09248e-06
3.66658e-05
6.8832e-05
0.00010561
0.000147024
0.0001931
0.00024386
0.000299317
0.000359475
0.000424325
0.000493852
0.000568029
0.000646828
0.000730223
0.00081819
0.000910691
0.00100769
0.00110915
0.00121503
0.00132528
0.00143984
0.00155864
0.00168165
0.00180878
0.00193998
0.00207519
0.00221436
0.0023574
0.00250425
0.00265482
0.00280907
0.00296691
0.00312823
0.00329292
0.00346089
0.00363205
0.00380632
0.0039836
0.00416379
0.00434678
0.0045325
0.00472085
0.0049117
0.00510497
0.00530056
0.00549837
0.00569826
0.00590011
0.00610377
0.00630914
0.0065161
0.00672452
0.00693427
0.00714523
0.00735731
0.00757039
0.00778436
0.00799909
0.00821443
0.00843028
0.00864651
0.00886299
0.00907957
0.00929612
0.00951251
0.00972859
0.00994425
0.0101593
0.0103737
0.0105872
0.0107997
0.0110111
0.0112212
0.01143
0.0116373
0.0118429
0.0120467
0.0122486
0.0124484
0.0126458
0.0128408
0.0130332
0.0132228
0.0134096
0.0135932
0.0137738
0.013951
0.0141249
0.0142952
0.014462
0.0146249
0.0147839
0.0149389
0.0150895
0.0152358
0.0153777
0.0155149
0.0156475
0.0157753
0.0158983
0.0160163
0.0161292
0.016237
0.0163395
0.0164368
0.0165287
0.0166151
0.0166961
0.0167716
0.0168416
0.016906
0.0169649
0.0170183
0.0170661
0.0171084
0.0171451
0.0171764
0.0172022
0.0172226
0.0172377
0.0172476
0.0172522
0.0172517
0.0172462
0.0172358
0.0172207
0.017201
0.0171769
0.0171484
0.0171156
0.0170786
0.0170375
0.0169922
0.0169427
0.0168893
0.0168321
0.0167653
0.0166838
0.000525383
0.000442728
0.000375039
0.000317098
0.000262901
0.000212691
0.000166815
0.000125161
8.76349e-05
5.42199e-05
2.49142e-05
-2.78965e-07
-2.134e-05
-3.82259e-05
-5.08781e-05
-5.92373e-05
-6.32398e-05
-6.28193e-05
-5.79288e-05
-4.85364e-05
-3.46104e-05
-1.61324e-05
6.90658e-06
3.45251e-05
6.67433e-05
0.000103578
0.000145054
0.000191191
0.000242003
0.000297496
0.000357672
0.00042252
0.000492017
0.000566141
0.000644878
0.000728205
0.000816092
0.00090851
0.00100543
0.00110681
0.00121261
0.00132276
0.00143721
0.0015559
0.00167878
0.00180576
0.00193681
0.00207187
0.00221088
0.00235375
0.00250043
0.00265085
0.00280495
0.00296263
0.00312377
0.00328828
0.00345607
0.00362706
0.00380117
0.00397828
0.0041583
0.00434116
0.00452674
0.00471495
0.00490568
0.00509883
0.00529432
0.00549203
0.00569182
0.00589356
0.00609715
0.00630246
0.00650938
0.00671776
0.00692748
0.00713845
0.00735054
0.00756364
0.00777763
0.00799236
0.00820774
0.00842363
0.00863991
0.00885645
0.00907309
0.00928973
0.00950622
0.00972243
0.00993821
0.0101534
0.0103679
0.0105815
0.0107941
0.0110057
0.011216
0.0114249
0.0116323
0.0118381
0.0120421
0.0122442
0.0124441
0.0126417
0.0128369
0.0130295
0.0132194
0.0134063
0.0135901
0.0137708
0.0139482
0.0141222
0.0142928
0.0144597
0.0146228
0.0147819
0.014937
0.0150879
0.0152345
0.0153765
0.015514
0.0156468
0.0157748
0.0158979
0.0160161
0.0161291
0.016237
0.0163397
0.0164371
0.0165292
0.016616
0.0166972
0.0167729
0.0168431
0.0169077
0.0169668
0.0170203
0.0170682
0.0171106
0.0171474
0.0171787
0.0172045
0.0172249
0.01724
0.0172497
0.0172541
0.0172534