/*--------------------------------*- C++ -*----------------------------------*\
  =========                 |
  \\      /  F ield         | OpenFOAM: The Open Source CFD Toolbox
   \\    /   O peration     | Website:  https://openfoam.org
    \\  /    A nd           | Version:  7
     \\/     M anipulation  |
\*---------------------------------------------------------------------------*/
FoamFile
{
    version     2.0;
    format      ascii;
    class       surfaceScalarField;
    location    "0.2";
    object      phi;
}
// * * * * * * * * * * * * * * * * * * * * * * * * * * * * * * * * * * * * * //

dimensions      [0 3 -1 0 0 0 0];

internalField   nonuniform List<scalar> 
50880
(
9.15793e-12
-9.16332e-12
2.73526e-11
-1.81908e-11
4.55985e-11
-1.82488e-11
5.70826e-11
-1.148e-11
5.84582e-11
-1.37675e-12
4.80193e-11
1.04383e-11
2.51156e-11
2.29046e-11
-1.02405e-11
3.53546e-11
-5.77123e-11
4.74719e-11
-1.16767e-10
5.9058e-11
-1.8674e-10
6.99757e-11
-2.6689e-10
8.01519e-11
-3.56456e-10
8.95656e-11
-4.54685e-10
9.82256e-11
-5.60835e-10
1.0615e-10
-6.74184e-10
1.1335e-10
-7.94029e-10
1.19848e-10
-9.19709e-10
1.25683e-10
-1.0506e-09
1.3089e-10
-1.1861e-09
1.35505e-10
-1.32567e-09
1.39564e-10
-1.46878e-09
1.43111e-10
-1.61495e-09
1.46177e-10
-1.76374e-09
1.48787e-10
-1.91471e-09
1.5098e-10
-2.06751e-09
1.52792e-10
-2.22176e-09
1.54254e-10
-2.37715e-09
1.5539e-10
-2.53338e-09
1.56227e-10
-2.69018e-09
1.56793e-10
-2.84729e-09
1.57112e-10
-3.00449e-09
1.57202e-10
-3.16158e-09
1.57082e-10
-3.31835e-09
1.56772e-10
-3.47464e-09
1.5629e-10
-3.63029e-09
1.55652e-10
-3.78516e-09
1.54866e-10
-3.9391e-09
1.53942e-10
-4.092e-09
1.52893e-10
-4.24373e-09
1.51732e-10
-4.39419e-09
1.50465e-10
-4.54329e-09
1.49098e-10
-4.69092e-09
1.47634e-10
-4.837e-09
1.46078e-10
-4.98143e-09
1.44435e-10
-5.12414e-09
1.42711e-10
-5.26505e-09
1.40908e-10
-5.40408e-09
1.39026e-10
-5.54115e-09
1.37066e-10
-5.67617e-09
1.35026e-10
-5.80908e-09
1.3291e-10
-5.9398e-09
1.30718e-10
-6.06825e-09
1.28449e-10
-6.19435e-09
1.26101e-10
-6.31803e-09
1.23673e-10
-6.43919e-09
1.21163e-10
-6.55776e-09
1.18572e-10
-6.67367e-09
1.159e-10
-6.78681e-09
1.13144e-10
-6.89711e-09
1.103e-10
-7.00447e-09
1.07366e-10
-7.10881e-09
1.0434e-10
-7.21003e-09
1.01224e-10
-7.30805e-09
9.80172e-11
-7.40277e-09
9.47187e-11
-7.4941e-09
9.13251e-11
-7.58193e-09
8.78328e-11
-7.66617e-09
8.42404e-11
-7.74671e-09
8.05481e-11
-7.82347e-09
7.67571e-11
-7.89634e-09
7.28678e-11
-7.96522e-09
6.88789e-11
-8.03001e-09
6.47883e-11
-8.09061e-09
6.05947e-11
-8.14691e-09
5.62987e-11
-8.19881e-09
5.19019e-11
-8.24621e-09
4.74058e-11
-8.28903e-09
4.28115e-11
-8.32714e-09
3.81191e-11
-8.36047e-09
3.3329e-11
-8.38891e-09
2.84425e-11
-8.41237e-09
2.3462e-11
-8.43076e-09
1.83906e-11
-8.444e-09
1.32309e-11
-8.45198e-09
7.98543e-12
-8.45464e-09
2.65717e-12
-8.45189e-09
-2.74992e-12
-8.44366e-09
-8.23185e-12
-8.42988e-09
-1.37849e-11
-8.41047e-09
-1.94055e-11
-8.38538e-09
-2.50893e-11
-8.35455e-09
-3.0831e-11
-8.31792e-09
-3.6624e-11
-8.27546e-09
-4.24619e-11
-8.22712e-09
-4.83388e-11
-8.17287e-09
-5.42484e-11
-8.11269e-09
-6.01842e-11
-8.04655e-09
-6.61393e-11
-7.97444e-09
-7.21056e-11
-7.89637e-09
-7.80748e-11
-7.81233e-09
-8.40376e-11
-7.72235e-09
-8.99842e-11
-7.62645e-09
-9.59051e-11
-7.52466e-09
-1.01791e-10
-7.41703e-09
-1.07631e-10
-7.30361e-09
-1.13415e-10
-7.18448e-09
-1.19132e-10
-7.05971e-09
-1.24769e-10
-6.92939e-09
-1.30316e-10
-6.79363e-09
-1.35759e-10
-6.65255e-09
-1.41085e-10
-6.50627e-09
-1.46281e-10
-6.35493e-09
-1.51332e-10
-6.19871e-09
-1.56224e-10
-6.03777e-09
-1.60942e-10
-5.8723e-09
-1.6547e-10
-5.70251e-09
-1.69793e-10
-5.52861e-09
-1.73896e-10
-5.35085e-09
-1.77761e-10
-5.16948e-09
-1.81372e-10
-4.98477e-09
-1.8471e-10
-4.79701e-09
-1.87758e-10
-4.60651e-09
-1.90498e-10
-4.41359e-09
-1.92911e-10
-4.21862e-09
-1.94978e-10
-4.02194e-09
-1.96679e-10
-3.82394e-09
-1.97994e-10
-3.62504e-09
-1.98905e-10
-3.42565e-09
-1.9939e-10
-3.22622e-09
-1.9943e-10
-3.02722e-09
-1.99003e-10
-2.82913e-09
-1.98089e-10
-2.63246e-09
-1.96667e-10
-2.43774e-09
-1.94716e-10
-2.24552e-09
-1.92216e-10
-2.05638e-09
-1.89146e-10
-1.87089e-09
-1.85485e-10
-1.68968e-09
-1.81211e-10
-1.51338e-09
-1.76304e-10
-1.34263e-09
-1.70748e-10
-1.1781e-09
-1.64522e-10
-1.02049e-09
-1.57608e-10
-8.70507e-10
-1.49989e-10
-7.28859e-10
-1.41651e-10
-5.96276e-10
-1.32583e-10
-4.73497e-10
-1.22778e-10
-3.61262e-10
-1.12233e-10
-2.60311e-10
-1.0095e-10
-1.71362e-10
-8.89493e-11
-9.50959e-11
-7.62653e-11
-3.21364e-11
-6.29589e-11
1.69919e-11
-4.91282e-11
5.19242e-11
-3.49329e-11
7.25572e-11
-2.06334e-11
7.92214e-11
-6.66432e-12
7.2956e-11
6.26535e-12
5.59741e-11
1.6982e-11
3.2459e-11
2.35151e-11
9.98099e-12
2.24778e-11
9.98099e-12
1.98412e-11
-2.90002e-11
4.92712e-11
-4.76268e-11
7.16759e-11
-4.06546e-11
7.63124e-11
-1.6116e-11
5.58274e-11
1.91105e-11
5.92537e-12
6.03385e-11
-7.54789e-11
1.04311e-10
-1.89033e-10
1.48909e-10
-3.34368e-10
1.92802e-10
-5.10471e-10
2.35156e-10
-7.15939e-10
2.7544e-10
-9.49101e-10
3.13314e-10
-1.20814e-09
3.48606e-10
-1.49117e-09
3.81259e-10
-1.79629e-09
4.11267e-10
-2.12161e-09
4.38667e-10
-2.4653e-09
4.63533e-10
-2.82558e-09
4.85961e-10
-3.20075e-09
5.06058e-10
-3.58919e-09
5.23943e-10
-3.98937e-09
5.39745e-10
-4.39986e-09
5.53591e-10
-4.81928e-09
5.65601e-10
-5.24639e-09
5.75895e-10
-5.68001e-09
5.84597e-10
-6.11905e-09
5.91827e-10
-6.56249e-09
5.97695e-10
-7.0094e-09
6.02302e-10
-7.45891e-09
6.05748e-10
-7.91025e-09
6.08131e-10
-8.36267e-09
6.09536e-10
-8.8155e-09
6.10041e-10
-9.26814e-09
6.09722e-10
-9.72002e-09
6.08651e-10
-1.01706e-08
6.0689e-10
-1.06195e-08
6.04495e-10
-1.10661e-08
6.01514e-10
-1.15102e-08
5.97991e-10
-1.19512e-08
5.93969e-10
-1.2389e-08
5.89486e-10
-1.28231e-08
5.84573e-10
-1.32533e-08
5.79255e-10
-1.36792e-08
5.73551e-10
-1.41006e-08
5.67483e-10
-1.45172e-08
5.61067e-10
-1.49288e-08
5.54317e-10
-1.53352e-08
5.47245e-10
-1.5736e-08
5.39854e-10
-1.61311e-08
5.3215e-10
-1.65202e-08
5.24137e-10
-1.69031e-08
5.1582e-10
-1.72796e-08
5.07198e-10
-1.76494e-08
4.98271e-10
-1.80123e-08
4.89034e-10
-1.83681e-08
4.79483e-10
-1.87166e-08
4.69616e-10
-1.90574e-08
4.59429e-10
-1.93905e-08
4.48918e-10
-1.97154e-08
4.3808e-10
-2.0032e-08
4.26907e-10
-2.034e-08
4.15392e-10
-2.06392e-08
4.0353e-10
-2.09293e-08
3.91316e-10
-2.121e-08
3.78746e-10
-2.14811e-08
3.65815e-10
-2.17423e-08
3.52519e-10
-2.19934e-08
3.38853e-10
-2.22339e-08
3.24813e-10
-2.24638e-08
3.10394e-10
-2.26826e-08
2.95595e-10
-2.28902e-08
2.80413e-10
-2.30861e-08
2.64849e-10
-2.32702e-08
2.489e-10
-2.34422e-08
2.32566e-10
-2.36018e-08
2.15847e-10
-2.37486e-08
1.98746e-10
-2.38825e-08
1.81264e-10
-2.4003e-08
1.63405e-10
-2.41101e-08
1.45174e-10
-2.42034e-08
1.26577e-10
-2.42825e-08
1.07621e-10
-2.43474e-08
8.83109e-11
-2.43976e-08
6.86564e-11
-2.44331e-08
4.86675e-11
-2.44535e-08
2.83562e-11
-2.44585e-08
7.73506e-12
-2.44481e-08
-1.31823e-11
-2.4422e-08
-3.43818e-11
-2.43799e-08
-5.58488e-11
-2.43217e-08
-7.75667e-11
-2.42473e-08
-9.95165e-11
-2.41565e-08
-1.21678e-10
-2.4049e-08
-1.44029e-10
-2.3925e-08
-1.66548e-10
-2.37841e-08
-1.89211e-10
-2.36263e-08
-2.11992e-10
-2.34517e-08
-2.34865e-10
-2.326e-08
-2.57801e-10
-2.30513e-08
-2.8077e-10
-2.28257e-08
-3.0374e-10
-2.2583e-08
-3.26677e-10
-2.23235e-08
-3.49547e-10
-2.20471e-08
-3.72312e-10
-2.17539e-08
-3.94936e-10
-2.14442e-08
-4.17378e-10
-2.1118e-08
-4.39596e-10
-2.07756e-08
-4.61549e-10
-2.04171e-08
-4.83192e-10
-2.0043e-08
-5.04478e-10
-1.96534e-08
-5.25359e-10
-1.92487e-08
-5.45785e-10
-1.88293e-08
-5.65704e-10
-1.83955e-08
-5.85062e-10
-1.79479e-08
-6.03804e-10
-1.7487e-08
-6.21874e-10
-1.70133e-08
-6.39212e-10
-1.65273e-08
-6.55759e-10
-1.60298e-08
-6.71452e-10
-1.55213e-08
-6.86227e-10
-1.50026e-08
-7.0002e-10
-1.44746e-08
-7.12764e-10
-1.39379e-08
-7.24391e-10
-1.33936e-08
-7.34831e-10
-1.28425e-08
-7.44012e-10
-1.22856e-08
-7.51863e-10
-1.1724e-08
-7.58309e-10
-1.11587e-08
-7.63275e-10
-1.05909e-08
-7.66684e-10
-1.00219e-08
-7.68461e-10
-9.45276e-09
-7.68529e-10
-8.88495e-09
-7.6681e-10
-8.31982e-09
-7.63226e-10
-7.75879e-09
-7.57698e-10
-7.20335e-09
-7.50148e-10
-6.65507e-09
-7.40499e-10
-6.11554e-09
-7.28677e-10
-5.58642e-09
-7.14605e-10
-5.06942e-09
-6.9821e-10
-4.5663e-09
-6.79422e-10
-4.07888e-09
-6.58174e-10
-3.609e-09
-6.34402e-10
-3.15856e-09
-6.08052e-10
-2.72947e-09
-5.79073e-10
-2.3237e-09
-5.47429e-10
-1.94318e-09
-5.13097e-10
-1.58989e-09
-4.76075e-10
-1.26573e-09
-4.36387e-10
-9.72588e-10
-3.94093e-10
-7.12227e-10
-3.4931e-10
-4.86264e-10
-3.02229e-10
-2.96071e-10
-2.53153e-10
-1.42659e-10
-2.0254e-10
-2.65061e-11
-1.51087e-10
5.27038e-11
-9.98441e-11
9.64406e-11
-5.04021e-11
1.07874e-10
-5.16818e-12
9.26166e-11
3.22387e-11
5.96899e-11
5.64415e-11
2.24514e-11
5.97161e-11
3.24324e-11
1.88437e-11
-4.78468e-11
4.22016e-11
-7.09826e-11
4.95587e-11
-4.80155e-11
2.7816e-11
5.62558e-12
-3.20808e-11
7.90068e-11
-1.35807e-10
1.64065e-10
-2.8647e-10
2.54974e-10
-4.85264e-10
3.47708e-10
-7.32004e-10
4.39545e-10
-1.02552e-09
5.28676e-10
-1.36399e-09
6.13901e-10
-1.74513e-09
6.94455e-10
-2.1664e-09
7.69878e-10
-2.62509e-09
8.39947e-10
-3.11839e-09
9.04578e-10
-3.64352e-09
9.63801e-10
-4.19772e-09
1.01773e-09
-4.77827e-09
1.06651e-09
-5.38258e-09
1.11037e-09
-6.00814e-09
1.14951e-09
-6.65259e-09
1.18419e-09
-7.31366e-09
1.21466e-09
-7.98923e-09
1.24117e-09
-8.67731e-09
1.26398e-09
-9.37603e-09
1.28332e-09
-1.00837e-08
1.29945e-09
-1.07986e-08
1.3126e-09
-1.15193e-08
1.32299e-09
-1.22443e-08
1.33083e-09
-1.29725e-08
1.33632e-09
-1.37026e-08
1.33965e-09
-1.44336e-08
1.34098e-09
-1.51643e-08
1.34049e-09
-1.5894e-08
1.33832e-09
-1.66217e-08
1.33461e-09
-1.73467e-08
1.32947e-09
-1.80682e-08
1.32303e-09
-1.87856e-08
1.31537e-09
-1.94982e-08
1.30658e-09
-2.02055e-08
1.29676e-09
-2.09069e-08
1.28596e-09
-2.16019e-08
1.27425e-09
-2.229e-08
1.26167e-09
-2.29708e-08
1.24827e-09
-2.36438e-08
1.23408e-09
-2.43086e-08
1.21914e-09
-2.49648e-08
1.20347e-09
-2.56121e-08
1.18709e-09
-2.62499e-08
1.17e-09
-2.6878e-08
1.15223e-09
-2.7496e-08
1.13377e-09
-2.81034e-08
1.11463e-09
-2.86999e-08
1.09481e-09
-2.92852e-08
1.0743e-09
-2.98588e-08
1.0531e-09
-3.04204e-08
1.0312e-09
-3.09695e-08
1.00859e-09
-3.15059e-08
9.8527e-10
-3.2029e-08
9.61224e-10
-3.25386e-08
9.36441e-10
-3.30341e-08
9.10911e-10
-3.35152e-08
8.84624e-10
-3.39814e-08
8.5757e-10
-3.44324e-08
8.29737e-10
-3.48677e-08
8.01115e-10
-3.52869e-08
7.71695e-10
-3.56895e-08
7.41468e-10
-3.60751e-08
7.10429e-10
-3.64433e-08
6.7857e-10
-3.67936e-08
6.45886e-10
-3.71256e-08
6.12374e-10
-3.74387e-08
5.78029e-10
-3.77327e-08
5.42851e-10
-3.8007e-08
5.06841e-10
-3.82611e-08
4.70001e-10
-3.84947e-08
4.32336e-10
-3.87073e-08
3.9385e-10
-3.88985e-08
3.54552e-10
-3.90677e-08
3.14451e-10
-3.92147e-08
2.73561e-10
-3.9339e-08
2.31897e-10
-3.94402e-08
1.89476e-10
-3.95178e-08
1.46316e-10
-3.95716e-08
1.02438e-10
-3.96011e-08
5.78671e-11
-3.9606e-08
1.26307e-11
-3.95859e-08
-3.32406e-11
-3.95406e-08
-7.97149e-11
-3.94697e-08
-1.26759e-10
-3.93729e-08
-1.74337e-10
-3.925e-08
-2.22408e-10
-3.91008e-08
-2.70928e-10
-3.8925e-08
-3.19849e-10
-3.87224e-08
-3.69123e-10
-3.84929e-08
-4.18696e-10
-3.82364e-08
-4.68515e-10
-3.79527e-08
-5.18521e-10
-3.76419e-08
-5.6865e-10
-3.73038e-08
-6.18837e-10
-3.69385e-08
-6.69012e-10
-3.65461e-08
-7.19104e-10
-3.61266e-08
-7.69035e-10
-3.56802e-08
-8.18728e-10
-3.5207e-08
-8.68099e-10
-3.47074e-08
-9.17062e-10
-3.41814e-08
-9.65527e-10
-3.36296e-08
-1.0134e-09
-3.30522e-08
-1.06059e-09
-3.24497e-08
-1.10698e-09
-3.18225e-08
-1.15248e-09
-3.11714e-08
-1.19698e-09
-3.04967e-08
-1.24036e-09
-2.97993e-08
-1.28251e-09
-2.90797e-08
-1.32331e-09
-2.8339e-08
-1.36263e-09
-2.75778e-08
-1.40035e-09
-2.67973e-08
-1.43634e-09
-2.59983e-08
-1.47046e-09
-2.51819e-08
-1.50257e-09
-2.43494e-08
-1.53253e-09
-2.3502e-08
-1.5602e-09
-2.26409e-08
-1.58543e-09
-2.17677e-08
-1.60806e-09
-2.08838e-08
-1.62795e-09
-1.99907e-08
-1.64493e-09
-1.90902e-08
-1.65885e-09
-1.81839e-08
-1.66955e-09
-1.72737e-08
-1.67685e-09
-1.63616e-08
-1.6806e-09
-1.54495e-08
-1.68063e-09
-1.45395e-08
-1.67677e-09
-1.36339e-08
-1.66885e-09
-1.27349e-08
-1.65672e-09
-1.18448e-08
-1.64019e-09
-1.09662e-08
-1.61912e-09
-1.01015e-08
-1.59334e-09
-9.25345e-09
-1.5627e-09
-8.42462e-09
-1.52704e-09
-7.61782e-09
-1.48623e-09
-6.83587e-09
-1.44012e-09
-6.08166e-09
-1.38861e-09
-5.35813e-09
-1.33159e-09
-4.66823e-09
-1.26897e-09
-4.01495e-09
-1.2007e-09
-3.40127e-09
-1.12678e-09
-2.83012e-09
-1.04722e-09
-2.30437e-09
-9.62142e-10
-1.82673e-09
-8.71726e-10
-1.39975e-09
-7.76291e-10
-1.02565e-09
-6.76327e-10
-7.06242e-10
-5.72563e-10
-4.42719e-10
-4.66065e-10
-2.35429e-10
-3.58377e-10
-8.35427e-11
-2.5173e-10
1.53894e-11
-1.49334e-10
6.60134e-11
-5.5792e-11
7.59054e-11
2.23469e-11
5.63978e-11
7.59497e-11
2.34569e-11
9.2657e-11
5.58894e-11
1.18991e-11
-5.97438e-11
1.71891e-11
-7.62707e-11
-4.36713e-12
-2.64596e-11
-6.64952e-11
6.77552e-11
-1.78802e-10
1.91314e-10
-3.47521e-10
3.32783e-10
-5.76242e-10
4.83693e-10
-8.66483e-10
6.37947e-10
-1.21818e-09
7.9124e-10
-1.63009e-09
9.40589e-10
-2.10014e-09
1.08396e-09
-2.62568e-09
1.21998e-09
-3.20361e-09
1.34781e-09
-3.83063e-09
1.46696e-09
-4.50326e-09
1.5772e-09
-5.21798e-09
1.67852e-09
-5.97129e-09
1.77104e-09
-6.75974e-09
1.85496e-09
-7.57996e-09
1.93059e-09
-8.42871e-09
1.99826e-09
-9.30288e-09
2.05837e-09
-1.01995e-08
2.1113e-09
-1.11158e-08
2.15747e-09
-1.20491e-08
2.19729e-09
-1.2997e-08
2.23117e-09
-1.3957e-08
2.25951e-09
-1.49271e-08
2.28269e-09
-1.59052e-08
2.30109e-09
-1.68895e-08
2.31506e-09
-1.78781e-08
2.32495e-09
-1.88695e-08
2.33106e-09
-1.98622e-08
2.33368e-09
-2.08548e-08
2.3331e-09
-2.18461e-08
2.32957e-09
-2.28348e-08
2.32331e-09
-2.38199e-08
2.31455e-09
-2.48003e-08
2.30348e-09
-2.57752e-08
2.29025e-09
-2.67436e-08
2.27504e-09
-2.77048e-08
2.25797e-09
-2.86581e-08
2.23917e-09
-2.96026e-08
2.21874e-09
-3.05377e-08
2.19678e-09
-3.14628e-08
2.17335e-09
-3.23772e-08
2.14853e-09
-3.32804e-08
2.12237e-09
-3.41719e-08
2.0949e-09
-3.5051e-08
2.06618e-09
-3.59172e-08
2.03621e-09
-3.677e-08
2.00502e-09
-3.76088e-08
1.97263e-09
-3.84332e-08
1.93903e-09
-3.92427e-08
1.90423e-09
-4.00366e-08
1.86823e-09
-4.08145e-08
1.83101e-09
-4.15759e-08
1.79257e-09
-4.23202e-08
1.7529e-09
-4.30469e-08
1.71198e-09
-4.37555e-08
1.6698e-09
-4.44454e-08
1.62634e-09
-4.5116e-08
1.58158e-09
-4.57669e-08
1.5355e-09
-4.63975e-08
1.4881e-09
-4.70071e-08
1.43935e-09
-4.75952e-08
1.38924e-09
-4.81612e-08
1.33775e-09
-4.87046e-08
1.28487e-09
-4.92248e-08
1.23058e-09
-4.97211e-08
1.17489e-09
-5.0193e-08
1.11778e-09
-5.06399e-08
1.05924e-09
-5.10611e-08
9.99273e-10
-5.14562e-08
9.37878e-10
-5.18244e-08
8.75054e-10
-5.21652e-08
8.10807e-10
-5.2478e-08
7.45146e-10
-5.27622e-08
6.78083e-10
-5.30173e-08
6.09632e-10
-5.32426e-08
5.3981e-10
-5.34377e-08
4.6864e-10
-5.3602e-08
3.96147e-10
-5.37349e-08
3.22361e-10
-5.38359e-08
2.47319e-10
-5.39045e-08
1.71055e-10
-5.39402e-08
9.36123e-11
-5.39426e-08
1.50371e-11
-5.39113e-08
-6.46183e-11
-5.38457e-08
-1.45298e-10
-5.37455e-08
-2.26942e-10
-5.36103e-08
-3.09486e-10
-5.34399e-08
-3.9286e-10
-5.32338e-08
-4.7699e-10
-5.29919e-08
-5.61794e-10
-5.27138e-08
-6.47187e-10
-5.23994e-08
-7.33078e-10
-5.20486e-08
-8.1937e-10
-5.16611e-08
-9.05963e-10
-5.1237e-08
-9.92748e-10
-5.07763e-08
-1.07961e-09
-5.02788e-08
-1.16644e-09
-4.97448e-08
-1.2531e-09
-4.91744e-08
-1.33946e-09
-4.85678e-08
-1.42539e-09
-4.79251e-08
-1.51074e-09
-4.72468e-08
-1.59538e-09
-4.65332e-08
-1.67913e-09
-4.57848e-08
-1.76184e-09
-4.5002e-08
-1.84334e-09
-4.41855e-08
-1.92347e-09
-4.3336e-08
-2.00202e-09
-4.24541e-08
-2.07883e-09
-4.15408e-08
-2.1537e-09
-4.05969e-08
-2.22642e-09
-3.96234e-08
-2.2968e-09
-3.86214e-08
-2.36461e-09
-3.75921e-08
-2.42964e-09
-3.65368e-08
-2.49166e-09
-3.54568e-08
-2.55044e-09
-3.43536e-08
-2.60575e-09
-3.32288e-08
-2.65733e-09
-3.20841e-08
-2.70495e-09
-3.09212e-08
-2.74834e-09
-2.9742e-08
-2.78725e-09
-2.85485e-08
-2.8214e-09
-2.73429e-08
-2.85054e-09
-2.61274e-08
-2.87439e-09
-2.49043e-08
-2.89267e-09
-2.3676e-08
-2.9051e-09
-2.24452e-08
-2.9114e-09
-2.12145e-08
-2.91129e-09
-1.99868e-08
-2.90448e-09
-1.8765e-08
-2.89069e-09
-1.7552e-08
-2.86965e-09
-1.63512e-08
-2.84106e-09
-1.51656e-08
-2.80467e-09
-1.39988e-08
-2.7602e-09
-1.28541e-08
-2.70741e-09
-1.17351e-08
-2.64604e-09
-1.06454e-08
-2.57587e-09
-9.58884e-09
-2.49669e-09
-8.56913e-09
-2.40833e-09
-7.59008e-09
-2.31063e-09
-6.65557e-09
-2.20348e-09
-5.76942e-09
-2.08685e-09
-4.93546e-09
-1.96074e-09
-4.1574e-09
-1.82528e-09
-3.43885e-09
-1.6807e-09
-2.78317e-09
-1.5274e-09
-2.19344e-09
-1.36602e-09
-1.67232e-09
-1.19745e-09
-1.22186e-09
-1.02302e-09
-8.43325e-10
-8.44602e-10
-5.36905e-10
-6.64798e-10
-3.01381e-10
-4.87254e-10
-1.33692e-10
-3.17022e-10
-2.84057e-11
-1.61078e-10
2.29234e-11
-2.89817e-11
3.24622e-11
6.64111e-11
1.69666e-11
1.08153e-10
7.28559e-11
1.53135e-12
-6.12773e-11
-1.85891e-11
-5.61478e-11
-7.84108e-11
3.33618e-11
-1.90864e-10
1.80207e-10
-3.65129e-10
3.65582e-10
-6.07309e-10
5.74965e-10
-9.2099e-10
7.97372e-10
-1.30772e-09
1.02467e-09
-1.76743e-09
1.25095e-09
-2.29878e-09
1.47195e-09
-2.89951e-09
1.68469e-09
-3.56666e-09
1.88713e-09
-4.29677e-09
2.07792e-09
-5.08605e-09
2.25625e-09
-5.93053e-09
2.42168e-09
-6.82612e-09
2.57411e-09
-7.7687e-09
2.71362e-09
-8.75422e-09
2.84048e-09
-9.77869e-09
2.95505e-09
-1.08382e-08
3.05781e-09
-1.19291e-08
3.14926e-09
-1.30478e-08
3.22998e-09
-1.41909e-08
3.30054e-09
-1.53551e-08
3.36153e-09
-1.65375e-08
3.41355e-09
-1.77351e-08
3.45717e-09
-1.89454e-08
3.49296e-09
-2.01658e-08
3.52148e-09
-2.1394e-08
3.54324e-09
-2.26278e-08
3.55875e-09
-2.38652e-08
3.56847e-09
-2.51044e-08
3.57284e-09
-2.63435e-08
3.57228e-09
-2.75812e-08
3.56717e-09
-2.88157e-08
3.55785e-09
-3.00458e-08
3.54465e-09
-3.12702e-08
3.52786e-09
-3.24876e-08
3.50773e-09
-3.36971e-08
3.48451e-09
-3.48976e-08
3.45841e-09
-3.6088e-08
3.4296e-09
-3.72675e-08
3.39825e-09
-3.84352e-08
3.3645e-09
-3.95903e-08
3.32848e-09
-4.07321e-08
3.29028e-09
-4.18597e-08
3.24998e-09
-4.29725e-08
3.20766e-09
-4.40697e-08
3.16337e-09
-4.51506e-08
3.11716e-09
-4.62146e-08
3.06905e-09
-4.72611e-08
3.01906e-09
-4.82893e-08
2.96722e-09
-4.92985e-08
2.91351e-09
-5.02883e-08
2.85795e-09
-5.12578e-08
2.80052e-09
-5.22064e-08
2.7412e-09
-5.31335e-08
2.68e-09
-5.40384e-08
2.61688e-09
-5.49204e-08
2.55183e-09
-5.57789e-08
2.48482e-09
-5.66131e-08
2.41582e-09
-5.74224e-08
2.34483e-09
-5.82061e-08
2.2718e-09
-5.89635e-08
2.19672e-09
-5.96939e-08
2.11958e-09
-6.03965e-08
2.04034e-09
-6.10706e-08
1.95899e-09
-6.17155e-08
1.87551e-09
-6.23305e-08
1.78989e-09
-6.29149e-08
1.70213e-09
-6.34678e-08
1.6122e-09
-6.39887e-08
1.52012e-09
-6.44767e-08
1.42588e-09
-6.49311e-08
1.32948e-09
-6.53512e-08
1.23094e-09
-6.57363e-08
1.13026e-09
-6.60857e-08
1.02747e-09
-6.63987e-08
9.22584e-10
-6.66745e-08
8.15641e-10
-6.69125e-08
7.06669e-10
-6.71121e-08
5.95709e-10
-6.72725e-08
4.82807e-10
-6.73932e-08
3.68016e-10
-6.74736e-08
2.51395e-10
-6.7513e-08
1.33008e-10
-6.75109e-08
1.2927e-11
-6.74667e-08
-1.08771e-10
-6.738e-08
-2.32e-10
-6.72503e-08
-3.56668e-10
-6.70771e-08
-4.82676e-10
-6.686e-08
-6.09916e-10
-6.65988e-08
-7.38275e-10
-6.62929e-08
-8.6763e-10
-6.59423e-08
-9.9785e-10
-6.55465e-08
-1.1288e-09
-6.51056e-08
-1.26033e-09
-6.46193e-08
-1.39228e-09
-6.40875e-08
-1.5245e-09
-6.35103e-08
-1.6568e-09
-6.28877e-08
-1.78902e-09
-6.22199e-08
-1.92096e-09
-6.15069e-08
-2.05241e-09
-6.07491e-08
-2.18319e-09
-5.99468e-08
-2.31305e-09
-5.91004e-08
-2.44179e-09
-5.82104e-08
-2.56917e-09
-5.72773e-08
-2.69493e-09
-5.63018e-08
-2.81884e-09
-5.52846e-08
-2.94061e-09
-5.42267e-08
-3.05999e-09
-5.31288e-08
-3.17668e-09
-5.19921e-08
-3.29039e-09
-5.08177e-08
-3.40083e-09
-4.96068e-08
-3.50767e-09
-4.83609e-08
-3.61059e-09
-4.70812e-08
-3.70927e-09
-4.57695e-08
-3.80336e-09
-4.44275e-08
-3.8925e-09
-4.30569e-08
-3.97635e-09
-4.16597e-08
-4.05453e-09
-4.02379e-08
-4.12667e-09
-3.87939e-08
-4.19237e-09
-3.73299e-08
-4.25125e-09
-3.58484e-08
-4.30291e-09
-3.4352e-08
-4.34694e-09
-3.28434e-08
-4.38294e-09
-3.13256e-08
-4.41047e-09
-2.98016e-08
-4.42913e-09
-2.82745e-08
-4.43849e-09
-2.67477e-08
-4.43812e-09
-2.52246e-08
-4.42761e-09
-2.37087e-08
-4.40653e-09
-2.22039e-08
-4.37447e-09
-2.07139e-08
-4.33103e-09
-1.92428e-08
-4.27579e-09
-1.77947e-08
-4.20837e-09
-1.63737e-08
-4.12841e-09
-1.49841e-08
-4.03555e-09
-1.36305e-08
-3.92948e-09
-1.23173e-08
-3.80991e-09
-1.1049e-08
-3.67661e-09
-9.83028e-09
-3.52939e-09
-8.66563e-09
-3.36813e-09
-7.55967e-09
-3.19282e-09
-6.51686e-09
-3.00354e-09
-5.54159e-09
-2.80055e-09
-4.63801e-09
-2.58428e-09
-3.80999e-09
-2.35542e-09
-3.06103e-09
-2.11498e-09
-2.39405e-09
-1.86442e-09
-1.81131e-09
-1.60577e-09
-1.3141e-09
-1.34181e-09
-9.02549e-10
-1.07635e-09
-5.75248e-10
-8.14555e-10
-3.28898e-10
-5.63372e-10
-1.5785e-10
-3.32125e-10
-5.35977e-11
-1.33234e-10
-4.19904e-12
1.70124e-11
6.42697e-12
9.75263e-11
7.92823e-11
-1.04731e-11
-5.0805e-11
-6.0356e-11
-6.26676e-12
-1.64475e-10
1.37483e-10
-3.3394e-10
3.49671e-10
-5.76809e-10
6.08451e-10
-8.98507e-10
8.96664e-10
-1.3022e-09
1.20107e-09
-1.78919e-09
1.51166e-09
-2.35922e-09
1.82097e-09
-3.01078e-09
2.1235e-09
-3.74137e-09
2.41529e-09
-4.54779e-09
2.69355e-09
-5.42626e-09
2.95639e-09
-6.37264e-09
3.20262e-09
-7.38253e-09
3.43157e-09
-8.45139e-09
3.64297e-09
-9.57464e-09
3.83687e-09
-1.07477e-08
4.01353e-09
-1.19661e-08
4.17341e-09
-1.32253e-08
4.31708e-09
-1.45212e-08
4.44519e-09
-1.58497e-08
4.55848e-09
-1.72069e-08
4.6577e-09
-1.8589e-08
4.74364e-09
-1.99925e-08
4.81708e-09
-2.14142e-08
4.87881e-09
-2.28508e-08
4.92959e-09
-2.42995e-08
4.97017e-09
-2.57575e-08
5.00125e-09
-2.72223e-08
5.02353e-09
-2.86914e-08
5.03764e-09
-3.01628e-08
5.04419e-09
-3.16343e-08
5.04376e-09
-3.3104e-08
5.03686e-09
-3.45701e-08
5.02399e-09
-3.6031e-08
5.00558e-09
-3.74852e-08
4.98204e-09
-3.89312e-08
4.95375e-09
-4.03677e-08
4.92103e-09
-4.17935e-08
4.88418e-09
-4.32074e-08
4.84345e-09
-4.46082e-08
4.79908e-09
-4.5995e-08
4.75126e-09
-4.73666e-08
4.70018e-09
-4.87223e-08
4.64596e-09
-5.00611e-08
4.58875e-09
-5.13821e-08
4.52863e-09
-5.26844e-08
4.46569e-09
-5.39672e-08
4.39999e-09
-5.52297e-08
4.33158e-09
-5.64712e-08
4.26049e-09
-5.76907e-08
4.18675e-09
-5.88876e-08
4.11037e-09
-6.0061e-08
4.03133e-09
-6.12101e-08
3.94965e-09
-6.23342e-08
3.8653e-09
-6.34325e-08
3.77827e-09
-6.45041e-08
3.68854e-09
-6.55484e-08
3.59607e-09
-6.65644e-08
3.50084e-09
-6.75514e-08
3.40282e-09
-6.85086e-08
3.30199e-09
-6.94351e-08
3.1983e-09
-7.03301e-08
3.09173e-09
-7.11927e-08
2.98226e-09
-7.20222e-08
2.86985e-09
-7.28177e-08
2.75448e-09
-7.35784e-08
2.63614e-09
-7.43033e-08
2.51481e-09
-7.49917e-08
2.39048e-09
-7.56426e-08
2.26313e-09
-7.62552e-08
2.13278e-09
-7.68288e-08
1.9994e-09
-7.73623e-08
1.86303e-09
-7.7855e-08
1.72367e-09
-7.83061e-08
1.58134e-09
-7.87147e-08
1.43606e-09
-7.908e-08
1.28789e-09
-7.94012e-08
1.13685e-09
-7.96775e-08
9.82991e-10
-7.99082e-08
8.26378e-10
-8.00925e-08
6.67074e-10
-8.02296e-08
5.05151e-10
-8.03189e-08
3.40694e-10
-8.03597e-08
1.73796e-10
-8.03513e-08
4.55779e-12
-8.02932e-08
-1.66912e-10
-8.01847e-08
-3.40492e-10
-8.00253e-08
-5.16054e-10
-7.98145e-08
-6.93456e-10
-7.95519e-08
-8.72549e-10
-7.9237e-08
-1.05317e-09
-7.88695e-08
-1.23515e-09
-7.8449e-08
-1.4183e-09
-7.79754e-08
-1.60243e-09
-7.74484e-08
-1.78734e-09
-7.68679e-08
-1.9728e-09
-7.62338e-08
-2.15859e-09
-7.55461e-08
-2.34447e-09
-7.48049e-08
-2.53018e-09
-7.40104e-08
-2.71546e-09
-7.31628e-08
-2.90002e-09
-7.22624e-08
-3.08359e-09
-7.13096e-08
-3.26585e-09
-7.03049e-08
-3.44649e-09
-6.92489e-08
-3.62518e-09
-6.81423e-08
-3.80158e-09
-6.69858e-08
-3.97533e-09
-6.57803e-08
-4.14606e-09
-6.45269e-08
-4.31339e-09
-6.32267e-08
-4.47692e-09
-6.18808e-08
-4.63625e-09
-6.04907e-08
-4.79095e-09
-5.90578e-08
-4.94058e-09
-5.75837e-08
-5.08469e-09
-5.60702e-08
-5.22282e-09
-5.4519e-08
-5.35449e-09
-5.29323e-08
-5.47922e-09
-5.13122e-08
-5.59649e-09
-4.96609e-08
-5.70581e-09
-4.79809e-08
-5.80663e-09
-4.62749e-08
-5.89843e-09
-4.45455e-08
-5.98065e-09
-4.27956e-08
-6.05275e-09
-4.10284e-08
-6.11415e-09
-3.92471e-08
-6.16429e-09
-3.74549e-08
-6.20259e-09
-3.56556e-08
-6.22846e-09
-3.38528e-08
-6.24133e-09
-3.20503e-08
-6.24061e-09
-3.02522e-08
-6.22572e-09
-2.84626e-08
-6.19607e-09
-2.6686e-08
-6.15111e-09
-2.49267e-08
-6.09028e-09
-2.31895e-08
-6.01303e-09
-2.1479e-08
-5.91885e-09
-1.98002e-08
-5.80724e-09
-1.8158e-08
-5.67776e-09
-1.65575e-08
-5.52997e-09
-1.50039e-08
-5.36354e-09
-1.35023e-08
-5.17817e-09
-1.2058e-08
-4.97364e-09
-1.06763e-08
-4.74987e-09
-9.36223e-09
-4.50689e-09
-8.12087e-09
-4.2449e-09
-6.9571e-09
-3.96432e-09
-5.87555e-09
-3.66584e-09
-4.88047e-09
-3.3505e-09
-3.97567e-09
-3.01978e-09
-3.16434e-09
-2.67576e-09
-2.44887e-09
-2.32124e-09
-1.83067e-09
-1.96001e-09
-1.3099e-09
-1.59712e-09
-8.8521e-10
-1.23925e-09
-5.53393e-10
-8.95188e-10
-3.09064e-10
-5.76453e-10
-1.44263e-10
-2.98034e-10
-4.807e-11
-7.91811e-11
-6.14586e-12
5.56013e-11
7.31355e-11
-2.30884e-11
-2.77154e-11
-1.05047e-10
7.56915e-11
-2.56973e-10
2.89411e-10
-4.87591e-10
5.80288e-10
-8.03334e-10
9.24193e-10
-1.20854e-09
1.30187e-09
-1.70563e-09
1.69816e-09
-2.29538e-09
2.10142e-09
-2.97716e-09
2.50276e-09
-3.74918e-09
2.89552e-09
-4.60868e-09
3.27479e-09
-5.55217e-09
3.63703e-09
-6.57558e-09
3.97981e-09
-7.67446e-09
4.3015e-09
-8.84407e-09
4.60118e-09
-1.00795e-08
4.87839e-09
-1.13757e-08
5.13312e-09
-1.27278e-08
5.36562e-09
-1.41308e-08
5.57639e-09
-1.55798e-08
5.76612e-09
-1.70703e-08
5.9356e-09
-1.85975e-08
6.08571e-09
-2.01572e-08
6.21742e-09
-2.17453e-08
6.33168e-09
-2.33577e-08
6.42951e-09
-2.49908e-08
6.51189e-09
-2.6641e-08
6.5798e-09
-2.8305e-08
6.63419e-09
-2.99797e-08
6.67599e-09
-3.16623e-08
6.70608e-09
-3.33499e-08
6.72528e-09
-3.50401e-08
6.7344e-09
-3.67306e-08
6.73417e-09
-3.8419e-08
6.72528e-09
-4.01033e-08
6.70836e-09
-4.17818e-08
6.68401e-09
-4.34525e-08
6.65275e-09
-4.51138e-08
6.61508e-09
-4.67642e-08
6.57143e-09
-4.84022e-08
6.52219e-09
-5.00265e-08
6.46772e-09
-5.16357e-08
6.40831e-09
-5.32287e-08
6.34423e-09
-5.48042e-08
6.27573e-09
-5.63613e-08
6.20298e-09
-5.78987e-08
6.12617e-09
-5.94155e-08
6.04543e-09
-6.09107e-08
5.96087e-09
-6.23833e-08
5.87258e-09
-6.38323e-08
5.78064e-09
-6.52569e-08
5.68508e-09
-6.66561e-08
5.58594e-09
-6.8029e-08
5.48324e-09
-6.93746e-08
5.37699e-09
-7.06922e-08
5.26719e-09
-7.19807e-08
5.15381e-09
-7.32393e-08
5.03685e-09
-7.4467e-08
4.91626e-09
-7.56629e-08
4.79203e-09
-7.68262e-08
4.66412e-09
-7.79559e-08
4.53249e-09
-7.9051e-08
4.39711e-09
-8.01106e-08
4.25794e-09
-8.11339e-08
4.11494e-09
-8.21197e-08
3.96809e-09
-8.30672e-08
3.81735e-09
-8.39754e-08
3.6627e-09
-8.48434e-08
3.50411e-09
-8.56701e-08
3.34156e-09
-8.64547e-08
3.17504e-09
-8.71961e-08
3.00454e-09
-8.78934e-08
2.83006e-09
-8.85456e-08
2.65161e-09
-8.91517e-08
2.4692e-09
-8.97109e-08
2.28286e-09
-9.02222e-08
2.0926e-09
-9.06846e-08
1.89848e-09
-9.10973e-08
1.70053e-09
-9.14592e-08
1.49882e-09
-9.17696e-08
1.29341e-09
-9.20277e-08
1.08439e-09
-9.22324e-08
8.71831e-10
-9.23831e-08
6.55843e-10
-9.24789e-08
4.36536e-10
-9.25192e-08
2.14032e-10
-9.25031e-08
-1.15325e-11
-9.243e-08
-2.4001e-10
-9.22993e-08
-4.71241e-10
-9.21103e-08
-7.05052e-10
-9.18625e-08
-9.41256e-10
-9.15553e-08
-1.17965e-09
-9.11885e-08
-1.42003e-09
-9.07615e-08
-1.66216e-09
-9.0274e-08
-1.90579e-09
-8.97258e-08
-2.15067e-09
-8.91166e-08
-2.39652e-09
-8.84463e-08
-2.64307e-09
-8.77149e-08
-2.88999e-09
-8.69224e-08
-3.13698e-09
-8.60689e-08
-3.3837e-09
-8.51545e-08
-3.62979e-09
-8.41797e-08
-3.87489e-09
-8.31446e-08
-4.11862e-09
-8.20499e-08
-4.36056e-09
-8.08961e-08
-4.60031e-09
-7.96839e-08
-4.83742e-09
-7.8414e-08
-5.07144e-09
-7.70874e-08
-5.3019e-09
-7.57052e-08
-5.52832e-09
-7.42684e-08
-5.75018e-09
-7.27783e-08
-5.96697e-09
-7.12364e-08
-6.17813e-09
-6.96443e-08
-6.38312e-09
-6.80035e-08
-6.58135e-09
-6.6316e-08
-6.77222e-09
-6.45837e-08
-6.95514e-09
-6.28087e-08
-7.12945e-09
-6.09934e-08
-7.29453e-09
-5.91402e-08
-7.4497e-09
-5.72517e-08
-7.59429e-09
-5.53307e-08
-7.72761e-09
-5.33802e-08
-7.84895e-09
-5.14032e-08
-7.95759e-09
-4.94032e-08
-8.0528e-09
-4.73835e-08
-8.13384e-09
-4.53478e-08
-8.19996e-09
-4.33e-08
-8.25039e-09
-4.12441e-08
-8.28439e-09
-3.91842e-08
-8.30119e-09
-3.71248e-08
-8.30002e-09
-3.50704e-08
-8.28014e-09
-3.30257e-08
-8.24079e-09
-3.09956e-08
-8.18124e-09
-2.89851e-08
-8.10078e-09
-2.69994e-08
-7.99871e-09
-2.50438e-08
-7.87437e-09
-2.31239e-08
-7.72716e-09
-2.12452e-08
-7.55649e-09
-1.94133e-08
-7.36188e-09
-1.7634e-08
-7.14288e-09
-1.59129e-08
-6.89917e-09
-1.4256e-08
-6.63054e-09
-1.2669e-08
-6.33693e-09
-1.11574e-08
-6.01845e-09
-9.72685e-09
-5.67546e-09
-8.38258e-09
-5.30859e-09
-7.12961e-09
-4.91881e-09
-5.97253e-09
-4.50758e-09
-4.91541e-09
-4.0769e-09
-3.96167e-09
-3.6295e-09
-3.11391e-09
-3.169e-09
-2.37371e-09
-2.70021e-09
-1.74141e-09
-2.22941e-09
-1.21593e-09
-1.76473e-09
-7.94463e-10
-1.31666e-09
-4.72258e-10
-8.98658e-10
-2.42373e-10
-5.27919e-10
-9.54528e-11
-2.26101e-10
-1.95538e-11
-2.02989e-11
5.35808e-11
-3.57964e-11
8.0816e-12
-1.50728e-10
1.90622e-10
-3.52135e-10
4.9082e-10
-6.46082e-10
8.74236e-10
-1.03707e-09
1.31518e-09
-1.52803e-09
1.79283e-09
-2.12041e-09
2.29053e-09
-2.81423e-09
2.79524e-09
-3.60833e-09
3.29686e-09
-4.5005e-09
3.78768e-09
-5.48763e-09
4.26192e-09
-6.56592e-09
4.71533e-09
-7.73102e-09
5.14491e-09
-8.97816e-09
5.54865e-09
-1.03023e-08
5.92532e-09
-1.16982e-08
6.27429e-09
-1.31605e-08
6.59545e-09
-1.4684e-08
6.88905e-09
-1.62632e-08
7.15561e-09
-1.7893e-08
7.39592e-09
-1.95683e-08
7.61089e-09
-2.12842e-08
7.80159e-09
-2.30359e-08
7.96915e-09
-2.48189e-08
8.11474e-09
-2.6629e-08
8.23957e-09
-2.8462e-08
8.34486e-09
-3.0314e-08
8.4318e-09
-3.21814e-08
8.50157e-09
-3.40607e-08
8.55531e-09
-3.59487e-08
8.59411e-09
-3.78424e-08
8.61901e-09
-3.9739e-08
8.63101e-09
-4.16359e-08
8.63101e-09
-4.35305e-08
8.61989e-09
-4.54206e-08
8.59845e-09
-4.7304e-08
8.56743e-09
-4.91788e-08
8.5275e-09
-5.1043e-08
8.47928e-09
-5.28948e-08
8.42332e-09
-5.47328e-08
8.36013e-09
-5.65552e-08
8.29015e-09
-5.83607e-08
8.21377e-09
-6.01478e-08
8.13133e-09
-6.19152e-08
8.04315e-09
-6.36617e-08
7.94946e-09
-6.5386e-08
7.85049e-09
-6.7087e-08
7.74642e-09
-6.87635e-08