/*--------------------------------*- C++ -*----------------------------------*\
  =========                 |
  \\      /  F ield         | OpenFOAM: The Open Source CFD Toolbox
   \\    /   O peration     | Website:  https://openfoam.org
    \\  /    A nd           | Version:  7
     \\/     M anipulation  |
\*---------------------------------------------------------------------------*/
FoamFile
{
    version     2.0;
    format      ascii;
    class       volScalarField;
    location    "0.4375";
    object      p;
}
// * * * * * * * * * * * * * * * * * * * * * * * * * * * * * * * * * * * * * //

dimensions      [0 2 -2 0 0 0 0];

internalField   nonuniform List<scalar> 
25600
(
-7.96702e-08
2.10283e-05
2.35275e-05
-2.58957e-06
-5.82512e-05
-0.000142079
-0.000251435
-0.000383095
-0.000533729
-0.000700129
-0.000879279
-0.00106839
-0.00126493
-0.00146657
-0.0016712
-0.00187692
-0.00208202
-0.00228493
-0.00248427
-0.00267876
-0.00286729
-0.00304883
-0.00322247
-0.00338741
-0.00354292
-0.00368836
-0.00382315
-0.0039468
-0.00405888
-0.00415899
-0.00424682
-0.0043221
-0.00438457
-0.00443404
-0.00447035
-0.00449337
-0.004503
-0.00449916
-0.00448183
-0.00445096
-0.00440657
-0.00434866
-0.00427727
-0.00419245
-0.00409427
-0.00398281
-0.00385816
-0.00372045
-0.0035698
-0.00340635
-0.00323026
-0.00304169
-0.00284081
-0.00262783
-0.00240293
-0.00216633
-0.00191826
-0.00165896
-0.00138869
-0.00110772
-0.000816322
-0.000514775
-0.000203387
0.000117526
0.000447625
0.000786565
0.00113398
0.00148949
0.0018527
0.00222321
0.00260059
0.00298441
0.00337422
0.00376952
0.00416984
0.00457467
0.00498349
0.00539577
0.00581096
0.0062285
0.00664782
0.00706833
0.00748942
0.00791049
0.00833092
0.00875006
0.00916728
0.00958194
0.00999338
0.0104009
0.010804
0.0112018
0.0115937
0.0119792
0.0123574
0.0127278
0.0130898
0.0134426
0.0137856
0.0141183
0.0144401
0.0147502
0.0150483
0.0153336
0.0156057
0.0158641
0.0161083
0.0163379
0.0165523
0.0167513
0.0169345
0.0171015
0.0172521
0.017386
0.0175031
0.0176031
0.0176859
0.0177515
0.0177998
0.0178309
0.0178449
0.0178418
0.0178219
0.0177853
0.0177325
0.0176636
0.0175792
0.0174796
0.0173655
0.0172372
0.0170956
0.0169413
0.016775
0.0165976
0.0164099
0.0162129
0.0160076
0.0157952
0.0155767
0.0153534
0.0151267
0.0148978
0.0146684
0.0144399
0.014214
0.0139925
0.0137773
0.0135702
0.0133734
0.013189
0.0130194
0.0128669
0.012734
0.012623
0.0125362
0.0124755
0.0124417
0.0124339
0.0124484
0.0124735
-2.12663e-05
-1.0753e-07
-1.89061e-06
-2.95789e-05
-8.18751e-05
-0.000158015
-0.000256332
-0.00037447
-0.000509825
-0.000659776
-0.000821768
-0.000993367
-0.0011723
-0.00135645
-0.00154389
-0.00173282
-0.00192164
-0.00210886
-0.00229313
-0.00247324
-0.00264809
-0.00281668
-0.00297812
-0.0031316
-0.0032764
-0.00341187
-0.00353745
-0.00365263
-0.00375695
-0.00385004
-0.00393154
-0.00400118
-0.00405869
-0.00410386
-0.00413652
-0.00415652
-0.00416376
-0.00415813
-0.0041396
-0.00410811
-0.00406366
-0.00400625
-0.00393589
-0.00385263
-0.00375652
-0.00364763
-0.00352606
-0.0033919
-0.00324527
-0.00308631
-0.00291516
-0.00273197
-0.00253692
-0.00233017
-0.00211194
-0.00188241
-0.00164182
-0.0013904
-0.00112839
-0.00085607
-0.000573683
-0.00028151
2.01535e-05
0.000330999
0.000650693
0.000978896
0.00131526
0.00165941
0.00201097
0.00236954
0.00273472
0.00310608
0.00348318
0.00386555
0.00425271
0.00464419
0.00503946
0.00543803
0.00583937
0.00624293
0.00664814
0.00705446
0.00746129
0.00786804
0.00827413
0.00867893
0.00908182
0.0094822
0.00987943
0.0102729
0.0106619
0.0110459
0.0114241
0.0117961
0.0121611
0.0125186
0.0128678
0.0132082
0.0135392
0.0138603
0.0141707
0.0144701
0.0147577
0.0150331
0.0152959
0.0155454
0.0157814
0.0160032
0.0162106
0.0164032
0.0165806
0.0167425
0.0168887
0.0170189
0.017133
0.0172308
0.0173122
0.0173772
0.0174257
0.0174578
0.0174735
0.017473
0.0174565
0.0174242
0.0173764
0.0173134
0.0172357
0.0171437
0.0170378
0.0169187
0.0167869
0.0166433
0.0164884
0.0163231
0.0161482
0.0159647
0.0157735
0.0155757
0.0153725
0.015165
0.0149544
0.0147421
0.0145295
0.0143182
0.0141095
0.0139053
0.0137072
0.013517
0.0133366
0.0131679
0.0130131
0.012874
0.0127527
0.0126511
0.0125709
0.0125131
0.0124782
0.0124652
0.0124735
0.0124985
-2.38005e-05
1.71761e-06
-5.4383e-08
-2.76153e-05
-7.73801e-05
-0.000148423
-0.000239371
-0.000348256
-0.000472895
-0.000611042
-0.000760473
-0.000919034
-0.00108468
-0.00125547
-0.00142962
-0.00160547
-0.00178149
-0.00195628
-0.00212856
-0.00229714
-0.00246097
-0.00261908
-0.0027706
-0.00291473
-0.00305075
-0.00317804
-0.00329602
-0.00340418
-0.00350208
-0.00358932
-0.00366554
-0.00373047
-0.00378383
-0.00382539
-0.00385498
-0.00387244
-0.00387764
-0.00387051
-0.00385095
-0.00381893
-0.00377443
-0.00371742
-0.00364793
-0.00356599
-0.00347164
-0.00336493
-0.00324596
-0.00311481
-0.0029716
-0.00281645
-0.0026495
-0.0024709
-0.0022808
-0.00207937
-0.0018668
-0.0016433
-0.00140907
-0.00116435
-0.000909379
-0.000644403
-0.00036968
-8.54779e-05
0.00020792
0.000510212
0.000821073
0.00114017
0.00146715
0.00180166
0.00214335
0.00249181
0.00284666
0.00320748
0.00357383
0.00394527
0.00432133
0.00470153
0.00508539
0.00547241
0.00586207
0.00625386
0.00664722
0.0070416
0.00743645
0.00783119
0.00822524
0.00861802
0.00900892
0.00939734
0.00978268
0.0101643
0.0105416
0.0109141
0.0112809
0.0116417
0.0119956
0.0123423
0.0126809
0.0130111
0.0133321
0.0136434
0.0139445
0.0142348
0.0145139
0.0147811
0.015036
0.0152783
0.0155073
0.0157228
0.0159244
0.0161116
0.0162842
0.0164419
0.0165844
0.0167116
0.0168233
0.0169192
0.0169995
0.0170639
0.0171125
0.0171453
0.0171625
0.0171641
0.0171504
0.0171215
0.0170778
0.0170196
0.0169474
0.0168614
0.0167623
0.0166506
0.0165268
0.0163918
0.0162461
0.0160906
0.015926
0.0157533
0.0155735
0.0153875
0.0151965
0.0150015
0.0148038
0.0146047
0.0144054
0.0142075
0.0140123
0.0138215
0.0136366
0.0134593
0.0132913
0.0131344
0.0129904
0.0128611
0.0127482
0.0126532
0.0125776
0.0125223
0.0124877
0.0124734
0.0124816
0.012513
2.27401e-06
2.94422e-05
2.75561e-05
-2.83369e-08
-4.84664e-05
-0.000116513
-0.000202806
-0.000305527
-0.000422723
-0.000552403
-0.000692583
-0.000841322
-0.000996763
-0.00115714
-0.00132079
-0.00148617
-0.00165185
-0.0018165
-0.0019789
-0.00213793
-0.00229257
-0.00244188
-0.00258503
-0.00272123
-0.00284979
-0.00297007
-0.00308152
-0.00318364
-0.00327599
-0.00335816
-0.0034298
-0.00349062
-0.00354035
-0.00357875
-0.00360565
-0.00362087
-0.0036243
-0.00361582
-0.00359537
-0.00356288
-0.00351832
-0.00346169
-0.00339297
-0.0033122
-0.00321941
-0.00311466
-0.00299801
-0.00286956
-0.00272941
-0.00257768
-0.00241448
-0.00223998
-0.00205431
-0.00185764
-0.00165015
-0.00143204
-0.00120351
-0.000964788
-0.000716104
-0.000457698
-0.000189822
8.72585e-05
0.00037327
0.000667919
0.000970891
0.00128186
0.00160049
0.00192642
0.00225931
0.00259878
0.00294445
0.0032959
0.00365271
0.00401444
0.00438065
0.00475087
0.00512463
0.00550143
0.00588079
0.00626217
0.00664507
0.00702894
0.00741323
0.0077974
0.00818088
0.00856308
0.00894345
0.00932138
0.0096963
0.0100676
0.0104347
0.010797
0.0111539
0.0115048
0.0118492
0.0121864
0.0125158
0.012837
0.0131493
0.0134522
0.0137451
0.0140276
0.0142992
0.0145593
0.0148075
0.0150433
0.0152664
0.0154764
0.0156729
0.0158555
0.0160239
0.0161779
0.0163173
0.0164419
0.0165514
0.0166458
0.0167249
0.0167888
0.0168375
0.016871
0.0168893
0.0168927
0.0168813
0.0168553
0.0168151
0.0167609
0.0166932
0.0166124
0.016519
0.0164135
0.0162965
0.0161687
0.0160308
0.0158834
0.0157275
0.0155639
0.0153935
0.0152173
0.0150363
0.0148517
0.0146646
0.0144762
0.0142878
0.0141008
0.0139164
0.0137363
0.0135618
0.0133946
0.0132362
0.0130882
0.0129524
0.0128302
0.0127232
0.0126328
0.0125605
0.0125071
0.0124731
0.0124589
0.0124687
0.0125054
5.79148e-05
8.1837e-05
7.74209e-05
4.84178e-05
-1.06412e-07
-6.67167e-05
-0.000150044
-0.000248384
-0.000359961
-0.000482988
-0.000615679
-0.000756291
-0.000903133
-0.00105459
-0.00120914
-0.00136535
-0.00152187
-0.00167747
-0.001831
-0.00198139
-0.00212766
-0.00226893
-0.00240437
-0.00253325
-0.00265488
-0.00276865
-0.00287402
-0.00297048
-0.0030576
-0.003135
-0.00320232
-0.00325926
-0.00330555
-0.00334095
-0.00336529
-0.00337839
-0.00338012
-0.00337038
-0.00334907
-0.00331615
-0.00327156
-0.0032153
-0.00314734
-0.00306772
-0.00297646
-0.00287361
-0.00275923
-0.0026334
-0.00249623
-0.00234782
-0.00218829
-0.00201778
-0.00183642
-0.00164438
-0.00144184
-0.00122897
-0.00100598
-0.000773095
-0.000530527
-0.000278511
-1.72877e-05
0.000252879
0.000531719
0.000818949
0.00111426
0.00141735
0.00172788
0.0020455
0.00236989
0.00270066
0.00303744
0.00337983
0.00372743
0.0040798
0.00443652
0.00479712
0.00516114
0.00552811
0.00589755
0.00626894
0.00664179
0.00701557
0.00738974
0.00776377
0.00813711
0.00850921
0.00887949
0.00924739
0.00961235
0.00997379
0.0103311
0.0106838
0.0110312
0.0113728
0.011708
0.0120362
0.0123569
0.0126695
0.0129735
0.0132684
0.0135536
0.0138287
0.0140932
0.0143465
0.0145883
0.0148182
0.0150357
0.0152404
0.015432
0.0156103
0.0157748
0.0159253
0.0160617
0.0161837
0.0162912
0.016384
0.0164622
0.0165256
0.0165743
0.0166083
0.0166277
0.0166326
0.0166234
0.0166001
0.016563
0.0165126
0.0164491
0.016373
0.0162848
0.016185
0.0160743
0.0159531
0.0158222
0.0156824
0.0155343
0.015379
0.0152172
0.0150498
0.014878
0.0147027
0.0145252
0.0143464
0.0141677
0.0139902
0.0138155
0.0136447
0.0134792
0.0133207
0.0131704
0.0130299
0.0129007
0.0127842
0.0126819
0.012595
0.0125249
0.0124726
0.0124388
0.0124242
0.0124339
0.012472
0.000141866
0.000158226
0.000148691
0.000116546
6.63423e-05
-4.37604e-07
-8.24393e-05
-0.000178078
-0.000285732
-0.000403793
-0.000530652
-0.000664734
-0.000804504
-0.000948491
-0.0010953
-0.0012436
-0.00139215
-0.0015398
-0.00168545
-0.00182812
-0.00196688
-0.00210088
-0.00222933
-0.00235152
-0.0024668
-0.00257458
-0.00267432
-0.00276554
-0.00284783
-0.00292078
-0.00298406
-0.00303736
-0.00308043
-0.00311303
-0.00313497
-0.00314608
-0.00314622
-0.00313529
-0.0031132
-0.00307988
-0.00303529
-0.0029794
-0.0029122
-0.0028337
-0.00274393
-0.00264293
-0.00253076
-0.00240748
-0.0022732
-0.00212802
-0.00197203
-0.00180538
-0.0016282
-0.00144065
-0.00124289
-0.0010351
-0.00081748
-0.000590233
-0.000353576
-0.000107738
0.000147052
0.000410538
0.000682456
0.000962529
0.00125046
0.00154595
0.00184867
0.0021583
0.00247449
0.00279689
0.00312513
0.00345883
0.00379759
0.00414098
0.00448859
0.00483997
0.00519468
0.00555225
0.0059122
0.00627405
0.00663731
0.00700145
0.00736598
0.00773036
0.00809405
0.00845653
0.00881723
0.00917562
0.00953113
0.00988321
0.0102313
0.0105748
0.0109132
0.011246
0.0115725
0.0118923
0.0122047
0.0125093
0.0128055
0.0130928
0.0133708
0.0136389
0.0138967
0.0141437
0.0143795
0.0146036
0.0148158
0.0150156
0.0152027
0.0153768
0.0155376
0.0156849
0.0158185
0.0159381
0.0160436
0.016135
0.0162122
0.0162751
0.0163237
0.0163582
0.0163785
0.0163849
0.0163776
0.0163567
0.0163225
0.0162754
0.0162158
0.016144
0.0160606
0.015966
0.0158608
0.0157457
0.0156212
0.0154882
0.0153473
0.0151993
0.0150452
0.0148858
0.0147222
0.0145552
0.0143861
0.0142158
0.0140456
0.0138766
0.01371
0.0135473
0.0133896
0.0132382
0.0130947
0.0129602
0.0128363
0.0127243
0.0126253
0.0125408
0.0124719
0.0124197
0.0123851
0.0123688
0.0123764
0.0124119
0.000251655
0.00025708
0.000240109
0.000203094
0.000149595
8.10569e-05
-1.20827e-06
-9.57553e-05
-0.000201109
-0.000315815
-0.000438424
-0.000567513
-0.000701696
-0.000839629
-0.000980037
-0.0011217
-0.00126347
-0.00140426
-0.00154308
-0.00167898
-0.0018111
-0.00193863
-0.00206083
-0.00217702
-0.00228657
-0.00238891
-0.00248353
-0.00256997
-0.00264781
-0.00271668
-0.00277625
-0.00282621
-0.0028663
-0.00289631
-0.00291603
-0.0029253
-0.00292398
-0.00291197
-0.00288916
-0.0028555
-0.00281094
-0.00275544
-0.00268899
-0.00261159
-0.00252327
-0.00242406
-0.00231402
-0.00219321
-0.00206172
-0.00191964
-0.00176707
-0.00160414
-0.00143098
-0.00124774
-0.00105459
-0.000851681
-0.000639215
-0.000417386
-0.000186403
5.35076e-05
0.000302123
0.0005592
0.000824481
0.0010977
0.00137856
0.00166678
0.00196204
0.00226402
0.00257239
0.00288681
0.00320691
0.00353232
0.00386266
0.0041975
0.00453645
0.00487908
0.00522493
0.00557358
0.00592455
0.00627735
0.00663153
0.00698657
0.00734197
0.00769723
0.00805183
0.00840524
0.00875692
0.00910635
0.00945297
0.00979625
0.0101357
0.0104706
0.0108006
0.0111251
0.0114435
0.0117553
0.01206
0.012357
0.012646
0.0129263
0.0131975
0.013459
0.0137106
0.0139517
0.0141818
0.0144007
0.014608
0.0148032
0.0149861
0.0151564
0.0153137
0.0154579
0.0155888
0.0157062
0.01581
0.0159
0.0159762
0.0160385
0.0160871
0.0161219
0.0161431
0.0161507
0.0161451
0.0161263
0.0160948
0.0160507
0.0159945
0.0159266
0.0158474
0.0157574
0.0156573
0.0155475
0.0154288
0.0153017
0.0151671
0.0150258
0.0148785
0.0147261
0.0145696
0.01441
0.0142481
0.0140852
0.0139223
0.0137604
0.0136009
0.0134448
0.0132935
0.0131481
0.0130099
0.0128801
0.0127602
0.0126512
0.0125544
0.012471
0.0124022
0.012349
0.0123123
0.0122932
0.0122966
0.0123261
0.000384242
0.00037619
0.000349829
0.000306354
0.000248054
0.000176281
9.22883e-05
-2.62311e-06
-0.000107136
-0.00021994
-0.000339729
-0.000465221
-0.000595163
-0.000728335
-0.000863577
-0.000999765
-0.00113585
-0.00127084
-0.00140378
-0.00153382
-0.00166013
-0.00178197
-0.00189863
-0.00200946
-0.00211387
-0.00221131
-0.0023013
-0.0023834
-0.00245721
-0.00252236
-0.00257853
-0.00262542
-0.0026628
-0.00269043
-0.00270811
-0.0027157
-0.00271305
-0.00270006
-0.00267663
-0.00264269
-0.0025982
-0.0025431
-0.0024774
-0.00240109
-0.00231419
-0.00221672
-0.00210875
-0.00199032
-0.00186152
-0.00172243
-0.00157316
-0.00141382
-0.00124453
-0.00106545
-0.000876717
-0.000678506
-0.000470993
-0.00025437
-2.88377e-05
0.000205387
0.000448083
0.000699015
0.000957936
0.00122459
0.00149869
0.00177996
0.00206809
0.00236276
0.00266367
0.00297047
0.00328281
0.00360033
0.00392265
0.00424937
0.00458009
0.0049144
0.00525186
0.00559205
0.0059345
0.00627875
0.00662433
0.00697077
0.00731758
0.00766424
0.00801026
0.00835513
0.00869832
0.00903932
0.0093776
0.00971263
0.0100439
0.0103708
0.0106929
0.0110096
0.0113204
0.0116248
0.0119223
0.0122124
0.0124945
0.0127682
0.0130331
0.0132886
0.0135344
0.0137699
0.0139949
0.0142089
0.0144115
0.0146025
0.0147814
0.0149481
0.0151023
0.0152436
0.0153721
0.0154874
0.0155894
0.0156781
0.0157534
0.0158152
0.0158637
0.0158988
0.0159206
0.0159294
0.0159252
0.0159084
0.0158791
0.0158377
0.0157845
0.01572
0.0156446
0.0155588
0.0154631
0.0153581
0.0152444
0.0151226
0.0149936
0.014858
0.0147167
0.0145704
0.0144201
0.0142667
0.0141112
0.0139546
0.0137978
0.013642
0.0134882
0.0133377
0.0131914
0.0130507
0.0129166
0.0127903
0.012673
0.0125659
0.0124701
0.0123867
0.0123168
0.0122615
0.0122216
0.0121982
0.0121955
0.0122163
0.000536507
0.000513124
0.000475805
0.000424497
0.000360057
0.00028373
0.000196694
0.000100101
-4.88247e-06
-0.000117082
-0.000235336
-0.000358488
-0.00048541
-0.000615001
-0.000746205
-0.000877999
-0.00100942
-0.00113955
-0.00126753
-0.00139254
-0.00151384
-0.00163071
-0.00174251
-0.0018486
-0.00194844
-0.00204152
-0.00212736
-0.00220555
-0.00227571
-0.00233749
-0.00239057
-0.00243469
-0.00246958
-0.00249505
-0.00251089
-0.00251696
-0.00251312
-0.00249926
-0.00247529
-0.00244114
-0.00239675
-0.00234209
-0.00227715
-0.00220192
-0.0021164
-0.00202064
-0.00191467
-0.00179856
-0.00167236
-0.00153617
-0.00139007
-0.00123419
-0.00106864
-0.000893553
-0.000709083
-0.000515385
-0.000312633
-0.000101011
0.000119287
0.000348053
0.000585072
0.000830115
0.00108294
0.00134331
0.00161094
0.00188557
0.00216689
0.00245459
0.00274838
0.00304792
0.00335286
0.00366287
0.00397756
0.00429656
0.00461947
0.00494589
0.0052754
0.00560757
0.00594196
0.00627813
0.0066156
0.00695393
0.00729261
0.00763117
0.00796913
0.00830596
0.00864118
0.00897427
0.00930472
0.00963201
0.00995563
0.0102751
0.0105898
0.0108992
0.011203
0.0115005
0.0117912
0.0120747
0.0123505
0.0126182
0.0128771
0.013127
0.0133674
0.0135978
0.0138179
0.0140274
0.0142258
0.0144128
0.0145881
0.0147515
0.0149026
0.0150414
0.0151675
0.0152808
0.0153813
0.0154687
0.0155431
0.0156044
0.0156527
0.015688
0.0157105
0.0157202
0.0157173
0.0157021
0.0156748
0.0156358
0.0155853
0.0155238
0.0154517
0.0153695
0.0152777
0.0151768
0.0150675
0.0149504
0.0148262
0.0146957
0.0145595
0.0144185
0.0142735
0.0141255
0.0139753
0.0138239
0.0136722
0.0135214
0.0133723
0.0132261
0.0130838
0.0129466
0.0128154
0.0126914
0.0125758
0.0124694
0.0123735
0.0122889
0.0122169
0.0121583
0.012114
0.0120851
0.0120747
0.0120848
0.000705452
0.000665427
0.000615944
0.000555661
0.000483928
0.000401887
0.000310642
0.000211199
0.000104576
-8.19178e-06
-0.000126063
-0.000248012
-0.000373024
-0.000500111
-0.000628311
-0.000756701
-0.000884403
-0.00101058
-0.00113443
-0.00125522
-0.00137225
-0.00148485
-0.00159241
-0.00169436
-0.00179019
-0.0018794
-0.00196155
-0.00203625
-0.00210315
-0.0021619
-0.00221221
-0.00225382
-0.00228649
-0.00231001
-0.0023242
-0.00232891
-0.00232401
-0.0023094
-0.00228498
-0.00225069
-0.00220646
-0.00215228
-0.0020881
-0.00201394
-0.0019298
-0.0018357
-0.00173169
-0.00161782
-0.00149414
-0.00136075
-0.00121772
-0.00106518
-0.000903222
-0.000731991
-0.000551621
-0.000362263
-0.000164086
4.2735e-05
0.00025801
0.000481537
0.000713115
0.000952519
0.00119952
0.00145388
0.00171533
0.0019836
0.00225842
0.00253948
0.00282648
0.0031191
0.00341702
0.00371989
0.00402734
0.00433901
0.00465452
0.00497347
0.00529544
0.00562003
0.00594681
0.00627534
0.00660517
0.00693585
0.00726689
0.00759784
0.00792821
0.00825751
0.00858525
0.00891094
0.00923406
0.00955412
0.00987061
0.010183
0.0104908
0.0107936
0.0110907
0.0113818
0.0116663
0.0119437
0.0122137
0.0124756
0.0127291
0.0129738
0.0132092
0.0134349
0.0136506
0.0138558
0.0140503
0.0142336
0.0144056
0.0145659
0.0147143
0.0148506
0.0149745
0.0150861
0.015185
0.0152712
0.0153448
0.0154056
0.0154537
0.0154892
0.015512
0.0155225
0.0155208
0.015507
0.0154814
0.0154444
0.0153963
0.0153374
0.0152682
0.0151891
0.0151007
0.0150035
0.014898
0.0147849
0.0146649
0.0145386
0.0144068
0.0142702
0.0141297
0.0139861
0.0138404
0.0136933
0.0135458
0.0133989
0.0132535
0.0131106
0.0129712
0.0128364
0.0127071
0.0125843
0.0124692
0.0123625
0.0122654
0.0121787
0.0121035
0.0120406
0.0119909
0.0119553
0.0119359
0.0119337
0.000888282
0.000830722
0.000768166
0.000697984
0.000617998
0.000529245
0.00043278
0.000329455
0.000220152
0.000105778
-1.275e-05
-0.000134521
-0.000258629
-0.000384187
-0.000510334
-0.000636234
-0.00076109
-0.000884139
-0.00100466
-0.00112196
-0.00123541
-0.00134439
-0.00144834
-0.00154672
-0.00163905
-0.00172488
-0.00180379
-0.00187542
-0.00193942
-0.00199549
-0.00204333
-0.00208271
-0.00211339
-0.00213518
-0.00214791
-0.00215143
-0.00214562
-0.00213037
-0.0021056
-0.00207123
-0.00202723
-0.00197354
-0.00191016
-0.00183707
-0.00175428
-0.00166182
-0.00155972
-0.00144803
-0.0013268
-0.00119611
-0.00105606
-0.000906731
-0.000748244
-0.000580723
-0.0004043
-0.000219114
-2.53313e-05
0.00017688
0.000387339
0.000605847
0.00083221
0.00106622
0.00130765
0.00155626
0.00181181
0.00207403
0.00234265
0.00261738
0.00289792
0.00318397
0.00347521
0.00377129
0.00407188
0.00437661
0.00468511
0.00499699
0.00531185
0.00562929
0.0059489
0.00627024
0.00659287
0.00691636
0.00724023
0.00756403
0.0078873
0.00820955
0.00853029
0.00884905
0.00916534
0.00947865
0.0097885
0.0100944
0.0103958
0.0106923
0.0109833
0.0112684
0.0115471
0.011819
0.0120835
0.0123402
0.0125887
0.0128286
0.0130594
0.0132807
0.0134923
0.0136936
0.0138845
0.0140645
0.0142333
0.0143908
0.0145367
0.0146707
0.0147927
0.0149025
0.015
0.0150852
0.0151579
0.0152182
0.0152661
0.0153016
0.0153249
0.015336
0.0153352
0.0153226
0.0152985
0.0152633
0.0152172
0.0151605
0.0150938
0.0150174
0.0149319
0.0148377
0.0147355
0.0146258
0.0145092
0.0143865
0.0142584
0.0141255
0.0139887
0.0138488
0.0137065
0.0135629
0.0134186
0.0132747
0.013132
0.0129915
0.012854
0.0127206
0.0125922
0.0124697
0.012354
0.0122461
0.0121469
0.0120571
0.0119778
0.0119096
0.0118535
0.0118103
0.0117809
0.0117653
0.00108243
0.00100675
0.000930463
0.000849654
0.00076062
0.000664318
0.000561759
0.000453656
0.000340758
0.000223854
0.000103745
-1.87638e-05
-0.000142873
-0.000267794
-0.00039275
-0.000516993
-0.000639806
-0.000760498
-0.000878414
-0.000992932
-0.00110346
-0.00120944
-0.00131035
-0.00140569
-0.00149503
-0.00157794
-0.00165404
-0.00172299
-0.00178446
-0.00183817
-0.00188384
-0.00192126
-0.0019502
-0.00197048
-0.00198193
-0.00198442
-0.00197783
-0.00196207
-0.00193704
-0.00190269
-0.00185896
-0.00180582
-0.00174325
-0.00167123
-0.00158979
-0.00149894
-0.00139871
-0.00128914
-0.00117028
-0.00104222
-0.000905036
-0.000758821
-0.000603679
-0.000439728
-0.000267099
-8.59252e-05
0.000103637
0.000301426
0.000507264
0.000720967
0.000942342
0.00117119
0.00140729
0.00165043
0.00190035
0.0021568
0.00241952
0.00268822
0.00296262
0.00324243
0.00352733
0.003817
0.00411109
0.00440925
0.00471112
0.00501633
0.00532448
0.00563519
0.00594804
0.00626262
0.0065785
0.00689525
0.0072124
0.00752952
0.00784615
0.0081618
0.00847603
0.00878835
0.00909827
0.00940531
0.00970899
0.0100088
0.0103043
0.010595
0.0108804
0.01116
0.0114334
0.0117
0.0119595
0.0122115
0.0124553
0.0126908
0.0129174
0.0131348
0.0133425
0.0135403
0.0137279
0.0139048
0.0140708
0.0142257
0.0143693
0.0145012
0.0146214
0.0147296
0.0148259
0.01491
0.0149819
0.0150417
0.0150894
0.0151249
0.0151484
0.0151601
0.01516
0.0151485
0.0151257
0.0150919
0.0150474
0.0149927
0.014928
0.0148539
0.0147708
0.0146792
0.0145797
0.0144728
0.0143592
0.0142394
0.0141142
0.0139843
0.0138505
0.0137134
0.0135739
0.0134328
0.0132909
0.0131491
0.0130082
0.0128691
0.0127327
0.0125998
0.0124714
0.0123482
0.0122311
0.0121211
0.0120188
0.0119251
0.0118408
0.0117667
0.0117034
0.0116518
0.0116116
0.0115817
0.00128553
0.0011914
0.00110091
0.00100892
0.000910198
0.000805653
0.00069626
0.000582606
0.000465316
0.000345068
0.000222558
9.84887e-05
-2.6433e-05
-0.000151514
-0.000276064
-0.000399416
-0.000520924
-0.000639969
-0.000755959
-0.000868331
-0.000976548
-0.00108011
-0.00117852
-0.00127135
-0.00135817
-0.0014386
-0.0015123
-0.00157894
-0.00163823
-0.00168989
-0.0017337
-0.00176941
-0.00179685
-0.00181582
-0.00182619
-0.00182782
-0.0018206
-0.00180443
-0.00177925
-0.00174499
-0.00170159
-0.00164904
-0.00158731
-0.00151639
-0.00143628
-0.00134701
-0.00124861
-0.00114111
-0.00102457
-0.000899055
-0.000764645
-0.000621433
-0.000469518
-0.000309008
-0.000140027
3.72916e-05
0.000222801
0.000416348
0.00061776
0.00082686
0.00104347
0.00126738
0.00149841
0.00173631
0.00198087
0.00223183
0.00248894
0.00275192
0.0030205
0.00329439
0.00357329
0.00385687
0.00414482
0.00443679
0.00473241
0.00503133
0.00533317
0.00563755
0.00594406
0.0062523
0.00656186
0.00687229
0.00718317
0.00749406
0.00780449
0.00811402
0.00842219
0.00872851
0.00903253
0.00933377
0.00963175
0.00992599
0.010216
0.0105014
0.0107815
0.0110561
0.0113246
0.0115865
0.0118414
0.012089
0.0123286
0.01256
0.0127828
0.0129965
0.0132009
0.0133955
0.01358
0.0137541
0.0139176
0.0140701
0.0142115
0.0143416
0.0144601
0.0145669
0.014662
0.0147451
0.0148164
0.0148757
0.014923
0.0149585
0.0149823
0.0149943
0.0149949
0.0149841
0.0149624
0.0149298
0.0148867
0.0148336
0.0147707
0.0146984
0.0146173
0.0145278
0.0144305
0.0143258
0.0142145
0.0140971
0.0139742
0.0138467
0.013715
0.0135801
0.0134426
0.0133033
0.013163
0.0130225
0.0128826
0.0127441
0.0126078
0.0124746
0.0123452
0.0122205
0.0121013
0.0119882
0.0118822
0.0117838
0.0116938
0.0116129
0.0115417
0.0114811
0.0114294
0.0113847
0.00149545
0.00138269
0.00127771
0.00117411
0.0010652
0.000951845
0.000834997
0.000715132
0.000592759
0.000468453
0.000342819
0.00021646
8.99954e-05
-3.59679e-05
-0.000160821
-0.000283974
-0.000404849
-0.000522896
-0.000637585
-0.000748408
-0.000854883
-0.000956556
-0.00105299
-0.00114378
-0.00122853
-0.00130691
-0.0013786
-0.0014433
-0.00150074
-0.00155067
-0.00159288
-0.00162715
-0.00165331
-0.00167119
-0.00168066
-0.00168158
-0.00167387
-0.00165742
-0.00163219
-0.00159809
-0.0015551
-0.00150318
-0.00144232
-0.0013725
-0.00129373
-0.00120603
-0.00110942
-0.00100395
-0.000889658
-0.000766615
-0.000634894
-0.000494585
-0.000345779
-0.000188586
-2.31184e-05
0.000150499
0.000332121
0.0005216
0.000718774
0.000923474
0.00113553
0.00135474
0.00158091
0.00181384
0.0020533
0.00229904
0.00255081
0.00280836
0.00307143
0.00333972
0.00361294
0.00389079
0.00417294
0.00445906
0.0047488
0.00504182
0.00533773
0.00563617
0.00593675
0.00623906
0.00654271
0.00684726
0.0071523
0.00745738
0.00776208
0.00806592
0.00836847
0.00866926
0.00896783
0.00926371
0.00955644
0.00984554
0.0101306
0.010411
0.0106864
0.0109564
0.0112204
0.011478
0.0117287
0.0119723
0.0122081
0.0124359
0.0126552
0.0128656
0.0130668
0.0132585
0.0134403
0.0136119
0.0137731
0.0139235
0.014063
0.0141914
0.0143084
0.0144139
0.0145079
0.0145902
0.0146608
0.0147196
0.0147667
0.0148021
0.0148259
0.0148383
0.0148393
0.0148292
0.0148083
0.0147767
0.0147348
0.0146828
0.0146213
0.0145505
0.014471
0.0143832
0.0142876
0.0141847
0.0140751
0.0139595
0.0138384
0.0137124
0.0135824
0.0134489
0.0133127
0.0131744
0.013035
0.012895
0.0127553
0.0126166
0.0124797
0.0123454
0.0122143
0.0120873
0.0119651
0.0118484
0.0117379
0.0116341
0.0115378
0.0114494
0.0113698
0.0112996
0.0112361
0.0111762
0.00171024
0.00157881
0.00145914
0.00134364
0.00122416
0.00110153
0.000976714
0.000850079
0.000722031
0.000593055
0.00046366
0.000334366
0.000205711
7.82199e-05
-4.75741e-05
-0.000171155
-0.000292014
-0.000409659
-0.000523623
-0.00063345
-0.000738713
-0.000839003
-0.000933931
-0.00102312
-0.00110624
-0.00118297
-0.00125302
-0.00131612
-0.00137203
-0.00142053
-0.00146141
-0.00149449
-0.0015196
-0.00153659
-0.00154533
-0.00154571
-0.00153764
-0.00152104
-0.00149585
-0.00146201
-0.00141949
-0.00136825
-0.00130828
-0.00123958
-0.00116215
-0.001076
-0.00098116
-0.000877668
-0.000765573
-0.000644932
-0.000515817
-0.000378314
-0.000232511
-7.85102e-05
8.3579e-05
0.000253639
0.000431531
0.000617116
0.000810239
0.00101073
0.00121844
0.00143316
0.00165473
0.00188292
0.00211752
0.0023583
0.00260503
0.00285744
0.00311528
0.00337827
0.00364614
0.00391858
0.00419527
0.00447589
0.00476012
0.00504759
0.00533796
0.00563084
0.00592588
0.00622267
0.00652081
0.0068199
0.00711952
0.00741923
0.00771861
0.0080172
0.00831457
0.00861026
0.00890382
0.00919479
0.00948271
0.00976711
0.0100475
0.0103235
0.0105946
0.0108604
0.0111203
0.011374
0.011621
0.0118609
0.0120933
0.0123178
0.012534
0.0127415
0.01294
0.013129
0.0133084
0.0134778
0.0136369
0.0137854
0.0139232
0.0140501
0.0141658
0.0142702
0.0143631
0.0144446
0.0145146
0.014573
0.0146198
0.0146551
0.014679
0.0146915
0.0146929
0.0146834
0.014663
0.0146322
0.0145911
0.0145402
0.0144797
0.0144101
0.0143318
0.0142452
0.0141508
0.0140492
0.0139409
0.0138265
0.0137066
0.0135817
0.0134526
0.0133199
0.0131843
0.0130465
0.0129072
0.012767
0.0126268
0.0124872
0.012349
0.0122128
0.0120793
0.0119494
0.0118235
0.0117024
0.0115867
0.011477
0.0113737
0.0112775
0.0111889
0.0111088
0.0110331
0.0109578
0.0019281
0.00177806
0.00164362
0.00151602
0.00138567
0.00125342
0.00112021
0.000986337
0.000852109
0.000717929
0.00058422
0.000451425
0.000320001
0.000190404
6.30937e-05
-6.14818e-05
-0.000182878
-0.000300666
-0.000414431
-0.000523774
-0.000628314
-0.00072769
-0.000821555
-0.00090958
-0.000991456
-0.00106691
-0.00113567
-0.00119751
-0.0012522
-0.00129954
-0.00133936
-0.00137148
-0.00139575
-0.00141204
-0.00142024
-0.00142023
-0.00141194
-0.0013953
-0.00137025
-0.00133675
-0.00129476
-0.00124426
-0.00118522
-0.00111766
-0.00104157
-0.000956959
-0.000863863
-0.000762313
-0.000652357
-0.000534054
-0.000407469
-0.00027268
-0.000129774
2.11512e-05
0.00017999
0.000346635
0.000520955
0.000702812
0.000892059
0.00108854
0.0012921
0.00150256
0.00171973
0.00194342
0.00217342
0.0024095
0.00265144
0.00289898
0.00315189
0.0034099
0.00367272
0.00394006
0.00421163
0.0044871
0.00476616
0.00504845
0.00533363
0.00562135
0.00591122
0.00620288
0.00649592
0.00678995
0.00708456
0.00737931
0.00767379
0.00796755
0.00826017
0.0085512
0.00884018
0.00912666
0.0094102
0.00969034
0.00996661
0.0102386
0.0105058
0.0107677
0.011024
0.0112742
0.0115179
0.0117546
0.0119839
0.0122055
0.0124189
0.0126238
0.0128198
0.0130066
0.0131838
0.0133512
0.0135085
0.0136554
0.0137917
0.0139172
0.0140317
0.0141351
0.0142273
0.014308
0.0143774
0.0144354
0.014482
0.0145172
0.014541
0.0145537
0.0145554
0.0145462
0.0145263
0.014496
0.0144556
0.0144054
0.0143456
0.0142768
0.0141993
0.0141136
0.0140201
0.0139193
0.0138118
0.0136981
0.0135788
0.0134545
0.0133257
0.0131933
0.0130577
0.0129196
0.0127798
0.0126388
0.0124974
0.0123562
0.012216
0.0120773
0.0119408
0.0118072
0.0116771
0.0115511
0.0114296
0.0113133
0.0112027
0.0110981
0.0110002
0.0109098
0.0108218
0.010731
0.00214742
0.0019789
0.00182967
0.00168984
0.00154841
0.00140624
0.00126431
0.00112281
0.000981983
0.000842144
0.000703644
0.000566851
0.000432151
0.000299934
0.000170593
4.4514e-05
-7.79219e-05
-0.000196344
-0.000310394
-0.000419719
-0.000523989
-0.000622885
-0.000716102
-0.000803351
-0.000884362
-0.000958885
-0.00102669
-0.00108757
-0.00114133
-0.0011878
-0.0012268
-0.00125819
-0.00128184
-0.00129762
-0.00130543
-0.00130519
-0.00129682
-0.00128025
-0.00125545
-0.00122237
-0.00118098
-0.00113126
-0.0010732
-0.00100679
-0.000932039
-0.000848964
-0.000757587
-0.000657946
-0.000550083
-0.000434053
-0.000309919
-0.00017776
-3.7655e-05
0.000110308
0.000266028
0.000429396
0.000600287
0.000778578
0.000964128
0.00115678
0.00135639
0.00156278
0.00177578
0.0019952
0.00222084
0.00245247
0.00268989
0.00293285
0.00318111
0.00343441
0.00369249
0.00395506
0.00422183
0.00449248
0.0047667
0.00504417
0.00532453
0.00560744
0.00589253
0.00617943
0.00646777
0.00675714
0.00704712
0.00733732
0.00762731
0.00791667
0.00820495
0.00849173
0.00877655
0.00905897
0.00933856
0.00961485
0.00988739
0.0101557
0.0104194
0.010678
0.0109311
0.0111782
0.0114188
0.0116527
0.0118793
0.0120983
0.0123093
0.012512
0.0127058
0.0128906
0.013066
0.0132317
0.0133874
0.0135329
0.013668
0.0137923
0.0139059
0.0140084
0.0140998
0.01418
0.0142489
0.0143065
0.0143528