/*--------------------------------*- C++ -*----------------------------------*\
  =========                 |
  \\      /  F ield         | OpenFOAM: The Open Source CFD Toolbox
   \\    /   O peration     | Website:  https://openfoam.org
    \\  /    A nd           | Version:  7
     \\/     M anipulation  |
\*---------------------------------------------------------------------------*/
FoamFile
{
    version     2.0;
    format      ascii;
    class       volScalarField;
    location    "0.175";
    object      p;
}
// * * * * * * * * * * * * * * * * * * * * * * * * * * * * * * * * * * * * * //

dimensions      [0 2 -2 0 0 0 0];

internalField   nonuniform List<scalar> 
6400
(
-1.20109e-07
1.09834e-05
-0.000496663
-0.00152968
-0.00297164
-0.00471238
-0.00665165
-0.00869996
-0.0107802
-0.0128272
-0.0147857
-0.0166097
-0.0182608
-0.0197071
-0.0209231
-0.021888
-0.0225858
-0.0230042
-0.0231346
-0.022972
-0.0225136
-0.0217595
-0.0207123
-0.0193765
-0.0177585
-0.0158666
-0.0137106
-0.0113019
-0.00865297
-0.00577777
-0.00269123
0.000590618
0.00405077
0.00767136
0.0114337
0.0153185
0.0193057
0.0233748
0.0275045
0.0316736
0.03586
0.0400418
0.0441968
0.0483027
0.0523372
0.0562783
0.0601041
0.0637931
0.0673247
0.0706784
0.0738349
0.0767758
0.0794837
0.0819425
0.0841376
0.086056
0.0876864
0.0890197
0.090049
0.0907696
0.0911797
0.0912801
0.0910748
0.0905712
0.0897804
0.0887174
0.0874014
0.0858566
0.0841123
0.0822036
0.0801723
0.0780675
0.0759468
0.0738769
0.0719356
0.0702109
0.0688001
0.067807
0.0673386
0.0673752
-1.11416e-05
8.14484e-07
-0.000453494
-0.00133696
-0.00255042
-0.00401482
-0.00565423
-0.00739641
-0.00917607
-0.0109361
-0.0126269
-0.014206
-0.0156373
-0.0168907
-0.0179409
-0.0187676
-0.0193548
-0.0196899
-0.0197638
-0.0195705
-0.0191067
-0.0183717
-0.0173669
-0.0160957
-0.0145638
-0.012778
-0.0107472
-0.0084816
-0.00599255
-0.00329278
-0.000396049
0.00268284
0.00592813
0.00932322
0.0128507
0.0164925
0.0202298
0.0240434
0.0279136
0.0318202
0.0357427
0.0396607
0.0435531
0.0473993
0.0511785
0.05487
0.0584534
0.061909
0.0652173
0.0683596
0.0713181
0.0740758
0.0766167
0.0789263
0.0809914
0.0828003
0.0843431
0.0856118
0.0866008
0.0873063
0.0877275
0.087866
0.0877264
0.0873167
0.0866481
0.0857355
0.0845979
0.0832586
0.0817456
0.0800923
0.0783373
0.0765257
0.074709
0.0729454
0.0713004
0.069845
0.0686525
0.0677978
0.067374
0.0674117
0.00049536
0.000456209
1.84549e-06
-0.000814113
-0.00190441
-0.00320584
-0.00465725
-0.00619861
-0.0077743
-0.00933434
-0.0108345
-0.0122361
-0.013506
-0.0146157
-0.0155414
-0.0162637
-0.0167666
-0.0170379
-0.0170684
-0.0168517
-0.0163842
-0.0156645
-0.0146934
-0.0134738
-0.0120102
-0.0103092
-0.00837831
-0.006227
-0.00386576
-0.00130635
0.0014384
0.00435469
0.00742777
0.010642
0.0139811
0.017428
0.0209649
0.0245738
0.0282359
0.0319322
0.0356435
0.0393503
0.0430329
0.0466716
0.0502469
0.0537394
0.0571298
0.0603995
0.0635304
0.0665049
0.0693064
0.0719189
0.0743278
0.0765195
0.078482
0.0802046
0.0816784
0.0828962
0.0838532
0.0845465
0.0849756
0.0851427
0.0850528
0.0847139
0.0841372
0.0833372
0.0823322
0.0811443
0.0798002
0.0783307
0.0767716
0.0751638
0.0735531
0.0719904
0.0705316
0.069236
0.0681627
0.0673719
0.0669491
0.0669455
0.00152797
0.00134196
0.000817893
-1.29291e-06
-0.00104894
-0.00227155
-0.00361737
-0.00503573
-0.00647909
-0.00790386
-0.0092709
-0.0105455
-0.0116974
-0.0127005
-0.0135327
-0.0141757
-0.0146143
-0.0148366
-0.0148339
-0.0145998
-0.0141304
-0.013424
-0.0124812
-0.0113044
-0.0098976
-0.00826658
-0.00641851
-0.00436194
-0.00210669
0.000336266
0.00295488
0.00573617
0.0086662
0.0117302
0.0149128
0.0181977
0.0215682
0.025007
0.0284965
0.0320185
0.0355547
0.0390865
0.0425954
0.0460627
0.0494696
0.0527978
0.0560292
0.0591461
0.0621311
0.0649679
0.0676406
0.0701344
0.0724354
0.074531
0.0764097
0.0780619
0.0794792
0.0806553
0.0815857
0.0822681
0.0827022
0.0828905
0.0828381
0.0825526
0.082045
0.0813292
0.0804225
0.0793458
0.0781237
0.0767848
0.0753617
0.0738911
0.0724136
0.0709741
0.0696203
0.0684028
0.067372
0.0665794
0.066093
0.0659564
0.00297583
0.00256356
0.00191183
0.0010399
-1.51175e-05
-0.00120838
-0.002496
-0.00383573
-0.00518736
-0.00651347
-0.00777985
-0.00895582
-0.0100143
-0.0109316
-0.0116876
-0.0122653
-0.0126507
-0.0128328
-0.0128029
-0.0125551
-0.0120855
-0.0113925
-0.0104762
-0.00933872
-0.00798379
-0.00641662
-0.00464387
-0.00267349
-0.000514646
0.00182237
0.00432624
0.0069847
0.00978458
0.0127119
0.0157521
0.0188897
0.0221089
0.0253932
0.0287257
0.0320894
0.0354667
0.03884
0.0421915
0.0455035
0.0487581
0.051938
0.0550259
0.0580048
0.0608586
0.0635715
0.0661285
0.0685156
0.0707198
0.072729
0.0745327
0.0761217
0.0774882
0.0786264
0.0795323
0.0802036
0.0806405
0.0808455
0.0808233
0.0805815
0.0801303
0.0794829
0.0786553
0.0776671
0.0765408
0.0753025
0.0739814
0.0726102
0.0712247
0.0698637
0.068568
0.0673803
0.0663435
0.0655015
0.0648951
0.0645465
0.00473669
0.00404798
0.00322553
0.00226061
0.00115698
-4.83741e-05
-0.00131819
-0.00261778
-0.0039136
-0.00517388
-0.00636917
-0.00747272
-0.00846067
-0.0093119
-0.0100084
-0.0105346
-0.010878
-0.0110282
-0.0109773
-0.0107198
-0.010252
-0.00957226
-0.00868079
-0.00757945
-0.00627164
-0.00476223
-0.00305743
-0.00116471
0.000907324
0.00314897
0.00554955
0.00809745
0.0107802
0.0135846
0.0164967
0.0195018
0.022585
0.0257304
0.0289221
0.0321437
0.0353785
0.0386096
0.0418203
0.0449934
0.048112
0.0511595
0.0541194
0.0569756
0.0597126
0.0623154
0.0647697
0.0670623
0.0691806
0.0711134
0.0728506
0.0743834
0.0757047
0.0768088
0.077692
0.0783523
0.0787897
0.0790068
0.0790079
0.0788002
0.0783931
0.0777988
0.0770324
0.0761114
0.0750564
0.0738909
0.0726409
0.0713352
0.0700051
0.0686838
0.067406
0.0662069
0.0651235
0.0641925
0.0634234
0.0628121
0.00671988
0.00572664
0.00470376
0.00361432
0.00242822
0.00117589
-0.000110924
-0.00140417
-0.00267628
-0.00390056
-0.00505199
-0.00610762
-0.00704667
-0.00785071
-0.00850362
-0.00899183
-0.0093039
-0.00943063
-0.0093649
-0.00910161
-0.00863751
-0.00797119
-0.00710286
-0.00603432
-0.00476881
-0.00331093
-0.00166656
0.000157242
0.0021523
0.00430945
0.00661855
0.00906857
0.0116477
0.0143433
0.017142
0.0200301
0.022993
0.0260158
0.0290832
0.0321795
0.0352887
0.0383949
0.0414816
0.0445328
0.0475321
0.0504636
0.0533115
0.0560605
0.0586956
0.0612024
0.0635675
0.0657778
0.0678216
0.069688
0.0713674
0.0728513
0.074133
0.0752069
0.0760695
0.0767187
0.0771547
0.0773794
0.0773971
0.0772142
0.0768394
0.0762838
0.0755611
0.0746872
0.0736805
0.0725619
0.0713545
0.0700835
0.068776
0.0674602
0.0661651
0.0649197
0.063756
0.0627046
0.0617429
0.0608397
0.00884625
0.00753516
0.00629286
0.00505581
0.00376116
0.00243417
0.00110214
-0.000212658
-0.00148798
-0.0027017
-0.00383278
-0.00486184
-0.00577107
-0.00654463
-0.00716846
-0.00763068
-0.00792128
-0.00803221
-0.00795722
-0.00769183
-0.00723328
-0.00658043
-0.00573368
-0.00469484
-0.00346708
-0.00205487
-0.000463835
0.0012993
0.00322672
0.00530967
0.00753849
0.00990266
0.0123909
0.0149911
0.0176907
0.0204763
0.023334
0.0262497
0.0292085
0.0321955
0.0351954
0.0381927
0.0411718
0.044117
0.047013
0.0498441
0.0525953
0.0552518
0.0577991
0.0602236
0.0625119
0.0646518
0.0666318
0.0684414
0.0700713
0.0715133
0.0727607
0.0738082
0.0746522
0.0752906
0.0757233
0.0759519
0.0759802
0.0758139
0.0754608
0.0749309
0.0742364
0.0733917
0.0724131
0.0713189
0.0701296
0.0688669
0.067554
0.0662151
0.064874
0.0635543
0.062284
0.0610888
0.0599148
0.0587053
0.011049
0.00941619
0.0079435
0.00654268
0.00512006
0.00369689
0.00229713
0.000938057
-0.000362745
-0.00158725
-0.00271804
-0.00373891
-0.00463496
-0.00539263
-0.00600011
-0.00644708
-0.006725
-0.006827
-0.00674775
-0.00648351
-0.00603207
-0.00539267
-0.00456594
-0.00355382
-0.00235951
-0.000987376
0.000557097
0.0022674
0.00413603
0.0061546
0.00831383
0.0106036
0.0130132
0.0155309
0.0181446
0.0208417
0.0236086
0.0264319
0.0292972
0.0321902
0.0350961
0.038
0.0408869
0.0437417
0.0465493
0.049295
0.051964
0.0545421
0.0570152
0.0593701
0.0615938
0.0636745
0.065601
0.067363
0.0689514
0.0703582
0.0715767
0.0726016
0.0734292
0.0740573
0.0744854
0.0747147
0.0747484
0.0745915
0.0742508
0.0737352
0.0730555
0.0722243
0.0712561
0.070167
0.0689747
0.067698
0.0663567
0.064971
0.0635607
0.0621445
0.0607476
0.0593919
0.0579939
0.0564731
0.0132725
0.0113198
0.00961124
0.00803584
0.00647113
0.00493538
0.0034501
0.00202837
0.000683746
-0.000569353
-0.0017168
-0.00274523
-0.00364239
-0.00439698
-0.00499915
-0.00544029
-0.00571327
-0.00581235
-0.00573322
-0.00547291
-0.00502981
-0.00440362
-0.00359526
-0.00260689
-0.00144177
-0.000104295
0.00140015
0.00306521
0.00488361
0.00684723
0.00894714
0.0111736
0.0135162
0.0159638
0.0185047
0.0211265
0.0238166
0.0265616
0.029348
0.0321616
0.0349884
0.0378138
0.0406234
0.0434025
0.0461365
0.0488111
0.051412
0.0539252
0.0563372
0.0586349
0.0608058
0.0628382
0.0647212
0.0664445
0.0679993
0.0693775
0.0705724
0.0715787
0.0723924
0.073011
0.0734337
0.0736612
0.073696
0.0735423
0.073206
0.0726948
0.0720182
0.071187
0.0702141
0.0691135
0.0679004
0.0665909
0.0652018
0.0637501
0.0622518
0.060722
0.0591836
0.0576558
0.0560276
0.0541964
0.01547
0.0132026
0.0112565
0.00949974
0.00778295
0.00612234
0.00453772
0.00303864
0.00163523
0.000338789
-0.000839428
-0.00188876
-0.00279917
-0.00356166
-0.00416804
-0.00461146
-0.00488613
-0.00498746
-0.00491212
-0.00465799
-0.00422408
-0.00361057
-0.00281876
-0.00185108
-0.000710942
0.000597231
0.00206806
0.00369527
0.00547176
0.00738961
0.00944017
0.011614
0.013901
0.0162905
0.018771
0.0213307
0.0239572
0.0266378
0.0293591
0.0321077
0.0348697
0.0376311
0.0403777
0.0430955
0.0457701
0.0483876
0.0509339
0.0533955
0.055759
0.0580116
0.0601411
0.0621359
0.0639851
0.0656787
0.0672076
0.0685639
0.0697407
0.0707325
0.0715351
0.0721456
0.0725627
0.0727866
0.0728191
0.0726635
0.0723249
0.0718097
0.071126
0.0702835
0.0692931
0.0681668
0.0669178
0.0655598
0.064107
0.0625736
0.0609726
0.0593159
0.057625
0.0559175
0.0540564
0.0519192
0.0176023
0.0150271
0.0128442
0.0109021
0.00902644
0.00723199
0.00553743
0.00394941
0.00247519
0.00112337
-9.73332e-05
-0.00117861
-0.00211254
-0.00289207
-0.00351078
-0.00396331
-0.00424519
-0.00435303
-0.00428446
-0.00403817
-0.00361381
-0.00301213
-0.00223485
-0.00128465
-0.000165177
0.00111904
0.00256257
0.0041592
0.00590192
0.00778299
0.00979393
0.0119256
0.014168
0.016511
0.0189433
0.0214534
0.0240295
0.0266589
0.0293288
0.0320261
0.0347372
0.0374486
0.0401464
0.0428167
0.0454457
0.0480196
0.0505246
0.0529474
0.0552748
0.0574943
0.0595936
0.0615613
0.0633864
0.065059
0.0665699
0.0679111
0.0690755
0.0700572
0.0708518
0.071456
0.071868
0.0720872
0.0721149
0.0719535
0.071607
0.0710808
0.0703819
0.0695184
0.0684996
0.067336
0.0660386
0.0646192
0.0630896
0.0614619
0.0597465
0.0579529
0.0561017
0.0542094
0.0521154
0.0496779
0.0196359
0.0167606
0.0143432
0.0122139
0.0101748
0.00824003
0.00642755
0.00474159
0.00318699
0.00177009
0.000497379
-0.000624852
-0.00159078
-0.00239494
-0.00303264
-0.00349989
-0.00379351
-0.00391123
-0.00385163
-0.0036142
-0.0031993
-0.00260822
-0.00184311
-0.000906998
0.000196231
0.00146187
0.00288443
0.00445769
0.00617469
0.00802778
0.0100086
0.0121082
0.014317
0.0166247
0.0190207
0.0214936
0.0240318
0.0266231
0.0292549
0.0319143
0.0345882
0.0372632
0.0399258
0.0425623
0.0451592
0.0477027
0.0501794
0.052576
0.0548795
0.0570775
0.0591577
0.0611086
0.0629194
0.0645798
0.0660807
0.0674137
0.0685716
0.0695482
0.0703384
0.0709387
0.0713466
0.071561
0.0715823
0.0714121
0.0710535
0.0705108
0.0697899
0.0688975
0.0678415
0.0666308
0.0652747
0.0637832
0.0621664
0.0604344
0.0585955
0.0566573
0.05464
0.0525601
0.0502342
0.0475029
0.0215422
0.0183743
0.0157255
0.0134086
0.0112034
0.00912367
0.0071873
0.00539653
0.00375411
0.00226445
0.000932111
-0.000238422
-0.00124307
-0.00207803
-0.00274005
-0.00322646
-0.00353533
-0.00366542
-0.00361625
-0.0033881
-0.00298203
-0.0023999
-0.0016443
-0.000718637
0.000372928
0.00162549
0.00303345
0.00459053
0.00628978
0.00812361
0.0100838
0.0121614
0.014347
0.0166307
0.0190019
0.0214497
0.0239624
0.0265282
0.0291348
0.0317695
0.0344195
0.0370715
0.0397123
0.0423284
0.0449063
0.0474325
0.0498936
0.0522765
0.0545683
0.0567563
0.0588284
0.060773
0.0625791
0.0642364
0.0657354
0.0670675
0.0682251
0.0692017
0.0699918
0.0705912
0.0709968
0.0712069
0.0712212
0.0710403
0.0706666
0.0701033
0.069355
0.0684274
0.067327
0.0660613
0.0646381
0.063066
0.0613536
0.0595092
0.0575398
0.0554512
0.0532639
0.0509946
0.0484386
0.0454199
0.0232964
0.0198429
0.0169661
0.014462
0.0120891
0.0098614
0.00779685
0.00589609
0.00416015
0.00259177
0.00119391
-3.07186e-05
-0.00107942
-0.00194998
-0.00264043
-0.00314938
-0.00347602
-0.00362013
-0.0035821
-0.00336302
-0.00296464
-0.00238936
-0.00164027
-0.000721151
0.000363532
0.00160866
0.00300847
0.0045566
0.00624607
0.00806928
0.010018
0.0120836
0.0142566
0.0165272
0.0188851
0.0213194
0.0238188
0.0263717
0.0289658
0.0315888
0.0342279
0.0368701
0.0395023
0.0421111
0.044683
0.0472048
0.049663
0.0520446
0.0543365
0.0565262
0.0586013
0.0605501
0.0623614
0.0640247
0.0655302
0.066869
0.068033
0.0690153
0.0698099
0.070412
0.0708179
0.0710252
0.0710327
0.0708404
0.0704496
0.0698627
0.0690831
0.0681154
0.0669649
0.0656379
0.0641411
0.0624816
0.0606668
0.0587039
0.0565983
0.0543549
0.0519947
0.0495351
0.046751
0.0434504
0.0248764
0.0211437
0.0180422
0.0153517
0.0128105
0.0104329
0.00823711
0.00622259
0.0043889
0.00273733
0.00126937
-1.36577e-05
-0.00111049
-0.00202019
-0.00274208
-0.00327594
-0.00362197
-0.00378092
-0.00375405
-0.00354323
-0.00315085
-0.00257988
-0.00183391
-0.000917123
0.000165698
0.00140919
0.00280743
0.00435392
0.0060416
0.00786283
0.00980945
0.0118727
0.0140434
0.0163118
0.0186677
0.0211002
0.0235984
0.0261506
0.0287448
0.0313689
0.03401
0.0366554
0.0392919
0.0419064
0.0444853
0.0470155
0.0494835
0.051876
0.0541802
0.0563831
0.0584724
0.060436
0.0622626
0.0639413
0.065462
0.0668154
0.0679929
0.0689871
0.0697915
0.0704006
0.0708101
0.0710168
0.0710188
0.0708153
0.0704066
0.0697942
0.0689806
0.0679692
0.0667645
0.0653714
0.0637958
0.0620436
0.0601212
0.0580347
0.0557886
0.053387
0.0508519
0.0482013
0.045191
0.0416131
0.0262623
0.022256
0.0189328
0.0160571
0.0133474
0.0108187
0.00848976
0.00635885
0.00442433
0.0026863
0.00114493
-0.000199639
-0.0013475
-0.00229884
-0.00305418
-0.00361434
-0.00398052
-0.00415435
-0.00413798
-0.00393398
-0.00354539
-0.00297574
-0.00222913
-0.00131014
-0.000223895
0.001024
0.00242739
0.00397965
0.00567359
0.00750152
0.00945525
0.0115261
0.0137048
0.0159817
0.0183467
0.0207891
0.0232979
0.0258616
0.0284684
0.0311061
0.033762
0.0364235
0.0390773
0.0417104
0.0443093
0.0468605
0.0493508
0.0517668
0.0540952
0.0563231
0.0584379
0.0604272
0.0622794
0.0639833
0.0655282
0.0669045
0.0681032
0.0691161
0.0699361
0.0705572
0.0709744
0.0711837
0.0711824
0.0709688
0.0705425
0.0699039
0.0690546
0.0679973
0.0667353
0.0652727
0.0636144
0.0617655
0.0597313
0.0575174
0.0551274
0.052565
0.0498533
0.0470113
0.0437759
0.0399243
0.027436
0.0231605
0.0196184
0.0165586
0.0136808
0.0110004
0.00853703
0.00628798
0.00425055
0.0024238
0.000806801
-0.000601461
-0.00180221
-0.00279672
-0.00358657
-0.00417356
-0.00455982
-0.0047479
-0.00474069
-0.00454147
-0.0041539
-0.00358213
-0.00283071
-0.00190464
-0.000809386
0.000449166
0.00186464
0.00343022
0.00513858
0.00698195
0.00895208
0.0110402
0.0132372
0.0155334
0.0179186
0.0203824
0.0229137
0.0255011
0.0281328
0.0307967
0.0334801
0.0361705
0.0388545
0.0415191
0.0441508
0.046736
0.0492612
0.051713
0.0540779
0.0563427
0.0584945
0.0605207
0.0624092
0.0641482
0.0657269
0.067135
0.0683629
0.0694018
0.0702441
0.070883
0.0713126
0.0715285
0.0715269
0.0713054
0.0708626
0.0701982
0.0693129
0.0682085
0.0668874
0.0653531
0.0636093
0.0616605
0.0595115
0.0571671
0.0546306
0.0519052
0.0490154
0.0459814
0.0425217
0.0383985
0.0283804
0.0238394
0.0200806
0.016838
0.0137924
0.0109601
0.00836165
0.00599341
0.0038518
0.00193492
0.00024096
-0.00123225
-0.00248683
-0.00352515
-0.00434973
-0.00496328
-0.00536886
-0.00556981
-0.00556976
-0.00537268
-0.00498289
-0.00440507
-0.00364426
-0.00270586
-0.00159569
-0.000319968
0.00111472
0.00270133
0.00443241
0.00630006
0.00829594
0.0104113
0.0126369
0.014963
0.0173796
0.0198762
0.0224418
0.0250649
0.0277339
0.0304365
0.0331602
0.0358922
0.0386194
0.0413285
0.0440058
0.0466378
0.0492108
0.051711
0.0541248
0.0564386
0.0586393
0.0607137
0.0626494
0.0644342
0.0660567
0.0675059
0.0687717
0.0698448
0.0707166
0.0713797
0.0718275
0.0720546
0.0720567
0.0718304
0.0713734
0.0706846
0.069764
0.0686123
0.0672315
0.0656239
0.0637929
0.0617421
0.0594758
0.0569987
0.0543134
0.0514232
0.0483538
0.045127
0.041443
0.0370491
0.0290797
0.0242757
0.020302
0.0168775
0.0136646
0.0106806
0.0079467
0.00545875
0.00321231
0.00120468
-0.000566881
-0.00210543
-0.00341404
-0.00449601
-0.00535474
-0.00599385
-0.00641724
-0.00662901
-0.00663351
-0.0064354
-0.0060396
-0.00545133
-0.00467611
-0.00371977
-0.00258848
-0.00128878
0.000172472
0.00178804
0.00355029
0.00545119
0.00748228
0.00963473
0.0118992
0.0142661
0.0167253
0.0192662
0.0218778
0.0245488
0.0272674
0.0300213
0.032798
0.0355845
0.0383678
0.0411343
0.0438704
0.0465622
0.0491958
0.0517572
0.0542325
0.0566078
0.0588694
0.061004
0.0629983
0.0648399
0.0665165
0.0680168
0.0693299
0.0704458
0.0713551
0.0720497
0.0725222
0.0727663
0.0727769
0.0725498
0.0720818
0.0713711
0.0704167
0.0692188
0.0677783
0.0660971
0.0641778
0.0620236
0.0596386
0.0570268
0.054191
0.0511342
0.0478836
0.0444628
0.0405536
0.0358888
0.0295182
0.024453
0.0202655
0.01666
0.0132803
0.0101447
0.00727542
0.00466771
0.00231633
0.000217889
-0.00163122
-0.00323481
-0.00459691
-0.00572163
-0.00661323
-0.00727622
-0.00771524
-0.00793513
-0.00794099
-0.0077381
-0.00733199
-0.0067284
-0.00593332
-0.00495304
-0.0037941
-0.00246333
-0.000967874
0.000684795
0.00248685
0.00443011
0.006506
0.00870556
0.0110195
0.0134379
0.0159508
0.0185476
0.0212172
0.0239481
0.0267286
0.0295464
0.0323888
0.0352429
0.0380953
0.0409324
0.0437403
0.0465051
0.0492124
0.0518481
0.0543978
0.0568473
0.0591824
0.0613892
0.0634541
0.0653639
0.0671059
0.0686679
0.0700383
0.0712063
0.0721619
0.072896
0.0734005
0.0736683
0.0736932
0.0734702
0.0729954
0.0722662
0.0712806
0.0700382
0.0685391
0.0667846
0.0647769
0.0625188
0.0600138
0.0572661
0.0542781
0.0510528
0.0476195
0.0440029
0.039867
0.0349296
0.0296807
0.0243553
0.0199547
0.0161685
0.0126224
0.0093355
0.0063311
0.00360388
0.00114791
-0.0010409
-0.00296688
-0.00463462
-0.00604899
-0.0072149
-0.00813747
-0.00882197
-0.00927379
-0.00949852
-0.00950194
-0.00928999
-0.00886875
-0.00824449
-0.00742369
-0.00641307
-0.00521956
-0.00385031
-0.00231275
-0.000614605
0.00123611
0.00323104
0.00536145
0.0076183
0.00999213
0.0124731
0.015051
0.0177152
0.0204546
0.0232577
0.0261126
0.0290069
0.031928
0.0348625
0.0377972
0.0407182
0.0436114
0.0464625
0.049257
0.0519803
0.0546176
0.0571544
0.0595759
0.0618676
0.0640155
0.0660056
0.0678246
0.0694594
0.0708978
0.0721282
0.0731396
0.0739222
0.074467
0.0747658
0.0748117
0.0745989
0.0741224
0.0733789
0.0723656
0.0710813
0.0695256
0.0676991
0.0656035
0.0632413
0.0606159
0.0577311
0.0545894
0.0511941
0.0475759
0.0437615
0.0393964
0.0341835
0.0295521
0.0239665
0.0193529
0.0153862
0.0116739
0.00823606
0.00509695
0.00225073
-0.000309119
-0.00258739
-0.00458903
-0.00631948
-0.00778431
-0.00898927
-0.00994025
-0.0106433
-0.0111044
-0.0113301
-0.0113268
-0.0111009
-0.0106592
-0.0100084
-0.0091556
-0.00810785
-0.00687248
-0.00545701
-0.00386915
-0.00211687
-0.000208405
0.0018477
0.00404256
0.00636699
0.00881142
0.0113659
0.0140202
0.0167636
0.0195848
0.0224723
0.0254141
0.0283978
0.0314104
0.0344387
0.037469
0.0404873
0.0434792
0.0464303
0.0493256
0.0521501
0.0548887
0.0575262
0.0600475
0.0624374
0.0646812
0.0667643
0.0686726
0.0703923
0.0719102
0.0732139
0.0742916
0.0751324
0.0757265
0.0760648
0.0761395
0.0759436
0.0754716
0.074719
0.0736824
0.0723598
0.0707502
0.0688537
0.0666714
0.0642057
0.0614595
0.0584369
0.0551402
0.051573
0.0477677
0.0437529
0.0391554
0.0336628
0.029117
0.0232705
0.0184435
0.0142962
0.0104178
0.00682922
0.00355591
0.000591466
-0.00207126
-0.00443765
-0.00651334
-0.00830452
-0.00981748
-0.0110587
-0.012035
-0.0127529
-0.0132194
-0.0134416
-0.0134266
-0.0131814
-0.0127133
-0.0120297
-0.0111381
-0.010046
-0.00876112
-0.00729132
-0.00564462
-0.00382926
-0.00185371
0.000273301
0.00254273
0.00494522
0.0074711
0.0101103
0.0128525
0.0156868
0.018602
0.0215863
0.0246277
0.0277135
0.0308308
0.0339661
0.0371055
0.0402348
0.0433393
0.0464043
0.0494143
0.0523541
0.055208
0.0579602
0.0605952
0.063097
0.0654504
0.0676398
0.0696504
0.0714676
0.0730773
0.0744661
0.0756214
0.0765313
0.0771848
0.077572
0.077684
0.077513
0.0770524
0.0762969
0.0752423
0.0738858
0.0722259
0.070262
0.067995
0.0654267
0.06256
0.0593989
0.0559461
0.0522049
0.0482101
0.0439917
0.0391576
0.03338
0.0283597
0.0222508
0.0172096
0.0128812
0.00883657
0.0050976
0.00169065
-0.00139108
-0.00415538
-0.00660819
-0.00875591
-0.0106053
-0.0121635
-0.0134378
-0.0144355
-0.0151642
-0.0156315
-0.0158452
-0.0158129
-0.0155424
-0.0150417
-0.0143184
-0.0133808
-0.0122366
-0.0108942
-0.00936157
-0.00764717
-0.00575949
-0.00370723
-0.00149934
0.000854968
0.0033462
0.00596453
0.00869982
0.0115415
0.0144787
0.0175
0.0205936
0.0237474
0.0269485
0.0301837
0.0334395
0.0367018
0.0399559
0.0431871
0.0463801
0.0495193
0.0525887
0.0555723
0.0584538
0.0612168
0.063845
0.066322
0.0686318
0.0707586
0.0726868
0.0744014
0.0758882
0.0771333
0.0781238
0.0788479
0.0792944
0.0794534
0.079316
0.0788749
0.0781236
0.0770573
0.0756723
0.0739664
0.0719386
0.0695892
0.0669198
0.0639332
0.0606335
0.0570231
0.0531061
0.0489187
0.044493
0.0394175
0.0333484
0.0272642
0.0208907
0.0156339
0.0111238
0.0069126
0.00302337
-0.000516542
-0.00371445
-0.00657877
-0.00911603
-0.0113333
-0.0132381
-0.0148381
-0.0161416
-0.0171565
-0.0178912
-0.0183541
-0.0185535
-0.0184979
-0.0181957
-0.0176553
-0.0168851
-0.0158937
-0.0146894
-0.0132808
-0.0116766
-0.00988526
-0.00791569
-0.00577683
-0.00347782
-0.00102805
0.00156281
0.0042848
0.00712763
0.0100807
0.0131328
0.0162726
0.0194882
0.0227672
0.0260968
0.0294634
0.0328534
0.0362524
0.0396456
0.0430179
0.0463534
0.0496364
0.0528503
0.0559786
0.0590043
0.0619104
0.0646798
0.0672955
0.0697404
0.0719979
0.0740515
0.0758851
0.0774834
0.0788316
0.0799156
0.0807223
0.0812395
0.0814561
0.0813624
0.0809498
0.0802109
0.0791401
0.0777329
0.0759862
0.0738986
0.0714699
0.0687014
0.0655959
0.0621573
0.0583884
0.0542931
0.04991
0.0452729
0.0399502
0.033582
0.0258138
0.0191728
0.0136986
0.00900572
0.00462763
0.000588244
-0.00308395
-0.00639679
-0.00935932
-0.0119787
-0.0142627
-0.0162194
-0.0178574
-0.0191856
-0.0202129
-0.0209483
-0.0214009
-0.0215799
-0.0214943
-0.0211532
-0.0205657
-0.0197408
-0.0186873
-0.0174143
-0.0159307
-0.0142456
-0.0123677
-0.0103064
-0.00807068
-0.00567001
-0.00311397
-0.000412368
0.00242468
0.00538674
0.00846304
0.0116424
0.0149133
0.0182637
0.0216811
0.0251524
0.0286641
0.0322022
0.0357521
0.0392988
0.0428267
0.0463197
0.0497615
0.0531352
0.0564235
0.0596089
0.0626737
0.0656001
0.06837
0.0709657
0.0733694
0.0755636
0.0775312
0.0792558
0.0807212
0.0819124
0.0828149
0.0834154
0.0837016
0.0836625
0.0832886
0.0825714
0.0815044
0.080082
0.0783007
0.0761582
0.0736539
0.0707889
0.0675657
0.0639884
0.0600597
0.0557839
0.0512015
0.0463484
0.0407722
0.0340961
0.0239913
0.0170793
0.0113854
0.00650845
0.00196282
-0.00222663
-0.00603039
-0.00945678
-0.0125155
-0.0152144
-0.0175617
-0.0195665
-0.0212381
-0.0225861
-0.0236203
-0.0243505
-0.0247864
-0.0249381
-0.0248153
-0.0244277
-0.023785
-0.0228969
-0.0217726
-0.0204218
-0.0188538
-0.017078
-0.0151037
-0.0129403
-0.0105972
-0.00808407
-0.00541065
-0.00258696
0.000376757
0.00346993
0.00668166
0.0100007
0.0134154
0.0169135
0.0204825
0.0241091
0.0277797
0.03148
0.0351953
0.0389101
0.0426086
0.0462744
0.0498905
0.0534396
0.0569039
0.0602651
0.0635049
0.0666044
0.069545
0.0723078
0.074874
0.077225
0.0793426
0.0812091
0.0828072
0.0841205
0.0851332
0.0858307
0.0861995
0.0862274
0.0859035
0.0852184
0.0841644
0.0827351
0.080926
0.0787343
0.0761589
0.0732005
0.0698615
0.0661458
0.0620563
0.0575975
0.052812
0.0477378
0.0419009
0.034907
0.0217785
0.0145915
0.0086751
0.00361256
-0.00110142
-0.00544095
-0.00937547
-0.0129139
-0.0160665
-0.0188418
-0.0212488
-0.0232974
-0.0249977
-0.02636
-0.0273951
-0.0281134
-0.0285256
-0.0286425
-0.0284745
-0.0280322
-0.0273257
-0.0263652
-0.0251609
-0.0237227
-0.0220604
-0.0201838
-0.0181026
-0.0158264
-0.0133651
-0.0107283
-0.00792615
-0.00496876
-0.00186654
0.00136984
0.00472936
0.00820067
0.011772
0.015431
0.019165
0.0229607
0.0268042
0.0306811
0.0345763
0.0384742
0.0423586
0.0462127
0.050019
0.0537597
0.0574164
0.0609701
0.0644016
0.0676914
0.0708198
0.0737669
0.0765129
0.0790379
0.0813226
0.0833479
0.0850951
0.0865465
0.087685
0.0884946
0.0889603
0.0890686
0.0888074
0.088166
0.0871354
0.0857084
0.0838795
0.0816452
0.079004
0.0759559
0.0725032
0.0686497
0.0643985
0.0597542
0.0547616
0.0494607
0.0433552
0.0360328
0.0191565
0.0116898
0.00554778
0.000297785
-0.00458548
-0.00907517
-0.0131396
-0.0167882
-0.0200322
-0.0228806
-0.0253433
-0.0274308
-0.0291542
-0.0305248
-0.0315539
-0.0322531
-0.032634
-0.0327079
-0.0324862
-0.03198
-0.0312003
-0.030158
-0.0288637
-0.0273279
-0.0255609
-0.0235729
-0.0213739
-0.0189739
-0.016383
-0.0136111
-0.0106686
-0.0075656
-0.00431278
-0.000920889
0.00259898
0.00623534
0.00997633
0.0138096
0.0177222
0.0217009
0.0257315
0.0297995
0.0338895
0.0379857
0.0420716
0.0461299
0.0501427
0.0540916
0.0579575
0.061721
0.0653618
0.0688597
0.0721939
0.0753435
0.0782874
0.0810046
0.0834745
0.0856765
0.0875907
0.0891977
0.0904789
0.0914169
0.0919952
0.0921988
0.0920141
0.0914291
0.0904337
0.0890193
0.0871797
0.0849104
0.0822093
0.0790759
0.0755122
0.071522
0.0671083
0.0622759
0.057072
0.0515383
0.0451557
0.0374927
0.0161053
0.00835365
0.00198248
-0.00345712
-0.00851075
-0.0131506
-0.017344
-0.0211011
-0.0244335
-0.0273513
-0.029865
-0.0319861
-0.0337266
-0.0350986
-0.0361144
-0.0367866
-0.0371276
-0.0371496
-0.0368647
-0.036285
-0.0354222
-0.0342877
-0.0328929
-0.0312487
-0.029366
-0.0272553
-0.0249272
-0.0223919
-0.0196597
-0.0167409
-0.013646
-0.0103853
-0.00696951
-0.00340957
0.000283369
0.00409775
0.00802161
0.0120425
0.0161476
0.0203232
0.0245554
0.0288291
0.0331291
0.0374391
0.0417423
0.046021
0.050257
0.0544312
0.0585239
0.062515
0.0663834
0.0701078
0.0736666
0.0770377
0.0801987
0.0831276
0.0858019
0.0881999
0.0903
0.0920813
0.0935236
0.0946078
0.0953158
0.0956309
0.0955381
0.0950238
0.0940764
0.0926864
0.0908463
0.0885507
0.0857966
0.082583
0.0789115
0.074786
0.0702092
0.0651863
0.0597664
0.0539937
0.0473245
0.0393081
0.0126041
0.0045614
-0.0020429
-0.00767444
-0.0128997
-0.0176899
-0.0220113
-0.0258745
-0.0292923
-0.0322753
-0.034835
-0.0369837
-0.0387345
-0.0401003
-0.0410948
-0.0417312
-0.042023
-0.0419833
-0.0416252
-0.0409615
-0.0400047
-0.038767
-0.0372603
-0.0354963
-0.0334863
-0.0312412
-0.028772
-0.0260894
-0.0232039
-0.020126
-0.0168663
-0.0134354
-0.00984414
-0.0061034
-0.00222448
0.00178103
0.00590112
0.0101233
0.0144347
0.0188215
0.0232697
0.0277642
0.0322894
0.0368289
0.0413656
0.0458814
0.0503575
0.0547745
0.0591121
0.0633491
0.067464
0.0714343
0.0752374
0.0788499
0.0822484
0.0854092
0.0883086
0.0909231
0.0932295
0.0952053
0.0968285
0.0980782
0.0989345
0.099379
0.0993949
0.098967
0.0980823
0.0967297
0.0949005
0.0925882
0.089789
0.0865011
0.0827259
0.0784669
0.0737267
0.0685106
0.0628702
0.0568516
0.049886
0.0415021
0.00863057
0.000290313
-0.00655158
-0.0123777
-0.0177759
-0.0227166
-0.0271648
-0.0311319
-0.0346315
-0.037675
-0.040275
-0.0424447
-0.0441982
-0.0455497
-0.0465138
-0.0471048
-0.0473371
-0.0472251
-0.0467827
-0.0460236
-0.0449613
-0.0436085
-0.041978
-0.040082
-0.0379323
-0.0355405
-0.0329179
-0.0300754
-0.027024
-0.0237744
-0.0203373
-0.0167235
-0.0129438
-0.00900933
-0.00493133
-0.000721426
0.00360838
0.00804562
0.0125773
0.0171897
0.0218686
0.0265989
0.0313648
0.0361497
0.0409362
0.045706
0.0504398
0.0551176
0.0597185
0.0642206
0.0686014
0.0728377
0.0769056
0.0807806
0.0844378
0.0878522
0.0909984
0.0938513
0.0963861
0.0985781
0.100404
0.10184
0.102865
0.103458
0.103601
0.103277
0.102471
0.10117
0.0993648
0.0970468
0.0942115
0.0908563
0.086982
0.0825919
0.0776883
0.0722766
0.0664108
0.0601391
0.0528664
0.0441
0.00416143
-0.00448371
-0.0115681
-0.0175917
-0.0231645
-0.0282558
-0.0328295
-0.0368978
-0.0404752
-0.0435741
-0.046208
-0.0483913
-0.0501392
-0.0514672
-0.0523909
-0.0529258
-0.0530876
-0.0528916
-0.0523529
-0.0514862
-0.0503056
-0.0488251
-0.0470579
-0.0450169
-0.0427145
-0.0401629
-0.0373738
-0.0343585
-0.0311282
-0.0276938
-0.0240663
-0.0202565
-0.0162753
-0.0121339
-0.00784357
-0.00341583
0.00113732
0.00580342
0.0105695
0.0154219
0.0203462
0.0253275
0.0303498
0.0353962
0.0404493
0.0454902
0.0504995
0.0554565
0.0603396
0.0651265
0.0697935
0.0743167
0.0786708
0.0828302
0.0867686
0.0904593
0.0938756
0.0969903
0.0997766
0.102208
0.104259
0.105904
0.10712
0.107883
0.108174
0.107973
0.107263
0.106031
0.104263
0.101952
0.0990909
0.0956765
0.0917087
0.0871904
0.0821238
0.0765142
0.070418
0.0638857
0.0562945
0.0471297
-0.000828125
-0.00978624
-0.0171185
-0.0233429
-0.029092
-0.0343339
-0.0390316
-0.0431981
-0.0468489
-0.0499973
-0.052658
-0.0548467
-0.0565798
-0.057874
-0.0587462
-0.0592134
-0.0592923
-0.0589996
-0.0583515
-0.0573637
-0.0560514
-0.0544293
-0.0525115
-0.0503117
-0.0478429
-0.0451178
-0.0421485
-0.0389467
-0.0355239
-0.0318913
-0.02806
-0.0240408
-0.0198449
-0.0154832
-0.010967
-0.00630785
-0.00151765
0.00339123
0.00840588
0.0135127
0.0186974
0.0239449
0.0292392
0.0345635
0.0398999
0.0452295
0.0505323
0.0557872
0.0609721
0.0660639
0.0710381
0.0758697
0.0805323
0.0849991
0.0892423
0.0932335
0.0969443
0.100346
0.103409
0.106105
0.108406
0.110285
0.111715
0.112672
0.113132
0.113075
0.112482
0.111335
0.109622
0.107332
0.104456
0.100992
0.0969369
0.0922942
0.0870655
0.0812559
0.0749242
0.0681236
0.0602019
0.0506215
-0.00636434
-0.0156444
-0.0232306
-0.0296593
-0.0355864
-0.040979
-0.0457991
-0.0500604