/*--------------------------------*- C++ -*----------------------------------*\
  =========                 |
  \\      /  F ield         | OpenFOAM: The Open Source CFD Toolbox
   \\    /   O peration     | Website:  https://openfoam.org
    \\  /    A nd           | Version:  7
     \\/     M anipulation  |
\*---------------------------------------------------------------------------*/
FoamFile
{
    version     2.0;
    format      ascii;
    class       surfaceScalarField;
    location    "0.175";
    object      phi;
}
// * * * * * * * * * * * * * * * * * * * * * * * * * * * * * * * * * * * * * //

dimensions      [0 3 -1 0 0 0 0];

internalField   nonuniform List<scalar> 
12640
(
1.9029e-10
-1.90245e-10
5.55258e-10
-3.64955e-10
8.81275e-10
-3.26046e-10
1.04313e-09
-1.61869e-10
9.78741e-10
6.43891e-11
6.61045e-10
3.17695e-10
8.31786e-11
5.77851e-10
-7.49739e-10
8.3291e-10
-1.82551e-09
1.07578e-09
-3.12769e-09
1.30218e-09
-4.6373e-09
1.50961e-09
-6.33391e-09
1.69659e-09
-8.19628e-09
1.86236e-09
-1.02029e-08
2.00663e-09
-1.23323e-08
2.12938e-09
-1.45631e-08
2.23088e-09
-1.68747e-08
2.31154e-09
-1.92466e-08
2.37187e-09
-2.1659e-08
2.4125e-09
-2.40931e-08
2.43409e-09
-2.65305e-08
2.43737e-09
-2.89536e-08
2.42312e-09
-3.13457e-08
2.39211e-09
-3.36909e-08
2.34514e-09
-3.59739e-08
2.28302e-09
-3.81804e-08
2.20658e-09
-4.02971e-08
2.11666e-09
-4.23112e-08
2.01409e-09
-4.42109e-08
1.89972e-09
-4.59853e-08
1.77437e-09
-4.76242e-08
1.63891e-09
-4.91185e-08
1.49419e-09
-5.04595e-08
1.34107e-09
-5.16399e-08
1.18042e-09
-5.2653e-08
1.01311e-09
-5.3493e-08
8.40012e-10
-5.41551e-08
6.62042e-10
-5.46352e-08
4.8012e-10
-5.49304e-08
2.95183e-10
-5.50386e-08
1.08171e-10
-5.49586e-08
-7.99559e-11
-5.46904e-08
-2.68218e-10
-5.42348e-08
-4.55619e-10
-5.35937e-08
-6.41135e-10
-5.277e-08
-8.23721e-10
-5.17676e-08
-1.00233e-09
-5.05917e-08
-1.1759e-09
-4.92484e-08
-1.34336e-09
-4.77447e-08
-1.50363e-09
-4.60892e-08
-1.65559e-09
-4.4291e-08
-1.79817e-09
-4.23607e-08
-1.93027e-09
-4.03099e-08
-2.05081e-09
-3.81511e-08
-2.15874e-09
-3.58981e-08
-2.253e-09
-3.35656e-08
-2.33255e-09
-3.11692e-08
-2.39642e-09
-2.87255e-08
-2.44367e-09
-2.62521e-08
-2.47339e-09
-2.37674e-08
-2.48475e-09
-2.12904e-08
-2.47698e-09
-1.8841e-08
-2.44938e-09
-1.64397e-08
-2.40137e-09
-1.41072e-08
-2.33243e-09
-1.18651e-08
-2.24218e-09
-9.73467e-09
-2.1304e-09
-7.73767e-09
-1.99701e-09
-5.89552e-09
-1.84216e-09
-4.22926e-09
-1.66625e-09
-2.75918e-09
-1.47006e-09
-1.50428e-09
-1.25488e-09
-4.81577e-10
-1.02269e-09
2.94956e-10
-7.76533e-10
8.16117e-10
-5.21163e-10
1.08027e-09
-2.64147e-10
1.0981e-09
-1.7824e-11
9.00621e-10
1.97494e-10
5.53473e-10
3.4715e-10
1.83693e-10
3.69781e-10
1.83698e-10
3.65285e-10
-5.55538e-10
8.8431e-10
-8.83967e-10
1.21309e-09
-6.54801e-10
1.12903e-09
-7.78234e-11
4.94799e-10
6.98655e-10
-7.63363e-10
1.57585e-09
-2.67451e-09
2.48902e-09
-5.2376e-09
3.39598e-09
-8.43117e-09
4.26934e-09
-1.22202e-08
5.09124e-09
-1.65607e-08
5.85009e-09
-2.14027e-08
6.53858e-09
-2.66926e-08
7.15228e-09
-3.23747e-08
7.68877e-09
-3.83924e-08
8.14709e-09
-4.46889e-08
8.52735e-09
-5.12077e-08
8.83036e-09
-5.78935e-08
9.05762e-09
-6.4692e-08
9.21101e-09
-7.15506e-08
9.29272e-09
-7.84185e-08
9.30521e-09
-8.52465e-08
9.25117e-09
-9.19878e-08
9.13338e-09
-9.85975e-08
8.95477e-09
-1.05033e-07
8.71832e-09
-1.11253e-07
8.42711e-09
-1.17221e-07
8.08424e-09
-1.229e-07
7.69287e-09
-1.28256e-07
7.25619e-09
-1.33259e-07
6.77741e-09
-1.3788e-07
6.25978e-09
-1.42092e-07
5.70657e-09
-1.45872e-07
5.12112e-09
-1.49199e-07
4.50675e-09
-1.52053e-07
3.86687e-09
-1.54418e-07
3.2049e-09
-1.5628e-07
2.52433e-09
-1.57628e-07
1.82868e-09
-1.58455e-07
1.12156e-09
-1.58753e-07
4.06636e-10
-1.58521e-07
-3.12378e-10
-1.57757e-07
-1.0317e-09
-1.56465e-07
-1.74748e-09
-1.54651e-07
-2.45581e-09
-1.52322e-07
-3.15272e-09
-1.4949e-07
-3.83417e-09
-1.4617e-07
-4.4961e-09
-1.42379e-07
-5.13439e-09
-1.38137e-07
-5.74493e-09
-1.33469e-07
-6.32356e-09
-1.28402e-07
-6.86613e-09
-1.22963e-07
-7.36852e-09
-1.17187e-07
-7.82667e-09
-1.1111e-07
-8.23657e-09
-1.04768e-07
-8.5943e-09
-9.82048e-08
-8.89605e-09
-9.1463e-08
-9.13817e-09
-8.45895e-08
-9.31718e-09
-7.76331e-08
-9.4298e-09
-7.06448e-08
-9.47303e-09
-6.36776e-08
-9.44412e-09
-5.67863e-08
-9.34068e-09
-5.0027e-08
-9.16069e-09
-4.34568e-08
-8.90261e-09
-3.71335e-08
-8.5654e-09
-3.11153e-08
-8.14866e-09
-2.54595e-08
-7.65274e-09
-2.02227e-08
-7.07893e-09
-1.54593e-08
-6.42972e-09
-1.12202e-08
-5.70917e-09
-7.55167e-09
-4.92342e-09
-4.49282e-09
-4.08156e-09
-2.07251e-09
-3.19684e-09
-3.04982e-10
-2.28869e-09
8.16705e-10
-1.38583e-09
1.33011e-09
-5.31228e-10
1.31711e-09
2.10493e-10
9.2177e-10
7.42484e-10
3.69704e-10
9.21851e-10
5.53409e-10
3.29228e-10
-8.84762e-10
6.63227e-10
-1.21799e-09
6.08034e-10
-5.99583e-10
-9.69489e-11
6.2714e-10
-1.6222e-09
2.22391e-09
-4.06678e-09
4.02045e-09
-7.47499e-09
5.89724e-09
-1.18508e-08
7.77179e-09
-1.71688e-08
9.58737e-09
-2.33827e-08
1.13051e-08
-3.04312e-08
1.28986e-08
-3.82428e-08
1.43502e-08
-4.67391e-08
1.56486e-08
-5.58372e-08
1.67869e-08
-6.54518e-08
1.77617e-08
-7.54964e-08
1.85719e-08
-8.58845e-08
1.92185e-08
-9.65306e-08
1.97037e-08
-1.0735e-07
2.00309e-08
-1.18262e-07
2.02043e-08
-1.29185e-07
2.02287e-08
-1.40044e-07
2.01096e-08
-1.50763e-07
1.98527e-08
-1.61272e-07
1.9464e-08
-1.71504e-07
1.89499e-08
-1.81394e-07
1.83169e-08
-1.90881e-07
1.75716e-08
-1.99909e-07
1.67208e-08
-2.08424e-07
1.57713e-08
-2.16377e-07
1.47302e-08
-2.23722e-07
1.36045e-08
-2.30416e-07
1.24013e-08
-2.36423e-07
1.11278e-08
-2.41708e-07
9.79139e-09
-2.4624e-07
8.39945e-09
-2.49995e-07
6.9595e-09
-2.5295e-07
5.47916e-09
-2.55087e-07
3.96617e-09
-2.56394e-07
2.42841e-09
-2.56861e-07
8.73871e-10
-2.56484e-07
-6.89308e-10
-2.55263e-07
-2.25286e-09
-2.53202e-07
-3.80838e-09
-2.50311e-07
-5.34735e-09
-2.46602e-07
-6.86112e-09
-2.42095e-07
-8.34094e-09
-2.36814e-07
-9.77798e-09
-2.30785e-07
-1.11633e-08
-2.24042e-07
-1.2488e-08
-2.16622e-07
-1.37431e-08
-2.08569e-07
-1.49197e-08
-1.99928e-07
-1.60088e-08
-1.90753e-07
-1.70018e-08
-1.811e-07
-1.78901e-08
-1.71029e-07
-1.86652e-08
-1.60606e-07
-1.93191e-08
-1.499e-07
-1.9844e-08
-1.38984e-07
-2.02327e-08
-1.27936e-07
-2.04781e-08
-1.16835e-07
-2.05742e-08
-1.05764e-07
-2.05153e-08
-9.48079e-08
-2.02965e-08
-8.40547e-08
-1.9914e-08
-7.35924e-08
-1.93649e-08
-6.35101e-08
-1.86477e-08
-5.38966e-08
-1.77622e-08
-4.48393e-08
-1.671e-08
-3.64232e-08
-1.5495e-08
-2.8729e-08
-1.41239e-08
-2.18315e-08
-1.26067e-08
-1.57967e-08
-1.09582e-08
-1.06787e-08
-9.19957e-09
-6.51515e-09
-7.36038e-09
-3.32136e-09
-5.48247e-09
-1.08229e-09
-3.62488e-09
2.57816e-10
-1.87133e-09
8.08958e-10
-3.40659e-10
7.50866e-10
8.00572e-10
3.49761e-10
1.32296e-09
9.03173e-10
1.70738e-10
-1.05552e-09
1.01661e-10
-1.14893e-09
-5.93061e-10
9.51783e-11
-2.17694e-09
2.211e-09
-4.82672e-09
4.87368e-09
-8.64857e-09
7.84228e-09
-1.36918e-08
1.09404e-08
-1.99612e-08
1.40412e-08
-2.74275e-08
1.70537e-08
-3.60356e-08
1.99132e-08
-4.57113e-08
2.25742e-08
-5.63662e-08
2.50052e-08
-6.79025e-08
2.71848e-08
-8.02154e-08
2.90997e-08
-9.31958e-08
3.07421e-08
-1.06733e-07
3.21088e-08
-1.20714e-07
3.31998e-08
-1.35028e-07
3.4018e-08
-1.49565e-07
3.4568e-08
-1.64217e-07
3.48563e-08
-1.78879e-07
3.48906e-08
-1.93449e-07
3.46795e-08
-2.07829e-07
3.42323e-08
-2.21924e-07
3.35592e-08
-2.35645e-07
3.26707e-08
-2.48906e-07
3.15776e-08
-2.61625e-07
3.02913e-08
-2.73728e-07
2.88233e-08
-2.85142e-07
2.71853e-08
-2.95801e-07
2.53894e-08
-3.05644e-07
2.34475e-08
-3.14615e-07
2.1372e-08
-3.22662e-07
1.91753e-08
-3.29741e-07
1.68702e-08
-3.35811e-07
1.44693e-08
-3.40837e-07
1.19858e-08
-3.44791e-07
9.43282e-09
-3.47649e-07
6.82377e-09
-3.49392e-07
4.1723e-09
-3.50011e-07
1.49222e-09
-3.49498e-07
-1.20238e-09
-3.47853e-07
-3.89722e-09
-3.45084e-07
-6.57779e-09
-3.41202e-07
-9.22937e-09
-3.36226e-07
-1.18371e-08
-3.30181e-07
-1.43858e-08
-3.23099e-07
-1.68604e-08
-3.15017e-07
-1.92455e-08
-3.05979e-07
-2.15258e-08
-2.96036e-07
-2.3686e-08
-2.85245e-07
-2.57107e-08
-2.73669e-07
-2.75849e-08
-2.61377e-07
-2.92936e-08
-2.48445e-07
-3.08222e-08
-2.34953e-07
-3.21566e-08
-2.20989e-07
-3.32829e-08
-2.06645e-07
-3.41883e-08
-1.92018e-07
-3.48603e-08
-1.77208e-07
-3.52875e-08
-1.62323e-07
-3.54597e-08
-1.4747e-07
-3.53678e-08
-1.32763e-07
-3.50039e-08
-1.18315e-07
-3.43621e-08
-1.04241e-07
-3.34383e-08
-9.06583e-08
-3.22306e-08
-7.76806e-08
-3.07398e-08
-6.54206e-08
-2.897e-08
-5.39867e-08
-2.6929e-08
-4.34809e-08
-2.46297e-08
-3.39968e-08
-2.20908e-08
-2.56159e-08
-1.93391e-08
-1.84037e-08
-1.64117e-08
-1.24049e-08
-1.33592e-08
-7.63665e-09
-1.02508e-08
-4.08074e-09
-7.18078e-09
-1.67417e-09
-4.2779e-09
-2.9737e-10
-1.71746e-09
2.38518e-10
2.64689e-10
2.0664e-10
1.35484e-09
1.10981e-09
-4.83199e-11
-1.00719e-09
-6.56692e-10
-5.40587e-10
-2.16201e-09
1.6005e-09
-4.80424e-09
4.85324e-09
-8.74721e-09
8.81664e-09
-1.40901e-08
1.31852e-08
-2.08777e-08
1.7728e-08
-2.91102e-08
2.22738e-08
-3.87522e-08
2.66957e-08
-4.97398e-08
3.09008e-08
-6.19874e-08
3.48219e-08
-7.53929e-08
3.84107e-08
-8.9842e-08
4.16339e-08
-1.05212e-07
4.44695e-08
-1.21374e-07
4.69039e-08
-1.38195e-07
4.89305e-08
-1.55543e-07
5.05477e-08
-1.73284e-07
5.17583e-08
-1.91284e-07
5.25682e-08
-2.09413e-07
5.2986e-08
-2.27545e-07
5.30222e-08
-2.45555e-07
5.26892e-08
-2.63323e-07
5.20005e-08
-2.80734e-07
5.09708e-08
-2.97679e-07
4.96156e-08
-3.14053e-07
4.79511e-08
-3.29756e-07
4.59941e-08
-3.44694e-07
4.37619e-08
-3.58781e-07
4.1272e-08
-3.71934e-07
3.85425e-08
-3.84078e-07
3.55917e-08
-3.95145e-07
3.24384e-08
-4.05071e-07
2.91012e-08
-4.138e-07
2.55996e-08
-4.21284e-07
2.19529e-08
-4.27479e-07
1.8181e-08
-4.3235e-07
1.43039e-08
-4.35868e-07
1.03421e-08
-4.38012e-07
6.31623e-09
-4.38767e-07
2.24744e-09
-4.38127e-07
-1.84291e-09
-4.36091e-07
-5.9331e-09
-4.32668e-07
-1.00011e-08
-4.27873e-07
-1.40246e-08
-4.21729e-07
-1.79809e-08
-4.14267e-07
-2.18474e-08
-4.05527e-07
-2.56009e-08
-3.95554e-07
-2.92183e-08
-3.84403e-07
-3.26765e-08
-3.72137e-07
-3.59523e-08
-3.58825e-07
-3.90227e-08
-3.44545e-07
-4.1865e-08
-3.29382e-07
-4.44568e-08
-3.13428e-07
-4.67762e-08
-2.96782e-07
-4.8802e-08
-2.79552e-07
-5.05138e-08
-2.61848e-07
-5.18923e-08
-2.43789e-07
-5.29192e-08
-2.25498e-07
-5.35778e-08
-2.07105e-07
-5.3853e-08
-1.88741e-07
-5.37317e-08
-1.70542e-07
-5.32031e-08
-1.52645e-07
-5.22588e-08
-1.3519e-07
-5.08936e-08
-1.18315e-07
-4.91059e-08
-1.02156e-07
-4.68982e-08
-8.68486e-08
-4.42777e-08
-7.25194e-08
-4.12582e-08
-5.9289e-08
-3.78601e-08
-4.72664e-08
-3.41134e-08
-3.65462e-08
-3.00593e-08
-2.72044e-08
-2.57535e-08
-1.92928e-08
-2.12708e-08
-1.28332e-08
-1.67103e-08
-7.81045e-09
-1.22035e-08
-4.16384e-09
-7.92451e-09
-1.77831e-09
-4.10299e-09
-4.74715e-10
-1.03889e-09
1.11542e-12
8.79011e-10
1.11093e-09
-2.94834e-10
-7.12337e-10
-1.51954e-09
6.8413e-10
-3.94204e-09
4.023e-09
-7.76102e-09
8.67223e-09
-1.31134e-08
1.41691e-08
-2.00804e-08
2.01522e-08
-2.86942e-08
2.63418e-08
-3.89448e-08
3.25243e-08
-5.0787e-08
3.85379e-08
-6.4147e-08
4.42609e-08
-7.8928e-08
4.96028e-08
-9.50149e-08
5.44976e-08
-1.12279e-07
5.88983e-08
-1.30582e-07
6.27725e-08
-1.49778e-07
6.61e-08
-1.69717e-07
6.88695e-08
-1.90247e-07
7.10771e-08
-2.11214e-07
7.27251e-08
-2.32466e-07
7.38202e-08
-2.53853e-07
7.4373e-08
-2.75228e-07
7.43971e-08
-2.96447e-07
7.39087e-08
-3.17373e-07
7.2926e-08
-3.3787e-07
7.14686e-08
-3.57812e-07
6.95577e-08
-3.77077e-07
6.72155e-08
-3.95548e-07
6.4465e-08
-4.13116e-07
6.13301e-08
-4.29679e-07
5.78353e-08
-4.45142e-07
5.40055e-08
-4.59417e-07
4.98664e-08
-4.72422e-07
4.5444e-08
-4.84086e-07
4.07646e-08
-4.94342e-07
3.58553e-08
-5.03132e-07
3.07432e-08
-5.10407e-07
2.54562e-08
-5.16125e-07
2.00223e-08
-5.20254e-07
1.44703e-08
-5.22767e-07
8.82917e-09
-5.23648e-07
3.12848e-09
-5.22889e-07
-2.60179e-09
-5.20491e-07
-8.33124e-09
-5.16463e-07
-1.4029e-08
-5.10823e-07
-1.96639e-08
-5.036e-07
-2.52043e-08
-4.94829e-07
-3.06183e-08
-4.84556e-07
-3.58739e-08
-4.72835e-07
-4.09388e-08
-4.59731e-07
-4.57807e-08
-4.45316e-07
-5.03674e-08
-4.29672e-07
-5.46671e-08
-4.12889e-07
-5.86481e-08
-3.95066e-07
-6.22794e-08
-3.76311e-07
-6.55309e-08
-3.5674e-07
-6.83731e-08
-3.36476e-07
-7.07781e-08
-3.15649e-07
-7.27194e-08
-2.94396e-07
-7.4172e-08
-2.7286e-07
-7.51132e-08
-2.51191e-07
-7.55227e-08
-2.29539e-07
-7.5383e-08
-2.08063e-07
-7.46798e-08
-1.86919e-07
-7.34027e-08
-1.66267e-07
-7.15455e-08
-1.46266e-07
-6.91071e-08
-1.27072e-07
-6.60923e-08
-1.08836e-07
-6.2513e-08
-9.17051e-08
-5.83894e-08
-7.58136e-08
-5.37516e-08
-6.1285e-08
-4.8642e-08
-4.82262e-08
-4.31181e-08
-3.67235e-08
-3.72562e-08
-2.68379e-08
-3.11564e-08
-1.85996e-08
-2.49486e-08
-1.20017e-08
-1.88014e-08
-6.99451e-09
-1.29317e-08
-3.47818e-09
-7.61931e-09
-1.29704e-09
-3.22002e-09
-2.33531e-10
-1.8449e-10
8.77411e-10
-5.50706e-10
-1.61614e-10
-2.42945e-09
2.56287e-09
-5.82874e-09
7.4223e-09
-1.08962e-08
1.37397e-08
-1.77325e-08
2.10054e-08
-2.63927e-08
2.88124e-08
-3.68894e-08
3.68385e-08
-4.91974e-08
4.48323e-08
-6.32584e-08
5.25989e-08
-7.89863e-08
5.99888e-08
-9.6272e-08
6.68885e-08
-1.14988e-07
7.32135e-08
-1.34992e-07
7.89023e-08
-1.56131e-07
8.39116e-08
-1.78244e-07
8.82133e-08
-2.01166e-07
9.17909e-08
-2.24726e-07
9.46378e-08
-2.48756e-07
9.67548e-08
-2.73085e-07
9.81495e-08
-2.97547e-07
9.88343e-08
-3.21975e-07
9.88259e-08
-3.46211e-07
9.81445e-08
-3.70098e-07
9.68132e-08
-3.93487e-07
9.48571e-08
-4.16233e-07
9.23034e-08
-4.38198e-07
8.91809e-08
-4.59253e-07
8.55197e-08
-4.79274e-07
8.1351e-08
-4.98145e-07
7.67067e-08
-5.15759e-07
7.16199e-08
-5.32017e-07
6.61242e-08
-5.46827e-07
6.02539e-08
-5.60106e-07
5.4044e-08
-5.71781e-07
4.753e-08
-5.81786e-07
4.07482e-08
-5.90065e-07
3.37351e-08
-5.96571e-07
2.65283e-08
-6.01266e-07
1.91656e-08
-6.04123e-07
1.16856e-08
-6.05122e-07
4.12727e-09
-6.04254e-07
-3.46953e-09
-6.01521e-07
-1.10646e-08
-5.96932e-07
-1.86171e-08
-5.90511e-07
-2.60857e-08
-5.82286e-07
-3.34287e-08
-5.723e-07
-4.06041e-08
-5.60605e-07
-4.75693e-08
-5.47262e-07
-5.42821e-08
-5.32343e-07
-6.06997e-08
-5.1593e-07
-6.678e-08
-4.98116e-07
-7.24809e-08
-4.79004e-07
-7.77609e-08
-4.58703e-07
-8.25795e-08
-4.37337e-07
-8.6897e-08
-4.15035e-07
-9.06753e-08
-3.91935e-07
-9.38777e-08
-3.68185e-07
-9.64698e-08
-3.43938e-07
-9.84194e-08
-3.19354e-07
-9.96971e-08
-2.946e-07
-1.00277e-07
-2.69846e-07
-1.00137e-07
-2.45266e-07
-9.9259e-08
-2.21039e-07
-9.76306e-08
-1.97339e-07
-9.52448e-08
-1.74345e-07
-9.21016e-08
-1.52228e-07
-8.82086e-08
-1.31158e-07
-8.35829e-08
-1.11296e-07
-7.82523e-08
-9.279e-08
-7.22572e-08
-7.57781e-08
-6.56539e-08
-6.03792e-08
-5.8517e-08
-4.66912e-08
-5.09441e-08
-3.47867e-08
-4.30609e-08
-2.47076e-08
-3.50277e-08
-1.64611e-08
-2.70478e-08
-1.00147e-08
-1.93781e-08
-5.29215e-09
-1.23419e-08
-2.17053e-09
-6.34165e-09
-4.78968e-10
-1.87604e-09
3.9845e-10
-8.06119e-10
6.44496e-10
-3.35174e-09
5.10848e-09
-7.75513e-09
1.18257e-08
-1.41086e-08
2.00932e-08
-2.24712e-08
2.93679e-08
-3.28661e-08
3.92072e-08
-4.52812e-08
4.92536e-08
-5.96715e-08
5.92226e-08
-7.59624e-08
6.88897e-08
-9.4053e-08
7.80794e-08
-1.13821e-07
8.66561e-08
-1.35124e-07
9.45172e-08
-1.57809e-07
1.01587e-07
-1.81707e-07
1.0781e-07
-2.06644e-07
1.1315e-07
-2.32439e-07
1.17586e-07
-2.58909e-07
1.21107e-07
-2.85868e-07
1.23714e-07
-3.1313e-07
1.25412e-07
-3.40514e-07
1.26218e-07
-3.67839e-07
1.26151e-07
-3.94929e-07
1.25235e-07
-4.21614e-07
1.23498e-07
-4.47728e-07
1.20971e-07
-4.73113e-07
1.17689e-07
-4.97619e-07
1.13686e-07
-5.21101e-07
1.09002e-07
-5.43423e-07
1.03673e-07
-5.64459e-07
9.77423e-08
-5.84089e-07
9.12499e-08
-6.02203e-07
8.42388e-08
-6.18702e-07
7.67525e-08
-6.33493e-07
6.88352e-08
-6.46495e-07
6.05322e-08
-6.57637e-07
5.18893e-08
-6.66855e-07
4.29533e-08
-6.74098e-07
3.37716e-08
-6.79325e-07
2.43924e-08
-6.82504e-07
1.48648e-08
-6.83615e-07
5.23845e-09
-6.82648e-07
-4.43618e-09
-6.79605e-07
-1.41079e-08
-6.74497e-07
-2.3725e-08
-6.67348e-07
-3.32349e-08
-6.58192e-07
-4.25848e-08
-6.47075e-07
-5.17212e-08
-6.34054e-07
-6.05906e-08
-6.19197e-07
-6.91391e-08
-6.02583e-07
-7.7313e-08
-5.84305e-07
-8.50587e-08
-5.64462e-07
-9.23234e-08
-5.43168e-07
-9.90546e-08
-5.20547e-07
-1.05201e-07
-4.9673e-07
-1.10714e-07
-4.71862e-07
-1.15544e-07
-4.46094e-07
-1.19645e-07
-4.19588e-07
-1.22976e-07
-3.92513e-07
-1.25495e-07
-3.65043e-07
-1.27166e-07
-3.37363e-07
-1.27958e-07
-3.09657e-07
-1.27842e-07
-2.82118e-07
-1.26798e-07
-2.54938e-07
-1.24811e-07
-2.2831e-07
-1.21873e-07
-2.02426e-07
-1.17985e-07
-1.77476e-07
-1.13158e-07
-1.53643e-07
-1.07416e-07
-1.31103e-07
-1.00793e-07
-1.10018e-07
-9.33419e-08
-9.05395e-08
-8.51323e-08
-7.27997e-08
-7.62568e-08
-5.69097e-08
-6.68341e-08
-4.29557e-08
-5.70148e-08
-3.09955e-08
-4.69879e-08
-2.10544e-08
-3.6989e-08
-1.31223e-08
-2.73102e-08
-7.15232e-09
-1.83119e-08
-3.05981e-09
-1.04342e-08
-7.2499e-10
-4.21084e-09
-3.2654e-10
-1.056e-09
1.70049e-09
-4.26627e-09
8.31873e-09
-9.67954e-09
1.7239e-08
-1.73326e-08
2.77463e-08
-2.72401e-08
3.92754e-08
-3.93897e-08
5.13568e-08
-5.37411e-08
6.3605e-08
-7.0226e-08
7.57076e-08
-8.87503e-08
8.7414e-08
-1.09196e-07
9.85253e-08
-1.31426e-07
1.08886e-07
-1.55284e-07
1.18375e-07
-1.80601e-07
1.26904e-07
-2.07196e-07
1.34406e-07
-2.34882e-07
1.40836e-07
-2.63464e-07
1.46168e-07
-2.92744e-07
1.50387e-07
-3.22523e-07
1.53492e-07
-3.52601e-07
1.55491e-07
-3.82783e-07
1.56399e-07
-4.12873e-07
1.56241e-07
-4.42682e-07
1.55044e-07
-4.72027e-07
1.52842e-07
-5.00728e-07
1.49673e-07
-5.28615e-07
1.45576e-07
-5.55525e-07
1.40596e-07
-5.81301e-07
1.34778e-07
-6.05796e-07
1.28169e-07
-6.28874e-07
1.2082e-07
-6.50404e-07
1.1278e-07
-6.70269e-07
1.04103e-07
-6.88358e-07
9.48416e-08
-7.04573e-07
8.50501e-08
-7.18824e-07
7.47842e-08
-7.31036e-07
6.41004e-08
-7.41138e-07
5.30562e-08
-7.49077e-07
4.17102e-08
-7.54806e-07
3.01216e-08
-7.58292e-07
1.83509e-08
-7.59513e-07
6.45917e-09
-7.58458e-07
-5.49132e-09
-7.55128e-07
-1.74377e-08
-7.49537e-07
-2.93161e-08
-7.4171e-07
-4.10621e-08
-7.31684e-07
-5.26107e-08
-7.19509e-07
-6.38963e-08
-7.05246e-07
-7.4853e-08
-6.88971e-07
-8.54148e-08
-6.70768e-07
-9.55157e-08
-6.50736e-07
-1.0509e-07
-6.28986e-07
-1.14074e-07
-6.05639e-07
-1.22402e-07
-5.80828e-07
-1.30012e-07
-5.54698e-07
-1.36844e-07
-5.27403e-07
-1.42839e-07
-4.99107e-07
-1.47941e-07
-4.69986e-07
-1.52097e-07
-4.4022e-07
-1.55261e-07
-4.1e-07
-1.57386e-07
-3.79522e-07
-1.58435e-07
-3.48988e-07
-1.58376e-07
-3.18603e-07
-1.57183e-07
-2.88575e-07
-1.54839e-07
-2.59113e-07
-1.51336e-07
-2.30422e-07
-1.46675e-07
-2.02708e-07
-1.40873e-07
-1.76167e-07
-1.33957e-07
-1.50989e-07
-1.25971e-07
-1.27352e-07
-1.16979e-07
-1.0542e-07
-1.07064e-07
-8.53397e-08
-9.63369e-08
-6.72377e-08
-8.49361e-08
-5.12164e-08
-7.30361e-08
-3.73519e-08
-6.08525e-08
-2.56911e-08
-4.86497e-08
-1.62507e-08
-3.67506e-08
-9.0162e-09
-2.55463e-08
-3.94411e-09
-1.55062e-08
-9.6627e-10
-7.18868e-09
-1.29281e-09
-1.29798e-09
2.99848e-09
-5.16193e-09
1.21827e-08
-1.15772e-08
2.36543e-08
-2.0527e-08
3.6696e-08
-3.19808e-08
5.07292e-08
-4.58894e-08
6.52654e-08
-6.21814e-08
7.9897e-08
-8.07628e-08
9.42889e-08
-1.01517e-07
1.08169e-07
-1.24308e-07
1.21316e-07
-1.48981e-07
1.33558e-07
-1.75365e-07
1.44759e-07
-2.03276e-07
1.54814e-07
-2.32519e-07
1.63649e-07
-2.62894e-07
1.71211e-07
-2.94192e-07
1.77466e-07
-3.26202e-07
1.82397e-07
-3.58712e-07
1.86002e-07
-3.9151e-07
1.88289e-07
-4.24386e-07
1.89276e-07
-4.57134e-07
1.88989e-07
-4.89551e-07
1.87461e-07
-5.21441e-07
1.84732e-07
-5.52614e-07
1.80846e-07
-5.82887e-07
1.75849e-07
-6.12086e-07
1.69795e-07
-6.40045e-07
1.62736e-07
-6.66606e-07
1.5473e-07
-6.91622e-07
1.45836e-07
-7.14955e-07
1.36114e-07
-7.36479e-07
1.25627e-07
-7.56075e-07
1.14438e-07
-7.73639e-07
1.02614e-07
-7.89076e-07
9.02207e-08
-8.02301e-07
7.7326e-08
-8.13244e-07
6.39989e-08
-8.21844e-07
5.03098e-08
-8.28052e-07
3.63299e-08
-8.31833e-07
2.21318e-08
-8.33163e-07
7.78897e-09
-8.3203e-07
-6.62398e-09
-8.28436e-07
-2.10314e-08
-8.22395e-07
-3.53569e-08
-8.13934e-07
-4.9523e-08
-8.03093e-07
-6.34517e-08
-7.89925e-07
-7.70645e-08
-7.74496e-07
-9.02824e-08
-7.56884e-07
-1.03026e-07
-7.37183e-07
-1.15217e-07
-7.15496e-07
-1.26777e-07
-6.91942e-07
-1.37628e-07
-6.6665e-07
-1.47693e-07
-6.39763e-07
-1.56899e-07
-6.11434e-07
-1.65173e-07
-5.81829e-07
-1.72444e-07
-5.51123e-07
-1.78647e-07
-5.19502e-07
-1.83719e-07
-4.8716e-07
-1.87603e-07
-4.54299e-07
-1.90247e-07
-4.2113e-07
-1.91605e-07
-3.87866e-07
-1.9164e-07
-3.54727e-07
-1.90322e-07
-3.21934e-07
-1.87632e-07
-2.8971e-07
-1.83559e-07
-2.58276e-07
-1.78109e-07
-2.2785e-07
-1.713e-07
-1.98642e-07
-1.63164e-07
-1.70858e-07
-1.53756e-07
-1.44689e-07
-1.43148e-07
-1.20315e-07
-1.31439e-07
-9.78968e-08
-1.18755e-07
-7.75789e-08
-1.05254e-07
-5.94818e-08
-9.11332e-08
-4.37028e-08
-7.66315e-08
-3.03132e-08
-6.20394e-08
-1.93583e-08
-4.77054e-08
-1.08586e-08
-3.40461e-08
-4.81194e-09
-2.15529e-08
-1.20025e-09
-1.08004e-08
-2.49306e-09
-1.53121e-09
4.52969e-09
-6.03327e-09
1.66847e-08
-1.34346e-08
3.10556e-08
-2.36676e-08
4.6929e-08
-3.66579e-08
6.37195e-08
-5.23183e-08
8.09258e-08
-7.05451e-08
9.81238e-08
-9.12167e-08
1.1496e-07
-1.14193e-07
1.31145e-07
-1.39317e-07
1.4644e-07
-1.66415e-07
1.60656e-07
-1.95299e-07
1.73643e-07
-2.25771e-07
1.85286e-07
-2.57622e-07
1.955e-07
-2.90636e-07
2.04225e-07
-3.24593e-07
2.11423e-07
-3.59269e-07
2.17073e-07
-3.94438e-07
2.21172e-07
-4.29878e-07
2.23728e-07
-4.65365e-07
2.24763e-07
-5.00681e-07
2.24305e-07
-5.35614e-07
2.22394e-07
-5.69955e-07
2.19073e-07
-6.03504e-07
2.14394e-07
-6.36067e-07
2.08413e-07
-6.6746e-07
2.01188e-07
-6.97508e-07
1.92784e-07
-7.26044e-07
1.83266e-07
-7.52912e-07
1.72704e-07
-7.77966e-07
1.61168e-07
-8.01073e-07
1.48733e-07
-8.22108e-07
1.35473e-07
-8.40959e-07
1.21465e-07
-8.57525e-07
1.06788e-07
-8.7172e-07
9.15203e-08
-8.83465e-07
7.57445e-08
-8.92698e-07
5.95429e-08
-8.99368e-07
4.29995e-08
-9.03436e-07
2.61995e-08
-9.04876e-07
9.22955e-09
-9.03678e-07
-7.82257e-09
-8.99841e-07
-2.48679e-08
-8.93381e-07
-4.18165e-08
-8.84327e-07
-5.85774e-08
-8.7272e-07
-7.50588e-08
-8.58616e-07
-9.11684e-08
-8.42085e-07
-1.06814e-07
-8.2321e-07
-1.21901e-07
-8.02088e-07
-1.36339e-07
-7.78831e-07
-1.50034e-07
-7.53562e-07
-1.62897e-07
-7.26418e-07
-1.74837e-07
-6.9755e-07
-1.85767e-07
-6.67121e-07
-1.95602e-07
-6.35303e-07
-2.04261e-07
-6.02284e-07
-2.11666e-07
-5.68259e-07
-2.17744e-07
-5.33434e-07
-2.22428e-07
-4.98022e-07
-2.25659e-07
-4.62245e-07
-2.27382e-07
-4.26329e-07
-2.27555e-07
-3.90508e-07
-2.26143e-07
-3.55016e-07
-2.23124e-07
-3.20088e-07
-2.18488e-07
-2.85958e-07
-2.12239e-07
-2.52859e-07
-2.04399e-07
-2.21017e-07
-1.95007e-07
-1.90649e-07
-1.84123e-07
-1.61964e-07
-1.71833e-07
-1.35156e-07
-1.58247e-07
-1.10405e-07
-1.43506e-07
-8.78711e-08
-1.27788e-07
-6.76971e-08
-1.11307e-07
-5.00027e-08
-9.4326e-08
-3.48855e-08
-7.71565e-08
-2.24214e-08
-6.01695e-08
-1.26658e-08
-4.38017e-08
-5.65772e-09
-2.85609e-08
-1.426e-09
-1.50321e-08
-3.91905e-09
-1.75568e-09
6.28537e-09
-6.87837e-09
2.18074e-08
-1.52455e-08
3.94227e-08
-2.67423e-08
5.84258e-08
-4.12518e-08
7.8229e-08
-5.86493e-08
9.83233e-08
-7.87982e-08
1.18273e-07
-1.01548e-07
1.3771e-07
-1.26734e-07
1.5633e-07
-1.54175e-07
1.73882e-07
-1.8368e-07
1.90161e-07
-2.15043e-07
2.05006e-07
-2.48049e-07
2.18292e-07
-2.82474e-07
2.29925e-07
-3.18088e-07
2.3984e-07
-3.54658e-07
2.47992e-07
-3.91946e-07
2.54362e-07
-4.29717e-07
2.58942e-07
-4.67734e-07
2.61745e-07
-5.05764e-07
2.62792e-07
-5.43577e-07
2.62118e-07
-5.80949e-07
2.59766e-07
-6.17664e-07
2.55787e-07
-6.53509e-07
2.50239e-07
-6.88282e-07
2.43186e-07
-7.21791e-07
2.34696e-07
-7.5385e-07
2.24842e-07
-7.84285e-07
2.13701e-07
-8.12933e-07
2.01351e-07
-8.3964e-07
1.87876e-07
-8.64267e-07
1.73359e-07
-8.86682e-07
1.57888e-07
-9.06769e-07
1.41552e-07
-9.24421e-07
1.2444e-07
-9.39547e-07
1.06646e-07
-9.52066e-07
8.82634e-08
-9.61911e-07
6.9388e-08
-9.69028e-07
5.0117e-08
-9.73378e-07
3.05492e-08
-9.74933e-07
1.07847e-08
-9.73681e-07
-9.07484e-09
-9.69622e-07
-2.89265e-08
-9.62773e-07
-4.86662e-08
-9.53161e-07
-6.81887e-08
-9.40832e-07
-8.73878e-08
-9.25844e-07
-1.06157e-07
-9.08269e-07
-1.24389e-07
-8.88194e-07
-1.41976e-07
-8.65721e-07
-1.58812e-07
-8.40965e-07
-1.7479e-07
-8.14058e-07
-1.89805e-07
-7.85141e-07
-2.03753e-07
-7.54374e-07
-2.16535e-07
-7.21925e-07
-2.28051e-07
-6.87977e-07
-2.38208e-07
-6.52725e-07
-2.46917e-07
-6.16375e-07
-2.54094e-07
-5.79142e-07
-2.59661e-07
-5.4125e-07
-2.6355e-07
-5.02933e-07
-2.657e-07
-4.64429e-07
-2.66059e-07
-4.25982e-07
-2.6459e-07
-3.87839e-07
-2.61267e-07
-3.50249e-07
-2.56077e-07
-3.13461e-07
-2.49027e-07
-2.77719e-07
-2.40141e-07
-2.43264e-07
-2.29461e-07
-2.1033e-07
-2.17058e-07
-1.79139e-07
-2.03023e-07
-1.49905e-07
-1.87481e-07
-1.22825e-07
-1.70587e-07
-9.80789e-08
-1.52533e-07
-7.58314e-08
-1.33555e-07
-5.62266e-08
-1.13931e-07
-3.939e-08
-9.39932e-08
-2.54282e-08
-7.41313e-08
-1.44319e-08
-5.4798e-08
-6.47958e-09
-3.65132e-08
-1.64352e-09
-1.98681e-08
-5.56258e-09
-1.97186e-09
8.25723e-09
-7.69749e-09
2.75331e-08
-1.70085e-08
4.87338e-08
-2.97465e-08
7.11637e-08
-4.5754e-08
9.42365e-08
-6.48694e-08
1.17439e-07
-8.69232e-08
1.40327e-07
-1.11736e-07
1.62523e-07
-1.39115e-07
1.8371e-07
-1.68859e-07
2.03626e-07
-2.00754e-07
2.22055e-07
-2.34575e-07
2.38827e-07
-2.7009e-07
2.53808e-07
-3.07061e-07
2.66896e-07
-3.45243e-07
2.78021e-07
-3.84388e-07
2.87138e-07
-4.24247e-07
2.94221e-07
-4.64572e-07
2.99267e-07
-5.05115e-07
3.02288e-07
-5.45632e-07
3.03309e-07
-5.85882e-07
3.02369e-07
-6.25633e-07
2.99517e-07
-6.64657e-07
2.94811e-07
-7.02733e-07
2.88316e-07
-7.39651e-07
2.80104e-07
-7.75209e-07
2.70254e-07
-8.09215e-07
2.58848e-07
-8.41487e-07
2.45973e-07
-8.71855e-07
2.31719e-07
-9.00159e-07
2.16181e-07
-9.26253e-07
1.99453e-07
-9.50002e-07
1.81637e-07
-9.71282e-07
1.62832e-07
-9.89984e-07
1.43142e-07
-1.00601e-06
1.22673e-07
-1.01928e-06
1.01532e-07
-1.02972e-06
7.98288e-08
-1.03728e-06
5.76735e-08
-1.04191e-06
3.51791e-08
-1.04358e-06
1.246e-08
-1.04229e-06
-1.03678e-08
-1.03803e-06
-3.3187e-08
-1.03082e-06
-5.58787e-08
-1.02068e-06
-7.83229e-08
-1.00767e-06
-1.00399e-07
-9.91845e-07
-1.21984e-07
-9.73276e-07
-1.42957e-07
-9.52057e-07
-1.63195e-07
-9.28293e-07
-1.82576e-07
-9.02103e-07
-2.0098e-07
-8.73623e-07
-2.18285e-07
-8.43002e-07
-2.34375e-07
-8.10403e-07
-2.49134e-07
-7.76003e-07
-2.62451e-07
-7.39993e-07
-2.74218e-07
-7.02576e-07
-2.84335e-07
-6.63965e-07
-2.92705e-07
-6.24385e-07
-2.99241e-07
-5.84071e-07
-3.03864e-07
-5.43267e-07
-3.06504e-07
-5.02222e-07
-3.07105e-07
-4.61192e-07
-3.05621e-07
-4.20436e-07
-3.02023e-07
-3.80216e-07
-2.96297e-07
-3.40794e-07
-2.88449e-07
-3.02429e-07
-2.78505e-07
-2.65378e-07
-2.66513e-07
-2.29888e-07
-2.52547e-07
-1.96201e-07
-2.3671e-07
-1.64546e-07
-2.19136e-07
-1.35141e-07
-1.99992e-07
-1.08187e-07
-1.79487e-07
-8.38716e-08
-1.5787e-07
-6.23649e-08
-1.35437e-07
-4.38202e-08
-1.12538e-07
-2.83757e-08
-8.95759e-08
-1.61563e-08
-6.70173e-08
-7.27807e-09
-4.53915e-08
-1.85336e-09
-2.52928e-08
-7.41595e-09
-2.1805e-09
1.04377e-08
-8.49217e-09
3.38447e-08
-1.87254e-08
5.8967e-08
-3.26812e-08
8.51195e-08
-5.01637e-08
1.11719e-07
-7.09758e-08
1.38251e-07
-9.49152e-08
1.64266e-07
-1.21772e-07
1.8938e-07
-1.51329e-07
2.13267e-07
-1.83359e-07
2.35656e-07
-2.17626e-07
2.56323e-07
-2.53887e-07
2.75088e-07
-2.91892e-07
2.91812e-07
-3.31385e-07
3.06389e-07
-3.72107e-07
3.18743e-07
-4.13797e-07
3.28828e-07
-4.56193e-07
3.36617e-07
-4.99034e-07
3.42108e-07
-5.42061e-07
3.45315e-07
-5.8502e-07
3.46268e-07
-6.2766e-07
3.4501e-07
-6.69739e-07
3.41596e-07
-7.11019e-07
3.36091e-07
-7.51273e-07
3.2857e-07
-7.90282e-07
3.19113e-07
-8.27835e-07
3.07808e-07
-8.63735e-07
2.94748e-07
-8.97792e-07
2.80031e-07
-9.29831e-07
2.63758e-07
-9.59686e-07
2.46036e-07
-9.87205e-07
2.26972e-07
-1.01225e-06
2.06679e-07
-1.03469e-06
1.85271e-07
-1.05441e-06
1.62865e-07
-1.07131e-06
1.39578e-07
-1.08532e-06
1.15534e-07
-1.09634e-06
9.08538e-08
-1.10433e-06
6.56636e-08
-1.10924e-06
4.00904e-08
-1.11104e-06
1.4263e-08
-1.10972e-06
-1.16877e-08
-1.10528e-06
-3.76294e-08
-1.09773e-06
-6.34281e-08
-1.08711e-06
-8.89486e-08
-1.07345e-06
-1.14054e-07
-1.05683e-06
-1.38608e-07
-1.03731e-06
-1.62472e-07
-1.015e-06
-1.85508e-07
-9.89997e-07
-2.07579e-07
-9.62428e-07
-2.28548e-07
-9.32433e-07
-2.4828e-07
-9.00165e-07
-2.66643e-07
-8.65793e-07
-2.83505e-07
-8.29502e-07
-2.98742e-07
-7.91486e-07
-3.12233e-07
-7.51958e-07
-3.23863e-07
-7.11138e-07
-3.33525e-07
-6.69262e-07
-3.41118e-07
-6.26572e-07
-3.46554e-07
-5.83321e-07
-3.49754e-07
-5.39772e-07
-3.50654e-07
-4.96191e-07
-3.49202e-07
-4.52849e-07
-3.45364e-07
-4.10021e-07
-3.39125e-07
-3.67983e-07
-3.30487e-07
-3.27009e-07
-3.19479e-07
-2.8737e-07
-3.06152e-07
-2.49331e-07
-2.90586e-07
-2.13152e-07
-2.7289e-07
-1.79079e-07
-2.53208e-07
-1.47352e-07
-2.31719e-07
-1.18195e-07
-2.08644e-07
-9.18181e-08
-1.84247e-07
-6.84185e-08
-1.58837e-07
-4.81783e-08
-1.32778e-07
-3.12665e-08
-1.06488e-07
-1.78417e-08
-8.04421e-08
-8.0552e-09
-5.5178e-08
-2.05639e-09
-3.12917e-08
-9.47235e-09
-2.38251e-09
1.28203e-08
-9.26477e-09
4.0727e-08
-2.03997e-08
7.0102e-08
-3.55507e-08
1.00271e-07
-5.44857e-08
1.30654e-07
-7.69728e-08
1.60738e-07
-1.02778e-07
1.90071e-07
-1.31662e-07
2.18264e-07
-1.63379e-07
2.44985e-07
-1.97679e-07
2.69955e-07
-2.34302e-07
2.92946e-07
-2.72987e-07
3.13772e-07
-3.13463e-07
3.32288e-07
-3.55458e-07
3.48385e-07
-3.98699e-07
3.61984e-07
-4.42909e-07
3.73038e-07
-4.87813e-07
3.81522e-07
-5.33139e-07
3.87434e-07
-5.78616e-07
3.90793e-07
-6.2398e-07
3.91632e-07
-6.68971e-07
3.9e-07
-7.13336e-07
3.85961e-07
-7.56831e-07
3.79586e-07
-7.99218e-07
3.70958e-07
-8.40273e-07
3.60167e-07
-8.79777e-07
3.47313e-07
-9.17527e-07
3.32497e-07
-9.53327e-07
3.15831e-07
-9.86996e-07
2.97427e-07
-1.01836e-06
2.77403e-07
-1.04727e-06
2.5588e-07
-1.07358e-06
2.32984e-07
-1.09715e-06
2.08842e-07
-1.11787e-06
1.83584e-07
-1.13563e-06
1.57343e-07
-1.15035e-06
1.30254e-07
-1.16195e-06
1.02455e-07
-1.17038e-06
7.40852e-08
-1.17557e-06
4.52864e-08
-1.17751e-06
1.62028e-08
-1.17618e-06
-1.30198e-08
-1.17158e-06
-4.22337e-08
-1.16371e-06
-7.12893e-08
-1.15263e-06
-1.00036e-07
-1.13836e-06
-1.2832e-07
-1.12098e-06
-1.5599e-07
-1.10056e-06
-1.82892e-07
-1.0772e-06
-2.0887e-07