/*--------------------------------*- C++ -*----------------------------------*\
  =========                 |
  \\      /  F ield         | OpenFOAM: The Open Source CFD Toolbox
   \\    /   O peration     | Website:  https://openfoam.org
    \\  /    A nd           | Version:  7
     \\/     M anipulation  |
\*---------------------------------------------------------------------------*/
FoamFile
{
    version     2.0;
    format      ascii;
    class       volVectorField;
    location    "0.175";
    object      U;
}
// * * * * * * * * * * * * * * * * * * * * * * * * * * * * * * * * * * * * * //

dimensions      [0 1 -1 0 0 0 0];

internalField   nonuniform List<vector> 
6400
(
(7.2436e-06 -7.23685e-06 0)
(2.97575e-05 -1.44108e-05 0)
(5.91666e-05 -1.41362e-05 0)
(8.03825e-05 -9.69502e-06 0)
(8.5142e-05 -3.39077e-06 0)
(7.02037e-05 3.57359e-06 0)
(3.44453e-05 1.05853e-05 0)
(-2.20987e-05 1.73276e-05 0)
(-9.86752e-05 2.36381e-05 0)
(-0.000194094 2.94354e-05 0)
(-0.000306913 3.46814e-05 0)
(-0.000435536 3.936e-05 0)
(-0.000578285 4.34707e-05 0)
(-0.000733441 4.7021e-05 0)
(-0.00089928 5.00214e-05 0)
(-0.00107408 5.24896e-05 0)
(-0.00125617 5.44398e-05 0)
(-0.00144389 5.58919e-05 0)
(-0.00163563 5.68654e-05 0)
(-0.00182985 5.73799e-05 0)
(-0.00202505 5.74558e-05 0)
(-0.0022198 5.71138e-05 0)
(-0.00241272 5.63743e-05 0)
(-0.00260251 5.52576e-05 0)
(-0.00278792 5.37844e-05 0)
(-0.00296777 5.19754e-05 0)
(-0.00314096 4.98511e-05 0)
(-0.00330642 4.74313e-05 0)
(-0.0034632 4.47354e-05 0)
(-0.00361037 4.17833e-05 0)
(-0.00374709 3.85951e-05 0)
(-0.00387258 3.51916e-05 0)
(-0.00398615 3.15926e-05 0)
(-0.00408714 2.78179e-05 0)
(-0.004175 2.38872e-05 0)
(-0.00424923 1.98206e-05 0)
(-0.0043094 1.56389e-05 0)
(-0.00435515 1.13639e-05 0)
(-0.00438621 7.01744e-06 0)
(-0.00440238 2.62085e-06 0)
(-0.00440352 -1.80394e-06 0)
(-0.00438958 -6.23434e-06 0)
(-0.0043606 -1.06471e-05 0)
(-0.00431669 -1.50182e-05 0)
(-0.00425803 -1.93228e-05 0)
(-0.0041849 -2.35365e-05 0)
(-0.00409766 -2.76349e-05 0)
(-0.00399676 -3.15927e-05 0)
(-0.00388273 -3.53839e-05 0)
(-0.00375619 -3.89824e-05 0)
(-0.00361785 -4.2362e-05 0)
(-0.00346849 -4.54969e-05 0)
(-0.00330902 -4.83615e-05 0)
(-0.00314038 -5.09296e-05 0)
(-0.00296364 -5.3175e-05 0)
(-0.00277992 -5.50723e-05 0)
(-0.00259046 -5.65974e-05 0)
(-0.00239653 -5.77272e-05 0)
(-0.0021995 -5.8439e-05 0)
(-0.00200082 -5.87108e-05 0)
(-0.00180198 -5.85219e-05 0)
(-0.00160454 -5.78537e-05 0)
(-0.00141012 -5.66887e-05 0)
(-0.00122037 -5.50115e-05 0)
(-0.00103698 -5.28089e-05 0)
(-0.000861672 -5.00695e-05 0)
(-0.000696176 -4.67851e-05 0)
(-0.000542218 -4.29508e-05 0)
(-0.000401505 -3.85663e-05 0)
(-0.000275699 -3.36375e-05 0)
(-0.000166384 -2.81798e-05 0)
(-7.50188e-05 -2.22231e-05 0)
(-2.86998e-06 -1.5821e-05 0)
(4.90946e-05 -9.07072e-06 0)
(8.03805e-05 -2.15083e-06 0)
(9.12501e-05 4.60527e-06 0)
(8.31449e-05 1.05736e-05 0)
(5.96217e-05 1.45603e-05 0)
(2.9177e-05 1.43243e-05 0)
(6.86223e-06 6.86147e-06 0)
(1.44233e-05 -2.9741e-05 0)
(5.14093e-05 -5.13357e-05 0)
(8.95005e-05 -4.3892e-05 0)
(0.000103045 -1.89223e-05 0)
(7.63646e-05 1.54639e-05 0)
(1.61764e-06 5.42409e-05 0)
(-0.000124885 9.43358e-05 0)
(-0.000304057 0.000133862 0)
(-0.000534852 0.000171663 0)
(-0.000814909 0.000207024 0)
(-0.00114099 0.000239507 0)
(-0.00150928 0.00026885 0)
(-0.00191562 0.00029491 0)
(-0.00235559 0.000317621 0)
(-0.00282469 0.000336973 0)
(-0.00331836 0.000352993 0)
(-0.00383206 0.000365736 0)
(-0.00436132 0.000375282 0)
(-0.00490174 0.00038172 0)
(-0.00544904 0.000385154 0)
(-0.00599908 0.000385695 0)
(-0.00654786 0.000383462 0)
(-0.00709153 0.000378577 0)
(-0.00762643 0.000371164 0)
(-0.00814905 0.000361352 0)
(-0.00865606 0.000349271 0)
(-0.00914431 0.000335052 0)
(-0.00961085 0.000318827 0)
(-0.0100529 0.000300729 0)
(-0.0104679 0.000280891 0)
(-0.0108534 0.000259447 0)
(-0.0112072 0.000236534 0)
(-0.0115273 0.000212289 0)
(-0.011812 0.000186849 0)
(-0.0120595 0.000160354 0)
(-0.0122686 0.000132943 0)
(-0.0124379 0.000104761 0)
(-0.0125665 7.59525e-05 0)
(-0.0126537 4.66665e-05 0)
(-0.0126988 1.70534e-05 0)
(-0.0127014 -1.27339e-05 0)
(-0.0126616 -4.25401e-05 0)
(-0.0125793 -7.22066e-05 0)
(-0.0124549 -0.000101572 0)
(-0.0122889 -0.00013047 0)
(-0.0120822 -0.000158736 0)
(-0.0118358 -0.0001862 0)
(-0.011551 -0.000212693 0)
(-0.0112293 -0.000238042 0)
(-0.0108724 -0.000262075 0)
(-0.0104824 -0.000284618 0)
(-0.0100616 -0.000305499 0)
(-0.00961233 -0.000324549 0)
(-0.00913745 -0.000341599 0)
(-0.0086399 -0.000356484 0)
(-0.00812287 -0.000369043 0)
(-0.00758977 -0.00037912 0)
(-0.00704422 -0.000386567 0)
(-0.00649004 -0.000391245 0)
(-0.00593123 -0.000393023 0)
(-0.00537196 -0.000391781 0)
(-0.00481654 -0.000387411 0)
(-0.0042694 -0.000379822 0)
(-0.00373509 -0.00036894 0)
(-0.00321823 -0.000354708 0)
(-0.00272344 -0.000337096 0)
(-0.00225537 -0.0003161 0)
(-0.00181859 -0.000291752 0)
(-0.00141756 -0.00026413 0)
(-0.00105653 -0.000233372 0)
(-0.000739406 -0.000199701 0)
(-0.000469665 -0.000163457 0)
(-0.000250096 -0.000125156 0)
(-8.25257e-05 -8.55865e-05 0)
(3.26164e-05 -4.59745e-05 0)
(9.6913e-05 -8.25246e-06 0)
(0.000114737 2.44986e-05 0)
(9.45409e-05 4.73354e-05 0)
(5.24689e-05 5.24303e-05 0)
(1.43155e-05 2.91498e-05 0)
(1.42475e-05 -5.92524e-05 0)
(4.43871e-05 -8.95491e-05 0)
(6.08917e-05 -6.00721e-05 0)
(3.5031e-05 7.09699e-06 0)
(-5.15283e-05 9.65606e-05 0)
(-0.000208978 0.000197679 0)
(-0.000442644 0.00030323 0)
(-0.000754224 0.000408388 0)
(-0.00114268 0.000509935 0)
(-0.00160502 0.00060573 0)
(-0.00213682 0.00069436 0)
(-0.0027327 0.000774909 0)
(-0.0033866 0.000846811 0)
(-0.00409203 0.000909743 0)
(-0.00484223 0.000963562 0)
(-0.0056303 0.00100825 0)
(-0.00644931 0.00104389 0)
(-0.00729235 0.00107063 0)
(-0.00815264 0.00108869 0)
(-0.00902349 0.00109831 0)
(-0.00989844 0.00109977 0)
(-0.0107712 0.00109338 0)
(-0.0116358 0.00107947 0)
(-0.0124863 0.00105838 0)
(-0.0133172 0.00103045 0)
(-0.0141233 0.000996044 0)
(-0.0148995 0.000955531 0)
(-0.0156413 0.000909281 0)
(-0.016344 0.00085767 0)
(-0.0170037 0.000801077 0)
(-0.0176164 0.000739887 0)
(-0.0181788 0.000674487 0)
(-0.0186876 0.000605269 0)
(-0.0191399 0.000532631 0)
(-0.0195331 0.000456975 0)
(-0.0198651 0.000378706 0)
(-0.0201338 0.000298239 0)
(-0.0203378 0.000215992 0)
(-0.0204758 0.000132392 0)
(-0.0205469 4.78727e-05 0)
(-0.0205506 -3.71252e-05 0)
(-0.0204866 -0.000122153 0)
(-0.0203552 -0.000206755 0)
(-0.0201569 -0.00029047 0)
(-0.0198925 -0.000372825 0)
(-0.0195635 -0.000453347 0)
(-0.0191715 -0.000531552 0)
(-0.0187184 -0.000606957 0)
(-0.0182068 -0.000679072 0)
(-0.0176395 -0.000747409 0)
(-0.0170197 -0.000811479 0)
(-0.016351 -0.000870796 0)
(-0.0156373 -0.000924882 0)
(-0.014883 -0.000973264 0)
(-0.0140928 -0.00101548 0)
(-0.0132717 -0.00105109 0)
(-0.0124251 -0.00107966 0)
(-0.0115588 -0.00110078 0)
(-0.0106787 -0.00111408 0)
(-0.00979108 -0.00111919 0)
(-0.00890253 -0.00111581 0)
(-0.00801975 -0.00110366 0)
(-0.00714965 -0.00108251 0)
(-0.00629927 -0.00105219 0)
(-0.00547573 -0.00101259 0)
(-0.00468617 -0.000963671 0)
(-0.00393764 -0.0009055 0)
(-0.00323707 -0.000838252 0)
(-0.00259113 -0.000762249 0)
(-0.00200608 -0.000678 0)
(-0.0014876 -0.000586271 0)
(-0.00104059 -0.000488175 0)
(-0.0006688 -0.000385317 0)
(-0.000374495 -0.000280011 0)
(-0.000157848 -0.000175616 0)
(-1.62431e-05 -7.70401e-05 0)
(5.65535e-05 8.53091e-06 0)
(7.15468e-05 7.0683e-05 0)
(4.77912e-05 9.4609e-05 0)
(1.46332e-05 5.96461e-05 0)
(1.00114e-05 -8.09238e-05 0)
(2.02319e-05 -0.000103853 0)
(-4.63624e-06 -3.45676e-05 0)
(-9.12946e-05 9.42077e-05 0)
(-0.000257851 0.000259751 0)
(-0.000515232 0.000445538 0)
(-0.00086933 0.000639726 0)
(-0.0013221 0.000833972 0)
(-0.00187237 0.00102243 0)
(-0.00251664 0.00120104 0)
(-0.0032496 0.00136697 0)
(-0.00406467 0.00151834 0)
(-0.00495433 0.00165387 0)
(-0.00591042 0.00177282 0)
(-0.00692433 0.00187475 0)
(-0.00798723 0.00195953 0)
(-0.00909018 0.00202721 0)
(-0.0102242 0.002078 0)
(-0.0113804 0.00211223 0)
(-0.0125501 0.00213032 0)
(-0.0137247 0.00213277 0)
(-0.014896 0.00212012 0)
(-0.0160559 0.00209298 0)
(-0.0171967 0.00205197 0)
(-0.0183111 0.00199775 0)
(-0.019392 0.001931 0)
(-0.0204328 0.00185242 0)
(-0.0214271 0.00176271 0)
(-0.0223692 0.0016626 0)
(-0.0232534 0.00155283 0)
(-0.0240746 0.00143413 0)
(-0.0248282 0.00130726 0)
(-0.0255099 0.00117297 0)
(-0.0261158 0.00103205 0)
(-0.0266425 0.000885275 0)
(-0.027087 0.000733438 0)
(-0.0274467 0.000577345 0)
(-0.0277196 0.000417815 0)
(-0.0279039 0.000255679 0)
(-0.0279986 9.17821e-05 0)
(-0.0280029 -7.3017e-05 0)
(-0.0279165 -0.000237845 0)
(-0.0277398 -0.000401815 0)
(-0.0274734 -0.000564028 0)
(-0.0271186 -0.000723572 0)
(-0.0266772 -0.000879526 0)
(-0.0261515 -0.00103096 0)
(-0.0255441 -0.00117693 0)
(-0.0248583 -0.0013165 0)
(-0.024098 -0.00144872 0)
(-0.0232675 -0.00157266 0)
(-0.0223715 -0.00168738 0)
(-0.0214153 -0.00179197 0)
(-0.0204048 -0.00188553 0)
(-0.0193462 -0.00196717 0)
(-0.0182462 -0.00203605 0)
(-0.017112 -0.00209136 0)
(-0.0159512 -0.00213234 0)
(-0.0147716 -0.00215827 0)
(-0.0135817 -0.0021685 0)
(-0.01239 -0.00216246 0)
(-0.0112053 -0.00213965 0)
(-0.0100368 -0.00209968 0)
(-0.00889368 -0.00204227 0)
(-0.00778514 -0.00196727 0)
(-0.00672046 -0.0018747 0)
(-0.00570877 -0.00176476 0)
(-0.00475892 -0.00163789 0)
(-0.00387939 -0.00149483 0)
(-0.00307806 -0.00133669 0)
(-0.002362 -0.00116508 0)
(-0.00173718 -0.000982234 0)
(-0.00120812 -0.000791312 0)
(-0.000777424 -0.000596675 0)
(-0.000445227 -0.000404391 0)
(-0.00020848 -0.000222917 0)
(-6.01937e-05 -6.402e-05 0)
(1.15549e-05 5.61408e-05 0)
(2.59265e-05 0.00011567 0)
(1.08593e-05 8.35862e-05 0)
(3.98301e-06 -8.6682e-05 0)
(-1.31455e-05 -7.8835e-05 0)
(-9.22263e-05 5.07025e-05 0)
(-0.000254275 0.000260316 0)
(-0.000515103 0.000520665 0)
(-0.000885136 0.000809728 0)
(-0.00136994 0.00111114 0)
(-0.00197112 0.00141292 0)
(-0.00268711 0.00170638 0)
(-0.00351378 0.00198525 0)
(-0.00444507 0.00224503 0)
(-0.00547335 0.00248258 0)
(-0.00658989 0.00269577 0)
(-0.00778515 0.00288319 0)
(-0.00904901 0.00304402 0)
(-0.010371 0.0031779 0)
(-0.0117404 0.00328479 0)
(-0.0131466 0.0033649 0)
(-0.0145788 0.00341868 0)
(-0.0160266 0.00344673 0)
(-0.0174796 0.00344977 0)
(-0.0189276 0.00342863 0)
(-0.0203611 0.00338423 0)
(-0.0217705 0.00331754 0)
(-0.0231469 0.0032296 0)
(-0.0244817 0.00312146 0)
(-0.0257667 0.00299424 0)
(-0.0269941 0.00284907 0)
(-0.0281568 0.0026871 0)
(-0.029248 0.00250951 0)
(-0.0302613 0.00231751 0)
(-0.031191 0.0021123 0)
(-0.0320319 0.00189512 0)
(-0.0327792 0.00166721 0)
(-0.0334286 0.00142985 0)
(-0.0339765 0.00118432 0)
(-0.0344198 0.000931937 0)
(-0.0347559 0.000674017 0)
(-0.0349828 0.000411912 0)
(-0.0350989 0.000146994 0)
(-0.0351036 -0.000119347 0)
(-0.0349964 -0.000385696 0)
(-0.0347778 -0.000650619 0)
(-0.0344487 -0.000912661 0)
(-0.0340106 -0.00117035 0)
(-0.0334657 -0.0014222 0)
(-0.0328168 -0.0016667 0)
(-0.0320672 -0.00190235 0)
(-0.0312211 -0.00212764 0)
(-0.0302831 -0.00234104 0)
(-0.0292586 -0.00254106 0)
(-0.0281533 -0.0027262 0)
(-0.0269738 -0.002895 0)
(-0.0257272 -0.00304603 0)
(-0.0244211 -0.00317788 0)
(-0.0230639 -0.00328921 0)
(-0.0216642 -0.00337875 0)
(-0.0202313 -0.00344529 0)
(-0.0187748 -0.00348772 0)
(-0.0173049 -0.00350504 0)
(-0.015832 -0.00349637 0)
(-0.0143667 -0.00346096 0)
(-0.0129201 -0.00339825 0)
(-0.0115033 -0.00330785 0)
(-0.0101273 -0.00318963 0)
(-0.00880328 -0.00304369 0)
(-0.00754203 -0.00287047 0)
(-0.00635409 -0.0026708 0)
(-0.00524942 -0.00244599 0)
(-0.00423727 -0.00219795 0)
(-0.00332586 -0.00192935 0)
(-0.0025221 -0.00164386 0)
(-0.00183121 -0.00134645 0)
(-0.00125627 -0.00104383 0)
(-0.000797704 -0.00074502 0)
(-0.000452642 -0.000462149 0)
(-0.000214255 -0.000211498 0)
(-7.09137e-05 -1.46422e-05 0)
(-5.38748e-06 0.000100039 0)
(5.22235e-06 9.27803e-05 0)
(-2.69251e-06 -7.33348e-05 0)
(-5.1007e-05 -6.5877e-06 0)
(-0.000191984 0.000206241 0)
(-0.000438801 0.00051693 0)
(-0.00080354 0.00089061 0)
(-0.00129519 0.00130041 0)
(-0.00191822 0.00172577 0)
(-0.00267337 0.00215123 0)
(-0.00355829 0.00256521 0)
(-0.00456809 0.00295913 0)
(-0.00569585 0.00332668 0)
(-0.006933 0.0036633 0)
(-0.00826971 0.00396582 0)
(-0.00969524 0.00423208 0)
(-0.0111982 0.00446073 0)
(-0.0127666 0.0046511 0)
(-0.0143884 0.00480297 0)
(-0.0160513 0.00491655 0)
(-0.017743 0.00499235 0)
(-0.0194515 0.00503115 0)
(-0.0211649 0.00503391 0)
(-0.0228715 0.00500176 0)
(-0.02456 0.00493597 0)
(-0.0262195 0.00483791 0)
(-0.0278396 0.00470902 0)
(-0.0294103 0.00455084 0)
(-0.0309219 0.00436494 0)
(-0.0323656 0.00415294 0)
(-0.0337328 0.00391652 0)
(-0.0350157 0.00365739 0)
(-0.0362069 0.00337727 0)
(-0.0372996 0.00307793 0)
(-0.0382878 0.00276117 0)
(-0.0391658 0.0024288 0)
(-0.0399287 0.00208269 0)
(-0.0405722 0.0017247 0)
(-0.0410927 0.00135674 0)
(-0.0414871 0.00098076 0)
(-0.0417532 0.000598721 0)
(-0.0418892 0.000212625 0)
(-0.0418942 -0.000175498 0)
(-0.0417678 -0.000563588 0)
(-0.0415105 -0.000949553 0)
(-0.0411233 -0.00133128 0)
(-0.0406082 -0.00170661 0)
(-0.0399676 -0.0020734 0)
(-0.0392048 -0.00242946 0)
(-0.0383239 -0.00277261 0)
(-0.0373295 -0.00310064 0)
(-0.0362272 -0.00341137 0)
(-0.0350231 -0.00370262 0)
(-0.0337241 -0.00397225 0)
(-0.0323379 -0.00421814 0)
(-0.0308725 -0.00443823 0)
(-0.0293371 -0.00463051 0)
(-0.0277412 -0.00479307 0)
(-0.0260949 -0.00492408 0)
(-0.0244089 -0.00502184 0)
(-0.0226944 -0.00508479 0)
(-0.0209632 -0.00511151 0)
(-0.0192273 -0.00510078 0)
(-0.0174991 -0.00505161 0)
(-0.0157911 -0.00496324 0)
(-0.0141161 -0.00483521 0)
(-0.0124868 -0.00466742 0)
(-0.0109159 -0.00446012 0)
(-0.0094158 -0.00421409 0)
(-0.00799834 -0.00393064 0)
(-0.00667485 -0.00361178 0)
(-0.00545574 -0.00326038 0)
(-0.00435031 -0.00288036 0)
(-0.00336637 -0.00247698 0)
(-0.00250991 -0.00205721 0)
(-0.0017847 -0.00163022 0)
(-0.00119179 -0.00120803 0)
(-0.00072907 -0.000806351 0)
(-0.000390624 -0.000445667 0)
(-0.000166036 -0.000152394 0)
(-4.14259e-05 3.95907e-05 0)
(-1.12407e-06 8.38885e-05 0)
(-9.4576e-06 -3.96499e-05 0)
(-9.06012e-05 0.000117054 0)
(-0.000297534 0.000438278 0)
(-0.000634595 0.000871332 0)
(-0.00110927 0.00137702 0)
(-0.00172842 0.00192442 0)
(-0.00249484 0.00248929 0)
(-0.00340789 0.00305294 0)
(-0.00446411 0.00360105 0)
(-0.00565763 0.00412274 0)
(-0.00698054 0.00460984 0)
(-0.00842331 0.00505634 0)
(-0.00997505 0.00545788 0)
(-0.0116239 0.00581148 0)
(-0.0133573 0.00611519 0)
(-0.015162 0.00636792 0)
(-0.0170247 0.00656926 0)
(-0.0189317 0.00671935 0)
(-0.0208694 0.00681875 0)
(-0.0228243 0.00686839 0)
(-0.0247832 0.00686949 0)
(-0.0267329 0.0068235 0)
(-0.0286609 0.00673205 0)
(-0.0305548 0.00659693 0)
(-0.032403 0.00642008 0)
(-0.0341941 0.00620351 0)
(-0.0359175 0.00594935 0)
(-0.0375629 0.00565976 0)
(-0.0391208 0.00533702 0)
(-0.0405823 0.0049834 0)
(-0.0419391 0.00460128 0)
(-0.0431835 0.00419304 0)
(-0.0443086 0.00376111 0)
(-0.0453082 0.00330799 0)
(-0.0461766 0.00283619 0)
(-0.046909 0.00234826 0)
(-0.0475012 0.00184681 0)
(-0.0479499 0.00133448 0)
(-0.0482525 0.000813954 0)
(-0.0484069 0.000287953 0)
(-0.0484123 -0.000240755 0)
(-0.0482681 -0.000769365 0)
(-0.0479749 -0.00129503 0)
(-0.047534 -0.00181488 0)
(-0.0469474 -0.00232599 0)
(-0.0462181 -0.00282544 0)
(-0.0453497 -0.00331025 0)
(-0.0443468 -0.00377748 0)
(-0.0432148 -0.00422414 0)
(-0.0419598 -0.00464728 0)
(-0.0405888 -0.00504396 0)
(-0.0391096 -0.00541128 0)
(-0.0375308 -0.0057464 0)
(-0.0358616 -0.00604653 0)
(-0.0341122 -0.006309 0)
(-0.0322933 -0.00653125 0)
(-0.0304163 -0.00671083 0)
(-0.0284933 -0.00684548 0)
(-0.0265367 -0.00693313 0)
(-0.0245599 -0.00697193 0)
(-0.0225761 -0.00696031 0)
(-0.0205993 -0.00689699 0)
(-0.0186435 -0.00678103 0)
(-0.0167228 -0.00661191 0)
(-0.0148516 -0.00638958 0)
(-0.0130438 -0.00611454 0)
(-0.011313 -0.00578792 0)
(-0.00967261 -0.00541162 0)
(-0.00813501 -0.00498847 0)
(-0.00671175 -0.00452239 0)
(-0.00541314 -0.00401864 0)
(-0.00424795 -0.00348419 0)
(-0.00322309 -0.00292807 0)
(-0.00234323 -0.00236191 0)
(-0.00161044 -0.00180063 0)
(-0.00102384 -0.00126328 0)
(-0.000578994 -0.000774094 0)
(-0.000267399 -0.000363607 0)
(-7.93991e-05 -7.0067e-05 0)
(-7.6069e-06 5.55468e-05 0)
(-1.60531e-05 1.46254e-05 0)
(-0.00013037 0.000293901 0)
(-0.000404916 0.000750061 0)
(-0.000834923 0.00132768 0)
(-0.00142286 0.00198439 0)
(-0.00217297 0.00268603 0)
(-0.00308595 0.00340525 0)
(-0.00415939 0.00412052 0)
(-0.0053884 0.004815 0)
(-0.0067659 0.00547562 0)
(-0.00828287 0.00609242 0)
(-0.00992869 0.00665788 0)
(-0.0116914 0.0071665 0)
(-0.0135582 0.00761436 0)
(-0.0155151 0.0079989 0)
(-0.0175481 0.00831857 0)
(-0.0196423 0.0085727 0)
(-0.0217832 0.00876133 0)
(-0.0239557 0.00888506 0)
(-0.0261452 0.00894498 0)
(-0.0283371 0.00894254 0)
(-0.0305172 0.00887951 0)
(-0.0326715 0.00875794 0)
(-0.0347867 0.00858008 0)
(-0.0368497 0.00834835 0)
(-0.0388483 0.00806533 0)
(-0.0407706 0.00773371 0)
(-0.0426054 0.0073563 0)
(-0.0443422 0.00693597 0)
(-0.0459711 0.0064757 0)
(-0.047483 0.00597852 0)
(-0.0488694 0.00544752 0)
(-0.0501227 0.00488587 0)
(-0.051236 0.00429677 0)
(-0.0522031 0.00368349 0)
(-0.0530186 0.00304934 0)
(-0.053678 0.00239771 0)
(-0.0541775 0.00173202 0)
(-0.0545142 0.00105575 0)
(-0.0546862 0.000372436 0)
(-0.054692 -0.000314333 0)
(-0.0545315 -0.00100092 0)
(-0.0542051 -0.00168364 0)
(-0.0537142 -0.00235876 0)
(-0.0530612 -0.00302252 0)
(-0.0522493 -0.00367112 0)
(-0.0512825 -0.00430074 0)
(-0.0501659 -0.00490754 0)
(-0.0489054 -0.00548769 0)
(-0.0475078 -0.00603738 0)
(-0.0459808 -0.00655283 0)
(-0.044333 -0.00703031 0)
(-0.0425738 -0.00746616 0)
(-0.0407135 -0.00785683 0)
(-0.0387632 -0.00819887 0)
(-0.0367346 -0.00848902 0)
(-0.0346404 -0.00872417 0)
(-0.0324937 -0.00890145 0)
(-0.0303083 -0.00901824 0)
(-0.0280986 -0.00907222 0)
(-0.0258794 -0.00906143 0)
(-0.0236658 -0.0089843 0)
(-0.0214732 -0.00883973 0)
(-0.019317 -0.00862714 0)
(-0.0172127 -0.00834657 0)
(-0.0151757 -0.00799877 0)
(-0.0132208 -0.00758531 0)
(-0.0113624 -0.00710873 0)
(-0.00961428 -0.00657271 0)
(-0.00798892 -0.00598231 0)
(-0.00649775 -0.00534421 0)
(-0.00515056 -0.00466706 0)
(-0.00395535 -0.00396195 0)
(-0.00291794 -0.00324287 0)
(-0.00204172 -0.00252746 0)
(-0.00132742 -0.00183775 0)
(-0.000772554 -0.00120123 0)
(-0.000370976 -0.000651789 0)
(-0.000117706 -0.000230953 0)
(-1.39512e-05 7.40298e-06 0)
(-2.23697e-05 8.9191e-05 0)
(-0.000169471 0.000524237 0)
(-0.000511753 0.00114274 0)
(-0.00103551 0.00188784 0)
(-0.00173804 0.002715 0)
(-0.00262074 0.00358758 0)
(-0.00368187 0.0044757 0)
(-0.00491697 0.00535541 0)
(-0.00631947 0.0062076 0)
(-0.00788084 0.00701727 0)
(-0.0095908 0.0077727 0)
(-0.0114375 0.00846497 0)
(-0.013408 0.00908742 0)
(-0.0154882 0.00963524 0)
(-0.0176633 0.0101052 0)
(-0.019918 0.0104952 0)
(-0.0222364 0.0108045 0)
(-0.0246027 0.0110328 0)
(-0.027001 0.0111809 0)
(-0.0294153 0.0112499 0)
(-0.03183 0.0112415 0)
(-0.0342297 0.011158 0)
(-0.0365995 0.0110016 0)
(-0.0389248 0.0107752 0)
(-0.0411917 0.0104818 0)
(-0.0433867 0.0101244 0)
(-0.0454971 0.00970647 0)
(-0.0475109 0.00923138 0)
(-0.0494164 0.00870274 0)
(-0.0512032 0.00812424 0)
(-0.0528613 0.00749966 0)
(-0.0543815 0.00683284 0)
(-0.0557555 0.00612774 0)
(-0.0569759 0.00538836 0)
(-0.0580358 0.00461879 0)
(-0.0589296 0.00382318 0)
(-0.0596523 0.00300575 0)
(-0.0601998 0.00217078 0)
(-0.060569 0.00132264 0)
(-0.0607576 0.000465746 0)
(-0.0607643 -0.000395418 0)
(-0.0605887 -0.0012563 0)
(-0.0602315 -0.0021123 0)
(-0.0596942 -0.00295876 0)
(-0.0589792 -0.00379097 0)
(-0.05809 -0.00460419 0)
(-0.0570312 -0.00539367 0)
(-0.055808 -0.00615462 0)
(-0.0544271 -0.00688228 0)
(-0.0528956 -0.0075719 0)
(-0.051222 -0.00821879 0)
(-0.0494156 -0.0088183 0)
(-0.0474865 -0.00936591 0)
(-0.0454459 -0.00985722 0)
(-0.0433057 -0.010288 0)
(-0.0410787 -0.0106541 0)
(-0.0387784 -0.0109518 0)
(-0.0364192 -0.0111776 0)
(-0.0340159 -0.0113282 0)
(-0.0315841 -0.0114009 0)
(-0.0291395 -0.0113932 0)
(-0.0266986 -0.0113033 0)
(-0.024278 -0.0111299 0)
(-0.0218942 -0.0108724 0)
(-0.019564 -0.010531 0)
(-0.0173038 -0.0101066 0)
(-0.0151297 -0.00960123 0)
(-0.0130572 -0.0090182 0)
(-0.0111012 -0.00836205 0)
(-0.00927534 -0.00763897 0)
(-0.00759212 -0.00685705 0)
(-0.00606254 -0.00602662 0)
(-0.00469581 -0.00516071 0)
(-0.00349912 -0.00427554 0)
(-0.00247747 -0.00339121 0)
(-0.0016335 -0.00253237 0)
(-0.000966957 -0.00172924 0)
(-0.000474331 -0.00101833 0)
(-0.000155467 -0.000443523 0)
(-2.00376e-05 -6.0315e-05 0)
(-2.83751e-05 0.000183471 0)
(-0.000207481 0.000807437 0)
(-0.000616693 0.00161611 0)
(-0.00123375 0.00255212 0)
(-0.00205085 0.00356954 0)
(-0.00306642 0.00462994 0)
(-0.00427609 0.00570146 0)
(-0.00567315 0.00675811 0)
(-0.00724912 0.00777888 0)
(-0.00899387 0.00874698 0)
(-0.0108957 0.00964916 0)
(-0.0129415 0.0104752 0)
(-0.0151171 0.0112172 0)
(-0.0174072 0.0118697 0)
(-0.019796 0.0124287 0)
(-0.0222671 0.0128917 0)
(-0.0248037 0.0132575 0)
(-0.0273887 0.0135259 0)
(-0.0300052 0.0136977 0)
(-0.0326364 0.013774 0)
(-0.0352654 0.013757 0)
(-0.037876 0.013649 0)
(-0.0404521 0.0134531 0)
(-0.0429784 0.0131723 0)
(-0.0454398 0.0128103 0)
(-0.0478221 0.0123708 0)
(-0.0501116 0.0118579 0)
(-0.0522954 0.0112756 0)
(-0.0543614 0.0106284 0)
(-0.056298 0.00992058 0)
(-0.0580947 0.00915683 0)
(-0.0597417 0.00834179 0)
(-0.0612301 0.00748026 0)
(-0.0625519 0.0065771 0)
(-0.0637 0.00563727 0)
(-0.064668 0.00466582 0)
(-0.0654508 0.00366789 0)
(-0.066044 0.00264869 0)
(-0.0664441 0.00161352 0)
(-0.0666489 0.000567755 0)
(-0.0666569 -0.000483154 0)
(-0.0664677 -0.00153368 0)
(-0.0660819 -0.00257822 0)
(-0.0655011 -0.00361112 0)
(-0.0647281 -0.00462668 0)
(-0.0637666 -0.00561914 0)
(-0.0626212 -0.00658273 0)
(-0.0612979 -0.00751165 0)
(-0.0598034 -0.00840014 0)
(-0.0581457 -0.00924245 0)
(-0.0563335 -0.0100329 0)
(-0.054377 -0.0107659 0)
(-0.0522869 -0.0114359 0)
(-0.0500751 -0.0120377 0)
(-0.0477543 -0.0125661 0)
(-0.0453383 -0.0130163 0)
(-0.0428414 -0.0133837 0)
(-0.0402789 -0.013664 0)
(-0.0376667 -0.0138534 0)
(-0.0350212 -0.0139487 0)
(-0.0323595 -0.0139469 0)
(-0.029699 -0.0138459 0)
(-0.0270573 -0.0136442 0)
(-0.0244522 -0.0133412 0)
(-0.0219015 -0.0129371 0)
(-0.0194228 -0.0124331 0)
(-0.0170333 -0.0118319 0)
(-0.0147497 -0.0111372 0)
(-0.0125878 -0.0103547 0)
(-0.0105627 -0.00949143 0)
(-0.00868791 -0.00855703 0)
(-0.00697584 -0.00756339 0)
(-0.00543705 -0.00652535 0)
(-0.0040803 -0.00546119 0)
(-0.00291238 -0.00439315 0)
(-0.00193808 -0.00334818 0)
(-0.00115956 -0.00235869 0)
(-0.000576074 -0.00146325 0)
(-0.000192236 -0.000707301 0)
(-2.5826e-05 -0.000147085 0)
(-3.40737e-05 0.000296776 0)
(-0.000244226 0.00114238 0)
(-0.000719036 0.00216912 0)
(-0.00142817 0.00331975 0)
(-0.00235891 0.00454758 0)
(-0.00350667 0.00581293 0)
(-0.0048644 0.00708241 0)
(-0.00642298 0.00832842 0)
(-0.00817188 0.00952834 0)
(-0.0100992 0.0106639 0)
(-0.0121917 0.0117204 0)
(-0.0144348 0.0126864 0)
(-0.0168132 0.0135532 0)
(-0.0193103 0.0143143 0)
(-0.0219093 0.0149651 0)
(-0.0245926 0.0155029 0)
(-0.0273424 0.0159261 0)
(-0.0301407 0.0162344 0)
(-0.0329695 0.0164286 0)
(-0.0358109 0.0165101 0)
(-0.0386474 0.0164812 0)
(-0.0414616 0.0163447 0)
(-0.0442366 0.016104 0)
(-0.0469561 0.0157629 0)
(-0.0496044 0.0153255 0)
(-0.0521663 0.0147963 0)
(-0.0546273 0.0141798 0)
(-0.0569739 0.0134812 0)
(-0.059193 0.0127053 0)
(-0.0612727 0.0118576 0)
(-0.0632017 0.0109434 0)
(-0.0649697 0.00996832 0)
(-0.0665673 0.00893799 0)
(-0.0679859 0.00785822 0)
(-0.069218 0.00673489 0)
(-0.070257 0.00557402 0)
(-0.0710973 0.00438169 0)
(-0.0717343 0.00316412 0)
(-0.0721644 0.0019276 0)
(-0.0723851 0.000678516 0)
(-0.0723949 -0.00057664 0)
(-0.0721933 -0.00183131 0)
(-0.071781 -0.00307883 0)
(-0.0711598 -0.0043125 0)
(-0.0703323 -0.00552553 0)
(-0.0693026 -0.00671111 0)
(-0.0680757 -0.00786237 0)
(-0.0666577 -0.00897246 0)
(-0.0650557 -0.0100345 0)
(-0.0632782 -0.0110418 0)
(-0.0613345 -0.0119875 0)
(-0.0592352 -0.012865 0)
(-0.0569916 -0.0136679 0)
(-0.0546163 -0.0143898 0)
(-0.0521228 -0.0150248 0)
(-0.0495256 -0.0155671 0)
(-0.0468398 -0.0160112 0)
(-0.0440816 -0.0163524 0)
(-0.0412678 -0.0165859 0)
(-0.0384157 -0.0167081 0)
(-0.0355434 -0.0167155 0)
(-0.0326693 -0.0166056 0)
(-0.0298121 -0.0163768 0)
(-0.0269905 -0.0160283 0)
(-0.0242236 -0.0155604 0)
(-0.0215299 -0.0149748 0)
(-0.0189278 -0.0142744 0)
(-0.0164351 -0.0134637 0)
(-0.014069 -0.0125491 0)
(-0.0118455 -0.0115389 0)
(-0.00977969 -0.0104439 0)
(-0.00788526 -0.00927749 0)
(-0.00617434 -0.00805622 0)
(-0.0046574 -0.00680018 0)
(-0.00334321 -0.00553352 0)
(-0.0022388 -0.0042851 0)
(-0.00134889 -0.00308915 0)
(-0.000675492 -0.00198572 0)
(-0.000227825 -0.0010213 0)
(-3.13166e-05 -0.00025226 0)
(-3.94866e-05 0.000428392 0)
(-0.000279672 0.00152769 0)
(-0.000818501 0.00280026 0)
(-0.00161806 0.00418935 0)
(-0.00266094 0.00564796 0)
(-0.00393964 0.00713558 0)
(-0.00544435 0.00861774 0)
(-0.00716347 0.0100656 0)
(-0.00908434 0.0114551 0)
(-0.0111932 0.0127668 0)
(-0.013475 0.0139848 0)
(-0.0159139 0.0150967 0)
(-0.0184931 0.0160928 0)
(-0.0211948 0.0169659 0)
(-0.024001 0.017711 0)
(-0.0268931 0.0183248 0)
(-0.0298522 0.0188056 0)
(-0.0328593 0.0191531 0)
(-0.0358955 0.019368 0)
(-0.038942 0.019452 0)
(-0.0419802 0.0194077 0)
(-0.0449921 0.0192383 0)
(-0.0479598 0.0189477 0)
(-0.0508663 0.0185401 0)
(-0.053695 0.0180205 0)
(-0.0564301 0.0173938 0)
(-0.0590563 0.0166655 0)
(-0.0615595 0.0158414 0)
(-0.063926 0.0149273 0)
(-0.0661431 0.0139293 0)
(-0.0681992 0.0128539 0)
(-0.0700833 0.0117074 0)
(-0.0717856 0.0104964 0)
(-0.0732972 0.0092278 0)
(-0.07461 0.00790836 0)
(-0.0757173 0.00654512 0)
(-0.076613 0.0051452 0)
(-0.0772925 0.00371582 0)
(-0.0777518 0.00226436 0)
(-0.0779884 0.000798252 0)
(-0.0780007 -0.000674926 0)
(-0.0777881 -0.00214751 0)
(-0.0773513 -0.00361176 0)
(-0.0766921 -0.00505983 0)
(-0.0758135 -0.00648382 0)
(-0.0747195 -0.00787577 0)
(-0.0734153 -0.00922771 0)
(-0.0719074 -0.0105316 0)
(-0.0702033 -0.0117796 0)
(-0.0683118 -0.0129637 0)
(-0.0662425 -0.014076 0)
(-0.0640065 -0.0151089 0)
(-0.0616159 -0.0160548 0)
(-0.0590837 -0.0169065 0)
(-0.0564241 -0.0176569 0)
(-0.0536521 -0.0182994 0)
(-0.0507838 -0.0188277 0)
(-0.0478361 -0.0192361 0)
(-0.0448265 -0.0195194 0)
(-0.0417735 -0.019673 0)
(-0.0386958 -0.0196933 0)
(-0.0356128 -0.0195773 0)
(-0.0325443 -0.0193231 0)
(-0.02951 -0.0189297 0)
(-0.02653 -0.0183978 0)
(-0.0236239 -0.017729 0)
(-0.0208113 -0.0169267 0)
(-0.0181111 -0.0159961 0)
(-0.0155418 -0.0149443 0)
(-0.0131207 -0.0137807 0)
(-0.0108643 -0.0125173 0)
(-0.00878781 -0.0111687 0)
(-0.00690499 -0.00975318 0)
(-0.00522819 -0.00829228 0)
(-0.00376822 -0.00681187 0)
(-0.00253449 -0.0053424 0)
(-0.00153428 -0.00391954 0)
(-0.000772316 -0.00258447 0)
(-0.000262205 -0.0013843 0)
(-3.65306e-05 -0.000375168 0)
(-4.46423e-05 0.000577626 0)
(-0.000313874 0.00196195 0)
(-0.00091507 0.00350781 0)
(-0.0018032 0.00515919 0)
(-0.00295645 0.00686908 0)
(-0.00436446 0.0085965 0)
(-0.00601471 0.0103062 0)
(-0.00789308 0.0119684 0)
(-0.00998471 0.013558 0)
(-0.0122738 0.0150545 0)
(-0.0147437 0.0164411 0)
(-0.0173769 0.0177045 0)
(-0.0201551 0.0188341 0)
(-0.0230594 0.0198223 0)
(-0.0260704 0.0206634 0)
(-0.0291685 0.0213541 0)
(-0.0323336 0.0218923 0)
(-0.035546 0.0222778 0)
(-0.0387856 0.0225113 0)
(-0.0420328 0.0225948 0)
(-0.0452682 0.0225313 0)
(-0.0484729 0.0223243 0)
(-0.0516283 0.0219783 0)
(-0.0547166 0.0214982 0)
(-0.0577206 0.0208893 0)
(-0.0606235 0.0201576 0)
(-0.0634098 0.0193093 0)
(-0.0660645 0.0183508 0)
(-0.0685733 0.017289 0)
(-0.0709233 0.0161308 0)
(-0.0731021 0.0148836 0)
(-0.0750983 0.0135548 0)
(-0.0769018 0.0121519 0)
(-0.0785031 0.0106826 0)
(-0.0798941 0.00915502 0)
(-0.0810675 0.00757705 0)
(-0.0820171 0.00595691 0)
(-0.082738 0.00430293 0)
(-0.0832262 0.00262355 0)
(-0.0834788 0.000927341 0)
(-0.0834942 -0.000777001 0)
(-0.0832719 -0.00248067 0)
(-0.0828125 -0.00417477 0)
(-0.0821179 -0.0058503 0)
(-0.0811911 -0.00749818 0)
(-0.0800362 -0.00910927 0)
(-0.0786587 -0.0106744 0)
(-0.0770653 -0.0121845 0)
(-0.0752637 -0.0136302 0)
(-0.073263 -0.0150026 0)
(-0.0710733 -0.0162927 0)
(-0.0687062 -0.0174916 0)
(-0.0661739 -0.0185907 0)
(-0.0634903 -0.0195817 0)
(-0.06067 -0.0204564 0)
(-0.0577288 -0.0212073 0)
(-0.0546832 -0.0218273 0)
(-0.051551 -0.0223097 0)
(-0.0483505 -0.0226486 0)
(-0.0451009 -0.0228389 0)
(-0.0418218 -0.0228761 0)
(-0.0385337 -0.0227571 0)
(-0.035257 -0.0224796 0)
(-0.0320128 -0.0220427 0)
(-0.0288219 -0.0214466 0)
(-0.0257053 -0.0206936 0)
(-0.0226836 -0.0197872 0)
(-0.019777 -0.0187332 0)
(-0.0170052 -0.0175395 0)
(-0.0143871 -0.0162164 0)
(-0.0119405 -0.0147768 0)
(-0.00968219 -0.0132368 0)
(-0.00762786 -0.0116158 0)
(-0.00579173 -0.00993692 0)
(-0.00418677 -0.00822736 0)
(-0.00282478 -0.00651896 0)
(-0.00171558 -0.00484851 0)
(-0.000866563 -0.00325804 0)
(-0.00029544 -0.00179501 0)
(-4.1499e-05 -0.000515163 0)
(-4.95729e-05 0.000743842 0)
(-0.000346931 0.00244374 0)
(-0.00100889 0.00428999 0)
(-0.00198373 0.00622738 0)
(-0.00324547 0.00820913 0)
(-0.00478101 0.010194 0)
(-0.00657516 0.0121463 0)
(-0.00861132 0.0140355 0)
(-0.0108723 0.0158358 0)
(-0.0133404 0.0175258 0)
(-0.0159971 0.0190879 0)
(-0.0188232 0.0205081 0)
(-0.0217989 0.0217753 0)
(-0.0249039 0.0228812 0)
(-0.0281177 0.0238201 0)
(-0.0314195 0.024588 0)
(-0.0347881 0.0251832 0)
(-0.0382028 0.0256051 0)
(-0.0416426 0.0258548 0)
(-0.0450871 0.0259347 0)
(-0.048516 0.0258478 0)
(-0.0519096 0.0255984 0)
(-0.0552486 0.0251914 0)
(-0.0585144 0.0246324 0)
(-0.0616892 0.0239274 0)
(-0.0647558 0.0230831 0)
(-0.0676978 0.0221065 0)
(-0.0704997 0.0210049 0)
(-0.073147 0.0197861 0)
(-0.0756259 0.0184581 0)
(-0.0779237 0.0170289 0)
(-0.0800289 0.0155071 0)
(-0.0819305 0.0139012 0)
(-0.0836191 0.0122201 0)
(-0.0850861 0.0104727 0)
(-0.086324 0.00866817 0)
(-0.0873263 0.00681574 0)
(-0.0880879 0.00492487 0)
(-0.0886047 0.00300515 0)
(-0.0888737 0.00106631 0)
(-0.0888932 -0.000881797 0)
(-0.0886626 -0.00282919 0)
(-0.0881824 -0.00476576 0)
(-0.0874547 -0.00668131 0)
(-0.0864823 -0.00856555 0)
(-0.0852697 -0.0104081 0)
(-0.0838225 -0.0121986 0)
(-0.0821474 -0.0139267 0)
(-0.0802524 -0.0155819 0)
(-0.0781469 -0.017154 0)
(-0.0758414 -0.0186328 0)
(-0.0733476 -0.0200083 0)
(-0.0706786 -0.0212706 0)