/*--------------------------------*- C++ -*----------------------------------*\
  =========                 |
  \\      /  F ield         | OpenFOAM: The Open Source CFD Toolbox
   \\    /   O peration     | Website:  https://openfoam.org
    \\  /    A nd           | Version:  7
     \\/     M anipulation  |
\*---------------------------------------------------------------------------*/
FoamFile
{
    version     2.0;
    format      ascii;
    class       volScalarField;
    location    "0.05";
    object      p;
}
// * * * * * * * * * * * * * * * * * * * * * * * * * * * * * * * * * * * * * //

dimensions      [0 2 -2 0 0 0 0];

internalField   nonuniform List<scalar> 
25600
(
2.94476e-09
-1.23402e-06
-5.0975e-06
-1.10719e-05
-1.80283e-05
-2.48555e-05
-3.08675e-05
-3.56424e-05
-3.88998e-05
-4.04568e-05
-4.02152e-05
-3.81358e-05
-3.42137e-05
-2.84688e-05
-2.09377e-05
-1.16593e-05
-6.63554e-07
1.20258e-05
2.63831e-05
4.23793e-05
5.99878e-05
7.9189e-05
9.99694e-05
0.000122317
0.000146219
0.000171658
0.000198622
0.000227099
0.000257079
0.000288552
0.000321506
0.000355924
0.000391793
0.000429101
0.000467834
0.000507981
0.000549524
0.000592446
0.000636731
0.000682363
0.000729326
0.000777604
0.000827175
0.000878021
0.000930122
0.000983458
0.00103801
0.00109376
0.00115067
0.00120874
0.00126793
0.00132823
0.0013896
0.00145203
0.00151549
0.00157995
0.00164539
0.00171178
0.0017791
0.00184731
0.00191639
0.00198631
0.00205704
0.00212855
0.00220082
0.0022738
0.00234748
0.00242181
0.00249676
0.00257231
0.00264842
0.00272506
0.00280219
0.00287979
0.0029578
0.0030362
0.00311496
0.00319404
0.0032734
0.00335301
0.00343282
0.00351281
0.00359292
0.00367314
0.00375341
0.00383371
0.00391398
0.0039942
0.00407432
0.0041543
0.0042341
0.00431369
0.00439303
0.00447207
0.00455077
0.0046291
0.004707
0.00478446
0.00486141
0.00493783
0.00501367
0.00508888
0.00516344
0.0052373
0.00531042
0.00538276
0.00545428
0.00552494
0.0055947
0.00566352
0.00573137
0.00579819
0.00586396
0.00592864
0.00599218
0.00605455
0.00611571
0.00617563
0.00623427
0.00629159
0.00634755
0.00640213
0.00645529
0.00650699
0.00655721
0.0066059
0.00665304
0.0066986
0.00674254
0.00678485
0.00682548
0.00686442
0.00690163
0.00693708
0.00697077
0.00700264
0.00703269
0.00706089
0.00708721
0.00711162
0.0071341
0.00715462
0.00717314
0.00718963
0.00720406
0.00721639
0.00722657
0.00723457
0.00724035
0.00724391
0.00724522
0.00724434
0.00724134
0.00723639
0.00722977
0.00722193
0.00721353
0.0072055
0.00719929
0.00719634
3.91462e-06
2.55816e-06
-5.88365e-07
-5.16227e-06
-1.04093e-05
-1.55739e-05
-2.01003e-05
-2.36105e-05
-2.58371e-05
-2.65913e-05
-2.57516e-05
-2.32481e-05
-1.9044e-05
-1.31246e-05
-5.49544e-06
3.82538e-06
1.48177e-05
2.74651e-05
4.17524e-05
5.76625e-05
7.51756e-05
9.42732e-05
0.00011494
0.000137166
0.000160938
0.000186246
0.000213075
0.000241412
0.000271244
0.000302564
0.000335359
0.000369615
0.000405318
0.000442454
0.000481009
0.000520972
0.000562325
0.000605054
0.000649141
0.00069457
0.000741325
0.000789388
0.00083874
0.000889363
0.000941236
0.00099434
0.00104865
0.00110416
0.00116083
0.00121864
0.00127758
0.00133762
0.00139873
0.00146089
0.00152408
0.00158827
0.00165343
0.00171954
0.00178657
0.00185449
0.00192328
0.0019929
0.00206333
0.00213454
0.0022065
0.00227918
0.00235254
0.00242656
0.0025012
0.00257643
0.00265222
0.00272854
0.00280535
0.00288261
0.0029603
0.00303837
0.0031168
0.00319555
0.00327457
0.00335384
0.00343332
0.00351297
0.00359275
0.00367263
0.00375256
0.00383251
0.00391245
0.00399232
0.0040721
0.00415174
0.00423121
0.00431046
0.00438945
0.00446815
0.00454651
0.0046245
0.00470208
0.00477919
0.00485581
0.0049319
0.0050074
0.00508229
0.00515652
0.00523006
0.00530285
0.00537487
0.00544607
0.00551642
0.00558586
0.00565437
0.00572191
0.00578843
0.0058539
0.00591828
0.00598152
0.00604361
0.00610448
0.00616412
0.00622248
0.00627953
0.00633523
0.00638954
0.00644244
0.00649389
0.00654386
0.00659231
0.00663922
0.00668454
0.00672826
0.00677035
0.00681077
0.0068495
0.00688651
0.00692178
0.00695527
0.00698697
0.00701685
0.00704489
0.00707105
0.00709532
0.00711767
0.00713808
0.00715651
0.00717294
0.00718735
0.0071997
0.00720999
0.00721818
0.00722427
0.00722828
0.00723023
0.0072302
0.00722831
0.00722474
0.00721977
0.00721381
0.00720741
0.00720127
0.00719629
0.00719334
1.15551e-05
8.63209e-06
4.9661e-06
7.30645e-07
-3.78671e-06
-8.10203e-06
-1.17845e-05
-1.45158e-05
-1.60655e-05
-1.62612e-05
-1.49797e-05
-1.2143e-05
-7.7025e-06
-1.62728e-06
6.09762e-06
1.5471e-05
2.64813e-05
3.91157e-05
5.33642e-05
6.92176e-05
8.66634e-05
0.000105686
0.000126271
0.000148405
0.000172079
0.000197284
0.000224007
0.000252234
0.000281953
0.000313154
0.000345824
0.000379951
0.000415523
0.000452525
0.000490941
0.00053076
0.000571965
0.000614542
0.000658474
0.000703745
0.000750337
0.000798233
0.000847415
0.000897863
0.000949559
0.00100248
0.00105661
0.00111193
0.00116841
0.00122603
0.00128477
0.00134461
0.00140552
0.00146747
0.00153045
0.00159443
0.00165937
0.00172527
0.00179208
0.00185978
0.00192834
0.00199774
0.00206795
0.00213893
0.00221066
0.0022831
0.00235623
0.00243001
0.00250441
0.00257941
0.00265496
0.00273103
0.00280759
0.00288461
0.00296206
0.00303989
0.00311807
0.00319656
0.00327534
0.00335436
0.00343359
0.00351299
0.00359252
0.00367214
0.00375183
0.00383153
0.00391121
0.00399084
0.00407036
0.00414976
0.00422897
0.00430797
0.00438672
0.00446517
0.00454328
0.00462102
0.00469835
0.00477522
0.00485159
0.00492743
0.0050027
0.00507735
0.00515134
0.00522463
0.00529719
0.00536897
0.00543994
0.00551005
0.00557927
0.00564755
0.00571486
0.00578115
0.0058464
0.00591056
0.00597359
0.00603545
0.00609611
0.00615554
0.00621369
0.00627053
0.00632603
0.00638015
0.00643285
0.00648411
0.00653389
0.00658216
0.00662888
0.00667403
0.00671758
0.0067595
0.00679976
0.00683833
0.00687519
0.0069103
0.00694366
0.00697522
0.00700497
0.00703289
0.00705894
0.0070831
0.00710537
0.0071257
0.00714407
0.00716048
0.00717489
0.0071873
0.00719768
0.00720605
0.0072124
0.00721676
0.00721919
0.00721977
0.00721862
0.00721594
0.00721197
0.00720704
0.0072016
0.00719618
0.00719121
0.00718704
2.0869e-05
1.58199e-05
1.11164e-05
6.60517e-06
2.20614e-06
-1.78244e-06
-5.04592e-06
-7.33687e-06
-8.46779e-06
-8.2918e-06
-6.69633e-06
-3.60419e-06
1.03329e-06
7.24824e-06
1.50631e-05
2.44892e-05
3.55253e-05
4.8163e-05
6.2394e-05
7.82117e-05
9.56082e-05
0.000114573
0.000135094
0.000157158
0.000180757
0.000205878
0.000232512
0.000260649
0.000290276
0.000321379
0.000353948
0.000387969
0.000423432
0.000460323
0.000498626
0.000538327
0.000579411
0.000621864
0.00066567
0.000710812
0.000757272
0.000805032
0.000854075
0.000904382
0.000955934
0.00100871
0.00106269
0.00111786
0.00117418
0.00123165
0.00129023
0.00134991
0.00141065
0.00147244
0.00153526
0.00159906
0.00166384
0.00172956
0.0017962
0.00186373
0.00193212
0.00200134
0.00207136
0.00214216
0.00221371
0.00228597
0.00235892
0.00243252
0.00250674
0.00258154
0.00265691
0.0027328
0.00280917
0.00288601
0.00296326
0.0030409
0.0031189
0.0031972
0.00327579
0.00335463
0.00343367
0.00351288
0.00359222
0.00367166
0.00375115
0.00383067
0.00391016
0.0039896
0.00406894
0.00414814
0.00422717
0.00430599
0.00438454
0.00446281
0.00454074
0.0046183
0.00469544
0.00477213
0.00484833
0.00492398
0.00499907
0.00507354
0.00514735
0.00522047
0.00529285
0.00536446
0.00543525
0.00550519
0.00557423
0.00564234
0.00570948
0.00577561
0.00584068
0.00590467
0.00596754
0.00602923
0.00608973
0.006149
0.00620699
0.00626367
0.00631901
0.00637297
0.00642552
0.00647663
0.00652626
0.00657438
0.00662096
0.00666597
0.00670938
0.00675117
0.00679129
0.00682974
0.00686647
0.00690147
0.00693472
0.00696617
0.00699582
0.00702364
0.00704961
0.0070737
0.0070959
0.00711618
0.00713453
0.00715093
0.00716537
0.00717783
0.00718831
0.00719683
0.00720339
0.00720804
0.00721082
0.00721182
0.00721117
0.00720902
0.00720558
0.00720113
0.007196
0.00719059
0.00718491
0.00717886
3.03133e-05
2.32211e-05
1.7385e-05
1.23631e-05
7.79832e-06
3.87759e-06
8.1371e-07
-1.21784e-06
-2.07253e-06
-1.63417e-06
1.92367e-07
3.48042e-06
8.27875e-06
1.46174e-05
2.25176e-05
3.19947e-05
4.30558e-05
5.57002e-05
6.99223e-05
8.57158e-05
0.000103074
0.000121989
0.000142454
0.000164459
0.000187992
0.000213042
0.000239599
0.000267655
0.000297198
0.000328215
0.000360694
0.000394623
0.000429989
0.00046678
0.000504983
0.00054458
0.000585558
0.000627901
0.000671595
0.000716622
0.000762966
0.000810608
0.000859529
0.000909712
0.000961138
0.00101379
0.00106764
0.00112267
0.00117886
0.00123619
0.00129464
0.00135418
0.00141478
0.00147643
0.0015391
0.00160276
0.00166739
0.00173297
0.00179946
0.00186684
0.00193508
0.00200415
0.00207403
0.00214468
0.00221607
0.00228818
0.00236098
0.00243442
0.00250849
0.00258314
0.00265835
0.00273409
0.00281031
0.00288699
0.0029641
0.00304158
0.00311942
0.00319758
0.00327602
0.0033547
0.00343359
0.00351265
0.00359184
0.00367112
0.00375047
0.00382983
0.00390918
0.00398847
0.00406766
0.00414672
0.0042256
0.00430427
0.00438268
0.0044608
0.00453859
0.004616
0.004693
0.00476955
0.0048456
0.00492112
0.00499606
0.00507039
0.00514406
0.00521704
0.00528928
0.00536075
0.00543141
0.00550121
0.00557011
0.00563809
0.00570509
0.00577108
0.00583602
0.00589987
0.0059626
0.00602416
0.00608453
0.00614365
0.00620151
0.00625806
0.00631327
0.0063671
0.00641952
0.0064705
0.00652
0.006568
0.00661446
0.00665935
0.00670264
0.00674431
0.00678433
0.00682266
0.00685929
0.00689419
0.00692734
0.00695871
0.00698827
0.00701601
0.00704191
0.00706594
0.00708809
0.00710834
0.00712668
0.00714308
0.00715755
0.00717007
0.00718065
0.0071893
0.00719605
0.00720092
0.00720397
0.00720529
0.00720498
0.00720317
0.00720004
0.00719577
0.00719064
0.00718492
0.00717828
0.00717026
3.91369e-05
3.01859e-05
2.32436e-05
1.76123e-05
1.2717e-05
8.68302e-06
5.65168e-06
3.73533e-06
3.03834e-06
3.64737e-06
5.63492e-06
9.06314e-06
1.39796e-05
2.04152e-05
2.83888e-05
3.79135e-05
4.8999e-05
6.16501e-05
7.5866e-05
9.16418e-05
0.000108971
0.000127848
0.000148267
0.000170219
0.000193695
0.000218684
0.000245177
0.000273164
0.000302634
0.000333576
0.000365977
0.000399826
0.00043511
0.000471816
0.00050993
0.000549438
0.000590325
0.000632576
0.000676174
0.000721103
0.000767347
0.000814887
0.000863706
0.000913785
0.000965104
0.00101765
0.00107139
0.00112631
0.00118239
0.0012396
0.00129793
0.00135736
0.00141785
0.00147938
0.00154193
0.00160547
0.00166999
0.00173544
0.00180181
0.00186907
0.00193719
0.00200614
0.0020759
0.00214643
0.0022177
0.00228969
0.00236236
0.00243569
0.00250964
0.00258417
0.00265927
0.00273488
0.00281099
0.00288755
0.00296454
0.00304191
0.00311963
0.00319768
0.003276
0.00335457
0.00343334
0.00351229
0.00359137
0.00367054
0.00374978
0.00382904
0.00390827
0.00398745
0.00406654
0.00414549
0.00422426
0.00430282
0.00438113
0.00445915
0.00453683
0.00461414
0.00469104
0.00476748
0.00484343
0.00491885
0.00499369
0.00506792
0.00514149
0.00521437
0.00528651
0.00535788
0.00542843
0.00549813
0.00556693
0.0056348
0.0057017
0.00576759
0.00583243
0.00589618
0.0059588
0.00602026
0.00608052
0.00613955
0.0061973
0.00625375
0.00630885
0.00636258
0.0064149
0.00646577
0.00651517
0.00656307
0.00660943
0.00665422
0.00669742
0.00673899
0.00677892
0.00681717
0.00685372
0.00688854
0.0069216
0.0069529
0.0069824
0.00701008
0.00703593
0.00705992
0.00708204
0.00710227
0.0071206
0.00713702
0.00715152
0.0071641
0.00717477
0.00718353
0.00719042
0.00719546
0.00719872
0.00720025
0.00720016
0.00719854
0.00719553
0.00719125
0.00718593
0.00717972
0.00717206
0.00716218
4.68052e-05
3.62256e-05
2.8257e-05
2.2e-05
1.66967e-05
1.24378e-05
9.32167e-06
7.40905e-06
6.76975e-06
7.46808e-06
9.55578e-06
1.30782e-05
1.80756e-05
2.45789e-05
3.26068e-05
4.21708e-05
5.32793e-05
6.5938e-05
8.0149e-05
9.59102e-05
0.000113217
0.000132065
0.000152447
0.000174356
0.000197784
0.000222723
0.000249163
0.000277093
0.000306503
0.000337381
0.000369718
0.000403501
0.000438717
0.000475353
0.000513394
0.000552828
0.000593639
0.000635813
0.000679334
0.000724184
0.000770346
0.000817803
0.000866539
0.000916533
0.000967767
0.00102022
0.00107387
0.00112871
0.0011847
0.00124182
0.00130007
0.0013594
0.00141979
0.00148124
0.00154369
0.00160715
0.00167157
0.00173694
0.00180322
0.00187038
0.00193841
0.00200728
0.00207694
0.00214738
0.00221857
0.00229047
0.00236306
0.0024363
0.00251016
0.00258461
0.00265962
0.00273516
0.00281118
0.00288767
0.00296457
0.00304187
0.00311951
0.00319748
0.00327573
0.00335422
0.00343292
0.0035118
0.00359081
0.00366991
0.00374908
0.00382827
0.00390744
0.00398655
0.00406557
0.00414445
0.00422317
0.00430166
0.00437991
0.00445786
0.00453548
0.00461273
0.00468956
0.00476595
0.00484183
0.00491719
0.00499197
0.00506614
0.00513965
0.00521246
0.00528454
0.00535585
0.00542634
0.00549597
0.00556471
0.00563252
0.00569935
0.00576517
0.00582994
0.00589362
0.00595618
0.00601757
0.00607776
0.00613671
0.00619439
0.00625076
0.00630579
0.00635944
0.00641169
0.00646249
0.00651182
0.00655964
0.00660592
0.00665065
0.00669377
0.00673528
0.00677514
0.00681333
0.00684981
0.00688457
0.00691759
0.00694883
0.00697829
0.00700593
0.00703175
0.00705571
0.00707782
0.00709804
0.00711638
0.00713282
0.00714735
0.00715999
0.00717073
0.00717959
0.00718659
0.00719176
0.00719515
0.00719682
0.00719683
0.00719529
0.00719226
0.00718785
0.0071822
0.00717545
0.0071668
0.00715528
5.29713e-05
4.10057e-05
3.21186e-05
2.5263e-05
1.95321e-05
1.49945e-05
1.17247e-05
9.74396e-06
9.09122e-06
9.8129e-06
1.1947e-05
1.55245e-05
2.05739e-05
2.71207e-05
3.51838e-05
4.4775e-05
5.59015e-05
6.85679e-05
8.27758e-05
9.85254e-05
0.000115815
0.00013464
0.000154994
0.00017687
0.00020026
0.000225158
0.000251554
0.000279439
0.000308801
0.000339629
0.000371914
0.000405644
0.000440805
0.000477385
0.00051537
0.000554746
0.000595498
0.000637612
0.000681072
0.00072586
0.00077196
0.000819354
0.000868025
0.000917955
0.000969125
0.00102151
0.0010751
0.00112987
0.00118579
0.00124285
0.00130103
0.00136029
0.00142063
0.001482
0.0015444
0.00160779
0.00167215
0.00173745
0.00180367
0.00187078
0.00193875
0.00200755
0.00207716
0.00214754
0.00221867
0.00229052
0.00236306
0.00243624
0.00251006
0.00258446
0.00265942
0.00273491
0.00281089
0.00288733
0.0029642
0.00304145
0.00311906
0.00319699
0.0032752
0.00335366
0.00343233
0.00351117
0.00359015
0.00366923
0.00374837
0.00382752
0.00390667
0.00398575
0.00406475
0.00414361
0.0042223
0.00430077
0.00437899
0.00445692
0.00453452
0.00461175
0.00468856
0.00476492
0.00484079
0.00491612
0.00499088
0.00506503
0.00513852
0.00521131
0.00528337
0.00535465
0.00542511
0.00549472
0.00556343
0.00563121
0.00569801
0.0057638
0.00582853
0.00589218
0.0059547
0.00601605
0.0060762
0.00613511
0.00619275
0.00624908
0.00630407
0.00635767
0.00640987
0.00646063
0.00650991
0.00655769
0.00660393
0.00664861
0.00669169
0.00673316
0.00677298
0.00681112
0.00684757
0.0068823
0.00691528
0.0069465
0.00697593
0.00700356
0.00702936
0.00705332
0.00707542
0.00709565
0.00711401
0.00713047
0.00714505
0.00715774
0.00716854
0.00717747
0.00718456
0.00718981
0.00719329
0.00719502
0.00719508
0.00719351
0.00719039
0.00718576
0.00717975
0.00717245
0.0071629
0.00715001
5.74017e-05
4.4293e-05
3.46092e-05
2.72051e-05
2.10603e-05
1.62252e-05
1.27632e-05
1.06714e-05
9.96108e-06
1.06603e-05
1.27976e-05
1.6395e-05
2.14707e-05
2.80424e-05
3.61258e-05
4.57328e-05
5.68701e-05
6.95412e-05
8.37476e-05
9.94895e-05
0.000116766
0.000135573
0.000155905
0.000177756
0.000201119
0.000225986
0.000252349
0.000280199
0.000309524
0.000340316
0.000372563
0.000406253
0.000441373
0.000477912
0.000515855
0.000555189
0.000595899
0.00063797
0.000681385
0.00072613
0.000772186
0.000819536
0.000868164
0.00091805
0.000969175
0.00102152
0.00107506
0.00112979
0.00118567
0.00124269
0.00130082
0.00136005
0.00142034
0.00148168
0.00154404
0.00160739
0.00167172
0.00173698
0.00180317
0.00187025
0.00193819
0.00200696
0.00207655
0.00214691
0.00221802
0.00228984
0.00236236
0.00243553
0.00250933
0.00258372
0.00265867
0.00273415
0.00281012
0.00288656
0.00296342
0.00304067
0.00311828
0.00319621
0.00327442
0.00335289
0.00343156
0.00351041
0.0035894
0.00366848
0.00374763
0.0038268
0.00390596
0.00398506
0.00406407
0.00414294
0.00422165
0.00430014
0.00437838
0.00445633
0.00453394
0.00461119
0.00468802
0.0047644
0.00484028
0.00491564
0.00499041
0.00506457
0.00513808
0.00521088
0.00528295
0.00535425
0.00542472
0.00549434
0.00556306
0.00563084
0.00569765
0.00576344
0.00582818
0.00589182
0.00595433
0.00601568
0.00607583
0.00613473
0.00619236
0.00624868
0.00630365
0.00635725
0.00640943
0.00646017
0.00650944
0.0065572
0.00660343
0.00664809
0.00669116
0.00673261
0.00677242
0.00681055
0.00684699
0.00688171
0.00691469
0.0069459
0.00697533
0.00700296
0.00702876
0.00705273
0.00707485
0.00709511
0.00711349
0.00712999
0.00714461
0.00715734
0.0071682
0.00717719
0.00718433
0.00718964
0.00719316
0.00719492
0.00719496
0.00719332
0.00719005
0.00718518
0.00717879
0.00717097
0.00716066
0.00714665
5.99445e-05
4.59208e-05
3.55665e-05
2.76765e-05
2.11507e-05
1.60233e-05
1.23518e-05
1.0122e-05
9.32659e-06
9.97544e-06
1.20862e-05
1.5675e-05
2.07541e-05
2.73343e-05
3.54269e-05
4.50409e-05
5.61824e-05
6.88547e-05
8.30596e-05
9.87968e-05
0.000116064
0.000134858
0.000155175
0.000177009
0.000200353
0.000225199
0.00025154
0.000279365
0.000308667
0.000339434
0.000371655
0.00040532
0.000440414
0.000476926
0.000514843
0.00055415
0.000594834
0.000636879
0.000680269
0.000724987
0.000771018
0.000818345
0.000866949
0.000916812
0.000967914
0.00102024
0.00107376
0.00112846
0.00118433
0.00124133
0.00129945
0.00135866
0.00141894
0.00148026
0.00154261
0.00160596
0.00167027
0.00173554
0.00180172
0.0018688
0.00193674
0.00200552
0.00207511
0.00214548
0.0022166
0.00228844
0.00236097
0.00243416
0.00250797
0.00258239
0.00265736
0.00273287
0.00280887
0.00288533
0.00296223
0.00303952
0.00311716
0.00319513
0.00327338
0.00335189
0.00343061
0.0035095
0.00358854
0.00366767
0.00374687
0.00382609
0.0039053
0.00398445
0.00406352
0.00414245
0.00422121
0.00429976
0.00437805
0.00445606
0.00453373
0.00461103
0.00468792
0.00476436
0.0048403
0.00491571
0.00499054
0.00506475
0.00513831
0.00521117
0.00528329
0.00535463
0.00542516
0.00549482
0.00556358
0.0056314
0.00569825
0.00576408
0.00582885
0.00589253
0.00595507
0.00601645
0.00607662
0.00613555
0.0061932
0.00624954
0.00630454
0.00635815
0.00641035
0.00646111
0.0065104
0.00655817
0.00660442
0.00664909
0.00669218
0.00673365
0.00677347
0.00681162
0.00684807
0.00688281
0.00691581
0.00694704
0.00697649
0.00700414
0.00702998
0.00705398
0.00707612
0.00709641
0.00711483
0.00713137
0.00714604
0.00715882
0.00716972
0.00717876
0.00718594
0.00719128
0.00719481
0.00719655
0.00719654
0.0071948
0.00719136
0.00718623
0.00717949
0.00717121
0.00716025
0.00714536
6.05153e-05
4.57797e-05
3.48762e-05
2.65646e-05
1.96984e-05
1.43006e-05
1.042e-05
8.03795e-06
7.13917e-06
7.72017e-06
9.78633e-06
1.33471e-05
1.84113e-05
2.49861e-05
3.30777e-05
4.2692e-05
5.38334e-05
6.65048e-05
8.07079e-05
9.6442e-05
0.000113704
0.000132492
0.0001528
0.000174623
0.000197957
0.000222792
0.00024912
0.000276933
0.000306222
0.000336977
0.000369186
0.000402838
0.00043792
0.000474421
0.000512327
0.000551624
0.000592299
0.000634335
0.000677716
0.000722428
0.000768453
0.000815775
0.000864375
0.000914235
0.000965336
0.00101766
0.00107118
0.00112589
0.00118176
0.00123877
0.0012969
0.00135612
0.00141641
0.00147775
0.00154012
0.00160348
0.00166782
0.00173311
0.00179932
0.00186643
0.0019344
0.00200322
0.00207284
0.00214325
0.00221442
0.0022863
0.00235888
0.00243212
0.00250599
0.00258046
0.0026555
0.00273107
0.00280713
0.00288367
0.00296063
0.00303799
0.00311571
0.00319375
0.00327209
0.00335067
0.00342947
0.00350845
0.00358757
0.00366679
0.00374608
0.00382539
0.00390469
0.00398394
0.00406309
0.00414212
0.00422097
0.00429962
0.00437801
0.00445611
0.00453388
0.00461128
0.00468826
0.00476479
0.00484083
0.00491633
0.00499125
0.00506556
0.00513921
0.00521215
0.00528436
0.00535579
0.00542639
0.00549614
0.00556498
0.00563288
0.0056998
0.0057657
0.00583054
0.00589428
0.0059569
0.00601834
0.00607857
0.00613756
0.00619527
0.00625167
0.00630671
0.00636038
0.00641264
0.00646345
0.00651278
0.0065606
0.00660689
0.00665162
0.00669475
0.00673627
0.00677613
0.00681433
0.00685083
0.00688561
0.00691866
0.00694993
0.00697943
0.00700713
0.00703301
0.00705705
0.00707925
0.00709958
0.00711805
0.00713464
0.00714934
0.00716217
0.00717311
0.00718218
0.00718939
0.00719474
0.00719826
0.00719997
0.00719988
0.00719802
0.0071944
0.00718902
0.00718196
0.00717327
0.00716179
0.00714621
5.90793e-05
4.38043e-05
3.24623e-05
2.37911e-05
1.66239e-05
1.0983e-05
6.90692e-06
4.37131e-06
3.3588e-06
3.85966e-06
5.86968e-06
9.39104e-06
1.44288e-05
2.09871e-05
2.90692e-05
3.8678e-05
4.98164e-05
6.24864e-05
7.66881e-05
9.24206e-05
0.000109681
0.000128467
0.000148773
0.000170595
0.000193926
0.000218758
0.000245085
0.000272897
0.000302185
0.000332939
0.000365149
0.000398802
0.000433887
0.000470392
0.000508303
0.000547606
0.000588287
0.000630331
0.000673723
0.000718446
0.000764485
0.000811822
0.000860439
0.000910318
0.000961439
0.00101379
0.00106734
0.00112207
0.00117797
0.00123501
0.00129317
0.00135243
0.00141276
0.00147414
0.00153655
0.00159997
0.00166436
0.0017297
0.00179597
0.00186314
0.00193117
0.00200006
0.00206975
0.00214024
0.00221148
0.00228344
0.0023561
0.00242943
0.00250339
0.00257795
0.00265309
0.00272875
0.00280492
0.00288155
0.00295862
0.00303609
0.00311392
0.00319208
0.00327053
0.00334924
0.00342816
0.00350726
0.0035865
0.00366585
0.00374526
0.0038247
0.00390413
0.0039835
0.00406279
0.00414195
0.00422093
0.00429971
0.00437824
0.00445647
0.00453438
0.00461191
0.00468902
0.00476569
0.00484186
0.00491749
0.00499254
0.00506697
0.00514075
0.00521382
0.00528615
0.0053577
0.00542842
0.00549828
0.00556724
0.00563525
0.00570228
0.00576829
0.00583323
0.00589708
0.00595979
0.00602133
0.00608166
0.00614075
0.00619855
0.00625504
0.00631018
0.00636393
0.00641628
0.00646717
0.00651659
0.0065645
0.00661087
0.00665567
0.00669889
0.00674048
0.00678042
0.0068187
0.00685527
0.00689013
0.00692324
0.00695459
0.00698415
0.00701191
0.00703786
0.00706196
0.00708422
0.00710461
0.00712313
0.00713978
0.00715453
0.0071674
0.00717838
0.00718748
0.00719469
0.00720005
0.00720354
0.0072052
0.00720502
0.00720304
0.00719924
0.00719363
0.00718628
0.00717725
0.00716534
0.00714923
5.56358e-05
3.99581e-05
2.82738e-05
1.93038e-05
1.18727e-05
6.01332e-06
1.75993e-06
-9.20701e-07
-2.04885e-06
-1.63549e-06
3.10764e-07
3.78598e-06
8.79042e-06
1.53253e-05
2.33917e-05
3.2991e-05
4.41246e-05
5.67928e-05
7.09946e-05
8.6728e-05
0.000103991
0.00012278
0.000143091
0.000164918
0.000188255
0.000213094
0.000239429
0.000267251
0.00029655
0.000327317
0.00035954
0.000393208
0.00042831
0.000464833
0.000502765
0.00054209
0.000582795
0.000624865
0.000668285
0.00071304
0.000759111
0.000806483
0.000855137
0.000905056
0.00095622
0.00100861
0.00106221
0.001117
0.00117295
0.00123005
0.00128827
0.00134759
0.00140799
0.00146944
0.00153192
0.00159541
0.00165989
0.00172531
0.00179167
0.00185893
0.00192706
0.00199604
0.00206584
0.00213643
0.00220778
0.00227986
0.00235264
0.00242608
0.00250017
0.00257486
0.00265012
0.00272592
0.00280222
0.002879
0.00295621
0.00303382
0.0031118
0.00319011
0.00326871
0.00334757
0.00342665
0.00350591
0.00358531
0.00366482
0.0037444
0.00382401
0.0039036
0.00398315
0.0040626
0.00414193
0.00422109
0.00430003
0.00437873
0.00445714
0.00453521
0.00461291
0.0046902
0.00476703
0.00484337
0.00491917
0.00499439
0.00506898
0.00514292
0.00521615
0.00528864
0.00536035
0.00543123
0.00550124
0.00557035
0.00563851
0.00570568
0.00577184
0.00583692
0.00590091
0.00596376
0.00602544
0.0060859
0.00614511
0.00620305
0.00625966
0.00631493
0.00636881
0.00642128
0.00647229
0.00652183
0.00656986
0.00661635
0.00666127
0.00670459
0.00674629
0.00678634
0.00682472
0.0068614
0.00689635
0.00692956
0.006961
0.00699066
0.00701851
0.00704453
0.00706872
0.00709105
0.00711151
0.0071301
0.00714679
0.0071616
0.00717451
0.00718552
0.00719464
0.00720187
0.00720721
0.00721067
0.00721226
0.007212
0.00720989
0.00720593
0.0072001
0.0071925
0.00718318
0.00717093
0.00715441
5.02093e-05
3.42263e-05
2.22757e-05
1.30644e-05
5.40758e-06
-6.4766e-07
-5.06238e-06
-7.87642e-06
-9.11532e-06
-8.79067e-06
-6.91206e-06
-3.48724e-06
1.47967e-06
7.98725e-06
1.60351e-05
2.56231e-05
3.67508e-05
4.94172e-05
6.36204e-05
7.93581e-05
9.66277e-05
0.000115426
0.000135748
0.000157587
0.000180939
0.000205794
0.000232148
0.00025999
0.000289312
0.000320103
0.000352353
0.00038605
0.000421184
0.000457741
0.000495708
0.000535072
0.000575819
0.000617932
0.000661399
0.000706203
0.000752327
0.000799754
0.000848467
0.000898447
0.000949676
0.00100214
0.00105581
0.00111067
0.0011667
0.00122388
0.00128218
0.0013416
0.00140209
0.00146364
0.00152623
0.00158982
0.0016544
0.00171994
0.00178642
0.0018538
0.00192206
0.00199117
0.00206111
0.00213183
0.00220332
0.00227555
0.00234848
0.00242208
0.00249633
0.00257118
0.0026466
0.00272257
0.00279905
0.002876
0.00295339
0.00303118
0.00310935
0.00318784
0.00326663
0.00334568
0.00342495
0.00350441
0.00358401
0.00366372
0.0037435
0.00382331
0.00390311
0.00398286
0.00406252
0.00414205
0.00422142
0.00430057
0.00437948
0.00445809
0.00453638
0.00461429
0.00469178
0.00476882
0.00484536
0.00492136
0.00499678
0.00507158
0.00514572
0.00521915
0.00529184
0.00536374
0.00543481
0.00550501
0.0055743
0.00564265
0.00571001
0.00577634
0.00584161
0.00590577
0.0059688
0.00603064
0.00609128
0.00615066
0.00620876
0.00626555
0.00632098
0.00637502
0.00642764
0.00647882
0.00652851
0.00657669
0.00662333
0.0066684
0.00671187
0.00675371
0.0067939
0.00683242
0.00686922
0.0069043
0.00693763
0.00696919
0.00699895
0.00702691
0.00705303
0.00707731
0.00709972
0.00712026
0.00713892
0.00715568
0.00717054
0.0071835
0.00719454
0.00720368
0.0072109
0.00721622
0.00721965
0.00722118
0.00722082
0.00721859
0.00721447
0.00720846
0.00720064
0.00719108
0.00717855
0.00716172
4.28369e-05
2.66131e-05
1.44493e-05
5.04415e-06
-2.79983e-06
-9.02734e-06
-1.35898e-05
-1.65269e-05
-1.78686e-05
-1.76291e-05
-1.58185e-05
-1.24461e-05
-7.51883e-06
-1.04006e-06
6.9884e-06
1.65647e-05
2.76866e-05
4.0352e-05
5.45589e-05
7.03048e-05
8.75861e-05
0.000106399
0.000126738
0.000148598
0.000171972
0.000196854
0.000223236
0.00025111
0.000280466
0.000311294
0.000343583
0.000377324
0.000412503
0.000449109
0.000487129
0.000526547
0.000567352
0.000609528
0.00065306
0.000697932
0.000744128
0.000791631
0.000840423
0.000890487
0.000941804
0.000994356
0.00104812
0.00110308
0.00115922
0.00121651
0.00127492
0.00133445
0.00139507
0.00145674
0.00151946
0.00158319
0.00164791
0.0017136
0.00178022
0.00184775
0.00191617
0.00198545
0.00205555
0.00212645
0.00219812
0.00227052
0.00234364
0.00241743
0.00249186
0.00256691
0.00264254
0.00271871
0.00279539
0.00287255
0.00295016
0.00302817
0.00310655
0.00318527
0.00326429
0.00334356
0.00342307
0.00350275
0.00358259
0.00366253
0.00374255
0.0038226
0.00390264
0.00398263
0.00406254
0.00414231
0.00422192
0.00430132
0.00438048
0.00445934
0.00453786
0.00461602
0.00469376
0.00477104
0.00484782
0.00492407
0.00499973
0.00507477
0.00514914
0.0052228
0.00529572
0.00536785
0.00543915
0.00550958
0.0055791
0.00564767
0.00571525
0.0057818
0.00584728
0.00591166
0.0059749
0.00603696
0.00609781
0.0061574
0.00621571
0.00627269
0.00632833
0.00638257
0.00643539
0.00648676
0.00653665
0.00658501
0.00663184
0.00667709
0.00672074
0.00676275
0.00680311
0.00684178
0.00687874
0.00691397
0.00694745
0.00697914
0.00700903
0.00703711
0.00706334
0.00708773
0.00711024
0.00713087
0.0071496
0.00716643
0.00718135
0.00719434
0.00720542
0.00721457
0.00722179
0.0072271
0.00723048
0.00723195
0.00723151
0.00722916
0.0072249
0.00721872
0.00721071
0.00720095
0.0071882
0.00717112
3.35532e-05
1.71339e-05
4.79223e-06
-4.77388e-06
-1.27726e-05
-1.91481e-05
-2.38441e-05
-2.6895e-05
-2.83318e-05
-2.8172e-05
-2.64272e-05
-2.3107e-05
-1.82191e-05
-1.17687e-05
-3.75941e-06
5.80553e-06
1.69228e-05
2.95897e-05
4.38035e-05
5.95614e-05
7.68594e-05
9.56925e-05
0.000116055
0.000137943
0.000161349
0.000186267
0.000212689
0.000240605
0.000270006
0.000300883
0.000333226
0.000367023
0.000402263
0.000438933
0.00047702
0.00051651
0.00055739
0.000599646
0.000643262
0.000688222
0.00073451
0.000782109
0.000831002
0.000881172
0.0009326
0.000985266
0.00103915
0.00109424
0.0011505
0.00120792
0.00126648
0.00132615
0.00138692
0.00144875
0.00151162
0.00157552
0.00164041
0.00170627
0.00177307
0.00184079
0.0019094
0.00197887
0.00204917
0.00212027
0.00219215
0.00226477
0.0023381
0.00241212
0.00248678
0.00256206
0.00263792
0.00271433
0.00279125
0.00286866
0.00294651
0.00302478
0.00310342
0.00318239
0.00326167
0.00334121
0.00342098
0.00350093
0.00358104
0.00366126
0.00374155
0.00382187
0.00390219
0.00398246
0.00406265
0.00414271
0.0042226
0.00430228
0.00438171
0.00446086
0.00453967
0.0046181
0.00469612
0.00477369
0.00485075
0.00492727
0.00500321
0.00507852
0.00515317
0.00522711
0.0053003
0.0053727
0.00544426
0.00551496
0.00558474
0.00565357
0.00572141
0.00578822
0.00585396
0.0059186
0.00598209
0.0060444
0.00610549
0.00616533
0.00622389
0.00628112
0.00633699
0.00639147
0.00644453
0.00649613
0.00654624
0.00659483
0.00664187
0.00668734
0.00673119
0.00677341
0.00681396
0.00685282
0.00688996
0.00692536
0.006959
0.00699085
0.00702089
0.0070491
0.00707546
0.00709996
0.00712258
0.0071433
0.00716212
0.00717902
0.007194
0.00720704
0.00721815
0.00722731
0.00723454
0.00723982
0.00724317
0.00724457
0.00724405
0.0072416
0.00723721
0.00723089
0.00722271
0.00721278
0.00719985
0.00718258
2.23811e-05
5.80374e-06
-6.68884e-06
-1.63955e-05
-2.45271e-05
-3.1029e-05
-3.58429e-05
-3.89981e-05
-4.05233e-05
-4.0438e-05
-3.87552e-05
-3.54847e-05
-3.06343e-05
-2.42109e-05
-1.62196e-05
-6.66471e-06
4.4502e-06
1.71218e-05
3.13466e-05
4.71209e-05
6.44402e-05
8.32997e-05
0.000103694
0.000125618
0.000149065
0.000174027
0.000200498
0.000228467
0.000257926
0.000288865
0.000321274
0.000355142
0.000390457
0.000427206
0.000465376
0.000504955
0.000545928
0.000588282
0.000632
0.000677068
0.000723468
0.000771184
0.0008202
0.000870497
0.000922058
0.000974863
0.00102889
0.00108413
0.00114055
0.00119813
0.00125685
0.00131669
0.00137763