/*--------------------------------*- C++ -*----------------------------------*\
  =========                 |
  \\      /  F ield         | OpenFOAM: The Open Source CFD Toolbox
   \\    /   O peration     | Website:  https://openfoam.org
    \\  /    A nd           | Version:  7
     \\/     M anipulation  |
\*---------------------------------------------------------------------------*/
FoamFile
{
    version     2.0;
    format      ascii;
    class       surfaceScalarField;
    location    "0.4625";
    object      phi;
}
// * * * * * * * * * * * * * * * * * * * * * * * * * * * * * * * * * * * * * //

dimensions      [0 3 -1 0 0 0 0];

internalField   nonuniform List<scalar> 
50880
(
7.12748e-12
-7.12839e-12
3.81343e-11
-3.10083e-11
8.27884e-11
-4.46558e-11
1.308e-10
-4.80097e-11
1.74992e-10
-4.41897e-11
2.10488e-10
-3.54942e-11
2.34021e-10
-2.35317e-11
2.43461e-10
-9.44204e-12
2.37482e-10
5.97756e-12
2.15312e-10
2.21684e-11
1.7658e-10
3.87313e-11
1.2121e-10
5.53724e-11
4.93332e-11
7.18764e-11
-3.87552e-11
8.80863e-11
-1.42642e-10
1.03886e-10
-2.61829e-10
1.19186e-10
-3.95746e-10
1.3392e-10
-5.43786e-10
1.48042e-10
-7.053e-10
1.61516e-10
-8.79624e-10
1.74322e-10
-1.06607e-09
1.86446e-10
-1.26395e-09
1.97876e-10
-1.47256e-09
2.08613e-10
-1.69121e-09
2.18655e-10
-1.91922e-09
2.28011e-10
-2.1559e-09
2.36686e-10
-2.40059e-09
2.4469e-10
-2.65263e-09
2.52032e-10
-2.91135e-09
2.58726e-10
-3.17614e-09
2.64786e-10
-3.44637e-09
2.70227e-10
-3.72144e-09
2.75063e-10
-4.00075e-09
2.79309e-10
-4.28372e-09
2.82978e-10
-4.5698e-09
2.86083e-10
-4.85845e-09
2.88641e-10
-5.14911e-09
2.90666e-10
-5.44128e-09
2.92171e-10
-5.73446e-09
2.93171e-10
-6.02814e-09
2.93678e-10
-6.32184e-09
2.93705e-10
-6.6151e-09
2.93262e-10
-6.90746e-09
2.92361e-10
-7.19847e-09
2.91013e-10
-7.4877e-09
2.89229e-10
-7.77472e-09
2.87018e-10
-8.05911e-09
2.84389e-10
-8.34046e-09
2.8135e-10
-8.61838e-09
2.77913e-10
-8.89247e-09
2.74085e-10
-9.16234e-09
2.69874e-10
-9.42763e-09
2.65286e-10
-9.68796e-09
2.60331e-10
-9.94297e-09
2.55013e-10
-1.01923e-08
2.49341e-10
-1.04356e-08
2.43319e-10
-1.06726e-08
2.36953e-10
-1.09028e-08
2.30251e-10
-1.1126e-08
2.23217e-10
-1.13419e-08
2.15861e-10
-1.15501e-08
2.08188e-10
-1.17503e-08
2.00206e-10
-1.19422e-08
1.91921e-10
-1.21256e-08
1.83342e-10
-1.23e-08
1.74473e-10
-1.24654e-08
1.65325e-10
-1.26213e-08
1.55903e-10
-1.27675e-08
1.46218e-10
-1.29038e-08
1.36278e-10
-1.30299e-08
1.2609e-10
-1.31455e-08
1.15667e-10
-1.32505e-08
1.05017e-10
-1.33447e-08
9.4153e-11
-1.34278e-08
8.30868e-11
-1.34996e-08
7.18311e-11
-1.356e-08
6.03963e-11
-1.36088e-08
4.87972e-11
-1.36459e-08
3.70496e-11
-1.3671e-08
2.51661e-11
-1.36842e-08
1.31626e-11
-1.36852e-08
1.05704e-12
-1.36741e-08
-1.11355e-11
-1.36507e-08
-2.33966e-11
-1.3615e-08
-3.5705e-11
-1.3567e-08
-4.80434e-11
-1.35066e-08
-6.03936e-11
-1.34338e-08
-7.27322e-11
-1.33488e-08
-8.50372e-11
-1.32515e-08
-9.72894e-11
-1.3142e-08
-1.09466e-10
-1.30205e-08
-1.21543e-10
-1.2887e-08
-1.335e-10
-1.27417e-08
-1.45311e-10
-1.25847e-08
-1.56952e-10
-1.24163e-08
-1.68399e-10
-1.22367e-08
-1.79629e-10
-1.20461e-08
-1.90616e-10
-1.18448e-08
-2.01333e-10
-1.1633e-08
-2.11759e-10
-1.14111e-08
-2.21866e-10
-1.11795e-08
-2.31629e-10
-1.09385e-08
-2.41024e-10
-1.06885e-08
-2.50026e-10
-1.04298e-08
-2.58608e-10
-1.01631e-08
-2.66747e-10
-9.88868e-09
-2.74422e-10
-9.60707e-09
-2.8161e-10
-9.31878e-09
-2.88286e-10
-9.02435e-09
-2.94428e-10
-8.72433e-09
-3.00018e-10
-8.4193e-09
-3.05036e-10
-8.10984e-09
-3.09459e-10
-7.79657e-09
-3.1327e-10
-7.48011e-09
-3.16454e-10
-7.16112e-09
-3.18995e-10
-6.84024e-09
-3.20875e-10
-6.51816e-09
-3.22082e-10
-6.19555e-09
-3.22607e-10
-5.87311e-09
-3.22439e-10
-5.55154e-09
-3.21567e-10
-5.23156e-09
-3.19981e-10
-4.91388e-09
-3.17679e-10
-4.59923e-09
-3.14658e-10
-4.28832e-09
-3.10912e-10
-3.98188e-09
-3.06439e-10
-3.68064e-09
-3.01242e-10
-3.38531e-09
-2.95325e-10
-3.09662e-09
-2.88691e-10
-2.81528e-09
-2.81347e-10
-2.54198e-09
-2.73301e-10
-2.27741e-09
-2.64565e-10
-2.02226e-09
-2.55151e-10
-1.77719e-09
-2.45074e-10
-1.54284e-09
-2.34349e-10
-1.31984e-09
-2.22998e-10
-1.10879e-09
-2.11044e-10
-9.10282e-10
-1.98512e-10
-7.2485e-10
-1.85432e-10
-5.53012e-10
-1.71838e-10
-3.95246e-10
-1.57766e-10
-2.51988e-10
-1.4326e-10
-1.23625e-10
-1.28365e-10
-1.04857e-11
-1.13138e-10
8.71583e-11
-9.76437e-11
1.69113e-10
-8.19566e-11
2.35274e-10
-6.61641e-11
2.85643e-10
-5.03703e-11
3.20348e-10
-3.47026e-11
3.39668e-10
-1.93174e-11
3.44074e-10
-4.4069e-12
3.34288e-10
9.78586e-12
3.11341e-10
2.29467e-11
2.76679e-10
3.46639e-11
2.32293e-10
4.4386e-11
1.80927e-10
5.13641e-11
1.26343e-10
5.45827e-11
7.36405e-11
5.27042e-11
2.96486e-11
4.39948e-11
3.0917e-12
2.65579e-11
3.08944e-12
3.10175e-11
-3.8142e-11
1.0186e-10
-1.01853e-10
1.93202e-10
-1.36001e-10
2.87416e-10
-1.42226e-10
3.70011e-10
-1.26787e-10
4.29899e-10
-9.53842e-11
4.58943e-10
-5.25721e-11
4.51363e-10
-1.86148e-12
4.0323e-10
5.41127e-11
3.12022e-10
1.13378e-10
1.76291e-10
1.74458e-10
-4.5729e-12
2.36237e-10
-2.30557e-10
2.97862e-10
-5.01158e-10
3.5869e-10
-8.15502e-10
4.1823e-10
-1.17243e-09
4.76108e-10
-1.57054e-09
5.32038e-10
-2.00831e-09
5.85806e-10
-2.48404e-09
6.37254e-10
-2.99598e-09
6.86267e-10
-3.54231e-09
7.32768e-10
-4.12114e-09
7.76705e-10
-4.73058e-09
8.18051e-10
-5.36872e-09
8.56797e-10
-6.03366e-09
8.92948e-10
-6.72349e-09
9.2652e-10
-7.43635e-09
9.57542e-10
-8.17036e-09
9.86043e-10
-8.92369e-09
1.01207e-09
-9.69455e-09
1.03565e-09
-1.04812e-08
1.05685e-09
-1.12818e-08
1.07571e-09
-1.20948e-08
1.09228e-09
-1.29184e-08
1.10661e-09
-1.37511e-08
1.11877e-09
-1.45913e-08
1.1288e-09
-1.54373e-08
1.13674e-09
-1.62878e-08
1.14266e-09
-1.71413e-08
1.1466e-09
-1.79962e-08
1.14861e-09
-1.88512e-08
1.14874e-09
-1.9705e-08
1.14702e-09
-2.05561e-08
1.14351e-09
-2.14034e-08
1.13825e-09
-2.22454e-08
1.13127e-09
-2.3081e-08
1.12261e-09
-2.39089e-08
1.11231e-09
-2.4728e-08
1.1004e-09
-2.5537e-08
1.08692e-09
-2.63348e-08
1.0719e-09
-2.71203e-08
1.05537e-09
-2.78924e-08
1.03736e-09
-2.865e-08
1.0179e-09
-2.9392e-08
9.97011e-10
-3.01173e-08
9.74728e-10
-3.08251e-08
9.51076e-10
-3.15142e-08
9.26078e-10
-3.21837e-08
8.9976e-10
-3.28327e-08
8.72147e-10
-3.34601e-08
8.43268e-10
-3.4065e-08
8.13149e-10
-3.46466e-08
7.81819e-10
-3.5204e-08
7.49304e-10
-3.57363e-08
7.15635e-10
-3.62427e-08
6.8084e-10
-3.67223e-08
6.44951e-10
-3.71744e-08
6.08e-10
-3.75982e-08
5.70022e-10
-3.7993e-08
5.31053e-10
-3.8358e-08
4.91132e-10
-3.86927e-08
4.50297e-10
-3.89962e-08
4.0859e-10
-3.92681e-08
3.66054e-10
-3.95078e-08
3.22734e-10
-3.97146e-08
2.78681e-10
-3.98882e-08
2.33946e-10
-4.0028e-08
1.8858e-10
-4.01336e-08
1.42643e-10
-4.02046e-08
9.61952e-11
-4.02407e-08
4.9296e-11
-4.02417e-08
2.00957e-12
-4.02072e-08
-4.55955e-11
-4.01372e-08
-9.3452e-11
-4.00314e-08
-1.41487e-10
-3.98898e-08
-1.89622e-10
-3.97124e-08
-2.37781e-10
-3.94993e-08
-2.85886e-10
-3.92504e-08
-3.33852e-10
-3.89661e-08
-3.81594e-10
-3.86466e-08
-4.29028e-10
-3.8292e-08
-4.76065e-10
-3.79029e-08
-5.22615e-10
-3.74797e-08
-5.68588e-10
-3.70227e-08
-6.13889e-10
-3.65327e-08
-6.58421e-10
-3.60102e-08
-7.02092e-10
-3.5456e-08
-7.44806e-10
-3.48709e-08
-7.86467e-10
-3.42557e-08
-8.26977e-10
-3.36113e-08
-8.66239e-10
-3.29388e-08
-9.0416e-10
-3.22392e-08
-9.40641e-10
-3.15136e-08
-9.75585e-10
-3.07633e-08
-1.0089e-09
-2.99896e-08
-1.0405e-09
-2.91937e-08
-1.07028e-09
-2.83772e-08
-1.09816e-09
-2.75414e-08
-1.12406e-09
-2.66879e-08
-1.14789e-09
-2.58184e-08
-1.16957e-09
-2.49344e-08
-1.18903e-09
-2.40376e-08
-1.20618e-09
-2.31299e-08
-1.22097e-09
-2.22131e-08
-1.23333e-09
-2.12889e-08
-1.24319e-09
-2.03592e-08
-1.2505e-09
-1.94261e-08
-1.25521e-09
-1.84915e-08
-1.25728e-09
-1.75572e-08
-1.25666e-09
-1.66255e-08
-1.25332e-09
-1.56982e-08
-1.24724e-09
-1.47775e-08
-1.23839e-09
-1.38654e-08
-1.22676e-09
-1.2964e-08
-1.21234e-09
-1.20753e-08
-1.19513e-09
-1.12014e-08
-1.17512e-09
-1.03444e-08
-1.15235e-09
-9.50625e-09
-1.12681e-09
-8.68904e-09
-1.09856e-09
-7.89473e-09
-1.06761e-09
-7.12528e-09
-1.03402e-09
-6.3826e-09
-9.97834e-10
-5.66855e-09
-9.59116e-10
-4.98496e-09
-9.17938e-10
-4.33358e-09
-8.74384e-10
-3.71608e-09
-8.28547e-10
-3.13405e-09
-7.80534e-10
-2.58902e-09
-7.30467e-10
-2.08238e-09
-6.78482e-10
-1.61541e-09
-6.24732e-10
-1.18928e-09
-5.69391e-10
-8.0498e-10
-5.12659e-10
-4.63353e-10
-4.54765e-10
-1.65029e-10
-3.95969e-10
8.95893e-11
-3.36575e-10
3.00368e-10
-2.76942e-10
4.6749e-10
-2.17492e-10
5.91519e-10
-1.58731e-10
6.7347e-10
-1.01268e-10
7.14914e-10
-4.58499e-11
7.18099e-10
6.60084e-12
6.86118e-10
5.49284e-11
6.23109e-10
9.7673e-11
5.34517e-10
1.32976e-10
4.27407e-10
1.58471e-10
3.10798e-10
1.71188e-10
1.95938e-10
1.67564e-10
9.6274e-11
1.43658e-10
2.65279e-11
9.63015e-11
2.96175e-11
4.47038e-11
-8.28459e-11
1.36163e-10
-1.93308e-10
2.46586e-10
-2.46422e-10
3.53756e-10
-2.49397e-10
4.39277e-10
-2.12306e-10
4.88468e-10
-1.44578e-10
4.90048e-10
-5.41552e-11
4.35627e-10
5.25601e-11
3.19206e-10
1.70533e-10
1.36735e-10
2.95851e-10
-1.14285e-10
4.25478e-10
-4.35113e-10
5.5706e-10
-8.26026e-10
6.88772e-10
-1.28652e-09
8.19189e-10
-1.8155e-09
9.47206e-10
-2.41135e-09
1.07197e-09
-3.07212e-09
1.19281e-09
-3.79554e-09
1.30923e-09
-4.57912e-09
1.42084e-09
-5.42021e-09
1.52736e-09
-6.31602e-09
1.62858e-09
-7.26367e-09
1.72436e-09
-8.26024e-09
1.81462e-09
-9.30275e-09
1.89931e-09
-1.03882e-08
1.97842e-09
-1.15137e-08
2.05197e-09
-1.26761e-08
2.12e-09
-1.38727e-08
2.18257e-09
-1.51003e-08
2.23974e-09
-1.63563e-08
2.29161e-09
-1.76377e-08
2.33827e-09
-1.89418e-08
2.37981e-09
-2.02659e-08
2.41634e-09
-2.16072e-08
2.44796e-09
-2.29633e-08
2.47479e-09
-2.43314e-08
2.49693e-09
-2.57091e-08
2.51449e-09
-2.7094e-08
2.52757e-09
-2.84837e-08
2.53629e-09
-2.98758e-08
2.54073e-09
-3.12681e-08
2.54101e-09
-3.26583e-08
2.53721e-09
-3.40442e-08
2.52943e-09
-3.54237e-08
2.51777e-09
-3.67948e-08
2.50229e-09
-3.81553e-08
2.4831e-09
-3.95032e-08
2.46026e-09
-4.08367e-08
2.43386e-09
-4.21537e-08
2.40396e-09
-4.34524e-08
2.37064e-09
-4.4731e-08
2.33397e-09
-4.59877e-08
2.29401e-09
-4.72206e-08
2.25083e-09
-4.84281e-08
2.20449e-09
-4.96084e-08
2.15505e-09
-5.07599e-08
2.10256e-09
-5.18809e-08
2.0471e-09
-5.29699e-08
1.98871e-09
-5.40252e-08
1.92745e-09
-5.50453e-08
1.86339e-09
-5.60288e-08
1.79659e-09
-5.6974e-08
1.72711e-09
-5.78798e-08
1.65501e-09
-5.87445e-08
1.58037e-09
-5.95669e-08
1.50324e-09
-6.03456e-08
1.42369e-09
-6.10794e-08
1.34181e-09
-6.17671e-08
1.25766e-09
-6.24073e-08
1.17133e-09
-6.29991e-08
1.08291e-09
-6.35413e-08
9.9248e-10
-6.40329e-08
9.00139e-10
-6.44728e-08
8.05985e-10
-6.48602e-08
7.1012e-10
-6.51941e-08
6.12652e-10
-6.54739e-08
5.13697e-10
-6.56987e-08
4.13375e-10
-6.58678e-08
3.11809e-10
-6.59808e-08
2.09133e-10
-6.6037e-08
1.05487e-10
-6.6036e-08
1.00931e-12
-6.59774e-08
-1.0415e-10
-6.5861e-08
-2.09836e-10
-6.56866e-08
-3.15891e-10
-6.54541e-08
-4.22147e-10
-6.51635e-08
-5.28432e-10
-6.48148e-08
-6.34571e-10
-6.44082e-08
-7.40383e-10
-6.39442e-08
-8.45682e-10
-6.34229e-08
-9.50277e-10
-6.2845e-08
-1.05397e-09
-6.2211e-08
-1.15658e-09
-6.15217e-08
-1.25789e-09
-6.07779e-08
-1.35769e-09
-5.99806e-08
-1.4558e-09
-5.91307e-08
-1.55198e-09
-5.82294e-08
-1.64604e-09
-5.72781e-08
-1.73776e-09
-5.62782e-08
-1.82693e-09
-5.52311e-08
-1.91335e-09
-5.41384e-08
-1.99679e-09
-5.3002e-08
-2.07705e-09
-5.18237e-08
-2.15393e-09
-5.06054e-08
-2.22722e-09
-4.93492e-08
-2.29671e-09
-4.80572e-08
-2.36221e-09
-4.67319e-08
-2.42353e-09
-4.53754e-08
-2.48048e-09
-4.39904e-08
-2.53288e-09
-4.25795e-08
-2.58056e-09
-4.11451e-08
-2.62335e-09
-3.96902e-08
-2.66109e-09
-3.82176e-08
-2.69362e-09
-3.67301e-08
-2.72082e-09
-3.52307e-08
-2.74255e-09
-3.37225e-08
-2.75868e-09
-3.22086e-08
-2.76911e-09
-3.06922e-08
-2.77375e-09
-2.91763e-08
-2.7725e-09
-2.76644e-08
-2.7653e-09
-2.61595e-08
-2.75209e-09
-2.46651e-08
-2.73281e-09
-2.31844e-08
-2.70746e-09
-2.17207e-08
-2.676e-09
-2.02774e-08
-2.63843e-09
-1.88578e-08
-2.59478e-09
-1.7465e-08
-2.54507e-09
-1.61025e-08
-2.48935e-09
-1.47734e-08
-2.42769e-09
-1.34808e-08
-2.36016e-09
-1.2228e-08
-2.28688e-09
-1.10178e-08
-2.20797e-09
-9.85337e-09
-2.12357e-09
-8.73748e-09
-2.03383e-09
-7.6729e-09
-1.93896e-09
-6.66228e-09
-1.83917e-09
-5.70811e-09
-1.7347e-09
-4.81274e-09
-1.62583e-09
-3.97835e-09
-1.51287e-09
-3.20691e-09
-1.39617e-09
-2.50016e-09
-1.27614e-09
-1.85961e-09
-1.15321e-09
-1.28646e-09
-1.02792e-09
-7.81583e-10
-9.00844e-10
-3.4548e-10
-7.72677e-10
2.17984e-11
-6.44218e-10
3.20713e-10
-5.16406e-10
5.52333e-10
-3.90349e-10
7.18441e-10
-2.67374e-10
8.21673e-10
-1.4908e-10
8.65685e-10
-3.74101e-11
8.55353e-10
6.526e-11
7.97016e-10
1.5601e-10
6.98749e-10
2.31245e-10
5.70654e-10
2.86568e-10
4.25128e-10
3.16715e-10
2.77027e-10
3.15665e-10
1.43572e-10
2.77111e-10
4.39201e-11
1.95953e-10
7.35385e-11
4.81846e-11
-1.31033e-10
1.42773e-10
-2.87898e-10
2.50256e-10
-3.53904e-10
3.45032e-10
-3.44175e-10
4.06284e-10
-2.73557e-10
4.17239e-10
-1.5553e-10
3.64696e-10
-1.61317e-12
2.38566e-10
1.78689e-10
3.14026e-11
3.77696e-10
-2.62006e-10
5.89261e-10
-6.45024e-10
8.08497e-10
-1.11949e-09
1.03153e-09
-1.68601e-09
1.25529e-09
-2.34418e-09
1.47736e-09
-3.09278e-09
1.69581e-09
-3.92994e-09
1.90913e-09
-4.85326e-09
2.11613e-09
-5.85993e-09
2.3159e-09
-6.94683e-09
2.50773e-09
-8.11055e-09
2.69108e-09
-9.34751e-09
2.86554e-09
-1.0654e-08
3.03085e-09
-1.20262e-08
3.18681e-09
-1.34602e-08
3.3333e-09
-1.4952e-08
3.47028e-09
-1.64978e-08
3.59776e-09
-1.80936e-08
3.71577e-09
-1.97354e-08
3.82439e-09
-2.14194e-08
3.92373e-09
-2.31417e-08
4.01391e-09
-2.48985e-08
4.09508e-09
-2.66861e-08
4.16739e-09
-2.85008e-08
4.23101e-09
-3.03389e-08
4.28612e-09
-3.2197e-08
4.33288e-09
-3.40716e-08
4.37148e-09
-3.59592e-08
4.4021e-09
-3.78565e-08
4.4249e-09
-3.97603e-08
4.44008e-09
-4.16674e-08
4.44779e-09
-4.35746e-08
4.44821e-09
-4.54788e-08
4.4415e-09
-4.73772e-08
4.42781e-09
-4.92668e-08
4.40731e-09
-5.11446e-08
4.38013e-09
-5.30079e-08
4.34643e-09
-5.4854e-08
4.30633e-09
-5.66801e-08
4.25998e-09
-5.84837e-08
4.2075e-09
-6.0262e-08
4.14901e-09
-6.20127e-08
4.08463e-09
-6.37332e-08
4.01448e-09
-6.5421e-08
3.93868e-09
-6.70739e-08
3.85733e-09
-6.86893e-08
3.77053e-09
-7.02652e-08
3.67841e-09
-7.17991e-08
3.58105e-09
-7.3289e-08
3.47857e-09
-7.47326e-08
3.37107e-09
-7.61279e-08
3.25867e-09
-7.74727e-08
3.14146e-09
-7.87652e-08
3.01956e-09
-8.00033e-08
2.89308e-09
-8.1185e-08
2.76215e-09
-8.23087e-08
2.62688e-09
-8.33724e-08
2.4874e-09
-8.43744e-08
2.34384e-09
-8.53131e-08
2.19634e-09
-8.61868e-08
2.04504e-09
-8.6994e-08
1.8901e-09
-8.77332e-08
1.73167e-09
-8.8403e-08
1.56992e-09
-8.9002e-08
1.40502e-09
-8.95291e-08
1.23716e-09
-8.99829e-08
1.06652e-09
-9.03626e-08
8.93322e-10
-9.0667e-08
7.17763e-10
-9.08952e-08
5.40068e-10
-9.10465e-08
3.60465e-10
-9.11203e-08
1.79198e-10
-9.11158e-08
-3.48321e-12
-9.10326e-08
-1.87319e-10
-9.08704e-08
-3.72039e-10
-9.06289e-08
-5.57363e-10
-9.03081e-08
-7.43003e-10
-8.99078e-08
-9.2866e-10
-8.94284e-08
-1.11403e-09
-8.887e-08
-1.29878e-09
-8.8233e-08
-1.48261e-09
-8.75181e-08
-1.66518e-09
-8.6726e-08
-1.84615e-09
-8.58574e-08
-2.02518e-09
-8.49133e-08
-2.20192e-09
-8.3895e-08
-2.37601e-09
-8.28037e-08
-2.54709e-09
-8.16409e-08
-2.71481e-09
-8.04081e-08
-2.87879e-09
-7.91072e-08
-3.03868e-09
-7.774e-08
-3.19411e-09
-7.63087e-08
-3.3447e-09
-7.48154e-08
-3.49011e-09
-7.32625e-08
-3.62995e-09
-7.16525e-08
-3.76388e-09
-6.99882e-08
-3.89155e-09
-6.82723e-08
-4.0126e-09
-6.65078e-08
-4.12669e-09
-6.46978e-08
-4.2335e-09
-6.28456e-08
-4.3327e-09
-6.09545e-08
-4.42398e-09
-5.9028e-08
-4.50704e-09
-5.70698e-08
-4.58159e-09
-5.50835e-08
-4.64736e-09
-5.30731e-08
-4.70409e-09
-5.10424e-08
-4.75154e-09
-4.89954e-08
-4.78948e-09
-4.69364e-08
-4.81771e-09
-4.48694e-08
-4.83605e-09
-4.27989e-08
-4.84432e-09
-4.0729e-08
-4.84239e-09
-3.86641e-08
-4.83013e-09
-3.66088e-08
-4.80745e-09
-3.45673e-08
-4.77427e-09
-3.25443e-08
-4.73054e-09
-3.0544e-08
-4.67624e-09
-2.85711e-08
-4.61137e-09
-2.66299e-08
-4.53596e-09
-2.47249e-08
-4.45009e-09
-2.28604e-08
-4.35382e-09
-2.10408e-08
-4.24729e-09
-1.92703e-08
-4.13065e-09
-1.75531e-08
-4.00408e-09
-1.58933e-08
-3.86781e-09
-1.42947e-08
-3.7221e-09
-1.27613e-08
-3.56723e-09
-1.12967e-08
-3.40357e-09
-9.90443e-09
-3.23148e-09
-8.58772e-09
-3.05141e-09
-7.34969e-09
-2.86386e-09
-6.19317e-09
-2.66939e-09
-5.12073e-09
-2.46862e-09
-4.13461e-09
-2.26226e-09
-3.2367e-09
-2.05112e-09
-2.4285e-09
-1.83612e-09
-1.71105e-09
-1.6183e-09
-1.08485e-09
-1.39887e-09
-5.49837e-10
-1.17923e-09
-1.05232e-10
-9.6101e-10
2.50529e-10
-7.46107e-10
5.19934e-10
-5.36778e-10
7.06556e-10
-3.35702e-10
8.15226e-10
-1.46082e-10
8.52245e-10
2.82397e-11
8.25615e-10
1.8264e-10
7.45288e-10
3.11571e-10
6.23419e-10
4.08437e-10
4.74589e-10
4.65544e-10
3.16003e-10
4.74251e-10
1.67638e-10
4.25477e-10
5.26374e-11
3.10954e-10
1.26175e-10
4.45609e-11
-1.75594e-10
1.27919e-10
-3.71256e-10
2.14205e-10
-4.40191e-10
2.75919e-10
-4.0589e-10
2.9087e-10
-2.88508e-10
2.41134e-10
-1.05792e-10
1.12436e-10
1.27084e-10
-1.06324e-10
3.97451e-10
-4.2351e-10
6.9488e-10
-8.45117e-10
1.01087e-09
-1.37513e-09
1.33851e-09
-2.01584e-09
1.67224e-09
-2.76813e-09
2.00758e-09
-3.63168e-09
2.34091e-09
-4.60525e-09
2.66936e-09
-5.68674e-09
2.99062e-09
-6.87345e-09
3.30285e-09
-8.16215e-09
3.6046e-09
-9.54917e-09
3.89475e-09
-1.10305e-08
4.17242e-09
-1.26019e-08
4.43697e-09
-1.4259e-08
4.6879e-09
-1.59971e-08
4.92489e-09
-1.78115e-08
5.14772e-09
-1.96975e-08
5.35626e-09
-2.16502e-08
5.55049e-09
-2.36649e-08
5.73044e-09
-2.57367e-08
5.89619e-09
-2.78608e-08
6.04788e-09
-3.00326e-08
6.18567e-09
-3.22473e-08
6.30975e-09
-3.45002e-08
6.42035e-09
-3.67869e-08
6.51769e-09
-3.91028e-08
6.60202e-09
-4.14435e-08
6.6736e-09
-4.38047e-08
6.73268e-09
-4.61821e-08
6.77952e-09
-4.85716e-08
6.81438e-09
-5.0969e-08
6.83752e-09
-5.33704e-08
6.8492e-09
-5.57719e-08
6.84966e-09
-5.81696e-08
6.83915e-09
-6.05596e-08
6.8179e-09
-6.29385e-08
6.78615e-09
-6.53025e-08
6.74412e-09
-6.76481e-08
6.69203e-09
-6.99718e-08
6.63008e-09
-7.22703e-08
6.55847e-09
-7.45402e-08
6.47741e-09
-7.67783e-08
6.38708e-09
-7.89813e-08
6.28766e-09
-8.11462e-08
6.17934e-09
-8.32698e-08
6.0623e-09
-8.53492e-08
5.93669e-09
-8.73813e-08
5.80269e-09
-8.93634e-08
5.66047e-09
-9.12925e-08
5.51019e-09
-9.3166e-08
5.35201e-09
-9.4981e-08
5.1861e-09
-9.6735e-08
5.01263e-09
-9.84253e-08
4.83178e-09
-1.00049e-07
4.6437e-09
-1.01605e-07
4.4486e-09
-1.03089e-07
4.24663e-09
-1.04501e-07
4.03801e-09
-1.05836e-07
3.82293e-09
-1.07094e-07
3.60158e-09
-1.08272e-07
3.3742e-09
-1.09368e-07
3.141e-09
-1.1038e-07
2.90222e-09
-1.11306e-07
2.65811e-09
-1.12145e-07
2.40892e-09
-1.12895e-07
2.15493e-09
-1.13554e-07
1.89643e-09
-1.14122e-07
1.6337e-09
-1.14595e-07
1.36707e-09
-1.14974e-07
1.09686e-09
-1.15258e-07
8.23413e-10
-1.15444e-07
5.47086e-10
-1.15533e-07
2.68248e-10
-1.15524e-07
-1.2713e-11
-1.15416e-07
-2.95396e-10
-1.15209e-07
-5.79385e-10
-1.14902e-07
-8.64253e-10
-1.14495e-07
-1.14955e-09
-1.13989e-07
-1.43483e-09
-1.13384e-07
-1.7196e-09
-1.12679e-07
-2.0034e-09
-1.11876e-07
-2.28572e-09
-1.10975e-07
-2.56606e-09
-1.09977e-07
-2.84391e-09
-1.08884e-07
-3.11872e-09
-1.07696e-07
-3.38998e-09
-1.06415e-07
-3.65713e-09
-1.05042e-07
-3.91963e-09
-1.0358e-07
-4.17694e-09
-1.0203e-07
-4.42848e-09
-1.00395e-07
-4.67372e-09
-9.86771e-08
-4.91208e-09
-9.68788e-08
-5.143e-09
-9.5003e-08
-5.36595e-09
-9.30526e-08
-5.58036e-09
-9.10308e-08
-5.78569e-09
-8.89409e-08
-5.9814e-09
-8.67866e-08
-6.16696e-09
-8.45714e-08
-6.34186e-09
-8.22993e-08
-6.50559e-09
-7.99744e-08
-6.65767e-09
-7.76007e-08
-6.79762e-09
-7.51828e-08
-6.92498e-09
-7.2725e-08
-7.03933e-09
-7.02322e-08
-7.14024e-09
-6.77089e-08
-7.22733e-09
-6.51602e-08
-7.30023e-09
-6.25911e-08
-7.3586e-09
-6.00067e-08
-7.40214e-09
-5.74121e-08
-7.43056e-09
-5.48128e-08
-7.44362e-09
-5.22141e-08
-7.44109e-09
-4.96215e-08
-7.42281e-09
-4.70403e-08
-7.38862e-09
-4.44761e-08
-7.33842e-09
-4.19345e-08
-7.27214e-09
-3.9421e-08
-7.18975e-09
-3.69411e-08
-7.09126e-09
-3.45004e-08
-6.97673e-09
-3.21042e-08
-6.84626e-09
-2.9758e-08
-6.69999e-09
-2.74672e-08
-6.53813e-09
-2.52369e-08
-6.3609e-09
-2.30724e-08
-6.16861e-09
-2.09786e-08
-5.96161e-09
-1.89604e-08
-5.7403e-09
-1.70225e-08
-5.50517e-09
-1.51693e-08
-5.25675e-09
-1.34051e-08
-4.99564e-09
-1.1734e-08
-4.72253e-09
-1.01597e-08
-4.43821e-09
-8.68549e-09
-4.14355e-09
-7.31459e-09
-3.83952e-09
-6.0496e-09
-3.52725e-09
-4.89275e-09
-3.20797e-09
-3.84576e-09
-2.88311e-09
-2.90977e-09
-2.55429e-09
-2.08528e-09
-2.22336e-09
-1.37209e-09
-1.89243e-09
-7.69111e-10
-1.56398e-09
-2.74355e-10
-1.24086e-09
1.15274e-10
-9.26407e-10
4.04111e-10
-6.24541e-10
5.97912e-10
-3.39884e-10
7.04051e-10
-7.78975e-11
7.31724e-10
1.54966e-10
6.92182e-10
3.51111e-10
5.98951e-10
5.01665e-10
4.68065e-10
5.96427e-10
3.18352e-10
6.23965e-10
1.71836e-10
5.71994e-10
5.46392e-11
4.28149e-10
1.80812e-10
3.61074e-11
-2.11702e-10
9.72118e-11
-4.32362e-10
1.47675e-10
-4.90652e-10
1.59558e-10
-4.17775e-10
1.10242e-10
-2.39194e-10
-1.86234e-11
2.30738e-11
-2.41761e-10
3.50221e-10
-5.70751e-10
7.26442e-10
-1.01443e-09
1.13856e-09
-1.57924e-09
1.57567e-09
-2.26953e-09
2.02881e-09
-3.08789e-09
2.4906e-09
-4.03537e-09
2.95505e-09
-5.11171e-09
3.41726e-09
-6.31561e-09
3.87327e-09
-7.64484e-09
4.31985e-09
-9.09642e-09
4.75442e-09
-1.06668e-08
5.17494e-09
-1.23518e-08
5.57975e-09
-1.41469e-08
5.96759e-09
-1.60474e-08
6.33748e-09
-1.80482e-08
6.68869e-09
-2.0144e-08
7.02068e-09
-2.23294e-08
7.3331e-09
-2.45989e-08
7.62573e-09
-2.69468e-08
7.89848e-09
-2.93677e-08
8.15134e-09
-3.18559e-08
8.38441e-09
-3.44059e-08
8.59781e-09
-3.7012e-08
8.79176e-09
-3.96687e-08
8.96649e-09
-4.23707e-08
9.12229e-09
-4.51124e-08
9.25945e-09
-4.78887e-08
9.37829e-09
-5.06942e-08
9.47915e-09
-5.35239e-08
9.56238e-09
-5.63727e-08
9.62832e-09
-5.92357e-08
9.67732e-09
-6.21079e-08
9.70975e-09
-6.49847e-08
9.72593e-09
-6.78612e-08
9.72622e-09
-7.0733e-08
9.71096e-09
-7.35956e-08
9.68046e-09
-7.64445e-08
9.63505e-09
-7.92754e-08
9.57505e-09
-8.20841e-08
9.50074e-09
-8.48665e-08
9.41243e-09
-8.76184e-08
9.31039e-09
-9.03359e-08
9.19491e-09
-9.30151e-08
9.06626e-09
-9.56521e-08
8.92468e-09
-9.82432e-08
8.77045e-09
-1.00785e-07
8.6038e-09
-1.03273e-07
8.42499e-09
-1.05705e-07
8.23425e-09
-1.08076e-07
8.03182e-09
-1.10384e-07
7.81793e-09
-1.12624e-07
7.59284e-09
-1.14795e-07
7.35677e-09
-1.16892e-07
7.10996e-09
-1.18913e-07
6.85267e-09
-1.20855e-07
6.58515e-09
-1.22714e-07
6.30766e-09
-1.24488e-07
6.02046e-09
-1.26174e-07
5.72382e-09
-1.27769e-07
5.41804e-09
-1.2927e-07
5.10341e-09
-1.30677e-07
4.78024e-09
-1.31984e-07
4.44885e-09
-1.33192e-07
4.10959e-09
-1.34296e-07
3.76281e-09
-1.35296e-07
3.40888e-09
-1.3619e-07
3.04819e-09
-1.36974e-07
2.68115e-09
-1.37649e-07
2.30818e-09
-1.38212e-07
1.92974e-09
-1.38661e-07
1.54628e-09
-1.38996e-07
1.15829e-09
-1.39215e-07
7.66289e-10
-1.39318e-07
3.70797e-10
-1.39303e-07
-2.76389e-11
-1.3917e-07
-4.28449e-10
-1.38918e-07
-8.3104e-10
-1.38547e-07
-1.23481e-09
-1.38058e-07
-1.63912e-09
-1.37449e-07
-2.04333e-09
-1.36722e-07
-2.44677e-09
-1.35877e-07
-2.84876e-09
-1.34914e-07
-3.2486e-09
-1.33834e-07
-3.64556e-09
-1.32639e-07
-4.03894e-09
-1.3133e-07
-4.42797e-09
-1.29908e-07
-4.81191e-09
-1.28375e-07
-5.19e-09
-1.26733e-07
-5.56146e-09
-1.24985e-07
-5.92552e-09
-1.23132e-07
-6.28139e-09
-1.21177e-07
-6.6283e-09
-1.19124e-07
-6.96545e-09
-1.16975e-07
-7.29206e-09
-1.14734e-07
-7.60736e-09
-1.12403e-07
-7.91057e-09
-1.09988e-07
-8.20093e-09
-1.07492e-07
-8.47768e-09
-1.04919e-07
-8.74008e-09
-1.02273e-07
-8.98741e-09
-9.95598e-08
-9.21896e-09
-9.67834e-08
-9.43404e-09
-9.3949e-08
-9.63201e-09
-9.10618e-08
-9.81221e-09
-8.81271e-08
-9.97404e-09
-8.51504e-08
-1.01169e-08
-8.21374e-08
-1.02403e-08
-7.9094e-08
-1.03437e-08
-7.6026e-08
-1.04266e-08
-7.29395e-08
-1.04886e-08
-6.98407e-08
-1.05293e-08
-6.6736e-08
-1.05484e-08
-6.36315e-08
-1.05456e-08
-6.05338e-08
-1.05205e-08
-5.74493e-08
-1.04731e-08
-5.43846e-08
-1.04032e-08
-5.13461e-08
-1.03106e-08
-4.83404e-08
-1.01954e-08
-4.5374e-08
-1.00576e-08
-4.24534e-08
-9.8973e-09
-3.95851e-08
-9.71459e-09
-3.67754e-08
-9.50972e-09
-3.40305e-08
-9.28297e-09
-3.13567e-08
-9.03471e-09
-2.876e-08
-8.76536e-09
-2.62461e-08
-8.47543e-09
-2.38209e-08
-8.16553e-09
-2.14898e-08
-7.83632e-09
-1.92579e-08
-7.48859e-09
-1.71304e-08
-7.12322e-09
-1.51117e-08
-6.7412e-09
-1.32063e-08
-6.34365e-09
-1.1418e-08
-5.93182e-09
-9.75038e-09
-5.50713e-09
-8.20647e-09
-5.07115e-09
-6.78876e-09
-4.62568e-09
-5.49915e-09
-4.17272e-09
-4.33888e-09
-3.71456e-09
-3.30843e-09
-3.2538e-09
-2.40747e-09
-2.7934e-09
-1.63468e-09
-2.33677e-09
-9.87703e-10
-1.88784e-09
-4.62976e-10
-1.45114e-09
-5.55789e-11
-1.03194e-09
2.40924e-10
-6.36389e-10
4.34668e-10
-2.71642e-10
5.35673e-10
5.39611e-11
5.56047e-10
3.30734e-10
5.10206e-10
5.47503e-10
4.15122e-10
6.91508e-10
2.90688e-10
7.484e-10
1.6026e-10
7.02422e-10
5.17041e-11
5.36702e-10
2.32515e-10
2.43979e-11
-2.361e-10
5.50858e-11
-4.63052e-10
5.83491e-11
-4.93913e-10
7.02917e-12
-3.66454e-10
-1.21098e-10
-1.11065e-10
-3.44189e-10
2.46165e-10
-6.76905e-10
6.8294e-10
-1.13087e-09
1.18041e-09
-1.71503e-09
1.72272e-09
-2.43597e-09
2.29661e-09
-3.29819e-09
2.89102e-09
-4.30436e-09
3.49677e-09
-5.45559e-09
4.10629e-09
-6.75164e-09
4.71331e-09
-8.1911e-09
5.31272e-09
-9.77158e-09
5.90033e-09
-1.14899e-08
6.47272e-09
-1.33421e-08
7.02714e-09
-1.53237e-08
7.56139e-09
-1.74298e-08
8.07373e-09
-1.96552e-08
8.5628e-09
-2.1994e-08
9.02756e-09
-2.44406e-08
9.46725e-09
-2.69889e-08
9.88134e-09
-2.96326e-08
1.02695e-08
-3.23656e-08
1.06315e-08
-3.51816e-08
1.09673e-08
-3.80741e-08
1.1277e-08
-4.1037e-08
1.15607e-08
-4.40639e-08
1.18186e-08
-4.71485e-08
1.20511e-08
-5.02846e-08
1.22584e-08
-5.34661e-08
1.2441e-08
-5.6687e-08
1.25991e-08
-5.99411e-08
1.27333e-08
-6.32228e-08
1.2844e-08
-6.65261e-08
1.29316e-08
-6.98453e-08
1.29966e-08
-7.3175e-08
1.30394e-08
-7.65095e-08
1.30604e-08
-7.98435e-08
1.30602e-08
-8.31717e-08
1.30391e-08
-8.64888e-08
1.29977e-08
-8.97899e-08
1.29362e-08
-9.307e-08
1.28551e-08
-9.6324e-08
1.27548e-08
-9.95472e-08
1.26357e-08
-1.02735e-07
1.24981e-08
-1.05883e-07
1.23425e-08
-1.08986e-07
1.21692e-08
-1.12039e-07
1.19786e-08
-1.1504e-07
1.17709e-08
-1.17983e-07
1.15465e-08
-1.20863e-07
1.13058e-08
-1.23678e-07
1.10491e-08
-1.26423e-07
1.07767e-08
-1.29094e-07
1.04888e-08
-1.31687e-07
1.0186e-08
-1.34199e-07
9.86837e-09
-1.36625e-07
9.53637e-09
-1.38963e-07
9.19031e-09
-1.41208e-07
8.83053e-09
-1.43358e-07
8.45738e-09
-1.45409e-07
8.07123e-09
-1.47357e-07
7.67245e-09
-1.49201e-07
7.26143e-09
-1.50936e-07
6.83857e-09
-1.5256e-07
6.4043e-09
-1.5407e-07
5.95906e-09
-1.55464e-07
5.50331e-09
-1.56739e-07
5.03754e-09
-1.57892e-07
4.56223e-09
-1.58922e-07
4.07792e-09
-1.59826e-07
3.58517e-09
-1.60602e-07
3.08454e-09
-1.61249e-07
2.57665e-09
-1.61765e-07
2.06211e-09
-1.62148e-07
1.54158e-09
-1.62397e-07
1.01575e-09
-1.62512e-07
4.85329e-10
-1.62491e-07
-4.89528e-11
-1.62333e-07
-5.8633e-10
-1.62038e-07
-1.12601e-09
-1.61605e-07
-1.66718e-09
-1.61036e-07
-2.209e-09
-1.60328e-07
-2.7506e-09
-1.59484e-07
-3.29108e-09
-1.58503e-07
-3.82954e-09
-1.57387e-07
-4.36505e-09
-1.56136e-07
-4.89663e-09
-1.54751e-07
-5.42334e-09
-1.53235e-07
-5.94416e-09
-1.51589e-07
-6.45811e-09
-1.49815e-07
-6.96416e-09
-1.47915e-07
-7.46129e-09
-1.45892e-07
-7.94846e-09
-1.43749e-07
-8.42464e-09
-1.41488e-07
-8.88877e-09
-1.39114e-07
-9.33982e-09
-1.36629e-07
-9.77675e-09
-1.34038e-07
-1.01985e-08
-1.31345e-07
-1.06041e-08
-1.28553e-07
-1.09925e-08
-1.25668e-07
-1.13627e-08
-1.22694e-07
-1.17137e-08
-1.19637e-07
-1.20445e-08
-1.16502e-07
-1.23543e-08
-1.13294e-07
-1.26421e-08
-1.10019e-07
-1.2907e-08
-1.06683e-07
-1.31482e-08
-1.03292e-07
-1.3365e-08
-9.98525e-08
-1.35564e-08
-9.63709e-08
-1.37218e-08
-9.2854e-08
-1.38606e-08
-8.93085e-08
-1.39721e-08
-8.57414e-08
-1.40558e-08
-8.21597e-08
-1.4111e-08
-7.85706e-08
-1.41375e-08
-7.49814e-08
-1.41348e-08
-7.13994e-08
-1.41025e-08
-6.7832e-08
-1.40405e-08
-6.42867e-08
-1.39485e-08
-6.07709e-08
-1.38264e-08
-5.72921e-08
-1.36742e-08
-5.38577e-08
-1.3492e-08
-5.04752e-08
-1.32799e-08
-4.71517e-08
-1.3038e-08
-4.38947e-08
-1.27668e-08
-4.07111e-08
-1.24665e-08
-3.76081e-08
-1.21377e-08
-3.45925e-08
-1.1781e-08
-3.16709e-08
-1.1397e-08
-2.88498e-08
-1.09867e-08
-2.61353e-08
-1.05508e-08
-2.35333e-08
-1.00905e-08
-2.10495e-08
-9.60704e-09
-1.8689e-08
-9.10165e-09
-1.64568e-08
-8.5759e-09
-1.43571e-08
-8.03148e-09
-1.2394e-08
-7.47029e-09
-1.05707e-08
-6.89445e-09
-8.88997e-09
-6.30637e-09
-7.35396e-09
-5.70873e-09
-5.96396e-09
-5.10456e-09
-4.72046e-09
-4.4973e-09
-3.62303e-09
-3.89084e-09
-2.67018e-09
-3.28962e-09
-1.85929e-09
-2.69873e-09
-1.18645e-09
-2.12397e-09
-6.46351e-10
-1.57204e-09
-2.32081e-10
-1.05066e-09
6.49914e-11
-5.68716e-10
2.55404e-10
-1.36451e-10
3.51783e-10
2.34355e-10
3.69058e-10
5.30226e-10
3.24728e-10
7.35836e-10
2.39245e-10
8.33883e-10
1.36586e-10
8.05081e-10
4.52035e-11
6.28083e-10
2.77718e-10
1.05323e-11
-2.46632e-10
4.9064e-12
-4.57429e-10
-4.76686e-11
-4.41338e-10
-1.72668e-10
-2.41455e-10
-3.91239e-10
1.07507e-10
-7.20812e-10
5.75737e-10
-1.17556e-09
1.13769e-09
-1.76678e-09
1.77163e-09
-2.50322e-09
2.45916e-09
-3.39133e-09
3.18472e-09
-4.43554e-09
3.93522e-09
-5.63845e-09
4.69969e-09
-7.00112e-09
5.46895e-09
-8.52318e-09
6.23538e-09
-1.02031e-08
6.99264e-09
-1.20383e-08
7.73553e-09
-1.40253e-08
8.45974e-09
-1.616e-08
9.1618e-09
-1.84375e-08
9.83887e-09
-2.08524e-08
1.04887e-08
-2.33991e-08
1.11095e-08
-2.60714e-08
1.16999e-08
-2.88629e-08
1.22588e-08
-3.17671e-08
1.27855e-08
-3.47772e-08
1.32795e-08
-3.78863e-08
1.37406e-08
-4.10874e-08
1.41685e-08
-4.43737e-08
1.45633e-08
-4.77381e-08
1.49251e-08
-5.11736e-08
1.52541e-08
-5.46733e-08
1.55508e-08
-5.82302e-08
1.58153e-08
-6.18376e-08
1.60483e-08
-6.54886e-08
1.62501e-08
-6.91766e-08
1.64213e-08
-7.2895e-08
1.65624e-08
-7.66373e-08
1.66739e-08
-8.03972e-08
1.67564e-08
-8.41682e-08
1.68105e-08
-8.79444e-08
1.68366e-08
-9.17195e-08
1.68353e-08
-9.54876e-08
1.68073e-08
-9.9243e-08
1.6753e-08
-1.0298e-07
1.66729e-08
-1.06692e-07
1.65676e-08
-1.10375e-07
1.64376e-08
-1.14023e-07
1.62833e-08
-1.1763e-07
1.61053e-08
-1.21191e-07
1.5904e-08
-1.24702e-07
1.56799e-08
-1.28157e-07