/*--------------------------------*- C++ -*----------------------------------*\
  =========                 |
  \\      /  F ield         | OpenFOAM: The Open Source CFD Toolbox
   \\    /   O peration     | Website:  https://openfoam.org
    \\  /    A nd           | Version:  7
     \\/     M anipulation  |
\*---------------------------------------------------------------------------*/
FoamFile
{
    version     2.0;
    format      ascii;
    class       volVectorField;
    location    "0.4625";
    object      U;
}
// * * * * * * * * * * * * * * * * * * * * * * * * * * * * * * * * * * * * * //

dimensions      [0 1 -1 0 0 0 0];

internalField   nonuniform List<vector> 
25600
(
(2.78987e-07 -2.76986e-07 0)
(3.11008e-06 -1.8806e-06 0)
(9.40701e-06 -2.86374e-06 0)
(1.71144e-05 -3.1569e-06 0)
(2.46983e-05 -2.99182e-06 0)
(3.12164e-05 -2.54011e-06 0)
(3.60385e-05 -1.91231e-06 0)
(3.87435e-05 -1.18014e-06 0)
(3.90634e-05 -3.89899e-07 0)
(3.68364e-05 4.28718e-07 0)
(3.1976e-05 1.25578e-06 0)
(2.44497e-05 2.0776e-06 0)
(1.42645e-05 2.88479e-06 0)
(1.45618e-06 3.67103e-06 0)
(-1.39174e-05 4.43189e-06 0)
(-3.17822e-05 5.16373e-06 0)
(-5.20516e-05 5.86411e-06 0)
(-7.46312e-05 6.53184e-06 0)
(-9.94199e-05 7.166e-06 0)
(-0.000126312 7.76617e-06 0)
(-0.0001552 8.3321e-06 0)
(-0.000185971 8.86366e-06 0)
(-0.000218517 9.36102e-06 0)
(-0.000252724 9.82494e-06 0)
(-0.000288483 1.02557e-05 0)
(-0.000325685 1.06543e-05 0)
(-0.000364221 1.10208e-05 0)
(-0.000403983 1.13562e-05 0)
(-0.000444869 1.16612e-05 0)
(-0.000486774 1.19369e-05 0)
(-0.0005296 1.21841e-05 0)
(-0.000573247 1.24032e-05 0)
(-0.00061762 1.2595e-05 0)
(-0.000662625 1.27603e-05 0)
(-0.000708171 1.28998e-05 0)
(-0.00075417 1.30144e-05 0)
(-0.000800535 1.31049e-05 0)
(-0.000847182 1.3172e-05 0)
(-0.00089403 1.32164e-05 0)
(-0.000940997 1.32388e-05 0)
(-0.000988006 1.32395e-05 0)
(-0.00103498 1.32191e-05 0)
(-0.00108185 1.31782e-05 0)
(-0.00112854 1.31172e-05 0)
(-0.00117497 1.30368e-05 0)
(-0.00122109 1.29372e-05 0)
(-0.00126682 1.2819e-05 0)
(-0.00131209 1.26826e-05 0)
(-0.00135685 1.25284e-05 0)
(-0.00140103 1.2357e-05 0)
(-0.00144456 1.21684e-05 0)
(-0.00148739 1.19631e-05 0)
(-0.00152945 1.17412e-05 0)
(-0.00157069 1.15032e-05 0)
(-0.00161105 1.12496e-05 0)
(-0.00165048 1.09804e-05 0)
(-0.00168891 1.06958e-05 0)
(-0.0017263 1.03961e-05 0)
(-0.00176259 1.00813e-05 0)
(-0.00179773 9.75208e-06 0)
(-0.00183167 9.40852e-06 0)
(-0.00186435 9.051e-06 0)
(-0.00189573 8.67994e-06 0)
(-0.00192577 8.29552e-06 0)
(-0.0019544 7.89806e-06 0)
(-0.0019816 7.48796e-06 0)
(-0.00200731 7.06535e-06 0)
(-0.00203149 6.63074e-06 0)
(-0.0020541 6.18464e-06 0)
(-0.00207509 5.72721e-06 0)
(-0.00209444 5.25892e-06 0)
(-0.00211211 4.78032e-06 0)
(-0.00212805 4.2917e-06 0)
(-0.00214224 3.79372e-06 0)
(-0.00215464 3.28702e-06 0)
(-0.00216522 2.77183e-06 0)
(-0.00217396 2.24886e-06 0)
(-0.00218084 1.71904e-06 0)
(-0.00218582 1.18284e-06 0)
(-0.00218889 6.40824e-07 0)
(-0.00219003 9.38198e-08 0)
(-0.00218923 -4.57463e-07 0)
(-0.00218647 -1.01223e-06 0)
(-0.00218174 -1.56948e-06 0)
(-0.00217504 -2.12837e-06 0)
(-0.00216637 -2.68808e-06 0)
(-0.00215571 -3.24753e-06 0)
(-0.00214309 -3.80565e-06 0)
(-0.0021285 -4.36159e-06 0)
(-0.00211196 -4.91437e-06 0)
(-0.00209347 -5.46302e-06 0)
(-0.00207306 -6.00657e-06 0)
(-0.00205075 -6.5438e-06 0)
(-0.00202657 -7.07349e-06 0)
(-0.00200053 -7.59464e-06 0)
(-0.00197268 -8.10619e-06 0)
(-0.00194305 -8.60692e-06 0)
(-0.00191168 -9.09564e-06 0)
(-0.00187862 -9.57123e-06 0)
(-0.00184392 -1.00325e-05 0)
(-0.00180762 -1.04784e-05 0)
(-0.0017698 -1.09076e-05 0)
(-0.0017305 -1.1319e-05 0)
(-0.00168979 -1.17112e-05 0)
(-0.00164774 -1.20834e-05 0)
(-0.00160443 -1.24345e-05 0)
(-0.00155993 -1.27635e-05 0)
(-0.00151432 -1.3069e-05 0)
(-0.00146768 -1.335e-05 0)
(-0.0014201 -1.36058e-05 0)
(-0.00137167 -1.38356e-05 0)
(-0.00132249 -1.40381e-05 0)
(-0.00127265 -1.42127e-05 0)
(-0.00122225 -1.43585e-05 0)
(-0.00117138 -1.44747e-05 0)
(-0.00112017 -1.45605e-05 0)
(-0.00106871 -1.46153e-05 0)
(-0.0010171 -1.46387e-05 0)
(-0.000965472 -1.46303e-05 0)
(-0.000913925 -1.45894e-05 0)
(-0.000862573 -1.45155e-05 0)
(-0.000811532 -1.44086e-05 0)
(-0.000760917 -1.42684e-05 0)
(-0.000710844 -1.40948e-05 0)
(-0.000661428 -1.38873e-05 0)
(-0.000612786 -1.36463e-05 0)
(-0.000565033 -1.33718e-05 0)
(-0.000518284 -1.30641e-05 0)
(-0.000472654 -1.27231e-05 0)
(-0.000428255 -1.23493e-05 0)
(-0.000385199 -1.19433e-05 0)
(-0.000343596 -1.15056e-05 0)
(-0.000303553 -1.10365e-05 0)
(-0.000265175 -1.05367e-05 0)
(-0.000228563 -1.00071e-05 0)
(-0.000193817 -9.4487e-06 0)
(-0.000161031 -8.86249e-06 0)
(-0.000130296 -8.24972e-06 0)
(-0.000101695 -7.61171e-06 0)
(-7.53099e-05 -6.94999e-06 0)
(-5.12127e-05 -6.26625e-06 0)
(-2.94698e-05 -5.56228e-06 0)
(-1.01389e-05 -4.84028e-06 0)
(6.73154e-06 -4.10301e-06 0)
(2.11039e-05 -3.35366e-06 0)
(3.29538e-05 -2.59585e-06 0)
(4.22724e-05 -1.8339e-06 0)
(4.90688e-05 -1.07323e-06 0)
(5.33744e-05 -3.20752e-07 0)
(5.52476e-05 4.14689e-07 0)
(5.47818e-05 1.12142e-06 0)
(5.21143e-05 1.78381e-06 0)
(4.74394e-05 2.38015e-06 0)
(4.10268e-05 2.87925e-06 0)
(3.32493e-05 3.23513e-06 0)
(2.46204e-05 3.38023e-06 0)
(1.58376e-05 3.21789e-06 0)
(7.84639e-06 2.61211e-06 0)
(2.00875e-06 1.42035e-06 0)
(-8.39539e-08 -8.44914e-08 0)
(1.88294e-06 -3.10941e-06 0)
(9.59022e-06 -9.58581e-06 0)
(2.31214e-05 -1.32744e-05 0)
(3.86527e-05 -1.41702e-05 0)
(5.32903e-05 -1.29757e-05 0)
(6.50479e-05 -1.0304e-05 0)
(7.24273e-05 -6.6162e-06 0)
(7.43321e-05 -2.25128e-06 0)
(7.00011e-05 2.54738e-06 0)
(5.89323e-05 7.60424e-06 0)
(4.0819e-05 1.27921e-05 0)
(1.55051e-05 1.80172e-05 0)
(-1.70509e-05 2.32095e-05 0)
(-5.68031e-05 2.83174e-05 0)
(-0.000103637 3.33024e-05 0)
(-0.000157387 3.81353e-05 0)
(-0.000217847 4.27943e-05 0)
(-0.00028478 4.72634e-05 0)
(-0.000357926 5.15314e-05 0)
(-0.00043701 5.55901e-05 0)
(-0.000521744 5.94347e-05 0)
(-0.000611829 6.30618e-05 0)
(-0.000706965 6.64704e-05 0)
(-0.000806847 6.96602e-05 0)
(-0.000911168 7.26333e-05 0)
(-0.00101962 7.53909e-05 0)
(-0.00113191 7.79367e-05 0)
(-0.00124773 8.02727e-05 0)
(-0.00136679 8.24038e-05 0)
(-0.0014888 8.43334e-05 0)
(-0.00161347 8.60663e-05 0)
(-0.00174052 8.76069e-05 0)
(-0.00186967 8.89597e-05 0)
(-0.00200066 9.01292e-05 0)
(-0.00213323 9.11199e-05 0)
(-0.00226712 9.19362e-05 0)
(-0.00240208 9.25828e-05 0)
(-0.00253787 9.3064e-05 0)
(-0.00267424 9.33838e-05 0)
(-0.00281096 9.35466e-05 0)
(-0.00294782 9.35561e-05 0)
(-0.00308457 9.3416e-05 0)
(-0.00322102 9.313e-05 0)
(-0.00335694 9.27014e-05 0)
(-0.00349214 9.21335e-05 0)
(-0.0036264 9.14295e-05 0)
(-0.00375953 9.05921e-05 0)
(-0.00389133 8.96242e-05 0)
(-0.00402162 8.85288e-05 0)
(-0.00415021 8.73085e-05 0)
(-0.00427692 8.59659e-05 0)
(-0.00440157 8.45033e-05 0)
(-0.00452398 8.2923e-05 0)
(-0.00464399 8.12272e-05 0)
(-0.00476142 7.94182e-05 0)
(-0.00487612 7.74979e-05 0)
(-0.00498791 7.54682e-05 0)
(-0.00509664 7.33312e-05 0)
(-0.00520215 7.10888e-05 0)
(-0.00530429 6.87433e-05 0)
(-0.00540292 6.6297e-05 0)
(-0.00549788 6.37519e-05 0)
(-0.00558903 6.11105e-05 0)
(-0.00567624 5.8375e-05 0)
(-0.00575937 5.55476e-05 0)
(-0.00583828 5.26309e-05 0)
(-0.00591285 4.96274e-05 0)
(-0.00598295 4.65398e-05 0)
(-0.00604846 4.33711e-05 0)
(-0.00610928 4.01245e-05 0)
(-0.00616528 3.68027e-05 0)
(-0.00621636 3.34093e-05 0)
(-0.00626242 2.99478e-05 0)
(-0.00630337 2.64217e-05 0)
(-0.00633911 2.28353e-05 0)
(-0.00636956 1.91924e-05 0)
(-0.00639464 1.54973e-05 0)
(-0.00641429 1.17549e-05 0)
(-0.00642843 7.96993e-06 0)
(-0.00643702 4.1473e-06 0)
(-0.00643999 2.92258e-07 0)
(-0.00643732 -3.58987e-06 0)
(-0.00642897 -7.49346e-06 0)
(-0.0064149 -1.14123e-05 0)
(-0.00639511 -1.53402e-05 0)
(-0.0063696 -1.92712e-05 0)
(-0.00633835 -2.31985e-05 0)
(-0.00630139 -2.71151e-05 0)
(-0.00625873 -3.10142e-05 0)
(-0.00621041 -3.48891e-05 0)
(-0.00615647 -3.87322e-05 0)
(-0.00609696 -4.25364e-05 0)
(-0.00603195 -4.62942e-05 0)
(-0.00596151 -4.99979e-05 0)
(-0.00588573 -5.36394e-05 0)
(-0.00580471 -5.72112e-05 0)
(-0.00571855 -6.07055e-05 0)
(-0.00562737 -6.41142e-05 0)
(-0.0055313 -6.74294e-05 0)
(-0.0054305 -7.0643e-05 0)
(-0.0053251 -7.37474e-05 0)
(-0.00521529 -7.67344e-05 0)
(-0.00510123 -7.9596e-05 0)
(-0.00498311 -8.23244e-05 0)
(-0.00486113 -8.49121e-05 0)
(-0.00473551 -8.73518e-05 0)
(-0.00460646 -8.96362e-05 0)
(-0.00447421 -9.17581e-05 0)
(-0.00433901 -9.37105e-05 0)
(-0.00420111 -9.5487e-05 0)
(-0.00406076 -9.7081e-05 0)
(-0.00391823 -9.84866e-05 0)
(-0.00377381 -9.96981e-05 0)
(-0.00362777 -0.00010071 0)
(-0.00348041 -0.000101517 0)
(-0.00333203 -0.000102115 0)
(-0.00318293 -0.000102499 0)
(-0.00303343 -0.000102665 0)
(-0.00288384 -0.000102612 0)
(-0.00273448 -0.000102334 0)
(-0.00258568 -0.000101831 0)
(-0.00243776 -0.000101101 0)
(-0.00229105 -0.000100141 0)
(-0.00214589 -9.89516e-05 0)
(-0.00200259 -9.75321e-05 0)
(-0.00186151 -9.58827e-05 0)
(-0.00172296 -9.40044e-05 0)
(-0.00158726 -9.18989e-05 0)
(-0.00145476 -8.95683e-05 0)
(-0.00132576 -8.70154e-05 0)
(-0.00120058 -8.42437e-05 0)
(-0.00107954 -8.1257e-05 0)
(-0.000962926 -7.80602e-05 0)
(-0.000851045 -7.46589e-05 0)
(-0.00074418 -7.10595e-05 0)
(-0.000642604 -6.72696e-05 0)
(-0.000546581 -6.32974e-05 0)
(-0.00045636 -5.91527e-05 0)
(-0.000372173 -5.48461e-05 0)
(-0.000294237 -5.03896e-05 0)
(-0.000222747 -4.57969e-05 0)
(-0.000157877 -4.10836e-05 0)
(-9.97748e-05 -3.62676e-05 0)
(-4.85592e-05 -3.13699e-05 0)
(-4.31437e-06 -2.64144e-05 0)
(3.29152e-05 -2.14298e-05 0)
(6.31316e-05 -1.64499e-05 0)
(8.63917e-05 -1.15158e-05 0)
(0.000102818 -6.67746e-06 0)
(0.000112614 -1.99674e-06 0)
(0.000116079 2.44844e-06 0)
(0.000113634 6.5584e-06 0)
(0.000105849 1.02041e-05 0)
(9.34805e-05 1.32158e-05 0)
(7.75182e-05 1.53685e-05 0)
(5.92417e-05 1.63667e-05 0)
(4.02491e-05 1.58377e-05 0)
(2.24792e-05 1.33401e-05 0)
(8.50006e-06 8.50567e-06 0)
(1.41826e-06 2.00645e-06 0)
(2.86706e-06 -9.40845e-06 0)
(1.32923e-05 -2.31224e-05 0)
(3.02213e-05 -3.01873e-05 0)
(4.85456e-05 -3.12111e-05 0)
(6.46202e-05 -2.74509e-05 0)
(7.58943e-05 -2.00931e-05 0)
(8.0338e-05 -1.01188e-05 0)
(7.63917e-05 1.69721e-06 0)
(6.29208e-05 1.47603e-05 0)
(3.9138e-05 2.86174e-05 0)
(4.53274e-06 4.29245e-05 0)
(-4.11845e-05 5.74186e-05 0)
(-9.81272e-05 7.18983e-05 0)
(-0.000166271 8.62091e-05 0)
(-0.000245481 0.000100233 0)
(-0.000335537 0.000113878 0)
(-0.00043615 0.000127076 0)
(-0.000546979 0.000139774 0)
(-0.00066764 0.000151932 0)
(-0.000797721 0.000163523 0)
(-0.000936784 0.000174526 0)
(-0.00108438 0.000184929 0)
(-0.00124003 0.000194722 0)
(-0.00140327 0.000203904 0)
(-0.00157363 0.000212475 0)
(-0.00175062 0.000220437 0)
(-0.00193377 0.000227797 0)
(-0.00212261 0.000234562 0)
(-0.00231666 0.00024074 0)
(-0.00251546 0.000246342 0)
(-0.00271857 0.000251378 0)
(-0.00292552 0.000255859 0)
(-0.00313588 0.000259799 0)
(-0.00334921 0.000263208 0)
(-0.00356511 0.000266099 0)
(-0.00378314 0.000268485 0)
(-0.00400291 0.000270376 0)
(-0.00422402 0.000271785 0)
(-0.00444608 0.000272724 0)
(-0.00466871 0.000273203 0)
(-0.00489156 0.000273234 0)
(-0.00511424 0.000272827 0)
(-0.00533641 0.000271993 0)
(-0.00555773 0.000270741 0)
(-0.00577786 0.00026908 0)
(-0.00599646 0.00026702 0)
(-0.00621322 0.000264569 0)
(-0.00642781 0.000261735 0)
(-0.00663992 0.000258526 0)
(-0.00684926 0.00025495 0)
(-0.00705552 0.000251015 0)
(-0.00725841 0.000246727 0)
(-0.00745765 0.000242093 0)
(-0.00765295 0.00023712 0)
(-0.00784404 0.000231814 0)
(-0.00803065 0.000226182 0)
(-0.00821251 0.00022023 0)
(-0.00838937 0.000213963 0)
(-0.00856098 0.000207389 0)
(-0.00872707 0.000200513 0)
(-0.00888742 0.000193342 0)
(-0.00904177 0.000185883 0)
(-0.00918991 0.000178143 0)
(-0.0093316 0.000170128 0)
(-0.00946662 0.000161845 0)
(-0.00959477 0.000153303 0)
(-0.00971582 0.000144508 0)
(-0.00982958 0.000135469 0)
(-0.00993586 0.000126195 0)
(-0.0100345 0.000116695 0)
(-0.0101252 0.000106978 0)
(-0.010208 9.70537e-05 0)
(-0.0102825 8.69333e-05 0)
(-0.0103487 7.66276e-05 0)
(-0.0104065 6.61481e-05 0)
(-0.0104556 5.55071e-05 0)
(-0.010496 4.47172e-05 0)
(-0.0105276 3.37921e-05 0)
(-0.0105501 2.2746e-05 0)
(-0.0105637 1.15937e-05 0)
(-0.0105681 3.50383e-07 0)
(-0.0105634 -1.0968e-05 0)
(-0.0105494 -2.23449e-05 0)
(-0.0105261 -3.37632e-05 0)
(-0.0104936 -4.52048e-05 0)
(-0.0104517 -5.66511e-05 0)
(-0.0104006 -6.80835e-05 0)
(-0.0103401 -7.94822e-05 0)
(-0.0102705 -9.08271e-05 0)
(-0.0101916 -0.000102098 0)
(-0.0101037 -0.000113273 0)
(-0.0100067 -0.000124332 0)
(-0.00990081 -0.000135253 0)
(-0.00978612 -0.000146013 0)
(-0.00966279 -0.000156591 0)
(-0.00953096 -0.000166963 0)
(-0.00939083 -0.000177107 0)
(-0.00924257 -0.000187001 0)
(-0.00908641 -0.00019662 0)
(-0.00892258 -0.000205943 0)
(-0.00875134 -0.000214946 0)
(-0.00857294 -0.000223607 0)
(-0.00838769 -0.000231903 0)
(-0.00819587 -0.000239812 0)
(-0.00799783 -0.000247312 0)
(-0.00779389 -0.000254381 0)
(-0.00758441 -0.000261 0)
(-0.00736977 -0.000267147 0)
(-0.00715036 -0.000272803 0)
(-0.00692657 -0.000277949 0)
(-0.00669884 -0.000282567 0)
(-0.00646759 -0.000286639 0)
(-0.00623327 -0.000290149 0)
(-0.00599634 -0.000293082 0)
(-0.00575728 -0.000295423 0)
(-0.00551655 -0.00029716 0)
(-0.00527466 -0.00029828 0)
(-0.0050321 -0.000298773 0)
(-0.00478939 -0.000298629 0)
(-0.00454704 -0.000297841 0)
(-0.00430556 -0.000296402 0)
(-0.00406549 -0.000294307 0)
(-0.00382735 -0.000291553 0)
(-0.00359167 -0.000288137 0)
(-0.00335898 -0.00028406 0)
(-0.00312981 -0.000279322 0)
(-0.00290469 -0.000273928 0)
(-0.00268414 -0.000267881 0)
(-0.00246868 -0.000261189 0)
(-0.00225882 -0.000253861 0)
(-0.00205507 -0.000245907 0)
(-0.00185791 -0.00023734 0)
(-0.00166783 -0.000228174 0)
(-0.00148529 -0.000218428 0)
(-0.00131074 -0.000208121 0)
(-0.00114462 -0.000197275 0)
(-0.000987345 -0.000185917 0)
(-0.000839293 -0.000174076 0)
(-0.00070083 -0.000161785 0)
(-0.00057229 -0.000149079 0)
(-0.000453971 -0.000136003 0)
(-0.000346134 -0.000122603 0)
(-0.000248997 -0.000108935 0)
(-0.000162728 -9.5061e-05 0)
(-8.74392e-05 -8.10544e-05 0)
(-2.31774e-05 -6.7001e-05 0)
(3.00874e-05 -5.30021e-05 0)
(7.24735e-05 -3.91779e-05 0)
(0.000104204 -2.56735e-05 0)
(0.000125627 -1.26653e-05 0)
(0.000137239 -3.70191e-07 0)
(0.000139713 1.09427e-05 0)
(0.000133937 2.09373e-05 0)
(0.000121054 2.9192e-05 0)
(0.000102507 3.51795e-05 0)
(8.00931e-05 3.82542e-05 0)
(5.59611e-05 3.76633e-05 0)
(3.25975e-05 3.26074e-05 0)
(1.33246e-05 2.248e-05 0)
(2.60466e-06 7.83556e-06 0)
(3.16783e-06 -1.71328e-05 0)
(1.42254e-05 -3.8688e-05 0)
(3.13306e-05 -4.85296e-05 0)
(4.85614e-05 -4.84087e-05 0)
(6.18001e-05 -4.02917e-05 0)
(6.81575e-05 -2.59975e-05 0)
(6.52874e-05 -7.07664e-06 0)
(5.13388e-05 1.52048e-05 0)
(2.4924e-05 3.98358e-05 0)
(-1.4953e-05 6.60205e-05 0)
(-6.89647e-05 9.31337e-05 0)
(-0.000137516 0.000120687 0)
(-0.000220791 0.000148296 0)
(-0.000318798 0.000175662 0)
(-0.000431401 0.00020255 0)
(-0.000558346 0.000228776 0)
(-0.000699287 0.000254198 0)
(-0.000853804 0.000278707 0)
(-0.00102142 0.000302219 0)
(-0.00120161 0.000324672 0)
(-0.00139381 0.00034602 0)
(-0.00159743 0.000366232 0)
(-0.00181188 0.000385287 0)
(-0.00203653 0.000403174 0)
(-0.00227075 0.000419889 0)
(-0.00251392 0.000435436 0)
(-0.0027654 0.00044982 0)
(-0.00302456 0.000463054 0)
(-0.00329078 0.000475151 0)
(-0.00356344 0.000486128 0)
(-0.00384192 0.000496005 0)
(-0.00412561 0.000504801 0)
(-0.00441394 0.000512538 0)
(-0.00470631 0.000519237 0)
(-0.00500215 0.000524921 0)
(-0.0053009 0.000529613 0)
(-0.00560201 0.000533335 0)
(-0.00590493 0.000536108 0)
(-0.00620915 0.000537955 0)
(-0.00651415 0.000538897 0)
(-0.00681941 0.000538955 0)
(-0.00712445 0.000538148 0)
(-0.00742878 0.000536497 0)
(-0.00773193 0.00053402 0)
(-0.00803343 0.000530736 0)
(-0.00833284 0.000526661 0)
(-0.0086297 0.000521812 0)
(-0.00892358 0.000516207 0)
(-0.00921406 0.00050986 0)
(-0.00950071 0.000502786 0)
(-0.00978314 0.000495 0)
(-0.0100609 0.000486516 0)
(-0.0103337 0.000477348 0)
(-0.010601 0.000467508 0)
(-0.0108626 0.00045701 0)
(-0.011118 0.000445867 0)
(-0.0113669 0.00043409 0)
(-0.0116089 0.000421693 0)
(-0.0118436 0.000408689 0)
(-0.0120708 0.000395089 0)
(-0.0122901 0.000380908 0)
(-0.0125012 0.000366158 0)
(-0.0127037 0.000350853 0)
(-0.0128973 0.000335008 0)
(-0.0130819 0.000318636 0)
(-0.0132569 0.000301754 0)
(-0.0134222 0.000284375 0)
(-0.0135776 0.000266518 0)
(-0.0137226 0.000248199 0)
(-0.0138572 0.000229436 0)
(-0.0139809 0.000210249 0)
(-0.0140937 0.000190658 0)
(-0.0141952 0.000170683 0)
(-0.0142854 0.000150347 0)
(-0.0143639 0.000129673 0)
(-0.0144306 0.000108685 0)
(-0.0144854 8.74083e-05 0)
(-0.014528 6.58699e-05 0)
(-0.0145584 4.40978e-05 0)
(-0.0145765 2.21211e-05 0)
(-0.014582 -2.97627e-08 0)
(-0.014575 -2.23235e-05 0)
(-0.0145554 -4.47271e-05 0)
(-0.0145231 -6.72069e-05 0)
(-0.0144781 -8.97277e-05 0)
(-0.0144204 -0.000112253 0)
(-0.01435 -0.000134746 0)
(-0.014267 -0.000157168 0)
(-0.0141714 -0.000179479 0)
(-0.0140632 -0.00020164 0)
(-0.0139426 -0.00022361 0)
(-0.0138097 -0.000245345 0)
(-0.0136646 -0.000266805 0)
(-0.0135076 -0.000287946 0)
(-0.0133388 -0.000308724 0)
(-0.0131584 -0.000329094 0)
(-0.0129667 -0.000349014 0)
(-0.0127639 -0.000368437 0)
(-0.0125504 -0.000387319 0)
(-0.0123264 -0.000405617 0)
(-0.0120923 -0.000423284 0)
(-0.0118486 -0.000440277 0)
(-0.0115954 -0.000456553 0)
(-0.0113334 -0.000472068 0)
(-0.0110628 -0.000486779 0)
(-0.0107843 -0.000500645 0)
(-0.0104982 -0.000513626 0)
(-0.0102051 -0.000525681 0)
(-0.00990549 -0.000536774 0)
(-0.00959994 -0.000546867 0)
(-0.00928902 -0.000555925 0)
(-0.00897331 -0.000563914 0)
(-0.00865341 -0.000570803 0)
(-0.00832996 -0.000576563 0)
(-0.00800359 -0.000581165 0)
(-0.00767494 -0.000584585 0)
(-0.0073447 -0.0005868 0)
(-0.00701352 -0.000587789 0)
(-0.00668211 -0.000587534 0)
(-0.00635116 -0.00058602 0)
(-0.00602137 -0.000583236 0)
(-0.00569345 -0.000579172 0)
(-0.00536811 -0.000573822 0)
(-0.00504606 -0.000567182 0)
(-0.00472803 -0.000559253 0)
(-0.00441473 -0.000550038 0)
(-0.00410686 -0.000539544 0)
(-0.00380512 -0.000527782 0)
(-0.00351023 -0.000514765 0)
(-0.00322285 -0.000500512 0)
(-0.00294367 -0.000485046 0)
(-0.00267335 -0.000468391 0)
(-0.00241253 -0.000450579 0)
(-0.00216182 -0.000431646 0)
(-0.00192184 -0.000411631 0)
(-0.00169315 -0.000390582 0)
(-0.0014763 -0.000368551 0)
(-0.00127181 -0.000345597 0)
(-0.00108014 -0.000321786 0)
(-0.000901724 -0.000297194 0)
(-0.000736957 -0.000271907 0)
(-0.000586168 -0.00024602 0)
(-0.000449629 -0.000219645 0)
(-0.000327546 -0.000192907 0)
(-0.000220046 -0.000165954 0)
(-0.000127166 -0.000138954 0)
(-4.88426e-05 -0.000112108 0)
(1.51064e-05 -8.5648e-05 0)
(6.49997e-05 -5.98548e-05 0)
(0.000101316 -3.50623e-05 0)
(0.000124719 -1.16741e-05 0)
(0.000136092 9.82001e-06 0)
(0.00013657 2.88238e-05 0)
(0.000127577 4.46123e-05 0)
(0.000110875 5.6311e-05 0)
(8.86014e-05 6.28885e-05 0)
(6.32567e-05 6.31809e-05 0)
(3.76972e-05 5.59771e-05 0)
(1.58294e-05 4.02514e-05 0)
(3.2072e-06 1.58126e-05 0)
(3.01538e-06 -2.47582e-05 0)
(1.30886e-05 -5.34131e-05 0)
(2.76986e-05 -6.46867e-05 0)
(4.06484e-05 -6.16813e-05 0)
(4.75896e-05 -4.71935e-05 0)
(4.54349e-05 -2.37173e-05 0)
(3.16609e-05 6.61322e-06 0)
(4.24925e-06 4.20251e-05 0)
(-3.83433e-05 8.10711e-05 0)
(-9.72499e-05 0.000122582 0)
(-0.000173256 0.00016562 0)
(-0.000266852 0.000209434 0)
(-0.000378281 0.000253426 0)
(-0.00050758 0.000297118 0)
(-0.000654616 0.000340133 0)
(-0.000819115 0.000382168 0)
(-0.00100069 0.000422987 0)
(-0.00119886 0.000462405 0)
(-0.00141307 0.000500278 0)
(-0.0016427 0.000536497 0)
(-0.0018871 0.000570979 0)
(-0.00214556 0.000603666 0)
(-0.00241735 0.000634519 0)
(-0.00270174 0.000663511 0)
(-0.00299796 0.000690631 0)
(-0.00330525 0.000715878 0)
(-0.00362283 0.000739258 0)
(-0.00394994 0.000760784 0)
(-0.00428581 0.000780477 0)
(-0.00462967 0.000798359 0)
(-0.00498077 0.000814458 0)
(-0.00533837 0.000828803 0)
(-0.00570172 0.000841427 0)
(-0.0060701 0.000852362 0)
(-0.0064428 0.000861643 0)
(-0.00681913 0.000869304 0)
(-0.00719838 0.00087538 0)
(-0.0075799 0.000879905 0)
(-0.00796301 0.000882914 0)
(-0.00834708 0.000884441 0)
(-0.00873146 0.000884517 0)
(-0.00911554 0.000883176 0)
(-0.00949871 0.000880448 0)
(-0.00988037 0.000876364 0)
(-0.0102599 0.000870953 0)
(-0.0106368 0.000864242 0)
(-0.0110105 0.00085626 0)
(-0.0113804 0.000847032 0)
(-0.011746 0.000836584 0)
(-0.0121068 0.000824941 0)
(-0.0124622 0.000812125 0)
(-0.0128118 0.000798161 0)
(-0.013155 0.000783071 0)
(-0.0134913 0.000766877 0)
(-0.0138204 0.000749601 0)
(-0.0141416 0.000731263 0)
(-0.0144546 0.000711884 0)
(-0.014759 0.000691487 0)
(-0.0150541 0.000670091 0)
(-0.0153398 0.000647719 0)
(-0.0156154 0.000624392 0)
(-0.0158807 0.000600133 0)
(-0.0161351 0.000574965 0)
(-0.0163784 0.00054891 0)
(-0.0166102 0.000521994 0)
(-0.01683 0.000494242 0)
(-0.0170375 0.00046568 0)
(-0.0172325 0.000436336 0)
(-0.0174145 0.000406238 0)
(-0.0175832 0.000375417 0)
(-0.0177383 0.000343904 0)
(-0.0178796 0.000311733 0)
(-0.0180068 0.000278939 0)
(-0.0181196 0.000245557 0)
(-0.0182178 0.000211628 0)
(-0.0183011 0.00017719 0)
(-0.0183694 0.000142285 0)
(-0.0184224 0.000106959 0)
(-0.01846 7.12571e-05 0)
(-0.0184821 3.52264e-05 0)
(-0.0184885 -1.08244e-06 0)
(-0.0184792 -3.76179e-05 0)
(-0.018454 -7.43265e-05 0)
(-0.0184128 -0.000111152 0)
(-0.0183558 -0.000148038 0)
(-0.0182827 -0.000184924 0)
(-0.0181938 -0.00022175 0)
(-0.0180889 -0.000258453 0)
(-0.0179683 -0.000294968 0)
(-0.017832 -0.000331231 0)
(-0.01768 -0.000367174 0)
(-0.0175127 -0.000402728 0)
(-0.0173301 -0.000437825 0)
(-0.0171325 -0.000472395 0)
(-0.0169201 -0.000506366 0)
(-0.0166933 -0.000539666 0)
(-0.0164522 -0.000572223 0)
(-0.0161974 -0.000603965 0)
(-0.015929 -0.00063482 0)
(-0.0156476 -0.000664714 0)
(-0.0153536 -0.000693577 0)
(-0.0150474 -0.000721335 0)
(-0.0147295 -0.000747919 0)
(-0.0144004 -0.000773258 0)
(-0.0140607 -0.000797284 0)
(-0.013711 -0.000819929 0)
(-0.0133519 -0.000841128 0)
(-0.0129839 -0.000860816 0)
(-0.0126079 -0.000878933 0)
(-0.0122244 -0.00089542 0)
(-0.0118341 -0.000910218 0)
(-0.0114379 -0.000923276 0)
(-0.0110364 -0.00093454 0)
(-0.0106304 -0.000943964 0)
(-0.0102208 -0.000951504 0)
(-0.00980833 -0.000957119 0)
(-0.0093938 -0.000960772 0)
(-0.00897808 -0.000962431 0)
(-0.00856203 -0.000962068 0)
(-0.0081465 -0.000959658 0)
(-0.00773237 -0.000955183 0)
(-0.00732053 -0.000948629 0)
(-0.00691185 -0.000939985 0)
(-0.00650722 -0.000929248 0)
(-0.00610752 -0.000916419 0)
(-0.00571365 -0.000901504 0)
(-0.00532648 -0.000884516 0)
(-0.00494688 -0.000865473 0)
(-0.00457571 -0.0008444 0)
(-0.00421381 -0.000821327 0)
(-0.00386203 -0.000796291 0)
(-0.00352117 -0.000769339 0)
(-0.00319202 -0.000740521 0)
(-0.00287534 -0.000709897 0)
(-0.00257188 -0.000677537 0)
(-0.00228233 -0.000643517 0)
(-0.00200735 -0.000607927 0)
(-0.00174757 -0.000570864 0)
(-0.00150356 -0.000532442 0)
(-0.00127584 -0.000492787 0)
(-0.00106487 -0.000452039 0)
(-0.000871047 -0.000410361 0)
(-0.000694683 -0.000367936 0)
(-0.000536011 -0.000324972 0)
(-0.000395168 -0.00028171 0)
(-0.000272179 -0.000238426 0)
(-0.000166945 -0.000195443 0)
(-7.92277e-05 -0.000153135 0)
(-8.62399e-06 -0.000111946 0)
(4.54535e-05 -7.2397e-05 0)
(8.38047e-05 -3.51095e-05 0)
(0.000107472 -8.23161e-07 0)
(0.000117772 2.95795e-05 0)
(0.000116331 5.50497e-05 0)
(0.000105124 7.4352e-05 0)
(8.65145e-05 8.60578e-05 0)
(6.32396e-05 8.85679e-05 0)
(3.84287e-05 8.01877e-05 0)
(1.64013e-05 5.92879e-05 0)
(3.37256e-06 2.45894e-05 0)
(2.57998e-06 -3.13543e-05 0)
(1.04877e-05 -6.53287e-05 0)
(2.04917e-05 -7.61249e-05 0)
(2.65854e-05 -6.81538e-05 0)
(2.44152e-05 -4.50789e-05 0)
(1.0809e-05 -1.00866e-05 0)
(-1.68308e-05 3.41012e-05 0)
(-6.05961e-05 8.52042e-05 0)
(-0.000122107 0.000141333 0)
(-0.000202573 0.000200934 0)
(-0.000302845 0.000262739 0)
(-0.000423466 0.000325717 0)
(-0.000564717 0.000389032 0)
(-0.000726654 0.000452005 0)
(-0.000909145 0.000514094 0)
(-0.0011119 0.00057486 0)
(-0.00133449 0.000633954 0)
(-0.0015764 0.000691097 0)
(-0.001837 0.000746073 0)
(-0.0021156 0.000798712 0)
(-0.00241145 0.000848885 0)
(-0.00272376 0.000896498 0)
(-0.0030517 0.000941484 0)
(-0.00339441 0.000983797 0)
(-0.00375102 0.00102341 0)
(-0.00412064 0.00106032 0)
(-0.00450237 0.00109453 0)
(-0.00489532 0.00112604 0)
(-0.0052986 0.00115489 0)
(-0.0057113 0.0011811 0)
(-0.00613254 0.00120471 0)
(-0.00656146 0.00122576 0)
(-0.00699716 0.00124428 0)
(-0.00743882 0.00126034 0)
(-0.00788557 0.00127396 0)
(-0.00833659 0.00128521 0)
(-0.00879107 0.00129412 0)
(-0.00924821 0.00130075 0)
(-0.00970721 0.00130515 0)
(-0.0101673 0.00130736 0)
(-0.0106278 0.00130743 0)
(-0.0110878 0.00130541 0)
(-0.0115467 0.00130134 0)
(-0.0120038 0.00129526 0)
(-0.0124584 0.00128722 0)
(-0.0129097 0.00127726 0)
(-0.0133572 0.00126542 0)
(-0.0138001 0.00125173 0)
(-0.0142378 0.00123624 0)
(-0.0146697 0.00121898 0)
(-0.0150951 0.00119998 0)
(-0.0155135 0.00117928 0)
(-0.0159243 0.00115692 0)
(-0.0163268 0.00113291 0)
(-0.0167205 0.00110731 0)
(-0.0171049 0.00108014 0)
(-0.0174794 0.00105142 0)
(-0.0178434 0.0010212 0)
(-0.0181964 0.000989507 0)
(-0.018538 0.000956368 0)
(-0.0188676 0.000921819 0)
(-0.0191847 0.000885893 0)
(-0.0194888 0.000848625 0)
(-0.0197796 0.00081005 0)
(-0.0200565 0.000770205 0)
(-0.020319 0.000729128 0)
(-0.0205669 0.000686859 0)
(-0.0207996 0.000643439 0)
(-0.0210168 0.000598911 0)
(-0.0212181 0.00055332 0)
(-0.0214032 0.000506715 0)
(-0.0215716 0.000459144 0)
(-0.0217232 0.00041066 0)
(-0.0218575 0.000361317 0)
(-0.0219743 0.000311173 0)
(-0.0220733 0.000260287 0)
(-0.0221543 0.000208722 0)
(-0.0222171 0.000156543 0)
(-0.0222615 0.000103818 0)
(-0.0222873 5.06189e-05 0)
(-0.0222943 -2.98182e-06 0)
(-0.0222825 -5.6907e-05 0)
(-0.0222517 -0.000111077 0)
(-0.022202 -0.000165411 0)
(-0.0221332 -0.000219824 0)
(-0.0220453 -0.000274227 0)
(-0.0219384 -0.000328533 0)
(-0.0218126 -0.000382647 0)
(-0.0216679 -0.000436477 0)
(-0.0215045 -0.000489925 0)
(-0.0213225 -0.000542893 0)
(-0.0211221 -0.000595281 0)
(-0.0209035 -0.000646988 0)
(-0.0206671 -0.000697909 0)
(-0.020413 -0.000747942 0)
(-0.0201417 -0.000796981 0)
(-0.0198535 -0.00084492 0)
(-0.0195488 -0.000891654 0)
(-0.019228 -0.000937076 0)
(-0.0188917 -0.00098108 0)
(-0.0185403 -0.00102356 0)
(-0.0181744 -0.00106442 0)
(-0.0177946 -0.00110354 0)
(-0.0174015 -0.00114083 0)
(-0.0169958 -0.00117618 0)
(-0.0165781 -0.00120951 0)
(-0.0161492 -0.0012407 0)
(-0.0157099 -0.00126968 0)
(-0.0152608 -0.00129635 0)
(-0.0148029 -0.00132062 0)
(-0.0143369 -0.00134241 0)
(-0.0138638 -0.00136165 0)
(-0.0133844 -0.00137825 0)
(-0.0128996 -0.00139216 0)
(-0.0124105 -0.0014033 0)
(-0.0119179 -0.00141161 0)
(-0.0114228 -0.00141706 0)
(-0.0109263 -0.00141957 0)
(-0.0104293 -0.00141913 0)
(-0.00993283 -0.00141569 0)
(-0.00943799 -0.00140922 0)
(-0.00894579 -0.00139971 0)
(-0.00845727 -0.00138715 0)
(-0.00797348 -0.00137152 0)
(-0.00749546 -0.00135283 0)
(-0.00702424 -0.0013311 0)
(-0.00656087 -0.00130633 0)
(-0.00610638 -0.00127857 0)
(-0.00566176 -0.00124784 0)
(-0.00522803 -0.0012142 0)
(-0.00480615 -0.0011777 0)
(-0.00439707 -0.00113841 0)
(-0.00400172 -0.00109642 0)
(-0.003621 -0.00105179 0)
(-0.00325576 -0.00100466 0)
(-0.00290681 -0.000955121 0)
(-0.00257494 -0.000903317 0)
(-0.00226084 -0.000849396 0)
(-0.0019652 -0.000793524 0)
(-0.0016886 -0.000735891 0)
(-0.00143157 -0.000676708 0)
(-0.00119455 -0.000616217 0)
(-0.000977901 -0.000554687 0)
(-0.000781875 -0.000492428 0)
(-0.000606615 -0.000429791 0)
(-0.000452135 -0.00036718 0)
(-0.000318307 -0.00030506 0)
(-0.000204843 -0.000243969 0)
(-0.000111275 -0.000184535 0)
(-3.69305e-05 -0.000127487 0)
(1.90925e-05 -7.36861e-05 0)
(5.79522e-05 -2.41377e-05 0)
(8.10928e-05 1.9976e-05 0)
(9.02755e-05 5.72733e-05 0)
(8.76155e-05 8.61513e-05 0)
(7.56196e-05 0.000104774 0)
(5.71834e-05 0.000111084 0)
(3.56265e-05 0.000102841 0)
(1.54958e-05 7.77093e-05 0)
(3.23933e-06 3.32429e-05 0)
(1.97028e-06 -3.62953e-05 0)
(6.87282e-06 -7.29406e-05 0)
(1.06626e-05 -8.08115e-05 0)
(7.86904e-06 -6.54673e-05 0)
(-5.67599e-06 -3.14002e-05 0)
(-3.31272e-05 1.75285e-05 0)
(-7.70705e-05 7.80226e-05 0)
(-0.000139597 0.000147304 0)
(-0.00022234 0.000223047 0)
(-0.000326529 0.000303316 0)
(-0.000453039 0.000386507 0)
(-0.000602435 0.000471298 0)
(-0.000775012 0.000556603 0)
(-0.000970828 0.000641532 0)
(-0.00118974 0.000725359 0)
(-0.00143145 0.000807495 0)
(-0.0016955 0.000887464 0)
(-0.0019813 0.000964881 0)
(-0.0022882 0.00103944 0)
(-0.00261542 0.00111091 0)
(-0.00296216 0.0011791 0)
(-0.00332752 0.00124387 0)
(-0.00371059 0.00130512 0)
(-0.00411042 0.00136278 0)
(-0.00452603 0.00141681 0)
(-0.00495642 0.00146718 0)
(-0.00540059 0.00151389 0)
(-0.00585753 0.00155695 0)
(-0.00632621 0.0015964 0)
(-0.00680564 0.00163225 0)
(-0.00729481 0.00166455 0)
(-0.00779272 0.00169336 0)
(-0.00829837 0.00171872 0)
(-0.0088108 0.0017407 0)
(-0.00932903 0.00175935 0)
(-0.00985213 0.00177474 0)
(-0.0103792 0.00178693 0)
(-0.0109092 0.00179598 0)
(-0.0114413 0.00180196 0)
(-0.0119747 0.00180493 0)
(-0.0125084 0.00180495 0)
(-0.0130415 0.00180209 0)
(-0.0135734 0.0017964 0)
(-0.014103 0.00178794 0)
(-0.0146297 0.00177678 0)
(-0.0151526 0.00176296 0)
(-0.015671 0.00174655 0)
(-0.0161841 0.00172758 0)
(-0.0166911 0.00170612 0)
(-0.0171913 0.00168221 0)
(-0.017684 0.00165591 0)
(-0.0181686 0.00162725 0)
(-0.0186442 0.00159629 0)
(-0.0191102 0.00156307 0)
(-0.019566 0.00152764 0)
(-0.020011 0.00149004 0)
(-0.0204444 0.00145031 0)
(-0.0208657 0.0014085 0)
(-0.0212742 0.00136465 0)
(-0.0216694 0.00131881 0)
(-0.0220506 0.00127103 0)
(-0.0224174 0.00122135 0)
(-0.0227692 0.00116982 0)
(-0.0231053 0.00111649 0)
(-0.0234254 0.00106141 0)
(-0.0237289 0.00100464 0)
(-0.0240153 0.000946228 0)
(-0.0242841 0.000886234 0)
(-0.024535 0.000824719 0)
(-0.0247674 0.000761747 0)
(-0.024981 0.000697383 0)
(-0.0251753 0.000631696 0)
(-0.0253501 0.00056476 0)
(-0.0255048 0.00049665 0)
(-0.0256393 0.000427445 0)
(-0.0257533 0.000357229 0)
(-0.0258464 0.000286088 0)
(-0.0259183 0.000214113 0)
(-0.025969 0.000141397 0)
(-0.0259982 6.80396e-05 0)
(-0.0260057 -5.85839e-06 0)
(-0.0259913 -8.01913e-05 0)
(-0.0259551 -0.00015485 0)
(-0.025897 -0.00022972 0)
(-0.0258168 -0.000304687 0)
(-0.0257146 -0.00037963 0)