0.05 	0.0003125 	0.005 	0.00287471
0.05 	0.0009375 	0.005 	0.00287982
0.05 	0.0015625 	0.005 	0.00288368
0.05 	0.0021875 	0.005 	0.0028866
0.05 	0.0028125 	0.005 	0.00288897
0.05 	0.0034375 	0.005 	0.00289074
0.05 	0.0040625 	0.005 	0.00289189
0.05 	0.0046875 	0.005 	0.00289238
0.05 	0.0053125 	0.005 	0.00289223
0.05 	0.0059375 	0.005 	0.0028914
0.05 	0.0065625 	0.005 	0.00288988
0.05 	0.0071875 	0.005 	0.00288767
0.05 	0.0078125 	0.005 	0.00288474
0.05 	0.0084375 	0.005 	0.00288109
0.05 	0.0090625 	0.005 	0.00287669
0.05 	0.0096875 	0.005 	0.00287155
0.05 	0.0103125 	0.005 	0.00286565
0.05 	0.0109375 	0.005 	0.00285897
0.05 	0.0115625 	0.005 	0.00285151
0.05 	0.0121875 	0.005 	0.00284325
0.05 	0.0128125 	0.005 	0.00283417
0.05 	0.0134375 	0.005 	0.00282425
0.05 	0.0140625 	0.005 	0.00281348
0.05 	0.0146875 	0.005 	0.00280182
0.05 	0.0153125 	0.005 	0.00278926
0.05 	0.0159375 	0.005 	0.00277578
0.05 	0.0165625 	0.005 	0.00276133
0.05 	0.0171875 	0.005 	0.00274591
0.05 	0.0178125 	0.005 	0.00272948
0.05 	0.0184375 	0.005 	0.00271202
0.05 	0.0190625 	0.005 	0.0026935
0.05 	0.0196875 	0.005 	0.00267388
0.05 	0.0203125 	0.005 	0.00265314
0.05 	0.0209375 	0.005 	0.00263123
0.05 	0.0215625 	0.005 	0.00260811
0.05 	0.0221875 	0.005 	0.00258372
0.05 	0.0228125 	0.005 	0.00255802
0.05 	0.0234375 	0.005 	0.00253095
0.05 	0.0240625 	0.005 	0.00250245
0.05 	0.0246875 	0.005 	0.00247246
0.05 	0.0253125 	0.005 	0.00244092
0.05 	0.0259375 	0.005 	0.00240776
0.05 	0.0265625 	0.005 	0.00237292
0.05 	0.0271875 	0.005 	0.00233631
0.05 	0.0278125 	0.005 	0.00229786
0.05 	0.0284375 	0.005 	0.00225747
0.05 	0.0290625 	0.005 	0.00221504
0.05 	0.0296875 	0.005 	0.00217049
0.05 	0.0303125 	0.005 	0.00212371
0.05 	0.0309375 	0.005 	0.0020746
0.05 	0.0315625 	0.005 	0.00202307
0.05 	0.0321875 	0.005 	0.00196901
0.05 	0.0328125 	0.005 	0.00191231
0.05 	0.0334375 	0.005 	0.00185287
0.05 	0.0340625 	0.005 	0.00179054
0.05 	0.0346875 	0.005 	0.0017252
0.05 	0.0353125 	0.005 	0.0016567
0.05 	0.0359375 	0.005 	0.0015849
0.05 	0.0365625 	0.005 	0.00150965
0.05 	0.0371875 	0.005 	0.00143081
0.05 	0.0378125 	0.005 	0.00134823
0.05 	0.0384375 	0.005 	0.00126173
0.05 	0.0390625 	0.005 	0.00117116
0.05 	0.0396875 	0.005 	0.00107632
0.05 	0.0403125 	0.005 	0.000977039
0.05 	0.0409375 	0.005 	0.000873128
0.05 	0.0415625 	0.005 	0.000764402
0.05 	0.0421875 	0.005 	0.000650676
0.05 	0.0428125 	0.005 	0.000531759
0.05 	0.0434375 	0.005 	0.000407449
0.05 	0.0440625 	0.005 	0.000277534
0.05 	0.0446875 	0.005 	0.000141795
0.05 	0.0453125 	0.005 	1.01197e-08
0.05 	0.0459375 	0.005 	-0.000148043
0.05 	0.0465625 	0.005 	-0.000302586
0.05 	0.0471875 	0.005 	-0.000463847
0.05 	0.0478125 	0.005 	-0.000632061
0.05 	0.0484375 	0.005 	-0.000807469
0.05 	0.0490625 	0.005 	-0.000990315
0.05 	0.0496875 	0.005 	-0.00118084
0.05 	0.0503125 	0.005 	-0.00137928
0.05 	0.0509375 	0.005 	-0.00158585
0.05 	0.0515625 	0.005 	-0.0018008
0.05 	0.0521875 	0.005 	-0.00202436
0.05 	0.0528125 	0.005 	-0.00225676
0.05 	0.0534375 	0.005 	-0.00249823
0.05 	0.0540625 	0.005 	-0.00274897
0.05 	0.0546875 	0.005 	-0.00300921
0.05 	0.0553125 	0.005 	-0.00327913
0.05 	0.0559375 	0.005 	-0.00355894
0.05 	0.0565625 	0.005 	-0.00384883
0.05 	0.0571875 	0.005 	-0.00414894
0.05 	0.0578125 	0.005 	-0.00445943
0.05 	0.0584375 	0.005 	-0.00478041
0.05 	0.0590625 	0.005 	-0.00511198
0.05 	0.0596875 	0.005 	-0.00545422
0.05 	0.0603125 	0.005 	-0.00580717
0.05 	0.0609375 	0.005 	-0.00617085
0.05 	0.0615625 	0.005 	-0.00654524
0.05 	0.0621875 	0.005 	-0.00693028
0.05 	0.0628125 	0.005 	-0.00732591
0.05 	0.0634375 	0.005 	-0.007732
0.05 	0.0640625 	0.005 	-0.00814841
0.05 	0.0646875 	0.005 	-0.00857493
0.05 	0.0653125 	0.005 	-0.00901132
0.05 	0.0659375 	0.005 	-0.00945732
0.05 	0.0665625 	0.005 	-0.00991258
0.05 	0.0671875 	0.005 	-0.0103767
0.05 	0.0678125 	0.005 	-0.0108493
0.05 	0.0684375 	0.005 	-0.0113297
0.05 	0.0690625 	0.005 	-0.0118176
0.05 	0.0696875 	0.005 	-0.0123123
0.05 	0.0703125 	0.005 	-0.012813
0.05 	0.0709375 	0.005 	-0.0133192
0.05 	0.0715625 	0.005 	-0.0138299
0.05 	0.0721875 	0.005 	-0.0143446
0.05 	0.0728125 	0.005 	-0.0148621
0.05 	0.0734375 	0.005 	-0.0153818
0.05 	0.0740625 	0.005 	-0.0159025
0.05 	0.0746875 	0.005 	-0.0164233
0.05 	0.0753125 	0.005 	-0.016943
0.05 	0.0759375 	0.005 	-0.0174607
0.05 	0.0765625 	0.005 	-0.0179751
0.05 	0.0771875 	0.005 	-0.0184849
0.05 	0.0778125 	0.005 	-0.0189891
0.05 	0.0784375 	0.005 	-0.0194862
0.05 	0.0790625 	0.005 	-0.0199749
0.05 	0.0796875 	0.005 	-0.0204539
0.05 	0.0803125 	0.005 	-0.0209218
0.05 	0.0809375 	0.005 	-0.021377
0.05 	0.0815625 	0.005 	-0.0218181
0.05 	0.0821875 	0.005 	-0.0222434
0.05 	0.0828125 	0.005 	-0.0226514
0.05 	0.0834375 	0.005 	-0.0230403
0.05 	0.0840625 	0.005 	-0.0234085
0.05 	0.0846875 	0.005 	-0.0237542
0.05 	0.0853125 	0.005 	-0.0240756
0.05 	0.0859375 	0.005 	-0.024371
0.05 	0.0865625 	0.005 	-0.0246384
0.05 	0.0871875 	0.005 	-0.0248763
0.05 	0.0878125 	0.005 	-0.025083
0.05 	0.0884375 	0.005 	-0.0252571
0.05 	0.0890625 	0.005 	-0.0253971
0.05 	0.0896875 	0.005 	-0.025502
0.05 	0.0903125 	0.005 	-0.0255709
0.05 	0.0909375 	0.005 	-0.0256036
0.05 	0.0915625 	0.005 	-0.0255997
0.05 	0.0921875 	0.005 	-0.0255599
0.05 	0.0928125 	0.005 	-0.0254848
0.05 	0.0934375 	0.005 	-0.025376
0.05 	0.0940625 	0.005 	-0.0252352
0.05 	0.0946875 	0.005 	-0.0250647
0.05 	0.0953125 	0.005 	-0.0248674
0.05 	0.0959375 	0.005 	-0.0246463
0.05 	0.0965625 	0.005 	-0.0244043
0.05 	0.0971875 	0.005 	-0.0241446
0.05 	0.0978125 	0.005 	-0.0238719
0.05 	0.0984375 	0.005 	-0.0235904
0.05 	0.0990625 	0.005 	-0.0232783
0.05 	0.0996875 	0.005 	-0.0229126
