/*--------------------------------*- C++ -*----------------------------------*\
  =========                 |
  \\      /  F ield         | OpenFOAM: The Open Source CFD Toolbox
   \\    /   O peration     | Website:  https://openfoam.org
    \\  /    A nd           | Version:  7
     \\/     M anipulation  |
\*---------------------------------------------------------------------------*/
FoamFile
{
    version     2.0;
    format      ascii;
    class       volVectorField;
    location    "0.2875";
    object      U;
}
// * * * * * * * * * * * * * * * * * * * * * * * * * * * * * * * * * * * * * //

dimensions      [0 1 -1 0 0 0 0];

internalField   nonuniform List<vector> 
25600
(
(2.79151e-07 -2.77943e-07 0)
(2.9302e-06 -1.7613e-06 0)
(8.75541e-06 -2.65444e-06 0)
(1.58311e-05 -2.90354e-06 0)
(2.27374e-05 -2.73032e-06 0)
(2.86054e-05 -2.29485e-06 0)
(3.28606e-05 -1.69977e-06 0)
(3.51205e-05 -1.01107e-06 0)
(3.51436e-05 -2.71254e-07 0)
(3.27862e-05 4.92816e-07 0)
(2.79729e-05 1.26293e-06 0)
(2.06776e-05 2.02727e-06 0)
(1.09104e-05 2.77726e-06 0)
(-1.29256e-06 3.50695e-06 0)
(-1.5875e-05 4.21207e-06 0)
(-3.27668e-05 4.88986e-06 0)
(-5.18872e-05 5.53851e-06 0)
(-7.3147e-05 6.15686e-06 0)
(-9.64519e-05 6.74401e-06 0)
(-0.000121704 7.29958e-06 0)
(-0.000148802 7.82337e-06 0)
(-0.000177644 8.31522e-06 0)
(-0.000208126 8.77549e-06 0)
(-0.000240146 9.20493e-06 0)
(-0.000273602 9.60383e-06 0)
(-0.000308392 9.97251e-06 0)
(-0.000344415 1.03115e-05 0)
(-0.000381574 1.06218e-05 0)
(-0.000419772 1.09041e-05 0)
(-0.000458914 1.11594e-05 0)
(-0.000498907 1.13881e-05 0)
(-0.00053966 1.15908e-05 0)
(-0.000581085 1.17682e-05 0)
(-0.000623095 1.19213e-05 0)
(-0.000665607 1.2051e-05 0)
(-0.000708539 1.21577e-05 0)
(-0.00075181 1.22421e-05 0)
(-0.000795343 1.23044e-05 0)
(-0.000839062 1.23453e-05 0)
(-0.000882892 1.23657e-05 0)
(-0.000926761 1.23662e-05 0)
(-0.0009706 1.23474e-05 0)
(-0.00101434 1.23095e-05 0)
(-0.00105791 1.22528e-05 0)
(-0.00110125 1.2178e-05 0)
(-0.0011443 1.20857e-05 0)
(-0.00118698 1.19763e-05 0)
(-0.00122925 1.18502e-05 0)
(-0.00127104 1.17076e-05 0)
(-0.00131229 1.15487e-05 0)
(-0.00135295 1.13739e-05 0)
(-0.00139295 1.11835e-05 0)
(-0.00143225 1.0978e-05 0)
(-0.00147079 1.07578e-05 0)
(-0.00150852 1.0523e-05 0)
(-0.00154538 1.02739e-05 0)
(-0.00158133 1.00105e-05 0)
(-0.00161631 9.73316e-06 0)
(-0.00165027 9.44217e-06 0)
(-0.00168317 9.13755e-06 0)
(-0.00171496 8.81979e-06 0)
(-0.0017456 8.4893e-06 0)
(-0.00177503 8.1464e-06 0)
(-0.00180322 7.7914e-06 0)
(-0.00183011 7.424e-06 0)
(-0.00185568 7.0445e-06 0)
(-0.00187987 6.65377e-06 0)
(-0.00190265 6.25202e-06 0)
(-0.00192398 5.83952e-06 0)
(-0.00194382 5.41664e-06 0)
(-0.00196213 4.98337e-06 0)
(-0.00197889 4.54033e-06 0)
(-0.00199406 4.08829e-06 0)
(-0.0020076 3.62742e-06 0)
(-0.00201949 3.15822e-06 0)
(-0.0020297 2.6812e-06 0)
(-0.00203821 2.19655e-06 0)
(-0.00204498 1.70512e-06 0)
(-0.00205001 1.20801e-06 0)
(-0.00205326 7.05661e-07 0)
(-0.00205473 1.98631e-07 0)
(-0.00205439 -3.12244e-07 0)
(-0.00205224 -8.26703e-07 0)
(-0.00204827 -1.34431e-06 0)
(-0.00204246 -1.86366e-06 0)
(-0.00203482 -2.38361e-06 0)
(-0.00202534 -2.90384e-06 0)
(-0.00201402 -3.42359e-06 0)
(-0.00200088 -3.94172e-06 0)
(-0.00198592 -4.45745e-06 0)
(-0.00196914 -4.96976e-06 0)
(-0.00195057 -5.47726e-06 0)
(-0.00193023 -5.97916e-06 0)
(-0.00190813 -6.47493e-06 0)
(-0.0018843 -6.96318e-06 0)
(-0.00185877 -7.44253e-06 0)
(-0.00183157 -7.91223e-06 0)
(-0.00180274 -8.37127e-06 0)
(-0.00177233 -8.81819e-06 0)
(-0.00174036 -9.2522e-06 0)
(-0.0017069 -9.67291e-06 0)
(-0.00167199 -1.00791e-05 0)
(-0.00163568 -1.04692e-05 0)
(-0.00159804 -1.08419e-05 0)
(-0.00155912 -1.11962e-05 0)
(-0.001519 -1.15312e-05 0)
(-0.00147774 -1.18461e-05 0)
(-0.00143542 -1.21401e-05 0)
(-0.00139211 -1.24119e-05 0)
(-0.00134789 -1.26599e-05 0)
(-0.00130284 -1.28837e-05 0)
(-0.00125705 -1.30831e-05 0)
(-0.00121061 -1.32571e-05 0)
(-0.00116361 -1.34046e-05 0)
(-0.00111614 -1.35247e-05 0)
(-0.0010683 -1.36169e-05 0)
(-0.00102018 -1.36804e-05 0)
(-0.000971898 -1.37142e-05 0)
(-0.000923542 -1.37184e-05 0)
(-0.00087522 -1.36929e-05 0)
(-0.000827037 -1.36372e-05 0)
(-0.0007791 -1.35502e-05 0)
(-0.000731516 -1.34318e-05 0)
(-0.000684395 -1.32822e-05 0)
(-0.000637844 -1.31011e-05 0)
(-0.000591972 -1.28882e-05 0)
(-0.000546889 -1.26436e-05 0)
(-0.000502703 -1.23679e-05 0)
(-0.000459523 -1.2061e-05 0)
(-0.000417454 -1.17228e-05 0)
(-0.000376603 -1.13535e-05 0)
(-0.000337075 -1.0954e-05 0)
(-0.000298973 -1.05247e-05 0)
(-0.000262397 -1.00661e-05 0)
(-0.000227444 -9.57871e-06 0)
(-0.000194209 -9.06334e-06 0)
(-0.000162785 -8.52103e-06 0)
(-0.000133261 -7.9528e-06 0)
(-0.000105718 -7.35968e-06 0)
(-8.0235e-05 -6.74296e-06 0)
(-5.68859e-05 -6.10425e-06 0)
(-3.57367e-05 -5.44546e-06 0)
(-1.68459e-05 -4.76868e-06 0)
(-2.63617e-07 -4.07611e-06 0)
(1.39692e-05 -3.37037e-06 0)
(2.58233e-05 -2.6548e-06 0)
(3.5284e-05 -1.93348e-06 0)
(4.23535e-05 -1.21125e-06 0)
(4.70542e-05 -4.94319e-07 0)
(4.94339e-05 2.09263e-07 0)
(4.95719e-05 8.88606e-07 0)
(4.75886e-05 1.52894e-06 0)
(4.36576e-05 2.11024e-06 0)
(3.80229e-05 2.60384e-06 0)
(3.10255e-05 2.96701e-06 0)
(2.31395e-05 3.13568e-06 0)
(1.50139e-05 3.01719e-06 0)
(7.53653e-06 2.48057e-06 0)
(2.00418e-06 1.3838e-06 0)
(-4.04053e-08 -3.9891e-08 0)
(1.75709e-06 -2.92747e-06 0)
(8.88139e-06 -8.88611e-06 0)
(2.12983e-05 -1.22133e-05 0)
(3.54487e-05 -1.29383e-05 0)
(4.86476e-05 -1.17324e-05 0)
(5.90646e-05 -9.17012e-06 0)
(6.53255e-05 -5.68083e-06 0)
(6.643e-05 -1.57754e-06 0)
(6.16881e-05 2.91546e-06 0)
(5.06485e-05 7.63703e-06 0)
(3.30394e-05 1.24706e-05 0)
(8.72623e-06 1.73315e-05 0)
(-2.23213e-05 2.21562e-05 0)
(-6.00522e-05 2.68979e-05 0)
(-0.000104355 3.15214e-05 0)
(-0.000155072 3.60007e-05 0)
(-0.000212006 4.03167e-05 0)
(-0.000274937 4.44551e-05 0)
(-0.000343621 4.8406e-05 0)
(-0.000417802 5.21626e-05 0)
(-0.000497211 5.57201e-05 0)
(-0.000581572 5.90759e-05 0)
(-0.000670605 6.22291e-05 0)
(-0.000764028 6.51802e-05 0)
(-0.000861558 6.79304e-05 0)
(-0.000962912 7.04816e-05 0)
(-0.00106781 7.28364e-05 0)
(-0.00117598 7.49975e-05 0)
(-0.00128714 7.69691e-05 0)
(-0.00140103 7.87547e-05 0)
(-0.00151738 8.03584e-05 0)
(-0.00163593 8.17842e-05 0)
(-0.00175644 8.30365e-05 0)
(-0.00187864 8.41193e-05 0)
(-0.00200231 8.50372e-05 0)
(-0.0021272 8.57942e-05 0)
(-0.00225308 8.63943e-05 0)
(-0.00237972 8.6841e-05 0)
(-0.00250691 8.71379e-05 0)
(-0.00263443 8.72893e-05 0)
(-0.00276207 8.72989e-05 0)
(-0.00288963 8.71702e-05 0)
(-0.00301689 8.69065e-05 0)
(-0.00314368 8.65109e-05 0)
(-0.00326979 8.59862e-05 0)
(-0.00339505 8.53355e-05 0)
(-0.00351926 8.45616e-05 0)
(-0.00364225 8.36673e-05 0)
(-0.00376384 8.26554e-05 0)
(-0.00388386 8.1528e-05 0)
(-0.00400215 8.02874e-05 0)
(-0.00411853 7.89359e-05 0)
(-0.00423285 7.74758e-05 0)
(-0.00434495 7.59091e-05 0)
(-0.00445468 7.42377e-05 0)
(-0.00456187 7.24636e-05 0)
(-0.00466638 7.05888e-05 0)
(-0.00476808 6.86149e-05 0)
(-0.0048668 6.6544e-05 0)
(-0.00496241 6.4378e-05 0)
(-0.00505478 6.21189e-05 0)
(-0.00514376 5.97687e-05 0)
(-0.00522923 5.73296e-05 0)
(-0.00531106 5.48035e-05 0)
(-0.00538912 5.21927e-05 0)
(-0.00546329 4.94989e-05 0)
(-0.00553345 4.67245e-05 0)
(-0.00559949 4.38726e-05 0)
(-0.00566129 4.09455e-05 0)
(-0.00571875 3.79457e-05 0)
(-0.00577176 3.4876e-05 0)
(-0.00582023 3.17392e-05 0)
(-0.00586406 2.85386e-05 0)
(-0.00590317 2.52778e-05 0)
(-0.00593746 2.19603e-05 0)
(-0.00596686 1.85896e-05 0)
(-0.00599129 1.51698e-05 0)
(-0.00601069 1.17051e-05 0)
(-0.006025 8.19963e-06 0)
(-0.00603417 4.65843e-06 0)
(-0.00603814 1.08618e-06 0)
(-0.00603687 -2.51275e-06 0)
(-0.00603033 -6.1332e-06 0)
(-0.0060185 -9.76996e-06 0)
(-0.00600135 -1.34179e-05 0)
(-0.00597889 -1.70709e-05 0)
(-0.00595109 -2.07223e-05 0)
(-0.00591799 -2.43665e-05 0)
(-0.00587958 -2.79975e-05 0)
(-0.0058359 -3.16084e-05 0)
(-0.00578698 -3.51926e-05 0)
(-0.00573287 -3.87435e-05 0)
(-0.00567362 -4.22541e-05 0)
(-0.0056093 -4.57172e-05 0)
(-0.00553998 -4.91258e-05 0)
(-0.00546575 -5.24729e-05 0)
(-0.0053867 -5.5751e-05 0)
(-0.00530295 -5.89528e-05 0)
(-0.0052146 -6.20709e-05 0)
(-0.00512179 -6.50981e-05 0)
(-0.00502465 -6.80272e-05 0)
(-0.00492334 -7.08509e-05 0)
(-0.00481801 -7.35619e-05 0)
(-0.00470883 -7.6153e-05 0)
(-0.00459599 -7.86166e-05 0)
(-0.00447967 -8.09453e-05 0)
(-0.00436007 -8.31327e-05 0)
(-0.00423741 -8.51722e-05 0)
(-0.0041119 -8.70569e-05 0)
(-0.00398378 -8.87802e-05 0)
(-0.00385327 -9.03362e-05 0)
(-0.00372064 -9.17198e-05 0)
(-0.00358613 -9.29253e-05 0)
(-0.00345 -9.39472e-05 0)
(-0.00331252 -9.47802e-05 0)
(-0.00317398 -9.54199e-05 0)
(-0.00303464 -9.5862e-05 0)
(-0.00289481 -9.61025e-05 0)
(-0.00275477 -9.61381e-05 0)
(-0.00261483 -9.59663e-05 0)
(-0.00247527 -9.55845e-05 0)
(-0.00233642 -9.49901e-05 0)
(-0.00219857 -9.41811e-05 0)
(-0.00206204 -9.31567e-05 0)
(-0.00192713 -9.19164e-05 0)
(-0.00179416 -9.04602e-05 0)
(-0.00166344 -8.87883e-05 0)
(-0.00153527 -8.69016e-05 0)
(-0.00140997 -8.48018e-05 0)
(-0.00128783 -8.24908e-05 0)
(-0.00116916 -7.99714e-05 0)
(-0.00105425 -7.72471e-05 0)
(-0.000943393 -7.4322e-05 0)
(-0.000836871 -7.12006e-05 0)
(-0.000734957 -6.78884e-05 0)
(-0.000637917 -6.43918e-05 0)
(-0.000546005 -6.0718e-05 0)
(-0.000459465 -5.68753e-05 0)
(-0.000378526 -5.28733e-05 0)
(-0.0003034 -4.87231e-05 0)
(-0.000234283 -4.44367e-05 0)
(-0.000171351 -4.00282e-05 0)
(-0.000114755 -3.55136e-05 0)
(-6.46209e-05 -3.09119e-05 0)
(-2.10429e-05 -2.6245e-05 0)
(1.59211e-05 -2.15389e-05 0)
(4.62554e-05 -1.68246e-05 0)
(6.99949e-05 -1.21397e-05 0)
(8.72361e-05 -7.53024e-06 0)
(9.81498e-05 -3.05348e-06 0)
(0.000102997 1.21818e-06 0)
(0.000102152 5.19167e-06 0)
(9.6127e-05 8.74611e-06 0)
(8.56115e-05 1.17223e-05 0)
(7.15173e-05 1.39079e-05 0)
(5.50305e-05 1.50214e-05 0)
(3.7644e-05 1.47041e-05 0)
(2.1185e-05 1.25249e-05 0)
(8.10003e-06 8.10517e-06 0)
(1.38085e-06 2.00257e-06 0)
(2.64654e-06 -8.74263e-06 0)
(1.22082e-05 -2.13035e-05 0)
(2.76266e-05 -2.76212e-05 0)
(4.41674e-05 -2.83186e-05 0)
(5.84584e-05 -2.45925e-05 0)
(6.81457e-05 -1.75591e-05 0)
(7.13657e-05 -8.13284e-06 0)
(6.66933e-05 2.9687e-06 0)
(5.30964e-05 1.51966e-05 0)
(2.9864e-05 2.81342e-05 0)
(-3.45916e-06 4.14658e-05 0)
(-4.71271e-05 5.49505e-05 0)
(-0.000101233 6.8406e-05 0)
(-0.000165743 8.1692e-05 0)
(-0.000240523 9.47005e-05 0)
(-0.000325361 0.00010735 0)
(-0.000419984 0.000119579 0)
(-0.000524072 0.000131338 0)
(-0.000637264 0.000142595 0)
(-0.000759177 0.000153323 0)
(-0.000889402 0.000163505 0)
(-0.00102752 0.000173129 0)
(-0.00117309 0.000182189 0)
(-0.00132569 0.000190682 0)
(-0.00148487 0.00019861 0)
(-0.00165018 0.000205975 0)
(-0.00182119 0.000212783 0)
(-0.00199746 0.000219041 0)
(-0.00217855 0.000224756 0)
(-0.00236404 0.000229938 0)
(-0.0025535 0.000234598 0)
(-0.00274653 0.000238746 0)
(-0.00294271 0.000242393 0)
(-0.00314165 0.00024555 0)
(-0.00334295 0.000248228 0)
(-0.00354624 0.000250438 0)
(-0.00375114 0.000252192 0)
(-0.00395727 0.0002535 0)
(-0.0041643 0.000254372 0)
(-0.00437186 0.00025482 0)
(-0.00457962 0.000254853 0)
(-0.00478723 0.000254481 0)
(-0.00499438 0.000253714 0)
(-0.00520074 0.00025256 0)
(-0.00540601 0.000251029 0)
(-0.00560987 0.000249128 0)
(-0.00581203 0.000246866 0)
(-0.0060122 0.000244251 0)
(-0.00621009 0.000241289 0)
(-0.00640541 0.000237988 0)
(-0.0065979 0.000234356 0)
(-0.00678728 0.000230398 0)
(-0.00697329 0.000226121 0)
(-0.00715568 0.00022153 0)
(-0.00733418 0.000216633 0)
(-0.00750854 0.000211434 0)
(-0.00767853 0.000205939 0)
(-0.00784391 0.000200156 0)
(-0.00800444 0.000194088 0)
(-0.00815988 0.000187742 0)
(-0.00831003 0.000181125 0)
(-0.00845465 0.00017424 0)
(-0.00859353 0.000167096 0)
(-0.00872647 0.000159698 0)
(-0.00885325 0.000152053 0)
(-0.00897369 0.000144167 0)
(-0.00908758 0.000136047 0)
(-0.00919475 0.000127701 0)
(-0.00929501 0.000119137 0)
(-0.00938819 0.000110362 0)
(-0.00947412 0.000101386 0)
(-0.00955264 9.22163e-05 0)
(-0.0096236 8.28629e-05 0)
(-0.00968687 7.33355e-05 0)
(-0.0097423 6.36454e-05 0)
(-0.00978976 5.38033e-05 0)
(-0.00982914 4.38202e-05 0)
(-0.00986034 3.37093e-05 0)
(-0.00988326 2.34831e-05 0)
(-0.0098978 1.31538e-05 0)
(-0.0099039 2.73625e-06 0)
(-0.00990149 -7.75506e-06 0)
(-0.00989052 -1.83064e-05 0)
(-0.00987095 -2.89018e-05 0)
(-0.00984276 -3.95248e-05 0)
(-0.00980592 -5.01594e-05 0)
(-0.00976045 -6.07881e-05 0)
(-0.00970635 -7.13921e-05 0)
(-0.00964366 -8.19537e-05 0)
(-0.00957242 -9.24548e-05 0)
(-0.00949269 -0.000102876 0)
(-0.00940454 -0.000113196 0)
(-0.00930807 -0.000123397 0)
(-0.00920339 -0.000133458 0)
(-0.00909061 -0.000143358 0)
(-0.00896989 -0.000153076 0)
(-0.00884137 -0.000162593 0)
(-0.00870523 -0.000171886 0)
(-0.00856166 -0.000180934 0)
(-0.00841087 -0.000189716 0)
(-0.00825309 -0.000198212 0)
(-0.00808856 -0.0002064 0)
(-0.00791753 -0.000214258 0)
(-0.00774028 -0.000221767 0)
(-0.00755711 -0.000228906 0)
(-0.00736833 -0.000235654 0)
(-0.00717425 -0.000241991 0)
(-0.00697522 -0.000247899 0)
(-0.00677159 -0.000253358 0)
(-0.00656374 -0.00025835 0)
(-0.00635204 -0.000262858 0)
(-0.0061369 -0.000266866 0)
(-0.00591872 -0.000270358 0)
(-0.00569793 -0.000273318 0)
(-0.00547497 -0.000275733 0)
(-0.00525026 -0.000277589 0)
(-0.00502428 -0.000278875 0)
(-0.00479749 -0.00027958 0)
(-0.00457035 -0.000279693 0)
(-0.00434334 -0.000279208 0)
(-0.00411696 -0.000278116 0)
(-0.00389168 -0.000276412 0)
(-0.00366801 -0.00027409 0)
(-0.00344643 -0.00027115 0)
(-0.00322745 -0.000267588 0)
(-0.00301156 -0.000263405 0)
(-0.00279926 -0.000258602 0)
(-0.00259104 -0.000253184 0)
(-0.0023874 -0.000247155 0)
(-0.00218882 -0.000240522 0)
(-0.00199577 -0.000233293 0)
(-0.00180872 -0.000225478 0)
(-0.00162814 -0.000217092 0)
(-0.00145448 -0.000208148 0)
(-0.00128816 -0.000198663 0)
(-0.0011296 -0.000188658 0)
(-0.000979206 -0.000178154 0)
(-0.000837357 -0.000167177 0)
(-0.000704405 -0.000155757 0)
(-0.000580681 -0.000143926 0)
(-0.000466482 -0.000131724 0)
(-0.000362075 -0.000119192 0)
(-0.000267685 -0.00010638 0)
(-0.000183492 -9.33462e-05 0)
(-0.000109625 -8.01562e-05 0)
(-4.61516e-05 -6.68888e-05 0)
(6.9275e-06 -5.36373e-05 0)
(4.96963e-05 -4.05127e-05 0)
(8.23359e-05 -2.76492e-05 0)
(0.000105143 -1.52104e-05 0)
(0.000118553 -3.39853e-06 0)
(0.000123167 7.53421e-06 0)
(0.000119788 1.72719e-05 0)
(0.00010946 2.54167e-05 0)
(9.35168e-05 3.14678e-05 0)
(7.36254e-05 3.48073e-05 0)
(5.17959e-05 3.47064e-05 0)
(3.03737e-05 3.03777e-05 0)
(1.25137e-05 2.11867e-05 0)
(2.47412e-06 7.52757e-06 0)
(2.90589e-06 -1.58224e-05 0)
(1.29703e-05 -3.54724e-05 0)
(2.84003e-05 -4.41758e-05 0)
(4.37333e-05 -4.36227e-05 0)
(5.51685e-05 -3.56792e-05 0)
(6.00425e-05 -2.20543e-05 0)
(5.62014e-05 -4.19379e-06 0)
(4.19526e-05 1.67272e-05 0)
(1.60323e-05 3.97752e-05 0)
(-2.24609e-05 6.42174e-05 0)
(-7.41303e-05 8.94796e-05 0)
(-0.000139332 0.000115114 0)
(-0.000218223 0.000140771 0)
(-0.000310798 0.000166177 0)
(-0.000416917 0.00019112 0)
(-0.000536337 0.000215434 0)
(-0.00066873 0.00023899 0)
(-0.000813701 0.00026169 0)
(-0.0009708 0.000283459 0)
(-0.00113954 0.000304241 0)
(-0.0013194 0.000323997 0)
(-0.00150983 0.000342697 0)
(-0.00171027 0.000360325 0)
(-0.00192015 0.00037687 0)
(-0.00213888 0.000392331 0)
(-0.00236589 0.000406711 0)
(-0.00260059 0.000420016 0)
(-0.00284239 0.000432258 0)
(-0.00309072 0.000443448 0)
(-0.003345 0.000453604 0)
(-0.00360468 0.000462742 0)
(-0.00386918 0.000470883 0)
(-0.00413796 0.000478044 0)
(-0.00441049 0.000484248 0)
(-0.00468624 0.000489513 0)
(-0.00496468 0.000493861 0)
(-0.0052453 0.000497312 0)
(-0.00552762 0.000499887 0)
(-0.00581114 0.000501605 0)
(-0.00609538 0.000502487 0)
(-0.00637988 0.000502551 0)
(-0.00666419 0.000501816 0)
(-0.00694784 0.000500301 0)
(-0.00723042 0.000498023 0)
(-0.00751148 0.000494998 0)
(-0.00779061 0.000491244 0)
(-0.00806741 0.000486775 0)
(-0.00834146 0.000481606 0)
(-0.00861238 0.000475753 0)
(-0.00887978 0.000469228 0)
(-0.00914327 0.000462047 0)
(-0.00940251 0.000454221 0)
(-0.0096571 0.000445764 0)
(-0.00990671 0.000436687 0)
(-0.010151 0.000427003 0)
(-0.0103896 0.000416723 0)
(-0.0106222 0.000405859 0)
(-0.0108484 0.000394423 0)
(-0.011068 0.000382426 0)
(-0.0112806 0.00036988 0)
(-0.0114859 0.000356797 0)
(-0.0116836 0.00034319 0)
(-0.0118735 0.000329069 0)
(-0.0120552 0.000314448 0)
(-0.0122284 0.000299341 0)
(-0.012393 0.000283761 0)
(-0.0125485 0.000267721 0)
(-0.0126948 0.000251238 0)
(-0.0128317 0.000234325 0)
(-0.0129588 0.000217001 0)
(-0.013076 0.000199281 0)
(-0.0131831 0.000181184 0)
(-0.0132798 0.000162728 0)
(-0.0133659 0.000143933 0)
(-0.0134413 0.00012482 0)
(-0.0135058 0.000105412 0)
(-0.0135593 8.5731e-05 0)
(-0.0136015 6.58006e-05 0)
(-0.0136324 4.5647e-05 0)
(-0.0136519 2.52962e-05 0)
(-0.0136598 4.77433e-06 0)
(-0.0136561 -1.58893e-05 0)
(-0.0136407 -3.66647e-05 0)
(-0.0136135 -5.75225e-05 0)
(-0.0135746 -7.84307e-05 0)
(-0.0135238 -9.93558e-05 0)
(-0.0134613 -0.000120264 0)
(-0.013387 -0.000141122 0)
(-0.0133009 -0.000161891 0)
(-0.0132032 -0.000182536 0)
(-0.0130939 -0.00020302 0)
(-0.0129732 -0.000223303 0)
(-0.0128411 -0.000243348 0)
(-0.0126978 -0.000263113 0)
(-0.0125435 -0.000282559 0)
(-0.0123783 -0.000301646 0)
(-0.0122025 -0.000320332 0)
(-0.0120164 -0.000338577 0)
(-0.0118201 -0.000356339 0)
(-0.011614 -0.000373576 0)
(-0.0113984 -0.000390248 0)
(-0.0111736 -0.000406313 0)
(-0.01094 -0.00042173 0)
(-0.0106979 -0.000436459 0)
(-0.0104477 -0.00045046 0)
(-0.0101899 -0.000463695 0)
(-0.00992495 -0.000476123 0)
(-0.00965322 -0.000487708 0)
(-0.00937524 -0.000498413 0)
(-0.00909151 -0.000508204 0)
(-0.00880254 -0.000517046 0)
(-0.00850888 -0.000524909 0)
(-0.0082111 -0.00053176 0)
(-0.00790975 -0.000537571 0)
(-0.00760542 -0.000542315 0)
(-0.00729873 -0.000545966 0)
(-0.00699029 -0.000548501 0)
(-0.00668072 -0.000549901 0)
(-0.00637065 -0.000550147 0)
(-0.00606075 -0.000549221 0)
(-0.00575166 -0.000547112 0)
(-0.00544404 -0.000543807 0)
(-0.00513857 -0.0005393 0)
(-0.0048359 -0.000533584 0)
(-0.00453671 -0.000526658 0)
(-0.00424168 -0.000518522 0)
(-0.00395146 -0.000509181 0)
(-0.00366672 -0.000498641 0)
(-0.00338813 -0.000486914 0)
(-0.00311633 -0.000474013 0)
(-0.00285196 -0.000459957 0)
(-0.00259566 -0.000444767 0)
(-0.00234803 -0.00042847 0)
(-0.00210968 -0.000411095 0)
(-0.00188117 -0.000392678 0)
(-0.00166307 -0.00037326 0)
(-0.00145591 -0.000352887 0)
(-0.00126018 -0.000331609 0)
(-0.00107635 -0.000309488 0)
(-0.000904855 -0.000286591 0)
(-0.000746073 -0.000262995 0)
(-0.000600345 -0.000238787 0)
(-0.000467956 -0.000214068 0)
(-0.000349128 -0.000188951 0)
(-0.000244011 -0.000163573 0)
(-0.000152672 -0.000138087 0)
(-7.50877e-05 -0.000112677 0)
(-1.11218e-05 -8.75613e-05 0)
(3.94884e-05 -6.29975e-05 0)
(7.71546e-05 -3.92977e-05 0)
(0.000102462 -1.68389e-05 0)
(0.000116201 3.91919e-06 0)
(0.0001194 2.24149e-05 0)
(0.000113365 3.79615e-05 0)
(9.97201e-05 4.97263e-05 0)
(8.04519e-05 5.67194e-05 0)
(5.78988e-05 5.78119e-05 0)
(3.47518e-05 5.18081e-05 0)
(1.47034e-05 3.76514e-05 0)
(3.00866e-06 1.49949e-05 0)
(2.74768e-06 -2.2757e-05 0)
(1.18248e-05 -4.87411e-05 0)
(2.48023e-05 -5.85364e-05 0)
(3.59877e-05 -5.50876e-05 0)
(4.13802e-05 -4.10343e-05 0)
(3.81373e-05 -1.87141e-05 0)
(2.39441e-05 9.88303e-06 0)
(-3.04473e-06 4.31117e-05 0)
(-4.42341e-05 7.96343e-05 0)
(-0.000100652 0.000118373 0)
(-0.000173003 0.000158466 0)
(-0.000261723 0.000199227 0)
(-0.000367019 0.000240106 0)
(-0.00048891 0.00028067 0)
(-0.000627261 0.000320573 0)
(-0.000781807 0.000359544 0)
(-0.00095218 0.000397368 0)
(-0.00113793 0.000433877 0)
(-0.00133853 0.000468944 0)
(-0.00155341 0.000502468 0)
(-0.00178195 0.000534379 0)
(-0.00202351 0.000564622 0)
(-0.00227741 0.000593164 0)
(-0.00254295 0.000619983 0)
(-0.00281945 0.000645069 0)
(-0.00310618 0.000668421 0)
(-0.00340243 0.000690047 0)
(-0.0037075 0.000709959 0)
(-0.00402066 0.000728176 0)
(-0.00434122 0.00074472 0)
(-0.00466849 0.000759617 0)
(-0.00500176 0.000772893 0)
(-0.00534036 0.000784579 0)
(-0.00568362 0.000794705 0)
(-0.00603088 0.000803302 0)
(-0.0063815 0.000810403 0)
(-0.00673485 0.00081604 0)
(-0.00709029 0.000820243 0)
(-0.00744722 0.000823046 0)
(-0.00780505 0.000824478 0)
(-0.00816318 0.000824571 0)
(-0.00852104 0.000823354 0)
(-0.00887808 0.000820855 0)
(-0.00923374 0.000817104 0)
(-0.00958748 0.000812127 0)
(-0.00993877 0.00080595 0)
(-0.0102871 0.000798598 0)
(-0.010632 0.000790097 0)
(-0.0109729 0.000780469 0)
(-0.0113093 0.000769738 0)
(-0.0116409 0.000757925 0)
(-0.011967 0.000745052 0)
(-0.0122873 0.00073114 0)
(-0.0126013 0.00071621 0)
(-0.0129085 0.000700281 0)
(-0.0132086 0.000683372 0)
(-0.0135011 0.000665504 0)
(-0.0137856 0.000646695 0)
(-0.0140616 0.000626966 0)
(-0.0143289 0.000606336 0)
(-0.0145869 0.000584824 0)
(-0.0148354 0.000562451 0)
(-0.015074 0.000539237 0)
(-0.0153022 0.000515205 0)
(-0.0155198 0.000490375 0)
(-0.0157264 0.000464771 0)
(-0.0159217 0.000438416 0)
(-0.0161054 0.000411336 0)
(-0.0162771 0.000383556 0)
(-0.0164365 0.000355103 0)
(-0.0165835 0.000326006 0)
(-0.0167177 0.000296295 0)
(-0.0168388 0.000266 0)
(-0.0169467 0.000235155 0)
(-0.017041 0.000203795 0)
(-0.0171216 0.000171954 0)
(-0.0171883 0.000139672 0)
(-0.0172409 0.000106988 0)
(-0.0172793 7.39431e-05 0)
(-0.0173033 4.05809e-05 0)
(-0.0173127 6.94631e-06 0)
(-0.0173076 -2.69151e-05 0)
(-0.0172877 -6.09543e-05 0)
(-0.0172531 -9.51204e-05 0)
(-0.0172037 -0.000129362 0)
(-0.0171395 -0.000163626 0)
(-0.0170605 -0.000197856 0)
(-0.0169667 -0.000231995 0)
(-0.0168583 -0.000265985 0)
(-0.0167352 -0.000299766 0)
(-0.0165975 -0.000333276 0)
(-0.0164455 -0.000366454 0)
(-0.0162793 -0.000399235 0)
(-0.016099 -0.000431555 0)
(-0.015905 -0.000463349 0)
(-0.0156973 -0.000494551 0)
(-0.0154764 -0.000525093 0)
(-0.0152425 -0.00055491 0)
(-0.0149959 -0.000583933 0)
(-0.014737 -0.000612096 0)
(-0.0144662 -0.000639333 0)
(-0.0141839 -0.000665575 0)
(-0.0138905 -0.000690757 0)
(-0.0135866 -0.000714813 0)
(-0.0132725 -0.000737678 0)
(-0.012949 -0.00075929 0)
(-0.0126164 -0.000779585 0)
(-0.0122753 -0.000798504 0)
(-0.0119265 -0.000815988 0)
(-0.0115704 -0.000831979 0)
(-0.0112078 -0.000846424 0)
(-0.0108393 -0.000859271 0)
(-0.0104656 -0.000870469 0)
(-0.0100875 -0.000879973 0)
(-0.00970564 -0.000887739 0)
(-0.00932078 -0.000893726 0)
(-0.00893371 -0.000897898 0)
(-0.00854519 -0.000900221 0)
(-0.00815603 -0.000900666 0)
(-0.00776703 -0.000899207 0)
(-0.007379 -0.000895824 0)
(-0.00699277 -0.000890499 0)
(-0.00660915 -0.00088322 0)
(-0.00622898 -0.00087398 0)
(-0.0058531 -0.000862775 0)
(-0.00548232 -0.000849608 0)
(-0.00511749 -0.000834487 0)
(-0.00475941 -0.000817424 0)
(-0.00440891 -0.000798438 0)
(-0.00406679 -0.000777554 0)
(-0.00373384 -0.000754803 0)
(-0.00341082 -0.000730222 0)
(-0.00309851 -0.000703854 0)
(-0.00279763 -0.000675753 0)
(-0.00250889 -0.000645977 0)
(-0.00223296 -0.000614594 0)
(-0.00197049 -0.000581683 0)
(-0.00172209 -0.000547331 0)
(-0.00148832 -0.000511638 0)
(-0.0012697 -0.000474718 0)
(-0.00106669 -0.000436699 0)
(-0.000879681 -0.000397727 0)
(-0.000709017 -0.000357969 0)
(-0.000554948 -0.000317615 0)
(-0.000417637 -0.000276886 0)
(-0.000297148 -0.000236036 0)
(-0.00019343 -0.000195362 0)
(-0.000106299 -0.000155212 0)
(-3.54225e-05 -0.000115998 0)
(1.97096e-05 -7.82076e-05 0)
(5.98033e-05 -4.24213e-05 0)
(8.57934e-05 -9.33533e-06 0)
(9.88749e-05 2.02173e-05 0)
(0.000100537 4.52419e-05 0)
(9.26032e-05 6.45599e-05 0)
(7.72661e-05 7.67991e-05 0)
(5.70832e-05 8.04082e-05 0)
(3.49954e-05 7.37196e-05 0)
(1.50656e-05 5.50886e-05 0)
(3.13094e-06 2.31204e-05 0)
(2.33025e-06 -2.86931e-05 0)
(9.33596e-06 -5.92977e-05 0)
(1.79224e-05 -6.83721e-05 0)
(2.25959e-05 -6.00686e-05 0)
(1.93644e-05 -3.78298e-05 0)
(5.31226e-06 -4.63503e-06 0)
(-2.19408e-05 3.69807e-05 0)
(-6.43053e-05 8.49021e-05 0)
(-0.000123257 0.000137381 0)
(-0.00019989 0.000192987 0)
(-0.000294972 0.000250554 0)
(-0.000408985 0.000309135 0)
(-0.00054217 0.000367966 0)
(-0.000694562 0.000426428 0)
(-0.000866027 0.000484026 0)
(-0.00105628 0.000540363 0)
(-0.00126493 0.00059512 0)
(-0.00149146 0.000648049 0)
(-0.00173531 0.000698951 0)
(-0.00199582 0.000747676 0)
(-0.0022723 0.000794108 0)
(-0.00256401 0.000838162 0)
(-0.00287018 0.00087978 0)
(-0.00319002 0.000918922 0)
(-0.00352271 0.000955567 0)
(-0.00386744 0.000989707 0)
(-0.00422338 0.00102135 0)
(-0.0045897 0.0010505 0)
(-0.00496557 0.00107719 0)
(-0.00535016 0.00110144 0)
(-0.00574266 0.00112329 0)
(-0.00614225 0.00114277 0)
(-0.00654814 0.00115992 0)
(-0.00695954 0.00117479 0)
(-0.00737566 0.00118741 0)
(-0.00779575 0.00119784 0)
(-0.00821904 0.00120611 0)
(-0.00864481 0.00121227 0)
(-0.00907232 0.00121637 0)
(-0.00950087 0.00121845 0)
(-0.00992975 0.00121856 0)
(-0.0103583 0.00121673 0)
(-0.0107858 0.00121301 0)
(-0.0112116 0.00120743 0)
(-0.0116352 0.00120005 0)
(-0.0120557 0.00119089 0)
(-0.0124728 0.00117999 0)
(-0.0128856 0.00116739 0)
(-0.0132936 0.00115312 0)
(-0.0136964 0.00113722 0)
(-0.0140931 0.00111972 0)
(-0.0144834 0.00110065 0)
(-0.0148667 0.00108004 0)
(-0.0152424 0.00105793 0)
(-0.01561 0.00103433 0)
(-0.015969 0.00100929 0)
(-0.0163189 0.000982823 0)
(-0.0166591 0.000954969 0)
(-0.0169893 0.000925752 0)
(-0.0173089 0.000895204 0)
(-0.0176174 0.000863353 0)
(-0.0179144 0.000830231 0)
(-0.0181996 0.000795869 0)
(-0.0184723 0.000760297 0)
(-0.0187323 0.000723551 0)
(-0.0189791 0.000685663 0)
(-0.0192124 0.00064667 0)
(-0.0194317 0.000606609 0)
(-0.0196366 0.00056552 0)
(-0.019827 0.000523441 0)
(-0.0200023 0.000480416 0)
(-0.0201623 0.000436491 0)
(-0.0203067 0.00039171 0)
(-0.0204351 0.000346123 0)
(-0.0205474 0.000299783 0)
(-0.0206433 0.000252742 0)
(-0.0207226 0.000205056 0)
(-0.020785 0.000156785 0)
(-0.0208303 0.00010799 0)
(-0.0208584 5.87342e-05 0)
(-0.0208692 9.0845e-06 0)
(-0.0208626 -4.08899e-05 0)
(-0.0208383 -9.11181e-05 0)
(-0.0207965 -0.000141526 0)
(-0.0207369 -0.000192036 0)
(-0.0206597 -0.000242569 0)
(-0.0205648 -0.000293044 0)
(-0.0204523 -0.000343378 0)
(-0.0203223 -0.000393483 0)
(-0.0201748 -0.000443272 0)
(-0.02001 -0.000492655 0)
(-0.019828 -0.00054154 0)
(-0.0196291 -0.000589835 0)
(-0.0194134 -0.000637443 0)
(-0.0191813 -0.000684271 0)
(-0.018933 -0.00073022 0)
(-0.0186689 -0.000775193 0)
(-0.0183893 -0.000819093 0)
(-0.0180946 -0.00086182 0)
(-0.0177852 -0.000903277 0)
(-0.0174617 -0.000943365 0)
(-0.0171245 -0.000981988 0)
(-0.016774 -0.00101905 0)
(-0.016411 -0.00105445 0)
(-0.016036 -0.0010881 0)
(-0.0156496 -0.0011199 0)
(-0.0152524 -0.00114977 0)
(-0.0148452 -0.00117761 0)
(-0.0144287 -0.00120334 0)
(-0.0140036 -0.00122688 0)
(-0.0135707 -0.00124815 0)
(-0.0131308 -0.00126707 0)
(-0.0126847 -0.00128357 0)
(-0.0122332 -0.00129759 0)
(-0.0117773 -0.00130905 0)
(-0.0113178 -0.00131791 0)
(-0.0108556 -0.0013241 0)
(-0.0103917 -0.00132759 0)
(-0.0099269 -0.00132832 0)
(-0.00946226 -0.00132626 0)
(-0.00899872 -0.00132139 0)
(-0.00853725 -0.00131367 0)
(-0.00807881 -0.0013031 0)
(-0.0076244 -0.00128965 0)
(-0.00717498 -0.00127333 0)
(-0.00673154 -0.00125415 0)
(-0.00629506 -0.0012321 0)
(-0.00586649 -0.00120723 0)
(-0.00544681 -0.00117955 0)
(-0.00503694 -0.0011491 0)
(-0.00463783 -0.00111593 0)
(-0.00425037 -0.0010801 0)
(-0.00387546 -0.00104168 0)
(-0.00351394 -0.00100073 0)
(-0.00316665 -0.00095736 0)
(-0.00283437 -0.000911665 0)
(-0.00251784 -0.000863763 0)
(-0.00221779 -0.000813787 0)
(-0.00193484 -0.000761888 0)
(-0.0016696 -0.000708235 0)
(-0.00142259 -0.00065302 0)
(-0.00119427 -0.000596462 0)
(-0.000985012 -0.000538807 0)
(-0.000795089 -0.000480337 0)
(-0.00062468 -0.000421377 0)
(-0.000473844 -0.000362297 0)
(-0.000342506 -0.000303528 0)
(-0.000230445 -0.00024557 0)
(-0.000137268 -0.000189006 0)
(-6.23926e-05 -0.00013452 0)
(-5.02148e-06 -8.29162e-05 0)
(3.58849e-05 -3.51438e-05 0)
(6.16375e-05 7.68062e-06 0)
(7.38487e-05 4.42452e-05 0)
(7.44682e-05 7.30198e-05 0)
(6.58199e-05 9.22411e-05 0)
(5.06019e-05 9.9915e-05 0)
(3.19253e-05 9.38513e-05 0)
(1.40451e-05 7.1727e-05 0)
(2.97497e-06 3.1038e-05 0)
(1.75416e-06 -3.30583e-05 0)
(5.92249e-06 -6.5775e-05 0)
(8.64828e-06 -7.18218e-05 0)
(4.9536e-06 -5.64062e-05 0)
(-8.97017e-06 -2.37345e-05 0)
(-3.6016e-05 2.25903e-05 0)
(-7.85501e-05 7.95037e-05 0)
(-0.00013848 0.00014443 0)
(-0.000217291 0.000215219 0)
(-0.000316098 0.000290085 0)
(-0.000435687 0.000367555 0)
(-0.000576559 0.000446416 0)
(-0.000738969 0.000525672 0)
(-0.000922954 0.000604512 0)
(-0.00112837 0.000682274 0)
(-0.00135492 0.000758422 0)
(-0.00160217 0.000832523 0)
(-0.00186959 0.000904231 0)
(-0.00215653 0.00097327 0)
(-0.0024623 0.00103943 0)
(-0.00278612 0.00110253 0)
(-0.00312719 0.00116246 0)
(-0.00348464 0.00121913 0)
(-0.0038576 0.00127247 0)
(-0.00424516 0.00132245 0)
(-0.00464639 0.00136904 0)
(-0.00506037 0.00141225 0)
(-0.00548616 0.00145209 0)
(-0.00592283 0.00148858 0)
(-0.00636945 0.00152176 0)
(-0.00682507 0.00155165 0)
(-0.00728879 0.00157832 0)
(-0.00775968 0.00160181 0)
(-0.00823685 0.00162216 0)
(-0.00871942 0.00163945 0)
(-0.00920649 0.00165372 0)
(-0.00969721 0.00166504 0)
(-0.0101907 0.00167346 0)
(-0.0106862 0.00167904 0)
(-0.0111829 0.00168185 0)
(-0.0116798 0.00168193 0)
(-0.0121764 0.00167934 0)
(-0.0126717 0.00167415 0)
(-0.0131651 0.00166641 0)
(-0.0136557 0.00165616 0)
(-0.0141429 0.00164347 0)
(-0.0146259 0.00162837 0)
(-0.015104 0.00161093 0)
(-0.0155766 0.00159118 0)
(-0.0160429 0.00156917 0)
(-0.0165024 0.00154495 0)
(-0.0169543 0.00151857 0)
(-0.0173981 0.00149005 0)
(-0.017833 0.00145946 0)
(-0.0182585 0.00142682 0)
(-0.018674 0.00139217 0)
(-0.019079 0.00135557 0)
(-0.0194727 0.00131705 0)
(-0.0198547 0.00127665 0)
(-0.0202245 0.00123441 0)
(-0.0205814 0.00119037 0)
(-0.020925 0.00114458 0)
(-0.0212547 0.00109708 0)
(-0.0215701 0.00104792 0)
(-0.0218707 0.000997138 0)
(-0.0221559 0.000944786 0)
(-0.0224255 0.000890913 0)
(-0.0226789 0.000835573 0)
(-0.0229156 0.000778819 0)
(-0.0231354 0.000720708 0)
(-0.0233378 0.000661299 0)
(-0.0235224 0.000600655 0)
(-0.023689 0.000538841 0)
(-0.0238371 0.000475925 0)
(-0.0239665 0.000411977 0)
(-0.0240769 0.000347074 0)
(-0.0241681 0.000281293 0)
(-0.0242397 0.000214714 0)
(-0.0242916 0.000147423 0)
(-0.0243236 7.95081e-05 0)
(-0.0243356 1.1061e-05 0)
(-0.0243273 -5.78229e-05 0)
(-0.0242988 -0.000127045 0)
(-0.0242499 -0.000196502 0)