/*--------------------------------*- C++ -*----------------------------------*\
  =========                 |
  \\      /  F ield         | OpenFOAM: The Open Source CFD Toolbox
   \\    /   O peration     | Website:  https://openfoam.org
    \\  /    A nd           | Version:  7
     \\/     M anipulation  |
\*---------------------------------------------------------------------------*/
FoamFile
{
    version     2.0;
    format      ascii;
    class       volScalarField;
    location    "0.3625";
    object      p;
}
// * * * * * * * * * * * * * * * * * * * * * * * * * * * * * * * * * * * * * //

dimensions      [0 2 -2 0 0 0 0];

internalField   nonuniform List<scalar> 
25600
(
1.20664e-09
6.97761e-06
1.17353e-05
1.05559e-05
3.15186e-06
-8.88198e-06
-2.42947e-05
-4.20259e-05
-6.12192e-05
-8.11947e-05
-0.000101391
-0.000121317
-0.000140557
-0.000158796
-0.000175767
-0.000191234
-0.00020501
-0.000216947
-0.000226925
-0.000234849
-0.000240648
-0.000244261
-0.00024563
-0.000244713
-0.000241492
-0.000235963
-0.00022812
-0.000217956
-0.000205472
-0.000190676
-0.000173571
-0.000154162
-0.000132467
-0.000108508
-8.22991e-05
-5.38475e-05
-2.31616e-05
9.73771e-06
4.48283e-05
8.20943e-05
0.000121526
0.000163112
0.000206831
0.000252666
0.000300604
0.000350638
0.000402751
0.000456924
0.000513139
0.000571383
0.000631647
0.000693921
0.000758188
0.000824423
0.000892607
0.000962728
0.00103477
0.00110872
0.00118454
0.0012622
0.00134168
0.00142294
0.00150597
0.00159071
0.00167713
0.00176516
0.00185478
0.00194592
0.00203853
0.00213256
0.00222792
0.00232455
0.00242237
0.0025213
0.00262128
0.0027222
0.00282398
0.0029265
0.00302967
0.00313338
0.00323752
0.00334197
0.00344662
0.00355132
0.00365596
0.00376038
0.00386447
0.00396808
0.00407107
0.00417329
0.00427459
0.00437482
0.00447382
0.00457145
0.00466756
0.004762
0.00485462
0.00494526
0.00503378
0.00512002
0.00520385
0.00528513
0.00536373
0.00543954
0.00551241
0.00558225
0.00564893
0.00571234
0.00577241
0.00582905
0.00588219
0.00593176
0.00597771
0.00601998
0.00605855
0.00609338
0.00612447
0.0061518
0.00617541
0.0061953
0.00621152
0.00622412
0.00623314
0.00623865
0.00624073
0.00623947
0.00623499
0.00622739
0.0062168
0.00620337
0.00618725
0.00616858
0.00614753
0.00612427
0.00609898
0.00607186
0.00604311
0.00601294
0.00598157
0.00594922
0.00591612
0.00588251
0.00584864
0.00581476
0.00578114
0.00574804
0.00571576
0.0056846
0.00565487
0.00562691
0.00560106
0.00557768
0.00555714
0.0055398
0.00552601
0.00551609
0.0055102
0.00550829
0.00550988
0.00551345
5.2829e-06
1.19093e-05
1.51187e-05
1.34965e-05
7.31299e-06
-2.64571e-06
-1.55151e-05
-3.04758e-05
-4.68053e-05
-6.39219e-05
-8.13243e-05
-9.85631e-05
-0.000115267
-0.000131121
-0.000145859
-0.000159262
-0.000171143
-0.000181345
-0.000189733
-0.00019621
-0.000200699
-0.000203133
-0.000203455
-0.000201619
-0.000197595
-0.000191362
-0.000182903
-0.000172209
-0.000159283
-0.000144127
-0.000126734
-0.000107105
-8.52545e-05
-6.11981e-05
-3.49463e-05
-6.50236e-06
2.41227e-05
5.691e-05
9.18439e-05
0.000128914
0.000168111
0.000209421
0.000252822
0.000298299
0.000345845
0.000395452
0.000447098
0.000500766
0.000556437
0.000614102
0.00067375
0.00073537
0.000798939
0.000864434
0.000931838
0.00100114
0.00107233
0.00114537
0.00122023
0.00129689
0.00137532
0.0014555
0.00153738
0.00162094
0.00170611
0.00179285
0.00188112
0.00197087
0.00206204
0.00215457
0.00224838
0.0023434
0.00243957
0.0025368
0.00263503
0.00273415
0.00283408
0.00293471
0.00303595
0.00313768
0.0032398
0.00334221
0.00344477
0.00354736
0.00364985
0.00375212
0.00385402
0.00395543
0.00405621
0.00415622
0.00425531
0.00435332
0.00445012
0.00454556
0.00463951
0.0047318
0.00482231
0.00491089
0.00499737
0.00508164
0.00516354
0.00524296
0.00531978
0.00539386
0.00546511
0.00553339
0.0055986
0.00566065
0.00571945
0.00577493
0.00582702
0.00587566
0.0059208
0.00596239
0.00600039
0.00603479
0.00606556
0.00609273
0.0061163
0.0061363
0.00615276
0.00616573
0.00617526
0.00618143
0.0061843
0.00618396
0.00618053
0.00617411
0.00616484
0.00615286
0.00613829
0.0061213
0.00610204
0.00608068
0.00605739
0.00603238
0.00600582
0.00597792
0.0059489
0.00591897
0.00588836
0.0058573
0.00582601
0.00579475
0.00576375
0.00573329
0.00570362
0.00567504
0.00564783
0.0056223
0.00559874
0.00557747
0.00555879
0.005543
0.00553036
0.00552107
0.00551521
0.00551268
0.00551345
0.00551702
1.83249e-05
2.28041e-05
2.37433e-05
2.10372e-05
1.49595e-05
5.91551e-06
-5.54207e-06
-1.87867e-05
-3.32451e-05
-4.84027e-05
-6.38176e-05
-7.91082e-05
-9.39248e-05
-0.000107971
-0.000120995
-0.000132787
-0.000143169
-0.000151982
-0.000159094
-0.0001644
-0.000167817
-0.000169275
-0.000168718
-0.000166102
-0.000161393
-0.000154555
-0.000145563
-0.000134409
-0.000121094
-0.000105611
-8.79534e-05
-6.81219e-05
-4.61255e-05
-2.19723e-05
4.33307e-06
3.27872e-05
6.33749e-05
9.60772e-05
0.000130887
0.000167801
0.000206807
0.000247886
0.00029102
0.000336197
0.000383413
0.000432656
0.000483904
0.000537138
0.000592344
0.000649515
0.000708641
0.000769702
0.000832673
0.000897536
0.000964277
0.00103288
0.00110334
0.00117561
0.00124966
0.00132547
0.00140302
0.00148228
0.0015632
0.00164575
0.00172988
0.00181554
0.00190268
0.00199127
0.00208123
0.00217251
0.00226503
0.00235873
0.00245352
0.00254935
0.00264613
0.00274378
0.00284219
0.00294126
0.00304091
0.00314102
0.0032415
0.00334223
0.00344309
0.00354396
0.00364471
0.00374521
0.00384534
0.00394497
0.00404396
0.00414218
0.00423947
0.00433569
0.00443071
0.00452439
0.00461658
0.00470715
0.00479596
0.00488287
0.00496772
0.00505038
0.00513074
0.00520866
0.00528403
0.00535673
0.00542665
0.00549368
0.00555771
0.00561865
0.00567642
0.00573096
0.00578219
0.00583007
0.00587453
0.00591555
0.00595308
0.0059871
0.00601761
0.00604461
0.00606812
0.00608817
0.00610479
0.00611803
0.00612795
0.0061346
0.00613806
0.00613843
0.0061358
0.0061303
0.00612204
0.00611116
0.00609781
0.00608212
0.00606426
0.00604437
0.00602265
0.00599927
0.00597442
0.0059483
0.00592112
0.00589309
0.00586442
0.00583533
0.00580606
0.00577681
0.00574785
0.00571941
0.00569175
0.00566512
0.00563981
0.00561608
0.00559421
0.00557447
0.00555713
0.00554243
0.0055306
0.0055218
0.00551608
0.00551344
0.00551422
0.00551861
3.59471e-05
3.76284e-05
3.63644e-05
3.22648e-05
2.56173e-05
1.66839e-05
5.85544e-06
-6.43218e-06
-1.97169e-05
-3.35545e-05
-4.75732e-05
-6.14324e-05
-7.48198e-05
-8.74669e-05
-9.91401e-05
-0.000109637
-0.000118789
-0.000126447
-0.000132487
-0.000136804
-0.00013931
-0.000139928
-0.000138604
-0.000135297
-0.00012997
-0.000122581
-0.000113107
-0.000101538
-8.78636e-05
-7.20724e-05
-5.4158e-05
-3.41276e-05
-1.19864e-05
1.22683e-05
3.8637e-05
6.71116e-05
9.76755e-05
0.000130314
0.000165025
0.000201807
0.000240645
0.000281519
0.000324414
0.000369326
0.000416249
0.000465166
0.000516053
0.000568893
0.00062368
0.000680407
0.000739058
0.00079961
0.000862041
0.000926336
0.000992482
0.00106046
0.00113026
0.00120183
0.00127516
0.00135022
0.00142698
0.00150541
0.00158548
0.00166714
0.00175034
0.00183504
0.0019212
0.00200876
0.00209766
0.00218785
0.00227924
0.00237177
0.00246537
0.00255998
0.00265551
0.00275187
0.00284896
0.00294669
0.00304497
0.00314369
0.00324276
0.00334205
0.00344146
0.00354085
0.00364011
0.00373911
0.00383773
0.00393584
0.00403332
0.00413001
0.00422578
0.00432049
0.004414
0.00450618
0.0045969
0.00468601
0.00477339
0.00485888
0.00494234
0.00502366
0.00510271
0.00517936
0.00525351
0.00532505
0.00539385
0.00545981
0.00552283
0.00558283
0.00563972
0.00569345
0.00574395
0.00579117
0.00583505
0.00587556
0.00591267
0.00594635
0.0059766
0.00600343
0.00602686
0.00604692
0.00606365
0.00607708
0.00608727
0.00609428
0.0060982
0.00609911
0.00609711
0.00609233
0.00608488
0.00607489
0.0060625
0.00604786
0.00603111
0.00601242
0.00599196
0.0059699
0.00594643
0.00592175
0.00589606
0.00586956
0.00584246
0.00581496
0.0057873
0.00575968
0.00573234
0.0057055
0.00567941
0.00565432
0.00563047
0.00560812
0.00558752
0.00556892
0.00555255
0.00553863
0.00552737
0.00551892
0.00551336
0.00551076
0.00551171
0.00551673
5.60822e-05
5.49888e-05
5.16135e-05
4.60847e-05
3.85988e-05
2.9391e-05
1.87501e-05
7.00282e-06
-5.48705e-06
-1.8368e-05
-3.13144e-05
-4.40257e-05
-5.6235e-05
-6.77009e-05
-7.82121e-05
-8.7579e-05
-9.56408e-05
-0.000102261
-0.000107321
-0.000110725
-0.000112383
-0.000112219
-0.000110179
-0.000106219
-0.000100293
-9.2369e-05
-8.24262e-05
-7.04496e-05
-5.64193e-05
-4.03214e-05
-2.21532e-05
-1.92034e-06
2.03758e-05
4.47426e-05
7.11821e-05
9.96813e-05
0.000130226
0.000162812
0.000197438
0.000234098
0.000272772
0.000313445
0.000356113
0.00040077
0.000447406
0.000496
0.000546533
0.00059899
0.000653371
0.000709664
0.000767848
0.0008279
0.000889803
0.000953544
0.00101911
0.00108648
0.00115563
0.00122653
0.00129915
0.00137348
0.00144948
0.00152712
0.00160637
0.00168717
0.00176947
0.00185325
0.00193846
0.00202505
0.00211294
0.00220208
0.00229239
0.00238382
0.0024763
0.00256975
0.0026641
0.00275925
0.0028551
0.00295157
0.00304856
0.00314598
0.00324373
0.00334168
0.00343973
0.00353775
0.00363561
0.00373322
0.00383044
0.00392715
0.00402322
0.0041185
0.00421286
0.00430617
0.00439829
0.00448909
0.00457845
0.00466622
0.00475227
0.00483646
0.00491866
0.00499873
0.00507657
0.00515206
0.00522509
0.00529554
0.00536331
0.00542828
0.00549037
0.00554949
0.00560557
0.00565855
0.00570836
0.00575496
0.00579829
0.00583831
0.005875
0.00590834
0.00593833
0.00596498
0.00598831
0.00600835
0.00602513
0.00603869
0.0060491
0.00605641
0.0060607
0.00606207
0.00606061
0.00605645
0.00604969
0.00604047
0.00602892
0.00601519
0.00599943
0.00598178
0.00596242
0.00594153
0.00591928
0.00589587
0.00587149
0.00584633
0.00582061
0.00579452
0.00576827
0.00574207
0.00571614
0.00569069
0.00566596
0.00564218
0.00561958
0.00559839
0.00557884
0.00556116
0.00554557
0.00553225
0.0055214
0.00551318
0.00550769
0.00550503
0.00550591
0.00551095
7.85338e-05
7.44028e-05
6.88589e-05
6.18293e-05
5.33321e-05
4.35654e-05
3.27729e-05
2.12271e-05
9.19442e-06
-3.04248e-06
-1.52031e-05
-2.70346e-05
-3.83028e-05
-4.87978e-05
-5.83281e-05
-6.67261e-05
-7.38431e-05
-7.95494e-05
-8.37371e-05
-8.63112e-05
-8.71886e-05
-8.6304e-05
-8.36018e-05
-7.90285e-05
-7.25406e-05
-6.41103e-05
-5.37182e-05
-4.13427e-05
-2.69621e-05
-1.05652e-05
7.84901e-06
2.82815e-05
5.07385e-05
7.52262e-05
0.000101739
0.000130265
0.000160799
0.000193342
0.00022789
0.000264432
0.00030295
0.000343435
0.000385886
0.000430297
0.000476653
0.000524932
0.000575119
0.000627207
0.000681194
0.000737064
0.000794793
0.000854359
0.00091575
0.000978956
0.00104396
0.00111074
0.00117927
0.00124952
0.00132146
0.00139508
0.00147036
0.00154724
0.00162569
0.00170567
0.00178713
0.00187003
0.00195434
0.00204
0.00212693
0.00221508
0.00230439
0.00239478
0.0024862
0.00257857
0.00267181
0.00276583
0.00286052
0.00295582
0.00305162
0.00314784
0.00324436
0.00334108
0.00343787
0.00353461
0.00363121
0.00372754
0.00382347
0.0039189
0.00401367
0.00410766
0.00420074
0.00429276
0.00438362
0.00447317
0.00456128
0.00464783
0.00473268
0.00481568
0.00489672
0.00497567
0.00505241
0.00512684
0.00519884
0.00526831
0.00533512
0.0053992
0.00546043
0.00551875
0.00557407
0.00562635
0.00567553
0.00572154
0.00576435
0.00580391
0.0058402
0.00587321
0.00590293
0.00592939
0.00595259
0.00597257
0.00598937
0.00600302
0.00601358
0.00602112
0.00602571
0.00602745
0.00602643
0.00602278
0.0060166
0.00600803
0.0059972
0.00598425
0.00596932
0.00595257
0.00593416
0.00591427
0.00589307
0.00587075
0.0058475
0.00582351
0.00579898
0.0057741
0.00574906
0.00572408
0.00569935
0.00567509
0.0056515
0.00562882
0.00560725
0.00558701
0.0055683
0.00555135
0.00553633
0.00552344
0.00551285
0.00550471
0.00549914
0.00549626
0.00549676
0.00550128
0.000102798
9.54558e-05
8.76246e-05
7.90005e-05
6.9323e-05
5.87722e-05
4.75734e-05
3.59316e-05
2.4062e-05
1.21951e-05
5.58067e-07
-1.06382e-05
-2.1192e-05
-3.09176e-05
-3.96474e-05
-4.72345e-05
-5.35463e-05
-5.84677e-05
-6.18931e-05
-6.37308e-05
-6.39102e-05
-6.23726e-05
-5.906e-05
-5.39178e-05
-4.69099e-05
-3.80114e-05
-2.71954e-05
-1.44366e-05
2.81117e-07
1.6964e-05
3.56158e-05
5.62461e-05
7.88643e-05
0.000103471
0.000130057
0.000158615
0.000189147
0.000221654
0.000256129
0.000292557
0.000330927
0.000371236
0.000413481
0.000457656
0.000503739
0.000551713
0.000601569
0.000653304
0.000706911
0.00076237
0.000819657
0.000878756
0.000939658
0.00100235
0.00106682
0.00113303
0.00120096
0.00127059
0.00134189
0.00141484
0.00148942
0.00156557
0.00164327
0.00172247
0.00180313
0.00188522
0.00196868
0.00205347
0.0021395
0.00222673
0.00231509
0.00240453
0.00249497
0.00258634
0.00267855
0.00277152
0.00286515
0.00295937
0.00305408
0.0031492
0.0032446
0.00334018
0.00343583
0.00353143
0.00362687
0.00372204
0.00381681
0.00391107
0.00400468
0.00409751
0.00418943
0.0042803
0.00437002
0.00445844
0.00454545
0.0046309
0.00471466
0.0047966
0.0048766
0.00495454
0.0050303
0.00510377
0.00517486
0.00524343
0.0053094
0.00537266
0.00543312
0.0054907
0.00554535
0.00559699
0.00564557
0.00569105
0.00573337
0.00577249
0.0058084
0.00584108
0.00587054
0.00589679
0.00591985
0.00593974
0.00595651
0.00597019
0.00598085
0.00598855
0.00599336
0.00599538
0.00599471
0.00599146
0.00598576
0.00597771
0.00596747
0.00595515
0.00594092
0.00592491
0.00590729
0.00588824
0.00586792
0.00584651
0.00582422
0.0058012
0.00577767
0.00575379
0.00572977
0.0057058
0.00568206
0.00565878
0.00563613
0.00561433
0.00559358
0.00557408
0.00555602
0.0055396
0.00552498
0.00551234
0.00550183
0.00549362
0.00548781
0.00548452
0.00548439
0.00548792
0.000128317
0.000117674
0.000107477
9.71398e-05
8.61367e-05
7.46382e-05
6.28246e-05
5.08576e-05
3.89163e-05
2.71849e-05
1.5845e-05
5.07347e-06
-4.96237e-06
-1.40995e-05
-2.21956e-05
-2.91195e-05
-3.47576e-05
-3.9007e-05
-4.17701e-05
-4.29661e-05
-4.25318e-05
-4.04074e-05
-3.65357e-05
-3.08738e-05
-2.33897e-05
-1.40552e-05
-2.84081e-06
1.02778e-05
2.53126e-05
4.2267e-05
6.11492e-05
8.19748e-05
0.000104751
0.00012947
0.000156127
0.000184721
0.000215258
0.000247733
0.000282137
0.000318456
0.000356687
0.000396829
0.000438879
0.000482822
0.00052864
0.000576321
0.000625862
0.000677258
0.000730497
0.000785557
0.000842418
0.000901069
0.000961503
0.00102371
0.00108765
0.00115332
0.00122068
0.00128971
0.0013604
0.00143272
0.00150663
0.00158211
0.00165909
0.00173756
0.00181747
0.00189879
0.00198146
0.00206542
0.00215062
0.00223699
0.00232448
0.00241302
0.00250256
0.002593
0.00268427
0.00277628
0.00286894
0.00296218
0.0030559
0.00315001
0.0032444
0.00333895
0.00343357
0.00352812
0.00362252
0.00371665
0.00381039
0.0039036
0.00399617
0.00408796
0.00417884
0.00426869
0.00435739
0.00444481
0.00453083
0.0046153
0.0046981
0.0047791
0.00485818
0.00493521
0.0050101
0.00508273
0.005153
0.00522078
0.00528598
0.00534851
0.00540827
0.0054652
0.00551923
0.00557029
0.00561834
0.00566331
0.00570518
0.00574389
0.00577943
0.0058118
0.00584099
0.00586701
0.0058899
0.00590968
0.00592639
0.00594006
0.00595075
0.00595854
0.0059635
0.00596572
0.0059653
0.00596236
0.00595702
0.00594939
0.0059396
0.00592779
0.00591411
0.0058987
0.00588172
0.00586335
0.00584374
0.00582309
0.00580157
0.00577935
0.00575663
0.00573358
0.00571038
0.00568723
0.0056643
0.00564179
0.00561988
0.00559878
0.00557866
0.00555971
0.00554211
0.00552603
0.00551164
0.00549909
0.00548852
0.00548008
0.00547387
0.00547001
0.00546901
0.00547123
0.000154558
0.000140595
0.000127972
0.00011584
0.000103402
9.08054e-05
7.82137e-05
6.57493e-05
5.35493e-05
4.17568e-05
3.05236e-05
1.99952e-05
1.03086e-05
1.59874e-06
-6.01157e-06
-1.24106e-05
-1.74971e-05
-2.11787e-05
-2.33747e-05
-2.40178e-05
-2.30455e-05
-2.03972e-05
-1.60249e-05
-9.89486e-06
-1.97622e-06
7.76248e-06
1.93497e-05
3.28026e-05
4.81292e-05
6.53388e-05
8.44448e-05
0.00010546
0.000128384
0.000153208
0.000179935
0.00020857
0.000239113
0.000271557
0.00030589
0.000342106
0.000380207
0.000420192
0.000462051
0.000505768
0.00055133
0.000598731
0.00064797
0.00069904
0.000751922
0.000806596
0.000863048
0.000921271
0.000981257
0.00104299
0.00110644
0.00117158
0.00123839
0.00130686
0.00137697
0.00144869
0.00152198
0.0015968
0.00167312
0.0017509
0.00183011
0.00191071
0.00199264
0.00207584
0.00216025
0.00224583
0.00233251
0.00242024
0.00250894
0.00259854
0.00268894
0.00278007
0.00287185
0.0029642
0.00305702
0.00315022
0.00324369
0.00333733
0.00343101
0.00352464
0.00361811
0.00371131
0.00380412
0.00389641
0.00398804
0.00407891
0.00416888
0.00425783
0.00434564
0.00443218
0.00451732
0.00460093
0.00468289
0.00476306
0.00484132
0.00491757
0.00499169
0.00506358
0.00513311
0.0052002
0.00526472
0.0053266
0.00538574
0.00544208
0.00549555
0.00554609
0.00559365
0.00563817
0.0056796
0.00571793
0.00575312
0.00578517
0.0058141
0.0058399
0.0058626
0.00588224
0.00589884
0.00591245
0.00592313
0.00593095
0.00593598
0.00593832
0.00593807
0.00593535
0.00593026
0.00592293
0.00591348
0.00590206
0.0058888
0.00587385
0.00585737
0.00583952
0.00582048
0.00580042
0.00577951
0.00575792
0.00573584
0.00571344
0.00569089
0.00566837
0.00564607
0.00562415
0.00560281
0.00558221
0.00556254
0.00554397
0.00552667
0.00551078
0.00549646
0.00548385
0.00547308
0.00546427
0.00545752
0.00545295
0.00545089
0.00545158
0.000181015
0.000163756
0.000148695
0.000134728
0.000120767
0.000106957
9.3457e-05
8.03524e-05
6.77384e-05
5.57279e-05
4.44427e-05
3.40012e-05
2.4516e-05
1.60934e-05
8.83703e-06
2.84022e-06
-1.80584e-06
-5.02133e-06
-6.74476e-06
-6.91542e-06
-5.47126e-06
-2.36135e-06
2.45075e-06
8.99729e-06
1.73109e-05
2.74214e-05
3.93509e-05
5.31092e-05
6.87052e-05
8.61557e-05
0.000105475
0.000126666
0.000149725
0.00017465
0.000201447
0.000230122
0.000260669
0.000293079
0.000327344
0.000363464
0.000401442
0.000441275
0.000482948
0.000526445
0.000571761
0.000618896
0.000667845
0.000718598
0.000771134
0.000825438
0.0008815
0.000939314
0.000998871
0.00106015
0.00112312
0.00118776
0.00125406
0.001322
0.00139156
0.00146271
0.0015354
0.00160961
0.0016853
0.00176244
0.001841
0.00192093
0.00200216
0.00208466
0.00216836
0.0022532
0.00233915
0.00242613
0.00251407
0.00260288
0.0026925
0.00278284
0.00287383
0.00296537
0.00305739
0.00314978
0.00324243
0.00333523
0.00342809
0.0035209
0.00361355
0.00370594
0.00379793
0.0038894
0.00398023
0.00407029
0.00415946
0.00424762
0.00433466
0.00442043
0.00450482
0.00458769
0.00466891
0.00474835
0.00482592
0.00490148
0.00497494
0.00504618
0.00511508
0.00518156
0.00524549
0.00530679
0.00536539
0.00542121
0.00547418
0.00552425
0.00557136
0.00561546
0.00565651
0.00569447
0.00572933
0.00576108
0.00578973
0.00581529
0.0058378
0.00585726
0.00587373
0.00588724
0.00589785
0.00590564
0.00591068
0.00591306
0.0059129
0.00591029
0.00590536
0.00589823
0.00588901
0.00587785
0.00586489
0.00585027
0.00583415
0.00581669
0.00579806
0.00577844
0.00575798
0.00573687
0.00571527
0.00569335
0.00567128
0.00564923
0.00562738
0.00560589
0.00558494
0.00556469
0.00554532
0.00552697
0.0055098
0.00549396
0.00547957
0.00546677
0.00545566
0.00544636
0.00543896
0.00543355
0.00543032
0.00542934
0.000207244
0.000186747
0.00016926
0.000153426
0.000137894
0.000122799
0.00010829
9.44247e-05
8.12723e-05
6.89151e-05
5.74456e-05
4.69584e-05
3.75433e-05
2.92853e-05
2.22661e-05
1.6567e-05
1.22619e-05
9.4124e-06
8.07469e-06
8.30535e-06
1.01549e-05
1.36624e-05
1.88587e-05
2.57755e-05
3.4445e-05
4.48912e-05
5.71274e-05
7.11618e-05
8.70083e-05
0.000104685
0.000124201
0.000145551
0.000168734
0.000193755
0.00022062
0.00024933
0.000279877
0.00031225
0.00034645
0.00038248
0.000420341
0.000460023
0.000501512
0.000544797
0.000589881
0.000636762
0.000685432
0.000735875
0.000788078
0.000842027
0.000897718
0.000955144
0.00101429
0.00107513
0.00113765
0.00120182
0.00126763
0.00133507
0.00140411
0.00147472
0.00154685
0.00162049
0.0016956
0.00177214
0.00185009
0.00192939
0.00200999
0.00209183
0.00217487
0.00225905
0.00234433
0.00243062
0.00251787
0.00260599
0.0026949
0.00278453
0.0028748
0.00296563
0.00305693
0.0031486
0.00324052
0.00333261
0.00342474
0.00351684
0.00360878
0.00370045
0.00379173
0.0038825
0.00397263
0.004062
0.00415049
0.00423798
0.00432436
0.00440948
0.00449322
0.00457545
0.00465605
0.00473489
0.00481185
0.00488684
0.00495973
0.00503041
0.00509878
0.00516473
0.00522815
0.00528896
0.00534708
0.00540244
0.00545498
0.00550463
0.00555135
0.00559506
0.00563575
0.00567337
0.00570791
0.00573936
0.00576775
0.00579307
0.00581535
0.00583462
0.00585092
0.00586429
0.00587479
0.00588249
0.00588747
0.00588983
0.00588967
0.0058871
0.00588223
0.00587519
0.0058661
0.00585509
0.0058423
0.00582788
0.00581199
0.00579478
0.00577643
0.0057571
0.00573695
0.00571616
0.00569489
0.00567329
0.00565155
0.00562982
0.00560826
0.00558704
0.00556633
0.00554628
0.00552705
0.00550878
0.00549161
0.00547568
0.0054611
0.00544799
0.00543644
0.00542655
0.0054184
0.00541207
0.00540759
0.00540486
0.000232856
0.000209209
0.000189315
0.000171602
0.000154472
0.000138041
0.00012245
0.000107736
9.39451e-05
8.11353e-05
6.93731e-05
5.87285e-05
4.92712e-05
4.10678e-05
3.41862e-05
2.869e-05
2.46318e-05
2.20623e-05
2.10355e-05
2.15983e-05
2.37863e-05
2.76297e-05
3.31587e-05
4.04038e-05
4.93904e-05
6.01325e-05
7.26391e-05
8.69238e-05
0.000103003
0.000120887
0.000140578
0.00016207
0.000185368
0.000210479
0.000237405
0.000266144
0.000296683
0.000329018
0.000363157
0.000399103
0.000436847
0.000476379
0.000517688
0.000560771
0.000605633
0.00065227
0.000700669
0.000750814
0.000802696
0.000856308
0.000911647
0.000968702
0.00102745
0.00108788
0.00114996
0.00121369
0.00127904
0.00134601
0.00141456
0.00148466
0.00155627
0.00162938
0.00170394
0.00177994
0.00185732
0.00193605
0.00201606
0.00209731
0.00217974
0.00226333
0.00234799
0.00243367
0.00252029
0.00260778
0.00269606
0.00278507
0.00287471
0.00296492
0.00305559
0.00314663
0.00323792
0.00332938
0.00342089
0.00351237
0.0036037
0.00369477
0.00378546
0.00387563
0.00396517
0.00405396
0.00414188
0.00422881
0.00431464
0.00439922
0.00448243
0.00456413
0.00464421
0.00472254
0.00479902
0.00487352
0.00494594
0.00501617
0.00508408
0.00514958
0.00521257
0.00527297
0.00533068
0.00538565
0.00543781
0.0054871
0.00553346
0.00557683
0.00561718
0.00565448
0.00568872
0.0057199
0.00574801
0.00577308
0.00579513
0.00581419
0.00583029
0.00584347
0.00585381
0.00586137
0.00586623
0.0058685
0.00586827
0.00586565
0.00586076
0.00585371
0.00584464
0.00583367
0.00582094
0.00580661
0.00579082
0.00577374
0.00575553
0.00573635
0.00571638
0.00569576
0.00567467
0.00565326
0.00563169
0.00561012
0.00558872
0.00556763
0.00554701
0.00552702
0.00550779
0.00548947
0.00547218
0.00545604
0.00544116
0.00542764
0.00541556
0.005405
0.00539603
0.00538872
0.00538294
0.00537845
0.000257507
0.000230801
0.000208549
0.000188964
0.000170216
0.000152415
0.000135692
0.000120063
0.000105556
9.22077e-05
8.00619e-05
6.91675e-05
5.95735e-05
5.13344e-05
4.45017e-05
3.91175e-05
3.52221e-05
3.28614e-05
3.2078e-05
3.29049e-05
3.53672e-05
3.94915e-05
4.5307e-05
5.28381e-05
6.20992e-05
7.30971e-05
8.58431e-05
0.000100355
0.000116644
0.000134712
0.000154555
0.000176175
0.000199579
0.000224772
0.00025175
0.000280506
0.000311033
0.000343332
0.000377412
0.000413273
0.0004509
0.000490282
0.000531418
0.000574309
0.00061896
0.00066536
0.000713494
0.000763352
0.000814928
0.000868221
0.000923224
0.000979924
0.0010383
0.00109833
0.00116
0.00122331
0.00128824
0.00135476
0.00142285
0.00149247
0.0015636
0.00163621
0.00171028
0.00178577
0.00186264
0.00194083
0.00202031
0.00210102
0.00218291
0.00226596
0.00235008
0.00243521
0.00252127
0.00260821
0.00269594
0.00278439
0.0028735
0.00296316
0.00305329
0.00314378
0.00323454
0.00332547
0.00341646
0.00350743
0.00359826
0.00368883
0.00377901
0.00386869
0.00395775
0.00404607
0.00413354
0.00422002
0.00430541
0.00438955
0.00447233
0.00455361
0.00463328
0.00471121
0.00478729
0.00486142
0.00493346
0.00500331
0.00507086
0.005136
0.00519864
0.00525869
0.00531607
0.00537071
0.00542255
0.00547152
0.00551756
0.00556063
0.00560068
0.00563769
0.00567164
0.00570254
0.00573039
0.00575521
0.00577701
0.00579583
0.0058117
0.00582466
0.0058348
0.00584216
0.00584685
0.00584896
0.00584858
0.00584584
0.00584084
0.0058337
0.00582454
0.00581351
0.00580073
0.00578637
0.00577057
0.00575349
0.0057353
0.00571615
0.00569621
0.00567564
0.00565459
0.00563322
0.00561169
0.00559016
0.00556876
0.00554767
0.00552702
0.00550695
0.00548761
0.00546912
0.0054516
0.00543515
0.00541987
0.00540586
0.00539317
0.00538187
0.00537203
0.00536371
0.00535662
0.00535039
0.000280865
0.000251212
0.000226667
0.000205235
0.000184865
0.000165671
0.000147784
0.000131195
0.000115911
0.000101955
8.93512e-05
7.81277e-05
6.83226e-05
5.99718e-05
5.3105e-05
4.77538e-05
4.39525e-05
4.17355e-05
4.11297e-05
4.21565e-05
4.48367e-05
4.91945e-05
5.52529e-05
6.30247e-05
7.25157e-05
8.37339e-05
9.66937e-05
0.000111409
0.00012788
0.000146105
0.000166082
0.000187818
0.000211317
0.00023658
0.000263596
0.000292359
0.000322871
0.000355136
0.000389157
0.000424927
0.000462434
0.000501671
0.000542642
0.000585352
0.000629796
0.000675964
0.000723843
0.000773426
0.000824714
0.000877704
0.000932387
0.000988746
0.00104676
0.00110642
0.00116771
0.00123062
0.00129515
0.00136125
0.00142891
0.00149809
0.00156877
0.00164093
0.00171454
0.00178957
0.00186596
0.00194368
0.00202267
0.0021029
0.00218432
0.00226688
0.00235052
0.00243516
0.00252074
0.00260719
0.00269445
0.00278244
0.00287108
0.00296029
0.00304996
0.00314
0.00323031
0.0033208
0.00341138
0.00350193
0.00359235
0.00368252
0.00377231
0.00386161
0.0039503
0.00403825
0.00412537
0.00421151
0.00429656
0.00438038
0.00446283
0.0045438
0.00462315
0.00470079
0.00477658
0.00485041
0.00492217
0.00499174
0.00505901
0.00512387
0.00518623
0.005246
0.00530312
0.00535749
0.00540906
0.00545776
0.00550354
0.00554633
0.00558611
0.00562285
0.00565654
0.00568717
0.00571476
0.00573931
0.00576086
0.00577941
0.00579503
0.00580774
0.00581763
0.00582475
0.00582921
0.00583109
0.00583051
0.00582756
0.00582237
0.00581504
0.00580571
0.00579452
0.00578159
0.00576709
0.00575116
0.00573397
0.00571567
0.00569643
0.00567641
0.00565575
0.00563462
0.00561317
0.00559155
0.00556991
0.00554841
0.00552718
0.00550637
0.00548612
0.00546655
0.00544779
0.00542993
0.00541309
0.00539733
0.00538275
0.0053694
0.00535732
0.00534658
0.00533723
0.00532885
0.00532093
0.000302656
0.000270165
0.000243395
0.000220152
0.000198173
0.000177581
0.000158509
0.000140926
0.000124823
0.000110204
9.70813e-05
8.54691e-05
7.53882e-05
6.68541e-05
5.98843e-05
5.45037e-05
5.07364e-05
4.86008e-05
4.81103e-05
4.92803e-05
5.21303e-05
5.66784e-05
6.29344e-05
7.09006e-05
8.05823e-05
9.19916e-05
0.000105139
0.000120028
0.000136653
0.00015501
0.000175105
0.000196944
0.000220524
0.000245839
0.00027288
0.000301645
0.00033214
0.00036437
0.000398326
0.000434001
0.000471387
0.000510484
0.000551299
0.000593832
0.000638075
0.000684016
0.000731649
0.000780972
0.000831987
0.000884691
0.000939066
0.000995098
0.00105277
0.00111208
0.00117301
0.00123556
0.00129971
0.00136542
0.00143268
0.00150145
0.00157172
0.00164347
0.00171667
0.00179127
0.00186724
0.00194452
0.00202308
0.00210288
0.00218388
0.00226602
0.00234924
0.00243346
0.00251863
0.00260467
0.00269153
0.00277913
0.00286739
0.00295622
0.00304551
0.00313519
0.00322515
0.00331531
0.00340556
0.0034958
0.00358591
0.00367578
0.00376528
0.00385429
0.00394271
0.00403041
0.00411728
0.00420319
0.004288
0.00437159
0.00445383
0.00453458
0.00461373
0.00469116
0.00476675
0.00484039
0.00491196
0.00498133
0.0050484
0.00511306
0.00517522
0.0052348
0.0052917
0.00534587
0.00539723
0.00544571
0.00549126
0.00553382
0.00557336
0.00560985
0.00564329
0.00567367
0.005701
0.00572528
0.00574655
0.00576484
0.00578017
0.0057926
0.00580219
0.00580903
0.00581321
0.00581481
0.00581394
0.00581072
0.00580525
0.00579766
0.00578807
0.00577661
0.00576344
0.00574869
0.00573253
0.00571512
0.00569661
0.00567715
0.00565692
0.00563606
0.00561473
0.00559307
0.00557124
0.00554939
0.00552765
0.00550618
0.00548511
0.00546456
0.00544466
0.00542553
0.00540725
0.00538992
0.00537363
0.00535842
0.00534435
0.00533146
0.0053198
0.00530943
0.00529979
0.00529025
0.000322648
0.000287416
0.000258485
0.000233474
0.000209913
0.000187928
0.000167659
0.000149062
0.000132107
0.000116786
0.000103099
9.10495e-05
8.06338e-05
7.18569e-05
6.47303e-05
5.92674e-05
5.54773e-05
5.33648e-05
5.29361e-05
5.42035e-05
5.71806e-05
6.18731e-05
6.82796e-05
7.63996e-05
8.6241e-05
9.7814e-05
0.000111118
0.000126149
0.000142899
0.000161371
0.000181569
0.000203494
0.000227137
0.000252488
0.000279542
0.000308304
0.000338781
0.000370967
0.000404851
0.000440427
0.000477694
0.000516658
0.000557322
0.000599682
0.000643726
0.000689448
0.000736846
0.000785923
0.00083668
0.000889109
0.00094319
0.00099891
0.00105626
0.00111524
0.00117585
0.00123806
0.00130185
0.0013672
0.00143408
0.00150248
0.00157238
0.00164376
0.00171658
0.0017908
0.00186638
0.00194328
0.00202147
0.0021009
0.00218154
0.00226331
0.00234617
0.00243003
0.00251485
0.00260056
0.0026871
0.00277439
0.00286234
0.00295087
0.00303988
0.00312928
0.00321899
0.0033089
0.00339891
0.00348893
0.00357883
0.0036685
0.00375781
0.00384665
0.0039349
0.00402245
0.00410918
0.00419495
0.00427964
0.0043631
0.00444522
0.00452585
0.0046049
0.00468222
0.00475772
0.00483125
0.00490271
0.00497197
0.00503893
0.00510347
0.0051655
0.00522495
0.00528172
0.00533574
0.00538694
0.00543525
0.00548061
0.00552297
0.0055623
0.00559858
0.00563178
0.00566191
0.00568899
0.005713
0.00573399
0.00575198
0.005767
0.00577911
0.00578839
0.0057949
0.00579874
0.0058
0.00579879
0.00579522
0.00578941
0.00578147
0.00577152
0.00575972
0.0057462
0.00573112
0.00571462
0.00569688
0.00567804
0.00565827
0.00563771
0.00561654
0.00559488
0.00557291
0.00555075
0.00552857
0.0055065
0.00548467
0.00546323
0.00544229
0.00542197
0.00540238
0.00538361
0.00536573
0.00534882
0.00533294
0.00531813
0.00530441
0.00529183
0.00528046
0.00526961
0.00525854
0.000340617
0.000302742
0.000271714
0.000244981
0.00021987
0.000196508
0.000175041
0.000155416
0.000137588
0.000121539
0.000107256
9.47209e-05
8.39235e-05
7.48611e-05
6.75337e-05
6.1939e-05
5.80726e-05
5.59329e-05
5.5523e-05
5.68487e-05
5.99099e-05
6.46999e-05
7.12148e-05
7.94568e-05
8.94306e-05
0.000101136
0.000114564
0.000129705
0.00014656
0.000165129
0.000185412