0.05 	0.0003125 	0.005 	0.0036156
0.05 	0.0009375 	0.005 	0.00362301
0.05 	0.0015625 	0.005 	0.00362839
0.05 	0.0021875 	0.005 	0.00363223
0.05 	0.0028125 	0.005 	0.00363507
0.05 	0.0034375 	0.005 	0.00363683
0.05 	0.0040625 	0.005 	0.00363741
0.05 	0.0046875 	0.005 	0.00363674
0.05 	0.0053125 	0.005 	0.00363469
0.05 	0.0059375 	0.005 	0.00363116
0.05 	0.0065625 	0.005 	0.003626
0.05 	0.0071875 	0.005 	0.00361906
0.05 	0.0078125 	0.005 	0.00361017
0.05 	0.0084375 	0.005 	0.00359914
0.05 	0.0090625 	0.005 	0.00358578
0.05 	0.0096875 	0.005 	0.00356988
0.05 	0.0103125 	0.005 	0.00355122
0.05 	0.0109375 	0.005 	0.00352957
0.05 	0.0115625 	0.005 	0.00350467
0.05 	0.0121875 	0.005 	0.00347626
0.05 	0.0128125 	0.005 	0.00344407
0.05 	0.0134375 	0.005 	0.00340781
0.05 	0.0140625 	0.005 	0.00336715
0.05 	0.0146875 	0.005 	0.00332178
0.05 	0.0153125 	0.005 	0.00327135
0.05 	0.0159375 	0.005 	0.00321549
0.05 	0.0165625 	0.005 	0.00315383
0.05 	0.0171875 	0.005 	0.00308597
0.05 	0.0178125 	0.005 	0.0030115
0.05 	0.0184375 	0.005 	0.00292996
0.05 	0.0190625 	0.005 	0.00284091
0.05 	0.0196875 	0.005 	0.00274385
0.05 	0.0203125 	0.005 	0.00263829
0.05 	0.0209375 	0.005 	0.00252368
0.05 	0.0215625 	0.005 	0.00239947
0.05 	0.0221875 	0.005 	0.00226508
0.05 	0.0228125 	0.005 	0.00211991
0.05 	0.0234375 	0.005 	0.00196331
0.05 	0.0240625 	0.005 	0.00179465
0.05 	0.0246875 	0.005 	0.00161323
0.05 	0.0253125 	0.005 	0.00141835
0.05 	0.0259375 	0.005 	0.00120928
0.05 	0.0265625 	0.005 	0.000985248
0.05 	0.0271875 	0.005 	0.000745476
0.05 	0.0278125 	0.005 	0.000489147
0.05 	0.0284375 	0.005 	0.000215429
0.05 	0.0290625 	0.005 	-7.65305e-05
0.05 	0.0296875 	0.005 	-0.000387604
0.05 	0.0303125 	0.005 	-0.00071868
0.05 	0.0309375 	0.005 	-0.00107066
0.05 	0.0315625 	0.005 	-0.00144446
0.05 	0.0321875 	0.005 	-0.00184102
0.05 	0.0328125 	0.005 	-0.00226127
0.05 	0.0334375 	0.005 	-0.00270615
0.05 	0.0340625 	0.005 	-0.00317661
0.05 	0.0346875 	0.005 	-0.00367358
0.05 	0.0353125 	0.005 	-0.00419797
0.05 	0.0359375 	0.005 	-0.00475069
0.05 	0.0365625 	0.005 	-0.00533263
0.05 	0.0371875 	0.005 	-0.00594465
0.05 	0.0378125 	0.005 	-0.0065876
0.05 	0.0384375 	0.005 	-0.00726224
0.05 	0.0390625 	0.005 	-0.00796934
0.05 	0.0396875 	0.005 	-0.00870957
0.05 	0.0403125 	0.005 	-0.00948355
0.05 	0.0409375 	0.005 	-0.0102918
0.05 	0.0415625 	0.005 	-0.0111349
0.05 	0.0421875 	0.005 	-0.0120132
0.05 	0.0428125 	0.005 	-0.012927
0.05 	0.0434375 	0.005 	-0.0138765
0.05 	0.0440625 	0.005 	-0.0148617
0.05 	0.0446875 	0.005 	-0.0158827
0.05 	0.0453125 	0.005 	-0.0169394
0.05 	0.0459375 	0.005 	-0.0180313
0.05 	0.0465625 	0.005 	-0.0191582
0.05 	0.0471875 	0.005 	-0.0203195
0.05 	0.0478125 	0.005 	-0.0215145
0.05 	0.0484375 	0.005 	-0.0227422
0.05 	0.0490625 	0.005 	-0.0240018
0.05 	0.0496875 	0.005 	-0.0252919
0.05 	0.0503125 	0.005 	-0.0266114
0.05 	0.0509375 	0.005 	-0.0279586
0.05 	0.0515625 	0.005 	-0.029332
0.05 	0.0521875 	0.005 	-0.0307296
0.05 	0.0528125 	0.005 	-0.0321495
0.05 	0.0534375 	0.005 	-0.0335896
0.05 	0.0540625 	0.005 	-0.0350476
0.05 	0.0546875 	0.005 	-0.036521
0.05 	0.0553125 	0.005 	-0.0380073
0.05 	0.0559375 	0.005 	-0.0395038
0.05 	0.0565625 	0.005 	-0.0410076
0.05 	0.0571875 	0.005 	-0.0425159
0.05 	0.0578125 	0.005 	-0.0440256
0.05 	0.0584375 	0.005 	-0.0455336
0.05 	0.0590625 	0.005 	-0.0470367
0.05 	0.0596875 	0.005 	-0.0485318
0.05 	0.0603125 	0.005 	-0.0500155
0.05 	0.0609375 	0.005 	-0.0514846
0.05 	0.0615625 	0.005 	-0.0529358
0.05 	0.0621875 	0.005 	-0.0543658
0.05 	0.0628125 	0.005 	-0.0557713
0.05 	0.0634375 	0.005 	-0.0571491
0.05 	0.0640625 	0.005 	-0.0584961
0.05 	0.0646875 	0.005 	-0.0598092
0.05 	0.0653125 	0.005 	-0.0610853
0.05 	0.0659375 	0.005 	-0.0623216
0.05 	0.0665625 	0.005 	-0.0635154
0.05 	0.0671875 	0.005 	-0.064664
0.05 	0.0678125 	0.005 	-0.0657648
0.05 	0.0684375 	0.005 	-0.0668156
0.05 	0.0690625 	0.005 	-0.0678141
0.05 	0.0696875 	0.005 	-0.0687584
0.05 	0.0703125 	0.005 	-0.0696466
0.05 	0.0709375 	0.005 	-0.0704771
0.05 	0.0715625 	0.005 	-0.0712484
0.05 	0.0721875 	0.005 	-0.0719593
0.05 	0.0728125 	0.005 	-0.0726087
0.05 	0.0734375 	0.005 	-0.0731957
0.05 	0.0740625 	0.005 	-0.0737196
0.05 	0.0746875 	0.005 	-0.07418
0.05 	0.0753125 	0.005 	-0.0745766
0.05 	0.0759375 	0.005 	-0.0749092
0.05 	0.0765625 	0.005 	-0.075178
0.05 	0.0771875 	0.005 	-0.0753832
0.05 	0.0778125 	0.005 	-0.0755252
0.05 	0.0784375 	0.005 	-0.0756046
0.05 	0.0790625 	0.005 	-0.0756222
0.05 	0.0796875 	0.005 	-0.0755788
0.05 	0.0803125 	0.005 	-0.0754756
0.05 	0.0809375 	0.005 	-0.0753136
0.05 	0.0815625 	0.005 	-0.0750942
0.05 	0.0821875 	0.005 	-0.0748187
0.05 	0.0828125 	0.005 	-0.0744889
0.05 	0.0834375 	0.005 	-0.0741062
0.05 	0.0840625 	0.005 	-0.0736725
0.05 	0.0846875 	0.005 	-0.0731897
0.05 	0.0853125 	0.005 	-0.0726598
0.05 	0.0859375 	0.005 	-0.072085
0.05 	0.0865625 	0.005 	-0.0714674
0.05 	0.0871875 	0.005 	-0.0708094
0.05 	0.0878125 	0.005 	-0.0701136
0.05 	0.0884375 	0.005 	-0.0693827
0.05 	0.0890625 	0.005 	-0.0686194
0.05 	0.0896875 	0.005 	-0.0678267
0.05 	0.0903125 	0.005 	-0.0670079
0.05 	0.0909375 	0.005 	-0.0661662
0.05 	0.0915625 	0.005 	-0.0653052
0.05 	0.0921875 	0.005 	-0.0644286
0.05 	0.0928125 	0.005 	-0.0635403
0.05 	0.0934375 	0.005 	-0.0626444
0.05 	0.0940625 	0.005 	-0.0617452
0.05 	0.0946875 	0.005 	-0.0608468
0.05 	0.0953125 	0.005 	-0.0599537
0.05 	0.0959375 	0.005 	-0.0590703
0.05 	0.0965625 	0.005 	-0.0582005
0.05 	0.0971875 	0.005 	-0.0573481
0.05 	0.0978125 	0.005 	-0.0565207
0.05 	0.0984375 	0.005 	-0.0557257
0.05 	0.0990625 	0.005 	-0.0549095
0.05 	0.0996875 	0.005 	-0.054019
