/*--------------------------------*- C++ -*----------------------------------*\
  =========                 |
  \\      /  F ield         | OpenFOAM: The Open Source CFD Toolbox
   \\    /   O peration     | Website:  https://openfoam.org
    \\  /    A nd           | Version:  7
     \\/     M anipulation  |
\*---------------------------------------------------------------------------*/
FoamFile
{
    version     2.0;
    format      ascii;
    class       surfaceScalarField;
    location    "0.475";
    object      phi;
}
// * * * * * * * * * * * * * * * * * * * * * * * * * * * * * * * * * * * * * //

dimensions      [0 3 -1 0 0 0 0];

internalField   nonuniform List<scalar> 
50880
(
7.14169e-12
-7.13838e-12
3.82143e-11
-3.10746e-11
8.29738e-11
-4.47609e-11
1.31109e-10
-4.81361e-11
1.75428e-10
-4.43222e-11
2.11044e-10
-3.56176e-11
2.34682e-10
-2.3637e-11
2.44206e-10
-9.52415e-12
2.38285e-10
5.92243e-12
2.16146e-10
2.21407e-11
1.77418e-10
3.87304e-11
1.22023e-10
5.53968e-11
5.00939e-11
7.19293e-11
-3.80744e-11
8.81673e-11
-1.42072e-10
1.03995e-10
-2.61393e-10
1.19322e-10
-3.95476e-10
1.34083e-10
-5.43707e-10
1.48232e-10
-7.05438e-10
1.61732e-10
-8.79997e-10
1.74561e-10
-1.0667e-09
1.86704e-10
-1.26485e-09
1.98154e-10
-1.47376e-09
2.08908e-10
-1.69273e-09
2.18966e-10
-1.92106e-09
2.28334e-10
-2.15808e-09
2.37021e-10
-2.40311e-09
2.45035e-10
-2.65551e-09
2.52389e-10
-2.9146e-09
2.59096e-10
-3.17977e-09
2.65166e-10
-3.45038e-09
2.70617e-10
-3.72585e-09
2.75459e-10
-4.00556e-09
2.79712e-10
-4.28895e-09
2.83386e-10
-4.57545e-09
2.86496e-10
-4.8645e-09
2.89059e-10
-5.15559e-09
2.91088e-10
-5.44818e-09
2.92595e-10
-5.74177e-09
2.93594e-10
-6.03587e-09
2.94099e-10
-6.32999e-09
2.94122e-10
-6.62366e-09
2.93675e-10
-6.91643e-09
2.92771e-10
-7.20785e-09
2.91419e-10
-7.49748e-09
2.89629e-10
-7.78489e-09
2.87412e-10
-8.06967e-09
2.84778e-10
-8.35141e-09
2.81735e-10
-8.6297e-09
2.78293e-10
-8.90416e-09
2.74459e-10
-9.1744e-09
2.7024e-10
-9.44005e-09
2.65645e-10
-9.70072e-09
2.60679e-10
-9.95607e-09
2.5535e-10
-1.02057e-08
2.49665e-10
-1.04494e-08
2.43631e-10
-1.06866e-08
2.37255e-10
-1.09172e-08
2.30542e-10
-1.11407e-08
2.23498e-10
-1.13568e-08
2.16131e-10
-1.15652e-08
2.08449e-10
-1.17657e-08
2.00455e-10
-1.19579e-08
1.92158e-10
-1.21414e-08
1.83564e-10
-1.23161e-08
1.7468e-10
-1.24816e-08
1.65516e-10
-1.26377e-08
1.56079e-10
-1.27841e-08
1.46377e-10
-1.29205e-08
1.3642e-10
-1.30467e-08
1.26217e-10
-1.31625e-08
1.15776e-10
-1.32676e-08
1.05108e-10
-1.33618e-08
9.42263e-11
-1.3445e-08
8.31415e-11
-1.35168e-08
7.18681e-11
-1.35772e-08
6.04168e-11
-1.3626e-08
4.87999e-11
-1.36631e-08
3.7034e-11
-1.36882e-08
2.51327e-11
-1.37013e-08
1.31104e-11
-1.37023e-08
9.85805e-13
-1.36911e-08
-1.12234e-11
-1.36676e-08
-2.35011e-11
-1.36318e-08
-3.58275e-11
-1.35836e-08
-4.8183e-11
-1.3523e-08
-6.05494e-11
-1.34501e-08
-7.29058e-11
-1.33649e-08
-8.52297e-11
-1.32674e-08
-9.75001e-11
-1.31577e-08
-1.09695e-10
-1.30359e-08
-1.2179e-10
-1.29021e-08
-1.33763e-10
-1.27565e-08
-1.45591e-10
-1.25993e-08
-1.5725e-10
-1.24306e-08
-1.68713e-10
-1.22506e-08
-1.79957e-10
-1.20597e-08
-1.90957e-10
-1.1858e-08
-2.01688e-10
-1.16459e-08
-2.12124e-10
-1.14236e-08
-2.22241e-10
-1.11916e-08
-2.32013e-10
-1.09502e-08
-2.41415e-10
-1.06998e-08
-2.50424e-10
-1.04408e-08
-2.59016e-10
-1.01736e-08
-2.67164e-10
-9.89875e-09
-2.74843e-10
-9.61671e-09
-2.82035e-10
-9.328e-09
-2.88715e-10
-9.03314e-09
-2.94861e-10
-8.73268e-09
-3.00452e-10
-8.42722e-09
-3.05468e-10
-8.11732e-09
-3.09892e-10
-7.80362e-09
-3.13703e-10
-7.48674e-09
-3.16884e-10
-7.16732e-09
-3.19421e-10
-6.84602e-09
-3.21299e-10
-6.52352e-09
-3.22504e-10
-6.20049e-09
-3.23023e-10
-5.87765e-09
-3.22847e-10
-5.55568e-09
-3.21968e-10
-5.2353e-09
-3.20376e-10
-4.91724e-09
-3.18065e-10
-4.6022e-09
-3.15032e-10
-4.29093e-09
-3.11274e-10
-3.98414e-09
-3.06791e-10
-3.68256e-09
-3.01582e-10
-3.38691e-09
-2.9565e-10
-3.0979e-09
-2.89002e-10
-2.81626e-09
-2.81642e-10
-2.54268e-09
-2.73579e-10
-2.27786e-09
-2.64823e-10
-2.02246e-09
-2.55389e-10
-1.77717e-09
-2.45293e-10
-1.54262e-09
-2.3455e-10
-1.31944e-09
-2.2318e-10
-1.10823e-09
-2.11207e-10
-9.09577e-10
-1.98658e-10
-7.24021e-10
-1.85559e-10
-5.52077e-10
-1.71944e-10
-3.94224e-10
-1.57851e-10
-2.50897e-10
-1.43324e-10
-1.22487e-10
-1.2841e-10
-9.3229e-12
-1.13164e-10
8.83275e-11
-9.76496e-11
1.70272e-10
-8.19423e-11
2.36404e-10
-6.61318e-11
2.86726e-10
-5.03226e-11
3.21365e-10
-3.46402e-11
3.40605e-10
-1.92397e-11
3.4492e-10
-4.31457e-12
3.35031e-10
9.8901e-12
3.11972e-10
2.30594e-11
2.77192e-10
3.47816e-11
2.32689e-10
4.45054e-11
1.8121e-10
5.14801e-11
1.26523e-10
5.46871e-11
7.37325e-11
5.27887e-11
2.96761e-11
4.40552e-11
3.08784e-12
2.65883e-11
3.08868e-12
3.10891e-11
-3.82253e-11
1.0211e-10
-1.02091e-10
1.93692e-10
-1.36342e-10
2.8818e-10
-1.42622e-10
3.71051e-10
-1.27191e-10
4.31194e-10
-9.57596e-11
4.60449e-10
-5.28933e-11
4.53027e-10
-2.10528e-12
4.04986e-10
5.39601e-11
3.13798e-10
1.13325e-10
1.78014e-10
1.74509e-10
-2.98051e-12
2.36393e-10
-2.29173e-10
2.98125e-10
-5.00059e-10
3.5906e-10
-8.14768e-10
4.18705e-10
-1.17213e-09
4.76684e-10
-1.57076e-09
5.32713e-10
-2.0091e-09
5.86577e-10
-2.48549e-09
6.38114e-10
-2.99814e-09
6.87214e-10
-3.54523e-09
7.33796e-10
-4.12489e-09
7.77808e-10
-4.7352e-09
8.19223e-10
-5.37427e-09
8.58031e-10
-6.04017e-09
8.9424e-10
-6.73101e-09
9.27864e-10
-7.4449e-09
9.58931e-10
-8.17999e-09
9.87473e-10
-8.93442e-09
1.01354e-09
-9.70641e-09
1.03716e-09
-1.04942e-08
1.05839e-09
-1.1296e-08
1.07728e-09
-1.21102e-08
1.09387e-09
-1.2935e-08
1.10823e-09
-1.37689e-08
1.12041e-09
-1.46103e-08
1.13044e-09
-1.54576e-08
1.1384e-09
-1.63094e-08
1.14432e-09
-1.7164e-08
1.14826e-09
-1.80202e-08
1.15027e-09
-1.88765e-08
1.15039e-09
-1.97314e-08
1.14866e-09
-2.05838e-08
1.14514e-09
-2.14323e-08
1.13986e-09
-2.22755e-08
1.13286e-09
-2.31123e-08
1.12418e-09
-2.39413e-08
1.11386e-09
-2.47615e-08
1.10193e-09
-2.55717e-08
1.08842e-09
-2.63706e-08
1.07337e-09
-2.71572e-08
1.05681e-09
-2.79303e-08
1.03877e-09
-2.86889e-08
1.01927e-09
-2.94319e-08
9.98347e-10
-3.01582e-08
9.76023e-10
-3.08669e-08
9.52326e-10
-3.1557e-08
9.27284e-10
-3.22273e-08
9.0092e-10
-3.28771e-08
8.73262e-10
-3.35053e-08
8.44336e-10
-3.4111e-08
8.14168e-10
-3.46933e-08
7.82788e-10
-3.52514e-08
7.50221e-10
-3.57843e-08
7.16497e-10
-3.62913e-08
6.81645e-10
-3.67715e-08
6.45696e-10
-3.72241e-08
6.08684e-10
-3.76484e-08
5.70643e-10
-3.80436e-08
5.31609e-10
-3.8409e-08
4.91621e-10
-3.87439e-08
4.50719e-10
-3.90477e-08
4.08942e-10
-3.93198e-08
3.66335e-10
-3.95596e-08
3.22945e-10
-3.97666e-08
2.78821e-10
-3.99402e-08
2.34017e-10
-4.008e-08
1.88583e-10
-4.01855e-08
1.42575e-10
-4.02564e-08
9.60562e-11
-4.02924e-08
4.90856e-11
-4.02932e-08
1.72626e-12
-4.02584e-08
-4.59518e-11
-4.0188e-08
-9.38778e-11
-4.00819e-08
-1.41981e-10
-3.99399e-08
-1.90186e-10
-3.9762e-08
-2.38414e-10
-3.95483e-08
-2.86587e-10
-3.9299e-08
-3.34623e-10
-3.9014e-08
-3.82435e-10
-3.86938e-08
-4.29938e-10
-3.83385e-08
-4.77044e-10
-3.79486e-08
-5.23659e-10
-3.75245e-08
-5.69691e-10
-3.70667e-08
-6.1505e-10
-3.65758e-08
-6.59643e-10
-3.60524e-08
-7.0337e-10
-3.54972e-08
-7.46137e-10
-3.4911e-08
-7.87849e-10
-3.42948e-08
-8.28408e-10
-3.36493e-08
-8.67713e-10
-3.29756e-08
-9.05671e-10
-3.22749e-08
-9.42186e-10
-3.15481e-08
-9.77164e-10
-3.07966e-08
-1.01051e-09
-3.00217e-08
-1.04213e-09
-2.92246e-08
-1.07194e-09
-2.84068e-08
-1.09984e-09
-2.75697e-08
-1.12575e-09
-2.6715e-08
-1.14959e-09
-2.58442e-08
-1.17128e-09
-2.49589e-08
-1.19074e-09
-2.40609e-08
-1.2079e-09
-2.31519e-08
-1.22268e-09
-2.22338e-08
-1.23503e-09
-2.13083e-08
-1.24488e-09
-2.03774e-08
-1.25218e-09
-1.9443e-08
-1.25687e-09
-1.85072e-08
-1.25892e-09
-1.75717e-08
-1.25828e-09
-1.66388e-08
-1.25491e-09
-1.57103e-08
-1.2488e-09
-1.47885e-08
-1.23992e-09
-1.38753e-08
-1.22825e-09
-1.29728e-08
-1.21378e-09
-1.2083e-08
-1.19652e-09
-1.12081e-08
-1.17647e-09
-1.03502e-08
-1.15364e-09
-9.5111e-09
-1.12805e-09
-8.69301e-09
-1.09973e-09
-7.89787e-09
-1.06872e-09
-7.12763e-09
-1.03506e-09
-6.38422e-09
-9.98802e-10
-5.6695e-09
-9.60012e-10
-4.98528e-09
-9.18761e-10
-4.33333e-09
-8.75133e-10
-3.71531e-09
-8.29223e-10
-3.13283e-09
-7.81136e-10
-2.5874e-09
-7.30993e-10
-2.08041e-09
-6.78931e-10
-1.61316e-09
-6.25105e-10
-1.18679e-09
-5.69689e-10
-8.02324e-10
-5.1288e-10
-4.60579e-10
-4.54908e-10
-1.62191e-10
-3.96035e-10
9.24383e-11
-3.3657e-10
3.03176e-10
-2.76868e-10
4.70207e-10
-2.17353e-10
5.94098e-10
-1.58529e-10
6.7587e-10
-1.0101e-10
7.17099e-10
-4.55423e-11
7.20037e-10
6.94932e-12
6.87784e-10
5.53098e-11
6.24488e-10
9.8077e-11
5.35605e-10
1.33389e-10
4.2821e-10
1.58875e-10
3.11337e-10
1.7156e-10
1.96247e-10
1.67879e-10
9.64101e-11
1.43892e-10
2.65601e-11
9.64395e-11
2.96475e-11
4.48148e-11
-8.30425e-11
1.36522e-10
-1.93798e-10
2.47265e-10
-2.47088e-10
3.54789e-10
-2.50147e-10
4.40654e-10
-2.13055e-10
4.90149e-10
-1.45256e-10
4.91969e-10
-5.47103e-11
4.37703e-10
5.21654e-11
3.21336e-10
1.70328e-10
1.3881e-10
2.95854e-10
-1.12383e-10
4.257e-10
-4.33502e-10
5.57509e-10
-8.24827e-10
6.89449e-10
-1.28586e-09
8.20093e-10
-1.81549e-09
9.48334e-10
-2.41212e-09
1.07331e-09
-3.07377e-09
1.19437e-09
-3.79819e-09
1.31099e-09
-4.58288e-09
1.4228e-09
-5.42516e-09
1.5295e-09
-6.32227e-09
1.6309e-09
-7.2713e-09
1.72684e-09
-8.26933e-09
1.81726e-09
-9.31338e-09
1.90208e-09
-1.04005e-08
1.98132e-09
-1.15276e-08
2.05499e-09
-1.26918e-08
2.12313e-09
-1.38901e-08
2.18579e-09
-1.51196e-08
2.24305e-09
-1.63775e-08
2.295e-09
-1.76608e-08
2.34173e-09
-1.89669e-08
2.38333e-09
-2.02929e-08
2.41992e-09
-2.16363e-08
2.45159e-09
-2.29943e-08
2.47845e-09
-2.43645e-08
2.50062e-09
-2.57443e-08
2.51819e-09
-2.71312e-08
2.53129e-09
-2.8523e-08
2.54e-09
-2.99171e-08
2.54444e-09
-3.13115e-08
2.5447e-09
-3.27037e-08
2.54088e-09
-3.40916e-08
2.53308e-09
-3.54731e-08
2.52138e-09
-3.68461e-08
2.50586e-09
-3.82086e-08
2.48662e-09
-3.95585e-08
2.46374e-09
-4.08938e-08
2.43728e-09
-4.22127e-08
2.40732e-09
-4.35133e-08
2.37394e-09
-4.47937e-08
2.3372e-09
-4.60521e-08
2.29717e-09
-4.72867e-08
2.2539e-09
-4.84958e-08
2.20747e-09
-4.96777e-08
2.15794e-09
-5.08308e-08
2.10536e-09
-5.19533e-08
2.0498e-09
-5.30437e-08
1.99131e-09
-5.41004e-08
1.92995e-09
-5.51218e-08
1.86578e-09
-5.61065e-08
1.79887e-09
-5.7053e-08
1.72927e-09
-5.79598e-08
1.65705e-09
-5.88256e-08
1.58228e-09
-5.9649e-08
1.50502e-09
-6.04286e-08
1.42534e-09
-6.11632e-08
1.34332e-09
-6.18516e-08
1.25903e-09
-6.24926e-08
1.17256e-09
-6.30849e-08
1.08398e-09
-6.36276e-08
9.93406e-10
-6.41196e-08
9.00913e-10
-6.45599e-08
8.06603e-10
-6.49475e-08
7.10583e-10
-6.52816e-08
6.12959e-10
-6.55615e-08
5.13846e-10
-6.57863e-08
4.13366e-10
-6.59553e-08
3.11643e-10
-6.60681e-08
2.08808e-10
-6.6124e-08
1.05001e-10
-6.61226e-08
3.6392e-13
-6.60636e-08
-1.04956e-10
-6.59467e-08
-2.10802e-10
-6.57717e-08
-3.17013e-10
-6.55384e-08
-4.23425e-10
-6.5247e-08
-5.29866e-10
-6.48974e-08
-6.36158e-10
-6.44899e-08
-7.42122e-10
-6.40248e-08
-8.47572e-10
-6.35024e-08
-9.52317e-10
-6.29233e-08
-1.05616e-09
-6.2288e-08
-1.15891e-09
-6.15974e-08
-1.26035e-09
-6.08521e-08
-1.36029e-09
-6.00533e-08
-1.45852e-09
-5.92018e-08
-1.55482e-09
-5.82989e-08
-1.649e-09
-5.7346e-08
-1.74083e-09
-5.63443e-08
-1.83011e-09
-5.52953e-08
-1.91662e-09
-5.42009e-08
-2.00015e-09
-5.30626e-08
-2.0805e-09
-5.18823e-08
-2.15745e-09
-5.0662e-08
-2.2308e-09
-4.94038e-08
-2.30035e-09
-4.81098e-08
-2.36591e-09
-4.67824e-08
-2.42727e-09
-4.54238e-08
-2.48426e-09
-4.40368e-08
-2.53669e-09
-4.26237e-08
-2.58438e-09
-4.11872e-08
-2.62718e-09
-3.97302e-08
-2.66492e-09
-3.82554e-08
-2.69745e-09
-3.67658e-08
-2.72463e-09
-3.52644e-08
-2.74633e-09
-3.37541e-08
-2.76244e-09
-3.22382e-08
-2.77283e-09
-3.07196e-08
-2.77742e-09
-2.92018e-08
-2.77612e-09
-2.76879e-08
-2.76886e-09
-2.61811e-08
-2.75558e-09
-2.46848e-08
-2.73623e-09
-2.32022e-08
-2.71079e-09
-2.17368e-08
-2.67923e-09
-2.02917e-08
-2.64157e-09
-1.88704e-08
-2.5978e-09
-1.74761e-08
-2.54797e-09
-1.6112e-08
-2.49213e-09
-1.47814e-08
-2.43033e-09
-1.34874e-08
-2.36267e-09
-1.22333e-08
-2.28924e-09
-1.10219e-08
-2.21018e-09
-9.85628e-09
-2.12561e-09
-8.73932e-09
-2.03572e-09
-7.67377e-09
-1.94069e-09
-6.66226e-09
-1.84073e-09
-5.7073e-09
-1.7361e-09
-4.81123e-09
-1.62706e-09
-3.97623e-09
-1.51393e-09
-3.20427e-09
-1.39707e-09
-2.49709e-09
-1.27686e-09
-1.8562e-09
-1.15377e-09
-1.2828e-09
-1.02831e-09
-7.77764e-10
-9.01074e-10
-3.41584e-10
-7.72751e-10
2.56899e-11
-6.44141e-10
3.24521e-10
-5.16185e-10
5.55984e-10
-3.89993e-10
7.21868e-10
-2.66895e-10
8.24819e-10
-1.48491e-10
8.68499e-10
-3.67276e-11
8.57794e-10
6.60156e-11
7.99056e-10
1.56813e-10
7.00377e-10
2.32067e-10
5.71877e-10
2.87374e-10
4.25971e-10
3.17466e-10
2.77535e-10
3.16315e-10
1.43815e-10
2.77611e-10
4.39888e-11
1.96266e-10
7.36349e-11
4.83145e-11
-1.31357e-10
1.43183e-10
-2.88666e-10
2.5102e-10
-3.54925e-10
3.46172e-10
-3.45299e-10
4.07775e-10
-2.74658e-10
4.19015e-10
-1.565e-10
3.66671e-10
-2.36813e-12
2.40625e-10
1.78211e-10
3.34134e-11
3.77538e-10
-2.60187e-10
5.89455e-10
-6.4355e-10
8.09064e-10
-1.11852e-09
1.03248e-09
-1.68571e-09
1.25663e-09
-2.3447e-09
1.47909e-09
-3.09429e-09
1.69792e-09
-3.93258e-09
1.91161e-09
-4.85719e-09
2.11898e-09
-5.8653e-09
2.31911e-09
-6.95377e-09
2.51127e-09
-8.1192e-09
2.69493e-09
-9.35801e-09
2.8697e-09
-1.06665e-08
3.03529e-09
-1.20407e-08
3.19151e-09
-1.34769e-08
3.33825e-09
-1.4971e-08
3.47545e-09
-1.65191e-08
3.60313e-09
-1.81173e-08
3.72133e-09
-1.97617e-08
3.83012e-09
-2.14482e-08
3.92961e-09
-2.31732e-08
4.01994e-09
-2.49327e-08
4.10123e-09
-2.6723e-08
4.17365e-09
-2.85404e-08
4.23737e-09
-3.03814e-08
4.29255e-09
-3.22423e-08
4.33937e-09
-3.41197e-08
4.37802e-09
-3.60102e-08
4.40866e-09
-3.79104e-08
4.43149e-09
-3.9817e-08
4.44666e-09
-4.1727e-08
4.45436e-09
-4.3637e-08
4.45476e-09
-4.55441e-08
4.44801e-09
-4.74453e-08
4.43428e-09
-4.93377e-08
4.41371e-09
-5.12183e-08
4.38647e-09
-5.30843e-08
4.35269e-09
-5.49331e-08
4.3125e-09
-5.67619e-08
4.26605e-09
-5.8568e-08
4.21346e-09
-6.03489e-08
4.15485e-09
-6.21021e-08
4.09035e-09
-6.3825e-08
4.02007e-09
-6.55152e-08
3.94412e-09
-6.71703e-08
3.86261e-09
-6.87881e-08
3.77566e-09
-7.03661e-08
3.68336e-09
-7.19021e-08
3.58583e-09
-7.33939e-08
3.48317e-09
-7.48395e-08
3.37548e-09
-7.62366e-08
3.26288e-09
-7.75832e-08
3.14547e-09
-7.88773e-08
3.02336e-09
-8.01169e-08
2.89667e-09
-8.13001e-08
2.76551e-09
-8.24251e-08
2.63001e-09
-8.34901e-08
2.49029e-09
-8.44933e-08
2.34649e-09
-8.5433e-08
2.19874e-09
-8.63076e-08
2.04719e-09
-8.71156e-08
1.89198e-09
-8.78555e-08
1.73328e-09
-8.85258e-08
1.57126e-09
-8.91253e-08
1.40609e-09
-8.96527e-08
1.23795e-09
-9.01068e-08
1.06705e-09
-9.04865e-08
8.93566e-10
-9.07908e-08
7.17727e-10
-9.10189e-08
5.39751e-10
-9.117e-08
3.59866e-10
-9.12433e-08
1.78315e-10
-9.12383e-08
-4.64904e-12
-9.11545e-08
-1.88766e-10
-9.09915e-08
-3.73768e-10
-9.07492e-08
-5.59372e-10
-9.04273e-08
-7.45288e-10
-9.00259e-08
-9.31218e-10
-8.95452e-08
-1.11686e-09
-8.89855e-08
-1.30188e-09
-8.83471e-08
-1.48598e-09
-8.76306e-08
-1.6688e-09
-8.68367e-08
-1.85003e-09
-8.59663e-08
-2.0293e-09
-8.50204e-08
-2.20628e-09
-8.40001e-08
-2.3806e-09
-8.29067e-08
-2.5519e-09
-8.17417e-08
-2.71983e-09
-8.05067e-08
-2.88402e-09
-7.92034e-08
-3.0441e-09
-7.78338e-08
-3.19971e-09
-7.64e-08
-3.35048e-09
-7.49041e-08
-3.49604e-09
-7.33486e-08
-3.63603e-09
-7.17359e-08
-3.77009e-09
-7.00688e-08
-3.89788e-09
-6.83502e-08
-4.01903e-09
-6.65828e-08
-4.13322e-09
-6.477e-08
-4.24011e-09
-6.29149e-08
-4.33937e-09
-6.10209e-08
-4.4307e-09
-5.90915e-08
-4.51379e-09
-5.71303e-08
-4.58836e-09
-5.51411e-08
-4.65414e-09
-5.31277e-08
-4.71086e-09
-5.1094e-08
-4.75828e-09
-4.90442e-08
-4.79619e-09
-4.69822e-08
-4.82437e-09
-4.49124e-08
-4.84264e-09
-4.2839e-08
-4.85083e-09
-4.07663e-08
-4.84881e-09
-3.86988e-08
-4.83644e-09
-3.66407e-08
-4.81364e-09
-3.45966e-08
-4.78032e-09
-3.2571e-08
-4.73644e-09
-3.05682e-08
-4.68197e-09
-2.85929e-08
-4.61692e-09
-2.66494e-08
-4.54133e-09
-2.47421e-08
-4.45524e-09
-2.28755e-08
-4.35876e-09
-2.10538e-08
-4.252e-09
-1.92813e-08
-4.13511e-09
-1.75623e-08
-4.0083e-09
-1.59007e-08
-3.87176e-09
-1.43005e-08
-3.72578e-09
-1.27656e-08
-3.57064e-09
-1.12996e-08
-3.40669e-09
-9.90603e-09
-3.23432e-09
-8.58817e-09
-3.05396e-09
-7.34911e-09
-2.86612e-09
-6.19169e-09
-2.67135e-09
-5.11847e-09
-2.47029e-09
-4.13169e-09
-2.26364e-09
-3.23325e-09
-2.05221e-09
-2.42464e-09
-1.83692e-09
-1.70689e-09
-1.61883e-09
-1.08051e-09
-1.39913e-09
-5.45417e-10
-1.17923e-09
-1.00844e-10
-9.6076e-10
2.54787e-10
-7.45625e-10
5.23973e-10
-5.36084e-10
7.10298e-10
-3.34817e-10
8.18603e-10
-1.45032e-10
8.55201e-10
2.9418e-11
8.28109e-10
1.83906e-10
7.473e-10
3.12876e-10
6.24948e-10
4.09726e-10
4.75658e-10
4.66754e-10
3.16662e-10
4.7531e-10
1.67961e-10
4.2631e-10
5.27317e-11
3.11495e-10
1.26367e-10
4.4692e-11
-1.7605e-10
1.2833e-10
-3.72301e-10
2.14961e-10
-4.41553e-10
2.77021e-10
-4.07358e-10
2.92276e-10
-2.89908e-10
2.42754e-10
-1.06977e-10
1.14155e-10
1.2623e-10
-1.04651e-10
3.97016e-10
-4.22043e-10
6.94929e-10
-8.44032e-10
1.01144e-09
-1.37461e-09
1.33965e-09
-2.01609e-09
1.67396e-09
-2.76933e-09
2.00988e-09
-3.63404e-09
2.3438e-09
-4.60895e-09
2.67282e-09
-5.69198e-09
2.99464e-09
-6.88042e-09
3.30742e-09
-8.17101e-09
3.6097e-09
-9.5601e-09
3.90036e-09
-1.10437e-08
4.17852e-09
-1.26175e-08
4.44352e-09
-1.42771e-08
4.69488e-09
-1.60179e-08
4.93227e-09
-1.78351e-08
5.15547e-09
-1.9724e-08
5.36436e-09
-2.16798e-08
5.55891e-09
-2.36976e-08
5.73915e-09
-2.57726e-08
5.90516e-09
-2.79001e-08
6.05709e-09
-3.00753e-08
6.19509e-09
-3.22934e-08
6.31936e-09
-3.45499e-08
6.43012e-09
-3.68401e-08
6.5276e-09
-3.91596e-08
6.61205e-09
-4.15039e-08
6.68372e-09
-4.38688e-08
6.74286e-09
-4.62499e-08
6.78975e-09
-4.8643e-08
6.82464e-09
-5.10441e-08
6.84778e-09
-5.34492e-08
6.85945e-09
-5.58543e-08
6.85987e-09
-5.82556e-08
6.8493e-09
-6.06493e-08
6.82798e-09
-6.30318e-08
6.79614e-09
-6.53993e-08
6.754e-09
-6.77484e-08
6.70178e-09
-7.00756e-08
6.63969e-09
-7.23775e-08
6.56793e-09
-7.46507e-08
6.4867e-09
-7.6892e-08
6.39618e-09
-7.90983e-08
6.29657e-09
-8.12662e-08
6.18804e-09
-8.33929e-08
6.07077e-09
-8.54752e-08
5.94492e-09
-8.75102e-08
5.81067e-09
-8.9495e-08
5.66819e-09
-9.14268e-08
5.51763e-09
-9.33028e-08
5.35916e-09
-9.51203e-08
5.19296e-09
-9.68766e-08
5.01918e-09
-9.85691e-08
4.83801e-09
-1.00195e-07
4.6496e-09
-1.01753e-07
4.45415e-09
-1.03239e-07
4.25184e-09
-1.04652e-07
4.04285e-09
-1.05989e-07
3.82739e-09
-1.07248e-07
3.60567e-09
-1.08427e-07
3.37789e-09
-1.09525e-07
3.1443e-09
-1.10538e-07
2.90511e-09
-1.11465e-07
2.66058e-09
-1.12305e-07
2.41098e-09
-1.13055e-07
2.15657e-09
-1.13715e-07
1.89763e-09
-1.14282e-07
1.63448e-09
-1.14756e-07
1.36742e-09
-1.15135e-07
1.09677e-09
-1.15418e-07
8.22885e-10
-1.15605e-07
5.46119e-10
-1.15693e-07
2.66842e-10
-1.15683e-07
-1.45597e-11
-1.15574e-07
-2.97682e-10
-1.15366e-07
-5.82108e-10
-1.15058e-07
-8.67408e-10
-1.1465e-07
-1.15314e-09
-1.14142e-07
-1.43884e-09
-1.13535e-07
-1.72403e-09
-1.12829e-07
-2.00825e-09
-1.12024e-07
-2.29098e-09
-1.11121e-07
-2.57171e-09
-1.10121e-07
-2.84994e-09
-1.09025e-07
-3.12514e-09
-1.07835e-07
-3.39676e-09
-1.06551e-07
-3.66427e-09
-1.05176e-07
-3.92712e-09
-1.03711e-07
-4.18475e-09
-1.02158e-07
-4.43661e-09
-1.0052e-07
-4.68214e-09
-9.87993e-08
-4.92078e-09
-9.69978e-08
-5.15197e-09
-9.51186e-08
-5.37516e-09
-9.31649e-08
-5.58979e-09
-9.11396e-08
-5.79533e-09
-8.90463e-08
-5.99123e-09
-8.68884e-08
-6.17695e-09
-8.46696e-08
-6.352e-09
-8.23938e-08
-6.51586e-09
-8.00652e-08
-6.66804e-09
-7.76878e-08
-6.80806e-09
-7.52661e-08
-6.93548e-09
-7.28046e-08
-7.04986e-09
-7.0308e-08
-7.15078e-09
-6.7781e-08
-7.23786e-09
-6.52286e-08
-7.31072e-09
-6.26557e-08
-7.36904e-09
-6.00676e-08
-7.41249e-09
-5.74694e-08
-7.44081e-09
-5.48665e-08
-7.45375e-09
-5.22642e-08
-7.45108e-09
-4.9668e-08
-7.43263e-09
-4.70834e-08
-7.39825e-09
-4.45159e-08
-7.34784e-09
-4.1971e-08
-7.28133e-09
-3.94543e-08
-7.19869e-09
-3.69713e-08
-7.09992e-09
-3.45275e-08
-6.9851e-09
-3.21284e-08
-6.85431e-09
-2.97795e-08
-6.70771e-09
-2.7486e-08
-6.54549e-09
-2.52532e-08
-6.36789e-09
-2.30863e-08
-6.17522e-09
-2.09902e-08
-5.96782e-09
-1.89699e-08
-5.74611e-09
-1.703e-08
-5.51055e-09
-1.5175e-08
-5.2617e-09
-1.34091e-08
-5.00015e-09
-1.17365e-08
-4.72661e-09
-1.01608e-08
-4.44184e-09
-8.68538e-09
-4.14673e-09
-7.31341e-09
-3.84226e-09
-6.04751e-09
-3.52954e-09
-4.8899e-09
-3.20982e-09
-3.84229e-09
-2.88453e-09
-2.90583e-09
-2.55528e-09
-2.08103e-09
-2.22394e-09
-1.36764e-09
-1.89262e-09
-7.64601e-10
-1.56379e-09
-2.69904e-10
-1.24032e-09
1.19556e-10
-9.25542e-10
4.08125e-10
-6.23386e-10
6.01571e-10
-3.3848e-10
7.07281e-10
-7.62933e-11
7.34474e-10
1.56713e-10
6.94423e-10
3.52931e-10
6.00674e-10
5.03478e-10
4.69285e-10
5.98142e-10
3.19111e-10
6.25483e-10
1.72211e-10
5.73209e-10
5.47476e-11
4.28958e-10
1.81116e-10
3.62284e-11
-2.12278e-10
9.75857e-11
-4.33658e-10
1.48344e-10
-4.92311e-10
1.60505e-10
-4.19521e-10
1.11395e-10
-2.40799e-10
-1.73757e-11
2.17966e-11
-2.40563e-10
3.49419e-10
-5.69776e-10
7.26228e-10
-1.01387e-09
1.13902e-09
-1.57929e-09
1.57687e-09
-2.27043e-09
2.03078e-09
-3.08985e-09
2.49338e-09
-4.03861e-09
2.95864e-09
-5.11647e-09
3.42166e-09
-6.32211e-09
3.87847e-09
-7.6533e-09
4.32584e-09
-9.10706e-09
4.76118e-09
-1.06798e-08
5.18243e-09
-1.23674e-08
5.58796e-09
-1.41653e-08
5.97647e-09
-1.60688e-08
6.347e-09
-1.80727e-08
6.6988e-09
-2.01718e-08
7.03136e-09
-2.23607e-08
7.3443e-09
-2.46337e-08
7.63742e-09
-2.69854e-08
7.91062e-09
-2.94102e-08
8.1639e-09
-3.19024e-08
8.39733e-09
-3.44563e-08
8.61108e-09
-3.70666e-08
8.80533e-09
-3.97276e-08
8.98033e-09
-4.24338e-08
9.13635e-09
-4.51799e-08
9.2737e-09
-4.79606e-08
9.39271e-09
-5.07705e-08
9.4937e-09
-5.36047e-08
9.57702e-09
-5.6458e-08
9.64303e-09
-5.93254e-08
9.69207e-09
-6.22021e-08
9.7245e-09
-6.50833e-08
9.74066e-09
-6.79643e-08
9.74089e-09
-7.08406e-08
9.72555e-09
-7.37076e-08
9.69494e-09
-7.65608e-08
9.6494e-09
-7.9396e-08
9.58924e-09
-8.2209e-08
9.51475e-09
-8.49956e-08
9.42624e-09
-8.77516e-08
9.32398e-09
-9.04732e-08
9.20825e-09
-9.31563e-08
9.07933e-09
-9.57972e-08
8.93747e-09
-9.83921e-08
8.78293e-09
-1.00937e-07
8.61596e-09
-1.03429e-07
8.4368e-09
-1.05864e-07
8.24569e-09
-1.08239e-07
8.04288e-09
-1.1055e-07
7.8286e-09
-1.12794e-07
7.60309e-09
-1.14967e-07
7.36658e-09
-1.17068e-07
7.11933e-09
-1.19091e-07
6.86158e-09
-1.21035e-07
6.59358e-09
-1.22897e-07
6.3156e-09
-1.24673e-07
6.02788e-09
-1.2636e-07
5.73073e-09
-1.27957e-07
5.42441e-09
-1.29461e-07
5.10923e-09
-1.30869e-07
4.78549e-09
-1.32178e-07
4.45353e-09
-1.33386e-07
4.11369e-09
-1.34492e-07
3.76632e-09
-1.35493e-07
3.41179e-09
-1.36387e-07
3.05049e-09
-1.37172e-07
2.68284e-09
-1.37847e-07
2.30925e-09
-1.3841e-07
1.93018e-09
-1.38859e-07
1.5461e-09
-1.39194e-07
1.15749e-09
-1.39412e-07
7.64855e-10
-1.39514e-07
3.68732e-10
-1.39498e-07
-3.03326e-11
-1.39364e-07
-4.31769e-10
-1.39111e-07
-8.34987e-10
-1.38739e-07
-1.23937e-09
-1.38248e-07
-1.6443e-09
-1.37638e-07
-2.04912e-09
-1.36909e-07
-2.45316e-09
-1.36061e-07
-2.85573e-09
-1.35096e-07
-3.25615e-09
-1.34014e-07
-3.65369e-09
-1.32817e-07
-4.04761e-09
-1.31505e-07
-4.43719e-09
-1.3008e-07
-4.82165e-09
-1.28544e-07
-5.20025e-09
-1.26899e-07
-5.57219e-09
-1.25147e-07
-5.93672e-09
-1.2329e-07
-6.29304e-09
-1.21332e-07
-6.64037e-09
-1.19275e-07
-6.97792e-09
-1.17122e-07
-7.30491e-09
-1.14877e-07
-7.62055e-09
-1.12542e-07
-7.92409e-09
-1.10123e-07
-8.21474e-09
-1.07622e-07
-8.49175e-09
-1.05045e-07
-8.75439e-09
-1.02395e-07
-9.00193e-09
-9.96772e-08
-9.23365e-09
-9.68963e-08
-9.44889e-09
-9.40574e-08
-9.64696e-09
-9.11657e-08
-9.82724e-09
-8.82264e-08
-9.98912e-09
-8.52452e-08
-1.0132e-08
-8.22276e-08
-1.02554e-08
-7.91796e-08
-1.03587e-08
-7.61071e-08
-1.04416e-08
-7.30161e-08
-1.05035e-08
-6.99129e-08
-1.0544e-08
-6.68037e-08
-1.05629e-08
-6.36949e-08
-1.05599e-08
-6.0593e-08
-1.05346e-08
-5.75043e-08
-1.04869e-08
-5.44355e-08
-1.04167e-08
-5.1393e-08
-1.03238e-08
-4.83834e-08
-1.02083e-08
-4.54132e-08
-1.00701e-08
-4.2489e-08
-9.90933e-09
-3.96171e-08
-9.72618e-09
-3.6804e-08
-9.52083e-09
-3.40559e-08
-9.29359e-09
-3.1379e-08
-9.04481e-09
-2.87793e-08
-8.77492e-09
-2.62627e-08
-8.48443e-09
-2.38348e-08
-8.17395e-09
-2.15012e-08
-7.84415e-09
-1.92671e-08
-7.49581e-09
-1.71374e-08
-7.12983e-09
-1.51169e-08
-6.74719e-09
-1.32097e-08
-6.34901e-09
-1.14199e-08
-5.93656e-09
-9.75089e-09
-5.51123e-09
-8.20579e-09
-5.07463e-09
-6.78707e-09
-4.62854e-09
-5.49662e-09
-4.17497e-09
-4.33568e-09
-3.71622e-09
-3.30473e-09
-3.25488e-09
-2.40343e-09
-2.79393e-09
-1.63045e-09
-2.33677e-09
-9.83426e-10
-1.88734e-09
-4.58782e-10
-1.45018e-09
-5.15858e-11
-1.03058e-09
2.44612e-10
-6.34677e-10
4.37961e-10
-2.69644e-10
5.38504e-10
5.61687e-11
5.58375e-10
3.33061e-10
5.12012e-10
5.49843e-10
4.16413e-10
6.93743e-10
2.91499e-10
7.50398e-10
1.60665e-10
7.04043e-10
5.18212e-11
5.37801e-10
2.32938e-10
2.44996e-11
-2.36776e-10
5.53913e-11
-4.64549e-10
5.88713e-11
-4.9579e-10
7.72323e-12
-3.68371e-10
-1.20332e-10
-1.12743e-10
-3.43492e-10
2.44954e-10
-6.76449e-10
6.82378e-10
-1.13086e-09
1.18064e-09
-1.71568e-09
1.72385e-09
-2.43752e-09
2.29871e-09
-3.30087e-09
2.89413e-09
-4.30844e-09
3.50094e-09
-5.46132e-09
4.11152e-09
-6.75928e-09
4.71962e-09
-8.20091e-09
5.32009e-09
-9.7838e-09
5.90873e-09
-1.15048e-08
6.48213e-09
-1.33598e-08
7.03753e-09
-1.53446e-08
7.57272e-09
-1.74541e-08
8.08595e-09
-1.9683e-08
8.57586e-09
-2.20256e-08
9.04142e-09
-2.44761e-08
9.48187e-09
-2.70284e-08
9.89666e-09
-2.96765e-08
1.02854e-08
-3.24139e-08
1.0648e-08
-3.52344e-08
1.09844e-08
-3.81317e-08
1.12946e-08
-4.10993e-08
1.15787e-08
-4.41311e-08
1.18371e-08
-4.72207e-08
1.20699e-08
-5.03619e-08
1.22775e-08
-5.35485e-08
1.24603e-08
-5.67745e-08
1.26187e-08
-6.00339e-08
1.27531e-08
-6.33208e-08
1.28639e-08
-6.66293e-08
1.29516e-08
-6.99539e-08
1.30166e-08
-7.32888e-08
1.30594e-08
-7.66286e-08
1.30804e-08
-7.99678e-08
1.30801e-08
-8.33012e-08
1.3059e-08
-8.66236e-08
1.30173e-08
-8.99298e-08
1.29556e-08
-9.32149e-08
1.28743e-08
-9.64739e-08
1.27738e-08
-9.97021e-08
1.26544e-08
-1.02895e-07
1.25166e-08
-1.06047e-07
1.23606e-08
-1.09155e-07
1.2187e-08
-1.12213e-07
1.19959e-08
-1.15218e-07
1.17878e-08
-1.18165e-07
1.1563e-08
-1.2105e-07
1.13218e-08
-1.23869e-07
1.10646e-08
-1.26618e-07
1.07916e-08
-1.29292e-07
1.05033e-08
-1.31889e-07
1.01998e-08
-1.34404e-07
9.88165e-09
-1.36834e-07
9.54904e-09
-1.39175e-07
9.20235e-09
-1.41423e-07
8.84191e-09
-1.43575e-07
8.46809e-09
-1.45629e-07
8.08124e-09
-1.4758e-07
7.68175e-09
-1.49425e-07
7.27e-09
-1.51163e-07
6.8464e-09
-1.52789e-07
6.41137e-09
-1.543e-07
5.96535e-09
-1.55695e-07
5.50881e-09
-1.56971e-07
5.04223e-09
-1.58126e-07
4.56611e-09
-1.59156e-07
4.08098e-09
-1.60061e-07
3.58739e-09
-1.60837e-07
3.08593e-09
-1.61484e-07
2.57719e-09
-1.62e-07
2.06181e-09
-1.62383e-07
1.54043e-09
-1.62632e-07
1.01375e-09
-1.62746e-07
4.82473e-10
-1.62723e-07
-5.26606e-11
-1.62564e-07
-5.90886e-10
-1.62268e-07
-1.13141e-09
-1.61834e-07
-1.67342e-09
-1.61262e-07
-2.21607e-09
-1.60553e-07
-2.75848e-09
-1.59706e-07
-3.29978e-09
-1.58723e-07
-3.83903e-09
-1.57604e-07
-4.37531e-09
-1.5635e-07
-4.90767e-09
-1.54962e-07
-5.43511e-09
-1.53443e-07
-5.95667e-09
-1.51793e-07
-6.47132e-09
-1.50015e-07
-6.97805e-09
-1.48111e-07
-7.47583e-09
-1.46085e-07
-7.96363e-09
-1.43937e-07
-8.44041e-09
-1.41672e-07
-8.90511e-09
-1.39294e-07
-9.3567e-09
-1.36804e-07
-9.79413e-09
-1.34209e-07
-1.02164e-08
-1.3151e-07
-1.06224e-08
-1.28714e-07
-1.10112e-08
-1.25824e-07
-1.13817e-08
-1.22845e-07
-1.1733e-08
-1.19783e-07
-1.20642e-08
-1.16643e-07
-1.23742e-08
-1.13429e-07
-1.26622e-08
-1.10149e-07
-1.29273e-08
-1.06808e-07
-1.31686e-08
-1.03411e-07
-1.33854e-08
-9.99666e-08
-1.35768e-08
-9.64797e-08
-1.37423e-08
-9.29574e-08
-1.3881e-08
-8.94066e-08
-1.39924e-08
-8.58342e-08
-1.40759e-08
-8.22473e-08
-1.41309e-08
-7.86531e-08
-1.41572e-08
-7.50588e-08
-1.41542e-08
-7.14718e-08
-1.41216e-08
-6.78995e-08
-1.40592e-08
-6.43494e-08
-1.39668e-08
-6.08289e-08
-1.38443e-08
-5.73455e-08
-1.36917e-08
-5.39066e-08
-1.35089e-08
-5.05197e-08
-1.32962e-08
-4.71921e-08
-1.30538e-08
-4.39311e-08
-1.27819e-08
-4.07437e-08
-1.2481e-08
-3.7637e-08
-1.21515e-08
-3.46179e-08
-1.1794e-08
-3.1693e-08
-1.14093e-08
-2.88687e-08
-1.09982e-08
-2.61513e-08
-1.05616e-08
-2.35466e-08
-1.01005e-08
-2.10603e-08
-9.61617e-09
-1.86975e-08
-9.10996e-09
-1.64631e-08
-8.58338e-09
-1.43616e-08
-8.03812e-09
-1.23967e-08
-7.47609e-09
-1.05719e-08
-6.89942e-09
-8.88993e-09
-6.31052e-09
-7.35283e-09
-5.71207e-09
-5.96194e-09
-5.10711e-09
-4.71774e-09
-4.49908e-09
-3.61978e-09
-3.89189e-09
-2.66658e-09
-3.28997e-09
-1.85551e-09
-2.69842e-09
-1.18264e-09
-2.12305e-09
-6.42636e-10
-1.57058e-09
-2.28587e-10
-1.04872e-09
6.81588e-11
-5.66389e-10
2.58161e-10
-1.33834e-10
3.54073e-10
2.37149e-10
3.70851e-10
5.33066e-10
3.2602e-10
7.38575e-10
2.40063e-10
8.36355e-10
1.36997e-10
8.07108e-10
4.53241e-11
6.29474e-10
2.78263e-10
1.06077e-11
-2.47384e-10
5.11843e-12
-4.59058e-10
-4.73401e-11
-4.4333e-10
-1.72304e-10
-2.43407e-10
-3.90969e-10
1.05924e-10
-7.20809e-10
5.74789e-10
-1.17602e-09
1.13759e-09
-1.76794e-09
1.77255e-09
-2.50533e-09
2.46123e-09
-3.39465e-09
3.18802e-09
-4.44033e-09
3.93982e-09
-5.64501e-09
4.70562e-09
-7.00972e-09
5.47623e-09
-8.53411e-09
6.24401e-09
-1.02166e-08
7.00262e-09
-1.20547e-08
7.74682e-09
-1.40449e-08
8.47232e-09
-1.6183e-08
9.17561e-09
-1.84641e-08
9.85387e-09
-2.0883e-08
1.05048e-08
-2.34338e-08
1.11267e-08
-2.61105e-08
1.17181e-08
-2.89066e-08
1.2278e-08
-3.18155e-08
1.28056e-08
-3.48306e-08
1.33005e-08
-3.79448e-08
1.37622e-08
-4.11512e-08
1.41908e-08
-4.44429e-08
1.45863e-08
-4.78128e-08
1.49487e-08
-5.12539e-08
1.52782e-08
-5.47593e-08
1.55753e-08
-5.83221e-08
1.58403e-08
-6.19353e-08
1.60736e-08
-6.55923e-08
1.62757e-08
-6.92863e-08
1.64471e-08
-7.30108e-08
1.65883e-08
-7.67591e-08
1.67e-08
-8.0525e-08
1.67825e-08
-8.43022e-08
1.68365e-08
-8.80843e-08
1.68626e-08
-9.18655e-08
1.68613e-08
-9.56396e-08
1.68331e-08
-9.94008e-08
1.67786e-08
-1.03143e-07
1.66983e-08
-1.06862e-07
1.65927e-08
-1.1055e-07
1.64623e-08
-1.14204e-07
1.63077e-08
-1.17816e-07
1.61293e-08
-1.21383e-07
1.59275e-08
-1.24899e-07