0.05 	0.0003125 	0.005 	-0.00110718 	8.76499e-07 	0
0.05 	0.0009375 	0.005 	-0.00314495 	5.50153e-06 	0
0.05 	0.0015625 	0.005 	-0.00500969 	1.5051e-05 	0
0.05 	0.0021875 	0.005 	-0.00670636 	2.81556e-05 	0
0.05 	0.0028125 	0.005 	-0.00824104 	4.40048e-05 	0
0.05 	0.0034375 	0.005 	-0.00962099 	6.20855e-05 	0
0.05 	0.0040625 	0.005 	-0.0108546 	8.19459e-05 	0
0.05 	0.0046875 	0.005 	-0.011951 	0.000103203 	0
0.05 	0.0053125 	0.005 	-0.0129204 	0.000125549 	0
0.05 	0.0059375 	0.005 	-0.0137732 	0.000148742 	0
0.05 	0.0065625 	0.005 	-0.0145201 	0.000172598 	0
0.05 	0.0071875 	0.005 	-0.0151721 	0.00019698 	0
0.05 	0.0078125 	0.005 	-0.0157398 	0.000221792 	0
0.05 	0.0084375 	0.005 	-0.0162337 	0.000246976 	0
0.05 	0.0090625 	0.005 	-0.0166637 	0.000272499 	0
0.05 	0.0096875 	0.005 	-0.0170391 	0.000298355 	0
0.05 	0.0103125 	0.005 	-0.0173686 	0.000324556 	0
0.05 	0.0109375 	0.005 	-0.0176602 	0.000351129 	0
0.05 	0.0115625 	0.005 	-0.0179209 	0.000378113 	0
0.05 	0.0121875 	0.005 	-0.0181571 	0.000405555 	0
0.05 	0.0128125 	0.005 	-0.0183744 	0.00043351 	0
0.05 	0.0134375 	0.005 	-0.0185777 	0.000462034 	0
0.05 	0.0140625 	0.005 	-0.0187711 	0.00049119 	0
0.05 	0.0146875 	0.005 	-0.0189582 	0.000521038 	0
0.05 	0.0153125 	0.005 	-0.0191419 	0.000551645 	0
0.05 	0.0159375 	0.005 	-0.0193249 	0.000583073 	0
0.05 	0.0165625 	0.005 	-0.019509 	0.000615386 	0
0.05 	0.0171875 	0.005 	-0.019696 	0.00064865 	0
0.05 	0.0178125 	0.005 	-0.0198872 	0.000682928 	0
0.05 	0.0184375 	0.005 	-0.0200837 	0.000718285 	0
0.05 	0.0190625 	0.005 	-0.0202865 	0.000754786 	0
0.05 	0.0196875 	0.005 	-0.0204961 	0.000792495 	0
0.05 	0.0203125 	0.005 	-0.0207131 	0.00083148 	0
0.05 	0.0209375 	0.005 	-0.0209381 	0.000871806 	0
0.05 	0.0215625 	0.005 	-0.0211712 	0.000913542 	0
0.05 	0.0221875 	0.005 	-0.0214129 	0.000956757 	0
0.05 	0.0228125 	0.005 	-0.0216633 	0.00100152 	0
0.05 	0.0234375 	0.005 	-0.0219227 	0.00104791 	0
0.05 	0.0240625 	0.005 	-0.0221911 	0.001096 	0
0.05 	0.0246875 	0.005 	-0.0224688 	0.00114586 	0
0.05 	0.0253125 	0.005 	-0.0227558 	0.00119758 	0
0.05 	0.0259375 	0.005 	-0.0230524 	0.00125124 	0
0.05 	0.0265625 	0.005 	-0.0233585 	0.00130691 	0
0.05 	0.0271875 	0.005 	-0.0236743 	0.0013647 	0
0.05 	0.0278125 	0.005 	-0.0239998 	0.00142469 	0
0.05 	0.0284375 	0.005 	-0.0243353 	0.00148697 	0
0.05 	0.0290625 	0.005 	-0.0246807 	0.00155164 	0
0.05 	0.0296875 	0.005 	-0.0250361 	0.0016188 	0
0.05 	0.0303125 	0.005 	-0.0254017 	0.00168854 	0
0.05 	0.0309375 	0.005 	-0.0257776 	0.00176099 	0
0.05 	0.0315625 	0.005 	-0.0261638 	0.00183624 	0
0.05 	0.0321875 	0.005 	-0.0265604 	0.00191441 	0
0.05 	0.0328125 	0.005 	-0.0269675 	0.00199562 	0
0.05 	0.0334375 	0.005 	-0.0273852 	0.00207997 	0
0.05 	0.0340625 	0.005 	-0.0278135 	0.00216761 	0
0.05 	0.0346875 	0.005 	-0.0282526 	0.00225865 	0
0.05 	0.0353125 	0.005 	-0.0287026 	0.00235323 	0
0.05 	0.0359375 	0.005 	-0.0291635 	0.00245147 	0
0.05 	0.0365625 	0.005 	-0.0296354 	0.00255352 	0
0.05 	0.0371875 	0.005 	-0.0301183 	0.00265952 	0
0.05 	0.0378125 	0.005 	-0.0306124 	0.00276961 	0
0.05 	0.0384375 	0.005 	-0.0311177 	0.00288394 	0
0.05 	0.0390625 	0.005 	-0.0316342 	0.00300266 	0
0.05 	0.0396875 	0.005 	-0.0321621 	0.00312593 	0
0.05 	0.0403125 	0.005 	-0.0327014 	0.00325391 	0
0.05 	0.0409375 	0.005 	-0.033252 	0.00338676 	0
0.05 	0.0415625 	0.005 	-0.0338141 	0.00352464 	0
0.05 	0.0421875 	0.005 	-0.0343877 	0.00366772 	0
0.05 	0.0428125 	0.005 	-0.0349729 	0.00381617 	0
0.05 	0.0434375 	0.005 	-0.0355695 	0.00397016 	0
0.05 	0.0440625 	0.005 	-0.0361777 	0.00412988 	0
0.05 	0.0446875 	0.005 	-0.0367974 	0.00429548 	0
0.05 	0.0453125 	0.005 	-0.0374286 	0.00446716 	0
0.05 	0.0459375 	0.005 	-0.0380713 	0.00464509 	0
0.05 	0.0465625 	0.005 	-0.0387255 	0.00482944 	0
0.05 	0.0471875 	0.005 	-0.0393911 	0.00502041 	0
0.05 	0.0478125 	0.005 	-0.0400681 	0.00521816 	0
0.05 	0.0484375 	0.005 	-0.0407563 	0.00542288 	0
0.05 	0.0490625 	0.005 	-0.0414558 	0.00563473 	0
0.05 	0.0496875 	0.005 	-0.0421663 	0.0058539 	0
0.05 	0.0503125 	0.005 	-0.0428878 	0.00608054 	0
0.05 	0.0509375 	0.005 	-0.0436202 	0.00631484 	0
0.05 	0.0515625 	0.005 	-0.0443632 	0.00655694 	0
0.05 	0.0521875 	0.005 	-0.0451168 	0.006807 	0
0.05 	0.0528125 	0.005 	-0.0458807 	0.00706516 	0
0.05 	0.0534375 	0.005 	-0.0466548 	0.00733156 	0
0.05 	0.0540625 	0.005 	-0.0474387 	0.00760634 	0
0.05 	0.0546875 	0.005 	-0.0482323 	0.0078896 	0
0.05 	0.0553125 	0.005 	-0.0490353 	0.00818145 	0
0.05 	0.0559375 	0.005 	-0.0498474 	0.00848199 	0
0.05 	0.0565625 	0.005 	-0.0506683 	0.00879128 	0
0.05 	0.0571875 	0.005 	-0.0514977 	0.00910938 	0
0.05 	0.0578125 	0.005 	-0.0523352 	0.00943634 	0
0.05 	0.0584375 	0.005 	-0.0531804 	0.00977217 	0
0.05 	0.0590625 	0.005 	-0.0540331 	0.0101169 	0
0.05 	0.0596875 	0.005 	-0.0548926 	0.0104704 	0
0.05 	0.0603125 	0.005 	-0.0557587 	0.0108327 	0
0.05 	0.0609375 	0.005 	-0.0566309 	0.0112038 	0
0.05 	0.0615625 	0.005 	-0.0575086 	0.0115834 	0
0.05 	0.0621875 	0.005 	-0.0583915 	0.0119715 	0
0.05 	0.0628125 	0.005 	-0.0592789 	0.0123679 	0
0.05 	0.0634375 	0.005 	-0.0601705 	0.0127724 	0
0.05 	0.0640625 	0.005 	-0.0610655 	0.0131847 	0
0.05 	0.0646875 	0.005 	-0.0619636 	0.0136046 	0
0.05 	0.0653125 	0.005 	-0.0628641 	0.0140318 	0
0.05 	0.0659375 	0.005 	-0.0637665 	0.0144658 	0
0.05 	0.0665625 	0.005 	-0.0646701 	0.0149064 	0
0.05 	0.0671875 	0.005 	-0.0655745 	0.015353 	0
0.05 	0.0678125 	0.005 	-0.0664789 	0.0158051 	0
0.05 	0.0684375 	0.005 	-0.0673828 	0.0162623 	0
0.05 	0.0690625 	0.005 	-0.0682855 	0.016724 	0
0.05 	0.0696875 	0.005 	-0.0691864 	0.0171896 	0
0.05 	0.0703125 	0.005 	-0.0700849 	0.0176583 	0
0.05 	0.0709375 	0.005 	-0.0709802 	0.0181296 	0
0.05 	0.0715625 	0.005 	-0.0718715 	0.0186026 	0
0.05 	0.0721875 	0.005 	-0.0727579 	0.0190765 	0
0.05 	0.0728125 	0.005 	-0.0736383 	0.0195506 	0
0.05 	0.0734375 	0.005 	-0.0745115 	0.0200238 	0
0.05 	0.0740625 	0.005 	-0.0753759 	0.0204953 	0
0.05 	0.0746875 	0.005 	-0.0762293 	0.020964 	0
0.05 	0.0753125 	0.005 	-0.0770689 	0.0214288 	0
0.05 	0.0759375 	0.005 	-0.0778911 	0.0218885 	0
0.05 	0.0765625 	0.005 	-0.078691 	0.0223418 	0
0.05 	0.0771875 	0.005 	-0.079462 	0.0227872 	0
0.05 	0.0778125 	0.005 	-0.0801951 	0.0232232 	0
0.05 	0.0784375 	0.005 	-0.0808785 	0.0236479 	0
0.05 	0.0790625 	0.005 	-0.0814966 	0.0240593 	0
0.05 	0.0796875 	0.005 	-0.0820287 	0.0244549 	0
0.05 	0.0803125 	0.005 	-0.0824477 	0.0248321 	0
0.05 	0.0809375 	0.005 	-0.0827188 	0.0251875 	0
0.05 	0.0815625 	0.005 	-0.0827971 	0.0255175 	0
0.05 	0.0821875 	0.005 	-0.0826258 	0.0258175 	0
0.05 	0.0828125 	0.005 	-0.0821335 	0.0260825 	0
0.05 	0.0834375 	0.005 	-0.0812314 	0.0263064 	0
0.05 	0.0840625 	0.005 	-0.0798104 	0.0264822 	0
0.05 	0.0846875 	0.005 	-0.0777377 	0.0266021 	0
0.05 	0.0853125 	0.005 	-0.0748541 	0.0266569 	0
0.05 	0.0859375 	0.005 	-0.07097 	0.0266365 	0
0.05 	0.0865625 	0.005 	-0.0658637 	0.0265299 	0
0.05 	0.0871875 	0.005 	-0.0592777 	0.0263248 	0
0.05 	0.0878125 	0.005 	-0.0509182 	0.0260085 	0
0.05 	0.0884375 	0.005 	-0.0404536 	0.0255675 	0
0.05 	0.0890625 	0.005 	-0.0275154 	0.0249887 	0
0.05 	0.0896875 	0.005 	-0.0116998 	0.0242591 	0
0.05 	0.0903125 	0.005 	0.00742852 	0.0233672 	0
0.05 	0.0909375 	0.005 	0.030331 	0.0223039 	0
0.05 	0.0915625 	0.005 	0.0574877 	0.0210629 	0
0.05 	0.0921875 	0.005 	0.0893877 	0.0196431 	0
0.05 	0.0928125 	0.005 	0.126516 	0.018049 	0
0.05 	0.0934375 	0.005 	0.16934 	0.0162932 	0
0.05 	0.0940625 	0.005 	0.218289 	0.0143971 	0
0.05 	0.0946875 	0.005 	0.273732 	0.0123935 	0
0.05 	0.0953125 	0.005 	0.33595 	0.0103268 	0
0.05 	0.0959375 	0.005 	0.405102 	0.00825421 	0
0.05 	0.0965625 	0.005 	0.481185 	0.00624499 	0
0.05 	0.0971875 	0.005 	0.563989 	0.00437878 	0
0.05 	0.0978125 	0.005 	0.653047 	0.0027402 	0
0.05 	0.0984375 	0.005 	0.747597 	0.00141092 	0
0.05 	0.0990625 	0.005 	0.846542 	0.000481269 	0
0.05 	0.0996875 	0.005 	0.948445 	6.45322e-05 	0
