0.05 	0.0003125 	0.005 	0.00204907
0.05 	0.0009375 	0.005 	0.00205092
0.05 	0.0015625 	0.005 	0.0020522
0.05 	0.0021875 	0.005 	0.00205305
0.05 	0.0028125 	0.005 	0.00205361
0.05 	0.0034375 	0.005 	0.00205384
0.05 	0.0040625 	0.005 	0.00205373
0.05 	0.0046875 	0.005 	0.00205328
0.05 	0.0053125 	0.005 	0.00205246
0.05 	0.0059375 	0.005 	0.00205128
0.05 	0.0065625 	0.005 	0.00204972
0.05 	0.0071875 	0.005 	0.00204778
0.05 	0.0078125 	0.005 	0.00204545
0.05 	0.0084375 	0.005 	0.00204273
0.05 	0.0090625 	0.005 	0.00203961
0.05 	0.0096875 	0.005 	0.0020361
0.05 	0.0103125 	0.005 	0.00203218
0.05 	0.0109375 	0.005 	0.00202786
0.05 	0.0115625 	0.005 	0.00202313
0.05 	0.0121875 	0.005 	0.00201798
0.05 	0.0128125 	0.005 	0.00201241
0.05 	0.0134375 	0.005 	0.00200641
0.05 	0.0140625 	0.005 	0.00199997
0.05 	0.0146875 	0.005 	0.00199307
0.05 	0.0153125 	0.005 	0.0019857
0.05 	0.0159375 	0.005 	0.00197785
0.05 	0.0165625 	0.005 	0.0019695
0.05 	0.0171875 	0.005 	0.00196063
0.05 	0.0178125 	0.005 	0.00195123
0.05 	0.0184375 	0.005 	0.00194127
0.05 	0.0190625 	0.005 	0.00193073
0.05 	0.0196875 	0.005 	0.0019196
0.05 	0.0203125 	0.005 	0.00190785
0.05 	0.0209375 	0.005 	0.00189547
0.05 	0.0215625 	0.005 	0.00188243
0.05 	0.0221875 	0.005 	0.00186871
0.05 	0.0228125 	0.005 	0.00185428
0.05 	0.0234375 	0.005 	0.00183914
0.05 	0.0240625 	0.005 	0.00182325
0.05 	0.0246875 	0.005 	0.00180659
0.05 	0.0253125 	0.005 	0.00178914
0.05 	0.0259375 	0.005 	0.00177086
0.05 	0.0265625 	0.005 	0.00175173
0.05 	0.0271875 	0.005 	0.00173172
0.05 	0.0278125 	0.005 	0.00171081
0.05 	0.0284375 	0.005 	0.00168895
0.05 	0.0290625 	0.005 	0.00166611
0.05 	0.0296875 	0.005 	0.00164226
0.05 	0.0303125 	0.005 	0.00161735
0.05 	0.0309375 	0.005 	0.00159135
0.05 	0.0315625 	0.005 	0.00156421
0.05 	0.0321875 	0.005 	0.00153588
0.05 	0.0328125 	0.005 	0.00150631
0.05 	0.0334375 	0.005 	0.00147544
0.05 	0.0340625 	0.005 	0.00144322
0.05 	0.0346875 	0.005 	0.00140958
0.05 	0.0353125 	0.005 	0.00137447
0.05 	0.0359375 	0.005 	0.00133783
0.05 	0.0365625 	0.005 	0.00129958
0.05 	0.0371875 	0.005 	0.00125968
0.05 	0.0378125 	0.005 	0.00121804
0.05 	0.0384375 	0.005 	0.00117461
0.05 	0.0390625 	0.005 	0.00112932
0.05 	0.0396875 	0.005 	0.00108209
0.05 	0.0403125 	0.005 	0.00103287
0.05 	0.0409375 	0.005 	0.000981579
0.05 	0.0415625 	0.005 	0.000928158
0.05 	0.0421875 	0.005 	0.000872535
0.05 	0.0428125 	0.005 	0.000814636
0.05 	0.0434375 	0.005 	0.000754384
0.05 	0.0440625 	0.005 	0.000691695
0.05 	0.0446875 	0.005 	0.000626481
0.05 	0.0453125 	0.005 	0.000558651
0.05 	0.0459375 	0.005 	0.00048811
0.05 	0.0465625 	0.005 	0.000414761
0.05 	0.0471875 	0.005 	0.0003385
0.05 	0.0478125 	0.005 	0.00025922
0.05 	0.0484375 	0.005 	0.000176809
0.05 	0.0490625 	0.005 	9.11515e-05
0.05 	0.0496875 	0.005 	2.13178e-06
0.05 	0.0503125 	0.005 	-9.03637e-05
0.05 	0.0509375 	0.005 	-0.000186444
0.05 	0.0515625 	0.005 	-0.000286216
0.05 	0.0521875 	0.005 	-0.000389783
0.05 	0.0528125 	0.005 	-0.000497248
0.05 	0.0534375 	0.005 	-0.000608716
0.05 	0.0540625 	0.005 	-0.000724289
0.05 	0.0546875 	0.005 	-0.000844065
0.05 	0.0553125 	0.005 	-0.000968139
0.05 	0.0559375 	0.005 	-0.00109661
0.05 	0.0565625 	0.005 	-0.00122957
0.05 	0.0571875 	0.005 	-0.00136713
0.05 	0.0578125 	0.005 	-0.00150939
0.05 	0.0584375 	0.005 	-0.00165647
0.05 	0.0590625 	0.005 	-0.00180846
0.05 	0.0596875 	0.005 	-0.00196547
0.05 	0.0603125 	0.005 	-0.00212759
0.05 	0.0609375 	0.005 	-0.00229492
0.05 	0.0615625 	0.005 	-0.00246753
0.05 	0.0621875 	0.005 	-0.0026455
0.05 	0.0628125 	0.005 	-0.00282889
0.05 	0.0634375 	0.005 	-0.00301775
0.05 	0.0640625 	0.005 	-0.00321211
0.05 	0.0646875 	0.005 	-0.003412
0.05 	0.0653125 	0.005 	-0.00361745
0.05 	0.0659375 	0.005 	-0.00382846
0.05 	0.0665625 	0.005 	-0.00404505
0.05 	0.0671875 	0.005 	-0.0042672
0.05 	0.0678125 	0.005 	-0.00449491
0.05 	0.0684375 	0.005 	-0.00472819
0.05 	0.0690625 	0.005 	-0.004967
0.05 	0.0696875 	0.005 	-0.0052113
0.05 	0.0703125 	0.005 	-0.00546105
0.05 	0.0709375 	0.005 	-0.00571619
0.05 	0.0715625 	0.005 	-0.00597663
0.05 	0.0721875 	0.005 	-0.00624229
0.05 	0.0728125 	0.005 	-0.00651304
0.05 	0.0734375 	0.005 	-0.00678876
0.05 	0.0740625 	0.005 	-0.00706932
0.05 	0.0746875 	0.005 	-0.00735457
0.05 	0.0753125 	0.005 	-0.00764435
0.05 	0.0759375 	0.005 	-0.00793851
0.05 	0.0765625 	0.005 	-0.00823686
0.05 	0.0771875 	0.005 	-0.00853922
0.05 	0.0778125 	0.005 	-0.00884539
0.05 	0.0784375 	0.005 	-0.00915514
0.05 	0.0790625 	0.005 	-0.00946821
0.05 	0.0796875 	0.005 	-0.00978431
0.05 	0.0803125 	0.005 	-0.0101031
0.05 	0.0809375 	0.005 	-0.0104242
0.05 	0.0815625 	0.005 	-0.0107472
0.05 	0.0821875 	0.005 	-0.0110716
0.05 	0.0828125 	0.005 	-0.0113967
0.05 	0.0834375 	0.005 	-0.0117219
0.05 	0.0840625 	0.005 	-0.0120463
0.05 	0.0846875 	0.005 	-0.0123689
0.05 	0.0853125 	0.005 	-0.0126885
0.05 	0.0859375 	0.005 	-0.0130037
0.05 	0.0865625 	0.005 	-0.013313
0.05 	0.0871875 	0.005 	-0.0136142
0.05 	0.0878125 	0.005 	-0.0139054
0.05 	0.0884375 	0.005 	-0.014184
0.05 	0.0890625 	0.005 	-0.0144471
0.05 	0.0896875 	0.005 	-0.0146919
0.05 	0.0903125 	0.005 	-0.014915
0.05 	0.0909375 	0.005 	-0.0151133
0.05 	0.0915625 	0.005 	-0.0152835
0.05 	0.0921875 	0.005 	-0.0154227
0.05 	0.0928125 	0.005 	-0.0155283
0.05 	0.0934375 	0.005 	-0.0155984
0.05 	0.0940625 	0.005 	-0.0156322
0.05 	0.0946875 	0.005 	-0.0156298
0.05 	0.0953125 	0.005 	-0.0155927
0.05 	0.0959375 	0.005 	-0.0155237
0.05 	0.0965625 	0.005 	-0.0154268
0.05 	0.0971875 	0.005 	-0.0153071
0.05 	0.0978125 	0.005 	-0.0151713
0.05 	0.0984375 	0.005 	-0.0150262
0.05 	0.0990625 	0.005 	-0.0148656
0.05 	0.0996875 	0.005 	-0.0146788
