/*--------------------------------*- C++ -*----------------------------------*\
  =========                 |
  \\      /  F ield         | OpenFOAM: The Open Source CFD Toolbox
   \\    /   O peration     | Website:  https://openfoam.org
    \\  /    A nd           | Version:  7
     \\/     M anipulation  |
\*---------------------------------------------------------------------------*/
FoamFile
{
    version     2.0;
    format      ascii;
    class       volScalarField;
    location    "0.45";
    object      p;
}
// * * * * * * * * * * * * * * * * * * * * * * * * * * * * * * * * * * * * * //

dimensions      [0 2 -2 0 0 0 0];

internalField   nonuniform List<scalar> 
6400
(
9.21277e-06
2.81275e-05
-0.000477534
-0.00151049
-0.00295313
-0.00469522
-0.00663641
-0.0086871
-0.01077
-0.0128198
-0.0147812
-0.0166083
-0.0182624
-0.0197119
-0.020931
-0.0218989
-0.0225994
-0.0230205
-0.0231536
-0.0229933
-0.022537
-0.021785
-0.0207396
-0.0194054
-0.0177889
-0.0158983
-0.0137434
-0.0113356
-0.00868741
-0.00581282
-0.00272678
0.000554663
0.00401451
0.00763489
0.0113972
0.0152819
0.0192692
0.0233383
0.0274682
0.0316374
0.035824
0.040006
0.0441612
0.0482673
0.052302
0.0562432
0.0600692
0.0637584
0.06729
0.0706437
0.0738002
0.0767409
0.0794484
0.0819067
0.0841011
0.0860187
0.0876481
0.0889803
0.0900082
0.0907273
0.0911356
0.091234
0.0910265
0.0905206
0.0897272
0.0886615
0.0873427
0.085795
0.0840478
0.0821363
0.0801023
0.077995
0.0758718
0.0737999
0.0718567
0.0701308
0.0687192
0.0677261
0.0672581
0.0672957
3.94558e-06
1.80312e-05
-0.000435561
-0.00131907
-0.00253314
-0.0039986
-0.00563961
-0.00738378
-0.0091658
-0.0109284
-0.0126219
-0.0142037
-0.0156379
-0.0168941
-0.0179472
-0.0187768
-0.0193666
-0.0197043
-0.0197807
-0.0195897
-0.0191281
-0.0183951
-0.017392
-0.0161226
-0.0145921
-0.0128077
-0.0107781
-0.00851348
-0.00602529
-0.00332623
-0.000430096
0.00264828
0.00589314
0.00928786
0.012815
0.0164566
0.0201938
0.0240073
0.0278774
0.031784
0.0357066
0.0396246
0.0435171
0.0473633
0.0511425
0.0548339
0.0584174
0.061873
0.0651812
0.0683235
0.0712817
0.074039
0.0765795
0.0788886
0.0809529
0.0827609
0.0843027
0.0855703
0.0865578
0.0872618
0.0876813
0.0878179
0.0876762
0.0872643
0.0865932
0.0856781
0.0845378
0.0831959
0.0816804
0.0800245
0.0782671
0.0764532
0.0746343
0.0728689
0.0712223
0.0697659
0.0685728
0.0677178
0.0672945
0.0673332
0.000511413
0.00047342
1.94742e-05
-0.000796632
-0.00188757
-0.00319002
-0.00464283
-0.00618596
-0.00776374
-0.00932612
-0.0108288
-0.012233
-0.0135056
-0.014618
-0.0155465
-0.0162714
-0.016777
-0.0170508
-0.0170837
-0.0168693
-0.0164039
-0.0156861
-0.0147168
-0.0134989
-0.0120368
-0.0103371
-0.0084075
-0.00625728
-0.003897
-0.00133842
0.00140563
0.00432129
0.00739381
0.0106076
0.0139462
0.0173927
0.0209293
0.0245379
0.0281999
0.0318961
0.0356073
0.039314
0.0429964
0.046635
0.0502102
0.0537025
0.0570928
0.0603624
0.0634932
0.0664674
0.0692686
0.0718807
0.0742891
0.0764802
0.078442
0.0801636
0.0816363
0.082853
0.0838086
0.0845003
0.0849277
0.085093
0.0850012
0.0846601
0.0840811
0.0832786
0.0822711
0.0810808
0.0797342
0.0782623
0.076701
0.075091
0.0734783
0.0719139
0.0704537
0.069157
0.0680831
0.0672921
0.0668696
0.0668671
0.00154452
0.00135952
0.000835783
1.63998e-05
-0.00103193
-0.00225558
-0.00360278
-0.00502284
-0.00646814
-0.00789509
-0.00926449
-0.0105416
-0.011696
-0.0127018
-0.0135366
-0.0141821
-0.0146233
-0.0148481
-0.0148477
-0.0146158
-0.0141484
-0.013444
-0.0125031
-0.0113279
-0.00992264
-0.00829301
-0.0064462
-0.00439077
-0.00213655
0.000305484
0.00292328
0.00570382
0.00863317
0.0116966
0.0148786
0.018163
0.021533
0.0249715
0.0284606
0.0319823
0.0355183
0.0390499
0.0425586
0.0460256
0.0494323
0.0527603
0.0559914
0.059108
0.0620929
0.0649294
0.0676017
0.070095
0.0723954
0.0744903
0.0763683
0.0780195
0.0794358
0.0806107
0.0815397
0.0822205
0.0826529
0.0828395
0.0827851
0.0824976
0.0819878
0.0812697
0.0803606
0.0792815
0.0780571
0.0767159
0.0752905
0.0738177
0.0723384
0.0708971
0.0695419
0.0683233
0.0672918
0.0664989
0.0660128
0.0658772
0.00299361
0.00258206
0.00193045
0.00105818
2.43819e-06
-0.00119192
-0.00248094
-0.00382236
-0.0051759
-0.00650408
-0.00777269
-0.00895102
-0.0100119
-0.0109318
-0.0116903
-0.0122705
-0.0126584
-0.0128429
-0.0128153
-0.0125696
-0.012102
-0.0114109
-0.0104964
-0.00936065
-0.00800727
-0.00644154
-0.00467009
-0.00270091
-0.000543159
0.00179285
0.0042958
0.00695339
0.00975247
0.0126791
0.0157185
0.0188555
0.0220741
0.0253579
0.02869
0.0320533
0.0354302
0.0388031
0.0421543
0.0454659
0.0487202
0.0518998
0.0549873
0.057966
0.0608194
0.0635319
0.0660884
0.068475
0.0706786
0.0726871
0.07449
0.076078
0.0774435
0.0785805
0.0794849
0.0801547
0.08059
0.0807932
0.0807691
0.0805253
0.0800719
0.0794223
0.0785925
0.077602
0.0764734
0.0752327
0.0739094
0.0725361
0.0711487
0.0697859
0.0684888
0.0672998
0.0662621
0.0654196
0.0648133
0.0644655
0.00475653
0.00406806
0.00324539
0.00227992
0.00117538
-3.11718e-05
-0.00130245
-0.00260374
-0.00390146
-0.00516378
-0.00636125
-0.0074671
-0.0084574
-0.00931111
-0.01001
-0.0105387
-0.0108845
-0.011037
-0.0109883
-0.0107329
-0.0102671
-0.00958923
-0.00869955
-0.00759989
-0.00629365
-0.0047857
-0.00308226
-0.00119079
0.000880077
0.00312064
0.00552021
0.00806714
0.010749
0.0135525
0.0164638
0.0194682
0.0225506
0.0256954
0.0288865
0.0321076
0.0353419
0.0385726
0.0417828
0.0449554
0.0480736
0.0511207
0.0540802
0.056936
0.0596725
0.0622748
0.0647287
0.0670207
0.0691383
0.0710704
0.0728067
0.0743386
0.0756587
0.0767616
0.0776434
0.0783022
0.0787381
0.0789533
0.0789526
0.0787429
0.0783337
0.0777373
0.0769686
0.0760454
0.0749881
0.0738202
0.0725679
0.0712601
0.069928
0.0686049
0.0673255
0.066125
0.0650405
0.0641088
0.0633395
0.0627286
0.00674248
0.00574894
0.00472542
0.00363509
0.0024478
0.00119407
-9.43079e-05
-0.00138929
-0.00266331
-0.00388964
-0.00504326
-0.00610114
-0.00704251
-0.00784891
-0.00850427
-0.00899486
-0.00930924
-0.00943819
-0.0093746
-0.00911335
-0.00865123
-0.00798679
-0.00712025
-0.00605339
-0.00478947
-0.00333309
-0.00169012
0.000132371
0.00212621
0.00428221
0.00659021
0.00903918
0.0116173
0.0143119
0.0171097
0.0199969
0.022959
0.0259811
0.0290478
0.0321434
0.0352521
0.0383576
0.0414438
0.0444944
0.0474933
0.0504243
0.0532717
0.0560202
0.0586548
0.0611611
0.0635256
0.0657353
0.0677784
0.069644
0.0713225
0.0728054
0.0740859
0.0751586
0.0760198
0.0766676
0.077102
0.077325
0.0773408
0.077156
0.0767791
0.0762214
0.0754964
0.0746202
0.0736112
0.0724903
0.0712806
0.0700074
0.0686977
0.0673799
0.066083
0.0648361
0.0636711
0.0626186
0.0616563
0.060753
0.00887217
0.00756011
0.00631669
0.00507835
0.00378223
0.00245359
0.00111983
-0.000196811
-0.00147408
-0.00268988
-0.0038232
-0.00485453
-0.00576608
-0.00654195
-0.00716815
-0.00763271
-0.00792559
-0.0080387
-0.00796579
-0.0077024
-0.00724578
-0.00659479
-0.00574982
-0.00471268
-0.00348655
-0.00207587
-0.000486271
0.0012755
0.00320164
0.00528338
0.00751104
0.00987408
0.0123612
0.0149604
0.0176589
0.0204435
0.0233004
0.0262152
0.0291732
0.0321595
0.0351586
0.0381553
0.0411337
0.0440784
0.0469737
0.0498043
0.052555
0.0552109
0.0577577
0.0601815
0.0624692
0.0646084
0.0665877
0.0683965
0.0700254
0.0714664
0.0727127
0.073759
0.0746016
0.0752386
0.0756697
0.0758966
0.075923
0.0757548
0.0753996
0.0748676
0.0741708
0.0733237
0.0723427
0.0712462
0.0700545
0.0687896
0.0674745
0.0661334
0.0647903
0.0634688
0.0621969
0.0610003
0.0598253
0.058615
0.0110786
0.00944405
0.00796966
0.00656716
0.00514277
0.00371772
0.00231603
0.000954944
-0.000347932
-0.00157458
-0.00270765
-0.00373085
-0.00462921
-0.00538924
-0.00599901
-0.00644828
-0.00672845
-0.00683258
-0.00675537
-0.0064931
-0.00604355
-0.00540599
-0.00458103
-0.00357062
-0.00237796
-0.0010074
0.000535594
0.0022445
0.00411181
0.00612911
0.00828712
0.0105757
0.0129841
0.0155007
0.0181133
0.0208093
0.0235753
0.0263976
0.029262
0.0321541
0.0350592
0.0379624
0.0408486
0.0437027
0.0465097
0.0492548
0.0519232
0.0545007
0.0569732
0.0593274
0.0615505
0.0636304
0.0655561
0.0673172
0.0689046
0.0703104
0.0715277
0.0725515
0.0733777
0.0740044
0.0744309
0.0746585
0.0746904
0.0745314
0.0741887
0.0736709
0.0729889
0.0721553
0.0711847
0.0700932
0.0688985
0.0676194
0.0662757
0.0648877
0.0634751
0.0620569
0.0606581
0.0593007
0.0579012
0.0563789
0.0133059
0.0113507
0.00963987
0.00806238
0.00649557
0.00495768
0.00347026
0.0020463
0.000699429
-0.000555942
-0.00170571
-0.00273654
-0.00363604
-0.00439299
-0.00499745
-0.00544085
-0.00571602
-0.00581721
-0.00574008
-0.0054817
-0.00504047
-0.00441608
-0.00360949
-0.00262284
-0.00145939
-0.000123515
0.00137942
0.00304305
0.0048601
0.00682243
0.00892107
0.0111463
0.0134877
0.0159341
0.0184738
0.0210945
0.0237835
0.0265275
0.0293128
0.0321256
0.0349515
0.0377761
0.0405849
0.0433633
0.0460967
0.0487706
0.0513708
0.0538833
0.0562947
0.0585916
0.0607618
0.0627935
0.0646755
0.066398
0.0679517
0.0693288
0.0705226
0.0715277
0.0723401
0.0729573
0.0733784
0.0736042
0.0736371
0.0734814
0.073143
0.0726295
0.0719505
0.0711171
0.0701417
0.0690386
0.0678229
0.0665109
0.0651192
0.0636651
0.0621643
0.0606323
0.0590917
0.0575618
0.0559315
0.0540981
0.0155072
0.0132366
0.0112877
0.00952837
0.00780912
0.00614609
0.00455907
0.00305754
0.00165169
0.00035283
-0.000827823
-0.00187957
-0.00279239
-0.0035572
-0.0041659
-0.00461155
-0.00488835
-0.00499175
-0.00491839
-0.00466615
-0.00423406
-0.00362234
-0.0028323
-0.00186633
-0.000727868
0.000578687
0.00204798
0.00367374
0.00544886
0.0073654
0.00941466
0.0115872
0.0138729
0.0162611
0.0187404
0.021299
0.0239244
0.0266038
0.0293241
0.0320717
0.0348327
0.0375932
0.0403391
0.0430561
0.0457299
0.0483467
0.0508923
0.0533531
0.0557159
0.0579678
0.0600965
0.0620905
0.0639387
0.0656314
0.0671593
0.0685145
0.0696902
0.0706807
0.071482
0.072091
0.0725065
0.0727287
0.0727593
0.0726017
0.0722609
0.0717435
0.0710575
0.0702126
0.0692196
0.0680908
0.0668391
0.0654784
0.064023
0.0624869
0.0608833
0.0592241
0.0575307
0.0558206
0.053957
0.0518168
0.0176431
0.0150641
0.0128779
0.0109328
0.0090543
0.00725708
0.00555984
0.00396915
0.00249229
0.00113791
-8.53182e-05
-0.00116904
-0.00210542
-0.00288728
-0.00350829
-0.00396301
-0.00424702
-0.00435689
-0.00429025
-0.0040458
-0.00362325
-0.00302334
-0.0022478
-0.00129932
-0.000181534
0.00110105
0.00254303
0.0041382
0.00587953
0.00775925
0.00976885
0.0118992
0.0141403
0.0164819
0.018913
0.0214219
0.0239968
0.026625
0.0292938
0.03199
0.0347002
0.0374106
0.0401075
0.0427771
0.0454052
0.0479783
0.0504826
0.0529046
0.0552313
0.05745
0.0595484
0.0615152
0.0633394
0.065011
0.0665209
0.067861
0.0690242
0.0700047
0.070798
0.0714008
0.0718111
0.0720287
0.0720544
0.0718909
0.0715423
0.0710139
0.0703126
0.0694466
0.0684253
0.0672589
0.0659588
0.0645365
0.0630042
0.0613737
0.0596554
0.057859
0.0560049
0.0541097
0.0520126
0.0495716
0.0196803
0.0168004
0.0143792
0.0122466
0.0102042
0.00826633
0.00645086
0.00476202
0.00320464
0.00178505
0.000509733
-0.000615049
-0.00158339
-0.00238991
-0.00302987
-0.00349929
-0.00379501
-0.00391472
-0.00385703
-0.00362142
-0.00320831
-0.00261898
-0.00185561
-0.000921223
0.000180308
0.00144431
0.00286532
0.00443709
0.00615267
0.00800437
0.00998385
0.0120821
0.0142895
0.0165959
0.0189906
0.0214622
0.0239992
0.0265892
0.0292198
0.0318781
0.034551
0.037225
0.0398867
0.0425223
0.0451183
0.047661
0.0501369
0.0525327
0.0548355
0.0570326
0.0591119
0.0610619
0.0628717
0.0645312
0.0660311
0.067363
0.0685197
0.069495
0.070284
0.0708828
0.0712891
0.0715018
0.0715212
0.0713489
0.0709882
0.0704432
0.0697199
0.0688249
0.0677663
0.0665528
0.0651938
0.0636994
0.0620797
0.0603446
0.0585027
0.0565613
0.0545409
0.0524578
0.0501283
0.0473929
0.0215899
0.0184167
0.0157636
0.0134429
0.0112341
0.00915098
0.00721138
0.00541753
0.00377218
0.00227972
0.000944718
-0.000228417
-0.00123552
-0.00207283
-0.00273708
-0.00322566
-0.00353659
-0.00366865
-0.00362137
-0.00339504
-0.00299075
-0.00241036
-0.00165651
-0.000732585
0.00035727
0.00160819
0.00301458
0.00457015
0.00626794
0.00810033
0.0100591
0.0121353
0.0143196
0.0166019
0.0189718
0.0214182
0.0239296
0.0264942
0.0290996
0.0317332
0.034382
0.037033
0.0396728
0.042288
0.0448649
0.0473903
0.0498506
0.0522327
0.0545236
0.0567108
0.058782
0.0607258
0.0625309
0.0641872
0.0656852
0.0670162
0.0681727
0.069148
0.0699368
0.0705347
0.0709387
0.0711472
0.0711595
0.0709767
0.0706008
0.0700351
0.0692844
0.0683541
0.067251
0.0659824
0.0645563
0.0629812
0.0612657
0.0594181
0.0574453
0.0553533
0.0531626
0.0508897
0.0483298
0.0453064
0.023347
0.0198876
0.017006
0.0144977
0.0121209
0.00988952
0.00782153
0.00591752
0.00417853
0.00260726
0.00120662
-2.06048e-05
-0.00107181
-0.0019447
-0.00263739
-0.00314849
-0.00347718
-0.00362324
-0.00358711
-0.00336986
-0.00297325
-0.00239973
-0.00165239
-0.000735023
0.000347942
0.00159141
0.00298962
0.00453622
0.00622418
0.00804591
0.0099932
0.0120573
0.0142289
0.0164981
0.0188546
0.0212876
0.0237857
0.0263373
0.0289303
0.0315521
0.03419
0.0368312
0.0394623
0.0420701
0.0446411
0.047162
0.0496194
0.0520001
0.0542912
0.05648
0.0585543
0.0605022
0.0623126
0.0639749
0.0654794
0.0668171
0.06798
0.068961
0.0697543
0.0703549
0.0707593
0.0709649
0.0709705
0.0707763
0.0703833
0.0697939
0.0690118
0.0680414
0.0668882
0.0655583
0.0640585
0.0623959
0.0605778
0.0586115
0.0565023
0.0542553
0.0518915
0.0494279
0.0466395
0.0433336
0.0249295
0.0211904
0.0180836
0.0153886
0.0128432
0.0104616
0.00826224
0.00624434
0.00440747
0.0027529
0.00128211
-3.57401e-06
-0.00110293
-0.00201499
-0.00273913
-0.00327511
-0.00362319
-0.0037841
-0.00375914
-0.00355015
-0.00315956
-0.00259037
-0.00184617
-0.000931145
0.000149954
0.00139178
0.00278839
0.0043333
0.00601942
0.00783913
0.00978423
0.011846
0.0140153
0.0162822
0.0186367
0.0210679
0.0235648
0.0261157
0.0287088
0.0313316
0.0339715
0.0366158
0.0392513
0.0418647
0.0444427
0.046972
0.0494391
0.0518308
0.0541341
0.0563361
0.0584246
0.0603874
0.0622131
0.0638909
0.0654106
0.0667629
0.0679393
0.0689322
0.0697353
0.0703429
0.0707509
0.070956
0.0709562
0.0707506
0.0703398
0.069725
0.0689088
0.0678947
0.0666872
0.0652912
0.0637125
0.0619571
0.0600312
0.0579411
0.0556913
0.0532859
0.0507469
0.0480921
0.045077
0.0414934
0.0263175
0.0223041
0.0189754
0.0160949
0.0133808
0.0108479
0.00851519
0.00638077
0.00444296
0.00270183
0.00115758
-0.000189721
-0.00134012
-0.00229385
-0.00305144
-0.00361373
-0.00398196
-0.00415779
-0.00414333
-0.00394117
-0.00355439
-0.00298654
-0.00224172
-0.00132449
-0.00023997
0.00100623
0.00240798
0.00395861
0.00565095
0.0074773
0.00942947
0.0114988
0.013676
0.0159515
0.018315
0.0207561
0.0232636
0.0258261
0.0284316
0.0310681
0.0337229
0.0363832
0.039036
0.041668
0.0442659
0.0468163
0.0493057
0.0517208
0.0540483
0.0562754
0.0583893
0.0603779
0.0622292
0.0639322
0.0654762
0.0668514
0.068049
0.0690607
0.0698794
0.0704991
0.0709147
0.0711224
0.0711192
0.0709037
0.0704751
0.0698342
0.0689825
0.0679225
0.0666576
0.0651921
0.0635306
0.0616783
0.0596405
0.0574229
0.055029
0.0524626
0.0497467
0.0469003
0.0436599
0.0398021
0.0274928
0.0232098
0.0196618
0.0165971
0.0137146
0.0110299
0.00856259
0.00630991
0.0042691
0.00243918
0.00081922
-0.000591828
-0.00179514
-0.00279206
-0.00358417
-0.00417331
-0.00456166
-0.00475174
-0.00474645
-0.00454909
-0.00416336
-0.00359341
-0.00284378
-0.00191947
-0.00082595
0.000430891
0.00184468
0.00340859
0.00511531
0.00695705
0.00892559
0.0110122
0.0132077
0.0155024
0.0178862
0.0203486
0.0228786
0.0254647
0.0280952
0.0307578
0.0334402
0.0361294
0.0388124
0.0414759
0.0441066
0.0466909
0.0492153
0.0516662
0.0540303
0.0562943
0.0584453
0.0604706
0.0623583
0.0640965
0.0656743
0.0670814
0.0683082
0.069346
0.070187
0.0708245
0.0712527
0.0714668
0.0714634
0.0712399
0.070795
0.0701283
0.0692406
0.0681335
0.0668096
0.0652721
0.0635251
0.0615728
0.0594201
0.0570719
0.0545314
0.0518018
0.0489075
0.0458689
0.0424039
0.0382742
0.0284384
0.0238896
0.0201246
0.0168769
0.0138264
0.0109897
0.00838713
0.00601516
0.00387008
0.00194998
0.000252966
-0.00122304
-0.00248024
-0.00352099
-0.00434783
-0.00496356
-0.00537124
-0.00557419
-0.00557608
-0.0053809
-0.00499296
-0.00441696
-0.00365794
-0.00272132
-0.00161291
-0.000338906
0.00109407
0.00267898
0.00440837
0.00627436
0.00826861
0.0103824
0.0126064
0.0149311
0.0173463
0.0198415
0.0224058
0.0250277
0.0276954
0.0303968
0.0331193
0.0358502
0.0385764
0.0412844
0.0439608
0.0465919
0.0491641
0.0516634
0.0540764
0.0563895
0.0585893
0.060663
0.0625979
0.064382
0.0660036
0.0674518
0.0687166
0.0697885
0.0706591
0.0713209
0.0717673
0.0719928
0.0719931
0.0717648
0.0713057
0.0706147
0.0696916
0.0685373
0.0671535
0.0655428
0.0637084
0.0616541
0.0593841
0.056903
0.0542136
0.051319
0.048245
0.0450134
0.0413238
0.0369232
0.0291382
0.0243262
0.0203462
0.0169163
0.0136985
0.0107099
0.00797183
0.00548006
0.00323009
0.00121917
-0.000555481
-0.00209686
-0.00340811
-0.00449251
-0.00535354
-0.00599485
-0.00642034
-0.00663413
-0.00664059
-0.00644439
-0.00605045
-0.00546401
-0.00469058
-0.00373602
-0.0026065
-0.00130854
0.000150985
0.00176483
0.00352537
0.00542457
0.00745401
0.00960484
0.0118678
0.0142332
0.016691
0.0192305
0.0218408
0.0245106
0.0272278
0.0299805
0.0327561
0.0355415
0.0383238
0.0410893
0.0438245
0.0465154
0.0491482
0.0517088
0.0541834
0.0565579
0.0588188
0.0609526
0.0629463
0.0647871
0.066463
0.0679624
0.0692745
0.0703892
0.0712974
0.0719907
0.0724618
0.0727044
0.0727132
0.0724841
0.0720141
0.0713011
0.0703443
0.0691436
0.0677002
0.0660158
0.0640932
0.0619354
0.0595466
0.0569308
0.0540908
0.0510294
0.0477741
0.0443483
0.0404334
0.0357616
0.0295767
0.0245034
0.0203094
0.0166984
0.0133136
0.0101734
0.00729984
0.00468824
0.00233329
0.000231502
-0.00162069
-0.00322715
-0.00459189
-0.00571906
-0.00661299
-0.00727818
-0.0077193
-0.00794123
-0.00794905
-0.00774808
-0.00734382
-0.00674205
-0.00594878
-0.00497028
-0.0038131
-0.00248408
-0.000990366
0.000660566
0.0024609
0.00440245
0.00647666
0.00867461
0.010987
0.013404
0.0159154
0.0185108
0.021179
0.0239087
0.0266879
0.0295045
0.0323458
0.0351988
0.0380502
0.0408863
0.0436934
0.0464574
0.049164
0.0517989
0.0543479
0.0567967
0.0591312
0.0613373
0.0634016
0.0653107
0.0670519
0.0686131
0.0699825
0.0711495
0.072104
0.0728369
0.0733401
0.0736063
0.0736294
0.0734046
0.0729278
0.0721962
0.0712082
0.069963
0.068461
0.0667034
0.0646923
0.0624306
0.0599218
0.05717
0.0541776
0.0509479
0.0475096
0.043888
0.0397462
0.0348017
0.0297385
0.0244049
0.0199977
0.0162059
0.0126547
0.00936311
0.00635442
0.00362327
0.00116369
-0.00102847
-0.00295754
-0.00462816
-0.00604517
-0.00721356
-0.00813844
-0.00882513
-0.00927906
-0.00950584
-0.00951123
-0.00930117
-0.00888177
-0.00825933
-0.00744033
-0.0064315
-0.00523974
-0.00387223
-0.00233641
-0.000639996
0.00120899
0.0032022
0.00533095
0.00758617
0.00995844
0.0124379
0.0150144
0.0176772
0.0204153
0.0232171
0.0260707
0.0289639
0.0318838
0.0348173
0.037751
0.0406711
0.0435634
0.0464138
0.0492076
0.0519302
0.0545669
0.0571031
0.059524
0.0618152
0.0639625
0.065952
0.0677703
0.0694043
0.0708419
0.0720713
0.0730817
0.0738632
0.0744066
0.0747039
0.0747481
0.0745334
0.0740549
0.0733091
0.0722934
0.0710063
0.0694477
0.0676181
0.0655192
0.0631534
0.0605241
0.0576351
0.0544891
0.0510892
0.0474661
0.0436466
0.0392755
0.0340554
0.0296085
0.0240146
0.0193945
0.0154222
0.0117047
0.00826215
0.00511874
0.00226859
-0.000294887
-0.00257649
-0.00458124
-0.00631455
-0.00778203
-0.00898944
-0.00994272
-0.0106479
-0.0111112
-0.0113389
-0.0113375
-0.0111135
-0.0106736
-0.0100247
-0.00917365
-0.00812766
-0.00689404
-0.0054803
-0.00389416
-0.00214359
-0.000236849
0.00181754
0.00401074
0.00633355
0.00877642
0.0113294
0.0139823
0.0167242
0.0195441
0.0224304
0.0253709
0.0283534
0.0313649
0.0343922
0.0374215
0.040439
0.0434302
0.0463806
0.0492752
0.0520992
0.0548372
0.0574742
0.059995
0.0623844
0.0646278
0.0667103
0.068618
0.070337
0.0718541
0.0731569
0.0742337
0.0750735
0.0756663
0.0760031
0.0760761
0.0758784
0.0754044
0.0746495
0.0736105
0.0722852
0.0706727
0.0687731
0.0665875
0.0641182
0.0613681
0.0583414
0.0550404
0.0514685
0.0476584
0.0436383
0.0390348
0.033535
0.0291713
0.0233165
0.0184831
0.0143302
0.0104466
0.00685336
0.00357576
0.000607401
-0.00205893
-0.00442864
-0.00650742
-0.00830142
-0.00981699
-0.0110607
-0.0120392
-0.0127593
-0.0132279
-0.0134521
-0.0134389
-0.0131956
-0.0127294
-0.0120476
-0.0111577
-0.0100674
-0.00878422
-0.00731613
-0.00567113
-0.00385748
-0.00188362
0.000241695
0.00250946
0.00491034
0.00743467
0.0100724
0.0128131
0.0156461
0.0185599
0.0215429
0.0245831
0.0276678
0.030784
0.0339183
0.0370568
0.0401853
0.0432892
0.0463535
0.049363
0.0523023
0.0551557
0.0579075
0.060542
0.0630435
0.0653964
0.0675854
0.0695955
0.0714121
0.0730211
0.0744092
0.0755636
0.0764724
0.0771247
0.0775105
0.0776209
0.0774481
0.0769855
0.0762278
0.0751708
0.0738117
0.072149
0.070182
0.0679117
0.0653398
0.0624693
0.0593042
0.055847
0.0521013
0.0481015
0.0438779
0.0390379
0.0332531
0.0284113
0.0222942
0.0172465
0.0129127
0.00886298
0.00511935
0.00170816
-0.00137744
-0.00414529
-0.00660141
-0.00875214
-0.0106043
-0.0121651
-0.0134418
-0.0144417
-0.0151726
-0.0156419
-0.0158575
-0.0158271
-0.0155585
-0.0150595
-0.0143381
-0.0134021
-0.0122598
-0.010919
-0.00938808
-0.00767536
-0.00578936
-0.00373877
-0.00153254
0.000820131
0.00330977
0.00592656
0.00866036
0.0115006
0.0144364
0.0174564
0.0205488
0.0237013
0.0269013
0.0301355
0.0333904
0.0366518
0.0399053
0.0431359
0.0463283
0.049467
0.052536
0.0555192
0.0584003
0.061163
0.0637908
0.0662675
0.068577
0.0707033
0.072631
0.0743451
0.0758311
0.0770754
0.078065
0.0787879
0.079233
0.0793905
0.0792514
0.0788084
0.078055
0.0769863
0.0755988
0.0738902
0.0718593
0.0695067
0.0668338
0.0638435
0.0605398
0.0569252
0.0530035
0.0488112
0.0443805
0.0392991
0.0332229
0.0273124
0.0209309
0.0156677
0.0111522
0.00693611
0.00304231
-0.000501765
-0.00370348
-0.00657128
-0.00911177
-0.011332
-0.0132394
-0.014842
-0.0161478
-0.0171649
-0.0179017
-0.0183665
-0.0185679
-0.0185141
-0.0182137
-0.0176751
-0.0169067
-0.015917
-0.0147144
-0.0133076
-0.011705
-0.0099153
-0.00794736
-0.00581013
-0.00351274
-0.00106458
0.0015247
0.00424516
0.00708653
0.0100381
0.013089
0.0162275
0.0194419
0.0227197
0.0260482
0.0294139
0.032803
0.0362012
0.0395938
0.0429654
0.0463006
0.0495831
0.0527966
0.0559245
0.0589499
0.0618558
0.064625
0.0672404
0.0696851
0.0719422
0.0739954
0.0758286
0.0774263
0.0787736
0.0798567
0.0806623
0.0811782
0.0813935
0.0812982
0.0808837
0.0801429
0.0790698
0.0776601
0.0759108
0.0738202
0.0713884
0.0686166
0.0655074
0.0620649
0.0582918
0.054192
0.0498041
0.0451621
0.0398338
0.0334585
0.0258579
0.0192092
0.0137288
0.0090307
0.0046478
0.000603985
-0.00307227
-0.00638882
-0.00935474
-0.0119772
-0.014264
-0.0162233
-0.0178638
-0.0191943
-0.0202237
-0.0209611
-0.0214156
-0.0215965
-0.0215127
-0.0211734
-0.0205877
-0.0197644
-0.0187127
-0.0174414
-0.0159595
-0.014276
-0.0123997
-0.01034
-0.00810587
-0.00570679
-0.00315232
-0.000452267
0.00238327
0.0053439
0.00841883
0.0115969
0.0148666
0.0182158
0.0216321
0.0251023
0.0286131
0.0321504
0.0356996
0.0392457
0.0427731
0.0462657
0.0497072
0.0530805
0.0563686
0.0595538
0.0626184
0.0655445
0.0683143
0.0709098
0.0733132
0.0755071
0.0774743
0.0791983
0.0806631
0.0818534
0.0827549
0.0833542
0.0836391
0.0835987
0.083223
0.082504
0.0814348
0.0800101
0.0782261
0.0760808
0.0735736
0.0707053
0.0674787
0.0638976
0.0599648
0.0556847
0.0510977
0.0462398
0.0406581
0.0339751
0.0240307
0.0171113
0.0114114
0.00652946
0.00197919
-0.00221453
-0.00602219
-0.00945214
-0.0125141
-0.015216
-0.017566
-0.0195733
-0.0212473
-0.0225975
-0.0236337
-0.0243658
-0.0248037
-0.0249572
-0.0248361
-0.0244503
-0.0238093
-0.0229228
-0.0218003
-0.0204512
-0.0188848
-0.0171106
-0.0151379
-0.012976
-0.0106344
-0.00812282
-0.00545095
-0.00262877
0.00033348
0.00342525
0.00663567
0.00995348
0.013367
0.016864
0.0204319
0.0240576
0.0277274
0.0314269
0.0351415
0.0388558
0.0425539
0.0462193
0.0498351
0.0533839
0.056848
0.060209
0.0634487
0.0665481
0.0694886
0.0722512
0.0748172
0.077168
0.0792853
0.0811514
0.0827489
0.0840614
0.0850732
0.0857697
0.0861373
0.0861639
0.0858384
0.0851516
0.0840955
0.082664
0.0808525
0.0786582
0.0760799
0.0731184
0.069776
0.0660568
0.0619634
0.0575005
0.0527106
0.0476317
0.0417895
0.034789
0.0218126
0.0146185
0.00869645
0.00362913
-0.00108926
-0.00543286
-0.00937109
-0.0129129
-0.0160686
-0.0188468
-0.0212564
-0.0233074
-0.0250099
-0.0263743
-0.0274113
-0.0281315
-0.0285456
-0.0286642
-0.0284979
-0.0280572
-0.0273524
-0.0263937
-0.025191
-0.0237545
-0.0220938
-0.0202187
-0.018139
-0.0158643
-0.0134044
-0.0107692
-0.0079685
-0.00501257
-0.00191177
0.00132326
0.00468151
0.00815163
0.0117218
0.0153798
0.0191128
0.0229077
0.0267504
0.0306266
0.0345212
0.0384186
0.0423026
0.0461564
0.0499624
0.0537029
0.0573594
0.060913
0.0643445
0.0676343
0.0707626
0.0737097
0.0764555
0.0789804
0.0812648
0.0832898
0.0850365
0.0864873
0.0876251
0.0884338
0.0888985
0.0890056
0.0887429
0.0880998
0.0870674
0.0856383
0.0838072
0.0815705
0.0789265
0.0758755
0.0724196
0.0685627
0.0643079
0.0596597
0.0546629
0.0493575
0.0432469
0.0359181
0.0191846
0.0117113
0.00556397
0.000309459
-0.00457794
-0.00907144
-0.0131394
-0.0167912
-0.0200381
-0.0228892
-0.0253544
-0.0274442
-0.0291697
-0.0305422
-0.0315732
-0.0322743
-0.0326568
-0.0327324
-0.0325123
-0.0320078
-0.0312298
-0.0301891
-0.0288965
-0.0273622
-0.0255968
-0.0236102
-0.0214126
-0.0190141
-0.0164246
-0.0136542
-0.0107131
-0.00761153
-0.00436007
-0.00096948
0.00254915
0.00618436
0.00992427
0.0137565
0.0176683
0.0216461
0.025676
0.0297434
0.0338329
0.0379287
0.0420142
0.0460722
0.0500849
0.0540336
0.0578995
0.0616629
0.0653038
0.0688017
0.0721359
0.0752854
0.0782293
0.0809465
0.0834163
0.085618
0.0875319
0.0891384
0.090419
0.0913562
0.0919336
0.0921361
0.0919501
0.0913637
0.0903665
0.0889503
0.0871087
0.0848372
0.0821335
0.0789973
0.0754306
0.0714373
0.0670201
0.0621841
0.0569761
0.0514383
0.0450508
0.0373817
0.0161271
0.00836915
0.00199302
-0.00345074
-0.00850823
-0.0131517
-0.0173484
-0.0211084
-0.0244436
-0.0273638
-0.0298799
-0.0320031
-0.0337455
-0.0351194
-0.036137
-0.0368109
-0.0371535
-0.0371771
-0.0368938
-0.0363157
-0.0354545
-0.0343216
-0.0329283
-0.0312857
-0.0294044
-0.0272952
-0.0249684
-0.0224345
-0.0197037
-0.0167864
-0.0136928
-0.0104334
-0.00701899
-0.00346031
0.000231435
0.0040447
0.00796754
0.0119875
0.0160918
0.0202667
0.0244981
0.0287714
0.0330709
0.0373806
0.0416835
0.0459621
0.0501979
0.054372
0.0584648
0.0624558
0.0663243
0.0700489
0.0736077
0.0769789
0.08014
0.0830688
0.0857432
0.0881411
0.090241
0.092022
0.0934638
0.0945474
0.0952546
0.0955688
0.0954748
0.0949592
0.0940104
0.0926187
0.0907767
0.088479
0.0857225
0.0825064
0.0788322
0.0747037
0.0701237
0.0650973
0.0596737
0.053897
0.0472233
0.0392012
0.0126189
0.00457046
-0.00203838
-0.00767375
-0.0129025
-0.017696
-0.0220204
-0.0258864
-0.0293067
-0.032292
-0.0348538
-0.0370045
-0.038757
-0.0401247
-0.0411207
-0.0417587
-0.042052
-0.0420139
-0.0416573
-0.0409951
-0.0400399
-0.0388037
-0.0372986
-0.035536
-0.0335274
-0.0312837
-0.0288159
-0.0261346
-0.0232504
-0.0201739
-0.0169155
-0.013486
-0.00989594
-0.00615642
-0.00227864
0.00172582
0.00584495
0.0100663
0.0143769
0.018763
0.0232106
0.0277047
0.0322295
0.0367688
0.0413053
0.045821
0.0502971
0.0547141
0.0590517
0.0632889
0.0674039
0.0713744
0.0751776
0.0787903
0.082189
0.0853499
0.0882494
0.0908639
0.0931703
0.095146
0.0967689
0.0980181
0.0988738
0.0993175
0.0993324
0.0989034
0.0980174
0.0966633
0.0948324
0.0925182
0.0897168
0.0864267
0.082649
0.0783872
0.073644
0.0684247
0.0627808
0.0567585
0.0497886
0.0413995
0.00863794
0.000292504
-0.00655347
-0.0123831
-0.0177845
-0.0227281
-0.027179
-0.0311486
-0.0346505
-0.0376961
-0.0402979
-0.0424694
-0.0442246
-0.0455777
-0.0465432
-0.0471357
-0.0473695
-0.047259
-0.046818
-0.0460604
-0.0449995
-0.0436482
-0.0420191
-0.0401245
-0.0379761
-0.0355857
-0.0329644
-0.0301232
-0.0270731
-0.0238248
-0.020389
-0.0167765
-0.012998
-0.00906472
-0.00498779
-0.000778865
0.00355005
0.00798649
0.0125174
0.0171292
0.0218076
0.0265375
0.0313031
0.0360879
0.0408744
0.0456441
0.050378
0.0550559
0.0596569
0.0641592
0.0685403
0.0727769
0.076845
0.0807203
0.0843778
0.0877924
0.0909388
0.0937919
0.0963267
0.0985186
0.100344
0.10178
0.102804
0.103397
0.103539
0.103214
0.102407
0.101105
0.0992983
0.0969787
0.0941414
0.0907842
0.0869076
0.082515
0.0776086
0.072194
0.0663249
0.0600499
0.0527733
0.0440022
0.00416096
-0.00448878
-0.0115768
-0.0176035
-0.0231791
-0.028273
-0.0328491
-0.0369196
-0.040499
-0.0435997
-0.0462352
-0.0484201
-0.0501695
-0.0514989
-0.0524239
-0.0529602
-0.0531234
-0.0529288
-0.0523915
-0.0515261
-0.0503469
-0.0488677
-0.0471018
-0.0450622
-0.0427611
-0.0402109
-0.037423
-0.034409
-0.0311799
-0.0277468
-0.0241206
-0.020312
-0.016332
-0.0121917
-0.00790235
-0.00347552
0.0010768
0.00574216
0.0105076
0.0153594
0.0202833
0.0252643
0.0302863
0.0353327
0.0403858
0.0454268
0.0504362
0.0553934
0.0602768
0.0650639
0.0697313
0.0742548
0.0786093
0.0827691
0.0867079
0.090399
0.0938155
0.0969305
0.099717
0.102149
0.1042
0.105845
0.10706
0.107823
0.108113
0.107912
0.107201
0.105967
0.104199
0.101886
0.0990231
0.0956068
0.0916369
0.0871164
0.0820473
0.076435
0.0703359
0.0638007
0.056206
0.0470369
-0.000836813
-0.00979889
-0.0171343
-0.0233614
-0.0291129
-0.034357
-0.0390568
-0.0432252
-0.0468776
-0.0500276
-0.0526897
-0.0548797
-0.0566141
-0.0579095
-0.0587829
-0.0592513
-0.0593316
-0.0590402
-0.0583934
-0.0574068
-0.0560958
-0.0544749
-0.0525584
-0.0503599
-0.0478924
-0.0451685
-0.0422004
-0.0389999
-0.0355784
-0.031947
-0.0281169
-0.0240989
-0.019904
-0.0155433
-0.0110281
-0.00636979
-0.00158036
0.00332784
0.00834189
0.0134482
0.0186326
0.0238798
0.029174
0.0344983
0.0398348
0.0451645
0.0504675
0.0557227
0.0609079
0.0660001
0.0709748
0.0758068
0.08047
0.0849372
0.0891809
0.0931726
0.0968838
0.100285
0.103349
0.106045
0.108346
0.110225
0.111656
0.112613
0.113073
0.113015
0.112421
0.111273
0.109559
0.107268
0.104391
0.100925
0.0968679
0.0922233
0.0869924
0.0811804
0.0748463
0.068043
0.0601182
0.050534
-0.00638159
-0.0156649
-0.0232537
-0.0296847
-0.0356138
-0.0410083
-0.04583
-0.0500928