/*--------------------------------*- C++ -*----------------------------------*\
  =========                 |
  \\      /  F ield         | OpenFOAM: The Open Source CFD Toolbox
   \\    /   O peration     | Website:  https://openfoam.org
    \\  /    A nd           | Version:  7
     \\/     M anipulation  |
\*---------------------------------------------------------------------------*/
FoamFile
{
    version     2.0;
    format      ascii;
    class       surfaceScalarField;
    location    "0.45";
    object      phi;
}
// * * * * * * * * * * * * * * * * * * * * * * * * * * * * * * * * * * * * * //

dimensions      [0 3 -1 0 0 0 0];

internalField   nonuniform List<scalar> 
12640
(
1.87994e-10
-1.9315e-10
5.55203e-10
-3.6721e-10
8.82916e-10
-3.27721e-10
1.04618e-09
-1.63249e-10
9.82935e-10
6.32741e-11
6.66102e-10
3.16843e-10
8.88094e-11
5.77275e-10
-7.43823e-10
8.32611e-10
-1.81958e-09
1.07575e-09
-3.12198e-09
1.30242e-09
-4.63204e-09
1.51007e-09
-6.32929e-09
1.69726e-09
-8.1925e-09
1.8632e-09
-1.02001e-08
2.00762e-09
-1.23306e-08
2.13051e-09
-1.45627e-08
2.23212e-09
-1.68756e-08
2.31286e-09
-1.92489e-08
2.37326e-09
-2.16628e-08
2.41394e-09
-2.40984e-08
2.43557e-09
-2.65372e-08
2.43888e-09
-2.89619e-08
2.42463e-09
-3.13555e-08
2.39361e-09
-3.37021e-08
2.34661e-09
-3.59866e-08
2.28446e-09
-3.81946e-08
2.20799e-09
-4.03126e-08
2.11802e-09
-4.2328e-08
2.01539e-09
-4.42289e-08
1.90094e-09
-4.60044e-08
1.77552e-09
-4.76444e-08
1.63998e-09
-4.91396e-08
1.49516e-09
-5.04815e-08
1.34194e-09
-5.16627e-08
1.18117e-09
-5.26764e-08
1.01375e-09
-5.3517e-08
8.40544e-10
-5.41795e-08
6.6247e-10
-5.46599e-08
4.80438e-10
-5.49553e-08
2.95379e-10
-5.50635e-08
1.08241e-10
-5.49835e-08
-8.00116e-11
-5.47151e-08
-2.68397e-10
-5.42592e-08
-4.55914e-10
-5.36177e-08
-6.41544e-10
-5.27934e-08
-8.2425e-10
-5.17905e-08
-1.00298e-09
-5.06138e-08
-1.17667e-09
-4.92695e-08
-1.34424e-09
-4.77649e-08
-1.50461e-09
-4.61083e-08
-1.65667e-09
-4.43089e-08
-1.79935e-09
-4.23774e-08
-1.93154e-09
-4.03252e-08
-2.05216e-09
-3.81651e-08
-2.16015e-09
-3.59106e-08
-2.25446e-09
-3.35765e-08
-2.33406e-09
-3.11786e-08
-2.39797e-09
-2.87333e-08
-2.44524e-09
-2.62584e-08
-2.47497e-09
-2.37721e-08
-2.48632e-09
-2.12936e-08
-2.47852e-09
-1.88427e-08
-2.45088e-09
-1.64399e-08
-2.4028e-09
-1.41061e-08
-2.33377e-09
-1.18627e-08
-2.24342e-09
-9.7312e-09
-2.1315e-09
-7.73324e-09
-1.99797e-09
-5.8903e-09
-1.84294e-09
-4.22344e-09
-1.66686e-09
-2.75296e-09
-1.47049e-09
-1.49788e-09
-1.25509e-09
-4.75255e-10
-1.02264e-09
3.0095e-10
-7.76209e-10
8.21518e-10
-5.20565e-10
1.08482e-09
-2.63301e-10
1.10161e-09
-1.67815e-11
9.02948e-10
1.98654e-10
5.54648e-10
3.48298e-10
1.83967e-10
3.70686e-10
1.83974e-10
3.64954e-10
-5.58101e-10
8.85979e-10
-8.88222e-10
1.2173e-09
-6.59071e-10
1.13566e-09
-8.16459e-11
5.03364e-10
6.95557e-10
-7.53421e-10
1.57365e-09
-2.66389e-09
2.48777e-09
-5.22699e-09
3.39571e-09
-8.42128e-09
4.27001e-09
-1.22117e-08
5.09281e-09
-1.65541e-08
5.8525e-09
-2.13986e-08
6.54175e-09
-2.66915e-08
7.15612e-09
-3.2377e-08
7.69318e-09
-3.83985e-08
8.152e-09
-4.46991e-08
8.53265e-09
-5.12222e-08
8.83601e-09
-5.79124e-08
9.06352e-09
-6.47156e-08
9.21709e-09
-7.1579e-08
9.29892e-09
-7.84516e-08
9.31149e-09
-8.52844e-08
9.25746e-09
-9.20304e-08
9.13964e-09
-9.86448e-08
8.96093e-09
-1.05085e-07
8.72434e-09
-1.1131e-07
8.43294e-09
-1.17281e-07
8.08985e-09
-1.22964e-07
7.69821e-09
-1.28325e-07
7.26122e-09
-1.33331e-07
6.78211e-09
-1.37955e-07
6.26412e-09
-1.42171e-07
5.71053e-09
-1.45953e-07
5.12466e-09
-1.49282e-07
4.50986e-09
-1.52138e-07
3.86953e-09
-1.54504e-07
3.20709e-09
-1.56368e-07
2.52603e-09
-1.57717e-07
1.8299e-09
-1.58544e-07
1.12229e-09
-1.58843e-07
4.06863e-10
-1.5861e-07
-3.1266e-10
-1.57846e-07
-1.03249e-09
-1.56553e-07
-1.74878e-09
-1.54737e-07
-2.4576e-09
-1.52407e-07
-3.155e-09
-1.49573e-07
-3.83693e-09
-1.4625e-07
-4.49932e-09
-1.42456e-07
-5.13807e-09
-1.38212e-07
-5.74903e-09
-1.3354e-07
-6.32806e-09
-1.28469e-07
-6.87101e-09
-1.23026e-07
-7.37376e-09
-1.17246e-07
-7.83224e-09
-1.11164e-07
-8.24242e-09
-1.04818e-07
-8.60038e-09
-9.82499e-08
-8.90233e-09
-9.15033e-08
-9.14459e-09
-8.46249e-08
-9.32369e-09
-7.76635e-08
-9.43635e-09
-7.06703e-08
-9.47954e-09
-6.36983e-08
-9.45054e-09
-5.68023e-08
-9.34693e-09
-5.00384e-08
-9.1667e-09
-4.34638e-08
-8.9083e-09
-3.71366e-08
-8.57069e-09
-3.11146e-08
-8.15347e-09
-2.54556e-08
-7.65699e-09
-2.0216e-08
-7.08255e-09
-1.54502e-08
-6.43264e-09
-1.12094e-08
-5.71131e-09
-7.53977e-09
-4.92472e-09
-4.48046e-09
-4.08196e-09
-2.06038e-09
-3.1963e-09
-2.93746e-10
-2.28721e-09
8.26429e-10
-1.38348e-09
1.33782e-09
-5.28173e-10
1.32249e-09
2.13979e-10
9.24787e-10
7.45989e-10
3.70698e-10
9.24754e-10
5.54675e-10
3.29932e-10
-8.88039e-10
6.66011e-10
-1.22426e-09
6.13325e-10
-6.06352e-10
-8.93464e-11
6.21011e-10
-1.61294e-09
2.21912e-09
-4.05673e-09
4.01743e-09
-7.46514e-09
5.8962e-09
-1.18422e-08
7.77276e-09
-1.71625e-08
9.59031e-09
-2.33796e-08
1.13099e-08
-3.04323e-08
1.29052e-08
-3.82489e-08
1.43584e-08
-4.67509e-08
1.56581e-08
-5.58553e-08
1.67977e-08
-6.54769e-08
1.77735e-08
-7.55288e-08
1.85846e-08
-8.59247e-08
1.92319e-08
-9.65788e-08
1.97176e-08
-1.07407e-07
2.00452e-08
-1.18327e-07
2.02188e-08
-1.29259e-07
2.02434e-08
-1.40126e-07
2.01243e-08
-1.50853e-07
1.98672e-08
-1.61371e-07
1.94783e-08
-1.7161e-07
1.89639e-08
-1.81508e-07
1.83304e-08
-1.91003e-07
1.75846e-08
-2.00037e-07
1.67332e-08
-2.08559e-07
1.5783e-08
-2.16518e-07
1.47411e-08
-2.23869e-07
1.36145e-08
-2.30568e-07
1.24104e-08
-2.3658e-07
1.11359e-08
-2.41868e-07
9.79851e-09
-2.46404e-07
8.40553e-09
-2.50162e-07
6.96449e-09
-2.53119e-07
5.48304e-09
-2.55258e-07
3.96891e-09
-2.56565e-07
2.43e-09
-2.57033e-07
8.74296e-10
-2.56656e-07
-6.90054e-10
-2.55433e-07
-2.25478e-09
-2.53371e-07
-3.81147e-09
-2.50477e-07
-5.3516e-09
-2.46765e-07
-6.86651e-09
-2.42255e-07
-8.34745e-09
-2.36968e-07
-9.78556e-09
-2.30934e-07
-1.11719e-08
-2.24186e-07
-1.24976e-08
-2.1676e-07
-1.37536e-08
-2.087e-07
-1.49311e-08
-2.00053e-07
-1.6021e-08
-1.90871e-07
-1.70147e-08
-1.81209e-07
-1.79036e-08
-1.7113e-07
-1.86793e-08
-1.60699e-07
-1.93337e-08
-1.49985e-07
-1.98589e-08
-1.39061e-07
-2.02478e-08
-1.28004e-07
-2.04934e-08
-1.16894e-07
-2.05894e-08
-1.05814e-07
-2.05302e-08
-9.485e-08
-2.03111e-08
-8.40886e-08
-1.99281e-08
-7.36186e-08
-1.93783e-08
-6.35291e-08
-1.86602e-08
-5.39089e-08
-1.77737e-08
-4.48455e-08
-1.67203e-08
-3.6424e-08
-1.5504e-08
-2.87253e-08
-1.41314e-08
-2.18241e-08
-1.26125e-08
-1.57865e-08
-1.09623e-08
-1.06668e-08
-9.20169e-09
-6.50255e-09
-7.36054e-09
-3.30906e-09
-5.48071e-09
-1.07123e-09
-3.62132e-09
2.66875e-10
-1.86628e-09
8.15482e-10
-3.34619e-10
7.54648e-10
8.06828e-10
3.51075e-10
1.32832e-09
9.05748e-10
1.71709e-10
-1.05977e-09
1.04546e-10
-1.15711e-09
-5.88177e-10
8.64069e-11
-2.17052e-09
2.20338e-09
-4.8197e-09
4.86828e-09
-8.64209e-09
7.83979e-09
-1.36871e-08
1.09412e-08
-1.99597e-08
1.40453e-08
-2.74305e-08
1.70611e-08
-3.60443e-08
1.99238e-08
-4.57269e-08
2.25877e-08
-5.63899e-08
2.50213e-08
-6.79351e-08
2.72034e-08
-8.02578e-08
2.91203e-08
-9.32487e-08
3.07645e-08
-1.06797e-07
3.21326e-08
-1.2079e-07
3.32248e-08
-1.35116e-07
3.40439e-08
-1.49665e-07
3.45946e-08
-1.6433e-07
3.48833e-08
-1.79004e-07
3.49177e-08
-1.93586e-07
3.47065e-08
-2.07978e-07
3.42591e-08
-2.22085e-07
3.35855e-08
-2.35818e-07
3.26963e-08
-2.4909e-07
3.16024e-08
-2.6182e-07
3.03151e-08
-2.73933e-07
2.88459e-08
-2.85356e-07
2.72066e-08
-2.96025e-07
2.54092e-08
-3.05876e-07
2.34657e-08
-3.14854e-07
2.13885e-08
-3.22908e-07
1.91901e-08
-3.29993e-07
1.68831e-08
-3.36067e-07
1.44803e-08
-3.41098e-07
1.19948e-08
-3.45054e-07
9.43978e-09
-3.47914e-07
6.82865e-09
-3.49659e-07
4.17506e-09
-3.50278e-07
1.49285e-09
-3.49764e-07
-1.20389e-09
-3.48118e-07
-3.90087e-09
-3.45346e-07
-6.58357e-09
-3.4146e-07
-9.23726e-09
-3.3648e-07
-1.1847e-08
-3.30429e-07
-1.43978e-08
-3.2334e-07
-1.68743e-08
-3.15251e-07
-1.92613e-08
-3.06205e-07
-2.15435e-08
-2.96254e-07
-2.37053e-08
-2.85453e-07
-2.57316e-08
-2.73867e-07
-2.76073e-08
-2.61564e-07
-2.93173e-08
-2.48621e-07
-3.08471e-08
-2.35118e-07
-3.21824e-08
-2.21142e-07
-3.33096e-08
-2.06785e-07
-3.42155e-08
-1.92145e-07
-3.48879e-08
-1.77323e-07
-3.53153e-08
-1.62425e-07
-3.54875e-08
-1.4756e-07
-3.53952e-08
-1.3284e-07
-3.50307e-08
-1.1838e-07
-3.43881e-08
-1.04296e-07
-3.34631e-08
-9.07019e-08
-3.2254e-08
-7.77141e-08
-3.07615e-08
-6.54448e-08
-2.89896e-08
-5.40025e-08
-2.69464e-08
-4.34894e-08
-2.46445e-08
-3.39992e-08
-2.21028e-08
-2.56133e-08
-1.93481e-08
-1.83976e-08
-1.64175e-08
-1.23965e-08
-1.33617e-08
-7.62715e-09
-1.025e-08
-4.07143e-09
-7.17706e-09
-1.66608e-09
-4.27163e-09
-2.91286e-10
-1.70941e-09
2.42158e-10
2.73391e-10
2.07936e-10
1.36254e-09
1.11368e-09
-4.74603e-11
-1.01231e-09
-6.54464e-10
-5.50143e-10
-2.15875e-09
1.59069e-09
-4.80078e-09
4.84544e-09
-8.74477e-09
8.81229e-09
-1.40901e-08
1.31851e-08
-2.08818e-08
1.77328e-08
-2.912e-08
2.22835e-08
-3.87691e-08
2.67103e-08
-4.97655e-08
3.09201e-08
-6.20232e-08
3.48455e-08
-7.54402e-08
3.84383e-08
-8.99018e-08
4.1665e-08
-1.05285e-07
4.45036e-08
-1.21461e-07
4.69407e-08
-1.38298e-07
4.89694e-08
-1.55662e-07
5.05884e-08
-1.73418e-07
5.18003e-08
-1.91435e-07
5.26111e-08
-2.09581e-07
5.30294e-08
-2.27729e-07
5.30658e-08
-2.45755e-07
5.27326e-08
-2.63539e-07
5.20435e-08
-2.80967e-07
5.1013e-08
-2.97927e-07
4.96566e-08
-3.14316e-07
4.79908e-08
-3.30033e-07
4.60321e-08
-3.44985e-07
4.37979e-08
-3.59084e-07
4.13059e-08
-3.72249e-07
3.8574e-08
-3.84404e-07
3.56208e-08
-3.9548e-07
3.24647e-08
-4.05415e-07
2.91247e-08
-4.14152e-07
2.56201e-08
-4.21642e-07
2.19703e-08
-4.27842e-07
1.81952e-08
-4.32717e-07
1.43148e-08
-4.36238e-07
1.03497e-08
-4.38383e-07
6.32047e-09
-4.39139e-07
2.24827e-09
-4.38497e-07
-1.8455e-09
-4.36459e-07
-5.93911e-09
-4.33032e-07
-1.00105e-08
-4.28232e-07
-1.40373e-08
-4.22082e-07
-1.7997e-08
-4.14613e-07
-2.18666e-08
-4.05864e-07
-2.56232e-08
-3.95882e-07
-2.92437e-08
-3.84721e-07
-3.27047e-08
-3.72443e-07
-3.59832e-08
-3.59118e-07
-3.90561e-08
-3.44825e-07
-4.19007e-08
-3.29648e-07
-4.44946e-08
-3.13679e-07
-4.68159e-08
-2.97018e-07
-4.88433e-08
-2.79771e-07
-5.05564e-08
-2.62051e-07
-5.19358e-08
-2.43976e-07
-5.29633e-08
-2.25669e-07
-5.36222e-08
-2.07259e-07
-5.38974e-08
-1.88878e-07
-5.37757e-08
-1.70663e-07
-5.32462e-08
-1.5275e-07
-5.23006e-08
-1.3528e-07
-5.09338e-08
-1.1839e-07
-4.91439e-08
-1.02218e-07
-4.69336e-08
-8.68971e-08
-4.43102e-08
-7.25563e-08
-4.12872e-08
-5.93154e-08
-3.78853e-08
-4.72838e-08
-3.41344e-08
-3.6556e-08
-3.00758e-08
-2.72082e-08
-2.57653e-08
-1.9292e-08
-2.12778e-08
-1.28295e-08
-1.67125e-08
-7.80529e-09
-1.22013e-08
-4.1585e-09
-7.91842e-09
-1.77387e-09
-4.09405e-09
-4.71879e-10
-1.0286e-09
2.17704e-12
8.88481e-10
1.11586e-09
-2.94295e-10
-7.17988e-10
-1.51853e-09
6.74073e-10
-3.94136e-09
4.01348e-09
-7.76189e-09
8.66597e-09
-1.31174e-08
1.41678e-08
-2.00893e-08
2.0157e-08
-2.87098e-08
2.63533e-08
-3.89689e-08
3.25426e-08
-5.08215e-08
3.85629e-08
-6.41936e-08
4.42923e-08
-7.89882e-08
4.96401e-08
-9.50903e-08
5.45403e-08
-1.12371e-07
5.89458e-08
-1.30692e-07
6.28242e-08
-1.49906e-07
6.61553e-08
-1.69864e-07
6.89277e-08
-1.90414e-07
7.11377e-08
-2.11401e-07
7.27874e-08
-2.32674e-07
7.38837e-08
-2.54081e-07
7.44372e-08
-2.75477e-07
7.44614e-08
-2.96717e-07
7.39727e-08
-3.17663e-07
7.29891e-08
-3.3818e-07
7.15305e-08
-3.58141e-07
6.96179e-08
-3.77424e-07
6.72735e-08
-3.95913e-07
6.45206e-08
-4.13498e-07
6.13828e-08
-4.30077e-07
5.78848e-08
-4.45554e-07
5.40516e-08
-4.59842e-07
4.99088e-08
-4.7286e-07
4.54824e-08
-4.84534e-07
4.07988e-08
-4.94799e-07
3.58851e-08
-5.03597e-07
3.07685e-08
-5.10879e-07
2.54768e-08
-5.16602e-07
2.00381e-08
-5.20734e-07
1.44812e-08
-5.23248e-07
8.83517e-09
-5.2413e-07
3.12949e-09
-5.23369e-07
-2.6058e-09
-5.20968e-07
-8.34026e-09
-5.16936e-07
-1.4043e-08
-5.1129e-07
-1.96828e-08
-5.04059e-07
-2.5228e-08
-4.95279e-07
-3.06467e-08
-4.84996e-07
-3.59068e-08
-4.73263e-07
-4.09761e-08
-4.60146e-07
-4.58221e-08
-4.45716e-07
-5.04128e-08
-4.30056e-07
-5.47161e-08
-4.13256e-07
-5.87005e-08
-3.95416e-07
-6.23348e-08
-3.76643e-07
-6.5589e-08
-3.57053e-07
-6.84335e-08
-3.36769e-07
-7.08404e-08
-3.15921e-07
-7.27831e-08
-2.94648e-07
-7.42367e-08
-2.73092e-07
-7.51784e-08
-2.51401e-07
-7.55879e-08
-2.29729e-07
-7.54476e-08
-2.08232e-07
-7.47433e-08
-1.87068e-07
-7.34645e-08
-1.66397e-07
-7.16049e-08
-1.46378e-07
-6.91636e-08
-1.27166e-07
-6.61454e-08
-1.08914e-07
-6.2562e-08
-9.17676e-08
-5.84337e-08
-7.58623e-08
-5.37906e-08
-6.13214e-08
-4.86753e-08
-4.8252e-08
-4.31452e-08
-3.67404e-08
-3.72769e-08
-2.68477e-08
-3.11705e-08
-1.8604e-08
-2.49562e-08
-1.20026e-08
-1.88028e-08
-6.99328e-09
-1.29277e-08
-3.47626e-09
-7.61108e-09
-1.29546e-09
-3.20939e-09
-2.32857e-10
-1.74127e-10
8.83007e-10
-5.50636e-10
-1.67336e-10
-2.43004e-09
2.55348e-09
-5.83134e-09
7.41476e-09
-1.09025e-08
1.37371e-08
-1.77443e-08
2.10097e-08
-2.64121e-08
2.88248e-08
-3.69186e-08
3.68597e-08
-4.92384e-08
4.48624e-08
-6.33132e-08
5.26377e-08
-7.90568e-08
6.00359e-08
-9.636e-08
6.69433e-08
-1.15095e-07
7.32753e-08
-1.35119e-07
7.89702e-08
-1.5628e-07
8.3985e-08
-1.78416e-07
8.82913e-08
-2.01361e-07
9.18727e-08
-2.24946e-07
9.47225e-08
-2.49e-07
9.68418e-08
-2.73354e-07
9.82379e-08
-2.97841e-07
9.89234e-08
-3.22294e-07
9.89151e-08
-3.46555e-07
9.82331e-08
-3.70466e-07
9.69005e-08
-3.93878e-07
9.49425e-08
-4.16647e-07
9.23864e-08
-4.38634e-07
8.9261e-08
-4.5971e-07
8.55963e-08
-4.79751e-07
8.14236e-08
-4.98641e-07
7.67749e-08
-5.16272e-07
7.16833e-08
-5.32546e-07
6.61824e-08
-5.4737e-07
6.03066e-08
-5.60662e-07
5.40909e-08
-5.72348e-07
4.75709e-08
-5.82362e-07
4.07827e-08
-5.90649e-07
3.37633e-08
-5.97161e-07
2.65499e-08
-6.0186e-07
1.91804e-08
-6.04718e-07
1.16935e-08
-6.05717e-07
4.12839e-09
-6.04848e-07
-3.47532e-09
-6.02111e-07
-1.10773e-08
-5.97517e-07
-1.86366e-08
-5.91088e-07
-2.6112e-08
-5.82854e-07
-3.34616e-08
-5.72858e-07
-4.06434e-08
-5.6115e-07
-4.76149e-08
-5.47792e-07
-5.43336e-08
-5.32857e-07
-6.0757e-08
-5.16427e-07
-6.68426e-08
-4.98595e-07
-7.25485e-08
-4.79462e-07
-7.78331e-08
-4.59141e-07
-8.26559e-08
-4.37753e-07
-8.69771e-08
-4.15428e-07
-9.07585e-08
-3.92305e-07
-9.39636e-08
-3.6853e-07
-9.65577e-08
-3.44259e-07
-9.85086e-08
-3.1965e-07
-9.97871e-08
-2.94871e-07
-1.00367e-07
-2.70092e-07
-1.00226e-07
-2.45488e-07
-9.9347e-08
-2.21237e-07
-9.77164e-08
-1.97514e-07
-9.53276e-08
-1.74497e-07
-9.21807e-08
-1.52359e-07
-8.82832e-08
-1.31269e-07
-8.36522e-08
-1.11387e-07
-7.83155e-08
-9.28639e-08
-7.23136e-08
-7.58363e-08
-6.57029e-08
-6.04235e-08
-5.8558e-08
-4.67236e-08
-5.09768e-08
-3.4809e-08
-4.30851e-08
-2.47218e-08
-3.50434e-08
-1.64692e-08
-2.70554e-08
-1.00185e-08
-1.93784e-08
-5.29335e-09
-1.23362e-08
-2.17052e-09
-6.33223e-09
-4.78764e-10
-1.86588e-09
4.04246e-10
-8.06593e-10
6.39249e-10
-3.35418e-09
5.10109e-09
-7.76145e-09
1.1822e-08
-1.4121e-08
2.00966e-08
-2.24919e-08
2.93805e-08
-3.28973e-08
3.92303e-08
-4.53254e-08
4.92878e-08
-5.9731e-08
5.9268e-08
-7.60393e-08
6.8946e-08
-9.41495e-08
7.8146e-08
-1.13938e-07
8.67323e-08
-1.35265e-07
9.46021e-08
-1.57974e-07
1.01679e-07
-1.81898e-07
1.07909e-07
-2.06862e-07
1.13255e-07
-2.32685e-07
1.17696e-07
-2.59184e-07
1.21221e-07
-2.86171e-07
1.23829e-07
-3.13463e-07
1.2553e-07
-3.40876e-07
1.26336e-07
-3.6823e-07
1.26269e-07
-3.95349e-07
1.25352e-07
-4.22061e-07
1.23613e-07
-4.48203e-07
1.21084e-07
-4.73615e-07
1.17798e-07
-4.98146e-07
1.13792e-07
-5.21652e-07
1.09102e-07
-5.43997e-07
1.03769e-07
-5.65054e-07
9.7832e-08
-5.84704e-07
9.13332e-08
-6.02837e-07
8.43153e-08
-6.19352e-07
7.68217e-08
-6.34158e-07
6.88967e-08
-6.47173e-07
6.05857e-08
-6.58325e-07
5.19346e-08
-6.67551e-07
4.299e-08
-6.74801e-07
3.37996e-08
-6.80032e-07
2.44116e-08
-6.83214e-07
1.4875e-08
-6.84325e-07
5.23958e-09
-6.83356e-07
-4.44413e-09
-6.80309e-07
-1.41249e-08
-6.75194e-07
-2.3751e-08
-6.68036e-07
-3.32698e-08
-6.5887e-07
-4.26283e-08
-6.4774e-07
-5.17732e-08
-6.34704e-07
-6.06508e-08
-6.19831e-07
-6.92071e-08
-6.03199e-07
-7.73885e-08
-5.849e-07
-8.51413e-08
-5.65036e-07
-9.24125e-08
-5.4372e-07
-9.91498e-08
-5.21074e-07
-1.05302e-07
-4.97232e-07
-1.10819e-07
-4.72337e-07
-1.15653e-07
-4.46542e-07
-1.19758e-07
-4.20008e-07
-1.23092e-07
-3.92904e-07
-1.25613e-07
-3.65406e-07
-1.27285e-07
-3.37697e-07
-1.28077e-07
-3.09963e-07
-1.2796e-07
-2.82395e-07
-1.26915e-07
-2.55186e-07
-1.24925e-07
-2.28531e-07
-1.21983e-07
-2.02621e-07
-1.18091e-07
-1.77646e-07
-1.13258e-07
-1.53789e-07
-1.07509e-07
-1.31225e-07
-1.00879e-07
-1.10119e-07
-9.34194e-08
-9.06215e-08
-8.52006e-08
-7.28643e-08
-7.63153e-08
-5.69589e-08
-6.68822e-08
-4.29918e-08
-5.70522e-08
-3.10206e-08
-4.70146e-08
-2.10705e-08
-3.70054e-08
-1.31317e-08
-2.73172e-08
-7.157e-09
-1.8311e-08
-3.06154e-09
-1.04277e-08
-7.25301e-10
-4.20212e-09
-3.21054e-10
-1.05705e-09
1.69628e-09
-4.27068e-09
8.31472e-09
-9.68983e-09
1.72412e-08
-1.73514e-08
2.77582e-08
-2.727e-08
3.92991e-08
-3.94335e-08
5.13938e-08
-5.38013e-08
6.36556e-08
-7.03051e-08
7.57718e-08
-8.88506e-08
8.74915e-08
-1.0932e-07
9.86153e-08
-1.31575e-07
1.08987e-07
-1.5546e-07
1.18487e-07
-1.80806e-07
1.27025e-07
-2.07432e-07
1.34535e-07
-2.35149e-07
1.40972e-07
-2.63763e-07
1.4631e-07
-2.93075e-07
1.50533e-07
-3.22887e-07
1.53641e-07
-3.52999e-07
1.55642e-07
-3.83213e-07
1.56551e-07
-4.13336e-07
1.56392e-07
-4.43178e-07
1.55194e-07
-4.72555e-07
1.52989e-07
-5.01287e-07
1.49816e-07
-5.29204e-07
1.45715e-07
-5.56142e-07
1.4073e-07
-5.81946e-07
1.34906e-07
-6.06467e-07
1.2829e-07
-6.29569e-07
1.20934e-07
-6.51122e-07
1.12886e-07
-6.71006e-07
1.042e-07
-6.89114e-07
9.49293e-08
-7.05345e-07
8.5128e-08
-7.19611e-07
7.48519e-08
-7.31834e-07
6.41576e-08
-7.41947e-07
5.31026e-08
-7.49893e-07
4.17454e-08
-7.55627e-07
3.01456e-08
-7.59115e-07
1.83634e-08
-7.60336e-07
6.46023e-09
-7.59278e-07
-5.5018e-09
-7.55944e-07
-1.74596e-08
-7.50345e-07
-2.93495e-08
-7.42508e-07
-4.11068e-08
-7.3247e-07
-5.26664e-08
-7.20281e-07
-6.39627e-08
-7.06002e-07
-7.49297e-08
-6.89707e-07
-8.55015e-08
-6.71484e-07
-9.56119e-08
-6.5143e-07
-1.05195e-07
-6.29655e-07
-1.14187e-07
-6.06282e-07
-1.22523e-07
-5.81444e-07
-1.3014e-07
-5.55285e-07
-1.36978e-07
-5.2796e-07
-1.42978e-07
-4.99634e-07
-1.48085e-07
-4.70481e-07
-1.52245e-07
-4.40683e-07
-1.5541e-07
-4.1043e-07
-1.57537e-07
-3.7992e-07
-1.58587e-07
-3.49353e-07
-1.58527e-07
-3.18936e-07
-1.57332e-07
-2.88876e-07
-1.54985e-07
-2.59382e-07
-1.51477e-07
-2.30661e-07
-1.46811e-07
-2.02917e-07
-1.41002e-07
-1.76348e-07
-1.34078e-07
-1.51143e-07
-1.26084e-07
-1.27481e-07
-1.17081e-07
-1.05527e-07
-1.07155e-07
-8.54256e-08
-9.64163e-08
-6.73048e-08
-8.5003e-08
-5.1267e-08
-7.309e-08
-3.73883e-08
-6.08933e-08
-2.57159e-08
-4.86779e-08
-1.62661e-08
-3.6767e-08
-9.02456e-09
-2.55525e-08
-3.94767e-09
-1.55046e-08
-9.67107e-10
-7.18269e-09
-1.28816e-09
-1.29961e-09
2.99588e-09
-5.16834e-09
1.21834e-08
-1.15916e-08
2.36644e-08
-2.05524e-08
3.6719e-08
-3.20203e-08
5.07671e-08
-4.5946e-08
6.53194e-08
-6.22578e-08
7.99675e-08
-8.08618e-08
9.43758e-08
-1.01641e-07
1.08271e-07
-1.2446e-07
1.21434e-07
-1.49162e-07
1.33689e-07
-1.75577e-07
1.44902e-07
-2.03521e-07
1.54969e-07
-2.32798e-07
1.63813e-07
-2.63208e-07
1.71382e-07
-2.94542e-07
1.77644e-07
-3.26589e-07
1.8258e-07
-3.59136e-07
1.86188e-07
-3.91972e-07
1.88477e-07
-4.24885e-07
1.89464e-07
-4.57669e-07
1.89176e-07
-4.90123e-07
1.87647e-07
-5.22048e-07
1.84915e-07
-5.53255e-07
1.81024e-07
-5.83562e-07
1.76022e-07
-6.12793e-07
1.69961e-07
-6.40782e-07
1.62895e-07
-6.67371e-07
1.5488e-07
-6.92414e-07
1.45976e-07
-7.15772e-07
1.36244e-07
-7.37318e-07
1.25746e-07
-7.56935e-07
1.14546e-07
-7.74517e-07
1.0271e-07
-7.89969e-07
9.0304e-08
-8.03208e-07
7.73962e-08
-8.14161e-07
6.40558e-08
-8.22769e-07
5.03529e-08
-8.28982e-07
3.63591e-08
-8.32766e-07
2.21469e-08
-8.34095e-07
7.78982e-09
-8.3296e-07
-6.63737e-09
-8.2936e-07
-2.1059e-08
-8.23311e-07
-3.53986e-08
-8.14839e-07
-4.95786e-08
-8.03985e-07
-6.35209e-08
-7.90801e-07
-7.71468e-08
-7.75353e-07
-9.03775e-08
-7.57721e-07
-1.03134e-07
-7.37996e-07
-1.15336e-07
-7.16285e-07
-1.26907e-07
-6.92704e-07
-1.37768e-07
-6.67383e-07
-1.47843e-07
-6.40466e-07
-1.57058e-07
-6.12105e-07
-1.65338e-07
-5.82467e-07
-1.72616e-07
-5.51727e-07
-1.78825e-07
-5.20071e-07
-1.83901e-07
-4.87693e-07
-1.87788e-07
-4.54796e-07
-1.90434e-07
-4.2159e-07
-1.91793e-07
-3.8829e-07
-1.91827e-07
-3.55114e-07
-1.90507e-07
-3.22286e-07
-1.87813e-07
-2.90027e-07
-1.83736e-07
-2.58559e-07
-1.7828e-07
-2.28099e-07
-1.71462e-07
-1.9886e-07
-1.63317e-07
-1.71045e-07
-1.53898e-07
-1.44848e-07
-1.43279e-07
-1.20446e-07
-1.31557e-07
-9.80042e-08
-1.18858e-07
-7.76641e-08
-1.05343e-07
-5.95473e-08
-9.12068e-08
-4.37509e-08
-7.66897e-08
-3.03466e-08
-6.20822e-08
-1.93798e-08
-4.77338e-08
-1.08706e-08
-3.40616e-08
-4.81734e-09
-2.15579e-08
-1.20162e-09
-1.07984e-08
-2.48978e-09
-1.53339e-09
4.52927e-09
-6.04166e-09
1.66917e-08
-1.3453e-08
3.10758e-08
-2.36996e-08
4.69656e-08
-3.67069e-08
6.37744e-08
-5.23876e-08
8.1e-08
-7.06378e-08
9.82176e-08
-9.13355e-08
1.15074e-07
-1.14341e-07
1.31276e-07
-1.39496e-07
1.46589e-07
-1.66627e-07
1.6082e-07
-1.95546e-07
1.73822e-07
-2.26055e-07
1.85477e-07
-2.57945e-07
1.95702e-07
-2.90998e-07
2.04436e-07
-3.24995e-07
2.11641e-07
-3.59711e-07
2.17296e-07
-3.94922e-07
2.21399e-07
-4.30402e-07
2.23957e-07
-4.6593e-07
2.24992e-07
-5.01287e-07
2.24533e-07
-5.36259e-07
2.22619e-07
-5.70639e-07
2.19295e-07
-6.04225e-07
2.1461e-07
-6.36825e-07
2.08622e-07
-6.68253e-07
2.01389e-07
-6.98333e-07
1.92975e-07
-7.269e-07
1.83447e-07
-7.53797e-07
1.72873e-07
-7.78879e-07
1.61326e-07
-8.0201e-07
1.48877e-07
-8.23067e-07
1.35603e-07
-8.41937e-07
1.21581e-07
-8.58521e-07
1.06888e-07
-8.7273e-07
9.16047e-08
-8.84486e-07
7.58127e-08
-8.93728e-07
5.95945e-08
-9.00403e-07
4.30342e-08
-9.04473e-07
2.62172e-08
-9.05914e-07
9.23007e-09
-9.04712e-07
-7.83925e-09
-9.00869e-07
-2.49017e-08
-8.944e-07
-4.18673e-08
-8.85334e-07
-5.86449e-08
-8.73712e-07
-7.51427e-08
-8.59591e-07
-9.12682e-08
-8.4304e-07
-1.06929e-07
-8.24142e-07
-1.22031e-07
-8.02996e-07
-1.36483e-07
-7.79711e-07
-1.50192e-07
-7.54412e-07
-1.63067e-07
-7.27238e-07
-1.75018e-07
-6.98337e-07
-1.85959e-07
-6.67872e-07
-1.95803e-07
-6.36019e-07
-2.0447e-07
-6.02963e-07
-2.11881e-07
-5.68899e-07
-2.17964e-07
-5.34035e-07
-2.22653e-07
-4.98583e-07
-2.25886e-07
-4.62766e-07
-2.2761e-07
-4.26811e-07
-2.27783e-07
-3.9095e-07
-2.26368e-07
-3.55418e-07
-2.23345e-07
-3.20451e-07
-2.18703e-07
-2.86284e-07
-2.12447e-07
-2.53148e-07
-2.04598e-07
-2.2127e-07
-1.95195e-07
-1.90868e-07
-1.843e-07
-1.62151e-07
-1.71996e-07
-1.35313e-07
-1.58395e-07
-1.10533e-07
-1.43638e-07
-8.79742e-08
-1.27902e-07
-6.77772e-08
-1.11404e-07
-5.00623e-08
-9.44045e-08
-3.49276e-08
-7.7217e-08
-2.24487e-08
-6.02127e-08
-1.26815e-08
-4.38289e-08
-5.6649e-09
-2.85745e-08
-1.42788e-09
-1.50354e-08
-3.91766e-09
-1.75839e-09
6.28766e-09
-6.88867e-09
2.1822e-08
-1.52678e-08
3.94549e-08
-2.67806e-08
5.84784e-08
-4.131e-08
7.83038e-08
-5.87309e-08
9.84209e-08
-7.89065e-08
1.18393e-07
-1.01686e-07
1.37853e-07
-1.26904e-07
1.56494e-07
-1.54381e-07
1.74065e-07
-1.83923e-07
1.90363e-07
-2.15325e-07
2.05224e-07
-2.48371e-07
2.18524e-07
-2.82838e-07
2.30169e-07
-3.18495e-07
2.40093e-07
-3.55109e-07
2.48254e-07
-3.92442e-07
2.54629e-07
-4.30257e-07
2.59214e-07
-4.68319e-07
2.62019e-07
-5.06393e-07
2.63066e-07
-5.44249e-07
2.6239e-07
-5.81665e-07
2.60035e-07
-6.18421e-07
2.56051e-07
-6.54307e-07
2.50496e-07
-6.89119e-07
2.43434e-07
-7.22665e-07
2.34935e-07
-7.54759e-07
2.25069e-07
-7.85228e-07
2.13916e-07
-8.13907e-07
2.01552e-07
-8.40644e-07
1.88062e-07
-8.65296e-07
1.7353e-07
-8.87735e-07
1.58042e-07
-9.07843e-07
1.41688e-07
-9.25513e-07
1.24558e-07
-9.40654e-07
1.06746e-07
-9.53185e-07
8.83437e-08
-9.63039e-07
6.94486e-08
-9.70162e-07
5.01576e-08
-9.74515e-07
3.05695e-08
-9.76069e-07
1.07847e-08
-9.74814e-07
-9.09517e-09
-9.70748e-07
-2.89671e-08
-9.63889e-07
-4.87268e-08
-9.54264e-07
-6.82691e-08
-9.4192e-07
-8.74876e-08
-9.26912e-07
-1.06276e-07
-9.09315e-07
-1.24526e-07
-8.89216e-07
-1.4213e-07
-8.66716e-07
-1.58983e-07
-8.41932e-07
-1.74976e-07
-8.14992e-07
-1.90006e-07
-7.86042e-07
-2.03968e-07
-7.55239e-07
-2.16762e-07
-7.22753e-07
-2.28289e-07
-6.88766e-07
-2.38456e-07
-6.53475e-07
-2.47173e-07
-6.17083e-07
-2.54356e-07
-5.79808e-07
-2.59928e-07
-5.41873e-07
-2.6382e-07
-5.03513e-07
-2.65971e-07
-4.64965e-07
-2.6633e-07
-4.26475e-07
-2.64859e-07
-3.8829e-07
-2.61531e-07
-3.50658e-07
-2.56335e-07
-3.13828e-07
-2.49277e-07
-2.78045e-07
-2.4038e-07
-2.43551e-07
-2.29689e-07
-2.1058e-07
-2.17272e-07
-1.79354e-07
-2.03222e-07
-1.50086e-07
-1.87663e-07
-1.22974e-07
-1.7075e-07
-9.81994e-08
-1.52677e-07
-7.59256e-08
-1.33678e-07
-5.62974e-08
-1.14033e-07
-3.94403e-08
-9.40741e-08
-2.54613e-08
-7.41917e-08
-1.44511e-08
-5.4839e-08
-6.48848e-09
-3.65371e-08
-1.64589e-09
-1.9878e-08
-5.56355e-09
-1.97508e-09
8.26275e-09
-7.70958e-09
2.75565e-08
-1.70345e-08
4.87798e-08
-2.97909e-08
7.12348e-08
-4.5821e-08
9.43339e-08
-6.49628e-08
1.17563e-07
-8.70466e-08
1.40477e-07
-1.11892e-07
1.62699e-07
-1.39308e-07
1.8391e-07
-1.6909e-07
2.03848e-07
-2.01025e-07
2.22298e-07
-2.34889e-07
2.39088e-07
-2.70449e-07
2.54084e-07
-3.07465e-07
2.67185e-07
-3.45693e-07
2.78322e-07
-3.84886e-07
2.87447e-07
-4.24793e-07
2.94537e-07
-4.65166e-07
2.99587e-07
-5.05756e-07
3.02609e-07
-5.46321e-07
3.0363e-07
-5.86618e-07
3.02688e-07
-6.26415e-07
2.99831e-07
-6.65483e-07
2.95119e-07
-7.03602e-07
2.88615e-07
-7.40562e-07
2.80394e-07
-7.7616e-07
2.70532e-07
-8.10203e-07
2.59113e-07
-8.42511e-07
2.46223e-07
-8.72912e-07
2.31953e-07
-9.01247e-07
2.16397e-07
-9.27369e-07
1.99652e-07
-9.51142e-07
1.81816e-07
-9.72444e-07
1.6299e-07
-9.91166e-07
1.43279e-07
-1.00721e-06
1.22789e-07
-1.02049e-06
1.01625e-07
-1.03094e-06
7.98988e-08
-1.0385e-06
5.77201e-08
-1.04314e-06
3.52022e-08
-1.04481e-06
1.24594e-08
-1.04351e-06
-1.03921e-08
-1.03925e-06
-3.32349e-08
-1.03202e-06
-5.595e-08
-1.02187e-06
-7.84172e-08
-1.00885e-06
-1.00515e-07
-9.92999e-07
-1.22123e-07
-9.74408e-07
-1.43117e-07
-9.53163e-07
-1.63375e-07
-9.2937e-07
-1.82776e-07
-9.03149e-07
-2.01197e-07
-8.74636e-07
-2.1852e-07
-8.43979e-07
-2.34625e-07
-8.11342e-07
-2.49399e-07
-7.76903e-07
-2.62728e-07
-7.40852e-07
-2.74507e-07
-7.03391e-07
-2.84633e-07
-6.64736e-07
-2.93011e-07
-6.25111e-07
-2.99553e-07
-5.84752e-07
-3.04179e-07
-5.43902e-07
-3.06821e-07
-5.0281e-07
-3.07421e-07
-4.61734e-07
-3.05935e-07
-4.20932e-07
-3.02333e-07
-3.80667e-07
-2.966e-07
-3.412e-07
-2.88744e-07
-3.02792e-07
-2.78789e-07
-2.65698e-07
-2.66783e-07
-2.30167e-07
-2.52802e-07
-1.96441e-07
-2.36948e-07
-1.6475e-07
-2.19354e-07
-1.3531e-07
-2.0019e-07
-1.08324e-07
-1.79663e-07
-8.39793e-08
-1.58022e-07
-6.24462e-08
-1.35566e-07
-4.38784e-08
-1.12642e-07
-2.84142e-08
-8.96559e-08
-1.61788e-08
-6.70744e-08
-7.28858e-09
-4.54274e-08
-1.85618e-09
-2.53104e-08
-7.41973e-09
-2.18421e-09
1.0447e-08
-8.50595e-09
3.38782e-08
-1.87548e-08
5.90287e-08
-3.27312e-08
8.52112e-08
-5.0239e-08
1.11842e-07
-7.10804e-08
1.38404e-07
-9.50528e-08
1.64449e-07
-1.21946e-07
1.89592e-07
-1.51543e-07
2.13506e-07
-1.83614e-07
2.3592e-07
-2.17925e-07
2.56609e-07
-2.54232e-07
2.75394e-07
-2.92285e-07
2.92136e-07
-3.31827e-07
3.06727e-07
-3.72599e-07
3.19094e-07
-4.14339e-07
3.29187e-07
-4.56786e-07
3.36983e-07
-4.99678e-07
3.42478e-07
-5.42756e-07
3.45687e-07
-5.85764e-07
3.46639e-07
-6.28454e-07
3.45378e-07
-6.70581e-07
3.41958e-07
-7.11909e-07
3.36446e-07
-7.52208e-07
3.28915e-07
-7.91261e-07
3.19446e-07
-8.28856e-07
3.08128e-07
-8.64795e-07
2.95052e-07
-8.9889e-07
2.80318e-07
-9.30964e-07
2.64027e-07
-9.60851e-07
2.46284e-07
-9.88399e-07
2.272e-07
-1.01347e-06
2.06884e-07
-1.03593e-06
1.85453e-07
-1.05567e-06
1.63022e-07
-1.07259e-06
1.3971e-07
-1.08661e-06
1.1564e-07
-1.09764e-06
9.09335e-08
-1.10564e-06
6.57165e-08
-1.11055e-06
4.01162e-08
-1.11236e-06
1.42616e-08
-1.11103e-06
-1.17163e-08
-1.10658e-06
-3.76851e-08
-1.09902e-06
-6.35106e-08
-1.08838e-06
-8.90575e-08
-1.07471e-06
-1.14189e-07
-1.05806e-06
-1.38768e-07
-1.03852e-06
-1.62656e-07
-1.01618e-06
-1.85716e-07
-9.91149e-07
-2.07809e-07
-9.63548e-07
-2.28799e-07
-9.33517e-07
-2.4855e-07
-9.01211e-07
-2.66931e-07
-8.668e-07
-2.8381e-07
-8.30467e-07
-2.99062e-07
-7.92408e-07
-3.12566e-07
-7.52834e-07
-3.24207e-07
-7.11969e-07
-3.33877e-07
-6.70044e-07
-3.41477e-07
-6.27306e-07
-3.46918e-07
-5.84007e-07
-3.5012e-07
-5.40409e-07
-3.5102e-07
-4.96778e-07
-3.49566e-07
-4.53388e-07
-3.45723e-07
-4.10512e-07
-3.39476e-07
-3.68426e-07
-3.30829e-07
-3.27405e-07
-3.19809e-07
-2.87721e-07
-3.06468e-07
-2.49638e-07
-2.90885e-07
-2.13416e-07
-2.7317e-07
-1.79304e-07
-2.53466e-07
-1.4754e-07
-2.31955e-07
-1.18347e-07
-2.08855e-07
-9.19383e-08
-1.84431e-07
-6.85097e-08
-1.58994e-07
-4.82438e-08
-1.32908e-07
-3.131e-08
-1.0659e-07
-1.78672e-08
-8.05171e-08
-8.0672e-09
-5.52274e-08
-2.05962e-09
-3.1318e-08
-9.47935e-09
-2.38665e-09
1.28336e-08
-9.28009e-09
4.07717e-08
-2.04323e-08
7.01809e-08
-3.5606e-08
1.00385e-07
-5.45685e-08
1.30804e-07
-7.70876e-08
1.60923e-07
-1.02928e-07
1.9029e-07
-1.31851e-07
2.18515e-07
-1.63611e-07
2.45266e-07
-1.97956e-07
2.70264e-07
-2.34627e-07
2.9328e-07
-2.7336e-07
3.14128e-07
-3.13886e-07
3.32662e-07
-3.55934e-07
3.48775e-07
-3.99227e-07
3.62387e-07
-4.4349e-07
3.73451e-07
-4.88449e-07
3.81942e-07
-5.33828e-07
3.87858e-07
-5.79359e-07
3.91218e-07
-6.24776e-07
3.92055e-07
-6.69818e-07
3.9042e-07
-7.14234e-07
3.86374e-07
-7.57778e-07
3.7999e-07
-8.00213e-07
3.7135e-07
-8.41313e-07
3.60547e-07
-8.80862e-07
3.47676e-07
-9.18653e-07
3.32843e-07
-9.54492e-07
3.16157e-07
-9.88197e-07
2.97732e-07
-1.0196e-06
2.77685e-07
-1.04854e-06
2.56138e-07
-1.07487e-06
2.33217e-07
-1.09846e-06
2.09048e-07
-1.1192e-06
1.83762e-07
-1.13699e-06
1.57492e-07
-1.15172e-06
1.30374e-07
-1.16333e-06
1.02545e-07
-1.17176e-06
7.41445e-08
-1.17696e-06
4.53149e-08
-1.1789e-06
1.62004e-08
-1.17756e-06
-1.30531e-08
-1.17295e-06
-4.22977e-08
-1.16508e-06
-7.13836e-08
-1.15397e-06
-1.0016e-07
-1.13969e-06
-1.28474e-07
-1.12228e-06
-1.56172e-07
-1.10184e-06
-1.83101e-07
-1.07845e-06
-2.09106e-07
-1.05222e-06