/*--------------------------------*- C++ -*----------------------------------*\
  =========                 |
  \\      /  F ield         | OpenFOAM: The Open Source CFD Toolbox
   \\    /   O peration     | Website:  https://openfoam.org
    \\  /    A nd           | Version:  7
     \\/     M anipulation  |
\*---------------------------------------------------------------------------*/
FoamFile
{
    version     2.0;
    format      ascii;
    class       volVectorField;
    location    "0.45";
    object      U;
}
// * * * * * * * * * * * * * * * * * * * * * * * * * * * * * * * * * * * * * //

dimensions      [0 1 -1 0 0 0 0];

internalField   nonuniform List<vector> 
6400
(
(7.1421e-06 -7.35736e-06 0)
(2.9644e-05 -1.45052e-05 0)
(5.92224e-05 -1.41996e-05 0)
(8.05743e-05 -9.74408e-06 0)
(8.54369e-05 -3.43123e-06 0)
(7.05786e-05 3.54146e-06 0)
(3.48779e-05 1.05616e-05 0)
(-2.16325e-05 1.73116e-05 0)
(-9.81966e-05 2.36293e-05 0)
(-0.000193624 2.94329e-05 0)
(-0.00030647 3.46841e-05 0)
(-0.000435137 3.93681e-05 0)
(-0.000577946 4.34839e-05 0)
(-0.000733177 4.70383e-05 0)
(-0.000899101 5.0043e-05 0)
(-0.001074 5.25131e-05 0)
(-0.00125619 5.44657e-05 0)
(-0.00144401 5.59195e-05 0)
(-0.00163587 5.6894e-05 0)
(-0.00183021 5.74092e-05 0)
(-0.00202553 5.74857e-05 0)
(-0.0022204 5.71438e-05 0)
(-0.00241344 5.64042e-05 0)
(-0.00260335 5.52875e-05 0)
(-0.00278888 5.38143e-05 0)
(-0.00296885 5.20047e-05 0)
(-0.00314214 4.98792e-05 0)
(-0.00330771 4.74578e-05 0)
(-0.00346459 4.47605e-05 0)
(-0.00361185 4.18073e-05 0)
(-0.00374866 3.86181e-05 0)
(-0.00387424 3.52128e-05 0)
(-0.00398787 3.16114e-05 0)
(-0.00408894 2.78338e-05 0)
(-0.00417685 2.39005e-05 0)
(-0.00425113 1.98317e-05 0)
(-0.00431133 1.56482e-05 0)
(-0.00435712 1.13712e-05 0)
(-0.0043882 7.02209e-06 0)
(-0.00440437 2.62264e-06 0)
(-0.00440551 -1.80483e-06 0)
(-0.00439157 -6.23757e-06 0)
(-0.00436257 -1.06524e-05 0)
(-0.00431863 -1.50254e-05 0)
(-0.00425993 -1.93327e-05 0)
(-0.00418675 -2.35494e-05 0)
(-0.00409946 -2.76505e-05 0)
(-0.00399849 -3.16106e-05 0)
(-0.00388438 -3.5404e-05 0)
(-0.00375776 -3.90047e-05 0)
(-0.00361933 -4.23865e-05 0)
(-0.00346988 -4.55233e-05 0)
(-0.0033103 -4.83891e-05 0)
(-0.00314155 -5.09579e-05 0)
(-0.0029647 -5.32041e-05 0)
(-0.00278086 -5.51027e-05 0)
(-0.00259127 -5.6629e-05 0)
(-0.00239722 -5.77595e-05 0)
(-0.00220006 -5.84713e-05 0)
(-0.00200125 -5.87427e-05 0)
(-0.00180229 -5.85532e-05 0)
(-0.00160473 -5.78839e-05 0)
(-0.00141019 -5.67174e-05 0)
(-0.00122033 -5.50382e-05 0)
(-0.00103684 -5.28328e-05 0)
(-0.000861437 -5.00901e-05 0)
(-0.000695857 -4.68019e-05 0)
(-0.000541828 -4.29634e-05 0)
(-0.000401059 -3.85745e-05 0)
(-0.000275213 -3.3641e-05 0)
(-0.000165875 -2.8178e-05 0)
(-7.45055e-05 -2.22149e-05 0)
(-2.37255e-06 -1.58056e-05 0)
(4.9555e-05 -9.04776e-06 0)
(8.07828e-05 -2.12093e-06 0)
(9.15756e-05 4.64076e-06 0)
(8.33791e-05 1.06123e-05 0)
(5.97596e-05 1.45977e-05 0)
(2.92288e-05 1.43526e-05 0)
(6.87115e-06 6.86919e-06 0)
(1.43921e-05 -2.99672e-05 0)
(5.14358e-05 -5.16002e-05 0)
(8.97309e-05 -4.41255e-05 0)
(0.000103486 -1.91239e-05 0)
(7.69827e-05 1.52986e-05 0)
(2.37095e-06 5.41166e-05 0)
(-0.000124049 9.42535e-05 0)
(-0.000303194 0.000133823 0)
(-0.00053402 0.000171666 0)
(-0.00081416 0.000207065 0)
(-0.00114037 0.000239584 0)
(-0.00150885 0.000268959 0)
(-0.0019154 0.000295047 0)
(-0.00235563 0.000317783 0)
(-0.00282502 0.000337155 0)
(-0.003319 0.000353192 0)
(-0.00383304 0.00036595 0)
(-0.00436265 0.000375506 0)
(-0.00490344 0.000381953 0)
(-0.00545111 0.000385392 0)
(-0.00600153 0.000385937 0)
(-0.0065507 0.000383705 0)
(-0.00709475 0.000378818 0)
(-0.00763003 0.000371402 0)
(-0.00815302 0.000361585 0)
(-0.00866039 0.000349497 0)
(-0.00914899 0.00033527 0)
(-0.00961586 0.000319034 0)
(-0.0100582 0.000300924 0)
(-0.0104735 0.000281074 0)
(-0.0108593 0.000259617 0)
(-0.0112133 0.000236689 0)
(-0.0115337 0.000212428 0)
(-0.0118186 0.000186971 0)
(-0.0120663 0.000160457 0)
(-0.0122755 0.000133029 0)
(-0.0124449 0.000104829 0)
(-0.0125736 7.60018e-05 0)
(-0.0126608 4.66968e-05 0)
(-0.0127059 1.7064e-05 0)
(-0.0127086 -1.27435e-05 0)
(-0.0126687 -4.25695e-05 0)
(-0.0125864 -7.22553e-05 0)
(-0.0124619 -0.000101639 0)
(-0.0122958 -0.000130557 0)
(-0.0120889 -0.000158841 0)
(-0.0118424 -0.000186324 0)
(-0.0115573 -0.000212834 0)
(-0.0112354 -0.0002382 0)
(-0.0108782 -0.000262248 0)
(-0.010488 -0.000284807 0)
(-0.0100668 -0.000305703 0)
(-0.00961722 -0.000324765 0)
(-0.009142 -0.000341826 0)
(-0.00864408 -0.00035672 0)
(-0.00812668 -0.000369286 0)
(-0.00759319 -0.000379368 0)
(-0.00704725 -0.00038682 0)
(-0.00649268 -0.000391499 0)
(-0.00593347 -0.000393275 0)
(-0.0053738 -0.000392029 0)
(-0.00481799 -0.000387652 0)
(-0.00427049 -0.000380053 0)
(-0.00373583 -0.000369157 0)
(-0.00321862 -0.000354909 0)
(-0.00272353 -0.000337276 0)
(-0.00225518 -0.000316256 0)
(-0.00181816 -0.000291882 0)
(-0.00141692 -0.000264231 0)
(-0.00105572 -0.000233442 0)
(-0.000738486 -0.000199735 0)
(-0.000468682 -0.000163453 0)
(-0.000249104 -0.00012511 0)
(-8.15785e-05 -8.54992e-05 0)
(3.3466e-05 -4.58488e-05 0)
(9.7619e-05 -8.09607e-06 0)
(0.000115265 2.46729e-05 0)
(9.4873e-05 4.75078e-05 0)
(5.26178e-05 5.25697e-05 0)
(1.43496e-05 2.92047e-05 0)
(1.42642e-05 -5.94903e-05 0)
(4.45089e-05 -8.9972e-05 0)
(6.12126e-05 -6.05168e-05 0)
(3.55555e-05 6.69112e-06 0)
(-5.08383e-05 9.62327e-05 0)
(-0.000208188 0.000197451 0)
(-0.000441827 0.000303114 0)
(-0.000753464 0.000408384 0)
(-0.00114207 0.000510042 0)
(-0.00160462 0.000605941 0)
(-0.00213672 0.000694668 0)
(-0.00273296 0.000775306 0)
(-0.0033873 0.000847286 0)
(-0.00409321 0.000910286 0)
(-0.00484395 0.000964161 0)
(-0.0056326 0.0010089 0)
(-0.00645221 0.00104457 0)
(-0.00729589 0.00107135 0)
(-0.00815682 0.00108943 0)
(-0.00902835 0.00109906 0)
(-0.00990398 0.00110053 0)
(-0.0107774 0.00109414 0)
(-0.0116426 0.00108023 0)
(-0.0124938 0.00105912 0)
(-0.0133254 0.00103118 0)
(-0.0141321 0.000996749 0)
(-0.014909 0.000956209 0)
(-0.0156513 0.000909927 0)
(-0.0163545 0.000858278 0)
(-0.0170147 0.000801644 0)
(-0.017628 0.00074041 0)
(-0.0181908 0.000674962 0)
(-0.0186999 0.000605695 0)
(-0.0191526 0.000533005 0)
(-0.0195461 0.000457294 0)
(-0.0198783 0.000378969 0)
(-0.0201473 0.000298443 0)
(-0.0203514 0.000216138 0)
(-0.0204895 0.000132478 0)
(-0.0205607 4.78981e-05 0)
(-0.0205643 -3.71609e-05 0)
(-0.0205003 -0.00012225 0)
(-0.0203687 -0.000206914 0)
(-0.0201702 -0.000290688 0)
(-0.0199057 -0.000373103 0)
(-0.0195764 -0.000453682 0)
(-0.019184 -0.000531944 0)
(-0.0187306 -0.000607402 0)
(-0.0182186 -0.000679569 0)
(-0.0176509 -0.000747955 0)
(-0.0170305 -0.00081207 0)
(-0.0163613 -0.00087143 0)
(-0.015647 -0.000925555 0)
(-0.0148921 -0.000973971 0)
(-0.0141012 -0.00101622 0)
(-0.0132795 -0.00105185 0)
(-0.0124322 -0.00108044 0)
(-0.0115652 -0.00110157 0)
(-0.0106844 -0.00111487 0)
(-0.00979614 -0.00111998 0)
(-0.0089069 -0.00111659 0)
(-0.00802344 -0.00110442 0)
(-0.00715268 -0.00108324 0)
(-0.00630167 -0.00105288 0)
(-0.00547753 -0.00101323 0)
(-0.0046874 -0.000964257 0)
(-0.00393836 -0.000906022 0)
(-0.00323733 -0.0008387 0)
(-0.00259099 -0.000762613 0)
(-0.00200561 -0.000678273 0)
(-0.00148688 -0.000586446 0)
(-0.00103968 -0.000488244 0)
(-0.0006678 -0.000385277 0)
(-0.00037348 -0.000279863 0)
(-0.000156897 -0.000175368 0)
(-1.54244e-05 -7.6709e-05 0)
(5.71844e-05 8.91347e-06 0)
(7.19566e-05 7.10712e-05 0)
(4.79826e-05 9.49355e-05 0)
(1.4679e-05 5.97972e-05 0)
(1.00443e-05 -8.12254e-05 0)
(2.0377e-05 -0.000104438 0)
(-4.32187e-06 -3.52044e-05 0)
(-9.08283e-05 9.36367e-05 0)
(-0.000257294 0.000259316 0)
(-0.000514667 0.000445285 0)
(-0.000868859 0.000639676 0)
(-0.00132182 0.000834131 0)
(-0.00187241 0.0010228 0)
(-0.00251708 0.0012016 0)
(-0.00325055 0.00136772 0)
(-0.00406623 0.00151924 0)
(-0.00495657 0.00165493 0)
(-0.0059134 0.001774 0)
(-0.00692813 0.00187605 0)
(-0.0079919 0.00196092 0)
(-0.00909576 0.00202867 0)
(-0.0102307 0.00207952 0)
(-0.0113879 0.00211378 0)
(-0.0125586 0.0021319 0)
(-0.0137342 0.00213436 0)
(-0.0149064 0.00212171 0)
(-0.0160673 0.00209456 0)
(-0.0172091 0.00205352 0)
(-0.0183244 0.00199927 0)
(-0.0194063 0.00193247 0)
(-0.0204479 0.00185382 0)
(-0.0214431 0.00176405 0)
(-0.022386 0.00166386 0)
(-0.0232709 0.001554 0)
(-0.0240928 0.00143521 0)
(-0.0248471 0.00130824 0)
(-0.0255293 0.00117385 0)
(-0.0261357 0.00103282 0)
(-0.0266628 0.000885928 0)
(-0.0271077 0.000733973 0)
(-0.0274677 0.00057776 0)
(-0.0277407 0.000418108 0)
(-0.0279252 0.000255847 0)
(-0.02802 9.18244e-05 0)
(-0.0280242 -7.3101e-05 0)
(-0.0279377 -0.000238055 0)
(-0.0277608 -0.000402152 0)
(-0.0274942 -0.00056449 0)
(-0.0271391 -0.000724157 0)
(-0.0266973 -0.00088023 0)
(-0.0261711 -0.00103178 0)
(-0.0255631 -0.00117786 0)
(-0.0248768 -0.00131753 0)
(-0.0241158 -0.00144986 0)
(-0.0232845 -0.00157389 0)
(-0.0223877 -0.0016887 0)
(-0.0214307 -0.00179337 0)
(-0.0204193 -0.00188699 0)
(-0.0193598 -0.00196869 0)
(-0.0182589 -0.00203762 0)
(-0.0171237 -0.00209297 0)
(-0.0159619 -0.00213397 0)
(-0.0147813 -0.00215991 0)
(-0.0135904 -0.00217014 0)
(-0.0123977 -0.00216407 0)
(-0.011212 -0.00214123 0)
(-0.0100426 -0.0021012 0)
(-0.00889848 -0.00204372 0)
(-0.00778905 -0.00196863 0)
(-0.00672353 -0.00187596 0)
(-0.00571106 -0.00176589 0)
(-0.0047605 -0.00163888 0)
(-0.00388034 -0.00149567 0)
(-0.00307847 -0.00133735 0)
(-0.00236197 -0.00116555 0)
(-0.00173681 -0.000982506 0)
(-0.00120751 -0.00079138 0)
(-0.000776681 -0.000596543 0)
(-0.000444452 -0.000404073 0)
(-0.000207765 -0.000222442 0)
(-5.96141e-05 -6.34401e-05 0)
(1.19455e-05 5.67502e-05 0)
(2.61142e-05 0.000116198 0)
(1.09055e-05 8.38463e-05 0)
(4.01528e-06 -8.70612e-05 0)
(-1.30222e-05 -7.95595e-05 0)
(-9.19952e-05 4.99351e-05 0)
(-0.000253986 0.000259667 0)
(-0.00051484 0.000520237 0)
(-0.000885009 0.000809585 0)
(-0.00137007 0.00111131 0)
(-0.00197164 0.00141342 0)
(-0.00268814 0.00170721 0)
(-0.00351546 0.00198638 0)
(-0.0044475 0.00224645 0)
(-0.00547664 0.00248426 0)
(-0.00659415 0.00269768 0)
(-0.00779046 0.0028853 0)
(-0.00905543 0.00304631 0)
(-0.0103786 0.00318033 0)
(-0.0117493 0.00328733 0)
(-0.0131567 0.00336753 0)
(-0.0145903 0.00342137 0)
(-0.0160393 0.00344946 0)
(-0.0174936 0.00345251 0)
(-0.018943 0.00343137 0)
(-0.0203778 0.00338694 0)
(-0.0217885 0.0033202 0)
(-0.0231661 0.00323219 0)
(-0.0245021 0.00312396 0)
(-0.0257882 0.00299664 0)
(-0.0270168 0.00285135 0)
(-0.0281805 0.00268925 0)
(-0.0292727 0.00251151 0)
(-0.0302869 0.00231935 0)
(-0.0312175 0.00211397 0)
(-0.0320591 0.00189661 0)
(-0.032807 0.00166851 0)
(-0.033457 0.00143096 0)
(-0.0340054 0.00118523 0)
(-0.0344491 0.000932635 0)
(-0.0347854 0.000674504 0)
(-0.0350124 0.000412187 0)
(-0.0351287 0.000147053 0)
(-0.0351333 -0.000119504 0)
(-0.035026 -0.00038607 0)
(-0.0348072 -0.000651208 0)
(-0.0344777 -0.000913462 0)
(-0.0340392 -0.00117136 0)
(-0.0334937 -0.00142341 0)
(-0.0328441 -0.00166811 0)
(-0.0320939 -0.00190395 0)
(-0.031247 -0.00212942 0)
(-0.0303081 -0.00234299 0)
(-0.0292825 -0.00254317 0)
(-0.0281762 -0.00272846 0)
(-0.0269956 -0.0028974 0)
(-0.0257479 -0.00304853 0)
(-0.0244406 -0.00318048 0)
(-0.0230821 -0.0032919 0)
(-0.0216812 -0.0033815 0)
(-0.0202469 -0.00344808 0)
(-0.0187891 -0.00349053 0)
(-0.0173179 -0.00350785 0)
(-0.0158436 -0.00349914 0)
(-0.014377 -0.00346368 0)
(-0.0129292 -0.00340088 0)
(-0.0115111 -0.00331037 0)
(-0.0101339 -0.003192 0)
(-0.00880872 -0.00304589 0)
(-0.00754641 -0.00287248 0)
(-0.00635748 -0.00267259 0)
(-0.00525193 -0.00244753 0)
(-0.004239 -0.00219921 0)
(-0.00332692 -0.00193031 0)
(-0.00252261 -0.00164451 0)
(-0.0018313 -0.00134678 0)
(-0.00125607 -0.00104385 0)
(-0.000797323 -0.000744743 0)
(-0.000452198 -0.000461622 0)
(-0.000213847 -0.000210791 0)
(-7.0615e-05 -1.38614e-05 0)
(-5.2355e-06 0.00010074 0)
(5.26115e-06 9.31378e-05 0)
(-2.66784e-06 -7.37733e-05 0)
(-5.09353e-05 -7.39206e-06 0)
(-0.000191896 0.000205438 0)
(-0.00043878 0.00051633 0)
(-0.000803702 0.00089034 0)
(-0.00129567 0.00130055 0)
(-0.00191916 0.00172636 0)
(-0.00267492 0.00215229 0)
(-0.00356059 0.00256673 0)
(-0.0045713 0.00296109 0)
(-0.00570009 0.00332904 0)
(-0.0069384 0.00366604 0)
(-0.00827638 0.00396889 0)
(-0.00970327 0.00423543 0)
(-0.0112076 0.00446433 0)
(-0.0127776 0.0046549 0)
(-0.0144009 0.00480693 0)
(-0.0160654 0.00492063 0)
(-0.0177588 0.00499652 0)
(-0.019469 0.00503537 0)
(-0.021184 0.00503814 0)
(-0.0228923 0.00500598 0)
(-0.0245824 0.00494014 0)
(-0.0262436 0.00484199 0)
(-0.0278652 0.004713 0)
(-0.0294373 0.00455468 0)
(-0.0309504 0.00436861 0)
(-0.0323955 0.00415643 0)
(-0.033764 0.0039198 0)
(-0.0350481 0.00366044 0)
(-0.0362404 0.00338007 0)
(-0.0373342 0.00308047 0)
(-0.0383232 0.00276343 0)
(-0.039202 0.00243078 0)
(-0.0399656 0.00208436 0)
(-0.0406097 0.00172606 0)
(-0.0411307 0.00135779 0)
(-0.0415254 0.000981491 0)
(-0.0417917 0.000599126 0)
(-0.0419278 0.0002127 0)
(-0.0419327 -0.000175755 0)
(-0.0418061 -0.000564176 0)
(-0.0415485 -0.000950469 0)
(-0.0411609 -0.00133252 0)
(-0.0406452 -0.00170817 0)
(-0.040004 -0.00207527 0)
(-0.0392404 -0.00243163 0)
(-0.0383586 -0.00277506 0)
(-0.0373633 -0.00310337 0)
(-0.0362598 -0.00341436 0)
(-0.0350545 -0.00370586 0)
(-0.0337542 -0.00397571 0)
(-0.0323666 -0.0042218 0)
(-0.0308998 -0.00444207 0)
(-0.0293629 -0.0046345 0)
(-0.0277654 -0.00479718 0)
(-0.0261175 -0.00492829 0)
(-0.0244299 -0.00502612 0)
(-0.0227138 -0.00508909 0)
(-0.0209809 -0.00511581 0)
(-0.0192433 -0.00510504 0)
(-0.0175134 -0.00505579 0)
(-0.0158038 -0.0049673 0)
(-0.0141273 -0.00483912 0)
(-0.0124965 -0.00467112 0)
(-0.0109242 -0.00446359 0)
(-0.00942265 -0.00421727 0)
(-0.00800392 -0.0039335 0)
(-0.00667926 -0.00361428 0)
(-0.00545911 -0.00326249 0)
(-0.00435276 -0.00288205 0)
(-0.00336804 -0.00247822 0)
(-0.00251094 -0.002058 0)
(-0.00178523 -0.00163056 0)
(-0.00119196 -0.00120795 0)
(-0.000729024 -0.000805906 0)
(-0.000390474 -0.000444946 0)
(-0.00016588 -0.000151529 0)
(-4.13312e-05 4.04032e-05 0)
(-1.09672e-06 8.4317e-05 0)
(-9.446e-06 -4.01137e-05 0)
(-9.06001e-05 0.000116253 0)
(-0.00029763 0.000437561 0)
(-0.000634913 0.000870934 0)
(-0.00110996 0.0013771 0)
(-0.00172963 0.00192505 0)
(-0.00249675 0.00249053 0)
(-0.00341066 0.00305481 0)
(-0.0044679 0.00360353 0)
(-0.0056626 0.0041258 0)
(-0.00698685 0.00461345 0)
(-0.00843108 0.00506044 0)
(-0.00998441 0.00546242 0)
(-0.011635 0.0058164 0)
(-0.0133701 0.00612043 0)
(-0.0151767 0.00637343 0)
(-0.0170413 0.00657499 0)
(-0.0189502 0.00672524 0)
(-0.0208899 0.00682474 0)
(-0.0228468 0.00687444 0)
(-0.0248077 0.00687555 0)
(-0.0267594 0.00682952 0)
(-0.0286893 0.00673799 0)
(-0.0305852 0.00660275 0)
(-0.0324352 0.00642574 0)
(-0.0342282 0.00620897 0)
(-0.0359532 0.00595457 0)
(-0.0376003 0.00566471 0)
(-0.0391597 0.00534167 0)
(-0.0406227 0.00498773 0)
(-0.0419808 0.00460525 0)
(-0.0432264 0.00419663 0)
(-0.0443526 0.00376432 0)
(-0.0453531 0.00331079 0)
(-0.0462223 0.00283855 0)
(-0.0469554 0.00235019 0)
(-0.0475482 0.00184829 0)
(-0.0479973 0.0013355 0)
(-0.0483001 0.000814509 0)
(-0.0484546 0.000288039 0)
(-0.0484599 -0.00024114 0)
(-0.0483155 -0.00077022 0)
(-0.048022 -0.00129635 0)
(-0.0475805 -0.00181666 0)
(-0.0469933 -0.00232822 0)
(-0.0462632 -0.00282811 0)
(-0.0453938 -0.00331335 0)
(-0.0443899 -0.00378099 0)
(-0.0432566 -0.00422804 0)
(-0.0420003 -0.00465154 0)
(-0.0406279 -0.00504857 0)
(-0.0391471 -0.0054162 0)
(-0.0375667 -0.0057516 0)
(-0.0358958 -0.00605199 0)
(-0.0341446 -0.00631468 0)
(-0.0323238 -0.0065371 0)
(-0.0304449 -0.00671681 0)
(-0.0285199 -0.00685155 0)
(-0.0265614 -0.00693925 0)
(-0.0245826 -0.00697806 0)
(-0.0225968 -0.00696639 0)
(-0.020618 -0.00690296 0)
(-0.0186602 -0.00678684 0)
(-0.0167377 -0.00661752 0)
(-0.0148646 -0.00639493 0)
(-0.013055 -0.00611956 0)
(-0.0113226 -0.00579257 0)
(-0.00968065 -0.00541585 0)
(-0.00814159 -0.00499222 0)
(-0.006717 -0.00452561 0)
(-0.0054172 -0.0040213 0)
(-0.00425098 -0.00348627 0)
(-0.00322524 -0.00292954 0)
(-0.00234465 -0.00236279 0)
(-0.00161129 -0.00180094 0)
(-0.00102428 -0.00126308 0)
(-0.000579163 -0.0007735 0)
(-0.000267422 -0.000362773 0)
(-7.93754e-05 -6.92237e-05 0)
(-7.59347e-06 5.60114e-05 0)
(-1.60566e-05 1.41767e-05 0)
(-0.000130452 0.000293203 0)
(-0.000405224 0.000749575 0)
(-0.000835625 0.00132766 0)
(-0.00142413 0.00198501 0)
(-0.002175 0.00268739 0)
(-0.00308892 0.0034074 0)
(-0.00416349 0.00412347 0)
(-0.00539382 0.00481873 0)
(-0.0067728 0.0054801 0)
(-0.00829141 0.00609758 0)
(-0.00993902 0.00666367 0)
(-0.0117037 0.00717284 0)
(-0.0135724 0.00762119 0)
(-0.0155315 0.00800613 0)
(-0.0175666 0.00832613 0)
(-0.0196632 0.00858053 0)
(-0.0218063 0.00876935 0)
(-0.0239812 0.00889322 0)
(-0.026173 0.00895319 0)
(-0.0283672 0.00895075 0)
(-0.0305496 0.00888766 0)
(-0.0327062 0.00876598 0)
(-0.0348236 0.00858794 0)
(-0.0368888 0.00835599 0)
(-0.0388895 0.00807269 0)
(-0.0408137 0.00774075 0)
(-0.0426504 0.00736296 0)
(-0.044389 0.00694223 0)
(-0.0460195 0.00648152 0)
(-0.047533 0.00598386 0)
(-0.0489208 0.00545236 0)
(-0.0501754 0.00489017 0)
(-0.0512897 0.00430051 0)
(-0.0522577 0.00368665 0)
(-0.053074 0.00305192 0)
(-0.053734 0.00239968 0)
(-0.054234 0.00173337 0)
(-0.054571 0.00105647 0)
(-0.054743 0.000372527 0)
(-0.0547488 -0.000314875 0)
(-0.054588 -0.00100209 0)
(-0.0542611 -0.00168544 0)
(-0.0537697 -0.00236118 0)
(-0.0531159 -0.00302555 0)
(-0.052303 -0.00367474 0)
(-0.0513351 -0.00430493 0)
(-0.0502173 -0.00491228 0)
(-0.0489554 -0.00549295 0)
(-0.0475563 -0.00604314 0)
(-0.0460276 -0.00655905 0)
(-0.044378 -0.00703695 0)
(-0.042617 -0.00747318 0)
(-0.0407547 -0.00786418 0)
(-0.0388023 -0.00820652 0)
(-0.0367716 -0.0084969 0)
(-0.0346751 -0.00873224 0)
(-0.0325261 -0.00890965 0)
(-0.0303385 -0.0090265 0)
(-0.0281265 -0.0090805 0)
(-0.025905 -0.00906965 0)
(-0.0236891 -0.0089924 0)
(-0.0214942 -0.00884764 0)
(-0.0193358 -0.00863478 0)
(-0.0172293 -0.00835388 0)
(-0.0151902 -0.00800567 0)
(-0.0132333 -0.00759174 0)
(-0.0113731 -0.00711462 0)
(-0.00962319 -0.006578 0)
(-0.00799622 -0.00598693 0)
(-0.00650357 -0.00534812 0)
(-0.00515508 -0.00467023 0)
(-0.00395873 -0.00396434 0)
(-0.00292034 -0.00324451 0)
(-0.00204332 -0.00252836 0)
(-0.0013284 -0.00183799 0)
(-0.000773081 -0.00120093 0)
(-0.000371198 -0.000651118 0)
(-0.000117761 -0.000230173 0)
(-1.39526e-05 7.86396e-06 0)
(-2.23894e-05 8.8802e-05 0)
(-0.000169641 0.000523754 0)
(-0.000512288 0.00114265 0)
(-0.00103662 0.0018884 0)
(-0.00173994 0.0027164 0)
(-0.00262364 0.00358991 0)
(-0.00368598 0.00447903 0)
(-0.00492249 0.00535972 0)
(-0.0063266 0.00621288 0)
(-0.00788976 0.00702346 0)
(-0.00960167 0.00777973 0)
(-0.0114505 0.00847277 0)
(-0.0134233 0.00909589 0)
(-0.0155058 0.0096443 0)
(-0.0176834 0.0101147 0)
(-0.0199405 0.0105052 0)
(-0.0222616 0.0108147 0)
(-0.0246305 0.0110433 0)
(-0.0270314 0.0111915 0)
(-0.0294484 0.0112606 0)
(-0.0318657 0.0112522 0)
(-0.0342681 0.0111686 0)
(-0.0366404 0.0110121 0)
(-0.0389683 0.0107854 0)
(-0.0412376 0.0104917 0)
(-0.043435 0.010134 0)
(-0.0455477 0.00971557 0)
(-0.0475635 0.00924 0)
(-0.0494711 0.00871083 0)
(-0.0512598 0.00813176 0)
(-0.0529195 0.00750655 0)
(-0.0544413 0.00683908 0)
(-0.0558167 0.00613328 0)
(-0.0570383 0.00539318 0)
(-0.0580993 0.00462286 0)
(-0.058994 0.00382648 0)
(-0.0597173 0.00300826 0)
(-0.0602653 0.0021725 0)
(-0.0606348 0.00132355 0)
(-0.0608235 0.000465835 0)
(-0.0608301 -0.000396147 0)
(-0.0606542 -0.00125785 0)
(-0.0602965 -0.00211466 0)
(-0.0597585 -0.00296191 0)
(-0.0590426 -0.0037949 0)
(-0.0581524 -0.00460889 0)
(-0.0570923 -0.00539911 0)
(-0.0558678 -0.00616077 0)
(-0.0544852 -0.0068891 0)
(-0.052952 -0.00757936 0)
(-0.0512765 -0.00822684 0)
(-0.0494681 -0.0088269 0)
(-0.0475369 -0.009375 0)
(-0.045494 -0.00986674 0)
(-0.0433515 -0.0102979 0)
(-0.041122 -0.0106643 0)
(-0.0388193 -0.0109623 0)
(-0.0364575 -0.0111882 0)
(-0.0340517 -0.011339 0)
(-0.0316172 -0.0114116 0)
(-0.02917 -0.0114039 0)
(-0.0267265 -0.0113139 0)
(-0.0243033 -0.0111403 0)
(-0.021917 -0.0108824 0)
(-0.0195843 -0.0105406 0)
(-0.0173216 -0.0101157 0)
(-0.0151453 -0.00960975 0)
(-0.0130706 -0.00902606 0)
(-0.0111125 -0.00836917 0)
(-0.00928476 -0.00764528 0)
(-0.00759979 -0.00686249 0)
(-0.00606862 -0.00603114 0)
(-0.00470047 -0.00516429 0)
(-0.00350256 -0.00427818 0)
(-0.00247987 -0.00339293 0)
(-0.00163506 -0.00253326 0)
(-0.000967861 -0.0017294 0)
(-0.000474764 -0.00101797 0)
(-0.000155603 -0.000442909 0)
(-2.00536e-05 -5.98997e-05 0)
(-2.84106e-05 0.000183188 0)
(-0.00020774 0.00080728 0)
(-0.000617459 0.00161657 0)
(-0.00123528 0.00255346 0)
(-0.00205339 0.00357195 0)
(-0.0030702 0.00463351 0)
(-0.00428136 0.00570624 0)
(-0.00568011 0.00676408 0)
(-0.00725799 0.00778601 0)
(-0.00900484 0.0087552 0)
(-0.0109089 0.00965839 0)
(-0.0129572 0.0104853 0)
(-0.0151353 0.0112282 0)
(-0.0174281 0.0118814 0)
(-0.0198198 0.0124409 0)
(-0.0222937 0.0129044 0)
(-0.0248332 0.0132706 0)
(-0.0274212 0.0135393 0)
(-0.0300407 0.0137111 0)
(-0.0326748 0.0137875 0)
(-0.0353068 0.0137705 0)
(-0.0379203 0.0136624 0)
(-0.0404993 0.0134662 0)
(-0.0430283 0.0131851 0)
(-0.0454925 0.0128227 0)
(-0.0478774 0.0123828 0)
(-0.0501694 0.0118693 0)
(-0.0523556 0.0112864 0)
(-0.0544237 0.0106385 0)
(-0.0563624 0.00992998 0)
(-0.058161 0.00916545 0)
(-0.0598097 0.00834958 0)
(-0.0612997 0.00748718 0)
(-0.0626229 0.00658311 0)
(-0.063772 0.00564234 0)
(-0.064741 0.00466993 0)
(-0.0655245 0.00367102 0)
(-0.0661182 0.00265081 0)
(-0.0665187 0.00161462 0)
(-0.0667236 0.000567834 0)
(-0.0667314 -0.000484101 0)
(-0.0665419 -0.00153565 0)
(-0.0661555 -0.0025812 0)
(-0.065574 -0.00361511 0)
(-0.0648001 -0.00463164 0)
(-0.0638373 -0.00562506 0)
(-0.0626906 -0.00658957 0)
(-0.0613657 -0.00751938 0)
(-0.0598694 -0.00840871 0)
(-0.0582098 -0.00925181 0)
(-0.0563956 -0.010043 0)
(-0.0544368 -0.0107766 0)
(-0.0523443 -0.0114473 0)
(-0.05013 -0.0120496 0)
(-0.0478067 -0.0125785 0)
(-0.045388 -0.0130291 0)
(-0.0428883 -0.0133968 0)
(-0.040323 -0.0136773 0)
(-0.0377079 -0.0138669 0)
(-0.0350595 -0.0139622 0)
(-0.0323949 -0.0139604 0)
(-0.0297315 -0.0138592 0)
(-0.0270869 -0.0136573 0)
(-0.024479 -0.0133539 0)
(-0.0219255 -0.0129492 0)
(-0.0194441 -0.0124447 0)
(-0.0170519 -0.0118428 0)
(-0.0147658 -0.0111474 0)
(-0.0126016 -0.0103639 0)
(-0.0105742 -0.00949973 0)
(-0.00869744 -0.00856429 0)
(-0.0069835 -0.00756955 0)
(-0.00544302 -0.00653039 0)
(-0.00408479 -0.00546508 0)
(-0.0029156 -0.00439593 0)
(-0.00194022 -0.00334992 0)
(-0.00116085 -0.00235951 0)
(-0.000576717 -0.00146334 0)
(-0.000192453 -0.000706958 0)
(-2.58564e-05 -0.000146758 0)
(-3.41241e-05 0.000296645 0)
(-0.000244571 0.00114266 0)
(-0.000720031 0.0021703 0)
(-0.00143011 0.00332208 0)
(-0.00236208 0.00455124 0)
(-0.00351134 0.00581799 0)
(-0.00487082 0.00708891 0)
(-0.00643138 0.00833634 0)
(-0.00818248 0.00953762 0)
(-0.0101122 0.0106744 0)
(-0.0122073 0.0117321 0)
(-0.0144532 0.0126992 0)
(-0.0168344 0.0135669 0)
(-0.0193346 0.0143288 0)
(-0.0219367 0.0149803 0)
(-0.0246231 0.0155187 0)
(-0.0273762 0.0159423 0)
(-0.0301777 0.0162509 0)
(-0.0330098 0.0164452 0)
(-0.0358545 0.0165267 0)
(-0.0386943 0.0164977 0)
(-0.0415116 0.0163611 0)
(-0.0442898 0.0161201 0)
(-0.0470124 0.0157786 0)
(-0.0496636 0.0153408 0)
(-0.0522283 0.0148109 0)
(-0.0546921 0.0141938 0)
(-0.0570412 0.0134943 0)
(-0.0592627 0.0127177 0)
(-0.0613447 0.0118691 0)
(-0.0632758 0.0109539 0)
(-0.0650456 0.00997781 0)
(-0.0666449 0.00894642 0)
(-0.0680649 0.00786553 0)
(-0.0692983 0.00674106 0)
(-0.0703383 0.005579 0)
(-0.0711794 0.00438547 0)
(-0.0718169 0.00316667 0)
(-0.0722474 0.00192891 0)
(-0.0724682 0.000678574 0)
(-0.0724778 -0.000577835 0)
(-0.0722759 -0.00183375 0)
(-0.071863 -0.00308251 0)
(-0.0712409 -0.0043174 0)
(-0.0704124 -0.00553163 0)
(-0.0693814 -0.00671836 0)
(-0.0681529 -0.00787075 0)
(-0.0667332 -0.00898192 0)
(-0.0651294 -0.010045 0)
(-0.0633498 -0.0110532 0)
(-0.0614038 -0.0119998 0)
(-0.059302 -0.0128782 0)
(-0.0570558 -0.0136818 0)
(-0.0546779 -0.0144044 0)
(-0.0521816 -0.01504 0)
(-0.0495814 -0.0155827 0)
(-0.0468926 -0.0160273 0)
(-0.0441313 -0.0163687 0)
(-0.0413143 -0.0166025 0)
(-0.038459 -0.0167246 0)
(-0.0355835 -0.016732 0)
(-0.0327062 -0.0166219 0)
(-0.0298458 -0.0163928 0)
(-0.0270212 -0.0160439 0)
(-0.0242511 -0.0155755 0)
(-0.0215544 -0.0149892 0)
(-0.0189494 -0.014288 0)
(-0.016454 -0.0134764 0)
(-0.0140852 -0.0125608 0)
(-0.0118592 -0.0115495 0)
(-0.00979107 -0.0104533 0)
(-0.00789449 -0.00928557 0)
(-0.00618161 -0.00806298 0)
(-0.00466294 -0.00680558 0)
(-0.00334722 -0.00553759 0)
(-0.00224152 -0.00428791 0)
(-0.00135055 -0.00309081 0)
(-0.000676342 -0.00198643 0)
(-0.000228122 -0.00102133 0)
(-3.13613e-05 -0.000252064 0)
(-3.95512e-05 0.000428456 0)
(-0.000280101 0.00152853 0)
(-0.000819716 0.00280232 0)
(-0.0016204 0.00419287 0)
(-0.00266473 0.00565309 0)
(-0.00394516 0.0071424 0)
(-0.00545189 0.00862625 0)
(-0.00717327 0.0100757 0)
(-0.00909664 0.0114668 0)
(-0.0112082 0.01278 0)
(-0.0134929 0.0139994 0)
(-0.0159349 0.0151125 0)
(-0.0185172 0.0161096 0)
(-0.0212223 0.0169837 0)
(-0.0240319 0.0177295 0)
(-0.0269274 0.0183439 0)
(-0.02989 0.0188252 0)
(-0.0329007 0.019173 0)
(-0.0359405 0.019388 0)
(-0.0389905 0.019472 0)
(-0.0420323 0.0194276 0)
(-0.0450476 0.019258 0)
(-0.0480187 0.018967 0)
(-0.0509285 0.018559 0)
(-0.0537604 0.0180387 0)
(-0.0564986 0.0174113 0)
(-0.0591277 0.0166822 0)
(-0.0616336 0.0158571 0)
(-0.0640027 0.014942 0)
(-0.0662223 0.013943 0)
(-0.0682805 0.0128664 0)
(-0.0701667 0.0117187 0)
(-0.0718708 0.0105065 0)
(-0.0733839 0.00923652 0)
(-0.0746981 0.0079157 0)
(-0.0758064 0.00655105 0)
(-0.076703 0.00514968 0)
(-0.077383 0.00371883 0)
(-0.0778427 0.00226588 0)
(-0.0780794 0.000798277 0)
(-0.0780915 -0.000676398 0)
(-0.0778785 -0.00215048 0)
(-0.077441 -0.0036162 0)
(-0.0767809 -0.00506572 0)
(-0.0759012 -0.00649114 0)
(-0.0748058 -0.00788448 0)
(-0.0735 -0.00923776 0)
(-0.0719903 -0.010543 0)
(-0.0702841 -0.0117922 0)
(-0.0683903 -0.0129774 0)
(-0.0663186 -0.0140908 0)
(-0.06408 -0.0151246 0)
(-0.0616866 -0.0160715 0)
(-0.0591515 -0.0169239 0)
(-0.0564888 -0.0176751 0)
(-0.0537137 -0.0183181 0)
(-0.0508421 -0.0188469 0)
(-0.0478911 -0.0192557 0)
(-0.0448781 -0.0195392 0)
(-0.0418216 -0.0196929 0)
(-0.0387405 -0.0197132 0)
(-0.035654 -0.019597 0)
(-0.032582 -0.0193424 0)
(-0.0295444 -0.0189486 0)
(-0.0265609 -0.018416 0)
(-0.0236516 -0.0177465 0)
(-0.0208358 -0.0169433 0)
(-0.0181326 -0.0160117 0)
(-0.0155603 -0.0149587 0)
(-0.0131365 -0.0137938 0)
(-0.0108775 -0.012529 0)
(-0.00879856 -0.011179 0)
(-0.00691353 -0.00976191 0)
(-0.00523473 -0.00829944 0)
(-0.00377301 -0.00681747 0)
(-0.00253776 -0.00534649 0)
(-0.0015363 -0.00392223 0)
(-0.000773364 -0.00258593 0)
(-0.000262577 -0.0013848 0)
(-3.65888e-05 -0.000375143 0)
(-4.4721e-05 0.000577929 0)
(-0.000314381 0.00196344 0)
(-0.000916493 0.0035109 0)
(-0.00180593 0.00516409 0)
(-0.00296083 0.00687591 0)
(-0.00437081 0.00860531 0)
(-0.00602331 0.010317 0)
(-0.00790422 0.0119811 0)
(-0.00999862 0.0135725 0)
(-0.0122907 0.0150707 0)
(-0.0147638 0.0164588 0)
(-0.0174003 0.0177235 0)
(-0.020182 0.0188543 0)
(-0.0230899 0.0198435 0)
(-0.0261046 0.0206855 0)
(-0.0292064 0.0213768 0)
(-0.0323754 0.0219156 0)
(-0.0355915 0.0223013 0)
(-0.038835 0.022535 0)
(-0.042086 0.0226186 0)
(-0.0453252 0.0225549 0)
(-0.0485336 0.0223476 0)
(-0.0516927 0.0220011 0)
(-0.0547845 0.0215204 0)
(-0.0577918 0.0209108 0)
(-0.060698 0.0201782 0)
(-0.0634874 0.0193289 0)
(-0.066145 0.0183693 0)
(-0.0686566 0.0173063 0)
(-0.0710091 0.0161469 0)
(-0.0731902 0.0148984 0)
(-0.0751886 0.0135681 0)
(-0.076994 0.0121636 0)
(-0.078597 0.0106928 0)
(-0.0799893 0.0091636 0)
(-0.0811639 0.00758396 0)
(-0.0821144 0.00596213 0)
(-0.0828359 0.00430642 0)
(-0.0833244 0.00262529 0)
(-0.0835771 0.000927322 0)
(-0.0835923 -0.00077878 0)
(-0.0833696 -0.0024842 0)
(-0.0829095 -0.00418004 0)
(-0.0822139 -0.00585727 0)
(-0.0812858 -0.00750682 0)
(-0.0801295 -0.00911954 0)
(-0.0787503 -0.0106863 0)
(-0.0771549 -0.0121978 0)
(-0.0753511 -0.013645 0)
(-0.073348 -0.0150188 0)
(-0.0711558 -0.0163101 0)
(-0.0687858 -0.0175102 0)
(-0.0662506 -0.0186103 0)
(-0.0635639 -0.0196022 0)
(-0.0607404 -0.0204778 0)
(-0.0577958 -0.0212294 0)
(-0.0547467 -0.02185 0)
(-0.051611 -0.0223328 0)
(-0.0484068 -0.022672 0)
(-0.0451535 -0.0228623 0)
(-0.0418708 -0.0228996 0)
(-0.0385789 -0.0227804 0)
(-0.0352985 -0.0225025 0)
(-0.0320506 -0.022065 0)
(-0.0288561 -0.0214683 0)
(-0.025736 -0.0207144 0)
(-0.0227108 -0.0198071 0)
(-0.0198009 -0.0187519 0)
(-0.017026 -0.0175569 0)
(-0.0144048 -0.0162323 0)
(-0.0119553 -0.0147912 0)
(-0.00969438 -0.0132495 0)
(-0.00763759 -0.0116268 0)
(-0.00579923 -0.00994607 0)
(-0.00419229 -0.00823471 0)
(-0.00282857 -0.00652453 0)
(-0.00171795 -0.00485239 0)
(-0.000867797 -0.0032604 0)
(-0.000295883 -0.00179608 0)
(-4.15694e-05 -0.000515345 0)
(-4.96656e-05 0.000744423 0)
(-0.000347512 0.00244599 0)
(-0.00101051 0.00429426 0)
(-0.00198682 0.00623385 0)
(-0.0032504 0.00821788 0)
(-0.00478812 0.0102051 0)
(-0.00658477 0.0121596 0)
(-0.00862371 0.014051 0)
(-0.0108878 0.0158533 0)
(-0.0133591 0.0175452 0)
(-0.0160192 0.019109 0)
(-0.0188489 0.0205307 0)
(-0.0218283 0.0217992 0)
(-0.0249373 0.0229063 0)
(-0.028155 0.023846 0)
(-0.0314608 0.0246147 0)
(-0.0348335 0.0252104 0)
(-0.0382523 0.0256326 0)
(-0.0416962 0.0258825 0)
(-0.0451447 0.0259623 0)
(-0.0485776 0.0258752 0)
(-0.0519751 0.0256255 0)
(-0.0553179 0.0252179 0)
(-0.0585874 0.0246581 0)
(-0.0617658 0.0239523 0)
(-0.0648358 0.023107 0)
(-0.0677811 0.0221292 0)
(-0.0705861 0.0210264 0)
(-0.0732362 0.0198062 0)
(-0.0757178 0.0184767 0)
(-0.0780182 0.0170459 0)
(-0.0801255 0.0155224 0)
(-0.0820291 0.0139148 0)
(-0.0837195 0.0122319 0)
(-0.0851879 0.0104826 0)
(-0.086427 0.00867612 0)
(-0.0874302 0.00682172 0)
(-0.0881925 0.00492885 0)
(-0.0887096 0.00300711 0)
(-0.0889787 0.00106623 0)
(-0.088998 -0.00088391 0)
(-0.0887669 -0.00283332 0)
(-0.088286 -0.0047719 0)
(-0.0875571 -0.00668942 0)
(-0.0865835 -0.00857559 0)
(-0.0853694 -0.01042 0)
(-0.0839203 -0.0122124 0)
(-0.0822431 -0.0139422 0)
(-0.0803458 -0.0155991 0)
(-0.0782378 -0.0171727 0)
(-0.0759296 -0.018653 0)
(-0.0734329 -0.0200298 0)
(-0.0707607 -0.0212934 0)
(-0.0679271 -0.0224342 0)