/*--------------------------------*- C++ -*----------------------------------*\
  =========                 |
  \\      /  F ield         | OpenFOAM: The Open Source CFD Toolbox
   \\    /   O peration     | Website:  https://openfoam.org
    \\  /    A nd           | Version:  7
     \\/     M anipulation  |
\*---------------------------------------------------------------------------*/
FoamFile
{
    version     2.0;
    format      ascii;
    class       volVectorField;
    location    "0.475";
    object      U;
}
// * * * * * * * * * * * * * * * * * * * * * * * * * * * * * * * * * * * * * //

dimensions      [0 1 -1 0 0 0 0];

internalField   nonuniform List<vector> 
25600
(
(3.84408e-07 -3.65291e-07 0)
(3.22997e-06 -1.86757e-06 0)
(9.175e-06 -2.7069e-06 0)
(1.61508e-05 -2.87231e-06 0)
(2.27076e-05 -2.61092e-06 0)
(2.79767e-05 -2.09302e-06 0)
(3.1403e-05 -1.42562e-06 0)
(3.26332e-05 -6.76159e-07 0)
(3.14576e-05 1.12895e-07 0)
(2.77659e-05 9.14347e-07 0)
(2.15153e-05 1.71082e-06 0)
(1.27116e-05 2.49084e-06 0)
(1.39436e-06 3.24724e-06 0)
(-1.23726e-05 3.9753e-06 0)
(-2.85081e-05 4.67161e-06 0)
(-4.69181e-05 5.33369e-06 0)
(-6.75006e-05 5.96026e-06 0)
(-9.01483e-05 6.5512e-06 0)
(-0.000114751 7.10666e-06 0)
(-0.000141195 7.62671e-06 0)
(-0.00016937 8.11173e-06 0)
(-0.000199163 8.56245e-06 0)
(-0.000230464 8.98002e-06 0)
(-0.000263165 9.36571e-06 0)
(-0.000297162 9.7207e-06 0)
(-0.000332353 1.00459e-05 0)
(-0.000368636 1.03422e-05 0)
(-0.000405918 1.06106e-05 0)
(-0.000444106 1.08526e-05 0)
(-0.00048311 1.10695e-05 0)
(-0.000522845 1.12623e-05 0)
(-0.000563227 1.14321e-05 0)
(-0.000604179 1.15799e-05 0)
(-0.000645622 1.17065e-05 0)
(-0.000687483 1.18127e-05 0)
(-0.000729692 1.18992e-05 0)
(-0.000772179 1.19669e-05 0)
(-0.00081488 1.20165e-05 0)
(-0.000857729 1.20488e-05 0)
(-0.000900665 1.20642e-05 0)
(-0.000943627 1.20632e-05 0)
(-0.000986557 1.20461e-05 0)
(-0.0010294 1.20135e-05 0)
(-0.00107209 1.19656e-05 0)
(-0.00111459 1.19026e-05 0)
(-0.00115682 1.18247e-05 0)
(-0.00119876 1.17323e-05 0)
(-0.00124032 1.16258e-05 0)
(-0.00128148 1.15053e-05 0)
(-0.00132217 1.13705e-05 0)
(-0.00136235 1.12215e-05 0)
(-0.00140195 1.10581e-05 0)
(-0.00144094 1.08803e-05 0)
(-0.00147925 1.06881e-05 0)
(-0.00151685 1.04817e-05 0)
(-0.00155366 1.02611e-05 0)
(-0.00158965 1.00261e-05 0)
(-0.00162477 9.77644e-06 0)
(-0.00165895 9.51194e-06 0)
(-0.00169214 9.23257e-06 0)
(-0.00172431 8.93839e-06 0)
(-0.00175538 8.62944e-06 0)
(-0.00178532 8.30568e-06 0)
(-0.00181406 7.96705e-06 0)
(-0.00184156 7.61362e-06 0)
(-0.00186776 7.2454e-06 0)
(-0.00189261 6.8625e-06 0)
(-0.00191607 6.46526e-06 0)
(-0.00193807 6.0537e-06 0)
(-0.00195858 5.6278e-06 0)
(-0.00197754 5.18798e-06 0)
(-0.00199491 4.73453e-06 0)
(-0.00201063 4.26777e-06 0)
(-0.00202468 3.78832e-06 0)
(-0.00203699 3.29647e-06 0)
(-0.00204754 2.79264e-06 0)
(-0.00205627 2.27783e-06 0)
(-0.00206317 1.75259e-06 0)
(-0.00206818 1.21731e-06 0)
(-0.00207129 6.72967e-07 0)
(-0.00207245 1.20439e-07 0)
(-0.00207165 -4.39535e-07 0)
(-0.00206886 -1.00581e-06 0)
(-0.00206407 -1.5774e-06 0)
(-0.00205725 -2.15348e-06 0)
(-0.0020484 -2.73277e-06 0)
(-0.00203751 -3.31383e-06 0)
(-0.00202458 -3.89564e-06 0)
(-0.00200961 -4.47698e-06 0)
(-0.0019926 -5.05634e-06 0)
(-0.00197356 -5.63228e-06 0)
(-0.00195251 -6.20348e-06 0)
(-0.00192948 -6.76864e-06 0)
(-0.00190448 -7.32637e-06 0)
(-0.00187754 -7.8749e-06 0)
(-0.00184871 -8.41238e-06 0)
(-0.00181803 -8.93739e-06 0)
(-0.00178553 -9.44866e-06 0)
(-0.00175128 -9.94455e-06 0)
(-0.00171532 -1.04235e-05 0)
(-0.00167773 -1.0884e-05 0)
(-0.00163857 -1.13248e-05 0)
(-0.00159791 -1.17437e-05 0)
(-0.00155583 -1.21394e-05 0)
(-0.00151242 -1.25107e-05 0)
(-0.00146775 -1.28562e-05 0)
(-0.00142193 -1.31746e-05 0)
(-0.00137506 -1.34645e-05 0)
(-0.00132722 -1.3725e-05 0)
(-0.00127852 -1.39546e-05 0)
(-0.00122908 -1.41522e-05 0)
(-0.00117901 -1.43171e-05 0)
(-0.00112842 -1.44487e-05 0)
(-0.00107742 -1.45459e-05 0)
(-0.00102614 -1.4608e-05 0)
(-0.000974707 -1.46344e-05 0)
(-0.000923232 -1.46249e-05 0)
(-0.000871846 -1.4579e-05 0)
(-0.000820674 -1.44964e-05 0)
(-0.000769843 -1.4377e-05 0)
(-0.000719478 -1.42209e-05 0)
(-0.000669708 -1.40282e-05 0)
(-0.000620655 -1.37991e-05 0)
(-0.000572446 -1.35343e-05 0)
(-0.000525203 -1.32342e-05 0)
(-0.000479046 -1.28991e-05 0)
(-0.000434094 -1.25296e-05 0)
(-0.000390462 -1.2127e-05 0)
(-0.000348263 -1.16922e-05 0)
(-0.000307604 -1.12262e-05 0)
(-0.000268589 -1.07303e-05 0)
(-0.000231319 -1.02057e-05 0)
(-0.000195888 -9.65396e-06 0)
(-0.000162385 -9.07676e-06 0)
(-0.000130893 -8.47581e-06 0)
(-0.000101488 -7.85309e-06 0)
(-7.42403e-05 -7.21058e-06 0)
(-4.92118e-05 -6.55012e-06 0)
(-2.6457e-05 -5.87384e-06 0)
(-6.02096e-06 -5.18441e-06 0)
(1.20599e-05 -4.48472e-06 0)
(2.77592e-05 -3.77756e-06 0)
(4.10618e-05 -3.06601e-06 0)
(5.19659e-05 -2.35365e-06 0)
(6.04831e-05 -1.6447e-06 0)
(6.66404e-05 -9.4382e-07 0)
(7.04821e-05 -2.56138e-07 0)
(7.20735e-05 4.12157e-07 0)
(7.15048e-05 1.05322e-06 0)
(6.88947e-05 1.6573e-06 0)
(6.4397e-05 2.21202e-06 0)
(5.8209e-05 2.70132e-06 0)
(5.05839e-05 3.10367e-06 0)
(4.18459e-05 3.38912e-06 0)
(3.2412e-05 3.51489e-06 0)
(2.28226e-05 3.42089e-06 0)
(1.37708e-05 3.02734e-06 0)
(6.13488e-06 2.23397e-06 0)
(1.04633e-06 9.7284e-07 0)
(-3.50313e-07 -3.50064e-07 0)
(1.89078e-06 -3.23048e-06 0)
(9.18408e-06 -9.15346e-06 0)
(2.14602e-05 -1.21572e-05 0)
(3.49566e-05 -1.24375e-05 0)
(4.69133e-05 -1.07573e-05 0)
(5.54931e-05 -7.73919e-06 0)
(5.93567e-05 -3.83772e-06 0)
(5.75626e-05 6.21505e-07 0)
(4.94926e-05 5.40882e-06 0)
(3.47736e-05 1.0362e-05 0)
(1.32146e-05 1.53654e-05 0)
(-1.52395e-05 2.03362e-05 0)
(-5.05416e-05 2.52146e-05 0)
(-9.2569e-05 2.99582e-05 0)
(-0.000141142 3.45364e-05 0)
(-0.000196039 3.89271e-05 0)
(-0.000257008 4.31153e-05 0)
(-0.000323778 4.70915e-05 0)
(-0.00039606 5.08506e-05 0)
(-0.00047356 5.43904e-05 0)
(-0.000555976 5.77106e-05 0)
(-0.000643008 6.08131e-05 0)
(-0.000734355 6.37011e-05 0)
(-0.00082972 6.63792e-05 0)
(-0.000928813 6.88525e-05 0)
(-0.00103135 7.11271e-05 0)
(-0.00113705 7.32087e-05 0)
(-0.00124564 7.51038e-05 0)
(-0.00135686 7.68186e-05 0)
(-0.00147047 7.83601e-05 0)
(-0.0015862 7.97342e-05 0)
(-0.00170383 8.09473e-05 0)
(-0.00182312 8.20054e-05 0)
(-0.00194385 8.2914e-05 0)
(-0.00206582 8.36785e-05 0)
(-0.0021888 8.4304e-05 0)
(-0.00231261 8.47953e-05 0)
(-0.00243705 8.51566e-05 0)
(-0.00256192 8.53923e-05 0)
(-0.00268706 8.55062e-05 0)
(-0.00281227 8.55012e-05 0)
(-0.00293739 8.53802e-05 0)
(-0.00306225 8.51458e-05 0)
(-0.00318668 8.48007e-05 0)
(-0.00331051 8.43465e-05 0)
(-0.0034336 8.37846e-05 0)
(-0.00355577 8.31166e-05 0)
(-0.00367687 8.23438e-05 0)
(-0.00379675 8.14671e-05 0)
(-0.00391526 8.04871e-05 0)
(-0.00403223 7.94039e-05 0)
(-0.00414753 7.82178e-05 0)
(-0.00426099 7.69288e-05 0)
(-0.00437247 7.55368e-05 0)
(-0.00448181 7.40417e-05 0)
(-0.00458886 7.24436e-05 0)
(-0.00469347 7.07421e-05 0)
(-0.00479548 6.89369e-05 0)
(-0.00489476 6.70276e-05 0)
(-0.00499113 6.5014e-05 0)
(-0.00508446 6.28962e-05 0)
(-0.00517459 6.0674e-05 0)
(-0.00526136 5.8348e-05 0)
(-0.00534463 5.59184e-05 0)
(-0.00542425 5.33856e-05 0)
(-0.00550006 5.07504e-05 0)
(-0.00557192 4.80137e-05 0)
(-0.00563969 4.51768e-05 0)
(-0.00570322 4.22414e-05 0)
(-0.00576237 3.92087e-05 0)
(-0.005817 3.60808e-05 0)
(-0.00586697 3.28604e-05 0)
(-0.00591216 2.95502e-05 0)
(-0.00595245 2.61534e-05 0)
(-0.0059877 2.26735e-05 0)
(-0.0060178 1.91143e-05 0)
(-0.00604265 1.54803e-05 0)
(-0.00606213 1.17763e-05 0)
(-0.00607616 8.00697e-06 0)
(-0.00608465 4.17797e-06 0)
(-0.00608752 2.95395e-07 0)
(-0.00608469 -3.63457e-06 0)
(-0.00607611 -7.60501e-06 0)
(-0.00606173 -1.16087e-05 0)
(-0.0060415 -1.56385e-05 0)
(-0.0060154 -1.96866e-05 0)
(-0.0059834 -2.37444e-05 0)
(-0.00594551 -2.78035e-05 0)
(-0.00590173 -3.18552e-05 0)
(-0.00585208 -3.58897e-05 0)
(-0.00579659 -3.98976e-05 0)
(-0.00573532 -4.38692e-05 0)
(-0.00566832 -4.77948e-05 0)
(-0.00559567 -5.16643e-05 0)
(-0.00551747 -5.54674e-05 0)
(-0.00543381 -5.91935e-05 0)
(-0.00534482 -6.28319e-05 0)
(-0.00525064 -6.63721e-05 0)
(-0.00515141 -6.98038e-05 0)
(-0.0050473 -7.31165e-05 0)
(-0.0049385 -7.62997e-05 0)
(-0.00482519 -7.93434e-05 0)
(-0.00470759 -8.22373e-05 0)
(-0.00458592 -8.49713e-05 0)
(-0.00446042 -8.7536e-05 0)
(-0.00433134 -8.99223e-05 0)
(-0.00419894 -9.21213e-05 0)
(-0.00406351 -9.41246e-05 0)
(-0.00392532 -9.59243e-05 0)
(-0.00378469 -9.75127e-05 0)
(-0.00364191 -9.88827e-05 0)
(-0.00349731 -0.000100028 0)
(-0.00335121 -0.000100943 0)
(-0.00320395 -0.000101624 0)
(-0.00305587 -0.000102064 0)
(-0.00290731 -0.00010226 0)
(-0.00275864 -0.000102211 0)
(-0.0026102 -0.000101912 0)
(-0.00246236 -0.000101364 0)
(-0.00231547 -0.000100565 0)
(-0.00216989 -9.95158e-05 0)
(-0.00202598 -9.82172e-05 0)
(-0.0018841 -9.66712e-05 0)
(-0.0017446 -9.48807e-05 0)
(-0.00160782 -9.28492e-05 0)
(-0.00147412 -9.05811e-05 0)
(-0.00134382 -8.80815e-05 0)
(-0.00121725 -8.53567e-05 0)
(-0.00109473 -8.24138e-05 0)
(-0.00097657 -7.92608e-05 0)
(-0.000863054 -7.59061e-05 0)
(-0.000754466 -7.23596e-05 0)
(-0.000651073 -6.86316e-05 0)
(-0.000553124 -6.47335e-05 0)
(-0.00046085 -6.06779e-05 0)
(-0.000374464 -5.64785e-05 0)
(-0.00029416 -5.21494e-05 0)
(-0.000220108 -4.77058e-05 0)
(-0.000152455 -4.31641e-05 0)
(-9.13213e-05 -3.85426e-05 0)
(-3.68008e-05 -3.38614e-05 0)
(1.10437e-05 -2.91417e-05 0)
(5.21826e-05 -2.44069e-05 0)
(8.66233e-05 -1.96832e-05 0)
(0.000114414 -1.50005e-05 0)
(0.00013565 -1.03923e-05 0)
(0.000150476 -5.89679e-06 0)
(0.000159099 -1.55862e-06 0)
(0.000161795 2.5691e-06 0)
(0.000158919 6.42232e-06 0)
(0.000150924 9.9233e-06 0)
(0.000138379 1.29758e-05 0)
(0.000121988 1.54587e-05 0)
(0.000102624 1.72176e-05 0)
(8.13597e-05 1.80555e-05 0)
(5.95052e-05 1.77276e-05 0)
(3.86076e-05 1.5951e-05 0)
(2.04237e-05 1.24405e-05 0)
(7.0896e-06 7.09829e-06 0)
(9.68906e-07 1.04431e-06 0)
(2.71885e-06 -9.18287e-06 0)
(1.21919e-05 -2.1448e-05 0)
(2.69435e-05 -2.68903e-05 0)
(4.20501e-05 -2.64594e-05 0)
(5.40647e-05 -2.15306e-05 0)
(6.06278e-05 -1.33272e-05 0)
(5.99204e-05 -2.82852e-06 0)
(5.05945e-05 9.21109e-06 0)
(3.17171e-05 2.22241e-05 0)
(2.68702e-06 3.57863e-05 0)
(-3.68362e-05 4.95811e-05 0)
(-8.69898e-05 6.33721e-05 0)
(-0.000147753 7.6983e-05 0)
(-0.000218983 9.02827e-05 0)
(-0.000300445 0.000103175 0)
(-0.00039183 0.000115588 0)
(-0.000492779 0.000127472 0)
(-0.000602893 0.000138792 0)
(-0.000721745 0.000149526 0)
(-0.00084889 0.000159661 0)
(-0.000983871 0.000169192 0)
(-0.00112623 0.00017812 0)
(-0.00127549 0.000186449 0)
(-0.00143121 0.00019419 0)
(-0.00159292 0.000201352 0)
(-0.00176017 0.000207951 0)
(-0.00193254 0.000214001 0)
(-0.00210958 0.000219519 0)
(-0.00229088 0.00022452 0)
(-0.00247604 0.000229021 0)
(-0.00266466 0.000233039 0)
(-0.00285636 0.000236592 0)
(-0.00305078 0.000239693 0)
(-0.00324754 0.00024236 0)
(-0.00344631 0.000244606 0)
(-0.00364674 0.000246446 0)
(-0.00384852 0.000247893 0)
(-0.00405132 0.000248958 0)
(-0.00425485 0.000249653 0)
(-0.00445879 0.000249989 0)
(-0.00466286 0.000249974 0)
(-0.00486677 0.000249618 0)
(-0.00507024 0.000248926 0)
(-0.00527301 0.000247907 0)
(-0.0054748 0.000246565 0)
(-0.00567534 0.000244905 0)
(-0.00587438 0.000242931 0)
(-0.00607167 0.000240646 0)
(-0.00626693 0.000238054 0)
(-0.00645993 0.000235156 0)
(-0.00665041 0.000231953 0)
(-0.00683811 0.000228447 0)
(-0.0070228 0.000224637 0)
(-0.00720421 0.000220525 0)
(-0.00738211 0.00021611 0)
(-0.00755624 0.000211391 0)
(-0.00772635 0.00020637 0)
(-0.0078922 0.000201044 0)
(-0.00805354 0.000195415 0)
(-0.00821012 0.000189482 0)
(-0.0083617 0.000183245 0)
(-0.00850802 0.000176705 0)
(-0.00864884 0.000169863 0)
(-0.00878393 0.00016272 0)
(-0.00891302 0.000155277 0)
(-0.00903589 0.000147539 0)
(-0.0091523 0.000139508 0)
(-0.00926201 0.000131187 0)
(-0.0093648 0.000122581 0)
(-0.00946042 0.000113697 0)
(-0.00954868 0.000104539 0)
(-0.00962934 9.51163e-05 0)
(-0.0097022 8.54366e-05 0)
(-0.00976707 7.55094e-05 0)
(-0.00982374 6.53451e-05 0)
(-0.00987203 5.49555e-05 0)
(-0.00991178 4.43532e-05 0)
(-0.00994281 3.3552e-05 0)
(-0.00996499 2.25672e-05 0)
(-0.00997816 1.14146e-05 0)
(-0.00998221 1.11624e-07 0)
(-0.00997702 -1.13233e-05 0)
(-0.00996251 -2.28704e-05 0)
(-0.00993859 -3.45091e-05 0)
(-0.00990521 -4.62175e-05 0)
(-0.00986232 -5.7973e-05 0)
(-0.00980989 -6.97517e-05 0)
(-0.00974793 -8.15286e-05 0)
(-0.00967645 -9.32782e-05 0)
(-0.00959549 -0.000104974 0)
(-0.0095051 -0.000116589 0)
(-0.00940537 -0.000128094 0)
(-0.00929639 -0.000139461 0)
(-0.00917831 -0.000150661 0)
(-0.00905125 -0.000161666 0)
(-0.00891541 -0.000172444 0)
(-0.00877098 -0.000182966 0)
(-0.00861817 -0.000193201 0)
(-0.00845723 -0.00020312 0)
(-0.00828844 -0.000212693 0)
(-0.00811208 -0.000221891 0)
(-0.00792847 -0.000230683 0)
(-0.00773795 -0.000239041 0)
(-0.00754087 -0.000246938 0)
(-0.00733763 -0.000254345 0)
(-0.00712863 -0.000261238 0)
(-0.00691429 -0.00026759 0)
(-0.00669506 -0.000273377 0)
(-0.00647139 -0.000278578 0)
(-0.00624377 -0.000283171 0)
(-0.00601269 -0.000287135 0)
(-0.00577867 -0.000290454 0)
(-0.00554223 -0.00029311 0)
(-0.0053039 -0.000295089 0)
(-0.00506424 -0.00029638 0)
(-0.00482379 -0.00029697 0)
(-0.00458312 -0.000296854 0)
(-0.0043428 -0.000296023 0)
(-0.00410341 -0.000294476 0)
(-0.0038655 -0.000292209 0)
(-0.00362967 -0.000289223 0)
(-0.00339649 -0.000285524 0)
(-0.00316651 -0.000281114 0)
(-0.00294031 -0.000276004 0)
(-0.00271844 -0.000270204 0)
(-0.00250144 -0.000263726 0)
(-0.00228986 -0.000256586 0)
(-0.0020842 -0.000248802 0)
(-0.00188498 -0.000240395 0)
(-0.00169268 -0.000231388 0)
(-0.00150776 -0.000221806 0)
(-0.00133068 -0.000211678 0)
(-0.00116185 -0.000201034 0)
(-0.00100167 -0.000189908 0)
(-0.000850505 -0.000178337 0)
(-0.000708685 -0.000166359 0)
(-0.000576516 -0.000154017 0)
(-0.000454262 -0.000141357 0)
(-0.000342149 -0.000128428 0)
(-0.000240363 -0.000115283 0)
(-0.000149042 -0.00010198 0)
(-6.82735e-05 -8.85837e-05 0)
(1.90678e-06 -7.5163e-05 0)
(6.15248e-05 -6.17958e-05 0)
(0.000110673 -4.85686e-05 0)
(0.000149517 -3.5579e-05 0)
(0.000178306 -2.29387e-05 0)
(0.000197384 -1.0776e-05 0)
(0.000207201 7.58899e-07 0)
(0.000208331 1.14892e-05 0)
(0.000201492 2.12041e-05 0)
(0.000187567 2.96502e-05 0)
(0.000167632 3.65208e-05 0)
(0.000142981 4.1445e-05 0)
(0.000115162 4.39794e-05 0)
(8.5998e-05 4.36141e-05 0)
(5.75546e-05 3.9812e-05 0)
(3.20805e-05 3.21109e-05 0)
(1.24102e-05 2.04231e-05 0)
(2.22196e-06 6.11904e-06 0)
(2.89103e-06 -1.61934e-05 0)
(1.25105e-05 -3.49911e-05 0)
(2.65975e-05 -4.20185e-05 0)
(3.95777e-05 -3.94149e-05 0)
(4.76081e-05 -2.93072e-05 0)
(4.80298e-05 -1.35742e-05 0)
(3.8746e-05 6.22807e-06 0)
(1.81587e-05 2.88582e-05 0)
(-1.48763e-05 5.3345e-05 0)
(-6.11269e-05 7.89374e-05 0)
(-0.000121054 0.000105057 0)
(-0.000194871 0.00013126 0)
(-0.000282592 0.000157208 0)
(-0.000384072 0.000182642 0)
(-0.000499043 0.000207366 0)
(-0.00062714 0.000231237 0)
(-0.000767923 0.000254147 0)
(-0.000920896 0.000276019 0)
(-0.00108552 0.000296803 0)
(-0.00126123 0.000316466 0)
(-0.00144744 0.000334992 0)
(-0.00164355 0.000352374 0)
(-0.00184896 0.000368619 0)
(-0.00206307 0.000383737 0)
(-0.00228526 0.000397747 0)
(-0.00251496 0.000410672 0)
(-0.00275158 0.000422537 0)
(-0.00299455 0.000433369 0)
(-0.00324331 0.000443198 0)
(-0.00349731 0.000452055 0)
(-0.00375602 0.000459969 0)
(-0.00401893 0.000466971 0)
(-0.00428554 0.000473089 0)
(-0.00455536 0.000478353 0)
(-0.00482792 0.00048279 0)
(-0.00510276 0.000486425 0)
(-0.00537943 0.000489284 0)
(-0.0056575 0.00049139 0)
(-0.00593655 0.000492762 0)
(-0.00621617 0.000493422 0)
(-0.00649595 0.000493387 0)
(-0.0067755 0.000492672 0)
(-0.00705444 0.000491292 0)
(-0.00733239 0.00048926 0)
(-0.00760898 0.000486586 0)
(-0.00788385 0.000483279 0)
(-0.00815663 0.000479349 0)
(-0.00842696 0.000474801 0)
(-0.0086945 0.00046964 0)
(-0.0089589 0.000463872 0)
(-0.0092198 0.000457498 0)
(-0.00947687 0.00045052 0)
(-0.00972975 0.000442942 0)
(-0.00997811 0.000434763 0)
(-0.0102216 0.000425985 0)
(-0.0104599 0.000416606 0)
(-0.0106926 0.000406628 0)
(-0.0109194 0.00039605 0)
(-0.01114 0.000384873 0)
(-0.0113541 0.000373096 0)
(-0.0115612 0.000360722 0)
(-0.0117611 0.000347752 0)
(-0.0119534 0.000334188 0)
(-0.0121378 0.000320033 0)
(-0.012314 0.000305293 0)
(-0.0124815 0.000289972 0)
(-0.0126402 0.000274078 0)
(-0.0127897 0.000257618 0)
(-0.0129297 0.000240603 0)
(-0.0130598 0.000223044 0)
(-0.0131799 0.000204954 0)
(-0.0132895 0.000186348 0)
(-0.0133884 0.000167243 0)
(-0.0134764 0.000147658 0)
(-0.0135531 0.000127614 0)
(-0.0136184 0.000107134 0)
(-0.013672 8.62435e-05 0)
(-0.0137136 6.497e-05 0)
(-0.0137432 4.33432e-05 0)
(-0.0137604 2.13951e-05 0)
(-0.0137652 -8.40389e-07 0)
(-0.0137575 -2.33267e-05 0)
(-0.0137369 -4.60255e-05 0)
(-0.0137036 -6.88962e-05 0)
(-0.0136574 -9.18959e-05 0)
(-0.0135982 -0.00011498 0)
(-0.013526 -0.000138102 0)
(-0.0134408 -0.000161213 0)
(-0.0133427 -0.000184263 0)
(-0.0132317 -0.0002072 0)
(-0.0131079 -0.000229972 0)
(-0.0129714 -0.000252523 0)
(-0.0128223 -0.000274798 0)
(-0.0126609 -0.000296741 0)
(-0.0124872 -0.000318294 0)
(-0.0123017 -0.0003394 0)
(-0.0121045 -0.00036 0)
(-0.0118959 -0.000380035 0)
(-0.0116763 -0.000399449 0)
(-0.011446 -0.000418182 0)
(-0.0112055 -0.000436177 0)
(-0.0109551 -0.000453379 0)
(-0.0106954 -0.00046973 0)
(-0.0104267 -0.000485179 0)
(-0.0101498 -0.000499671 0)
(-0.00986497 -0.000513156 0)
(-0.00957293 -0.000525585 0)
(-0.00927424 -0.000536912 0)
(-0.00896954 -0.000547094 0)
(-0.00865947 -0.000556089 0)
(-0.0083447 -0.00056386 0)
(-0.00802592 -0.000570372 0)
(-0.00770383 -0.000575592 0)
(-0.00737916 -0.000579494 0)
(-0.00705265 -0.000582055 0)
(-0.00672504 -0.000583253 0)
(-0.0063971 -0.000583074 0)
(-0.00606958 -0.000581505 0)
(-0.00574326 -0.00057854 0)
(-0.00541891 -0.000574176 0)
(-0.00509731 -0.000568415 0)
(-0.00477922 -0.000561264 0)
(-0.0044654 -0.000552734 0)
(-0.00415663 -0.000542842 0)
(-0.00385363 -0.000531608 0)
(-0.00355715 -0.000519058 0)
(-0.0032679 -0.000505223 0)
(-0.00298658 -0.000490138 0)
(-0.00271386 -0.000473845 0)
(-0.0024504 -0.000456388 0)
(-0.00219683 -0.000437818 0)
(-0.00195373 -0.000418191 0)
(-0.00172167 -0.000397568 0)
(-0.00150117 -0.000376015 0)
(-0.00129273 -0.000353604 0)
(-0.00109678 -0.000330412 0)
(-0.000913732 -0.000306524 0)
(-0.000743924 -0.00028203 0)
(-0.000587655 -0.000257027 0)
(-0.000445164 -0.000231622 0)
(-0.000316625 -0.00020593 0)
(-0.000202147 -0.000180076 0)
(-0.000101762 -0.000154199 0)
(-1.54236e-05 -0.00012845 0)
(5.70063e-05 -0.000103001 0)
(0.000115763 -7.80398e-05 0)
(0.000161192 -5.37839e-05 0)
(0.000193761 -3.0479e-05 0)
(0.000214077 -8.40907e-06 0)
(0.000222903 1.20962e-05 0)
(0.000221176 3.06507e-05 0)
(0.000210033 4.68011e-05 0)
(0.000190835 6.00134e-05 0)
(0.000165189 6.96631e-05 0)
(0.000134976 7.50322e-05 0)
(0.000102364 7.53272e-05 0)
(6.97681e-05 6.97405e-05 0)
(3.97983e-05 5.75845e-05 0)
(1.59117e-05 3.8591e-05 0)
(3.00741e-06 1.3727e-05 0)
(2.64232e-06 -2.28008e-05 0)
(1.08833e-05 -4.70396e-05 0)
(2.17725e-05 -5.41056e-05 0)
(2.96163e-05 -4.74716e-05 0)
(3.04228e-05 -3.01054e-05 0)
(2.13761e-05 -4.57129e-06 0)
(2.36866e-07 2.6989e-05 0)
(-3.47269e-05 6.28325e-05 0)
(-8.47823e-05 0.000101563 0)
(-0.000150802 0.000142072 0)
(-0.000233329 0.000183488 0)
(-0.000332633 0.000225126 0)
(-0.000448754 0.000266452 0)
(-0.000581552 0.000307052 0)
(-0.000730738 0.000346609 0)
(-0.000895904 0.00038488 0)
(-0.00107655 0.000421683 0)
(-0.00127211 0.000456887 0)
(-0.00148194 0.000490399 0)
(-0.00170539 0.000522156 0)
(-0.00194176 0.000552121 0)
(-0.00219034 0.00058028 0)
(-0.0024504 0.000606631 0)
(-0.00272122 0.000631188 0)
(-0.00300207 0.000653973 0)
(-0.00329223 0.000675016 0)
(-0.00359098 0.000694355 0)
(-0.00389764 0.000712028 0)
(-0.0042115 0.00072808 0)
(-0.00453191 0.000742556 0)
(-0.0048582 0.000755501 0)
(-0.00518973 0.000766961 0)
(-0.00552588 0.000776981 0)
(-0.00586605 0.000785606 0)
(-0.00620965 0.000792878 0)
(-0.00655609 0.000798837 0)
(-0.00690482 0.000803522 0)
(-0.0072553 0.000806969 0)
(-0.007607 0.000809211 0)
(-0.00795938 0.000810279 0)
(-0.00831196 0.000810201 0)
(-0.00866423 0.000809003 0)
(-0.00901571 0.000806707 0)
(-0.00936591 0.000803334 0)
(-0.00971437 0.000798901 0)
(-0.0100606 0.000793423 0)
(-0.0104042 0.000786914 0)
(-0.0107447 0.000779384 0)
(-0.0110816 0.000770843 0)
(-0.0114145 0.000761297 0)
(-0.011743 0.000750752 0)
(-0.0120666 0.000739213 0)
(-0.0123848 0.000726682 0)
(-0.0126973 0.000713161 0)
(-0.0130037 0.000698653 0)
(-0.0133034 0.000683157 0)
(-0.013596 0.000666677 0)
(-0.0138812 0.000649211 0)
(-0.0141585 0.000630761 0)
(-0.0144274 0.00061133 0)
(-0.0146876 0.00059092 0)
(-0.0149387 0.000569534 0)
(-0.0151801 0.000547177 0)
(-0.0154115 0.000523856 0)
(-0.0156325 0.000499579 0)
(-0.0158426 0.000474356 0)
(-0.0160415 0.000448199 0)
(-0.0162288 0.000421122 0)
(-0.0164041 0.000393142 0)
(-0.016567 0.000364279 0)
(-0.0167171 0.000334555 0)
(-0.0168541 0.000303995 0)
(-0.0169776 0.000272627 0)
(-0.0170873 0.000240484 0)
(-0.0171829 0.0002076 0)
(-0.0172641 0.000174013 0)
(-0.0173306 0.000139766 0)
(-0.0173821 0.000104903 0)
(-0.0174184 6.94742e-05 0)
(-0.0174393 3.35313e-05 0)
(-0.0174445 -2.86963e-06 0)
(-0.0174339 -3.96692e-05 0)
(-0.0174074 -7.68043e-05 0)
(-0.0173648 -0.000114208 0)
(-0.017306 -0.000151812 0)
(-0.017231 -0.000189542 0)
(-0.0171398 -0.000227324 0)
(-0.0170323 -0.000265076 0)
(-0.0169086 -0.00030272 0)
(-0.0167688 -0.000340169 0)
(-0.016613 -0.000377338 0)
(-0.0164413 -0.00041414 0)
(-0.0162539 -0.000450483 0)
(-0.016051 -0.000486276 0)
(-0.015833 -0.000521427 0)
(-0.0156 -0.000555841 0)
(-0.0153525 -0.000589425 0)
(-0.0150908 -0.000622085 0)
(-0.0148153 -0.000653726 0)
(-0.0145266 -0.000684255 0)
(-0.014225 -0.00071358 0)
(-0.0139112 -0.00074161 0)
(-0.0135857 -0.000768254 0)
(-0.0132491 -0.000793426 0)
(-0.012902 -0.000817041 0)
(-0.0125452 -0.000839018 0)
(-0.0121794 -0.000859278 0)
(-0.0118052 -0.000877746 0)
(-0.0114236 -0.000894353 0)
(-0.0110352 -0.000909033 0)
(-0.010641 -0.000921723 0)
(-0.0102417 -0.000932369 0)
(-0.00983823 -0.000940921 0)
(-0.00943153 -0.000947333 0)
(-0.00902249 -0.000951568 0)
(-0.00861202 -0.000953595 0)
(-0.00820108 -0.000953387 0)
(-0.00779061 -0.000950927 0)
(-0.00738156 -0.000946204 0)
(-0.00697489 -0.000939213 0)
(-0.00657156 -0.00092996 0)
(-0.00617251 -0.000918454 0)
(-0.0057787 -0.000904715 0)
(-0.00539105 -0.00088877 0)
(-0.0050105 -0.000870652 0)
(-0.00463794 -0.000850405 0)
(-0.00427426 -0.000828079 0)
(-0.00392032 -0.000803733 0)
(-0.00357696 -0.000777432 0)
(-0.00324499 -0.000749252 0)
(-0.00292516 -0.000719275 0)
(-0.00261822 -0.000687593 0)
(-0.00232485 -0.000654306 0)
(-0.0020457 -0.000619522 0)
(-0.00178137 -0.00058336 0)
(-0.0015324 -0.000545948 0)
(-0.00129927 -0.000507422 0)
(-0.00108242 -0.000467932 0)
(-0.000882184 -0.000427638 0)
(-0.000698863 -0.000386714 0)
(-0.000532658 -0.000345349 0)
(-0.000383692 -0.000303749 0)
(-0.000251995 -0.000262139 0)
(-0.000137497 -0.000220767 0)
(-4.00188e-05 -0.000179907 0)
(4.07381e-05 -0.000139867 0)
(0.000105204 -0.000100991 0)
(0.000153957 -6.36692e-05 0)
(0.000187734 -2.8345e-05 0)
(0.000207451 4.47185e-06 0)
(0.000214225 3.41949e-05 0)
(0.000209389 6.01474e-05 0)
(0.000194518 8.15499e-05 0)
(0.000171446 9.75113e-05 0)
(0.000142288 0.000107031 0)
(0.000109461 0.000109022 0)
(7.56369e-05 0.000102378 0)
(4.37315e-05 8.60956e-05 0)
(1.77184e-05 5.95055e-05 0)
(3.3986e-06 2.27495e-05 0)
(2.14007e-06 -2.81549e-05 0)
(7.91729e-06 -5.57602e-05 0)
(1.36517e-05 -6.07814e-05 0)
(1.39704e-05 -4.79437e-05 0)
(4.9518e-06 -2.10673e-05 0)
(-1.62612e-05 1.65969e-05 0)
(-5.19483e-05 6.23247e-05 0)
(-0.000103886 0.000113875 0)
(-0.000173392 0.000169421 0)
(-0.000261389 0.000227488 0)
(-0.00036846 0.000286893 0)
(-0.000494903 0.000346692 0)
(-0.000640776 0.000406136 0)
(-0.000805935 0.000464635 0)
(-0.000990072 0.000521729 0)
(-0.00119274 0.00057706 0)
(-0.0014134 0.000630358 0)
(-0.00165141 0.000681421 0)
(-0.00190608 0.000730102 0)
(-0.00217665 0.0007763 0)
(-0.00246233 0.000819953 0)
(-0.00276232 0.000861026 0)
(-0.00307578 0.00089951 0)
(-0.00340189 0.000935414 0)
(-0.00373981 0.000968763 0)
(-0.00408869 0.000999595 0)
(-0.00444773 0.00102796 0)
(-0.00481609 0.0010539 0)
(-0.00519297 0.00107748 0)
(-0.0055776 0.00109876 0)
(-0.0059692 0.0011178 0)
(-0.00636701 0.00113467 0)
(-0.0067703 0.00114942 0)
(-0.00717834 0.00116213 0)
(-0.00759045 0.00117284 0)
(-0.00800594 0.00118161 0)
(-0.00842414 0.00118851 0)
(-0.00884439 0.00119357 0)
(-0.00926607 0.00119685 0)
(-0.00968855 0.0011984 0)
(-0.0101112 0.00119824 0)
(-0.0105335 0.00119642 0)
(-0.0109548 0.00119298 0)
(-0.0113745 0.00118793 0)
(-0.0117921 0.00118131 0)
(-0.0122071 0.00117314 0)
(-0.0126187 0.00116343 0)
(-0.0130267 0.0011522 0)
(-0.0134302 0.00113948 0)
(-0.013829 0.00112526 0)
(-0.0142224 0.00110956 0)
(-0.0146098 0.00109238 0)
(-0.0149908 0.00107372 0)
(-0.0153649 0.00105361 0)
(-0.0157315 0.00103202 0)
(-0.0160901 0.00100898 0)
(-0.0164402 0.000984478 0)
(-0.0167813 0.00095852 0)
(-0.0171129 0.000931108 0)
(-0.0174344 0.000902247 0)
(-0.0177453 0.000871942 0)
(-0.0180453 0.000840199 0)
(-0.0183336 0.000807027 0)
(-0.0186099 0.000772436 0)
(-0.0188737 0.00073644 0)
(-0.0191245 0.000699054 0)
(-0.0193617 0.000660298 0)
(-0.019585 0.000620193 0)
(-0.0197939 0.000578766 0)
(-0.0199879 0.000536046 0)
(-0.0201666 0.000492068 0)
(-0.0203296 0.000446869 0)
(-0.0204764 0.000400493 0)
(-0.0206067 0.000352986 0)
(-0.0207201 0.000304402 0)
(-0.0208162 0.000254796 0)
(-0.0208948 0.000204232 0)
(-0.0209555 0.000152776 0)
(-0.020998 0.000100502 0)
(-0.021022 4.74855e-05 0)
(-0.0210274 -6.18955e-06 0)
(-0.021014 -6.04355e-05 0)
(-0.0209815 -0.00011516 0)
(-0.0209298 -0.000170265 0)
(-0.0208589 -0.000225649 0)
(-0.0207686 -0.000281204 0)
(-0.020659 -0.000336819 0)
(-0.0205301 -0.000392378 0)
(-0.0203818 -0.000447763 0)
(-0.0202144 -0.00050285 0)
(-0.0200279 -0.000557514 0)
(-0.0198225 -0.000611624 0)
(-0.0195985 -0.00066505 0)
(-0.0193561 -0.000717659 0)
(-0.0190956 -0.000769314 0)
(-0.0188175 -0.000819879 0)
(-0.018522 -0.000869218 0)
(-0.0182097 -0.000917194 0)
(-0.017881 -0.000963668 0)
(-0.0175365 -0.00100851 0)
(-0.0171768 -0.00105157 0)
(-0.0168026 -0.00109274 0)
(-0.0164144 -0.00113186 0)
(-0.0160131 -0.00116883 0)
(-0.0155994 -0.00120352 0)
(-0.0151741 -0.0012358 0)
(-0.0147381 -0.00126557 0)
(-0.0142921 -0.00129271 0)
(-0.0138373 -0.00131713 0)
(-0.0133744 -0.00133873 0)
(-0.0129045 -0.00135742 0)
(-0.0124286 -0.00137311 0)
(-0.0119477 -0.00138575 0)
(-0.0114629 -0.00139525 0)
(-0.0109752 -0.00140157 0)
(-0.0104858 -0.00140467 0)
(-0.00999574 -0.0014045 0)
(-0.00950615 -0.00140104 0)
(-0.00901816 -0.00139427 0)
(-0.00853288 -0.00138419 0)
(-0.00805146 -0.00137081 0)
(-0.007575 -0.00135414 0)
(-0.00710462 -0.00133421 0)
(-0.00664142 -0.00131105 0)
(-0.00618649 -0.00128473 0)
(-0.00574089 -0.00125531 0)
(-0.00530566 -0.00122285 0)
(-0.00488182 -0.00118744 0)
(-0.00447033 -0.00114919 0)
(-0.00407216 -0.0011082 0)
(-0.0036882 -0.00106459 0)
(-0.00331931 -0.00101851 0)
(-0.0029663 -0.000970092 0)
(-0.00262993 -0.000919502 0)
(-0.00231088 -0.000866915 0)
(-0.0020098 -0.000812518 0)
(-0.00172725 -0.000756515 0)
(-0.00146373 -0.000699125 0)
(-0.00121963 -0.000640586 0)
(-0.000995296 -0.000581153 0)
(-0.000790955 -0.000521104 0)
(-0.000606743 -0.000460742 0)
(-0.000442687 -0.000400396 0)
(-0.000298697 -0.000340427 0)
(-0.000174559 -0.000281235 0)
(-6.99204e-05 -0.000223262 0)
(1.5722e-05 -0.000167 0)
(8.30339e-05 -0.000113004 0)
(0.00013286 -6.18967e-05 0)
(0.000166239 -1.43864e-05 0)
(0.000184425 2.87243e-05 0)
(0.0001889 6.6522e-05 0)
(0.000181396 9.79718e-05 0)
(0.000163911 0.000121909 0)
(0.000138733 0.000137044 0)
(0.000108456 0.00014198 0)
(7.59569e-05 0.000135271 0)
(4.44025e-05 0.000115512 0)
(1.81396e-05 8.14827e-05 0)
(3.50055e-06 3.23345e-05 0)
(1.48679e-06 -3.16951e-05 0)
(4.04813e-06 -5.97909e-05 0)
(3.16854e-06 -6.01812e-05 0)
(-5.88905e-06 -3.86657e-05 0)
(-2.67955e-05 1.40318e-07 0)
(-6.23491e-05 5.23293e-05 0)
(-0.000114786 0.000114617 0)
(-0.000185852 0.000184277 0)
(-0.000276857 0.000259063 0)
(-0.000388722 0.000337136 0)
(-0.000522035 0.000416997 0)
(-0.000677095 0.000497433 0)
(-0.000853954 0.000577471 0)
(-0.00105246 0.000656332 0)
(-0.00127227 0.000733399 0)
(-0.00151292 0.000808189 0)
(-0.00177382 0.000880329 0)
(-0.00205427 0.000949535 0)
(-0.00235352 0.0010156 0)
(-0.00267073 0.00107837 0)
(-0.00300505 0.00113776 0)
(-0.00335559 0.0011937 0)
(-0.00372141 0.00124616 0)
(-0.0041016 0.00129517 0)
(-0.00449522 0.00134073 0)
(-0.00490133 0.00138288 0)
(-0.005319 0.0014217 0)
(-0.00574732 0.00145722 0)
(-0.00618537 0.00148954 0)
(-0.00663227 0.00151872 0)
(-0.00708714 0.00154485 0)
(-0.00754911 0.001568 0)
(-0.00801735 0.00158826 0)
(-0.00849103 0.00160571 0)
(-0.00896936 0.00162041 0)
(-0.00945155 0.00163246 0)
(-0.00993682 0.00164191 0)
(-0.0104244 0.00164884 0)
(-0.0109136 0.00165331 0)
(-0.0114038 0.00165538 0)
(-0.011894 0.00165509 0)
(-0.0123838 0.00165251 0)
(-0.0128724 0.00164767 0)
(-0.0133591 0.00164061 0)
(-0.0138434 0.00163137 0)
(-0.0143244 0.00161997 0)
(-0.0148017 0.00160645 0)
(-0.0152745 0.00159083 0)
(-0.0157423 0.00157313 0)
(-0.0162044 0.00155335 0)
(-0.0166602 0.00153152 0)
(-0.0171091 0.00150764 0)
(-0.0175504 0.00148173 0)
(-0.0179837 0.00145378 0)
(-0.0184082 0.00142381 0)
(-0.0188234 0.00139182 0)
(-0.0192286 0.00135782 0)
(-0.0196234 0.0013218 0)
(-0.020007 0.00128378 0)
(-0.0203789 0.00124376 0)
(-0.0207385 0.00120175 0)
(-0.0210853 0.00115776 0)
(-0.0214186 0.00111181 0)
(-0.0217379 0.00106391 0)
(-0.0220426 0.00101408 0)
(-0.0223322 0.000962342 0)
(-0.0226061 0.000908725 0)
(-0.0228637 0.000853262 0)
(-0.0231047 0.000795989 0)
(-0.0233284 0.00073695 0)
(-0.0235343 0.000676191 0)
(-0.023722 0.000613767 0)
(-0.023891 0.000549738 0)
(-0.0240408 0.000484169 0)
(-0.0241711 0.000417134 0)
(-0.0242814 0.000348713 0)
(-0.0243713 0.000278991 0)
(-0.0244406 0.000208061 0)
(-0.0244889 0.000136025 0)
(-0.0245158 6.29881e-05 0)
(-0.0245212 -1.09352e-05 0)
(-0.0245048 -8.56239e-05 0)
(-0.0244665 -0.000160951 0)
(-0.024406 -0.000236781 0)
(-0.0243234 -0.000312975 0)
(-0.0242184 -0.000389386 0)