/*--------------------------------*- C++ -*----------------------------------*\
  =========                 |
  \\      /  F ield         | OpenFOAM: The Open Source CFD Toolbox
   \\    /   O peration     | Website:  https://openfoam.org
    \\  /    A nd           | Version:  7
     \\/     M anipulation  |
\*---------------------------------------------------------------------------*/
FoamFile
{
    version     2.0;
    format      ascii;
    class       volScalarField;
    location    "0.3375";
    object      p;
}
// * * * * * * * * * * * * * * * * * * * * * * * * * * * * * * * * * * * * * //

dimensions      [0 2 -2 0 0 0 0];

internalField   nonuniform List<scalar> 
25600
(
1.2861e-08
-4.51822e-07
-3.70341e-06
-9.44473e-06
-1.68977e-05
-2.5382e-05
-3.4357e-05
-4.33945e-05
-5.21424e-05
-6.03062e-05
-6.76523e-05
-7.40068e-05
-7.92423e-05
-8.32613e-05
-8.59836e-05
-8.73452e-05
-8.73008e-05
-8.58218e-05
-8.28924e-05
-7.85054e-05
-7.26581e-05
-6.53509e-05
-5.65872e-05
-4.63753e-05
-3.47283e-05
-2.16611e-05
-7.18922e-06
8.67326e-06
2.59139e-05
4.45198e-05
6.44759e-05
8.57658e-05
0.000108375
0.000132291
0.000157505
0.000184006
0.000211784
0.000240828
0.000271129
0.000302679
0.000335469
0.000369493
0.000404746
0.00044122
0.000478909
0.000517802
0.000557893
0.000599177
0.000641649
0.000685301
0.000730123
0.000776105
0.000823238
0.000871512
0.000920919
0.000971445
0.00102308
0.00107581
0.00112961
0.00118448
0.00124038
0.00129731
0.00135525
0.00141416
0.00147404
0.00153484
0.00159655
0.00165914
0.00172256
0.0017868
0.00185181
0.00191756
0.00198402
0.00205114
0.00211887
0.00218718
0.00225602
0.00232533
0.00239508
0.00246519
0.00253563
0.00260633
0.00267724
0.00274829
0.00281943
0.00289058
0.00296168
0.00303267
0.00310348
0.00317404
0.00324427
0.0033141
0.00338346
0.00345228
0.00352047
0.00358798
0.00365471
0.00372059
0.00378556
0.00384952
0.00391242
0.00397418
0.00403472
0.00409397
0.00415186
0.00420833
0.0042633
0.00431672
0.00436853
0.00441866
0.00446706
0.00451367
0.00455845
0.00460136
0.00464234
0.00468137
0.0047184
0.00475342
0.00478638
0.00481728
0.0048461
0.00487282
0.00489745
0.00491997
0.00494039
0.00495873
0.00497498
0.00498918
0.00500135
0.0050115
0.00501969
0.00502594
0.00503031
0.00503284
0.00503359
0.00503262
0.00502999
0.00502579
0.00502008
0.00501297
0.00500453
0.00499487
0.0049841
0.00497234
0.00495971
0.00494635
0.00493242
0.00491808
0.00490351
0.00488892
0.00487453
0.00486059
0.00484738
0.00483522
0.00482446
0.00481548
0.00480868
0.0048044
0.00480292
0.00480392
7.92325e-07
3.08681e-07
-2.47615e-06
-7.19489e-06
-1.32827e-05
-2.02316e-05
-2.76178e-05
-3.5081e-05
-4.23195e-05
-4.90753e-05
-5.51324e-05
-6.03161e-05
-6.44911e-05
-6.75532e-05
-6.94215e-05
-7.00309e-05
-6.93288e-05
-6.72771e-05
-6.38506e-05
-5.90344e-05
-5.28214e-05
-4.52075e-05
-3.61914e-05
-2.57754e-05
-1.39663e-05
-7.73762e-07
1.37908e-05
2.97158e-05
4.69904e-05
6.56041e-05
8.55457e-05
0.000106803
0.000129363
0.000153215
0.000178349
0.000204756
0.000232427
0.000261353
0.000291527
0.000322939
0.000355581
0.000389448
0.000424532
0.000460828
0.000498329
0.000537025
0.00057691
0.000617977
0.00066022
0.000703631
0.000748203
0.000793922
0.000840779
0.000888765
0.000937869
0.000988081
0.00103939
0.00109177
0.00114521
0.00119971
0.00125522
0.00131175
0.00136926
0.00142773
0.00148715
0.00154748
0.0016087
0.00167077
0.00173367
0.00179736
0.0018618
0.00192697
0.00199283
0.00205932
0.00212642
0.00219407
0.00226223
0.00233086
0.00239989
0.00246928
0.00253898
0.00260892
0.00267905
0.00274932
0.00281965
0.00288999
0.00296026
0.00303042
0.00310038
0.00317007
0.00323944
0.0033084
0.00337688
0.00344482
0.00351213
0.00357875
0.00364459
0.0037096
0.00377369
0.00383678
0.00389881
0.00395971
0.00401941
0.00407783
0.0041349
0.00419057
0.00424476
0.00429742
0.00434849
0.00439791
0.00444562
0.00449157
0.00453573
0.00457804
0.00461846
0.00465696
0.00469351
0.00472808
0.00476064
0.00479118
0.00481968
0.00484614
0.00487054
0.0048929
0.00491321
0.00493148
0.00494773
0.00496198
0.00497425
0.00498458
0.004993
0.00499955
0.00500428
0.00500724
0.00500848
0.00500808
0.00500609
0.00500259
0.00499767
0.0049914
0.0049839
0.00497524
0.00496556
0.00495495
0.00494355
0.0049315
0.00491895
0.00490605
0.00489298
0.00487993
0.00486712
0.00485477
0.00484313
0.00483248
0.00482309
0.00481527
0.00480929
0.0048054
0.00480391
0.00480491
4.47044e-06
3.41297e-06
5.66146e-07
-3.75122e-06
-9.13188e-06
-1.5203e-05
-2.16136e-05
-2.80544e-05
-3.42656e-05
-4.00258e-05
-4.51435e-05
-4.94558e-05
-5.28275e-05
-5.51523e-05
-5.63499e-05
-5.63568e-05
-5.51197e-05
-5.25962e-05
-4.87559e-05
-4.35785e-05
-3.70517e-05
-2.91692e-05
-1.99274e-05
-9.3252e-06
2.63428e-06
1.59455e-05
3.06021e-05
4.6595e-05
6.39137e-05
8.25484e-05
0.000102491
0.000123731
0.00014626
0.000170068
0.000195146
0.000221483
0.000249072
0.000277905
0.000307975
0.000339277
0.0003718
0.000405539
0.000440485
0.000476634
0.000513979
0.000552512
0.000592226
0.000633113
0.000675165
0.000718377
0.000762739
0.000808241
0.00085487
0.000902616
0.00095147
0.00100142
0.00105246
0.00110456
0.00115771
0.00121189
0.00126708
0.00132328
0.00138044
0.00143856
0.0014976
0.00155755
0.00161836
0.00168002
0.0017425
0.00180574
0.00186974
0.00193443
0.0019998
0.0020658
0.00213239
0.00219952
0.00226714
0.00233522
0.00240369
0.0024725
0.00254161
0.00261095
0.00268047
0.00275012
0.00281982
0.00288951
0.00295914
0.00302863
0.00309792
0.00316695
0.00323563
0.00330391
0.00337171
0.00343895
0.00350557
0.00357149
0.00363665
0.00370096
0.00376436
0.00382678
0.00388813
0.00394836
0.00400739
0.00406515
0.00412159
0.00417663
0.00423021
0.00428227
0.00433275
0.0043816
0.00442877
0.0044742
0.00451785
0.00455969
0.00459966
0.00463774
0.0046739
0.0047081
0.00474033
0.00477058
0.00479882
0.00482505
0.00484927
0.00487147
0.00489167
0.00490988
0.0049261
0.00494037
0.00495271
0.00496315
0.00497173
0.00497849
0.00498348
0.00498674
0.00498835
0.00498836
0.00498685
0.00498388
0.00497954
0.00497392
0.00496711
0.00495922
0.00495034
0.00494061
0.00493013
0.00491906
0.00490753
0.00489569
0.00488372
0.0048718
0.00486012
0.00484888
0.00483832
0.00482866
0.00482016
0.00481305
0.00480756
0.00480389
0.00480242
0.00480344
1.05959e-05
8.42364e-06
5.07293e-06
7.10762e-07
-4.4298e-06
-1.00658e-05
-1.59131e-05
-2.17111e-05
-2.72336e-05
-3.22873e-05
-3.67069e-05
-4.03489e-05
-4.3089e-05
-4.4825e-05
-4.54765e-05
-4.49809e-05
-4.32869e-05
-4.03536e-05
-3.61494e-05
-3.06513e-05
-2.38431e-05
-1.57147e-05
-6.25996e-06
4.52213e-06
1.66292e-05
3.00593e-05
4.48101e-05
6.08753e-05
7.82461e-05
9.69138e-05
0.00011687
0.000138107
0.000160617
0.000184394
0.000209429
0.000235713
0.000263236
0.000291993
0.000321977
0.000353183
0.000385604
0.000419232
0.00045406
0.00049008
0.000527288
0.000565677
0.000605239
0.000645968
0.000687853
0.000730889
0.000775065
0.000820373
0.000866801
0.000914338
0.000962973
0.00101269
0.00106349
0.00111534
0.00116824
0.00122215
0.00127707
0.00133297
0.00138984
0.00144764
0.00150637
0.00156598
0.00162645
0.00168776
0.00174987
0.00181274
0.00187635
0.00194065
0.00200561
0.00207119
0.00213735
0.00220404
0.00227121
0.00233882
0.00240682
0.00247516
0.00254377
0.00261262
0.00268163
0.00275076
0.00281993
0.0028891
0.00295819
0.00302714
0.00309588
0.00316435
0.00323248
0.00330019
0.00336742
0.0034341
0.00350015
0.0035655
0.00363009
0.00369383
0.00375666
0.00381852
0.00387931
0.00393899
0.00399747
0.0040547
0.0041106
0.00416512
0.00421819
0.00426975
0.00431975
0.00436813
0.00441484
0.00445983
0.00450307
0.0045445
0.00458409
0.00462181
0.00465763
0.00469152
0.00472347
0.00475345
0.00478146
0.00480749
0.00483153
0.00485359
0.00487368
0.0048918
0.00490798
0.00492224
0.00493461
0.00494512
0.0049538
0.00496071
0.00496588
0.00496937
0.00497125
0.00497157
0.00497042
0.00496785
0.00496396
0.00495884
0.00495257
0.00494526
0.00493702
0.00492796
0.0049182
0.00490788
0.00489713
0.00488611
0.00487497
0.00486387
0.00485301
0.00484257
0.00483275
0.00482375
0.00481579
0.00480908
0.00480381
0.00480016
0.00479852
0.00479918
1.83663e-05
1.47593e-05
1.06253e-05
5.94578e-06
7.67069e-07
-4.6889e-06
-1.02003e-05
-1.55617e-05
-2.05834e-05
-2.50971e-05
-2.8958e-05
-3.20417e-05
-3.42408e-05
-3.54637e-05
-3.56336e-05
-3.46879e-05
-3.25771e-05
-2.92627e-05
-2.47149e-05
-1.89105e-05
-1.18313e-05
-3.46419e-06
6.19907e-06
1.71607e-05
2.94196e-05
4.29752e-05
5.78264e-05
7.39691e-05
9.13977e-05
0.000110106
0.000130085
0.000151328
0.000173829
0.000197582
0.000222582
0.000248819
0.000276284
0.000304973
0.000334879
0.000365997
0.000398322
0.000431845
0.000466559
0.000502459
0.000539537
0.000577789
0.000617206
0.000657782
0.000699508
0.000742376
0.000786376
0.000831499
0.000877735
0.000925072
0.000973499
0.001023
0.00107357
0.00112519
0.00117784
0.0012315
0.00128615
0.00134179
0.00139837
0.00145589
0.00151431
0.00157362
0.00163377
0.00169475
0.00175652
0.00181905
0.0018823
0.00194624
0.00201082
0.00207602
0.00214178
0.00220807
0.00227484
0.00234203
0.0024096
0.0024775
0.00254568
0.00261407
0.00268263
0.00275129
0.00282
0.00288869
0.00295729
0.00302576
0.00309401
0.00316198
0.00322961
0.00329682
0.00336354
0.00342971
0.00349525
0.0035601
0.00362418
0.00368741
0.00374974
0.00381109
0.00387139
0.00393057
0.00398856
0.0040453
0.00410073
0.00415477
0.00420738
0.00425849
0.00430805
0.004356
0.0044023
0.00444689
0.00448974
0.0045308
0.00457005
0.00460743
0.00464294
0.00467654
0.00470821
0.00473794
0.00476572
0.00479155
0.00481541
0.00483732
0.00485729
0.00487532
0.00489144
0.00490567
0.00491803
0.00492857
0.00493732
0.00494432
0.00494963
0.0049533
0.00495539
0.00495597
0.0049551
0.00495287
0.00494935
0.00494464
0.00493882
0.00493201
0.0049243
0.0049158
0.00490665
0.00489695
0.00488686
0.0048765
0.00486604
0.00485562
0.0048454
0.00483558
0.0048263
0.00481777
0.00481017
0.00480366
0.00479843
0.00479463
0.00479256
0.00479245
2.71453e-05
2.19322e-05
1.68477e-05
1.16608e-05
6.23139e-06
7.41398e-07
-4.63189e-06
-9.733e-06
-1.44137e-05
-1.85339e-05
-2.19673e-05
-2.46055e-05
-2.63571e-05
-2.71427e-05
-2.68934e-05
-2.5551e-05
-2.3069e-05
-1.94103e-05
-1.45462e-05
-8.4541e-06
-1.11654e-06
7.47956e-06
1.73428e-05
2.84781e-05
4.08875e-05
5.45711e-05
6.95272e-05
8.57525e-05
0.000103243
0.000121995
0.000142003
0.00016326
0.00018576
0.000209498
0.000234469
0.000260665
0.00028808
0.000316707
0.000346544
0.000377583
0.000409818
0.000443243
0.00047785
0.000513636
0.000550594
0.000588717
0.000627998
0.000668429
0.000710004
0.000752713
0.000796547
0.000841496
0.00088755
0.000934699
0.00098293
0.00103223
0.00108259
0.00113399
0.00118641
0.00123983
0.00129425
0.00134963
0.00140595
0.0014632
0.00152135
0.00158037
0.00164024
0.00170092
0.00176238
0.00182459
0.00188752
0.00195113
0.00201538
0.00208023
0.00214564
0.00221157
0.00227797
0.00234479
0.00241199
0.0024795
0.00254728
0.00261528
0.00268343
0.00275169
0.00281998
0.00288825
0.00295644
0.00302447
0.00309229
0.00315983
0.00322702
0.00329379
0.00336007
0.0034258
0.0034909
0.0035553
0.00361893
0.00368172
0.00374361
0.00380451
0.00386437
0.00392312
0.00398068
0.004037
0.004092
0.00414563
0.00419783
0.00424854
0.00429771
0.00434527
0.0043912
0.00443543
0.00447793
0.00451866
0.00455757
0.00459465
0.00462987
0.00466319
0.00469461
0.0047241
0.00475166
0.00477728
0.00480097
0.00482273
0.00484256
0.00486048
0.00487652
0.00489069
0.00490302
0.00491356
0.00492234
0.0049294
0.0049348
0.00493859
0.00494083
0.00494159
0.00494095
0.00493897
0.00493575
0.00493137
0.00492591
0.00491949
0.00491221
0.00490418
0.00489551
0.00488632
0.00487675
0.00486693
0.00485699
0.00484709
0.00483737
0.00482799
0.0048191
0.00481087
0.00480344
0.00479697
0.0047916
0.00478749
0.0047848
0.00478363
3.64167e-05
2.95254e-05
2.33842e-05
1.75618e-05
1.17307e-05
6.03952e-06
6.36345e-07
-4.36264e-06
-8.84403e-06
-1.26976e-05
-1.58205e-05
-1.81202e-05
-1.95172e-05
-1.99431e-05
-1.93386e-05
-1.76532e-05
-1.48454e-05
-1.08814e-05
-5.73329e-06
6.21653e-07
8.20005e-06
1.70123e-05
2.70661e-05
3.8368e-05
5.09225e-05
6.47313e-05
7.9793e-05
9.61041e-05
0.000113661
0.000132461
0.000152501
0.000173777
0.000196282
0.000220013
0.000244962
0.000271125
0.000298495
0.000327068
0.000356842
0.00038781
0.000419964
0.000453298
0.000487807
0.000523488
0.000560333
0.000598337
0.00063749
0.000677787
0.00071922
0.00076178
0.00080546
0.000850247
0.000896133
0.000943106
0.000991156
0.00104027
0.00109043
0.00114163
0.00119384
0.00124705
0.00130124
0.00135639
0.00141248
0.00146949
0.00152739
0.00158616
0.00164576
0.00170617
0.00176736
0.00182929
0.00189194
0.00195525
0.00201921
0.00208376
0.00214886
0.00221448
0.00228056
0.00234705
0.00241392
0.0024811
0.00254855
0.0026162
0.00268401
0.00275191
0.00281985
0.00288776
0.00295559
0.00302326
0.00309071
0.00315788
0.0032247
0.0032911
0.00335701
0.00342236
0.00348708
0.0035511
0.00361435
0.00367677
0.00373828
0.00379881
0.00385829
0.00391666
0.00397385
0.0040298
0.00408444
0.00413771
0.00418956
0.00423992
0.00428874
0.00433597
0.00438157
0.00442548
0.00446767
0.00450809
0.00454672
0.00458352
0.00461846
0.00465153
0.0046827
0.00471197
0.00473932
0.00476474
0.00478825
0.00480984
0.00482953
0.00484733
0.00486326
0.00487735
0.00488963
0.00490012
0.00490889
0.00491596
0.0049214
0.00492526
0.0049276
0.00492848
0.00492799
0.0049262
0.00492319
0.00491905
0.00491387
0.00490776
0.0049008
0.00489312
0.00488482
0.00487602
0.00486685
0.00485743
0.00484789
0.00483836
0.00482899
0.0048199
0.00481124
0.00480315
0.00479575
0.00478917
0.00478354
0.00477898
0.00477551
0.00477312
4.57569e-05
3.71784e-05
2.99215e-05
2.33775e-05
1.70419e-05
1.10328e-05
5.47357e-06
4.49607e-07
-3.95269e-06
-7.64884e-06
-1.05595e-05
-1.26106e-05
-1.37348e-05
-1.3873e-05
-1.29752e-05
-1.09989e-05
-7.90878e-06
-3.67542e-06
1.72641e-06
8.3184e-06
1.61158e-05
2.51279e-05
3.53617e-05
4.68234e-05
5.95174e-05
7.34466e-05
8.8611e-05
0.000105007
0.000122632
0.000141484
0.000161561
0.000182859
0.000205374
0.000229101
0.000254035
0.000280171
0.000307504
0.000336031
0.000365748
0.000396651
0.000428731
0.000461983
0.000496402
0.000531985
0.000568726
0.000606618
0.000645654
0.000685826
0.000727127
0.000769549
0.000813085
0.000857724
0.000903455
0.000950267
0.000998149
0.00104709
0.00109707
0.00114808
0.00120011
0.00125312
0.00130711
0.00136205
0.00141793
0.00147473
0.00153241
0.00159094
0.00165032
0.00171049
0.00177144
0.00183313
0.00189553
0.00195859
0.00202229
0.00208658
0.00215142
0.00221677
0.00228257
0.00234879
0.00241538
0.00248228
0.00254944
0.00261681
0.00268433
0.00275194
0.00281958
0.0028872
0.00295472
0.00302209
0.00308924
0.0031561
0.00322261
0.0032887
0.0033543
0.00341934
0.00348374
0.00354745
0.00361039
0.0036725
0.00373369
0.00379391
0.00385308
0.00391113
0.00396801
0.00402365
0.00407798
0.00413095
0.00418249
0.00423255
0.00428108
0.00432802
0.00437333
0.00441696
0.00445887
0.00449902
0.00453739
0.00457393
0.00460863
0.00464146
0.00467241
0.00470145
0.00472859
0.00475383
0.00477715
0.00479857
0.00481811
0.00483576
0.00485157
0.00486555
0.00487774
0.00488816
0.00489688
0.00490392
0.00490935
0.00491322
0.0049156
0.00491655
0.00491615
0.00491447
0.0049116
0.00490762
0.00490263
0.00489673
0.00489001
0.00488258
0.00487455
0.00486603
0.00485715
0.00484801
0.00483874
0.00482946
0.0048203
0.00481138
0.00480282
0.00479474
0.00478724
0.00478044
0.00477443
0.00476932
0.004765
0.0047613
5.48046e-05
4.45794e-05
3.61895e-05
2.88689e-05
2.19575e-05
1.55478e-05
9.74164e-06
4.59735e-06
1.77017e-07
-3.45502e-06
-6.23872e-06
-8.11766e-06
-9.03807e-06
-8.95189e-06
-7.81779e-06
-5.60077e-06
-2.27083e-06
2.19747e-06
7.82514e-06
1.46294e-05
2.26233e-05
3.18169e-05
4.22176e-05
5.38303e-05
6.66578e-05
8.07024e-05
9.59653e-05
0.000112444
0.000130137
0.000149043
0.00016916
0.000190484
0.000213011
0.000236738
0.000261661
0.000287776
0.000315078
0.000343565
0.000373232
0.000404075
0.000436088
0.000469265
0.000503602
0.000539096
0.00057574
0.00061353
0.000652457
0.000692514
0.000733694
0.000775989
0.000819393
0.000863895
0.000909484
0.000956149
0.00100388
0.00105266
0.00110248
0.00115333
0.00120518
0.00125802
0.00131183
0.00136659
0.00142228
0.00147889
0.00153637
0.00159471
0.00165388
0.00171386
0.0017746
0.00183608
0.00189826
0.00196111
0.00202459
0.00208866
0.00215328
0.00221841
0.00228399
0.00234998
0.00241634
0.00248301
0.00254994
0.00261707
0.00268435
0.00275173
0.00281913
0.00288651
0.00295379
0.00302092
0.00308783
0.00315445
0.00322071
0.00328656
0.00335191
0.0034167
0.00348086
0.00354432
0.003607
0.00366885
0.00372979
0.00378976
0.00384868
0.00390648
0.00396311
0.00401849
0.00407257
0.00412528
0.00417657
0.00422638
0.00427465
0.00432134
0.0043664
0.00440979
0.00445146
0.00449137
0.0045295
0.00456581
0.00460028
0.00463289
0.00466362
0.00469246
0.0047194
0.00474444
0.00476757
0.00478882
0.00480818
0.00482568
0.00484134
0.00485519
0.00486726
0.00487758
0.0048862
0.00489318
0.00489855
0.00490239
0.00490475
0.0049057
0.00490533
0.0049037
0.00490089
0.00489701
0.00489213
0.00488635
0.00487978
0.00487252
0.00486466
0.00485632
0.00484762
0.00483866
0.00482955
0.00482041
0.00481135
0.00480248
0.00479391
0.00478573
0.00477804
0.00477092
0.00476446
0.00475874
0.00475353
0.00474851
6.32509e-05
5.14514e-05
4.19447e-05
3.38234e-05
2.62887e-05
1.94193e-05
1.33003e-05
7.96468e-06
3.45165e-06
-1.92388e-07
-2.92195e-06
-4.69506e-06
-5.47217e-06
-5.21673e-06
-3.89661e-06
-1.48427e-06
2.04544e-06
6.71448e-06
1.25392e-05
1.95314e-05
2.77015e-05
3.70592e-05
4.76119e-05
5.93639e-05
7.23166e-05
8.64711e-05
0.000101828
0.000118387
0.000136146
0.000155105
0.000175263
0.000196615
0.000219157
0.000242888
0.000267804
0.000293902
0.000321178
0.00034963
0.000379253
0.000410043
0.000441995
0.000475104
0.000509367
0.000544779
0.000581336
0.000619031
0.000657859
0.00069781
0.000738879
0.000781059
0.000824343
0.00086872
0.000914181
0.000960713
0.00100831
0.00105695
0.00110663
0.00115732
0.00120902
0.00126171
0.00131536
0.00136996
0.00142549
0.00148193
0.00153925
0.00159742
0.00165643
0.00171623
0.0017768
0.0018381
0.00190011
0.00196279
0.00202609
0.00208998
0.00215442
0.00221937
0.00228477
0.00235059
0.00241677
0.00248326
0.00255001
0.00261696
0.00268406
0.00275126
0.00281848
0.00288568
0.00295278
0.00301973
0.00308645
0.00315289
0.00321897
0.00328463
0.00334979
0.0034144
0.00347837
0.00354164
0.00360414
0.0036658
0.00372655
0.00378632
0.00384504
0.00390265
0.00395907
0.00401426
0.00406813
0.00412064
0.00417173
0.00422133
0.0042694
0.00431588
0.00436073
0.00440391
0.00444536
0.00448507
0.00452299
0.00455909
0.00459335
0.00462575
0.00465628
0.00468491
0.00471165
0.00473649
0.00475944
0.0047805
0.00479968
0.004817
0.0048325
0.00484619
0.0048581
0.00486829
0.00487679
0.00488365
0.00488892
0.00489267
0.00489497
0.00489587
0.00489546
0.00489381
0.00489101
0.00488715
0.00488231
0.00487659
0.00487008
0.00486289
0.00485513
0.00484688
0.00483827
0.00482938
0.00482034
0.00481124
0.00480219
0.00479328
0.0047846
0.00477624
0.00476828
0.00476078
0.00475381
0.00474744
0.00474133
0.00473502
7.08448e-05
5.75549e-05
4.6967e-05
3.80445e-05
2.98644e-05
2.24965e-05
1.60158e-05
1.04347e-05
5.77218e-06
2.0577e-06
-6.76596e-07
-2.40098e-06
-3.08824e-06
-2.71279e-06
-1.25117e-06
1.31716e-06
5.01143e-06
9.84837e-06
1.58403e-05
2.29961e-05
3.13233e-05
4.08288e-05
5.15189e-05
6.33974e-05
7.64651e-05
9.07219e-05
0.000106168
0.000122803
0.000140627
0.000159638
0.000179836
0.000201216
0.000223776
0.000247513
0.000272426
0.000298511
0.000325766
0.000354187
0.000383771
0.000414514
0.000446411
0.000479459
0.000513654
0.000548993
0.000585471
0.000623081
0.000661817
0.000701673
0.000742643
0.000784719
0.000827894
0.00087216
0.000917506
0.00096392
0.00101139
0.00105991
0.00110946
0.00116003
0.0012116
0.00126415
0.00131767
0.00137214
0.00142753
0.00148383
0.00154101
0.00159905
0.00165791
0.00171757
0.001778
0.00183917
0.00190104
0.00196358
0.00202675
0.00209051
0.00215481
0.00221963
0.0022849
0.00235058
0.00241663
0.00248299
0.00254961
0.00261644
0.00268342
0.00275049
0.00281759
0.00288466
0.00295164
0.00301847
0.00308507
0.00315138
0.00321734
0.00328288
0.00334792
0.0034124
0.00347625
0.00353939
0.00360176
0.00366329
0.00372391
0.00378354
0.00384212
0.00389959
0.00395587
0.00401091
0.00406463
0.00411699
0.00416791
0.00421735
0.00426526
0.00431157
0.00435625
0.00439925
0.00444052
0.00448005
0.00451778
0.00455369
0.00458776
0.00461997
0.0046503
0.00467874
0.00470528
0.00472992
0.00475267
0.00477353
0.00479251
0.00480965
0.00482495
0.00483845
0.00485019
0.00486021
0.00486854
0.00487525
0.00488038
0.00488401
0.00488618
0.00488698
0.00488648
0.00488476
0.0048819
0.00487799
0.00487312
0.00486738
0.00486087
0.00485368
0.00484592
0.00483769
0.00482908
0.00482019
0.00481113
0.00480198
0.00479285
0.00478381
0.00477496
0.00476635
0.00475806
0.00475012
0.00474262
0.0047356
0.0047286
0.00472108
7.73846e-05
6.26894e-05
5.10631e-05
4.13539e-05
3.25253e-05
2.46391e-05
1.7763e-05
1.18955e-05
7.0401e-06
3.21067e-06
4.25202e-07
-1.29755e-06
-1.94069e-06
-1.48849e-06
7.50005e-08
2.76435e-06
6.59154e-06
1.15666e-05
1.76983e-05
2.4994e-05
3.34585e-05
4.30956e-05
5.39092e-05
6.59018e-05
7.90735e-05
9.34239e-05
0.000108953
0.000125661
0.000143546
0.000162607
0.000182844
0.000204253
0.00022683
0.000250576
0.000275488
0.000301564
0.000328801
0.000357195
0.000386745
0.000417447
0.000449296
0.000482289
0.000516424
0.000551696
0.000588103
0.000625636
0.000664291
0.000704062
0.000744942
0.000786926
0.000830006
0.000874173
0.000919418
0.000965729
0.0010131
0.00106151
0.00111095
0.00116141
0.00121287
0.00126531
0.00131872
0.00137307
0.00142836
0.00148455
0.00154162
0.00159955
0.0016583
0.00171786
0.00177819
0.00183925
0.00190103
0.00196347
0.00202654
0.00209021
0.00215442
0.00221915
0.00228433
0.00234993
0.0024159
0.00248219
0.00254873
0.00261549
0.00268239
0.00274939
0.00281642
0.00288343
0.00295035
0.00301711
0.00308365
0.0031499
0.0032158
0.00328128
0.00334626
0.00341067
0.00347445
0.00353753
0.00359983
0.00366129
0.00372183
0.00378138
0.00383988
0.00389726
0.00395345
0.00400839
0.00406201
0.00411426
0.00416508
0.0042144
0.00426218
0.00430836
0.0043529
0.00439576
0.00443688
0.00447625
0.00451382
0.00454956
0.00458345
0.00461548
0.00464562
0.00467386
0.0047002
0.00472464
0.00474718
0.00476784
0.00478661
0.00480353
0.00481863
0.00483192
0.00484345
0.00485326
0.0048614
0.00486791
0.00487286
0.00487631
0.00487832
0.00487897
0.00487832
0.00487647
0.00487349
0.00486948
0.00486451
0.00485869
0.0048521
0.00484485
0.00483702
0.00482872
0.00482004
0.00481107
0.00480192
0.00479265
0.00478337
0.00477414
0.00476505
0.00475614
0.00474748
0.00473908
0.00473103
0.00472336
0.00471552
0.00470686
8.27012e-05
6.66857e-05
5.40693e-05
4.35948e-05
3.41243e-05
2.57137e-05
1.84239e-05
1.22421e-05
7.16097e-06
3.18148e-06
3.0826e-07
-1.4509e-06
-2.088e-06
-1.59527e-06
3.6201e-08
2.81444e-06
6.7447e-06
1.18312e-05
1.80788e-05
2.54925e-05
3.40748e-05
4.38269e-05
5.475e-05
6.68443e-05
8.01093e-05
9.45447e-05
0.00011015
0.000126925
0.000144868
0.000163977
0.000184251
0.000205687
0.000228283
0.000252038
0.000276952
0.000303022
0.000330243
0.000358615
0.000388135
0.000418801
0.000450607
0.000483552
0.000517633
0.000552847
0.00058919
0.000626656
0.000665239
0.000704934
0.000745736
0.000787639
0.000830636
0.000874719
0.000919877
0.0009661
0.00101338
0.0010617
0.00111105
0.00116142
0.00121279
0.00126515
0.00131847
0.00137274
0.00142794
0.00148404
0.00154104
0.00159889
0.00165757
0.00171706
0.00177732
0.00183832
0.00190003
0.00196241
0.00202543
0.00208904
0.00215321
0.0022179
0.00228304
0.00234861
0.00241455
0.00248081
0.00254733
0.00261406
0.00268095
0.00274794
0.00281496
0.00288196
0.00294887
0.00301562
0.00308216
0.00314841
0.00321431
0.00327978
0.00334476
0.00340917
0.00347295
0.00353602
0.00359831
0.00365975
0.00372027
0.0037798
0.00383828
0.00389562
0.00395178
0.00400667
0.00406024
0.00411243
0.00416317
0.00421242
0.00426011
0.0043062
0.00435064
0.00439338
0.00443438
0.00447362
0.00451104
0.00454663
0.00458036
0.00461221
0.00464217
0.00467022
0.00469637
0.0047206
0.00474292
0.00476335
0.0047819
0.00479859
0.00481345
0.00482651
0.0048378
0.00484738
0.00485528
0.00486157
0.00486629
0.00486952
0.00487132
0.00487176
0.00487093
0.00486889
0.00486574
0.00486156
0.00485644
0.00485047
0.00484375
0.00483636
0.0048284
0.00481997
0.00481115
0.00480204
0.00479272
0.00478327
0.00477378
0.00476431
0.00475492
0.00474568
0.00473661
0.00472775
0.00471914
0.00471084
0.00470221
0.00469251
8.66479e-05
6.93971e-05
5.58427e-05
4.46298e-05
3.45291e-05
2.55961e-05
1.78861e-05
1.13744e-05
6.0441e-06
1.88709e-06
-1.1029e-06
-2.92901e-06
-3.5908e-06
-3.08703e-06
-1.41659e-06
1.42148e-06
5.42756e-06
1.06016e-05
1.69437e-05
2.44553e-05
3.31371e-05
4.29879e-05
5.40062e-05
6.61902e-05
7.95383e-05
9.40502e-05
0.000109725
0.000126562
0.000144557
0.00016371
0.000184019
0.000205482
0.000228096
0.000251862
0.000276779
0.000302844
0.000330054
0.000358406
0.0003879
0.000418534
0.000450304
0.000483207
0.000517241
0.000552403
0.00058869
0.000626097
0.000664618
0.000704248
0.000744983
0.000786818
0.000829745
0.000873756
0.000918843
0.000964994
0.0010122
0.00106045
0.00110973
0.00116003
0.00121133
0.00126362
0.00131688
0.00137109
0.00142623
0.00148229
0.00153923
0.00159703
0.00165568
0.00171513
0.00177535
0.00183633
0.00189801
0.00196038
0.00202338
0.00208699
0.00215116
0.00221585
0.002281
0.00234658
0.00241254
0.00247882
0.00254537
0.00261214
0.00267907
0.0027461
0.00281316
0.00288021
0.00294717
0.00301398
0.00308057
0.00314688
0.00321284
0.00327837
0.0033434
0.00340787
0.0034717
0.00353482
0.00359716
0.00365864
0.00371921
0.00377877
0.00383727
0.00389464
0.0039508
0.0040057
0.00405927
0.00411144
0.00416216
0.00421137
0.00425902
0.00430505
0.00434942
0.00439207
0.00443298
0.0044721
0.0045094
0.00454486
0.00457844
0.00461012
0.0046399
0.00466777
0.00469371
0.00471772
0.00473982
0.00476002
0.00477833
0.00479476
0.00480936
0.00482216
0.00483319
0.0048425
0.00485013
0.00485615
0.00486061
0.00486357
0.00486512
0.00486531
0.00486424
0.00486197
0.00485859
0.00485419
0.00484886
0.00484269
0.00483576
0.00482818
0.00482003
0.0048114
0.00480239
0.00479307
0.00478353
0.00477385
0.0047641
0.00475434
0.00474463
0.00473502
0.00472553
0.00471619
0.00470705
0.00469815
0.00468879
0.00467815
8.90974e-05
7.06936e-05
5.62545e-05
4.43353e-05
3.36226e-05
2.41745e-05
1.60446e-05
9.19608e-06
3.60196e-06
-7.52957e-07
-3.88276e-06
-5.79932e-06
-6.50985e-06
-6.01995e-06
-4.33591e-06
-1.46297e-06
2.59523e-06
7.835e-06
1.42521e-05
2.18439e-05
3.06084e-05
4.0542e-05
5.16415e-05
6.39034e-05
7.7325e-05
9.19051e-05
0.000107642
0.000124534
0.000142577
0.00016177
0.000182112
0.0002036
0.000226232
0.000250009
0.00027493
0.000300992
0.000328192
0.000356528
0.000386
0.000416607
0.000448345
0.000481212
0.000515205
0.000550323
0.000586563
0.00062392
0.000662388
0.000701963
0.000742642
0.000784421
0.000827291
0.000871246
0.000916275
0.000962369
0.00100952
0.00105772
0.00110695
0.0011572
0.00120846
0.0012607
0.00131392
0.0013681
0.00142321
0.00147924
0.00153617
0.00159396
0.00165259
0.00171203
0.00177227
0.00183325
0.00189495
0.00195734
0.00202037
0.00208402
0.00214823
0.00221296
0.00227818
0.00234382
0.00240985
0.0024762
0.00254284
0.00260969
0.00267671
0.00274384
0.00281101
0.00287816
0.00294523
0.00301215
0.00307886
0.00314528
0.00321135
0.003277
0.00334215
0.00340674
0.00347068
0.00353391
0.00359636
0.00365794
0.0037186
0.00377826
0.00383684
0.00389428
0.00395051
0.00400546
0.00405907
0.00411127
0.00416201
0.00421122
0.00425886
0.00430487
0.00434919
0.00439179
0.00443263
0.00447166
0.00450886
0.00454419
0.00457762
0.00460915
0.00463876
0.00466643
0.00469216
0.00471596
0.00473782
0.00475777
0.00477582
0.00479198
0.0048063
0.00481881
0.00482954
0.00483855
0.00484588
0.00485159
0.00485575
0.00485842
0.00485966
0.00485956
0.0048582
0.00485564
0.00485199
0.00484732
0.00484173
0.0048353
0.00482812
0.00482029
0.00481189
0.00480301
0.00479375
0.00478417
0.00477436
0.0047644
0.00475435
0.00474426
0.0047342
0.0047242
0.00471429
0.00470448
0.00469482
0.00468536
0.00467533
0.00466385
8.9941e-05
7.04603e-05
5.51893e-05
4.25996e-05
3.12992e-05
2.13485e-05
1.28023e-05
5.61518e-06
-2.50176e-07
-4.81657e-06
-8.10315e-06
-1.01279e-05
-1.09063e-05
-1.04516e-05
-8.77557e-06
-5.88847e-06
-1.79832e-06
3.48771e-06
9.96201e-06
1.76178e-05
2.64494e-05
3.64511e-05
4.76185e-05
5.99471e-05
7.34328e-05
8.80728e-05
0.000103865
0.000120805
0.000138891
0.00015812
0.000178492
0.000200003
0.000222653
0.000246441
0.000271366
0.000297426
0.000324618
0.000352941
0.000382395
0.000412979
0.000444691
0.000477527
0.000511486
0.000546567
0.000582767
0.000620082
0.000658508
0.000698039
0.000738674
0.000780408
0.000823235
0.000867146
0.000912134
0.000958189
0.0010053
0.00105346
0.00110266
0.00115289
0.00120412
0.00125635
0.00130956
0.00136373
0.00141884
0.00147487
0.00153181
0.00158962
0.00164827
0.00170775
0.00176802
0.00182905
0.00189081
0.00195326
0.00201637
0.00208009
0.00214439
0.00220922
0.00227454
0.00234029
0.00240644
0.00247292
0.00253969
0.00260668
0.00267385
0.00274113
0.00280846
0.00287577
0.00294301
0.0030101
0.00307699
0.00314359
0.00320983
0.00327566
0.00334099
0.00340575
0.00346986
0.00353326
0.00359587
0.00365762
0.00371843
0.00377822
0.00383694
0.00389451
0.00395085
0.0040059
0.0040596
0.00411188
0.00416268
0.00421193
0.0042596
0.00430561
0.00434993
0.0043925
0.00443329
0.00447225
0.00450936
0.00454458
0.00457788
0.00460926
0.00463869
0.00466617
0.00469169
0.00471526
0.00473688
0.00475656
0.00477432
0.0047902
0.00480421
0.0048164
0.00482681
0.00483548
0.00484248
0.00484785
0.00485167
0.00485399
0.00485489
0.00485446
0.00485275
0.00484987
0.00484589
0.00484091
0.004835
0.00482826
0.00482077
0.00481264
0.00480394
0.00479477
0.0047852
0.00477532
0.0047652
0.00475491
0.00474453
0.00473409
0.00472366
0.00471326
0.00470292
0.00469266
0.00468251
0.00467253
0.0046619
0.00464968
8.90855e-05
6.85992e-05
5.25457e-05
3.93222e-05
2.74621e-05
1.70255e-05
8.06981e-06
5.45357e-07
-5.59376e-06
-1.03783e-05
-1.38324e-05
-1.59796e-05
-1.68422e-05
-1.644e-05
-1.47893e-05
-1.19051e-05
-7.80006e-06
-2.48481e-06
4.03023e-06
1.17347e-05
2.06193e-05
3.06761e-05
4.18996e-05
5.42843e-05
6.78245e-05
8.25163e-05
9.8356e-05
0.000115339
0.000133462