/*--------------------------------*- C++ -*----------------------------------*\
  =========                 |
  \\      /  F ield         | OpenFOAM: The Open Source CFD Toolbox
   \\    /   O peration     | Website:  https://openfoam.org
    \\  /    A nd           | Version:  7
     \\/     M anipulation  |
\*---------------------------------------------------------------------------*/
FoamFile
{
    version     2.0;
    format      ascii;
    class       volScalarField;
    location    "0.0625";
    object      p;
}
// * * * * * * * * * * * * * * * * * * * * * * * * * * * * * * * * * * * * * //

dimensions      [0 2 -2 0 0 0 0];

internalField   nonuniform List<scalar> 
25600
(
-4.35105e-07
0.000116698
0.000155539
6.10832e-05
-0.000176582
-0.000553427
-0.0010593
-0.00167977
-0.00239992
-0.00320447
-0.00407854
-0.00500851
-0.0059812
-0.00698425
-0.00800594
-0.00903569
-0.0100642
-0.0110834
-0.0120862
-0.0130655
-0.0140152
-0.0149298
-0.0158043
-0.0166338
-0.0174144
-0.0181427
-0.0188157
-0.0194315
-0.0199868
-0.0204804
-0.0209099
-0.021274
-0.0215715
-0.0218017
-0.0219639
-0.0220569
-0.0220806
-0.0220348
-0.0219195
-0.0217348
-0.0214807
-0.0211572
-0.0207649
-0.0203049
-0.0197776
-0.0191828
-0.0185203
-0.0177906
-0.0169942
-0.0161322
-0.0152067
-0.0142189
-0.0131699
-0.0120607
-0.0108926
-0.00966694
-0.00838493
-0.00704788
-0.00565736
-0.00421501
-0.00272242
-0.00118135
0.000406221
0.00203817
0.00371236
0.0054266
0.00717856
0.00896583
0.0107861
0.0126372
0.0145168
0.0164224
0.0183516
0.0203019
0.022271
0.0242561
0.0262548
0.0282645
0.0302827
0.0323068
0.034334
0.0363615
0.038387
0.0404076
0.0424207
0.0444231
0.0464121
0.0483851
0.0503398
0.0522739
0.0541851
0.0560709
0.0579288
0.0597561
0.0615502
0.0633081
0.0650273
0.0667055
0.0683404
0.0699299
0.0714718
0.0729641
0.0744047
0.0757915
0.0771228
0.0783964
0.0796104
0.080763
0.0818528
0.0828779
0.0838369
0.084728
0.0855497
0.0863007
0.0869799
0.0875865
0.0881196
0.0885785
0.0889625
0.0892712
0.0895048
0.0896631
0.0897465
0.0897552
0.0896899
0.0895516
0.0893417
0.0890615
0.0887128
0.0882975
0.0878177
0.0872754
0.0866733
0.0860142
0.0853015
0.0845387
0.0837298
0.0828791
0.081991
0.0810703
0.0801221
0.0791521
0.0781664
0.0771717
0.076175
0.0751835
0.0742055
0.07325
0.0723273
0.0714482
0.0706244
0.069868
0.0691916
0.068609
0.068134
0.0677798
0.0675559
0.0674657
0.067501
0.0676134
-0.000104444
3.28024e-06
9.59669e-06
-0.000104692
-0.000336982
-0.000685857
-0.00114492
-0.00170453
-0.00235336
-0.00307897
-0.00386906
-0.00471146
-0.00559485
-0.0065081
-0.00744106
-0.00838387
-0.00932781
-0.0102656
-0.0111899
-0.0120944
-0.012973
-0.0138207
-0.0146322
-0.0154029
-0.0161286
-0.0168063
-0.0174329
-0.0180055
-0.0185221
-0.0189804
-0.0193787
-0.0197151
-0.0199884
-0.020198
-0.0203427
-0.0204218
-0.0204345
-0.0203806
-0.0202603
-0.0200737
-0.0198208
-0.0195013
-0.0191156
-0.0186639
-0.0181469
-0.0175648
-0.0169181
-0.016207
-0.0154319
-0.0145935
-0.0136934
-0.0127331
-0.0117139
-0.0106367
-0.00950291
-0.0083135
-0.00706965
-0.0057727
-0.00442423
-0.0030258
-0.00157894
-8.53392e-05
0.00145307
0.00303428
0.0046563
0.00631699
0.00801407
0.00974526
0.0115084
0.0133014
0.015122
0.0169677
0.0188362
0.0207252
0.0226322
0.0245547
0.0264904
0.0284368
0.0303915
0.0323518
0.034315
0.0362786
0.0382402
0.0401971
0.0421467
0.044086
0.0460123
0.0479232
0.0498164
0.0516896
0.0535407
0.0553673
0.0571668
0.0589368
0.0606744
0.0623769
0.0640418
0.0656671
0.0672506
0.0687902
0.0702837
0.0717291
0.0731245
0.0744679
0.0757575
0.0769914
0.0781677
0.0792847
0.0803411
0.0813353
0.0822657
0.0831307
0.083929
0.0846595
0.0853211
0.0859131
0.0864347
0.0868852
0.087264
0.0875711
0.0878064
0.0879701
0.0880622
0.0880831
0.0880335
0.0879147
0.0877278
0.0874743
0.087156
0.0867746
0.0863322
0.0858309
0.0852733
0.0846622
0.0840009
0.0832928
0.082542
0.0817526
0.0809289
0.0800755
0.0791974
0.0783
0.0773896
0.0764724
0.0755548
0.0746437
0.0737469
0.072873
0.0720314
0.0712322
0.0704854
0.0698016
0.0691915
0.0686662
0.0682365
0.0679119
0.0676983
0.067597
0.0676115
0.0677266
-0.000120086
-1.79467e-06
-4.88798e-06
-0.000128135
-0.000356196
-0.000686636
-0.00111469
-0.00163263
-0.00223087
-0.00289955
-0.00362795
-0.0044053
-0.00522106
-0.00606565
-0.00692973
-0.00780467
-0.00868218
-0.00955514
-0.010417
-0.0112617
-0.0120831
-0.0128764
-0.0136368
-0.0143595
-0.0150407
-0.0156768
-0.0162651
-0.0168023
-0.017287
-0.0177161
-0.0180886
-0.0184023
-0.0186557
-0.0188479
-0.0189782
-0.0190455
-0.019049
-0.0189883
-0.0188636
-0.018675
-0.0184229
-0.0181069
-0.0177269
-0.0172829
-0.0167751
-0.0162039
-0.0155703
-0.0148747
-0.0141173
-0.0132989
-0.0124205
-0.0114835
-0.0104892
-0.00943908
-0.00833406
-0.00717514
-0.00596341
-0.0047003
-0.00338728
-0.00202581
-0.000617362
0.000836336
0.00233342
0.00387203
0.00545023
0.0070659
0.00871678
0.0104008
0.0121158
0.0138599
0.0156307
0.017426
0.0192435
0.0210809
0.0229357
0.0248056
0.0266883
0.0285814
0.0304825
0.0323891
0.0342984
0.0362083
0.0381162
0.0400196
0.0419158
0.0438019
0.0456754
0.047534
0.0493754
0.0511974
0.0529978
0.0547745
0.056525
0.0582467
0.0599369
0.0615929
0.0632124
0.0647934
0.0663339
0.0678316
0.0692844
0.0706905
0.0720481
0.0733551
0.0746099
0.0758106
0.0769554
0.0780428
0.0790714
0.0800398
0.0809463
0.0817895
0.0825683
0.0832816
0.0839286
0.0845084
0.0850203
0.0854636
0.0858381
0.0861435
0.0863801
0.0865479
0.0866469
0.0866777
0.086641
0.086538
0.08637
0.0861384
0.085845
0.0854914
0.0850796
0.0846119
0.0840907
0.0835189
0.0828995
0.0822362
0.0815327
0.0807931
0.0800215
0.0792223
0.0784003
0.0775612
0.0767106
0.0758546
0.0749991
0.0741505
0.0733164
0.0725048
0.0717247
0.0709851
0.070295
0.0696636
0.0691002
0.0686145
0.0682155
0.0679115
0.0677074
0.067606
0.0676224
0.0677632
-7.73686e-06
0.000110912
0.000100236
-2.95798e-05
-0.000257107
-0.000577164
-0.000985476
-0.00147503
-0.00203795
-0.0026651
-0.00334727
-0.00407531
-0.00483906
-0.00562992
-0.00643918
-0.00725927
-0.00808279
-0.00890281
-0.00971335
-0.0105081
-0.011282
-0.0120299
-0.0127471
-0.0134293
-0.0140726
-0.0146737
-0.0152293
-0.0157369
-0.0161937
-0.0165981
-0.0169483
-0.0172423
-0.0174788
-0.0176563
-0.017774
-0.0178311
-0.0178268
-0.0177605
-0.0176323
-0.0174423
-0.0171906
-0.0168772
-0.016502
-0.0160649
-0.0155658
-0.015005
-0.0143831
-0.0137009
-0.0129588
-0.0121577
-0.0112985
-0.0103823
-0.0094103
-0.00838394
-0.00730422
-0.00617209
-0.00498871
-0.00375544
-0.00247364
-0.00114467
0.000229941
0.00164847
0.00310918
0.00461029
0.00614988
0.00772581
0.00933598
0.0109784
0.0126511
0.0143521
0.016079
0.0178298
0.0196024
0.0213942
0.023203
0.0250265
0.0268625
0.0287086
0.0305625
0.0324215
0.0342834
0.0361458
0.0380064
0.0398626
0.0417116
0.0435508
0.0453777
0.0471901
0.0489859
0.0507627
0.0525186
0.0542514
0.0559586
0.0576377
0.0592861
0.0609013
0.062481
0.0640233
0.065526
0.0669869
0.0684041
0.0697757
0.0711001
0.0723753
0.0735996
0.0747713
0.0758886
0.0769501
0.0779545
0.0789002
0.0797858
0.0806099
0.0813715
0.0820699
0.082704
0.083273
0.0837762
0.0842132
0.0845836
0.0848875
0.0851248
0.0852958
0.0854006
0.0854397
0.0854139
0.0853245
0.0851726
0.0849597
0.0846875
0.0843576
0.0839721
0.0835331
0.0830429
0.0825043
0.0819206
0.0812952
0.0806317
0.0799338
0.0792057
0.0784514
0.077676
0.0768847
0.076083
0.0752765
0.0744707
0.0736718
0.0728869
0.0721239
0.0713909
0.0706963
0.070048
0.0694543
0.0689236
0.0684645
0.0680855
0.0677944
0.0675966
0.0674964
0.0675161
0.0676719
0.000234686
0.000334438
0.00030781
0.000167039
-6.4207e-05
-0.000379689
-0.000775282
-0.00124421
-0.00177992
-0.00237422
-0.00301909
-0.00370579
-0.00442609
-0.00517122
-0.00593373
-0.00670611
-0.00748179
-0.00825488
-0.00901938
-0.00976978
-0.0105005
-0.0112069
-0.0118846
-0.0125297
-0.013138
-0.0137066
-0.0142321
-0.0147119
-0.015143
-0.015524
-0.0158529
-0.0161283
-0.0163485
-0.0165119
-0.0166177
-0.0166648
-0.0166528
-0.0165812
-0.01645
-0.016259
-0.0160079
-0.0156968
-0.0153258
-0.0148947
-0.0144038
-0.0138531
-0.0132428
-0.0125736
-0.0118463
-0.0110618
-0.0102208
-0.00932443
-0.00837401
-0.00737063
-0.00631523
-0.00520887
-0.00405277
-0.00284818
-0.00159634
-0.000298586
0.00104348
0.00242822
0.00385403
0.00531917
0.00682163
0.00835937
0.00993046
0.011533
0.0131651
0.0148246
0.0165095
0.0182177
0.019947
0.0216951
0.0234596
0.0252385
0.0270296
0.0288306
0.030639
0.0324523
0.0342685
0.0360853
0.0379004
0.0397111
0.0415147
0.0433086
0.0450907
0.0468588
0.0486106
0.050344
0.0520571
0.0537477
0.0554133
0.0570515
0.0586598
0.0602359
0.0617775
0.0632827
0.0647492
0.0661749
0.067558
0.0688968
0.0701895
0.0714344
0.0726297
0.0737738
0.074865
0.0759019
0.0768831
0.0778073
0.078673
0.079479
0.0802244
0.0809085
0.0815302
0.0820889
0.0825838
0.0830147
0.0833813
0.0836835
0.0839215
0.0840953
0.0842053
0.084252
0.0842364
0.0841596
0.0840227
0.0838272
0.0835746
0.0832669
0.0829057
0.0824932
0.0820318
0.0815241
0.0809734
0.0803829
0.079756
0.0790963
0.0784077
0.0776943
0.076961
0.0762126
0.0754545
0.0746918
0.0739297
0.0731741
0.0724319
0.0717103
0.071017
0.0703594
0.0697449
0.0691809
0.068675
0.068235
0.067869
0.0675846
0.0673875
0.067283
0.0672955
0.0674443
0.000602134
0.000665674
0.000613837
0.000456597
0.000216213
-0.000101018
-0.000490285
-0.000946146
-0.00146216
-0.00203163
-0.00264718
-0.00330092
-0.00398539
-0.0046927
-0.00541556
-0.00614766
-0.00688254
-0.00761463
-0.00833886
-0.00904984
-0.00974233
-0.0104119
-0.0110543
-0.0116653
-0.0122419
-0.0127804
-0.0132782
-0.013732
-0.0141397
-0.0144989
-0.0148079
-0.0150658
-0.0152704
-0.0154204
-0.0155148
-0.0155525
-0.015533
-0.015456
-0.0153215
-0.0151293
-0.0148791
-0.0145705
-0.0142033
-0.0137777
-0.0132941
-0.0127525
-0.0121533
-0.0114968
-0.0107838
-0.0100149
-0.00919122
-0.0083139
-0.00738405
-0.0064026
-0.00537046
-0.00428881
-0.00315883
-0.00198162
-0.000758377
0.000509472
0.00182039
0.00317288
0.00456539
0.00599613
0.00746311
0.0089644
0.0104982
0.0120627
0.0136559
0.0152758
0.0169206
0.0185881
0.0202761
0.0219823
0.0237045
0.0254408
0.0271889
0.0289466
0.0307114
0.0324811
0.0342536
0.0360269
0.0377982
0.0395652
0.0413253
0.0430761
0.0448154
0.046541
0.0482508
0.0499427
0.0516148
0.0532651
0.054891
0.0564901
0.0580602
0.0595991
0.0611044
0.0625742
0.0640062
0.0653985
0.0667492
0.0680568
0.0693196
0.0705358
0.0717037
0.0728217
0.0738882
0.0749018
0.0758612
0.076765
0.0776119
0.0784008
0.0791311
0.0798017
0.0804118
0.0809606
0.0814477
0.0818729
0.0822358
0.0825364
0.0827747
0.0829511
0.0830658
0.0831196
0.0831133
0.083048
0.082925
0.0827454
0.082511
0.0822236
0.0818848
0.0814967
0.0810615
0.0805821
0.0800614
0.0795026
0.0789089
0.0782837
0.0776306
0.0769538
0.0762579
0.0755476
0.0748277
0.0741032
0.073379
0.0726606
0.0719545
0.0712676
0.0706067
0.0699789
0.0693907
0.0688488
0.0683602
0.0679322
0.0675724
0.067288
0.0670847
0.0669685
0.0669623
0.067084
0.00108384
0.00109813
0.00101239
0.000832918
0.000577282
0.000252485
-0.000137392
-0.000587165
-0.00109102
-0.0016434
-0.00223716
-0.00286563
-0.00352154
-0.0041982
-0.00488883
-0.00558719
-0.00628772
-0.00698501
-0.00767455
-0.00835111
-0.00901039
-0.00964753
-0.0102586
-0.0108398
-0.0113879
-0.0118993
-0.0123717
-0.0128019
-0.013188
-0.0135273
-0.0138184
-0.0140597
-0.0142499
-0.0143874
-0.0144711
-0.0145001
-0.0144737
-0.0143917
-0.0142539
-0.0140602
-0.0138104
-0.013504
-0.0131406
-0.0127203
-0.0122435
-0.0117103
-0.0111212
-0.0104766
-0.00977702
-0.00902311
-0.00821587
-0.00735654
-0.00644609
-0.00548533
-0.00447527
-0.00341707
-0.00231179
-0.0011605
3.55985e-05
0.00127506
0.00255646
0.00387843
0.00523937
0.00663744
0.00807077
0.00953756
0.011036
0.0125644
0.0141207
0.0157032
0.01731
0.0189388
0.0205876
0.022254
0.0239361
0.0256319
0.0273392
0.0290557
0.0307792
0.0325075
0.0342387
0.0359705
0.0377003
0.0394257
0.0411446
0.0428545
0.0445532
0.0462386
0.0479086
0.0495611
0.0511945
0.0528065
0.0543947
0.0559569
0.0574909
0.0589946
0.0604656
0.0619019
0.0633014
0.064662
0.0659823
0.0672606
0.0684953
0.0696845
0.0708266
0.0719202
0.0729635
0.0739552
0.0748941
0.0757788
0.0766082
0.0773812
0.0780971
0.0787552
0.0793544
0.079894
0.0803739
0.0807938
0.0811532
0.0814522
0.0816908
0.0818695
0.0819885
0.0820487
0.0820508
0.0819959
0.0818853
0.0817203
0.0815024
0.0812333
0.0809148
0.0805485
0.080137
0.0796829
0.0791891
0.0786587
0.0780945
0.0774997
0.076878
0.0762334
0.0755701
0.0748928
0.0742059
0.073514
0.0728219
0.0721346
0.0714582
0.0707992
0.070164
0.0695588
0.0689896
0.0684626
0.0679844
0.0675617
0.0672014
0.0669102
0.0666936
0.0665577
0.0665223
0.066601
0.00166677
0.00162208
0.00149475
0.00128726
0.00101125
0.000672697
0.000276106
-0.000173945
-0.000672662
-0.00121437
-0.00179356
-0.00240347
-0.00303773
-0.00368994
-0.00435433
-0.00502522
-0.00569724
-0.00636534
-0.00702513
-0.00767234
-0.00830241
-0.00891129
-0.00949508
-0.01005
-0.0105727
-0.0110604
-0.0115097
-0.0119187
-0.0122849
-0.0126061
-0.0128809
-0.0131073
-0.0132842
-0.0134101
-0.0134838
-0.0135047
-0.0134721
-0.0133855
-0.0132447
-0.0130497
-0.0128
-0.0124953
-0.0121353
-0.0117202
-0.0112499
-0.0107246
-0.010145
-0.00951142
-0.00882444
-0.00808464
-0.00729304
-0.0064507
-0.0055585
-0.00461728
-0.00362811
-0.00259207
-0.00151012
-0.000383329
0.000787011
0.00199958
0.0032531
0.00454619
0.00587722
0.00724435
0.00864582
0.01008
0.011545
0.0130391
0.0145606
0.0161076
0.0176783
0.0192705
0.0208819
0.0225107
0.0241548
0.0258123
0.0274808
0.0291582
0.0308425
0.0325316
0.0342236
0.035916
0.0376063
0.0392925
0.0409723
0.0426434
0.0443037
0.045951
0.0475833
0.0491987
0.0507954
0.0523712
0.0539238
0.0554511
0.056951
0.0584214
0.0598599
0.0612646
0.0626332
0.0639641
0.0652557
0.0665065
0.0677147
0.0688785
0.0699964
0.0710669
0.0720885
0.0730597
0.0739793
0.0748463
0.0756593
0.0764174
0.0771201
0.0777664
0.0783554
0.0788867
0.0793599
0.0797748
0.080131
0.0804285
0.0806674
0.080848
0.080971
0.0810368
0.0810464
0.0810009
0.0809014
0.0807495
0.0805464
0.0802939
0.0799933
0.0796465
0.079256
0.0788244
0.0783546
0.0778491
0.0773109
0.0767429
0.0761486
0.0755318
0.0748967
0.0742476
0.0735888
0.0729244
0.0722588
0.071597
0.0709445
0.0703074
0.0696916
0.0691026
0.068546
0.0680274
0.0675532
0.0671296
0.0667626
0.0664582
0.0662216
0.066059
0.065985
0.0660085
0.00233738
0.00222672
0.00205234
0.00181101
0.00150922
0.00115215
0.000743283
0.000286977
-0.000212297
-0.000750037
-0.00132036
-0.00191767
-0.00253628
-0.00317009
-0.00381366
-0.00446253
-0.00511112
-0.00575509
-0.00639014
-0.00701223
-0.00761734
-0.00820173
-0.00876149
-0.00929322
-0.00979391
-0.0102603
-0.0106894
-0.0110794
-0.0114278
-0.0117327
-0.0119923
-0.0122053
-0.0123703
-0.0124857
-0.0125504
-0.0125639
-0.0125254
-0.0124347
-0.0122913
-0.0120952
-0.0118457
-0.0115426
-0.0111858
-0.0107753
-0.0103111
-0.00979347
-0.00922283
-0.00859967
-0.00792449
-0.00719804
-0.00642123
-0.00559489
-0.00471987
-0.00379711
-0.00282766
-0.00181248
-0.00075253
0.000351062
0.00149703
0.00268422
0.00391144
0.00517723
0.00647994
0.00781785
0.00918926
0.0105925
0.0120259
0.0134876
0.0149761
0.0164897
0.0180262
0.0195836
0.0211598
0.0227529
0.024361
0.0259821
0.0276138
0.0292543
0.0309015
0.0325535
0.0342082
0.0358632
0.0375162
0.0391651
0.040808
0.0424425
0.0440664
0.0456777
0.0472744
0.0488547
0.0504167
0.0519583
0.0534773
0.0549716
0.0564393
0.0578783
0.0592861
0.0606608
0.0620004
0.0633033
0.0645679
0.0657927
0.0669759
0.0681158
0.0692109
0.0702598
0.071261
0.072213
0.0731147
0.073965
0.0747628
0.0755072
0.0761975
0.0768328
0.0774125
0.077936
0.0784032
0.0788135
0.0791668
0.0794628
0.0797019
0.0798844
0.0800108
0.0800816
0.0800978
0.0800606
0.0799712
0.079831
0.0796411
0.079403
0.0791183
0.0787887
0.0784166
0.0780048
0.0775559
0.0770723
0.0765567
0.0760119
0.0754412
0.0748483
0.0742372
0.0736119
0.0729764
0.0723346
0.0716907
0.0710491
0.0704152
0.0697945
0.0691925
0.068614
0.0680641
0.0675483
0.0670724
0.066642
0.0662625
0.065939
0.0656767
0.0654811
0.0653612
0.0653204
0.003083
0.00290196
0.00267596
0.00239664
0.00206399
0.00168334
0.00125726
0.00078972
0.000284269
-0.000254393
-0.000821518
-0.00141188
-0.00201983
-0.00264036
-0.0032685
-0.00389975
-0.00452978
-0.00515424
-0.00576895
-0.00637017
-0.00695428
-0.0075176
-0.0080566
-0.00856817
-0.00904953
-0.0094972
-0.0099089
-0.010282
-0.0106146
-0.010905
-0.011151
-0.0113519
-0.0115061
-0.0116122
-0.0116691
-0.011676
-0.0116324
-0.0115378
-0.011392
-0.0111949
-0.0109459
-0.0106446
-0.0102908
-0.00988463
-0.00942619
-0.00891574
-0.00835364
-0.00774031
-0.00707635
-0.00636253
-0.00559961
-0.00478832
-0.00392951
-0.00302418
-0.00207326
-0.00107769
-3.85104e-05
0.00104316
0.0021662
0.00332952
0.00453194
0.00577197
0.00704798
0.00835835
0.00970146
0.0110756
0.0124791
0.0139103
0.0153678
0.0168496
0.0183538
0.0198784
0.0214213
0.0229808
0.0245548
0.0261414
0.0277383
0.0293439
0.0309562
0.0325731
0.0341924
0.0358119
0.0374296
0.0390435
0.0406515
0.0422513
0.0438409
0.0454182
0.0469814
0.0485286
0.0500579
0.0515672
0.0530544
0.0545177
0.0559551
0.0573644
0.0587433
0.0600898
0.0614021
0.0626786
0.0639178
0.0651182
0.0662779
0.0673953
0.068469
0.0694977
0.0704798
0.0714139
0.0722989
0.0731338
0.0739175
0.0746491
0.0753279
0.0759531
0.0765242
0.0770407
0.0775022
0.0779084
0.0782589
0.0785536
0.0787928
0.0789769
0.0791063
0.0791815
0.0792036
0.0791738
0.0790933
0.0789632
0.0787848
0.0785594
0.0782884
0.0779737
0.0776178
0.0772231
0.0767923
0.0763275
0.0758312
0.0753062
0.0747555
0.0741828
0.0735916
0.0729858
0.0723693
0.0717455
0.0711185
0.0704924
0.0698723
0.0692631
0.0686696
0.0680963
0.067548
0.0670298
0.0665471
0.0661048
0.0657076
0.06536
0.0650668
0.0648332
0.0646618
0.0645505
0.00389166
0.00363751
0.00335673
0.00303617
0.00266853
0.00225946
0.00181199
0.00132846
0.000812352
0.00026787
-0.000300917
-0.000888658
-0.00149105
-0.00210293
-0.00271996
-0.00333831
-0.00395402
-0.00456286
-0.00516128
-0.00574569
-0.00631246
-0.00685819
-0.00737959
-0.00787388
-0.00833831
-0.00877003
-0.00916636
-0.00952481
-0.0098437
-0.0101211
-0.0103555
-0.0105457
-0.0106903
-0.0107883
-0.0108383
-0.0108396
-0.0107914
-0.0106935
-0.0105457
-0.0103477
-0.0100992
-0.00979975
-0.00944906
-0.00904712
-0.00859417
-0.00809053
-0.00753648
-0.00693249
-0.00627923
-0.00557735
-0.00482749
-0.00403036
-0.00318685
-0.0022979
-0.0013644
-0.000387287
0.000632344
0.00169339
0.00279489
0.00393583
0.00511492
0.00633068
0.0075816
0.00886613
0.0101826
0.0115293
0.0129047
0.0143073
0.0157355
0.0171875
0.0186613
0.0201548
0.0216665
0.0231942
0.0247361
0.0262901
0.0278544
0.0294271
0.0310063
0.03259
0.0341759
0.0357621
0.0373465
0.0389274
0.0405025
0.0420697
0.0436269
0.0451722
0.0467039
0.0482199
0.0497184
0.0511973
0.0526548
0.054089
0.055498
0.0568793
0.0582309
0.0595508
0.0608376
0.0620894
0.0633048
0.0644822
0.0656198
0.0667162
0.06777
0.0687797
0.069744
0.0706614
0.0715308
0.0723513
0.0731219
0.0738416
0.0745098
0.0751258
0.075689
0.0761989
0.0766552
0.0770575
0.0774054
0.0776989
0.0779382
0.0781237
0.0782556
0.0783347
0.078362
0.0783386
0.0782658
0.0781446
0.077976
0.0777614
0.0775023
0.0772004
0.0768583
0.0764783
0.0760628
0.0756139
0.0751339
0.0746253
0.0740913
0.0735351
0.0729602
0.07237
0.0717681
0.0711581
0.0705435
0.0699287
0.069318
0.0687157
0.068126
0.0675532
0.0670017
0.0664765
0.0659824
0.0655236
0.0651043
0.0647281
0.0643998
0.0641242
0.0638973
0.0637114
0.00475274
0.00442363
0.00408595
0.0037213
0.00331608
0.00287491
0.00240148
0.00189806
0.00136738
0.000812542
0.000238309
-0.000351548
-0.000952499
-0.00155995
-0.00217023
-0.0027798
-0.003385
-0.00398219
-0.00456797
-0.00513883
-0.0056916
-0.0062231
-0.00673005
-0.00720985
-0.00765995
-0.00807812
-0.00846107
-0.00880692
-0.00911395
-0.0093801
-0.00960448
-0.00978553
-0.00992207
-0.0100129
-0.0100569
-0.0100532
-0.0100012
-0.00990064
-0.0097512
-0.00955268
-0.00930481
-0.00900716
-0.00865943
-0.00826166
-0.00781407
-0.00731688
-0.00677047
-0.0061754
-0.00553231
-0.00484168
-0.00410408
-0.0033203
-0.00249123
-0.00161766
-0.000700475
0.000259259
0.00126048
0.00230222
0.00338358
0.00450349
0.00566067
0.00685366
0.00808106
0.00934132
0.0106327
0.0119537
0.0133028
0.0146786
0.0160793
0.0175032
0.0189483
0.0204129
0.0218952
0.0233931
0.0249048
0.0264282
0.0279617
0.0295036
0.0310518
0.0326042
0.0341587
0.0357135
0.0372668
0.0388167
0.0403609
0.0418974
0.0434242
0.0449396
0.0464417
0.0479284
0.049398
0.0508485
0.0522782
0.0536851
0.0550673
0.0564224
0.0577484
0.0590436
0.0603064
0.0615351
0.0627282
0.0638839
0.0650009
0.0660777
0.0671128
0.0681049
0.0690525
0.0699543
0.0708092
0.0716164
0.0723747
0.0730833
0.0737416
0.0743491
0.0749049
0.0754088
0.0758602
0.0762589
0.0766044
0.0768966
0.0771359
0.0773224
0.0774567
0.0775391
0.0775709
0.0775531
0.0774868
0.0773731
0.0772129
0.0770075
0.0767584
0.0764675
0.0761369
0.0757693
0.0753666
0.0749309
0.0744642
0.0739692
0.0734486
0.0729057
0.0723435
0.0717652
0.0711741
0.0705738
0.0699679
0.0693604
0.068755
0.0681554
0.0675653
0.0669886
0.0664298
0.0658934
0.0653837
0.0649046
0.0644591
0.0640506
0.0636836
0.0633628
0.0630776
0.0628144
0.00565718
0.00525183
0.00485563
0.00444495
0.00399942
0.00352347
0.00302085
0.00249368
0.00194441
0.00137606
0.000792079
0.000196399
-0.000406877
-0.00101405
-0.0016215
-0.00222613
-0.00282469
-0.00341374
-0.00399004
-0.00455048
-0.00509231
-0.00561245
-0.00610787
-0.00657589
-0.00701443
-0.00742094
-0.00779277
-0.00812795
-0.0084246
-0.0086814
-0.00889705
-0.00907036
-0.00920014
-0.00928497
-0.00932379
-0.00931588
-0.00926066
-0.00915788
-0.00900727
-0.00880859
-0.00856156
-0.00826575
-0.00792095
-0.00752726
-0.00708483
-0.00659382
-0.00605474
-0.00546819
-0.00483467
-0.00415461
-0.00342861
-0.00265742
-0.00184186
-0.000982704
-8.08639e-05
0.000862562
0.00184655
0.00287026
0.00393278
0.00503296
0.00616956
0.00734125
0.00854663
0.00978411
0.011052
0.0123489
0.0136734
0.015024
0.016399
0.0177965
0.0192149
0.0206524
0.0221072
0.0235771
0.0250604
0.0265553
0.0280601
0.0295731
0.0310922
0.0326152
0.0341404
0.0356661
0.0371903
0.0387111
0.0402264
0.0417341
0.0432326
0.04472
0.0461944
0.0476537
0.0490963
0.0505204
0.051924
0.0533055
0.0546626
0.0559932
0.0572954
0.0585675
0.059808
0.0610151
0.0621871
0.0633228
0.0644206
0.065479
0.0664968
0.0674724
0.0684044
0.0692916
0.0701329
0.0709276
0.0716744
0.0723727
0.0730219
0.0736214
0.0741704
0.0746685
0.0751154
0.0755106
0.0758537
0.0761446
0.0763837
0.0765711
0.0767073
0.0767927
0.0768282
0.0768151
0.0767543
0.0766469
0.0764939
0.0762963
0.0760556
0.0757738
0.075453
0.0750954
0.0747032
0.0742781
0.0738221
0.0733378
0.072828
0.0722953
0.0717425
0.0711725
0.0705887
0.0699947
0.069394
0.0687901
0.0681862
0.0675854
0.066991
0.0664068
0.0658369
0.0652856
0.0647567
0.0642534
0.0637782
0.063334
0.0629255
0.0625572
0.0622115
0.0618696
0.00659682
0.00611476
0.00565855
0.0052002
0.00471242
0.00419933
0.00366482
0.00311083
0.00253962
0.00195412
0.00135721
0.000752337
0.000142878
-0.000467568
-0.00107571
-0.00167901
-0.00227443
-0.00285875
-0.00342879
-0.00398185
-0.00451543
-0.00502684
-0.00551332
-0.00597215
-0.00640142
-0.0067984
-0.00716114
-0.00748748
-0.00777558
-0.00802455
-0.0082329
-0.00839975
-0.0085238
-0.00860361
-0.00863819
-0.00862682
-0.008569
-0.00846445
-0.00831299
-0.00811448
-0.0078685
-0.00757462
-0.00723276
-0.00684305
-0.00640557
-0.00592052
-0.00538846
-0.00480998
-0.00418546
-0.00351533
-0.00280024
-0.00204091
-0.00123799
-0.00039231
0.000495136
0.00142329
0.00239123
0.00339814
0.00444302
0.00552473
0.00664208
0.00779386
0.00897863
0.0101948
0.0114407
0.0127151
0.0140166
0.0153437
0.0166945
0.0180674
0.0194609
0.0208732
0.0223022
0.023746
0.0252029
0.0266712
0.0281493
0.0296353
0.0311271
0.0326228
0.0341208
0.0356194
0.0371165
0.0386101
0.0400985
0.0415795
0.0430516
0.0445129
0.0459615
0.0473953
0.0488127
0.0502122
0.0515917
0.0529494
0.0542831
0.0555909
0.056871
0.0581217
0.0593414
0.0605283
0.0616809
0.0627979
0.0638778
0.0649193
0.0659209
0.0668812
0.0677987
0.0686722
0.0695008
0.0702838
0.0710201
0.0717088
0.0723494
0.0729414
0.0734841
0.0739768
0.0744192
0.074811
0.0751516
0.0754412
0.07568
0.0758682
0.076006
0.0760937
0.0761323
0.076123
0.0760669
0.0759648
0.0758177
0.0756265
0.0753929
0.0751186
0.0748057
0.0744562
0.0740722
0.0736553
0.0732077
0.0727317
0.07223
0.0717046
0.0711581
0.0705933
0.0700137
0.0694229
0.0688242
0.0682205
0.0676144
0.0670088
0.0664067
0.0658116
0.0652274
0.0646578
0.0641062
0.0635754
0.0630673
0.0625847
0.0621324
0.0617147
0.0613072
0.0608857
0.00756412
0.00700528
0.00648828
0.00598086
0.0054489
0.00489685
0.0043281
0.00374479
0.00314888
0.00254293
0.00193007
0.00131271
0.000693888
7.69827e-05
-0.000535232
-0.0011404
-0.00173573
-0.00231839
-0.00288533
-0.00343399
-0.00396203
-0.00446726
-0.00494707
-0.00539907
-0.00582092
-0.00621061
-0.00656599
-0.00688512
-0.00716664
-0.00740918
-0.00761171
-0.00777332
-0.00789254
-0.00796818
-0.00799933
-0.00798522
-0.00792541
-0.00781962
-0.00766774
-0.0074696
-0.00722478
-0.00693295
-0.0065941
-0.00620825
-0.00577549
-0.00529618
-0.00477085
-0.00419993
-0.00358383
-0.00292306
-0.00221825
-0.00146996
-0.000678822
0.00015425
0.00102821
0.00194215
0.00289522
0.00388648
0.00491484
0.00597927
0.00707874
0.00821194
0.00937739
0.0105736
0.0117991
0.0130526
0.0143326
0.0156376
0.0169659
0.0183161
0.0196865
0.0210752
0.0224802
0.0238997
0.0253322
0.0267759
0.0282291
0.0296898
0.0311563
0.0326268
0.0340996
0.035573
0.0370449
0.0385134
0.0399767
0.041433
0.0428807
0.0443177
0.0457423
0.0471524
0.0485465
0.0499232
0.0512802
0.0526158
0.0539279
0.0552147
0.0564743
0.0577052
0.0589056
0.0600739
0.0612086
0.0623084
0.0633719
0.0643977
0.0653843
0.0663304
0.0672344
0.0680952
0.0689122
0.0696844
0.0704108
0.0710906
0.0717233
0.0723083
0.072845
0.0733327
0.0737708
0.0741591
0.0744973
0.0747856
0.075024
0.0752126
0.0753514
0.0754409
0.0754819
0.0754759
0.0754236
0.0753257
0.0751832
0.0749973
0.0747694
0.0745012
0.0741945
0.0738513
0.0734733
0.0730625
0.072621
0.0721511
0.0716549
0.0711342
0.0705912
0.0700287
0.0694506
0.0688601
0.0682603
0.0676534
0.0670418
0.066428
0.0658152
0.0652063
0.0646049
0.064014
0.0634367
0.0628752
0.0623317
0.0618085
0.0613107
0.060842
0.0603716
0.0598702
0.00855198
0.0079166
0.00733852
0.00678082
0.00620336
0.00561028
0.00500557
0.00439069
0.00376733
0.00313856
0.00250664
0.00187394
0.00124287
0.00061641
-2.84736e-06
-0.000612543
-0.00121048
-0.00179418
-0.00236086
-0.00290789
-0.00343312
-0.00393462
-0.00440997
-0.00485705
-0.00527347
-0.00565769
-0.00600742
-0.00632099
-0.0065974
-0.00683499
-0.00703303
-0.00719042
-0.00730585
-0.00737819
-0.00740655
-0.00739037
-0.00732918
-0.00722266
-0.00707073
-0.00687318
-0.00662968
-0.00634004
-0.00600416
-0.00562203
-0.00519387
-0.00472006
-0.00420102
-0.00363717
-0.00302901
-0.00237705
-0.00168177
-0.000943713
-0.000163608
0.000657652
0.00151915
0.00241998
0.00335919
0.00433581
0.00534883
0.00639727
0.00748005
0.00859591
0.00974339
0.0109211
0.0121277
0.0133617
0.0146217
0.0159062
0.0172138
0.0185428
0.0198917
0.0212585
0.0226413
0.0240384
0.0254482
0.026869
0.028299
0.0297365
0.0311796
0.0326268
0.0340764
0.0355264
0.0369749
0.0384201
0.0398604
0.0412939
0.0427189
0.0441336
0.0455359
0.0469242
0.0482969
0.0496524
0.0509888
0.052304
0.0535962
0.0548636
0.0561045
0.0573172
0.0585
0.0596511
0.0607693
0.0618534
0.062902
0.0639134
0.0648863
0.0658192
0.0667108
0.0675601
0.0683664
0.0691287
0.069846
0.0705175
0.0711429
0.0717216
0.0722527
0.0727354
0.0731694
0.0735543
0.0738901
0.0741769
0.0744147
0.0746033
0.0747427
0.0748334
0.0748764
0.0748728
0.0748234
0.0747288
0.07459
0.0744081
0.0741847
0.0739211
0.073619
0.0732802
0.0729064
0.0724998
0.0720625
0.0715964
0.0711033
0.0705847
0.0700426
0.0694801
0.0689008
0.0683079
0.0677039
0.0670907
0.0664705
0.0658457
0.0652193
0.0645941
0.0639727
0.0633579
0.062752
0.0621575
0.0615763
0.0610109
0.060466
0.0599452
0.0594112
0.0588298
0.00955442
0.00884262
0.00820317
0.00759457
0.00697045
0.00633469
0.00569222
0.00504381
0.0043912
0.00373692
0.00308333
0.00243268
0.0017867
0.00114801
0.000519092
-9.7813e-05
-0.00070092
-0.001288
-0.00185672
-0.0024046
-0.00292949
-0.00342948
-0.00390255
-0.00434647
-0.00475952
-0.00513978
-0.00548553
-0.00579533
-0.00606777
-0.00630178
-0.00649649
-0.00665064
-0.00676319
-0.00683307
-0.00685942
-0.00684177
-0.00677968
-0.00667291
-0.00652131
-0.0063246
-0.00608259
-0.00579517
-0.00546222
-0.00508374
-0.00465998
-0.00419132
-0.00367819
-0.00312101
-0.00252024
-0.00187644
-0.00119005
-0.000461541
0.000308357
0.00111872
0.00196866
0.00285732
0.00378372
0.00474679
0.00574558
0.00677916
0.0078465
0.00894629
0.0100772
0.0112378
0.0124268
0.0136428
0.0148843
0.0161499
0.0174382
0.0187478
0.0200768
0.0214233
0.0227855
0.0241619
0.0255508
0.0269504
0.028359
0.029775
0.0311967
0.0326225
0.0340506
0.0354791
0.036906
0.0383298
0.039749
0.0411616
0.0425658
0.0439598
0.0453418
0.04671
0.0480631
0.0493994
0.0507167
0.0520132
0.0532872
0.054537
0.0557608
0.0569569
0.0581235
0.0592591
0.0603624
0.0614323
0.0624673
0.0634656
0.0644258
0.0653467
0.0662271
0.067066
0.0678626
0.0686158
0.0693247
0.0699887
0.0706075
0.0711804
0.0717062
0.0721841
0.072614
0.0729958
0.0733293
0.0736146
0.0738514
0.0740395
0.074179
0.0742704
0.0743148
0.074313
0.0742656
0.0741733
0.0740371
0.0738584
0.0736383
0.073378
0.073079
0.0727429
0.0723718
0.0719677
0.0715326
0.0710681
0.0705758
0.0700569
0.0695137
0.0689489
0.0683661
0.067768
0.0671568
0.0665345
0.065903
0.0652648
0.0646223
0.0639781
0.0633343
0.062693
0.0620565
0.0614269
0.0608065
0.0601972
0.0596039
0.0590299
0.0584317
0.0577708
0.0105659
0.00977775
0.00907673
0.00841668
0.0077449
0.00706547
0.0063835
0.00569999
0.0050162
0.00433433
0.00365705
0.00298593
0.00232269
0.00166943
0.00102841
0.000401727
-0.000208903
-0.000801698
-0.00137461
-0.00192541
-0.002452
-0.00295249
-0.00342512
-0.00386781
-0.00427919
-0.00465725
-0.00500059
-0.00530805
-0.00557802
-0.00580968
-0.00600195
-0.00615384
-0.00626441
-0.00633259
-0.00635763
-0.00633908
-0.00627664
-0.00617005
-0.00601899
-0.00582332
-0.00558301
-0.00529787
-0.00496771
-0.00459268
-0.00417316
-0.0037094
-0.00320172
-0.00265068
-0.00205688
-0.00142068
-0.000742423
-2.26853e-05
0.000737714
0.00153797
0.00237731
0.00325481