/*--------------------------------*- C++ -*----------------------------------*\
  =========                 |
  \\      /  F ield         | OpenFOAM: The Open Source CFD Toolbox
   \\    /   O peration     | Website:  https://openfoam.org
    \\  /    A nd           | Version:  7
     \\/     M anipulation  |
\*---------------------------------------------------------------------------*/
FoamFile
{
    version     2.0;
    format      ascii;
    class       surfaceScalarField;
    location    "0.0625";
    object      phi;
}
// * * * * * * * * * * * * * * * * * * * * * * * * * * * * * * * * * * * * * //

dimensions      [0 3 -1 0 0 0 0];

internalField   nonuniform List<scalar> 
50880
(
6.85242e-12
-6.79005e-12
3.72815e-11
-3.04361e-11
8.23642e-11
-4.50867e-11
1.32505e-10
-5.01369e-11
1.80707e-10
-4.81969e-11
2.22049e-10
-4.13466e-11
2.53104e-10
-3.1056e-11
2.7156e-10
-1.84562e-11
2.75778e-10
-4.21551e-12
2.64754e-10
1.10183e-11
2.37904e-10
2.6855e-11
1.94893e-10
4.30118e-11
1.35699e-10
5.9197e-11
6.04465e-11
7.52496e-11
-3.05575e-11
9.10027e-11
-1.36875e-10
1.0631e-10
-2.58001e-10
1.21127e-10
-3.93377e-10
1.35377e-10
-5.42406e-10
1.4903e-10
-7.04409e-10
1.62003e-10
-8.78744e-10
1.74335e-10
-1.06474e-09
1.85998e-10
-1.26171e-09
1.96972e-10
-1.46896e-09
2.07243e-10
-1.68576e-09
2.16792e-10
-1.91146e-09
2.25707e-10
-2.14536e-09
2.33901e-10
-2.38685e-09
2.41493e-10
-2.63521e-09
2.48366e-10
-2.88987e-09
2.54661e-10
-3.15014e-09
2.60262e-10
-3.41539e-09
2.65251e-10
-3.68498e-09
2.69585e-10
-3.9583e-09
2.73329e-10
-4.23478e-09
2.76474e-10
-4.51383e-09
2.79047e-10
-4.79489e-09
2.81065e-10
-5.07746e-09
2.82571e-10
-5.36105e-09
2.83587e-10
-5.64515e-09
2.84097e-10
-5.92928e-09
2.8413e-10
-6.21297e-09
2.83695e-10
-6.49577e-09
2.8279e-10
-6.77721e-09
2.8144e-10
-7.05687e-09
2.79657e-10
-7.33429e-09
2.77422e-10
-7.60901e-09
2.74725e-10
-7.8806e-09
2.71585e-10
-8.14861e-09
2.68013e-10
-8.41263e-09
2.64013e-10
-8.67223e-09
2.59602e-10
-8.92703e-09
2.54805e-10
-9.17666e-09
2.49629e-10
-9.42074e-09
2.44079e-10
-9.65891e-09
2.38174e-10
-9.89085e-09
2.3194e-10
-1.01162e-08
2.2538e-10
-1.03347e-08
2.18484e-10
-1.0546e-08
2.1126e-10
-1.07497e-08
2.03722e-10
-1.09456e-08
1.95872e-10
-1.11333e-08
1.87717e-10
-1.13126e-08
1.79274e-10
-1.14831e-08
1.7057e-10
-1.16448e-08
1.61627e-10
-1.17972e-08
1.52458e-10
-1.19403e-08
1.4308e-10
-1.20738e-08
1.3351e-10
-1.21976e-08
1.23759e-10
-1.23114e-08
1.13836e-10
-1.24152e-08
1.03747e-10
-1.25087e-08
9.35076e-11
-1.25918e-08
8.31324e-11
-1.26644e-08
7.26342e-11
-1.27265e-08
6.20269e-11
-1.27778e-08
5.13306e-11
-1.28184e-08
4.05622e-11
-1.28481e-08
2.97328e-11
-1.28669e-08
1.88498e-11
-1.28749e-08
7.92195e-12
-1.28718e-08
-3.03759e-12
-1.28578e-08
-1.4013e-11
-1.28328e-08
-2.49881e-11
-1.27969e-08
-3.59465e-11
-1.275e-08
-4.68658e-11
-1.26923e-08
-5.77171e-11
-1.26238e-08
-6.8478e-11
-1.25447e-08
-7.91381e-11
-1.2455e-08
-8.96901e-11
-1.23549e-08
-1.00131e-10
-1.22444e-08
-1.10458e-10
-1.21237e-08
-1.20659e-10
-1.1993e-08
-1.30717e-10
-1.18524e-08
-1.40623e-10
-1.1702e-08
-1.50356e-10
-1.15422e-08
-1.59889e-10
-1.13729e-08
-1.69204e-10
-1.11947e-08
-1.78292e-10
-1.10075e-08
-1.87137e-10
-1.08118e-08
-1.95724e-10
-1.06077e-08
-2.04045e-10
-1.03957e-08
-2.12086e-10
-1.01758e-08
-2.19832e-10
-9.94855e-09
-2.27276e-10
-9.71414e-09
-2.3441e-10
-9.47293e-09
-2.41218e-10
-9.22525e-09
-2.47671e-10
-8.97151e-09
-2.53749e-10
-8.71207e-09
-2.59435e-10
-8.44736e-09
-2.64714e-10
-8.17779e-09
-2.69567e-10
-7.90382e-09
-2.73976e-10
-7.62589e-09
-2.77927e-10
-7.34449e-09
-2.81398e-10
-7.06012e-09
-2.84368e-10
-6.7733e-09
-2.86824e-10
-6.48454e-09
-2.88758e-10
-6.19439e-09
-2.9015e-10
-5.90341e-09
-2.9098e-10
-5.61218e-09
-2.91236e-10
-5.32126e-09
-2.90912e-10
-5.03127e-09
-2.89995e-10
-4.7428e-09
-2.88469e-10
-4.45647e-09
-2.86325e-10
-4.17291e-09
-2.8356e-10
-3.89274e-09
-2.80173e-10
-3.61657e-09
-2.7616e-10
-3.34505e-09
-2.71523e-10
-3.07879e-09
-2.66263e-10
-2.81841e-09
-2.6038e-10
-2.56454e-09
-2.53866e-10
-2.31782e-09
-2.46719e-10
-2.07888e-09
-2.38944e-10
-1.84833e-09
-2.30553e-10
-1.62677e-09
-2.21553e-10
-1.41482e-09
-2.1195e-10
-1.21307e-09
-2.01753e-10
-1.0221e-09
-1.90968e-10
-8.42494e-10
-1.79608e-10
-6.74807e-10
-1.67686e-10
-5.19592e-10
-1.55216e-10
-3.77367e-10
-1.42226e-10
-2.48613e-10
-1.28754e-10
-1.33777e-10
-1.14836e-10
-3.32628e-11
-1.00515e-10
5.25774e-11
-8.58418e-11
1.23456e-10
-7.08778e-11
1.79181e-10
-5.57234e-11
2.19695e-10
-4.05134e-11
2.45101e-10
-2.54081e-11
2.55722e-10
-1.06202e-11
2.52141e-10
3.58186e-12
2.35295e-10
1.68446e-11
2.06633e-10
2.86608e-11
1.68319e-10
3.8313e-11
1.23532e-10
4.47883e-11
7.68316e-11
4.67009e-11
3.46582e-11
4.21714e-11
6.00289e-12
2.86532e-11
6.00343e-12
2.9244e-11
-3.6032e-11
9.77994e-11
-9.89805e-11
1.88927e-10
-1.3622e-10
2.86366e-10
-1.47582e-10
3.7631e-10
-1.38146e-10
4.47932e-10
-1.12963e-10
4.93024e-10
-7.61508e-11
5.05586e-10
-3.10172e-11
4.81374e-10
1.99917e-11
4.17449e-10
7.49453e-11
3.11897e-10
1.32398e-10
1.63711e-10
1.91197e-10
-2.75497e-11
2.50458e-10
-2.61749e-10
3.09453e-10
-5.38388e-10
3.67648e-10
-8.56636e-10
4.24563e-10
-1.21537e-09
4.79863e-10
-1.61331e-09
5.33319e-10
-2.049e-09
5.84715e-10
-2.52092e-09
6.33924e-10
-3.02738e-09
6.808e-10
-3.56668e-09
7.25296e-10
-4.13704e-09
7.67331e-10
-4.73667e-09
8.06881e-10
-5.36377e-09
8.43894e-10
-6.01649e-09
8.78416e-10
-6.693e-09
9.10414e-10
-7.39148e-09
9.39966e-10
-8.11015e-09
9.67033e-10
-8.84718e-09
9.91685e-10
-9.60078e-09
1.01386e-09
-1.03692e-08
1.03367e-09
-1.11506e-08
1.05104e-09
-1.19434e-08
1.06609e-09
-1.27458e-08
1.07887e-09
-1.35562e-08
1.08942e-09
-1.43729e-08
1.0978e-09
-1.51945e-08
1.1041e-09
-1.60193e-08
1.10838e-09
-1.68458e-08
1.11065e-09
-1.76727e-08
1.11099e-09
-1.84984e-08
1.10942e-09
-1.93216e-08
1.10597e-09
-2.01408e-08
1.10069e-09
-2.09548e-08
1.09361e-09
-2.17621e-08
1.08475e-09
-2.25615e-08
1.07411e-09
-2.33516e-08
1.06175e-09
-2.41313e-08
1.0477e-09
-2.48993e-08
1.032e-09
-2.56544e-08
1.0147e-09
-2.63955e-08
9.95861e-10
-2.71214e-08
9.7552e-10
-2.7831e-08
9.53726e-10
-2.85234e-08
9.30539e-10
-2.91974e-08
9.06013e-10
-2.98522e-08
8.80178e-10
-3.04868e-08
8.5306e-10
-3.11002e-08
8.24695e-10
-3.16916e-08
7.9512e-10
-3.22601e-08
7.64368e-10
-3.28049e-08
7.32485e-10
-3.33252e-08
6.99531e-10
-3.38202e-08
6.65573e-10
-3.42892e-08
6.30673e-10
-3.47317e-08
5.94891e-10
-3.51469e-08
5.58287e-10
-3.55343e-08
5.20915e-10
-3.58933e-08
4.82821e-10
-3.62235e-08
4.44046e-10
-3.65244e-08
4.04637e-10
-3.67956e-08
3.64646e-10
-3.70366e-08
3.24124e-10
-3.72471e-08
2.83125e-10
-3.74267e-08
2.41706e-10
-3.75753e-08
1.99928e-10
-3.76926e-08
1.57849e-10
-3.77784e-08
1.15519e-10
-3.78326e-08
7.29837e-11
-3.78549e-08
3.02889e-11
-3.78454e-08
-1.25143e-11
-3.78041e-08
-5.537e-11
-3.77309e-08
-9.82188e-11
-3.76258e-08
-1.40994e-10
-3.7489e-08
-1.83621e-10
-3.73207e-08
-2.26025e-10
-3.71211e-08
-2.68135e-10
-3.68903e-08
-3.099e-10
-3.66287e-08
-3.51276e-10
-3.63367e-08
-3.92221e-10
-3.60144e-08
-4.3269e-10
-3.56624e-08
-4.72639e-10
-3.52811e-08
-5.12015e-10
-3.4871e-08
-5.50757e-10
-3.44326e-08
-5.888e-10
-3.39664e-08
-6.26074e-10
-3.34731e-08
-6.62506e-10
-3.29533e-08
-6.98039e-10
-3.24078e-08
-7.32618e-10
-3.18374e-08
-7.6619e-10
-3.12427e-08
-7.98696e-10
-3.06247e-08
-8.30085e-10
-2.99843e-08
-8.60305e-10
-2.93222e-08
-8.89304e-10
-2.86396e-08
-9.17028e-10
-2.79374e-08
-9.43415e-10
-2.72167e-08
-9.68394e-10
-2.64786e-08
-9.91892e-10
-2.57242e-08
-1.01384e-09
-2.49547e-08
-1.03418e-09
-2.41714e-08
-1.05284e-09
-2.33756e-08
-1.06977e-09
-2.25687e-08
-1.0849e-09
-2.17519e-08
-1.09817e-09
-2.09267e-08
-1.10952e-09
-2.00947e-08
-1.11889e-09
-1.92572e-08
-1.12623e-09
-1.84158e-08
-1.13148e-09
-1.75722e-08
-1.13459e-09
-1.67279e-08
-1.13552e-09
-1.58846e-08
-1.13422e-09
-1.5044e-08
-1.13064e-09
-1.42077e-08
-1.12475e-09
-1.33775e-08
-1.11651e-09
-1.25552e-08
-1.1059e-09
-1.17425e-08
-1.09291e-09
-1.09411e-08
-1.07751e-09
-1.01529e-08
-1.05972e-09
-9.37966e-09
-1.03951e-09
-8.62315e-09
-1.01689e-09
-7.88518e-09
-9.91834e-10
-7.16754e-09
-9.64359e-10
-6.47201e-09
-9.34473e-10
-5.80036e-09
-9.02203e-10
-5.15433e-09
-8.67578e-10
-4.53565e-09
-8.30627e-10
-3.94601e-09
-7.91391e-10
-3.38707e-09
-7.49911e-10
-2.86044e-09
-7.06238e-10
-2.36768e-09
-6.60443e-10
-1.91028e-09
-6.12617e-10
-1.48963e-09
-5.62875e-10
-1.10702e-09
-5.11365e-10
-7.63613e-10
-4.5825e-10
-4.60404e-10
-4.03726e-10
-1.982e-10
-3.48045e-10
2.24339e-11
-2.91512e-10
2.01238e-10
-2.34529e-10
3.38338e-10
-1.77613e-10
4.34342e-10
-1.21411e-10
4.90461e-10
-6.67375e-11
5.08676e-10
-1.46322e-11
4.91947e-10
3.35731e-11
4.44503e-10
7.61065e-11
3.72189e-10
1.10627e-10
2.82882e-10
1.34094e-10
1.86897e-10
1.42688e-10
9.72022e-11
1.31864e-10
2.91496e-11
9.67055e-11
3.51524e-11
4.10221e-11
-7.70573e-11
1.28283e-10
-1.86246e-10
2.37782e-10
-2.45718e-10
3.48903e-10
-2.58693e-10
4.44178e-10
-2.33421e-10
5.09391e-10
-1.78175e-10
5.33538e-10
-1.00297e-10
5.08082e-10
-5.55178e-12
4.26779e-10
1.01298e-10
2.85171e-10
2.1656e-10
8.0286e-11
3.37287e-10
-1.89718e-10
4.61191e-10
-5.2566e-10
5.86398e-10
-9.27653e-10
7.11438e-10
-1.39512e-09
8.35114e-10
-1.92707e-09
9.56509e-10
-2.52206e-09
1.07485e-09
-3.17833e-09
1.18959e-09
-3.89385e-09
1.30023e-09
-4.66637e-09
1.40644e-09
-5.4935e-09
1.50793e-09
-6.3727e-09
1.60451e-09
-7.30138e-09
1.69601e-09
-8.27676e-09
1.78226e-09
-9.29614e-09
1.86328e-09
-1.03567e-08
1.93894e-09
-1.14556e-08
2.00934e-09
-1.25899e-08
2.07433e-09
-1.3757e-08
2.1341e-09
-1.49539e-08
2.18852e-09
-1.61777e-08
2.23774e-09
-1.74258e-08
2.2817e-09
-1.86952e-08
2.3205e-09
-1.99834e-08
2.35423e-09
-2.12874e-08
2.38295e-09
-2.26048e-08
2.40678e-09
-2.39328e-08
2.42583e-09
-2.52689e-08
2.44022e-09
-2.66106e-08
2.45003e-09
-2.79553e-08
2.45536e-09
-2.93006e-08
2.45631e-09
-3.06442e-08
2.45296e-09
-3.19836e-08
2.44539e-09
-3.33166e-08
2.43371e-09
-3.4641e-08
2.41798e-09
-3.59545e-08
2.39826e-09
-3.7255e-08
2.37464e-09
-3.85405e-08
2.3472e-09
-3.98088e-08
2.31603e-09
-4.1058e-08
2.28121e-09
-4.22862e-08
2.24287e-09
-4.34914e-08
2.20111e-09
-4.46719e-08
2.15603e-09
-4.58259e-08
2.10772e-09
-4.69517e-08
2.05632e-09
-4.80476e-08
2.00192e-09
-4.9112e-08
1.94461e-09
-5.01434e-08
1.88447e-09
-5.11404e-08
1.82161e-09
-5.21013e-08
1.7561e-09
-5.3025e-08
1.68805e-09
-5.39101e-08
1.61756e-09
-5.47553e-08
1.54475e-09
-5.55595e-08
1.46974e-09
-5.63215e-08
1.39265e-09
-5.70402e-08
1.31361e-09
-5.77146e-08
1.23275e-09
-5.83439e-08
1.15016e-09
-5.8927e-08
1.06597e-09
-5.94633e-08
9.80276e-10
-5.99518e-08
8.93188e-10
-6.0392e-08
8.04819e-10
-6.07832e-08
7.15283e-10
-6.11247e-08
6.24698e-10
-6.14162e-08
5.33185e-10
-6.16572e-08
4.40869e-10
-6.18472e-08
3.47872e-10
-6.1986e-08
2.54306e-10
-6.20733e-08
1.60285e-10
-6.21089e-08
6.59247e-11
-6.20928e-08
-2.86587e-11
-6.20248e-08
-1.23341e-10
-6.1905e-08
-2.17995e-10
-6.17335e-08
-3.12483e-10
-6.15105e-08
-4.06661e-10
-6.12361e-08
-5.00383e-10
-6.09107e-08
-5.93513e-10
-6.05347e-08
-6.85928e-10
-6.01085e-08
-7.77512e-10
-5.96325e-08
-8.68153e-10
-5.91075e-08
-9.57735e-10
-5.8534e-08
-1.04614e-09
-5.79128e-08
-1.13323e-09
-5.72446e-08
-1.2189e-09
-5.65304e-08
-1.303e-09
-5.57711e-08
-1.38538e-09
-5.49677e-08
-1.46592e-09
-5.41213e-08
-1.54446e-09
-5.3233e-08
-1.62089e-09
-5.23042e-08
-1.69507e-09
-5.1336e-08
-1.76687e-09
-5.03299e-08
-1.83618e-09
-4.92873e-08
-1.90286e-09
-4.82098e-08
-1.9668e-09
-4.7099e-08
-2.02786e-09
-4.59565e-08
-2.08591e-09
-4.47841e-08
-2.1408e-09
-4.35836e-08
-2.19239e-09
-4.23569e-08
-2.24055e-09
-4.1106e-08
-2.28512e-09
-3.98328e-08
-2.326e-09
-3.85395e-08
-2.36303e-09
-3.72283e-08
-2.3961e-09
-3.59014e-08
-2.42508e-09
-3.45611e-08
-2.44984e-09
-3.32097e-08
-2.47026e-09
-3.18497e-08
-2.48623e-09
-3.04836e-08
-2.49764e-09
-2.91138e-08
-2.50438e-09
-2.7743e-08
-2.50635e-09
-2.63737e-08
-2.50345e-09
-2.50088e-08
-2.49561e-09
-2.36508e-08
-2.48274e-09
-2.23025e-08
-2.46477e-09
-2.09668e-08
-2.44164e-09
-1.96464e-08
-2.41331e-09
-1.83441e-08
-2.37975e-09
-1.70629e-08
-2.34094e-09
-1.58056e-08
-2.29684e-09
-1.4575e-08
-2.24746e-09
-1.3374e-08
-2.19278e-09
-1.22056e-08
-2.13281e-09
-1.10725e-08
-2.06759e-09
-9.97751e-09
-1.99717e-09
-8.9235e-09
-1.92159e-09
-7.91318e-09
-1.84095e-09
-6.94924e-09
-1.75533e-09
-6.03431e-09
-1.66484e-09
-5.17091e-09
-1.56964e-09
-4.36146e-09
-1.46989e-09
-3.60826e-09
-1.36582e-09
-2.91344e-09
-1.2577e-09
-2.27893e-09
-1.14587e-09
-1.70647e-09
-1.03072e-09
-1.19746e-09
-9.12733e-10
-7.53001e-10
-7.92503e-10
-3.73763e-10
-6.7075e-10
-5.99105e-11
-5.4838e-10
1.89005e-10
-4.2653e-10
3.74192e-10
-3.06598e-10
4.97787e-10
-1.90334e-10
5.63082e-10
-7.99257e-11
5.7478e-10
2.18733e-11
5.39322e-10
1.11564e-10
4.6522e-10
1.84728e-10
3.63427e-10
2.35886e-10
2.47655e-10
2.58459e-10
1.34493e-10
2.45025e-10
4.34926e-11
1.87703e-10
7.86457e-11
4.38134e-11
-1.20868e-10
1.34258e-10
-2.76692e-10
2.42508e-10
-3.5397e-10
3.44565e-10
-3.6076e-10
4.20542e-10
-3.09396e-10
4.54314e-10
-2.11951e-10
4.32888e-10
-7.8873e-11
3.46203e-10
8.11249e-11
1.86605e-10
2.60886e-10
-5.15462e-11
4.54708e-10
-3.7211e-10
6.5786e-10
-7.77593e-10
8.66675e-10
-1.26923e-09
1.07805e-09
-1.84741e-09
1.28962e-09
-2.51164e-09
1.49935e-09
-3.26078e-09
1.70565e-09
-4.09316e-09
1.90723e-09
-5.00664e-09
2.10307e-09
-5.99877e-09
2.29237e-09
-7.06675e-09
2.47442e-09
-8.20758e-09
2.64875e-09
-9.41798e-09
2.8149e-09
-1.06946e-08
2.97261e-09
-1.20339e-08
3.1216e-09
-1.34324e-08
3.26172e-09
-1.48863e-08
3.39285e-09
-1.63919e-08
3.51494e-09
-1.79455e-08
3.62793e-09
-1.95432e-08
3.73187e-09
-2.11814e-08
3.8267e-09
-2.28562e-08
3.91255e-09
-2.45639e-08
3.98938e-09
-2.63008e-08
4.05735e-09
-2.8063e-08
4.11652e-09
-2.98472e-08
4.16705e-09
-3.16494e-08
4.20907e-09
-3.34663e-08
4.24272e-09
-3.52943e-08
4.26818e-09
-3.71299e-08
4.28561e-09
-3.89697e-08
4.29516e-09
-4.08103e-08
4.29697e-09
-4.26486e-08
4.2912e-09
-4.44812e-08
4.27799e-09
-4.6305e-08
4.2575e-09
-4.81169e-08
4.22989e-09
-4.99139e-08
4.19529e-09
-5.16931e-08
4.15386e-09
-5.34517e-08
4.10574e-09
-5.51867e-08
4.05109e-09
-5.68956e-08
3.99009e-09
-5.85757e-08
3.92292e-09
-6.02243e-08
3.84975e-09
-6.1839e-08
3.77076e-09
-6.34175e-08
3.68614e-09
-6.49572e-08
3.59608e-09
-6.6456e-08
3.50075e-09
-6.79117e-08
3.40031e-09
-6.93222e-08
3.29495e-09
-7.06854e-08
3.18483e-09
-7.19995e-08
3.07013e-09
-7.32624e-08
2.95101e-09
-7.44726e-08
2.82768e-09
-7.56281e-08
2.70032e-09
-7.67275e-08
2.56914e-09
-7.77692e-08
2.43434e-09
-7.87517e-08
2.29612e-09
-7.96737e-08
2.1547e-09
-8.05338e-08
2.01025e-09
-8.13308e-08
1.86299e-09
-8.20636e-08
1.7131e-09
-8.27312e-08
1.56078e-09
-8.33326e-08
1.40622e-09
-8.38669e-08
1.24962e-09
-8.43334e-08
1.0912e-09
-8.47314e-08
9.31157e-10
-8.50602e-08
7.69702e-10
-8.53194e-08
6.07043e-10
-8.55085e-08
4.43387e-10
-8.56271e-08
2.78935e-10
-8.56751e-08
1.13897e-10
-8.56523e-08
-5.15134e-11
-8.55585e-08
-2.17083e-10
-8.53939e-08
-3.8259e-10
-8.51586e-08
-5.47805e-10
-8.48528e-08
-7.12493e-10
-8.44767e-08
-8.76414e-10
-8.40309e-08
-1.03934e-09
-8.35158e-08
-1.20104e-09
-8.2932e-08
-1.36132e-09
-8.22802e-08
-1.51995e-09
-8.15612e-08
-1.67672e-09
-8.07759e-08
-1.8314e-09
-7.99254e-08
-1.98378e-09
-7.90107e-08
-2.13362e-09
-7.8033e-08
-2.2807e-09
-7.69936e-08
-2.42476e-09
-7.5894e-08
-2.56557e-09
-7.47355e-08
-2.70289e-09
-7.35199e-08
-2.83651e-09
-7.22488e-08
-2.96618e-09
-7.0924e-08
-3.09167e-09
-6.95474e-08
-3.21276e-09
-6.81211e-08
-3.32922e-09
-6.66471e-08
-3.44083e-09
-6.51276e-08
-3.54736e-09
-6.35649e-08
-3.64857e-09
-6.19615e-08
-3.74422e-09
-6.03198e-08
-3.83409e-09
-5.86424e-08
-3.91792e-09
-5.69321e-08
-3.99549e-09
-5.51915e-08
-4.06658e-09
-5.34235e-08
-4.13097e-09
-5.16312e-08
-4.18843e-09
-4.98175e-08
-4.23876e-09
-4.79856e-08
-4.28175e-09
-4.61387e-08
-4.3172e-09
-4.428e-08
-4.34491e-09
-4.24129e-08
-4.3647e-09
-4.05409e-08
-4.3764e-09
-3.86674e-08
-4.37984e-09
-3.6796e-08
-4.37485e-09
-3.49303e-08
-4.3613e-09
-3.3074e-08
-4.33906e-09
-3.12308e-08
-4.308e-09
-2.94044e-08
-4.26804e-09
-2.75986e-08
-4.21908e-09
-2.58173e-08
-4.16106e-09
-2.40643e-08
-4.09394e-09
-2.23434e-08
-4.01769e-09
-2.06586e-08
-3.93228e-09
-1.90137e-08
-3.83772e-09
-1.74125e-08
-3.73404e-09
-1.58588e-08
-3.62128e-09
-1.43564e-08
-3.49954e-09
-1.2909e-08
-3.36893e-09
-1.15204e-08
-3.22958e-09
-1.01941e-08
-3.08169e-09
-8.93343e-09
-2.92547e-09
-7.74186e-09
-2.7612e-09
-6.62253e-09
-2.58923e-09
-5.57839e-09
-2.40995e-09
-4.6122e-09
-2.22389e-09
-3.72642e-09
-2.03165e-09
-2.92319e-09
-1.83395e-09
-2.20424e-09
-1.63168e-09
-1.57084e-09
-1.4259e-09
-1.02368e-09
-1.21791e-09
-5.62777e-10
-1.00929e-09
-1.87328e-10
-8.01978e-10
1.04437e-10
-5.98362e-10
3.15462e-10
-4.01359e-10
4.50101e-10
-2.14565e-10
5.14379e-10
-4.24076e-11
5.16299e-10
1.09642e-10
4.66147e-10
2.34882e-10
3.7681e-10
3.25223e-10
2.64106e-10
3.71163e-10
1.47048e-10
3.62082e-10
4.86184e-11
2.86131e-10
1.27265e-10
4.05485e-11
-1.61416e-10
1.21647e-10
-3.57789e-10
2.12526e-10
-4.44848e-10
2.87209e-10
-4.35439e-10
3.24265e-10
-3.46451e-10
3.06339e-10
-1.94026e-10
2.19408e-10
8.06252e-12
5.24189e-11
2.48122e-10
-2.03315e-10
5.1662e-10
-5.54113e-10
8.05505e-10
-1.00463e-09
1.10837e-09
-1.55779e-09
1.41984e-09
-2.21532e-09
1.73557e-09
-2.97769e-09
2.05198e-09
-3.84452e-09
2.36618e-09
-4.81463e-09
2.67575e-09
-5.88618e-09
2.97879e-09
-7.05678e-09
3.27366e-09
-8.32352e-09
3.55911e-09
-9.68319e-09
3.83409e-09
-1.11322e-08
4.09775e-09
-1.26667e-08
4.34946e-09
-1.42828e-08
4.58864e-09
-1.59761e-08
4.81494e-09
-1.77424e-08
5.02797e-09
-1.95771e-08
5.22764e-09
-2.14759e-08
5.41366e-09
-2.3434e-08
5.58609e-09
-2.54469e-08
5.74475e-09
-2.75099e-08
5.88974e-09
-2.96184e-08
6.02105e-09
-3.17678e-08
6.13875e-09
-3.39534e-08
6.24297e-09
-3.61707e-08
6.33382e-09
-3.84152e-08
6.41148e-09
-4.06822e-08
6.47612e-09
-4.29675e-08
6.52796e-09
-4.52665e-08
6.5672e-09
-4.75749e-08
6.59407e-09
-4.98886e-08
6.6088e-09
-5.22032e-08
6.6116e-09
-5.45147e-08
6.6027e-09
-5.68191e-08
6.58234e-09
-5.91123e-08
6.55074e-09
-6.13905e-08
6.50813e-09
-6.365e-08
6.45476e-09
-6.5887e-08
6.39087e-09
-6.8098e-08
6.3167e-09
-7.02794e-08
6.2325e-09
-7.24278e-08
6.13853e-09
-7.454e-08
6.03506e-09
-7.66126e-08
5.92237e-09
-7.86425e-08
5.80071e-09
-8.06268e-08
5.67039e-09
-8.25624e-08
5.53168e-09
-8.44465e-08
5.38484e-09
-8.62763e-08
5.23015e-09
-8.80493e-08
5.06789e-09
-8.97628e-08
4.89832e-09
-9.14144e-08
4.72173e-09
-9.30017e-08
4.53838e-09
-9.45226e-08
4.34858e-09
-9.59749e-08
4.15261e-09
-9.73566e-08
3.95078e-09
-9.86656e-08
3.74339e-09
-9.99002e-08
3.53074e-09
-1.01059e-07
3.31316e-09
-1.02139e-07
3.09092e-09
-1.03141e-07
2.86435e-09
-1.04061e-07
2.63373e-09
-1.049e-07
2.39937e-09
-1.05655e-07
2.16157e-09
-1.06326e-07
1.92066e-09
-1.06912e-07
1.67693e-09
-1.07412e-07
1.43071e-09
-1.07824e-07
1.18232e-09
-1.08149e-07
9.32069e-10
-1.08386e-07
6.80286e-10
-1.08534e-07
4.27287e-10
-1.08594e-07
1.73396e-10
-1.08564e-07
-8.10573e-11
-1.08446e-07
-3.3574e-10
-1.08238e-07
-5.90317e-10
-1.07941e-07
-8.44439e-10
-1.07556e-07
-1.09776e-09
-1.07083e-07
-1.34992e-09
-1.06521e-07
-1.60057e-09
-1.05873e-07
-1.84936e-09
-1.05138e-07
-2.09597e-09
-1.04318e-07
-2.34004e-09
-1.03414e-07
-2.58124e-09
-1.02426e-07
-2.81921e-09
-1.01356e-07
-3.05362e-09
-1.00206e-07
-3.2841e-09
-9.89761e-08
-3.51029e-09
-9.76691e-08
-3.73183e-09
-9.62863e-08
-3.94836e-09
-9.48296e-08
-4.15951e-09
-9.33012e-08
-4.36494e-09
-9.17031e-08
-4.56427e-09
-9.00376e-08
-4.75716e-09
-8.83071e-08
-4.94325e-09
-8.65142e-08
-5.12219e-09
-8.46614e-08
-5.29362e-09
-8.27515e-08
-5.4572e-09
-8.07876e-08
-5.61255e-09
-7.87725e-08
-5.75934e-09
-7.67093e-08
-5.89719e-09
-7.46015e-08
-6.02576e-09
-7.24523e-08
-6.14471e-09
-7.02652e-08
-6.25369e-09
-6.80438e-08
-6.35237e-09
-6.57918e-08
-6.44044e-09
-6.3513e-08
-6.51756e-09
-6.12113e-08
-6.58344e-09
-5.88907e-08
-6.63776e-09
-5.65553e-08
-6.68026e-09
-5.42094e-08
-6.71065e-09
-5.18571e-08
-6.72866e-09
-4.95029e-08
-6.73406e-09
-4.71511e-08
-6.72662e-09
-4.48063e-08
-6.70611e-09
-4.2473e-08
-6.67235e-09
-4.01559e-08
-6.62516e-09
-3.78595e-08
-6.5644e-09
-3.55887e-08
-6.48993e-09
-3.33481e-08
-6.40168e-09
-3.11424e-08
-6.29956e-09
-2.89766e-08
-6.18352e-09
-2.68553e-08
-6.05356e-09
-2.47834e-08
-5.90968e-09
-2.27654e-08
-5.75195e-09
-2.08063e-08
-5.58045e-09
-1.89105e-08
-5.39531e-09
-1.70827e-08
-5.19673e-09
-1.53273e-08
-4.98495e-09
-1.36488e-08
-4.76027e-09
-1.20512e-08
-4.52306e-09
-1.05386e-08
-4.27379e-09
-9.11483e-09
-4.01299e-09
-7.78343e-09
-3.74135e-09
-6.54767e-09
-3.45966e-09
-5.41042e-09
-3.16889e-09
-4.37416e-09
-2.87021e-09
-3.44086e-09
-2.56498e-09
-2.6119e-09
-2.25487e-09
-1.88795e-09
-1.94186e-09
-1.26887e-09
-1.62836e-09
-7.53565e-10
-1.31728e-09
-3.39787e-10
-1.01214e-09
-2.39645e-11
-7.17184e-10
1.99043e-10
-4.37572e-10
3.36184e-10
-1.79549e-10
3.96491e-10
4.93337e-11
3.91368e-10
2.40005e-10
3.34892e-10
3.81697e-10
2.44181e-10
4.61876e-10
1.39846e-10
4.66418e-10
4.71191e-11
3.78857e-10
1.74386e-10
3.31449e-11
-1.94565e-10
9.51852e-11
-4.19825e-10
1.55676e-10
-5.05345e-10
1.87846e-10
-4.6761e-10
1.69749e-10
-3.28357e-10
8.34171e-11
-1.077e-10
-8.56773e-11
1.77158e-10
-3.49223e-10
5.11663e-10
-7.16293e-10
8.83695e-10
-1.19386e-09
1.28307e-09
-1.78691e-09
1.70141e-09
-2.49875e-09
2.13168e-09
-3.33133e-09
2.56816e-09
-4.28536e-09
3.00601e-09
-5.36048e-09
3.4413e-09
-6.55545e-09
3.87072e-09
-7.86823e-09
4.29157e-09
-9.29622e-09
4.70166e-09
-1.08362e-08
5.09911e-09
-1.24846e-08
5.48247e-09
-1.42373e-08
5.85048e-09
-1.60901e-08
6.20218e-09
-1.80382e-08
6.53675e-09
-2.00768e-08
6.8536e-09
-2.22011e-08
7.15222e-09
-2.44057e-08
7.43226e-09
-2.66855e-08
7.69348e-09
-2.90351e-08
7.93571e-09
-3.14492e-08
8.15882e-09
-3.39223e-08
8.36284e-09
-3.6449e-08
8.54771e-09
-3.90238e-08
8.71358e-09
-4.16413e-08
8.8605e-09
-4.42962e-08
8.98869e-09
-4.6983e-08
9.09831e-09
-4.96965e-08
9.18961e-09
-5.24314e-08
9.26283e-09
-5.51824e-08
9.31825e-09
-5.79445e-08
9.35615e-09
-6.07126e-08
9.37684e-09
-6.34816e-08
9.38062e-09
-6.62467e-08
9.36782e-09
-6.90031e-08
9.33875e-09
-7.17461e-08
9.29372e-09
-7.44711e-08
9.23309e-09
-7.71735e-08
9.15718e-09
-7.9849e-08
9.06635e-09
-8.24932e-08
8.96094e-09
-8.5102e-08
8.84132e-09
-8.76713e-08
8.70786e-09
-9.01972e-08
8.56092e-09
-9.26757e-08
8.4009e-09
-9.51032e-08
8.22818e-09
-9.7476e-08
8.04315e-09
-9.97905e-08
7.8462e-09
-1.02043e-07
7.63773e-09
-1.04231e-07
7.41812e-09
-1.06351e-07
7.18778e-09
-1.084e-07
6.94708e-09
-1.10375e-07
6.69643e-09
-1.12273e-07
6.43624e-09
-1.14091e-07
6.1669e-09
-1.15827e-07
5.88885e-09
-1.17479e-07
5.60249e-09
-1.19044e-07
5.30825e-09
-1.2052e-07
5.00657e-09
-1.21904e-07
4.69787e-09
-1.23196e-07
4.38258e-09
-1.24393e-07
4.06113e-09
-1.25493e-07
3.73394e-09
-1.26495e-07
3.40145e-09
-1.27398e-07
3.0641e-09
-1.28199e-07
2.72232e-09
-1.28899e-07
2.37657e-09
-1.29495e-07
2.02727e-09
-1.29988e-07
1.6749e-09
-1.30376e-07
1.3199e-09
-1.30658e-07
9.62731e-10
-1.30835e-07
6.03842e-10
-1.30905e-07
2.43701e-10
-1.30869e-07
-1.17224e-10
-1.30726e-07
-4.78464e-10
-1.30477e-07
-8.39541e-10
-1.30121e-07
-1.19997e-09
-1.2966e-07
-1.55925e-09
-1.29093e-07
-1.91689e-09
-1.28421e-07
-2.27241e-09
-1.27645e-07
-2.62532e-09
-1.26766e-07
-2.97511e-09
-1.25785e-07
-3.32131e-09
-1.24703e-07
-3.66341e-09
-1.23521e-07
-4.00092e-09
-1.22241e-07
-4.33335e-09
-1.20865e-07
-4.66019e-09
-1.19394e-07
-4.98092e-09
-1.17831e-07
-5.29504e-09
-1.16178e-07
-5.60203e-09
-1.14436e-07
-5.90138e-09
-1.12608e-07
-6.19258e-09
-1.10697e-07
-6.47513e-09
-1.08706e-07
-6.74851e-09
-1.06637e-07
-7.01223e-09
-1.04493e-07
-7.26577e-09
-1.02278e-07
-7.50864e-09
-9.99951e-08
-7.74034e-09
-9.76473e-08
-7.96035e-09
-9.52385e-08
-8.16819e-09
-9.27723e-08
-8.36336e-09
-9.02527e-08
-8.54536e-09
-8.76837e-08
-8.71372e-09
-8.50694e-08
-8.86797e-09
-8.24141e-08
-9.00764e-09
-7.97223e-08
-9.13228e-09
-7.69984e-08
-9.24146e-09
-7.42471e-08
-9.33474e-09
-7.14731e-08
-9.41172e-09
-6.86814e-08
-9.47199e-09
-6.58769e-08
-9.51517e-09
-6.30646e-08
-9.54092e-09
-6.02498e-08
-9.54889e-09
-5.74377e-08
-9.53876e-09
-5.46335e-08
-9.51025e-09
-5.18428e-08
-9.46308e-09
-4.90709e-08
-9.39703e-09
-4.63234e-08
-9.31189e-09
-4.36058e-08
-9.2075e-09
-4.09238e-08
-9.08373e-09
-3.82829e-08
-8.94047e-09
-3.56887e-08
-8.77768e-09
-3.31469e-08
-8.59535e-09
-3.06631e-08
-8.39351e-09
-2.82428e-08
-8.17226e-09
-2.58915e-08
-7.93173e-09
-2.36147e-08
-7.67215e-09
-2.14176e-08
-7.39381e-09
-1.93055e-08
-7.09706e-09
-1.72834e-08
-6.78236e-09
-1.53562e-08
-6.45028e-09
-1.35285e-08
-6.1015e-09
-1.18046e-08
-5.73683e-09
-1.01887e-08
-5.35726e-09
-8.68441e-09
-4.96396e-09
-7.29496e-09
-4.55833e-09
-6.02313e-09
-4.14204e-09
-4.87107e-09
-3.71704e-09
-3.84024e-09
-3.28569e-09
-2.93131e-09
-2.85079e-09
-2.14403e-09
-2.41565e-09
-1.47705e-09
-1.98426e-09
-9.2779e-10
-1.5614e-09
-4.92244e-10
-1.15273e-09
-1.64747e-10
-7.65069e-10
6.22358e-11
-4.0653e-10
1.98353e-10
-8.67844e-11
2.55643e-10
1.82716e-10
2.48825e-10
3.88517e-10
1.95695e-10
5.15005e-10
1.17688e-10
5.44424e-10
4.09973e-11
4.55548e-10
2.15384e-10
2.29776e-11
-2.17542e-10
5.87729e-11
-4.5562e-10
7.85251e-11
-5.25098e-10
5.6078e-11
-4.45162e-10
-3.04527e-11
-2.41826e-10
-1.99034e-10
6.08805e-11
-4.64255e-10
4.42379e-10
-8.37952e-10
8.85359e-10
-1.32942e-09
1.37517e-09
-1.94583e-09
1.89948e-09
-2.69238e-09
2.44796e-09
-3.57266e-09
3.01196e-09
-4.58866e-09
3.58416e-09
-5.74118e-09
4.15852e-09
-7.02985e-09
4.72997e-09
-8.45336e-09
5.29424e-09
-1.00096e-08
5.84782e-09
-1.16957e-08
6.38773e-09
-1.35081e-08
6.91158e-09
-1.5443e-08
7.4173e-09
-1.74957e-08
7.90326e-09
-1.96616e-08
8.36807e-09
-2.19356e-08
8.81068e-09
-2.43121e-08
9.23013e-09
-2.67857e-08
9.6258e-09
-2.93505e-08
9.99709e-09
-3.20007e-08
1.03437e-08
-3.47302e-08
1.06652e-08
-3.7533e-08
1.09616e-08
-4.04029e-08
1.12327e-08
-4.33337e-08
1.14786e-08
-4.63194e-08
1.16992e-08
-4.93536e-08
1.18947e-08
-5.24302e-08
1.20653e-08
-5.55432e-08
1.22113e-08
-5.86864e-08
1.23328e-08
-6.18539e-08
1.24303e-08
-6.50396e-08
1.2504e-08
-6.82377e-08
1.25542e-08
-7.14424e-08
1.25815e-08
-7.46478e-08
1.25861e-08
-7.78485e-08
1.25685e-08
-8.10389e-08
1.25291e-08
-8.42136e-08
1.24684e-08
-8.73672e-08
1.23867e-08
-9.04946e-08
1.22846e-08
-9.35906e-08
1.21624e-08
-9.66504e-08
1.20208e-08
-9.96692e-08
1.186e-08
-1.02642e-07
1.16808e-08
-1.05565e-07
1.14835e-08
-1.08432e-07
1.12686e-08
-1.11241e-07
1.10367e-08
-1.13986e-07
1.07883e-08
-1.16664e-07
1.05239e-08
-1.1927e-07
1.02441e-08
-1.21801e-07
9.94932e-09
-1.24254e-07
9.64015e-09
-1.26624e-07
9.3171e-09
-1.28908e-07
8.98073e-09
-1.31103e-07
8.63158e-09
-1.33207e-07
8.27018e-09
-1.35215e-07
7.89711e-09
-1.37125e-07
7.51291e-09
-1.38935e-07
7.11815e-09
-1.40642e-07
6.71342e-09
-1.42243e-07
6.29927e-09
-1.43737e-07
5.87628e-09
-1.45121e-07
5.44502e-09
-1.46393e-07
5.00608e-09
-1.47552e-07
4.56004e-09
-1.48595e-07
4.10748e-09
-1.49522e-07
3.64898e-09
-1.5033e-07
3.18516e-09
-1.5102e-07
2.71661e-09
-1.51589e-07
2.24394e-09
-1.52037e-07
1.76774e-09
-1.52362e-07
1.28863e-09
-1.52566e-07
8.07244e-10
-1.52646e-07
3.24189e-10
-1.52604e-07
-1.59908e-10
-1.52438e-07
-6.4441e-10
-1.52149e-07
-1.12868e-09
-1.51736e-07
-1.61206e-09
-1.51202e-07
-2.09391e-09
-1.50545e-07
-2.57356e-09
-1.49767e-07
-3.05035e-09
-1.48869e-07
-3.52364e-09
-1.47851e-07
-3.99276e-09
-1.46715e-07
-4.45703e-09
-1.45463e-07
-4.91581e-09
-1.44096e-07
-5.36841e-09
-1.42615e-07
-5.81417e-09
-1.41023e-07
-6.2524e-09
-1.39321e-07
-6.68243e-09
-1.37513e-07
-7.10356e-09
-1.35599e-07
-7.51512e-09
-1.33584e-07
-7.91642e-09
-1.3147e-07
-8.30677e-09
-1.2926e-07
-8.68549e-09
-1.26956e-07
-9.05191e-09
-1.24563e-07
-9.40534e-09
-1.22084e-07
-9.7451e-09
-1.19522e-07
-1.00705e-08
-1.16881e-07
-1.0381e-08
-1.14166e-07
-1.06757e-08
-1.1138e-07
-1.09541e-08
-1.08528e-07
-1.12156e-08
-1.05614e-07
-1.14594e-08
-1.02643e-07
-1.16849e-08
-9.96193e-08
-1.18915e-08
-9.65483e-08
-1.20786e-08
-9.34349e-08
-1.22456e-08
-9.02844e-08
-1.2392e-08
-8.71021e-08
-1.25171e-08
-8.38934e-08
-1.26204e-08
-8.0664e-08
-1.27014e-08
-7.74195e-08
-1.27596e-08
-7.41658e-08
-1.27946e-08
-7.09088e-08
-1.28059e-08
-6.76546e-08
-1.2793e-08
-6.44092e-08
-1.27556e-08
-6.11788e-08
-1.26935e-08
-5.79697e-08
-1.26061e-08
-5.47882e-08
-1.24934e-08
-5.16405e-08
-1.23551e-08
-4.85332e-08
-1.21911e-08
-4.54726e-08
-1.20011e-08
-4.2465e-08
-1.17852e-08
-3.9517e-08
-1.15434e-08
-3.66348e-08
-1.12757e-08
-3.38247e-08
-1.09823e-08
-3.10931e-08
-1.06634e-08
-2.84459e-08
-1.03193e-08
-2.58893e-08
-9.95042e-09
-2.34291e-08
-9.55728e-09
-2.10709e-08
-9.14053e-09
-1.88202e-08
-8.70096e-09
-1.66822e-08
-8.23951e-09
-1.46618e-08
-7.7573e-09
-1.27633e-08
-7.25571e-09
-1.09909e-08
-6.73633e-09
-9.34822e-09
-6.20105e-09
-7.83816e-09
-5.6521e-09
-6.46306e-09
-5.09214e-09
-5.2245e-09
-4.52425e-09
-4.12316e-09
-3.95212e-09
-3.15872e-09
-3.3801e-09
-2.32969e-09
-2.81329e-09
-1.63329e-09
-2.25779e-09
-1.06525e-09
-1.72077e-09
-6.19635e-10
-1.21069e-09
-2.886e-10
-7.37564e-10
-6.222e-11
-3.13166e-10
7.17965e-11
4.87017e-11
1.28369e-10
3.31947e-10
1.25441e-10
5.17931e-10
8.45351e-11
5.85331e-10
3.16911e-11
5.08391e-10
2.47076e-10
1.09627e-11
-2.28505e-10
1.52908e-11
-4.59946e-10
-1.34785e-11
-4.96323e-10
-1.00184e-10
-3.58461e-10
-2.65904e-10
-7.60987e-11
-5.28026e-10
3.22998e-10
-9.00899e-10
8.15247e-10
-1.39615e-09
1.3806e-09
-2.02302e-09
2.00203e-09
-2.78864e-09
2.66511e-09
-3.69828e-09
3.35759e-09
-4.75542e-09
4.06911e-09
-5.9622e-09
4.79094e-09
-7.31935e-09
5.51568e-09
-8.82647e-09
6.23709e-09
-1.04821e-08
6.94989e-09
-1.2284e-08
7.6497e-09
-1.42291e-08
8.33277e-09
-1.63135e-08
8.99603e-09
-1.85331e-08
9.63685e-09
-2.08829e-08
1.02531e-08
-2.33578e-08
1.0843e-08
-2.59522e-08
1.1405e-08
-2.86601e-08
1.19381e-08
-3.14755e-08
1.24412e-08
-3.43921e-08
1.29136e-08
-3.74032e-08
1.33548e-08
-4.05023e-08
1.37644e-08
-4.36827e-08
1.4142e-08
-4.69376e-08
1.44876e-08
-5.02601e-08
1.4801e-08
-5.36433e-08
1.50824e-08
-5.70805e-08
1.53319e-08
-6.05646e-08
1.55495e-08
-6.40891e-08
1.57357e-08
-6.76469e-08
1.58907e-08
-7.12315e-08
1.60148e-08
-7.4836e-08
1.61086e-08
-7.84541e-08
1.61723e-08
-8.20791e-08
1.62065e-08
-8.57046e-08
1.62116e-08
-8.93243e-08
1.61882e-08
-9.2932e-08
1.61369e-08
-9.65217e-08
1.6058e-08
-1.00087e-07
1.59523e-08
-1.03623e-07
1.58203e-08
-1.07123e-07
1.56626e-08
-1.10582e-07
1.54798e-08
-1.13995e-07