/*--------------------------------*- C++ -*----------------------------------*\
  =========                 |
  \\      /  F ield         | OpenFOAM: The Open Source CFD Toolbox
   \\    /   O peration     | Website:  https://openfoam.org
    \\  /    A nd           | Version:  7
     \\/     M anipulation  |
\*---------------------------------------------------------------------------*/
FoamFile
{
    version     2.0;
    format      ascii;
    class       volScalarField;
    location    "0.125";
    object      p;
}
// * * * * * * * * * * * * * * * * * * * * * * * * * * * * * * * * * * * * * //

dimensions      [0 2 -2 0 0 0 0];

internalField   nonuniform List<scalar> 
6400
(
3.27957e-08
1.15425e-05
-0.000493779
-0.00152081
-0.0029538
-0.00468398
-0.006612
-0.00864882
-0.0107177
-0.0127535
-0.0147015
-0.0165158
-0.0181583
-0.0195969
-0.020806
-0.021765
-0.0224576
-0.0228719
-0.0229994
-0.0228345
-0.0223747
-0.0216203
-0.0205736
-0.0192389
-0.017623
-0.0157338
-0.0135814
-0.0111769
-0.008533
-0.00566348
-0.0025833
0.000691604
0.00414428
0.00775696
0.0115111
0.0153873
0.0193659
0.0234262
0.0275471
0.0317073
0.035885
0.0400582
0.0442048
0.0483024
0.0523289
0.0562625
0.0600813
0.063764
0.0672896
0.070638
0.0737898
0.0767267
0.0794313
0.0818874
0.0840805
0.0859976
0.0876275
0.088961
0.0899913
0.0907136
0.091126
0.0912293
0.0910276
0.0905284
0.0897428
0.0886856
0.0873761
0.0858382
0.0841011
0.0822002
0.0801768
0.0780801
0.0759671
0.0739046
0.0719698
0.0702509
0.0688449
0.0678557
0.0673894
0.0674267
-1.16798e-05
2.97538e-06
-0.000447705
-0.00132521
-0.00253075
-0.00398597
-0.00561572
-0.00734811
-0.0091181
-0.0108684
-0.01255
-0.0141205
-0.015544
-0.0167903
-0.0178343
-0.0186557
-0.0192381
-0.0195694
-0.0196402
-0.0194448
-0.0189796
-0.018244
-0.0172394
-0.0159692
-0.0144389
-0.0126556
-0.0106279
-0.00836602
-0.00588137
-0.00318663
-0.000295563
0.00277714
0.00601575
0.00940372
0.0129238
0.016558
0.0202875
0.0240933
0.0279555
0.0318542
0.0357689
0.0396791
0.043564
0.0474028
0.0511747
0.0548595
0.0584368
0.0618866
0.0651896
0.0683272
0.0712815
0.0740357
0.0765737
0.078881
0.0809444
0.0827522
0.0842947
0.0855638
0.0865538
0.087261
0.0876843
0.0878255
0.0876894
0.0872838
0.0866199
0.0857128
0.0845811
0.083248
0.0817417
0.0800954
0.0783477
0.0765433
0.0747335
0.0729763
0.0713369
0.0698866
0.0686985
0.067847
0.0674254
0.0674637
0.000493332
0.000458486
8.71772e-06
-0.000801191
-0.00188427
-0.00317755
-0.00462035
-0.00615306
-0.00772016
-0.00927176
-0.0107637
-0.0121575
-0.0134202
-0.0145234
-0.0154434
-0.0161607
-0.0166592
-0.0169269
-0.0169544
-0.0167356
-0.0162667
-0.0155462
-0.0145752
-0.0133563
-0.0118942
-0.0101951
-0.00826698
-0.00611896
-0.00376164
-0.00120672
0.00153297
0.00444369
0.00751071
0.0107185
0.0140509
0.0174909
0.0210208
0.0246225
0.0282775
0.0319667
0.0356709
0.0393707
0.0430464
0.0466783
0.0502471
0.0537335
0.0571184
0.0603829
0.063509
0.0664792
0.0692769
0.0718864
0.0742928
0.0764825
0.0784435
0.0801652
0.0816388
0.0828571
0.0838151
0.08451
0.0849412
0.0851109
0.0850243
0.0846893
0.0841171
0.0833221
0.0823225
0.0811404
0.0798024
0.0783395
0.0767871
0.0751859
0.0735814
0.0720244
0.0705707
0.0692796
0.0682103
0.0674228
0.067002
0.0669991
0.00152476
0.00134393
0.000825116
1.19049e-05
-0.00102901
-0.00224432
-0.00358249
-0.00499304
-0.00642861
-0.0078458
-0.00920543
-0.010473
-0.0116182
-0.0126153
-0.0134421
-0.0140803
-0.0145147
-0.0147336
-0.0147281
-0.0144918
-0.0140209
-0.0133138
-0.0123709
-0.0111946
-0.00978893
-0.00815962
-0.00631387
-0.00426022
-0.00200847
0.000430463
0.00304456
0.00582081
0.00874534
0.0118035
0.01498
0.0182587
0.0216228
0.0250551
0.028538
0.0320535
0.0355833
0.0391088
0.0426114
0.0460724
0.0494735
0.0527963
0.0560226
0.0591347
0.0621153
0.0649482
0.0676176
0.0701086
0.0724073
0.074501
0.0763785
0.0780299
0.0794472
0.0806238
0.0815553
0.0822391
0.0826752
0.0828661
0.0828168
0.0825351
0.0820319
0.0813208
0.0804191
0.0793478
0.0781316
0.0767988
0.075382
0.0739174
0.0724457
0.0710113
0.0696623
0.0684491
0.0674221
0.0666328
0.0661485
0.066013
0.00297158
0.00256479
0.00191855
0.00105253
3.82025e-06
-0.00118284
-0.00246352
-0.00379619
-0.00514075
-0.00645988
-0.00771949
-0.00888897
-0.0099413
-0.0108529
-0.0116038
-0.012177
-0.0125585
-0.0127372
-0.0127047
-0.0124547
-0.0119836
-0.0112897
-0.0103732
-0.009236
-0.00788194
-0.00631619
-0.00454541
-0.00257757
-0.000421796
0.00191164
0.00441147
0.0070654
0.00986033
0.0127825
0.0158172
0.0189492
0.0221625
0.0254408
0.0287675
0.0321253
0.0354968
0.0388643
0.04221
0.0455164
0.0487659
0.0519408
0.055024
0.0579986
0.0608483
0.0635576
0.0661116
0.0684963
0.0706983
0.0727059
0.0745084
0.0760968
0.0774634
0.0786022
0.0795091
0.0801818
0.0806207
0.0808281
0.080809
0.0805709
0.0801238
0.0794808
0.078658
0.0776749
0.0765542
0.0753217
0.0740064
0.0726409
0.0712607
0.0699045
0.0686133
0.0674298
0.0663968
0.065558
0.0649541
0.0646072
0.00473111
0.00404785
0.00323086
0.00227171
0.001174
-2.51626e-05
-0.00128861
-0.0025817
-0.00387103
-0.0051248
-0.00631377
-0.00741131
-0.00839353
-0.00923945
-0.00993108
-0.010453
-0.0107926
-0.0109396
-0.0108861
-0.0106265
-0.0101571
-0.0094764
-0.0085845
-0.00748324
-0.00617604
-0.00466777
-0.00296465
-0.00107412
0.000995289
0.00323382
0.00563077
0.00817463
0.010853
0.0136528
0.01656
0.01956
0.0226378
0.0257779
0.0289643
0.0321806
0.0354101
0.038636
0.0418415
0.0450097
0.0481236
0.0511666
0.0541222
0.0569743
0.0597076
0.0623071
0.0647588
0.0670491
0.0691655
0.0710967
0.0728329
0.0743653
0.0756868
0.0767915
0.0776756
0.0783373
0.0787768
0.0789963
0.0790004
0.0787962
0.0783929
0.0778029
0.0770409
0.0761248
0.0750752
0.0739151
0.0726707
0.0713703
0.0700451
0.0687285
0.067455
0.0662601
0.0651806
0.064253
0.0634867
0.0628777
0.0067122
0.00572454
0.00470708
0.00362314
0.00244274
0.00119625
-8.4549e-05
-0.00137175
-0.00263775
-0.00385591
-0.00500141
-0.00605133
-0.00698493
-0.0077839
-0.00843227
-0.00891636
-0.00922478
-0.0093484
-0.00928005
-0.00901467
-0.00854904
-0.00788162
-0.00701265
-0.00594398
-0.00467889
-0.00322192
-0.00157891
0.000243039
0.00223584
0.00439027
0.00669618
0.00914267
0.0117179
0.0144094
0.0172038
0.0200872
0.0230454
0.0260634
0.029126
0.0322176
0.035322
0.0384234
0.0415056
0.0445523
0.0475474
0.0504748
0.0533188
0.056064
0.0586957
0.0611997
0.0635623
0.0657705
0.0678125
0.0696776
0.0713561
0.0728398
0.0741216
0.0751961
0.0760597
0.0767104
0.0771483
0.0773756
0.0773962
0.0772165
0.0768454
0.0762937
0.0755753
0.074706
0.0737044
0.0725912
0.071389
0.0701231
0.0688203
0.067509
0.0662183
0.0649771
0.0638174
0.0627695
0.061811
0.0609108
0.00883562
0.00753026
0.00629347
0.00506186
0.00377277
0.00245137
0.00112506
-0.000183932
-0.00145338
-0.00266131
-0.00378674
-0.00481036
-0.00571443
-0.00648307
-0.00710252
-0.00756086
-0.00784792
-0.00795577
-0.00787824
-0.0076108
-0.00715058
-0.00649649
-0.00564898
-0.00460987
-0.00338231
-0.00197075
-0.000380805
0.00138078
0.00330625
0.00538683
0.00761292
0.00997406
0.012459
0.0150555
0.0177512
0.0205326
0.0233861
0.0262975
0.0292521
0.0322348
0.0352303
0.0382233
0.0411984
0.0441398
0.0470319
0.0498592
0.0526068
0.0552599
0.0578042
0.0602261
0.0625122
0.0646501
0.0666285
0.0684369
0.0700661
0.0715079
0.0727556
0.0738037
0.0746487
0.0752887
0.0757234
0.0759545
0.0759856
0.0758223
0.0754726
0.0749465
0.0742561
0.0734159
0.0724421
0.071353
0.0701688
0.068911
0.0676028
0.0662684
0.0649316
0.0636162
0.06235
0.0611586
0.0599882
0.0587825
0.0110346
0.00940782
0.00794079
0.00654545
0.0051284
0.00371073
0.00231656
0.000963148
-0.000332024
-0.00155096
-0.0026763
-0.00369194
-0.00458305
-0.00533609
-0.00593927
-0.00638241
-0.00665693
-0.00675593
-0.00667417
-0.00640783
-0.00595464
-0.00531388
-0.00448625
-0.00347371
-0.0022794
-0.00090768
0.000635953
0.00234498
0.00421196
0.00622852
0.00838543
0.0106727
0.0130793
0.0155938
0.0182041
0.0208974
0.0236607
0.0264801
0.0293416
0.0322306
0.0351327
0.0380329
0.0409162
0.0437675
0.0465717
0.0493139
0.0519796
0.0545547
0.0570251
0.0593776
0.0615993
0.0636782
0.0656032
0.0673642
0.068952
0.0703587
0.0715774
0.072603
0.0734318
0.0740615
0.0744916
0.0747234
0.0747597
0.0746057
0.0742683
0.0737563
0.0730805
0.0722536
0.0712901
0.0702059
0.0690185
0.0677466
0.0664099
0.0650288
0.0636229
0.0622112
0.0608186
0.0594669
0.058073
0.0565566
0.0132537
0.0113076
0.00960486
0.00803499
0.00647594
0.00494579
0.00346607
0.0020498
0.000710665
-0.000536923
-0.00167913
-0.00270258
-0.00359489
-0.004345
-0.00494306
-0.00538042
-0.00565002
-0.0057462
-0.00566459
-0.00540209
-0.00495713
-0.00432949
-0.00352013
-0.00253113
-0.00136581
-2.855e-05
0.00147526
0.00313928
0.00495634
0.00691833
0.00901632
0.0112406
0.0135807
0.0160255
0.0185633
0.021182
0.0238688
0.0266104
0.0293932
0.0322033
0.0350267
0.0378489
0.0406554
0.0434313
0.0461622
0.0488336
0.0514316
0.0539421
0.0563516
0.0586471
0.0608162
0.062847
0.0647286
0.0664511
0.0680054
0.0693836
0.0705788
0.0715858
0.0724007
0.073021
0.0734458
0.0736757
0.0737131
0.0735622
0.073229
0.0727212
0.0720483
0.0712214
0.070253
0.0691571
0.0679488
0.066644
0.0652596
0.0638125
0.0623187
0.0607936
0.0592597
0.0577362
0.0561125
0.0542865
0.0154466
0.0131863
0.0112463
0.00949521
0.00778415
0.00612924
0.00455019
0.00305658
0.00165855
0.00036743
-0.000805633
-0.00185009
-0.00275588
-0.00351395
-0.00411627
-0.00455597
-0.00482734
-0.0049258
-0.00484791
-0.00459151
-0.00415568
-0.00354065
-0.00274768
-0.00177916
-0.000638622
0.000669497
0.00213988
0.00376629
0.00554174
0.0074583
0.00950729
0.0116793
0.0139641
0.0163512
0.0188291
0.0213861
0.0240097
0.0266871
0.0294053
0.0321508
0.0349099
0.0376684
0.0404123
0.0431272
0.0457989
0.0484136
0.0509573
0.0534164
0.0557777
0.0580284
0.0601561
0.0621495
0.0639975
0.0656903
0.0672189
0.0685752
0.0697525
0.0707451
0.0715489
0.0721611
0.0725803
0.0728066
0.0728416
0.0726888
0.0723531
0.0718413
0.0711613
0.0703229
0.0693368
0.0682151
0.0669708
0.0656175
0.0641694
0.0626407
0.0610444
0.0593926
0.0577064
0.0560035
0.0541474
0.0520159
0.0175739
0.0150065
0.0128303
0.010894
0.00902411
0.00723543
0.00554647
0.00396393
0.00249508
0.00114846
-6.72018e-05
-0.00114366
-0.00207305
-0.00284822
-0.0034629
-0.0039118
-0.00419044
-0.00429535
-0.00422415
-0.00397555
-0.00354924
-0.0029459
-0.00216726
-0.00121606
-9.6032e-05
0.00118828
0.00263156
0.00422765
0.00596962
0.00784968
0.00985932
0.0119894
0.0142301
0.016571
0.0190012
0.021509
0.0240824
0.026709
0.0293762
0.0320708
0.0347793
0.0374882
0.0401835
0.0428513
0.0454777
0.048049
0.0505517
0.0529723
0.0552977
0.0575153
0.059613
0.0615794
0.0634035
0.0650755
0.0665862
0.0679275
0.0690924
0.070075
0.0708709
0.0714769
0.071891
0.0721126
0.0721427
0.071984
0.0716405
0.0711176
0.0704223
0.0695628
0.0685482
0.067389
0.0660963
0.0646815
0.0631567
0.0615338
0.0598233
0.0580348
0.0561885
0.0543012
0.0522125
0.0497814
0.0196026
0.0167357
0.0143254
0.0122023
0.0101691
0.00824015
0.00643339
0.00475292
0.00320366
0.00179196
0.000524209
-0.000593298
-0.00155465
-0.00235448
-0.00298822
-0.0034519
-0.00374226
-0.00385698
-0.00379471
-0.00355498
-0.00313805
-0.00254512
-0.00177848
-0.000841255
0.00026263
0.00152854
0.00295108
0.00452405
0.00624052
0.00809281
0.0100726
0.012171
0.0143784
0.0166845
0.0190786
0.0215495
0.0240854
0.0266742
0.0293036
0.0319607
0.0346323
0.0373051
0.0399654
0.0425996
0.0451942
0.0477354
0.0502101
0.0526047
0.0549064
0.0571026
0.0591814
0.0611311
0.062941
0.064601
0.0661018
0.067435
0.0685935
0.0695709
0.0703626
0.0709647
0.0713747
0.0715914
0.0716152
0.0714477
0.0710921
0.0705528
0.0698354
0.0689468
0.067895
0.0666886
0.0653371
0.0638503
0.0622384
0.0605113
0.0586774
0.0567444
0.0547324
0.0526577
0.0503375
0.0476132
0.0215044
0.0183453
0.015704
0.0133936
0.0111945
0.00912076
0.0071902
0.00540499
0.00376791
0.00228343
0.000956023
-0.000209801
-0.00120989
-0.00204057
-0.0026987
-0.00318152
-0.00348702
-0.00361411
-0.00356233
-0.00333184
-0.00292358
-0.00233943
-0.00158222
-0.000655374
0.00043699
0.00169004
0.00309819
0.00465518
0.00635407
0.00818729
0.0101467
0.0122234
0.014408
0.0166903
0.01906
0.021506
0.0240167
0.0265804
0.029185
0.0318177
0.0344657
0.0371157
0.0397545
0.0423685
0.0449443
0.0474686
0.0499279
0.052309
0.054599
0.0567854
0.0588562
0.0607998
0.0626052
0.0642622
0.0657611
0.0670935
0.0682517
0.0692293
0.0700208
0.070622
0.0710298
0.0712422
0.071259
0.0710809
0.0707102
0.0701502
0.0694055
0.0684816
0.0673853
0.0661239
0.0647053
0.063138
0.0614305
0.0595912
0.0576269
0.0555436
0.0533618
0.051098
0.0485481
0.0455367
0.0232545
0.0198102
0.0169413
0.0144438
0.0120773
0.00985574
0.00779709
0.00590199
0.00417141
0.0026082
0.00121529
-4.59108e-06
-0.00104885
-0.0019152
-0.0026017
-0.00310698
-0.00343028
-0.00357145
-0.0035308
-0.00330925
-0.00290853
-0.00233118
-0.00158043
-0.000659996
0.000425686
0.0016715
0.00307168
0.00461986
0.00630913
0.00813195
0.0100802
0.0121451
0.0143173
0.0165869
0.0189435
0.0213764
0.0238741
0.0264252
0.0290176
0.0316389
0.0342762
0.0369166
0.039547
0.0421539
0.0447242
0.0472442
0.0497008
0.0520807
0.054371
0.0565592
0.0586332
0.0605811
0.0623918
0.0640548
0.0655603
0.0668994
0.0680641
0.0690474
0.0698435
0.0704474
0.0708554
0.071065
0.0710751
0.0708857
0.070498
0.0699144
0.0691383
0.0681743
0.0670279
0.0657053
0.0642131
0.0625584
0.0607486
0.0587908
0.0566906
0.0544527
0.0520982
0.0496443
0.0468666
0.0435737
0.0248309
0.0211078
0.0180144
0.0153308
0.0127962
0.0104249
0.00823512
0.00622627
0.00439801
0.00275163
0.00128861
1.02491e-05
-0.00108218
-0.00198767
-0.00270556
-0.00323575
-0.00357851
-0.00373452
-0.00370492
-0.0034915
-0.00309675
-0.00252371
-0.00177599
-0.0008577
0.000226336
0.0014707
0.00286943
0.0044161
0.00610376
0.00792483
0.00987117
0.0119341
0.0141042
0.0163718
0.0187266
0.021158
0.0236549
0.0262056
0.0287984
0.0314209
0.0340604
0.0367042
0.0393393
0.0419522
0.0445297
0.0470583
0.0495248
0.0519157
0.0542183
0.0564199
0.0585081
0.060471
0.0622971
0.0639755
0.0654962
0.0668499
0.0680282
0.0690234
0.0698293
0.0704402
0.0708518
0.0710609
0.0710656
0.070865
0.0704595
0.0698504
0.0690404
0.0680328
0.0668321
0.0654434
0.0638725
0.0621252
0.0602079
0.0581266
0.0558861
0.0534902
0.0509609
0.0483162
0.0453125
0.0417427
0.0262139
0.0222174
0.0189026
0.0160341
0.0133312
0.0108089
0.00848599
0.0063608
0.00443172
0.00269886
0.00116238
-0.000177607
-0.00132104
-0.00226811
-0.00301949
-0.00357606
-0.00393899
-0.00410981
-0.00409059
-0.00388395
-0.00349301
-0.00292125
-0.00217272
-0.00125202
-0.000164386
0.00108449
0.0024885
0.00404108
0.0057352
0.0075632
0.00951687
0.0115875
0.0137658
0.0160422
0.0184064
0.020848
0.0233557
0.0259183
0.0285239
0.0311602
0.0338148
0.0364749
0.0391275
0.0417593
0.0443569
0.0469068
0.0493956
0.0518101
0.0541371
0.0563638
0.0584776
0.0604662
0.0623178
0.0640214
0.0655664
0.0669431
0.0681425
0.0691565
0.069978
0.0706009
0.0710201
0.0712318
0.0712332
0.0710226
0.0705995
0.0699644
0.0691188
0.0680653
0.0668074
0.0653493
0.0636957
0.0618517
0.0598228
0.0576143
0.05523
0.0526735
0.0499677
0.0471318
0.0439034
0.0400601
0.0273852
0.02312
0.0195865
0.0165341
0.0136632
0.0109892
0.0085319
0.00628863
0.00425663
0.00243499
0.000822816
-0.000580858
-0.00177715
-0.00276743
-0.00355341
-0.00413685
-0.0045198
-0.00470475
-0.00469466
-0.00449285
-0.00410293
-0.0035289
-0.00277536
-0.00184741
-0.000750668
0.000508955
0.00192518
0.00349128
0.00520003
0.00704366
0.00901389
0.011102
0.0132988
0.0155947
0.0179795
0.0204427
0.0229732
0.0255596
0.0281903
0.030853
0.0335354
0.0362246
0.0389077
0.0415713
0.0442018
0.0467857
0.0493096
0.05176
0.0541236
0.0563873
0.0585381
0.0605635
0.0624514
0.0641903
0.0657691
0.0671776
0.0684062
0.0694462
0.0702899
0.0709305
0.0713623
0.0715806
0.0715817
0.0713633
0.0709238
0.070263
0.0693814
0.0682808
0.0669639
0.065434
0.063695
0.0617514
0.0596077
0.0572688
0.0547382
0.0520188
0.0491351
0.0461074
0.0426549
0.0385403
0.028328
0.0237977
0.0200476
0.0168125
0.0137738
0.0109481
0.00835565
0.00599313
0.00385689
0.00194509
0.000255937
-0.00121264
-0.00246283
-0.00349703
-0.00431777
-0.00492771
-0.00532987
-0.00552767
-0.0055248
-0.00532516
-0.00493288
-0.00435261
-0.00358952
-0.00264918
-0.00153747
-0.000260551
0.00117507
0.00276242
0.00449407
0.00636211
0.00835822
0.0104737
0.0126993
0.0150254
0.0174419
0.0199382
0.0225032
0.0251256
0.0277936
0.0304953
0.0332182
0.0359494
0.0386758
0.0413839
0.0440603
0.0466911
0.0492629
0.0517618
0.0541744
0.0564871
0.0586868
0.0607605
0.0626956
0.0644802
0.0661028
0.0675525
0.068819
0.069893
0.0707662
0.071431
0.071881
0.0721106
0.0721154
0.0718922
0.0714386
0.0707534
0.0698365
0.0686887
0.067312
0.065709
0.0638828
0.0618373
0.0595766
0.0571051
0.0544258
0.0515418
0.0484787
0.0452583
0.0415816
0.0371966
0.0290263
0.0242333
0.0202685
0.0168515
0.0136456
0.010668
0.0079402
0.00545791
0.00321682
0.00121425
-0.000552505
-0.00208648
-0.0033908
-0.0044687
-0.00532353
-0.00595896
-0.00637893
-0.00658762
-0.00658933
-0.00638854
-0.00599008
-0.00539922
-0.00462168
-0.00366336
-0.00253045
-0.00122938
0.000233032
0.00184951
0.00361244
0.00551383
0.00754529
0.00969806
0.0119629
0.01433
0.0167893
0.01933
0.0219413
0.0246117
0.0273296
0.0300828
0.0328588
0.0356447
0.0384273
0.0411931
0.0439282
0.0466191
0.0492516
0.0518119
0.0542861
0.0566603
0.0589209
0.0610547
0.0630485
0.0648899
0.0665667
0.0680674
0.0693812
0.0704979
0.0714086
0.0721048
0.0725794
0.072826
0.0728394
0.0726154
0.0721508
0.0714437
0.070493
0.069299
0.0678627
0.0661861
0.0642718
0.062123
0.0597435
0.0571376
0.0543079
0.0512574
0.0480133
0.0445991
0.0406974
0.0360416
0.0294646
0.0244106
0.020232
0.0166339
0.0132612
0.010132
0.00726877
0.00466669
0.00232064
0.000227245
-0.00161711
-0.00321626
-0.00457411
-0.00569471
-0.00658239
-0.0072417
-0.00767737
-0.00789422
-0.00789719
-0.00769146
-0.00728255
-0.00667636
-0.00587898
-0.00489665
-0.00373591
-0.00240358
-0.000906822
0.000746864
0.00254969
0.00449355
0.00656999
0.00877013
0.0110846
0.0135035
0.0160167
0.0186135
0.0212828
0.0240134
0.0267934
0.0296107
0.0324526
0.0353061
0.0381579
0.0409944
0.0438016
0.0465656
0.0492721
0.0519068
0.0544554
0.0569038
0.0592379
0.061444
0.0635084
0.0654181
0.0671602
0.0687225
0.0700935
0.0712623
0.0722192
0.072955
0.0734615
0.0737317
0.0737593
0.0735395
0.0730681
0.0723423
0.0713605
0.0701219
0.0686271
0.0668773
0.0648747
0.0626219
0.0601226
0.0573808
0.054399
0.0511803
0.0477535
0.0441437
0.0400154
0.0350872
0.0296275
0.0243133
0.0199217
0.0161429
0.0126036
0.00932315
0.00632472
0.0036031
0.0011524
-0.00103145
-0.00295277
-0.00461612
-0.00602623
-0.00718801
-0.00810669
-0.0087876
-0.00923611
-0.00945772
-0.00945809
-0.00924318
-0.00881914
-0.0081923
-0.00736916
-0.00635637
-0.00516088
-0.00378993
-0.00225099
-0.000551752
0.00129984
0.00329554
0.00542673
0.00768437
0.010059
0.0125406
0.0151189
0.0177833
0.0205226
0.0233255
0.0261801
0.0290741
0.0319947
0.0349289
0.0378631
0.0407836
0.0436762
0.0465267
0.0493205
0.0520429
0.0546792
0.0572149
0.0596355
0.0619266
0.064074
0.066064
0.0678831
0.0695182
0.0709571
0.0721883
0.0732009
0.0739851
0.0745318
0.0748329
0.0748815
0.0746717
0.0741985
0.0734584
0.0724489
0.0711685
0.0696171
0.0677954
0.0657049
0.0633481
0.0607283
0.0578494
0.0547141
0.0513254
0.0477139
0.0439064
0.039549
0.0343453
0.0295001
0.0239255
0.0193208
0.0153615
0.0116559
0.00822442
0.00509123
0.00225055
-0.00030414
-0.00257755
-0.00457462
-0.00630068
-0.00776126
-0.00896217
-0.00990936
-0.0106088
-0.0110667
-0.0112891
-0.0112826
-0.0110537
-0.0106092
-0.00995588
-0.00910059
-0.00805052
-0.00681307
-0.00539584
-0.00380653
-0.00205306
-0.00014357
0.0019135
0.00410935
0.00643478
0.00888012
0.0114354
0.0140902
0.0168339
0.0196553
0.0225428
0.0254845
0.0284679
0.0314802
0.0345081
0.0375381
0.0405561
0.0435477
0.0464983
0.049393
0.0522167
0.0549544
0.057591
0.0601114
0.0625008
0.0647442
0.0668271
0.0687354
0.0704553
0.0719737
0.0732781
0.0743569
0.0751993
0.0757952
0.0761357
0.0762129
0.0760199
0.075551
0.0748018
0.073769
0.0724504
0.0708451
0.0689533
0.0667761
0.0643157
0.0615752
0.0585585
0.0552682
0.0517076
0.0479092
0.0439013
0.0393115
0.0338281
0.0290668
0.0232311
0.0184129
0.0142728
0.0104011
0.00681878
0.00355129
0.000592247
-0.00206544
-0.00442707
-0.00649823
-0.00828506
-0.00979387
-0.0110312
-0.0120037
-0.0127181
-0.0131812
-0.0134
-0.0133818
-0.0131336
-0.0126628
-0.0119765
-0.0110823
-0.00998778
-0.00870078
-0.00722919
-0.00558098
-0.00376429
-0.00178751
0.000340668
0.00261125
0.00501487
0.00754177
0.0101819
0.0129247
0.0157596
0.0186751
0.0216596
0.0247009
0.0277866
0.0309037
0.0340388
0.037178
0.0403072
0.0434116
0.0464762
0.0494858
0.0524249
0.055278
0.0580294
0.0606636
0.0631649
0.0655178
0.0677071
0.0697176
0.071535
0.0731451
0.0745346
0.0756909
0.0766022
0.0772574
0.0776466
0.0777609
0.0775925
0.077135
0.0763828
0.075332
0.0739796
0.072324
0.0703648
0.0681027
0.0655396
0.0626786
0.0595235
0.0560769
0.0523424
0.0483544
0.0441429
0.0393166
0.0335481
0.0283121
0.0222137
0.017181
0.0128598
0.0088217
0.00508883
0.00168753
-0.00138893
-0.00414831
-0.00659647
-0.00873973
-0.0105849
-0.0121391
-0.0134096
-0.0144036
-0.0151286
-0.0155925
-0.0158027
-0.0157673
-0.0154939
-0.0149903
-0.0142642
-0.0133239
-0.0121774
-0.0108328
-0.00929833
-0.0075823
-0.00569311
-0.00363944
-0.00143021
0.000925376
0.00341782
0.00603726
0.00877354
0.0116161
0.0145541
0.0175759
0.0206698
0.0238236
0.0270246
0.0302598
0.0335156
0.0367778
0.0400321
0.0432633
0.0464561
0.0495949
0.0526638
0.0556467
0.0585275
0.0612898
0.0639174
0.0663941
0.0687036
0.0708303
0.0727586
0.0744736
0.0759609
0.077207
0.0781988
0.0789243
0.0793726
0.0795336
0.0793988
0.0789606
0.0782126
0.07715
0.075769
0.0740674
0.0720442
0.0696997
0.0670354
0.0640544
0.0607604
0.0571563
0.0532458
0.0490652
0.0446465
0.0395786
0.0335185
0.0272198
0.0208565
0.015608
0.0111048
0.00690005
0.00301674
-0.000517729
-0.00371053
-0.00657004
-0.00910278
-0.0113157
-0.0132164
-0.0148126
-0.0161123
-0.0171235
-0.0178546
-0.018314
-0.0185101
-0.0184513
-0.0181461
-0.0176027
-0.0168297
-0.0158356
-0.0146289
-0.0132182
-0.011612
-0.00981891
-0.00784766
-0.00570723
-0.00340677
-0.000955657
0.00163648
0.00435969
0.00720368
0.0101578
0.0132108
0.0163514
0.0195674
0.0228465
0.0261761
0.0295429
0.032933
0.0363322
0.0397257
0.043098
0.0464336
0.0497162
0.0529297
0.0560574
0.0590825
0.061988
0.0647569
0.0673721
0.0698167
0.072074
0.0741276
0.0759616
0.0775605
0.0789095
0.0799945
0.0808025
0.0813212
0.0815398
0.0814484
0.0810385
0.0803029
0.0792357
0.0778323
0.0760899
0.0740068
0.0715829
0.0688195
0.0657193
0.0622864
0.0585235
0.0544347
0.0500583
0.045428
0.0401129
0.0337534
0.0257734
0.0191423
0.013676
0.00898979
0.00461788
0.000584208
-0.00308273
-0.00639065
-0.00934855
-0.0119636
-0.0142434
-0.0161962
-0.0178305
-0.0191549
-0.0201785
-0.0209103
-0.0213596
-0.0215352
-0.0214464
-0.0211022
-0.0205117
-0.0196839
-0.0186278
-0.0173525
-0.0158667
-0.0141794
-0.0122996
-0.0102364
-0.00799909
-0.00559694
-0.00303949
-0.000336514
0.00250189
0.00546527
0.0085428
0.0117232
0.0149949
0.0183458
0.0217635
0.025235
0.028747
0.0322854
0.0358357
0.0393827
0.0429108
0.0464039
0.0498456
0.053219
0.0565069
0.0596918
0.062756
0.0656817
0.0684511
0.0710464
0.0734499
0.0756441
0.077612
0.079337
0.0808032
0.0819953
0.0828988
0.0835006
0.0837885
0.0837516
0.0833803
0.0826662
0.0816026
0.080184
0.0784068
0.0762687
0.0737691
0.070909
0.067691
0.0641192
0.0601964
0.055927
0.051351
0.0465045
0.0409356
0.034268
0.0239554
0.017053
0.0113666
0.00649606
0.00195633
-0.00222767
-0.00602635
-0.00944802
-0.0125023
-0.015197
-0.0175404
-0.0195414
-0.0212093
-0.0225537
-0.0235843
-0.024311
-0.0247436
-0.0248919
-0.0247658
-0.0243751
-0.0237294
-0.0228384
-0.0217116
-0.0203584
-0.0187881
-0.01701
-0.0150336
-0.0128683
-0.0105235
-0.00800885
-0.00533395
-0.00250876
0.000456449
0.00355108
0.00676416
0.0100843
0.0134999
0.0169987
0.0205681
0.0241952
0.0278662
0.031567
0.0352827
0.0389979
0.0426967
0.0463627
0.0499789
0.0535278
0.0569918
0.0603526
0.0635917
0.0666906
0.0696306
0.0723929
0.0749588
0.0773098
0.0794276
0.0812945
0.0828932
0.0842072
0.0852209
0.0859195
0.0862898
0.0863196
0.0859981
0.0853159
0.0842651
0.0828394
0.0810343
0.0788469
0.076276
0.0733223
0.0699882
0.0662779
0.0621942
0.0577414
0.0529622
0.0478942
0.0420643
0.0350787
0.0217479
0.0145699
0.00866068
0.00360416
-0.0011042
-0.0054385
-0.00936819
-0.0129021
-0.0160506
-0.0188219
-0.0212252
-0.0232701
-0.0249667
-0.0263256
-0.0273572
-0.0280721
-0.0284809
-0.0285945
-0.0284232
-0.0279776
-0.0272682
-0.026305
-0.0250981
-0.0236574
-0.0219926
-0.0201137
-0.0180303
-0.0157522
-0.0132891
-0.0106508
-0.00784702
-0.00488801
-0.00178418
0.00145374
0.00481468
0.00828721
0.0118595
0.0155193
0.019254
0.0230503
0.0268943
0.0307717
0.0346675
0.0385658
0.0424507
0.046305
0.0501116
0.0538523
0.0575087
0.0610619
0.0644929
0.067782
0.0709097
0.0738563
0.0766019
0.0791268
0.0814117
0.0834373
0.0851851
0.0866371
0.0877764
0.088587
0.089054
0.089164
0.0889049
0.0882661
0.0872385
0.0858149
0.0839898
0.0817596
0.0791226
0.0760791
0.0726311
0.0687828
0.0645371
0.0598985
0.0549118
0.0496168
0.043518
0.0362034
0.0191317
0.0116734
0.00553817
0.000293839
-0.00458411
-0.00906884
-0.0131287
-0.0167732
-0.0200132
-0.0228578
-0.0253168
-0.0274008
-0.0291208
-0.030488
-0.0315138
-0.0322097
-0.0325872
-0.0326577
-0.0324327
-0.0319234
-0.0311409
-0.0300958
-0.0287989
-0.0272604
-0.0254909
-0.0235005
-0.0212993
-0.0188974
-0.0163046
-0.0135311
-0.0105868
-0.00748212
-0.00422762
-0.000834147
0.00268717
0.00632483
0.0100669
0.0139012
0.0178146
0.021794
0.0258252
0.0298937
0.0339843
0.0380811
0.0421675
0.0462262
0.0502393
0.0541883
0.0580541
0.0618171
0.0654573
0.0689545
0.072288
0.0754369
0.0783804
0.0810975
0.0835675
0.0857698
0.0876844
0.089292
0.090574
0.0915128
0.0920922
0.0922973
0.0921145
0.0915318
0.0905391
0.0891279
0.0872919
0.0850264
0.0823293
0.0792001
0.075641
0.0716557
0.0672471
0.0624201
0.0572217
0.0516936
0.0453172
0.0376616
0.0160869
0.00834296
0.0019781
-0.00345616
-0.00850484
-0.0131401
-0.0173293
-0.0210824
-0.0244111
-0.0273252
-0.0298354
-0.0319532
-0.0336905
-0.0350592
-0.0360718
-0.0367407
-0.0370783
-0.037097
-0.036809
-0.0362263
-0.0353606
-0.0342233
-0.0328257
-0.0311788
-0.0292935
-0.0271805
-0.0248501
-0.0223128
-0.0195788
-0.0166582
-0.0135614
-0.0102989
-0.00688149
-0.00331994
0.000374509
0.00419029
0.00811542
0.0121375
0.0162434
0.0204198
0.0246526
0.028927
0.0332275
0.0375382
0.0418419
0.0461212
0.0503575
0.0545318
0.0586245
0.0626151
0.0664829
0.0702067
0.0737647
0.0771351
0.0802957
0.0832243
0.0858987
0.0882969
0.0903974
0.0921792
0.0936222
0.0947071
0.095416
0.0957325
0.0956412
0.095129
0.0941841
0.092797
0.0909601
0.0886679
0.0859175
0.082708
0.0790408
0.0749199
0.0703478
0.0653299
0.059915
0.0541475
0.0474842
0.0394747
0.0125927
0.00455698
-0.00204156
-0.0076682
-0.0128889
-0.0176749
-0.0219923
-0.0258518
-0.029266
-0.0322456
-0.034802
-0.0369476
-0.0386953
-0.0400581
-0.0410493
-0.0416825
-0.041971
-0.0419282
-0.041567
-0.0409003
-0.0399406
-0.0387
-0.0371905
-0.0354238
-0.0334112
-0.0311638
-0.0286924
-0.0260077
-0.0231202
-0.0200404
-0.0167789
-0.0133462
-0.0097532
-0.00601081
-0.00213027
0.00187677
0.00599827
0.0102217
0.014534
0.0189216
0.0233704
0.0278656
0.0323914
0.0369316
0.0414689
0.0459852
0.0504618
0.054879
0.0592164
0.0634531
0.0675674
0.0715371
0.0753394
0.0789512
0.0823491
0.0855096
0.0884089
0.0910236
0.0933304
0.0953067
0.0969305
0.0981808
0.0990379
0.0994835
0.0995007
0.0990746
0.098192
0.096842
0.0950156
0.0927065
0.0899107
0.0866266
0.0828554
0.0786005
0.0738648
0.0686532
0.0630174
0.0570035
0.0500433
0.041666
0.00862661
0.000292637
-0.0065441
-0.0123658
-0.0177599
-0.0226967
-0.0271412
-0.0311048
-0.0346011
-0.0376414
-0.0402383
-0.0424051
-0.0441557
-0.0455042
-0.0464652
-0.047053
-0.0472823
-0.0471673
-0.0467219
-0.0459599
-0.0448945
-0.0435388
-0.0419055
-0.0400068
-0.0378545
-0.0354604
-0.0328355
-0.0299908
-0.0269374
-0.0236858
-0.0202469
-0.0166313
-0.0128499
-0.00891365
-0.0048339
-0.000622315
0.003709
0.00814749
0.0126801
0.0172933
0.0219728
0.0267038
0.0314704
0.036256
0.0410432
0.0458135
0.0505477
0.0552256
0.0598264
0.0643282
0.0687086
0.0729442
0.0770113
0.0808855
0.0845421
0.087956
0.0911021
0.0939551
0.0964901
0.0986826
0.100509
0.101945
0.102971
0.103565
0.103709
0.103387
0.102582
0.101284
0.099481
0.0971659
0.0943337
0.090982
0.0871113
0.082725
0.0778254
0.0724178
0.0665561
0.0602888
0.053021
0.0442609
0.00416537
-0.00447424
-0.0115541
-0.0175738
-0.0231429
-0.0282306
-0.0328009
-0.0368661
-0.0404404
-0.0435364
-0.0461674
-0.0483479
-0.050093
-0.0514182
-0.0523389
-0.0528709
-0.0530298
-0.052831
-0.0522893
-0.0514195
-0.0502359
-0.0487525
-0.0469825
-0.0449388
-0.042634
-0.0400799
-0.0372885
-0.0342709
-0.0310385
-0.0276022
-0.0239729
-0.0201612
-0.0161783
-0.012035
-0.00774275
-0.00331324
0.00124145
0.00590881
0.0106758
0.015529
0.0204541
0.0254361
0.030459
0.0355062
0.0405598
0.0456012
0.0506107
0.0555678
0.060451
0.0652376
0.0699042
0.0744267
0.07878
0.0829386
0.0868762
0.0905664
0.0939823
0.097097
0.0998835
0.102315
0.104367
0.106012
0.107229
0.107993
0.108285
0.108085
0.107376
0.106146
0.10438
0.102072
0.0992134
0.095802
0.0918374
0.0873226
0.0822596
0.0766537
0.0705612
0.0640329
0.0564462
0.0472872
-0.000815804
-0.00976916
-0.0170976
-0.0233186
-0.0290643
-0.0343031
-0.0389978
-0.0431615
-0.0468095
-0.0499552
-0.0526132
-0.0547993
-0.0565297
-0.0578212
-0.0586908
-0.0591552
-0.0592315
-0.0589359
-0.0582848
-0.057294
-0.0559787
-0.0543538
-0.0524333
-0.0502308
-0.0477595
-0.0450319
-0.0420602
-0.0388561
-0.0354313
-0.0317968
-0.0279635
-0.0239425
-0.0197446
-0.0153809
-0.0108627
-0.00620176
-0.00141002
0.00350014
0.0085158
0.0136235
0.0188089
0.0240572
0.0293522
0.034677
0.0400139
0.0453438
0.0506468
0.0559018
0.0610867
0.0661783
0.0711521
0.075983
0.0806448
0.0851107
0.089353
0.0933435
0.0970538
0.100455
0.103518
0.106214
0.108516
0.110395
0.111826
0.112784
0.113245
0.113189
0.112596
0.111451
0.10974
0.107452
0.104579
0.101117
0.0970648
0.0924252
0.0871996
0.0813933
0.075065
0.068268
0.0603505
0.0507753
-0.00634318
-0.0156192
-0.0232022
-0.0296281
-0.0355524
-0.0409424
-0.0457599
-0.0500187
-0.0537352
-0.0569241