/*--------------------------------*- C++ -*----------------------------------*\
  =========                 |
  \\      /  F ield         | OpenFOAM: The Open Source CFD Toolbox
   \\    /   O peration     | Website:  https://openfoam.org
    \\  /    A nd           | Version:  7
     \\/     M anipulation  |
\*---------------------------------------------------------------------------*/
FoamFile
{
    version     2.0;
    format      ascii;
    class       surfaceScalarField;
    location    "0.125";
    object      phi;
}
// * * * * * * * * * * * * * * * * * * * * * * * * * * * * * * * * * * * * * //

dimensions      [0 3 -1 0 0 0 0];

internalField   nonuniform List<scalar> 
12640
(
1.90079e-10
-1.90071e-10
5.53566e-10
-3.63514e-10
8.77143e-10
-3.23598e-10
1.03691e-09
-1.59759e-10
9.71544e-10
6.53833e-11
6.54163e-10
3.17372e-10
7.791e-11
5.76226e-10
-7.52212e-10
8.30126e-10
-1.82414e-09
1.07193e-09
-3.12156e-09
1.29742e-09
-4.62566e-09
1.50408e-09
-6.31608e-09
1.69045e-09
-8.17179e-09
1.85568e-09
-1.01713e-08
1.99952e-09
-1.22932e-08
2.12193e-09
-1.45163e-08
2.22313e-09
-1.68199e-08
2.30361e-09
-1.91837e-08
2.3638e-09
-2.1588e-08
2.40433e-09
-2.40139e-08
2.42591e-09
-2.64431e-08
2.42923e-09
-2.88581e-08
2.41502e-09
-3.12423e-08
2.38411e-09
-3.35796e-08
2.33731e-09
-3.5855e-08
2.27542e-09
-3.80543e-08
2.19926e-09
-4.01639e-08
2.10966e-09
-4.21714e-08
2.00747e-09
-4.40649e-08
1.8935e-09
-4.58335e-08
1.76861e-09
-4.74672e-08
1.63366e-09
-4.89566e-08
1.48948e-09
-5.02935e-08
1.3369e-09
-5.14704e-08
1.17682e-09
-5.24805e-08
1.0101e-09
-5.33181e-08
8.37624e-10
-5.39784e-08
6.60291e-10
-5.44574e-08
4.79007e-10
-5.47522e-08
2.94707e-10
-5.48605e-08
1.08335e-10
-5.47813e-08
-7.91604e-11
-5.45145e-08
-2.66808e-10
-5.40609e-08
-4.5361e-10
-5.34224e-08
-6.38543e-10
-5.26018e-08
-8.2056e-10
-5.16032e-08
-9.98623e-10
-5.04315e-08
-1.17168e-09
-4.90928e-08
-1.33866e-09
-4.75944e-08
-1.49845e-09
-4.59444e-08
-1.64999e-09
-4.41522e-08
-1.79218e-09
-4.22283e-08
-1.92393e-09
-4.01842e-08
-2.04417e-09
-3.80323e-08
-2.15181e-09
-3.57865e-08
-2.24584e-09
-3.34613e-08
-2.32521e-09
-3.10724e-08
-2.38894e-09
-2.86363e-08
-2.4361e-09
-2.61705e-08
-2.4658e-09
-2.36933e-08
-2.47719e-09
-2.12238e-08
-2.46948e-09
-1.87818e-08
-2.442e-09
-1.63876e-08
-2.39415e-09
-1.40622e-08
-2.32543e-09
-1.18267e-08
-2.23546e-09
-9.70271e-09
-2.12403e-09
-7.71167e-09
-1.99105e-09
-5.87501e-09
-1.83665e-09
-4.21373e-09
-1.66126e-09
-2.74806e-09
-1.46566e-09
-1.49695e-09
-1.2511e-09
-4.774e-10
-1.01956e-09
2.96666e-10
-7.74064e-10
8.16046e-10
-5.19368e-10
1.07908e-09
-2.63029e-10
1.09643e-09
-1.7361e-11
8.99052e-10
1.97374e-10
5.52441e-10
3.4661e-10
1.83322e-10
3.69121e-10
1.8332e-10
3.65616e-10
-5.55658e-10
8.83877e-10
-8.81752e-10
1.21096e-09
-6.5069e-10
1.12616e-09
-7.49654e-11
4.93186e-10
6.98387e-10
-7.61196e-10
1.57177e-09
-2.66598e-09
2.48102e-09
-5.2201e-09
3.38424e-09
-8.40236e-09
4.25417e-09
-1.21779e-08
5.07298e-09
-1.6503e-08
5.82916e-09
-2.13278e-08
6.51529e-09
-2.65991e-08
7.127e-09
-3.22614e-08
7.6618e-09
-3.82582e-08
8.11869e-09
-4.45329e-08
8.49781e-09
-5.10293e-08
8.79998e-09
-5.76921e-08
9.02661e-09
-6.44674e-08
9.17961e-09
-7.13027e-08
9.26118e-09
-7.81473e-08
9.27375e-09
-8.49522e-08
9.21999e-09
-9.16708e-08
9.10269e-09
-9.82582e-08
8.92475e-09
-1.04672e-07
8.68917e-09
-1.10872e-07
8.39903e-09
-1.16819e-07
8.05742e-09
-1.22479e-07
7.66747e-09
-1.27818e-07
7.23237e-09
-1.32805e-07
6.75533e-09
-1.37411e-07
6.23959e-09
-1.4161e-07
5.68841e-09
-1.45378e-07
5.10508e-09
-1.48694e-07
4.49294e-09
-1.51539e-07
3.85537e-09
-1.53898e-07
3.19577e-09
-1.55755e-07
2.5176e-09
-1.571e-07
1.8244e-09
-1.57925e-07
1.11974e-09
-1.58224e-07
4.07284e-10
-1.57994e-07
-3.09278e-10
-1.57235e-07
-1.02619e-09
-1.55949e-07
-1.73961e-09
-1.54142e-07
-2.44563e-09
-1.51822e-07
-3.1403e-09
-1.49001e-07
-3.8196e-09
-1.45693e-07
-4.47947e-09
-1.41916e-07
-5.11581e-09
-1.3769e-07
-5.72452e-09
-1.33038e-07
-6.30145e-09
-1.27988e-07
-6.84245e-09
-1.22569e-07
-7.34346e-09
-1.16812e-07
-7.80038e-09
-1.10755e-07
-8.20922e-09
-1.04435e-07
-8.56605e-09
-9.7893e-08
-8.8671e-09
-9.11732e-08
-9.10871e-09
-8.43219e-08
-9.28741e-09
-7.73878e-08
-9.39993e-09
-7.04217e-08
-9.44327e-09
-6.34765e-08
-9.41467e-09
-5.66068e-08
-9.31174e-09
-4.98685e-08
-9.13247e-09
-4.33186e-08
-8.87531e-09
-3.70148e-08
-8.53925e-09
-3.1015e-08
-8.12387e-09
-2.53765e-08
-7.62952e-09
-2.01556e-08
-7.05748e-09
-1.54066e-08
-6.41025e-09
-1.11804e-08
-5.69185e-09
-7.52312e-09
-4.9084e-09
-4.47372e-09
-4.06895e-09
-2.06106e-09
-3.18671e-09
-2.99362e-10
-2.28106e-09
8.18279e-10
-1.38067e-09
1.32932e-09
-5.28412e-10
1.31544e-09
2.11254e-10
9.20343e-10
7.41713e-10
3.69057e-10
9.20399e-10
5.52384e-10
3.30425e-10
-8.86108e-10
6.65559e-10
-1.21688e-09
6.11366e-10
-5.96514e-10
-9.09612e-11
6.27338e-10
-1.61081e-09
2.21826e-09
-4.04675e-09
4.0077e-09
-7.44288e-09
5.87717e-09
-1.18032e-08
7.74454e-09
-1.71024e-08
9.5534e-09
-2.32944e-08
1.1265e-08
-3.03182e-08
1.28529e-08
-3.81025e-08
1.42996e-08
-4.65692e-08
1.55937e-08
-5.56357e-08
1.67283e-08
-6.52171e-08
1.77e-08
-7.5227e-08
1.85078e-08
-8.55795e-08
1.91524e-08
-9.6189e-08
1.96362e-08
-1.06972e-07
1.99625e-08
-1.17846e-07
2.01355e-08
-1.28733e-07
2.01601e-08
-1.39554e-07
2.00415e-08
-1.50237e-07
1.97857e-08
-1.60711e-07
1.93985e-08
-1.70908e-07
1.88864e-08
-1.80765e-07
1.82557e-08
-1.90221e-07
1.75131e-08
-1.99219e-07
1.66655e-08
-2.07706e-07
1.57195e-08
-2.15632e-07
1.46822e-08
-2.22953e-07
1.35605e-08
-2.29627e-07
1.23617e-08
-2.35614e-07
1.10928e-08
-2.40883e-07
9.76125e-09
-2.45402e-07
8.37433e-09
-2.49146e-07
6.93954e-09
-2.52092e-07
5.46447e-09
-2.54225e-07
3.95683e-09
-2.5553e-07
2.42447e-09
-2.55998e-07
8.75328e-10
-2.55624e-07
-6.82471e-10
-2.5441e-07
-2.24071e-09
-2.52359e-07
-3.79102e-09
-2.49479e-07
-5.3249e-09
-2.45786e-07
-6.83371e-09
-2.41297e-07
-8.30876e-09
-2.36035e-07
-9.74125e-09
-2.30028e-07
-1.11223e-08
-2.2331e-07
-1.24429e-08
-2.15917e-07
-1.36942e-08
-2.07892e-07
-1.48673e-08
-1.99282e-07
-1.59534e-08
-1.90139e-07
-1.69437e-08
-1.80519e-07
-1.78296e-08
-1.70482e-07
-1.86027e-08
-1.60094e-07
-1.92551e-08
-1.49424e-07
-1.9779e-08
-1.38544e-07
-2.01669e-08
-1.27532e-07
-2.04122e-08
-1.16467e-07
-2.05085e-08
-1.05431e-07
-2.04503e-08
-9.45102e-08
-2.02327e-08
-8.37908e-08
-1.98518e-08
-7.33613e-08
-1.93049e-08
-6.33104e-08
-1.85902e-08
-5.37266e-08
-1.77077e-08
-4.46972e-08
-1.66589e-08
-3.63068e-08
-1.54479e-08
-2.8636e-08
-1.4081e-08
-2.17595e-08
-1.25684e-08
-1.57431e-08
-1.09248e-08
-1.06408e-08
-9.17126e-09
-6.49014e-09
-7.33733e-09
-3.30647e-09
-5.46472e-09
-1.07482e-09
-3.61232e-09
2.60417e-10
-1.86366e-09
8.0895e-10
-3.37285e-10
7.50023e-10
8.00636e-10
3.49197e-10
1.32123e-09
9.01594e-10
1.72399e-10
-1.05849e-09
1.05946e-10
-1.15046e-09
-5.85062e-10
9.45142e-11
-2.16268e-09
2.20495e-09
-4.80271e-09
4.85824e-09
-8.61074e-09
7.81579e-09
-1.3636e-08
1.09024e-08
-1.98832e-08
1.39918e-08
-2.73233e-08
1.69935e-08
-3.59013e-08
1.9843e-08
-4.55433e-08
2.24949e-08
-5.61614e-08
2.49177e-08
-6.76578e-08
2.70902e-08
-7.99283e-08
2.89988e-08
-9.28641e-08
3.06359e-08
-1.06355e-07
3.19982e-08
-1.20288e-07
3.30859e-08
-1.34554e-07
3.39016e-08
-1.49041e-07
3.44501e-08
-1.63643e-07
3.47378e-08
-1.78256e-07
3.47723e-08
-1.92776e-07
3.45622e-08
-2.07107e-07
3.41169e-08
-2.21155e-07
3.34463e-08
-2.3483e-07
3.25612e-08
-2.48047e-07
3.14722e-08
-2.60724e-07
3.01907e-08
-2.72787e-07
2.8728e-08
-2.84163e-07
2.70961e-08
-2.94788e-07
2.53066e-08
-3.04599e-07
2.33718e-08
-3.13541e-07
2.13038e-08
-3.21563e-07
1.91151e-08
-3.2862e-07
1.68182e-08
-3.34672e-07
1.4426e-08
-3.39684e-07
1.19514e-08
-3.43627e-07
9.40751e-09
-3.46478e-07
6.80769e-09
-3.48219e-07
4.16553e-09
-3.48838e-07
1.49479e-09
-3.4833e-07
-1.19052e-09
-3.46695e-07
-3.87616e-09
-3.43938e-07
-6.54767e-09
-3.40073e-07
-9.1904e-09
-3.35117e-07
-1.17895e-08
-3.29096e-07
-1.433e-08
-3.2204e-07
-1.67966e-08
-3.13988e-07
-1.91743e-08
-3.04984e-07
-2.14476e-08
-2.95077e-07
-2.36012e-08
-2.84324e-07
-2.56199e-08
-2.72789e-07
-2.74887e-08
-2.6054e-07
-2.91927e-08
-2.47652e-07
-3.07173e-08
-2.34207e-07
-3.20482e-08
-2.2029e-07
-3.31719e-08
-2.05993e-07
-3.40753e-08
-1.91414e-07
-3.47462e-08
-1.76653e-07
-3.51731e-08
-1.61816e-07
-3.53458e-08
-1.47011e-07
-3.52551e-08
-1.32351e-07
-3.48933e-08
-1.17948e-07
-3.42543e-08
-1.03919e-07
-3.33341e-08
-9.03781e-08
-3.21309e-08
-7.74405e-08
-3.06453e-08
-6.52181e-08
-2.88814e-08
-5.3819e-08
-2.6847e-08
-4.33451e-08
-2.45549e-08
-3.38896e-08
-2.20238e-08
-2.55341e-08
-1.92804e-08
-1.83437e-08
-1.63616e-08
-1.23632e-08
-1.33179e-08
-7.60955e-09
-1.02184e-08
-4.06482e-09
-7.15705e-09
-1.66614e-09
-4.26234e-09
-2.94283e-10
-1.70915e-09
2.39101e-10
2.67258e-10
2.06474e-10
1.35386e-09
1.10808e-09
-4.65427e-11
-1.01195e-09
-6.50793e-10
-5.46176e-10
-2.14964e-09
1.59339e-09
-4.78194e-09
4.83719e-09
-8.7106e-09
8.78696e-09
-1.40345e-08
1.31396e-08
-2.07982e-08
1.76661e-08
-2.90019e-08
2.21956e-08
-3.86104e-08
2.6602e-08
-4.95601e-08
3.07927e-08
-6.17656e-08
3.47004e-08
-7.51251e-08
3.82772e-08
-8.95248e-08
4.14898e-08
-1.04842e-07
4.43161e-08
-1.20949e-07
4.67427e-08
-1.37713e-07
4.87628e-08
-1.55002e-07
5.03749e-08
-1.72683e-07
5.15818e-08
-1.90622e-07
5.23894e-08
-2.0869e-07
5.28062e-08
-2.26761e-07
5.28428e-08
-2.4471e-07
5.25114e-08
-2.62419e-07
5.18255e-08
-2.79772e-07
5.07998e-08
-2.96661e-07
4.94497e-08
-3.1298e-07
4.77914e-08
-3.28631e-07
4.58416e-08
-3.4352e-07
4.36175e-08
-3.57561e-07
4.11367e-08
-3.70671e-07
3.84172e-08
-3.82777e-07
3.54771e-08
-3.93808e-07
3.23351e-08
-4.03703e-07
2.901e-08
-4.12406e-07
2.5521e-08
-4.19867e-07
2.18874e-08
-4.26045e-07
1.81289e-08
-4.30903e-07
1.42656e-08
-4.34413e-07
1.03178e-08
-4.36554e-07
6.30604e-09
-4.3731e-07
2.25142e-09
-4.36676e-07
-1.82481e-09
-4.34651e-07
-5.90103e-09
-4.31243e-07
-9.95528e-09
-4.26468e-07
-1.39653e-08
-4.20349e-07
-1.79086e-08
-4.12917e-07
-2.17624e-08
-4.0421e-07
-2.55039e-08
-3.94274e-07
-2.91099e-08
-3.83164e-07
-3.25574e-08
-3.70942e-07
-3.58233e-08
-3.57677e-07
-3.88846e-08
-3.43447e-07
-4.17187e-08
-3.28337e-07
-4.43033e-08
-3.12438e-07
-4.66165e-08
-2.95849e-07
-4.86372e-08
-2.78676e-07
-5.0345e-08
-2.6103e-07
-5.17205e-08
-2.43031e-07
-5.27457e-08
-2.248e-07
-5.34038e-08
-2.06466e-07
-5.36797e-08
-1.88161e-07
-5.35603e-08
-1.7002e-07
-5.30347e-08
-1.52179e-07
-5.20947e-08
-1.34778e-07
-5.07351e-08
-1.17955e-07
-4.8954e-08
-1.01846e-07
-4.6754e-08
-8.65853e-08
-4.41425e-08
-7.22995e-08
-4.11328e-08
-5.91089e-08
-3.77455e-08
-4.71223e-08
-3.40104e-08
-3.64342e-08
-2.99685e-08
-2.71202e-08
-2.56756e-08
-1.92322e-08
-2.12059e-08
-1.2792e-08
-1.66585e-08
-7.78442e-09
-1.21646e-08
-4.14908e-09
-7.89768e-09
-1.77122e-09
-4.087e-09
-4.722e-10
-1.03174e-09
1.5129e-12
8.8016e-10
1.10959e-09
-2.92887e-10
-7.19068e-10
-1.51202e-09
6.72955e-10
-3.92516e-09
4.00652e-09
-7.73025e-09
8.64233e-09
-1.30638e-08
1.41204e-08
-2.00065e-08
2.00824e-08
-2.85905e-08
2.625e-08
-3.88058e-08
3.24109e-08
-5.06076e-08
3.84037e-08
-6.39221e-08
4.41072e-08
-7.86528e-08
4.94312e-08
-9.46853e-08
5.43097e-08
-1.11891e-07
5.86958e-08
-1.30133e-07
6.25574e-08
-1.49264e-07
6.58741e-08
-1.69136e-07
6.86347e-08
-1.89596e-07
7.08354e-08
-2.10493e-07
7.24783e-08
-2.31674e-07
7.35702e-08
-2.52989e-07
7.41217e-08
-2.74293e-07
7.41463e-08
-2.95442e-07
7.36602e-08
-3.16297e-07
7.26814e-08
-3.36727e-07
7.12296e-08
-3.56603e-07
6.93259e-08
-3.75804e-07
6.69924e-08
-3.94215e-07
6.4252e-08
-4.11726e-07
6.11285e-08
-4.28235e-07
5.76464e-08
-4.43649e-07
5.38305e-08
-4.57878e-07
4.97064e-08
-4.70843e-07
4.52999e-08
-4.8247e-07
4.06374e-08
-4.92695e-07
3.57456e-08
-5.01459e-07
3.06518e-08
-5.08714e-07
2.53835e-08
-5.14417e-07
1.99689e-08
-5.18536e-07
1.44365e-08
-5.21045e-07
8.81508e-09
-5.21928e-07
3.13418e-09
-5.21176e-07
-2.57638e-09
-5.18791e-07
-8.28629e-09
-5.14781e-07
-1.39648e-08
-5.09166e-07
-1.95809e-08
-5.01971e-07
-2.5103e-08
-4.93234e-07
-3.04995e-08
-4.83e-07
-3.57382e-08
-4.71323e-07
-4.07871e-08
-4.58266e-07
-4.5614e-08
-4.43902e-07
-5.01869e-08
-4.28313e-07
-5.44738e-08
-4.11589e-07
-5.84434e-08
-3.93827e-07
-6.20646e-08
-3.75136e-07
-6.53073e-08
-3.55631e-07
-6.81424e-08
-3.35434e-07
-7.05418e-08
-3.14676e-07
-7.24789e-08
-2.93493e-07
-7.39291e-08
-2.72027e-07
-7.48695e-08
-2.50427e-07
-7.52799e-08
-2.28844e-07
-7.51428e-08
-2.07435e-07
-7.44439e-08
-1.86357e-07
-7.31727e-08
-1.65769e-07
-7.13231e-08
-1.45829e-07
-6.88939e-08
-1.26693e-07
-6.58899e-08
-1.08513e-07
-6.23228e-08
-9.1433e-08
-5.82127e-08
-7.55889e-08
-5.35897e-08
-6.11033e-08
-4.8496e-08
-4.80829e-08
-4.29889e-08
-3.6614e-08
-3.71445e-08
-2.67573e-08
-3.10626e-08
-1.85431e-08
-2.48728e-08
-1.19647e-08
-1.8743e-08
-6.97231e-09
-1.289e-08
-3.46663e-09
-7.59268e-09
-1.29235e-09
-3.206e-09
-2.32509e-10
-1.79669e-10
8.77085e-10
-5.48466e-10
-1.70634e-10
-2.42001e-09
2.54452e-09
-5.80702e-09
7.39354e-09
-1.08567e-08
1.3692e-08
-1.76694e-08
2.09332e-08
-2.63001e-08
2.8713e-08
-3.67613e-08
3.67112e-08
-4.90277e-08
4.46774e-08
-6.30415e-08
5.24174e-08
-7.87167e-08
5.97824e-08
-9.59446e-08
6.66591e-08
-1.14598e-07
7.29631e-08
-1.34535e-07
7.86331e-08
-1.55604e-07
8.36261e-08
-1.77644e-07
8.79138e-08
-2.00489e-07
9.148e-08
-2.23971e-07
9.43178e-08
-2.47921e-07
9.64283e-08
-2.7217e-07
9.78189e-08
-2.9655e-07
9.8502e-08
-3.20899e-07
9.84944e-08
-3.45054e-07
9.78161e-08
-3.68863e-07
9.649e-08
-3.92175e-07
9.45414e-08
-4.14846e-07
9.19972e-08
-4.3674e-07
8.88863e-08
-4.57726e-07
8.52384e-08
-4.77683e-07
8.10848e-08
-4.96494e-07
7.64574e-08
-5.14052e-07
7.13889e-08
-5.30259e-07
6.59129e-08
-5.45023e-07
6.00637e-08
-5.58261e-07
5.3876e-08
-5.69901e-07
4.73853e-08
-5.79877e-07
4.06276e-08
-5.88133e-07
3.36394e-08
-5.94622e-07
2.6458e-08
-5.99306e-07
1.91211e-08
-6.02158e-07
1.16671e-08
-6.03159e-07
4.13497e-09
-6.023e-07
-3.43578e-09
-5.99581e-07
-1.1005e-08
-5.95014e-07
-1.85321e-08
-5.88619e-07
-2.59759e-08
-5.80427e-07
-3.32948e-08
-5.7048e-07
-4.04469e-08
-5.58828e-07
-4.73899e-08
-5.45534e-07
-5.40815e-08
-5.30668e-07
-6.04794e-08
-5.14314e-07
-6.65413e-08
-4.96562e-07
-7.22253e-08
-4.77515e-07
-7.74902e-08
-4.57284e-07
-8.22954e-08
-4.3599e-07
-8.66015e-08
-4.13763e-07
-9.03702e-08
-3.90739e-07
-9.35651e-08
-3.67066e-07
-9.61517e-08
-3.42897e-07
-9.8098e-08
-3.18392e-07
-9.93747e-08
-2.93717e-07
-9.99557e-08
-2.6904e-07
-9.98189e-08
-2.44538e-07
-9.89466e-08
-2.20385e-07
-9.73259e-08
-1.96758e-07
-9.495e-08
-1.73833e-07
-9.18187e-08
-1.51783e-07
-8.79397e-08
-1.30776e-07
-8.33298e-08
-1.10972e-07
-7.80168e-08
-9.25208e-08
-7.20409e-08
-7.55586e-08
-6.54582e-08
-6.02044e-08
-5.83431e-08
-4.6556e-08
-5.07929e-08
-3.46856e-08
-4.29329e-08
-2.46355e-08
-3.49229e-08
-1.64126e-08
-2.69659e-08
-9.98478e-09
-1.93179e-08
-5.27595e-09
-1.23015e-08
-2.16359e-09
-6.31835e-09
-4.77311e-10
-1.86593e-09
3.99778e-10
-8.03393e-10
6.32757e-10
-3.34016e-09
5.08128e-09
-7.72832e-09
1.17817e-08
-1.40602e-08
2.00239e-08
-2.23946e-08
2.92676e-08
-3.27548e-08
3.90732e-08
-4.51287e-08
4.90851e-08
-5.94715e-08
5.90201e-08
-7.57085e-08
6.86545e-08
-9.37396e-08
7.78134e-08
-1.13442e-07
8.63617e-08
-1.34676e-07
9.41968e-08
-1.57286e-07
1.01243e-07
-1.81106e-07
1.07446e-07
-2.05961e-07
1.12769e-07
-2.31672e-07
1.17191e-07
-2.58055e-07
1.20701e-07
-2.84925e-07
1.23299e-07
-3.12099e-07
1.24993e-07
-3.39393e-07
1.25796e-07
-3.66629e-07
1.2573e-07
-3.93631e-07
1.24818e-07
-4.20229e-07
1.23088e-07
-4.46258e-07
1.20571e-07
-4.71562e-07
1.17301e-07
-4.95988e-07
1.13313e-07
-5.19395e-07
1.08645e-07
-5.41646e-07
1.03336e-07
-5.62615e-07
9.74263e-08
-5.82184e-07
9.09573e-08
-6.00242e-07
8.39713e-08
-6.1669e-07
7.65117e-08
-6.31436e-07
6.86226e-08
-6.444e-07
6.0349e-08
-6.55509e-07
5.17367e-08
-6.64702e-07
4.28322e-08
-6.71927e-07
3.36827e-08
-6.77142e-07
2.43363e-08
-6.80316e-07
1.48417e-08
-6.8143e-07
5.24842e-09
-6.80472e-07
-4.39319e-09
-6.77445e-07
-1.40322e-08
-6.7236e-07
-2.36171e-08
-6.65241e-07
-3.30955e-08
-6.56121e-07
-4.24148e-08
-6.45046e-07
-5.15218e-08
-6.32073e-07
-6.03629e-08
-6.1727e-07
-6.88847e-08
-6.00715e-07
-7.70335e-08
-5.82501e-07
-8.4756e-08
-5.62727e-07
-9.19993e-08
-5.41506e-07
-9.87113e-08
-5.1896e-07
-1.04841e-07
-4.95223e-07
-1.10339e-07
-4.70437e-07
-1.15156e-07
-4.44753e-07
-1.19249e-07
-4.18333e-07
-1.22572e-07
-3.91344e-07
-1.25087e-07
-3.63962e-07
-1.26757e-07
-3.36368e-07
-1.2755e-07
-3.08748e-07
-1.27438e-07
-2.81294e-07
-1.26401e-07
-2.54196e-07
-1.24423e-07
-2.27649e-07
-1.21498e-07
-2.01843e-07
-1.17625e-07
-1.76967e-07
-1.12816e-07
-1.53204e-07
-1.07093e-07
-1.30729e-07
-1.00492e-07
-1.09706e-07
-9.30645e-08
-9.0283e-08
-8.48807e-08
-7.25938e-08
-7.60323e-08
-5.67489e-08
-6.66379e-08
-4.28343e-08
-5.68474e-08
-3.09078e-08
-4.68495e-08
-2.09945e-08
-3.68792e-08
-1.30847e-08
-2.72277e-08
-7.13148e-09
-1.82547e-08
-3.05064e-09
-1.03992e-08
-7.22711e-10
-4.19385e-09
-3.22932e-10
-1.05272e-09
1.68548e-09
-4.25235e-09
8.2809e-09
-9.64753e-09
1.71768e-08
-1.72752e-08
2.76516e-08
-2.71501e-08
3.91425e-08
-3.926e-08
5.11832e-08
-5.35648e-08
6.33899e-08
-6.99963e-08
7.54517e-08
-8.84606e-08
8.71189e-08
-1.0884e-07
9.81932e-08
-1.30998e-07
1.08519e-07
-1.54779e-07
1.17978e-07
-1.80015e-07
1.26478e-07
-2.06525e-07
1.33956e-07
-2.34121e-07
1.40366e-07
-2.62611e-07
1.45681e-07
-2.91797e-07
1.49886e-07
-3.21479e-07
1.52982e-07
-3.51461e-07
1.54974e-07
-3.81545e-07
1.55881e-07
-4.11539e-07
1.55724e-07
-4.41253e-07
1.54532e-07
-4.70503e-07
1.52338e-07
-4.99113e-07
1.49181e-07
-5.26911e-07
1.45099e-07
-5.53735e-07
1.40137e-07
-5.7943e-07
1.3434e-07
-6.03848e-07
1.27755e-07
-6.26854e-07
1.20432e-07
-6.48317e-07
1.12421e-07
-6.68121e-07
1.03775e-07
-6.86155e-07
9.4546e-08
-7.02322e-07
8.47891e-08
-7.16532e-07
7.45594e-08
-7.28709e-07
6.39132e-08
-7.38784e-07
5.29078e-08
-7.46703e-07
4.16013e-08
-7.52419e-07
3.00529e-08
-7.559e-07
1.83227e-08
-7.57124e-07
6.47169e-09
-7.56079e-07
-5.43826e-09
-7.52766e-07
-1.73444e-08
-7.472e-07
-2.91833e-08
-7.39405e-07
-4.08907e-08
-7.29418e-07
-5.24018e-08
-7.17289e-07
-6.36511e-08
-7.03078e-07
-7.45732e-08
-6.86861e-07
-8.51021e-08
-6.68722e-07
-9.51723e-08
-6.4876e-07
-1.04718e-07
-6.27084e-07
-1.13675e-07
-6.03815e-07
-1.2198e-07
-5.79087e-07
-1.29569e-07
-5.53043e-07
-1.36383e-07
-5.25837e-07
-1.42363e-07
-4.97632e-07
-1.47453e-07
-4.68603e-07
-1.51601e-07
-4.38932e-07
-1.54759e-07
-4.08806e-07
-1.56882e-07
-3.78422e-07
-1.57933e-07
-3.47982e-07
-1.57879e-07
-3.17689e-07
-1.56694e-07
-2.87751e-07
-1.54361e-07
-2.58376e-07
-1.50873e-07
-2.2977e-07
-1.4623e-07
-2.02137e-07
-1.40449e-07
-1.75673e-07
-1.33557e-07
-1.50567e-07
-1.25598e-07
-1.26997e-07
-1.16634e-07
-1.05127e-07
-1.06751e-07
-8.51036e-08
-9.60561e-08
-6.70521e-08
-8.46894e-08
-5.10751e-08
-7.28244e-08
-3.72488e-08
-6.06759e-08
-2.56201e-08
-4.85079e-08
-1.62055e-08
-3.66423e-08
-8.99085e-09
-2.54693e-08
-3.93279e-09
-1.54572e-08
-9.63395e-10
-7.16323e-09
-1.28633e-09
-1.29412e-09
2.97959e-09
-5.14566e-09
1.21325e-08
-1.15401e-08
2.35713e-08
-2.04608e-08
3.65723e-08
-3.18779e-08
5.05595e-08
-4.5742e-08
6.50473e-08
-6.19822e-08
7.963e-08
-8.05045e-08
9.3974e-08
-1.01193e-07
1.07808e-07
-1.23912e-07
1.20912e-07
-1.48507e-07
1.33114e-07
-1.74807e-07
1.44278e-07
-2.0263e-07
1.54301e-07
-2.31781e-07
1.63107e-07
-2.62059e-07
1.70644e-07
-2.93258e-07
1.76879e-07
-3.25167e-07
1.81795e-07
-3.57574e-07
1.85389e-07
-3.90268e-07
1.87669e-07
-4.2304e-07
1.88653e-07
-4.55685e-07
1.88368e-07
-4.87999e-07
1.86847e-07
-5.19789e-07
1.84128e-07
-5.50864e-07
1.80256e-07
-5.81042e-07
1.75277e-07
-6.1015e-07
1.69245e-07
-6.38022e-07
1.62211e-07
-6.64501e-07
1.54234e-07
-6.8944e-07
1.45371e-07
-7.12702e-07
1.35683e-07
-7.3416e-07
1.25233e-07
-7.53699e-07
1.14084e-07
-7.71211e-07
1.02302e-07
-7.86603e-07
8.99517e-08
-7.99792e-07
7.7102e-08
-8.10706e-07
6.38214e-08
-8.19284e-07
5.01797e-08
-8.25479e-07
3.62479e-08
-8.29255e-07
2.20984e-08
-8.30588e-07
7.80428e-09
-8.29466e-07
-6.5601e-09
-8.25891e-07
-2.09195e-08
-8.19876e-07
-3.51976e-08
-8.1145e-07
-4.93174e-08
-8.0065e-07
-6.32011e-08
-7.87531e-07
-7.67705e-08
-7.72157e-07
-8.99469e-08
-7.54608e-07
-1.02651e-07
-7.34975e-07
-1.14805e-07
-7.13362e-07
-1.26331e-07
-6.89887e-07
-1.3715e-07
-6.64679e-07
-1.47188e-07
-6.3788e-07
-1.56368e-07
-6.09643e-07
-1.6462e-07
-5.80133e-07
-1.71873e-07
-5.49525e-07
-1.78062e-07
-5.18002e-07
-1.83123e-07
-4.85761e-07
-1.87001e-07
-4.53001e-07
-1.89642e-07
-4.19932e-07
-1.91002e-07
-3.86768e-07
-1.91043e-07
-3.53728e-07
-1.89734e-07
-3.21032e-07
-1.87057e-07
-2.88903e-07
-1.83002e-07
-2.5756e-07
-1.77573e-07
-2.27221e-07
-1.70788e-07
-1.98096e-07
-1.62681e-07
-1.7039e-07
-1.53304e-07
-1.44295e-07
-1.4273e-07
-1.19988e-07
-1.31057e-07
-9.76318e-08
-1.18412e-07
-7.73694e-08
-1.04952e-07
-5.93215e-08
-9.08722e-08
-4.35851e-08
-7.64124e-08
-3.02314e-08
-6.18616e-08
-1.93059e-08
-4.75677e-08
-1.08289e-08
-3.39463e-08
-4.79858e-09
-2.14876e-08
-1.19683e-09
-1.0765e-08
-2.48316e-09
-1.52674e-09
4.5063e-09
-6.01468e-09
1.66204e-08
-1.33925e-08
3.09491e-08
-2.35932e-08
4.6773e-08
-3.65427e-08
6.3509e-08
-5.21541e-08
8.06588e-08
-7.03242e-08
9.78001e-08
-9.09316e-08
1.14581e-07
-1.13837e-07
1.30713e-07
-1.38883e-07
1.45958e-07
-1.65896e-07
1.60128e-07
-1.94691e-07
1.73073e-07
-2.25069e-07
1.84678e-07
-2.56821e-07
1.94859e-07
-2.89733e-07
2.03556e-07
-3.23585e-07
2.10731e-07
-3.58153e-07
2.16363e-07
-3.93213e-07
2.20449e-07
-4.28542e-07
2.22998e-07
-4.63919e-07
2.2403e-07
-4.99126e-07
2.23575e-07
-5.33951e-07
2.21671e-07
-5.68186e-07
2.18363e-07
-6.01631e-07
2.13701e-07
-6.34094e-07
2.07741e-07
-6.65391e-07
2.00542e-07
-6.95347e-07
1.92167e-07
-7.23796e-07
1.82683e-07
-7.50583e-07
1.72158e-07
-7.75562e-07
1.60663e-07
-7.986e-07
1.48271e-07
-8.19573e-07
1.35058e-07
-8.3837e-07
1.21098e-07
-8.54891e-07
1.06472e-07
-8.69046e-07
9.12576e-08
-8.80761e-07
7.55363e-08
-8.89972e-07
5.93904e-08
-8.96627e-07
4.29035e-08
-9.0069e-07
2.61606e-08
-9.02133e-07
9.24788e-09
-9.00946e-07
-7.74722e-09
-8.97129e-07
-2.47361e-08
-8.90698e-07
-4.16291e-08
-8.8168e-07
-5.83356e-08
-8.70117e-07
-7.47642e-08
-8.56064e-07
-9.08229e-08
-8.39592e-07
-1.06419e-07
-8.20783e-07
-1.21461e-07
-7.99733e-07
-1.35855e-07
-7.76554e-07
-1.4951e-07
-7.51368e-07
-1.62336e-07
-7.24313e-07
-1.74243e-07
-6.95538e-07
-1.85143e-07
-6.65206e-07
-1.94953e-07
-6.33489e-07
-2.0359e-07
-6.00572e-07
-2.10978e-07
-5.66652e-07
-2.17043e-07
-5.31933e-07
-2.2172e-07
-4.96627e-07
-2.24947e-07
-4.60957e-07
-2.26672e-07
-4.25148e-07
-2.26851e-07
-3.89432e-07
-2.2545e-07
-3.54042e-07
-2.22447e-07
-3.19214e-07
-2.1783e-07
-2.85182e-07
-2.11606e-07
-2.52176e-07
-2.03794e-07
-2.20423e-07
-1.94435e-07
-1.90139e-07
-1.83587e-07
-1.61532e-07
-1.71337e-07
-1.34797e-07
-1.57793e-07
-1.10112e-07
-1.43097e-07
-8.76391e-08
-1.27425e-07
-6.75188e-08
-1.10993e-07
-4.98711e-08
-9.406e-08
-3.47937e-08
-7.6939e-08
-2.23622e-08
-5.99992e-08
-1.26321e-08
-4.36764e-08
-5.64247e-09
-2.84772e-08
-1.42207e-09
-1.49854e-08
-3.90523e-09
-1.75057e-09
6.25688e-09
-6.85761e-09
2.17275e-08
-1.51988e-08
3.92903e-08
-2.66601e-08
5.82343e-08
-4.11251e-08
7.7974e-08
-5.84695e-08
9.80032e-08
-7.85571e-08
1.17888e-07
-1.01238e-07
1.37262e-07
-1.26347e-07
1.55822e-07
-1.53706e-07
1.73317e-07
-1.83122e-07
1.89543e-07
-2.14389e-07
2.04341e-07
-2.47295e-07
2.17584e-07
-2.81616e-07
2.2918e-07
-3.17122e-07
2.39063e-07
-3.53581e-07
2.47189e-07
-3.90756e-07
2.53539e-07
-4.28412e-07
2.58105e-07
-4.66313e-07
2.60899e-07
-5.04227e-07
2.61944e-07
-5.41926e-07
2.61273e-07
-5.79185e-07
2.5893e-07
-6.15788e-07
2.54966e-07
-6.51525e-07
2.49438e-07
-6.86194e-07
2.42409e-07
-7.19601e-07
2.33949e-07
-7.51564e-07
2.2413e-07
-7.81909e-07
2.13027e-07
-8.10472e-07
2.00721e-07
-8.37101e-07
1.87292e-07
-8.61656e-07
1.72826e-07
-8.84007e-07
1.57409e-07
-9.04037e-07
1.41128e-07
-9.21641e-07
1.24076e-07
-9.36726e-07
1.06343e-07
-9.49213e-07
8.80233e-08
-9.59035e-07
6.92123e-08
-9.66138e-07
5.00066e-08
-9.70482e-07
3.05046e-08
-9.7204e-07
1.08062e-08
-9.708e-07
-8.98747e-09
-9.66762e-07
-2.87739e-08
-9.59942e-07
-4.84494e-08
-9.50369e-07
-6.79091e-08
-9.38086e-07
-8.70473e-08
-9.23151e-07
-1.05758e-07
-9.05637e-07
-1.23933e-07
-8.85631e-07
-1.41467e-07
-8.63233e-07
-1.58253e-07
-8.3856e-07
-1.74184e-07
-8.11739e-07
-1.89156e-07
-7.82916e-07
-2.03066e-07
-7.52245e-07
-2.15813e-07
-7.19898e-07
-2.273e-07
-6.86055e-07
-2.37433e-07
-6.50911e-07
-2.46122e-07
-6.1467e-07
-2.53284e-07
-5.77548e-07
-2.58842e-07
-5.39769e-07
-2.62727e-07
-5.01563e-07
-2.64878e-07
-4.63171e-07
-2.65244e-07
-4.24834e-07
-2.63787e-07
-3.86799e-07
-2.60481e-07
-3.49315e-07
-2.55314e-07
-3.12629e-07
-2.48292e-07
-2.76985e-07
-2.39438e-07
-2.42624e-07
-2.28795e-07
-2.09779e-07
-2.16433e-07
-1.78673e-07
-2.02443e-07
-1.49516e-07
-1.86949e-07
-1.22507e-07
-1.70106e-07
-9.78259e-08
-1.52106e-07
-7.56362e-08
-1.33182e-07
-5.60821e-08
-1.13614e-07
-3.92887e-08
-9.37324e-08
-2.53627e-08
-7.39253e-08
-1.43945e-08
-5.46445e-08
-6.46261e-09
-3.64091e-08
-1.63914e-09
-1.98089e-08
-5.54437e-09
-1.96617e-09
8.22302e-09
-7.67466e-09
2.7436e-08
-1.69576e-08
4.85733e-08
-2.96572e-08
7.09338e-08
-4.56167e-08
9.39336e-08
-6.46753e-08
1.17062e-07
-8.66637e-08
1.39876e-07
-1.11403e-07
1.62001e-07
-1.38701e-07
1.83121e-07
-1.68358e-07
2.02973e-07
-2.00158e-07
2.21344e-07
-2.33879e-07
2.38062e-07
-2.6929e-07
2.52995e-07
-3.06151e-07
2.66041e-07
-3.44219e-07
2.77131e-07
-3.83249e-07
2.86219e-07
-4.2299e-07
2.9328e-07
-4.63195e-07
2.9831e-07
-5.03618e-07
3.01322e-07
-5.44014e-07
3.02341e-07
-5.84145e-07
3.01405e-07
-6.23778e-07
2.98563e-07
-6.62686e-07
2.93874e-07
-7.0065e-07
2.87401e-07
-7.37459e-07
2.79219e-07
-7.72913e-07
2.69403e-07
-8.06819e-07
2.58036e-07
-8.38997e-07
2.45205e-07
-8.69277e-07
2.31001e-07
-8.97501e-07
2.15516e-07
-9.23521e-07
1.98846e-07
-9.47202e-07
1.8109e-07
-9.68424e-07
1.6235e-07
-9.87076e-07
1.42728e-07
-1.00306e-06
1.22328e-07
-1.0163e-06
1.01259e-07
-1.02671e-06
7.9629e-08
-1.03426e-06
5.75481e-08
-1.03888e-06
3.51288e-08
-1.04056e-06
1.24849e-08
-1.03928e-06
-1.02679e-08
-1.03504e-06
-3.30128e-08
-1.02786e-06
-5.56314e-08
-1.01776e-06
-7.80041e-08
-1.0048e-06
-1.0001e-07
-9.89027e-07
-1.21529e-07
-9.70523e-07
-1.42438e-07
-9.49375e-07
-1.62615e-07
-9.25688e-07
-1.81939e-07
-8.99583e-07
-2.00289e-07
-8.71194e-07
-2.17546e-07
-8.40669e-07
-2.33591e-07
-8.08171e-07
-2.48311e-07
-7.73876e-07
-2.61595e-07
-7.37975e-07
-2.73334e-07
-7.00669e-07
-2.83428e-07
-6.62172e-07
-2.91781e-07
-6.22708e-07
-2.98306e-07
-5.82511e-07
-3.02924e-07
-5.41823e-07
-3.05565e-07
-5.00894e-07
-3.06173e-07
-4.59979e-07
-3.04703e-07
-4.19336e-07
-3.01124e-07
-3.79226e-07
-2.95424e-07
-3.39912e-07
-2.87607e-07
-3.0165e-07
-2.77699e-07
-2.64697e-07
-2.65748e-07
-2.29301e-07
-2.51829e-07
-1.95702e-07
-2.36042e-07
-1.64129e-07
-2.18522e-07
-1.34799e-07
-1.99436e-07
-1.07915e-07
-1.78991e-07
-8.3661e-08
-1.57436e-07
-6.22085e-08
-1.35067e-07
-4.37103e-08
-1.12231e-07
-2.83044e-08
-8.93312e-08
-1.61156e-08
-6.68334e-08
-7.25955e-09
-4.52651e-08
-1.84857e-09
-2.52198e-08
-7.39294e-09
-2.17428e-09
1.03973e-08
-8.46749e-09
3.37291e-08
-1.86706e-08
5.87764e-08
-3.25855e-08
8.48487e-08
-5.00171e-08
1.11365e-07
-7.07689e-08
1.37813e-07
-9.46392e-08
1.63747e-07
-1.21419e-07
1.88781e-07
-1.50891e-07
2.12593e-07
-1.82829e-07
2.34911e-07
-2.16997e-07
2.55512e-07
-2.53154e-07
2.74219e-07
-2.91049e-07
2.9089e-07
-3.30429e-07
3.0542e-07
-3.71033e-07
3.17736e-07
-4.12603e-07
3.27788e-07
-4.54877e-07
3.35553e-07
-4.97594e-07
3.41027e-07
-5.40496e-07
3.44224e-07
-5.83331e-07
3.45175e-07
-6.25848e-07
3.43922e-07
-6.67805e-07
3.4052e-07
-7.08966e-07
3.35035e-07
-7.49104e-07
3.2754e-07
-7.88e-07
3.18115e-07
-8.25446e-07
3.06849e-07
-8.61243e-07
2.93833e-07
-8.95204e-07
2.79166e-07
-9.27152e-07
2.62949e-07
-9.56924e-07
2.45287e-07
-9.84366e-07
2.26288e-07
-1.00934e-06
2.06065e-07
-1.03172e-06
1.84729e-07
-1.05139e-06
1.62398e-07
-1.06825e-06
1.39191e-07
-1.08222e-06
1.15227e-07
-1.09322e-06
9.06293e-08
-1.10119e-06
6.55228e-08
-1.1061e-06
4.00341e-08
-1.10791e-06
1.42914e-08
-1.1066e-06
-1.15749e-08
-1.10218e-06
-3.7433e-08
-1.09466e-06
-6.31495e-08
-1.08408e-06
-8.85894e-08
-1.07047e-06
-1.13617e-07
-1.0539e-06
-1.38095e-07
-1.03445e-06
-1.61887e-07
-1.01221e-06
-1.84855e-07
-9.87291e-07
-2.06861e-07
-9.59809e-07
-2.27771e-07
-9.29907e-07
-2.47448e-07
-8.97738e-07
-2.6576e-07
-8.63471e-07
-2.82579e-07
-8.27288e-07
-2.97778e-07
-7.89385e-07
-3.11237e-07
-7.49971e-07
-3.22841e-07
-7.09269e-07
-3.32483e-07
-6.67512e-07
-3.40064e-07
-6.24942e-07
-3.45494e-07
-5.81812e-07
-3.48695e-07
-5.38383e-07
-3.49603e-07
-4.94921e-07
-3.48165e-07
-4.51696e-07
-3.44349e-07
-4.08983e-07
-3.38137e-07
-3.67056e-07
-3.29534e-07
-3.26189e-07
-3.18566e-07
-2.86653e-07
-3.05285e-07
-2.48712e-07
-2.8977e-07
-2.12624e-07
-2.7213e-07
-1.78638e-07
-2.52508e-07
-1.4699e-07
-2.31084e-07
-1.17905e-07
-2.08076e-07
-9.15936e-08
-1.83747e-07
-6.82514e-08
-1.58409e-07
-4.80606e-08
-1.32421e-07
-3.11901e-08
-1.06202e-07
-1.77979e-08
-8.02255e-08
-8.0353e-09
-5.50277e-08
-2.05125e-09
-3.12039e-08
-9.4442e-09
-2.37582e-09
1.27732e-08
-9.23847e-09
4.05917e-08
-2.03415e-08
6.98794e-08
-3.54494e-08
9.99566e-08
-5.43308e-08
1.30247e-07
-7.67547e-08
1.60237e-07
-1.02487e-07
1.89479e-07
-1.3129e-07
2.17584e-07
-1.62919e-07
2.44222e-07
-1.97123e-07
2.69115e-07
-2.33645e-07
2.92034e-07
-2.72221e-07
3.12795e-07
-3.12583e-07
3.31253e-07
-3.54461e-07
3.47298e-07
-3.97581e-07
3.60855e-07
-4.41667e-07
3.71874e-07
-4.86445e-07
3.80332e-07
-5.31644e-07
3.86226e-07
-5.76993e-07
3.89574e-07
-6.2223e-07
3.90411e-07
-6.67094e-07
3.88786e-07
-7.11334e-07
3.8476e-07
-7.54707e-07
3.78407e-07
-7.96975e-07
3.69808e-07
-8.37915e-07
3.59055e-07
-8.77309e-07
3.46243e-07
-9.14954e-07
3.31478e-07
-9.50655e-07
3.14867e-07
-9.84232e-07
2.96525e-07
-1.01551e-06
2.76569e-07
-1.04434e-06
2.55119e-07
-1.07058e-06
2.323e-07
-1.09409e-06
2.08239e-07
-1.11476e-06
1.83065e-07
-1.13248e-06
1.56912e-07
-1.14716e-06
1.29913e-07
-1.15874e-06
1.02205e-07
-1.16714e-06
7.39288e-08
-1.17233e-06
4.52241e-08
-1.17428e-06
1.62347e-08
-1.17296e-06
-1.28939e-08
-1.16838e-06
-4.20147e-08
-1.16055e-06
-7.09786e-08
-1.1495e-06
-9.96352e-08
-1.13529e-06
-1.27833e-07
-1.11796e-06
-1.55419e-07
-1.09761e-06
-1.8224e-07
-1.07432e-06
-2.08142e-07