/*--------------------------------*- C++ -*----------------------------------*\
  =========                 |
  \\      /  F ield         | OpenFOAM: The Open Source CFD Toolbox
   \\    /   O peration     | Website:  https://openfoam.org
    \\  /    A nd           | Version:  7
     \\/     M anipulation  |
\*---------------------------------------------------------------------------*/
FoamFile
{
    version     2.0;
    format      ascii;
    class       volVectorField;
    location    "0.125";
    object      U;
}
// * * * * * * * * * * * * * * * * * * * * * * * * * * * * * * * * * * * * * //

dimensions      [0 1 -1 0 0 0 0];

internalField   nonuniform List<vector> 
6400
(
(7.25272e-06 -7.22093e-06 0)
(2.96952e-05 -1.43166e-05 0)
(5.8938e-05 -1.39873e-05 0)
(7.99576e-05 -9.5572e-06 0)
(8.45873e-05 -3.28917e-06 0)
(6.96177e-05 3.6265e-06 0)
(3.39358e-05 1.05927e-05 0)
(-2.24285e-05 1.72943e-05 0)
(-9.87391e-05 2.35645e-05 0)
(-0.000193809 2.93326e-05 0)
(-0.000306213 3.4554e-05 0)
(-0.000434371 3.9216e-05 0)
(-0.000576601 4.33138e-05 0)
(-0.000731206 4.68533e-05 0)
(-0.00089646 4.98437e-05 0)
(-0.00107065 5.23034e-05 0)
(-0.00125211 5.42511e-05 0)
(-0.00143918 5.57013e-05 0)
(-0.00163028 5.66741e-05 0)
(-0.00182384 5.71905e-05 0)
(-0.00201839 5.72681e-05 0)
(-0.00221248 5.69268e-05 0)
(-0.00240476 5.61891e-05 0)
(-0.00259392 5.50759e-05 0)
(-0.00277871 5.36072e-05 0)
(-0.00295797 5.18042e-05 0)
(-0.00313058 4.96869e-05 0)
(-0.0032955 4.72756e-05 0)
(-0.00345176 4.45892e-05 0)
(-0.00359844 4.16477e-05 0)
(-0.00373472 3.84723e-05 0)
(-0.00385982 3.50819e-05 0)
(-0.00397302 3.14952e-05 0)
(-0.00407371 2.77332e-05 0)
(-0.00416131 2.38161e-05 0)
(-0.00423532 1.97642e-05 0)
(-0.00429532 1.5598e-05 0)
(-0.00434096 1.13379e-05 0)
(-0.00437196 7.00547e-06 0)
(-0.00438811 2.62316e-06 0)
(-0.00438929 -1.78703e-06 0)
(-0.00437544 -6.20328e-06 0)
(-0.0043466 -1.06029e-05 0)
(-0.00430287 -1.49616e-05 0)
(-0.00424444 -1.92542e-05 0)
(-0.00417158 -2.34563e-05 0)
(-0.00408466 -2.75439e-05 0)
(-0.00398412 -3.14915e-05 0)
(-0.00387049 -3.52728e-05 0)
(-0.00374438 -3.88623e-05 0)
(-0.0036065 -4.22343e-05 0)
(-0.00345764 -4.5362e-05 0)
(-0.00329869 -4.82193e-05 0)
(-0.00313059 -5.07808e-05 0)
(-0.00295442 -5.3021e-05 0)
(-0.00277128 -5.49145e-05 0)
(-0.00258241 -5.64368e-05 0)
(-0.00238908 -5.75648e-05 0)
(-0.00219266 -5.82758e-05 0)
(-0.00199459 -5.85478e-05 0)
(-0.00179635 -5.83601e-05 0)
(-0.00159951 -5.76939e-05 0)
(-0.00140567 -5.65317e-05 0)
(-0.00121649 -5.48583e-05 0)
(-0.00103365 -5.26606e-05 0)
(-0.000858868 -4.9928e-05 0)
(-0.000693866 -4.66523e-05 0)
(-0.000540367 -4.28283e-05 0)
(-0.000400074 -3.84555e-05 0)
(-0.000274643 -3.35399e-05 0)
(-0.000165657 -2.80967e-05 0)
(-7.45702e-05 -2.21554e-05 0)
(-2.64663e-06 -1.57693e-05 0)
(4.91474e-05 -9.0358e-06 0)
(8.03173e-05 -2.13327e-06 0)
(9.11242e-05 4.60584e-06 0)
(8.30064e-05 1.0559e-05 0)
(5.95137e-05 1.4535e-05 0)
(2.91194e-05 1.42979e-05 0)
(6.84966e-06 6.84796e-06 0)
(1.44737e-05 -2.97254e-05 0)
(5.14278e-05 -5.11585e-05 0)
(8.93933e-05 -4.35892e-05 0)
(0.000102817 -1.86651e-05 0)
(7.61443e-05 1.55611e-05 0)
(1.59161e-06 5.41543e-05 0)
(-0.000124506 9.40593e-05 0)
(-0.000303067 0.000133411 0)
(-0.000533042 0.000171052 0)
(-0.000812102 0.000206275 0)
(-0.00113703 0.000238637 0)
(-0.00150401 0.000267882 0)
(-0.00190891 0.000293859 0)
(-0.00234734 0.0003165 0)
(-0.0028148 0.000335795 0)
(-0.00330676 0.000351768 0)
(-0.00381869 0.000364479 0)
(-0.00434613 0.000374 0)
(-0.0048847 0.000380423 0)
(-0.00543014 0.000383854 0)
(-0.00597831 0.0003844 0)
(-0.00652523 0.000382177 0)
(-0.00706707 0.000377311 0)
(-0.00760017 0.000369926 0)
(-0.00812103 0.000360148 0)
(-0.00862634 0.000348111 0)
(-0.00911297 0.000333944 0)
(-0.00957796 0.000317777 0)
(-0.0100185 0.000299743 0)
(-0.0104322 0.000279977 0)
(-0.0108164 0.000258613 0)
(-0.0111691 0.000235785 0)
(-0.0114882 0.000211627 0)
(-0.011772 0.000186279 0)
(-0.0120188 0.000159878 0)
(-0.0122272 0.000132565 0)
(-0.0123961 0.000104483 0)
(-0.0125244 7.57752e-05 0)
(-0.0126113 4.65902e-05 0)
(-0.0126564 1.70784e-05 0)
(-0.0126592 -1.26088e-05 0)
(-0.0126196 -4.2317e-05 0)
(-0.0125377 -7.18877e-05 0)
(-0.0124138 -0.000101159 0)
(-0.0122485 -0.000129967 0)
(-0.0120426 -0.000158145 0)
(-0.0117972 -0.000185527 0)
(-0.0115134 -0.00021194 0)
(-0.0111928 -0.000237215 0)
(-0.0108373 -0.000261179 0)
(-0.0104486 -0.000283659 0)
(-0.0100292 -0.000304485 0)
(-0.00958153 -0.000323485 0)
(-0.00910826 -0.000340491 0)
(-0.00861237 -0.000355339 0)
(-0.00809705 -0.000367868 0)
(-0.0075657 -0.000377924 0)
(-0.00702193 -0.000385358 0)
(-0.00646953 -0.000390032 0)
(-0.0059125 -0.000391814 0)
(-0.005355 -0.000390583 0)
(-0.00480132 -0.000386233 0)
(-0.00425589 -0.000378672 0)
(-0.00372324 -0.000367826 0)
(-0.00320797 -0.000353639 0)
(-0.0027147 -0.000336082 0)
(-0.00224806 -0.00031515 0)
(-0.00181262 -0.000290875 0)
(-0.0014128 -0.000263336 0)
(-0.00105286 -0.000232669 0)
(-0.000736706 -0.000199095 0)
(-0.000467793 -0.000162952 0)
(-0.00024891 -0.000124756 0)
(-8.1879e-05 -8.52927e-05 0)
(3.28693e-05 -4.57867e-05 0)
(9.69131e-05 -8.16592e-06 0)
(0.000114614 2.4496e-05 0)
(9.44023e-05 4.72679e-05 0)
(5.23799e-05 5.23402e-05 0)
(1.42891e-05 2.90928e-05 0)
(1.43369e-05 -5.92999e-05 0)
(4.45333e-05 -8.93865e-05 0)
(6.11025e-05 -5.97325e-05 0)
(3.53577e-05 7.28578e-06 0)
(-5.0894e-05 9.64107e-05 0)
(-0.000207784 0.000197104 0)
(-0.000440628 0.000302226 0)
(-0.0007511 0.000406965 0)
(-0.00113819 0.000508127 0)
(-0.00159889 0.000603565 0)
(-0.00212881 0.000691886 0)
(-0.00272261 0.000772161 0)
(-0.00337423 0.000843827 0)
(-0.00407721 0.00090656 0)
(-0.00482481 0.000960209 0)
(-0.00561017 0.00100476 0)
(-0.00642635 0.0010403 0)
(-0.00726651 0.00106696 0)
(-0.00812384 0.00108497 0)
(-0.00899172 0.00109457 0)
(-0.0098637 0.00109604 0)
(-0.0107335 0.00108969 0)
(-0.0115951 0.00107584 0)
(-0.0124428 0.00105482 0)
(-0.0132709 0.001027 0)
(-0.0140743 0.00099272 0)
(-0.0148479 0.000952357 0)
(-0.0155872 0.000906276 0)
(-0.0162876 0.000854852 0)
(-0.0169451 0.000798466 0)
(-0.0175559 0.000737498 0)
(-0.0181164 0.000672336 0)
(-0.0186236 0.000603369 0)
(-0.0190745 0.000530995 0)
(-0.0194665 0.000455611 0)
(-0.0197975 0.000377623 0)
(-0.0200655 0.000297442 0)
(-0.020269 0.000215485 0)
(-0.0204067 0.000132177 0)
(-0.0204777 4.795e-05 0)
(-0.0204816 -3.67565e-05 0)
(-0.020418 -0.000121498 0)
(-0.0202873 -0.000205819 0)
(-0.0200898 -0.000289259 0)
(-0.0198266 -0.000371347 0)
(-0.0194989 -0.000451611 0)
(-0.0191083 -0.000529571 0)
(-0.018657 -0.000604742 0)
(-0.0181473 -0.000676639 0)
(-0.0175821 -0.000744774 0)
(-0.0169645 -0.000808658 0)
(-0.0162981 -0.000867808 0)
(-0.0155869 -0.000921747 0)
(-0.0148352 -0.000970003 0)
(-0.0140477 -0.00101212 0)
(-0.0132293 -0.00104764 0)
(-0.0123856 -0.00107615 0)
(-0.0115221 -0.00109724 0)
(-0.0106449 -0.00111052 0)
(-0.00976021 -0.00111565 0)
(-0.00887451 -0.00111231 0)
(-0.00799455 -0.00110022 0)
(-0.00712721 -0.00107916 0)
(-0.0062795 -0.00104895 0)
(-0.00545853 -0.00100948 0)
(-0.00467141 -0.000960725 0)
(-0.00392519 -0.000902742 0)
(-0.00322677 -0.000835705 0)
(-0.0025828 -0.000759935 0)
(-0.00199952 -0.000675939 0)
(-0.00148263 -0.00058448 0)
(-0.00103698 -0.000486667 0)
(-0.000666338 -0.0003841 0)
(-0.000372955 -0.000279088 0)
(-0.000157007 -0.000174982 0)
(-1.58877e-05 -7.66774e-05 0)
(5.66179e-05 8.65493e-06 0)
(7.14855e-05 7.06275e-05 0)
(4.77194e-05 9.4467e-05 0)
(1.46055e-05 5.95376e-05 0)
(1.01078e-05 -8.10912e-05 0)
(2.04591e-05 -0.000103839 0)
(-4.18632e-06 -3.44152e-05 0)
(-9.0465e-05 9.40496e-05 0)
(-0.000256397 0.000258998 0)
(-0.000512842 0.000444074 0)
(-0.000865666 0.000637518 0)
(-0.00131683 0.000831039 0)
(-0.00186516 0.00101881 0)
(-0.00250717 0.00119679 0)
(-0.00323758 0.00136215 0)
(-0.00404982 0.001513 0)
(-0.00493641 0.00164809 0)
(-0.00588919 0.00176665 0)
(-0.00689962 0.00186826 0)
(-0.00795888 0.00195277 0)
(-0.00905805 0.00202025 0)
(-0.0101882 0.00207088 0)
(-0.0113405 0.00210502 0)
(-0.0125062 0.00212307 0)
(-0.0136768 0.00212553 0)
(-0.0148441 0.00211294 0)
(-0.0160001 0.00208592 0)
(-0.0171371 0.00204507 0)
(-0.0182477 0.00199105 0)
(-0.019325 0.00192455 0)
(-0.0203623 0.00184626 0)
(-0.0213534 0.00175688 0)
(-0.0222923 0.00165714 0)
(-0.0231736 0.00154776 0)
(-0.0239922 0.0014295 0)
(-0.0247434 0.00130308 0)
(-0.0254229 0.00116929 0)
(-0.0260269 0.00102887 0)
(-0.026552 0.000882626 0)
(-0.0269952 0.000731333 0)
(-0.0273539 0.000575796 0)
(-0.0276261 0.00041683 0)
(-0.0278101 0.000255264 0)
(-0.0279047 9.19378e-05 0)
(-0.0279092 -7.22929e-05 0)
(-0.0278234 -0.000236559 0)
(-0.0276475 -0.000399978 0)
(-0.0273823 -0.000561651 0)
(-0.027029 -0.000720672 0)
(-0.0265894 -0.00087612 0)
(-0.0260656 -0.00102707 0)
(-0.0254605 -0.00117258 0)
(-0.0247773 -0.00131172 0)
(-0.0240198 -0.00144355 0)
(-0.0231922 -0.00156712 0)
(-0.0222994 -0.00168152 0)
(-0.0213466 -0.00178582 0)
(-0.0203396 -0.00187912 0)
(-0.0192846 -0.00196056 0)
(-0.0181883 -0.00202928 0)
(-0.0170579 -0.00208448 0)
(-0.0159009 -0.00212538 0)
(-0.0147253 -0.00215129 0)
(-0.0135392 -0.00216155 0)
(-0.0123514 -0.00215559 0)
(-0.0111705 -0.0021329 0)
(-0.0100057 -0.00209311 0)
(-0.00886615 -0.00203592 0)
(-0.00776107 -0.00196119 0)
(-0.00669969 -0.00186894 0)
(-0.00569111 -0.00175936 0)
(-0.00474417 -0.0016329 0)
(-0.00386731 -0.00149029 0)
(-0.0030684 -0.00133263 0)
(-0.00235451 -0.00116152 0)
(-0.00173158 -0.000979219 0)
(-0.00120412 -0.000788846 0)
(-0.000774742 -0.000594761 0)
(-0.000443575 -0.000403018 0)
(-0.000207584 -0.000222052 0)
(-5.98018e-05 -6.36035e-05 0)
(1.1661e-05 5.62085e-05 0)
(2.59151e-05 0.000115538 0)
(1.08419e-05 8.34451e-05 0)
(4.06551e-06 -8.69851e-05 0)
(-1.28795e-05 -7.90914e-05 0)
(-9.15538e-05 5.04439e-05 0)
(-0.000252969 0.000259507 0)
(-0.00051284 0.000518948 0)
(-0.000881542 0.000806953 0)
(-0.00136463 0.00110725 0)
(-0.0019637 0.00140795 0)
(-0.00267719 0.00170037 0)
(-0.00350101 0.00197826 0)
(-0.00442908 0.00223716 0)
(-0.00545383 0.00247392 0)
(-0.00656655 0.0026864 0)
(-0.00775773 0.00287321 0)
(-0.00901728 0.00303353 0)
(-0.0103348 0.00316698 0)
(-0.0116996 0.00327353 0)
(-0.013101 0.0033534 0)
(-0.0145283 0.00340703 0)
(-0.0159712 0.00343501 0)
(-0.0174193 0.00343807 0)
(-0.0188625 0.00341704 0)
(-0.0202911 0.00337282 0)
(-0.0216958 0.00330639 0)
(-0.0230676 0.00321878 0)
(-0.024398 0.00311104 0)
(-0.0256787 0.00298429 0)
(-0.0269021 0.00283965 0)
(-0.028061 0.00267828 0)
(-0.0291486 0.00250134 0)
(-0.0301587 0.00231003 0)
(-0.0310854 0.00210557 0)
(-0.0319237 0.00188917 0)
(-0.0326686 0.00166209 0)
(-0.0333161 0.00142558 0)
(-0.0338624 0.00118093 0)
(-0.0343045 0.000929437 0)
(-0.0346397 0.000672429 0)
(-0.0348661 0.000411245 0)
(-0.0349822 0.00014725 0)
(-0.0349872 -0.000118171 0)
(-0.0348807 -0.00038361 0)
(-0.0346632 -0.000647637 0)
(-0.0343355 -0.000908803 0)
(-0.0338992 -0.00116564 0)
(-0.0333564 -0.00141667 0)
(-0.03271 -0.00166039 0)
(-0.0319633 -0.0018953 0)
(-0.0311203 -0.00211988 0)
(-0.0301857 -0.00233264 0)
(-0.0291648 -0.00253207 0)
(-0.0280634 -0.00271668 0)
(-0.026888 -0.00288501 0)
(-0.0256457 -0.00303563 0)
(-0.0243442 -0.00316715 0)
(-0.0229915 -0.00327822 0)
(-0.0215965 -0.00336757 0)
(-0.0201683 -0.003434 0)
(-0.0187166 -0.0034764 0)
(-0.0172514 -0.00349376 0)
(-0.0157832 -0.00348521 0)
(-0.0143226 -0.00345001 0)
(-0.0128806 -0.00338758 0)
(-0.0114682 -0.00329754 0)
(-0.0100965 -0.00317975 0)
(-0.00877656 -0.00303432 0)
(-0.00751917 -0.00286168 0)
(-0.00633483 -0.00266267 0)
(-0.0052335 -0.00243857 0)
(-0.00422438 -0.00219129 0)
(-0.00331569 -0.0019235 0)
(-0.00251433 -0.00163885 0)
(-0.0018255 -0.00134231 0)
(-0.00125228 -0.00104056 0)
(-0.000795095 -0.000742595 0)
(-0.000451085 -0.000460523 0)
(-0.000213448 -0.000210582 0)
(-7.05849e-05 -1.42969e-05 0)
(-5.31356e-06 0.000100017 0)
(5.22009e-06 9.26466e-05 0)
(-2.62516e-06 -7.37881e-05 0)
(-5.06979e-05 -7.22614e-06 0)
(-0.000191094 0.000205357 0)
(-0.000436989 0.000515166 0)
(-0.000800431 0.000887571 0)
(-0.00129036 0.0012959 0)
(-0.00191123 0.00171974 0)
(-0.00266378 0.00214369 0)
(-0.00354565 0.00255623 0)
(-0.00455201 0.0029488 0)
(-0.00567594 0.00331511 0)
(-0.00690889 0.00365061 0)
(-0.00824108 0.00395213 0)
(-0.0096618 0.00421752 0)
(-0.0111596 0.00444544 0)
(-0.0127228 0.00463519 0)
(-0.0143391 0.00478658 0)
(-0.0159964 0.00489981 0)
(-0.0176825 0.0049754 0)
(-0.0193853 0.0050141 0)
(-0.021093 0.00501689 0)
(-0.0227939 0.0049849 0)
(-0.0244768 0.00491938 0)
(-0.0261308 0.00482169 0)
(-0.0277455 0.0046933 0)
(-0.029311 0.0045357 0)
(-0.0308176 0.00435048 0)
(-0.0322566 0.00413926 0)
(-0.0336194 0.00390371 0)
(-0.0348981 0.00364551 0)
(-0.0360855 0.0033664 0)
(-0.0371748 0.00306814 0)
(-0.0381598 0.00275252 0)
(-0.0390351 0.00242135 0)
(-0.0397958 0.00207648 0)
(-0.0404374 0.00171976 0)
(-0.0409565 0.00135311 0)
(-0.04135 0.00097846 0)
(-0.0416155 0.00059776 0)
(-0.0417514 0.000213007 0)
(-0.0417567 -0.000173779 0)
(-0.0416312 -0.000560543 0)
(-0.0413751 -0.000945203 0)
(-0.0409896 -0.00132565 0)
(-0.0404766 -0.00169975 0)
(-0.0398385 -0.00206534 0)
(-0.0390787 -0.00242026 0)
(-0.0382011 -0.00276232 0)
(-0.0372103 -0.00308934 0)
(-0.036112 -0.00339912 0)
(-0.0349122 -0.00368951 0)
(-0.0336177 -0.00395837 0)
(-0.0322363 -0.00420357 0)
(-0.030776 -0.00442307 0)
(-0.0292457 -0.00461487 0)
(-0.0276551 -0.00477704 0)
(-0.0260143 -0.00490778 0)
(-0.0243338 -0.00500538 0)
(-0.022625 -0.00506827 0)
(-0.0208993 -0.00509506 0)
(-0.019169 -0.00508451 0)
(-0.0174462 -0.00503563 0)
(-0.0157435 -0.00494766 0)
(-0.0140737 -0.00482016 0)
(-0.0124495 -0.00465299 0)
(-0.0108834 -0.00444643 0)
(-0.0093878 -0.00420123 0)
(-0.0079746 -0.00391871 0)
(-0.00665505 -0.00360087 0)
(-0.00543957 -0.00325056 0)
(-0.0043374 -0.00287169 0)
(-0.00335635 -0.00246951 0)
(-0.0025024 -0.00205097 0)
(-0.00177931 -0.00162521 0)
(-0.00118814 -0.00120423 0)
(-0.000726786 -0.000803684 0)
(-0.000389353 -0.000444023 0)
(-0.000165456 -0.000151593 0)
(-4.12562e-05 3.97986e-05 0)
(-1.10954e-06 8.38101e-05 0)
(-9.39811e-06 -4.02728e-05 0)
(-9.02321e-05 0.000115908 0)
(-0.000296396 0.000436526 0)
(-0.000632259 0.000868309 0)
(-0.00110529 0.00137228 0)
(-0.00172232 0.00191776 0)
(-0.00248614 0.00248064 0)
(-0.0033961 0.00304233 0)
(-0.00444876 0.00358856 0)
(-0.00563827 0.00410847 0)
(-0.00695676 0.00459395 0)
(-0.0083947 0.00503895 0)
(-0.00994127 0.00543918 0)
(-0.0115846 0.00579162 0)
(-0.0133122 0.00609434 0)
(-0.015111 0.00634626 0)
(-0.0169674 0.00654697 0)
(-0.0188681 0.0066966 0)
(-0.0207994 0.00679571 0)
(-0.0227479 0.00684523 0)
(-0.0247002 0.00684638 0)
(-0.0266435 0.00680059 0)
(-0.0285652 0.00670951 0)
(-0.0304529 0.00657491 0)
(-0.032295 0.00639872 0)
(-0.0340803 0.00618296 0)
(-0.035798 0.00592972 0)
(-0.0374381 0.00564119 0)
(-0.038991 0.00531962 0)
(-0.0404478 0.00496728 0)
(-0.0418003 0.00458654 0)
(-0.0430409 0.00417976 0)
(-0.0441625 0.00374939 0)
(-0.0451591 0.00329789 0)
(-0.0460249 0.00282777 0)
(-0.0467552 0.00234158 0)
(-0.0473458 0.0018419 0)
(-0.0477934 0.00133137 0)
(-0.0480954 0.000812661 0)
(-0.0482497 0.000288484 0)
(-0.0482555 -0.000238408 0)
(-0.0481122 -0.000765217 0)
(-0.0478205 -0.00128911 0)
(-0.0473815 -0.00180722 0)
(-0.0467973 -0.00231665 0)
(-0.0460708 -0.00281448 0)
(-0.0452057 -0.00329774 0)
(-0.0442065 -0.00376349 0)
(-0.0430786 -0.00420877 0)
(-0.0418281 -0.00463063 0)
(-0.0404619 -0.00502614 0)
(-0.0389879 -0.00539241 0)
(-0.0374144 -0.00572659 0)
(-0.0357509 -0.00602592 0)
(-0.0340074 -0.00628773 0)
(-0.0321945 -0.00650945 0)
(-0.0303237 -0.00668865 0)
(-0.0284069 -0.00682308 0)
(-0.0264567 -0.00691066 0)
(-0.0244861 -0.00694954 0)
(-0.0225086 -0.00693816 0)
(-0.020538 -0.00687522 0)
(-0.0185882 -0.00675981 0)
(-0.0166735 -0.00659139 0)
(-0.0148079 -0.0063699 0)
(-0.0130056 -0.00609584 0)
(-0.01128 -0.00577033 0)
(-0.00964446 -0.00539528 0)
(-0.00811139 -0.00497348 0)
(-0.0066923 -0.00450885 0)
(-0.00539747 -0.00400664 0)
(-0.00423565 -0.00347379 0)
(-0.00321375 -0.0029193 0)
(-0.00233641 -0.00235478 0)
(-0.00160572 -0.00179511 0)
(-0.0010208 -0.00125928 0)
(-0.000577241 -0.000771477 0)
(-0.000266559 -0.000362162 0)
(-7.91312e-05 -6.95016e-05 0)
(-7.57567e-06 5.5575e-05 0)
(-1.59892e-05 1.38051e-05 0)
(-0.000129923 0.00029211 0)
(-0.000403512 0.00074721 0)
(-0.00083204 0.00132308 0)
(-0.00141798 0.00197759 0)
(-0.00216559 0.00267679 0)
(-0.00307553 0.00339353 0)
(-0.00414541 0.00410634 0)
(-0.00537037 0.00479846 0)
(-0.00674333 0.00545686 0)
(-0.00825531 0.0060716 0)
(-0.00989572 0.0066352 0)
(-0.0116527 0.00714214 0)
(-0.0135133 0.00758854 0)
(-0.0154638 0.00797183 0)
(-0.0174901 0.00829047 0)
(-0.0195775 0.0085438 0)
(-0.0217113 0.00873184 0)
(-0.0238768 0.00885521 0)
(-0.0260591 0.00891498 0)
(-0.0282439 0.00891261 0)
(-0.0304168 0.00884987 0)
(-0.0325641 0.00872878 0)
(-0.0346724 0.00855159 0)
(-0.0367288 0.00832072 0)
(-0.038721 0.00803874 0)
(-0.0406371 0.00770833 0)
(-0.042466 0.00733228 0)
(-0.0441973 0.00691347 0)
(-0.045821 0.00645486 0)
(-0.0473282 0.00595946 0)
(-0.0487103 0.00543037 0)
(-0.0499598 0.00487072 0)
(-0.0510698 0.00428372 0)
(-0.052034 0.00367261 0)
(-0.0528472 0.00304071 0)
(-0.0535049 0.00239137 0)
(-0.0540032 0.00172801 0)
(-0.0543393 0.00105409 0)
(-0.0545111 0.000373137 0)
(-0.0545174 -0.000311282 0)
(-0.0543579 -0.00099554 0)
(-0.0540331 -0.00167597 0)
(-0.0535443 -0.00234885 0)
(-0.0528939 -0.00301043 0)
(-0.0520851 -0.00365693 0)
(-0.051122 -0.00428454 0)
(-0.0500095 -0.00488943 0)
(-0.0487535 -0.0054678 0)
(-0.0473608 -0.00601583 0)
(-0.0458391 -0.00652977 0)
(-0.044197 -0.00700588 0)
(-0.0424438 -0.00744052 0)
(-0.0405897 -0.00783015 0)
(-0.0386458 -0.00817133 0)
(-0.0366239 -0.00846079 0)
(-0.0345365 -0.00869545 0)
(-0.0323967 -0.00887243 0)
(-0.0302183 -0.00898912 0)
(-0.0280156 -0.0090432 0)
(-0.0258033 -0.00903271 0)
(-0.0235965 -0.00895608 0)
(-0.0214106 -0.0088122 0)
(-0.0192609 -0.00860049 0)
(-0.017163 -0.00832099 0)
(-0.015132 -0.00797444 0)
(-0.0131829 -0.0075624 0)
(-0.01133 -0.00708739 0)
(-0.00958693 -0.0065531 0)
(-0.00796627 -0.00596455 0)
(-0.00647936 -0.00532839 0)
(-0.00513601 -0.00465327 0)
(-0.00394418 -0.00395023 0)
(-0.00290969 -0.00323324 0)
(-0.00203592 -0.00251987 0)
(-0.00132363 -0.00183211 0)
(-0.00077032 -0.00119739 0)
(-0.000369878 -0.000649504 0)
(-0.000117341 -0.000229899 0)
(-1.39038e-05 7.58902e-06 0)
(-2.23018e-05 8.81288e-05 0)
(-0.000168932 0.00052167 0)
(-0.000510068 0.00113855 0)
(-0.00103208 0.00188136 0)
(-0.00173229 0.00270576 0)
(-0.0026121 0.00357537 0)
(-0.00366977 0.00446046 0)
(-0.00490086 0.00533718 0)
(-0.00629882 0.00618651 0)
(-0.00785515 0.00699348 0)
(-0.00955958 0.0077464 0)
(-0.0114004 0.0084364 0)
(-0.0133645 0.0090568 0)
(-0.015438 0.00960284 0)
(-0.0176061 0.0100712 0)
(-0.0198534 0.0104601 0)
(-0.0221644 0.0107683 0)
(-0.0245231 0.0109959 0)
(-0.0269136 0.0111436 0)
(-0.0293202 0.0112124 0)
(-0.0317271 0.0112041 0)
(-0.0341191 0.0111209 0)
(-0.0364813 0.0109652 0)
(-0.0387992 0.0107397 0)
(-0.0410588 0.0104473 0)
(-0.0432469 0.0100912 0)
(-0.0453506 0.0096748 0)
(-0.047358 0.00920143 0)
(-0.0492576 0.00867469 0)
(-0.0510388 0.00809826 0)
(-0.0526918 0.0074759 0)
(-0.0542074 0.00681146 0)
(-0.0555773 0.00610886 0)
(-0.056794 0.0053721 0)
(-0.0578509 0.00460525 0)
(-0.0587422 0.00381243 0)
(-0.059463 0.00299786 0)
(-0.0600092 0.0021658 0)
(-0.0603777 0.00132059 0)
(-0.0605662 0.00046664 0)
(-0.0605734 -0.000391591 0)
(-0.060399 -0.00124957 0)
(-0.0600434 -0.00210271 0)
(-0.0595084 -0.00294637 0)
(-0.0587962 -0.00377587 0)
(-0.0579105 -0.00458647 0)
(-0.0568555 -0.00537344 0)
(-0.0556368 -0.00613202 0)
(-0.0542607 -0.00685745 0)
(-0.0527346 -0.00754501 0)
(-0.0510668 -0.00819 0)
(-0.0492665 -0.0087878 0)
(-0.0473438 -0.0093339 0)
(-0.04531 -0.00982391 0)
(-0.0431768 -0.0102536 0)
(-0.040957 -0.0106189 0)
(-0.0386641 -0.010916 0)
(-0.0363124 -0.0111414 0)
(-0.0339166 -0.0112918 0)
(-0.0314923 -0.0113646 0)
(-0.0290553 -0.0113573 0)
(-0.0266219 -0.011268 0)
(-0.0242085 -0.0110955 0)
(-0.0218318 -0.0108391 0)
(-0.0195085 -0.0104989 0)
(-0.0172549 -0.010076 0)
(-0.0150872 -0.00957243 0)
(-0.0130207 -0.00899133 0)
(-0.0110703 -0.0083373 0)
(-0.00924957 -0.00761648 0)
(-0.0075711 -0.00683695 0)
(-0.00604579 -0.006009 0)
(-0.00468286 -0.00514564 0)
(-0.00348947 -0.00426303 0)
(-0.00247063 -0.00338122 0)
(-0.00162897 -0.00252481 0)
(-0.000964254 -0.00172393 0)
(-0.000472983 -0.00101502 0)
(-0.00015501 -0.000441855 0)
(-1.99748e-05 -5.99223e-05 0)
(-2.82971e-05 0.000182127 0)
(-0.000206846 0.00080395 0)
(-0.000614733 0.00161036 0)
(-0.00122978 0.00254345 0)
(-0.00204424 0.00355752 0)
(-0.00305655 0.00461437 0)
(-0.00426237 0.00568228 0)
(-0.00565499 0.00673539 0)
(-0.00722596 0.00775276 0)
(-0.00896519 0.00871765 0)
(-0.010861 0.00961687 0)
(-0.0129003 0.0104402 0)
(-0.015069 0.0111798 0)
(-0.0173519 0.0118302 0)
(-0.0197332 0.0123873 0)
(-0.0221964 0.0128489 0)
(-0.0247249 0.0132135 0)
(-0.0273018 0.0134811 0)
(-0.0299101 0.0136523 0)
(-0.0325329 0.0137285 0)
(-0.0351536 0.0137116 0)
(-0.0377559 0.0136041 0)
(-0.0403239 0.0134089 0)
(-0.0428422 0.0131292 0)
(-0.0452959 0.0127685 0)
(-0.0476708 0.0123306 0)
(-0.0499532 0.0118195 0)
(-0.0521302 0.0112393 0)
(-0.0541898 0.0105943 0)
(-0.0561205 0.00988907 0)
(-0.0579117 0.00912802 0)
(-0.0595538 0.00831587 0)
(-0.0610378 0.00745738 0)
(-0.0623558 0.0065574 0)
(-0.0635006 0.00562087 0)
(-0.064466 0.00465281 0)
(-0.0652467 0.00365835 0)
(-0.0658385 0.00264268 0)
(-0.0662379 0.00161106 0)
(-0.0664426 0.000568863 0)
(-0.0664512 -0.00047849 0)
(-0.0662631 -0.00152549 0)
(-0.0658791 -0.00256657 0)
(-0.0653009 -0.00359608 0)
(-0.0645309 -0.00460835 0)
(-0.063573 -0.00559763 0)
(-0.0624318 -0.00655818 0)
(-0.0611132 -0.00748423 0)
(-0.0596239 -0.00837001 0)
(-0.0579719 -0.00920981 0)
(-0.0561659 -0.00999795 0)
(-0.0542159 -0.0107289 0)
(-0.0521327 -0.0113971 0)
(-0.049928 -0.0119973 0)
(-0.0476148 -0.0125244 0)
(-0.0452064 -0.0129735 0)
(-0.0427174 -0.0133401 0)
(-0.0401629 -0.0136199 0)
(-0.0375588 -0.0138092 0)
(-0.0349214 -0.0139046 0)
(-0.0322678 -0.0139032 0)
(-0.0296152 -0.0138029 0)
(-0.0269814 -0.0136023 0)
(-0.0243839 -0.0133005 0)
(-0.0218407 -0.012898 0)
(-0.0193691 -0.0123958 0)
(-0.0169864 -0.0117967 0)
(-0.0147092 -0.0111043 0)
(-0.0125535 -0.0103243 0)
(-0.0105339 -0.00946375 0)
(-0.00866437 -0.0085322 0)
(-0.00695699 -0.00754153 0)
(-0.00542239 -0.00650654 0)
(-0.00406931 -0.00544544 0)
(-0.00290454 -0.00438044 0)
(-0.00193284 -0.0033384 0)
(-0.00115641 -0.00235168 0)
(-0.000574487 -0.00145872 0)
(-0.000191691 -0.000704897 0)
(-2.57493e-05 -0.00014644 0)
(-3.39839e-05 0.000295099 0)
(-0.000243495 0.00113783 0)
(-0.000716801 0.00216159 0)
(-0.00142368 0.00330862 0)
(-0.00235148 0.00453245 0)
(-0.00349565 0.00579361 0)
(-0.00484915 0.00705888 0)
(-0.00640288 0.00830076 0)
(-0.00814636 0.00949673 0)
(-0.0100677 0.0106285 0)
(-0.0121537 0.0116816 0)
(-0.0143899 0.0126444 0)
(-0.0167609 0.0135084 0)
(-0.0192503 0.014267 0)
(-0.0218412 0.0149158 0)
(-0.0245162 0.0154519 0)
(-0.0272574 0.0158737 0)
(-0.030047 0.0161811 0)
(-0.0328671 0.0163747 0)
(-0.0356997 0.016456 0)
(-0.0385274 0.0164272 0)
(-0.0413328 0.0162913 0)
(-0.0440993 0.0160516 0)
(-0.0468104 0.0157117 0)
(-0.0494505 0.0152759 0)
(-0.0520045 0.0147485 0)
(-0.054458 0.0141343 0)
(-0.0567974 0.0134381 0)
(-0.0590098 0.012665 0)
(-0.0610833 0.0118202 0)
(-0.0630065 0.0109093 0)
(-0.0647693 0.00993759 0)
(-0.0663623 0.00891088 0)
(-0.0677768 0.00783488 0)
(-0.0690055 0.00671547 0)
(-0.0700417 0.00555862 0)
(-0.0708799 0.00437041 0)
(-0.0715154 0.00315701 0)
(-0.0719448 0.00192471 0)
(-0.0721654 0.000679858 0)
(-0.0721757 -0.000571084 0)
(-0.0719754 -0.00182157 0)
(-0.0715651 -0.00306499 0)
(-0.0709464 -0.00429464 0)
(-0.0701222 -0.00550377 0)
(-0.0690963 -0.00668558 0)
(-0.0678738 -0.00783324 0)
(-0.0664607 -0.00893992 0)
(-0.0648643 -0.00999878 0)
(-0.0630928 -0.011003 0)
(-0.0611556 -0.011946 0)
(-0.0590631 -0.0128211 0)
(-0.0568268 -0.0136218 0)
(-0.0544592 -0.0143418 0)
(-0.0519736 -0.0149752 0)
(-0.0493845 -0.0155162 0)
(-0.046707 -0.0159595 0)
(-0.0439572 -0.0163001 0)
(-0.0411519 -0.0165334 0)
(-0.0383084 -0.0166557 0)
(-0.0354447 -0.0166635 0)
(-0.032579 -0.0165545 0)
(-0.0297301 -0.0163268 0)
(-0.0269167 -0.0159798 0)
(-0.0241576 -0.0155138 0)
(-0.0214716 -0.0149303 0)
(-0.0188768 -0.0142323 0)
(-0.016391 -0.0134243 0)
(-0.0140314 -0.0125126 0)
(-0.011814 -0.0115056 0)
(-0.00975376 -0.0104139 0)
(-0.00786442 -0.00925099 0)
(-0.00615806 -0.00803329 0)
(-0.00464515 -0.00678085 0)
(-0.00333442 -0.00551778 0)
(-0.0022329 -0.00427285 0)
(-0.00134532 -0.0030802 0)
(-0.000673683 -0.0019798 0)
(-0.000227201 -0.00101804 0)
(-3.1228e-05 -0.000251321 0)
(-3.9382e-05 0.000426325 0)
(-0.000278845 0.00152195 0)
(-0.000816011 0.00279075 0)
(-0.00161309 0.00417551 0)
(-0.00265276 0.00562941 0)
(-0.00392754 0.00711217 0)
(-0.00542767 0.00858948 0)
(-0.00714157 0.0100326 0)
(-0.00905662 0.0114176 0)
(-0.0111591 0.012725 0)
(-0.013434 0.0139391 0)
(-0.0158656 0.0150474 0)
(-0.0184369 0.0160403 0)
(-0.0211304 0.0169106 0)
(-0.0239281 0.0176533 0)
(-0.0268114 0.0182651 0)
(-0.0297615 0.0187444 0)
(-0.0327595 0.0190908 0)
(-0.0357864 0.019305 0)
(-0.0388237 0.0193888 0)
(-0.0418527 0.0193448 0)
(-0.0448554 0.019176 0)
(-0.0478142 0.0188865 0)
(-0.0507119 0.0184804 0)
(-0.053532 0.0179626 0)
(-0.0562589 0.0173381 0)
(-0.0588772 0.0166124 0)
(-0.0613729 0.0157912 0)
(-0.0637324 0.0148803 0)
(-0.065943 0.0138858 0)
(-0.0679931 0.0128141 0)
(-0.0698717 0.0116716 0)
(-0.0715692 0.0104649 0)
(-0.0730765 0.00920065 0)
(-0.0743858 0.00788577 0)
(-0.0754902 0.00652722 0)
(-0.0763837 0.00513209 0)
(-0.0770617 0.00370758 0)
(-0.0775202 0.00226102 0)
(-0.0777567 0.000799843 0)
(-0.0777696 -0.000668427 0)
(-0.0775583 -0.00213615 0)
(-0.0771235 -0.00359561 0)
(-0.076467 -0.005039 0)
(-0.0755918 -0.00645845 0)
(-0.0745017 -0.00784602 0)
(-0.0732022 -0.00919377 0)
(-0.0716995 -0.0104937 0)
(-0.0700012 -0.0117379 0)
(-0.0681159 -0.0129185 0)
(-0.0660534 -0.0140277 0)
(-0.0638247 -0.0150577 0)
(-0.0614417 -0.016001 0)
(-0.0589174 -0.0168505 0)
(-0.0562661 -0.0175991 0)
(-0.0535026 -0.0182401 0)
(-0.050643 -0.0187674 0)
(-0.0477041 -0.0191751 0)
(-0.0447035 -0.0194581 0)
(-0.0416594 -0.0196119 0)
(-0.0385907 -0.0196327 0)
(-0.0355166 -0.0195176 0)
(-0.0324568 -0.0192646 0)
(-0.0294311 -0.018873 0)
(-0.0264594 -0.0183431 0)
(-0.0235613 -0.0176768 0)
(-0.0207564 -0.0168773 0)
(-0.0180636 -0.0159498 0)
(-0.0155012 -0.0149013 0)
(-0.0130866 -0.0137414 0)
(-0.0108362 -0.0124818 0)
(-0.00876512 -0.0111372 0)
(-0.00688721 -0.00972578 0)
(-0.00521475 -0.00826905 0)
(-0.00375854 -0.0067928 0)
(-0.00252797 -0.00532741 0)
(-0.00153032 -0.00390844 0)
(-0.000770303 -0.00257699 0)
(-0.00026151 -0.00138008 0)
(-3.64318e-05 -0.000373895 0)
(-4.45244e-05 0.000575128 0)
(-0.000312957 0.00195489 0)
(-0.00091234 0.00349613 0)
(-0.00179779 0.00514239 0)
(-0.00294758 0.00684682 0)
(-0.00435138 0.00856868 0)
(-0.00599673 0.0102729 0)
(-0.00786954 0.0119297 0)
(-0.00995499 0.0135142 0)
(-0.0122373 0.0150059 0)
(-0.0147 0.0163881 0)
(-0.0173254 0.0176473 0)
(-0.0200954 0.0187733 0)
(-0.022991 0.0197583 0)
(-0.0259932 0.0205968 0)
(-0.029082 0.0212853 0)
(-0.0322378 0.0218218 0)
(-0.0354406 0.0222061 0)
(-0.0386706 0.0224389 0)
(-0.0419082 0.0225222 0)
(-0.045134 0.022459 0)
(-0.0483292 0.0222528 0)
(-0.0514753 0.0219081 0)
(-0.0545545 0.0214296 0)
(-0.0575495 0.0208229 0)
(-0.0604439 0.0200938 0)
(-0.063222 0.0192484 0)
(-0.0658689 0.0182932 0)
(-0.0683705 0.0172351 0)
(-0.0707137 0.0160809 0)
(-0.0728863 0.014838 0)
(-0.0748769 0.0135138 0)
(-0.0766753 0.0121157 0)
(-0.0782723 0.0106515 0)
(-0.0796596 0.00912913 0)
(-0.08083 0.00755654 0)
(-0.0817774 0.00594191 0)
(-0.0824967 0.00429351 0)
(-0.082984 0.00261976 0)
(-0.0832365 0.000929196 0)
(-0.0832526 -0.00076952 0)
(-0.0830316 -0.00246762 0)
(-0.0825743 -0.00415623 0)
(-0.0818825 -0.00582639 0)
(-0.0809591 -0.00746905 0)
(-0.0798084 -0.00907512 0)
(-0.0784357 -0.0106355 0)
(-0.0768477 -0.0121409 0)
(-0.0750521 -0.0135824 0)
(-0.0730579 -0.0149508 0)
(-0.0708753 -0.0162373 0)
(-0.0685156 -0.0174329 0)
(-0.0659913 -0.018529 0)
(-0.0633159 -0.0195174 0)
(-0.0605042 -0.0203901 0)
(-0.0575718 -0.0211393 0)
(-0.0545353 -0.021758 0)
(-0.0514122 -0.0222396 0)
(-0.048221 -0.0225782 0)
(-0.0449807 -0.0227685 0)
(-0.041711 -0.0228064 0)
(-0.0384321 -0.0226884 0)
(-0.0351646 -0.0224124 0)
(-0.0319292 -0.0219773 0)
(-0.0287471 -0.0213836 0)
(-0.0256389 -0.0206333 0)
(-0.0226253 -0.0197301 0)
(-0.0197264 -0.0186796 0)
(-0.0169619 -0.0174897 0)
(-0.0143506 -0.0161706 0)
(-0.0119103 -0.0147354 0)
(-0.0096578 -0.0132 0)
(-0.00760869 -0.0115836 0)
(-0.0057772 -0.00990949 0)
(-0.00417628 -0.0082047 0)
(-0.00281769 -0.00650098 0)
(-0.00171127 -0.00483506 0)
(-0.000864367 -0.00324885 0)
(-0.00029468 -0.00178974 0)
(-4.13912e-05 -0.000513522 0)
(-4.94424e-05 0.000740866 0)
(-0.000345935 0.00243526 0)
(-0.00100594 0.00427598 0)
(-0.00197792 0.00620741 0)
(-0.00323597 0.00818291 0)
(-0.00476705 0.0101615 0)
(-0.00655601 0.0121076 0)
(-0.00858631 0.0139908 0)
(-0.0108408 0.0157854 0)
(-0.0133018 0.01747 0)
(-0.0159509 0.0190271 0)
(-0.0187688 0.0204428 0)
(-0.0217359 0.0217059 0)
(-0.024832 0.0228084 0)
(-0.0280366 0.0237443 0)
(-0.0313288 0.0245098 0)
(-0.0346877 0.025103 0)
(-0.0380925 0.0255236 0)
(-0.0415224 0.0257726 0)
(-0.0449569 0.0258523 0)
(-0.0483759 0.0257658 0)
(-0.0517597 0.0255173 0)
(-0.055089 0.0251118 0)
(-0.0583454 0.0245546 0)
(-0.0615111 0.0238521 0)
(-0.0645689 0.0230107 0)
(-0.0675024 0.0220374 0)
(-0.0702964 0.0209397 0)
(-0.0729361 0.0197251 0)
(-0.0754081 0.0184016 0)
(-0.0776996 0.0169773 0)
(-0.0797989 0.0154607 0)
(-0.0816954 0.0138603 0)
(-0.0833795 0.0121849 0)
(-0.0848427 0.0104434 0)
(-0.0860775 0.00864498 0)
(-0.0870775 0.00679878 0)
(-0.0878375 0.00491423 0)
(-0.0883534 0.00300089 0)
(-0.0886223 0.00106844 0)
(-0.0886425 -0.000873299 0)
(-0.0884132 -0.00281438 0)
(-0.0879352 -0.00474474 0)
(-0.0872103 -0.00665421 0)
(-0.0862416 -0.00853255 0)
(-0.0850333 -0.0103694 0)
(-0.0835909 -0.0121545 0)
(-0.0819214 -0.0138774 0)
(-0.0800326 -0.0155278 0)
(-0.0779338 -0.0170953 0)
(-0.0756355 -0.01857 0)
(-0.0731495 -0.0199417 0)
(-0.0704885 -0.0212007 0)