/*--------------------------------*- C++ -*----------------------------------*\
  =========                 |
  \\      /  F ield         | OpenFOAM: The Open Source CFD Toolbox
   \\    /   O peration     | Website:  https://openfoam.org
    \\  /    A nd           | Version:  7
     \\/     M anipulation  |
\*---------------------------------------------------------------------------*/
FoamFile
{
    version     2.0;
    format      ascii;
    class       volScalarField;
    location    "0.325";
    object      p;
}
// * * * * * * * * * * * * * * * * * * * * * * * * * * * * * * * * * * * * * //

dimensions      [0 2 -2 0 0 0 0];

internalField   nonuniform List<scalar> 
25600
(
1.46805e-08
-4.16411e-07
-3.55756e-06
-9.12973e-06
-1.63779e-05
-2.46249e-05
-3.33404e-05
-4.21054e-05
-5.05727e-05
-5.8456e-05
-6.5535e-05
-7.16404e-05
-7.66396e-05
-8.0431e-05
-8.29394e-05
-8.41078e-05
-8.38924e-05
-8.22616e-05
-7.91974e-05
-7.46924e-05
-6.87453e-05
-6.13578e-05
-5.25328e-05
-4.22766e-05
-3.06009e-05
-1.7521e-05
-3.05228e-06
1.27919e-05
2.99988e-05
4.85553e-05
6.84467e-05
8.96581e-05
0.000112176
0.000135987
0.000161081
0.000187449
0.000215079
0.000243962
0.000274087
0.000305446
0.000338033
0.000371842
0.000406866
0.000443098
0.000480529
0.000519154
0.000558967
0.000599963
0.000642137
0.00068548
0.000729984
0.000775639
0.000822437
0.00087037
0.000919428
0.000969601
0.00102088
0.00107324
0.00112667
0.00118116
0.00123669
0.00129325
0.00135081
0.00140935
0.00146886
0.0015293
0.00159065
0.00165287
0.00171596
0.00177986
0.00184455
0.00191
0.00197616
0.002043
0.00211048
0.00217855
0.00224717
0.00231629
0.00238587
0.00245586
0.00252619
0.00259683
0.00266771
0.00273878
0.00280997
0.00288122
0.00295248
0.00302367
0.00309474
0.00316561
0.00323621
0.00330648
0.00337635
0.00344574
0.00351458
0.00358281
0.00365034
0.00371711
0.00378303
0.00384805
0.00391208
0.00397505
0.0040369
0.00409755
0.00415693
0.00421497
0.00427161
0.00432679
0.00438043
0.00443249
0.0044829
0.00453161
0.00457857
0.00462372
0.00466703
0.00470845
0.00474794
0.00478547
0.004821
0.00485452
0.00488599
0.00491541
0.00494276
0.00496802
0.0049912
0.0050123
0.00503132
0.00504828
0.00506319
0.00507607
0.00508695
0.00509585
0.00510282
0.0051079
0.00511114
0.00511258
0.0051123
0.00511034
0.0051068
0.00510173
0.00509524
0.00508741
0.00507835
0.00506816
0.00505697
0.00504491
0.00503212
0.00501877
0.00500504
0.00499112
0.00497723
0.00496364
0.00495062
0.00493849
0.00492762
0.00491841
0.00491129
0.00490666
0.00490487
0.00490567
8.19508e-07
3.61169e-07
-2.33128e-06
-6.9095e-06
-1.28192e-05
-1.9563e-05
-2.67256e-05
-3.39542e-05
-4.09513e-05
-4.7462e-05
-5.32779e-05
-5.82325e-05
-6.2193e-05
-6.50526e-05
-6.67298e-05
-6.71628e-05
-6.63021e-05
-6.41101e-05
-6.05619e-05
-5.56409e-05
-4.93377e-05
-4.16495e-05
-3.25769e-05
-2.21225e-05
-1.02916e-05
2.90784e-06
1.74653e-05
3.33691e-05
5.06078e-05
6.917e-05
8.90446e-05
0.000110221
0.000132689
0.000156436
0.000181451
0.000207723
0.000235247
0.000264013
0.000294013
0.000325237
0.000357678
0.000391331
0.00042619
0.000462247
0.000499495
0.000537928
0.000577541
0.000618326
0.000660278
0.000703388
0.000747647
0.000793047
0.00083958
0.000887236
0.000936005
0.000985875
0.00103683
0.00108886
0.00114195
0.00119608
0.00125124
0.00130741
0.00136456
0.00142269
0.00148175
0.00154174
0.00160262
0.00166436
0.00172694
0.00179032
0.00185447
0.00191936
0.00198495
0.0020512
0.00211807
0.00218551
0.00225349
0.00232195
0.00239086
0.00246015
0.00252978
0.00259969
0.00266983
0.00274014
0.00281057
0.00288105
0.00295151
0.0030219
0.00309215
0.0031622
0.00323198
0.00330141
0.00337043
0.00343898
0.00350697
0.00357434
0.00364102
0.00370693
0.00377201
0.00383618
0.00389937
0.00396151
0.00402253
0.00408236
0.00414094
0.0041982
0.00425406
0.00430848
0.00436139
0.00441274
0.00446246
0.0045105
0.00455682
0.00460136
0.00464409
0.00468496
0.00472394
0.00476099
0.00479609
0.00482921
0.00486033
0.00488943
0.00491651
0.00494156
0.00496457
0.00498556
0.00500451
0.00502146
0.00503642
0.0050494
0.00506045
0.00506958
0.00507685
0.00508229
0.00508595
0.00508789
0.00508818
0.00508686
0.00508403
0.00507976
0.00507414
0.00506726
0.00505923
0.00505015
0.00504015
0.00502935
0.00501791
0.00500598
0.00499374
0.00498136
0.00496907
0.00495709
0.00494568
0.00493511
0.00492569
0.00491773
0.00491154
0.00490739
0.00490566
0.00490646
4.46278e-06
3.43013e-06
6.62187e-07
-3.528e-06
-8.74806e-06
-1.46348e-05
-2.08421e-05
-2.70706e-05
-3.30668e-05
-3.86094e-05
-4.35083e-05
-4.76077e-05
-5.07798e-05
-5.29198e-05
-5.39458e-05
-5.37918e-05
-5.24068e-05
-4.97529e-05
-4.58011e-05
-4.05292e-05
-3.39226e-05
-2.59735e-05
-1.66804e-05
-6.04516e-06
5.93035e-06
1.92436e-05
3.38884e-05
4.98556e-05
6.71348e-05
8.57154e-05
0.000105588
0.000126746
0.000149182
0.000172883
0.00019784
0.000224042
0.000251482
0.000280155
0.000310053
0.000341168
0.000373492
0.000407018
0.00044174
0.000477653
0.000514749
0.000553024
0.00059247
0.000633081
0.000674848
0.000717765
0.000761822
0.000807011
0.000853324
0.00090075
0.00094928
0.000998901
0.0010496
0.00110136
0.00115416
0.001208
0.00126285
0.0013187
0.00137553
0.00143331
0.00149202
0.00155164
0.00161213
0.00167348
0.00173565
0.00179861
0.00186233
0.00192678
0.0019919
0.00205768
0.00212406
0.00219101
0.00225847
0.00232641
0.00239478
0.00246352
0.00253259
0.00260193
0.00267148
0.0027412
0.00281102
0.00288089
0.00295073
0.00302049
0.0030901
0.0031595
0.00322863
0.00329741
0.00336577
0.00343365
0.00350097
0.00356768
0.00363369
0.00369893
0.00376334
0.00382685
0.00388938
0.00395087
0.00401124
0.00407043
0.00412838
0.00418501
0.00424027
0.0042941
0.00434643
0.00439721
0.00444638
0.00449389
0.0045397
0.00458376
0.00462603
0.00466646
0.00470503
0.0047417
0.00477644
0.00480924
0.00484007
0.00486891
0.00489577
0.00492063
0.0049435
0.00496437
0.00498327
0.00500019
0.00501517
0.00502822
0.00503937
0.00504867
0.00505615
0.00506185
0.00506583
0.00506814
0.00506885
0.00506802
0.00506572
0.00506205
0.00505708
0.00505092
0.00504366
0.00503541
0.0050263
0.00501646
0.00500602
0.00499514
0.00498398
0.00497272
0.00496156
0.00495071
0.0049404
0.00493086
0.00492236
0.00491516
0.0049095
0.00490561
0.00490389
0.00490465
1.04836e-05
8.34909e-06
5.0811e-06
8.42736e-07
-4.14662e-06
-9.61064e-06
-1.52682e-05
-2.08661e-05
-2.61876e-05
-3.10427e-05
-3.52642e-05
-3.871e-05
-4.12627e-05
-4.28262e-05
-4.33199e-05
-4.26777e-05
-4.08487e-05
-3.77951e-05
-3.34876e-05
-2.79033e-05
-2.10237e-05
-1.28369e-05
-3.33939e-06
7.46851e-06
1.95869e-05
3.30151e-05
4.77493e-05
6.37833e-05
8.11097e-05
9.97189e-05
0.000119603
0.000140755
0.000163169
0.000186838
0.000211749
0.000237895
0.000265268
0.000293864
0.000323675
0.000354696
0.000386918
0.000420334
0.000454938
0.000490725
0.000527688
0.000565823
0.000605122
0.000645578
0.000687183
0.00072993
0.000773809
0.000818813
0.000864932
0.000912157
0.000960477
0.00100988
0.00106035
0.00111187
0.00116443
0.00121801
0.0012726
0.00132817
0.00138472
0.0014422
0.00150061
0.00155991
0.00162008
0.00168109
0.00174292
0.00180552
0.00186887
0.00193294
0.00199768
0.00206305
0.00212902
0.00219555
0.00226259
0.00233008
0.002398
0.00246628
0.00253488
0.00260375
0.00267282
0.00274204
0.00281136
0.00288072
0.00295005
0.00301929
0.00308837
0.00315724
0.00322583
0.00329407
0.00336189
0.00342922
0.003496
0.00356215
0.00362761
0.00369231
0.00375617
0.00381913
0.00388112
0.00394207
0.00400191
0.00406057
0.004118
0.00417412
0.00422888
0.00428221
0.00433406
0.00438437
0.00443308
0.00448016
0.00452554
0.00456919
0.00461107
0.00465113
0.00468935
0.00472569
0.00476013
0.00479264
0.00482322
0.00485184
0.00487849
0.00490319
0.00492591
0.00494668
0.0049655
0.00498239
0.00499736
0.00501044
0.00502167
0.00503108
0.0050387
0.0050446
0.00504881
0.0050514
0.00505243
0.00505197
0.00505009
0.00504688
0.00504242
0.00503681
0.00503015
0.00502255
0.00501413
0.00500501
0.00499534
0.00498525
0.00497491
0.00496447
0.00495413
0.00494408
0.00493452
0.00492565
0.00491772
0.00491093
0.0049055
0.00490164
0.00489971
0.00490001
1.80894e-05
1.4549e-05
1.05126e-05
5.96024e-06
9.33572e-07
-4.35614e-06
-9.69004e-06
-1.48628e-05
-1.96915e-05
-2.40171e-05
-2.76955e-05
-3.06001e-05
-3.26268e-05
-3.36885e-05
-3.37098e-05
-3.26289e-05
-3.03968e-05
-2.69748e-05
-2.23333e-05
-1.64497e-05
-9.30597e-06
-8.89329e-07
8.80717e-06
1.97867e-05
3.20509e-05
4.55993e-05
6.04288e-05
7.6535e-05
9.39132e-05
0.000112557
0.00013246
0.000153615
0.000176017
0.000199658
0.00022453
0.000250626
0.00027794
0.000306466
0.000336199
0.000367131
0.000399256
0.000432567
0.00046706
0.000502728
0.000539566
0.000577567
0.000616725
0.000657033
0.000698484
0.000741069
0.000784779
0.000829607
0.000875542
0.000922575
0.000970696
0.00101989
0.00107014
0.00112144
0.00117377
0.00122711
0.00128145
0.00133677
0.00139305
0.00145026
0.00150838
0.00156739
0.00162726
0.00168796
0.00174946
0.00181174
0.00187475
0.00193847
0.00200285
0.00206786
0.00213346
0.0021996
0.00226624
0.00233334
0.00240085
0.00246872
0.0025369
0.00260533
0.00267397
0.00274275
0.00281162
0.00288052
0.00294938
0.00301816
0.00308677
0.00315517
0.00322327
0.00329103
0.00335836
0.00342521
0.0034915
0.00355716
0.00362213
0.00368634
0.00374971
0.00381218
0.00387368
0.00393415
0.00399351
0.0040517
0.00410866
0.00416432
0.00421863
0.00427152
0.00432293
0.00437281
0.00442111
0.00446779
0.00451278
0.00455606
0.00459757
0.00463729
0.00467519
0.00471122
0.00474537
0.00477762
0.00480795
0.00483635
0.00486282
0.00488734
0.00490992
0.00493058
0.00494931
0.00496614
0.00498108
0.00499418
0.00500545
0.00501493
0.00502267
0.00502871
0.00503311
0.00503592
0.00503721
0.00503706
0.00503552
0.0050327
0.00502866
0.00502352
0.00501736
0.00501031
0.00500246
0.00499395
0.00498491
0.00497547
0.00496579
0.00495602
0.00494633
0.00493689
0.00492788
0.00491949
0.00491191
0.00490533
0.00489994
0.0048959
0.00489349
0.00489293
2.66653e-05
2.15559e-05
1.65878e-05
1.15368e-05
6.2654e-06
9.44181e-07
-4.25649e-06
-9.17987e-06
-1.3677e-05
-1.76147e-05
-2.08737e-05
-2.3347e-05
-2.49412e-05
-2.55768e-05
-2.51881e-05
-2.37205e-05
-2.11281e-05
-1.73736e-05
-1.24264e-05
-6.26357e-06
1.13058e-06
9.76735e-06
1.96555e-05
3.08014e-05
4.3209e-05
5.68783e-05
7.18062e-05
8.79888e-05
0.000105423
0.000124106
0.000144033
0.000165197
0.000187593
0.000211214
0.000236053
0.000262105
0.000289366
0.00031783
0.000347491
0.000378342
0.000410376
0.00044359
0.000477978
0.000513535
0.000550255
0.000588131
0.000627156
0.000667325
0.000708629
0.000751061
0.000794612
0.000839274
0.000885037
0.000931891
0.000979824
0.00102882
0.00107888
0.00112997
0.00118208
0.0012352
0.00128931
0.00134439
0.00140042
0.00145738
0.00151525
0.00157399
0.00163358
0.001694
0.00175521
0.00181718
0.00187989
0.00194329
0.00200735
0.00207204
0.0021373
0.0022031
0.0022694
0.00233614
0.00240329
0.00247078
0.00253859
0.00260664
0.00267489
0.00274328
0.00281175
0.00288025
0.00294871
0.00301708
0.00308528
0.00315326
0.00322095
0.00328828
0.00335519
0.00342161
0.00348747
0.00355271
0.00361725
0.00368103
0.00374397
0.00380602
0.0038671
0.00392714
0.00398608
0.00404386
0.00410041
0.00415566
0.00420956
0.00426206
0.00431308
0.00436259
0.00441052
0.00445683
0.00450147
0.00454441
0.0045856
0.00462501
0.0046626
0.00469835
0.00473224
0.00476424
0.00479434
0.00482253
0.0048488
0.00487315
0.00489559
0.00491612
0.00493475
0.00495151
0.00496641
0.00497948
0.00499076
0.00500028
0.00500809
0.00501424
0.00501877
0.00502175
0.00502325
0.00502333
0.00502207
0.00501955
0.00501585
0.00501108
0.00500534
0.00499872
0.00499134
0.00498332
0.00497478
0.00496586
0.00495669
0.00494743
0.00493822
0.00492922
0.00492059
0.0049125
0.00490509
0.00489855
0.00489301
0.00488863
0.00488555
0.00488383
3.57066e-05
2.89608e-05
2.29622e-05
1.72875e-05
1.16203e-05
6.10431e-06
8.77337e-07
-3.94804e-06
-8.25502e-06
-1.19334e-05
-1.48875e-05
-1.70302e-05
-1.82804e-05
-1.85678e-05
-1.7835e-05
-1.60342e-05
-1.31256e-05
-9.07496e-06
-3.85271e-06
2.56335e-06
1.01878e-05
1.90311e-05
2.91023e-05
4.04082e-05
5.29538e-05
6.67405e-05
8.17657e-05
9.80262e-05
0.000115521
0.000134247
0.000154201
0.000175378
0.000197774
0.000221381
0.000246194
0.000272209
0.000299422
0.00032783
0.000357426
0.000388203
0.000420154
0.000453278
0.000487569
0.000523023
0.000559633
0.000597392
0.000636294
0.000676332
0.000717501
0.00075979
0.000803193
0.000847701
0.000893304
0.000939992
0.000987753
0.00103657
0.00108644
0.00113734
0.00118926
0.00124218
0.00129608
0.00135095
0.00140675
0.00146349
0.00152111
0.00157961
0.00163896
0.00169912
0.00176008
0.00182179
0.00188422
0.00194735
0.00201113
0.00207552
0.00214049
0.00220599
0.00227198
0.00233842
0.00240525
0.00247243
0.00253991
0.00260764
0.00267555
0.00274361
0.00281175
0.0028799
0.00294802
0.00301603
0.00308388
0.00315151
0.00321884
0.00328582
0.00335237
0.00341843
0.00348393
0.0035488
0.00361298
0.00367639
0.00373897
0.00380066
0.00386137
0.00392106
0.00397964
0.00403706
0.00409325
0.00414816
0.00420171
0.00425386
0.00430455
0.00435372
0.00440133
0.00444732
0.00449166
0.00453429
0.00457519
0.00461431
0.00465164
0.00468713
0.00472077
0.00475253
0.00478242
0.0048104
0.00483649
0.00486067
0.00488296
0.00490335
0.00492187
0.00493854
0.00495337
0.0049664
0.00497766
0.00498718
0.00499502
0.00500122
0.00500584
0.00500893
0.00501057
0.00501082
0.00500976
0.00500746
0.00500403
0.00499954
0.00499411
0.00498782
0.0049808
0.00497315
0.00496499
0.00495646
0.00494767
0.00493877
0.0049299
0.00492119
0.00491278
0.00490481
0.00489743
0.00489076
0.00488493
0.00488008
0.00487618
0.00487316
4.47993e-05
3.64103e-05
2.93276e-05
2.29489e-05
1.67845e-05
1.09562e-05
5.57964e-06
7.32614e-07
-3.49898e-06
-7.02819e-06
-9.77747e-06
-1.16763e-05
-1.26596e-05
-1.26688e-05
-1.16536e-05
-9.57275e-06
-6.39113e-06
-2.07884e-06
3.38926e-06
1.00324e-05
1.78651e-05
2.68988e-05
3.71418e-05
4.86003e-05
6.12782e-05
7.51772e-05
9.0296e-05
0.000106634
0.00012419
0.000142963
0.000162947
0.00018414
0.000206538
0.000230136
0.000254929
0.000280913
0.000308085
0.000336443
0.000365979
0.000396688
0.000428564
0.000461606
0.000495808
0.000531166
0.000567674
0.000605325
0.000644112
0.00068403
0.000725073
0.000767231
0.000810498
0.000854864
0.000900319
0.000946854
0.000994457
0.00104312
0.00109282
0.00114354
0.00119528
0.00124802
0.00130173
0.0013564
0.00141201
0.00146854
0.00152596
0.00158425
0.00164338
0.00170332
0.00176404
0.00182552
0.00188772
0.0019506
0.00201414
0.00207829
0.002143
0.00220825
0.00227398
0.00234015
0.00240672
0.00247363
0.00254084
0.00260829
0.00267593
0.00274371
0.00281156
0.00287943
0.00294726
0.00301499
0.00308255
0.00314988
0.00321692
0.0032836
0.00334986
0.00341562
0.00348082
0.00354539
0.00360927
0.00367238
0.00373467
0.00379605
0.00385646
0.00391584
0.00397413
0.00403125
0.00408714
0.00414175
0.00419501
0.00424687
0.00429727
0.00434616
0.00439348
0.0044392
0.00448326
0.00452563
0.00456626
0.00460513
0.00464221
0.00467746
0.00471087
0.00474242
0.0047721
0.00479989
0.00482579
0.0048498
0.00487193
0.00489218
0.00491058
0.00492714
0.00494188
0.00495483
0.00496604
0.00497553
0.00498336
0.00498957
0.00499422
0.00499737
0.00499909
0.00499944
0.00499851
0.00499637
0.00499311
0.00498883
0.00498361
0.00497756
0.00497079
0.00496341
0.00495552
0.00494726
0.00493873
0.00493007
0.0049214
0.00491284
0.00490452
0.00489655
0.00488906
0.00488215
0.00487593
0.0048705
0.00486571
0.00486131
5.35967e-05
4.36003e-05
3.54153e-05
2.82846e-05
2.15581e-05
1.53343e-05
9.71602e-06
4.755e-06
5.06942e-07
-2.96325e-06
-5.59203e-06
-7.32359e-06
-8.1083e-06
-7.90009e-06
-6.65784e-06
-4.3458e-06
-9.32983e-07
3.60594e-06
9.29048e-06
1.61361e-05
2.41564e-05
3.33631e-05
4.37643e-05
5.5365e-05
6.81679e-05
8.21738e-05
9.73829e-05
0.000113796
0.000131413
0.000150233
0.00017025
0.000191461
0.000213864
0.000237456
0.000262232
0.000288191
0.000315329
0.000343641
0.000373123
0.00040377
0.000435578
0.000468545
0.000502666
0.000537936
0.00057435
0.000611901
0.000650582
0.00069039
0.000731316
0.000773355
0.000816497
0.000860732
0.000906053
0.000952449
0.000999908
0.00104842
0.00109797
0.00114854
0.00120012
0.00125269
0.00130624
0.00136074
0.00141617
0.00147252
0.00152976
0.00158786
0.0016468
0.00170655
0.00176708
0.00182836
0.00189036
0.00195304
0.00201637
0.00208031
0.00214481
0.00220985
0.00227536
0.00234132
0.00240767
0.00247436
0.00254135
0.00260858
0.002676
0.00274355
0.00281117
0.00287882
0.00294642
0.00301392
0.00308125
0.00314835
0.00321515
0.0032816
0.00334762
0.00341315
0.00347811
0.00354245
0.00360609
0.00366896
0.003731
0.00379214
0.00385231
0.00391145
0.00396949
0.00402637
0.00408202
0.00413638
0.0041894
0.00424102
0.00429117
0.00433982
0.0043869
0.00443238
0.0044762
0.00451833
0.00455874
0.00459738
0.00463424
0.00466927
0.00470247
0.00473382
0.00476329
0.00479089
0.00481661
0.00484045
0.00486242
0.00488252
0.00490078
0.00491721
0.00493183
0.00494469
0.00495581
0.00496523
0.00497301
0.00497919
0.00498383
0.00498698
0.00498872
0.00498912
0.00498825
0.0049862
0.00498304
0.00497888
0.0049738
0.0049679
0.00496129
0.00495408
0.00494636
0.00493826
0.00492989
0.00492135
0.00491277
0.00490425
0.0048959
0.00488784
0.00488013
0.00487289
0.00486619
0.00486012
0.0048544
0.00484864
6.18025e-05
5.0266e-05
4.09895e-05
3.30829e-05
2.57542e-05
1.90807e-05
1.31539e-05
8.00555e-06
3.66838e-06
1.86963e-07
-2.39107e-06
-4.02252e-06
-4.66983e-06
-4.29886e-06
-2.87787e-06
-3.77402e-07
3.22789e-06
7.95806e-06
1.38289e-05
2.0853e-05
2.90415e-05
3.84046e-05
4.89495e-05
6.068e-05
7.3598e-05
8.77045e-05
0.000103
0.000119486
0.000137162
0.000156027
0.000176076
0.000197308
0.000219719
0.000243308
0.000268072
0.000294009
0.000321115
0.000349388
0.000378822
0.000409414
0.000441159
0.000474058
0.000508105
0.000543295
0.000579623
0.000617082
0.000655667
0.000695373
0.000736194
0.000778123
0.000821152
0.00086527
0.000910469
0.00095674
0.00100407
0.00105245
0.00110186
0.0011523
0.00120374
0.00125616
0.00130956
0.00136392
0.0014192
0.0014754
0.00153248
0.00159042
0.0016492
0.00170879
0.00176916
0.00183027
0.00189211
0.00195462
0.00201778
0.00208155
0.00214589
0.00221076
0.00227611
0.00234189
0.00240807
0.00247459
0.00254141
0.00260847
0.00267572
0.0027431
0.00281055
0.00287802
0.00294545
0.00301278
0.00307994
0.00314687
0.0032135
0.00327978
0.00334562
0.00341097
0.00347576
0.00353992
0.00360338
0.00366608
0.00372794
0.00378889
0.00384888
0.00390784
0.00396569
0.00402238
0.00407784
0.00413201
0.00418483
0.00423624
0.0042862
0.00433465
0.00438153
0.0044268
0.00447043
0.00451236
0.00455256
0.00459101
0.00462766
0.0046625
0.0046955
0.00472665
0.00475594
0.00478335
0.00480889
0.00483255
0.00485435
0.00487429
0.00489239
0.00490867
0.00492316
0.00493589
0.00494689
0.00495622
0.0049639
0.00497
0.00497458
0.00497769
0.0049794
0.00497978
0.00497892
0.00497688
0.00497376
0.00496964
0.00496462
0.0049588
0.00495227
0.00494513
0.0049375
0.00492947
0.00492115
0.00491264
0.00490405
0.00489548
0.00488702
0.00487876
0.00487077
0.00486312
0.0048559
0.00484916
0.00484251
0.00483543
6.91688e-05
5.61776e-05
4.58428e-05
3.71546e-05
2.92024e-05
2.2047e-05
1.57646e-05
1.03728e-05
5.89005e-06
2.34182e-06
-2.41459e-07
-1.82863e-06
-2.39217e-06
-1.90745e-06
-3.50698e-07
2.29988e-06
6.06227e-06
1.09512e-05
1.69795e-05
2.41579e-05
3.2495e-05
4.19981e-05
5.26722e-05
6.45195e-05
7.75422e-05
9.17418e-05
0.000107119
0.000123674
0.000141406
0.000160314
0.000180395
0.000201647
0.000224068
0.000247657
0.000272412
0.00029833
0.00032541
0.000353647
0.000383038
0.00041358
0.00044527
0.000478107
0.000512086
0.000547204
0.000583453
0.00062083
0.000659328
0.000698943
0.000739669
0.000781499
0.000824425
0.000868439
0.00091353
0.000959689
0.00100691
0.00105517
0.00110447
0.00115478
0.0012061
0.0012584
0.00131168
0.00136591
0.00142106
0.00147713
0.00153408
0.0015919
0.00165055
0.00171001
0.00177024
0.00183123
0.00189293
0.00195532
0.00201835
0.002082
0.00214621
0.00221095
0.00227617
0.00234184
0.00240789
0.00247429
0.00254099
0.00260793
0.00267506
0.00274232
0.00280967
0.00287702
0.00294434
0.00301155
0.0030786
0.00314541
0.00321193
0.00327809
0.00334383
0.00340906
0.00347374
0.00353778
0.00360112
0.0036637
0.00372544
0.00378627
0.00384613
0.00390495
0.00396267
0.00401922
0.00407454
0.00412857
0.00418124
0.00423251
0.00428231
0.0043306
0.00437732
0.00442243
0.00446588
0.00450764
0.00454767
0.00458593
0.00462241
0.00465707
0.00468989
0.00472085
0.00474996
0.00477719
0.00480254
0.00482603
0.00484765
0.00486741
0.00488534
0.00490146
0.00491578
0.00492836
0.00493922
0.0049484
0.00495596
0.00496194
0.00496641
0.00496942
0.00497105
0.00497136
0.00497044
0.00496836
0.00496521
0.00496107
0.00495604
0.00495021
0.00494368
0.00493655
0.00492891
0.00492087
0.00491252
0.00490397
0.00489529
0.00488659
0.00487794
0.00486942
0.00486108
0.00485299
0.00484521
0.0048378
0.00483024
0.00482191
7.54904e-05
6.11372e-05
4.97909e-05
4.03319e-05
3.17483e-05
2.40919e-05
1.74251e-05
1.17517e-05
7.07904e-06
3.41852e-06
7.84986e-07
-8.03137e-07
-1.32737e-06
-7.70509e-07
8.83383e-07
3.6481e-06
7.53492e-06
1.25537e-05
1.8714e-05
2.60237e-05
3.44893e-05
4.41152e-05
5.49035e-05
6.68554e-05
7.99729e-05
9.42576e-05
0.000109709
0.000126328
0.000144113
0.000163062
0.000183173
0.000204445
0.000226877
0.000250469
0.000275217
0.00030112
0.000328175
0.000356381
0.000385734
0.000416232
0.000447873
0.000480654
0.000514573
0.000549624
0.000585804
0.000623106
0.000661526
0.000701059
0.000741701
0.000783444
0.00082628
0.000870201
0.000915198
0.000961261
0.00100838
0.00105654
0.00110574
0.00115595
0.00120717
0.00125937
0.00131254
0.00136667
0.00142172
0.00147769
0.00153454
0.00159225
0.0016508
0.00171016
0.0017703
0.0018312
0.00189281
0.0019551
0.00201805
0.0020816
0.00214573
0.00221039
0.00227553
0.00234112
0.00240711
0.00247344
0.00254006
0.00260694
0.002674
0.0027412
0.00280848
0.00287578
0.00294304
0.0030102
0.00307719
0.00314395
0.00321042
0.00327653
0.00334221
0.00340739
0.00347201
0.00353599
0.00359927
0.00366179
0.00372346
0.00378422
0.00384401
0.00390276
0.0039604
0.00401686
0.00407209
0.00412602
0.0041786
0.00422975
0.00427944
0.00432761
0.00437421
0.00441919
0.0044625
0.00450412
0.004544
0.00458211
0.00461843
0.00465292
0.00468557
0.00471636
0.00474529
0.00477234
0.00479751
0.00482081
0.00484224
0.00486182
0.00487956
0.00489549
0.00490963
0.00492202
0.0049327
0.00494171
0.0049491
0.00495492
0.00495924
0.00496211
0.00496361
0.0049638
0.00496276
0.00496058
0.00495733
0.00495311
0.00494801
0.00494211
0.00493552
0.00492831
0.0049206
0.00491248
0.00490403
0.00489535
0.00488652
0.00487762
0.00486872
0.00485989
0.00485117
0.00484261
0.00483426
0.00482618
0.00481776
0.00480826
8.06015e-05
6.49747e-05
5.26706e-05
4.24647e-05
3.32518e-05
2.50854e-05
1.80194e-05
1.20406e-05
7.14521e-06
3.33592e-06
6.15174e-07
-1.01056e-06
-1.5311e-06
-9.36879e-07
7.79949e-07
3.62606e-06
7.60756e-06
1.273e-05
1.8999e-05
2.64194e-05
3.49943e-05
4.47253e-05
5.56128e-05
6.76571e-05
8.08596e-05
9.52211e-05
0.000110741
0.000127417
0.00014525
0.000164238
0.000184378
0.000205669
0.000228112
0.000251707
0.000276451
0.00030234
0.000329375
0.000357553
0.000386873
0.000417332
0.000448929
0.000481661
0.000515526
0.000550519
0.000586636
0.000623872
0.000662223
0.000701685
0.000742253
0.00078392
0.000826679
0.00087052
0.000915435
0.000961416
0.00100845
0.00105653
0.00110565
0.00115578
0.00120691
0.00125903
0.00131212
0.00136617
0.00142115
0.00147704
0.00153381
0.00159146
0.00164994
0.00170923
0.00176931
0.00183014
0.0018917
0.00195394
0.00201684
0.00208035
0.00214443
0.00220905
0.00227417
0.00233972
0.00240568
0.00247199
0.0025386
0.00260546
0.00267251
0.00273971
0.00280698
0.00287428
0.00294154
0.0030087
0.00307569
0.00314246
0.00320893
0.00327504
0.00334072
0.00340591
0.00347053
0.00353452
0.0035978
0.00366031
0.00372197
0.00378273
0.0038425
0.00390122
0.00395883
0.00401526
0.00407045
0.00412433
0.00417685
0.00422794
0.00427756
0.00432565
0.00437216
0.00441704
0.00446025
0.00450175
0.00454151
0.00457949
0.00461566
0.00465
0.00468249
0.00471312
0.00474187
0.00476874
0.00479373
0.00481683
0.00483806
0.00485744
0.00487497
0.00489069
0.00490463
0.00491681
0.00492728
0.00493608
0.00494327
0.00494889
0.00495302
0.0049557
0.00495701
0.00495703
0.00495583
0.00495349
0.0049501
0.00494573
0.00494049
0.00493446
0.00492774
0.0049204
0.00491256
0.00490428
0.00489567
0.0048868
0.00487776
0.00486861
0.00485942
0.00485024
0.00484111
0.00483206
0.00482315
0.00481442
0.00480519
0.00479464
8.43659e-05
6.75464e-05
5.4338e-05
4.34158e-05
3.3587e-05
2.49107e-05
1.74379e-05
1.11398e-05
6.00035e-06
2.01452e-06
-8.22958e-07
-2.51531e-06
-3.06128e-06
-2.45948e-06
-7.09318e-07
2.19002e-06
6.24004e-06
1.14424e-05
1.77987e-05
2.53101e-05
3.39759e-05
4.37955e-05
5.4768e-05
6.68929e-05
8.01702e-05
9.45999e-05
0.00011018
0.000126908
0.000144785
0.000163807
0.000183973
0.000205284
0.000227739
0.000251337
0.000276077
0.000301955
0.000328972
0.000357127
0.000386418
0.000416843
0.000448401
0.00048109
0.000514907
0.000549849
0.000585912
0.00062309
0.000661381
0.000700782
0.000741286
0.000782889
0.000825582
0.000869356
0.000914205
0.000960118
0.00100709
0.0010551
0.00110415
0.00115422
0.00120529
0.00125735
0.00131038
0.00136437
0.0014193
0.00147514
0.00153187
0.00158947
0.00164792
0.00170718
0.00176723
0.00182804
0.00188957
0.0019518
0.00201469
0.0020782
0.00214228
0.00220691
0.00227203
0.00233761
0.00240359
0.00246993
0.00253657
0.00260347
0.00267056
0.0027378
0.00280513
0.00287248
0.00293979
0.00300701
0.00307406
0.00314089
0.00320743
0.0032736
0.00333935
0.0034046
0.00346928
0.00353333
0.00359667
0.00365923
0.00372094
0.00378174
0.00384155
0.0039003
0.00395794
0.00401438
0.00406958
0.00412346
0.00417596
0.00422704
0.00427662
0.00432467
0.00437112
0.00441594
0.00445908
0.00450049
0.00454014
0.00457801
0.00461406
0.00464826
0.00468061
0.00471107
0.00473965
0.00476634
0.00479113
0.00481404
0.00483506
0.00485422
0.00487153
0.00488702
0.00490072
0.00491266
0.00492289
0.00493145
0.0049384
0.00494378
0.00494767
0.00495012
0.00495121
0.004951
0.00494959
0.00494704
0.00494344
0.00493889
0.00493345
0.00492723
0.00492032
0.0049128
0.00490475
0.00489628
0.00488745
0.00487834
0.00486904
0.00485959
0.00485007
0.00484052
0.00483096
0.00482142
0.00481196
0.00480262
0.00479265
0.00478113
8.66676e-05
6.87295e-05
5.46658e-05
4.3063e-05
3.26414e-05
2.34623e-05
1.55796e-05
8.95442e-06
3.55798e-06
-6.23029e-07
-3.59909e-06
-5.38091e-06
-5.97694e-06
-5.39327e-06
-3.63492e-06
-7.06155e-07
3.39003e-06
8.65131e-06
1.50752e-05
2.26586e-05
3.13981e-05
4.12911e-05
5.23357e-05
6.45297e-05
7.78718e-05
9.23606e-05
0.000107993
0.000124767
0.000142682
0.000161735
0.000181926
0.000203254
0.00022572
0.000249323
0.000274059
0.000299928
0.00032693
0.000355065
0.000384332
0.000414727
0.000446252
0.000478903
0.000512679
0.000547577
0.000583593
0.000620722
0.000658963
0.000698312
0.000738764
0.000780313
0.000822952
0.000866673
0.000911469
0.00095733
0.00100425
0.00105222
0.00110122
0.00115124
0.00120227
0.00125429
0.00130729
0.00136125
0.00141615
0.00147197
0.00152868
0.00158627
0.00164471
0.00170397
0.00176403
0.00182485
0.0018864
0.00194866
0.00201157
0.00207512
0.00213925
0.00220393
0.00226911
0.00233475
0.0024008
0.00246722
0.00253395
0.00260093
0.00266812
0.00273546
0.00280289
0.00287035
0.00293778
0.00300511
0.00307229
0.00313924
0.00320589
0.00327219
0.00333806
0.00340343
0.00346824
0.0035324
0.00359585
0.00365852
0.00372034
0.00378123
0.00384113
0.00389997
0.00395768
0.00401419
0.00406944
0.00412337
0.00417591
0.004227
0.00427659
0.00432463
0.00437107
0.00441585
0.00445894
0.00450029
0.00453986
0.00457764
0.00461357
0.00464766
0.00467986
0.00471017
0.00473858
0.00476508
0.00478968
0.00481237
0.00483317
0.00485209
0.00486916
0.0048844
0.00489784
0.00490951
0.00491947
0.00492776
0.00493443
0.00493953
0.00494314
0.00494532
0.00494613
0.00494566
0.00494399
0.00494118
0.00493733
0.00493253
0.00492685
0.00492039
0.00491323
0.00490547
0.00489718
0.00488845
0.00487936
0.00486997
0.00486036
0.00485059
0.00484071
0.00483077
0.00482078
0.00481076
0.00480076
0.00479085
0.00478019
0.00476783
8.74035e-05
6.84175e-05
5.35464e-05
4.12984e-05
3.03104e-05
2.06424e-05
1.23521e-05
5.39604e-06
-2.64377e-07
-4.6512e-06
-7.78124e-06
-9.67143e-06
-1.03378e-05
-9.79316e-06
-8.04756e-06
-5.10952e-06
-9.86331e-07
4.31527e-06
1.07884e-05
1.84265e-05
2.72238e-05
3.71764e-05
4.82807e-05
6.05328e-05
7.39299e-05
8.84691e-05
0.000104147
0.00012096
0.000138908
0.000157989
0.000178202
0.000199546
0.000222022
0.000245628
0.000270362
0.000296224
0.000323214
0.000351332
0.000380577
0.000410948
0.000442444
0.000475063
0.000508805
0.000543665
0.000579641
0.000616731
0.00065493
0.000694237
0.000734647
0.000776155
0.000818753
0.000862434
0.00090719
0.000953015
0.0009999
0.00104783
0.00109681
0.00114681
0.00119781
0.00124982
0.00130281
0.00135676
0.00141166
0.00146748
0.00152421
0.00158182
0.00164029
0.00169958
0.00175968
0.00182055
0.00188216
0.00194447
0.00200747
0.00207109
0.00213531
0.00220009
0.00226537
0.00233112
0.0023973
0.00246384
0.0025307
0.00259783
0.00266517
0.00273266
0.00280025
0.00286788
0.00293548
0.00300298
0.00307033
0.00313746
0.0032043
0.00327078
0.00333683
0.00340238
0.00346736
0.0035317
0.00359532
0.00365816
0.00372013
0.00378118
0.00384123
0.0039002
0.00395803
0.00401466
0.00407001
0.00412403
0.00417664
0.0042278
0.00427744
0.00432551
0.00437196
0.00441674
0.0044598
0.00450111
0.00454063
0.00457833
0.00461417
0.00464814
0.00468021
0.00471037
0.00473861
0.00476492
0.00478931
0.00481178
0.00483234
0.00485101
0.00486782
0.00488278
0.00489593
0.00490731
0.00491696
0.00492494
0.0049313
0.00493609
0.00493938
0.00494124
0.00494174
0.00494096
0.00493898
0.00493587
0.00493172
0.00492662
0.00492065
0.0049139
0.00490645
0.0048984
0.00488982
0.00488079
0.00487139
0.00486168
0.00485174
0.00484162
0.00483136
0.00482101
0.00481059
0.0048001
0.0047896
0.00477916
0.00476788
0.00475477
8.64798e-05
6.65184e-05
5.08875e-05
3.80255e-05
2.64977e-05
1.636e-05
7.6704e-06
3.83896e-07
-5.54315e-06
-1.01417e-05
-1.34366e-05
-1.54502e-05
-1.62031e-05
-1.57139e-05
-1.39977e-05
-1.10671e-05
-6.9338e-06
-1.60916e-06
4.89651e-06
1.2574e-05
2.14154e-05
3.14151e-05
4.25674e-05
5.48669e-05
6.83094e-05
8.28905e-05
9.86057e-05
0.000115452
0.000133429
0.000152534