/*--------------------------------*- C++ -*----------------------------------*\
  =========                 |
  \\      /  F ield         | OpenFOAM: The Open Source CFD Toolbox
   \\    /   O peration     | Website:  https://openfoam.org
    \\  /    A nd           | Version:  7
     \\/     M anipulation  |
\*---------------------------------------------------------------------------*/
FoamFile
{
    version     2.0;
    format      ascii;
    class       surfaceScalarField;
    location    "0.325";
    object      phi;
}
// * * * * * * * * * * * * * * * * * * * * * * * * * * * * * * * * * * * * * //

dimensions      [0 3 -1 0 0 0 0];

internalField   nonuniform List<scalar> 
50880
(
1.29481e-11
-1.30179e-11
3.15387e-11
-1.85921e-11
4.24951e-11
-1.09535e-11
3.92311e-11
3.26434e-12
1.93497e-11
1.98809e-11
-1.75896e-11
3.69388e-11
-7.10641e-11
5.34732e-11
-1.40065e-10
6.90008e-11
-2.2336e-10
8.32947e-11
-3.19645e-10
9.62862e-11
-4.27635e-10
1.07991e-10
-5.46095e-10
1.18459e-10
-6.73856e-10
1.27761e-10
-8.09833e-10
1.35977e-10
-9.5303e-10
1.43196e-10
-1.10253e-09
1.49504e-10
-1.25751e-09
1.54977e-10
-1.4172e-09
1.59688e-10
-1.58091e-09
1.63712e-10
-1.74803e-09
1.67121e-10
-1.91801e-09
1.69983e-10
-2.09036e-09
1.72351e-10
-2.26463e-09
1.74272e-10
-2.44043e-09
1.75793e-10
-2.61739e-09
1.76964e-10
-2.79522e-09
1.77825e-10
-2.97363e-09
1.78414e-10
-3.15239e-09
1.78759e-10
-3.33127e-09
1.78884e-10
-3.51009e-09
1.78815e-10
-3.68867e-09
1.78578e-10
-3.86686e-09
1.78193e-10
-4.04453e-09
1.77675e-10
-4.22157e-09
1.77036e-10
-4.39786e-09
1.76287e-10
-4.5733e-09
1.75439e-10
-4.7478e-09
1.74501e-10
-4.92128e-09
1.73479e-10
-5.09365e-09
1.72378e-10
-5.26486e-09
1.71202e-10
-5.43481e-09
1.6995e-10
-5.60343e-09
1.68623e-10
-5.77065e-09
1.67223e-10
-5.9364e-09
1.65751e-10
-6.10061e-09
1.64206e-10
-6.26319e-09
1.62584e-10
-6.42408e-09
1.60883e-10
-6.58317e-09
1.59098e-10
-6.7404e-09
1.57227e-10
-6.89567e-09
1.55267e-10
-7.04888e-09
1.53215e-10
-7.19995e-09
1.51068e-10
-7.34878e-09
1.48823e-10
-7.49525e-09
1.46473e-10
-7.63926e-09
1.44014e-10
-7.7807e-09
1.41439e-10
-7.91945e-09
1.38747e-10
-8.05539e-09
1.35936e-10
-8.18839e-09
1.33004e-10
-8.31833e-09
1.29944e-10
-8.44508e-09
1.26751e-10
-8.56851e-09
1.23422e-10
-8.68846e-09
1.19952e-10
-8.8048e-09
1.16341e-10
-8.91739e-09
1.12585e-10
-9.02607e-09
1.08683e-10
-9.1307e-09
1.04631e-10
-9.23113e-09
1.00427e-10
-9.3272e-09
9.60694e-11
-9.41875e-09
9.1556e-11
-9.50564e-09
8.6886e-11
-9.5877e-09
8.20586e-11
-9.66477e-09
7.70738e-11
-9.7367e-09
7.19321e-11
-9.80334e-09
6.66336e-11
-9.86452e-09
6.11789e-11
-9.92009e-09
5.55694e-11
-9.96989e-09
4.98071e-11
-1.00138e-08
4.38948e-11
-1.00516e-08
3.78358e-11
-1.00833e-08
3.16333e-11
-1.01085e-08
2.52906e-11
-1.01274e-08
1.88121e-11
-1.01396e-08
1.22033e-11
-1.0145e-08
5.4709e-12
-1.01437e-08
-1.37854e-12
-1.01353e-08
-8.33849e-12
-1.01199e-08
-1.54019e-11
-1.00974e-08
-2.25605e-11
-1.00676e-08
-2.98048e-11
-1.00304e-08
-3.71248e-11
-9.98592e-09
-4.45104e-11
-9.93396e-09
-5.19515e-11
-9.87453e-09
-5.94371e-11
-9.80757e-09
-6.69556e-11
-9.73308e-09
-7.44946e-11
-9.65104e-09
-8.20409e-11
-9.56146e-09
-8.95808e-11
-9.46436e-09
-9.71003e-11
-9.35977e-09
-1.04585e-10
-9.24775e-09
-1.12022e-10
-9.12835e-09
-1.19395e-10
-9.00166e-09
-1.2669e-10
-8.86777e-09
-1.3389e-10
-8.7268e-09
-1.40977e-10
-8.57886e-09
-1.47937e-10
-8.4241e-09
-1.54754e-10
-8.26269e-09
-1.61412e-10
-8.0948e-09
-1.67893e-10
-7.92062e-09
-1.74181e-10
-7.74036e-09
-1.80257e-10
-7.55425e-09
-1.86107e-10
-7.36254e-09
-1.91712e-10
-7.16549e-09
-1.97057e-10
-6.96336e-09
-2.02122e-10
-6.75647e-09
-2.06893e-10
-6.54512e-09
-2.11354e-10
-6.32963e-09
-2.15487e-10
-6.11035e-09
-2.19275e-10
-5.88766e-09
-2.22701e-10
-5.66191e-09
-2.25748e-10
-5.43351e-09
-2.28402e-10
-5.20286e-09
-2.30647e-10
-4.97039e-09
-2.32469e-10
-4.73654e-09
-2.33848e-10
-4.50177e-09
-2.34768e-10
-4.26656e-09
-2.35214e-10
-4.03139e-09
-2.35171e-10
-3.79676e-09
-2.34625e-10
-3.5632e-09
-2.33558e-10
-3.33125e-09
-2.31955e-10
-3.10145e-09
-2.29798e-10
-2.87438e-09
-2.27072e-10
-2.65062e-09
-2.23762e-10
-2.43077e-09
-2.19852e-10
-2.21544e-09
-2.15326e-10
-2.00527e-09
-2.10167e-10
-1.80092e-09
-2.04357e-10
-1.60303e-09
-1.97881e-10
-1.41231e-09
-1.90722e-10
-1.22944e-09
-1.82866e-10
-1.05515e-09
-1.74297e-10
-8.90151e-10
-1.64998e-10
-7.35194e-10
-1.54957e-10
-5.9103e-10
-1.44164e-10
-4.58418e-10
-1.32612e-10
-3.38119e-10
-1.20299e-10
-2.30883e-10
-1.07236e-10
-1.3744e-10
-9.34429e-11
-5.84768e-11
-7.89623e-11
5.39302e-12
-6.38677e-11
5.36932e-11
-4.8298e-11
8.61139e-11
-3.24193e-11
1.02685e-10
-1.65703e-11
1.03967e-10
-1.28186e-12
9.13543e-11
1.26131e-11
6.76456e-11
2.37091e-11
3.793e-11
2.97159e-11
1.11188e-11
2.68108e-11
1.11176e-11
1.88853e-11
-3.19042e-11
3.62079e-11
-3.591e-11
3.1169e-11
-5.91821e-12
-7.71811e-12
4.21542e-11
-8.64308e-11
9.85925e-11
-2.07101e-10
1.5761e-10
-3.69459e-10
2.15833e-10
-5.71846e-10
2.71389e-10
-8.11828e-10
3.23276e-10
-1.08657e-09
3.71025e-10
-1.39307e-09
4.14494e-10
-1.72834e-09
4.53734e-10
-2.08947e-09
4.88893e-10
-2.47368e-09
5.20184e-10
-2.87835e-09
5.47866e-10
-3.30105e-09
5.72204e-10
-3.73953e-09
5.93458e-10
-4.19173e-09
6.11888e-10
-4.65576e-09
6.27745e-10
-5.12991e-09
6.4127e-10
-5.61262e-09
6.52692e-10
-6.10248e-09
6.62216e-10
-6.59824e-09
6.70026e-10
-7.09874e-09
6.763e-10
-7.60298e-09
6.81204e-10
-8.11005e-09
6.84888e-10
-8.61912e-09
6.87485e-10
-9.12947e-09
6.89113e-10
-9.64046e-09
6.89875e-10
-1.01515e-08
6.89866e-10
-1.06621e-08
6.89175e-10
-1.11718e-08
6.87874e-10
-1.16801e-08
6.86028e-10
-1.21868e-08
6.83689e-10
-1.26914e-08
6.80905e-10
-1.31937e-08
6.77712e-10
-1.36933e-08
6.74144e-10
-1.41901e-08
6.70228e-10
-1.46837e-08
6.65985e-10
-1.51739e-08
6.61427e-10
-1.56605e-08
6.56563e-10
-1.61433e-08
6.51398e-10
-1.6622e-08
6.45937e-10
-1.70964e-08
6.4018e-10
-1.75664e-08
6.34125e-10
-1.80315e-08
6.27763e-10
-1.84917e-08
6.21087e-10
-1.89467e-08
6.14085e-10
-1.93962e-08
6.06747e-10
-1.984e-08
5.99062e-10
-2.02778e-08
5.91018e-10
-2.07094e-08
5.826e-10
-2.11343e-08
5.73796e-10
-2.15525e-08
5.64589e-10
-2.19634e-08
5.54964e-10
-2.23669e-08
5.44906e-10
-2.27625e-08
5.34399e-10
-2.315e-08
5.23431e-10
-2.3529e-08
5.11988e-10
-2.38991e-08
5.00057e-10
-2.426e-08
4.87624e-10
-2.46113e-08
4.74674e-10
-2.49525e-08
4.61195e-10
-2.52833e-08
4.47174e-10
-2.56033e-08
4.32605e-10
-2.59121e-08
4.17476e-10
-2.62093e-08
4.0178e-10
-2.64944e-08
3.85509e-10
-2.6767e-08
3.68656e-10
-2.70266e-08
3.51214e-10
-2.72729e-08
3.33182e-10
-2.75054e-08
3.14555e-10
-2.77237e-08
2.95333e-10
-2.79273e-08
2.75519e-10
-2.81157e-08
2.55113e-10
-2.82887e-08
2.34119e-10
-2.84457e-08
2.12543e-10
-2.85862e-08
1.90392e-10
-2.871e-08
1.67677e-10
-2.88166e-08
1.44408e-10
-2.89056e-08
1.20599e-10
-2.89765e-08
9.62663e-11
-2.90292e-08
7.1426e-11
-2.9063e-08
4.60986e-11
-2.90779e-08
2.03066e-11
-2.90733e-08
-5.92516e-12
-2.90491e-08
-3.25701e-11
-2.90049e-08
-5.95996e-11
-2.89405e-08
-8.69824e-11
-2.88556e-08
-1.14685e-10
-2.87501e-08
-1.42671e-10
-2.86237e-08
-1.70903e-10
-2.84763e-08
-1.9934e-10
-2.83078e-08
-2.2794e-10
-2.81181e-08
-2.56659e-10
-2.79071e-08
-2.85451e-10
-2.76749e-08
-3.14268e-10
-2.74214e-08
-3.43059e-10
-2.71467e-08
-3.71771e-10
-2.6851e-08
-4.00351e-10
-2.65342e-08
-4.28744e-10
-2.61967e-08
-4.56896e-10
-2.58387e-08
-4.84748e-10
-2.54603e-08
-5.12241e-10
-2.5062e-08
-5.39313e-10
-2.4644e-08
-5.65903e-10
-2.42068e-08
-5.91951e-10
-2.37509e-08
-6.17396e-10
-2.32766e-08
-6.42175e-10
-2.27845e-08
-6.66223e-10
-2.22753e-08
-6.89476e-10
-2.17495e-08
-7.1187e-10
-2.12079e-08
-7.33342e-10
-2.06511e-08
-7.53829e-10
-2.008e-08
-7.73266e-10
-1.94953e-08
-7.91589e-10
-1.88979e-08
-8.08733e-10
-1.82888e-08
-8.24637e-10
-1.76688e-08
-8.39237e-10
-1.7039e-08
-8.5247e-10
-1.64005e-08
-8.64272e-10
-1.57543e-08
-8.74582e-10
-1.51016e-08
-8.83337e-10
-1.44436e-08
-8.90478e-10
-1.37815e-08
-8.95941e-10
-1.31166e-08
-8.99664e-10
-1.24503e-08
-9.01587e-10
-1.17838e-08
-9.01648e-10
-1.11186e-08
-8.99786e-10
-1.04563e-08
-8.95941e-10
-9.79815e-09
-8.90052e-10
-9.14589e-09
-8.82057e-10
-8.50107e-09
-8.71895e-10
-7.86533e-09
-8.59504e-10
-7.24035e-09
-8.44824e-10
-6.62788e-09
-8.27795e-10
-6.02969e-09
-8.08357e-10
-5.4476e-09
-7.86448e-10
-4.88347e-09
-7.6201e-10
-4.33921e-09
-7.34987e-10
-3.81675e-09
-7.05326e-10
-3.31807e-09
-6.72977e-10
-2.84517e-09
-6.37898e-10
-2.40007e-09
-6.00058e-10
-1.9848e-09
-5.59439e-10
-1.60137e-09
-5.16044e-10
-1.25177e-09
-4.69907e-10
-9.37896e-10
-4.21105e-10
-6.61557e-10
-3.6978e-10
-4.24356e-10
-3.16162e-10
-2.27607e-10
-2.60615e-10
-7.22113e-11
-2.03692e-10
4.1597e-11
-1.46227e-10
1.14512e-10
-8.94849e-11
1.48595e-10
-3.53642e-11
1.47924e-10
1.32843e-11
1.19395e-10
5.22372e-11
7.38016e-11
7.53079e-11
2.67565e-11
7.38542e-11
3.78731e-11
1.09937e-11
-4.28951e-11
6.08454e-12
-3.10023e-11
-3.67239e-11
3.68914e-11
-1.30473e-10
1.35904e-10
-2.82459e-10
2.50579e-10
-4.95715e-10
3.70867e-10
-7.7034e-10
4.90458e-10
-1.1045e-09
6.05552e-10
-1.49517e-09
7.13949e-10
-1.93863e-09
8.14476e-10
-2.43077e-09
9.06633e-10
-2.96737e-09
9.90343e-10
-3.54426e-09
1.06578e-09
-4.15736e-09
1.13329e-09
-4.8028e-09
1.1933e-09
-5.47691e-09
1.24632e-09
-6.17629e-09
1.29283e-09
-6.89775e-09
1.33335e-09
-7.63839e-09
1.36839e-09
-8.39553e-09
1.39841e-09
-9.16674e-09
1.4239e-09
-9.94978e-09
1.44525e-09
-1.07426e-08
1.46289e-09
-1.15435e-08
1.47717e-09
-1.23508e-08
1.48845e-09
-1.31629e-08
1.49702e-09
-1.39786e-08
1.50318e-09
-1.47967e-08
1.50719e-09
-1.56161e-08
1.50927e-09
-1.64358e-08
1.50962e-09
-1.72551e-08
1.50843e-09
-1.80731e-08
1.50587e-09
-1.88891e-08
1.50206e-09
-1.97026e-08
1.49714e-09
-2.05128e-08
1.4912e-09
-2.13195e-08
1.48432e-09
-2.21219e-08
1.47659e-09
-2.29197e-08
1.46806e-09
-2.37125e-08
1.45878e-09
-2.44999e-08
1.44877e-09
-2.52814e-08
1.43807e-09
-2.60567e-08
1.42669e-09
-2.68254e-08
1.41463e-09
-2.75871e-08
1.40191e-09
-2.83415e-08
1.3885e-09
-2.90881e-08
1.37441e-09
-2.98267e-08
1.35962e-09
-3.05567e-08
1.34411e-09
-3.12778e-08
1.32785e-09
-3.19895e-08
1.31083e-09
-3.26915e-08
1.29301e-09
-3.33833e-08
1.27437e-09
-3.40644e-08
1.25487e-09
-3.47343e-08
1.2345e-09
-3.53925e-08
1.21321e-09
-3.60386e-08
1.19098e-09
-3.6672e-08
1.16777e-09
-3.72921e-08
1.14356e-09
-3.78984e-08
1.11831e-09
-3.84904e-08
1.092e-09
-3.90673e-08
1.0646e-09
-3.96287e-08
1.03608e-09
-4.0174e-08
1.00641e-09
-4.07024e-08
9.7558e-10
-4.12133e-08
9.43557e-10
-4.17062e-08
9.10324e-10
-4.21803e-08
8.75865e-10
-4.26349e-08
8.40162e-10
-4.30695e-08
8.03205e-10
-4.34832e-08
7.6498e-10
-4.38755e-08
7.25481e-10
-4.42457e-08
6.84703e-10
-4.4593e-08
6.42645e-10
-4.49168e-08
5.9931e-10
-4.52164e-08
5.54703e-10
-4.54911e-08
5.08832e-10
-4.57402e-08
4.6171e-10
-4.59632e-08
4.13355e-10
-4.61593e-08
3.63788e-10
-4.6328e-08
3.13034e-10
-4.64685e-08
2.61122e-10
-4.65803e-08
2.08086e-10
-4.66628e-08
1.53965e-10
-4.67155e-08
9.88023e-11
-4.67379e-08
4.26464e-11
-4.67293e-08
-1.445e-11
-4.66895e-08
-7.24292e-11
-4.66179e-08
-1.31228e-10
-4.65141e-08
-1.9078e-10
-4.63777e-08
-2.51012e-10
-4.62086e-08
-3.11847e-10
-4.60063e-08
-3.73204e-10
-4.57706e-08
-4.34996e-10
-4.55014e-08
-4.97131e-10
-4.51986e-08
-5.59516e-10
-4.4862e-08
-6.22049e-10
-4.44916e-08
-6.84627e-10
-4.40875e-08
-7.47144e-10
-4.36498e-08
-8.09487e-10
-4.31786e-08
-8.71541e-10
-4.26742e-08
-9.33188e-10
-4.21368e-08
-9.94308e-10
-4.15667e-08
-1.05478e-09
-4.09645e-08
-1.11447e-09
-4.03306e-08
-1.17325e-09
-3.96655e-08
-1.231e-09
-3.89698e-08
-1.28757e-09
-3.82444e-08
-1.34285e-09
-3.74899e-08
-1.39668e-09
-3.67072e-08
-1.44894e-09
-3.58972e-08
-1.49949e-09
-3.50608e-08
-1.54818e-09
-3.41993e-08
-1.59489e-09
-3.33137e-08
-1.63947e-09
-3.24051e-08
-1.68179e-09
-3.1475e-08
-1.72171e-09
-3.05246e-08
-1.75909e-09
-2.95555e-08
-1.79379e-09
-2.85691e-08
-1.82567e-09
-2.75669e-08
-1.85461e-09
-2.65507e-08
-1.88045e-09
-2.55222e-08
-1.90308e-09
-2.44832e-08
-1.92235e-09
-2.34356e-08
-1.93812e-09
-2.23813e-08
-1.95026e-09
-2.13223e-08
-1.95865e-09
-2.02607e-08
-1.96314e-09
-1.91988e-08
-1.9636e-09
-1.81387e-08
-1.95989e-09
-1.70827e-08
-1.9519e-09
-1.60333e-08
-1.93947e-09
-1.49929e-08
-1.92248e-09
-1.3964e-08
-1.9008e-09
-1.29492e-08
-1.8743e-09
-1.19512e-08
-1.84284e-09
-1.09726e-08
-1.8063e-09
-1.00165e-08
-1.76455e-09
-9.08544e-09
-1.71746e-09
-8.18252e-09
-1.66493e-09
-7.31068e-09
-1.60683e-09
-6.47295e-09
-1.54306e-09
-5.67239e-09
-1.47354e-09
-4.9121e-09
-1.39819e-09
-4.19518e-09
-1.31698e-09
-3.52471e-09
-1.22991e-09
-2.90374e-09
-1.13702e-09
-2.33521e-09
-1.03844e-09
-1.82191e-09
-9.34402e-10
-1.3664e-09
-8.25285e-10
-9.70897e-10
-7.11667e-10
-6.37096e-10
-5.94414e-10
-3.65991e-10
-4.74797e-10
-1.57563e-10
-3.54654e-10
-1.04089e-11
-2.36639e-10
7.87826e-11
-1.24555e-10
1.15879e-10
-2.38121e-11
1.10139e-10
5.7977e-11
7.51084e-11
1.10337e-10
2.95492e-11
1.19412e-10
6.74217e-11
-3.21918e-12
-3.96765e-11
-4.22182e-11
7.9974e-12
-1.36286e-10
1.30958e-10
-2.97532e-10
2.97148e-10
-5.32976e-10
4.86023e-10
-8.45685e-10
6.83575e-10
-1.23575e-09
8.80525e-10
-1.70118e-09
1.07098e-09
-2.23857e-09
1.25134e-09
-2.84362e-09
1.41953e-09
-3.51152e-09
1.57454e-09
-4.23721e-09
1.71603e-09
-5.01557e-09
1.84414e-09
-5.84158e-09
1.95929e-09
-6.71037e-09
2.0621e-09
-7.61732e-09
2.15327e-09
-8.55807e-09
2.23358e-09
-9.52855e-09
2.30383e-09
-1.0525e-08
2.3648e-09
-1.15438e-08
2.41727e-09
-1.25819e-08
2.46197e-09
-1.36363e-08
2.49962e-09
-1.47042e-08
2.53087e-09
-1.57834e-08
2.55633e-09
-1.68715e-08
2.57657e-09
-1.79666e-08
2.59213e-09
-1.90669e-08
2.60346e-09
-2.01707e-08
2.61102e-09
-2.12766e-08
2.61518e-09
-2.23833e-08
2.61631e-09
-2.34896e-08
2.61471e-09
-2.45944e-08
2.61065e-09
-2.56967e-08
2.60439e-09
-2.67957e-08
2.59612e-09
-2.78905e-08
2.58604e-09
-2.89805e-08
2.57428e-09
-3.00649e-08
2.56098e-09
-3.1143e-08
2.54624e-09
-3.22144e-08
2.53014e-09
-3.32784e-08
2.51275e-09
-3.43344e-08
2.4941e-09
-3.5382e-08
2.47424e-09
-3.64205e-08
2.45318e-09
-3.74495e-08
2.43092e-09
-3.84685e-08
2.40746e-09
-3.94769e-08
2.38278e-09
-4.04741e-08
2.35687e-09
-4.14597e-08
2.32968e-09
-4.2433e-08
2.30119e-09
-4.33935e-08
2.27135e-09
-4.43407e-08
2.24013e-09
-4.52738e-08
2.20748e-09
-4.61923e-08
2.17335e-09
-4.70954e-08
2.13768e-09
-4.79827e-08
2.10043e-09
-4.88532e-08
2.06155e-09
-4.97065e-08
2.02099e-09
-5.05416e-08
1.97869e-09
-5.13579e-08
1.93461e-09
-5.21546e-08
1.88869e-09
-5.29309e-08
1.8409e-09
-5.3686e-08
1.79118e-09
-5.4419e-08
1.7395e-09
-5.51293e-08
1.68581e-09
-5.58158e-08
1.63008e-09
-5.64778e-08
1.57228e-09
-5.71143e-08
1.51237e-09
-5.77244e-08
1.45034e-09
-5.83074e-08
1.38615e-09
-5.88622e-08
1.3198e-09
-5.9388e-08
1.25128e-09
-5.98839e-08
1.18056e-09
-6.03489e-08
1.10766e-09
-6.07822e-08
1.03258e-09
-6.11828e-08
9.55329e-10
-6.15499e-08
8.75923e-10
-6.18825e-08
7.94385e-10
-6.21799e-08
7.10745e-10
-6.24412e-08
6.2504e-10
-6.26655e-08
5.37315e-10
-6.2852e-08
4.47621e-10
-6.29999e-08
3.56016e-10
-6.31085e-08
2.62568e-10
-6.31771e-08
1.67351e-10
-6.32049e-08
7.04483e-11
-6.31913e-08
-2.8049e-11
-6.31356e-08
-1.28042e-10
-6.30375e-08
-2.29423e-10
-6.28962e-08
-3.32077e-10
-6.27113e-08
-4.35881e-10
-6.24824e-08
-5.40701e-10
-6.22092e-08
-6.46398e-10
-6.18914e-08
-7.52826e-10
-6.15287e-08
-8.59828e-10
-6.1121e-08
-9.67241e-10
-6.06681e-08
-1.0749e-09
-6.01701e-08
-1.18262e-09
-5.96271e-08
-1.29022e-09
-5.9039e-08
-1.39751e-09
-5.84063e-08
-1.5043e-09
-5.77291e-08
-1.61039e-09
-5.70078e-08
-1.71557e-09
-5.6243e-08
-1.81962e-09
-5.54351e-08
-1.92233e-09
-5.45849e-08
-2.02349e-09
-5.3693e-08
-2.12287e-09
-5.27603e-08
-2.22024e-09
-5.17878e-08
-2.31538e-09
-5.07765e-08
-2.40805e-09
-4.97274e-08
-2.49802e-09
-4.86418e-08
-2.58507e-09
-4.7521e-08
-2.66895e-09
-4.63665e-08
-2.74943e-09
-4.51797e-08
-2.82626e-09
-4.39623e-08
-2.89923e-09
-4.27159e-08
-2.96808e-09
-4.14424e-08
-3.03259e-09
-4.01437e-08
-3.09251e-09
-3.88217e-08
-3.14761e-09
-3.74787e-08
-3.19766e-09
-3.61167e-08
-3.24242e-09
-3.47381e-08
-3.28167e-09
-3.33453e-08
-3.31515e-09
-3.19408e-08
-3.34265e-09
-3.05271e-08
-3.36393e-09
-2.9107e-08
-3.37876e-09
-2.76832e-08
-3.38691e-09
-2.62587e-08
-3.38815e-09
-2.48363e-08
-3.38225e-09
-2.34192e-08
-3.36898e-09
-2.20106e-08
-3.34812e-09
-2.06136e-08
-3.31943e-09
-1.92317e-08
-3.28269e-09
-1.78683e-08
-3.23769e-09
-1.6527e-08
-3.18419e-09
-1.52113e-08
-3.12199e-09
-1.3925e-08
-3.05087e-09
-1.26718e-08
-2.97064e-09
-1.14556e-08
-2.88109e-09
-1.02804e-08
-2.78207e-09
-9.15004e-09
-2.67341e-09
-8.06859e-09
-2.55499e-09
-7.04005e-09
-2.42673e-09
-6.06844e-09
-2.2886e-09
-5.15769e-09
-2.14065e-09
-4.31169e-09
-1.98302e-09
-3.53412e-09
-1.81601e-09
-2.82844e-09
-1.64008e-09
-2.19776e-09
-1.45597e-09
-1.64467e-09
-1.26476e-09
-1.17109e-09
-1.06799e-09
-7.78007e-10
-8.6788e-10
-4.65145e-10
-6.67516e-10
-2.30575e-10
-4.71209e-10
-7.02128e-11
-2.84918e-10
2.2795e-11
-1.1682e-10
5.87945e-11
2.19767e-11
5.24104e-11
1.1672e-10
2.35523e-11
1.48269e-10
9.09741e-11
-1.99626e-11
-1.97121e-11
-9.936e-11
8.73936e-11
-2.5257e-10
2.84169e-10
-4.89139e-10
5.33717e-10
-8.14653e-10
8.11538e-10
-1.2314e-09
1.10033e-09
-1.73904e-09
1.38816e-09
-2.33522e-09
1.66716e-09
-3.01616e-09
1.93228e-09
-3.77714e-09
2.18051e-09
-4.61281e-09
2.4102e-09
-5.51749e-09
2.62071e-09
-6.48541e-09
2.81206e-09
-7.51081e-09
2.9847e-09
-8.58809e-09
3.13938e-09
-9.71186e-09
3.27704e-09
-1.0877e-08
3.39872e-09
-1.20787e-08
3.50552e-09
-1.33124e-08
3.59854e-09
-1.45741e-08
3.67887e-09
-1.58596e-08
3.74757e-09
-1.71657e-08
3.80564e-09
-1.84889e-08
3.85406e-09
-1.98262e-08
3.8937e-09
-2.11751e-08
3.92541e-09
-2.25329e-08
3.94996e-09
-2.38975e-08
3.96806e-09
-2.52668e-08
3.98035e-09
-2.66391e-08
3.98741e-09
-2.80125e-08
3.98977e-09
-2.93857e-08
3.98791e-09
-3.07573e-08
3.98223e-09
-3.2126e-08
3.9731e-09
-3.34907e-08
3.96084e-09
-3.48504e-08
3.94572e-09
-3.62041e-08
3.92798e-09
-3.7551e-08
3.90782e-09
-3.88901e-08
3.88538e-09
-4.02208e-08
3.86081e-09
-4.15422e-08
3.8342e-09
-4.28538e-08
3.80563e-09
-4.41546e-08
3.77514e-09
-4.54442e-08
3.74277e-09
-4.67218e-08
3.70853e-09
-4.79868e-08
3.67242e-09
-4.92384e-08
3.63441e-09
-5.04761e-08
3.59449e-09
-5.1699e-08
3.5526e-09
-5.29065e-08
3.5087e-09
-5.40979e-08
3.46273e-09
-5.52724e-08
3.41463e-09
-5.64292e-08
3.36434e-09
-5.75677e-08
3.31178e-09
-5.86869e-08
3.25688e-09
-5.9786e-08
3.19958e-09
-6.08642e-08
3.13978e-09
-6.19207e-08
3.07742e-09
-6.29544e-08
3.01243e-09
-6.39645e-08
2.94473e-09
-6.49501e-08
2.87425e-09
-6.59101e-08
2.80093e-09
-6.68436e-08
2.72469e-09
-6.77496e-08
2.64548e-09
-6.86271e-08
2.56324e-09
-6.94749e-08
2.47792e-09
-7.02921e-08
2.38946e-09
-7.10775e-08
2.29783e-09
-7.18302e-08
2.20299e-09
-7.25489e-08
2.10491e-09
-7.32327e-08
2.00357e-09
-7.38804e-08
1.89894e-09
-7.44908e-08
1.79103e-09
-7.5063e-08
1.67983e-09
-7.55958e-08
1.56534e-09
-7.6088e-08
1.4476e-09
-7.65387e-08
1.32662e-09
-7.69468e-08
1.20244e-09
-7.73111e-08
1.0751e-09
-7.76308e-08
9.44666e-10
-7.79047e-08
8.11203e-10
-7.81318e-08
6.74789e-10
-7.83113e-08
5.35515e-10
-7.84422e-08
3.93481e-10
-7.85237e-08
2.48802e-10
-7.85548e-08
1.01603e-10
-7.85349e-08
-4.7977e-11
-7.84632e-08
-1.9979e-10
-7.83389e-08
-3.53672e-10
-7.81615e-08
-5.0945e-10
-7.79305e-08
-6.66937e-10
-7.76453e-08
-8.25934e-10
-7.73054e-08
-9.8623e-10
-7.69106e-08
-1.1476e-09
-7.64606e-08
-1.30982e-09
-7.59553e-08
-1.47264e-09
-7.53943e-08
-1.6358e-09
-7.47779e-08
-1.79904e-09
-7.41061e-08
-1.96208e-09
-7.3379e-08
-2.12464e-09
-7.25968e-08
-2.28642e-09
-7.17601e-08
-2.44712e-09
-7.08692e-08
-2.60644e-09
-6.99248e-08
-2.76405e-09
-6.89275e-08
-2.91963e-09
-6.78782e-08
-3.07285e-09
-6.67776e-08
-3.22338e-09
-6.5627e-08
-3.37087e-09
-6.44274e-08
-3.515e-09
-6.318e-08
-3.6554e-09
-6.18863e-08
-3.79173e-09
-6.05478e-08
-3.92363e-09
-5.9166e-08
-4.05076e-09
-5.77426e-08
-4.17276e-09
-5.62796e-08
-4.28927e-09
-5.47789e-08
-4.39994e-09
-5.32426e-08
-4.5044e-09
-5.16729e-08
-4.60231e-09
-5.00721e-08
-4.69331e-09
-4.84426e-08
-4.77704e-09
-4.67872e-08
-4.85314e-09
-4.51083e-08
-4.92127e-09
-4.34089e-08
-4.98106e-09
-4.16919e-08
-5.03218e-09
-3.99603e-08
-5.07426e-09
-3.82173e-08
-5.10695e-09
-3.64661e-08
-5.1299e-09
-3.47103e-08
-5.14278e-09
-3.29532e-08
-5.14521e-09
-3.11986e-08
-5.13688e-09
-2.94502e-08
-5.11742e-09
-2.77118e-08
-5.08649e-09
-2.59874e-08
-5.04376e-09
-2.42812e-08
-4.98889e-09
-2.25974e-08
-4.92155e-09
-2.09402e-08
-4.84141e-09
-1.9314e-08
-4.74816e-09
-1.77234e-08
-4.64149e-09
-1.61729e-08
-4.52111e-09
-1.46672e-08
-4.38677e-09
-1.32111e-08
-4.23821e-09
-1.18093e-08
-4.07525e-09
-1.04665e-08
-3.89773e-09
-9.18767e-09
-3.70557e-09
-7.97747e-09
-3.4988e-09
-6.84057e-09
-3.27754e-09
-5.7815e-09
-3.04209e-09
-4.80453e-09
-2.79298e-09
-3.91362e-09
-2.53099e-09
-3.11226e-09
-2.25733e-09
-2.40334e-09
-1.97368e-09
-1.7889e-09
-1.68243e-09
-1.26992e-09
-1.38686e-09
-8.45974e-10
-1.09146e-09
-5.1485e-10
-8.02332e-10
-2.72123e-10
-5.27646e-10
-1.10613e-10
-2.7833e-10
-1.98026e-11
-6.88338e-11
1.4849e-11
8.20674e-11
1.27421e-11
1.50376e-10
1.03717e-10
-3.73681e-11
1.76562e-11
-1.59801e-10
2.09827e-10
-3.75993e-10
5.00362e-10
-6.91996e-10
8.4972e-10
-1.11116e-09
1.2307e-09
-1.63438e-09
1.62355e-09
-2.26043e-09
2.01421e-09
-2.98634e-09
2.39307e-09
-3.80787e-09
2.75381e-09
-4.71984e-09
3.09248e-09
-5.71646e-09
3.40682e-09
-6.79158e-09
3.69584e-09
-7.9389e-09
3.95938e-09
-9.15212e-09
4.19791e-09
-1.0425e-08
4.4123e-09
-1.17517e-08
4.60369e-09
-1.31263e-08
4.77338e-09
-1.45436e-08
4.92276e-09
-1.59983e-08
5.05327e-09
-1.74858e-08
5.16632e-09
-1.90015e-08
5.26332e-09
-2.05415e-08
5.3456e-09
-2.21018e-08
5.41444e-09
-2.36792e-08
5.47105e-09
-2.52703e-08
5.51656e-09
-2.68724e-08
5.55202e-09
-2.84827e-08
5.57839e-09
-3.00989e-08
5.59655e-09
-3.17188e-08
5.60731e-09
-3.33405e-08
5.61139e-09
-3.4962e-08
5.60945e-09
-3.65818e-08
5.60205e-09
-3.81984e-08
5.58971e-09
-3.98105e-08
5.57287e-09
-4.14167e-08
5.55192e-09
-4.30159e-08
5.52718e-09
-4.4607e-08
5.49894e-09
-4.6189e-08
5.46743e-09
-4.7761e-08
5.43281e-09
-4.93221e-08
5.39526e-09
-5.08713e-08
5.35486e-09
-5.24079e-08
5.31171e-09
-5.39309e-08
5.26584e-09
-5.54397e-08
5.21728e-09
-5.69333e-08
5.16604e-09
-5.8411e-08
5.11209e-09
-5.98719e-08
5.05539e-09
-6.13152e-08
4.9959e-09
-6.274e-08
4.93354e-09
-6.41456e-08
4.86826e-09
-6.55309e-08
4.79996e-09
-6.68951e-08
4.72856e-09
-6.82373e-08
4.65396e-09
-6.95565e-08
4.57607e-09
-7.08517e-08
4.49479e-09
-7.2122e-08
4.41002e-09
-7.33662e-08
4.32165e-09
-7.45833e-08
4.22958e-09
-7.57723e-08
4.13372e-09
-7.6932e-08
4.03398e-09
-7.80614e-08
3.93026e-09
-7.91591e-08
3.82246e-09
-8.02242e-08
3.71052e-09
-8.12553e-08
3.59435e-09
-8.22513e-08
3.47388e-09
-8.32108e-08
3.34905e-09
-8.41328e-08
3.21979e-09
-8.50159e-08
3.08607e-09
-8.58588e-08
2.94784e-09
-8.66603e-08
2.80507e-09
-8.74191e-08
2.65774e-09
-8.81339e-08
2.50585e-09
-8.88035e-08
2.34938e-09
-8.94265e-08
2.18837e-09
-9.00017e-08
2.02282e-09
-9.05279e-08
1.85279e-09
-9.10038e-08
1.67833e-09
-9.14282e-08
1.49949e-09
-9.17999e-08
1.31637e-09
-9.21178e-08
1.12905e-09
-9.23806e-08
9.37658e-10
-9.25874e-08
7.42306e-10
-9.27371e-08
5.43144e-10
-9.28286e-08
3.40329e-10
-9.28611e-08
1.34038e-10
-9.28335e-08
-7.55366e-11
-9.27451e-08
-2.88186e-10
-9.25951e-08
-5.03683e-10
-9.23828e-08
-7.21785e-10
-9.21075e-08
-9.42232e-10
-9.17686e-08
-1.16475e-09
-9.13658e-08
-1.38904e-09
-9.08986e-08
-1.6148e-09
-9.03668e-08
-1.8417e-09
-8.977e-08
-2.0694e-09
-8.91082e-08
-2.29755e-09
-8.83815e-08
-2.52578e-09
-8.75899e-08
-2.75371e-09
-8.67336e-08
-2.98093e-09
-8.58129e-08
-3.20705e-09
-8.48284e-08
-3.43164e-09
-8.37806e-08
-3.65428e-09
-8.26701e-08
-3.87453e-09
-8.14978e-08
-4.09193e-09
-8.02646e-08
-4.30603e-09
-7.89716e-08
-4.51636e-09
-7.762e-08
-4.72246e-09
-7.62112e-08
-4.92385e-09
-7.47465e-08
-5.12005e-09
-7.32277e-08
-5.31058e-09
-7.16564e-08
-5.49493e-09
-7.00345e-08
-5.67263e-09
-6.83641e-08
-5.84318e-09
-6.66473e-08
-6.00609e-09
-6.48863e-08
-6.16086e-09
-6.30837e-08
-6.307e-09
-6.1242e-08
-6.444e-09
-5.9364e-08
-6.57138e-09
-5.74524e-08
-6.68864e-09
-5.55102e-08
-6.79529e-09
-5.35407e-08
-6.89082e-09
-5.1547e-08
-6.97476e-09
-4.95325e-08
-7.0466e-09
-4.75009e-08
-7.10586e-09
-4.54558e-08
-7.15204e-09
-4.34011e-08
-7.18468e-09
-4.13406e-08
-7.20327e-09
-3.92785e-08
-7.20733e-09
-3.7219e-08
-7.19639e-09
-3.51664e-08
-7.16996e-09
-3.31253e-08
-7.12757e-09
-3.11003e-08
-7.06877e-09
-2.90962e-08
-6.99307e-09
-2.71177e-08
-6.90003e-09
-2.51699e-08
-6.78922e-09
-2.32578e-08
-6.6602e-09
-2.13868e-08
-6.51256e-09
-1.95619e-08
-6.34594e-09
-1.77887e-08
-6.15998e-09
-1.60725e-08
-5.9544e-09
-1.44188e-08
-5.72895e-09
-1.28331e-08
-5.48349e-09
-1.13207e-08
-5.21795e-09
-9.88706e-09
-4.93243e-09
-8.53741e-09
-4.62719e-09
-7.27676e-09
-4.30274e-09
-6.10986e-09
-3.95987e-09
-5.04106e-09
-3.5998e-09
-4.07415e-09
-3.22424e-09
-3.21221e-09
-2.83561e-09
-2.45744e-09
-2.4372e-09
-1.81085e-09
-2.03345e-09
-1.27199e-09
-1.63032e-09
-8.38653e-10
-1.23567e-09
-5.06432e-10
-8.59867e-10
-2.68352e-10
-5.16409e-10
-1.14393e-10
-2.22792e-10
-3.09885e-11
-1.33623e-12
-4.66521e-13
1.19854e-10
1.03252e-10
-5.44942e-11
7.21501e-11
-2.20341e-10
3.75675e-10
-5.00574e-10
7.80596e-10
-8.97351e-10
1.2465e-09
-1.41133e-09
1.74468e-09
-2.04154e-09
2.25376e-09
-2.78551e-09
2.75818e-09
-3.63943e-09
3.24699e-09
-4.59841e-09
3.71279e-09
-5.65675e-09
4.15083e-09
-6.80823e-09
4.5583e-09
-8.04626e-09
4.93387e-09
-9.3641e-09
5.27722e-09
-1.0755e-08
5.58881e-09
-1.22123e-08
5.86962e-09
-1.37296e-08
6.12096e-09
-1.53006e-08
6.34441e-09
-1.69195e-08
6.54164e-09
-1.85806e-08
6.71441e-09
-2.02788e-08
6.86448e-09
-2.20091e-08
6.99361e-09
-2.3767e-08
7.10347e-09
-2.55482e-08
7.19568e-09
-2.73489e-08
7.27179e-09
-2.91656e-08
7.33323e-09
-3.09949e-08
7.38135e-09
-3.28339e-08
7.41739e-09
-3.46799e-08
7.4425e-09
-3.65303e-08
7.45771e-09
-3.83828e-08
7.46396e-09
-4.02355e-08
7.46212e-09
-4.20864e-08
7.45293e-09
-4.39338e-08
7.43706e-09
-4.5776e-08
7.41511e-09
-4.76117e-08
7.38757e-09
-4.94394e-08
7.3549e-09
-5.12579e-08
7.31744e-09
-5.3066e-08
7.27553e-09
-5.48626e-08
7.2294e-09
-5.66465e-08
7.17925e-09
-5.84169e-08
7.12524e-09
-6.01727e-08
7.06747e-09
-6.19129e-08
7.00602e-09
-6.36365e-08
6.94091e-09
-6.53426e-08
6.87217e-09
-6.70303e-08
6.79976e-09
-6.86986e-08
6.72366e-09
-7.03465e-08
6.64379e-09
-7.1973e-08
6.56008e-09
-7.35772e-08
6.47244e-09
-7.5158e-08
6.38076e-09
-7.67144e-08
6.28494e-09
-7.82452e-08
6.18485e-09
-7.97495e-08
6.08038e-09
-8.12262e-08
5.9714e-09
-8.26739e-08
5.85777e-09
-8.40916e-08
5.73937e-09
-8.54781e-08
5.61607e-09
-8.68322e-08
5.48775e-09
-8.81525e-08
5.35428e-09
-8.94377e-08
5.21555e-09
-9.06867e-08
5.07144e-09
-9.18981e-08
4.92185e-09
-9.30704e-08
4.76668e-09
-9.42023e-08
4.60583e-09
-9.52925e-08
4.43923e-09
-9.63395e-08
4.2668e-09
-9.7342e-08
4.08849e-09
-9.82984e-08
3.90425e-09
-9.92073e-08
3.71403e-09
-1.00067e-07
3.51782e-09
-1.00877e-07
3.3156e-09
-1.01635e-07
3.10738e-09
-1.0234e-07
2.89318e-09
-1.0299e-07
2.67303e-09
-1.03584e-07
2.447e-09
-1.04121e-07
2.21515e-09
-1.04599e-07
1.97757e-09
-1.05017e-07
1.73437e-09
-1.05374e-07
1.48568e-09
-1.05668e-07
1.23165e-09
-1.05898e-07
9.72443e-10
-1.06063e-07
7.08254e-10
-1.06162e-07
4.39293e-10
-1.06194e-07
1.65794e-10
-1.06157e-07
-1.1199e-10
-1.06052e-07
-3.93782e-10
-1.05876e-07
-6.79282e-10
-1.0563e-07
-9.6817e-10
-1.05312e-07
-1.2601e-09
-1.04922e-07
-1.55472e-09
-1.04459e-07
-1.85163e-09
-1.03924e-07
-2.15042e-09
-1.03315e-07
-2.45068e-09
-1.02632e-07
-2.75195e-09
-1.01876e-07
-3.05377e-09
-1.01046e-07
-3.35565e-09
-1.00143e-07
-3.6571e-09
-9.91661e-08
-3.95758e-09
-9.81166e-08
-4.25657e-09
-9.69947e-08
-4.55352e-09
-9.58011e-08
-4.84785e-09
-9.45367e-08
-5.139e-09
-9.32022e-08
-5.42638e-09
-9.17989e-08
-5.70938e-09
-9.03278e-08
-5.98739e-09
-8.87905e-08
-6.2598e-09
-8.71884e-08
-6.52599e-09
-8.55231e-08
-6.78532e-09
-8.37965e-08
-7.03715e-09
-8.20106e-08
-7.28085e-09
-8.01675e-08
-7.51576e-09
-7.82694e-08
-7.74124e-09
-7.63189e-08
-7.95664e-09
-7.43184e-08
-8.16132e-09
-7.22708e-08
-8.3546e-09
-7.0179e-08
-8.53585e-09
-6.80459e-08
-8.70442e-09
-6.58749e-08
-8.85964e-09
-6.36693e-08
-9.00088e-09
-6.14327e-08
-9.12747e-09
-5.91687e-08
-9.23878e-09
-5.68811e-08
-9.33415e-09
-5.4574e-08
-9.41294e-09
-5.22516e-08
-9.47452e-09
-4.9918e-08
-9.51823e-09
-4.75778e-08
-9.54344e-09
-4.52356e-08
-9.54953e-09
-4.28962e-08
-9.53585e-09
-4.05643e-08
-9.50179e-09
-3.82452e-08
-9.44672e-09
-3.59439e-08
-9.37004e-09
-3.36658e-08
-9.27116e-09
-3.14164e-08
-9.14948e-09
-2.92011e-08
-9.00445e-09
-2.70258e-08
-8.83552e-09
-2.48962e-08
-8.64218e-09
-2.28182e-08
-8.42398e-09
-2.07977e-08
-8.18048e-09
-1.88407e-08
-7.91135e-09
-1.69533e-08
-7.61633e-09
-1.51416e-08
-7.29527e-09
-1.34113e-08
-6.94817e-09
-1.17685e-08
-6.57523e-09
-1.02189e-08
-6.17687e-09
-8.76773e-09
-5.75385e-09
-7.42029e-09
-5.30732e-09
-6.18117e-09
-4.83892e-09
-5.05442e-09
-4.35099e-09
-4.04334e-09
-3.84669e-09
-3.15025e-09
-3.33029e-09
-2.37631e-09
-2.8074e-09
-1.72121e-09
-2.28542e-09
-1.18295e-09
-1.77394e-09
-7.57483e-10
-1.28533e-09
-4.3844e-10
-8.35451e-10
-2.16799e-10
-4.44432e-10
-8.0592e-11
-1.37541e-10
-1.45829e-11
5.38462e-11
8.86696e-11
-7.08918e-11
1.43042e-10
-2.79206e-10
5.83989e-10
-6.22725e-10
1.12411e-09
-1.09965e-09
1.72343e-09
-1.70774e-09
2.35276e-09
-2.4439e-09
2.98993e-09
-3.30415e-09
3.61843e-09
-4.28358e-09
4.22642e-09
-5.37651e-09
4.80572e-09
-6.57665e-09
5.35096e-09
-7.87725e-09
5.8589e-09
-9.2713e-09
6.32792e-09
-1.07517e-08
6.75759e-09
-1.23112e-08
7.14836e-09
-1.39429e-08
7.50131e-09
-1.56399e-08
7.81795e-09
-1.73956e-08
8.10009e-09
-1.92037e-08
8.34971e-09
-2.10581e-08
8.56889e-09
-2.29534e-08
8.75974e-09
-2.48841e-08
8.92435e-09
-2.68454e-08
9.06477e-09
-2.88327e-08
9.18297e-09
-3.08418e-08
9.28082e-09
-3.28686e-08
9.36009e-09
-3.49097e-08
9.42244e-09
-3.69617e-08
9.46941e-09
-3.90216e-08
9.50242e-09
-4.10867e-08
9.52275e-09
-4.31543e-08
9.5316e-09
-4.52222e-08
9.53002e-09
-4.72883e-08
9.51896e-09
-4.93505e-08
9.49927e-09
-5.1407e-08
9.47168e-09
-5.34563e-08
9.43685e-09
-5.54968e-08
9.39533e-09
-5.75269e-08
9.34759e-09
-5.95454e-08
9.29404e-09
-6.1551e-08
9.23498e-09
-6.35424e-08
9.17068e-09
-6.55185e-08
9.10134e-09
-6.74781e-08
9.0271e-09
-6.94202e-08
8.94807e-09
-7.13436e-08
8.86429e-09
-7.32472e-08
8.77579e-09
-7.513e-08
8.68254e-09
-7.69908e-08
8.5845e-09