/*--------------------------------*- C++ -*----------------------------------*\
  =========                 |
  \\      /  F ield         | OpenFOAM: The Open Source CFD Toolbox
   \\    /   O peration     | Website:  https://openfoam.org
    \\  /    A nd           | Version:  7
     \\/     M anipulation  |
\*---------------------------------------------------------------------------*/
FoamFile
{
    version     2.0;
    format      ascii;
    class       volScalarField;
    location    "0.475";
    object      p;
}
// * * * * * * * * * * * * * * * * * * * * * * * * * * * * * * * * * * * * * //

dimensions      [0 2 -2 0 0 0 0];

internalField   nonuniform List<scalar> 
25600
(
4.74865e-09
1.84066e-06
-1.83398e-06
-1.17711e-05
-2.70825e-05
-4.67345e-05
-6.97351e-05
-9.51758e-05
-0.000122243
-0.00015022
-0.0001785
-0.000206588
-0.000234051
-0.000260522
-0.000285701
-0.000309332
-0.000331208
-0.00035116
-0.000369062
-0.000384808
-0.000398308
-0.000409489
-0.000418305
-0.00042473
-0.000428747
-0.000430343
-0.000429514
-0.000426265
-0.000420602
-0.000412532
-0.000402065
-0.000389219
-0.000374015
-0.000356472
-0.000336607
-0.000314434
-0.000289972
-0.00026324
-0.000234256
-0.000203029
-0.000169569
-0.000133887
-9.59949e-05
-5.59049e-05
-1.36232e-05
3.08459e-05
7.74971e-05
0.000126323
0.000177314
0.000230459
0.000285751
0.000343183
0.00040275
0.000464439
0.000528233
0.000594111
0.000662056
0.000732053
0.000804076
0.000878094
0.00095407
0.00103196
0.00111173
0.00119332
0.0012767
0.00136179
0.00144854
0.00153687
0.00162671
0.00171796
0.00181053
0.00190433
0.00199925
0.00209518
0.00219201
0.00228961
0.00238784
0.00248657
0.00258564
0.00268491
0.00278423
0.00288344
0.00298236
0.00308083
0.00317868
0.00327571
0.00337174
0.0034666
0.00356009
0.00365204
0.00374226
0.00383056
0.00391675
0.00400064
0.00408204
0.00416079
0.0042367
0.0043096
0.00437935
0.00444578
0.00450876
0.00456813
0.00462377
0.00467556
0.00472339
0.00476717
0.0048068
0.00484224
0.00487342
0.00490032
0.00492289
0.00494114
0.00495508
0.00496471
0.00497008
0.00497124
0.00496825
0.00496121
0.00495021
0.00493537
0.00491682
0.0048947
0.00486918
0.00484044
0.00480864
0.00477399
0.0047367
0.00469697
0.00465505
0.00461116
0.00456554
0.00451845
0.00447014
0.00442088
0.00437093
0.00432057
0.00427008
0.00421972
0.00416979
0.00412056
0.00407232
0.00402535
0.00397994
0.00393635
0.00389489
0.00385581
0.0038194
0.00378593
0.00375566
0.00372884
0.00370571
0.00368649
0.00367133
0.00366038
0.00365364
0.003651
0.00365209
0.00365614
0.00366176
0.00366668
-1.19986e-06
5.6721e-07
-3.05186e-06
-1.19218e-05
-2.51672e-05
-4.20701e-05
-6.19139e-05
-8.39838e-05
-0.000107602
-0.00013216
-0.000157123
-0.000182019
-0.000206448
-0.000230066
-0.000252584
-0.000273754
-0.000293362
-0.000311236
-0.000327237
-0.000341252
-0.000353185
-0.000362961
-0.000370526
-0.000375842
-0.000378879
-0.000379614
-0.00037804
-0.000374155
-0.000367955
-0.000359438
-0.00034861
-0.000335484
-0.000320077
-0.000302402
-0.000282468
-0.00026029
-0.000235882
-0.000209263
-0.000180449
-0.000149443
-0.000116254
-8.08923e-05
-4.33742e-05
-3.70942e-06
3.80978e-05
8.20438e-05
0.000128121
0.000176321
0.000226633
0.000279044
0.000333546
0.000390133
0.000448797
0.000509524
0.000572292
0.000637081
0.000703875
0.000772655
0.000843394
0.00091606
0.000990614
0.00106701
0.00114521
0.00122517
0.00130683
0.00139014
0.00147503
0.00156144
0.00164927
0.00173845
0.00182888
0.00192047
0.00201311
0.0021067
0.00220113
0.00229627
0.00239199
0.00248815
0.00258461
0.00268123
0.00277786
0.00287434
0.00297052
0.00306623
0.0031613
0.00325554
0.00334879
0.00344087
0.0035316
0.00362082
0.00370833
0.00379397
0.00387755
0.00395888
0.00403779
0.00411412
0.00418769
0.00425835
0.00432595
0.00439035
0.0044514
0.00450897
0.00456294
0.0046132
0.00465964
0.00470217
0.00474072
0.00477523
0.00480565
0.00483194
0.00485409
0.00487209
0.00488595
0.00489569
0.00490133
0.00490295
0.00490059
0.00489436
0.00488434
0.00487064
0.00485341
0.00483277
0.00480888
0.00478191
0.00475204
0.00471946
0.00468435
0.00464694
0.00460744
0.00456608
0.00452308
0.0044787
0.00443316
0.00438674
0.00433968
0.00429225
0.00424471
0.00419732
0.00415035
0.00410406
0.00405874
0.00401463
0.00397201
0.00393115
0.00389229
0.00385569
0.00382161
0.00379028
0.00376194
0.00373679
0.00371503
0.00369683
0.00368229
0.00367149
0.00366439
0.00366082
0.00366044
0.00366262
0.00366668
0.0036716
3.30666e-06
4.78736e-06
1.0422e-06
-7.34568e-06
-1.94549e-05
-3.47251e-05
-5.25776e-05
-7.24073e-05
-9.36525e-05
-0.000115792
-0.000138342
-0.000160876
-0.00018302
-0.000204451
-0.000224898
-0.000244125
-0.000261926
-0.00027813
-0.000292589
-0.000305185
-0.000315819
-0.000324419
-0.000330931
-0.000335306
-0.000337501
-0.000337495
-0.000335275
-0.000330831
-0.000324154
-0.000315236
-0.000304078
-0.000290694
-0.000275097
-0.000257291
-0.000237282
-0.000215084
-0.000190712
-0.000164182
-0.000135503
-0.000104679
-7.17164e-05
-3.66299e-05
5.67014e-07
3.9867e-05
8.12669e-05
0.000124762
0.000170343
0.000218
0.00026772
0.000319495
0.000373315
0.000429174
0.00048706
0.000546955
0.000608839
0.000672694
0.0007385
0.00080624
0.000875885
0.0009474
0.00102074
0.00109587
0.00117275
0.00125132
0.00133154
0.00141335
0.00149669
0.00158148
0.00166764
0.00175509
0.00184374
0.00193349
0.00202425
0.00211591
0.00220836
0.00230147
0.00239512
0.00248917
0.00258349
0.00267793
0.00277236
0.00286663
0.00296057
0.00305403
0.00314683
0.00323882
0.00332981
0.00341964
0.00350814
0.00359514
0.00368048
0.00376397
0.00384544
0.00392471
0.00400161
0.00407599
0.00414768
0.00421653
0.00428241
0.00434516
0.00440466
0.00446078
0.0045134
0.00456241
0.00460772
0.00464924
0.0046869
0.00472065
0.00475043
0.00477623
0.00479801
0.00481578
0.00482955
0.00483934
0.00484517
0.00484712
0.00484523
0.0048396
0.00483032
0.0048175
0.00480127
0.00478176
0.00475913
0.00473354
0.00470516
0.00467418
0.00464078
0.00460517
0.00456756
0.00452817
0.00448722
0.00444494
0.00440158
0.00435738
0.00431258
0.00426744
0.00422221
0.00417714
0.00413248
0.0040885
0.00404545
0.00400358
0.00396314
0.00392438
0.00388754
0.00385286
0.00382056
0.00379086
0.00376398
0.0037401
0.00371938
0.00370195
0.00368791
0.0036773
0.00367008
0.00366611
0.00366512
0.00366667
0.00367075
0.00367722
1.39398e-05
1.42081e-05
9.7887e-06
1.32213e-06
-1.03783e-05
-2.48227e-05
-4.15052e-05
-5.99087e-05
-7.95504e-05
-9.99717e-05
-0.000120748
-0.000141499
-0.000161882
-0.000181597
-0.000200386
-0.000218027
-0.00023433
-0.000249132
-0.000262285
-0.000273667
-0.00028318
-0.000290756
-0.000296336
-0.000299867
-0.000301306
-0.000300629
-0.000297819
-0.000292859
-0.000285734
-0.000276435
-0.000264967
-0.000251337
-0.00023555
-0.000217606
-0.000197516
-0.00017529
-0.000150943
-0.000124483
-9.59186e-05
-6.52529e-05
-3.2494e-05
2.34317e-06
3.92471e-05
7.82145e-05
0.000119243
0.000162326
0.000207452
0.000254608
0.000303786
0.000354976
0.000408172
0.000463363
0.000520536
0.000579673
0.000640752
0.000703757
0.000768668
0.000835466
0.000904123
0.000974601
0.00104686
0.00112085
0.00119653
0.00127387
0.00135281
0.0014333
0.00151526
0.00159862
0.00168331
0.00176924
0.00185632
0.00194447
0.00203358
0.00212355
0.00221428
0.00230563
0.00239749
0.00248972
0.00258219
0.00267477
0.00276731
0.00285967
0.0029517
0.00304324
0.00313412
0.00322417
0.00331324
0.00340116
0.00348777
0.00357291
0.0036564
0.00373807
0.00381776
0.00389529
0.0039705
0.00404323
0.00411333
0.00418066
0.00424507
0.00430644
0.00436463
0.00441952
0.004471
0.00451895
0.0045633
0.00460395
0.00464085
0.00467393
0.00470316
0.00472851
0.00474996
0.00476751
0.00478117
0.00479096
0.00479692
0.00479909
0.00479755
0.00479238
0.00478367
0.00477154
0.0047561
0.00473749
0.00471586
0.00469137
0.00466418
0.00463448
0.00460245
0.00456829
0.0045322
0.0044944
0.0044551
0.00441454
0.00437294
0.00433054
0.00428758
0.0042443
0.00420094
0.00415775
0.00411498
0.00407287
0.00403166
0.00399159
0.00395291
0.00391584
0.00388062
0.00384747
0.00381659
0.00378819
0.00376247
0.00373958
0.00371967
0.00370287
0.00368926
0.00367888
0.00367171
0.00366769
0.0036666
0.0036682
0.00367296
0.0036813
2.98441e-05
2.79626e-05
2.22798e-05
1.32505e-05
1.46543e-06
-1.26374e-05
-2.86279e-05
-4.60701e-05
-6.45381e-05
-8.36347e-05
-0.00010299
-0.000122264
-0.000141157
-0.000159398
-0.000176742
-0.000192982
-0.00020794
-0.000221462
-0.00023341
-0.000243663
-0.000252131
-0.000258744
-0.000263437
-0.000266156
-0.000266866
-0.000265538
-0.00026215
-0.000256679
-0.000249108
-0.000239431
-0.000227651
-0.00021377
-0.000197785
-0.000179699
-0.00015952
-0.000137261
-0.000112931
-8.65354e-05
-5.80784e-05
-2.75652e-05
4.99417e-06
3.95858e-05
7.62017e-05
0.000114841
0.000155502
0.000198175
0.000242848
0.000289508
0.000338148
0.000388761
0.000441337
0.000495867
0.000552334
0.000610721
0.000671009
0.000733178
0.000797211
0.000863087
0.000930777
0.00100024
0.00107144
0.00114432
0.00121886
0.001295
0.00137271
0.00145191
0.00153255
0.00161455
0.00169782
0.00178229
0.00186788
0.0019545
0.00204205
0.00213043
0.00221952
0.00230922
0.00239938
0.0024899
0.00258064
0.00267146
0.00276224
0.00285283
0.00294307
0.00303281
0.0031219
0.00321017
0.00329745
0.00338361
0.00346847
0.00355187
0.00363366
0.00371365
0.0037917
0.00386762
0.00394127
0.00401248
0.00408112
0.00414705
0.00421012
0.00427021
0.00432719
0.00438094
0.00443136
0.00447834
0.00452179
0.00456163
0.00459781
0.00463027
0.00465897
0.00468389
0.00470501
0.00472232
0.00473585
0.00474561
0.00475164
0.004754
0.00475274
0.00474794
0.00473972
0.00472816
0.0047134
0.00469556
0.00467479
0.00465125
0.00462511
0.00459652
0.00456569
0.00453281
0.00449806
0.00446166
0.00442383
0.00438478
0.00434474
0.00430394
0.0042626
0.00422096
0.00417927
0.00413775
0.00409664
0.00405618
0.00401661
0.00397814
0.00394101
0.00390544
0.00387164
0.00383982
0.00381019
0.00378292
0.0037582
0.00373617
0.00371698
0.00370074
0.00368753
0.0036774
0.00367036
0.0036664
0.00366539
0.00366721
0.00367267
0.00368253
5.01294e-05
4.54182e-05
3.79687e-05
2.79413e-05
1.56433e-05
1.45196e-06
-1.42702e-05
-3.11502e-05
-4.88274e-05
-6.69607e-05
-8.52253e-05
-0.000103323
-0.00012099
-0.000137984
-0.000154089
-0.000169112
-0.000182887
-0.000195265
-0.000206116
-0.000215337
-0.000222843
-0.000228557
-0.000232417
-0.000234372
-0.000234388
-0.000232437
-0.00022849
-0.00022252
-0.000214513
-0.000204466
-0.000192378
-0.000178244
-0.000162061
-0.000143829
-0.000123561
-0.000101265
-7.69473e-05
-5.06089e-05
-2.2254e-05
8.11021e-06
4.04734e-05
7.4825e-05
0.00011116
0.000149478
0.000189777
0.000232045
0.000276269
0.00032244
0.00037055
0.000420594
0.000472563
0.000526442
0.000582216
0.000639868
0.000699379
0.000760733
0.000823911
0.000888892
0.000955643
0.00102412
0.00109429
0.00116611
0.00123954
0.00131454
0.00139106
0.00146904
0.00154841
0.0016291
0.00171103
0.00179413
0.00187831
0.00196349
0.00204956
0.00213644
0.002224
0.00231214
0.00240073
0.00248965
0.00257877
0.00266797
0.00275711
0.00284605
0.00293465
0.00302274
0.00311017
0.0031968
0.00328245
0.00336698
0.00345024
0.00353206
0.00361229
0.00369076
0.0037673
0.00384176
0.00391398
0.00398382
0.00405113
0.00411578
0.00417762
0.00423655
0.00429242
0.00434514
0.00439459
0.00444066
0.00448329
0.00452239
0.0045579
0.00458977
0.00461797
0.00464247
0.00466326
0.00468034
0.00469372
0.00470342
0.00470948
0.00471195
0.0047109
0.00470641
0.00469857
0.00468749
0.00467329
0.0046561
0.00463606
0.00461333
0.00458807
0.00456045
0.00453065
0.00449885
0.00446526
0.00443008
0.00439351
0.00435577
0.00431708
0.00427766
0.00423774
0.00419754
0.00415729
0.00411723
0.00407757
0.00403855
0.00400039
0.00396331
0.00392753
0.00389325
0.00386068
0.00383002
0.00380145
0.00377515
0.00375128
0.00372999
0.00371141
0.00369565
0.00368279
0.0036729
0.00366601
0.00366216
0.00366128
0.00366333
0.00366931
0.0036802
7.38835e-05
6.58884e-05
5.62863e-05
4.49134e-05
3.17312e-05
1.70655e-05
1.24115e-06
-1.54367e-05
-3.26682e-05
-5.01622e-05
-6.76432e-05
-8.48516e-05
-0.000101551
-0.000117529
-0.000132597
-0.000146584
-0.000159334
-0.000170706
-0.000180587
-0.000188883
-0.000195512
-0.000200401
-0.00020349
-0.000204736
-0.000204104
-0.000201564
-0.000197082
-0.000190635
-0.000182212
-0.000171809
-0.000159419
-0.000145036
-0.000128656
-0.000110283
-8.9926e-05
-6.75921e-05
-4.32817e-05
-1.69955e-05
1.1261e-05
4.14792e-05
7.36502e-05
0.000107767
0.000143828
0.000181832
0.000221776
0.000263647
0.000307431
0.000353121
0.000400713
0.000450202
0.000501577
0.000554821
0.00060992
0.000666856
0.000725614
0.000786177
0.000848529
0.000912645
0.000978491
0.00104603
0.00111521
0.00118601
0.00125838
0.00133229
0.00140769
0.00148451
0.00156268
0.00164214
0.0017228
0.0018046
0.00188746
0.0019713
0.002056
0.00214148
0.00222762
0.00231431
0.00240144
0.00248889
0.00257653
0.00266424
0.00275188
0.00283932
0.00292641
0.00301299
0.00309893
0.00318406
0.00326823
0.0033513
0.00343311
0.00351351
0.00359233
0.00366942
0.00374462
0.00381776
0.00388871
0.00395731
0.00402342
0.00408692
0.00414767
0.00420554
0.00426043
0.00431221
0.00436077
0.00440604
0.00444791
0.00448633
0.00452122
0.00455255
0.00458028
0.00460439
0.00462486
0.0046417
0.00465491
0.00466452
0.00467057
0.00467311
0.0046722
0.00466793
0.00466039
0.00464968
0.00463593
0.00461926
0.00459982
0.00457775
0.00455322
0.00452639
0.00449744
0.00446656
0.00443394
0.00439977
0.00436427
0.00432763
0.00429008
0.00425184
0.00421311
0.00417413
0.00413511
0.00409628
0.00405785
0.00402005
0.0039831
0.00394719
0.00391254
0.00387936
0.00384782
0.00381813
0.00379045
0.00376495
0.00374179
0.00372111
0.00370302
0.00368765
0.00367508
0.00366539
0.00365863
0.00365487
0.00365408
0.00365628
0.00366258
0.003674
0.000100237
8.86755e-05
7.66494e-05
6.36531e-05
4.92874e-05
3.38425e-05
1.76049e-05
8.19454e-07
-1.62624e-05
-3.3399e-05
-5.0361e-05
-6.69279e-05
-8.28923e-05
-9.80679e-05
-0.000112291
-0.000125409
-0.000137277
-0.000147777
-0.000156808
-0.000164282
-0.00017012
-0.000174257
-0.000176642
-0.000177236
-0.000176002
-0.000172906
-0.000167918
-0.00016102
-0.000152203
-0.00014146
-0.000128778
-0.000114154
-9.75834e-05
-7.90738e-05
-5.86323e-05
-3.62606e-05
-1.19559e-05
1.42802e-05
4.24395e-05
7.25133e-05
0.000104496
0.000138384
0.000174177
0.000211874
0.000251468
0.000292947
0.000336298
0.000381519
0.000428606
0.000477552
0.000528345
0.000580969
0.000635408
0.000691649
0.000749677
0.000809478
0.000871032
0.000934313
0.000999285
0.00106591
0.00113415
0.00120397
0.00127534
0.00134821
0.00142254
0.00149826
0.0015753
0.0016536
0.00173307
0.00181367
0.00189529
0.00197787
0.0020613
0.00214548
0.0022303
0.00231566
0.00240145
0.00248754
0.00257383
0.00266017
0.00274645
0.00283252
0.00291824
0.00300346
0.00308804
0.00317182
0.00325467
0.00333642
0.00341694
0.00349606
0.00357362
0.00364948
0.00372348
0.00379545
0.00386525
0.00393275
0.0039978
0.00406027
0.00412004
0.00417699
0.00423098
0.00428193
0.00432971
0.00437424
0.00441544
0.00445323
0.00448757
0.0045184
0.00454569
0.00456942
0.00458958
0.00460617
0.0046192
0.00462869
0.00463469
0.00463724
0.00463642
0.00463229
0.00462496
0.00461453
0.00460112
0.00458486
0.00456588
0.00454434
0.00452039
0.0044942
0.00446594
0.0044358
0.00440397
0.00437064
0.00433601
0.00430028
0.00426368
0.0042264
0.00418867
0.00415069
0.0041127
0.00407489
0.00403749
0.0040007
0.00396474
0.00392981
0.0038961
0.00386382
0.00383313
0.00380423
0.00377727
0.00375242
0.00372983
0.00370962
0.00369193
0.00367686
0.0036645
0.00365494
0.00364826
0.00364453
0.00364376
0.00364598
0.00365234
0.00366388
0.000128404
0.000113127
9.84885e-05
8.36552e-05
6.78811e-05
5.14152e-05
3.45116e-05
1.7366e-05
1.78415e-07
-1.68487e-05
-3.35224e-05
-4.9662e-05
-6.5095e-05
-7.96612e-05
-9.32119e-05
-0.000105611
-0.000116738
-0.000126492
-0.000134784
-0.000141531
-0.000146663
-0.000150124
-0.000151872
-0.00015187
-0.000150078
-0.000146463
-0.000141003
-0.000133684
-0.000124497
-0.000113429
-0.00010047
-8.56149e-05
-6.88656e-05
-5.02278e-05
-2.9706e-05
-7.29742e-06
1.70015e-05
4.31859e-05
7.12462e-05
0.000101176
0.000132973
0.000166637
0.000202167
0.000239561
0.00027881
0.000319902
0.000362829
0.00040759
0.000454184
0.0005026
0.000552824
0.000604841
0.000658638
0.000714203
0.000771526
0.00083059
0.000891373
0.000953847
0.00101798
0.00108373
0.00115107
0.00121996
0.00129037
0.00136226
0.00143558
0.00151025
0.00158623
0.00166343
0.00174179
0.00182126
0.00190173
0.00198314
0.00206538
0.00214836
0.00223197
0.00231611
0.00240067
0.00248553
0.00257057
0.00265568
0.00274071
0.00282554
0.00291003
0.00299402
0.00307739
0.00315997
0.00324162
0.0033222
0.00340156
0.00347955
0.003556
0.00363077
0.0037037
0.00377464
0.00384344
0.00390996
0.00397407
0.00403564
0.00409455
0.00415067
0.00420388
0.00425408
0.00430116
0.00434504
0.00438563
0.00442287
0.00445669
0.00448706
0.00451395
0.00453733
0.00455719
0.00457353
0.00458636
0.00459571
0.00460163
0.00460415
0.00460335
0.0045993
0.0045921
0.00458186
0.00456869
0.00455272
0.00453409
0.00451294
0.00448943
0.00446374
0.00443602
0.00440646
0.00437525
0.00434258
0.00430864
0.00427364
0.00423779
0.00420129
0.00416436
0.0041272
0.00409002
0.00405304
0.00401647
0.0039805
0.00394535
0.0039112
0.00387825
0.00384668
0.00381667
0.00378839
0.003762
0.00373765
0.00371549
0.00369564
0.00367823
0.00366335
0.00365112
0.00364162
0.00363493
0.00363115
0.00363029
0.0036324
0.00363861
0.00364989
0.000157699
0.000138644
0.000121273
0.000104453
8.70951e-05
6.94159e-05
5.16464e-05
3.39327e-05
1.6429e-05
-6.98422e-07
-1.72889e-05
-3.31943e-05
-4.82762e-05
-6.2398e-05
-7.54274e-05
-8.72501e-05
-9.77695e-05
-0.000106898
-0.000114553
-0.000120664
-0.000125173
-0.000128036
-0.000129213
-0.000128667
-0.000126361
-0.000122269
-0.000116375
-0.000108667
-9.91334e-05
-8.77596e-05
-7.45377e-05
-5.94684e-05
-4.25542e-05
-2.37983e-05
-3.20141e-06
1.92412e-05
4.35307e-05
6.96591e-05
9.76172e-05
0.000127402
0.000159016
0.00019246
0.000227731
0.000264825
0.000303732
0.000344444
0.000386955
0.000431267
0.000477378
0.000525274
0.000574942
0.000626366
0.000679538
0.00073445
0.00079109
0.000849441
0.00090948
0.000971176
0.0010345
0.00109941
0.00116589
0.00123389
0.0013034
0.00137436
0.00144671
0.00152041
0.00159537
0.00167155
0.00174888
0.00182729
0.0019067
0.00198702
0.00206817
0.00215004
0.00223254
0.00231556
0.00239899
0.00248273
0.00256665
0.00265064
0.00273456
0.00281828
0.00290166
0.00298456
0.00306684
0.00314835
0.00322895
0.0033085
0.00338684
0.00346383
0.00353931
0.00361312
0.00368512
0.00375515
0.00382308
0.00388875
0.00395205
0.00401284
0.00407099
0.00412639
0.00417892
0.00422847
0.00427494
0.00431824
0.00435829
0.00439503
0.0044284
0.00445835
0.00448487
0.00450791
0.00452748
0.00454357
0.0045562
0.0045654
0.00457119
0.00457364
0.00457281
0.00456878
0.00456164
0.0045515
0.00453848
0.00452269
0.00450429
0.00448342
0.00446023
0.00443489
0.00440756
0.00437843
0.00434768
0.0043155
0.00428209
0.00424764
0.00421237
0.00417646
0.00414014
0.00410361
0.00406707
0.00403073
0.0039948
0.00395946
0.00392493
0.00389138
0.00385901
0.00382798
0.00379848
0.00377067
0.0037447
0.00372071
0.00369885
0.00367923
0.00366199
0.00364721
0.00363501
0.00362548
0.0036187
0.00361477
0.00361371
0.00361558
0.00362143
0.0036322
0.000187513
0.000164673
0.000144516
0.000125608
0.000106537
8.74955e-05
6.86957e-05
5.02436e-05
3.22523e-05
1.48508e-05
-1.8315e-06
-1.7675e-05
-3.25647e-05
-4.63853e-05
-5.90309e-05
-7.04102e-05
-8.04428e-05
-8.90518e-05
-9.61674e-05
-0.000101732
-0.000105702
-0.000108039
-0.000108707
-0.000107669
-0.000104895
-0.000100371
-9.40821e-05
-8.60158e-05
-7.61591e-05
-6.45006e-05
-5.1037e-05
-3.57723e-05
-1.87087e-05
1.55019e-07
2.08208e-05
4.3291e-05
6.75637e-05
9.36295e-05
0.000121482
0.000151123
0.000182556
0.000215781
0.000250795
0.000287589
0.000326157
0.000366494
0.0004086
0.000452473
0.000498108
0.000545495
0.000594618
0.000645465
0.000698032
0.000752311
0.000808292
0.000865954
0.000925272
0.000986219
0.00104876
0.00111288
0.00117854
0.0012457
0.00131434
0.00138442
0.00145587
0.00152864
0.00160266
0.00167789
0.00175425
0.00183168
0.0019101
0.00198942
0.00206956
0.00215042
0.0022319
0.0023139
0.00239632
0.00247905
0.00256196
0.00264495
0.00272787
0.0028106
0.002893
0.00297493
0.00305626
0.00313683
0.00321652
0.00329516
0.00337262
0.00344875
0.00352338
0.00359637
0.00366757
0.00373683
0.003804
0.00386896
0.00393155
0.00399167
0.00404918
0.00410396
0.00415591
0.0042049
0.00425084
0.00429364
0.00433322
0.00436952
0.00440248
0.00443207
0.00445824
0.00448098
0.00450027
0.00451612
0.00452854
0.00453755
0.0045432
0.00454554
0.00454463
0.00454056
0.00453341
0.0045233
0.00451033
0.00449464
0.00447637
0.00445566
0.00443266
0.00440754
0.00438046
0.00435161
0.00432117
0.00428933
0.00425628
0.00422222
0.00418735
0.00415187
0.00411598
0.0040799
0.00404382
0.00400794
0.00397246
0.00393758
0.00390349
0.00387038
0.00383841
0.00380777
0.00377862
0.00375112
0.00372542
0.00370166
0.00367996
0.00366047
0.00364328
0.00362851
0.00361625
0.00360659
0.00359963
0.00359545
0.00359409
0.00359558
0.00360093
0.00361096
0.000217303
0.000190725
0.000167764
0.000146707
0.000125836
0.000105321
8.53586e-05
6.60278e-05
4.74058e-05
2.95857e-05
1.26641e-05
-3.26086e-06
-1.80929e-05
-3.17428e-05
-4.41319e-05
-5.51871e-05
-6.484e-05
-7.30274e-05
-7.96949e-05
-8.48004e-05
-8.83095e-05
-9.01889e-05
-9.0404e-05
-8.89258e-05
-8.57362e-05
-8.08243e-05
-7.41782e-05
-6.57839e-05
-5.56304e-05
-4.37122e-05
-3.0031e-05
-1.45915e-05
2.60654e-06
2.15676e-05
4.22932e-05
6.47809e-05
8.90264e-05
0.000115023
0.000142766
0.000172262
0.000203514
0.000236521
0.000271275
0.00030777
0.000346003
0.000385974
0.000427681
0.000471122
0.000516292
0.000563179
0.000611769
0.000662055
0.000714035
0.000767703
0.000823045
0.000880041
0.000938665
0.000998892
0.00106069
0.00112405
0.00118892
0.00125529
0.00132312
0.00139235
0.00146295
0.00153485
0.001608
0.00168233
0.0017578
0.00183432
0.00191183
0.00199024
0.00206946
0.0021494
0.00222995
0.00231104
0.00239254
0.00247436
0.00255638
0.00263847
0.00272052
0.00280237
0.00288392
0.00296501
0.00304551
0.00312527
0.00320417
0.00328204
0.00335875
0.00343414
0.00350806
0.00358035
0.00365088
0.00371949
0.00378603
0.00385038
0.00391239
0.00397195
0.00402892
0.00408319
0.00413464
0.00418317
0.00422866
0.00427104
0.00431022
0.00434614
0.00437875
0.00440801
0.00443387
0.00445633
0.00447536
0.00449097
0.00450318
0.004512
0.00451748
0.00451968
0.00451865
0.00451448
0.00450726
0.0044971
0.00448411
0.00446842
0.00445017
0.00442951
0.00440659
0.00438157
0.00435462
0.00432591
0.00429564
0.00426398
0.00423114
0.00419731
0.00416268
0.00412745
0.00409184
0.00405603
0.00402024
0.00398465
0.00394946
0.00391487
0.00388105
0.0038482
0.00381648
0.00378607
0.00375712
0.00372979
0.00370422
0.00368055
0.0036589
0.00363941
0.00362217
0.00360729
0.00359488
0.003585
0.00357777
0.00357325
0.00357149
0.00357251
0.00357722
0.00358637
0.000246607
0.000216356
0.0001906
0.000167362
0.00014463
0.000122563
0.000101345
8.10236e-05
6.16507e-05
4.32881e-05
2.60071e-05
9.88492e-06
-5.00658e-06
-1.86049e-05
-3.0851e-05
-4.16858e-05
-5.10546e-05
-5.89115e-05
-6.52193e-05
-6.9948e-05
-7.30685e-05
-7.45509e-05
-7.4369e-05
-7.25054e-05
-6.89502e-05
-6.36944e-05
-5.67262e-05
-4.80342e-05
-3.76131e-05
-2.54638e-05
-1.15909e-05
4.00304e-06
2.1321e-05
4.03672e-05
6.11394e-05
8.36315e-05
0.000107839
0.000133758
0.000161389
0.000190738
0.000221808
0.000254593
0.000289086
0.000325283
0.000363186
0.000402796
0.000444111
0.000487127
0.000531839
0.000578234
0.000626305
0.000676046
0.000727457
0.000780533
0.000835259
0.00089161
0.000949565
0.0010091
0.00107019
0.00113282
0.00119695
0.00126256
0.00132962
0.00139807
0.00146787
0.00153895
0.00161128
0.00168479
0.00175943
0.00183512
0.0019118
0.00198937
0.00206775
0.00214685
0.00222658
0.00230684
0.00238754
0.00246855
0.00254978
0.00263109
0.00271236
0.00279347
0.00287427
0.00295464
0.00303443
0.00311352
0.00319175
0.00326897
0.00334505
0.00341983
0.00349316
0.00356489
0.00363486
0.00370294
0.00376898
0.00383283
0.00389438
0.00395349
0.00401003
0.00406388
0.00411494
0.00416308
0.00420821
0.00425024
0.00428909
0.0043247
0.00435701
0.00438598
0.00441157
0.00443377
0.00445256
0.00446794
0.00447994
0.00448856
0.00449385
0.00449587
0.00449469
0.00449037
0.00448302
0.00447275
0.00445966
0.00444389
0.00442558
0.00440487
0.00438191
0.00435687
0.00432992
0.00430123
0.00427099
0.00423938
0.0042066
0.00417284
0.0041383
0.00410317
0.00406767
0.00403198
0.00399631
0.00396084
0.00392578
0.00389131
0.00385761
0.00382487
0.00379324
0.0037629
0.00373401
0.0037067
0.00368113
0.00365743
0.00363571
0.0036161
0.00359871
0.00358363
0.00357096
0.00356079
0.00355319
0.00354826
0.003546
0.00354646
0.00355044
0.0035586
0.000275009
0.000241165
0.000212645
0.000187213
0.000162583
0.00013891
0.000116367
9.49717e-05
7.47501e-05
5.57459e-05
3.80092e-05
2.15898e-05
6.53346e-06
-7.1166e-06
-1.93157e-05
-3.00204e-05
-3.91934e-05
-4.68067e-05
-5.28372e-05
-5.72623e-05
-6.00574e-05
-6.1201e-05
-6.06793e-05
-5.84848e-05
-5.46117e-05
-4.90519e-05
-4.17963e-05
-3.28396e-05
-2.21833e-05
-9.83293e-06
4.20682e-06
1.99359e-05
3.73582e-05
5.64736e-05
7.72759e-05
9.97579e-05
0.000123917
0.000149752
0.000177266
0.000206464
0.000237347
0.000269905
0.000304135
0.000340036
0.000377614
0.000416867
0.000457794
0.000500392
0.000544652
0.000590566
0.000638129
0.000687342
0.000738203
0.000790705
0.000844833
0.000900562
0.000957873
0.00101674
0.00107716
0.0011391
0.00120253
0.00126742
0.00133375
0.00140146
0.0014705
0.00154084
0.0016124
0.00168515
0.00175903
0.00183396
0.00190987
0.00198669
0.00206431
0.00214266
0.00222165
0.00230119
0.00238117
0.00246149
0.00254202
0.00262266
0.00270327
0.00278374
0.00286391
0.00294368
0.00302289
0.00310141
0.00317909
0.0032558
0.00333137
0.00340566
0.00347853
0.0035498
0.00361935
0.00368701
0.00375266
0.00381614
0.00387733
0.00393609
0.0039923
0.00404584
0.00409659
0.00414444
0.00418929
0.00423104
0.00426963
0.00430499
0.00433705
0.00436578
0.00439115
0.00441312
0.00443169
0.00444686
0.00445864
0.00446705
0.00447215
0.00447397
0.00447259
0.00446809
0.00446056
0.00445011
0.00443685
0.00442092
0.00440246
0.0043816
0.00435851
0.00433334
0.00430627
0.00427748
0.00424714
0.00421544
0.00418259
0.00414876
0.00411416
0.00407898
0.00404343
0.0040077
0.003972
0.0039365
0.00390141
0.00386691
0.00383317
0.00380038
0.0037687
0.00373829
0.00370931
0.0036819
0.00365619
0.00363233
0.00361043
0.0035906
0.00357295
0.00355758
0.00354457
0.003534
0.00352597
0.00352053
0.00351771
0.00351754
0.00352073
0.00352784
0.000302132
0.000264784
0.000233543
0.000205926
0.000179382
0.000154066
0.000130147
0.000107615
8.64739e-05
6.67533e-05
4.84781e-05
3.16722e-05
1.63611e-05
2.57401e-06
-9.66002e-06
-2.03162e-05
-2.9376e-05
-3.68262e-05
-4.2652e-05
-4.68367e-05
-4.93647e-05
-5.0228e-05
-4.94235e-05
-4.69491e-05
-4.28013e-05
-3.69753e-05
-2.94681e-05
-2.0282e-05
-9.42477e-06
3.09693e-06
1.72802e-05
3.31254e-05
5.06332e-05
6.97989e-05
9.06134e-05
0.00011307
0.00013717
0.000162914
0.000190306
0.000219347
0.000250034
0.000282361
0.000316326
0.000351933
0.000389188
0.000428088
0.000468632
0.000510814
0.000554629
0.000600073
0.000647143
0.000695842
0.000746169
0.000798115
0.000851663
0.000906792
0.000963483
0.00102172
0.00108149
0.00114277
0.00120554
0.00126976
0.00133539
0.00140241
0.00147075
0.00154039
0.00161125
0.0016833
0.00175648
0.00183072
0.00190594
0.00198207
0.00205902
0.00213671
0.00221505
0.00229395
0.00237331
0.00245302
0.00253297
0.00261304
0.0026931
0.00277303
0.00285269
0.00293197
0.00301071
0.00308878
0.00316604
0.00324234
0.00331753
0.00339145
0.00346397
0.00353492
0.00360415
0.00367152
0.00373688
0.0038001
0.00386104
0.00391957
0.00397555
0.00402887
0.00407941
0.00412705
0.0041717
0.00421326
0.00425166
0.00428682
0.0043187
0.00434724
0.00437241
0.00439419
0.00441256
0.00442753
0.0044391
0.00444731
0.00445219
0.0044538
0.0044522
0.00444747
0.00443971
0.00442903
0.00441555
0.00439939
0.00438069
0.0043596
0.00433627
0.00431088
0.00428358
0.00425456
0.004224
0.00419209
0.00415902
0.00412499
0.00409019
0.00405482
0.00401908
0.00398317
0.00394728
0.0039116
0.00387633
0.00384164
0.00380772
0.00377474
0.00374286
0.00371224
0.00368304
0.00365539
0.00362943
0.00360529
0.00358309
0.00356293
0.00354493
0.00352916
0.00351573
0.0035047
0.00349615
0.00349015
0.00348671
0.00348585
0.0034882
0.00349422
0.000327636
0.000286876
0.000252968
0.000223191
0.000194732
0.00016775
0.000142418
0.000118707
9.65991e-05
7.61011e-05
5.72161e-05
3.9949e-05
2.43106e-05
1.03147e-05
-2.02747e-06
-1.27105e-05
-2.17322e-05
-2.90886e-05
-3.47713e-05
-3.87727e-05
-4.10916e-05
-4.17318e-05
-4.06972e-05
-3.79888e-05
-3.36068e-05
-2.75523e-05
-1.9831e-05
-1.04527e-05
5.72535e-07
1.32383e-05
2.75423e-05
4.34825e-05
6.10545e-05
8.02493e-05
0.000101057
0.000123475
0.000147505
0.00017315
0.000200411
0.000229285
0.000259769
0.000291861
0.00032556
0.000360874
0.000397807
0.000436357
0.000476519
0.000518289
0.000561666
0.000606649
0.00065324
0.00070144
0.000751248
0.000802653
0.00085564
0.000910189
0.000966286
0.00102392
0.00108307
0.00114373
0.00120587
0.00126945
0.00133444
0.0014008
0.0014685
0.00153748
0.0016077
0.00167911
0.00175166
0.00182527
0.00189987
0.00197539
0.00205175
0.00212885
0.00220663
0.00228498
0.00236381
0.00244302
0.00252248
0.00260208
0.00268169
0.00276119
0.00284045
0.00291935
0.00299773
0.00307548
0.00315242
0.00322843
0.00330335
0.00337703
0.00344931
0.00352005
0.00358908
0.00365627
0.00372147
0.00378454
0.00384533
0.00390373
0.00395959
0.00401278
0.0040632
0.00411073
0.00415526
0.0041967
0.00423498
0.00427001
0.00430176
0.00433016
0.00435518
0.0043768
0.004395
0.00440979
0.00442117
0.00442917
0.00443383
0.0044352
0.00443335
0.00442837
0.00442034
0.00440938
0.00439561
0.00437915
0.00436014
0.00433874
0.00431509
0.00428937
0.00426175
0.00423239
0.0042015
0.00416925
0.00413585
0.00410148
0.00406635
0.00403064
0.00399457
0.00395833
0.00392212
0.00388611
0.00385052
0.00381551
0.00378126
0.00374794
0.00371573
0.00368476
0.00365521
0.0036272
0.00360086
0.00357633
0.00355372
0.00353314
0.00351468
0.00349843
0.00348449
0.00347292
0.00346379
0.00345717
0.00345305
0.00345147
0.00345296
0.00345789
0.000351217
0.000307139
0.00027062
0.000238711
0.000208351