/*--------------------------------*- C++ -*----------------------------------*\
  =========                 |
  \\      /  F ield         | OpenFOAM: The Open Source CFD Toolbox
   \\    /   O peration     | Website:  https://openfoam.org
    \\  /    A nd           | Version:  7
     \\/     M anipulation  |
\*---------------------------------------------------------------------------*/
FoamFile
{
    version     2.0;
    format      ascii;
    class       volScalarField;
    location    "0.5";
    object      p;
}
// * * * * * * * * * * * * * * * * * * * * * * * * * * * * * * * * * * * * * //

dimensions      [0 2 -2 0 0 0 0];

internalField   nonuniform List<scalar> 
25600
(
-1.02871e-09
-6.12433e-07
-4.97474e-06
-1.26312e-05
-2.26572e-05
-3.43163e-05
-4.69535e-05
-6.00041e-05
-7.30117e-05
-8.56114e-05
-9.75084e-05
-0.00010847
-0.000118319
-0.000126921
-0.000134178
-0.000140014
-0.000144373
-0.00014722
-0.000148537
-0.000148324
-0.000146584
-0.000143324
-0.000138552
-0.000132288
-0.000124556
-0.000115382
-0.000104787
-9.27901e-05
-7.94118e-05
-6.46765e-05
-4.86079e-05
-3.12264e-05
-1.25477e-05
7.41478e-06
2.86474e-05
5.11354e-05
7.48639e-05
9.98211e-05
0.000126
0.000153399
0.000182011
0.000211828
0.000242842
0.000275049
0.000308447
0.000343037
0.000378815
0.000415776
0.000453913
0.000493222
0.000533697
0.000575334
0.000618128
0.000662068
0.000707143
0.000753339
0.000800644
0.000849042
0.000898513
0.000949038
0.00100059
0.00105315
0.00110669
0.00116116
0.00121655
0.0012728
0.00132987
0.00138773
0.00144631
0.00150556
0.00156543
0.00162586
0.00168678
0.00174812
0.00180982
0.00187179
0.00193395
0.00199622
0.00205851
0.00212074
0.0021828
0.00224461
0.00230606
0.00236705
0.00242749
0.00248726
0.00254626
0.00260438
0.00266151
0.00271756
0.0027724
0.00282593
0.00287806
0.00292867
0.00297766
0.00302495
0.00307043
0.00311401
0.00315562
0.00319516
0.00323257
0.00326777
0.00330071
0.00333132
0.00335955
0.00338537
0.00340874
0.00342964
0.00344804
0.00346393
0.00347732
0.00348821
0.00349662
0.00350257
0.00350609
0.00350723
0.00350602
0.00350254
0.00349684
0.003489
0.00347909
0.0034672
0.00345342
0.00343786
0.00342061
0.0034018
0.00338152
0.00335991
0.0033371
0.0033132
0.00328835
0.00326268
0.00323634
0.00320946
0.00318218
0.00315464
0.00312699
0.00309938
0.00307194
0.00304481
0.00301816
0.00299212
0.00296683
0.00294245
0.00291912
0.00289698
0.00287619
0.00285689
0.00283923
0.00282335
0.0028094
0.00279752
0.00278783
0.00278043
0.00277538
0.00277269
0.00277221
0.00277362
0.00277623
0.00277895
1.05596e-08
-5.69212e-07
-4.33375e-06
-1.07579e-05
-1.91073e-05
-2.88428e-05
-3.94635e-05
-5.05087e-05
-6.15824e-05
-7.23593e-05
-8.25714e-05
-9.1995e-05
-0.00010045
-0.000107798
-0.000113935
-0.000118782
-0.000122277
-0.000124372
-0.00012504
-0.000124269
-0.000122054
-0.000118396
-0.000113298
-0.00010677
-9.88276e-05
-8.94907e-05
-7.87758e-05
-6.66983e-05
-5.32761e-05
-3.8529e-05
-2.24748e-05
-5.12972e-06
1.34909e-05
3.33725e-05
5.45029e-05
7.6871e-05
0.000100464
0.000125272
0.000151287
0.000178504
0.000206918
0.00023652
0.000267305
0.000299267
0.000332404
0.000366714
0.000402193
0.000438834
0.000476632
0.00051558
0.000555673
0.000596904
0.000639267
0.00068275
0.000727341
0.000773027
0.000819792
0.00086762
0.000916492
0.000966386
0.00101728
0.00106914
0.00112195
0.00117566
0.00123025
0.00128567
0.00134188
0.00139883
0.00145647
0.00151476
0.00157363
0.00163302
0.00169288
0.00175312
0.00181369
0.0018745
0.00193548
0.00199655
0.00205761
0.00211858
0.00217938
0.0022399
0.00230005
0.00235974
0.00241886
0.00247731
0.00253499
0.00259179
0.00264762
0.00270236
0.00275592
0.00280819
0.00285907
0.00290846
0.00295627
0.00300241
0.00304677
0.00308929
0.00312987
0.00316843
0.00320492
0.00323926
0.00327139
0.00330126
0.00332882
0.00335403
0.00337687
0.0033973
0.00341531
0.0034309
0.00344406
0.0034548
0.00346314
0.00346909
0.00347271
0.00347401
0.00347306
0.0034699
0.00346461
0.00345725
0.00344789
0.00343663
0.00342356
0.00340877
0.00339236
0.00337445
0.00335514
0.00333455
0.00331281
0.00329004
0.00326637
0.00324192
0.00321684
0.00319126
0.00316531
0.00313913
0.00311286
0.00308664
0.00306062
0.00303491
0.00300968
0.00298506
0.00296118
0.00293818
0.0029162
0.00289537
0.00287584
0.00285773
0.00284118
0.0028263
0.00281322
0.00280205
0.00279286
0.00278574
0.0027807
0.0027777
0.00277659
0.00277711
0.00277895
0.00278166
3.53966e-06
2.54766e-06
-1.12007e-06
-6.9846e-06
-1.44384e-05
-2.30496e-05
-3.24104e-05
-4.21379e-05
-5.18905e-05
-6.13796e-05
-7.03641e-05
-7.864e-05
-8.60349e-05
-9.24117e-05
-9.76663e-05
-0.000101718
-0.000104504
-0.000105974
-0.000106096
-0.000104848
-0.00010222
-9.82061e-05
-9.28097e-05
-8.60369e-05
-7.78963e-05
-6.8399e-05
-5.75583e-05
-4.53893e-05
-3.1909e-05
-1.71334e-05
-1.07488e-06
1.62548e-05
3.48406e-05
5.46672e-05
7.57223e-05
9.79966e-05
0.000121481
0.000146167
0.000172048
0.000199115
0.000227362
0.000256782
0.000287371
0.000319123
0.000352037
0.000386108
0.000421332
0.0004577
0.000495207
0.000533846
0.000573613
0.000614499
0.000656496
0.000699593
0.000743776
0.000789032
0.000835344
0.000882695
0.000931066
0.000980435
0.00103078
0.00108207
0.00113427
0.00118736
0.00124129
0.00129603
0.00135153
0.00140775
0.00146464
0.00152214
0.0015802
0.00163875
0.00169775
0.00175711
0.00181678
0.00187667
0.0019367
0.0019968
0.00205688
0.00211686
0.00217665
0.00223615
0.00229528
0.00235393
0.00241201
0.00246942
0.00252606
0.00258183
0.00263662
0.00269034
0.00274289
0.00279416
0.00284406
0.0028925
0.00293937
0.0029846
0.00302808
0.00306975
0.00310952
0.00314732
0.00318307
0.00321672
0.00324821
0.00327748
0.0033045
0.00332922
0.00335161
0.00337166
0.00338935
0.00340467
0.00341762
0.00342821
0.00343645
0.00344238
0.00344603
0.00344743
0.00344663
0.00344369
0.00343868
0.00343165
0.00342269
0.00341188
0.00339932
0.00338509
0.0033693
0.00335205
0.00333345
0.00331363
0.00329269
0.00327077
0.00324798
0.00322446
0.00320034
0.00317574
0.0031508
0.00312566
0.00310045
0.00307531
0.00305036
0.00302575
0.00300161
0.00297807
0.00295527
0.00293332
0.00291238
0.00289255
0.00287397
0.00285676
0.00284103
0.0028269
0.00281446
0.00280381
0.00279502
0.00278812
0.00278314
0.00278004
0.0027787
0.00277894
0.00278078
0.00278426
1.04879e-05
8.38582e-06
4.26733e-06
-1.56162e-06
-8.68459e-06
-1.6728e-05
-2.53487e-05
-3.42309e-05
-4.30846e-05
-5.16545e-05
-5.9726e-05
-6.71175e-05
-7.3674e-05
-7.92685e-05
-8.37985e-05
-8.71816e-05
-8.93565e-05
-9.02789e-05
-8.99145e-05
-8.82369e-05
-8.52283e-05
-8.08819e-05
-7.51999e-05
-6.81868e-05
-5.98467e-05
-5.01859e-05
-3.92132e-05
-2.69421e-05
-1.33892e-05
1.43108e-06
1.751e-05
3.48388e-05
5.34047e-05
7.31929e-05
9.41909e-05
0.00011639
0.000139783
0.000164363
0.000190124
0.000217057
0.000245156
0.000274414
0.000304825
0.000336386
0.000369095
0.000402948
0.000437938
0.000474058
0.000511299
0.000549657
0.000589126
0.000629699
0.000671366
0.000714114
0.000757931
0.0008028
0.000848707
0.000895633
0.000943559
0.000992463
0.00104232
0.0010931
0.00114478
0.00119732
0.00125068
0.00130483
0.00135972
0.00141531
0.00147154
0.00152836
0.00158573
0.00164358
0.00170184
0.00176046
0.00181936
0.00187846
0.0019377
0.00199699
0.00205625
0.00211539
0.00217434
0.00223299
0.00229126
0.00234904
0.00240626
0.0024628
0.00251858
0.00257348
0.00262742
0.00268029
0.002732
0.00278245
0.00283154
0.00287918
0.00292528
0.00296975
0.0030125
0.00305347
0.00309256
0.00312971
0.00316485
0.00319792
0.00322886
0.00325763
0.00328417
0.00330847
0.00333048
0.00335019
0.00336758
0.00338264
0.00339539
0.00340582
0.00341396
0.00341983
0.00342346
0.0034249
0.00342419
0.00342138
0.00341655
0.00340975
0.00340107
0.00339059
0.00337839
0.00336457
0.00334924
0.00333249
0.00331444
0.0032952
0.00327489
0.00325362
0.00323153
0.00320873
0.00318536
0.00316154
0.00313741
0.0031131
0.00308873
0.00306444
0.00304036
0.00301662
0.00299336
0.00297069
0.00294874
0.00292765
0.00290752
0.00288849
0.00287067
0.00285416
0.00283908
0.00282553
0.0028136
0.00280336
0.00279487
0.00278818
0.00278331
0.00278023
0.00277888
0.00277915
0.00278131
0.00278568
2.00531e-05
1.62809e-05
1.12908e-05
5.14553e-06
-1.98135e-06
-9.77911e-06
-1.79574e-05
-2.62604e-05
-3.44496e-05
-4.23072e-05
-4.96428e-05
-5.62954e-05
-6.21322e-05
-6.70402e-05
-7.09224e-05
-7.37e-05
-7.5314e-05
-7.57224e-05
-7.4893e-05
-7.27987e-05
-6.94194e-05
-6.47461e-05
-5.87785e-05
-5.15189e-05
-4.29695e-05
-3.31345e-05
-2.2021e-05
-9.6395e-06
3.99651e-06
1.8875e-05
3.49877e-05
5.23266e-05
7.08807e-05
9.06377e-05
0.000111587
0.000133719
0.00015703
0.000181511
0.000207156
0.000233959
0.000261914
0.000291013
0.000321251
0.000352625
0.000385133
0.00041877
0.00045353
0.000489404
0.000526385
0.000564467
0.000603645
0.00064391
0.000685253
0.000727662
0.000771122
0.000815617
0.000861132
0.000907648
0.000955147
0.00100361
0.001053
0.0011033
0.00115448
0.0012065
0.00125932
0.00131291
0.00136723
0.00142222
0.00147784
0.00153404
0.00159076
0.00164795
0.00170553
0.00176346
0.00182165
0.00188004
0.00193854
0.00199709
0.0020556
0.00211398
0.00217216
0.00223003
0.00228752
0.00234453
0.00240096
0.00245672
0.00251171
0.00256584
0.002619
0.00267111
0.00272206
0.00277176
0.00282012
0.00286704
0.00291244
0.00295622
0.00299832
0.00303864
0.00307712
0.00311367
0.00314825
0.00318079
0.00321123
0.00323952
0.00326563
0.00328953
0.00331117
0.00333055
0.00334765
0.00336246
0.003375
0.00338526
0.00339327
0.00339904
0.00340263
0.00340406
0.00340338
0.00340065
0.00339594
0.0033893
0.00338083
0.00337059
0.00335868
0.00334519
0.00333023
0.00331389
0.00329628
0.00327753
0.00325773
0.00323702
0.00321551
0.00319333
0.0031706
0.00314745
0.00312401
0.00310041
0.00307677
0.00305323
0.00302991
0.00300693
0.00298443
0.00296252
0.00294132
0.00292097
0.00290156
0.00288322
0.00286605
0.00285016
0.00283564
0.00282259
0.00281109
0.00280121
0.00279299
0.0027865
0.00278175
0.00277875
0.00277745
0.00277781
0.00278026
0.00278528
3.14439e-05
2.56886e-05
1.95339e-05
1.27939e-05
5.39073e-06
-2.42866e-06
-1.04203e-05
-1.83776e-05
-2.61104e-05
-3.34404e-05
-4.02045e-05
-4.62635e-05
-5.15013e-05
-5.58189e-05
-5.91314e-05
-6.13693e-05
-6.24781e-05
-6.24162e-05
-6.11514e-05
-5.86593e-05
-5.49231e-05
-4.99338e-05
-4.36875e-05
-3.61827e-05
-2.74199e-05
-1.74042e-05
-6.1434e-06
6.35445e-06
2.00805e-05
3.50258e-05
5.11824e-05
6.85416e-05
8.7093e-05
0.000106826
0.000127732
0.000149806
0.000173041
0.00019743
0.000222967
0.000249645
0.00027746
0.000306405
0.000336475
0.000367667
0.000399979
0.000433406
0.00046794
0.000503575
0.000540302
0.000578115
0.000617009
0.000656977
0.000698008
0.000740089
0.000783205
0.000827341
0.00087248
0.000918605
0.000965697
0.00101373
0.00106269
0.00111254
0.00116324
0.00121477
0.00126709
0.00132017
0.00137395
0.00142839
0.00148345
0.00153907
0.0015952
0.00165178
0.00170875
0.00176604
0.0018236
0.00188133
0.00193917
0.00199705
0.00205488
0.00211258
0.00217007
0.00222725
0.00228404
0.00234035
0.00239608
0.00245114
0.00250544
0.00255887
0.00261135
0.00266277
0.00271305
0.00276209
0.0028098
0.00285608
0.00290085
0.00294403
0.00298554
0.00302529
0.00306321
0.00309924
0.00313331
0.00316536
0.00319534
0.00322321
0.00324891
0.00327243
0.00329373
0.00331279
0.00332961
0.00334417
0.00335648
0.00336656
0.00337441
0.00338007
0.00338357
0.00338495
0.00338426
0.00338156
0.0033769
0.00337036
0.00336202
0.00335195
0.00334025
0.003327
0.00331232
0.00329629
0.00327903
0.00326066
0.00324128
0.00322101
0.00319998
0.0031783
0.00315611
0.00313352
0.00311066
0.00308766
0.00306464
0.00304172
0.00301904
0.00299671
0.00297486
0.0029536
0.00293305
0.00291332
0.00289453
0.00287678
0.00286017
0.0028448
0.00283076
0.00281813
0.002807
0.00279741
0.00278944
0.00278312
0.00277848
0.00277555
0.00277431
0.00277475
0.00277738
0.00278277
4.39854e-05
3.60901e-05
2.85865e-05
2.10447e-05
1.31479e-05
5.08855e-06
-2.93156e-06
-1.0749e-05
-1.82132e-05
-2.51815e-05
-3.15242e-05
-3.7125e-05
-4.18817e-05
-4.57076e-05
-4.85322e-05
-5.02981e-05
-5.09581e-05
-5.04722e-05
-4.88087e-05
-4.59466e-05
-4.18734e-05
-3.65816e-05
-3.00659e-05
-2.23216e-05
-1.33481e-05
-3.15155e-06
8.25988e-06
2.08796e-05
3.47015e-05
4.97189e-05
6.59253e-05
8.33122e-05
0.000101869
0.000121585
0.000142456
0.000164477
0.000187644
0.000211948
0.000237382
0.000263942
0.000291622
0.000320419
0.000350327
0.000381344
0.000413467
0.00044669
0.000481006
0.000516408
0.000552889
0.000590443
0.000629065
0.000668747
0.000709479
0.000751246
0.000794034
0.000837828
0.000882611
0.000928367
0.000975076
0.00102272
0.00107126
0.00112068
0.00117095
0.00122203
0.00127389
0.00132648
0.00137977
0.00143372
0.00148826
0.00154336
0.00159895
0.00165499
0.00171141
0.00176814
0.00182511
0.00188227
0.00193953
0.00199681
0.00205404
0.00211114
0.00216802
0.00222459
0.00228077
0.00233647
0.00239159
0.00244604
0.00249973
0.00255256
0.00260444
0.00265527
0.00270497
0.00275343
0.00280057
0.0028463
0.00289053
0.00293317
0.00297416
0.00301341
0.00305085
0.00308641
0.00312003
0.00315164
0.00318121
0.00320869
0.00323402
0.00325719
0.00327817
0.00329693
0.00331347
0.00332778
0.00333987
0.00334974
0.00335742
0.00336294
0.00336632
0.00336762
0.00336687
0.00336414
0.00335948
0.00335297
0.00334469
0.00333472
0.00332314
0.00331005
0.00329555
0.00327974
0.00326274
0.00324464
0.00322557
0.00320565
0.00318498
0.0031637
0.00314193
0.00311978
0.00309739
0.00307487
0.00305235
0.00302995
0.0030078
0.002986
0.00296468
0.00294396
0.00292394
0.00290474
0.00288646
0.00286919
0.00285305
0.00283811
0.00282446
0.00281219
0.00280135
0.00279201
0.00278423
0.00277805
0.0027735
0.00277063
0.00276942
0.00276989
0.00277257
0.00277806
5.70919e-05
4.70085e-05
3.80534e-05
2.95672e-05
2.10151e-05
1.25508e-05
4.33534e-06
-3.50835e-06
-1.08614e-05
-1.76135e-05
-2.36647e-05
-2.89219e-05
-3.32999e-05
-3.67262e-05
-3.91425e-05
-4.05024e-05
-4.07661e-05
-3.98989e-05
-3.78737e-05
-3.46733e-05
-3.02872e-05
-2.47091e-05
-1.79337e-05
-9.95698e-06
-7.79116e-07
9.59412e-06
2.11557e-05
3.39004e-05
4.78227e-05
6.29167e-05
7.91769e-05
9.65955e-05
0.000115162
0.000134868
0.000155711
0.000177686
0.000200789
0.000225013
0.00025035
0.000276797
0.000304349
0.000333004
0.000362757
0.000393604
0.000425543
0.000458569
0.000492675
0.000527853
0.000564097
0.000601401
0.000639762
0.000679171
0.000719617
0.000761085
0.000803561
0.00084703
0.000891477
0.000936886
0.000983237
0.00103051
0.00107867
0.0011277
0.00117756
0.00122823
0.00127966
0.00133182
0.00138466
0.00143815
0.00149223
0.00154686
0.00160197
0.00165752
0.00171344
0.00176967
0.00182615
0.00188279
0.00193953
0.00199629
0.002053
0.00210957
0.00216593
0.00222197
0.00227763
0.0023328
0.00238739
0.00244132
0.00249449
0.00254681
0.00259817
0.0026485
0.00269769
0.00274566
0.00279232
0.00283757
0.00288133
0.00292352
0.00296406
0.00300287
0.00303989
0.00307504
0.00310826
0.0031395
0.0031687
0.00319582
0.00322082
0.00324367
0.00326434
0.00328281
0.00329908
0.00331315
0.003325
0.00333467
0.00334216
0.00334751
0.00335074
0.00335191
0.00335106
0.00334825
0.00334354
0.003337
0.00332872
0.00331876
0.00330723
0.00329422
0.00327983
0.00326415
0.0032473
0.00322939
0.00321054
0.00319085
0.00317045
0.00314946
0.003128
0.00310619
0.00308415
0.00306201
0.00303988
0.00301789
0.00299615
0.00297478
0.00295389
0.0029336
0.00291401
0.00289523
0.00287736
0.0028605
0.00284472
0.00283013
0.0028168
0.00280481
0.00279421
0.00278506
0.00277743
0.00277134
0.00276685
0.002764
0.00276278
0.00276321
0.00276583
0.00277119
7.02794e-05
5.80204e-05
4.75692e-05
3.80499e-05
2.87283e-05
1.97334e-05
1.11962e-05
3.19918e-06
-4.17157e-06
-1.08316e-05
-1.67035e-05
-2.17158e-05
-2.5804e-05
-2.89123e-05
-3.0994e-05
-3.20102e-05
-3.19283e-05
-3.07215e-05
-2.83706e-05
-2.48632e-05
-2.01898e-05
-1.43439e-05
-7.32172e-06
8.78064e-07
1.02526e-05
2.07966e-05
3.25052e-05
4.53745e-05
5.93992e-05
7.45727e-05
9.08894e-05
0.000108342
0.000126922
0.000146623
0.000167442
0.000189377
0.000212422
0.00023657
0.000261814
0.000288153
0.000315583
0.000344102
0.000373705
0.00040439
0.000436152
0.000468987
0.000502889
0.000537852
0.000573868
0.000610934
0.000649045
0.000688192
0.000728365
0.000769549
0.00081173
0.000854893
0.000899024
0.000944108
0.000990124
0.00103705
0.00108486
0.00113353
0.00118302
0.0012333
0.00128435
0.00133611
0.00138855
0.00144163
0.0014953
0.00154951
0.0016042
0.00165932
0.0017148
0.00177059
0.00182662
0.00188282
0.00193912
0.00199543
0.00205169
0.00210782
0.00216372
0.00221932
0.00227452
0.00232925
0.0023834
0.00243689
0.00248962
0.0025415
0.00259244
0.00264234
0.00269112
0.00273868
0.00278492
0.00282977
0.00287314
0.00291494
0.0029551
0.00299354
0.0030302
0.00306499
0.00309787
0.00312877
0.00315765
0.00318445
0.00320915
0.0032317
0.00325209
0.0032703
0.00328631
0.00330012
0.00331175
0.00332119
0.00332848
0.00333363
0.00333669
0.0033377
0.0033367
0.00333376
0.00332895
0.00332232
0.00331397
0.00330397
0.00329242
0.00327941
0.00326504
0.00324941
0.00323263
0.00321482
0.00319608
0.00317654
0.00315631
0.00313551
0.00311427
0.00309269
0.00307091
0.00304904
0.0030272
0.0030055
0.00298408
0.00296303
0.00294248
0.00292252
0.00290327
0.00288482
0.00286727
0.00285071
0.00283523
0.00282091
0.00280782
0.00279604
0.00278562
0.00277661
0.00276908
0.00276305
0.00275858
0.00275569
0.00275441
0.00275474
0.00275719
0.00276227
8.31465e-05
6.87568e-05
5.68005e-05
4.62023e-05
3.6037e-05
2.64194e-05
1.74628e-05
9.21284e-06
1.72297e-06
-4.94491e-06
-1.07322e-05
-1.55872e-05
-1.94654e-05
-2.23277e-05
-2.41388e-05
-2.48677e-05
-2.44891e-05
-2.29854e-05
-2.03451e-05
-1.65604e-05
-1.16239e-05
-5.52986e-06
1.72309e-06
1.0133e-05
1.96948e-05
3.04032e-05
4.22544e-05
5.52457e-05
6.93718e-05
8.46253e-05
0.000100999
0.000118487
0.000137084
0.000156783
0.000177583
0.000199481
0.000222471
0.000246547
0.000271704
0.000297939
0.000325252
0.000353641
0.000383101
0.000413629
0.00044522
0.000477872
0.000511578
0.000546333
0.000582132
0.000618971
0.000656843
0.000695742
0.000735655
0.000776571
0.000818473
0.00086135
0.000905186
0.000949966
0.000995672
0.00104228
0.00108977
0.0011381
0.00118726
0.0012372
0.00128789
0.0013393
0.00139138
0.0014441
0.0014974
0.00155124
0.00160556
0.0016603
0.00171541
0.00177082
0.00182647
0.00188229
0.00193821
0.00199415
0.00205003
0.00210578
0.00216131
0.00221654
0.00227138
0.00232574
0.00237953
0.00243265
0.00248503
0.00253656
0.00258715
0.0026367
0.00268514
0.00273236
0.00277827
0.00282279
0.00286584
0.00290732
0.00294717
0.0029853
0.00302165
0.00305615
0.00308873
0.00311935
0.00314794
0.00317446
0.00319888
0.00322117
0.00324129
0.00325924
0.003275
0.00328857
0.00329996
0.00330917
0.00331624
0.00332118
0.00332403
0.00332485
0.00332367
0.00332056
0.00331559
0.00330883
0.00330035
0.00329024
0.0032786
0.00326552
0.00325109
0.00323543
0.00321865
0.00320085
0.00318214
0.00316265
0.0031425
0.0031218
0.00310067
0.00307923
0.0030576
0.0030359
0.00301425
0.00299277
0.00297156
0.00295074
0.00293042
0.00291071
0.0028917
0.00287349
0.00285618
0.00283985
0.00282458
0.00281046
0.00279755
0.00278592
0.00277562
0.0027667
0.00275922
0.00275321
0.00274871
0.00274576
0.00274437
0.00274454
0.00274674
0.00275143
9.53549e-05
7.88966e-05
6.54488e-05
5.37533e-05
4.27042e-05
3.24035e-05
2.29519e-05
1.43691e-05
6.68173e-06
-7.14639e-08
-5.85188e-06
-1.0626e-05
-1.43656e-05
-1.70453e-05
-1.8641e-05
-1.9132e-05
-1.85031e-05
-1.67445e-05
-1.38506e-05
-9.81735e-06
-4.64054e-06
1.68177e-06
9.14729e-06
1.77518e-05
2.74896e-05
3.83547e-05
5.03436e-05
6.34532e-05
7.76777e-05
9.30085e-05
0.000109439
0.000126963
0.000145578
0.000165278
0.000186061
0.000207925
0.000230864
0.000254872
0.000279944
0.000306082
0.000333283
0.000361547
0.000390869
0.000421245
0.000452673
0.000485148
0.000518667
0.000553224
0.000588816
0.000625437
0.000663084
0.000701747
0.000741416
0.000782078
0.00082372
0.000866328
0.00090989
0.000954391
0.000999811
0.00104613
0.00109332
0.00114135
0.0011902
0.00123983
0.00129021
0.00134131
0.00139308
0.00144547
0.00149846
0.00155198
0.00160598
0.0016604
0.00171519
0.00177029
0.00182563
0.00188113
0.00193674
0.00199237
0.00204795
0.00210339
0.00215862
0.00221356
0.0022681
0.00232217
0.00237567
0.00242852
0.00248062
0.00253187
0.00258219
0.00263148
0.00267965
0.00272661
0.00277226
0.00281653
0.00285932
0.00290055
0.00294015
0.00297803
0.00301414
0.00304839
0.00308072
0.00311109
0.00313944
0.00316572
0.0031899
0.00321194
0.00323182
0.00324952
0.00326504
0.00327837
0.00328951
0.00329849
0.00330531
0.00331002
0.00331265
0.00331324
0.00331184
0.00330853
0.00330335
0.0032964
0.00328774
0.00327747
0.00326567
0.00325245
0.0032379
0.00322214
0.00320526
0.00318739
0.00316864
0.00314912
0.00312895
0.00310825
0.00308715
0.00306575
0.00304419
0.00302257
0.00300102
0.00297965
0.00295857
0.00293788
0.00291771
0.00289815
0.0028793
0.00286125
0.0028441
0.00282792
0.0028128
0.00279881
0.00278602
0.00277448
0.00276425
0.00275537
0.0027479
0.00274187
0.00273731
0.00273425
0.00273271
0.00273268
0.00273457
0.00273879
0.000106612
8.81624e-05
7.32512e-05
6.04561e-05
4.85053e-05
3.74849e-05
2.74858e-05
1.85102e-05
1.05641e-05
3.66355e-06
-2.17333e-06
-6.93014e-06
-1.05916e-05
-1.31434e-05
-1.45732e-05
-1.4872e-05
-1.40352e-05
-1.20603e-05
-8.946e-06
-4.69183e-06
7.01954e-07
7.23179e-06
1.48913e-05
2.36748e-05
3.35762e-05
4.45891e-05
5.6709e-05
6.99317e-05
8.42496e-05
9.96538e-05
0.000116138
0.000133699
0.000152333
0.000172035
0.000192804
0.000214635
0.000237525
0.000261467
0.000286459
0.000312503
0.000339598
0.000367742
0.000396931
0.000427162
0.000458432
0.000490739
0.000524079
0.000558448
0.000593842
0.000630259
0.000667691
0.000706132
0.000745571
0.000785996
0.000827395
0.000869756
0.000913066
0.00095731
0.00100247
0.00104852
0.00109545
0.00114321
0.00119179
0.00124114
0.00129125
0.00134207
0.00139357
0.00144569
0.00149841
0.00155166
0.00160539
0.00165955
0.00171408
0.00176892
0.001824
0.00187926
0.00193462
0.00199001
0.00204535
0.00210057
0.00215557
0.00221028
0.00226461
0.00231846
0.00237176
0.0024244
0.00247629
0.00252735
0.00257747
0.00262657
0.00267455
0.00272132
0.00276678
0.00281086
0.00285347
0.00289451
0.00293392
0.00297162
0.00300753
0.00304158
0.00307372
0.00310389
0.00313203
0.0031581
0.00318206
0.00320388
0.00322354
0.00324101
0.0032563
0.00326939
0.00328029
0.00328901
0.00329559
0.00330005
0.00330242
0.00330276
0.00330111
0.00329755
0.00329213
0.00328493
0.00327605
0.00326555
0.00325354
0.00324011
0.00322538
0.00320944
0.0031924
0.00317438
0.00315549
0.00313586
0.0031156
0.00309482
0.00307366
0.00305222
0.00303063
0.00300901
0.00298746
0.00296611
0.00294507
0.00292444
0.00290433
0.00288484
0.00286607
0.00284811
0.00283104
0.00281494
0.0027999
0.00278598
0.00277324
0.00276174
0.00275153
0.00274265
0.00273515
0.00272906
0.0027244
0.00272121
0.00271949
0.00271922
0.00272078
0.00272449
0.000116662
9.63085e-05
7.99755e-05
6.60897e-05
5.32293e-05
4.14695e-05
3.08925e-05
2.14834e-05
1.32307e-05
6.13177e-06
1.86208e-07
-4.60419e-06
-8.23592e-06
-1.07063e-05
-1.2015e-05
-1.21642e-05
-1.11583e-05
-9.00112e-06
-5.69605e-06
-1.24728e-06
4.33917e-06
1.10547e-05
1.88899e-05
2.78371e-05
3.78898e-05
4.90406e-05
6.12835e-05
7.4612e-05
8.9017e-05
0.00010449
0.000121026
0.000138622
0.000157275
0.000176979
0.000197734
0.000219534
0.000242376
0.000266255
0.00029117
0.000317125
0.000344119
0.000372148
0.000401209
0.0004313
0.000462419
0.000494565
0.000527736
0.000561927
0.000597135
0.000633357
0.000670588
0.000708821
0.000748046
0.000788251
0.000829425
0.000871558
0.000914637
0.000958648
0.00100357
0.00104939
0.00109607
0.0011436
0.00119194
0.00124106
0.00129093
0.00134152
0.00139278
0.00144468
0.00149717
0.0015502
0.00160372
0.00165767
0.001712
0.00176664
0.00182153
0.0018766
0.00193178
0.00198699
0.00204217
0.00209722
0.00215207
0.00220663
0.00226081
0.00231452
0.00236768
0.00242019
0.00247196
0.00252289
0.0025729
0.00262188
0.00266974
0.00271639
0.00276174
0.0028057
0.00284818
0.0028891
0.00292838
0.00296594
0.00300171
0.00303563
0.00306761
0.00309762
0.00312559
0.00315148
0.00317526
0.00319688
0.00321633
0.00323359
0.00324865
0.0032615
0.00327215
0.00328063
0.00328694
0.00329113
0.00329323
0.00329329
0.00329136
0.00328751
0.00328181
0.00327433
0.00326516
0.00325438
0.0032421
0.00322842
0.00321342
0.00319724
0.00317997
0.00316173
0.00314264
0.00312281
0.00310237
0.00308144
0.00306013
0.00303857
0.00301687
0.00299515
0.00297354
0.00295213
0.00293104
0.00291038
0.00289026
0.00287076
0.002852
0.00283404
0.00281699
0.00280091
0.00278588
0.00277197
0.00275923
0.00274772
0.00273749
0.00272857
0.002721
0.00271482
0.00271004
0.00270669
0.00270476
0.00270424
0.00270545
0.00270865
0.000125277
0.000103111
8.54092e-05
7.04518e-05
5.66835e-05
4.41774e-05
3.30063e-05
2.31372e-05
1.45424e-05
7.20445e-06
1.10892e-06
-3.75505e-06
-7.39648e-06
-9.82535e-06
-1.10528e-05
-1.10906e-05
-9.94998e-06
-7.64053e-06
-4.17147e-06
4.46449e-07
6.20153e-06
1.30814e-05
2.1074e-05
3.01701e-05
4.03617e-05
5.164e-05
6.39962e-05
7.74216e-05
9.19067e-05
0.000107444
0.000124028
0.000141658
0.000160328
0.000180034
0.000200773
0.000222543
0.000245338
0.000269157
0.000294
0.000319868
0.000346764
0.000374683
0.000403623
0.00043358
0.000464554
0.000496548
0.000529557
0.000563581
0.000598614
0.000634654
0.000671697
0.000709735
0.000748761
0.000788763
0.000829733
0.000871658
0.000914529
0.000958331
0.00100305
0.00104865
0.00109513
0.00114245
0.00119058
0.0012395
0.00128917
0.00133957
0.00139064
0.00144236
0.00149468
0.00154754
0.00160089
0.00165469
0.00170887
0.00176336
0.00181812
0.00187306
0.00192813
0.00198324
0.00203831
0.00209327
0.00214803
0.00220251
0.00225662
0.00231027
0.00236337
0.00241582
0.00246754
0.00251842
0.00256837
0.0026173
0.00266512
0.00271172
0.00275702
0.00280092
0.00284335
0.00288421
0.00292342
0.0029609
0.00299659
0.0030304
0.00306228
0.00309217
0.00312001
0.00314576
0.00316937
0.00319082
0.00321008
0.00322714
0.00324198
0.0032546
0.003265
0.00327322
0.00327926
0.00328316
0.00328496
0.00328472
0.00328248
0.00327831
0.00327228
0.00326448
0.00325498
0.00324388
0.00323127
0.00321726
0.00320196
0.00318546
0.00316789
0.00314937
0.00313
0.00310991
0.00308921
0.00306804
0.00304652
0.00302475
0.00300286
0.00298097
0.0029592
0.00293766
0.00291645
0.00289569
0.00287547
0.0028559
0.00283706
0.00281905
0.00280195
0.00278582
0.00277075
0.00275679
0.00274401
0.00273244
0.00272214
0.00271314
0.00270548
0.00269918
0.00269425
0.00269073
0.00268858
0.00268781
0.00268867
0.00269138
0.000132257
0.000108368
8.93525e-05
7.33544e-05
5.86928e-05
4.54418e-05
3.36683e-05
2.3322e-05
1.43605e-05
6.7546e-06
4.78733e-07
-4.49063e-06
-8.1755e-06
-1.05976e-05
-1.17783e-05
-1.17369e-05
-1.04908e-05
-8.05595e-06
-4.44882e-06
3.13482e-07
6.21458e-06
1.32389e-05
2.13718e-05
3.06022e-05
4.09202e-05
5.23142e-05
6.47728e-05
7.8286e-05
9.2844e-05
0.00010844
0.000125069
0.000142729
0.000161415
0.000181121
0.000201843
0.000223581
0.000246331
0.000270093
0.000294866
0.000320652
0.000347453
0.000375267
0.000404089
0.000433918
0.000464757
0.000496605
0.000529463
0.000563329
0.000598198
0.000634068
0.000670936
0.000708795
0.000747637
0.000787455
0.000828239
0.000869978
0.000912663
0.000956279
0.00100081
0.00104624
0.00109253
0.00113967
0.00118764
0.00123639
0.0012859
0.00133615
0.00138708
0.00143866
0.00149085
0.00154359
0.00159683
0.00165052
0.00170461
0.00175902
0.0018137
0.00186859
0.0019236
0.00197866
0.0020337
0.00208864
0.00214338
0.00219785
0.00225196
0.00230561
0.00235872
0.00241119
0.00246292
0.00251382
0.0025638
0.00261276
0.00266059
0.00270722
0.00275253
0.00279645
0.00283888
0.00287973
0.00291893
0.00295639
0.00299204
0.00302581
0.00305762
0.00308743
0.00311517
0.00314081
0.00316429
0.00318559
0.00320468
0.00322155
0.00323617
0.00324856
0.00325872
0.00326667
0.00327243
0.00327603
0.00327752
0.00327694
0.00327436
0.00326984
0.00326345
0.00325528
0.00324541
0.00323394
0.00322096
0.00320657
0.00319089
0.00317403
0.0031561
0.00313721
0.0031175
0.00309707
0.00307605
0.00305457
0.00303275
0.0030107
0.00298855
0.00296642
0.00294442
0.00292266
0.00290126
0.00288032
0.00285994
0.00284022
0.00282125
0.00280312
0.0027859
0.00276967
0.0027545
0.00274045
0.00272757
0.0027159
0.0027055
0.00269639
0.00268861
0.00268217
0.00267708
0.00267337
0.00267101
0.00266998
0.00267051
0.00267277
0.000137431
0.0001119
9.16259e-05
7.46248e-05
5.90928e-05
4.5105e-05
3.27265e-05
2.18933e-05
1.25504e-05
4.65823e-06
-1.82018e-06
-6.92091e-06
-1.06779e-05
-1.3123e-05
-1.42854e-05
-1.41913e-05
-1.28648e-05
-1.03294e-05
-6.60869e-06
-1.72527e-06
4.30074e-06
1.14509e-05
1.97083e-05
2.90592e-05
3.94904e-05
5.09873e-05
6.35368e-05
7.71285e-05
9.17527e-05
0.000107401
0.000124071
0.000141758
0.000160456
0.000180159
0.000200864
0.000222569
0.000245276
0.000268982
0.000293687
0.000319395
0.000346105
0.000373816
0.000402526
0.000432234
0.000462944
0.000494656
0.000527373
0.000561091
0.000595807
0.00063152
0.000668225
0.000705919
0.000744596
0.000784247
0.000824865
0.000866439
0.00090896
0.000952416
0.000996789
0.00104206
0.00108821
0.00113521
0.00118303
0.00123166
0.00128105
0.00133118
0.00138201
0.0014335
0.0014856
0.00153827
0.00159146
0.0016451
0.00169914
0.00175353
0.0018082
0.00186308
0.0019181
0.00197319
0.00202826
0.00208323
0.00213803
0.00219256
0.00224674
0.00230047
0.00235365
0.00240621
0.00245803
0.00250903
0.0025591
0.00260815
0.00265607
0.00270278
0.00274818
0.00279217
0.00283467
0.00287558
0.00291482
0.00295231
0.00298798
0.00302174
0.00305353
0.0030833
0.00311098
0.00313653
0.00315991
0.00318108
0.00320002
0.00321671
0.00323113
0.0032433
0.00325321
0.00326088
0.00326634
0.00326963
0.00327079
0.00326986
0.00326691
0.00326201
0.00325523
0.00324665
0.00323637
0.00322447
0.00321106
0.00319625
0.00318014
0.00316285
0.00314449
0.00312519
0.00310506
0.00308423
0.00306282
0.00304096
0.00301877
0.00299637
0.00297388
0.00295143
0.00292913
0.00290709
0.00288543
0.00286424
0.00284363
0.0028237
0.00280453
0.00278622
0.00276883
0.00275245
0.00273713
0.00272293
0.00270991
0.00269811
0.00268758
0.00267833
0.0026704
0.0026638
0.00265855
0.00265465
0.00265207
0.00265081
0.00265103
0.00265289
0.000140643
0.000113548
9.20701e-05
7.41034e-05
5.7727e-05
4.30163e-05
3.00365e-05
1.87145e-05
8.98397e-06
7.93721e-07
-5.90454e-06
-1.11579e-05
-1.50103e-05
-1.75018e-05
-1.86686e-05
-1.85439e-05