/*--------------------------------*- C++ -*----------------------------------*\
  =========                 |
  \\      /  F ield         | OpenFOAM: The Open Source CFD Toolbox
   \\    /   O peration     | Website:  https://openfoam.org
    \\  /    A nd           | Version:  7
     \\/     M anipulation  |
\*---------------------------------------------------------------------------*/
FoamFile
{
    version     2.0;
    format      ascii;
    class       volScalarField;
    location    "0.275";
    object      p;
}
// * * * * * * * * * * * * * * * * * * * * * * * * * * * * * * * * * * * * * //

dimensions      [0 2 -2 0 0 0 0];

internalField   nonuniform List<scalar> 
6400
(
1.32612e-05
3.50652e-05
-0.000469817
-0.00150231
-0.0029443
-0.00468554
-0.00662575
-0.00867541
-0.0107573
-0.0128061
-0.0147665
-0.0165925
-0.0182456
-0.0196942
-0.0209123
-0.0218792
-0.022579
-0.0229993
-0.0231316
-0.0229707
-0.022514
-0.0217616
-0.0207158
-0.0193814
-0.0177647
-0.0158739
-0.013719
-0.0113112
-0.00866318
-0.00578879
-0.00270302
0.000578089
0.00403757
0.00765757
0.0114194
0.0153038
0.0192905
0.0233592
0.0274886
0.0316572
0.0358433
0.0400248
0.0441794
0.0482849
0.052319
0.0562597
0.0600851
0.0637738
0.067305
0.0706584
0.0738145
0.076755
0.0794623
0.0819205
0.0841148
0.0860323
0.0876619
0.0889942
0.0900224
0.0907418
0.0911505
0.0912494
0.0910426
0.0905374
0.0897448
0.08868
0.0873621
0.0858154
0.0840692
0.0821588
0.0801258
0.0780195
0.0758973
0.0738262
0.0718838
0.0701585
0.0687473
0.0677544
0.0672864
0.0673239
1.1091e-05
2.55312e-05
-0.000427711
-0.00131073
-0.00252419
-0.00398894
-0.00562912
-0.00737238
-0.00915347
-0.0109151
-0.0126077
-0.0141887
-0.0156219
-0.0168772
-0.0179294
-0.0187581
-0.0193472
-0.0196841
-0.0197599
-0.0195683
-0.0191062
-0.0183728
-0.0173694
-0.0160996
-0.0145689
-0.0127844
-0.0107547
-0.00849006
-0.00600196
-0.00330305
-0.000407129
0.00267099
0.00591556
0.00930997
0.0128368
0.016478
0.0202148
0.024028
0.0278977
0.0318038
0.035726
0.0396435
0.0435355
0.0473812
0.0511599
0.0548509
0.0584339
0.0618891
0.065197
0.0683389
0.0712969
0.0740541
0.0765944
0.0789033
0.0809677
0.0827757
0.0843176
0.0855853
0.0865731
0.0872775
0.0876974
0.0878345
0.0876934
0.0872821
0.0866118
0.0856975
0.0845581
0.0832171
0.0817024
0.0800475
0.078291
0.076478
0.07466
0.0728953
0.0712494
0.0697935
0.0686008
0.0677461
0.0673229
0.0673613
0.000519199
0.000481042
2.7301e-05
-0.000788324
-0.00187867
-0.00318047
-0.00463257
-0.0061749
-0.00775185
-0.00931338
-0.0108152
-0.0122186
-0.0134903
-0.0146018
-0.0155294
-0.0162536
-0.0167583
-0.0170315
-0.0170637
-0.0168488
-0.0163829
-0.0156647
-0.0146951
-0.0134768
-0.0120146
-0.0103146
-0.00838492
-0.00623465
-0.00387441
-0.00131593
0.00142796
0.00434342
0.0074157
0.0106292
0.0139676
0.0174138
0.0209501
0.0245584
0.02822
0.0319159
0.0356267
0.0393329
0.043015
0.0466532
0.0502279
0.0537198
0.0571098
0.0603791
0.0635095
0.0664835
0.0692845
0.0718964
0.0743047
0.0764958
0.0784575
0.0801793
0.0816521
0.0828689
0.0838248
0.0845169
0.0849447
0.0851105
0.0850192
0.0846788
0.0841005
0.0832988
0.082292
0.0811026
0.0797568
0.0782858
0.0767253
0.0751162
0.0735042
0.0719406
0.070481
0.0691848
0.0681112
0.0673204
0.0668981
0.0668954
0.00155223
0.00136708
0.000843489
2.45141e-05
-0.00102325
-0.00224628
-0.00359282
-0.00501217
-0.00645671
-0.00788288
-0.00925146
-0.0105277
-0.0116814
-0.0126863
-0.0135203
-0.014165
-0.0146054
-0.0148295
-0.0148285
-0.014596
-0.0141282
-0.0134234
-0.0124821
-0.0113067
-0.00990114
-0.0082713
-0.00642434
-0.00436883
-0.00211459
0.000327388
0.00294507
0.00572545
0.00865461
0.0117178
0.0148996
0.0181838
0.0215536
0.0249918
0.0284807
0.0320021
0.0355377
0.039069
0.0425773
0.0460439
0.0494503
0.0527779
0.0560088
0.0591251
0.0621097
0.064946
0.0676182
0.0701113
0.0724117
0.0745065
0.0763845
0.0780359
0.0794523
0.0806274
0.0815567
0.0822378
0.0826707
0.0828577
0.0828039
0.082517
0.0820079
0.0812905
0.0803822
0.0793039
0.0780802
0.0767398
0.0753152
0.0738432
0.0723646
0.070924
0.0695695
0.0683514
0.0673202
0.0665275
0.0660414
0.0659057
0.00300095
0.00258938
0.00193792
0.001066
1.07529e-05
-0.001183
-0.00247139
-0.00381214
-0.00516498
-0.00649242
-0.00776025
-0.00893778
-0.00999786
-0.0109169
-0.0116746
-0.0122541
-0.0126412
-0.012825
-0.0127968
-0.0125506
-0.0120826
-0.0113911
-0.0104762
-0.00934014
-0.0079865
-0.00642054
-0.00464892
-0.00267961
-0.000521804
0.00181421
0.00431709
0.00697457
0.0097735
0.0127
0.0157393
0.0188761
0.0220945
0.0253781
0.02871
0.032073
0.0354496
0.0388223
0.0421731
0.0454844
0.0487385
0.0519177
0.055005
0.0579834
0.0608367
0.063549
0.0661055
0.068492
0.0706955
0.072704
0.0745069
0.076095
0.0774606
0.0785979
0.0795026
0.0801728
0.0806085
0.0808121
0.0807886
0.0805454
0.0800927
0.0794437
0.0786147
0.0776249
0.0764971
0.0752571
0.0739346
0.072562
0.0711753
0.0698132
0.0685167
0.0673282
0.066291
0.0654486
0.0648424
0.0644946
0.00476322
0.00407487
0.00325245
0.00228731
0.00118323
-2.27642e-05
-0.00129342
-0.00259405
-0.00389109
-0.00515269
-0.0063494
-0.00745445
-0.00844393
-0.00929681
-0.00999493
-0.0105229
-0.0108679
-0.0110198
-0.0109705
-0.0107146
-0.0102483
-0.00957007
-0.00868005
-0.00758008
-0.00627357
-0.00476538
-0.00306174
-0.00117011
0.00090087
0.00314148
0.00554103
0.0080879
0.0107697
0.0135731
0.0164842
0.0194885
0.0225708
0.0257154
0.0289064
0.0321272
0.0353613
0.0385918
0.0418017
0.0449741
0.0480921
0.051139
0.0540982
0.0569538
0.0596902
0.0622924
0.0647462
0.0670381
0.0691558
0.0710878
0.0728242
0.0743562
0.0756766
0.0767797
0.0776618
0.0783209
0.0787572
0.0789729
0.0789727
0.0787636
0.0783551
0.0777594
0.0769914
0.0760688
0.0750123
0.0738451
0.0725936
0.0712865
0.0699551
0.0686327
0.0673538
0.0661539
0.0650699
0.0641384
0.0633692
0.0627583
0.00674832
0.00575501
0.00473183
0.00364191
0.00245509
0.0012019
-8.58768e-05
-0.00138021
-0.00265353
-0.00387914
-0.00503198
-0.00608906
-0.00702961
-0.00783519
-0.00848976
-0.00897961
-0.00929331
-0.00942163
-0.00935747
-0.00909571
-0.00863312
-0.00796827
-0.00710138
-0.00603421
-0.00477001
-0.00331338
-0.00167018
0.0001525
0.00214649
0.00430258
0.00661061
0.00905956
0.0116376
0.0143321
0.0171299
0.020017
0.022979
0.026001
0.0290675
0.032163
0.0352715
0.0383769
0.0414629
0.0445133
0.0475119
0.0504428
0.0532901
0.0560384
0.0586729
0.0611791
0.0635435
0.0657532
0.0677963
0.069662
0.0713405
0.0728237
0.0741044
0.0751773
0.0760388
0.0766869
0.0771217
0.0773452
0.0773616
0.0771773
0.0768011
0.076244
0.0755197
0.0746442
0.0736359
0.0725157
0.0713067
0.0700343
0.0687253
0.0674082
0.0661119
0.0648655
0.063701
0.0626489
0.0616868
0.0607836
0.008877
0.00756528
0.00632229
0.00508445
0.00378886
0.00246077
0.00112762
-0.000188359
-0.00146492
-0.00267996
-0.00381248
-0.00484299
-0.00575372
-0.00652878
-0.00715421
-0.00761805
-0.00791027
-0.00802276
-0.00794928
-0.00768536
-0.00722827
-0.00657687
-0.00573153
-0.00469408
-0.00346766
-0.00205672
-0.000466868
0.00129513
0.00322146
0.00530333
0.00753106
0.00989413
0.0123812
0.0149804
0.0176789
0.0204634
0.0233202
0.026235
0.0291929
0.0321791
0.0351781
0.0381745
0.0411528
0.0440974
0.0469926
0.0498231
0.0525736
0.0552294
0.0577762
0.0601999
0.0624876
0.0646268
0.0666061
0.0684149
0.070044
0.0714851
0.0727316
0.0737782
0.0746211
0.0752585
0.07569
0.0759174
0.0759443
0.0757766
0.0754221
0.0748907
0.0741946
0.0733482
0.0723679
0.0712722
0.0700812
0.0688169
0.0675026
0.0661622
0.0648197
0.0634988
0.0622274
0.0610313
0.0598566
0.0586466
0.0110823
0.00944822
0.00797435
0.00657242
0.00514863
0.00372419
0.00232316
0.000962762
-0.000339369
-0.00156523
-0.00269747
-0.00371984
-0.00461737
-0.0053766
-0.00598563
-0.0064342
-0.00671371
-0.00681723
-0.00673945
-0.00647663
-0.0060266
-0.0053886
-0.00456327
-0.00355253
-0.00235957
-0.00098873
0.000554533
0.00226369
0.00413123
0.0061487
0.00830681
0.0105955
0.0130039
0.0155205
0.0181331
0.0208291
0.023595
0.0264173
0.0292817
0.0321737
0.0350787
0.0379818
0.0408678
0.0437218
0.0465288
0.0492738
0.0519422
0.0545195
0.056992
0.0593462
0.0615693
0.0636492
0.0655749
0.0673361
0.0689237
0.0703296
0.0715472
0.0725712
0.0733978
0.0740248
0.0744517
0.0746798
0.0747122
0.0745538
0.0742116
0.0736945
0.0730132
0.0721803
0.0712104
0.0701197
0.0689257
0.0676473
0.0663043
0.0649171
0.0635052
0.0620876
0.0606894
0.0593325
0.0579335
0.0564116
0.0133082
0.0113537
0.00964357
0.00806673
0.0065006
0.00496342
0.00347671
0.00205351
0.000707421
-0.000547122
-0.00169604
-0.00272602
-0.0036247
-0.00438086
-0.0049846
-0.00542732
-0.00570184
-0.00580242
-0.00572471
-0.00546577
-0.00502402
-0.00439918
-0.00359219
-0.0026052
-0.00144144
-0.000105267
0.00139796
0.00306187
0.00487917
0.0068417
0.00894048
0.0111658
0.0135072
0.0159536
0.0184934
0.0211142
0.0238032
0.0265472
0.0293325
0.0321452
0.034971
0.0377955
0.0406042
0.0433825
0.0461159
0.0487898
0.05139
0.0539025
0.0563138
0.0586108
0.060781
0.0628126
0.0646947
0.0664173
0.0679712
0.0693485
0.0705425
0.0715479
0.0723606
0.0729781
0.0733997
0.0736259
0.0736594
0.0735043
0.0731664
0.0726536
0.0719753
0.0711425
0.0701679
0.0690655
0.0678506
0.0665393
0.0651484
0.063695
0.0621951
0.0606637
0.0591237
0.0575945
0.0559648
0.054132
0.0155081
0.0132385
0.0112904
0.0095318
0.00781332
0.00615108
0.00456486
0.00306415
0.00165915
0.000361152
-0.000818632
-0.00186952
-0.00278153
-0.00354557
-0.00415356
-0.00459854
-0.00487471
-0.00497749
-0.00490353
-0.0046507
-0.00421807
-0.00360587
-0.00281541
-0.00184908
-0.000710288
0.000596579
0.00206617
0.00369223
0.00546762
0.00738438
0.00943381
0.0116065
0.0138923
0.0162806
0.0187599
0.0213185
0.023944
0.0266235
0.0293437
0.0320913
0.0348523
0.0376127
0.0403585
0.0430755
0.0457494
0.0483661
0.0509117
0.0533726
0.0557354
0.0579872
0.060116
0.06211
0.0639583
0.065651
0.0671791
0.0685345
0.0697104
0.0707013
0.0715029
0.0721123
0.0725283
0.0727509
0.0727821
0.072625
0.0722848
0.071768
0.0710827
0.0702385
0.0692462
0.0681182
0.0668673
0.0655074
0.0640527
0.0625175
0.0609147
0.0592562
0.0575635
0.0558542
0.0539913
0.051852
0.0176426
0.0150647
0.0128795
0.0109353
0.00905768
0.00726135
0.005565
0.00397521
0.00249925
0.00114577
-7.6577e-05
-0.00115945
-0.00209501
-0.00287612
-0.00349643
-0.0039505
-0.00423388
-0.00434312
-0.00427587
-0.0040308
-0.00360767
-0.00300725
-0.00223126
-0.0012824
-0.000164268
0.00111864
0.00256094
0.00415641
0.00589803
0.00777798
0.00978778
0.0119182
0.0141595
0.0165012
0.0189324
0.0214414
0.0240163
0.0266446
0.0293135
0.0320097
0.0347198
0.0374302
0.0401271
0.0427966
0.0454249
0.047998
0.0505023
0.0529243
0.055251
0.0574697
0.0595682
0.061535
0.0633592
0.065031
0.0665411
0.0678814
0.0690449
0.0700257
0.0708193
0.0714224
0.0718332
0.0720513
0.0720776
0.0719147
0.0715666
0.0710388
0.0703382
0.0694729
0.0684523
0.0672868
0.0659874
0.064566
0.0630345
0.0614049
0.0596875
0.0578919
0.0560386
0.0541443
0.052048
0.049608
0.0196784
0.0167998
0.0143798
0.0122482
0.0102068
0.00826991
0.00645543
0.00476756
0.00321113
0.00179246
0.000518044
-0.000605882
-0.00157342
-0.0023792
-0.00301847
-0.00348725
-0.00378233
-0.00390141
-0.00384306
-0.00360681
-0.00319308
-0.0026032
-0.00183936
-0.000904578
0.000197308
0.00146164
0.00288297
0.00445506
0.00617094
0.0080229
0.0100026
0.012101
0.0143086
0.0166151
0.0190099
0.0214817
0.0240187
0.0266089
0.0292395
0.0318979
0.0345707
0.0372447
0.0399064
0.0425421
0.0451381
0.0476808
0.0501568
0.0525526
0.0548554
0.0570526
0.0591319
0.061082
0.0628919
0.0645515
0.0660516
0.0673838
0.0685407
0.0695164
0.0703056
0.0709049
0.0713116
0.0715248
0.0715447
0.071373
0.0710129
0.0704686
0.0697459
0.0688516
0.0677937
0.066581
0.0652229
0.0637294
0.0621106
0.0603765
0.0585354
0.056595
0.0545755
0.0524932
0.0501648
0.0474306
0.0215866
0.018415
0.0157632
0.0134437
0.011236
0.00915393
0.0072154
0.00542257
0.00377822
0.00228671
0.000952616
-0.00021966
-0.00122596
-0.00206253
-0.00272611
-0.00321404
-0.00352433
-0.00365574
-0.00360777
-0.00338076
-0.00297582
-0.00239486
-0.00164051
-0.000716175
0.000374042
0.00162529
0.00303201
0.00458791
0.00628601
0.00811868
0.0100777
0.0121541
0.0143385
0.016621
0.0189911
0.0214376
0.0239492
0.0265139
0.0291193
0.031753
0.0344019
0.0370529
0.0396927
0.0423079
0.044885
0.0474104
0.0498707
0.0522529
0.0545438
0.056731
0.0588023
0.0607461
0.0625514
0.0642078
0.065706
0.0670373
0.0681941
0.0691697
0.0699588
0.0705571
0.0709616
0.0711705
0.0711834
0.0710011
0.0706258
0.0700608
0.0693107
0.0683812
0.0672789
0.0660111
0.0645859
0.0630118
0.0612972
0.0594506
0.0574788
0.0553878
0.053198
0.0509262
0.0483673
0.0453453
0.0233425
0.0198848
0.0170047
0.0144977
0.0121221
0.00989188
0.00782503
0.0059221
0.00418413
0.00261384
0.00121412
-1.22344e-05
-0.00106264
-0.00193479
-0.00262679
-0.00313724
-0.00346528
-0.00361066
-0.00357382
-0.00335586
-0.00295858
-0.00238445
-0.0016366
-0.000718811
0.000364519
0.00160832
0.00300687
0.0045538
0.00624209
0.00806412
0.0100117
0.012076
0.0142478
0.0165172
0.0188739
0.0213071
0.0238054
0.0263571
0.0289501
0.031572
0.03421
0.0368512
0.0394824
0.0420902
0.0446613
0.0471823
0.0496398
0.0520206
0.0543117
0.0565005
0.0585748
0.0605228
0.0623333
0.0639958
0.0655005
0.0668385
0.0680017
0.068983
0.0697766
0.0703776
0.0707824
0.0709885
0.0709947
0.070801
0.0704086
0.06982
0.0690386
0.0680689
0.0669165
0.0655875
0.0640886
0.0624269
0.0606099
0.0586445
0.0565364
0.0542904
0.0519277
0.0494653
0.0466781
0.0433737
0.0249238
0.0211866
0.0180814
0.0153878
0.0128437
0.0104634
0.00826527
0.00624849
0.00441267
0.0027591
0.00128924
4.44465e-06
-0.00109409
-0.00200541
-0.00272885
-0.00326417
-0.00361157
-0.00377179
-0.00374609
-0.00353636
-0.00314507
-0.00257526
-0.00183055
-0.000915097
0.000166365
0.00140852
0.00280548
0.00435074
0.00603721
0.00785724
0.00980265
0.0118647
0.0140342
0.0163014
0.018656
0.0210875
0.0235845
0.0261356
0.0287287
0.0313516
0.0339917
0.036636
0.0392716
0.0418851
0.0444632
0.0469926
0.0494597
0.0518515
0.0541548
0.0563569
0.0584454
0.0604083
0.0622341
0.0639121
0.065432
0.0667846
0.0679612
0.0689545
0.0697579
0.070366
0.0707744
0.0709799
0.0709807
0.0707757
0.0703654
0.0697513
0.0689359
0.0679226
0.0667159
0.0653208
0.063743
0.0619886
0.0600638
0.0579747
0.055726
0.0533218
0.0507839
0.0481303
0.0451166
0.0415346
0.0263107
0.0222995
0.0189724
0.0160935
0.0133808
0.0108493
0.00851779
0.00638452
0.0044478
0.00270769
0.0011644
-0.000182005
-0.00133157
-0.00228453
-0.00304141
-0.00360301
-0.00397055
-0.00414566
-0.00413045
-0.00392753
-0.00354003
-0.00297156
-0.00222622
-0.00130857
-0.000223689
0.00102285
0.00242495
0.00397595
0.00566866
0.00749538
0.00944788
0.0115175
0.0136949
0.0159707
0.0183345
0.0207757
0.0232834
0.0258461
0.0284518
0.0310883
0.0337432
0.0364036
0.0390565
0.0416886
0.0442866
0.0468371
0.0493266
0.0517417
0.0540693
0.0562965
0.0584105
0.0603991
0.0622506
0.0639537
0.0654979
0.0668734
0.0680712
0.0690832
0.0699023
0.0705224
0.0709385
0.0711466
0.071144
0.070929
0.0705011
0.0698608
0.0690098
0.0679506
0.0666867
0.0652221
0.0635615
0.0617102
0.0596735
0.057457
0.0550643
0.0524991
0.0497844
0.0469393
0.0437003
0.0398443
0.0274851
0.0232044
0.0196583
0.0165952
0.0137142
0.0110308
0.00856482
0.00631333
0.00427363
0.00244475
0.000825774
-0.000584353
-0.00178681
-0.00278294
-0.00357431
-0.00416275
-0.00455038
-0.00473972
-0.00473366
-0.00453553
-0.00414909
-0.0035785
-0.00282836
-0.00190364
-0.000809757
0.000447431
0.00186159
0.00342589
0.00513301
0.00697515
0.00894405
0.011031
0.0132267
0.0155217
0.0179058
0.0203684
0.0228986
0.0254849
0.0281155
0.0307783
0.0334607
0.03615
0.0388331
0.0414968
0.0441276
0.046712
0.0492365
0.0516874
0.0540516
0.0563156
0.0584667
0.0604922
0.0623799
0.0641184
0.0656964
0.0671037
0.0683307
0.0693688
0.0702102
0.0708481
0.0712767
0.0714914
0.0714885
0.0712656
0.0708212
0.0701552
0.0692682
0.068162
0.0668389
0.0653024
0.0635564
0.0616052
0.0594535
0.0571064
0.0545671
0.0518388
0.0489458
0.0459086
0.0424451
0.0383174
0.0284299
0.0238835
0.0201206
0.0168745
0.0138256
0.0109903
0.00838908
0.00601832
0.00387437
0.00195534
0.000259331
-0.00121573
-0.00247205
-0.00351197
-0.00433806
-0.00495306
-0.00536
-0.0055622
-0.00556331
-0.00536736
-0.00497871
-0.00440209
-0.00364256
-0.00270553
-0.00159675
-0.000322389
0.00111097
0.0026963
0.00442614
0.00629255
0.0082872
0.0104013
0.0126256
0.0149506
0.017366
0.0198615
0.022426
0.025048
0.0277159
0.0304175
0.0331402
0.0358712
0.0385974
0.0413056
0.0439821
0.0466133
0.0491855
0.051685
0.054098
0.0564111
0.0586111
0.0606849
0.0626199
0.0644041
0.0660259
0.0674744
0.0687394
0.0698116
0.0706825
0.0713447
0.0717915
0.0720175
0.0720184
0.0717906
0.0713321
0.0706418
0.0697194
0.0685659
0.0671831
0.0655734
0.06374
0.0616867
0.0594179
0.0569379
0.0542497
0.0513564
0.0482838
0.0450536
0.0413657
0.0369671
0.0291292
0.0243198
0.0203417
0.0169137
0.0136974
0.0107103
0.00797358
0.00548306
0.00323424
0.0012244
-0.000549219
-0.00208962
-0.00339996
-0.00448353
-0.00534377
-0.00598433
-0.00640907
-0.00662209
-0.00662777
-0.00643081
-0.00603616
-0.00544911
-0.00467518
-0.00372021
-0.00259032
-0.00129198
0.000167963
0.00178226
0.00354327
0.00544292
0.00747278
0.00962397
0.0118872
0.0142529
0.0167109
0.0192507
0.0218613
0.0245312
0.0272487
0.0300015
0.0327772
0.0355628
0.0383452
0.0411108
0.0438461
0.0465372
0.04917
0.0517307
0.0542053
0.0565799
0.0588409
0.0609748
0.0629686
0.0648096
0.0664856
0.0679852
0.0692976
0.0704125
0.071321
0.0720147
0.0724862
0.0727293
0.0727387
0.0725102
0.0720407
0.0713284
0.0703723
0.0691725
0.06773
0.0660466
0.064125
0.0619684
0.0595806
0.056966
0.0541272
0.0510672
0.0478133
0.044389
0.0404759
0.0358063
0.0295673
0.0244967
0.0203048
0.0166955
0.0133124
0.0101737
0.00730152
0.00469117
0.00233739
0.000236708
-0.00161443
-0.0032199
-0.0045837
-0.00571001
-0.00660313
-0.00726755
-0.00770791
-0.00792907
-0.00793612
-0.00773439
-0.00732944
-0.00672708
-0.00593331
-0.00495439
-0.00379682
-0.00246739
-0.000973235
0.000678182
0.00247901
0.00442104
0.00649568
0.008694
0.0110067
0.0134239
0.0159356
0.0185313
0.0211997
0.0239296
0.0267091
0.0295258
0.0323673
0.0352204
0.0380719
0.0409082
0.0437154
0.0464795
0.0491861
0.0518211
0.0543702
0.056819
0.0591535
0.0613598
0.0634242
0.0653335
0.0670749
0.0686362
0.0700059
0.0711731
0.0721278
0.0728611
0.0733647
0.0736314
0.0736551
0.0734308
0.0729546
0.0722237
0.0712364
0.069992
0.0684909
0.0667343
0.0647243
0.0624637
0.059956
0.0572054
0.0542143
0.0509859
0.0475492
0.0439291
0.0397891
0.0348469
0.029729
0.0243981
0.0199931
0.0162031
0.0126535
0.00936344
0.00635614
0.00362625
0.00116786
-0.00102318
-0.00295118
-0.00462079
-0.00603685
-0.00720434
-0.00812841
-0.00881432
-0.00926749
-0.0094935
-0.00949812
-0.00928732
-0.00886724
-0.00824421
-0.00742472
-0.00641545
-0.00522328
-0.00385534
-0.00231904
-0.000622116
0.00122739
0.0032211
0.00535028
0.00760587
0.00997845
0.0124582
0.0150349
0.017698
0.0204363
0.0232383
0.0260922
0.0289855
0.0319056
0.0348393
0.0377731
0.0406933
0.0435858
0.0464362
0.0492301
0.0519527
0.0545895
0.0571257
0.0595466
0.061838
0.0639854
0.0659751
0.0677935
0.0694277
0.0708655
0.0720951
0.0731057
0.0738875
0.0744314
0.0747292
0.074774
0.0745598
0.0740819
0.0733367
0.0723217
0.0710355
0.0694778
0.0676492
0.0655513
0.0631866
0.0605584
0.0576707
0.054526
0.0511274
0.0475059
0.0436879
0.0393188
0.034101
0.0295991
0.024008
0.01939
0.0154195
0.0117037
0.00826264
0.00512062
0.00227175
-0.000290536
-0.002571
-0.00457467
-0.00630695
-0.00777346
-0.00897998
-0.00993243
-0.0106368
-0.0110994
-0.0113264
-0.0113242
-0.0110995
-0.0106589
-0.0100094
-0.00915782
-0.00811139
-0.00687733
-0.00546312
-0.00387647
-0.00212537
-0.000218091
0.0018368
0.00403044
0.00635361
0.0087968
0.0113501
0.0140032
0.0167454
0.0195655
0.022452
0.0253928
0.0283755
0.0313871
0.0344145
0.0374441
0.0404616
0.043453
0.0464034
0.0492981
0.0521221
0.0548601
0.0574972
0.060018
0.0624076
0.064651
0.0667338
0.0686415
0.0703607
0.0718779
0.0731809
0.0742579
0.075098
0.0756913
0.0760286
0.0761021
0.075905
0.0754315
0.0746772
0.0736389
0.0723144
0.0707028
0.0688042
0.0666197
0.0641514
0.0614025
0.058377
0.0550773
0.0515069
0.0476982
0.0436798
0.0390782
0.0335808
0.0291622
0.0233102
0.0184789
0.0143278
0.0104459
0.00685416
0.00357795
0.000610869
-0.00205427
-0.00442283
-0.00650053
-0.00829349
-0.0098081
-0.0110509
-0.0120286
-0.0127479
-0.0132158
-0.0134392
-0.0134253
-0.0131813
-0.0127144
-0.012032
-0.0111416
-0.0100508
-0.00876717
-0.00729859
-0.00565306
-0.00383885
-0.00186445
0.000261366
0.00252957
0.00493081
0.00745544
0.0100935
0.0128344
0.0156676
0.0185817
0.021565
0.0246054
0.0276903
0.0308067
0.0339411
0.0370798
0.0402084
0.0433124
0.0463767
0.0493863
0.0523255
0.055179
0.0579308
0.0605654
0.063067
0.06542
0.0676091
0.0696193
0.071436
0.0730452
0.0744334
0.075588
0.0764972
0.0771499
0.0775361
0.077647
0.0774747
0.0770127
0.0762556
0.0751993
0.073841
0.0721791
0.0702131
0.0679438
0.065373
0.0625037
0.0593398
0.0558839
0.0521396
0.0481413
0.0439194
0.0390813
0.0332989
0.0284027
0.0222884
0.0172428
0.0129108
0.00886273
0.00512061
0.00171081
-0.00137352
-0.00414019
-0.00659517
-0.00874482
-0.010596
-0.0121558
-0.0134316
-0.0144307
-0.0151608
-0.0156294
-0.0158443
-0.0158132
-0.0155438
-0.0150442
-0.0143222
-0.0133857
-0.0122428
-0.0109015
-0.00937011
-0.00765685
-0.00577028
-0.00371915
-0.00151242
0.00084068
0.00333067
0.00594777
0.00868183
0.0115224
0.0144584
0.0174787
0.0205713
0.0237241
0.0269243
0.0301587
0.0334137
0.0366753
0.0399288
0.0431595
0.046352
0.0494907
0.0525596
0.0555429
0.058424
0.0611868
0.0638147
0.0662915
0.0686011
0.0707275
0.0726553
0.0743694
0.0758556
0.0771001
0.07809
0.0788132
0.0792588
0.0794167
0.0792782
0.0788357
0.0780829
0.0770149
0.0756282
0.0739203
0.0718904
0.0695388
0.0668669
0.0638777
0.0605752
0.0569619
0.0530417
0.048851
0.0444219
0.0393424
0.0332686
0.0273046
0.0209257
0.0156647
0.011151
0.00693651
0.0030442
-0.000498516
-0.00369898
-0.00656561
-0.00910498
-0.0113241
-0.0132306
-0.0148322
-0.0161371
-0.0171534
-0.0178895
-0.0183537
-0.0185543
-0.0184998
-0.0181987
-0.0176594
-0.0168904
-0.0159001
-0.014697
-0.0132896
-0.0116865
-0.00989628
-0.00792779
-0.00579002
-0.00349214
-0.00104357
0.00154607
0.00426683
0.00710846
0.0100603
0.0131114
0.0162503
0.0194649
0.022743
0.0260717
0.0294376
0.0328269
0.0362252
0.0396179
0.0429896
0.0463247
0.0496072
0.0528207
0.0559486
0.0589741
0.06188
0.0646492
0.0672648
0.0697095
0.0719667
0.07402
0.0758532
0.077451
0.0787985
0.0798819
0.0806878
0.0812042
0.0814199
0.0813251
0.0809112
0.0801709
0.0790985
0.0776895
0.0759409
0.0738513
0.0714204
0.0686495
0.0655415
0.0621002
0.0583283
0.05423
0.0498437
0.0452032
0.0398768
0.0335039
0.0258511
0.019205
0.0137267
0.00903032
0.004649
0.000606646
-0.00306827
-0.0063836
-0.00934838
-0.0119698
-0.0142555
-0.0162139
-0.0178534
-0.0191831
-0.0202117
-0.0209484
-0.0214023
-0.0215824
-0.021498
-0.021158
-0.0205715
-0.0197477
-0.0186954
-0.0174235
-0.0159411
-0.014257
-0.0123802
-0.0103199
-0.00808524
-0.00568569
-0.00313081
-0.00043041
0.00240543
0.00536633
0.00844154
0.0116199
0.0148899
0.0182394
0.0216559
0.0251264
0.0286374
0.0321748
0.0357242
0.0392703
0.0427978
0.0462904
0.0497318
0.0531051
0.0563931
0.0595783
0.062643
0.0655692
0.0683391
0.0709346
0.073338
0.0755319
0.0774992
0.0792233
0.0806882
0.0818788
0.0827806
0.0833804
0.0836657
0.0836257
0.0832505
0.082532
0.0814634
0.0800394
0.0782562
0.0761117
0.0736054
0.0707381
0.0675125
0.0639326
0.0600011
0.0557224
0.0511369
0.0462806
0.0407007
0.03402
0.0240251
0.0171083
0.0114104
0.0065301
0.00198136
-0.00221095
-0.00601732
-0.00944609
-0.012507
-0.0152077
-0.0175568
-0.0195632
-0.0212363
-0.0225857
-0.0236212
-0.0243526
-0.0247898
-0.0249426
-0.0248208
-0.0244343
-0.0237927
-0.0229055
-0.0217824
-0.0204327
-0.0188658
-0.0170911
-0.0151177
-0.0129553
-0.0106133
-0.0081012
-0.00542892
-0.00260639
0.000356164
0.00344823
0.00665894
0.00997704
0.0133908
0.0168881
0.0204563
0.0240823
0.0277522
0.0314519
0.0351666
0.038881
0.0425791
0.0462445
0.0498602
0.053409
0.056873
0.0602341
0.0634737
0.0665732
0.0695138
0.0722764
0.0748424
0.0771932
0.0793105
0.0811766
0.0827742
0.0840869
0.0850991
0.085796
0.086164
0.086191
0.085866
0.0851797
0.0841241
0.0826932
0.0808824
0.0786889
0.0761116
0.073151
0.0698096
0.0660915
0.0619993
0.0575378
0.0527494
0.047672
0.0418316
0.0348333
0.0218084
0.0146168
0.00869666
0.00363095
-0.00108597
-0.00542823
-0.00936523
-0.0129059
-0.0160605
-0.0188377
-0.0212464
-0.0232965
-0.0249982
-0.0263618
-0.0273981
-0.0281176
-0.0285311
-0.028649
-0.0284821
-0.0280407
-0.0273352
-0.0263758
-0.0251725
-0.0237354
-0.0220741
-0.0201985
-0.0181183
-0.0158431
-0.0133827
-0.010747
-0.00794592
-0.00498965
-0.00188852
0.00134682
0.00470538
0.00817581
0.0117463
0.0154046
0.0191379
0.0229329
0.0267758
0.0306521
0.0345469
0.0384444
0.0423284
0.0461821
0.0499881
0.0537286
0.057385
0.0609385
0.06437
0.0676598
0.0707882
0.0737353
0.0764811
0.0790059
0.0812903
0.0833152
0.0850621
0.0865131
0.0876511
0.0884602
0.0889253
0.0890328
0.0887705
0.0881279
0.0870959
0.0856674
0.083837
0.0816011
0.0789579
0.0759078
0.0724528
0.0685971
0.0643434
0.0596965
0.0547011
0.0493972
0.0432884
0.0359617
0.0191822
0.0117111
0.00556561
0.000312615
-0.0045734
-0.00906563
-0.0131324
-0.0167832
-0.0200291
-0.0228792
-0.0253435
-0.0274324
-0.0291572
-0.030529
-0.0315593
-0.0322597
-0.0326416
-0.0327165
-0.0324958
-0.0319905
-0.0312118
-0.0301705
-0.0288773
-0.0273425
-0.0255765
-0.0235894
-0.0213913
-0.0189923
-0.0164023
-0.0136314
-0.0106899
-0.00758801
-0.00433621
-0.000945295
0.00257366
0.0062092
0.00994942
0.013782
0.017694
0.021672
0.0257021
0.0297696
0.0338592
0.0379551
0.0420406
0.0460986
0.0501111
0.0540598
0.0579256
0.0616889
0.0653298
0.0688277
0.0721619
0.0753115
0.0782553
0.0809724
0.0834421
0.0856438
0.0875577
0.0891643
0.0904452
0.0913828
0.0919605
0.0921634
0.0919778
0.0913917
0.090395
0.0889794
0.0871383
0.0848675
0.0821646
0.0790293
0.0754635
0.0714712
0.0670551
0.0622203
0.0570137
0.0514773
0.0450914
0.0374244
0.0161264
0.00837067
0.00199625
-0.00344611
-0.0085023
-0.0131446
-0.0173402
-0.0210992
-0.0244334
-0.0273528
-0.029868
-0.0319904
-0.0337321
-0.0351053
-0.0361223
-0.0367955
-0.0371375
-0.0371604
-0.0368765
-0.0362977
-0.0354358
-0.0343023
-0.0329084
-0.0312652
-0.0293834
-0.0272737
-0.0249464
-0.022412
-0.0196808
-0.016763
-0.013669
-0.0104093
-0.00699447
-0.00343545
0.000256632
0.00407023
0.00799339
0.0120137
0.0161181
0.0202932
0.0245248
0.0287982
0.0330978
0.0374075
0.0417105
0.045989
0.0502248
0.0543988
0.0584914
0.0624824
0.0663508
0.0700753
0.0736342
0.0770053
0.0801664
0.0830951
0.0857693
0.0881671
0.090267
0.0920481
0.0934902
0.094574
0.0952815
0.0955961
0.0955024
0.0949872
0.0940388
0.0926476
0.0908062
0.0885091
0.0857533
0.082538
0.0788646
0.0747371
0.0701581
0.0651328
0.0597105
0.0539352
0.047263
0.0392428
0.0126203
0.00457385
-0.00203343
-0.00766751
-0.0128951
-0.0176875
-0.0220109
-0.0258759
-0.0292954
-0.0322798
-0.0348408
-0.0369908
-0.0387426
-0.0401096
-0.0411051
-0.0417425
-0.0420352
-0.0419964
-0.0416391
-0.0409763
-0.0400204
-0.0387836
-0.0372779
-0.0355148
-0.0335057
-0.0312615
-0.0287932
-0.0261114
-0.0232268
-0.0201498
-0.0168911
-0.0134611
-0.00987071
-0.00613084
-0.00225271
0.00175207
0.00587151
0.0100931
0.0144039
0.0187903
0.023238
0.0277321
0.032257
0.0367963
0.0413328
0.0458485
0.0503245
0.0547415
0.059079
0.063316
0.0674309
0.0714014
0.0752046
0.0788172
0.0822157
0.0853765
0.0882759
0.0908903
0.0931967
0.0951723
0.0967954
0.0980448
0.0989008
0.0993448
0.09936
0.0989313
0.0980457
0.096692
0.0948616
0.092548
0.0897473
0.0864579
0.0826809
0.07842
0.0736778
0.0684596
0.0628168
0.0567958
0.0498273
0.0414399
0.00864155
0.000297909
-0.00654665
-0.0123751
-0.0177755
-0.0227181
-0.027168
-0.0311368
-0.0346379
-0.0376827
-0.0402838
-0.0424546
-0.0442092
-0.0455617
-0.0465266
-0.0471185
-0.0473517
-0.0472405
-0.046799
-0.0460407
-0.0449792
-0.0436273
-0.0419977
-0.0401025
-0.0379537
-0.0355628
-0.032941
-0.0300994
-0.0270488
-0.0238001
-0.0203638
-0.0167509
-0.0129721
-0.00903838
-0.00496111
-0.000751864
0.00357735
0.00801404
0.0125452
0.0171571
0.0218356
0.0265656
0.0313313
0.0361161
0.0409025
0.0456722
0.050406
0.0550838
0.0596847
0.0641869
0.0685679
0.0728043
0.0768724
0.0807475
0.0844049
0.0878193
0.0909656
0.0938186
0.0963533
0.0985452
0.100371
0.101807
0.102831
0.103424
0.103567
0.103242
0.102435
0.101134
0.0993272
0.0970082
0.0941715
0.0908149
0.0869391
0.0825472
0.0776417
0.072228
0.06636
0.0600861
0.0528108
0.0440413
0.00416694
-0.00448121
-0.0115679
-0.0175936
-0.0231683
-0.0282613
-0.0328365
-0.0369063
-0.040485
-0.043585
-0.0462199
-0.0484042
-0.050153
-0.0514818
-0.0524062
-0.0529419
-0.0531046
-0.0529094
-0.0523715
-0.0515055
-0.0503257
-0.048846
-0.0470796
-0.0450394
-0.0427379
-0.0401872
-0.0373989
-0.0343844
-0.0311549
-0.0277213
-0.0240946
-0.0202856
-0.0163053
-0.0121646
-0.0078749
-0.00344777
0.00110483
0.00577042
0.010536
0.015388
0.020312
0.025293
0.0303151
0.0353615
0.0404145
0.0454555
0.0504648
0.0554219
0.0603051
0.0650921
0.0697594
0.0742828
0.0786371
0.0827968
0.0867354
0.0904263
0.0938426
0.0969574
0.0997439
0.102175
0.104226
0.105872
0.107087
0.10785
0.108141
0.107939
0.107229
0.105996
0.104227
0.101915
0.0990527
0.095637
0.0916678
0.0871479
0.0820796
0.0764682
0.07037
0.0638358
0.0562423
0.0470746
-0.000828306
-0.00978901
-0.0171233
-0.0233495
-0.0291002
-0.0343436
-0.0390426
-0.0432103
-0.0468621
-0.0500115
-0.052673
-0.0548625
-0.0565963
-0.0578912
-0.0587641
-0.059232
-0.0593117
-0.0590198
-0.0583724
-0.0573853
-0.0560737
-0.0544523
-0.0525354
-0.0503363
-0.0478684
-0.0451441
-0.0421755
-0.0389745
-0.0355525
-0.0319207
-0.0280901
-0.0240717
-0.0198765
-0.0155154
-0.0109999
-0.00634128
-0.00155161
0.0033568
0.00837102
0.0134775
0.0186619
0.0239092
0.0292035
0.0345277
0.0398641
0.0451938
0.0504967
0.0557518
0.0609369
0.0660289
0.0710034
0.0758353
0.0804983
0.0849653
0.0892088
0.0932003
0.0969112
0.100313
0.103376
0.106072
0.108373
0.110252
0.111683
0.11264
0.1131
0.113043
0.112449
0.111301
0.109588
0.107296
0.10442
0.100954
0.0968982
0.0922541
0.0870238
0.0812126
0.0748793
0.068077
0.0601532
0.0505703
-0.00637042
-0.0156526
-0.0232405
-0.0296707
-0.0355991
-0.040993
-0.0458141
-0.0500763
-0.0537962
-0.0569883