/*--------------------------------*- C++ -*----------------------------------*\
  =========                 |
  \\      /  F ield         | OpenFOAM: The Open Source CFD Toolbox
   \\    /   O peration     | Website:  https://openfoam.org
    \\  /    A nd           | Version:  7
     \\/     M anipulation  |
\*---------------------------------------------------------------------------*/
FoamFile
{
    version     2.0;
    format      ascii;
    class       surfaceScalarField;
    location    "0.275";
    object      phi;
}
// * * * * * * * * * * * * * * * * * * * * * * * * * * * * * * * * * * * * * //

dimensions      [0 3 -1 0 0 0 0];

internalField   nonuniform List<scalar> 
12640
(
1.86796e-10
-1.94225e-10
5.54391e-10
-3.67598e-10
8.82123e-10
-3.27744e-10
1.04529e-09
-1.63184e-10
9.81937e-10
6.33421e-11
6.65056e-10
3.1688e-10
8.7811e-11
5.77251e-10
-7.44679e-10
8.32497e-10
-1.82021e-09
1.07553e-09
-3.12231e-09
1.3021e-09
-4.63198e-09
1.50968e-09
-6.32877e-09
1.69679e-09
-8.19143e-09
1.86267e-09
-1.01984e-08
2.00702e-09
-1.23283e-08
2.12985e-09
-1.45597e-08
2.23141e-09
-1.68718e-08
2.31212e-09
-1.92443e-08
2.37249e-09
-2.16575e-08
2.41315e-09
-2.40922e-08
2.43477e-09
-2.65303e-08
2.43808e-09
-2.89541e-08
2.42383e-09
-3.13469e-08
2.39282e-09
-3.36928e-08
2.34584e-09
-3.59765e-08
2.28371e-09
-3.81837e-08
2.20726e-09
-4.03011e-08
2.11732e-09
-4.23158e-08
2.01473e-09
-4.42161e-08
1.90032e-09
-4.5991e-08
1.77494e-09
-4.76305e-08
1.63944e-09
-4.91251e-08
1.49467e-09
-5.04666e-08
1.3415e-09
-5.16474e-08
1.18079e-09
-5.26608e-08
1.01342e-09
-5.35011e-08
8.40271e-10
-5.41633e-08
6.62256e-10
-5.46436e-08
4.80286e-10
-5.49389e-08
2.95289e-10
-5.50471e-08
1.08212e-10
-5.49671e-08
-7.99785e-11
-5.46988e-08
-2.68301e-10
-5.4243e-08
-4.55755e-10
-5.36017e-08
-6.41323e-10
-5.27778e-08
-8.23967e-10
-5.17751e-08
-1.00264e-09
-5.05988e-08
-1.17627e-09
-4.9255e-08
-1.34379e-09
-4.77509e-08
-1.5041e-09
-4.60948e-08
-1.65611e-09
-4.42961e-08
-1.79874e-09
-4.23652e-08
-1.93089e-09
-4.03137e-08
-2.05147e-09
-3.81543e-08
-2.15943e-09
-3.59006e-08
-2.2537e-09
-3.35673e-08
-2.33328e-09
-3.11701e-08
-2.39717e-09
-2.87257e-08
-2.44442e-09
-2.62516e-08
-2.47414e-09
-2.37661e-08
-2.48549e-09
-2.12884e-08
-2.4777e-09
-1.88383e-08
-2.45008e-09
-1.64363e-08
-2.40202e-09
-1.41032e-08
-2.33303e-09
-1.18605e-08
-2.24272e-09
-9.72967e-09
-2.13085e-09
-7.73229e-09
-1.99737e-09
-5.88987e-09
-1.84242e-09
-4.22346e-09
-1.66641e-09
-2.75334e-09
-1.47011e-09
-1.49854e-09
-1.2548e-09
-4.76086e-10
-1.02245e-09
3.00033e-10
-7.76119e-10
8.20603e-10
-5.20572e-10
1.084e-09
-2.63389e-10
1.10094e-09
-1.69354e-11
9.0251e-10
1.98443e-10
5.54448e-10
3.48045e-10
1.83941e-10
3.70451e-10
1.83888e-10
3.64187e-10
-5.58417e-10
8.84809e-10
-8.88247e-10
1.21584e-09
-6.58797e-10
1.13397e-09
-8.13198e-11
5.01554e-10
6.9576e-10
-7.55198e-10
1.57364e-09
-2.66542e-09
2.48749e-09
-5.22802e-09
3.39512e-09
-8.42157e-09
4.26909e-09
-1.2211e-08
5.09155e-09
-1.65522e-08
5.85093e-09
-2.13953e-08
6.53989e-09
-2.66867e-08
7.15399e-09
-3.23705e-08
7.69082e-09
-3.83901e-08
8.14943e-09
-4.46886e-08
8.52991e-09
-5.12096e-08
8.83314e-09
-5.78976e-08
9.06055e-09
-6.46985e-08
9.21405e-09
-7.15596e-08
9.29584e-09
-7.84299e-08
9.30839e-09
-8.52604e-08
9.25437e-09
-9.20042e-08
9.13658e-09
-9.86163e-08
8.95793e-09
-1.05054e-07
8.72143e-09
-1.11277e-07
8.43013e-09
-1.17247e-07
8.08715e-09
-1.22928e-07
7.69564e-09
-1.28286e-07
7.25881e-09
-1.33291e-07
6.77985e-09
-1.37914e-07
6.26204e-09
-1.42128e-07
5.70864e-09
-1.45909e-07
5.12297e-09
-1.49237e-07
4.50838e-09
-1.52091e-07
3.86826e-09
-1.54457e-07
3.20604e-09
-1.5632e-07
2.52521e-09
-1.57669e-07
1.82932e-09
-1.58496e-07
1.12194e-09
-1.58794e-07
4.06756e-10
-1.58562e-07
-3.12526e-10
-1.57798e-07
-1.03212e-09
-1.56505e-07
-1.74816e-09
-1.5469e-07
-2.45675e-09
-1.5236e-07
-3.15391e-09
-1.49527e-07
-3.83561e-09
-1.46206e-07
-4.49778e-09
-1.42413e-07
-5.13631e-09
-1.3817e-07
-5.74707e-09
-1.335e-07
-6.3259e-09
-1.2843e-07
-6.86867e-09
-1.2299e-07
-7.37125e-09
-1.17212e-07
-7.82957e-09
-1.11132e-07
-8.23962e-09
-1.04788e-07
-8.59747e-09
-9.82219e-08
-8.89931e-09
-9.14775e-08
-9.1415e-09
-8.46014e-08
-9.32055e-09
-7.76424e-08
-9.43318e-09
-7.06515e-08
-9.47638e-09
-6.36818e-08
-9.4474e-09
-5.6788e-08
-9.34385e-09
-5.00263e-08
-9.16372e-09
-4.34539e-08
-8.90544e-09
-3.71286e-08
-8.56799e-09
-3.11085e-08
-8.15095e-09
-2.54512e-08
-7.65468e-09
-2.02131e-08
-7.08049e-09
-1.54487e-08
-6.43085e-09
-1.1209e-08
-5.70983e-09
-7.5402e-09
-4.92356e-09
-4.48152e-09
-4.08113e-09
-2.06183e-09
-3.19581e-09
-2.95349e-10
-2.28706e-09
8.24881e-10
-1.38364e-09
1.3365e-09
-5.28567e-10
1.32153e-09
2.13434e-10
9.24257e-10
7.45393e-10
3.70578e-10
9.2423e-10
5.54425e-10
3.29455e-10
-8.87884e-10
6.64945e-10
-1.22377e-09
6.11807e-10
-6.05673e-10
-9.11061e-11
6.21594e-10
-1.6147e-09
2.21936e-09
-4.0582e-09
4.01714e-09
-7.466e-09
5.89529e-09
-1.18421e-08
7.77119e-09
-1.7161e-08
9.58806e-09
-2.33765e-08
1.1307e-08
-3.04271e-08
1.29016e-08
-3.82414e-08
1.43541e-08
-4.67407e-08
1.56534e-08
-5.58424e-08
1.67924e-08
-6.54608e-08
1.77678e-08
-7.55094e-08
1.85786e-08
-8.59019e-08
1.92256e-08
-9.65524e-08
1.97111e-08
-1.07377e-07
2.00385e-08
-1.18293e-07
2.02121e-08
-1.29221e-07
2.02366e-08
-1.40084e-07
2.01175e-08
-1.50808e-07
1.98605e-08
-1.61322e-07
1.94718e-08
-1.71558e-07
1.89575e-08
-1.81452e-07
1.83243e-08
-1.90944e-07
1.75787e-08
-1.99976e-07
1.67275e-08
-2.08495e-07
1.57777e-08
-2.16451e-07
1.47361e-08
-2.23799e-07
1.36099e-08
-2.30496e-07
1.24062e-08
-2.36506e-07
1.11322e-08
-2.41793e-07
9.79526e-09
-2.46327e-07
8.40274e-09
-2.50083e-07
6.9622e-09
-2.53039e-07
5.48124e-09
-2.55178e-07
3.96764e-09
-2.56485e-07
2.42924e-09
-2.56952e-07
8.74066e-10
-2.56575e-07
-6.89755e-10
-2.55353e-07
-2.25395e-09
-2.53291e-07
-3.81012e-09
-2.50398e-07
-5.34972e-09
-2.46688e-07
-6.86412e-09
-2.42179e-07
-8.34455e-09
-2.36895e-07
-9.78218e-09
-2.30863e-07
-1.11681e-08
-2.24117e-07
-1.24933e-08
-2.16694e-07
-1.37489e-08
-2.08636e-07
-1.49259e-08
-1.99992e-07
-1.60155e-08
-1.90813e-07
-1.70089e-08
-1.81155e-07
-1.78975e-08
-1.71079e-07
-1.86729e-08
-1.60651e-07
-1.93271e-08
-1.49941e-07
-1.98522e-08
-1.3902e-07
-2.02409e-08
-1.27967e-07
-2.04864e-08
-1.16861e-07
-2.05824e-08
-1.05785e-07
-2.05233e-08
-9.48247e-08
-2.03043e-08
-8.40669e-08
-1.99215e-08
-7.36003e-08
-1.9372e-08
-6.3514e-08
-1.86543e-08
-5.38968e-08
-1.77681e-08
-4.48362e-08
-1.67152e-08
-3.64173e-08
-1.54995e-08
-2.87207e-08
-1.41274e-08
-2.18214e-08
-1.26092e-08
-1.57854e-08
-1.09596e-08
-1.06669e-08
-9.19967e-09
-6.50347e-09
-7.35922e-09
-3.31045e-09
-5.48007e-09
-1.07275e-09
-3.62132e-09
2.65473e-10
-1.86682e-09
8.14386e-10
-3.35534e-10
7.53973e-10
8.05768e-10
3.50869e-10
1.32739e-09
9.05286e-10
1.71361e-10
-1.05926e-09
1.03715e-10
-1.15613e-09
-5.89374e-10
8.74088e-11
-2.17181e-09
2.20403e-09
-4.82071e-09
4.86826e-09
-8.64241e-09
7.83886e-09
-1.36863e-08
1.09392e-08
-1.99573e-08
1.40422e-08
-2.74261e-08
1.70568e-08
-3.60374e-08
1.99184e-08
-4.57171e-08
2.25812e-08
-5.63767e-08
2.50138e-08
-6.79183e-08
2.71949e-08
-8.02369e-08
2.9111e-08
-9.32235e-08
3.07545e-08
-1.06767e-07
3.2122e-08
-1.20755e-07
3.32137e-08
-1.35076e-07
3.40324e-08
-1.49621e-07
3.45829e-08
-1.6428e-07
3.48715e-08
-1.78949e-07
3.49059e-08
-1.93527e-07
3.46947e-08
-2.07913e-07
3.42474e-08
-2.22016e-07
3.35741e-08
-2.35743e-07
3.26852e-08
-2.49011e-07
3.15917e-08
-2.61737e-07
3.03048e-08
-2.73846e-07
2.88361e-08
-2.85265e-07
2.71974e-08
-2.9593e-07
2.54006e-08
-3.05777e-07
2.34578e-08
-3.14753e-07
2.13813e-08
-3.22804e-07
1.91836e-08
-3.29886e-07
1.68774e-08
-3.35959e-07
1.44755e-08
-3.40987e-07
1.19908e-08
-3.44943e-07
9.43667e-09
-3.47802e-07
6.82644e-09
-3.49546e-07
4.17376e-09
-3.50165e-07
1.49247e-09
-3.49651e-07
-1.20336e-09
-3.48005e-07
-3.89942e-09
-3.45234e-07
-6.5812e-09
-3.4135e-07
-9.23398e-09
-3.36371e-07
-1.18429e-08
-3.30323e-07
-1.43927e-08
-3.23237e-07
-1.68684e-08
-3.1515e-07
-1.92546e-08
-3.06108e-07
-2.1536e-08
-2.96159e-07
-2.36971e-08
-2.85363e-07
-2.57227e-08
-2.7378e-07
-2.75977e-08
-2.61482e-07
-2.93072e-08
-2.48543e-07
-3.08364e-08
-2.35045e-07
-3.21713e-08
-2.21074e-07
-3.32981e-08
-2.06722e-07
-3.42038e-08
-1.92087e-07
-3.4876e-08
-1.7727e-07
-3.53033e-08
-1.62377e-07
-3.54754e-08
-1.47517e-07
-3.53832e-08
-1.32803e-07
-3.5019e-08
-1.18348e-07
-3.43767e-08
-1.04268e-07
-3.34521e-08
-9.06783e-08
-3.22435e-08
-7.76947e-08
-3.07517e-08
-6.54293e-08
-2.89806e-08
-5.39905e-08
-2.69382e-08
-4.34806e-08
-2.46373e-08
-3.39931e-08
-2.20967e-08
-2.56096e-08
-1.93431e-08
-1.83957e-08
-1.64136e-08
-1.2396e-08
-1.3359e-08
-7.62757e-09
-1.02485e-08
-4.07234e-09
-7.17652e-09
-1.66713e-09
-4.27201e-09
-2.92199e-10
-1.71048e-09
2.41544e-10
2.71983e-10
2.07713e-10
1.36123e-09
1.11301e-09
-4.77111e-11
-1.01155e-09
-6.54989e-10
-5.48853e-10
-2.15937e-09
1.59179e-09
-4.80117e-09
4.84583e-09
-8.74446e-09
8.81157e-09
-1.40886e-08
1.3183e-08
-2.08785e-08
1.77291e-08
-2.91144e-08
2.22781e-08
-3.87607e-08
2.67032e-08
-4.97536e-08
3.09113e-08
-6.20075e-08
3.48351e-08
-7.542e-08
3.84263e-08
-8.98768e-08
4.16517e-08
-1.05255e-07
4.44891e-08
-1.21426e-07
4.69251e-08
-1.38257e-07
4.8953e-08
-1.55614e-07
5.05712e-08
-1.73364e-07
5.17826e-08
-1.91374e-07
5.25931e-08
-2.09514e-07
5.30112e-08
-2.27656e-07
5.30476e-08
-2.45676e-07
5.27145e-08
-2.63454e-07
5.20255e-08
-2.80875e-07
5.09954e-08
-2.9783e-07
4.96396e-08
-3.14212e-07
4.79743e-08
-3.29924e-07
4.60163e-08
-3.4487e-07
4.37829e-08
-3.58965e-07
4.12918e-08
-3.72125e-07
3.85609e-08
-3.84276e-07
3.56086e-08
-3.95348e-07
3.24536e-08
-4.05279e-07
2.91148e-08
-4.14013e-07
2.56114e-08
-4.21501e-07
2.19629e-08
-4.27699e-07
1.81891e-08
-4.32573e-07
1.43101e-08
-4.36093e-07
1.03463e-08
-4.38237e-07
6.31851e-09
-4.38993e-07
2.24771e-09
-4.38351e-07
-1.84465e-09
-4.36314e-07
-5.93684e-09
-4.32888e-07
-1.00068e-08
-4.2809e-07
-1.40323e-08
-4.21942e-07
-1.79906e-08
-4.14476e-07
-2.18589e-08
-4.0573e-07
-2.56142e-08
-3.95751e-07
-2.92334e-08
-3.84594e-07
-3.26932e-08
-3.72321e-07
-3.59706e-08
-3.59001e-07
-3.90425e-08
-3.44713e-07
-4.18861e-08
-3.29541e-07
-4.44791e-08
-3.13578e-07
-4.67996e-08
-2.96923e-07
-4.88263e-08
-2.79682e-07
-5.05388e-08
-2.61968e-07
-5.19178e-08
-2.43899e-07
-5.2945e-08
-2.25598e-07
-5.36038e-08
-2.07195e-07
-5.38789e-08
-1.88821e-07
-5.37573e-08
-1.70612e-07
-5.32281e-08
-1.52705e-07
-5.2283e-08
-1.35241e-07
-5.09168e-08
-1.18356e-07
-4.91278e-08
-1.0219e-07
-4.69184e-08
-8.6874e-08
-4.42962e-08
-7.25379e-08
-4.12744e-08
-5.93012e-08
-3.7874e-08
-4.72732e-08
-3.41246e-08
-3.65486e-08
-3.00676e-08
-2.72034e-08
-2.57589e-08
-1.92893e-08
-2.1273e-08
-1.28284e-08
-1.67094e-08
-7.8051e-09
-1.21998e-08
-4.15885e-09
-7.91824e-09
-1.77437e-09
-4.09494e-09
-4.72292e-10
-1.03011e-09
1.99561e-12
8.86926e-10
1.11501e-09
-2.94436e-10
-7.17114e-10
-1.51869e-09
6.75417e-10
-3.94124e-09
4.01434e-09
-7.76106e-09
8.66565e-09
-1.31153e-08
1.41658e-08
-2.00853e-08
2.0153e-08
-2.87033e-08
2.6347e-08
-3.89592e-08
3.2534e-08
-5.0808e-08
3.8552e-08
-6.41757e-08
4.4279e-08
-7.89654e-08
4.96247e-08
-9.50619e-08
5.45229e-08
-1.12337e-07
5.89265e-08
-1.30651e-07
6.28033e-08
-1.49859e-07
6.61329e-08
-1.6981e-07
6.89042e-08
-1.90352e-07
7.11132e-08
-2.11331e-07
7.27623e-08
-2.32596e-07
7.38581e-08
-2.53996e-07
7.44113e-08
-2.75384e-07
7.44355e-08
-2.96617e-07
7.39469e-08
-3.17555e-07
7.29637e-08
-3.38065e-07
7.15056e-08
-3.58019e-07
6.95937e-08
-3.77295e-07
6.72502e-08
-3.95777e-07
6.44982e-08
-4.13356e-07
6.13616e-08
-4.29929e-07
5.78648e-08
-4.45401e-07
5.4033e-08
-4.59684e-07
4.98916e-08
-4.72697e-07
4.54668e-08
-4.84367e-07
4.07849e-08
-4.94628e-07
3.58729e-08
-5.03424e-07
3.07581e-08
-5.10703e-07
2.54682e-08
-5.16424e-07
2.00315e-08
-5.20554e-07
1.44765e-08
-5.23068e-07
8.83244e-09
-5.23949e-07
3.12875e-09
-5.23189e-07
-2.60455e-09
-5.20789e-07
-8.33701e-09
-5.16758e-07
-1.40378e-08
-5.11115e-07
-1.96756e-08
-5.03886e-07
-2.52189e-08
-4.9511e-07
-3.06357e-08
-4.8483e-07
-3.5894e-08
-4.73102e-07
-4.09615e-08
-4.59989e-07
-4.58059e-08
-4.45565e-07
-5.03949e-08
-4.2991e-07
-5.46968e-08
-4.13117e-07
-5.86797e-08
-3.95283e-07
-6.23129e-08
-3.76517e-07
-6.55659e-08
-3.56933e-07
-6.84095e-08
-3.36657e-07
-7.08156e-08
-3.15817e-07
-7.27576e-08
-2.94551e-07
-7.42108e-08
-2.73003e-07
-7.51522e-08
-2.5132e-07
-7.55616e-08
-2.29656e-07
-7.54216e-08
-2.08166e-07
-7.47176e-08
-1.8701e-07
-7.34394e-08
-1.66346e-07
-7.15807e-08
-1.46333e-07
-6.91405e-08
-1.27128e-07
-6.61236e-08
-1.08882e-07
-6.25417e-08
-9.17416e-08
-5.84152e-08
-7.58415e-08
-5.3774e-08
-6.13054e-08
-4.86608e-08
-4.82401e-08
-4.3133e-08
-3.6732e-08
-3.72669e-08
-2.68421e-08
-3.11629e-08
-1.86006e-08
-2.49509e-08
-1.20008e-08
-1.87996e-08
-6.99261e-09
-1.29264e-08
-3.47617e-09
-7.61136e-09
-1.29558e-09
-3.21069e-09
-2.32953e-10
-1.75718e-10
8.82059e-10
-5.50643e-10
-1.66472e-10
-2.42977e-09
2.55456e-09
-5.83034e-09
7.41492e-09
-1.09002e-08
1.37355e-08
-1.77401e-08
2.10057e-08
-2.64052e-08
2.88182e-08
-3.69083e-08
3.68501e-08
-4.92239e-08
4.48497e-08
-6.32939e-08
5.26219e-08
-7.9032e-08
6.00171e-08
-9.6329e-08
6.69217e-08
-1.15057e-07
7.32511e-08
-1.35074e-07
7.89436e-08
-1.56227e-07
8.39563e-08
-1.78355e-07
8.82608e-08
-2.01292e-07
9.18407e-08
-2.24868e-07
9.46893e-08
-2.48913e-07
9.68077e-08
-2.73259e-07
9.82033e-08
-2.97736e-07
9.88885e-08
-3.2218e-07
9.88801e-08
-3.46432e-07
9.81984e-08
-3.70335e-07
9.68663e-08
-3.93738e-07
9.49091e-08
-4.16498e-07
9.23539e-08
-4.38478e-07
8.92297e-08
-4.59546e-07
8.55663e-08
-4.79579e-07
8.13951e-08
-4.98463e-07
7.67481e-08
-5.16088e-07
7.16583e-08
-5.32356e-07
6.61594e-08
-5.47175e-07
6.02857e-08
-5.60462e-07
5.40723e-08
-5.72144e-07
4.75546e-08
-5.82155e-07
4.07689e-08
-5.90438e-07
3.37519e-08
-5.96948e-07
2.6541e-08
-6.01646e-07
1.91742e-08
-6.04503e-07
1.169e-08
-6.05502e-07
4.12746e-09
-6.04633e-07
-3.47357e-09
-6.01897e-07
-1.10728e-08
-5.97305e-07
-1.86295e-08
-5.90879e-07
-2.61023e-08
-5.82648e-07
-3.34493e-08
-5.72655e-07
-4.06286e-08
-5.60951e-07
-4.75977e-08
-5.47599e-07
-5.4314e-08
-5.3267e-07
-6.07351e-08
-5.16246e-07
-6.68186e-08
-4.9842e-07
-7.25225e-08
-4.79295e-07
-7.78053e-08
-4.58981e-07
-8.26264e-08
-4.37601e-07
-8.69461e-08
-4.15284e-07
-9.07263e-08
-3.92169e-07
-9.39302e-08
-3.68403e-07
-9.65235e-08
-3.4414e-07
-9.84738e-08
-3.19541e-07
-9.97519e-08
-2.94771e-07
-1.00332e-07
-2.70001e-07
-1.00191e-07
-2.45406e-07
-9.93124e-08
-2.21163e-07
-9.76826e-08
-1.97449e-07
-9.52949e-08
-1.7444e-07
-9.21493e-08
-1.5231e-07
-8.82535e-08
-1.31227e-07
-8.36245e-08
-1.11352e-07
-7.829e-08
-9.28358e-08
-7.22907e-08
-7.5814e-08
-6.56826e-08
-6.04063e-08
-5.85406e-08
-4.67108e-08
-5.09624e-08
-3.47999e-08
-4.30737e-08
-2.47158e-08
-3.5035e-08
-1.64656e-08
-2.70499e-08
-1.00166e-08
-1.93754e-08
-5.29251e-09
-1.23354e-08
-2.17028e-09
-6.33291e-09
-4.78757e-10
-1.86725e-09
4.03299e-10
-8.0645e-10
6.39977e-10
-3.35342e-09
5.10154e-09
-7.75945e-09
1.1821e-08
-1.4117e-08
2.0093e-08
-2.24851e-08
2.93739e-08
-3.28871e-08
3.92201e-08
-4.53108e-08
4.92738e-08
-5.97112e-08
5.92501e-08
-7.60135e-08
6.89242e-08
-9.41169e-08
7.81205e-08
-1.13899e-07
8.67033e-08
-1.35217e-07
9.45698e-08
-1.57918e-07
1.01644e-07
-1.81833e-07
1.07871e-07
-2.06787e-07
1.13215e-07
-2.32601e-07
1.17654e-07
-2.59089e-07
1.21177e-07
-2.86066e-07
1.23785e-07
-3.13348e-07
1.25485e-07
-3.4075e-07
1.26291e-07
-3.68094e-07
1.26224e-07
-3.95202e-07
1.25307e-07
-4.21905e-07
1.23569e-07
-4.48037e-07
1.21041e-07
-4.73439e-07
1.17756e-07
-4.97961e-07
1.13751e-07
-5.21458e-07
1.09064e-07
-5.43796e-07
1.03732e-07
-5.64845e-07
9.77975e-08
-5.84488e-07
9.13012e-08
-6.02614e-07
8.42858e-08
-6.19123e-07
7.67949e-08
-6.33924e-07
6.88729e-08
-6.46934e-07
6.05648e-08
-6.58082e-07
5.19168e-08
-6.67306e-07
4.29755e-08
-6.74553e-07
3.37883e-08
-6.79782e-07
2.44037e-08
-6.82963e-07
1.48705e-08
-6.84074e-07
5.23849e-09
-6.83106e-07
-4.44178e-09
-6.80059e-07
-1.41192e-08
-6.74947e-07
-2.37418e-08
-6.67792e-07
-3.32572e-08
-6.58629e-07
-4.26124e-08
-6.47504e-07
-5.17541e-08
-6.34473e-07
-6.06285e-08
-6.19605e-07
-6.91819e-08
-6.0298e-07
-7.73603e-08
-5.84688e-07
-8.51104e-08
-5.64831e-07
-9.2379e-08
-5.43523e-07
-9.9114e-08
-5.20885e-07
-1.05264e-07
-4.97052e-07
-1.10779e-07
-4.72167e-07
-1.15612e-07
-4.46382e-07
-1.19715e-07
-4.19858e-07
-1.23047e-07
-3.92764e-07
-1.25568e-07
-3.65276e-07
-1.2724e-07
-3.37577e-07
-1.28031e-07
-3.09853e-07
-1.27915e-07
-2.82295e-07
-1.2687e-07
-2.55097e-07
-1.24881e-07
-2.28451e-07
-1.21941e-07
-2.02551e-07
-1.1805e-07
-1.77585e-07
-1.1322e-07
-1.53736e-07
-1.07473e-07
-1.31181e-07
-1.00845e-07
-1.10083e-07
-9.33888e-08
-9.05921e-08
-8.51734e-08
-7.28411e-08
-7.62916e-08
-5.69413e-08
-6.68623e-08
-4.29789e-08
-5.70361e-08
-3.10116e-08
-4.70023e-08
-2.10647e-08
-3.69967e-08
-1.31283e-08
-2.73118e-08
-7.1553e-09
-1.83084e-08
-3.0609e-09
-1.04273e-08
-7.2518e-10
-4.20296e-09
-3.21883e-10
-1.05676e-09
1.69674e-09
-4.26939e-09
8.31418e-09
-9.68674e-09
1.72383e-08
-1.73456e-08
2.77519e-08
-2.72606e-08
3.92888e-08
-3.94195e-08
5.1379e-08
-5.37818e-08
6.36361e-08
-7.02793e-08
7.57476e-08
-8.88176e-08
8.74625e-08
-1.09279e-07
9.85818e-08
-1.31525e-07
1.0895e-07
-1.55401e-07
1.18446e-07
-1.80737e-07
1.2698e-07
-2.07352e-07
1.34487e-07
-2.35058e-07
1.40922e-07
-2.63661e-07
1.46257e-07
-2.92962e-07
1.50479e-07
-3.22762e-07
1.53585e-07
-3.52862e-07
1.55585e-07
-3.83065e-07
1.56494e-07
-4.13177e-07
1.56335e-07
-4.43007e-07
1.55137e-07
-4.72372e-07
1.52934e-07
-5.01094e-07
1.49762e-07
-5.29e-07
1.45663e-07
-5.55928e-07
1.40679e-07
-5.81722e-07
1.34857e-07
-6.06235e-07
1.28245e-07
-6.29328e-07
1.20891e-07
-6.50872e-07
1.12846e-07
-6.7075e-07
1.04163e-07
-6.88851e-07
9.48959e-08
-7.05076e-07
8.50982e-08
-7.19337e-07
7.48259e-08
-7.31556e-07
6.41355e-08
-7.41665e-07
5.30845e-08
-7.49608e-07
4.17315e-08
-7.55341e-07
3.01358e-08
-7.58828e-07
1.83579e-08
-7.60048e-07
6.45898e-09
-7.58991e-07
-5.49876e-09
-7.55658e-07
-1.74523e-08
-7.50062e-07
-2.93379e-08
-7.42228e-07
-4.1091e-08
-7.32194e-07
-5.26465e-08
-7.2001e-07
-6.39387e-08
-7.05736e-07
-7.49019e-08
-6.89448e-07
-8.54699e-08
-6.71232e-07
-9.55767e-08
-6.51186e-07
-1.05157e-07
-6.29419e-07
-1.14145e-07
-6.06055e-07
-1.22478e-07
-5.81227e-07
-1.30093e-07
-5.55078e-07
-1.36928e-07
-5.27763e-07
-1.42926e-07
-4.99448e-07
-1.48031e-07
-4.70306e-07
-1.5219e-07
-4.40519e-07
-1.55354e-07
-4.10278e-07
-1.5748e-07
-3.79779e-07
-1.5853e-07
-3.49224e-07
-1.5847e-07
-3.18818e-07
-1.57276e-07
-2.8877e-07
-1.5493e-07
-2.59287e-07
-1.51423e-07
-2.30577e-07
-1.4676e-07
-2.02843e-07
-1.40953e-07
-1.76284e-07
-1.34032e-07
-1.51089e-07
-1.26041e-07
-1.27436e-07
-1.17042e-07
-1.0549e-07
-1.0712e-07
-8.5396e-08
-9.63852e-08
-6.72818e-08
-8.49764e-08
-5.12498e-08
-7.30681e-08
-3.73761e-08
-6.08761e-08
-2.57076e-08
-4.86652e-08
-1.62611e-08
-3.67584e-08
-9.02189e-09
-2.55476e-08
-3.94657e-09
-1.55026e-08
-9.66864e-10
-7.18267e-09
-1.28875e-09
-1.29917e-09
2.9959e-09
-5.16649e-09
1.21815e-08
-1.15873e-08
2.36591e-08
-2.05446e-08
3.67093e-08
-3.20081e-08
5.07523e-08
-4.59281e-08
6.5299e-08
-6.22334e-08
7.99414e-08
-8.08297e-08
9.43439e-08
-1.01601e-07
1.08234e-07
-1.2441e-07
1.21391e-07
-1.49102e-07
1.33642e-07
-1.75506e-07
1.4485e-07
-2.03438e-07
1.54912e-07
-2.32704e-07
1.63753e-07
-2.63102e-07
1.71319e-07
-2.94423e-07
1.77578e-07
-3.26457e-07
1.82513e-07
-3.58992e-07
1.8612e-07
-3.91814e-07
1.88407e-07
-4.24714e-07
1.89394e-07
-4.57486e-07
1.89107e-07
-4.89926e-07
1.87578e-07
-5.21839e-07
1.84847e-07
-5.53035e-07
1.80958e-07
-5.8333e-07
1.75958e-07
-6.12549e-07
1.69899e-07
-6.40527e-07
1.62836e-07
-6.67107e-07
1.54824e-07
-6.9214e-07
1.45924e-07
-7.1549e-07
1.36195e-07
-7.37028e-07
1.25701e-07
-7.56637e-07
1.14506e-07
-7.74213e-07
1.02674e-07
-7.8966e-07
9.02725e-08
-8.02894e-07
7.73695e-08
-8.13843e-07
6.40339e-08
-8.22448e-07
5.03361e-08
-8.28659e-07
3.63474e-08
-8.32442e-07
2.21403e-08
-8.33771e-07
7.78846e-09
-8.32636e-07
-6.63351e-09
-8.29039e-07
-2.105e-08
-8.22992e-07
-3.53843e-08
-8.14524e-07
-4.95592e-08
-8.03674e-07
-6.34965e-08
-7.90495e-07
-7.71176e-08
-7.75054e-07
-9.03434e-08
-7.57428e-07
-1.03095e-07
-7.37712e-07
-1.15293e-07
-7.16009e-07
-1.2686e-07
-6.92437e-07
-1.37717e-07
-6.67126e-07
-1.47789e-07
-6.40219e-07
-1.57e-07
-6.1187e-07
-1.65278e-07
-5.82243e-07
-1.72553e-07
-5.51515e-07
-1.78759e-07
-5.19871e-07
-1.83834e-07
-4.87506e-07
-1.87719e-07
-4.54622e-07
-1.90364e-07
-4.21428e-07
-1.91723e-07
-3.88141e-07
-1.91758e-07
-3.54979e-07
-1.90438e-07
-3.22163e-07
-1.87745e-07
-2.89916e-07
-1.8367e-07
-2.5846e-07
-1.78216e-07
-2.28012e-07
-1.71401e-07
-1.98784e-07
-1.6326e-07
-1.7098e-07
-1.53844e-07
-1.44793e-07
-1.43229e-07
-1.20401e-07
-1.31512e-07
-9.79678e-08
-1.18819e-07
-7.76355e-08
-1.05309e-07
-5.95255e-08
-9.1178e-08
-4.37352e-08
-7.66664e-08
-3.03358e-08
-6.20645e-08
-1.9373e-08
-4.77212e-08
-1.08669e-08
-3.40537e-08
-4.81575e-09
-2.15538e-08
-1.20124e-09
-1.07972e-08
-2.48999e-09
-1.5328e-09
4.5287e-09
-6.03924e-09
1.6688e-08
-1.34475e-08
3.10674e-08
-2.36898e-08
4.69516e-08
-3.66917e-08
6.37541e-08
-5.23657e-08
8.0973e-08
-7.06081e-08
9.81837e-08
-9.1297e-08
1.15033e-07
-1.14292e-07
1.31229e-07
-1.39437e-07
1.46535e-07
-1.66556e-07
1.60761e-07
-1.95464e-07
1.73757e-07
-2.2596e-07
1.85408e-07
-2.57836e-07
1.95629e-07
-2.90876e-07
2.04359e-07
-3.24859e-07
2.11561e-07
-3.59561e-07
2.17215e-07
-3.94757e-07
2.21316e-07
-4.30222e-07
2.23873e-07
-4.65736e-07
2.24908e-07
-5.01079e-07
2.2445e-07
-5.36037e-07
2.22536e-07
-5.70403e-07
2.19213e-07
-6.03977e-07
2.14531e-07
-6.36563e-07
2.08545e-07
-6.67979e-07
2.01315e-07
-6.98048e-07
1.92905e-07
-7.26604e-07
1.8338e-07
-7.53491e-07
1.72811e-07
-7.78563e-07
1.61267e-07
-8.01685e-07
1.48824e-07
-8.22735e-07
1.35555e-07
-8.41598e-07
1.21538e-07
-8.58176e-07
1.0685e-07
-8.72379e-07
9.15729e-08
-8.84132e-07
7.57867e-08
-8.93371e-07
5.95746e-08
-9.00044e-07
4.30204e-08
-9.04113e-07
2.62095e-08
-9.05553e-07
9.22862e-09
-9.04352e-07
-7.83446e-09
-9.00511e-07
-2.48907e-08
-8.94045e-07
-4.18501e-08
-8.84983e-07
-5.86216e-08
-8.73366e-07
-7.51134e-08
-8.5925e-07
-9.12331e-08
-8.42706e-07
-1.06888e-07
-8.23816e-07
-1.21985e-07
-8.02678e-07
-1.36431e-07
-7.79403e-07
-1.50135e-07
-7.54114e-07
-1.63006e-07
-7.2695e-07
-1.74953e-07
-6.98061e-07
-1.85889e-07
-6.67608e-07
-1.9573e-07
-6.35768e-07
-2.04393e-07
-6.02724e-07
-2.11802e-07
-5.68674e-07
-2.17884e-07
-5.33823e-07
-2.2257e-07
-4.98386e-07
-2.25802e-07
-4.62583e-07
-2.27526e-07
-4.26642e-07
-2.27698e-07
-3.90795e-07
-2.26285e-07
-3.55277e-07
-2.23263e-07
-3.20324e-07
-2.18623e-07
-2.8617e-07
-2.1237e-07
-2.53048e-07
-2.04524e-07
-2.21182e-07
-1.95125e-07
-1.90793e-07
-1.84234e-07
-1.62087e-07
-1.71935e-07
-1.35259e-07
-1.58339e-07
-1.1049e-07
-1.43588e-07
-8.79398e-08
-1.27859e-07
-6.77508e-08
-1.11367e-07
-5.00429e-08
-9.43743e-08
-3.49141e-08
-7.71932e-08
-2.24402e-08
-6.01952e-08
-1.26767e-08
-4.38172e-08
-5.66281e-09
-2.85677e-08
-1.42737e-09
-1.50326e-08
-3.91736e-09
-1.75764e-09
6.28634e-09
-6.88567e-09
2.1816e-08
-1.52611e-08
3.94428e-08
-2.67688e-08
5.84593e-08
-4.12917e-08
7.8277e-08
-5.87049e-08
9.83861e-08
-7.88715e-08
1.1835e-07
-1.01641e-07
1.37802e-07
-1.26848e-07
1.56436e-07
-1.54313e-07
1.74e-07
-1.83842e-07
1.9029e-07
-2.1523e-07
2.05145e-07
-2.48262e-07
2.1844e-07
-2.82714e-07
2.30081e-07
-3.18356e-07
2.40001e-07
-3.54954e-07
2.48159e-07
-3.92272e-07
2.54532e-07
-4.30071e-07
2.59115e-07
-4.68117e-07
2.61919e-07
-5.06175e-07
2.62966e-07
-5.44017e-07
2.62291e-07
-5.81417e-07
2.59937e-07
-6.18159e-07
2.55955e-07
-6.5403e-07
2.50402e-07
-6.88829e-07
2.43344e-07
-7.22362e-07
2.34847e-07
-7.54443e-07
2.24986e-07
-7.849e-07
2.13837e-07
-8.13568e-07
2.01479e-07
-8.40295e-07
1.87994e-07
-8.64938e-07
1.73467e-07
-8.87369e-07
1.57985e-07
-9.07469e-07
1.41638e-07
-9.25133e-07
1.24514e-07
-9.40268e-07
1.06708e-07
-9.52795e-07
8.83133e-08
-9.62646e-07
6.94253e-08
-9.69767e-07
5.01415e-08
-9.74118e-07
3.05607e-08
-9.75673e-07
1.07832e-08
-9.74418e-07
-9.08934e-09
-9.70355e-07
-2.8954e-08
-9.63498e-07
-4.87064e-08
-9.53878e-07
-6.82415e-08
-9.41539e-07
-8.7453e-08
-9.26538e-07
-1.06234e-07
-9.08948e-07
-1.24477e-07
-8.88857e-07
-1.42076e-07
-8.66366e-07
-1.58922e-07
-8.41592e-07
-1.7491e-07
-8.14663e-07
-1.89934e-07
-7.85725e-07
-2.03891e-07
-7.54934e-07
-2.1668e-07
-7.22461e-07
-2.28203e-07
-6.88488e-07
-2.38366e-07
-6.5321e-07
-2.4708e-07
-6.16833e-07
-2.54261e-07
-5.79573e-07
-2.59831e-07
-5.41653e-07
-2.63721e-07
-5.03308e-07
-2.65871e-07
-4.64776e-07
-2.66231e-07
-4.26301e-07
-2.6476e-07
-3.88131e-07
-2.61433e-07
-3.50514e-07
-2.5624e-07
-3.13699e-07
-2.49185e-07
-2.77931e-07
-2.40292e-07
-2.43451e-07
-2.29605e-07
-2.10493e-07
-2.17192e-07
-1.7928e-07
-2.03148e-07
-1.50024e-07
-1.87595e-07
-1.22924e-07
-1.70689e-07
-9.8159e-08
-1.52623e-07
-7.58944e-08
-1.33632e-07
-5.62744e-08
-1.13994e-07
-3.94242e-08
-9.40434e-08
-2.54509e-08
-7.41684e-08
-1.44453e-08
-5.48228e-08
-6.48588e-09
-3.65271e-08
-1.64524e-09
-1.98733e-08
-5.5626e-09
-1.97418e-09
8.26051e-09
-7.70601e-09
2.75478e-08
-1.70266e-08
4.87634e-08
-2.9777e-08
7.12097e-08
-4.57997e-08
9.42996e-08
-6.49327e-08
1.17519e-07
-8.70062e-08
1.40424e-07
-1.1184e-07
1.62636e-07
-1.39243e-07
1.83839e-07
-1.69012e-07
2.03769e-07
-2.00933e-07
2.22211e-07
-2.34782e-07
2.38994e-07
-2.70326e-07
2.53984e-07
-3.07326e-07
2.67081e-07
-3.45538e-07
2.78213e-07
-3.84714e-07
2.87335e-07
-4.24604e-07
2.94422e-07
-4.6496e-07
2.99471e-07
-5.05533e-07
3.02493e-07
-5.46081e-07
3.03513e-07
-5.86362e-07
3.02572e-07
-6.26142e-07
2.99717e-07
-6.65194e-07
2.95007e-07
-7.03298e-07
2.88507e-07
-7.40244e-07
2.80289e-07
-7.75827e-07
2.70431e-07
-8.09857e-07
2.59017e-07
-8.42152e-07
2.46132e-07
-8.72542e-07
2.31868e-07
-9.00866e-07
2.16318e-07
-9.26978e-07
1.99579e-07
-9.50743e-07
1.8175e-07
-9.72037e-07
1.62932e-07
-9.90751e-07
1.43229e-07
-1.00679e-06
1.22746e-07
-1.02007e-06
1.0159e-07
-1.03051e-06
7.9872e-08
-1.03807e-06
5.77017e-08
-1.0427e-06
3.51922e-08
-1.04438e-06
1.24579e-08
-1.04308e-06
-1.03852e-08
-1.03882e-06
-3.32195e-08
-1.0316e-06
-5.59261e-08
-1.02145e-06
-7.8385e-08
-1.00843e-06
-1.00475e-07
-9.92592e-07
-1.22075e-07
-9.74008e-07
-1.43061e-07
-9.52772e-07
-1.63312e-07
-9.28989e-07
-1.82705e-07
-9.02779e-07
-2.0112e-07
-8.74277e-07
-2.18436e-07
-8.43632e-07
-2.34536e-07
-8.11009e-07
-2.49304e-07
-7.76583e-07
-2.62628e-07
-7.40547e-07
-2.74403e-07
-7.03101e-07
-2.84525e-07
-6.64462e-07
-2.929e-07
-6.24853e-07
-2.99439e-07
-5.8451e-07
-3.04064e-07
-5.43676e-07
-3.06705e-07
-5.02601e-07
-3.07305e-07
-4.61541e-07
-3.0582e-07
-4.20756e-07
-3.02219e-07
-3.80507e-07
-2.96489e-07
-3.41057e-07
-2.88635e-07
-3.02664e-07
-2.78684e-07
-2.65586e-07
-2.66684e-07
-2.3007e-07
-2.52708e-07
-1.96358e-07
-2.3686e-07
-1.6468e-07
-2.19273e-07
-1.35252e-07
-2.00117e-07
-1.08278e-07
-1.79598e-07
-8.39434e-08
-1.57966e-07
-6.24195e-08
-1.35518e-07
-4.38596e-08
-1.12603e-07
-2.8402e-08
-8.9626e-08
-1.61719e-08
-6.70529e-08
-7.28547e-09
-4.54136e-08
-1.85539e-09
-2.53033e-08
-7.41799e-09
-2.18315e-09
1.04437e-08
-8.50181e-09
3.38665e-08
-1.87457e-08
5.90073e-08
-3.27154e-08
8.51794e-08
-5.02147e-08
1.11799e-07
-7.10461e-08
1.38351e-07
-9.50072e-08
1.64385e-07
-1.21888e-07
1.89517e-07
-1.5147e-07
2.13421e-07
-1.83527e-07
2.35826e-07
-2.17823e-07
2.56507e-07
-2.54113e-07
2.75285e-07
-2.92149e-07
2.9202e-07
-3.31673e-07
3.06605e-07
-3.72427e-07
3.18967e-07
-4.1415e-07
3.29057e-07
-4.56578e-07
3.36851e-07
-4.99452e-07
3.42344e-07
-5.42511e-07
3.45552e-07
-5.85502e-07
3.46504e-07
-6.28174e-07
3.45244e-07
-6.70284e-07
3.41827e-07
-7.11595e-07
3.36317e-07
-7.51878e-07
3.2879e-07
-7.90915e-07
3.19326e-07
-8.28496e-07
3.08012e-07
-8.64421e-07
2.94942e-07
-8.98502e-07
2.80214e-07
-9.30563e-07
2.63929e-07
-9.60439e-07
2.46194e-07
-9.87976e-07
2.27117e-07
-1.01304e-06
2.06809e-07
-1.03549e-06
1.85386e-07
-1.05523e-06
1.62964e-07
-1.07214e-06
1.39661e-07
-1.08615e-06
1.156e-07
-1.09718e-06
9.09031e-08
-1.10518e-06
6.56957e-08
-1.11009e-06
4.0105e-08
-1.11189e-06
1.42601e-08
-1.11057e-06
-1.17081e-08
-1.10612e-06
-3.76672e-08
-1.09856e-06
-6.34831e-08
-1.08793e-06
-8.90204e-08
-1.07426e-06
-1.14143e-07
-1.05762e-06
-1.38712e-07
-1.03809e-06
-1.62592e-07
-1.01576e-06
-1.85643e-07
-9.90738e-07
-2.07728e-07
-9.63148e-07
-2.2871e-07
-9.33129e-07
-2.48454e-07
-9.00837e-07
-2.66828e-07
-8.6644e-07
-2.83701e-07
-8.30121e-07
-2.98947e-07
-7.92078e-07
-3.12446e-07
-7.5252e-07
-3.24083e-07
-7.11671e-07
-3.33749e-07
-6.69763e-07
-3.41347e-07
-6.27042e-07
-3.46785e-07
-5.83761e-07
-3.49987e-07
-5.4018e-07
-3.50886e-07
-4.96568e-07
-3.49432e-07
-4.53195e-07
-3.45592e-07
-4.10337e-07
-3.39347e-07
-3.68268e-07
-3.30704e-07
-3.27265e-07
-3.19688e-07
-2.87597e-07
-3.06351e-07
-2.4953e-07
-2.90774e-07
-2.13324e-07
-2.73067e-07
-1.79226e-07
-2.53371e-07
-1.47475e-07
-2.31868e-07
-1.18295e-07
-2.08777e-07
-9.18978e-08
-1.84363e-07
-6.84794e-08
-1.58937e-07
-4.82224e-08
-1.3286e-07
-3.12961e-08
-1.06552e-07
-1.78593e-08
-8.04897e-08
-8.06359e-09
-5.52092e-08
-2.0587e-09
-3.13082e-08
-9.47669e-09
-2.38545e-09
1.28291e-08
-9.27541e-09
4.07565e-08
-2.04221e-08
7.01539e-08
-3.55882e-08
1.00346e-07
-5.45414e-08
1.30752e-07
-7.70494e-08
1.60859e-07
-1.02878e-07
1.90213e-07
-1.31787e-07
2.18426e-07
-1.63532e-07
2.45166e-07
-1.9786e-07
2.70154e-07
-2.34514e-07
2.93161e-07
-2.73229e-07
3.14e-07
-3.13738e-07
3.32528e-07
-3.55766e-07
3.48634e-07
-3.9904e-07
3.62242e-07
-4.43285e-07
3.73301e-07
-4.88223e-07
3.8179e-07
-5.33583e-07
3.87705e-07
-5.79095e-07
3.91064e-07
-6.24493e-07
3.91902e-07
-6.69517e-07
3.90268e-07
-7.13914e-07
3.86224e-07
-7.5744e-07
3.79843e-07
-7.99858e-07
3.71208e-07
-8.40942e-07
3.60409e-07
-8.80475e-07
3.47545e-07
-9.18251e-07
3.32718e-07
-9.54076e-07
3.16039e-07
-9.87768e-07
2.97621e-07
-1.01916e-06
2.77582e-07
-1.04808e-06
2.56044e-07
-1.07441e-06
2.33132e-07
-1.09799e-06
2.08973e-07
-1.11873e-06
1.83697e-07
-1.1365e-06
1.57437e-07
-1.15123e-06
1.30329e-07
-1.16284e-06
1.02511e-07
-1.17126e-06
7.41212e-08
-1.17646e-06
4.53026e-08
-1.1784e-06
1.6199e-08
-1.17707e-06
-1.30435e-08
-1.17246e-06
-4.22771e-08
-1.16459e-06
-7.13521e-08
-1.15349e-06
-1.00118e-07
-1.13921e-06
-1.28421e-07
-1.12181e-06
-1.56109e-07
-1.10138e-06
-1.83028e-07
-1.078e-06
-2.09024e-07