/*--------------------------------*- C++ -*----------------------------------*\
  =========                 |
  \\      /  F ield         | OpenFOAM: The Open Source CFD Toolbox
   \\    /   O peration     | Website:  https://openfoam.org
    \\  /    A nd           | Version:  7
     \\/     M anipulation  |
\*---------------------------------------------------------------------------*/
FoamFile
{
    version     2.0;
    format      ascii;
    class       volScalarField;
    location    "0.475";
    object      p;
}
// * * * * * * * * * * * * * * * * * * * * * * * * * * * * * * * * * * * * * //

dimensions      [0 2 -2 0 0 0 0];

internalField   nonuniform List<scalar> 
6400
(
9.3023e-06
2.83142e-05
-0.000477318
-0.00151035
-0.00295313
-0.00469534
-0.0066366
-0.00868736
-0.0107704
-0.0128203
-0.0147819
-0.0166091
-0.0182634
-0.019713
-0.0209321
-0.0219001
-0.0226007
-0.0230219
-0.023155
-0.0229947
-0.0225385
-0.0217865
-0.0207411
-0.0194069
-0.0177904
-0.0158997
-0.0137448
-0.0113369
-0.00868873
-0.00581406
-0.00272794
0.00055359
0.00401354
0.00763403
0.0113964
0.0152813
0.0192686
0.0233379
0.0274679
0.0316372
0.035824
0.0400062
0.0441615
0.0482677
0.0523025
0.0562438
0.0600698
0.0637591
0.0672908
0.0706447
0.0738012
0.076742
0.0794495
0.0819079
0.0841024
0.0860199
0.0876494
0.0889816
0.0900095
0.0907286
0.0911368
0.0912352
0.0910277
0.0905217
0.0897283
0.0886624
0.0873436
0.0857958
0.0840485
0.0821369
0.0801028
0.0779954
0.0758721
0.0738001
0.0718568
0.0701308
0.0687191
0.067726
0.067258
0.0672956
4.10379e-06
1.82016e-05
-0.000435351
-0.00131887
-0.00253305
-0.00399867
-0.00563981
-0.00738405
-0.00916614
-0.0109288
-0.0126224
-0.0142044
-0.0156387
-0.016895
-0.0179482
-0.0187778
-0.0193678
-0.0197055
-0.0197819
-0.019591
-0.0191294
-0.0183964
-0.0173934
-0.0161239
-0.0145934
-0.012809
-0.0107794
-0.00851472
-0.00602649
-0.00332737
-0.000431161
0.0026473
0.00589225
0.00928707
0.0128144
0.016456
0.0201933
0.0240069
0.0278772
0.0317839
0.0357066
0.0396247
0.0435173
0.0473636
0.0511429
0.0548344
0.058418
0.0618736
0.065182
0.0683243
0.0712826
0.07404
0.0765805
0.0788896
0.080954
0.082762
0.0843038
0.0855714
0.086559
0.087263
0.0876824
0.0878189
0.0876773
0.0872653
0.0865941
0.0856789
0.0845386
0.0831966
0.0816809
0.080025
0.0782675
0.0764535
0.0746346
0.0728691
0.0712224
0.0697659
0.0685727
0.0677177
0.0672944
0.0673331
0.000511643
0.000473593
1.96324e-05
-0.000796453
-0.00188742
-0.00318998
-0.00464295
-0.0061862
-0.00776406
-0.00932651
-0.0108292
-0.0122336
-0.0135062
-0.0146188
-0.0155473
-0.0162723
-0.016778
-0.0170518
-0.0170848
-0.0168704
-0.016405
-0.0156873
-0.014718
-0.0135
-0.012038
-0.0103383
-0.00840866
-0.00625841
-0.00389809
-0.00133946
0.00140465
0.00432039
0.00739299
0.0106068
0.0139456
0.0173921
0.0209289
0.0245376
0.0281996
0.031896
0.0356073
0.039314
0.0429966
0.0466353
0.0502106
0.053703
0.0570933
0.060363
0.0634938
0.0664682
0.0692693
0.0718815
0.07429
0.0764812
0.0784429
0.0801646
0.0816373
0.082854
0.0838096
0.0845013
0.0849287
0.085094
0.0850021
0.084661
0.0840819
0.0832793
0.0822718
0.0810814
0.0797347
0.0782628
0.0767013
0.0750913
0.0734785
0.071914
0.0704538
0.069157
0.068083
0.067292
0.0668695
0.066867
0.00154486
0.00135979
0.000835963
1.65451e-05
-0.00103179
-0.00225548
-0.00360279
-0.00502298
-0.0064684
-0.00789543
-0.00926488
-0.010542
-0.0116966
-0.0127025
-0.0135374
-0.014183
-0.0146241
-0.014849
-0.0148487
-0.0146168
-0.0141494
-0.0134451
-0.0125041
-0.011329
-0.00992372
-0.00829409
-0.00644726
-0.0043918
-0.00213755
0.000304536
0.00292239
0.00570299
0.00863241
0.0116959
0.014878
0.0181625
0.0215326
0.0249712
0.0284604
0.0319822
0.0355183
0.03905
0.0425587
0.0460258
0.0494326
0.0527607
0.0559919
0.0591086
0.0620935
0.06493
0.0676024
0.0700957
0.0723962
0.0744911
0.0763691
0.0780204
0.0794367
0.0806116
0.0815406
0.0822213
0.0826538
0.0828403
0.0827859
0.0824983
0.0819885
0.0812703
0.0803612
0.079282
0.0780575
0.0767162
0.0752908
0.0738179
0.0723385
0.0708971
0.0695419
0.0683233
0.0672917
0.0664988
0.0660126
0.0658771
0.00299401
0.00258245
0.00193074
0.00105837
2.57746e-06
-0.0011918
-0.00248088
-0.00382239
-0.00517605
-0.00650433
-0.00777302
-0.00895142
-0.0100124
-0.0109323
-0.011691
-0.0122713
-0.0126592
-0.0128437
-0.0128161
-0.0125705
-0.012103
-0.0114118
-0.0104974
-0.00936162
-0.00800826
-0.00644252
-0.00467106
-0.00270185
-0.000544069
0.00179199
0.00429498
0.00695263
0.00975178
0.0126785
0.015718
0.0188551
0.0220737
0.0253576
0.0286898
0.0320531
0.0354302
0.0388032
0.0421544
0.0454661
0.0487205
0.0519001
0.0549877
0.0579664
0.0608199
0.0635324
0.066089
0.0684757
0.0706792
0.0726878
0.0744907
0.0760787
0.0774442
0.0785812
0.0794857
0.0801555
0.0805907
0.0807939
0.0807698
0.0805259
0.0800725
0.0794228
0.078593
0.0776024
0.0764737
0.075233
0.0739096
0.0725362
0.0711487
0.0697859
0.0684887
0.0672997
0.066262
0.0654194
0.0648131
0.0644653
0.00475695
0.00406853
0.00324581
0.00228022
0.00117557
-3.10325e-05
-0.00130235
-0.00260368
-0.0039015
-0.00516393
-0.00636149
-0.00746743
-0.0084578
-0.00931157
-0.0100106
-0.0105394
-0.0108851
-0.0110377
-0.0109891
-0.0107337
-0.0102679
-0.00959007
-0.00870043
-0.00760078
-0.00629455
-0.0047866
-0.00308315
-0.00119166
0.000879242
0.00311985
0.00551945
0.00806644
0.0107484
0.0135519
0.0164633
0.0194677
0.0225502
0.0256951
0.0288863
0.0321074
0.0353418
0.0385726
0.0417829
0.0449556
0.0480739
0.051121
0.0540805
0.0569364
0.059673
0.0622753
0.0647292
0.0670212
0.0691389
0.071071
0.0728073
0.0743392
0.0756594
0.0767623
0.0776441
0.0783028
0.0787387
0.0789539
0.0789532
0.0787434
0.0783342
0.0777378
0.076969
0.0760457
0.0749883
0.0738204
0.0725681
0.0712602
0.069928
0.0686048
0.0673253
0.0661248
0.0650404
0.0641085
0.0633392
0.0627283
0.00674297
0.00574944
0.00472592
0.00363551
0.00244811
0.00119428
-9.41611e-05
-0.00138919
-0.00266326
-0.00388968
-0.0050434
-0.00610139
-0.00704284
-0.00784931
-0.00850473
-0.00899538
-0.00930982
-0.00943882
-0.00937527
-0.00911406
-0.00865197
-0.00798755
-0.00712104
-0.0060542
-0.00479029
-0.00333391
-0.00169093
0.000131577
0.00212544
0.00428147
0.00658951
0.00903853
0.0116167
0.0143113
0.0171092
0.0199965
0.0229586
0.0259808
0.0290475
0.0321433
0.035252
0.0383576
0.0414439
0.0444946
0.0474935
0.0504245
0.053272
0.0560205
0.0586551
0.0611615
0.063526
0.0657358
0.0677789
0.0696445
0.071323
0.072806
0.0740865
0.0751592
0.0760204
0.0766681
0.0771025
0.0773255
0.0773413
0.0771564
0.0767795
0.0762218
0.0754967
0.0746204
0.0736113
0.0724904
0.0712806
0.0700074
0.0686976
0.0673798
0.0660828
0.0648359
0.0636708
0.0626183
0.061656
0.0607526
0.0088728
0.00756068
0.00631724
0.00507887
0.00378266
0.00245391
0.00112006
-0.000196654
-0.00147398
-0.00268984
-0.00382325
-0.00485468
-0.00576634
-0.00654228
-0.00716854
-0.00763315
-0.00792608
-0.00803924
-0.00796637
-0.00770302
-0.00724644
-0.00659549
-0.00575054
-0.00471342
-0.0034873
-0.00207662
-0.000487014
0.00127477
0.00320093
0.00528269
0.00751038
0.00987347
0.0123606
0.0149599
0.0176585
0.0204431
0.0233
0.0262149
0.029173
0.0321593
0.0351586
0.0381552
0.0411338
0.0440785
0.0469739
0.0498045
0.0525552
0.0552112
0.057758
0.0601819
0.0624696
0.0646089
0.0665882
0.0683969
0.0700259
0.0714669
0.0727132
0.0737595
0.0746021
0.075239
0.0756701
0.075897
0.0759234
0.0757551
0.0753999
0.0748678
0.074171
0.0733239
0.0723428
0.0712463
0.0700545
0.0687895
0.0674743
0.0661332
0.06479
0.0634684
0.0621965
0.0609999
0.0598249
0.0586145
0.0110794
0.00944474
0.00797029
0.00656774
0.0051433
0.00371815
0.00231636
0.000955178
-0.000347772
-0.00157449
-0.00270763
-0.00373092
-0.00462938
-0.00538949
-0.00599933
-0.00644865
-0.00672886
-0.00683304
-0.00675588
-0.00649365
-0.00604414
-0.00540661
-0.00458168
-0.0035713
-0.00237864
-0.00100808
0.000534916
0.00224383
0.00411116
0.00612848
0.00828651
0.0105751
0.0129836
0.0155002
0.0181129
0.0208089
0.0235749
0.0263973
0.0292618
0.032154
0.0350591
0.0379624
0.0408486
0.0437028
0.0465099
0.049255
0.0519235
0.0545009
0.0569735
0.0593277
0.0615508
0.0636308
0.0655565
0.0673176
0.0689051
0.0703108
0.0715282
0.0725519
0.0733781
0.0740048
0.0744312
0.0746588
0.0746907
0.0745317
0.0741889
0.073671
0.072989
0.0721554
0.0711847
0.0700932
0.0688984
0.0676192
0.0662755
0.0648874
0.0634748
0.0620565
0.0606577
0.0593002
0.0579006
0.0563783
0.0133069
0.0113515
0.0096406
0.00806303
0.00649617
0.00495822
0.0034707
0.00204663
0.00069966
-0.000555792
-0.00170564
-0.00273654
-0.00363613
-0.00439317
-0.0049977
-0.00544115
-0.00571636
-0.00581759
-0.00574052
-0.00548219
-0.005041
-0.00441665
-0.00361008
-0.00262345
-0.00146001
-0.000124134
0.0013788
0.00304244
0.0048595
0.00682184
0.0089205
0.0111458
0.0134872
0.0159336
0.0184734
0.0210942
0.0237832
0.0265272
0.0293126
0.0321254
0.0349514
0.037776
0.0405849
0.0433633
0.0460968
0.0487707
0.051371
0.0538835
0.0562949
0.0585919
0.0607621
0.0627938
0.0646759
0.0663983
0.0679521
0.0693292
0.070523
0.0715281
0.0723404
0.0729576
0.0733787
0.0736044
0.0736373
0.0734816
0.0731431
0.0726296
0.0719506
0.0711171
0.0701417
0.0690385
0.0678228
0.0665106
0.0651189
0.0636647
0.0621639
0.0606318
0.0590911
0.0575612
0.0559308
0.0540974
0.0155083
0.0132376
0.0112886
0.00952913
0.0078098
0.0061467
0.00455959
0.00305796
0.001652
0.000353047
-0.00082769
-0.00187951
-0.00279242
-0.0035573
-0.00416607
-0.00461177
-0.00488863
-0.00499207
-0.00491877
-0.00466657
-0.00423453
-0.00362285
-0.00283283
-0.00186688
-0.000728424
0.000578128
0.00204742
0.00367318
0.0054483
0.00736484
0.00941412
0.0115867
0.0138725
0.0162607
0.01874
0.0212986
0.0239241
0.0266035
0.0293239
0.0320715
0.0348326
0.0375932
0.0403391
0.0430561
0.04573
0.0483468
0.0508924
0.0533533
0.0557161
0.057968
0.0600968
0.0620907
0.063939
0.0656317
0.0671596
0.0685148
0.0696905
0.070681
0.0714822
0.0720913
0.0725068
0.0727289
0.0727595
0.0726018
0.072261
0.0717435
0.0710575
0.0702125
0.0692195
0.0680906
0.0668389
0.0654781
0.0640226
0.0624865
0.0608828
0.0592235
0.05753
0.0558199
0.0539562
0.051816
0.0176444
0.0150652
0.0128789
0.0109337
0.00905506
0.00725776
0.00556043
0.00396965
0.0024927
0.00113821
-8.5118e-05
-0.00116893
-0.00210538
-0.00288731
-0.00350838
-0.00396317
-0.00424723
-0.00435715
-0.00429057
-0.00404617
-0.00362367
-0.00302379
-0.00224828
-0.00129981
-0.000182031
0.00110054
0.00254252
0.00413768
0.00587901
0.00775873
0.00976834
0.0118987
0.0141399
0.0164815
0.0189126
0.0214216
0.0239965
0.0266247
0.0292936
0.0319899
0.0347001
0.0374105
0.0401075
0.0427771
0.0454053
0.0479784
0.0504827
0.0529047
0.0552314
0.0574501
0.0595486
0.0615154
0.0633396
0.0650112
0.0665211
0.0678612
0.0690244
0.070005
0.0707982
0.0714009
0.0718113
0.0720288
0.0720545
0.071891
0.0715423
0.0710138
0.0703125
0.0694465
0.0684251
0.0672587
0.0659584
0.0645361
0.0630037
0.0613731
0.0596548
0.0578583
0.0560041
0.0541089
0.0520117
0.0495706
0.0196817
0.0168016
0.0143803
0.0122476
0.0102051
0.00826708
0.00645152
0.00476259
0.00320511
0.00178542
0.000510009
-0.000614862
-0.00158328
-0.00238987
-0.00302989
-0.00349938
-0.00379516
-0.00391493
-0.00385729
-0.00362174
-0.00320867
-0.00261938
-0.00185603
-0.000921659
0.000179864
0.00144386
0.00286485
0.00443661
0.00615218
0.00800388
0.00998337
0.0120816
0.0142891
0.0165955
0.0189902
0.0214619
0.0239989
0.026589
0.0292196
0.031878
0.0345509
0.0372249
0.0398866
0.0425223
0.0451183
0.047661
0.0501369
0.0525328
0.0548356
0.0570327
0.059112
0.0610621
0.0628719
0.0645314
0.0660312
0.0673632
0.0685199
0.0694952
0.0702841
0.0708829
0.0712892
0.0715018
0.0715212
0.0713489
0.0709881
0.0704431
0.0697197
0.0688247
0.067766
0.0665524
0.0651934
0.0636989
0.0620792
0.060344
0.058502
0.0565606
0.0545401
0.0524568
0.0501273
0.0473918
0.0215914
0.0184181
0.0157649
0.013444
0.0112351
0.00915181
0.00721211
0.00541816
0.00377272
0.00228017
0.000945071
-0.000228157
-0.00123535
-0.00207272
-0.00273705
-0.00322569
-0.00353669
-0.00366881
-0.00362158
-0.00339531
-0.00299106
-0.00241071
-0.00165688
-0.000732976
0.000356869
0.00160777
0.00301415
0.0045697
0.00626748
0.00809986
0.0100586
0.0121349
0.0143192
0.0166015
0.0189714
0.0214179
0.0239293
0.0264939
0.0290994
0.031733
0.0343819
0.0370329
0.0396727
0.0422879
0.0448649
0.0473903
0.0498506
0.0522327
0.0545237
0.0567108
0.0587821
0.0607258
0.062531
0.0641873
0.0656853
0.0670163
0.0681728
0.0691481
0.0699369
0.0705347
0.0709388
0.0711471
0.0711595
0.0709766
0.0706006
0.0700349
0.0692841
0.0683538
0.0672506
0.065982
0.0645559
0.0629807
0.0612651
0.0594175
0.0574446
0.0553525
0.0531617
0.0508887
0.0483287
0.0453051
0.0233487
0.0198891
0.0170074
0.0144989
0.0121219
0.00989044
0.00782233
0.00591821
0.00417913
0.00260777
0.00120704
-2.02745e-05
-0.00107157
-0.00194454
-0.0026373
-0.00314847
-0.00347723
-0.00362336
-0.00358728
-0.00337009
-0.00297353
-0.00240004
-0.00165273
-0.000735379
0.000347573
0.00159102
0.00298922
0.00453579
0.00622374
0.00804546
0.00999276
0.0120569
0.0142285
0.0164978
0.0188543
0.0212873
0.0237855
0.0263371
0.02893
0.0315519
0.0341899
0.036831
0.0394622
0.04207
0.044641
0.0471619
0.0496194
0.0520001
0.0542912
0.05648
0.0585543
0.0605022
0.0623126
0.063975
0.0654795
0.0668172
0.06798
0.0689611
0.0697543
0.0703549
0.0707592
0.0709648
0.0709704
0.0707761
0.070383
0.0697937
0.0690115
0.0680411
0.0668878
0.0655578
0.064058
0.0623953
0.0605772
0.0586107
0.0565015
0.0542544
0.0518905
0.0494268
0.0466383
0.0433322
0.0249313
0.0211919
0.018085
0.0153899
0.0128443
0.0104626
0.00826312
0.00624511
0.00440813
0.00275347
0.00128259
-3.18281e-06
-0.00110263
-0.00201478
-0.00273899
-0.00327505
-0.0036232
-0.00378418
-0.00375928
-0.00355035
-0.00315981
-0.00259065
-0.00184648
-0.000931475
0.000149606
0.00139141
0.00278801
0.00433289
0.00601899
0.00783869
0.0097838
0.0118456
0.0140149
0.0162819
0.0186364
0.0210677
0.0235645
0.0261155
0.0287085
0.0313313
0.0339714
0.0366157
0.0392512
0.0418646
0.0444427
0.0469719
0.049439
0.0518308
0.0541341
0.0563361
0.0584246
0.0603874
0.0622131
0.0638909
0.0654106
0.0667629
0.0679393
0.0689322
0.0697353
0.0703429
0.0707508
0.0709559
0.070956
0.0707504
0.0703395
0.0697247
0.0689084
0.0678943
0.0666867
0.0652907
0.0637119
0.0619564
0.0600305
0.0579403
0.0556904
0.0532849
0.0507458
0.0480909
0.0450757
0.0414919
0.0263193
0.0223058
0.0189769
0.0160962
0.013382
0.010849
0.00851612
0.0063816
0.00444368
0.00270246
0.00115812
-0.000189279
-0.00133977
-0.00229359
-0.00305126
-0.00361363
-0.00398193
-0.00415783
-0.00414344
-0.00394134
-0.00355461
-0.0029868
-0.002242
-0.0013248
-0.000240303
0.00100588
0.0024076
0.00395821
0.00565053
0.00747688
0.00942906
0.0114984
0.0136756
0.0159511
0.0183147
0.0207558
0.0232633
0.0258258
0.0284314
0.0310679
0.0337227
0.036383
0.0390358
0.0416679
0.0442658
0.0468162
0.0493056
0.0517207
0.0540483
0.0562754
0.0583893
0.0603778
0.0622292
0.0639321
0.0654761
0.0668514
0.0680489
0.0690606
0.0698793
0.070499
0.0709146
0.0711222
0.071119
0.0709034
0.0704748
0.0698338
0.068982
0.067922
0.0666571
0.0651915
0.0635299
0.0616775
0.0596397
0.057422
0.0550281
0.0524616
0.0497455
0.046899
0.0436584
0.0398004
0.0274947
0.0232116
0.0196634
0.0165985
0.0137159
0.011031
0.00856358
0.00631079
0.00426988
0.00243986
0.000819802
-0.000591344
-0.00179475
-0.00279177
-0.00358396
-0.00417318
-0.00456161
-0.00475176
-0.00474653
-0.00454923
-0.00416356
-0.00359364
-0.00284404
-0.00191977
-0.000826272
0.000430544
0.00184431
0.00340819
0.00511489
0.00695664
0.00892518
0.0110118
0.0132073
0.015502
0.0178859
0.0203483
0.0228783
0.0254644
0.0280949
0.0307576
0.0334399
0.0361291
0.0388122
0.0414758
0.0441065
0.0466908
0.0492152
0.0516661
0.0540302
0.0562942
0.0584452
0.0604706
0.0623582
0.0640964
0.0656742
0.0670813
0.0683081
0.0693459
0.0701869
0.0708243
0.0712525
0.0714666
0.0714632
0.0712396
0.0707947
0.0701279
0.0692401
0.068133
0.066809
0.0652715
0.0635244
0.061572
0.0594192
0.0570709
0.0545303
0.0518007
0.0489063
0.0458675
0.0424023
0.0382724
0.0284404
0.0238914
0.0201262
0.0168783
0.0138277
0.0109909
0.00838817
0.00601608
0.0038709
0.0019507
0.000253585
-0.00122252
-0.00247982
-0.00352066
-0.0043476
-0.00496341
-0.00537115
-0.00557418
-0.00557614
-0.00538102
-0.00499314
-0.00441718
-0.0036582
-0.0027216
-0.00161322
-0.000339246
0.0010937
0.00267859
0.00440797
0.00627395
0.00826821
0.010382
0.012606
0.0149307
0.017346
0.0198412
0.0224055
0.0250274
0.0276951
0.0303965
0.0331191
0.03585
0.0385762
0.0412842
0.0439606
0.0465918
0.0491639
0.0516633
0.0540762
0.0563893
0.0585892
0.0606629
0.0625978
0.0643818
0.0660034
0.0674517
0.0687165
0.0697884
0.070659
0.0713207
0.071767
0.0719925
0.0719927
0.0717644
0.0713053
0.0706142
0.0696911
0.0685367
0.0671529
0.0655421
0.0637076
0.0616532
0.0593832
0.056902
0.0542125
0.0513178
0.0482437
0.0450119
0.0413221
0.0369213
0.0291403
0.0243281
0.0203478
0.0169179
0.0136998
0.0107111
0.00797289
0.00548102
0.00323094
0.00121991
-0.000554838
-0.00209632
-0.00340767
-0.00449217
-0.00535328
-0.00599467
-0.00642023
-0.00663409
-0.00664062
-0.00644448
-0.0060506
-0.00546421
-0.00469082
-0.0037363
-0.00260681
-0.00130888
0.000150624
0.00176445
0.00352497
0.00542416
0.0074536
0.00960445
0.0118674
0.0142329
0.0166906
0.0192302
0.0218405
0.0245102
0.0272275
0.0299802
0.0327558
0.0355413
0.0383235
0.0410891
0.0438242
0.0465152
0.049148
0.0517086
0.0541832
0.0565577
0.0588186
0.0609524
0.0629461
0.0647869
0.0664628
0.0679622
0.0692743
0.070389
0.0712972
0.0719904
0.0724615
0.072704
0.0727128
0.0724837
0.0720136
0.0713006
0.0703437
0.069143
0.0676995
0.0660151
0.0640924
0.0619346
0.0595456
0.0569297
0.0540896
0.0510281
0.0477727
0.0443468
0.0404317
0.0357597
0.0295788
0.0245053
0.0203111
0.0166999
0.013315
0.0101746
0.00730093
0.00468921
0.00233415
0.000232258
-0.00162004
-0.0032266
-0.00459144
-0.00571871
-0.00661272
-0.00727798
-0.00771917
-0.00794117
-0.00794906
-0.00774815
-0.00734396
-0.00674224
-0.00594902
-0.00497056
-0.00381341
-0.00248442
-0.000990725
0.000660185
0.0024605
0.00440204
0.00647625
0.00867421
0.0109866
0.0134036
0.0159151
0.0185104
0.0211787
0.0239083
0.0266876
0.0295042
0.0323455
0.0351985
0.0380499
0.040886
0.0436931
0.0464571
0.0491637
0.0517987
0.0543477
0.0567965
0.0591309
0.0613371
0.0634013
0.0653105
0.0670517
0.0686128
0.0699823
0.0711492
0.0721037
0.0728366
0.0733397
0.0736059
0.073629
0.0734041
0.0729273
0.0721957
0.0712076
0.0699624
0.0684603
0.0667026
0.0646915
0.0624297
0.0599208
0.0571689
0.0541764
0.0509465
0.0475082
0.0438864
0.0397444
0.0347997
0.0297407
0.0244068
0.0199994
0.0162075
0.0126561
0.00936434
0.00635552
0.00362424
0.00116455
-0.00102772
-0.00295689
-0.00462762
-0.00604473
-0.0072132
-0.00813817
-0.00882492
-0.00927892
-0.00950577
-0.00951122
-0.00930123
-0.00888189
-0.00825951
-0.00744057
-0.00643177
-0.00524005
-0.00387257
-0.00233677
-0.000640379
0.00120859
0.00320179
0.00533053
0.00758575
0.00995803
0.0124375
0.015014
0.0176768
0.0204149
0.0232167
0.0260703
0.0289635
0.0318834
0.0348169
0.0377507
0.0406707
0.0435631
0.0464135
0.0492073
0.0519299
0.0545666
0.0571028
0.0595237
0.0618149
0.0639622
0.0659517
0.06777
0.069404
0.0708416
0.072071
0.0730814
0.0738628
0.0744062
0.0747035
0.0747477
0.0745329
0.0740544
0.0733085
0.0722927
0.0710057
0.069447
0.0676173
0.0655183
0.0631524
0.060523
0.057634
0.0544879
0.0510878
0.0474646
0.0436449
0.0392737
0.0340534
0.0296107
0.0240166
0.0193962
0.0154237
0.0117061
0.00826337
0.00511982
0.00226955
-0.000294042
-0.00257575
-0.00458061
-0.00631402
-0.00778159
-0.00898909
-0.00994244
-0.0106477
-0.0111111
-0.0113389
-0.0113375
-0.0111136
-0.0106738
-0.0100249
-0.00917388
-0.00812795
-0.00689436
-0.00548065
-0.00389453
-0.00214398
-0.000237256
0.00181712
0.00401031
0.00633311
0.00877599
0.011329
0.0139819
0.0167238
0.0195437
0.02243
0.0253705
0.028353
0.0313645
0.0343918
0.0374211
0.0404386
0.0434298
0.0463802
0.0492749
0.0520988
0.0548369
0.0574739
0.0599946
0.0623841
0.0646274
0.06671
0.0686176
0.0703366
0.0718538
0.0731566
0.0742333
0.075073
0.0756658
0.0760027
0.0760756
0.0758779
0.0754038
0.0746489
0.0736098
0.0722845
0.0706719
0.0687722
0.0665866
0.0641171
0.061367
0.0583402
0.0550391
0.0514671
0.0476568
0.0436366
0.0390329
0.0335329
0.0291735
0.0233184
0.0184848
0.0143317
0.0104479
0.00685455
0.00357681
0.000608336
-0.00205811
-0.00442792
-0.00650681
-0.0083009
-0.00981657
-0.0110603
-0.0120389
-0.0127591
-0.0132278
-0.013452
-0.0134389
-0.0131957
-0.0127295
-0.0120478
-0.011158
-0.0100677
-0.00878455
-0.00731649
-0.00567152
-0.00385788
-0.00188405
0.000241257
0.00250901
0.00490988
0.00743421
0.0100719
0.0128127
0.0156456
0.0185594
0.0215425
0.0245826
0.0276673
0.0307835
0.0339178
0.0370564
0.0401849
0.0432888
0.0463531
0.0493626
0.0523019
0.0551553
0.0579071
0.0605416
0.0630431
0.065396
0.067585
0.0695951
0.0714117
0.0730207
0.0744088
0.0755631
0.0764719
0.0771242
0.07751
0.0776203
0.0774475
0.0769849
0.0762271
0.0751701
0.073811
0.0721481
0.0701811
0.0679107
0.0653387
0.0624682
0.059303
0.0558457
0.0520998
0.0480999
0.0438761
0.039036
0.033251
0.0284134
0.0222961
0.0172482
0.0129142
0.00886427
0.00512049
0.00170918
-0.00137653
-0.0041445
-0.00660072
-0.00875155
-0.0106038
-0.0121647
-0.0134414
-0.0144415
-0.0151724
-0.0156418
-0.0158575
-0.0158271
-0.0155585
-0.0150596
-0.0143383
-0.0134024
-0.0122601
-0.0109193
-0.00938846
-0.00767577
-0.00578979
-0.00373922
-0.00153301
0.000819656
0.00330928
0.00592607
0.00865986
0.0115001
0.0144359
0.0174559
0.0205483
0.0237009
0.0269008
0.0301351
0.0333899
0.0366513
0.0399048
0.0431354
0.0463278
0.0494665
0.0525355
0.0555187
0.0583999
0.0611626
0.0637904
0.0662671
0.0685766
0.0707029
0.0726306
0.0743446
0.0758307
0.0770749
0.0780645
0.0787873
0.0792324
0.0793899
0.0792508
0.0788077
0.0780543
0.0769856
0.0755981
0.0738893
0.0718584
0.0695057
0.0668327
0.0638423
0.0605385
0.0569238
0.053002
0.0488096
0.0443787
0.0392972
0.0332208
0.0273144
0.0209326
0.0156693
0.0111536
0.00693736
0.00304342
-0.000500786
-0.00370261
-0.00657052
-0.00911111
-0.0113314
-0.013239
-0.0148416
-0.0161475
-0.0171647
-0.0179015
-0.0183665
-0.0185678
-0.0185142
-0.0182138
-0.0176752
-0.0169069
-0.0159173
-0.0147148
-0.0133079
-0.0117054
-0.00991573
-0.00794782
-0.00581061
-0.00351324
-0.00106509
0.00152418
0.00424463
0.00708599
0.0100376
0.0130884
0.016227
0.0194414
0.0227192
0.0260477
0.0294134
0.0328025
0.0362007
0.0395933
0.0429649
0.0463
0.0495826
0.0527961
0.0559241
0.0589495
0.0618553
0.0646245
0.06724
0.0696846
0.0719418
0.0739949
0.0758281
0.0774257
0.0787731
0.0798562
0.0806617
0.0811776
0.0813928
0.0812975
0.0808831
0.0801422
0.0790691
0.0776593
0.0759099
0.0738193
0.0713874
0.0686155
0.0655062
0.0620636
0.0582904
0.0541906
0.0498025
0.0451603
0.0398318
0.0334564
0.0258599
0.0192109
0.0137303
0.00903205
0.00464898
0.000605035
-0.00307133
-0.00638799
-0.00935402
-0.0119766
-0.0142635
-0.0162229
-0.0178635
-0.019194
-0.0202235
-0.020961
-0.0214156
-0.0215965
-0.0215128
-0.0211736
-0.0205879
-0.0197647
-0.018713
-0.0174418
-0.0159599
-0.0142764
-0.0124002
-0.0103405
-0.00810638
-0.00570732
-0.00315287
-0.000452835
0.0023827
0.00534331
0.00841824
0.0115963
0.014866
0.0182152
0.0216315
0.0251018
0.0286126
0.0321499
0.0356991
0.0392451
0.0427725
0.0462652
0.0497066
0.05308
0.056368
0.0595532
0.0626179
0.065544
0.0683138
0.0709093
0.0733127
0.0755065
0.0774738
0.0791978
0.0806625
0.0818528
0.0827543
0.0833536
0.0836385
0.083598
0.0832223
0.0825033
0.081434
0.0800092
0.0782252
0.0760799
0.0735725
0.0707042
0.0674775
0.0638963
0.0599635
0.0556832
0.0510961
0.046238
0.0406561
0.033973
0.0240325
0.0171129
0.0114128
0.00653073
0.00198031
-0.00221355
-0.00602131
-0.00945137
-0.0125135
-0.0152154
-0.0175655
-0.0195729
-0.021247
-0.0225973
-0.0236336
-0.0243657
-0.0248037
-0.0249572
-0.0248362
-0.0244504
-0.0238095
-0.0229231
-0.0218007
-0.0204516
-0.0188853
-0.0171111
-0.0151384
-0.0129765
-0.010635
-0.00812341
-0.00545155
-0.00262939
0.000332845
0.00342461
0.00663503
0.00995282
0.0133663
0.0168633
0.0204313
0.024057
0.0277267
0.0314263
0.0351409
0.0388552
0.0425532
0.0462186
0.0498345
0.0533833
0.0568474
0.0602085
0.0634481
0.0665475
0.069488
0.0722506
0.0748166
0.0771674
0.0792847
0.0811508
0.0827483
0.0840608
0.0850726
0.085769
0.0861367
0.0861632
0.0858377
0.0851509
0.0840947
0.0826632
0.0808516
0.0786572
0.0760789
0.0731173
0.0697749
0.0660555
0.061962
0.057499
0.052709
0.04763
0.0417876
0.0347869
0.0218143
0.0146201
0.00869778
0.0036303
-0.00108822
-0.00543195
-0.00937029
-0.0129122
-0.016068
-0.0188462
-0.021256
-0.0233071
-0.0250096
-0.0263741
-0.0274112
-0.0281314
-0.0285456
-0.0286643
-0.0284981
-0.0280574
-0.0273527
-0.026394
-0.0251914
-0.0237549
-0.0220942
-0.0202192
-0.0181395
-0.0158649
-0.013405
-0.0107698
-0.00796915
-0.00501325
-0.00191246
0.00132255
0.0046808
0.00815091
0.0117211
0.0153791
0.0191121
0.0229069
0.0267497
0.0306259
0.0345205
0.0384179
0.0423019
0.0461557
0.0499618
0.0537023
0.0573588
0.0609124
0.0643439
0.0676336
0.070762
0.073709
0.0764549
0.0789798
0.0812642
0.0832891
0.0850359
0.0864867
0.0876244
0.0884331
0.0888978
0.0890049
0.0887422
0.0880991
0.0870666
0.0856374
0.0838063
0.0815695
0.0789255
0.0758744
0.0724184
0.0685615
0.0643065
0.0596582
0.0546613
0.0493558
0.0432451
0.0359161
0.0191862
0.0117127
0.00556518
0.000310529
-0.00457701
-0.00907062
-0.0131387
-0.0167906
-0.0200376
-0.0228888
-0.025354
-0.0274439
-0.0291695
-0.0305421
-0.0315732
-0.0322743
-0.0326569
-0.0327325
-0.0325125
-0.032008
-0.0312301
-0.0301895
-0.0288969
-0.0273627
-0.0255973
-0.0236107
-0.0214132
-0.0190147
-0.0164253
-0.0136549
-0.0107138
-0.00761227
-0.00436083
-0.000970256
0.00254837
0.00618358
0.00992349
0.0137558
0.0176675
0.0216453
0.0256752
0.0297426
0.0338322
0.037928
0.0420135
0.0460715
0.0500841
0.0540329
0.0578988
0.0616622
0.0653031
0.068801
0.0721352
0.0752847
0.0782286
0.0809459
0.0834156
0.0856174
0.0875312
0.0891377
0.0904183
0.0913555
0.0919329
0.0921354
0.0919494
0.0913629
0.0903658
0.0889495
0.0871078
0.0848362
0.0821325
0.0789962
0.0754295
0.0714361
0.0670188
0.0621827
0.0569746
0.0514366
0.045049
0.0373798
0.0161285
0.00837038
0.00199411
-0.00344979
-0.0085074
-0.013151
-0.0173477
-0.0211078
-0.0244431
-0.0273635
-0.0298796
-0.0320029
-0.0337454
-0.0351193
-0.036137
-0.036811
-0.0371536
-0.0371772
-0.0368941
-0.036316
-0.0354548
-0.034322
-0.0329288
-0.0312862
-0.029405
-0.0272958
-0.0249691
-0.0224352
-0.0197044
-0.0167871
-0.0136935
-0.0104342
-0.00701981
-0.00346115
0.000230581
0.00404384
0.00796669
0.0119867
0.0160909
0.0202658
0.0244973
0.0287706
0.0330701
0.0373798
0.0416827
0.0459613
0.0501971
0.0543713
0.058464
0.0624551
0.0663236
0.0700481
0.073607
0.0769781
0.0801393
0.0830681
0.0857425
0.0881404
0.0902403
0.0920213
0.0934631
0.0945467
0.0952539
0.0955681
0.0954741
0.0949585
0.0940096
0.0926179
0.0907759
0.0884781
0.0857215
0.0825053
0.0788311
0.0747025
0.0701224
0.0650959
0.0596722
0.0538954
0.0472215
0.0391993
0.0126201
0.00457154
-0.00203744
-0.00767294
-0.0129018
-0.0176954
-0.0220199
-0.025886
-0.0293064
-0.0322917
-0.0348536
-0.0370044
-0.038757
-0.0401247
-0.0411208
-0.0417589
-0.0420522
-0.0420141
-0.0416576
-0.0409955
-0.0400403
-0.0388042
-0.0372991
-0.0355365
-0.0335279
-0.0312843
-0.0288165
-0.0261353
-0.0232512
-0.0201747
-0.0169163
-0.0134868
-0.00989681
-0.00615731
-0.00227955
0.00172489
0.00584403
0.0100654
0.014376
0.0187622
0.0232098
0.0277038
0.0322287
0.0367679
0.0413044
0.0458201
0.0502963
0.0547133
0.0590509
0.0632881
0.0674031
0.0713736
0.0751769
0.0787896
0.0821882
0.0853492
0.0882487
0.0908632
0.0931696
0.0951452
0.0967681
0.0980173
0.098873
0.0993168
0.0993317
0.0989027
0.0980166
0.0966625
0.0948316
0.0925173
0.0897159
0.0864257
0.0826479
0.0783861
0.0736428
0.0684234
0.0627794
0.056757
0.049787
0.0413977
0.008639
0.000293412
-0.00655268
-0.0123824
-0.017784
-0.0227277
-0.0271786
-0.0311483
-0.0346503
-0.0376959
-0.0402978
-0.0424694
-0.0442247
-0.0455778
-0.0465434
-0.0471359
-0.0473698
-0.0472593
-0.0468184
-0.0460608
-0.0449999
-0.0436487
-0.0420196
-0.0401251
-0.0379768
-0.0355864
-0.0329651
-0.030124
-0.0270739
-0.0238257
-0.0203899
-0.0167774
-0.012999
-0.00906566
-0.00498875
-0.000779843
0.00354907
0.00798551
0.0125165
0.0171283
0.0218066
0.0265366
0.0313022
0.036087
0.0408734
0.0456432
0.0503771
0.055055
0.059656
0.0641584
0.0685395
0.072776
0.0768442
0.0807195
0.084377
0.0877916
0.0909381
0.0937912
0.096326
0.0985179
0.100343
0.101779
0.102804
0.103396
0.103539
0.103214
0.102407
0.101104
0.0992975
0.0969778
0.0941405
0.0907832
0.0869066
0.0825139
0.0776075
0.0721928
0.0663236
0.0600485
0.0527717
0.0440005
0.00416182
-0.00448805
-0.0115762
-0.017603
-0.0231787
-0.0282727
-0.0328488
-0.0369194
-0.0404989
-0.0435997
-0.0462353
-0.0484202
-0.0501697
-0.0514991
-0.0524241
-0.0529605
-0.0531237
-0.0529292
-0.0523919
-0.0515266
-0.0503474
-0.0488683
-0.0471024
-0.0450628
-0.0427618
-0.0402116
-0.0374238
-0.0344098
-0.0311808
-0.0277477
-0.0241215
-0.0203129
-0.016333
-0.0121927
-0.00790336
-0.00347654
0.00107576
0.00574112
0.0105065
0.0153584
0.0202823
0.0252633
0.0302854
0.0353318
0.0403848
0.0454258
0.0504352
0.0553924
0.0602759
0.065063
0.0697305
0.074254
0.0786085
0.0827682
0.0867071
0.0903982
0.0938147
0.0969297
0.0997163
0.102148
0.104199
0.105844
0.107059
0.107822
0.108113
0.107911
0.1072
0.105966
0.104198
0.101885
0.0990222
0.0956059
0.091636
0.0871154
0.0820462
0.0764339
0.0703347
0.0637994
0.0562045
0.0470353
-0.000836155
-0.00979835
-0.0171339
-0.023361
-0.0291126
-0.0343568
-0.0390567
-0.0432251
-0.0468776
-0.0500277
-0.0526898
-0.0548799
-0.0566143
-0.0579097
-0.0587832
-0.0592517
-0.059332
-0.0590406
-0.0583938
-0.0574073
-0.0560963
-0.0544755
-0.0525591
-0.0503606
-0.0478932
-0.0451693
-0.0422013
-0.0390008
-0.0355793
-0.0319479
-0.0281178
-0.0240998
-0.019905
-0.0155444
-0.0110291
-0.00637086
-0.00158143
0.00332676
0.00834081
0.0134472
0.0186315
0.0238788
0.029173
0.0344973
0.0398337
0.0451634
0.0504664
0.0557217
0.060907
0.0659992
0.0709739
0.0758059
0.0804691
0.0849364
0.08918
0.0931718
0.0968829
0.100285
0.103348
0.106044
0.108346
0.110225
0.111655
0.112612
0.113072
0.113014
0.11242
0.111273
0.109558
0.107267
0.10439
0.100924
0.0968671
0.0922224
0.0869914
0.0811793
0.0748451
0.0680418
0.0601169
0.0505326
-0.00638114
-0.0156645
-0.0232534
-0.0296845
-0.0356137
-0.0410083
-0.04583
-0.0500929
-0.0538134
-0.057006