/*--------------------------------*- C++ -*----------------------------------*\
  =========                 |
  \\      /  F ield         | OpenFOAM: The Open Source CFD Toolbox
   \\    /   O peration     | Website:  https://openfoam.org
    \\  /    A nd           | Version:  7
     \\/     M anipulation  |
\*---------------------------------------------------------------------------*/
FoamFile
{
    version     2.0;
    format      ascii;
    class       surfaceScalarField;
    location    "0.475";
    object      phi;
}
// * * * * * * * * * * * * * * * * * * * * * * * * * * * * * * * * * * * * * //

dimensions      [0 3 -1 0 0 0 0];

internalField   nonuniform List<scalar> 
12640
(
1.87975e-10
-1.93184e-10
5.55211e-10
-3.67234e-10
8.82965e-10
-3.27749e-10
1.04625e-09
-1.63289e-10
9.82998e-10
6.32411e-11
6.66143e-10
3.1684e-10
8.88329e-11
5.77306e-10
-7.43819e-10
8.32662e-10
-1.81961e-09
1.0758e-09
-3.12207e-09
1.30247e-09
-4.6322e-09
1.51013e-09
-6.32954e-09
1.69733e-09
-8.19283e-09
1.86329e-09
-1.02005e-08
2.00772e-09
-1.23311e-08
2.13061e-09
-1.45634e-08
2.23223e-09
-1.68763e-08
2.31297e-09
-1.92497e-08
2.37337e-09
-2.16638e-08
2.41405e-09
-2.40994e-08
2.43569e-09
-2.65384e-08
2.439e-09
-2.89632e-08
2.42475e-09
-3.13569e-08
2.39372e-09
-3.37036e-08
2.34673e-09
-3.59882e-08
2.28458e-09
-3.81963e-08
2.2081e-09
-4.03144e-08
2.11813e-09
-4.23299e-08
2.01549e-09
-4.42309e-08
1.90104e-09
-4.60065e-08
1.77561e-09
-4.76465e-08
1.64006e-09
-4.91418e-08
1.49524e-09
-5.04838e-08
1.342e-09
-5.1665e-08
1.18123e-09
-5.26788e-08
1.01379e-09
-5.35194e-08
8.40585e-10
-5.41819e-08
6.62502e-10
-5.46623e-08
4.80462e-10
-5.49577e-08
2.95395e-10
-5.5066e-08
1.08248e-10
-5.49859e-08
-8.00141e-11
-5.47175e-08
-2.68408e-10
-5.42616e-08
-4.55933e-10
-5.362e-08
-6.41571e-10
-5.27957e-08
-8.24285e-10
-5.17927e-08
-1.00303e-09
-5.0616e-08
-1.17672e-09
-4.92717e-08
-1.3443e-09
-4.7767e-08
-1.50467e-09
-4.61103e-08
-1.65675e-09
-4.43108e-08
-1.79943e-09
-4.23792e-08
-1.93163e-09
-4.0327e-08
-2.05226e-09
-3.81667e-08
-2.16025e-09
-3.59121e-08
-2.25456e-09
-3.3578e-08
-2.33417e-09
-3.11799e-08
-2.39808e-09
-2.87346e-08
-2.44535e-09
-2.62595e-08
-2.47508e-09
-2.3773e-08
-2.48643e-09
-2.12944e-08
-2.47863e-09
-1.88434e-08
-2.45099e-09
-1.64405e-08
-2.4029e-09
-1.41067e-08
-2.33387e-09
-1.18631e-08
-2.24351e-09
-9.73155e-09
-2.13159e-09
-7.7335e-09
-1.99805e-09
-5.89048e-09
-1.84302e-09
-4.22356e-09
-1.66693e-09
-2.75302e-09
-1.47054e-09
-1.49789e-09
-1.25512e-09
-4.75222e-10
-1.02267e-09
3.01011e-10
-7.76232e-10
8.21591e-10
-5.20581e-10
1.08489e-09
-2.63304e-10
1.10167e-09
-1.6769e-11
9.02993e-10
1.98677e-10
5.54676e-10
3.48322e-10
1.83978e-10
3.70702e-10
1.83979e-10
3.64966e-10
-5.58152e-10
8.85999e-10
-8.8828e-10
1.21736e-09
-6.59106e-10
1.13574e-09
-8.16658e-11
5.03447e-10
6.95549e-10
-7.53394e-10
1.57368e-09
-2.66396e-09
2.48785e-09
-5.22717e-09
3.39585e-09
-8.42158e-09
4.27021e-09
-1.22121e-08
5.09304e-09
-1.65548e-08
5.85276e-09
-2.13995e-08
6.54204e-09
-2.66926e-08
7.15644e-09
-3.23785e-08
7.69354e-09
-3.84002e-08
8.15238e-09
-4.4701e-08
8.53305e-09
-5.12245e-08
8.83642e-09
-5.7915e-08
9.06395e-09
-6.47185e-08
9.21753e-09
-7.15822e-08
9.29937e-09
-7.84551e-08
9.31194e-09
-8.52883e-08
9.2579e-09
-9.20346e-08
9.14007e-09
-9.86492e-08
8.96136e-09
-1.05089e-07
8.72476e-09
-1.11315e-07
8.43335e-09
-1.17287e-07
8.09023e-09
-1.2297e-07
7.69858e-09
-1.2833e-07
7.26157e-09
-1.33337e-07
6.78243e-09
-1.37961e-07
6.26441e-09
-1.42177e-07
5.7108e-09
-1.4596e-07
5.1249e-09
-1.49289e-07
4.51008e-09
-1.52145e-07
3.86971e-09
-1.54511e-07
3.20724e-09
-1.56375e-07
2.52615e-09
-1.57724e-07
1.82999e-09
-1.58551e-07
1.12235e-09
-1.5885e-07
4.06886e-10
-1.58617e-07
-3.1267e-10
-1.57853e-07
-1.03253e-09
-1.5656e-07
-1.74885e-09
-1.54744e-07
-2.45771e-09
-1.52413e-07
-3.15514e-09
-1.49579e-07
-3.8371e-09
-1.46256e-07
-4.49953e-09
-1.42462e-07
-5.13831e-09
-1.38218e-07
-5.7493e-09
-1.33546e-07
-6.32835e-09
-1.28474e-07
-6.87133e-09
-1.23032e-07
-7.3741e-09
-1.17251e-07
-7.8326e-09
-1.11169e-07
-8.2428e-09
-1.04823e-07
-8.60078e-09
-9.82542e-08
-8.90274e-09
-9.15073e-08
-9.14501e-09
-8.46285e-08
-9.32411e-09
-7.76668e-08
-9.43677e-09
-7.06733e-08
-9.47996e-09
-6.37009e-08
-9.45095e-09
-5.68046e-08
-9.34734e-09
-5.00404e-08
-9.16711e-09
-4.34656e-08
-8.90869e-09
-3.7138e-08
-8.57106e-09
-3.11158e-08
-8.15382e-09
-2.54565e-08
-7.65731e-09
-2.02167e-08
-7.08284e-09
-1.54507e-08
-6.4329e-09
-1.12097e-08
-5.71153e-09
-7.53997e-09
-4.9249e-09
-4.48053e-09
-4.0821e-09
-2.06036e-09
-3.1964e-09
-2.93668e-10
-2.28727e-09
8.26535e-10
-1.3835e-09
1.33792e-09
-5.28156e-10
1.32257e-09
2.14032e-10
9.24836e-10
7.46062e-10
3.70723e-10
9.2482e-10
5.54705e-10
3.29966e-10
-8.88114e-10
6.66047e-10
-1.22438e-09
6.1335e-10
-6.06423e-10
-8.93272e-11
6.21011e-10
-1.61295e-09
2.21919e-09
-4.05683e-09
4.01756e-09
-7.46538e-09
5.89641e-09
-1.18426e-08
7.77307e-09
-1.71632e-08
9.59073e-09
-2.33806e-08
1.13104e-08
-3.04335e-08
1.29058e-08
-3.82505e-08
1.4359e-08
-4.67529e-08
1.56589e-08
-5.58578e-08
1.67985e-08
-6.54798e-08
1.77743e-08
-7.55322e-08
1.85855e-08
-8.59286e-08
1.92328e-08
-9.65832e-08
1.97186e-08
-1.07412e-07
2.00462e-08
-1.18332e-07
2.02198e-08
-1.29265e-07
2.02444e-08
-1.40132e-07
2.01252e-08
-1.5086e-07
1.98682e-08
-1.61378e-07
1.94793e-08
-1.71618e-07
1.89648e-08
-1.81516e-07
1.83313e-08
-1.91011e-07
1.75854e-08
-2.00047e-07
1.67339e-08
-2.08569e-07
1.57837e-08
-2.16528e-07
1.47418e-08
-2.23879e-07
1.36151e-08
-2.30579e-07
1.24109e-08
-2.3659e-07
1.11365e-08
-2.41879e-07
9.79897e-09
-2.46416e-07
8.40591e-09
-2.50173e-07
6.96481e-09
-2.5313e-07
5.48329e-09
-2.55269e-07
3.96909e-09
-2.56577e-07
2.43011e-09
-2.57045e-07
8.74336e-10
-2.56667e-07
-6.90086e-10
-2.55445e-07
-2.25488e-09
-2.53382e-07
-3.81165e-09
-2.50488e-07
-5.35185e-09
-2.46776e-07
-6.86683e-09
-2.42265e-07
-8.34783e-09
-2.36979e-07
-9.78601e-09
-2.30945e-07
-1.11724e-08
-2.24196e-07
-1.24982e-08
-2.1677e-07
-1.37543e-08
-2.0871e-07
-1.49318e-08
-2.00062e-07
-1.60218e-08
-1.90879e-07
-1.70155e-08
-1.81217e-07
-1.79045e-08
-1.71138e-07
-1.86802e-08
-1.60706e-07
-1.93346e-08
-1.49991e-07
-1.98599e-08
-1.39067e-07
-2.02487e-08
-1.28009e-07
-2.04943e-08
-1.16899e-07
-2.05903e-08
-1.05819e-07
-2.05311e-08
-9.48539e-08
-2.0312e-08
-8.40921e-08
-1.99289e-08
-7.36216e-08
-1.93792e-08
-6.35316e-08
-1.8661e-08
-5.3911e-08
-1.77745e-08
-4.48473e-08
-1.67211e-08
-3.64254e-08
-1.55047e-08
-2.87263e-08
-1.4132e-08
-2.18248e-08
-1.2613e-08
-1.5787e-08
-1.09627e-08
-1.06671e-08
-9.20203e-09
-6.50269e-09
-7.36079e-09
-3.30908e-09
-5.48087e-09
-1.07118e-09
-3.6214e-09
2.66957e-10
-1.86628e-09
8.15555e-10
-3.34565e-10
7.54694e-10
8.06927e-10
3.51096e-10
1.32842e-09
9.05805e-10
1.71735e-10
-1.05984e-09
1.04583e-10
-1.15724e-09
-5.88183e-10
8.63235e-11
-2.1706e-09
2.20341e-09
-4.81987e-09
4.86846e-09
-8.6424e-09
7.8401e-09
-1.36876e-08
1.09417e-08
-1.99605e-08
1.40459e-08
-2.74316e-08
1.70619e-08
-3.60459e-08
1.99247e-08
-4.57289e-08
2.25888e-08
-5.63924e-08
2.50225e-08
-6.79382e-08
2.72046e-08
-8.02614e-08
2.91217e-08
-9.3253e-08
3.07659e-08
-1.06802e-07
3.21341e-08
-1.20795e-07
3.32264e-08
-1.35122e-07
3.40455e-08
-1.49672e-07
3.45962e-08
-1.64337e-07
3.48849e-08
-1.79012e-07
3.49194e-08
-1.93595e-07
3.47082e-08
-2.07988e-07
3.42607e-08
-2.22095e-07
3.35871e-08
-2.35828e-07
3.26978e-08
-2.49101e-07
3.16039e-08
-2.61832e-07
3.03165e-08
-2.73945e-07
2.88473e-08
-2.8537e-07
2.72079e-08
-2.96038e-07
2.54104e-08
-3.0589e-07
2.34668e-08
-3.14868e-07
2.13895e-08
-3.22923e-07
1.9191e-08
-3.30008e-07
1.68838e-08
-3.36083e-07
1.4481e-08
-3.41113e-07
1.19953e-08
-3.4507e-07
9.4402e-09
-3.4793e-07
6.82896e-09
-3.49675e-07
4.17524e-09
-3.50294e-07
1.49291e-09
-3.4978e-07
-1.20396e-09
-3.48134e-07
-3.90107e-09
-3.45361e-07
-6.58389e-09
-3.41476e-07
-9.2377e-09
-3.36495e-07
-1.18476e-08
-3.30444e-07
-1.43985e-08
-3.23355e-07
-1.68751e-08
-3.15265e-07
-1.92622e-08
-3.06219e-07
-2.15445e-08
-2.96267e-07
-2.37064e-08
-2.85466e-07
-2.57328e-08
-2.73879e-07
-2.76086e-08
-2.61576e-07
-2.93187e-08
-2.48632e-07
-3.08485e-08
-2.35128e-07
-3.21839e-08
-2.21152e-07
-3.33111e-08
-2.06794e-07
-3.42171e-08
-1.92154e-07
-3.48895e-08
-1.77331e-07
-3.53169e-08
-1.62432e-07
-3.54891e-08
-1.47566e-07
-3.53968e-08
-1.32846e-07
-3.50323e-08
-1.18385e-07
-3.43896e-08
-1.043e-07
-3.34646e-08
-9.07057e-08
-3.22554e-08
-7.77173e-08
-3.07628e-08
-6.54475e-08
-2.89909e-08
-5.40046e-08
-2.69475e-08
-4.34911e-08
-2.46455e-08
-3.40004e-08
-2.21037e-08
-2.56143e-08
-1.93489e-08
-1.83982e-08
-1.64181e-08
-1.23969e-08
-1.33621e-08
-7.62735e-09
-1.02504e-08
-4.07149e-09
-7.17725e-09
-1.66607e-09
-4.2717e-09
-2.91248e-10
-1.70938e-09
2.42189e-10
2.73493e-10
2.07951e-10
1.36266e-09
1.11376e-09
-4.74651e-11
-1.01237e-09
-6.5446e-10
-5.50238e-10
-2.1588e-09
1.59066e-09
-4.80096e-09
4.84555e-09
-8.74513e-09
8.81261e-09
-1.40907e-08
1.31857e-08
-2.08826e-08
1.77336e-08
-2.91212e-08
2.22845e-08
-3.87708e-08
2.67115e-08
-4.97677e-08
3.09215e-08
-6.2026e-08
3.48471e-08
-7.54436e-08
3.84401e-08
-8.99059e-08
4.1667e-08
-1.0529e-07
4.45058e-08
-1.21467e-07
4.69429e-08
-1.38305e-07
4.89717e-08
-1.55669e-07
5.05908e-08
-1.73426e-07
5.18027e-08
-1.91444e-07
5.26136e-08
-2.09591e-07
5.30319e-08
-2.27739e-07
5.30684e-08
-2.45766e-07
5.27352e-08
-2.63552e-07
5.20459e-08
-2.8098e-07
5.10154e-08
-2.97941e-07
4.9659e-08
-3.1433e-07
4.7993e-08
-3.30048e-07
4.60342e-08
-3.45001e-07
4.37999e-08
-3.591e-07
4.13078e-08
-3.72266e-07
3.85758e-08
-3.84422e-07
3.56224e-08
-3.95498e-07
3.24662e-08
-4.05433e-07
2.9126e-08
-4.14171e-07
2.56212e-08
-4.21661e-07
2.19713e-08
-4.27862e-07
1.8196e-08
-4.32737e-07
1.43155e-08
-4.36258e-07
1.03501e-08
-4.38404e-07
6.32073e-09
-4.39159e-07
2.24835e-09
-4.38517e-07
-1.84561e-09
-4.36479e-07
-5.93941e-09
-4.33052e-07
-1.0011e-08
-4.28252e-07
-1.4038e-08
-4.22101e-07
-1.79979e-08
-4.14632e-07
-2.18677e-08
-4.05883e-07
-2.56245e-08
-3.959e-07
-2.9245e-08
-3.84738e-07
-3.27062e-08
-3.7246e-07
-3.59849e-08
-3.59135e-07
-3.9058e-08
-3.44841e-07
-4.19027e-08
-3.29662e-07
-4.44967e-08
-3.13693e-07
-4.68181e-08
-2.97031e-07
-4.88455e-08
-2.79784e-07
-5.05587e-08
-2.62063e-07
-5.19382e-08
-2.43986e-07
-5.29658e-08
-2.25679e-07
-5.36247e-08
-2.07268e-07
-5.38998e-08
-1.88887e-07
-5.37781e-08
-1.7067e-07
-5.32486e-08
-1.52757e-07
-5.2303e-08
-1.35285e-07
-5.0936e-08
-1.18395e-07
-4.91461e-08
-1.02222e-07
-4.69357e-08
-8.69007e-08
-4.43121e-08
-7.25592e-08
-4.1289e-08
-5.93178e-08
-3.78869e-08
-4.72856e-08
-3.41359e-08
-3.65574e-08
-3.0077e-08
-2.72092e-08
-2.57664e-08
-1.92927e-08
-2.12786e-08
-1.283e-08
-1.67131e-08
-7.80552e-09
-1.22017e-08
-4.1586e-09
-7.91861e-09
-1.77389e-09
-4.09409e-09
-4.71873e-10
-1.02852e-09
2.18474e-12
8.88609e-10
1.11595e-09
-2.94327e-10
-7.18051e-10
-1.51859e-09
6.74038e-10
-3.9415e-09
4.01357e-09
-7.76221e-09
8.66625e-09
-1.3118e-08
1.41684e-08
-2.00902e-08
2.01579e-08
-2.8711e-08
2.63544e-08
-3.89706e-08
3.25441e-08
-5.08238e-08
3.85647e-08
-6.41965e-08
4.42943e-08
-7.89919e-08
4.96424e-08
-9.50947e-08
5.45429e-08
-1.12376e-07
5.89486e-08
-1.30698e-07
6.28272e-08
-1.49913e-07
6.61584e-08
-1.69872e-07
6.8931e-08
-1.90423e-07
7.11411e-08
-2.11411e-07
7.27909e-08
-2.32685e-07
7.38872e-08
-2.54093e-07
7.44407e-08
-2.7549e-07
7.4465e-08
-2.96731e-07
7.39762e-08
-3.17678e-07
7.29926e-08
-3.38196e-07
7.15339e-08
-3.58158e-07
6.96212e-08
-3.77442e-07
6.72767e-08
-3.95931e-07
6.45236e-08
-4.13517e-07
6.13857e-08
-4.30097e-07
5.78875e-08
-4.45575e-07
5.40541e-08
-4.59864e-07
4.99111e-08
-4.72882e-07
4.54844e-08
-4.84557e-07
4.08007e-08
-4.94822e-07
3.58867e-08
-5.03621e-07
3.07699e-08
-5.10903e-07
2.54779e-08
-5.16626e-07
2.0039e-08
-5.20758e-07
1.44819e-08
-5.23273e-07
8.83553e-09
-5.24154e-07
3.12958e-09
-5.23393e-07
-2.60597e-09
-5.20992e-07
-8.3407e-09
-5.16959e-07
-1.40437e-08
-5.11314e-07
-1.96838e-08
-5.04082e-07
-2.52292e-08
-4.95302e-07
-3.06482e-08
-4.85018e-07
-3.59085e-08
-4.73285e-07
-4.0978e-08
-4.60167e-07
-4.58243e-08
-4.45736e-07
-5.04152e-08
-4.30076e-07
-5.47187e-08
-4.13275e-07
-5.87032e-08
-3.95434e-07
-6.23378e-08
-3.7666e-07
-6.5592e-08
-3.57069e-07
-6.84367e-08
-3.36784e-07
-7.08437e-08
-3.15935e-07
-7.27865e-08
-2.94661e-07
-7.42401e-08
-2.73104e-07
-7.51818e-08
-2.51412e-07
-7.55913e-08
-2.2974e-07
-7.5451e-08
-2.08241e-07
-7.47467e-08
-1.87077e-07
-7.34678e-08
-1.66404e-07
-7.16081e-08
-1.46384e-07
-6.91667e-08
-1.27171e-07
-6.61483e-08
-1.08919e-07
-6.25647e-08
-9.17714e-08
-5.84362e-08
-7.58654e-08
-5.37929e-08
-6.13239e-08
-4.86773e-08
-4.82539e-08
-4.3147e-08
-3.67419e-08
-3.72784e-08
-2.68487e-08
-3.11717e-08
-1.86047e-08
-2.49572e-08
-1.2003e-08
-1.88034e-08
-6.99351e-09
-1.29281e-08
-3.47636e-09
-7.61123e-09
-1.29549e-09
-3.20938e-09
-2.32857e-10
-1.74022e-10
8.83091e-10
-5.50676e-10
-1.67394e-10
-2.43016e-09
2.55352e-09
-5.83159e-09
7.41501e-09
-1.09029e-08
1.37376e-08
-1.77451e-08
2.10105e-08
-2.64133e-08
2.88261e-08
-3.69203e-08
3.68614e-08
-4.92406e-08
4.48644e-08
-6.33161e-08
5.26402e-08
-7.90605e-08
6.00387e-08
-9.63645e-08
6.69465e-08
-1.151e-07
7.32788e-08
-1.35126e-07
7.8974e-08
-1.56288e-07
8.3989e-08
-1.78425e-07
8.82955e-08
-2.01371e-07
9.18771e-08
-2.24957e-07
9.4727e-08
-2.49012e-07
9.68464e-08
-2.73367e-07
9.82426e-08
-2.97855e-07
9.89281e-08
-3.2231e-07
9.89198e-08
-3.46571e-07
9.82378e-08
-3.70484e-07
9.69051e-08
-3.93897e-07
9.4947e-08
-4.16667e-07
9.23908e-08
-4.38655e-07
8.92652e-08
-4.59732e-07
8.56003e-08
-4.79773e-07
8.14274e-08
-4.98664e-07
7.67785e-08
-5.16297e-07
7.16866e-08
-5.32571e-07
6.61854e-08
-5.47396e-07
6.03093e-08
-5.60689e-07
5.40933e-08
-5.72375e-07
4.7573e-08
-5.8239e-07
4.07846e-08
-5.90677e-07
3.37648e-08
-5.97189e-07
2.6551e-08
-6.01888e-07
1.91812e-08
-6.04746e-07
1.1694e-08
-6.05745e-07
4.1285e-09
-6.04876e-07
-3.47556e-09
-6.02139e-07
-1.10779e-08
-5.97545e-07
-1.86375e-08
-5.91115e-07
-2.61133e-08
-5.82881e-07
-3.34632e-08
-5.72884e-07
-4.06454e-08
-5.61175e-07
-4.76172e-08
-5.47817e-07
-5.43362e-08
-5.32882e-07
-6.07599e-08
-5.16451e-07
-6.68458e-08
-4.98618e-07
-7.25519e-08
-4.79484e-07
-7.78368e-08
-4.59162e-07
-8.26598e-08
-4.37773e-07
-8.69812e-08
-4.15447e-07
-9.07628e-08
-3.92323e-07
-9.3968e-08
-3.68547e-07
-9.65621e-08
-3.44274e-07
-9.85132e-08
-3.19664e-07
-9.97917e-08
-2.94884e-07
-1.00372e-07
-2.70104e-07
-1.00231e-07
-2.45499e-07
-9.93515e-08
-2.21246e-07
-9.77208e-08
-1.97522e-07
-9.5332e-08
-1.74504e-07
-9.21848e-08
-1.52366e-07
-8.82871e-08
-1.31274e-07
-8.36559e-08
-1.11392e-07
-7.83189e-08
-9.28678e-08
-7.23168e-08
-7.58395e-08
-6.57057e-08
-6.0426e-08
-5.85605e-08
-4.67255e-08
-5.09789e-08
-3.48104e-08
-4.30868e-08
-2.47228e-08
-3.50447e-08
-1.64698e-08
-2.70564e-08
-1.00189e-08
-1.9379e-08
-5.29354e-09
-1.23366e-08
-2.17059e-09
-6.33232e-09
-4.78775e-10
-1.86583e-09
4.04318e-10
-8.06628e-10
6.3922e-10
-3.35435e-09
5.10123e-09
-7.76181e-09
1.18225e-08
-1.41216e-08
2.00974e-08
-2.24929e-08
2.93818e-08
-3.28989e-08
3.9232e-08
-4.53275e-08
4.929e-08
-5.97339e-08
5.92707e-08
-7.60429e-08
6.89492e-08
-9.41539e-08
7.81497e-08
-1.13944e-07
8.67364e-08
-1.35272e-07
9.46066e-08
-1.57982e-07
1.01684e-07
-1.81907e-07
1.07914e-07
-2.06872e-07
1.13261e-07
-2.32697e-07
1.17702e-07
-2.59196e-07
1.21226e-07
-2.86185e-07
1.23835e-07
-3.13478e-07
1.25536e-07
-3.40893e-07
1.26342e-07
-3.68248e-07
1.26275e-07
-3.95368e-07
1.25358e-07
-4.22081e-07
1.23619e-07
-4.48224e-07
1.2109e-07
-4.73637e-07
1.17804e-07
-4.98169e-07
1.13797e-07
-5.21677e-07
1.09107e-07
-5.44023e-07
1.03774e-07
-5.65081e-07
9.78365e-08
-5.84732e-07
9.13375e-08
-6.02866e-07
8.43192e-08
-6.19381e-07
7.68252e-08
-6.34188e-07
6.88999e-08
-6.47203e-07
6.05884e-08
-6.58356e-07
5.19369e-08
-6.67583e-07
4.29919e-08
-6.74833e-07
3.38011e-08
-6.80064e-07
2.44126e-08
-6.83246e-07
1.48756e-08
-6.84357e-07
5.23971e-09
-6.83388e-07
-4.44445e-09
-6.8034e-07
-1.41257e-08
-6.75226e-07
-2.37522e-08
-6.68067e-07
-3.32714e-08
-6.589e-07
-4.26304e-08
-6.4777e-07
-5.17757e-08
-6.34733e-07
-6.06537e-08
-6.19859e-07
-6.92104e-08
-6.03227e-07
-7.73922e-08
-5.84927e-07
-8.51454e-08
-5.65062e-07
-9.24169e-08
-5.43745e-07
-9.91545e-08
-5.21097e-07
-1.05307e-07
-4.97254e-07
-1.10824e-07
-4.72358e-07
-1.15659e-07
-4.46562e-07
-1.19764e-07
-4.20027e-07
-1.23097e-07
-3.92922e-07
-1.25618e-07
-3.65423e-07
-1.27291e-07
-3.37712e-07
-1.28083e-07
-3.09977e-07
-1.27966e-07
-2.82407e-07
-1.26921e-07
-2.55198e-07
-1.24931e-07
-2.28541e-07
-1.21989e-07
-2.0263e-07
-1.18096e-07
-1.77653e-07
-1.13264e-07
-1.53795e-07
-1.07514e-07
-1.31231e-07
-1.00883e-07
-1.10124e-07
-9.34234e-08
-9.06254e-08
-8.52043e-08
-7.28674e-08
-7.63185e-08
-5.69613e-08
-6.6885e-08
-4.29936e-08
-5.70545e-08
-3.10219e-08
-4.70165e-08
-2.10714e-08
-3.70068e-08
-1.31323e-08
-2.73181e-08
-7.15728e-09
-1.83116e-08
-3.06166e-09
-1.04279e-08
-7.25326e-10
-4.20215e-09
-3.21004e-10
-1.05709e-09
1.69631e-09
-4.27088e-09
8.315e-09
-9.69031e-09
1.72419e-08
-1.73522e-08
2.77594e-08
-2.72713e-08
3.93009e-08
-3.94353e-08
5.13961e-08
-5.38038e-08
6.36585e-08
-7.03084e-08
7.57754e-08
-8.88548e-08
8.74956e-08
-1.09325e-07
9.862e-08
-1.31581e-07
1.08992e-07
-1.55467e-07
1.18493e-07
-1.80814e-07
1.27031e-07
-2.07442e-07
1.34541e-07
-2.3516e-07
1.40979e-07
-2.63775e-07
1.46317e-07
-2.93089e-07
1.5054e-07
-3.22903e-07
1.53649e-07
-3.53016e-07
1.55649e-07
-3.83232e-07
1.56558e-07
-4.13356e-07
1.56399e-07
-4.432e-07
1.55201e-07
-4.72577e-07
1.52997e-07
-5.01311e-07
1.49823e-07
-5.29229e-07
1.45722e-07
-5.56169e-07
1.40737e-07
-5.81973e-07
1.34912e-07
-6.06496e-07
1.28296e-07
-6.29599e-07
1.20939e-07
-6.51152e-07
1.12891e-07
-6.71038e-07
1.04205e-07
-6.89147e-07
9.49336e-08
-7.05379e-07
8.51318e-08
-7.19645e-07
7.48552e-08
-7.31869e-07
6.41604e-08
-7.41982e-07
5.31049e-08
-7.49928e-07
4.17472e-08
-7.55662e-07
3.01468e-08
-7.59151e-07
1.83641e-08
-7.60371e-07
6.46036e-09
-7.59314e-07
-5.50222e-09
-7.55979e-07
-1.74606e-08
-7.5038e-07
-2.9351e-08
-7.42543e-07
-4.11088e-08
-7.32504e-07
-5.2669e-08
-7.20314e-07
-6.39658e-08
-7.06034e-07
-7.49334e-08
-6.89739e-07
-8.55056e-08
-6.71515e-07
-9.56165e-08
-6.5146e-07
-1.052e-07
-6.29684e-07
-1.14192e-07
-6.0631e-07
-1.22529e-07
-5.81471e-07
-1.30146e-07
-5.5531e-07
-1.36985e-07
-5.27984e-07
-1.42985e-07
-4.99657e-07
-1.48091e-07
-4.70502e-07
-1.52252e-07
-4.40703e-07
-1.55418e-07
-4.10449e-07
-1.57545e-07
-3.79937e-07
-1.58594e-07
-3.49369e-07
-1.58534e-07
-3.1895e-07
-1.57339e-07
-2.88889e-07
-1.54992e-07
-2.59393e-07
-1.51484e-07
-2.30671e-07
-1.46818e-07
-2.02926e-07
-1.41009e-07
-1.76356e-07
-1.34084e-07
-1.5115e-07
-1.26089e-07
-1.27487e-07
-1.17086e-07
-1.05531e-07
-1.0716e-07
-8.54293e-08
-9.64204e-08
-6.73077e-08
-8.50065e-08
-5.12692e-08
-7.3093e-08
-3.73899e-08
-6.08958e-08
-2.57169e-08
-4.86798e-08
-1.62668e-08
-3.67683e-08
-9.02493e-09
-2.55534e-08
-3.94783e-09
-1.5505e-08
-9.67147e-10
-7.18283e-09
-1.28815e-09
-1.29966e-09
2.99597e-09
-5.16859e-09
1.21839e-08
-1.15921e-08
2.36654e-08
-2.05534e-08
3.67206e-08
-3.20219e-08
5.07694e-08
-4.59482e-08
6.53224e-08
-6.22609e-08
7.99712e-08
-8.08657e-08
9.43802e-08
-1.01646e-07
1.08276e-07
-1.24466e-07
1.2144e-07
-1.49169e-07
1.33696e-07
-1.75585e-07
1.44909e-07
-2.0353e-07
1.54976e-07
-2.3281e-07
1.63821e-07
-2.63221e-07
1.71391e-07
-2.94557e-07
1.77652e-07
-3.26605e-07
1.82589e-07
-3.59154e-07
1.86197e-07
-3.91991e-07
1.88486e-07
-4.24905e-07
1.89473e-07
-4.57691e-07
1.89185e-07
-4.90146e-07
1.87656e-07
-5.22073e-07
1.84924e-07
-5.53282e-07
1.81032e-07
-5.8359e-07
1.7603e-07
-6.12822e-07
1.69969e-07
-6.40812e-07
1.62902e-07
-6.67403e-07
1.54887e-07
-6.92447e-07
1.45983e-07
-7.15806e-07
1.3625e-07
-7.37353e-07
1.25752e-07
-7.56971e-07
1.14551e-07
-7.74554e-07
1.02715e-07
-7.90006e-07
9.03081e-08
-8.03246e-07
7.73997e-08
-8.14199e-07
6.40586e-08
-8.22807e-07
5.03551e-08
-8.29021e-07
3.63606e-08
-8.32805e-07
2.21477e-08
-8.34134e-07
7.78997e-09
-8.32999e-07
-6.6379e-09
-8.29399e-07
-2.10602e-08
-8.23349e-07
-3.54004e-08
-8.14877e-07
-4.95811e-08
-8.04022e-07
-6.3524e-08
-7.90837e-07
-7.71506e-08
-7.75389e-07
-9.03819e-08
-7.57756e-07
-1.03139e-07
-7.3803e-07
-1.15342e-07
-7.16318e-07
-1.26913e-07
-6.92735e-07
-1.37775e-07
-6.67414e-07
-1.4785e-07
-6.40495e-07
-1.57065e-07
-6.12133e-07
-1.65346e-07
-5.82494e-07
-1.72624e-07
-5.51752e-07
-1.78833e-07
-5.20095e-07
-1.8391e-07
-4.87715e-07
-1.87797e-07
-4.54817e-07
-1.90443e-07
-4.21609e-07
-1.91802e-07
-3.88307e-07
-1.91836e-07
-3.5513e-07
-1.90516e-07
-3.22301e-07
-1.87822e-07
-2.9004e-07
-1.83745e-07
-2.5857e-07
-1.78288e-07
-2.28109e-07
-1.7147e-07
-1.98869e-07
-1.63325e-07
-1.71053e-07
-1.53905e-07
-1.44854e-07
-1.43285e-07
-1.20452e-07
-1.31562e-07
-9.80085e-08
-1.18864e-07
-7.76675e-08
-1.05348e-07
-5.95498e-08
-9.12106e-08
-4.37528e-08
-7.66928e-08
-3.03479e-08
-6.20847e-08
-1.93806e-08
-4.77356e-08
-1.08711e-08
-3.40629e-08
-4.81754e-09
-2.15586e-08
-1.20167e-09
-1.07987e-08
-2.48981e-09
-1.53346e-09
4.52944e-09
-6.04195e-09
1.66924e-08
-1.34537e-08
3.10771e-08
-2.37008e-08
4.69677e-08
-3.67088e-08
6.37773e-08
-5.23902e-08
8.10038e-08
-7.06412e-08
9.82222e-08
-9.134e-08
1.15079e-07
-1.14346e-07
1.31283e-07
-1.39502e-07
1.46596e-07
-1.66635e-07
1.60828e-07
-1.95556e-07
1.7383e-07
-2.26066e-07
1.85486e-07
-2.57957e-07
1.95712e-07
-2.91012e-07
2.04446e-07
-3.25011e-07
2.11651e-07
-3.59729e-07
2.17307e-07
-3.94941e-07
2.21409e-07
-4.30423e-07
2.23968e-07
-4.65952e-07
2.25003e-07
-5.01311e-07
2.24544e-07
-5.36285e-07
2.2263e-07
-5.70666e-07
2.19305e-07
-6.04254e-07
2.1462e-07
-6.36855e-07
2.08631e-07
-6.68285e-07
2.01398e-07
-6.98367e-07
1.92984e-07
-7.26935e-07
1.83455e-07
-7.53833e-07
1.72881e-07
-7.78916e-07
1.61333e-07
-8.02048e-07
1.48884e-07
-8.23106e-07
1.35609e-07
-8.41977e-07
1.21586e-07
-8.58561e-07
1.06893e-07
-8.7277e-07
9.16087e-08
-8.84528e-07
7.5816e-08
-8.9377e-07
5.9597e-08
-9.00445e-07
4.3036e-08
-9.04516e-07
2.62181e-08
-9.05956e-07
9.23022e-09
-9.04754e-07
-7.83989e-09
-9.00911e-07
-2.49032e-08
-8.94442e-07
-4.18695e-08
-8.85375e-07
-5.86479e-08
-8.73753e-07
-7.51464e-08
-8.5963e-07
-9.12727e-08
-8.43078e-07
-1.06934e-07
-8.2418e-07
-1.22037e-07
-8.03033e-07
-1.36489e-07
-7.79747e-07
-1.50199e-07
-7.54447e-07
-1.63074e-07
-7.27271e-07
-1.75026e-07
-6.98368e-07
-1.85967e-07
-6.67903e-07
-1.95812e-07
-6.36048e-07
-2.04479e-07
-6.0299e-07
-2.11891e-07
-5.68925e-07
-2.17975e-07
-5.34059e-07
-2.22663e-07
-4.98606e-07
-2.25896e-07
-4.62787e-07
-2.27621e-07
-4.2683e-07
-2.27793e-07
-3.90968e-07
-2.26379e-07
-3.55434e-07
-2.23355e-07
-3.20465e-07
-2.18713e-07
-2.86297e-07
-2.12457e-07
-2.53159e-07
-2.04607e-07
-2.2128e-07
-1.95204e-07
-1.90877e-07
-1.84308e-07
-1.62158e-07
-1.72004e-07
-1.35319e-07
-1.58402e-07
-1.10538e-07
-1.43644e-07
-8.79781e-08
-1.27908e-07
-6.77802e-08
-1.11409e-07
-5.00645e-08
-9.44084e-08
-3.49291e-08
-7.72201e-08
-2.24497e-08
-6.0215e-08
-1.2682e-08
-4.38305e-08
-5.66515e-09
-2.85755e-08
-1.42795e-09
-1.50359e-08
-3.91775e-09
-1.75848e-09
6.28792e-09
-6.88901e-09
2.18229e-08
-1.52686e-08
3.94566e-08
-2.6782e-08
5.84811e-08
-4.13121e-08
7.83074e-08
-5.87338e-08
9.84255e-08
-7.89104e-08
1.18399e-07
-1.01691e-07
1.3786e-07
-1.2691e-07
1.56502e-07
-1.54388e-07
1.74074e-07
-1.83932e-07
1.90372e-07
-2.15335e-07
2.05234e-07
-2.48383e-07
2.18534e-07
-2.82852e-07
2.3018e-07
-3.18511e-07
2.40105e-07
-3.55126e-07
2.48266e-07
-3.92461e-07
2.54642e-07
-4.30278e-07
2.59226e-07
-4.68341e-07
2.62031e-07
-5.06417e-07
2.63078e-07
-5.44276e-07
2.62403e-07
-5.81693e-07
2.60047e-07
-6.1845e-07
2.56063e-07
-6.54338e-07
2.50508e-07
-6.89152e-07
2.43446e-07
-7.22699e-07
2.34945e-07
-7.54795e-07
2.2508e-07
-7.85265e-07
2.13925e-07
-8.13945e-07
2.01562e-07
-8.40683e-07
1.88071e-07
-8.65337e-07
1.73538e-07
-8.87777e-07
1.58049e-07
-9.07885e-07
1.41694e-07
-9.25557e-07
1.24564e-07
-9.40698e-07
1.0675e-07
-9.5323e-07
8.83474e-08
-9.63084e-07
6.94515e-08
-9.70208e-07
5.01596e-08
-9.7456e-07
3.05706e-08
-9.76115e-07
1.07849e-08
-9.74859e-07
-9.09594e-09
-9.70793e-07
-2.89688e-08
-9.63933e-07
-4.87294e-08
-9.54308e-07
-6.82726e-08
-9.41963e-07
-8.7492e-08
-9.26955e-07
-1.06281e-07
-9.09357e-07
-1.24532e-07
-8.89257e-07
-1.42137e-07
-8.66756e-07
-1.5899e-07
-8.4197e-07
-1.74985e-07
-8.1503e-07
-1.90015e-07
-7.86078e-07
-2.03978e-07
-7.55273e-07
-2.16772e-07
-7.22786e-07
-2.283e-07
-6.88798e-07
-2.38467e-07
-6.53504e-07
-2.47184e-07
-6.17111e-07
-2.54368e-07
-5.79834e-07
-2.5994e-07
-5.41898e-07
-2.63832e-07
-5.03536e-07
-2.65983e-07
-4.64986e-07
-2.66342e-07
-4.26494e-07
-2.64871e-07
-3.88307e-07
-2.61543e-07
-3.50673e-07
-2.56347e-07
-3.13842e-07
-2.49288e-07
-2.78058e-07
-2.40391e-07
-2.43562e-07
-2.297e-07
-2.10589e-07
-2.17281e-07
-1.79362e-07
-2.03231e-07
-1.50093e-07
-1.87671e-07
-1.2298e-07
-1.70757e-07
-9.82037e-08
-1.52684e-07
-7.5929e-08
-1.33683e-07
-5.62999e-08
-1.14037e-07
-3.94421e-08
-9.4078e-08
-2.54624e-08
-7.41947e-08
-1.44518e-08
-5.48412e-08
-6.48877e-09
-3.65385e-08
-1.64596e-09
-1.98787e-08
-5.56371e-09
-1.97519e-09
8.2631e-09
-7.70998e-09
2.75577e-08
-1.70354e-08
4.8782e-08
-2.97924e-08
7.12381e-08
-4.58233e-08
9.43383e-08
-6.49661e-08
1.17568e-07
-8.70509e-08
1.40484e-07
-1.11898e-07
1.62706e-07
-1.39315e-07
1.83919e-07
-1.69098e-07
2.03858e-07
-2.01035e-07
2.22308e-07
-2.34901e-07
2.39099e-07
-2.70462e-07
2.54096e-07
-3.0748e-07
2.67198e-07
-3.4571e-07
2.78335e-07
-3.84905e-07
2.8746e-07
-4.24814e-07
2.94551e-07
-4.65188e-07
2.99601e-07
-5.05781e-07
3.02624e-07
-5.46347e-07
3.03644e-07
-5.86646e-07
3.02702e-07
-6.26445e-07
2.99845e-07
-6.65514e-07
2.95132e-07
-7.03636e-07
2.88629e-07
-7.40597e-07
2.80407e-07
-7.76196e-07
2.70545e-07
-8.10242e-07
2.59125e-07
-8.42551e-07
2.46234e-07
-8.72953e-07
2.31964e-07
-9.01289e-07
2.16407e-07
-9.27412e-07
1.99661e-07
-9.51187e-07
1.81824e-07
-9.7249e-07
1.62997e-07
-9.91212e-07
1.43286e-07
-1.00726e-06
1.22794e-07
-1.02054e-06
1.0163e-07
-1.03099e-06
7.99021e-08
-1.03855e-06
5.77224e-08
-1.04318e-06
3.52034e-08
-1.04486e-06
1.24596e-08
-1.04356e-06
-1.0393e-08
-1.03929e-06
-3.32369e-08
-1.03207e-06
-5.5953e-08
-1.02192e-06
-7.84212e-08
-1.00889e-06
-1.0052e-07
-9.93045e-07
-1.22129e-07
-9.74453e-07
-1.43124e-07
-9.53207e-07
-1.63383e-07
-9.29413e-07
-1.82785e-07
-9.0319e-07
-2.01207e-07
-8.74675e-07
-2.1853e-07
-8.44017e-07
-2.34636e-07
-8.11379e-07
-2.4941e-07
-7.76938e-07
-2.62741e-07
-7.40885e-07
-2.7452e-07
-7.03423e-07
-2.84646e-07
-6.64766e-07
-2.93025e-07
-6.25139e-07
-2.99567e-07
-5.84778e-07
-3.04193e-07
-5.43926e-07
-3.06835e-07
-5.02833e-07
-3.07436e-07
-4.61754e-07
-3.05949e-07
-4.20951e-07
-3.02346e-07
-3.80684e-07
-2.96614e-07
-3.41215e-07
-2.88757e-07
-3.02805e-07
-2.78801e-07
-2.6571e-07
-2.66795e-07
-2.30178e-07
-2.52813e-07
-1.9645e-07
-2.36958e-07
-1.64757e-07
-2.19364e-07
-1.35316e-07
-2.00199e-07
-1.08329e-07
-1.7967e-07
-8.3983e-08
-1.58029e-07
-6.2449e-08
-1.35572e-07
-4.38803e-08
-1.12647e-07
-2.84154e-08
-8.96596e-08
-1.61796e-08
-6.7077e-08
-7.28891e-09
-4.54291e-08
-1.85626e-09
-2.53113e-08
-7.41997e-09
-2.18433e-09
1.04474e-08
-8.50639e-09
3.38798e-08
-1.87558e-08
5.90314e-08
-3.27329e-08
8.52152e-08
-5.02415e-08
1.11847e-07
-7.10839e-08
1.38411e-07
-9.50575e-08
1.64457e-07
-1.21952e-07
1.89601e-07
-1.5155e-07
2.13516e-07
-1.83623e-07
2.35931e-07
-2.17936e-07
2.56621e-07
-2.54245e-07
2.75408e-07
-2.92299e-07
2.9215e-07
-3.31843e-07
3.06742e-07
-3.72617e-07
3.19109e-07
-4.14359e-07
3.29203e-07
-4.56808e-07
3.36999e-07
-4.99702e-07
3.42495e-07
-5.42781e-07
3.45703e-07
-5.85792e-07
3.46655e-07
-6.28484e-07
3.45394e-07
-6.70613e-07
3.41974e-07
-7.11942e-07
3.36462e-07
-7.52244e-07
3.2893e-07
-7.91298e-07
3.19461e-07
-8.28895e-07
3.08142e-07
-8.64836e-07
2.95066e-07
-8.98932e-07
2.80331e-07
-9.31007e-07
2.64039e-07
-9.60895e-07
2.46295e-07
-9.88445e-07
2.2721e-07
-1.01351e-06
2.06894e-07
-1.03598e-06
1.85461e-07
-1.05572e-06
1.63029e-07
-1.07264e-06
1.39716e-07
-1.08666e-06
1.15645e-07
-1.09769e-06
9.09372e-08
-1.10569e-06
6.5719e-08
-1.1106e-06
4.01175e-08
-1.11241e-06
1.42617e-08
-1.11108e-06
-1.17174e-08
-1.10663e-06
-3.76874e-08
-1.09907e-06
-6.35141e-08
-1.08843e-06
-8.90621e-08
-1.07476e-06
-1.14195e-07
-1.05811e-06
-1.38775e-07
-1.03857e-06
-1.62664e-07
-1.01623e-06
-1.85725e-07
-9.91194e-07
-2.07819e-07
-9.63591e-07
-2.2881e-07
-9.33559e-07
-2.48562e-07
-9.01252e-07
-2.66943e-07
-8.66839e-07
-2.83823e-07
-8.30504e-07
-2.99076e-07
-7.92443e-07
-3.1258e-07
-7.52868e-07
-3.24222e-07
-7.12e-07
-3.33892e-07
-6.70074e-07
-3.41493e-07
-6.27334e-07
-3.46933e-07
-5.84033e-07
-3.50136e-07
-5.40433e-07
-3.51036e-07
-4.968e-07
-3.49582e-07
-4.53408e-07
-3.45739e-07
-4.1053e-07
-3.39492e-07
-3.68442e-07
-3.30844e-07
-3.2742e-07
-3.19824e-07
-2.87733e-07
-3.06481e-07
-2.49649e-07
-2.90898e-07
-2.13426e-07
-2.73182e-07
-1.79312e-07
-2.53478e-07
-1.47546e-07
-2.31965e-07
-1.18352e-07
-2.08864e-07
-9.19424e-08
-1.84439e-07
-6.85127e-08
-1.59001e-07
-4.82459e-08
-1.32913e-07
-3.13114e-08
-1.06594e-07
-1.7868e-08
-8.05204e-08
-8.06756e-09
-5.52296e-08
-2.05971e-09
-3.13192e-08
-9.47968e-09
-2.38678e-09
1.28342e-08
-9.28057e-09
4.07735e-08
-2.04333e-08
7.01842e-08
-3.56078e-08
1.0039e-07
-5.45712e-08
1.3081e-07
-7.70914e-08
1.60931e-07
-1.02933e-07
1.90299e-07
-1.31858e-07
2.18526e-07
-1.63619e-07
2.45278e-07
-1.97965e-07
2.70277e-07
-2.34638e-07
2.93294e-07
-2.73373e-07
3.14143e-07
-3.13901e-07
3.32678e-07
-3.55951e-07
3.48791e-07
-3.99246e-07
3.62404e-07
-4.43512e-07
3.73468e-07
-4.88472e-07
3.8196e-07
-5.33853e-07
3.87876e-07
-5.79386e-07
3.91236e-07
-6.24805e-07
3.92074e-07
-6.6985e-07
3.90439e-07
-7.14268e-07
3.86392e-07
-7.57813e-07
3.80008e-07
-8.00251e-07
3.71368e-07
-8.41353e-07
3.60563e-07
-8.80903e-07
3.47692e-07
-9.18695e-07
3.32859e-07
-9.54536e-07
3.16171e-07
-9.88242e-07
2.97745e-07
-1.01964e-06
2.77697e-07
-1.04858e-06
2.5615e-07
-1.07492e-06
2.33227e-07
-1.09851e-06
2.09057e-07
-1.11926e-06
1.8377e-07
-1.13704e-06
1.57499e-07
-1.15177e-06
1.3038e-07
-1.16338e-06
1.02549e-07
-1.17181e-06
7.41473e-08
-1.17701e-06
4.53164e-08
-1.17895e-06
1.62005e-08
-1.17761e-06
-1.30543e-08
-1.173e-06
-4.23002e-08
-1.16513e-06
-7.13875e-08
-1.15402e-06
-1.00165e-07
-1.13974e-06
-1.2848e-07
-1.12233e-06
-1.5618e-07
-1.10189e-06
-1.8311e-07
-1.0785e-06
-2.09116e-07
-1.05227e-06