/*--------------------------------*- C++ -*----------------------------------*\
  =========                 |
  \\      /  F ield         | OpenFOAM: The Open Source CFD Toolbox
   \\    /   O peration     | Website:  https://openfoam.org
    \\  /    A nd           | Version:  7
     \\/     M anipulation  |
\*---------------------------------------------------------------------------*/
FoamFile
{
    version     2.0;
    format      ascii;
    class       volVectorField;
    location    "0.475";
    object      U;
}
// * * * * * * * * * * * * * * * * * * * * * * * * * * * * * * * * * * * * * //

dimensions      [0 1 -1 0 0 0 0];

internalField   nonuniform List<vector> 
6400
(
(7.14135e-06 -7.35863e-06 0)
(2.96434e-05 -1.45062e-05 0)
(5.92247e-05 -1.42006e-05 0)
(8.05793e-05 -9.74547e-06 0)
(8.54424e-05 -3.43245e-06 0)
(7.05829e-05 3.54105e-06 0)
(3.48808e-05 1.05621e-05 0)
(-2.16311e-05 1.73126e-05 0)
(-9.81974e-05 2.36304e-05 0)
(-0.000193629 2.94341e-05 0)
(-0.00030648 3.46854e-05 0)
(-0.000435153 3.93697e-05 0)
(-0.000577969 4.3486e-05 0)
(-0.000733207 4.70406e-05 0)
(-0.000899138 5.00455e-05 0)
(-0.00107405 5.25156e-05 0)
(-0.00125624 5.44683e-05 0)
(-0.00144408 5.59221e-05 0)
(-0.00163594 5.68967e-05 0)
(-0.00183029 5.7412e-05 0)
(-0.00202562 5.74885e-05 0)
(-0.0022205 5.71466e-05 0)
(-0.00241355 5.6407e-05 0)
(-0.00260347 5.52903e-05 0)
(-0.002789 5.3817e-05 0)
(-0.00296898 5.20074e-05 0)
(-0.00314228 4.98818e-05 0)
(-0.00330786 4.74603e-05 0)
(-0.00346474 4.47629e-05 0)
(-0.00361201 4.18095e-05 0)
(-0.00374883 3.86202e-05 0)
(-0.00387441 3.52147e-05 0)
(-0.00398805 3.1613e-05 0)
(-0.00408912 2.78352e-05 0)
(-0.00417704 2.39016e-05 0)
(-0.00425132 1.98327e-05 0)
(-0.00431152 1.5649e-05 0)
(-0.00435731 1.13719e-05 0)
(-0.00438839 7.0225e-06 0)
(-0.00440457 2.62284e-06 0)
(-0.00440571 -1.80484e-06 0)
(-0.00439176 -6.23777e-06 0)
(-0.00436276 -1.06527e-05 0)
(-0.00431881 -1.5026e-05 0)
(-0.00426011 -1.93334e-05 0)
(-0.00418693 -2.35503e-05 0)
(-0.00409963 -2.76517e-05 0)
(-0.00399866 -3.1612e-05 0)
(-0.00388455 -3.54056e-05 0)
(-0.00375793 -3.90064e-05 0)
(-0.00361949 -4.23884e-05 0)
(-0.00347003 -4.55254e-05 0)
(-0.00331044 -4.83913e-05 0)
(-0.00314169 -5.09602e-05 0)
(-0.00296482 -5.32065e-05 0)
(-0.00278098 -5.51051e-05 0)
(-0.00259138 -5.66315e-05 0)
(-0.00239732 -5.7762e-05 0)
(-0.00220016 -5.84738e-05 0)
(-0.00200134 -5.87453e-05 0)
(-0.00180236 -5.85558e-05 0)
(-0.00160479 -5.78865e-05 0)
(-0.00141025 -5.67199e-05 0)
(-0.00122038 -5.50406e-05 0)
(-0.00103688 -5.2835e-05 0)
(-0.000861468 -5.00922e-05 0)
(-0.000695882 -4.68038e-05 0)
(-0.000541846 -4.29651e-05 0)
(-0.000401071 -3.85759e-05 0)
(-0.00027522 -3.36421e-05 0)
(-0.000165878 -2.81787e-05 0)
(-7.45044e-05 -2.22154e-05 0)
(-2.36861e-06 -1.58059e-05 0)
(4.95606e-05 -9.0479e-06 0)
(8.07888e-05 -2.12072e-06 0)
(9.1581e-05 4.64139e-06 0)
(8.33835e-05 1.06133e-05 0)
(5.97625e-05 1.45987e-05 0)
(2.92303e-05 1.43532e-05 0)
(6.87147e-06 6.8694e-06 0)
(1.43925e-05 -2.99707e-05 0)
(5.1437e-05 -5.16036e-05 0)
(8.9734e-05 -4.41282e-05 0)
(0.000103492 -1.91267e-05 0)
(7.69899e-05 1.52963e-05 0)
(2.37585e-06 5.41165e-05 0)
(-0.00012405 9.42568e-05 0)
(-0.000303203 0.000133829 0)
(-0.000534038 0.000171674 0)
(-0.00081419 0.000207075 0)
(-0.00114042 0.000239594 0)
(-0.00150891 0.000268971 0)
(-0.00191548 0.000295061 0)
(-0.00235573 0.000317798 0)
(-0.00282514 0.000337172 0)
(-0.00331915 0.000353209 0)
(-0.00383321 0.000365968 0)
(-0.00436285 0.000375524 0)
(-0.00490366 0.000381971 0)
(-0.00545136 0.000385411 0)
(-0.0060018 0.000385956 0)
(-0.00655099 0.000383723 0)
(-0.00709508 0.000378836 0)
(-0.00763038 0.00037142 0)
(-0.00815339 0.000361602 0)
(-0.00866078 0.000349514 0)
(-0.0091494 0.000335286 0)
(-0.00961629 0.00031905 0)
(-0.0100587 0.000300939 0)
(-0.010474 0.000281087 0)
(-0.0108597 0.000259629 0)
(-0.0112138 0.000236701 0)
(-0.0115342 0.000212438 0)
(-0.0118191 0.00018698 0)
(-0.0120668 0.000160465 0)
(-0.012276 0.000133035 0)
(-0.0124455 0.000104834 0)
(-0.0125742 7.60056e-05 0)
(-0.0126614 4.66993e-05 0)
(-0.0127065 1.7065e-05 0)
(-0.0127092 -1.27438e-05 0)
(-0.0126693 -4.25712e-05 0)
(-0.0125869 -7.22583e-05 0)
(-0.0124624 -0.000101643 0)
(-0.0122963 -0.000130562 0)
(-0.0120895 -0.000158848 0)
(-0.0118429 -0.000186332 0)
(-0.0115578 -0.000212844 0)
(-0.0112359 -0.000238211 0)
(-0.0108787 -0.00026226 0)
(-0.0104884 -0.00028482 0)
(-0.0100672 -0.000305716 0)
(-0.00961764 -0.00032478 0)
(-0.00914239 -0.000341842 0)
(-0.00864446 -0.000356736 0)
(-0.00812703 -0.000369302 0)
(-0.00759352 -0.000379385 0)
(-0.00704755 -0.000386837 0)
(-0.00649295 -0.000391516 0)
(-0.00593372 -0.000393293 0)
(-0.00537403 -0.000392046 0)
(-0.00481819 -0.000387669 0)
(-0.00427066 -0.00038007 0)
(-0.00373598 -0.000369173 0)
(-0.00321875 -0.000354924 0)
(-0.00272363 -0.00033729 0)
(-0.00225526 -0.000316269 0)
(-0.00181822 -0.000291893 0)
(-0.00141697 -0.000264241 0)
(-0.00105576 -0.00023345 0)
(-0.000738507 -0.000199742 0)
(-0.000468693 -0.000163458 0)
(-0.000249106 -0.000125113 0)
(-8.15741e-05 -8.55011e-05 0)
(3.34739e-05 -4.58491e-05 0)
(9.76278e-05 -8.09445e-06 0)
(0.000115272 2.46761e-05 0)
(9.48782e-05 4.75117e-05 0)
(5.26207e-05 5.25729e-05 0)
(1.43504e-05 2.9206e-05 0)
(1.42654e-05 -5.94955e-05 0)
(4.45118e-05 -8.99792e-05 0)
(6.12154e-05 -6.05217e-05 0)
(3.5558e-05 6.68956e-06 0)
(-5.08371e-05 9.62342e-05 0)
(-0.000208191 0.000197456 0)
(-0.00044184 0.000303124 0)
(-0.000753491 0.000408401 0)
(-0.00114211 0.000510064 0)
(-0.00160469 0.000605969 0)
(-0.00213681 0.0006947 0)
(-0.00273308 0.000775341 0)
(-0.00338744 0.000847325 0)
(-0.00409339 0.000910328 0)
(-0.00484416 0.000964206 0)
(-0.00563285 0.00100894 0)
(-0.0064525 0.00104462 0)
(-0.00729622 0.0010714 0)
(-0.0081572 0.00108948 0)
(-0.00902876 0.00109911 0)
(-0.00990443 0.00110058 0)
(-0.0107779 0.0010942 0)
(-0.0116432 0.00108028 0)
(-0.0124944 0.00105917 0)
(-0.013326 0.00103122 0)
(-0.0141328 0.000996797 0)
(-0.0149097 0.000956255 0)
(-0.015652 0.00090997 0)
(-0.0163553 0.000858319 0)
(-0.0170155 0.000801682 0)
(-0.0176288 0.000740444 0)
(-0.0181916 0.000674994 0)
(-0.0187008 0.000605723 0)
(-0.0191534 0.00053303 0)
(-0.019547 0.000457315 0)
(-0.0198792 0.000378986 0)
(-0.0201482 0.000298457 0)
(-0.0203523 0.000216148 0)
(-0.0204904 0.000132484 0)
(-0.0205616 4.79006e-05 0)
(-0.0205652 -3.71624e-05 0)
(-0.0205012 -0.000122256 0)
(-0.0203697 -0.000206923 0)
(-0.0201712 -0.000290701 0)
(-0.0199066 -0.00037312 0)
(-0.0195773 -0.000453703 0)
(-0.0191849 -0.000531968 0)
(-0.0187315 -0.00060743 0)
(-0.0182194 -0.0006796 0)
(-0.0176516 -0.000747989 0)
(-0.0170313 -0.000812108 0)
(-0.016362 -0.00087147 0)
(-0.0156477 -0.000925597 0)
(-0.0148927 -0.000974015 0)
(-0.0141018 -0.00101626 0)
(-0.0132801 -0.0010519 0)
(-0.0124328 -0.00108048 0)
(-0.0115657 -0.00110162 0)
(-0.0106849 -0.00111492 0)
(-0.00979656 -0.00112003 0)
(-0.00890728 -0.00111664 0)
(-0.00802378 -0.00110447 0)
(-0.00715298 -0.00108329 0)
(-0.00630193 -0.00105293 0)
(-0.00547776 -0.00101327 0)
(-0.00468759 -0.000964298 0)
(-0.00393852 -0.00090606 0)
(-0.00323746 -0.000838734 0)
(-0.00259109 -0.000762644 0)
(-0.00200568 -0.0006783 0)
(-0.00148693 -0.000586468 0)
(-0.00103971 -0.000488262 0)
(-0.000667817 -0.000385289 0)
(-0.000373486 -0.00027987 0)
(-0.000156895 -0.000175371 0)
(-1.54184e-05 -7.67079e-05 0)
(5.71912e-05 8.91823e-06 0)
(7.19617e-05 7.10783e-05 0)
(4.79853e-05 9.49425e-05 0)
(1.46798e-05 5.98007e-05 0)
(1.00453e-05 -8.12313e-05 0)
(2.03799e-05 -0.000104448 0)
(-4.3201e-06 -3.52113e-05 0)
(-9.08307e-05 9.36369e-05 0)
(-0.000257302 0.000259325 0)
(-0.000514685 0.000445301 0)
(-0.000868891 0.000639701 0)
(-0.00132188 0.000834166 0)
(-0.00187248 0.00102284 0)
(-0.00251719 0.00120165 0)
(-0.0032507 0.00136778 0)
(-0.00406641 0.00151931 0)
(-0.00495679 0.00165501 0)
(-0.00591367 0.00177409 0)
(-0.00692844 0.00187614 0)
(-0.00799227 0.00196101 0)
(-0.00909617 0.00202877 0)
(-0.0102312 0.00207961 0)
(-0.0113884 0.00211388 0)
(-0.0125592 0.002132 0)
(-0.0137348 0.00213446 0)
(-0.0149071 0.00212181 0)
(-0.0160681 0.00209466 0)
(-0.0172099 0.00205362 0)
(-0.0183253 0.00199936 0)
(-0.0194072 0.00193256 0)
(-0.0204489 0.00185391 0)
(-0.0214441 0.00176413 0)
(-0.022387 0.00166394 0)
(-0.023272 0.00155407 0)
(-0.0240939 0.00143527 0)
(-0.0248482 0.0013083 0)
(-0.0255305 0.0011739 0)
(-0.0261369 0.00103286 0)
(-0.0266641 0.000885968 0)
(-0.0271089 0.000734007 0)
(-0.0274689 0.000577786 0)
(-0.027742 0.000418126 0)
(-0.0279265 0.000255858 0)
(-0.0280212 9.18282e-05 0)
(-0.0280255 -7.31047e-05 0)
(-0.027939 -0.000238067 0)
(-0.0277621 -0.000402171 0)
(-0.0274954 -0.000564516 0)
(-0.0271403 -0.000724191 0)
(-0.0266985 -0.000880271 0)
(-0.0261723 -0.00103183 0)
(-0.0255643 -0.00117791 0)
(-0.0248779 -0.00131759 0)
(-0.0241169 -0.00144992 0)
(-0.0232856 -0.00157396 0)
(-0.0223887 -0.00168878 0)
(-0.0214317 -0.00179345 0)
(-0.0204203 -0.00188708 0)
(-0.0193607 -0.00196878 0)
(-0.0182597 -0.00203772 0)
(-0.0171245 -0.00209307 0)
(-0.0159626 -0.00213407 0)
(-0.014782 -0.00216001 0)
(-0.013591 -0.00217023 0)
(-0.0123982 -0.00216417 0)
(-0.0112125 -0.00214132 0)
(-0.010043 -0.0021013 0)
(-0.00889885 -0.00204381 0)
(-0.00778937 -0.00196872 0)
(-0.00672381 -0.00187604 0)
(-0.00571129 -0.00176597 0)
(-0.00476069 -0.00163895 0)
(-0.0038805 -0.00149573 0)
(-0.00307859 -0.00133741 0)
(-0.00236205 -0.00116559 0)
(-0.00173687 -0.000982543 0)
(-0.00120755 -0.000791408 0)
(-0.000776703 -0.000596561 0)
(-0.000444461 -0.000404083 0)
(-0.000207766 -0.000222444 0)
(-5.96115e-05 -6.3436e-05 0)
(1.19488e-05 5.67588e-05 0)
(2.61162e-05 0.000116208 0)
(1.09061e-05 8.38517e-05 0)
(4.01542e-06 -8.70667e-05 0)
(-1.30217e-05 -7.9569e-05 0)
(-9.19965e-05 4.99298e-05 0)
(-0.000253994 0.000259672 0)
(-0.000514861 0.000520255 0)
(-0.000885046 0.000809617 0)
(-0.00137013 0.00111136 0)
(-0.00197172 0.00141348 0)
(-0.00268826 0.00170728 0)
(-0.00351561 0.00198647 0)
(-0.0044477 0.00224655 0)
(-0.00547689 0.00248438 0)
(-0.00659445 0.0026978 0)
(-0.00779081 0.00288543 0)
(-0.00905585 0.00304645 0)
(-0.0103791 0.00318048 0)
(-0.0117498 0.00328748 0)
(-0.0131573 0.00336769 0)
(-0.0145909 0.00342154 0)
(-0.0160401 0.00344962 0)
(-0.0174944 0.00345268 0)
(-0.0189439 0.00343153 0)
(-0.0203787 0.0033871 0)
(-0.0217895 0.00332036 0)
(-0.0231672 0.00323234 0)
(-0.0245033 0.00312411 0)
(-0.0257895 0.00299678 0)
(-0.0270181 0.00285148 0)
(-0.0281819 0.00268937 0)
(-0.029274 0.00251163 0)
(-0.0302883 0.00231946 0)
(-0.0312189 0.00211407 0)
(-0.0320606 0.00189669 0)
(-0.0328085 0.00166859 0)
(-0.0334585 0.00143102 0)
(-0.034007 0.00118528 0)
(-0.0344506 0.000932676 0)
(-0.034787 0.000674534 0)
(-0.035014 0.000412204 0)
(-0.0351303 0.000147058 0)
(-0.0351349 -0.000119511 0)
(-0.0350276 -0.000386089 0)
(-0.0348088 -0.000651239 0)
(-0.0344793 -0.000913506 0)
(-0.0340407 -0.00117142 0)
(-0.0334952 -0.00142348 0)
(-0.0328456 -0.00166819 0)
(-0.0320953 -0.00190404 0)
(-0.0312484 -0.00212952 0)
(-0.0303095 -0.0023431 0)
(-0.0292839 -0.00254329 0)
(-0.0281775 -0.00272859 0)
(-0.0269968 -0.00289753 0)
(-0.025749 -0.00304868 0)
(-0.0244417 -0.00318063 0)
(-0.0230832 -0.00329205 0)
(-0.0216821 -0.00338165 0)
(-0.0202478 -0.00344824 0)
(-0.01879 -0.00349069 0)
(-0.0173186 -0.00350801 0)
(-0.0158443 -0.0034993 0)
(-0.0143776 -0.00346383 0)
(-0.0129297 -0.00340103 0)
(-0.0115116 -0.00331052 0)
(-0.0101343 -0.00319215 0)
(-0.00880909 -0.00304603 0)
(-0.00754672 -0.0028726 0)
(-0.00635774 -0.0026727 0)
(-0.00525214 -0.00244763 0)
(-0.00423916 -0.0021993 0)
(-0.00332705 -0.00193039 0)
(-0.00252271 -0.00164457 0)
(-0.00183137 -0.00134683 0)
(-0.00125611 -0.00104388 0)
(-0.000797348 -0.000744765 0)
(-0.00045221 -0.000461631 0)
(-0.000213851 -0.00021079 0)
(-7.0615e-05 -1.38536e-05 0)
(-5.23456e-06 0.00010075 0)
(5.26158e-06 9.31445e-05 0)
(-2.66845e-06 -7.37787e-05 0)
(-5.09381e-05 -7.39796e-06 0)
(-0.000191902 0.000205439 0)
(-0.000438797 0.000516344 0)
(-0.000803735 0.000890373 0)
(-0.00129572 0.0013006 0)
(-0.00191925 0.00172644 0)
(-0.00267504 0.00215239 0)
(-0.00356075 0.00256685 0)
(-0.00457151 0.00296122 0)
(-0.00570035 0.00332919 0)
(-0.00693872 0.00366621 0)
(-0.00827676 0.00396907 0)
(-0.00970372 0.00423563 0)
(-0.0112082 0.00446454 0)
(-0.0127782 0.00465512 0)
(-0.0144016 0.00480716 0)
(-0.0160662 0.00492087 0)
(-0.0177597 0.00499676 0)
(-0.0194699 0.00503561 0)
(-0.021185 0.00503838 0)
(-0.0228934 0.00500621 0)
(-0.0245836 0.00494037 0)
(-0.0262448 0.00484222 0)
(-0.0278665 0.00471322 0)
(-0.0294387 0.00455489 0)
(-0.0309519 0.00436882 0)
(-0.032397 0.00415662 0)
(-0.0337656 0.00391999 0)
(-0.0350497 0.00366061 0)
(-0.0362421 0.00338023 0)
(-0.0373359 0.00308061 0)
(-0.038325 0.00276356 0)
(-0.0392038 0.00243089 0)
(-0.0399675 0.00208446 0)
(-0.0406116 0.00172614 0)
(-0.0411326 0.00135785 0)
(-0.0415274 0.000981534 0)
(-0.0417936 0.000599151 0)
(-0.0419297 0.000212706 0)
(-0.0419346 -0.000175767 0)
(-0.0418081 -0.000564205 0)
(-0.0415504 -0.000950516 0)
(-0.0411628 -0.00133258 0)
(-0.0406471 -0.00170825 0)
(-0.0400058 -0.00207537 0)
(-0.0392422 -0.00243175 0)
(-0.0383604 -0.0027752 0)
(-0.037365 -0.00310352 0)
(-0.0362615 -0.00341452 0)
(-0.0350561 -0.00370603 0)
(-0.0337558 -0.0039759 0)
(-0.0323681 -0.004222 0)
(-0.0309012 -0.00444227 0)
(-0.0293642 -0.00463472 0)
(-0.0277667 -0.00479741 0)
(-0.0261187 -0.00492852 0)
(-0.024431 -0.00502635 0)
(-0.0227148 -0.00508933 0)
(-0.0209818 -0.00511604 0)
(-0.0192442 -0.00510527 0)
(-0.0175142 -0.00505602 0)
(-0.0158045 -0.00496752 0)
(-0.0141279 -0.00483933 0)
(-0.012497 -0.00467133 0)
(-0.0109246 -0.00446378 0)
(-0.00942305 -0.00421746 0)
(-0.00800425 -0.00393367 0)
(-0.00667954 -0.00361444 0)
(-0.00545934 -0.00326263 0)
(-0.00435294 -0.00288216 0)
(-0.00336818 -0.00247832 0)
(-0.00251104 -0.00205808 0)
(-0.0017853 -0.00163062 0)
(-0.00119201 -0.00120799 0)
(-0.000729049 -0.000805928 0)
(-0.000390486 -0.000444952 0)
(-0.000165885 -0.000151525 0)
(-4.13317e-05 4.04131e-05 0)
(-1.09649e-06 8.4324e-05 0)
(-9.44685e-06 -4.01189e-05 0)
(-9.06053e-05 0.000116252 0)
(-0.000297644 0.000437573 0)
(-0.00063494 0.000870965 0)
(-0.00111001 0.00137715 0)
(-0.00172971 0.00192513 0)
(-0.00249686 0.00249064 0)
(-0.00341081 0.00305495 0)
(-0.00446811 0.0036037 0)
(-0.00566286 0.004126 0)
(-0.00698717 0.00461367 0)
(-0.00843147 0.00506067 0)
(-0.00998488 0.00546268 0)
(-0.0116355 0.00581667 0)
(-0.0133707 0.00612072 0)
(-0.0151774 0.00637374 0)
(-0.0170421 0.0065753 0)
(-0.0189511 0.00672556 0)
(-0.0208909 0.00682507 0)
(-0.0228479 0.00687477 0)
(-0.0248089 0.00687588 0)
(-0.0267607 0.00682984 0)
(-0.0286907 0.00673831 0)
(-0.0305867 0.00660306 0)
(-0.0324368 0.00642604 0)
(-0.0342298 0.00620926 0)
(-0.0359549 0.00595484 0)
(-0.037602 0.00566498 0)
(-0.0391616 0.00534192 0)
(-0.0406246 0.00498796 0)
(-0.0419827 0.00460546 0)
(-0.0432285 0.00419683 0)
(-0.0443547 0.00376449 0)
(-0.0453553 0.00331093 0)
(-0.0462245 0.00283868 0)
(-0.0469576 0.00235029 0)
(-0.0475504 0.00184837 0)
(-0.0479995 0.00133556 0)
(-0.0483023 0.000814542 0)
(-0.0484569 0.000288047 0)
(-0.0484621 -0.000241156 0)
(-0.0483177 -0.000770261 0)
(-0.0480242 -0.00129642 0)
(-0.0475827 -0.00181675 0)
(-0.0469955 -0.00232834 0)
(-0.0462653 -0.00282824 0)
(-0.0453959 -0.00331351 0)
(-0.0443919 -0.00378117 0)
(-0.0432586 -0.00422824 0)
(-0.0420022 -0.00465176 0)
(-0.0406297 -0.0050488 0)
(-0.0391489 -0.00541646 0)
(-0.0375684 -0.00575187 0)
(-0.0358974 -0.00605227 0)
(-0.0341461 -0.00631497 0)
(-0.0323253 -0.0065374 0)
(-0.0304463 -0.00671712 0)
(-0.0285212 -0.00685187 0)
(-0.0265626 -0.00693957 0)
(-0.0245837 -0.00697838 0)
(-0.0225978 -0.00696671 0)
(-0.0206189 -0.00690327 0)
(-0.0186611 -0.00678715 0)
(-0.0167385 -0.00661782 0)
(-0.0148653 -0.00639521 0)
(-0.0130556 -0.00611983 0)
(-0.0113231 -0.00579282 0)
(-0.00968106 -0.00541608 0)
(-0.00814193 -0.00499243 0)
(-0.00671728 -0.0045258 0)
(-0.00541743 -0.00402147 0)
(-0.00425115 -0.00348641 0)
(-0.00322537 -0.00292966 0)
(-0.00234474 -0.00236288 0)
(-0.00161136 -0.001801 0)
(-0.00102432 -0.00126312 0)
(-0.000579184 -0.000773518 0)
(-0.000267431 -0.000362775 0)
(-7.93777e-05 -6.92167e-05 0)
(-7.59352e-06 5.60178e-05 0)
(-1.60573e-05 1.4173e-05 0)
(-0.000130458 0.00029321 0)
(-0.000405243 0.000749602 0)
(-0.000835664 0.00132771 0)
(-0.00142419 0.0019851 0)
(-0.0021751 0.0026875 0)
(-0.00308907 0.00340755 0)
(-0.00416369 0.00412366 0)
(-0.00539407 0.00481895 0)
(-0.00677312 0.00548035 0)
(-0.00829181 0.00609787 0)
(-0.00993949 0.00666398 0)
(-0.0117042 0.00717318 0)
(-0.0135731 0.00762155 0)
(-0.0155322 0.00800651 0)
(-0.0175675 0.00832653 0)
(-0.0196641 0.00858094 0)
(-0.0218074 0.00876977 0)
(-0.0239823 0.00889364 0)
(-0.0261742 0.00895362 0)
(-0.0283686 0.00895118 0)
(-0.030551 0.00888809 0)
(-0.0327077 0.00876639 0)
(-0.0348252 0.00858835 0)
(-0.0368906 0.00835638 0)
(-0.0388913 0.00807307 0)
(-0.0408157 0.00774111 0)
(-0.0426524 0.00736331 0)
(-0.0443911 0.00694255 0)
(-0.0460217 0.00648182 0)
(-0.0475352 0.00598413 0)
(-0.0489231 0.00545261 0)
(-0.0501777 0.00489039 0)
(-0.0512921 0.00430071 0)
(-0.0522602 0.00368682 0)
(-0.0530765 0.00305205 0)
(-0.0537365 0.00239978 0)
(-0.0542365 0.00173344 0)
(-0.0545735 0.00105651 0)
(-0.0547455 0.000372537 0)
(-0.0547513 -0.000314898 0)
(-0.0545905 -0.00100215 0)
(-0.0542637 -0.00168553 0)
(-0.0537722 -0.0023613 0)
(-0.0531184 -0.0030257 0)
(-0.0523054 -0.00367492 0)
(-0.0513375 -0.00430513 0)
(-0.0502196 -0.00491251 0)
(-0.0489576 -0.00549321 0)
(-0.0475584 -0.00604342 0)
(-0.0460297 -0.00655936 0)
(-0.0443801 -0.00703728 0)
(-0.0426189 -0.00747353 0)
(-0.0407565 -0.00786455 0)
(-0.038804 -0.0082069 0)
(-0.0367732 -0.0084973 0)
(-0.0346767 -0.00873264 0)
(-0.0325276 -0.00891006 0)
(-0.0303399 -0.00902692 0)
(-0.0281278 -0.00908092 0)
(-0.0259062 -0.00907007 0)
(-0.0236901 -0.00899281 0)
(-0.0214951 -0.00884804 0)
(-0.0193366 -0.00863517 0)
(-0.0172301 -0.00835426 0)
(-0.0151909 -0.00800603 0)
(-0.0132339 -0.00759207 0)
(-0.0113736 -0.00711493 0)
(-0.0096236 -0.00657828 0)
(-0.00799656 -0.00598719 0)
(-0.00650385 -0.00534834 0)
(-0.0051553 -0.00467042 0)
(-0.00395889 -0.0039645 0)
(-0.00292046 -0.00324463 0)
(-0.00204341 -0.00252845 0)
(-0.00132845 -0.00183805 0)
(-0.000773111 -0.00120096 0)
(-0.000371213 -0.00065113 0)
(-0.000117765 -0.000230171 0)
(-1.3953e-05 7.86905e-06 0)
(-2.23901e-05 8.88016e-05 0)
(-0.000169648 0.00052377 0)
(-0.000512313 0.00114269 0)
(-0.00103667 0.00188848 0)
(-0.00174002 0.00271652 0)
(-0.00262377 0.00359007 0)
(-0.00368616 0.00447923 0)
(-0.00492273 0.00535997 0)
(-0.0063269 0.00621317 0)
(-0.00789014 0.00702379 0)
(-0.00960214 0.0077801 0)
(-0.0114511 0.00847317 0)
(-0.0134239 0.00909632 0)
(-0.0155066 0.00964476 0)
(-0.0176842 0.0101152 0)
(-0.0199415 0.0105057 0)
(-0.0222627 0.0108153 0)
(-0.0246317 0.0110438 0)
(-0.0270327 0.011192 0)
(-0.0294498 0.0112611 0)
(-0.0318673 0.0112527 0)
(-0.0342697 0.0111691 0)
(-0.0366422 0.0110126 0)
(-0.0389701 0.0107859 0)
(-0.0412396 0.0104922 0)
(-0.0434371 0.0101344 0)
(-0.0455498 0.00971602 0)
(-0.0475658 0.00924043 0)
(-0.0494735 0.00871124 0)
(-0.0512622 0.00813213 0)
(-0.0529221 0.00750689 0)
(-0.0544439 0.00683939 0)
(-0.0558194 0.00613356 0)
(-0.057041 0.00539342 0)
(-0.0581021 0.00462307 0)
(-0.0589968 0.00382665 0)
(-0.0597201 0.00300839 0)
(-0.0602681 0.00217259 0)
(-0.0606376 0.0013236 0)
(-0.0608263 0.000465846 0)
(-0.0608329 -0.000396177 0)
(-0.0606571 -0.00125792 0)
(-0.0602993 -0.00211477 0)
(-0.0597612 -0.00296206 0)
(-0.0590453 -0.00379509 0)
(-0.0581551 -0.00460912 0)
(-0.0570949 -0.00539937 0)
(-0.0558703 -0.00616106 0)
(-0.0544877 -0.00688943 0)
(-0.0529545 -0.00757972 0)
(-0.0512789 -0.00822723 0)
(-0.0494704 -0.00882731 0)
(-0.0475391 -0.00937544 0)
(-0.0454961 -0.0098672 0)
(-0.0433534 -0.0102983 0)
(-0.0411239 -0.0106648 0)
(-0.0388211 -0.0109628 0)
(-0.0364592 -0.0111888 0)
(-0.0340532 -0.0113395 0)
(-0.0316186 -0.0114122 0)
(-0.0291713 -0.0114044 0)
(-0.0267277 -0.0113144 0)
(-0.0243044 -0.0111408 0)
(-0.0219179 -0.0108829 0)
(-0.0195851 -0.010541 0)
(-0.0173224 -0.0101161 0)
(-0.0151459 -0.00961018 0)
(-0.0130712 -0.00902646 0)
(-0.011113 -0.00836954 0)
(-0.00928517 -0.00764561 0)
(-0.00760012 -0.00686278 0)
(-0.00606888 -0.0060314 0)
(-0.00470067 -0.0051645 0)
(-0.00350271 -0.00427835 0)
(-0.00247998 -0.00339306 0)
(-0.00163512 -0.00253335 0)
(-0.000967901 -0.00172946 0)
(-0.000474783 -0.001018 0)
(-0.000155609 -0.000442915 0)
(-2.00544e-05 -5.98969e-05 0)
(-2.84117e-05 0.000183193 0)
(-0.000207749 0.000807309 0)
(-0.000617489 0.00161663 0)
(-0.00123534 0.00255357 0)
(-0.00205349 0.00357211 0)
(-0.00307035 0.00463372 0)
(-0.00428156 0.0057065 0)
(-0.00568039 0.0067644 0)
(-0.00725835 0.00778638 0)
(-0.00900528 0.00875562 0)
(-0.0109095 0.00965885 0)
(-0.0129578 0.0104858 0)
(-0.015136 0.0112287 0)
(-0.017429 0.0118819 0)
(-0.0198207 0.0124415 0)
(-0.0222948 0.012905 0)
(-0.0248344 0.0132712 0)
(-0.0274225 0.0135399 0)
(-0.0300421 0.0137118 0)
(-0.0326764 0.0137882 0)
(-0.0353085 0.0137711 0)
(-0.0379221 0.013663 0)
(-0.0405012 0.0134668 0)
(-0.0430304 0.0131858 0)
(-0.0454946 0.0128233 0)
(-0.0478797 0.0123834 0)
(-0.0501718 0.0118699 0)
(-0.0523581 0.011287 0)
(-0.0544263 0.010639 0)
(-0.0563651 0.00993044 0)
(-0.0581637 0.00916587 0)
(-0.0598126 0.00834996 0)
(-0.0613026 0.00748752 0)
(-0.0626258 0.0065834 0)
(-0.063775 0.00564259 0)
(-0.0647441 0.00467014 0)
(-0.0655276 0.00367117 0)
(-0.0661213 0.00265092 0)
(-0.0665218 0.00161469 0)
(-0.0667267 0.000567845 0)
(-0.0667346 -0.000484138 0)
(-0.066545 -0.00153573 0)
(-0.0661586 -0.00258134 0)
(-0.0655771 -0.00361529 0)
(-0.0648031 -0.00463187 0)
(-0.0638403 -0.00562533 0)
(-0.0626935 -0.00658989 0)
(-0.0613685 -0.00751974 0)
(-0.0598722 -0.00840911 0)
(-0.0582125 -0.00925225 0)
(-0.0563982 -0.0100435 0)
(-0.0544393 -0.0107772 0)
(-0.0523467 -0.0114478 0)
(-0.0501323 -0.0120502 0)
(-0.0478089 -0.0125791 0)
(-0.04539 -0.0130297 0)
(-0.0428903 -0.0133974 0)
(-0.0403248 -0.013678 0)
(-0.0377096 -0.0138676 0)
(-0.0350611 -0.0139628 0)
(-0.0323964 -0.013961 0)
(-0.0297328 -0.0138598 0)
(-0.0270881 -0.0136579 0)
(-0.0244801 -0.0133545 0)
(-0.0219265 -0.0129498 0)
(-0.0194449 -0.0124453 0)
(-0.0170527 -0.0118433 0)
(-0.0147665 -0.0111479 0)
(-0.0126022 -0.0103644 0)
(-0.0105747 -0.00950014 0)
(-0.00869783 -0.00856466 0)
(-0.0069838 -0.00756987 0)
(-0.00544326 -0.00653066 0)
(-0.00408497 -0.00546531 0)
(-0.00291572 -0.0043961 0)
(-0.0019403 -0.00335004 0)
(-0.0011609 -0.0023596 0)
(-0.000576742 -0.00146339 0)
(-0.000192461 -0.000706975 0)
(-2.58576e-05 -0.000146759 0)
(-3.41257e-05 0.000296655 0)
(-0.000244583 0.0011427 0)
(-0.000720066 0.00217039 0)
(-0.00143018 0.00332223 0)
(-0.00236219 0.00455144 0)
(-0.00351151 0.00581826 0)
(-0.00487106 0.00708924 0)
(-0.00643169 0.00833673 0)
(-0.00818288 0.00953807 0)
(-0.0101127 0.0106749 0)
(-0.0122079 0.0117326 0)
(-0.0144539 0.0126998 0)
(-0.0168352 0.0135675 0)
(-0.0193355 0.0143295 0)
(-0.0219377 0.0149811 0)
(-0.0246243 0.0155194 0)
(-0.0273775 0.015943 0)
(-0.0301792 0.0162517 0)
(-0.0330114 0.016446 0)
(-0.0358563 0.0165275 0)
(-0.0386961 0.0164985 0)
(-0.0415136 0.0163619 0)
(-0.0442919 0.0161209 0)
(-0.0470146 0.0157794 0)
(-0.049666 0.0153415 0)
(-0.0522308 0.0148116 0)
(-0.0546947 0.0141945 0)
(-0.0570439 0.013495 0)
(-0.0592656 0.0127183 0)
(-0.0613476 0.0118696 0)
(-0.0632788 0.0109544 0)
(-0.0650487 0.00997826 0)
(-0.066648 0.00894682 0)
(-0.0680681 0.00786588 0)
(-0.0693015 0.00674136 0)
(-0.0703416 0.00557925 0)
(-0.0711827 0.00438566 0)
(-0.0718203 0.0031668 0)
(-0.0722507 0.00192898 0)
(-0.0724715 0.000678586 0)
(-0.0724812 -0.000577882 0)
(-0.0722792 -0.00183385 0)
(-0.0718663 -0.00308267 0)
(-0.0712442 -0.00431762 0)
(-0.0704156 -0.0055319 0)
(-0.0693846 -0.00671869 0)
(-0.0681561 -0.00787113 0)
(-0.0667363 -0.00898235 0)
(-0.0651323 -0.0100455 0)
(-0.0633527 -0.0110538 0)
(-0.0614066 -0.0120004 0)
(-0.0593047 -0.0128788 0)
(-0.0570585 -0.0136824 0)
(-0.0546804 -0.0144051 0)
(-0.0521839 -0.0150407 0)
(-0.0495836 -0.0155835 0)
(-0.0468947 -0.0160281 0)
(-0.0441333 -0.0163695 0)
(-0.0413161 -0.0166032 0)
(-0.0384608 -0.0167254 0)
(-0.0355851 -0.0167327 0)
(-0.0327077 -0.0166227 0)
(-0.0298472 -0.0163936 0)
(-0.0270224 -0.0160446 0)
(-0.0242522 -0.0155762 0)
(-0.0215554 -0.0149899 0)
(-0.0189503 -0.0142887 0)
(-0.0164547 -0.013477 0)
(-0.0140858 -0.0125613 0)
(-0.0118597 -0.01155 0)
(-0.0097915 -0.0104537 0)
(-0.00789484 -0.00928597 0)
(-0.00618189 -0.00806331 0)
(-0.00466314 -0.00680586 0)
(-0.00334737 -0.00553781 0)
(-0.00224162 -0.00428808 0)
(-0.00135061 -0.00309092 0)
(-0.000676372 -0.00198649 0)
(-0.000228132 -0.00102136 0)
(-3.13628e-05 -0.000252069 0)
(-3.95534e-05 0.000428473 0)
(-0.000280115 0.00152859 0)
(-0.000819757 0.00280244 0)
(-0.00162048 0.00419306 0)
(-0.00266486 0.00565335 0)
(-0.00394536 0.00714273 0)
(-0.00545216 0.00862665 0)
(-0.00717363 0.0100762 0)
(-0.00909708 0.0114674 0)
(-0.0112087 0.0127806 0)
(-0.0134936 0.014 0)
(-0.0159357 0.0151132 0)
(-0.0185181 0.0161104 0)
(-0.0212233 0.0169845 0)
(-0.0240331 0.0177304 0)
(-0.0269288 0.0183448 0)
(-0.0298915 0.0188261 0)
(-0.0329023 0.0191739 0)
(-0.0359422 0.0193889 0)
(-0.0389924 0.019473 0)
(-0.0420343 0.0194285 0)
(-0.0450498 0.0192589 0)
(-0.048021 0.0189679 0)
(-0.050931 0.0185598 0)
(-0.053763 0.0180395 0)
(-0.0565012 0.0174121 0)
(-0.0591306 0.016683 0)
(-0.0616366 0.0158579 0)
(-0.0640057 0.0149427 0)
(-0.0662254 0.0139437 0)
(-0.0682838 0.012867 0)
(-0.07017 0.0117192 0)
(-0.0718742 0.0105069 0)
(-0.0733873 0.00923693 0)
(-0.0747016 0.00791605 0)
(-0.0758099 0.00655133 0)
(-0.0767066 0.00514989 0)
(-0.0773866 0.00371898 0)
(-0.0778464 0.00226596 0)
(-0.078083 0.00079829 0)
(-0.0780951 -0.000676455 0)
(-0.0778821 -0.0021506 0)
(-0.0774446 -0.00361639 0)
(-0.0767845 -0.00506598 0)
(-0.0759046 -0.00649146 0)
(-0.0748092 -0.00788487 0)
(-0.0735034 -0.00923821 0)
(-0.0719936 -0.0105435 0)
(-0.0702873 -0.0117927 0)
(-0.0683934 -0.012978 0)
(-0.0663216 -0.0140914 0)
(-0.0640829 -0.0151254 0)
(-0.0616894 -0.0160722 0)
(-0.0591542 -0.0169247 0)
(-0.0564914 -0.0176759 0)
(-0.0537161 -0.018319 0)
(-0.0508444 -0.0188478 0)
(-0.0478932 -0.0192566 0)
(-0.0448801 -0.0195401 0)
(-0.0418235 -0.0196939 0)
(-0.0387422 -0.0197141 0)
(-0.0356556 -0.0195979 0)
(-0.0325835 -0.0193433 0)
(-0.0295457 -0.0189495 0)
(-0.0265621 -0.0184169 0)
(-0.0236526 -0.0177473 0)
(-0.0208367 -0.0169441 0)
(-0.0181334 -0.0160124 0)
(-0.015561 -0.0149594 0)
(-0.0131371 -0.0137944 0)
(-0.010878 -0.0125296 0)
(-0.00879895 -0.0111795 0)
(-0.00691383 -0.00976232 0)
(-0.00523496 -0.00829979 0)
(-0.00377317 -0.00681775 0)
(-0.00253788 -0.0053467 0)
(-0.00153637 -0.00392238 0)
(-0.000773398 -0.00258603 0)
(-0.000262589 -0.00138485 0)
(-3.65906e-05 -0.000375153 0)
(-4.47236e-05 0.000577953 0)
(-0.000314398 0.00196353 0)
(-0.00091654 0.00351106 0)
(-0.00180602 0.00516433 0)
(-0.00296098 0.00687623 0)
(-0.00437102 0.00860572 0)
(-0.00602361 0.0103175 0)
(-0.00790461 0.0119816 0)
(-0.00999911 0.0135732 0)
(-0.0122913 0.0150714 0)
(-0.0147645 0.0164596 0)
(-0.0174012 0.0177243 0)
(-0.020183 0.0188552 0)
(-0.023091 0.0198445 0)
(-0.0261059 0.0206865 0)
(-0.0292078 0.0213779 0)
(-0.0323769 0.0219166 0)
(-0.0355933 0.0223024 0)
(-0.0388369 0.0225361 0)
(-0.0420881 0.0226196 0)
(-0.0453274 0.0225559 0)
(-0.0485359 0.0223486 0)
(-0.0516951 0.0220022 0)
(-0.0547871 0.0215214 0)
(-0.0577945 0.0209118 0)
(-0.0607009 0.0201792 0)
(-0.0634904 0.0193298 0)
(-0.0661481 0.0183702 0)
(-0.0686599 0.0173071 0)
(-0.0710125 0.0161477 0)
(-0.0731937 0.014899 0)
(-0.0751921 0.0135687 0)
(-0.0769976 0.0121642 0)
(-0.0786006 0.0106933 0)
(-0.0799931 0.009164 0)
(-0.0811676 0.00758429 0)
(-0.0821182 0.00596237 0)
(-0.0828397 0.00430659 0)
(-0.0833282 0.00262538 0)
(-0.083581 0.000927334 0)
(-0.0835962 -0.000778847 0)
(-0.0833734 -0.00248435 0)
(-0.0829133 -0.00418026 0)
(-0.0822177 -0.00585757 0)
(-0.0812895 -0.00750719 0)
(-0.0801331 -0.00911999 0)
(-0.0787538 -0.0106868 0)
(-0.0771584 -0.0121984 0)
(-0.0753545 -0.0136457 0)
(-0.0733513 -0.0150195 0)
(-0.071159 -0.0163109 0)
(-0.0687889 -0.017511 0)
(-0.0662536 -0.0186112 0)
(-0.0635668 -0.0196032 0)
(-0.0607431 -0.0204788 0)
(-0.0577984 -0.0212304 0)
(-0.0547492 -0.021851 0)
(-0.0516133 -0.0223338 0)
(-0.048409 -0.022673 0)
(-0.0451555 -0.0228634 0)
(-0.0418726 -0.0229006 0)
(-0.0385806 -0.0227814 0)
(-0.0353001 -0.0225036 0)
(-0.032052 -0.022066 0)
(-0.0288574 -0.0214693 0)
(-0.0257371 -0.0207154 0)
(-0.0227118 -0.019808 0)
(-0.0198018 -0.0187528 0)
(-0.0170267 -0.0175577 0)
(-0.0144054 -0.016233 0)
(-0.0119558 -0.0147918 0)
(-0.00969481 -0.0132501 0)
(-0.00763793 -0.0116273 0)
(-0.00579948 -0.00994649 0)
(-0.00419247 -0.00823505 0)
(-0.0028287 -0.00652479 0)
(-0.00171802 -0.00485258 0)
(-0.000867836 -0.00326052 0)
(-0.000295896 -0.00179615 0)
(-4.15714e-05 -0.000515361 0)
(-4.96684e-05 0.000744455 0)
(-0.000347531 0.0024461 0)
(-0.00101056 0.00429446 0)
(-0.00198692 0.00623414 0)
(-0.00325056 0.00821826 0)
(-0.00478836 0.0102056 0)
(-0.0065851 0.0121602 0)
(-0.00862414 0.0140517 0)
(-0.0108883 0.0158541 0)
(-0.0133598 0.017546 0)
(-0.01602 0.0191099 0)
(-0.0188498 0.0205317 0)
(-0.0218294 0.0218002 0)
(-0.0249385 0.0229074 0)
(-0.0281564 0.0238472 0)
(-0.0314623 0.0246159 0)
(-0.0348352 0.0252116 0)
(-0.0382541 0.0256338 0)
(-0.0416982 0.0258837 0)
(-0.0451468 0.0259635 0)
(-0.0485799 0.0258764 0)
(-0.0519775 0.0256267 0)
(-0.0553205 0.0252191 0)
(-0.0585902 0.0246593 0)
(-0.0617687 0.0239534 0)
(-0.0648389 0.023108 0)
(-0.0677843 0.0221302 0)
(-0.0705894 0.0210273 0)
(-0.0732397 0.0198071 0)
(-0.0757214 0.0184775 0)
(-0.0780218 0.0170467 0)
(-0.0801292 0.0155231 0)
(-0.0820329 0.0139155 0)
(-0.0837233 0.0122324 0)
(-0.0851918 0.0104831 0)
(-0.0864309 0.00867649 0)
(-0.0874342 0.006822 0)
(-0.0881965 0.00492904 0)
(-0.0887137 0.00300721 0)
(-0.0889828 0.00106624 0)
(-0.089002 -0.000883988 0)
(-0.0887709 -0.00283349 0)
(-0.08829 -0.00477216 0)
(-0.0875611 -0.00668976 0)
(-0.0865874 -0.00857602 0)
(-0.0853732 -0.0104205 0)
(-0.0839241 -0.012213 0)
(-0.0822468 -0.0139428 0)
(-0.0803495 -0.0155998 0)
(-0.0782413 -0.0171735 0)
(-0.075933 -0.0186539 0)
(-0.0734362 -0.0200307 0)