/*--------------------------------*- C++ -*----------------------------------*\
  =========                 |
  \\      /  F ield         | OpenFOAM: The Open Source CFD Toolbox
   \\    /   O peration     | Website:  https://openfoam.org
    \\  /    A nd           | Version:  7
     \\/     M anipulation  |
\*---------------------------------------------------------------------------*/
FoamFile
{
    version     2.0;
    format      ascii;
    class       surfaceScalarField;
    location    "0.175";
    object      phi;
}
// * * * * * * * * * * * * * * * * * * * * * * * * * * * * * * * * * * * * * //

dimensions      [0 3 -1 0 0 0 0];

internalField   nonuniform List<scalar> 
50880
(
1.10085e-11
-1.10054e-11
2.71447e-11
-1.6134e-11
3.7546e-11
-1.04027e-11
3.62595e-11
1.28623e-12
2.1043e-11
1.5216e-11
-8.63137e-12
2.96735e-11
-5.23277e-11
4.36956e-11
-1.09144e-10
5.68158e-11
-1.77977e-10
6.88324e-11
-2.57653e-10
7.96753e-11
-3.46987e-10
8.93331e-11
-4.44834e-10
9.78467e-11
-5.5011e-10
1.05277e-10
-6.61791e-10
1.1168e-10
-7.7892e-10
1.17128e-10
-9.00637e-10
1.21716e-10
-1.02617e-09
1.25538e-10
-1.15484e-09
1.2867e-10
-1.28603e-09
1.31184e-10
-1.41918e-09
1.33152e-10
-1.55382e-09
1.34639e-10
-1.68953e-09
1.35707e-10
-1.82595e-09
1.36422e-10
-1.96279e-09
1.36837e-10
-2.09978e-09
1.36993e-10
-2.2367e-09
1.36921e-10
-2.37336e-09
1.36656e-10
-2.50959e-09
1.36232e-10
-2.64527e-09
1.35681e-10
-2.78029e-09
1.35022e-10
-2.91456e-09
1.34269e-10
-3.04799e-09
1.33431e-10
-3.18051e-09
1.32523e-10
-3.31207e-09
1.31555e-10
-3.44261e-09
1.30538e-10
-3.57208e-09
1.29475e-10
-3.70045e-09
1.28367e-10
-3.82766e-09
1.27214e-10
-3.95368e-09
1.26021e-10
-4.07847e-09
1.24789e-10
-4.20199e-09
1.23519e-10
-4.3242e-09
1.22209e-10
-4.44506e-09
1.20858e-10
-4.56452e-09
1.19464e-10
-4.68255e-09
1.18026e-10
-4.79909e-09
1.16545e-10
-4.91411e-09
1.15019e-10
-5.02756e-09
1.13446e-10
-5.13938e-09
1.11825e-10
-5.24954e-09
1.10153e-10
-5.35796e-09
1.08429e-10
-5.46462e-09
1.06653e-10
-5.56944e-09
1.04822e-10
-5.67238e-09
1.02938e-10
-5.77338e-09
1.00997e-10
-5.87238e-09
9.89997e-11
-5.96932e-09
9.6943e-11
-6.06415e-09
9.48264e-11
-6.15679e-09
9.26488e-11
-6.2472e-09
9.04098e-11
-6.33531e-09
8.81088e-11
-6.42106e-09
8.57448e-11
-6.50438e-09
8.33171e-11
-6.5852e-09
8.08247e-11
-6.66347e-09
7.8267e-11
-6.73911e-09
7.56431e-11
-6.81206e-09
7.2952e-11
-6.88226e-09
7.0194e-11
-6.94963e-09
6.73698e-11
-7.01411e-09
6.44791e-11
-7.07563e-09
6.15205e-11
-7.13412e-09
5.8493e-11
-7.18952e-09
5.5397e-11
-7.24175e-09
5.22336e-11
-7.29075e-09
4.90033e-11
-7.33646e-09
4.57057e-11
-7.3788e-09
4.23407e-11
-7.41771e-09
3.89087e-11
-7.45312e-09
3.54106e-11
-7.48497e-09
3.18472e-11
-7.51318e-09
2.82193e-11
-7.53771e-09
2.45277e-11
-7.55849e-09
2.07735e-11
-7.57544e-09
1.69577e-11
-7.58853e-09
1.3082e-11
-7.59767e-09
9.14842e-12
-7.60283e-09
5.15843e-12
-7.60394e-09
1.11346e-12
-7.60096e-09
-2.98476e-12
-7.59382e-09
-7.134e-12
-7.58249e-09
-1.13319e-11
-7.56691e-09
-1.55762e-11
-7.54705e-09
-1.98643e-11
-7.52286e-09
-2.41934e-11
-7.49429e-09
-2.85606e-11
-7.46133e-09
-3.29629e-11
-7.42394e-09
-3.7397e-11
-7.38208e-09
-4.18598e-11
-7.33573e-09
-4.63475e-11
-7.28487e-09
-5.08564e-11
-7.22949e-09
-5.53828e-11
-7.16957e-09
-5.99229e-11
-7.10509e-09
-6.44729e-11
-7.03606e-09
-6.90287e-11
-6.96248e-09
-7.35858e-11
-6.88433e-09
-7.81398e-11
-6.80165e-09
-8.26863e-11
-6.71443e-09
-8.72209e-11
-6.62269e-09
-9.17388e-11
-6.52645e-09
-9.62352e-11
-6.42575e-09
-1.00705e-10
-6.3206e-09
-1.05143e-10
-6.21106e-09
-1.09545e-10
-6.09715e-09
-1.13904e-10
-5.97894e-09
-1.18217e-10
-5.85646e-09
-1.22476e-10
-5.72978e-09
-1.26676e-10
-5.59897e-09
-1.30811e-10
-5.46409e-09
-1.34875e-10
-5.32523e-09
-1.3886e-10
-5.18247e-09
-1.4276e-10
-5.03591e-09
-1.46565e-10
-4.88564e-09
-1.50267e-10
-4.73178e-09
-1.53857e-10
-4.57446e-09
-1.57322e-10
-4.41381e-09
-1.6065e-10
-4.24998e-09
-1.63829e-10
-4.08314e-09
-1.66841e-10
-3.91347e-09
-1.69671e-10
-3.74117e-09
-1.72296e-10
-3.56648e-09
-1.74695e-10
-3.38963e-09
-1.76843e-10
-3.21092e-09
-1.78711e-10
-3.03065e-09
-1.80267e-10
-2.84917e-09
-1.81476e-10
-2.66688e-09
-1.82298e-10
-2.48418e-09
-1.8269e-10
-2.30158e-09
-1.82602e-10
-2.1196e-09
-1.81984e-10
-1.93882e-09
-1.80776e-10
-1.7599e-09
-1.78919e-10
-1.58356e-09
-1.76346e-10
-1.41057e-09
-1.72986e-10
-1.24181e-09
-1.68765e-10
-1.07821e-09
-1.63604e-10
-9.20785e-10
-1.57421e-10
-7.7065e-10
-1.50134e-10
-6.28992e-10
-1.41657e-10
-4.97084e-10
-1.31908e-10
-3.76279e-10
-1.20806e-10
-2.67995e-10
-1.08284e-10
-1.73701e-10
-9.42946e-11
-9.48716e-11
-7.88291e-11
-3.29193e-11
-6.1953e-11
1.0957e-11
-4.38771e-11
3.60527e-11
-2.50964e-11
4.26765e-11
-6.62434e-12
3.31691e-11
9.50692e-12
1.41098e-11
1.90591e-11
1.41097e-11
1.68056e-11
-2.78089e-11
3.32969e-11
-3.26269e-11
3.16985e-11
-8.80306e-12
2.05886e-12
3.09246e-11
-6.09237e-11
7.81985e-11
-1.59263e-10
1.28011e-10
-2.92788e-10
1.7722e-10
-4.60025e-10
2.24051e-10
-6.58759e-10
2.67566e-10
-8.86383e-10
3.07299e-10
-1.14011e-09
3.43062e-10
-1.41713e-09
3.74859e-10
-1.71466e-09
4.02816e-10
-2.0301e-09
4.27121e-10
-2.36098e-09
4.48004e-10
-2.705e-09
4.65737e-10
-3.06007e-09
4.80605e-10
-3.42428e-09
4.92883e-10
-3.79594e-09
5.02838e-10
-4.17351e-09
5.10725e-10
-4.55565e-09
5.16784e-10
-4.94119e-09
5.21243e-10
-5.32908e-09
5.24314e-10
-5.71843e-09
5.2619e-10
-6.10848e-09
5.27035e-10
-6.49855e-09
5.26993e-10
-6.88808e-09
5.26192e-10
-7.2766e-09
5.24749e-10
-7.66369e-09
5.22767e-10
-8.04899e-09
5.20327e-10
-8.43222e-09
5.17495e-10
-8.81311e-09
5.14323e-10
-9.19144e-09
5.10859e-10
-9.56703e-09
5.07142e-10
-9.9397e-09
5.03204e-10
-1.03093e-08
4.99063e-10
-1.06756e-08
4.94734e-10
-1.10387e-08
4.90225e-10
-1.13982e-08
4.85547e-10
-1.17541e-08
4.80707e-10
-1.21063e-08
4.75706e-10
-1.24546e-08
4.70542e-10
-1.2799e-08
4.65212e-10
-1.31392e-08
4.59715e-10
-1.34752e-08
4.54046e-10
-1.38069e-08
4.48204e-10
-1.41341e-08
4.42185e-10
-1.44566e-08
4.35981e-10
-1.47744e-08
4.29588e-10
-1.50872e-08
4.23002e-10
-1.5395e-08
4.16219e-10
-1.56976e-08
4.09233e-10
-1.59948e-08
4.02041e-10
-1.62865e-08
3.94638e-10
-1.65725e-08
3.87018e-10
-1.68527e-08
3.7918e-10
-1.71269e-08
3.71119e-10
-1.73949e-08
3.62832e-10
-1.76565e-08
3.54314e-10
-1.79117e-08
3.45564e-10
-1.81602e-08
3.36577e-10
-1.84018e-08
3.27351e-10
-1.86363e-08
3.17884e-10
-1.88637e-08
3.08172e-10
-1.90836e-08
2.98214e-10
-1.9296e-08
2.88008e-10
-1.95006e-08
2.77554e-10
-1.96972e-08
2.66847e-10
-1.98858e-08
2.55888e-10
-2.0066e-08
2.44677e-10
-2.02376e-08
2.33212e-10
-2.04006e-08
2.21494e-10
-2.05548e-08
2.09522e-10
-2.06998e-08
1.97296e-10
-2.08356e-08
1.84817e-10
-2.0962e-08
1.72088e-10
-2.10788e-08
1.59109e-10
-2.11858e-08
1.45882e-10
-2.12828e-08
1.32409e-10
-2.13696e-08
1.18694e-10
-2.14461e-08
1.04739e-10
-2.15121e-08
9.0549e-11
-2.15675e-08
7.61279e-11
-2.1612e-08
6.14806e-11
-2.16456e-08
4.66122e-11
-2.16679e-08
3.15287e-11
-2.1679e-08
1.62365e-11
-2.16786e-08
7.42504e-13
-2.16667e-08
-1.49464e-11
-2.1643e-08
-3.0822e-11
-2.16074e-08
-4.68755e-11
-2.15599e-08
-6.30978e-11
-2.15003e-08
-7.94795e-11
-2.14285e-08
-9.60104e-11
-2.13444e-08
-1.1268e-10
-2.12479e-08
-1.29475e-10
-2.11389e-08
-1.46385e-10
-2.10173e-08
-1.63396e-10
-2.08832e-08
-1.80496e-10
-2.07364e-08
-1.97672e-10
-2.05768e-08
-2.14908e-10
-2.04046e-08
-2.32192e-10
-2.02195e-08
-2.49507e-10
-2.00217e-08
-2.66838e-10
-1.98111e-08
-2.84169e-10
-1.95878e-08
-3.01484e-10
-1.93517e-08
-3.18766e-10
-1.91029e-08
-3.35998e-10
-1.88415e-08
-3.53161e-10
-1.85675e-08
-3.70239e-10
-1.8281e-08
-3.87211e-10
-1.79821e-08
-4.0406e-10
-1.76709e-08
-4.20765e-10
-1.73475e-08
-4.37308e-10
-1.7012e-08
-4.53666e-10
-1.66647e-08
-4.69819e-10
-1.63056e-08
-4.85744e-10
-1.5935e-08
-5.01417e-10
-1.55531e-08
-5.16813e-10
-1.516e-08
-5.31904e-10
-1.47561e-08
-5.46663e-10
-1.43416e-08
-5.61056e-10
-1.39169e-08
-5.7505e-10
-1.34821e-08
-5.88605e-10
-1.30378e-08
-6.01678e-10
-1.25842e-08
-6.14221e-10
-1.21218e-08
-6.2618e-10
-1.16512e-08
-6.37495e-10
-1.11727e-08
-6.48097e-10
-1.06871e-08
-6.5791e-10
-1.0195e-08
-6.66846e-10
-9.69701e-09
-6.7481e-10
-9.19403e-09
-6.8169e-10
-8.68693e-09
-6.87367e-10
-8.1767e-09
-6.91705e-10
-7.66445e-09
-6.94555e-10
-7.15139e-09
-6.95752e-10
-6.63887e-09
-6.95117e-10
-6.1284e-09
-6.92454e-10
-5.62163e-09
-6.87553e-10
-5.12036e-09
-6.80187e-10
-4.6266e-09
-6.70116e-10
-4.1425e-09
-6.57086e-10
-3.67043e-09
-6.40832e-10
-3.21295e-09
-6.21081e-10
-2.77282e-09
-5.97553e-10
-2.35298e-09
-5.69971e-10
-1.95658e-09
-5.38066e-10
-1.58689e-09
-5.01589e-10
-1.24737e-09
-4.60332e-10
-9.41503e-10
-4.14153e-10
-6.72775e-10
-3.63026e-10
-4.44491e-10
-3.07116e-10
-2.5954e-10
-2.46906e-10
-1.19997e-10
-1.83422e-10
-2.64837e-11
-1.18612e-10
2.28801e-11
-5.59894e-11
3.40788e-11
-1.69236e-12
1.90483e-11
3.40896e-11
3.31579e-11
1.0386e-11
-3.81963e-11
9.04285e-12
-3.12836e-11
-2.32649e-11
2.35041e-11
-9.79341e-11
1.05593e-10
-2.21434e-10
2.01697e-10
-3.9646e-10
3.03036e-10
-6.23128e-10
4.03887e-10
-8.99777e-10
5.007e-10
-1.2236e-09
5.91388e-10
-1.59111e-09
6.74804e-10
-1.99845e-09
7.50401e-10
-2.44162e-09
8.18034e-10
-2.91664e-09
8.77836e-10
-3.41964e-09
9.30116e-10
-3.94693e-09
9.75298e-10
-4.49508e-09
1.01388e-09
-5.06087e-09
1.0464e-09
-5.64141e-09
1.07341e-09
-6.23402e-09
1.09545e-09
-6.83634e-09
1.11304e-09
-7.44625e-09
1.12669e-09
-8.06186e-09
1.13686e-09
-8.68154e-09
1.14399e-09
-9.30383e-09
1.14848e-09
-9.92748e-09
1.15069e-09
-1.05514e-08
1.15092e-09
-1.11747e-08
1.14947e-09
-1.17965e-08
1.14657e-09
-1.24162e-08
1.14244e-09
-1.30331e-08
1.13727e-09
-1.36468e-08
1.13119e-09
-1.42568e-08
1.12433e-09
-1.48627e-08
1.1168e-09
-1.54643e-08
1.10867e-09
-1.60611e-08
1.10003e-09
-1.6653e-08
1.09091e-09
-1.72396e-08
1.08136e-09
-1.78207e-08
1.07139e-09
-1.83962e-08
1.06103e-09
-1.89658e-08
1.0503e-09
-1.95293e-08
1.03919e-09
-2.00865e-08
1.02772e-09
-2.06371e-08
1.01587e-09
-2.11811e-08
1.00365e-09
-2.17181e-08
9.91053e-10
-2.22479e-08
9.78065e-10
-2.27704e-08
9.64682e-10
-2.32854e-08
9.50894e-10
-2.37925e-08
9.36691e-10
-2.42915e-08
9.22064e-10
-2.47823e-08
9.07004e-10
-2.52646e-08
8.91503e-10
-2.57381e-08
8.75553e-10
-2.62026e-08
8.59144e-10
-2.66578e-08
8.42266e-10
-2.71036e-08
8.24912e-10
-2.75395e-08
8.07076e-10
-2.79654e-08
7.88749e-10
-2.83811e-08
7.69925e-10
-2.87861e-08
7.50597e-10
-2.91803e-08
7.30761e-10
-2.95633e-08
7.10409e-10
-2.9935e-08
6.89538e-10
-3.0295e-08
6.68141e-10
-3.0643e-08
6.46214e-10
-3.09787e-08
6.23755e-10
-3.13019e-08
6.00761e-10
-3.16123e-08
5.77229e-10
-3.19096e-08
5.53156e-10
-3.21934e-08
5.28542e-10
-3.24636e-08
5.03385e-10
-3.27198e-08
4.77686e-10
-3.29617e-08
4.51445e-10
-3.31891e-08
4.24664e-10
-3.34016e-08
3.97344e-10
-3.3599e-08
3.69488e-10
-3.3781e-08
3.411e-10
-3.39473e-08
3.12185e-10
-3.40976e-08
2.82749e-10
-3.42317e-08
2.52798e-10
-3.43493e-08
2.22339e-10
-3.44502e-08
1.9138e-10
-3.4534e-08
1.59932e-10
-3.46005e-08
1.28005e-10
-3.46495e-08
9.56113e-11
-3.46807e-08
6.27627e-11
-3.4694e-08
2.94734e-11
-3.4689e-08
-4.24164e-12
-3.46656e-08
-3.83665e-11
-3.46235e-08
-7.28838e-11
-3.45626e-08
-1.07775e-10
-3.44827e-08
-1.43019e-10
-3.43836e-08
-1.78597e-10
-3.42651e-08
-2.14485e-10
-3.41271e-08
-2.50661e-10
-3.39695e-08
-2.87099e-10
-3.37921e-08
-3.23774e-10
-3.35948e-08
-3.60658e-10
-3.33776e-08
-3.97723e-10
-3.31403e-08
-4.34941e-10
-3.2883e-08
-4.72282e-10
-3.26054e-08
-5.09713e-10
-3.23077e-08
-5.47204e-10
-3.19899e-08
-5.8472e-10
-3.16518e-08
-6.22227e-10
-3.12936e-08
-6.5969e-10
-3.09153e-08
-6.97073e-10
-3.05169e-08
-7.34339e-10
-3.00986e-08
-7.7145e-10
-2.96605e-08
-8.08367e-10
-2.92027e-08
-8.4505e-10
-2.87253e-08
-8.81459e-10
-2.82285e-08
-9.1755e-10
-2.77125e-08
-9.53281e-10
-2.71776e-08
-9.88607e-10
-2.66239e-08
-1.02348e-09
-2.60518e-08
-1.05785e-09
-2.54615e-08
-1.09167e-09
-2.48535e-08
-1.12489e-09
-2.42279e-08
-1.15743e-09
-2.35854e-08
-1.18924e-09
-2.29262e-08
-1.22025e-09
-2.22508e-08
-1.25039e-09
-2.15599e-08
-1.27955e-09
-2.08539e-08
-1.30767e-09
-2.01335e-08
-1.33462e-09
-1.93994e-08
-1.36028e-09
-1.86524e-08
-1.38454e-09
-1.78932e-08
-1.40723e-09
-1.7123e-08
-1.42818e-09
-1.63426e-08
-1.44722e-09
-1.55533e-08
-1.46413e-09
-1.47563e-08
-1.47867e-09
-1.3953e-08
-1.49059e-09
-1.31452e-08
-1.49958e-09
-1.23344e-08
-1.50534e-09
-1.15226e-08
-1.50751e-09
-1.0712e-08
-1.5057e-09
-9.90497e-09
-1.49952e-09
-9.10403e-09
-1.4885e-09
-8.31204e-09
-1.47218e-09
-7.5321e-09
-1.45005e-09
-6.76759e-09
-1.4216e-09
-6.02214e-09
-1.38628e-09
-5.29967e-09
-1.34355e-09
-4.60438e-09
-1.29284e-09
-3.94071e-09
-1.23364e-09
-3.31335e-09
-1.16543e-09
-2.72716e-09
-1.08778e-09
-2.18712e-09
-1.00037e-09
-1.69822e-09
-9.03055e-10
-1.26529e-09
-7.95964e-10
-8.92743e-10
-6.7966e-10
-5.84266e-10
-5.55384e-10
-3.42248e-10
-4.25441e-10
-1.67041e-10
-2.9382e-10
-5.58829e-11
-1.67148e-10
-1.55162e-12
-5.6024e-11
9.51589e-12
2.30217e-11
4.26736e-11
-1.30092e-12
-3.68947e-11
-3.09307e-11
-1.65447e-12
-1.05764e-10
9.8338e-11
-2.36522e-10
2.3635e-10
-4.29406e-10
3.94581e-10
-6.87121e-10
5.60751e-10
-1.00974e-09
7.26501e-10
-1.39539e-09
8.86355e-10
-1.84088e-09
1.03688e-09
-2.34212e-09
1.17605e-09
-2.89452e-09
1.3028e-09
-3.49325e-09
1.41676e-09
-4.13341e-09
1.51799e-09
-4.8102e-09
1.6069e-09
-5.51898e-09
1.68409e-09
-6.2554e-09
1.75029e-09
-7.01534e-09
1.80635e-09
-7.79505e-09
1.85312e-09
-8.59108e-09
1.89148e-09
-9.40032e-09
1.92229e-09
-1.022e-08
1.94635e-09
-1.10476e-08
1.96444e-09
-1.18809e-08
1.97729e-09
-1.27179e-08
1.98556e-09
-1.35571e-08
1.98984e-09
-1.43969e-08
1.99069e-09
-1.52359e-08
1.98856e-09
-1.60733e-08
1.98388e-09
-1.69078e-08
1.977e-09
-1.77388e-08
1.96825e-09
-1.85655e-08
1.95788e-09
-1.93873e-08
1.94611e-09
-2.02036e-08
1.93312e-09
-2.1014e-08
1.91905e-09
-2.1818e-08
1.90403e-09
-2.26152e-08
1.88814e-09
-2.34053e-08
1.87146e-09
-2.4188e-08
1.85404e-09
-2.49628e-08
1.8359e-09
-2.57296e-08
1.81709e-09
-2.6488e-08
1.79761e-09
-2.72378e-08
1.77747e-09
-2.79786e-08
1.75667e-09
-2.87101e-08
1.73521e-09
-2.94322e-08
1.71307e-09
-3.01443e-08
1.69026e-09
-3.08464e-08
1.66675e-09
-3.15381e-08
1.64254e-09
-3.2219e-08
1.6176e-09
-3.28888e-08
1.59193e-09
-3.35473e-08
1.56552e-09
-3.41942e-08
1.53833e-09
-3.4829e-08
1.51037e-09
-3.54515e-08
1.48162e-09
-3.60613e-08
1.45207e-09
-3.66581e-08
1.42169e-09
-3.72415e-08
1.39049e-09
-3.78112e-08
1.35845e-09
-3.83668e-08
1.32555e-09
-3.8908e-08
1.29179e-09
-3.94344e-08
1.25716e-09
-3.99456e-08
1.22165e-09
-4.04414e-08
1.18526e-09
-4.09212e-08
1.14796e-09
-4.13847e-08
1.10977e-09
-4.18317e-08
1.07067e-09
-4.22615e-08
1.03065e-09
-4.2674e-08
9.89722e-10
-4.30688e-08
9.47874e-10
-4.34453e-08
9.05106e-10
-4.38033e-08
8.61416e-10
-4.41425e-08
8.16806e-10
-4.44623e-08
7.71278e-10
-4.47625e-08
7.24835e-10
-4.50426e-08
6.7748e-10
-4.53023e-08
6.29219e-10
-4.55413e-08
5.80059e-10
-4.57591e-08
5.30009e-10
-4.59554e-08
4.79078e-10
-4.61299e-08
4.27279e-10
-4.62822e-08
3.74624e-10
-4.6412e-08
3.21129e-10
-4.65188e-08
2.66811e-10
-4.66025e-08
2.11686e-10
-4.66627e-08
1.55777e-10
-4.6699e-08
9.91053e-11
-4.67112e-08
4.16948e-11
-4.66991e-08
-1.64286e-11
-4.66622e-08
-7.5237e-11
-4.66004e-08
-1.34701e-10
-4.65134e-08
-1.94788e-10
-4.64009e-08
-2.55464e-10
-4.62628e-08
-3.16693e-10
-4.60989e-08
-3.78437e-10
-4.59089e-08
-4.40656e-10
-4.56927e-08
-5.03308e-10
-4.54501e-08
-5.66349e-10
-4.5181e-08
-6.29733e-10
-4.48853e-08
-6.93411e-10
-4.45629e-08
-7.57335e-10
-4.42138e-08
-8.21452e-10
-4.38378e-08
-8.85711e-10
-4.34349e-08
-9.50055e-10
-4.30052e-08
-1.01443e-09
-4.25487e-08
-1.07877e-09
-4.20653e-08
-1.14303e-09
-4.15553e-08
-1.20713e-09
-4.10186e-08
-1.27102e-09
-4.04554e-08
-1.33463e-09
-3.98659e-08
-1.3979e-09
-3.92502e-08
-1.46075e-09
-3.86085e-08
-1.52312e-09
-3.79411e-08
-1.58494e-09
-3.72483e-08
-1.64612e-09
-3.65303e-08
-1.7066e-09
-3.57875e-08
-1.7663e-09
-3.50202e-08
-1.82512e-09
-3.42289e-08
-1.88298e-09
-3.3414e-08
-1.93978e-09
-3.2576e-08
-1.99542e-09
-3.17155e-08
-2.04979e-09
-3.0833e-08
-2.10277e-09
-2.99291e-08
-2.15422e-09
-2.90047e-08
-2.204e-09
-2.80604e-08
-2.25194e-09
-2.70972e-08
-2.29787e-09
-2.61159e-08
-2.34157e-09
-2.51176e-08
-2.38281e-09
-2.41035e-08
-2.42135e-09
-2.30748e-08
-2.45689e-09
-2.20329e-08
-2.4891e-09
-2.09794e-08
-2.51763e-09
-1.9916e-08
-2.54206e-09
-1.88446e-08
-2.56197e-09
-1.77674e-08
-2.57684e-09
-1.66865e-08
-2.58615e-09
-1.56048e-08
-2.58929e-09
-1.45248e-08
-2.58562e-09
-1.34499e-08
-2.57446e-09
-1.23834e-08
-2.55505e-09
-1.13289e-08
-2.52662e-09
-1.02906e-08
-2.48834e-09
-9.27288e-09
-2.43935e-09
-8.28039e-09
-2.37878e-09
-7.3182e-09
-2.30574e-09
-6.39167e-09
-2.21938e-09
-5.50644e-09
-2.11887e-09
-4.6684e-09
-2.00347e-09
-3.8836e-09
-1.87258e-09
-3.15817e-09
-1.7258e-09
-2.49813e-09
-1.56309e-09
-1.90925e-09
-1.38485e-09
-1.39667e-09
-1.19224e-09
-9.64585e-10
-9.87471e-10
-6.15646e-10
-7.74381e-10
-3.50278e-10
-5.59189e-10
-1.65768e-10
-3.51658e-10
-5.52312e-11
-1.66561e-10
-6.45813e-12
-2.57519e-11
3.62152e-11
-1.53143e-11
-2.15805e-11
-7.8625e-11
6.16563e-11
-2.02793e-10
2.22505e-10
-3.96301e-10
4.29859e-10
-6.64164e-10
6.62443e-10
-1.00838e-09
9.04969e-10
-1.42857e-09
1.14669e-09
-1.9225e-09
1.38029e-09
-2.48658e-09
1.60096e-09
-3.11628e-09
1.80574e-09
-3.80645e-09
1.99298e-09
-4.55164e-09
2.16195e-09
-5.34628e-09
2.31263e-09
-6.18484e-09
2.44546e-09
-7.06198e-09
2.56122e-09
-7.97258e-09
2.66089e-09
-8.91183e-09
2.7456e-09
-9.87528e-09
2.81657e-09
-1.08588e-08
2.87502e-09
-1.18587e-08
2.92218e-09
-1.28716e-08
2.95923e-09
-1.38944e-08
2.98728e-09
-1.49245e-08
3.0074e-09
-1.59595e-08
3.02055e-09
-1.69973e-08
3.02763e-09
-1.80361e-08
3.02943e-09
-1.90742e-08
3.02665e-09
-2.01102e-08
3.01992e-09
-2.1143e-08
3.00979e-09
-2.21715e-08
2.99672e-09
-2.31947e-08
2.98112e-09
-2.42119e-08
2.9633e-09
-2.52223e-08
2.94356e-09
-2.62254e-08
2.92211e-09
-2.72205e-08
2.89915e-09
-2.82072e-08
2.8748e-09
-2.91849e-08
2.8492e-09
-3.01533e-08
2.82241e-09
-3.11119e-08
2.79451e-09
-3.20603e-08
2.76553e-09
-3.29982e-08
2.73551e-09
-3.39252e-08
2.70445e-09
-3.48409e-08
2.67236e-09
-3.57449e-08
2.63924e-09
-3.66369e-08
2.60508e-09
-3.75166e-08
2.56988e-09
-3.83834e-08
2.53361e-09
-3.92371e-08
2.49625e-09
-4.00773e-08
2.45779e-09
-4.09036e-08
2.41821e-09
-4.17156e-08
2.37749e-09
-4.25129e-08
2.33561e-09
-4.3295e-08
2.29254e-09
-4.40617e-08
2.24828e-09
-4.48124e-08
2.20279e-09
-4.55468e-08
2.15607e-09
-4.62644e-08
2.1081e-09
-4.69648e-08
2.05885e-09
-4.76476e-08
2.00832e-09
-4.83123e-08
1.95649e-09
-4.89584e-08
1.90335e-09
-4.95857e-08
1.84888e-09
-5.01935e-08
1.79308e-09
-5.07815e-08
1.73593e-09
-5.13491e-08
1.67743e-09
-5.1896e-08
1.61757e-09
-5.24217e-08
1.55634e-09
-5.29257e-08
1.49374e-09
-5.34076e-08
1.42976e-09
-5.38669e-08
1.36441e-09
-5.43032e-08
1.29768e-09
-5.4716e-08
1.22958e-09
-5.51048e-08
1.1601e-09
-5.54692e-08
1.08926e-09
-5.58088e-08
1.01706e-09
-5.61231e-08
9.43505e-10
-5.64116e-08
8.68616e-10
-5.6674e-08
7.92402e-10
-5.69098e-08
7.14878e-10
-5.71186e-08
6.36064e-10
-5.73e-08
5.5598e-10
-5.74535e-08
4.7465e-10
-5.75788e-08
3.92097e-10
-5.76754e-08
3.08352e-10
-5.77431e-08
2.23445e-10
-5.77814e-08
1.3741e-10
-5.779e-08
5.02842e-11
-5.77685e-08
-3.78939e-11
-5.77167e-08
-1.27082e-10
-5.76341e-08
-2.17233e-10
-5.75206e-08
-3.08301e-10
-5.73759e-08
-4.00233e-10
-5.71996e-08
-4.92976e-10
-5.69915e-08
-5.86471e-10
-5.67515e-08
-6.80658e-10
-5.64794e-08
-7.75474e-10
-5.61749e-08
-8.70853e-10
-5.58379e-08
-9.66726e-10
-5.54683e-08
-1.06302e-09
-5.50659e-08
-1.15966e-09
-5.46308e-08
-1.25658e-09
-5.41629e-08
-1.35368e-09
-5.3662e-08
-1.45089e-09
-5.31283e-08
-1.54812e-09
-5.25618e-08
-1.64529e-09
-5.19625e-08
-1.7423e-09
-5.13306e-08
-1.83907e-09
-5.06661e-08
-1.9355e-09
-4.99693e-08
-2.03148e-09
-4.92402e-08
-2.12693e-09
-4.84793e-08
-2.22174e-09
-4.76866e-08
-2.3158e-09
-4.68625e-08
-2.409e-09
-4.60074e-08
-2.50124e-09
-4.51216e-08
-2.5924e-09
-4.42056e-08
-2.68235e-09
-4.32597e-08
-2.77096e-09
-4.22846e-08
-2.8581e-09
-4.12807e-08
-2.94363e-09
-4.02488e-08
-3.02738e-09
-3.91894e-08
-3.10919e-09
-3.81033e-08
-3.18888e-09
-3.69912e-08
-3.26623e-09
-3.58542e-08
-3.34103e-09
-3.46931e-08
-3.41303e-09
-3.3509e-08
-3.48195e-09
-3.23031e-08
-3.54747e-09
-3.10767e-08
-3.60926e-09
-2.98311e-08
-3.66691e-09
-2.8568e-08
-3.72e-09
-2.72891e-08
-3.76803e-09
-2.59963e-08
-3.81046e-09
-2.46916e-08
-3.84668e-09
-2.33776e-08
-3.87603e-09
-2.20566e-08
-3.89777e-09
-2.07317e-08
-3.9111e-09
-1.94059e-08
-3.91512e-09
-1.80826e-08
-3.90889e-09
-1.67657e-08
-3.89139e-09
-1.54592e-08
-3.86154e-09
-1.41676e-08
-3.81818e-09
-1.28958e-08
-3.76012e-09
-1.16491e-08
-3.68613e-09
-1.04329e-08
-3.59496e-09
-9.25326e-09
-3.48536e-09
-8.11649e-09
-3.35615e-09
-7.02915e-09
-3.2062e-09
-5.99807e-09
-3.03455e-09
-5.03018e-09
-2.84046e-09
-4.13247e-09
-2.62352e-09
-3.31172e-09
-2.38384e-09
-2.57436e-09
-2.12221e-09
-1.9261e-09
-1.8405e-09
-1.37159e-09
-1.54198e-09
-9.13901e-10
-1.23207e-09
-5.53985e-10
-9.19106e-10
-2.89992e-10
-6.15652e-10
-1.16629e-10
-3.39924e-10
-2.45913e-11
-1.17791e-10
1.16234e-11
-2.99557e-11
8.37544e-12
-1.29235e-10
1.60935e-10
-3.05879e-10
3.99149e-10
-5.65433e-10
6.89413e-10
-9.11007e-10
1.00802e-09
-1.34339e-09
1.33735e-09
-1.86137e-09
1.66467e-09
-2.46214e-09
1.98106e-09
-3.14163e-09
2.28045e-09
-3.89485e-09
2.55896e-09
-4.71621e-09
2.81433e-09
-5.59976e-09
3.0455e-09
-6.53939e-09
3.25227e-09
-7.52905e-09
3.43512e-09
-8.56279e-09
3.59496e-09
-9.63494e-09
3.73304e-09
-1.07401e-08
3.85078e-09
-1.18733e-08
3.94976e-09
-1.30299e-08
4.03157e-09
-1.42055e-08
4.09784e-09
-1.53964e-08
4.15014e-09
-1.65991e-08
4.18997e-09
-1.78105e-08
4.21875e-09
-1.90277e-08
4.23779e-09
-2.02484e-08
4.24831e-09
-2.14703e-08
4.25138e-09
-2.26917e-08
4.24799e-09
-2.39107e-08
4.23899e-09
-2.51261e-08
4.22514e-09
-2.63364e-08
4.20707e-09
-2.75407e-08
4.18535e-09
-2.87378e-08
4.16045e-09
-2.9927e-08
4.13276e-09
-3.11075e-08
4.10259e-09
-3.22785e-08
4.07021e-09
-3.34396e-08
4.03583e-09
-3.459e-08
3.9996e-09
-3.57292e-08
3.96166e-09
-3.68568e-08
3.9221e-09
-3.79723e-08
3.88098e-09
-3.90751e-08
3.83834e-09
-4.01649e-08
3.79422e-09
-4.12411e-08
3.74862e-09
-4.23034e-08
3.70155e-09
-4.33513e-08
3.653e-09
-4.43844e-08
3.60296e-09
-4.54022e-08
3.55141e-09
-4.64043e-08
3.49832e-09
-4.73902e-08
3.44368e-09
-4.83594e-08
3.38746e-09
-4.93116e-08
3.32964e-09
-5.02462e-08
3.27019e-09
-5.11627e-08
3.20908e-09
-5.20607e-08
3.14629e-09
-5.29397e-08
3.0818e-09
-5.37992e-08
3.01558e-09
-5.46387e-08
2.94762e-09
-5.54578e-08
2.87788e-09
-5.62558e-08
2.80636e-09
-5.70324e-08
2.73303e-09
-5.77869e-08
2.65788e-09
-5.85189e-08
2.58089e-09
-5.92279e-08
2.50205e-09
-5.99133e-08
2.42134e-09
-6.05746e-08
2.33875e-09
-6.12113e-08
2.25428e-09
-6.18229e-08
2.16792e-09
-6.24088e-08
2.07967e-09
-6.29686e-08
1.98951e-09
-6.35016e-08
1.89745e-09
-6.40074e-08
1.80349e-09
-6.44855e-08
1.70764e-09
-6.49353e-08
1.6099e-09
-6.53563e-08
1.51027e-09
-6.5748e-08
1.40878e-09
-6.61099e-08
1.30543e-09
-6.64416e-08
1.20024e-09
-6.67424e-08
1.09323e-09
-6.70119e-08
9.8442e-10
-6.72497e-08
8.73842e-10
-6.74552e-08
7.61523e-10
-6.76281e-08
6.47497e-10
-6.77678e-08
5.31799e-10
-6.78739e-08
4.1447e-10
-6.7946e-08
2.95553e-10
-6.79837e-08
1.75096e-10
-6.79866e-08
5.31513e-11
-6.79542e-08
-7.0227e-11
-6.78863e-08
-1.94979e-10
-6.77825e-08
-3.21041e-10
-6.76425e-08
-4.48346e-10
-6.74659e-08
-5.76822e-10
-6.72525e-08
-7.06394e-10
-6.7002e-08
-8.36981e-10
-6.67141e-08
-9.685e-10
-6.63887e-08
-1.10086e-09
-6.60256e-08
-1.23398e-09
-6.56246e-08
-1.36775e-09
-6.51855e-08
-1.50208e-09
-6.47083e-08
-1.63686e-09
-6.41929e-08
-1.77199e-09
-6.36392e-08
-1.90735e-09
-6.30473e-08
-2.04284e-09
-6.24171e-08
-2.17833e-09
-6.17487e-08
-2.3137e-09
-6.10422e-08
-2.44883e-09
-6.02976e-08
-2.58359e-09
-5.95153e-08
-2.71785e-09
-5.86953e-08
-2.85147e-09
-5.78379e-08
-2.98432e-09
-5.69434e-08
-3.11625e-09
-5.60121e-08
-3.24712e-09
-5.50443e-08
-3.37678e-09
-5.40405e-08
-3.50506e-09
-5.30011e-08
-3.63182e-09
-5.19265e-08
-3.75686e-09
-5.08175e-08
-3.88003e-09
-4.96745e-08
-4.00112e-09
-4.84981e-08
-4.11993e-09
-4.72893e-08
-4.23625e-09
-4.60486e-08
-4.34983e-09
-4.47771e-08
-4.46041e-09
-4.34756e-08
-4.56772e-09
-4.21452e-08
-4.67143e-09
-4.07871e-08
-4.7712e-09
-3.94024e-08
-4.86664e-09
-3.79925e-08
-4.95731e-09
-3.65591e-08
-5.04273e-09
-3.51036e-08
-5.12234e-09
-3.36281e-08
-5.19556e-09
-3.21344e-08
-5.26169e-09
-3.06249e-08
-5.31998e-09
-2.9102e-08
-5.3696e-09
-2.75684e-08
-5.40963e-09
-2.60271e-08
-5.43904e-09
-2.44815e-08
-5.45673e-09
-2.29351e-08
-5.46151e-09
-2.13919e-08
-5.45206e-09
-1.98563e-08
-5.42701e-09
-1.83329e-08
-5.38489e-09
-1.6827e-08
-5.32415e-09
-1.53439e-08
-5.24319e-09
-1.38896e-08
-5.14039e-09
-1.24705e-08
-5.01409e-09
-1.10932e-08
-4.86267e-09
-9.76474e-09
-4.6846e-09
-8.49246e-09
-4.47848e-09
-7.2839e-09
-4.24312e-09
-6.14668e-09
-3.97768e-09
-5.08842e-09
-3.68178e-09
-4.11651e-09
-3.35574e-09
-3.23792e-09
-3.0008e-09
-2.45889e-09
-2.61953e-09
-1.7846e-09
-2.21628e-09
-1.21878e-09
-1.79788e-09
-7.63337e-10
-1.37455e-09
-4.17897e-10
-9.61091e-10
-1.79565e-10
-5.78256e-10
-4.28327e-11
-2.54524e-10
-3.121e-11
-4.42879e-11
5.26632e-11
-1.7972e-10
2.96367e-10
-4.09501e-10
6.2893e-10
-7.35872e-10
1.01578e-09
-1.15962e-09
1.43177e-09
-1.67996e-09
1.85769e-09
-2.29459e-09
2.2793e-09
-2.99989e-09
2.68636e-09
-3.7912e-09
3.07175e-09
-4.66302e-09
3.43079e-09
-5.60933e-09
3.76064e-09
-6.62374e-09
4.0599e-09
-7.69971e-09
4.32825e-09
-8.83074e-09
4.56615e-09
-1.00104e-08
4.77466e-09
-1.12327e-08
4.95526e-09
-1.24916e-08
5.10971e-09
-1.37817e-08
5.2399e-09
-1.5098e-08
5.34786e-09
-1.64358e-08
5.43558e-09
-1.77907e-08
5.50508e-09
-1.9159e-08
5.55824e-09
-2.05371e-08
5.59688e-09
-2.1922e-08
5.62269e-09
-2.33109e-08
5.6372e-09
-2.47013e-08
5.64183e-09
-2.60912e-08
5.63784e-09
-2.74785e-08
5.62634e-09
-2.88617e-08
5.60832e-09
-3.02393e-08
5.58462e-09
-3.16099e-08
5.55599e-09
-3.29725e-08
5.52302e-09
-3.4326e-08
5.48625e-09
-3.56695e-08
5.4461e-09
-3.70022e-08
5.40293e-09
-3.83234e-08
5.35701e-09
-3.96324e-08
5.30857e-09
-4.09285e-08
5.25778e-09
-4.22112e-08
5.20477e-09
-4.34798e-08
5.14964e-09
-4.47339e-08
5.09244e-09
-4.59729e-08
5.03322e-09
-4.71963e-08
4.97201e-09
-4.84036e-08
4.90881e-09
-4.95942e-08
4.84362e-09
-5.07677e-08
4.77642e-09
-5.19235e-08
4.7072e-09
-5.30611e-08
4.63594e-09
-5.418e-08
4.5626e-09
-5.52797e-08
4.48716e-09
-5.63596e-08
4.40959e-09
-5.74193e-08
4.32986e-09
-5.84582e-08
4.24793e-09
-5.94757e-08
4.16379e-09
-6.04713e-08
4.07739e-09
-6.14444e-08
3.98871e-09
-6.23945e-08
3.89773e-09
-6.3321e-08
3.80442e-09
-6.42234e-08
3.70875e-09
-6.51011e-08
3.61071e-09
-6.59535e-08
3.51027e-09
-6.678e-08
3.40742e-09
-6.75801e-08
3.30213e-09
-6.83532e-08
3.1944e-09
-6.90986e-08
3.08421e-09
-6.98159e-08
2.97155e-09
-7.05044e-08
2.85641e-09
-7.11635e-08
2.7388e-09
-7.17927e-08
2.6187e-09
-7.23914e-08
2.49612e-09
-7.29589e-08
2.37105e-09
-7.34948e-08
2.24352e-09
-7.39984e-08
2.11352e-09
-7.44692e-08
1.98106e-09
-7.49066e-08
1.84617e-09
-7.531e-08
1.70887e-09
-7.5679e-08
1.56917e-09
-7.60128e-08
1.4271e-09
-7.63111e-08
1.28271e-09
-7.65733e-08
1.13601e-09
-7.67988e-08
9.87053e-10
-7.69872e-08
8.35882e-10
-7.7138e-08
6.82547e-10
-7.72506e-08
5.27099e-10
-7.73246e-08
3.69598e-10
-7.73596e-08
2.10108e-10
-7.73552e-08
4.86951e-11
-7.73108e-08
-1.14566e-10
-7.72262e-08
-2.79596e-10
-7.7101e-08
-4.46312e-10
-7.69347e-08
-6.14625e-10
-7.67271e-08
-7.84439e-10
-7.64778e-08
-9.55656e-10
-7.61866e-08
-1.12817e-09
-7.58532e-08
-1.30187e-09
-7.54775e-08
-1.47665e-09
-7.50591e-08
-1.65237e-09
-7.45979e-08
-1.82892e-09
-7.40938e-08
-2.00617e-09
-7.35467e-08
-2.18398e-09
-7.29565e-08
-2.3622e-09
-7.23231e-08
-2.5407e-09
-7.16466e-08
-2.71932e-09
-7.09271e-08
-2.89791e-09
-7.01644e-08
-3.07631e-09
-6.93589e-08
-3.25436e-09
-6.85106e-08
-3.43189e-09
-6.76197e-08
-3.60873e-09
-6.66865e-08
-3.7847e-09
-6.57112e-08
-3.95962e-09
-6.46941e-08
-4.1333e-09
-6.36357e-08
-4.30555e-09
-6.25363e-08
-4.47618e-09
-6.13964e-08
-4.64497e-09
-6.02165e-08
-4.81171e-09
-5.89972e-08
-4.97617e-09
-5.77391e-08
-5.13812e-09
-5.64429e-08
-5.2973e-09
-5.51094e-08
-5.45345e-09
-5.37394e-08
-5.60627e-09
-5.23338e-08
-5.75545e-09
-5.08935e-08
-5.90064e-09
-4.94198e-08
-6.04148e-09
-4.79137e-08
-6.17753e-09
-4.63765e-08
-6.30835e-09
-4.48098e-08
-6.4334e-09
-4.32149e-08
-6.55213e-09
-4.15938e-08
-6.66389e-09
-3.99482e-08
-6.76796e-09
-3.82802e-08
-6.86354e-09
-3.65921e-08
-6.94975e-09
-3.48865e-08
-7.0256e-09
-3.31661e-08
-7.09e-09
-3.1434e-08
-7.14174e-09
-2.96935e-08
-7.1795e-09
-2.79484e-08
-7.20186e-09
-2.62027e-08
-7.20725e-09
-2.44607e-08
-7.19401e-09
-2.27274e-08
-7.16035e-09
-2.10079e-08
-7.10441e-09
-1.93078e-08
-7.0242e-09
-1.76333e-08
-6.91772e-09
-1.59907e-08
-6.7829e-09
-1.43871e-08
-6.61769e-09
-1.28297e-08
-6.42009e-09
-1.13261e-08
-6.18822e-09
-9.88421e-09
-5.92039e-09
-8.51211e-09
-5.61523e-09
-7.21799e-09
-5.2718e-09
-6.00998e-09
-4.88979e-09
-4.896e-09
-4.46972e-09
-3.88352e-09
-4.01329e-09
-2.97933e-09
-3.52372e-09
-2.1893e-09
-3.00632e-09
-1.51804e-09
-2.46913e-09
-9.68749e-10
-1.92385e-09
-5.42951e-10
-1.38689e-09
-2.40565e-10
-8.80642e-10
-6.01777e-11
-4.34913e-10
-9.13884e-11
-5.78739e-11
1.10537e-10
-2.28377e-10
4.6687e-10
-5.10237e-10
9.1079e-10
-9.02342e-10
1.40789e-09
-1.40298e-09
1.93241e-09
-2.00955e-09
2.46426e-09
-2.71845e-09
2.98819e-09
-3.5251e-09
3.493e-09
-4.4241e-09
3.97076e-09
-5.40943e-09
4.41611e-09
-6.47455e-09
4.82576e-09
-7.61268e-09
5.19802e-09
-8.81689e-09
5.53245e-09
-1.00803e-08
5.82955e-09
-1.13961e-08
6.0905e-09
-1.27579e-08
6.31702e-09
-1.41594e-08
6.51118e-09
-1.55947e-08
6.67526e-09
-1.70585e-08
6.81165e-09
-1.85457e-08
6.92279e-09
-2.00517e-08
7.0111e-09
-2.15724e-08
7.0789e-09
-2.31039e-08
7.1284e-09
-2.46429e-08
7.16168e-09
-2.61864e-08
7.18064e-09
-2.77316e-08
7.18703e-09
-2.92761e-08
7.18241e-09
-3.0818e-08
7.16818e-09
-3.23552e-08
7.14556e-09
-3.38862e-08
7.11563e-09
-3.54095e-08
7.0793e-09
-3.69239e-08
7.03735e-09
-3.84281e-08
6.99045e-09
-3.99211e-08
6.93915e-09
-4.14021e-08
6.88388e-09
-4.28701e-08
6.82503e-09
-4.43244e-08
6.76287e-09
-4.57642e-08
6.69763e-09
-4.71889e-08
6.6295e-09
-4.85979e-08
6.55858e-09
-4.99904e-08
6.48498e-09
-5.1366e-08
6.40875e-09
-5.27239e-08
6.32994e-09
-5.40636e-08
6.24855e-09
-5.53846e-08
6.1646e-09
-5.66862e-08
6.07806e-09
-5.7968e-08
5.98893e-09