/*--------------------------------*- C++ -*----------------------------------*\
  =========                 |
  \\      /  F ield         | OpenFOAM: The Open Source CFD Toolbox
   \\    /   O peration     | Website:  https://openfoam.org
    \\  /    A nd           | Version:  7
     \\/     M anipulation  |
\*---------------------------------------------------------------------------*/
FoamFile
{
    version     2.0;
    format      ascii;
    class       surfaceScalarField;
    location    "0.4";
    object      phi;
}
// * * * * * * * * * * * * * * * * * * * * * * * * * * * * * * * * * * * * * //

dimensions      [0 3 -1 0 0 0 0];

internalField   nonuniform List<scalar> 
3120
(
2.53381e-09
-2.55042e-09
4.09629e-09
-1.56246e-09
2.25335e-09
1.84295e-09
-3.55386e-09
5.8072e-09
-1.31362e-08
9.58226e-09
-2.59848e-08
1.28486e-08
-4.14603e-08
1.54755e-08
-5.88861e-08
1.74258e-08
-7.75945e-08
1.87084e-08
-9.69488e-08
1.93543e-08
-1.16355e-07
1.94058e-08
-1.35266e-07
1.89113e-08
-1.53188e-07
1.79219e-08
-1.69678e-07
1.64905e-08
-1.84348e-07
1.46702e-08
-1.96863e-07
1.25148e-08
-2.06942e-07
1.00786e-08
-2.14358e-07
7.41661e-09
-2.18943e-07
4.58508e-09
-2.20585e-07
1.64185e-09
-2.19232e-07
-1.35323e-09
-2.14894e-07
-4.33804e-09
-2.07646e-07
-7.24816e-09
-1.97629e-07
-1.0017e-08
-1.85053e-07
-1.25761e-08
-1.70197e-07
-1.4856e-08
-1.5341e-07
-1.67872e-08
-1.35108e-07
-1.83013e-08
-1.15776e-07
-1.93325e-08
-9.59562e-08
-1.98199e-08
-7.6247e-08
-1.97092e-08
-5.72912e-08
-1.89557e-08
-3.97632e-08
-1.75278e-08
-2.43509e-08
-1.54123e-08
-1.17264e-08
-1.26246e-08
-2.49593e-09
-9.23088e-09
2.89704e-09
-5.39326e-09
4.35822e-09
-1.46108e-09
2.56127e-09
1.79743e-09
2.56174e-09
1.6146e-09
-4.16502e-09
-1.17376e-09
1.2259e-09
-1.17176e-08
1.23869e-08
-3.10768e-08
2.51664e-08
-5.90497e-08
3.75553e-08
-9.46929e-08
4.84919e-08
-1.36657e-07
5.74396e-08
-1.83402e-07
6.41713e-08
-2.33329e-07
6.86354e-08
-2.84856e-07
7.08815e-08
-3.36469e-07
7.1019e-08
-3.86751e-07
6.91934e-08
-4.34401e-07
6.55717e-08
-4.78245e-07
6.03342e-08
-5.17244e-07
5.36695e-08
-5.50501e-07
4.5772e-08
-5.77263e-07
3.6841e-08
-5.96927e-07
2.70804e-08
-6.09042e-07
1.66999e-08
-6.13315e-07
5.91521e-09
-6.09618e-07
-5.05086e-09
-5.97988e-07
-1.5968e-08
-5.78638e-07
-2.65985e-08
-5.51957e-07
-3.66982e-08
-5.18514e-07
-4.60184e-08
-4.79062e-07
-5.43086e-08
-4.34529e-07
-6.13204e-08
-3.86017e-07
-6.68128e-08
-3.34792e-07
-7.05583e-08
-2.82261e-07
-7.23508e-08
-2.29955e-07
-7.2015e-08
-1.79493e-07
-6.9418e-08
-1.32535e-07
-6.44858e-08
-9.07213e-08
-5.72262e-08
-5.55784e-08
-4.77672e-08
-2.83838e-08
-3.64254e-08
-9.94876e-09
-2.38288e-08
-2.91977e-10
-1.11185e-08
1.85411e-09
-3.49087e-10
4.41628e-09
-1.66868e-09
-2.49634e-09
-1.21191e-08
1.16763e-08
-3.4094e-08
3.43618e-08
-6.84562e-08
5.95286e-08
-1.14792e-07
8.38915e-08
-1.71817e-07
1.05516e-07
-2.37696e-07
1.23319e-07
-3.10293e-07
1.36768e-07
-3.87338e-07
1.45681e-07
-4.66548e-07
1.50091e-07
-5.45702e-07
1.50173e-07
-6.22697e-07
1.46189e-07
-6.95589e-07
1.38463e-07
-7.62609e-07
1.27354e-07
-8.22187e-07
1.13248e-07
-8.72962e-07
9.65472e-08
-9.13792e-07
7.76708e-08
-9.43761e-07
5.70496e-08
-9.62188e-07
3.51275e-08
-9.68636e-07
1.23625e-08
-9.62914e-07
-1.07729e-08
-9.4509e-07
-3.37917e-08
-9.15496e-07
-5.61927e-08
-8.74731e-07
-7.74634e-08
-8.23665e-07
-9.70841e-08
-7.6344e-07
-1.14534e-07
-6.95459e-07
-1.29301e-07
-6.21379e-07
-1.40893e-07
-5.43089e-07
-1.48848e-07
-4.62681e-07
-1.52759e-07
-3.82408e-07
-1.52288e-07
-3.0463e-07
-1.47196e-07
-2.31739e-07
-1.37377e-07
-1.6606e-07
-1.22905e-07
-1.09717e-07
-1.0411e-07
-6.44526e-08
-8.16891e-08
-3.13849e-08
-5.68965e-08
-1.06918e-08
-3.18121e-08
-1.23903e-09
-9.80242e-09
3.17733e-09
-5.56974e-09
3.07343e-09
-2.49813e-08
3.10878e-08
-5.96924e-08
6.90728e-08
-1.09879e-07
1.09715e-07
-1.7465e-07
1.48663e-07
-2.523e-07
1.83166e-07
-3.40555e-07
2.11574e-07
-4.36798e-07
2.33011e-07
-5.3824e-07
2.47122e-07
-6.4205e-07
2.53902e-07
-7.45459e-07
2.53582e-07
-8.45826e-07
2.46556e-07
-9.4069e-07
2.33327e-07
-1.02781e-06
2.14472e-07
-1.10518e-06
1.9062e-07
-1.17107e-06
1.62436e-07
-1.22402e-06
1.30617e-07
-1.26285e-06
9.58839e-08
-1.2867e-06
5.89815e-08
-1.29502e-06
2.06789e-08
-1.28756e-06
-1.82309e-08
-1.26442e-06
-5.69311e-08
-1.22603e-06
-9.45841e-08
-1.17316e-06
-1.30335e-07
-1.10692e-06
-1.63322e-07
-1.02877e-06
-1.92682e-07
-9.40504e-07
-2.17572e-07
-8.44211e-07
-2.37185e-07
-7.42282e-07
-2.50777e-07
-6.37349e-07
-2.57693e-07
-5.32232e-07
-2.57405e-07
-4.29872e-07
-2.49557e-07
-3.33229e-07
-2.3402e-07
-2.45168e-07
-2.10967e-07
-1.68301e-07
-1.80977e-07
-1.04807e-07
-1.45183e-07
-5.62021e-08
-1.055e-07
-2.31023e-08
-6.49117e-08
-4.98674e-09
-2.79184e-08
-1.80961e-09
-9.46993e-09
1.25434e-08
-3.81795e-08
5.97974e-08
-8.60873e-08
1.16981e-07
-1.52407e-07
1.76035e-07
-2.35571e-07
2.31826e-07
-3.33339e-07
2.80934e-07
-4.42973e-07
3.21208e-07
-5.61406e-07
3.51445e-07
-6.85402e-07
3.71118e-07
-8.11683e-07
3.80182e-07
-9.37031e-07
3.7893e-07
-1.05837e-06
3.67899e-07
-1.17284e-06
3.47793e-07
-1.2778e-06
3.19435e-07
-1.37092e-06
2.83735e-07
-1.45015e-06
2.41665e-07
-1.51377e-06
1.94244e-07
-1.56042e-06
1.42534e-07
-1.58908e-06
8.76347e-08
-1.59908e-06
3.06812e-08
-1.59015e-06
-2.71559e-08
-1.56241e-06
-8.46729e-08
-1.51636e-06
-1.40637e-07
-1.4529e-06
-1.93792e-07
-1.37335e-06
-2.42873e-07
-1.27941e-06
-2.86623e-07
-1.17317e-06
-3.23812e-07
-1.05709e-06
-3.53269e-07
-9.33942e-07
-3.73921e-07
-8.06803e-07
-3.84832e-07
-6.78949e-07
-3.85258e-07
-5.53795e-07
-3.7471e-07
-4.34781e-07
-3.53034e-07
-3.25243e-07
-3.20506e-07
-2.28262e-07
-2.77959e-07
-1.46486e-07
-2.26959e-07
-8.19524e-08
-1.70033e-07
-3.59189e-08
-1.10945e-07
-8.75657e-09
-5.50807e-08
-1.05664e-08
-1.31645e-08
2.57079e-08
-5.10348e-08
9.76676e-08
-1.12108e-07
1.78054e-07
-1.94526e-07
2.58453e-07
-2.95913e-07
3.33213e-07
-4.13403e-07
3.98424e-07
-5.43738e-07
4.51543e-07
-6.83394e-07
4.91101e-07
-8.28709e-07
5.16434e-07
-9.76008e-07
5.27481e-07
-1.12169e-06
5.24616e-07
-1.26233e-06
5.08538e-07
-1.39472e-06
4.80177e-07
-1.51591e-06
4.40631e-07
-1.6233e-06
3.91121e-07
-1.71459e-06
3.32958e-07
-1.78787e-06
2.67526e-07
-1.84161e-06
1.96265e-07
-1.87464e-06
1.20672e-07
-1.88625e-06
4.22899e-08
-1.87612e-06
-3.72886e-08
-1.84436e-06
-1.16427e-07
-1.79155e-06
-1.93452e-07
-1.71868e-06
-2.66661e-07
-1.62722e-06
-3.34339e-07
-1.51905e-06
-3.94786e-07
-1.39652e-06
-4.46341e-07
-1.26236e-06
-4.87429e-07
-1.11968e-06
-5.16605e-07
-9.71896e-07
-5.32616e-07
-8.22682e-07
-5.34472e-07
-6.75866e-07
-5.21526e-07
-5.35325e-07
-4.93575e-07
-4.04852e-07
-4.50978e-07
-2.88016e-07
-3.94796e-07
-1.88002e-07
-3.26973e-07
-1.07473e-07
-2.50563e-07
-4.84586e-08
-1.69959e-07
-1.23376e-08
-9.12014e-08
-2.29041e-08
-1.66133e-08
4.23213e-08
-6.33208e-08
1.44375e-07
-1.37292e-07
2.52025e-07
-2.35583e-07
3.56743e-07
-3.54949e-07
4.52579e-07
-4.91827e-07
5.35302e-07
-6.42383e-07
6.021e-07
-8.02609e-07
6.51326e-07
-9.68421e-07
6.82246e-07
-1.13576e-06
6.94822e-07
-1.30069e-06
6.89548e-07
-1.45947e-06
6.67315e-07
-1.6086e-06
6.29309e-07
-1.7449e-06
5.76931e-07
-1.86552e-06
5.11744e-07
-1.96799e-06
4.35428e-07
-2.05023e-06
3.4976e-07
-2.11056e-06
2.56592e-07
-2.14773e-06
1.57848e-07
-2.16095e-06
5.55117e-08
-2.14987e-06
-4.83688e-08
-2.11461e-06
-1.51692e-07
-2.05575e-06
-2.52306e-07
-1.97439e-06
-3.48027e-07
-1.87207e-06
-4.36655e-07
-1.75085e-06
-5.16005e-07
-1.61324e-06
-5.83949e-07
-1.46221e-06
-6.38463e-07
-1.30112e-06
-6.77691e-07
-1.13371e-06
-7.00025e-07
-9.64001e-07
-7.04186e-07
-7.96196e-07
-6.8933e-07
-6.34604e-07
-6.55167e-07
-4.83491e-07
-6.02091e-07
-3.46953e-07
-5.31334e-07
-2.2878e-07
-4.45147e-07
-1.3234e-07
-3.47003e-07
-6.05091e-08
-2.41789e-07
-1.5691e-08
-1.36019e-07
-3.85951e-08
-1.98452e-08
6.21665e-08
-7.50415e-08
1.99571e-07
-1.61575e-07
3.38558e-07
-2.75449e-07
4.70617e-07
-4.12529e-07
5.8966e-07
-5.68508e-07
6.91281e-07
-7.38936e-07
7.72528e-07
-9.19288e-07
8.31678e-07
-1.10504e-06
8.68e-07
-1.29177e-06
8.81548e-07
-1.47521e-06
8.72984e-07
-1.65133e-06
8.43436e-07
-1.8164e-06
7.94379e-07
-1.96702e-06
7.27553e-07
-2.10016e-06
6.44889e-07
-2.2132e-06
5.48466e-07
-2.30392e-06
4.40478e-07
-2.37054e-06
3.23214e-07
-2.41174e-06
1.99046e-07
-2.42665e-06
7.04253e-08
-2.4149e-06
-6.01256e-08
-2.37657e-06
-1.90014e-07
-2.31229e-06
-3.16588e-07
-2.22317e-06
-4.37151e-07
-2.11084e-06
-5.48989e-07
-1.97744e-06
-6.49399e-07
-1.82564e-06
-7.35747e-07
-1.65858e-06
-8.05522e-07
-1.47986e-06
-8.56414e-07
-1.29348e-06
-8.86409e-07
-1.10377e-06
-8.9389e-07
-9.15342e-07
-8.77763e-07
-7.3292e-07
-8.37589e-07
-5.61278e-07
-7.73732e-07
-4.05088e-07
-6.87524e-07
-2.68802e-07
-5.81432e-07
-1.56555e-07
-4.59251e-07
-7.21047e-08
-3.2624e-07
-1.88535e-08
-1.8927e-07
-5.74485e-08
-2.29126e-08
8.50791e-08
-8.63024e-08
2.62961e-07
-1.8509e-07
4.37346e-07
-3.14275e-07
5.99802e-07
-4.6883e-07
7.44214e-07
-6.43679e-07
8.6613e-07
-8.33722e-07
9.62572e-07
-1.03389e-06
1.03185e-06
-1.23921e-06
1.07332e-06
-1.44487e-06
1.08721e-06
-1.6463e-06
1.07441e-06
-1.8392e-06
1.03634e-06
-2.01964e-06
9.74816e-07
-2.18403e-06
8.91943e-07
-2.3292e-06
7.90055e-07
-2.45239e-06
6.71655e-07
-2.55129e-06
5.39377e-07
-2.62403e-06
3.95963e-07
-2.66924e-06
2.4425e-07
-2.68598e-06
8.7168e-08
-2.67384e-06
-7.22691e-08
-2.63289e-06
-2.30964e-07
-2.56373e-06
-3.85748e-07
-2.46749e-06
-5.33393e-07
-2.34583e-06
-6.70643e-07
-2.20098e-06
-7.94254e-07
-2.03568e-06
-9.01046e-07
-1.85322e-06
-9.87979e-07
-1.65739e-06
-1.05224e-06
-1.45245e-06
-1.09135e-06
-1.24304e-06
-1.1033e-06
-1.03413e-06
-1.08667e-06
-8.30915e-07
-1.0408e-06
-6.38708e-07
-9.6594e-07
-4.62801e-07
-8.6343e-07
-3.08364e-07
-7.35869e-07
-1.80342e-07
-5.87273e-07
-8.33939e-08
-4.23189e-07
-2.18893e-08
-2.50775e-07
-7.93377e-08
-2.58713e-08
1.1095e-07
-9.72447e-08
3.34334e-07
-2.08059e-07
5.4816e-07
-3.52347e-07
7.4409e-07
-5.24194e-07
9.16062e-07
-7.1774e-07
1.05968e-06
-9.27212e-07
1.17204e-06
-1.14697e-06
1.25161e-06
-1.37158e-06
1.29792e-06
-1.59583e-06
1.31147e-06
-1.81487e-06
1.29344e-06
-2.02414e-06
1.24561e-06
-2.2195e-06
1.17018e-06
-2.39724e-06
1.06968e-06
-2.55405e-06
9.46865e-07
-2.68709e-06
8.04693e-07
-2.79396e-06
6.46252e-07
-2.87275e-06
4.74752e-07
-2.92201e-06
2.93505e-07
-2.94076e-06
1.05923e-07
-2.92855e-06
-8.44832e-08
-2.88541e-06
-2.74107e-07
-2.8119e-06
-4.59251e-07
-2.70915e-06
-6.36148e-07
-2.57881e-06
-8.00981e-07
-2.42313e-06
-9.49934e-07
-2.24493e-06
-1.07925e-06
-2.04759e-06
-1.18532e-06
-1.83507e-06
-1.26476e-06
-1.61185e-06
-1.31458e-06
-1.38287e-06
-1.33228e-06
-1.1535e-06
-1.31604e-06
-9.2941e-07
-1.26489e-06
-7.16476e-07
-1.17887e-06
-5.20666e-07
-1.05924e-06
-3.47917e-07
-9.08618e-07
-2.04026e-07
-7.31163e-07
-9.45705e-08
-5.32644e-07
-2.48695e-08
-3.20476e-07
-1.04207e-07
-2.87734e-08
1.39724e-07
-1.08015e-07
4.13576e-07
-2.30726e-07
6.70871e-07
-3.89998e-07
9.03362e-07
-5.79028e-07
1.10509e-06
-7.91159e-07
1.27181e-06
-1.01992e-06
1.40081e-06
-1.25909e-06
1.49078e-06
-1.50275e-06
1.54158e-06
-1.74532e-06
1.55403e-06
-1.98161e-06
1.52973e-06
-2.20686e-06
1.47087e-06
-2.41677e-06
1.38009e-06
-2.60748e-06
1.26038e-06
-2.7756e-06
1.11499e-06
-2.91822e-06
9.47317e-07
-3.03291e-06
7.60939e-07
-3.11769e-06
5.59535e-07
-3.17108e-06
3.46893e-07
-3.19207e-06
1.26907e-07
-3.18013e-06
-9.64214e-08
-3.13526e-06
-3.18978e-07
-3.05797e-06
-5.36541e-07
-2.94932e-06
-7.44793e-07
-2.81095e-06
-9.39349e-07
-2.64509e-06
-1.1158e-06
-2.45457e-06
-1.26977e-06
-2.24286e-06
-1.39703e-06
-2.01403e-06
-1.49359e-06
-1.77277e-06
-1.55584e-06
-1.52433e-06
-1.58072e-06
-1.27444e-06
-1.56592e-06
-1.02929e-06
-1.51004e-06
-7.95366e-07
-1.4128e-06
-5.79343e-07
-1.27526e-06
-3.8798e-07
-1.09998e-06
-2.27971e-07
-8.91173e-07
-1.05841e-07
-6.54774e-07
-2.78635e-08
-3.98453e-07
-1.32071e-07
-3.1665e-08
1.71389e-07
-1.18752e-07
5.00663e-07
-2.53336e-07
8.05455e-07
-4.27565e-07
1.07759e-06
-6.33743e-07
1.31127e-06
-8.64396e-07
1.50246e-06
-1.11234e-06
1.64875e-06
-1.37076e-06
1.74919e-06
-1.63323e-06
1.80405e-06
-1.89379e-06
1.8146e-06
-2.14697e-06
1.78292e-06
-2.3878e-06
1.7117e-06
-2.61182e-06
1.60411e-06
-2.81509e-06
1.46365e-06
-2.99416e-06
1.29405e-06
-3.14608e-06
1.09924e-06
-3.2684e-06
8.83257e-07
-3.35912e-06
6.50258e-07
-3.41673e-06
4.04503e-07
-3.44018e-06
1.50355e-07
-3.42889e-06
-1.07704e-07
-3.3828e-06
-3.65068e-07
-3.30235e-06
-6.16999e-07
-3.1885e-06
-8.58637e-07
-3.04283e-06
-1.08502e-06
-2.86751e-06
-1.29112e-06
-2.66535e-06
-1.47193e-06
-2.43984e-06
-1.62254e-06
-2.19514e-06
-1.73828e-06
-1.93613e-06
-1.81485e-06
-1.66833e-06
-1.84853e-06
-1.39787e-06
-1.83639e-06
-1.13144e-06
-1.77647e-06
-8.76169e-07
-1.66807e-06
-6.39511e-07
-1.51192e-06
-4.29087e-07
-1.31041e-06
-2.52545e-07
-1.06771e-06
-1.17407e-07
-7.89911e-07
-3.09365e-08
-4.84924e-07
-1.63007e-07
-3.45865e-08
2.05975e-07
-1.29581e-07
5.95657e-07
-2.76112e-07
9.51985e-07
-4.65365e-07
1.26684e-06
-6.88723e-07
1.53463e-06
-9.37873e-07
1.75161e-06
-1.2049e-06
1.91578e-06
-1.48236e-06
2.02665e-06
-1.76334e-06
2.08503e-06
-2.04152e-06
2.09277e-06
-2.31112e-06
2.05252e-06
-2.56701e-06
1.96758e-06
-2.8046e-06
1.84171e-06
-3.0199e-06
1.67895e-06
-3.20945e-06
1.4836e-06
-3.37029e-06
1.26009e-06
-3.49999e-06
1.01295e-06
-3.59655e-06
7.46817e-07
-3.65844e-06
4.66398e-07
-3.68459e-06
1.76508e-07
-3.67438e-06
-1.17918e-07
-3.62764e-06
-4.11805e-07
-3.54472e-06
-6.99921e-07
-3.42648e-06
-9.76873e-07
-3.27438e-06
-1.23712e-06
-3.09047e-06
-1.47503e-06
-2.87749e-06
-1.68491e-06
-2.63891e-06
-1.86112e-06
-2.37894e-06
-1.99824e-06
-2.10259e-06
-2.0912e-06
-1.81562e-06
-2.1355e-06
-1.52457e-06
-2.12744e-06
-1.23664e-06
-2.0644e-06
-9.59636e-07
-1.94507e-06
-7.01823e-07
-1.76973e-06
-4.71757e-07
-1.54047e-06
-2.78107e-07
-1.26136e-06
-1.29464e-07
-9.38554e-07
-3.4149e-08
-5.80239e-07
-1.97156e-07
-3.75732e-08
2.43549e-07
-1.40615e-07
6.98699e-07
-2.99258e-07
1.11063e-06
-5.03683e-07
1.47127e-06
-7.44308e-07
1.77525e-06
-1.01194e-06
2.01925e-06
-1.29792e-06
2.20175e-06
-1.59415e-06
2.32289e-06
-1.89325e-06
2.38413e-06
-2.18849e-06
2.38801e-06
-2.47389e-06
2.33792e-06
-2.74413e-06
2.23782e-06
-2.99457e-06
2.09215e-06
-3.22119e-06
1.90558e-06
-3.42058e-06
1.68298e-06
-3.58981e-06
1.42933e-06
-3.7265e-06
1.14964e-06
-3.8287e-06
8.49013e-07
-3.89489e-06
5.32584e-07
-3.92397e-06
2.05587e-07
-3.91526e-06
-1.26626e-07
-3.86852e-06
-4.58547e-07
-3.78395e-06
-7.84483e-07
-3.66229e-06
-1.09854e-06
-3.5048e-06
-1.39461e-06
-3.31339e-06
-1.66644e-06
-3.09066e-06
-1.90763e-06
-2.83998e-06
-2.1118e-06
-2.56556e-06
-2.27267e-06
-2.27247e-06
-2.38429e-06
-1.96671e-06
-2.44126e-06
-1.65516e-06
-2.43899e-06
-1.34557e-06
-2.37399e-06
-1.04644e-06
-2.24421e-06
-7.66886e-07
-2.04929e-06
-5.16478e-07
-1.79088e-06
-3.04994e-07
-1.47285e-06
-1.42194e-07
-1.10135e-06
-3.75573e-08
-6.84875e-07
-2.34714e-07
-4.06569e-08
2.84205e-07
-1.51957e-07
8.09999e-07
-3.22962e-07
1.28163e-06
-5.42775e-07
1.69108e-06
-8.0079e-07
2.03327e-06
-1.0869e-06
2.30535e-06
-1.39162e-06
2.50648e-06
-1.70625e-06
2.63752e-06
-2.02288e-06
2.70076e-06
-2.33445e-06
2.69959e-06
-2.63476e-06
2.63822e-06
-2.91839e-06
2.52145e-06
-3.18068e-06
2.35444e-06
-3.41766e-06
2.14256e-06
-3.62598e-06
1.89131e-06
-3.80286e-06
1.6062e-06
-3.94597e-06
1.29276e-06
-4.05346e-06
9.56501e-07
-4.12385e-06
6.02972e-07
-4.15604e-06
2.37777e-07
-4.1493e-06
-1.33366e-07
-4.10328e-06
-5.04569e-07
-4.01804e-06
-8.69725e-07
-3.8941e-06
-1.22248e-06
-3.73253e-06
-1.55619e-06
-3.53499e-06
-1.86398e-06
-3.30388e-06
-2.13874e-06
-3.0424e-06
-2.37328e-06
-2.75465e-06
-2.56041e-06
-2.44574e-06
-2.6932e-06
-2.1218e-06
-2.7652e-06
-1.79006e-06
-2.77073e-06
-1.45876e-06
-2.70528e-06
-1.13715e-06
-2.56582e-06
-8.35244e-07
-2.35119e-06
-5.63703e-07
-2.06242e-06
-3.33527e-07
-1.70302e-06
-1.5577e-07
-1.27911e-06
-4.12149e-08
-7.9943e-07
-2.75928e-07
-4.38683e-08
3.28074e-07
-1.63706e-07
9.29836e-07
-3.47401e-07
1.46533e-06
-5.82878e-07
1.92656e-06
-8.58425e-07
2.30882e-06
-1.16294e-06
2.60987e-06
-1.48612e-06
2.82965e-06
-1.81858e-06
2.96998e-06
-2.15193e-06
3.03411e-06
-2.47881e-06
3.02647e-06
-2.79283e-06
2.95224e-06
-3.08853e-06
2.81715e-06
-3.36132e-06
2.62722e-06
-3.60733e-06
2.38857e-06
-3.82338e-06
2.10736e-06
-4.00684e-06
1.78966e-06
-4.15556e-06
1.44148e-06
-4.2678e-06
1.06874e-06
-4.34217e-06
6.77339e-07
-4.37758e-06
2.73193e-07
-4.37327e-06
-1.37675e-07
-4.32877e-06
-5.49066e-07
-4.24397e-06
-9.5453e-07
-4.11915e-06
-1.3473e-06
-3.95508e-06
-1.72025e-06
-3.75314e-06
-2.06591e-06
-3.51542e-06
-2.37647e-06
-3.24484e-06
-2.64386e-06
-2.94532e-06
-2.85993e-06
-2.62188e-06
-3.01665e-06
-2.28074e-06
-3.10634e-06
-1.92938e-06
-3.12209e-06
-1.57655e-06
-3.05811e-06
-1.23222e-06
-2.91016e-06
-9.07369e-07
-2.67604e-06
-6.13849e-07
-2.35594e-06
-3.64009e-07
-1.95286e-06
-1.70361e-07
-1.47276e-06
-4.5174e-08
-9.24617e-07
-3.21102e-07
-4.7239e-08
3.75313e-07
-1.75964e-07
1.05856e-06
-3.72752e-07
1.66212e-06
-6.2422e-07
2.17803e-06
-9.17439e-07
2.60203e-06
-1.24023e-06
2.93266e-06
-1.5814e-06
3.17083e-06
-1.9309e-06
3.31947e-06
-2.27986e-06
3.38308e-06
-2.62065e-06
3.36725e-06
-2.94676e-06
3.27836e-06
-3.25279e-06
3.12318e-06
-3.53426e-06
2.90869e-06
-3.78754e-06
2.64185e-06
-4.00968e-06
2.32949e-06
-4.1983e-06
1.97828e-06
-4.35148e-06
1.59466e-06
-4.46767e-06
1.18493e-06
-4.54561e-06
7.55278e-07
-4.58427e-06
3.11854e-07
-4.58285e-06
-1.39099e-07
-4.54076e-06
-5.91158e-07
-4.45768e-06
-1.03761e-06
-4.33361e-06
-1.47136e-06
-4.16899e-06
-1.88488e-06
-3.96479e-06
-2.27011e-06
-3.72268e-06
-2.61857e-06
-3.44523e-06
-2.92131e-06
-3.13602e-06
-3.16915e-06
-2.79986e-06
-3.3528e-06
-2.44295e-06
-3.46325e-06
-2.07295e-06
-3.49209e-06
-1.69906e-06
-3.432e-06
-1.33196e-06
-3.27727e-06
-9.83659e-07
-3.02433e-06
-6.67295e-07
-2.67231e-06
-3.96729e-07
-2.22343e-06
-1.86133e-07
-1.68336e-06
-4.94872e-08
-1.06126e-06
-3.7059e-07
-5.08048e-08
4.26118e-07
-1.88845e-07
1.1966e-06
-3.9921e-07
1.87248e-06
-6.67042e-07
2.44586e-06
-9.78048e-07
2.91304e-06
-1.31887e-06
3.27348e-06
-1.67738e-06
3.52933e-06
-2.04281e-06
3.6849e-06
-2.40586e-06
3.74613e-06
-2.75868e-06
3.72007e-06
-3.09475e-06
3.61443e-06
-3.4088e-06
3.43723e-06
-3.6966e-06
3.19649e-06
-3.95484e-06
2.90009e-06
-4.18092e-06
2.55557e-06
-4.37282e-06
2.17017e-06
-4.52893e-06
1.75077e-06
-4.64796e-06
1.30397e-06
-4.72884e-06
8.36153e-07
-4.77062e-06
3.53637e-07
-4.77249e-06
-1.37224e-07
-4.73376e-06
-6.29892e-07
-4.65387e-06
-1.1175e-06
-4.53249e-06
-1.59274e-06
-4.36963e-06
-2.04773e-06
-4.16579e-06
-2.47396e-06
-3.9221e-06
-2.86225e-06
-3.64061e-06
-3.20281e-06
-3.32442e-06
-3.48533e-06
-2.978e-06
-3.69922e-06
-2.60736e-06
-3.83389e-06
-2.22023e-06
-3.87922e-06
-1.82616e-06
-3.82607e-06
-1.43653e-06
-3.6669e-06
-1.06443e-06
-3.39643e-06
-7.24392e-07
-3.01234e-06
-4.31975e-07
-2.51585e-06
-2.03255e-07
-1.91208e-06
-5.42101e-08
-1.21031e-06
-4.248e-07
-5.46092e-08
4.80727e-07
-2.02484e-07
1.34448e-06
-4.27004e-07
2.097e-06
-7.11617e-07
2.73047e-06
-1.04048e-06
3.24191e-06
-1.39894e-06
3.63194e-06
-1.77382e-06
3.90422e-06
-2.15368e-06
4.06476e-06
-2.5288e-06
4.12126e-06
-2.8912e-06
4.08247e-06
-3.23446e-06
3.95769e-06
-3.55355e-06
3.75632e-06
-3.84466e-06
3.4876e-06
-4.10491e-06
3.16033e-06
-4.33218e-06
2.78285e-06
-4.52493e-06
2.36292e-06
-4.68197e-06
1.90781e-06
-4.80234e-06
1.42434e-06
-4.88523e-06
9.19039e-07
-4.92983e-06
3.98241e-07
-4.93535e-06
-1.31701e-07
-4.90098e-06
-6.64265e-07
-4.82592e-06
-1.19257e-06
-4.70946e-06
-1.7092e-06
-4.55112e-06
-2.20607e-06
-4.35079e-06
-2.67429e-06
-4.10896e-06
-3.10408e-06
-3.82698e-06
-3.48479e-06
-3.50732e-06
-3.805e-06
-3.15387e-06
-4.05266e-06
-2.77229e-06
-4.21547e-06
-2.37021e-06
-4.28131e-06
-1.9574e-06
-4.23887e-06
-1.54591e-06
-4.07838e-06
-1.14992e-06
-3.79243e-06
-7.85466e-07
-3.37679e-06
-4.70039e-07
-2.83127e-06
-2.2191e-07
-2.16021e-06
-5.94034e-08
-1.37281e-06
-4.84203e-07
-5.87085e-08
5.39435e-07
-2.17057e-07
1.50283e-06
-4.56424e-07
2.33637e-06
-7.58282e-07
3.03233e-06
-1.10501e-06
3.58863e-06
-1.48048e-06
4.0074e-06
-1.87042e-06
4.29417e-06
-2.26269e-06
4.45702e-06
-2.64723e-06
4.5058e-06
-3.01603e-06
4.45127e-06
-3.36291e-06
4.30457e-06
-3.68329e-06
4.0767e-06
-3.97388e-06
3.77819e-06
-4.23243e-06
3.41889e-06
-4.45746e-06
3.00788e-06
-4.648e-06
2.55346e-06
-4.80342e-06
2.06322e-06
-4.92319e-06
1.54412e-06
-5.00682e-06
1.00267e-06
-5.05371e-06
4.45137e-07
-5.06313e-06
-1.22287e-07
-5.03415e-06
-6.93246e-07
-4.96572e-06
-1.261e-06
-4.85672e-06
-1.8182e-06
-4.70609e-06
-2.35669e-06
-4.51304e-06
-2.86734e-06
-4.27724e-06
-3.33987e-06
-3.99917e-06
-3.76287e-06
-3.68044e-06
-4.12374e-06
-3.32416e-06
-4.40894e-06
-2.93536e-06
-4.60426e-06
-2.52137e-06
-4.69531e-06
-2.09202e-06
-4.66822e-06
-1.65989e-06
-4.51051e-06
-1.24026e-06
-4.21206e-06
-8.50826e-07
-3.76623e-06
-5.11229e-07
-3.17087e-06
-2.42299e-07
-2.42914e-06
-6.5137e-08
-1.54997e-06
-5.4934e-07
-6.31782e-08
6.02613e-07
-2.32795e-07
1.67244e-06
-4.87848e-07
2.59142e-06
-8.07468e-07
3.35195e-06
-1.17196e-06
3.95313e-06
-1.56354e-06
4.39898e-06
-1.96675e-06
4.69738e-06
-2.36876e-06
4.85903e-06
-2.75927e-06
4.89631e-06
-3.13042e-06
4.82241e-06
-3.47644e-06
4.6506e-06
-3.79339e-06
4.39365e-06
-4.07872e-06
4.06352e-06
-4.331e-06
3.67117e-06
-4.54954e-06
3.22641e-06
-4.73412e-06
2.73804e-06
-4.88474e-06
2.21385e-06
-5.00146e-06
1.66083e-06
-5.08417e-06
1.08539e-06
-5.13256e-06
4.93521e-07
-5.14596e-06
-1.08882e-07
-5.1234e-06
-7.15811e-07
-5.06355e-06
-1.32085e-06
-4.96485e-06
-1.9169e-06
-4.82562e-06
-2.49593e-06
-4.64423e-06
-3.04872e-06
-4.41942e-06
-3.56468e-06
-4.1506e-06
-4.03169e-06
-3.83825e-06
-4.43608e-06
-3.48445e-06
-4.76275e-06
-3.09331e-06
-4.9954e-06
-2.67153e-06
-5.1171e-06
-2.22876e-06
-5.11099e-06
-1.77798e-06
-4.96129e-06
-1.33549e-06
-4.65455e-06
-9.20773e-07
-4.18095e-06
-5.55889e-07
-3.53575e-06
-2.64659e-07
-2.72037e-06
-7.14951e-08
-1.74314e-06
-6.20835e-07
-6.81217e-08
6.70735e-07
-2.5001e-07
1.85433e-06
-5.2178e-07
2.86319e-06
-8.59743e-07
3.68992e-06
-1.24176e-06
4.33515e-06
-1.64815e-06
4.80536e-06
-2.06222e-06
5.11145e-06
-2.47048e-06
5.26729e-06
-2.86255e-06
5.28838e-06
-3.23091e-06
5.19077e-06
-3.57048e-06
4.99017e-06
-3.87818e-06
4.70135e-06
-4.15248e-06
4.33782e-06
-4.39294e-06
3.91162e-06
-4.59985e-06
3.43333e-06
-4.77391e-06
2.9121e-06
-4.91592e-06
2.35586e-06
-5.02657e-06
1.77148e-06
-5.10628e-06
1.16509e-06
-5.15503e-06
5.42275e-07
-5.17234e-06
-9.15752e-08
-5.15716e-06
-7.30983e-07
-5.10795e-06
-1.37006e-06
-5.02267e-06
-2.00218e-06
-4.89895e-06
-2.61965e-06
-4.73427e-06
-3.2134e-06
-4.52627e-06
-3.77269e-06
-4.27306e-06
-4.2849e-06
-3.97377e-06
-4.73537e-06
-3.62908e-06
-5.10744e-06
-3.24183e-06
-5.38265e-06
-2.81771e-06
-5.54121e-06
-2.36588e-06
-5.56282e-06
-1.8994e-06
-5.42777e-06
-1.43554e-06
-5.11841e-06
-9.95608e-07
-4.62088e-06
-6.04417e-07
-3.92694e-06
-2.89278e-07
-3.03551e-06
-7.85826e-08
-1.95383e-06
-6.99418e-07
-7.36825e-08
7.44418e-07
-2.6913e-07
2.04978e-06
-5.58898e-07
3.15296e-06
-9.1585e-07
4.04687e-06
-1.31494e-06
4.73424e-06
-1.73433e-06
5.22476e-06
-2.15602e-06
5.53314e-06
-2.56598e-06
5.67725e-06
-2.95399e-06
5.67639e-06
-3.31315e-06
5.54993e-06
-3.63937e-06
5.31639e-06
-3.93076e-06
4.99274e-06
-4.18705e-06
4.59411e-06
-4.40907e-06
4.13364e-06
-4.59829e-06
3.62255e-06
-4.75647e-06
3.07028e-06
-4.88533e-06
2.48471e-06
-4.98632e-06
1.87247e-06
-5.06044e-06
1.23921e-06
-5.10809e-06
5.89924e-07
-5.12898e-06
-7.06855e-08
-5.12208e-06
-7.37884e-07
-5.08561e-06
-1.40653e-06
-5.01708e-06
-2.07071e-06
-4.91342e-06
-2.72331e-06
-4.77113e-06
-3.35569e-06
-4.58659e-06
-3.95723e-06
-4.35647e-06
-4.51502e-06
-4.07823e-06
-5.01361e-06
-3.75079e-06
-5.43489e-06
-3.37527e-06
-5.75816e-06
-2.95591e-06
-5.96057e-06
-2.50087e-06
-6.01787e-06
-2.02296e-06
-5.90568e-06
-1.54016e-06
-5.60121e-06
-1.07564e-06
-5.08539e-06
-6.57294e-07
-4.34529e-06
-3.16521e-07
-3.37628e-06
-8.6536e-08
-2.18382e-06
-7.85954e-07
-8.00605e-08
8.24478e-07
-2.90741e-07
2.26046e-06
-6.00112e-07
3.46233e-06
-9.76758e-07
4.42351e-06
-1.39214e-06
5.14962e-06
-1.82199e-06
5.65461e-06
-2.24698e-06
5.95814e-06
-2.65277e-06
6.08304e-06
-3.02959e-06
6.05321e-06
-3.37159e-06
5.89193e-06
-3.67606e-06
5.62086e-06
-3.94266e-06
5.25934e-06
-4.17271e-06
4.82415e-06
-4.36854e-06
4.32947e-06
-4.53301e-06
3.78703e-06
-4.66911e-06
3.20638e-06
-4.77959e-06
2.5952e-06
-4.86676e-06
1.95964e-06
-4.93226e-06
1.30471e-06
-4.97696e-06
6.34626e-07
-5.00084e-06
-4.68012e-08
-5.00294e-06
-7.35791e-07
-4.98129e-06
-1.42818e-06
-4.93298e-06
-2.11901e-06
-4.85425e-06
-2.80205e-06
-4.74058e-06
-3.46936e-06
-4.58703e-06
-4.11078e-06
-4.3886e-06
-4.71344e-06
-4.14081e-06
-5.2614e-06
-3.84042e-06
-5.73527e-06
-3.48637e-06
-6.11221e-06
-3.08083e-06
-6.36611e-06
-2.63034e-06
-6.46836e-06
-2.14692e-06
-6.3891e-06
-1.64889e-06
-6.09924e-06
-1.16121e-06
-5.57307e-06
-7.15121e-07
-4.79138e-06
-3.46866e-07
-3.74453e-06
-9.55375e-08
-2.43515e-06
-8.81491e-07
-8.75373e-08
9.12015e-07
-3.15649e-07
2.48857e-06
-6.46635e-07
3.79331e-06
-1.0437e-06
4.82058e-06
-1.47409e-06
5.58001e-06
-1.91083e-06
6.09135e-06
-2.33337e-06
6.38068e-06
-2.72738e-06
6.47705e-06
-3.08405e-06
6.40987e-06
-3.39909e-06
6.20697e-06
-3.67168e-06
5.89345e-06
-3.90346e-06
5.49113e-06
-4.09767e-06
5.01837e-06
-4.25844e-06
4.49024e-06
-4.39018e-06
3.91878e-06
-4.49724e-06
3.31343e-06
-4.58348e-06
2.68144e-06
-4.65212e-06
2.02828e-06
-4.70553e-06
1.35811e-06
-4.74508e-06
6.74178e-07
-4.77107e-06
-2.0804e-08
-4.78266e-06
-7.24201e-07
-4.7778e-06
-1.43305e-06
-4.75321e-06
-2.1436e-06
-4.70447e-06
-2.85079e-06
-4.62609e-06
-3.54774e-06
-4.51175e-06
-4.22511e-06
-4.35467e-06
-4.87052e-06
-4.14819e-06
-5.46789e-06
-3.8865e-06
-5.99696e-06
-3.56578e-06
-6.43293e-06
-3.18545e-06
-6.74645e-06
-2.74964e-06
-6.90416e-06
-2.2688e-06
-6.86994e-06
-1.76096e-06
-6.60707e-06
-1.25264e-06
-6.0814e-06
-7.78664e-07
-5.26536e-06
-3.80952e-07
-4.14225e-06
-1.05838e-07
-2.71026e-06
-9.8733e-07
-9.65124e-08
1.00853e-06
-3.44963e-07
2.73702e-06
-7.00073e-07
4.14842e-06
-1.11818e-06
5.23869e-06
-1.5615e-06
6.02332e-06
-2.0001e-06
6.52996e-06
-2.41248e-06
6.79305e-06
-2.78489e-06
6.84946e-06
-3.11018e-06
6.73516e-06
-3.38631e-06
6.48311e-06
-3.61497e-06
6.12211e-06
-3.80028e-06
5.67643e-06
-3.94774e-06
5.16583e-06
-4.0635e-06
4.606e-06
-4.15371e-06
4.00899e-06
-4.22412e-06
3.38384e-06
-4.27978e-06
2.73709e-06
-4.32481e-06
2.07331e-06
-4.36231e-06
1.39561e-06
-4.39419e-06
7.06059e-07
-4.42112e-06
6.12569e-09
-4.44244e-06
-7.02886e-07
-4.45608e-06
-1.41941e-06
-4.45853e-06
-2.14114e-06
-4.44485e-06
-2.86448e-06
-4.40863e-06
-3.58395e-06
-4.34226e-06
-4.29149e-06
-4.23711e-06
-4.97566e-06
-4.08415e-06
-5.62085e-06
-3.87467e-06
-6.20643e-06
-3.6015e-06
-6.7061e-06
-3.26049e-06
-7.08747e-06
-2.85239e-06
-7.31226e-06
-2.38498e-06
-7.33735e-06
-1.87511e-06
-7.11694e-06
-1.35024e-06
-6.60627e-06
-8.48914e-07
-5.76668e-06
-4.19657e-07
-4.5715e-06
-1.17793e-07
-3.01212e-06
-1.10512e-06
-1.0756e-07
1.11609e-06
-3.80218e-07
3.00968e-06
-7.62526e-07
4.53073e-06
-1.20201e-06
5.67817e-06
-1.65485e-06
6.47615e-06
-2.08815e-06
6.96326e-06
-2.47999e-06
7.1849e-06
-2.81814e-06
7.18761e-06
-3.09807e-06
7.01509e-06
-3.32091e-06
6.70595e-06
-3.49154e-06
6.29275e-06
-3.61708e-06
5.80197e-06
-3.70567e-06
5.25442e-06
-3.76565e-06
4.66598e-06
-3.80496e-06
4.0483e-06
-3.83078e-06
3.40966e-06
-3.84926e-06
2.75558e-06
-3.86542e-06
2.08948e-06
-3.88302e-06
1.41321e-06
-3.9045e-06
7.27537e-07
-3.93091e-06
3.25346e-08
-3.96184e-06
-6.71955e-07
-3.99534e-06
-1.38591e-06
-4.02781e-06
-2.10867e-06
-4.05393e-06
-2.83835e-06
-4.06665e-06
-3.57124e-06
-4.05715e-06
-4.30099e-06
-4.0151e-06
-5.01771e-06
-3.92903e-06
-5.70692e-06
-3.78707e-06
-6.34839e-06
-3.57814e-06
-6.91503e-06
-3.29365e-06
-7.37196e-06
-2.92977e-06
-7.67614e-06
-2.49022e-06
-7.7769e-06
-1.98923e-06
-7.61793e-06
-1.45418e-06
-7.14132e-06
-9.27143e-07
-6.29372e-06
-4.642e-07
-5.03445e-06
-1.31914e-07
-3.34441e-06
-1.23704e-06
-1.21522e-07
1.23761e-06
-4.23541e-07
3.3117e-06
-8.36691e-07
4.94388e-06
-1.2971e-06
6.13858e-06
-1.75395e-06
6.933e-06
-2.17166e-06
7.38096e-06
-2.529e-06
7.54224e-06
-2.81661e-06
7.47522e-06
-3.03395e-06
7.23243e-06
-3.18639e-06
6.85839e-06
-3.28283e-06
6.38919e-06
-3.33389e-06
5.85303e-06
-3.35059e-06
5.27112e-06
-3.34355e-06
4.65893e-06
-3.32245e-06
4.0272e-06
-3.29577e-06
3.38298e-06
-3.27064e-06
2.73045e-06
-3.25281e-06
2.07164e-06
-3.24659e-06
1.407e-06
-3.25489e-06
7.35828e-07
-3.27911e-06
5.67623e-08
-3.31918e-06
-6.31889e-07
-3.37336e-06
-1.33173e-06
-3.43818e-06
-2.04386e-06
-3.50823e-06
-2.7683e-06
-3.57604e-06
-3.50342e-06
-3.632e-06
-4.24504e-06
-3.66428e-06
-4.98543e-06
-3.65915e-06
-5.71205e-06
-3.6015e-06
-6.40604e-06
-3.47592e-06
-7.0406e-06
-3.26853e-06
-7.57935e-06
-2.96954e-06
-7.97514e-06
-2.57677e-06
-8.16967e-06
-2.09983e-06
-8.09487e-06
-1.56431e-06
-7.67683e-06
-1.01496e-06
-6.84307e-06
-5.16298e-07
-5.53311e-06
-1.48965e-07
-3.71174e-06
-1.386e-06
-1.39658e-07
1.37727e-06
-4.77903e-07
3.64994e-06
-9.25936e-07
5.39192e-06
-1.40521e-06
6.61785e-06
-1.85711e-06
7.3849e-06
-2.24439e-06
7.76825e-06
-2.54841e-06
7.84626e-06
-2.76471e-06
7.69152e-06
-2.89846e-06
7.36618e-06
-2.9606e-06
6.92052e-06
-2.96485e-06
6.39344e-06
-2.92571e-06
5.81389e-06
-2.85721e-06
5.20262e-06
-2.7721e-06
4.57382e-06
-2.68158e-06
3.93669e-06
-2.59517e-06
3.29657e-06
-2.52069e-06
2.65597e-06
-2.46434e-06
2.0153e-06
-2.43082e-06
1.37347e-06
-2.42333e-06
7.28337e-07
-2.44362e-06
7.70572e-08
-2.49196e-06
-5.83557e-07
-2.56697e-06
-1.25672e-06
-2.66553e-06
-1.9453e-06
-2.78248e-06
-2.65135e-06
-2.91041e-06
-3.37549e-06
-3.03933e-06
-4.11612e-06
-3.15647e-06
-4.86829e-06
-3.24625e-06
-5.62227e-06
-3.29054e-06
-6.36176e-06
-3.26948e-06
-7.06166e-06
-3.16316e-06
-7.68567e-06
-2.95441e-06
-8.18389e-06
-2.63298e-06
-8.4911e-06
-2.20105e-06
-8.5268e-06
-1.67961e-06
-8.19827e-06
-1.11429e-06
-7.4084e-06
-5.78386e-07
-6.06901e-06
-1.70111e-07
-4.12002e-06
-1.55611e-06
-1.63909e-07
1.54118e-06
-5.47451e-07
4.03349e-06
-1.03424e-06
5.87871e-06
-1.52707e-06
7.11068e-06
-1.95952e-06
7.81735e-06
-2.29498e-06
8.1037e-06
-2.52045e-06
8.07173e-06
-2.63924e-06
7.81031e-06
-2.66441e-06
7.39136e-06
-2.61381e-06
6.86992e-06
-2.50665e-06
6.28628e-06
-2.36148e-06
5.66873e-06
-2.19509e-06
5.03622e-06
-2.02203e-06