/*--------------------------------*- C++ -*----------------------------------*\
  =========                 |
  \\      /  F ield         | OpenFOAM: The Open Source CFD Toolbox
   \\    /   O peration     | Website:  https://openfoam.org
    \\  /    A nd           | Version:  7
     \\/     M anipulation  |
\*---------------------------------------------------------------------------*/
FoamFile
{
    version     2.0;
    format      ascii;
    class       volVectorField;
    location    "0.4";
    object      U;
}
// * * * * * * * * * * * * * * * * * * * * * * * * * * * * * * * * * * * * * //

dimensions      [0 1 -1 0 0 0 0];

internalField   nonuniform List<vector> 
1600
(
(6.04521e-05 -6.05774e-05 0)
(0.000155852 -5.71712e-05 0)
(0.000156887 -7.0618e-06 0)
(6.63384e-06 5.24219e-05 0)
(-0.000303306 0.000107947 0)
(-0.000756528 0.000154803 0)
(-0.00132857 0.000191627 0)
(-0.00199244 0.000218465 0)
(-0.00272094 0.000235889 0)
(-0.00348776 0.000244648 0)
(-0.00426819 0.000245533 0)
(-0.00503934 0.000239328 0)
(-0.00578036 0.000226795 0)
(-0.00647249 0.000208667 0)
(-0.00709909 0.000185653 0)
(-0.00764567 0.000158446 0)
(-0.00809991 0.000127725 0)
(-0.00845166 9.41723e-05 0)
(-0.00869299 5.8476e-05 0)
(-0.00881828 2.13444e-05 0)
(-0.00882423 -1.64882e-05 0)
(-0.00870998 -5.42549e-05 0)
(-0.00847722 -9.11528e-05 0)
(-0.00813026 -0.000126343 0)
(-0.0076761 -0.000158954 0)
(-0.00712452 -0.000188088 0)
(-0.00648808 -0.000212833 0)
(-0.00578214 -0.000232274 0)
(-0.00502474 -0.000245511 0)
(-0.00423647 -0.000251677 0)
(-0.00344025 -0.000249958 0)
(-0.00266102 -0.000239618 0)
(-0.0019253 -0.00022002 0)
(-0.00126059 -0.000190685 0)
(-0.000694459 -0.00015141 0)
(-0.000253159 -0.000102613 0)
(4.08077e-05 -4.6178e-05 0)
(0.000174317 1.26609e-05 0)
(0.000160336 6.02029e-05 0)
(6.02571e-05 6.00301e-05 0)
(5.86322e-05 -0.000157064 0)
(7.24718e-05 -6.95519e-05 0)
(-0.0001785 0.000182283 0)
(-0.000772754 0.000476903 0)
(-0.0017248 0.000760982 0)
(-0.00300807 0.00100937 0)
(-0.00457402 0.00121076 0)
(-0.00636324 0.00136125 0)
(-0.00831195 0.00146074 0)
(-0.0103559 0.00151114 0)
(-0.0124329 0.00151542 0)
(-0.014484 0.00147713 0)
(-0.0164546 0.00140016 0)
(-0.0182952 0.00128855 0)
(-0.0199615 0.00114644 0)
(-0.0214147 0.000978033 0)
(-0.0226216 0.000787581 0)
(-0.0235553 0.000579421 0)
(-0.0241945 0.000357986 0)
(-0.0245243 0.000127837 0)
(-0.0245362 -0.000106309 0)
(-0.0242284 -0.000339567 0)
(-0.0236059 -0.000566877 0)
(-0.0226806 -0.000783017 0)
(-0.0214717 -0.000982643 0)
(-0.0200056 -0.00116034 0)
(-0.018316 -0.00131069 0)
(-0.0164437 -0.00142841 0)
(-0.014436 -0.00150845 0)
(-0.0123467 -0.00154613 0)
(-0.0102347 -0.00153738 0)
(-0.00816362 -0.00147891 0)
(-0.00619938 -0.00136857 0)
(-0.00440878 -0.00120579 0)
(-0.00285623 -0.000992481 0)
(-0.00159948 -0.000734683 0)
(-0.000682981 -0.000445949 0)
(-0.000126883 -0.000153442 0)
(9.19904e-05 8.8399e-05 0)
(6.17382e-05 0.000160748 0)
(1.14433e-05 -0.000162858 0)
(-0.000171938 0.000178371 0)
(-0.000804055 0.000813856 0)
(-0.00193106 0.00153631 0)
(-0.00355386 0.00223871 0)
(-0.00563651 0.00286158 0)
(-0.00811419 0.00337331 0)
(-0.0109054 0.00375953 0)
(-0.0139206 0.00401606 0)
(-0.0170679 0.00414485 0)
(-0.0202564 0.00415159 0)
(-0.0233993 0.00404428 0)
(-0.0264153 0.00383233 0)
(-0.0292299 0.00352608 0)
(-0.0317763 0.00313643 0)
(-0.0339957 0.00267469 0)
(-0.0358379 0.0021525 0)
(-0.0372617 0.00158182 0)
(-0.0382352 0.000974931 0)
(-0.0387358 0.000344503 0)
(-0.0387508 -0.000296395 0)
(-0.038278 -0.000934264 0)
(-0.037325 -0.0015552 0)
(-0.0359106 -0.00214493 0)
(-0.0340641 -0.00268896 0)
(-0.0318257 -0.00317272 0)
(-0.0292465 -0.0035818 0)
(-0.0263879 -0.00390227 0)
(-0.023321 -0.00412105 0)
(-0.0201256 -0.00422637 0)
(-0.0168894 -0.00420836 0)
(-0.013705 -0.00405975 0)
(-0.0106685 -0.00377685 0)
(-0.00787517 -0.00336092 0)
(-0.0054156 -0.00282042 0)
(-0.00336925 -0.00217469 0)
(-0.00179577 -0.00146035 0)
(-0.000723102 -0.000741188 0)
(-0.000138862 -0.000126446 0)
(1.76697e-05 0.000180083 0)
(-4.54087e-05 -2.20601e-05 0)
(-0.000464387 0.000767973 0)
(-0.00153543 0.00194139 0)
(-0.00324189 0.00322667 0)
(-0.00555467 0.00446817 0)
(-0.0084228 0.00557101 0)
(-0.0117653 0.00648016 0)
(-0.0154822 0.00716751 0)
(-0.0194638 0.00762245 0)
(-0.0235966 0.00784566 0)
(-0.0277677 0.00784526 0)
(-0.0318685 0.0076343 0)
(-0.0357964 0.00722902 0)
(-0.0394571 0.00664783 0)
(-0.0427653 0.0059106 0)
(-0.0456464 0.00503825 0)
(-0.0480361 0.00405253 0)
(-0.0498818 0.00297591 0)
(-0.0511426 0.00183159 0)
(-0.0517899 0.000643473 0)
(-0.0518078 -0.000563762 0)
(-0.0511932 -0.00176469 0)
(-0.0499567 -0.00293321 0)
(-0.0481221 -0.00404262 0)
(-0.0457271 -0.00506592 0)
(-0.0428234 -0.00597611 0)
(-0.0394758 -0.00674667 0)
(-0.0357624 -0.00735216 0)
(-0.0317731 -0.00776896 0)
(-0.0276089 -0.00797619 0)
(-0.0233794 -0.00795683 0)
(-0.0192006 -0.00769909 0)
(-0.0151917 -0.00719825 0)
(-0.0114703 -0.00645909 0)
(-0.00814783 -0.0054995 0)
(-0.00532225 -0.00435598 0)
(-0.00306899 -0.00309205 0)
(-0.00142991 -0.00180993 0)
(-0.000420049 -0.000669581 0)
(-3.66857e-05 5.98184e-05 0)
(-0.000100486 0.000278564 0)
(-0.000761224 0.00172918 0)
(-0.00228992 0.00359205 0)
(-0.00459378 0.00555614 0)
(-0.00760331 0.00742878 0)
(-0.0112465 0.00908483 0)
(-0.0154236 0.0104473 0)
(-0.0200165 0.0114743 0)
(-0.0248976 0.0121477 0)
(-0.0299354 0.0124665 0)
(-0.0349993 0.0124411 0)
(-0.0399627 0.01209 0)
(-0.0447062 0.0114369 0)
(-0.0491194 0.0105097 0)
(-0.0531027 0.00933884 0)
(-0.0565682 0.00795659 0)
(-0.0594407 0.0063969 0)
(-0.0616581 0.00469498 0)
(-0.0631724 0.00288725 0)
(-0.0639501 0.0010113 0)
(-0.0639725 -0.000894096 0)
(-0.0632361 -0.00278904 0)
(-0.0617532 -0.00463262 0)
(-0.059552 -0.00638318 0)
(-0.0566769 -0.00799867 0)
(-0.0531882 -0.00943719 0)
(-0.049162 -0.0106578 0)
(-0.0446896 -0.0116214 0)
(-0.039876 -0.012292 0)
(-0.0348388 -0.0126382 0)
(-0.0297056 -0.0126347 0)
(-0.0246114 -0.0122651 0)
(-0.0196942 -0.0115236 0)
(-0.0150911 -0.0104193 0)
(-0.010932 -0.00898075 0)
(-0.0073337 -0.00726216 0)
(-0.00439024 -0.00535314 0)
(-0.00216374 -0.00339011 0)
(-0.000707261 -0.00157344 0)
(-8.96165e-05 -0.000214693 0)
(-0.000150731 0.000732635 0)
(-0.00104597 0.00306277 0)
(-0.00302984 0.00577313 0)
(-0.00593096 0.00853209 0)
(-0.00963425 0.0111215 0)
(-0.0140419 0.0133931 0)
(-0.0190323 0.0152518 0)
(-0.0244682 0.0166432 0)
(-0.0302043 0.0175432 0)
(-0.0360929 0.0179491 0)
(-0.0419876 0.0178741 0)
(-0.0477472 0.0173426 0)
(-0.0532383 0.0163871 0)
(-0.0583375 0.0150456 0)
(-0.0629335 0.0133605 0)
(-0.066928 0.0113771 0)
(-0.0702367 0.00914311 0)
(-0.0727903 0.00670828 0)
(-0.074535 0.00412411 0)
(-0.0754331 0.00144382 0)
(-0.0754636 -0.00127772 0)
(-0.0746225 -0.0039841 0)
(-0.0729233 -0.00661758 0)
(-0.0703973 -0.00911943 0)
(-0.0670939 -0.0114305 0)
(-0.0630804 -0.013492 0)
(-0.0584413 -0.0152465 0)
(-0.0532785 -0.0166397 0)
(-0.0477091 -0.0176214 0)
(-0.0418645 -0.0181483 0)
(-0.0358871 -0.0181861 0)
(-0.0299281 -0.0177124 0)
(-0.0241426 -0.0167203 0)
(-0.0186855 -0.015223 0)
(-0.0137055 -0.0132587 0)
(-0.0093397 -0.0108983 0)
(-0.0057044 -0.00825438 0)
(-0.00288693 -0.00549161 0)
(-0.000983724 -0.00284054 0)
(-0.0001379 -0.000637784 0)
(-0.000196044 0.00132983 0)
(-0.00131426 0.00475732 0)
(-0.00374137 0.00847698 0)
(-0.00723022 0.0121489 0)
(-0.0116186 0.0155393 0)
(-0.0167796 0.0184837 0)
(-0.0225676 0.0208738 0)
(-0.0288238 0.0226463 0)
(-0.0353853 0.0237725 0)
(-0.0420883 0.0242499 0)
(-0.0487722 0.0240955 0)
(-0.0552824 0.0233405 0)
(-0.0614739 0.0220271 0)
(-0.0672126 0.0202049 0)
(-0.0723776 0.0179293 0)
(-0.0768621 0.0152597 0)
(-0.0805749 0.0122592 0)
(-0.0834406 0.00899333 0)
(-0.0854008 0.00553016 0)
(-0.0864145 0.00194003 0)
(-0.0864584 -0.00170457 0)
(-0.085528 -0.00532915 0)
(-0.0836373 -0.00885751 0)
(-0.0808197 -0.0122122 0)
(-0.0771281 -0.0153154 0)
(-0.0726347 -0.0180896 0)
(-0.0674308 -0.0204595 0)
(-0.0616265 -0.0223535 0)
(-0.0553487 -0.0237061 0)
(-0.0487401 -0.0244603 0)
(-0.0419566 -0.0245713 0)
(-0.0351637 -0.0240098 0)
(-0.0285329 -0.0227664 0)
(-0.0222369 -0.0208567 0)
(-0.0164444 -0.0183272 0)
(-0.0113151 -0.0152628 0)
(-0.00699045 -0.0117948 0)
(-0.00358659 -0.00811025 0)
(-0.00124527 -0.00446157 0)
(-0.00018141 -0.00119975 0)
(-0.000237355 0.00206043 0)
(-0.0015673 0.00679828 0)
(-0.00442342 0.0116902 0)
(-0.00848736 0.016395 0)
(-0.01355 0.0206708 0)
(-0.019454 0.0243436 0)
(-0.026027 0.0272967 0)
(-0.033088 0.0294617 0)
(-0.040455 0.0308086 0)
(-0.0479481 0.0313369 0)
(-0.0553928 0.0310692 0)
(-0.0626227 0.0300453 0)
(-0.0694821 0.0283181 0)
(-0.075828 0.02595 0)
(-0.0815316 0.0230107 0)
(-0.0864793 0.019575 0)
(-0.0905743 0.0157221 0)
(-0.0937365 0.0115347 0)
(-0.0959038 0.00709834 0)
(-0.0970323 0.0025017 0)
(-0.0970968 -0.00216406 0)
(-0.0960916 -0.00680522 0)
(-0.094031 -0.011326 0)
(-0.0909491 -0.0156289 0)
(-0.0869012 -0.0196159 0)
(-0.0819627 -0.0231898 0)
(-0.0762299 -0.0262555 0)
(-0.0698192 -0.0287227 0)
(-0.0628656 -0.0305087 0)
(-0.0555219 -0.0315414 0)
(-0.0479556 -0.0317636 0)
(-0.0403462 -0.0311372 0)
(-0.0328816 -0.0296481 0)
(-0.0257529 -0.0273123 0)
(-0.0191507 -0.0241819 0)
(-0.0132591 -0.0203521 0)
(-0.00824769 -0.0159693 0)
(-0.00426348 -0.0112374 0)
(-0.00149373 -0.00642485 0)
(-0.00022116 -0.00189174 0)
(-0.000275801 0.00291665 0)
(-0.00180843 0.00917228 0)
(-0.00508094 0.0153992 0)
(-0.00970806 0.0212586 0)
(-0.0154349 0.0265057 0)
(-0.0220727 0.0309622 0)
(-0.0294214 0.0345084 0)
(-0.037276 0.0370749 0)
(-0.0454347 0.0386334 0)
(-0.0537012 0.0391886 0)
(-0.0618873 0.0387709 0)
(-0.0698152 0.0374307 0)
(-0.0773197 0.0352332 0)
(-0.0842499 0.0322551 0)
(-0.0904706 0.0285813 0)
(-0.095863 0.0243031 0)
(-0.100326 0.019517 0)
(-0.103775 0.0143233 0)
(-0.106145 0.00882627 0)
(-0.107391 0.00313326 0)
(-0.107484 -0.00264503 0)
(-0.106419 -0.00839492 0)
(-0.104208 -0.0140001 0)
(-0.100886 -0.0193423 0)
(-0.0965091 -0.0243023 0)
(-0.0911542 -0.0287614 0)
(-0.084921 -0.0326037 0)
(-0.0779306 -0.0357186 0)
(-0.0703248 -0.0380043 0)
(-0.062265 -0.0393714 0)
(-0.0539298 -0.0397481 0)
(-0.0455125 -0.0390849 0)
(-0.0372176 -0.0373605 0)
(-0.029256 -0.0345884 0)
(-0.0218414 -0.0308227 0)
(-0.0151851 -0.0261656 0)
(-0.00948638 -0.0207744 0)
(-0.00492501 -0.0148659 0)
(-0.00173337 -0.00872092 0)
(-0.000258443 -0.00270721 0)
(-0.000312437 0.003893 0)
(-0.00204154 0.011869 0)
(-0.0057212 0.0195929 0)
(-0.0109025 0.0267297 0)
(-0.0172858 0.0330353 0)
(-0.0246505 0.0383316 0)
(-0.0327679 0.0425004 0)
(-0.0414081 0.0454755 0)
(-0.0503487 0.0472344 0)
(-0.0593763 0.0477901 0)
(-0.0682892 0.0471837 0)
(-0.0768986 0.0454783 0)
(-0.0850307 0.0427534 0)
(-0.0925278 0.0391016 0)
(-0.0992494 0.0346243 0)
(-0.105072 0.0294304 0)
(-0.109892 0.0236343 0)
(-0.113622 0.0173548 0)
(-0.116195 0.0107148 0)
(-0.117562 0.00384125 0)
(-0.117695 -0.00313543 0)
(-0.116585 -0.0100812 0)
(-0.114244 -0.0168587 0)
(-0.110705 -0.0233282 0)
(-0.106024 -0.0293484 0)
(-0.100278 -0.0347783 0)
(-0.0935694 -0.0394796 0)
(-0.0860219 -0.0433195 0)
(-0.0777828 -0.0461751 0)
(-0.0690208 -0.0479374 0)
(-0.0599254 -0.048517 0)
(-0.0507033 -0.0478503 0)
(-0.0415763 -0.0459053 0)
(-0.0327764 -0.0426891 0)
(-0.0245421 -0.0382546 0)
(-0.0171135 -0.0327071 0)
(-0.0107221 -0.026211 0)
(-0.0055815 -0.018993 0)
(-0.00196925 -0.0113448 0)
(-0.000294523 -0.00364246 0)
(-0.000348165 0.00498617 0)
(-0.0022704 0.0148819 0)
(-0.00635207 0.0242642 0)
(-0.0120824 0.0328016 0)
(-0.0191177 0.0402536 0)
(-0.0272051 0.0464461 0)
(-0.0360864 0.0512664 0)
(-0.045506 0.0546559 0)
(-0.0552202 0.056602 0)
(-0.0649985 0.0571296 0)
(-0.0746254 0.0562937 0)
(-0.0839017 0.0541727 0)
(-0.0926457 0.050863 0)
(-0.100694 0.0464743 0)
(-0.107902 0.0411264 0)
(-0.114144 0.0349464 0)
(-0.119312 0.0280672 0)
(-0.123318 0.0206267 0)
(-0.126094 0.0127668 0)
(-0.127589 0.00463379 0)
(-0.127773 -0.00362206 0)
(-0.126634 -0.0118462 0)
(-0.124183 -0.0198804 0)
(-0.120451 -0.0275627 0)
(-0.115491 -0.0347293 0)
(-0.109381 -0.0412159 0)
(-0.102222 -0.0468602 0)
(-0.0941402 -0.0515058 0)
(-0.0852857 -0.055006 0)
(-0.0758344 -0.0572296 0)
(-0.0659854 -0.0580664 0)
(-0.0559593 -0.0574347 0)
(-0.0459953 -0.0552882 0)
(-0.0363478 -0.0516234 0)
(-0.0272816 -0.0464877 0)
(-0.0190681 -0.0399857 0)
(-0.0119726 -0.0322857 0)
(-0.00624421 -0.0236223 0)
(-0.00220648 -0.0142969 0)
(-0.000330542 -0.00469664 0)
(-0.000383733 0.00619487 0)
(-0.00249845 0.0182083 0)
(-0.00698112 0.0294098 0)
(-0.0132596 0.0394715 0)
(-0.0209458 0.0481578 0)
(-0.029754 0.0553023 0)
(-0.039396 0.0608017 0)
(-0.0495897 0.0646096 0)
(-0.0600693 0.0667273 0)
(-0.0705872 0.0671957 0)
(-0.0809144 0.0660873 0)
(-0.0908417 0.063499 0)
(-0.100181 0.0595463 0)
(-0.108763 0.0543583 0)
(-0.116442 0.0480742 0)
(-0.123088 0.0408406 0)
(-0.128595 0.0328094 0)
(-0.132874 0.0241376 0)
(-0.135853 0.014986 0)
(-0.137482 0.00552009 0)
(-0.137729 -0.00409038 0)
(-0.136579 -0.0136708 0)
(-0.134041 -0.0230418 0)
(-0.130143 -0.0320198 0)
(-0.124934 -0.0404179 0)
(-0.118489 -0.0480474 0)
(-0.110908 -0.0547211 0)
(-0.102316 -0.0602567 0)
(-0.0928672 -0.0644814 0)
(-0.0827414 -0.0672383 0)
(-0.0721469 -0.068393 0)
(-0.0613175 -0.0678412 0)
(-0.0505106 -0.0655176 0)
(-0.0400036 -0.0614037 0)
(-0.0300898 -0.0555367 0)
(-0.0210734 -0.0480164 0)
(-0.013256 -0.0390119 0)
(-0.00692441 -0.0287636 0)
(-0.00244996 -0.0175831 0)
(-0.000367515 -0.00587164 0)
(-0.000419769 0.00751951 0)
(-0.00272872 0.021849 0)
(-0.0076153 0.035031 0)
(-0.0144449 0.0467402 0)
(-0.0227842 0.056748 0)
(-0.0323138 0.0648986 0)
(-0.042714 0.0711024 0)
(-0.0536757 0.0753294 0)
(-0.064911 0.0775999 0)
(-0.0761546 0.077975 0)
(-0.0871646 0.0765485 0)
(-0.097723 0.0734394 0)
(-0.107635 0.0687848 0)
(-0.11673 0.0627356 0)
(-0.124859 0.0554519 0)
(-0.131894 0.0471004 0)
(-0.137727 0.0378528 0)
(-0.142269 0.0278847 0)
(-0.145451 0.0173757 0)
(-0.147221 0.0065098 0)
(-0.147543 -0.00452455 0)
(-0.146403 -0.0155334 0)
(-0.143804 -0.026317 0)
(-0.139769 -0.0366702 0)
(-0.134345 -0.0463828 0)
(-0.127601 -0.0552417 0)
(-0.119632 -0.0630332 0)
(-0.110563 -0.0695469 0)
(-0.100546 -0.0745814 0)
(-0.089766 -0.0779506 0)
(-0.0784382 -0.0794912 0)
(-0.0668092 -0.0790719 0)
(-0.0551544 -0.0766029 0)
(-0.0437753 -0.0720452 0)
(-0.032995 -0.0654207 0)
(-0.0231531 -0.05682 0)
(-0.01459 -0.0464095 0)
(-0.00763292 -0.0344336 0)
(-0.00270427 -0.0212149 0)
(-0.000406356 -0.00717186 0)
(-0.000456804 0.00896203 0)
(-0.00296392 0.0258082 0)
(-0.00826091 0.0411326 0)
(-0.0156484 0.0546121 0)
(-0.0246459 0.0660268 0)
(-0.0348986 0.0752346 0)
(-0.0460545 0.0821641 0)
(-0.0577763 0.0868067 0)
(-0.0697536 0.0892064 0)
(-0.0817039 0.0894496 0)
(-0.0933732 0.087656 0)
(-0.104536 0.08397 0)
(-0.114992 0.078554 0)
(-0.124571 0.0715825 0)
(-0.133122 0.063238 0)
(-0.140521 0.0537084 0)
(-0.146661 0.0431851 0)
(-0.151456 0.0318624 0)
(-0.154837 0.0199377 0)
(-0.156751 0.00761237 0)
(-0.157163 -0.00490748 0)
(-0.156054 -0.0174097 0)
(-0.153423 -0.0296755 0)
(-0.149289 -0.0414787 0)
(-0.14369 -0.0525864 0)
(-0.13669 -0.0627603 0)
(-0.128377 -0.0717592 0)
(-0.118871 -0.0793432 0)
(-0.108323 -0.0852788 0)
(-0.0969177 -0.0893469 0)
(-0.0848765 -0.0913506 0)
(-0.0724573 -0.0911259 0)
(-0.0599534 -0.0885523 0)
(-0.0476906 -0.0835643 0)
(-0.0360236 -0.0761622 0)
(-0.0253296 -0.0664223 0)
(-0.0159913 -0.0545045 0)
(-0.00838004 -0.0406555 0)
(-0.00297374 -0.0252089 0)
(-0.000447898 -0.00860402 0)
(-0.000495314 0.0105257 0)
(-0.0032065 0.0300928 0)
(-0.00892374 0.0477229 0)
(-0.0168792 0.0630945 0)
(-0.0265423 0.0759984 0)
(-0.0375206 0.0863099 0)
(-0.0494281 0.0939806 0)
(-0.0618985 0.0990287 0)
(-0.0745985 0.101528 0)
(-0.0872289 0.101595 0)
(-0.0995246 0.0993803 0)
(-0.111254 0.0950586 0)
(-0.122215 0.0888202 0)
(-0.132237 0.080866 0)
(-0.141173 0.0714025 0)
(-0.148903 0.0606395 0)
(-0.155323 0.048788 0)
(-0.160352 0.0360604 0)
(-0.163922 0.0226707 0)
(-0.165983 0.00883617 0)
(-0.166497 -0.00522109 0)
(-0.165443 -0.0192726 0)
(-0.162815 -0.0330819 0)
(-0.158623 -0.0464033 0)
(-0.1529 -0.058982 0)
(-0.145697 -0.0705545 0)
(-0.137097 -0.0808515 0)
(-0.127209 -0.0896012 0)
(-0.116178 -0.0965355 0)
(-0.104189 -0.101398 0)
(-0.0914655 -0.103952 0)
(-0.0782747 -0.103996 0)
(-0.0649268 -0.101371 0)
(-0.0517722 -0.0959764 0)
(-0.0391984 -0.0877855 0)
(-0.0276233 -0.0768533 0)
(-0.0174756 -0.0633288 0)
(-0.00917551 -0.0474584 0)
(-0.00326245 -0.0295865 0)
(-0.000492935 -0.010177 0)
(-0.000535751 0.012215 0)
(-0.00345882 0.0347127 0)
(-0.00960933 0.0548135 0)
(-0.0181458 0.0721976 0)
(-0.0284837 0.0866685 0)
(-0.0401898 0.0981234 0)
(-0.052842 0.106542 0)
(-0.0660438 0.111977 0)
(-0.0794389 0.114537 0)
(-0.0927124 0.114376 0)
(-0.105589 0.111681 0)
(-0.117834 0.10666 0)
(-0.129246 0.0995371 0)
(-0.139657 0.090541 0)
(-0.148927 0.0799041 0)
(-0.156941 0.0678583 0)
(-0.163604 0.0546344 0)
(-0.168838 0.0404614 0)
(-0.172583 0.0255687 0)
(-0.174787 0.0101875 0)
(-0.175416 -0.00544674 0)
(-0.174442 -0.0210915 0)
(-0.171855 -0.0364948 0)
(-0.167657 -0.0513936 0)
(-0.161869 -0.0655123 0)
(-0.154532 -0.0785631 0)
(-0.145714 -0.0902479 0)
(-0.135514 -0.100262 0)
(-0.124068 -0.108299 0)
(-0.111553 -0.11406 0)
(-0.0981927 -0.117266 0)
(-0.0842618 -0.117666 0)
(-0.0700848 -0.115056 0)
(-0.0560366 -0.109294 0)
(-0.0425388 -0.100315 0)
(-0.0300528 -0.0881463 0)
(-0.0190578 -0.0729194 0)
(-0.0100287 -0.054877 0)
(-0.00357443 -0.0343742 0)
(-0.000542247 -0.011902 0)
(-0.000578585 0.0140356 0)
(-0.00372334 0.0396805 0)
(-0.0103233 0.0624191 0)
(-0.0194569 0.0819333 0)
(-0.0304797 0.0980428 0)
(-0.0429145 0.110672 0)
(-0.0563 0.119835 0)
(-0.0702083 0.125626 0)
(-0.08426 0.128196 0)
(-0.0981256 0.127745 0)
(-0.111523 0.124502 0)
(-0.124215 0.118715 0)
(-0.136005 0.110643 0)
(-0.146733 0.100547 0)
(-0.156268 0.0886863 0)
(-0.164504 0.0753161 0)
(-0.171357 0.0606855 0)
(-0.176758 0.0450394 0)
(-0.180652 0.0286198 0)
(-0.182993 0.0116694 0)
(-0.183745 -0.00556588 0)
(-0.182879 -0.0228325 0)
(-0.180377 -0.0398663 0)
(-0.176232 -0.0563893 0)
(-0.170451 -0.0721072 0)
(-0.163062 -0.0867095 0)
(-0.154115 -0.0998694 0)
(-0.143693 -0.111247 0)
(-0.131918 -0.120497 0)
(-0.118956 -0.127273 0)
(-0.105026 -0.131244 0)
(-0.0904042 -0.132105 0)
(-0.0754273 -0.129597 0)
(-0.0604938 -0.123524 0)
(-0.0460602 -0.113774 0)
(-0.0326345 -0.100336 0)
(-0.0207519 -0.0833171 0)
(-0.0109489 -0.0629513 0)
(-0.00391369 -0.0396027 0)
(-0.000596639 -0.0137919 0)
(-0.000624356 0.0159947 0)
(-0.00400282 0.0450115 0)
(-0.0110721 0.0705573 0)
(-0.0208215 0.0923158 0)
(-0.0325404 0.110127 0)
(-0.045702 0.123947 0)
(-0.0598031 0.133837 0)
(-0.0743823 0.139937 0)
(-0.0890378 0.142454 0)
(-0.103427 0.141639 0)
(-0.117264 0.13777 0)
(-0.130313 0.131142 0)
(-0.142388 0.122055 0)
(-0.153338 0.110803 0)
(-0.163047 0.0976746 0)
(-0.171424 0.0829475 0)
(-0.178398 0.0668887 0)
(-0.183913 0.0497566 0)
(-0.187921 0.0318036 0)
(-0.190383 0.0132801 0)
(-0.191263 -0.0055609 0)
(-0.190532 -0.024459 0)
(-0.188164 -0.0431414 0)
(-0.18414 -0.061319 0)
(-0.178453 -0.0786821 0)
(-0.171111 -0.0948992 0)
(-0.162145 -0.109616 0)
(-0.151616 -0.122458 0)
(-0.139625 -0.133036 0)
(-0.126321 -0.140953 0)
(-0.111912 -0.145819 0)
(-0.0966704 -0.147266 0)
(-0.0809419 -0.144968 0)
(-0.0651456 -0.138663 0)
(-0.0497732 -0.12818 0)
(-0.0353828 -0.113457 0)
(-0.0225712 -0.0945659 0)
(-0.0119454 -0.0717261 0)
(-0.00428446 -0.0453073 0)
(-0.000656983 -0.0158621 0)
(-0.00067373 0.0181008 0)
(-0.00430062 0.0507247 0)
(-0.0118631 0.0792493 0)
(-0.0222505 0.103361 0)
(-0.0346769 0.122924 0)
(-0.0485598 0.137938 0)
(-0.0633496 0.148516 0)
(-0.0785505 0.15486 0)
(-0.0937386 0.157241 0)
(-0.108561 0.155971 0)
(-0.122731 0.151388 0)
(-0.136022 0.143838 0)
(-0.148259 0.133667 0)
(-0.159311 0.121205 0)
(-0.169079 0.106772 0)
(-0.177493 0.0906672 0)
(-0.184499 0.0731739 0)
(-0.190056 0.0545616 0)
(-0.194129 0.0350893 0)
(-0.196686 0.0150116 0)
(-0.197697 -0.00541621 0)
(-0.197128 -0.0259315 0)
(-0.194946 -0.046258 0)
(-0.191122 -0.0660997 0)
(-0.185629 -0.0851358 0)
(-0.178454 -0.103017 0)
(-0.169602 -0.119364 0)
(-0.159107 -0.133767 0)
(-0.147043 -0.145792 0)
(-0.133534 -0.154987 0)
(-0.118768 -0.160896 0)
(-0.103008 -0.163076 0)
(-0.0866014 -0.161123 0)
(-0.0699846 -0.154695 0)
(-0.053684 -0.143543 0)
(-0.0383103 -0.12754 0)
(-0.0245293 -0.106712 0)
(-0.0130282 -0.0812506 0)
(-0.00469138 -0.051528 0)
(-0.000724261 -0.0181301 0)
(-0.00072758 0.0203643 0)
(-0.00462109 0.0568428 0)
(-0.0127059 0.0885202 0)
(-0.0237573 0.115086 0)
(-0.0369025 0.136437 0)
(-0.0514955 0.152624 0)
(-0.0669359 0.163828 0)
(-0.0826914 0.170326 0)
(-0.0983177 0.172464 0)
(-0.113455 0.17063 0)
(-0.127822 0.16523 0)
(-0.141206 0.156669 0)
(-0.153453 0.145342 0)
(-0.164454 0.131622 0)
(-0.174138 0.115856 0)
(-0.182457 0.0983665 0)
(-0.189381 0.0794508 0)
(-0.19489 0.0593859 0)
(-0.198963 0.0384338 0)
(-0.20158 0.0168478 0)
(-0.202714 -0.0051196 0)
(-0.202332 -0.0272092 0)
(-0.200395 -0.049147 0)
(-0.196857 -0.0706359 0)
(-0.191674 -0.0913495 0)
(-0.184806 -0.110925 0)
(-0.176229 -0.128962 0)
(-0.165942 -0.145017 0)
(-0.153983 -0.158609 0)
(-0.140442 -0.169228 0)
(-0.12548 -0.176346 0)
(-0.109339 -0.179433 0)
(-0.0923608 -0.177993 0)
(-0.0749923 -0.171584 0)
(-0.0577928 -0.159861 0)
(-0.041428 -0.142614 0)
(-0.0266398 -0.119802 0)
(-0.0142079 -0.0915785 0)
(-0.00513972 -0.0583098 0)
(-0.000799637 -0.020616 0)
(-0.000787094 0.0227986 0)
(-0.00497003 0.0633942 0)
(-0.0136133 0.0984003 0)
(-0.0253594 0.127511 0)
(-0.0392343 0.150664 0)
(-0.0545188 0.167976 0)
(-0.0705559 0.179712 0)
(-0.0867763 0.186242 0)
(-0.102717 0.188004 0)
(-0.118018 0.185474 0)
(-0.13241 0.179138 0)
(-0.145701 0.169468 0)
(-0.157766 0.156913 0)
(-0.168528 0.141889 0)
(-0.177949 0.124774 0)
(-0.186012 0.10591 0)
(-0.192715 0.0856058 0)
(-0.198062 0.0641424 0)
(-0.202052 0.041779 0)
(-0.204679 0.0187625 0)
(-0.205923 -0.00466378 0)
(-0.205751 -0.0282506 0)
(-0.204117 -0.051733 0)
(-0.200962 -0.07482 0)
(-0.19622 -0.0971858 0)
(-0.189822 -0.118461 0)
(-0.181708 -0.138228 0)
(-0.171836 -0.156013 0)
(-0.160201 -0.171291 0)
(-0.146848 -0.183489 0)
(-0.131896 -0.191999 0)
(-0.115557 -0.196197 0)
(-0.0981539 -0.195472 0)
(-0.080137 -0.189266 0)
(-0.0620933 -0.177115 0)
(-0.044745 -0.158697 0)
(-0.0289176 -0.133882 0)
(-0.0154972 -0.102768 0)
(-0.00563582 -0.0657035 0)
(-0.000884545 -0.023343 0)
(-0.000853921 0.0254201 0)
(-0.00535538 0.0704143 0)
(-0.0146022 0.108927 0)
(-0.02708 0.140658 0)
(-0.0416944 0.165598 0)
(-0.0576411 0.183951 0)
(-0.0742009 0.196086 0)
(-0.0907668 0.202486 0)
(-0.106862 0.203705 0)
(-0.122134 0.200321 0)
(-0.136332 0.192911 0)
(-0.1493 0.182024 0)
(-0.16095 0.168168 0)
(-0.171245 0.151803 0)
(-0.180187 0.133338 0)
(-0.187799 0.113131 0)
(-0.194112 0.0914996 0)
(-0.19916 0.068722 0)
(-0.202964 0.04505 0)
(-0.205536 0.0207176 0)
(-0.206864 -0.00404811 0)
(-0.206919 -0.0290152 0)
(-0.205649 -0.0539355 0)
(-0.202981 -0.0785322 0)
(-0.198826 -0.102489 0)
(-0.193082 -0.125436 0)
(-0.18565 -0.146947 0)
(-0.17644 -0.166523 0)
(-0.165392 -0.183597 0)
(-0.152496 -0.197533 0)
(-0.137816 -0.207637 0)
(-0.121516 -0.213177 0)
(-0.103887 -0.213415 0)
(-0.0853698 -0.207647 0)
(-0.0665712 -0.195262 0)
(-0.0482688 -0.175794 0)
(-0.0313791 -0.148995 0)
(-0.0169112 -0.11488 0)
(-0.0061876 -0.0737662 0)
(-0.000980822 -0.0263381 0)
(-0.000930381 0.0282503 0)
(-0.00578807 0.0779481 0)
(-0.0156957 0.120145 0)
(-0.0289498 0.15455 0)
(-0.0443112 0.181227 0)
(-0.0608763 0.200489 0)
(-0.0778576 0.212838 0)
(-0.0946118 0.218902 0)
(-0.110656 0.219369 0)
(-0.125654 0.214942 0)
(-0.13939 0.206302 0)
(-0.151753 0.194082 0)
(-0.162703 0.178855 0)
(-0.172257 0.161123 0)
(-0.180466 0.141325 0)
(-0.187396 0.119833 0)
(-0.19312 0.096965 0)
(-0.197705 0.0729929 0)
(-0.2012 0.0481538 0)
(-0.203634 0.0226615 0)
(-0.205011 -0.00328031 0)
(-0.205305 -0.0294653 0)
(-0.204458 -0.0556707 0)
(-0.202386 -0.081643 0)
(-0.198975 -0.107084 0)
(-0.194091 -0.131636 0)
(-0.187589 -0.154869 0)
(-0.179326 -0.17627 0)
(-0.169178 -0.195234 0)
(-0.157065 -0.211065 0)
(-0.142981 -0.222979 0)
(-0.127023 -0.230126 0)
(-0.109432 -0.23162 0)
(-0.0906203 -0.226586 0)
(-0.0712016 -0.214226 0)
(-0.0520048 -0.193894 0)
(-0.0340438 -0.165181 0)
(-0.0184687 -0.127983 0)
(-0.00680524 -0.0825633 0)
(-0.00109089 -0.0296327 0)
(-0.00101978 0.0313174 0)
(-0.00628333 0.086054 0)
(-0.0169254 0.132112 0)
(-0.0310097 0.169217 0)
(-0.0471211 0.197527 0)
(-0.0642395 0.217504 0)
(-0.081504 0.229821 0)
(-0.0982398 0.235283 0)
(-0.113969 0.234744 0)
(-0.128387 0.229052 0)
(-0.141331 0.219007 0)
(-0.152747 0.205333 0)
(-0.162661 0.188669 0)
(-0.171152 0.169562 0)
(-0.178328 0.148473 0)
(-0.184311 0.125784 0)
(-0.189217 0.101806 0)
(-0.19315 0.0767996 0)
(-0.19619 0.050978 0)
(-0.19839 0.0245281 0)
(-0.199766 -0.0023782 0)
(-0.2003 -0.0295684 0)
(-0.199932 -0.0568541 0)
(-0.198566 -0.0840151 0)
(-0.196067 -0.110782 0)
(-0.192265 -0.13682 0)
(-0.186971 -0.16171 0)
(-0.179979 -0.184932 0)
(-0.171094 -0.205856 0)
(-0.160153 -0.223728 0)
(-0.147061 -0.237677 0)
(-0.131828 -0.246725 0)
(-0.114617 -0.249819 0)
(-0.0957889 -0.245882 0)
(-0.0759453 -0.233888 0)
(-0.0559557 -0.212958 0)
(-0.0369347 -0.182468 0)
(-0.020194 -0.142147 0)
(-0.00750237 -0.0921703 0)
(-0.00121807 -0.033265 0)
(-0.00112687 0.034659 0)
(-0.00686247 0.094808 0)
(-0.0183341 0.144899 0)
(-0.0333134 0.184686 0)
(-0.0501684 0.21446 0)
(-0.0677438 0.234878 0)
(-0.0851027 0.246838 0)
(-0.101548 0.251364 0)
(-0.116626 0.249513 0)
(-0.130085 0.2423 0)
(-0.141832 0.230657 0)
(-0.151894 0.215408 0)
(-0.160377 0.197256 0)
(-0.167433 0.176787 0)
(-0.173239 0.154481 0)
(-0.177974 0.130719 0)
(-0.181804 0.105801 0)
(-0.184874 0.079964 0)
(-0.187296 0.053392 0)
(-0.189146 0.0262361 0)
(-0.19046 -0.00137094 0)
(-0.191225 -0.0292991 0)
(-0.191386 -0.0574037 0)
(-0.190835 -0.0855078 0)
(-0.189417 -0.113383 0)
(-0.186933 -0.14073 0)
(-0.183144 -0.167153 0)
(-0.177783 -0.192143 0)
(-0.170575 -0.215057 0)
(-0.161261 -0.235095 0)
(-0.149637 -0.251302 0)
(-0.135601 -0.262569 0)
(-0.119208 -0.267659 0)
(-0.100735 -0.26526 0)
(-0.0807422 -0.254071 0)
(-0.0601192 -0.232912 0)
(-0.0400804 -0.200873 0)
(-0.0221194 -0.15745 0)
(-0.00829763 -0.102677 0)
(-0.00136699 -0.037281 0)
(-0.00125862 0.0383259 0)
(-0.00755548 0.104311 0)
(-0.0199799 0.158598 0)
(-0.0359299 0.200987 0)
(-0.0535047 0.231962 0)
(-0.0713941 0.252445 0)
(-0.088588 0.263625 0)
(-0.104387 0.266803 0)
(-0.118385 0.263275 0)
(-0.130414 0.254253 0)
(-0.14048 0.240811 0)
(-0.14871 0.223873 0)
(-0.155306 0.204203 0)
(-0.160509 0.182421 0)
(-0.164569 0.15901 0)
(-0.167728 0.134345 0)
(-0.170203 0.108703 0)
(-0.172181 0.082289 0)
(-0.173806 0.0552487 0)
(-0.17518 0.0276906 0)
(-0.176356 -0.000299797 0)
(-0.177334 -0.0286422 0)
(-0.17806 -0.0572444 0)
(-0.178424 -0.0859828 0)
(-0.178255 -0.114682 0)
(-0.177326 -0.14309 0)
(-0.175355 -0.170856 0)
(-0.172013 -0.197497 0)
(-0.16694 -0.222374 0)
(-0.159771 -0.244662 0)
(-0.150177 -0.263334 0)
(-0.137914 -0.277151 0)
(-0.122893 -0.284683 0)
(-0.105263 -0.28435 0)
(-0.0855006 -0.274517 0)
(-0.0644843 -0.253629 0)
(-0.0435153 -0.220392 0)
(-0.0242882 -0.173973 0)
(-0.00921717 -0.114189 0)
(-0.0015444 -0.0417392 0)
(-0.00142538 0.042388 0)
(-0.00840513 0.114695 0)
(-0.0219416 0.173318 0)
(-0.0389466 0.218142 0)
(-0.0571848 0.249929 0)
(-0.0751736 0.269968 0)
(-0.091844 0.279827 0)
(-0.106525 0.281155 0)
(-0.118902 0.275532 0)
(-0.128925 0.264387 0)
(-0.136734 0.248946 0)
(-0.142581 0.230228 0)
(-0.146781 0.209049 0)
(-0.149671 0.186045 0)
(-0.151581 0.161695 0)
(-0.152817 0.136349 0)
(-0.153647 0.110251 0)
(-0.154296 0.0835648 0)
(-0.154941 0.0563901 0)
(-0.155704 0.0287851 0)
(-0.156658 0.00078222 0)
(-0.157816 -0.0275949 0)
(-0.159132 -0.0563132 0)
(-0.160495 -0.0853116 0)
(-0.161727 -0.114478 0)
(-0.162582 -0.143626 0)
(-0.162741 -0.172462 0)
(-0.161819 -0.200554 0)
(-0.159373 -0.227292 0)
(-0.154927 -0.251851 0)
(-0.14801 -0.273154 0)
(-0.138207 -0.289849 0)
(-0.125245 -0.300306 0)
(-0.109092 -0.302653 0)
(-0.0900799 -0.294862 0)
(-0.0690232 -0.274907 0)
(-0.0472807 -0.240987 0)
(-0.0267592 -0.191802 0)
(-0.0102985 -0.126839 0)
(-0.00176033 -0.0467144 0)
(-0.00164303 0.0469429 0)
(-0.0094731 0.12614 0)
(-0.024326 0.189196 0)
(-0.0424698 0.236155 0)
(-0.061255 0.268193 0)
(-0.0790196 0.287109 0)
(-0.0946685 0.29497 0)
(-0.107614 0.29385 0)
(-0.117686 0.285665 0)
(-0.125008 0.272074 0)
(-0.129888 0.254457 0)
(-0.132729 0.233911 0)
(-0.133977 0.211286 0)
(-0.134069 0.187215 0)
(-0.133416 0.162152 0)
(-0.132383 0.136408 0)
(-0.131283 0.11018 0)
(-0.130373 0.0835801 0)
(-0.129856 0.0566552 0)
(-0.129876 0.0294077 0)
(-0.130519 0.00181206 0)
(-0.131814 -0.0261683 0)
(-0.133724 -0.0545649 0)
(-0.136147 -0.0833853 0)
(-0.138907 -0.112591 0)
(-0.141748 -0.142072 0)
(-0.144329 -0.171615 0)
(-0.14622 -0.200859 0)
(-0.146906 -0.229257 0)
(-0.145803 -0.256015 0)
(-0.142287 -0.280044 0)
(-0.135749 -0.299907 0)
(-0.125687 -0.31379 0)
(-0.111821 -0.319513 0)
(-0.0942605 -0.314598 0)
(-0.073675 -0.296438 0)
(-0.0514216 -0.262566 0)
(-0.0296128 -0.211024 0)
(-0.0115966 -0.140791 0)
(-0.00203028 -0.0523068 0)
(-0.00193666 0.0521289 0)
(-0.0108499 0.138881 0)
(-0.0272762 0.206389 0)
(-0.0466209 0.254987 0)
(-0.0657305 0.286481 0)
(-0.0827792 0.303383 0)
(-0.0967137 0.30841 0)
(-0.107112 0.304157 0)
(-0.11403 0.292912 0)
(-0.117823 0.276575 0)
(-0.119009 0.256655 0)
(-0.11817 0.234307 0)
(-0.115884 0.21038 0)
(-0.112693 0.185478 0)
(-0.109078 0.160004 0)
(-0.105454 0.134212 0)
(-0.102166 0.10824 0)
(-0.0994956 0.0821369 0)
(-0.0976589 0.0558919 0)
(-0.0968137 0.0294479 0)
(-0.0970594 0.00272018 0)
(-0.0984367 -0.0243895 0)
(-0.100925 -0.0519783 0)
(-0.104436 -0.0801258 0)
(-0.108808 -0.108873 0)
(-0.11379 -0.138199 0)
(-0.119039 -0.167984 0)
(-0.124099 -0.197968 0)
(-0.128404 -0.227698 0)
(-0.131274 -0.256458 0)
(-0.131938 -0.283194 0)
(-0.129578 -0.306434 0)
(-0.12342 -0.32422 0)
(-0.112865 -0.334071 0)
(-0.0976952 -0.333017 0)
(-0.0783162 -0.317754 0)
(-0.0559789 -0.284948 0)
(-0.0329571 -0.231716 0)
(-0.0131938 -0.156253 0)
(-0.00237911 -0.0586535 0)
(-0.00234742 0.0581467 0)
(-0.0126709 0.153237 0)
(-0.0309813 0.225065 0)
(-0.0515216 0.27451 0)
(-0.0705464 0.304348 0)
(-0.0861325 0.318087 0)
(-0.0973899 0.319282 0)