/*--------------------------------*- C++ -*----------------------------------*\
  =========                 |
  \\      /  F ield         | OpenFOAM: The Open Source CFD Toolbox
   \\    /   O peration     | Website:  https://openfoam.org
    \\  /    A nd           | Version:  7
     \\/     M anipulation  |
\*---------------------------------------------------------------------------*/
FoamFile
{
    version     2.0;
    format      ascii;
    class       volScalarField;
    location    "0.05";
    object      p;
}
// * * * * * * * * * * * * * * * * * * * * * * * * * * * * * * * * * * * * * //

dimensions      [0 2 -2 0 0 0 0];

internalField   nonuniform List<scalar> 
6400
(
-2.31494e-08
1.94962e-06
-0.00047979
-0.00147165
-0.00284643
-0.00448465
-0.00628835
-0.0081726
-0.010067
-0.0119131
-0.0136625
-0.0152753
-0.0167185
-0.0179643
-0.0189908
-0.019782
-0.0203244
-0.0206082
-0.0206267
-0.0203759
-0.019854
-0.0190613
-0.0180007
-0.0166765
-0.0150943
-0.0132615
-0.0111877
-0.00888396
-0.00636184
-0.00363392
-0.000713959
0.00238324
0.00564211
0.00904638
0.0125792
0.0162229
0.0199589
0.0237689
0.0276338
0.0315339
0.0354495
0.0393607
0.0432484
0.0470932
0.050875
0.0545738
0.05817
0.0616448
0.0649796
0.0681563
0.071157
0.0739649
0.0765643
0.0789411
0.081082
0.0829744
0.0846072
0.0859721
0.0870628
0.0878748
0.0884056
0.0886553
0.0886266
0.0883252
0.0877598
0.0869432
0.0858919
0.0846263
0.0831716
0.0815582
0.0798232
0.0780102
0.0761696
0.0743601
0.0726504
0.0711202
0.0698577
0.0689589
0.0685247
0.0685484
2.3733e-06
-5.06288e-05
-0.000512191
-0.0013732
-0.00253341
-0.00390927
-0.00542956
-0.0070279
-0.0086443
-0.0102269
-0.0117322
-0.0131237
-0.0143697
-0.0154435
-0.016324
-0.0169939
-0.0174401
-0.0176526
-0.017624
-0.0173492
-0.0168253
-0.0160517
-0.0150305
-0.0137651
-0.0122602
-0.0105228
-0.00856132
-0.00638522
-0.0040052
-0.00143292
0.00131902
0.00423696
0.00730641
0.0105121
0.0138381
0.0172676
0.0207839
0.0243695
0.0280063
0.0316758
0.0353594
0.0390385
0.0426954
0.0463121
0.0498692
0.0533479
0.0567305
0.0599993
0.0631366
0.0661258
0.0689504
0.0715949
0.0740449
0.0762877
0.0783112
0.0801038
0.0816555
0.0829594
0.0840104
0.084805
0.0853412
0.0856199
0.0856446
0.0854215
0.0849599
0.0842723
0.0833751
0.0822881
0.0810352
0.0796456
0.0781541
0.0766006
0.0750302
0.0734942
0.0720507
0.0707645
0.0697027
0.0689346
0.0685468
0.0685722
0.00044663
0.000313502
-0.000166533
-0.000969399
-0.00201404
-0.00323516
-0.00457728
-0.00598724
-0.0074138
-0.00881243
-0.0101438
-0.0113737
-0.0124736
-0.0134191
-0.0141891
-0.0147668
-0.0151393
-0.0152965
-0.015231
-0.0149374
-0.0144119
-0.0136536
-0.0126638
-0.011445
-0.0100016
-0.00833983
-0.00646744
-0.00439295
-0.0021261
0.000321987
0.00293957
0.0057142
0.00863217
0.0116789
0.0148392
0.0180974
0.0214378
0.0248442
0.0282987
0.0317835
0.0352815
0.0387754
0.0422484
0.0456832
0.0490615
0.0523653
0.0555781
0.0586833
0.0616644
0.0645052
0.0671906
0.0697063
0.072039
0.0741766
0.0761078
0.077822
0.0793104
0.0805668
0.0815871
0.082368
0.0829081
0.0832084
0.0832731
0.083109
0.0827253
0.0821343
0.0813515
0.0803957
0.0792897
0.078061
0.0767416
0.0753678
0.0739798
0.0726223
0.0713455
0.0702034
0.0692504
0.0685421
0.0681554
0.0681388
0.00130638
0.00103207
0.000485743
-0.000315991
-0.00131501
-0.00245743
-0.00369728
-0.00498882
-0.00629064
-0.00756377
-0.00877263
-0.00988662
-0.0108794
-0.0117284
-0.0124146
-0.0129221
-0.013238
-0.0133525
-0.0132581
-0.0129493
-0.0124229
-0.0116775
-0.0107135
-0.00953307
-0.00814028
-0.006541
-0.00474198
-0.00275108
-0.000577619
0.0017679
0.00427447
0.00693062
0.00972336
0.0126383
0.0156611
0.0187774
0.0219725
0.0252304
0.0285339
0.031866
0.0352106
0.0385516
0.0418731
0.045158
0.048389
0.0515493
0.0546229
0.0575942
0.0604471
0.0631667
0.0657388
0.0681499
0.0703873
0.0724396
0.0742961
0.075947
0.0773842
0.0786023
0.0795977
0.0803672
0.0809092
0.0812254
0.0813201
0.0812005
0.0808754
0.0803564
0.0796579
0.0787978
0.0777976
0.0766825
0.0754818
0.074228
0.0729568
0.0717078
0.0705241
0.0694517
0.0685367
0.0678266
0.0673808
0.0672386
0.00250073
0.0020296
0.00137339
0.000532634
-0.000463972
-0.00157257
-0.00275277
-0.00396714
-0.00518093
-0.00636104
-0.00747687
-0.00850068
-0.00940853
-0.0101798
-0.0107972
-0.0112467
-0.0115158
-0.0115948
-0.0114764
-0.0111555
-0.0106291
-0.00989564
-0.00895508
-0.0078095
-0.00646273
-0.00491986
-0.00318701
-0.00127164
0.000817197
0.00306984
0.00547634
0.00802554
0.0107046
0.0134999
0.0163983
0.0193864
0.02245
0.0255734
0.0287401
0.0319341
0.0351404
0.0383435
0.0415282
0.0446781
0.0477766
0.0508077
0.0537564
0.0566075
0.0593456
0.0619566
0.0644275
0.0667453
0.0688979
0.0708741
0.072664
0.0742584
0.0756501
0.0768342
0.0778069
0.0785651
0.0791075
0.0794358
0.0795549
0.0794715
0.0791938
0.0787326
0.0781014
0.0773168
0.0763989
0.0753706
0.074258
0.0730902
0.0718988
0.070718
0.069585
0.0685381
0.0676169
0.0668612
0.0663053
0.0659679
0.00395843
0.00325271
0.00245187
0.00153709
0.000505644
-0.000605702
-0.0017632
-0.00293643
-0.00409541
-0.00521243
-0.00626163
-0.00721878
-0.00806253
-0.00877428
-0.00933813
-0.0097413
-0.00997291
-0.0100236
-0.00988652
-0.00955694
-0.00903186
-0.00830962
-0.00739045
-0.00627648
-0.00497098
-0.00347839
-0.00180467
4.29425e-05
0.00205623
0.00422619
0.00654326
0.00899666
0.011574
0.0142624
0.0170497
0.0199232
0.0228693
0.0258726
0.0289169
0.0319878
0.0350709
0.0381515
0.0412143
0.044244
0.0472248
0.0501414
0.0529794
0.055724
0.0583605
0.0608758
0.0632576
0.0654935
0.0675713
0.0694805
0.0712116
0.0727563
0.074108
0.0752618
0.0762138
0.0769609
0.0775019
0.077839
0.0779767
0.0779213
0.0776802
0.0772632
0.076683
0.0759551
0.0750976
0.0741312
0.0730793
0.0719673
0.0708229
0.0696756
0.0685566
0.067498
0.0665337
0.0656967
0.0649926
0.0644159
0.00560575
0.00464367
0.0036734
0.00265532
0.00155916
0.000413633
-0.000753239
-0.00191603
-0.00304988
-0.00413144
-0.00513856
-0.00605092
-0.00684982
-0.00751895
-0.00804398
-0.00841294
-0.00861626
-0.00864559
-0.00849474
-0.00815959
-0.00763704
-0.00692573
-0.00602619
-0.00494034
-0.00367125
-0.00222303
-0.000601241
0.00118704
0.00313401
0.00523147
0.00747025
0.00983951
0.0123272
0.0149217
0.0176119
0.0203853
0.0232281
0.0261256
0.029063
0.0320264
0.035002
0.0379753
0.0409317
0.0438567
0.0467351
0.0495521
0.0522939
0.054946
0.0574947
0.0599274
0.0622326
0.0643977
0.066411
0.0682623
0.0699428
0.0714447
0.0727617
0.0738888
0.0748221
0.0755584
0.0760968
0.0764392
0.0765899
0.0765544
0.0763394
0.0759537
0.0754091
0.0747199
0.0739025
0.0729753
0.0719588
0.0708753
0.0697486
0.0686038
0.0674672
0.0663653
0.0653274
0.064381
0.0635026
0.062662
0.00737622
0.00614603
0.00499012
0.00384881
0.00266317
0.00145735
0.00025571
-0.000921636
-0.00205512
-0.00312491
-0.0041118
-0.00499853
-0.00576963
-0.00641087
-0.00690982
-0.00725551
-0.00743907
-0.00745354
-0.00729371
-0.00695571
-0.00643672
-0.00573595
-0.00485441
-0.00379365
-0.00255617
-0.00114638
0.000429941
0.00216652
0.00405643
0.00609142
0.00826203
0.0105579
0.012968
0.0154816
0.0180877
0.0207741
0.0235274
0.0263335
0.0291786
0.0320492
0.0349321
0.0378129
0.0406778
0.0435128
0.0463033
0.049035
0.0516944
0.0542675
0.0567414
0.0591041
0.0613442
0.0634493
0.0654078
0.0672099
0.0688474
0.0703131
0.0716003
0.0727041
0.0736206
0.0743468
0.0748813
0.075226
0.0753845
0.0753616
0.0751631
0.0747972
0.0742747
0.0736086
0.0728134
0.0719056
0.0709029
0.0698245
0.0686906
0.0675228
0.0663427
0.0651724
0.0640375
0.0629611
0.0618915
0.0607752
0.00921296
0.00771034
0.00635935
0.00507947
0.00378604
0.00249992
0.00124264
2.954e-05
-0.00112386
-0.00220115
-0.00318642
-0.00406473
-0.00482317
-0.00544972
-0.00593345
-0.00626495
-0.00643651
-0.0064423
-0.00627749
-0.00593867
-0.00542443
-0.00473436
-0.0038688
-0.00282947
-0.00161953
-0.000243198
0.00129437
0.00298724
0.00482847
0.00680985
0.00892214
0.0111555
0.0134996
0.0159443
0.0184788
0.0210909
0.0237678
0.0264963
0.0292631
0.0320552
0.0348594
0.0376619
0.0404494
0.0432085
0.0459251
0.048585
0.0511752
0.0536823
0.0560939
0.0583985
0.0605846
0.0626399
0.0645528
0.0663141
0.0679162
0.0693516
0.0706139
0.071698
0.0725998
0.0733163
0.073846
0.0741902
0.074352
0.0743353
0.0741452
0.0737891
0.0732768
0.0726202
0.0718322
0.0709268
0.0699192
0.0688257
0.0676639
0.0664519
0.065208
0.0639499
0.0627004
0.0614792
0.0602082
0.0588127
0.0110692
0.00929401
0.00774156
0.00631273
0.00489835
0.00351637
0.00218632
0.000920165
-0.000269806
-0.00137084
-0.00237002
-0.00325477
-0.00401375
-0.00463702
-0.00511533
-0.00544096
-0.0056072
-0.00560894
-0.00544259
-0.00510565
-0.00459697
-0.0039166
-0.00306522
-0.00204455
-0.00085788
0.000490441
0.00199558
0.00365199
0.00545272
0.00738931
0.00945273
0.0116339
0.0139233
0.0163109
0.0187856
0.0213357
0.023949
0.0266132
0.0293153
0.0320425
0.0347817
0.0375195
0.0402434
0.0429404
0.0455964
0.0481977
0.0507315
0.0531853
0.0555468
0.0578047
0.0599474
0.0619627
0.0638392
0.065568
0.0671417
0.068553
0.0697953
0.0708632
0.0717526
0.0724602
0.0729845
0.0733261
0.0734873
0.0734714
0.0732827
0.0729278
0.0724157
0.0717571
0.0709631
0.0700454
0.0690167
0.0678911
0.066684
0.0654111
0.0640871
0.0627262
0.0613488
0.0599724
0.0584945
0.0568212
0.0129053
0.0108598
0.00910236
0.00751752
0.00597212
0.00448238
0.00306635
0.00173322
0.000492321
-0.000646308
-0.00167222
-0.00257533
-0.00334617
-0.0039762
-0.00445761
-0.00478417
-0.00495087
-0.00495309
-0.00478796
-0.00445455
-0.00395227
-0.00328082
-0.00244127
-0.00143615
-0.000268923
0.00105656
0.00253578
0.00416296
0.0059308
0.00783092
0.00985491
0.0119944
0.0142399
0.0165813
0.0190077
0.0215078
0.0240702
0.0266832
0.0293337
0.032009
0.0346962
0.0373829
0.0400567
0.0427049
0.0453134
0.0478689
0.050359
0.0527717
0.0550949
0.0573172
0.059427
0.0614119
0.063261
0.0649656
0.0665183
0.0679118
0.069139
0.0701944
0.0710738
0.0717738
0.0722925
0.07263
0.0727877
0.0727682
0.072575
0.0722143
0.0716942
0.0710238
0.0702122
0.0692693
0.0682057
0.0670341
0.0657678
0.0644202
0.0630032
0.0615274
0.0600122
0.0584735
0.0567863
0.0548393
0.0146868
0.0123744
0.010412
0.00866585
0.00698194
0.00537545
0.00386305
0.00245151
0.00114791
-3.96276e-05
-0.00110339
-0.00203512
-0.00282682
-0.00347151
-0.00396352
-0.00429741
-0.00446877
-0.00447476
-0.00431393
-0.00398563
-0.00348938
-0.00282552
-0.00199591
-0.00100347
0.000148601
0.00145677
0.00291633
0.00452098
0.00626327
0.00813536
0.0101294
0.0122372
0.0144492
0.016755
0.0191442
0.0216062
0.0241303
0.0267045
0.029316
0.031952
0.0346004
0.0372491
0.039886
0.0424984
0.0450723
0.0475945
0.0500534
0.0524371
0.0547336
0.0569313
0.0590182
0.0609823
0.062813
0.0645018
0.0660412
0.0674232
0.0686405
0.0696874
0.0705597
0.0712539
0.0717676
0.0721001
0.0722522
0.0722256
0.0720236
0.0716516
0.0711164
0.0704256
0.0695866
0.0686074
0.0674977
0.0662686
0.0649318
0.0634984
0.0619777
0.0603777
0.0587171
0.0570112
0.0551145
0.0528991
0.0163844
0.0138101
0.0116428
0.00973259
0.00790481
0.00617413
0.00455728
0.00305873
0.00168299
0.000436474
-0.000674047
-0.00164235
-0.0024627
-0.00312942
-0.00363759
-0.00398329
-0.00416346
-0.00417653
-0.00402193
-0.00369922
-0.00320843
-0.00255097
-0.00172933
-0.000746232
0.000395395
0.00169174
0.00313749
0.00472606
0.00645035
0.00830303
0.0102765
0.0123622
0.0145505
0.0168311
0.0191942
0.02163
0.0241278
0.0266753
0.0292599
0.0318692
0.0344915
0.0371153
0.0397283
0.0423174
0.044869
0.0473705
0.0498105
0.0521772
0.0544584
0.056642
0.0587161
0.0606693
0.062491
0.0641726
0.0657061
0.067083
0.0682957
0.0693387
0.0702076
0.0708985
0.0714084
0.0717357
0.0718807
0.0718447
0.0716307
0.0712429
0.0706868
0.0699683
0.0690934
0.0680691
0.066904
0.0656082
0.0641915
0.062663
0.0610298
0.0592983
0.0574867
0.0556107
0.0535052
0.0510269
0.0179737
0.0151418
0.0127702
0.010694
0.0087187
0.00685889
0.00513082
0.00353763
0.00208268
0.000770136
-0.000394663
-0.00140683
-0.00226196
-0.00295607
-0.00348515
-0.00384653
-0.0040389
-0.00406156
-0.00391413
-0.00359685
-0.00311095
-0.0024586
-0.00164229
-0.00066457
0.000471371
0.00176108
0.00319877
0.00477797
0.00649204
0.00833393
0.0102957
0.0123686
0.0145427
0.0168085
0.0191569
0.0215781
0.024061
0.0265934
0.0291629
0.031758
0.0343672
0.0369787
0.0395801
0.0421583
0.0447
0.0471931
0.0496265
0.051988
0.0542647
0.0564447
0.0585164
0.0604685
0.0622907
0.0639737
0.0655088
0.0668872
0.0681014
0.0691455
0.0700151
0.0707057
0.0712134
0.0715361
0.0716737
0.0716271
0.0713987
0.0709914
0.0704095
0.0696574
0.0687399
0.0676634
0.0664356
0.0650654
0.0635609
0.0619295
0.0601767
0.0583077
0.056341
0.0542931
0.0519799
0.0492434
0.0194339
0.0163471
0.0137722
0.0115289
0.00940325
0.00740983
0.00556579
0.00387264
0.00233234
0.000948031
-0.000276681
-0.00133827
-0.00223332
-0.00295889
-0.00351259
-0.00389316
-0.00410023
-0.00413363
-0.00399362
-0.00368155
-0.00319969
-0.00255045
-0.00173612
-0.000759502
0.000375434
0.00166358
0.00309915
0.00467609
0.00638802
0.00822756
0.0101863
0.0122551
0.0144249
0.0166866
0.0190314
0.021449
0.0239281
0.0264568
0.0290234
0.0316166
0.034225
0.0368364
0.0394382
0.0420176
0.0445619
0.0470593
0.049498
0.0518654
0.0541485
0.0563355
0.0584152
0.0603766
0.0622087
0.0639016
0.0654459
0.0668329
0.0680549
0.0691061
0.0699811
0.0706747
0.0711825
0.071502
0.0716327
0.0715752
0.0713307
0.0709013
0.0702897
0.0694993
0.0685342
0.0673999
0.0661033
0.0646521
0.0630531
0.0613122
0.0594339
0.0574226
0.0552978
0.0530764
0.0505564
0.0475656
0.0207448
0.0174072
0.0146293
0.0122174
0.00993929
0.00780946
0.00584537
0.00404797
0.00241788
0.000957141
-0.000332116
-0.00144717
-0.00238587
-0.00314633
-0.00372775
-0.00413
-0.00435312
-0.00439755
-0.00426483
-0.00395754
-0.00347826
-0.0028292
-0.00201294
-0.00103319
0.00010524
0.00139715
0.00283716
0.0044194
0.00613711
0.00798231
0.00994628
0.0120204
0.014196
0.0164644
0.0188162
0.0212407
0.023727
0.0262637
0.0288395
0.0314432
0.0340628
0.0366858
0.0392999
0.0418928
0.0444522
0.0469658
0.0494214
0.0518059
0.0541063
0.0563114
0.0584101
0.0603908
0.062242
0.0639532
0.0655148
0.066918
0.0681551
0.0692196
0.0701051
0.0708058
0.0713168
0.0716353
0.0717606
0.0716926
0.0714314
0.0709779
0.0703339
0.0695019
0.0684853
0.0672889
0.0659185
0.0643806
0.0626812
0.0608253
0.0588167
0.0566592
0.0543735
0.0519774
0.0492509
0.0460084
0.0218888
0.0183026
0.0153231
0.0127416
0.010309
0.00804042
0.00595354
0.00404848
0.00232508
0.000784173
-0.000572989
-0.00174463
-0.00272968
-0.00352787
-0.00413937
-0.00456449
-0.00480392
-0.0048594
-0.0047338
-0.00443011
-0.00395077
-0.0032983
-0.00247629
-0.0014894
-0.000342641
0.000959134
0.00241069
0.00400571
0.00573673
0.00759545
0.00957347
0.0116626
0.0138544
0.0161397
0.0185087
0.0209509
0.0234557
0.0260124
0.0286095
0.0312353
0.0338775
0.0365239
0.0391626
0.0417816
0.0443683
0.0469099
0.0493937
0.0518064
0.0541357
0.0563702
0.0584986
0.0605087
0.0623884
0.0641268
0.0657142
0.067142
0.0684018
0.0694861
0.0703879
0.0711004
0.0716185
0.0719392
0.0720614
0.071984
0.0717063
0.071228
0.0705499
0.0696741
0.0686032
0.0673411
0.0658926
0.0642634
0.0624588
0.0604832
0.05834
0.0560329
0.0535838
0.0510112
0.0480784
0.0445854
0.0228494
0.0190161
0.0158354
0.0130841
0.0104954
0.00808601
0.00587437
0.00385917
0.00203953
0.000415674
-0.0010116
-0.00224217
-0.00327607
-0.00411398
-0.00475651
-0.00520465
-0.00546045
-0.00552694
-0.00540748
-0.00510498
-0.00462221
-0.00396283
-0.00313145
-0.00213303
-0.000972256
0.000346101
0.00181627
0.00343115
0.00518293
0.00706354
0.00906498
0.0111791
0.0133971
0.0157093
0.0181059
0.0205768
0.0231119
0.0257003
0.0283303
0.0309897
0.0336663
0.0363481
0.0390238
0.0416812
0.0443071
0.0468882
0.0494117
0.0518645
0.0542343
0.0565096
0.0586786
0.0607282
0.062646
0.0644211
0.0660437
0.0675047
0.0687951
0.0699064
0.0708306
0.0715604
0.0720905
0.0724175
0.0725395
0.0724548
0.0721615
0.0716585
0.0709458
0.0700248
0.0688974
0.0675668
0.066037
0.0643127
0.0623989
0.0602998
0.0580183
0.0555584
0.0529431
0.0501924
0.0470523
0.0433088
0.0236118
0.0195319
0.0161496
0.0132279
0.0104824
0.00793061
0.00559202
0.00346465
0.00154688
-0.00016155
-0.00166103
-0.00295249
-0.00403688
-0.00491522
-0.0055888
-0.00605998
-0.00633211
-0.00640873
-0.00629316
-0.00598867
-0.00549922
-0.00482962
-0.00398482
-0.00296952
-0.00178839
-0.000446787
0.00104869
0.0026905
0.00447101
0.0063825
0.00841695
0.0105658
0.0128196
0.0151688
0.0176038
0.0201148
0.0226918
0.0253235
0.0279979
0.0307025
0.0334254
0.0361552
0.0388803
0.0415881
0.0442649
0.0468973
0.0494724
0.0519774
0.0543997
0.0567273
0.0589476
0.0610471
0.0630132
0.0648351
0.0665026
0.0680061
0.0693354
0.0704811
0.0714345
0.0721879
0.0727356
0.0730737
0.0731996
0.0731103
0.0728031
0.0722764
0.0715293
0.0705626
0.0693775
0.0679765
0.0663628
0.0645407
0.0625145
0.0602884
0.0578655
0.0552497
0.0524655
0.0495344
0.046185
0.0421897
0.0241627
0.0198352
0.0162505
0.0131575
0.0102541
0.0075583
0.00509098
0.00285005
0.000832824
-0.000961715
-0.00253515
-0.00388873
-0.00502399
-0.00594266
-0.00664728
-0.00714142
-0.00742893
-0.00751346
-0.00739875
-0.00708923
-0.00659004
-0.00590639
-0.00504309
-0.00400487
-0.00279704
-0.00142584
0.000101652
0.001778
0.00359586
0.00554746
0.0076243
0.00981719
0.0121166
0.0145132
0.0169978
0.0195605
0.0221909
0.0248773
0.0276075
0.0303692
0.033151
0.0359412
0.038728
0.0414982
0.0442378
0.0469335
0.0495725
0.052142
0.0546289
0.0570204
0.0593031
0.0614634
0.0634887
0.065368
0.0670907
0.068646
0.070023
0.0712111
0.0722012
0.0729854
0.0735573
0.0739124
0.0740467
0.0739564
0.073638
0.0730892
0.0723088
0.0712967
0.0700536
0.0685812
0.0668823
0.0649602
0.062819
0.060463
0.0578957
0.0551211
0.0521652
0.0490507
0.0454891
0.0412392
0.0244884
0.0199118
0.0161231
0.0128572
0.00979435
0.00695323
0.00435602
0.00200022
-0.000117759
-0.00199992
-0.0036481
-0.00506401
-0.00624993
-0.00720876
-0.00794418
-0.00846022
-0.00876089
-0.00885036
-0.00873352
-0.008416
-0.00790341
-0.00720086
-0.00631323
-0.00524597
-0.00400535
-0.00259812
-0.00103132
0.000687849
0.00255195
0.00455274
0.00668108
0.00892752
0.0112827
0.0137376
0.016283
0.0189088
0.0216038
0.0243563
0.0271541
0.0299854
0.0328386
0.0357017
0.0385624
0.0414071
0.0442218
0.0469934
0.049709
0.0523555
0.0549191
0.0573862
0.059743
0.0619757
0.0640718
0.0660197
0.0678081
0.0694251
0.0708589
0.0720983
0.0731336
0.0739565
0.07456
0.0749385
0.0750868
0.075
0.0746738
0.0741056
0.0732938
0.0722377
0.0709373
0.0693934
0.0676082
0.0655845
0.0633264
0.0608384
0.0581241
0.0551876
0.0520567
0.0487551
0.0449776
0.0404687
0.0245744
0.0197469
0.015752
0.0123111
0.00908723
0.00609965
0.00337139
0.000899252
-0.00132071
-0.00329115
-0.00501405
-0.00649204
-0.00772832
-0.00872685
-0.00949182
-0.0100275
-0.0103384
-0.0104298
-0.0103078
-0.00997871
-0.00944795
-0.00872081
-0.00780289
-0.00670065
-0.00542099
-0.00397067
-0.00235653
-0.000585902
0.00133328
0.00339212
0.00558116
0.00789103
0.0103127
0.012837
0.0154543
0.0181542
0.0209251
0.0237554
0.0266332
0.0295466
0.0324837
0.0354322
0.0383791
0.0413107
0.0442133
0.0470738
0.0498791
0.0526152
0.0552678
0.0578226
0.0602658
0.0625834
0.0647624
0.0667905
0.0686555
0.0703444
0.0718449
0.0731452
0.0742352
0.0751057
0.075749
0.076158
0.0763263
0.0762481
0.0759187
0.0753348
0.0744945
0.0733965
0.0720401
0.0704253
0.0685533
0.0664271
0.0640506
0.0614287
0.0585649
0.0554636
0.0521537
0.048661
0.0446628
0.0398894
0.024406
0.0193247
0.0151215
0.0115037
0.00811693
0.00498134
0.00212046
-0.000469139
-0.0027918
-0.00485039
-0.00664775
-0.00818741
-0.00947342
-0.0105102
-0.0113023
-0.0118545
-0.0121726
-0.012263
-0.0121324
-0.0117869
-0.0112323
-0.0104747
-0.00952058
-0.00837722
-0.00705157
-0.00555027
-0.00388032
-0.00204959
-6.66424e-05
0.00205927
0.00431867
0.00670237
0.00920127
0.011806
0.0145063
0.0172912
0.0201496
0.0230698
0.0260401
0.0290483
0.0320819
0.0351282
0.038174
0.0412055
0.0442093
0.047172
0.05008
0.0529186
0.0556728
0.0583283
0.0608708
0.0632862
0.0655608
0.0676812
0.069634
0.0714059
0.0729836
0.0743553
0.0755101
0.0764379
0.0771294
0.0775766
0.0777717
0.0777083
0.077381
0.076786
0.075921
0.074784
0.0733734
0.0716883
0.0697298
0.0675006
0.0650049
0.0622474
0.0592317
0.055962
0.0524692
0.0487808
0.0445566
0.039512
0.0239685
0.0186298
0.0142157
0.0104187
0.00686684
0.00358129
0.000586398
-0.00212135
-0.00454681
-0.00669329
-0.00856474
-0.0101652
-0.0114994
-0.0125719
-0.0133881
-0.0139538
-0.014276
-0.0143616
-0.0142175
-0.01385
-0.0132657
-0.0124717
-0.0114753
-0.0102839
-0.00890445
-0.00734375
-0.00560943
-0.00371001
-0.00165444
0.00054803
0.00288802
0.00535625
0.00794326
0.0106391
0.0134333
0.0163147
0.0192723
0.0222948
0.0253701
0.0284856
0.0316283
0.0347851
0.0379428
0.0410878
0.0442063
0.0472848
0.0503088
0.0532631
0.0561324
0.058902
0.0615575
0.0640841
0.0664671
0.0686923
0.0707451
0.0726116
0.0742782
0.0757325
0.0769629
0.0779579
0.0787071
0.0792007
0.0794304
0.0793887
0.0790698
0.0784694
0.0775843
0.0764116
0.074949
0.073195
0.0711506
0.0688185
0.066203
0.0633084
0.0601382
0.0566967
0.0530167
0.0491277
0.0446711
0.0393476
0.0232473
0.0176465
0.0130179
0.00903896
0.00531956
0.00188211
-0.0012477
-0.00407403
-0.00660224
-0.00883639
-0.010781
-0.0124407
-0.0138204
-0.0149256
-0.0157627
-0.0163387
-0.0166611
-0.0167372
-0.0165739
-0.0161785
-0.0155585
-0.0147218
-0.0136762
-0.012429
-0.0109873
-0.00935862
-0.00755137
-0.00557448
-0.00343692
-0.00114782
0.00128333
0.0038468
0.0065326
0.0093304
0.0122295
0.0152191
0.0182881
0.0214252
0.0246179
0.0278531
0.0311175
0.0343979
0.0376812
0.0409535
0.0442007
0.0474085
0.0505621
0.0536458
0.0566442
0.0595422
0.0623249
0.0649765
0.0674815
0.0698244
0.0719902
0.073964
0.0757321
0.0772812
0.0785985
0.0796714
0.0804881
0.0810376
0.0813104
0.0812987
0.0809957
0.0803964
0.0794964
0.078292
0.0767801
0.0749593
0.0728304
0.0703962
0.0676604
0.0646272
0.0612999
0.0576829
0.0538113
0.0497165
0.0450207
0.0394091
0.0222268
0.0163579
0.0115106
0.00734663
0.00345733
-0.000133646
-0.0033993
-0.00634461
-0.0089755
-0.0112967
-0.0133128
-0.0150291
-0.0164513
-0.0175861
-0.0184409
-0.0190233
-0.019341
-0.0194017
-0.0192132
-0.0187837
-0.0181217
-0.0172355
-0.0161327
-0.0148211
-0.0133086
-0.0116034
-0.00971451
-0.00765083
-0.00542129
-0.0030351
-0.000502173
0.00216715
0.0049624
0.00787314
0.0108888
0.0139985
0.0171912
0.0204551
0.0237775
0.0271449
0.0305439
0.0339614
0.0373841
0.0407977
0.0441875
0.0475387
0.0508359
0.0540634
0.0572055
0.0602467
0.0631712
0.0659623
0.0686033
0.0710779
0.0733704
0.0754656
0.0773487
0.0790054
0.0804218
0.081584
0.082479
0.0830947
0.0834209
0.0834484
0.0831698
0.0825788
0.0816698
0.0804384
0.0788812
0.0769967
0.0747855
0.0722501
0.0693937
0.0662204
0.0627333
0.0589373
0.0548694
0.0505629
0.0456205
0.0397106
0.0208902
0.0147466
0.00967571
0.00532352
0.00126201
-0.00248405
-0.00588673
-0.00895138
-0.0116845
-0.0140912
-0.0161766
-0.0179467
-0.0194085
-0.0205696
-0.0214379
-0.0220216
-0.0223288
-0.022368
-0.022148
-0.0216781
-0.0209671
-0.0200232
-0.0188547
-0.0174701
-0.0158781
-0.0140877
-0.0121077
-0.00994731
-0.00761538
-0.00512155
-0.0024763
0.000309485
0.00322513
0.00626021
0.00940419
0.0126461
0.0159746
0.0193775
0.0228419
0.0263543
0.0299013
0.0334696
0.0370456
0.0406146
0.0441612
0.0476701
0.0511256
0.0545118
0.0578128
0.0610124
0.0640938
0.0670393
0.0698312
0.0724525
0.0748869
0.0771182
0.0791307
0.0809089
0.0824375
0.0837014
0.0846867
0.0853804
0.085771
0.0858483
0.0856034
0.0850286
0.0841176
0.082865
0.0812674
0.0793231
0.0770323
0.0743968
0.0714197
0.0681049
0.0644556
0.060477
0.0562077
0.0516833
0.046486
0.0402666
0.0192193
0.0127942
0.00749477
0.00295099
-0.0012853
-0.00518837
-0.00872913
-0.0119132
-0.0147476
-0.0172378
-0.01939
-0.0212112
-0.0227093
-0.0238925
-0.0247694
-0.0253484
-0.0256388
-0.0256501
-0.0253923
-0.0248747
-0.0241064
-0.0230963
-0.0218532
-0.0203868
-0.0187064
-0.0168213
-0.0147404
-0.0124728
-0.0100279
-0.0074159
-0.00464777
-0.00173462
0.00131279
0.00448402
0.00776838
0.0111546
0.0146309
0.018185
0.021804
0.0254744
0.0291829
0.032916
0.0366594
0.0403978
0.0441156
0.0477969
0.051426
0.0549866
0.0584622
0.0618358
0.0650896
0.0682051
0.0711639
0.073948
0.0765403
0.0789235
0.0810808
0.0829952
0.0846502
0.0860298
0.0871188
0.0879034
0.0883708
0.0885092
0.0883081
0.0877588
0.0868538
0.0855872
0.0839553
0.0819558
0.0795885
0.0768545
0.0737569
0.0702996
0.0664857
0.0623203
0.0578444
0.0530956
0.0476339
0.0410929
0.0171958
0.0104817
0.0049485
0.000209221
-0.00420471
-0.00826679
-0.0119464
-0.0152494
-0.0181838
-0.0207556
-0.0229722
-0.0248415
-0.0263718
-0.027572
-0.0284514
-0.0290195
-0.0292867
-0.0292636
-0.0289604
-0.0283868
-0.0275525
-0.026467
-0.0251404
-0.0235831
-0.0218048
-0.0198148
-0.0176223
-0.0152368
-0.0126684
-0.00992766
-0.00702579
-0.00397397
-0.000782996
0.00253643
0.00597323
0.0095158
0.0131522
0.0168699
0.0206564
0.0244983
0.0283821
0.0322938
0.0362187
0.040141
0.0440446
0.0479138
0.0517322
0.0554831
0.0591493
0.062713
0.0661555
0.0694576
0.0726001
0.0755642
0.0783315
0.0808835
0.0832019
0.0852686
0.0870657
0.0885761
0.0897838
0.0906736
0.0912312
0.0914432
0.0912974
0.090784
0.0898945
0.0886225
0.0869633
0.084914
0.0824739
0.0796438
0.0764265
0.0728258
0.0688446
0.0644884
0.0598002
0.0548197
0.0490838
0.0422079
0.0147999
0.00778918
0.00201624
-0.00292283
-0.0075175
-0.0117402
-0.0155591
-0.0189808
-0.0220138
-0.0246655
-0.0269437
-0.0288569
-0.0304144
-0.0316258
-0.0325014
-0.0330521
-0.0332893
-0.0332241
-0.032867
-0.0322284
-0.0313186
-0.0301486
-0.0287292
-0.0270711
-0.0251844
-0.0230787
-0.0207638
-0.0182497
-0.015547
-0.0126665
-0.00961947
-0.00641718
-0.00307061
0.000409126
0.0040105
0.00772161
0.0115305
0.0154249
0.0193923
0.0234193
0.0274922
0.0315966
0.0357173
0.0398382
0.043943
0.0480156
0.0520394
0.055997
0.0598704
0.0636409
0.0672891
0.0707951
0.0741391
0.0773012
0.0802615
0.0830001
0.0854972
0.0877333
0.0896896
0.0913478
0.0926906
0.0937012
0.0943636
0.0946628
0.0945853
0.0941198
0.0932568
0.091989
0.0903105
0.0882179
0.0857097
0.0827865
0.0794507
0.075706
0.0715552
0.0670039
0.0620975
0.0568773
0.0508568
0.0436313
0.0120104
0.00469456
-0.00132425
-0.0064673
-0.0112457
-0.0156307
-0.0195894
-0.0231294
-0.02626
-0.0289891
-0.0313252
-0.0332776
-0.0348565
-0.0360727
-0.036938
-0.0374644
-0.0376637
-0.0375475
-0.0371272
-0.0364138
-0.0354191
-0.0341549
-0.0326324
-0.0308627
-0.0288565
-0.0266239
-0.0241754
-0.0215217
-0.0186734
-0.0156416
-0.0124375
-0.00907258
-0.00555825
-0.00190604
0.00187217
0.00576441
0.00975881
0.0138434
0.0180054
0.0222314
0.0265073
0.0308185
0.0351495
0.0394841
0.0438057
0.0480979
0.0523435
0.0565244
0.0606218
0.0646163
0.0684879
0.0722161
0.0757801
0.0791588
0.082331
0.0852749
0.0879695
0.0903938
0.0925279
0.0943521
0.0958475
0.0969958
0.0977791
0.0981808
0.098186
0.0977818
0.0969577
0.0957048
0.0940163
0.0918877
0.0893172
0.0863047
0.0828522
0.0789631
0.0746403
0.0698897
0.0647588
0.0592908
0.0529742
0.0453837
0.00880492
0.00117479
-0.00509631
-0.0104476
-0.0154128
-0.019962
-0.0240615
-0.0277194
-0.0309457
-0.0337488
-0.0361382
-0.0381244
-0.0397186
-0.0409332
-0.0417811
-0.0422748
-0.0424271
-0.0422502
-0.0417566
-0.0409586
-0.0398688
-0.0384996
-0.0368628
-0.03497
-0.0328325
-0.0304614
-0.0278679
-0.025063
-0.0220574
-0.018862
-0.0154884
-0.0119486
-0.00825425
-0.00441722
-0.00044955
0.00363683
0.00783019
0.0121185
0.0164891
0.020928
0.0254211
0.0299534
0.0345097
0.0390734
0.043628
0.0481562
0.0526402
0.0570613
0.0614
0.0656364
0.0697499
0.0737191
0.0775223
0.0811371
0.0845407
0.0877099
0.0906219
0.0932546
0.0955864
0.0975962
0.0992634
0.100568
0.10149
0.102011
0.102115
0.101787
0.101015
0.0997891
0.098101
0.0959454
0.0933193
0.0902221
0.086655
0.0826216
0.0781248
0.0731707
0.0678089
0.0620846
0.0554596
0.047488
0.00515962
-0.00279437
-0.00932444
-0.0148888
-0.0200441
-0.0247598
-0.0290006
-0.0327752
-0.0360946
-0.0389678
-0.0414055
-0.0434195
-0.0450227
-0.0462284
-0.0470504
-0.0475021
-0.0475971
-0.0473491
-0.0467718
-0.0458785
-0.0446825
-0.0431966
-0.0414334
-0.0394051
-0.0371243
-0.0346028
-0.0318522
-0.0288838
-0.0257083
-0.0223368
-0.0187812
-0.015054
-0.0111672
-0.00713277
-0.0029626
0.00133139
0.00573742
0.0102434
0.0148364
0.0195024
0.024227
0.0289953
0.0337921
0.0386008
0.0434045
0.0481853
0.0529248
0.0576034
0.0622015
0.0666983
0.0710728
0.0753028
0.0793652
0.0832364
0.086892
0.0903074
0.0934583
0.0963209
0.0988719
0.101088
0.102948
0.104428
0.105508
0.106168
0.106388
0.106153
0.105449
0.104264
0.102588
0.100416
0.0977419
0.0945652
0.0908867
0.0867097
0.0820373
0.0768754
0.0712758
0.0652862
0.0583401
0.0499699
0.00104949
-0.00723879
-0.0140353
-0.0198177
-0.0251669
-0.0300508
-0.0344329
-0.0383225
-0.0417316
-0.0446705
-0.0471512
-0.049187
-0.0507918
-0.0519799
-0.0527662
-0.0531653
-0.0531923
-0.0528622
-0.0521899
-0.0511895
-0.0498749
-0.0482595
-0.0463569
-0.0441806
-0.041744
-0.0390595
-0.0361391
-0.0329941
-0.0296356
-0.0260751
-0.0223249
-0.0183978
-0.0143059
-0.0100609
-0.00567487
-0.00115958
0.00347298
0.00821049
0.0130398
0.0179471
0.0229178
0.0279374
0.0329904
0.0380601
0.0431294
0.0481797
0.053192
0.0581463
0.0630223
0.0677989
0.0724542
0.0769652
0.0813077
0.0854566
0.089386
0.09307
0.0964825
0.099598
0.102391
0.104837
0.106912
0.108591
0.10985
0.110668
0.111025
0.110901
0.110282
0.109153
0.107503
0.105325
0.102613
0.099363
0.095577
0.0912581
0.0864087
0.0810349
0.0751908
0.0689261
0.0616457
0.0528582
-0.00355267
-0.0121864
-0.0192575
-0.0252632
-0.0308095
-0.0358629
-0.0403857
-0.0443882
-0.0478835
-0.0508835
-0.0534014
-0.0554516
-0.0570491
-0.0582097
-0.0589493
-0.0592846
-0.059232
-0.0588079
-0.058028
-0.0569072
-0.0554603
-0.0537018
-0.0516465
-0.0493091
-0.0467034
-0.0438424
-0.0407384
-0.0374032
-0.0338483
-0.0300858
-0.0261282
-0.0219882
-0.0176781
-0.0132093
-0.00859379
-0.00384352
0.00102931
0.00601217
0.0110919
0.0162548
0.0214866
0.0267728
0.0320978
0.0374448
0.0427962
0.0481331
0.053436
0.0586846
0.0638579
0.0689342
0.0738909
0.078704
0.0833483
0.0877972
0.0920235
0.0959996
0.0996978
0.103091
0.106151
0.108851
0.111165
0.113066
0.114529
0.115529
0.116043
0.116051
0.115536
0.11448
0.112872
0.110701
0.10796
0.104645
0.100757
0.0962988
0.0912718
0.0856821
0.0795866
0.0730371
0.0654084
0.056184
-0.00867605
-0.0176671
-0.025021
-0.0312552
-0.0370015