/*--------------------------------*- C++ -*----------------------------------*\
  =========                 |
  \\      /  F ield         | OpenFOAM: The Open Source CFD Toolbox
   \\    /   O peration     | Website:  https://openfoam.org
    \\  /    A nd           | Version:  7
     \\/     M anipulation  |
\*---------------------------------------------------------------------------*/
FoamFile
{
    version     2.0;
    format      ascii;
    class       surfaceScalarField;
    location    "0.05";
    object      phi;
}
// * * * * * * * * * * * * * * * * * * * * * * * * * * * * * * * * * * * * * //

dimensions      [0 3 -1 0 0 0 0];

internalField   nonuniform List<scalar> 
12640
(
1.71381e-10
-1.71364e-10
5.16852e-10
-3.45457e-10
8.46265e-10
-3.29416e-10
1.02344e-09
-1.77196e-10
9.84326e-10
3.91048e-11
7.05912e-10
2.78438e-10
1.85195e-10
5.20712e-10
-5.69774e-10
7.54968e-10
-1.54555e-09
9.75774e-10
-2.72514e-09
1.17957e-09
-4.09005e-09
1.3649e-09
-5.62094e-09
1.53089e-09
-7.29795e-09
1.67701e-09
-9.10126e-09
1.8033e-09
-1.10113e-08
1.91004e-09
-1.3009e-08
1.99763e-09
-1.50756e-08
2.0666e-09
-1.71931e-08
2.1175e-09
-1.9344e-08
2.15089e-09
-2.15116e-08
2.16765e-09
-2.368e-08
2.16839e-09
-2.58337e-08
2.15373e-09
-2.79581e-08
2.1244e-09
-3.00393e-08
2.08118e-09
-3.2064e-08
2.02471e-09
-3.40197e-08
1.95573e-09
-3.58947e-08
1.87503e-09
-3.76782e-08
1.78343e-09
-3.93599e-08
1.68175e-09
-4.09306e-08
1.57067e-09
-4.23814e-08
1.45082e-09
-4.37044e-08
1.32298e-09
-4.48923e-08
1.18793e-09
-4.59387e-08
1.0464e-09
-4.68379e-08
8.99135e-10
-4.75847e-08
7.46861e-10
-4.81751e-08
5.90369e-10
-4.86056e-08
4.30521e-10
-4.88737e-08
2.68152e-10
-4.89778e-08
1.03998e-10
-4.89167e-08
-6.11137e-11
-4.86904e-08
-2.26276e-10
-4.82996e-08
-3.90767e-10
-4.77458e-08
-5.53851e-10
-4.70312e-08
-7.14527e-10
-4.61594e-08
-8.71808e-10
-4.51346e-08
-1.02486e-09
-4.39618e-08
-1.17277e-09
-4.26472e-08
-1.3146e-09
-4.11977e-08
-1.44948e-09
-3.96213e-08
-1.57647e-09
-3.79268e-08
-1.69447e-09
-3.61243e-08
-1.80246e-09
-3.42247e-08
-1.89967e-09
-3.22394e-08
-1.98522e-09
-3.01813e-08
-2.05811e-09
-2.8064e-08
-2.11736e-09
-2.59018e-08
-2.16216e-09
-2.37101e-08
-2.19171e-09
-2.15049e-08
-2.20518e-09
-1.93031e-08
-2.2018e-09
-1.71222e-08
-2.18094e-09
-1.49801e-08
-2.14207e-09
-1.28955e-08
-2.08468e-09
-1.08872e-08
-2.00831e-09
-8.97448e-09
-1.91268e-09
-7.17679e-09
-1.79769e-09
-5.51342e-09
-1.66337e-09
-4.00349e-09
-1.50993e-09
-2.66559e-09
-1.3379e-09
-1.51723e-09
-1.14837e-09
-5.74212e-10
-9.43015e-10
1.50156e-10
-7.24373e-10
6.46536e-10
-4.96386e-10
9.11948e-10
-2.65413e-10
9.53994e-10
-4.2041e-11
7.97967e-10
1.56029e-10
4.99586e-10
2.98377e-10
1.69873e-10
3.29712e-10
1.69877e-10
2.95101e-10
-4.66449e-10
7.37611e-10
-7.88006e-10
1.03918e-09
-6.30949e-10
9.7748e-10
-1.15501e-10
4.16223e-10
6.00386e-10
-7.14155e-10
1.40876e-09
-2.43766e-09
2.24424e-09
-4.75012e-09
3.0674e-09
-7.62848e-09
3.85415e-09
-1.10384e-08
4.58956e-09
-1.4938e-08
5.26447e-09
-1.92804e-08
5.87328e-09
-2.40164e-08
6.41301e-09
-2.90953e-08
6.88223e-09
-3.44659e-08
7.28059e-09
-4.00771e-08
7.60887e-09
-4.58787e-08
7.86823e-09
-5.18215e-08
8.06025e-09
-5.78576e-08
8.18696e-09
-6.39406e-08
8.25069e-09
-7.0026e-08
8.2537e-09
-7.60707e-08
8.19843e-09
-8.20338e-08
8.08752e-09
-8.78763e-08
7.92362e-09
-9.3561e-08
7.70937e-09
-9.90527e-08
7.44749e-09
-1.04319e-07
7.14089e-09
-1.09328e-07
6.79248e-09
-1.14051e-07
6.40515e-09
-1.18462e-07
5.98168e-09
-1.22536e-07
5.52482e-09
-1.2625e-07
5.03744e-09
-1.29585e-07
4.52242e-09
-1.32521e-07
3.98259e-09
-1.35043e-07
3.42081e-09
-1.37136e-07
2.8401e-09
-1.38789e-07
2.24346e-09
-1.39993e-07
1.6339e-09
-1.40739e-07
1.01451e-09
-1.41023e-07
3.88459e-10
-1.40843e-07
-2.41149e-10
-1.40198e-07
-8.71195e-10
-1.39091e-07
-1.4985e-09
-1.37525e-07
-2.11983e-09
-1.35508e-07
-2.73178e-09
-1.33049e-07
-3.3308e-09
-1.3016e-07
-3.91342e-09
-1.26857e-07
-4.47625e-09
-1.23155e-07
-5.01582e-09
-1.19076e-07
-5.5285e-09
-1.14642e-07
-6.01065e-09
-1.09878e-07
-6.45863e-09
-1.04812e-07
-6.86881e-09
-9.94736e-08
-7.2377e-09
-9.3897e-08
-7.56185e-09
-8.81172e-08
-7.83787e-09
-8.21722e-08
-8.06237e-09
-7.61023e-08
-8.23214e-09
-6.99499e-08
-8.34412e-09
-6.37596e-08
-8.39544e-09
-5.75779e-08
-8.38349e-09
-5.14529e-08
-8.30597e-09
-4.54341e-08
-8.16089e-09
-3.95722e-08
-7.94661e-09
-3.39185e-08
-7.66195e-09
-2.8525e-08
-7.30624e-09
-2.34432e-08
-6.87946e-09
-1.87243e-08
-6.38234e-09
-1.44175e-08
-5.81665e-09
-1.05699e-08
-5.18556e-09
-7.2241e-09
-4.49414e-09
-4.41717e-09
-3.74996e-09
-2.17737e-09
-2.96417e-09
-5.20441e-10
-2.1533e-09
5.56155e-10
-1.342e-09
1.08168e-09
-5.67575e-10
1.12442e-09
1.13296e-10
8.08032e-10
6.14778e-10
3.30582e-10
8.07167e-10
5.00475e-10
2.29044e-10
-6.95496e-10
4.49053e-10
-1.00798e-09
3.46993e-10
-5.28899e-10
-3.20014e-10
5.51519e-10
-1.71536e-09
1.99572e-09
-3.93206e-09
3.6255e-09
-7.01033e-09
5.32252e-09
-1.09522e-08
7.0092e-09
-1.57322e-08
8.63413e-09
-2.13063e-08
1.01637e-08
-2.76174e-08
1.15755e-08
-3.45998e-08
1.28557e-08
-4.2182e-08
1.39952e-08
-5.0289e-08
1.49892e-08
-5.88444e-08
1.58359e-08
-6.77707e-08
1.65351e-08
-7.6991e-08
1.70885e-08
-8.64295e-08
1.74988e-08
-9.6012e-08
1.77695e-08
-1.05666e-07
1.79048e-08
-1.15322e-07
1.79095e-08
-1.24912e-07
1.77886e-08
-1.34372e-07
1.75475e-08
-1.4364e-07
1.71916e-08
-1.52658e-07
1.67268e-08
-1.61369e-07
1.61589e-08
-1.69722e-07
1.54939e-08
-1.77667e-07
1.47379e-08
-1.85159e-07
1.38971e-08
-1.92155e-07
1.29777e-08
-1.98616e-07
1.19856e-08
-2.04506e-07
1.09273e-08
-2.09792e-07
9.8087e-09
-2.14446e-07
8.63627e-09
-2.18441e-07
7.41635e-09
-2.21757e-07
6.15533e-09
-2.24373e-07
4.85969e-09
-2.26275e-07
3.53608e-09
-2.27452e-07
2.19122e-09
-2.27895e-07
8.31824e-10
-2.27601e-07
-5.3525e-10
-2.26569e-07
-1.90309e-09
-2.24803e-07
-3.26473e-09
-2.2231e-07
-4.61299e-09
-2.19101e-07
-5.94051e-09
-2.15192e-07
-7.23982e-09
-2.10602e-07
-8.50341e-09
-2.05355e-07
-9.72371e-09
-1.99477e-07
-1.08931e-08
-1.93002e-07
-1.20039e-08
-1.85964e-07
-1.30483e-08
-1.78404e-07
-1.40185e-08
-1.70367e-07
-1.49067e-08
-1.61899e-07
-1.57054e-08
-1.53053e-07
-1.64073e-08
-1.43886e-07
-1.70049e-08
-1.34458e-07
-1.74912e-08
-1.2483e-07
-1.78594e-08
-1.15071e-07
-1.81032e-08
-1.0525e-07
-1.82166e-08
-9.54393e-08
-1.81943e-08
-8.57139e-08
-1.80314e-08
-7.61507e-08
-1.77241e-08
-6.68281e-08
-1.72692e-08
-5.78252e-08
-1.66648e-08
-4.92214e-08
-1.591e-08
-4.10953e-08
-1.50056e-08
-3.35237e-08
-1.3954e-08
-2.658e-08
-1.27603e-08
-2.0333e-08
-1.14326e-08
-1.48442e-08
-9.98293e-09
-1.01651e-08
-8.42906e-09
-6.33311e-09
-6.79615e-09
-3.36638e-09
-5.12003e-09
-1.25664e-09
-3.45175e-09
4.02073e-11
-1.86442e-09
6.1633e-10
-4.62813e-10
6.26154e-10
6.04954e-10
3.02839e-10
1.13048e-09
8.03331e-10
8.33464e-11
-7.78863e-10
-8.18221e-11
-8.42832e-10
-7.93881e-10
1.83153e-10
-2.28497e-09
2.04266e-09
-4.71709e-09
4.42777e-09
-8.18772e-09
7.09615e-09
-1.27418e-08
9.8766e-09
-1.83826e-08
1.265e-08
-2.50822e-08
1.53338e-08
-3.27895e-08
1.78709e-08
-4.14361e-08
2.02222e-08
-5.09418e-08
2.23613e-08
-6.12177e-08
2.42711e-08
-7.21698e-08
2.59414e-08
-8.37005e-08
2.73666e-08
-9.57107e-08
2.85453e-08
-1.08101e-07
2.94788e-08
-1.20773e-07
3.01705e-08
-1.33629e-07
3.06256e-08
-1.46574e-07
3.08505e-08
-1.59518e-07
3.08526e-08
-1.72369e-07
3.064e-08
-1.85043e-07
3.02216e-08
-1.97458e-07
2.96066e-08
-2.09536e-07
2.88045e-08
-2.21202e-07
2.78255e-08
-2.32388e-07
2.66794e-08
-2.43027e-07
2.53769e-08
-2.53058e-07
2.39281e-08
-2.62424e-07
2.23438e-08
-2.71073e-07
2.06344e-08
-2.78956e-07
1.88106e-08
-2.8603e-07
1.68832e-08
-2.92257e-07
1.48631e-08
-2.97602e-07
1.27612e-08
-3.02035e-07
1.05886e-08
-3.05532e-07
8.35663e-09
-3.08073e-07
6.07651e-09
-3.09641e-07
3.7598e-09
-3.10228e-07
1.41824e-09
-3.09827e-07
-9.3636e-10
-3.08438e-07
-3.29201e-09
-3.06066e-07
-5.6366e-09
-3.02721e-07
-7.95776e-09
-2.98419e-07
-1.02428e-08
-2.9318e-07
-1.2479e-08
-2.8703e-07
-1.46534e-08
-2.80001e-07
-1.67529e-08
-2.72129e-07
-1.87646e-08
-2.63458e-07
-2.0675e-08
-2.54035e-07
-2.2471e-08
-2.43915e-07
-2.41392e-08
-2.33155e-07
-2.56666e-08
-2.2182e-07
-2.70403e-08
-2.09979e-07
-2.82476e-08
-1.97708e-07
-2.92762e-08
-1.85085e-07
-3.01141e-08
-1.72194e-07
-3.07501e-08
-1.59124e-07
-3.11734e-08
-1.45967e-07
-3.13743e-08
-1.32817e-07
-3.1344e-08
-1.19773e-07
-3.10749e-08
-1.06937e-07
-3.05606e-08
-9.44095e-08
-2.97965e-08
-8.22944e-08
-2.87799e-08
-7.0694e-08
-2.75104e-08
-5.97095e-08
-2.59901e-08
-4.94387e-08
-2.42248e-08
-3.99748e-08
-2.22242e-08
-3.14039e-08
-2.00035e-08
-2.38019e-08
-1.75849e-08
-1.72314e-08
-1.49996e-08
-1.17369e-08
-1.22906e-08
-7.33922e-09
-9.51771e-09
-4.02825e-09
-6.76271e-09
-1.75429e-09
-4.13836e-09
-4.17557e-10
-1.79955e-09
1.43608e-10
4.37794e-11
1.66736e-10
1.10735e-09
9.70073e-10
-1.03018e-10
-6.75846e-10
-7.51915e-10
-1.93904e-10
-2.20396e-09
1.63519e-09
-4.66165e-09
4.50032e-09
-8.2687e-09
8.03486e-09
-1.31131e-08
1.19405e-08
-1.92344e-08
1.59978e-08
-2.66315e-08
2.00472e-08
-3.52715e-08
2.39738e-08
-4.50957e-08
2.76951e-08
-5.60259e-08
3.11524e-08
-6.79698e-08
3.43052e-08
-8.08243e-08
3.71257e-08
-9.44794e-08
3.95965e-08
-1.0882e-07
4.17073e-08
-1.23729e-07
4.34542e-08
-1.39087e-07
4.48372e-08
-1.54777e-07
4.58603e-08
-1.70682e-07
4.653e-08
-1.86686e-07
4.68549e-08
-2.02679e-07
4.68453e-08
-2.18552e-07
4.65129e-08
-2.342e-07
4.58704e-08
-2.49525e-07
4.49314e-08
-2.64431e-07
4.371e-08
-2.78826e-07
4.22209e-08
-2.92626e-07
4.04793e-08
-3.0575e-07
3.85005e-08
-3.18122e-07
3.63003e-08
-3.29672e-07
3.38945e-08
-3.40337e-07
3.12992e-08
-3.50057e-07
2.85305e-08
-3.58779e-07
2.56047e-08
-3.66454e-07
2.25382e-08
-3.73041e-07
1.9348e-08
-3.78503e-07
1.60507e-08
-3.82809e-07
1.26634e-08
-3.85936e-07
9.20335e-09
-3.87865e-07
5.68805e-09
-3.88582e-07
2.13532e-09
-3.88081e-07
-1.43692e-09
-3.86363e-07
-5.01047e-09
-3.83432e-07
-8.56678e-09
-3.79303e-07
-1.2087e-08
-3.73994e-07
-1.55522e-08
-3.6753e-07
-1.89428e-08
-3.59944e-07
-2.22394e-08
-3.51275e-07
-2.54223e-08
-3.41568e-07
-2.84716e-08
-3.30875e-07
-3.13673e-08
-3.19257e-07
-3.40895e-08
-3.06778e-07
-3.66182e-08
-2.93511e-07
-3.89339e-08
-2.79534e-07
-4.10171e-08
-2.64933e-07
-4.28489e-08
-2.49798e-07
-4.44109e-08
-2.34227e-07
-4.56855e-08
-2.18321e-07
-4.66559e-08
-2.02188e-07
-4.73064e-08
-1.8594e-07
-4.76227e-08
-1.69691e-07
-4.75921e-08
-1.53563e-07
-4.72037e-08
-1.37674e-07
-4.64488e-08
-1.2215e-07
-4.53211e-08
-1.07112e-07
-4.38176e-08
-9.26839e-08
-4.19386e-08
-7.89852e-08
-3.96889e-08
-6.61317e-08
-3.70782e-08
-5.42331e-08
-3.41228e-08
-4.33896e-08
-3.0847e-08
-3.36896e-08
-2.72849e-08
-2.52053e-08
-2.34838e-08
-1.79885e-08
-1.95075e-08
-1.20647e-08
-1.54415e-08
-7.42704e-09
-1.14004e-08
-4.02854e-09
-7.53687e-09
-1.77414e-09
-4.05396e-09
-5.11849e-10
-1.2185e-09
-2.2786e-11
6.18283e-10
9.47282e-10
-3.11374e-10
-3.64456e-10
-1.50099e-09
9.95665e-10
-3.77296e-09
3.90717e-09
-7.28832e-09
8.01571e-09
-1.21621e-08
1.29085e-08
-1.84629e-08
1.82414e-08
-2.62173e-08
2.37522e-08
-3.54147e-08
2.92446e-08
-4.6013e-08
3.45721e-08
-5.79447e-08
3.96267e-08
-7.11219e-08
4.43297e-08
-8.5441e-08
4.86242e-08
-1.00786e-07
5.24711e-08
-1.17034e-07
5.58441e-08
-1.34054e-07
5.87274e-08
-1.51713e-07
6.11134e-08
-1.69877e-07
6.30005e-08
-1.88409e-07
6.43924e-08
-2.07176e-07
6.5297e-08
-2.26046e-07
6.57248e-08
-2.4489e-07
6.56894e-08
-2.63583e-07
6.52062e-08
-2.82005e-07
6.4292e-08
-3.00039e-07
6.29652e-08
-3.17574e-07
6.12452e-08
-3.34505e-07
5.91521e-08
-3.50732e-07
5.67065e-08
-3.66162e-07
5.39298e-08
-3.80705e-07
5.08438e-08
-3.94281e-07
4.74705e-08
-4.06814e-07
4.38321e-08
-4.18235e-07
3.99514e-08
-4.28481e-07
3.5851e-08
-4.37497e-07
3.15542e-08
-4.45233e-07
2.70842e-08
-4.51647e-07
2.24647e-08
-4.56703e-07
1.77195e-08
-4.60373e-07
1.28728e-08
-4.62634e-07
7.94914e-09
-4.63472e-07
2.97336e-09
-4.62879e-07
-2.02931e-09
-4.60857e-07
-7.03332e-09
-4.57411e-07
-1.20128e-08
-4.52556e-07
-1.69414e-08
-4.46316e-07
-2.17924e-08
-4.3872e-07
-2.65387e-08
-4.29806e-07
-3.11533e-08
-4.1962e-07
-3.56084e-08
-4.08215e-07
-3.98765e-08
-3.95653e-07
-4.39298e-08
-3.82002e-07
-4.77405e-08
-3.67339e-07
-5.12811e-08
-3.51748e-07
-5.45244e-08
-3.35322e-07
-5.74434e-08
-3.18159e-07
-6.00122e-08
-3.00364e-07
-6.22052e-08
-2.82052e-07
-6.39984e-08
-2.63339e-07
-6.53688e-08
-2.4435e-07
-6.62951e-08
-2.25215e-07
-6.67581e-08
-2.06066e-07
-6.67405e-08
-1.87042e-07
-6.6228e-08
-1.68281e-07
-6.52093e-08
-1.49926e-07
-6.36769e-08
-1.32116e-07
-6.16276e-08
-1.14991e-07
-5.9063e-08
-9.8689e-08
-5.59911e-08
-8.33402e-08
-5.2427e-08
-6.90685e-08
-4.83945e-08
-5.59873e-08
-4.39282e-08
-4.4196e-08
-3.90762e-08
-3.37769e-08
-3.3903e-08
-2.479e-08
-2.84944e-08
-1.72688e-08
-2.29627e-08
-1.12144e-08
-1.74548e-08
-6.59007e-09
-1.21612e-08
-3.31488e-09
-7.32917e-09
-1.25859e-09
-3.27477e-09
-2.36358e-10
-4.03956e-10
7.10924e-10
-5.283e-10
1.63836e-10
-2.28775e-09
2.75513e-09
-5.42364e-09
7.04307e-09
-1.00502e-08
1.26423e-08
-1.62473e-08
1.91057e-08
-2.40583e-08
2.60523e-08
-3.34904e-08
3.31843e-08
-4.45184e-08
4.02726e-08
-5.70882e-08
4.7142e-08
-7.11214e-08
5.36599e-08
-8.6519e-08
5.97273e-08
-1.03166e-07
6.52715e-08
-1.20936e-07
7.02405e-08
-1.3969e-07
7.4599e-08
-1.59288e-07
7.83245e-08
-1.79579e-07
8.14052e-08
-2.00416e-07
8.38375e-08
-2.21649e-07
8.56246e-08
-2.43127e-07
8.6775e-08
-2.64704e-07
8.73017e-08
-2.86235e-07
8.72212e-08
-3.07582e-07
8.65526e-08
-3.28607e-07
8.53176e-08
-3.49182e-07
8.35397e-08
-3.6918e-07
8.12436e-08
-3.88483e-07
7.84555e-08
-4.0698e-07
7.52026e-08
-4.24562e-07
7.15125e-08
-4.41132e-07
6.74138e-08
-4.56597e-07
6.29354e-08
-4.70872e-07
5.81068e-08
-4.83878e-07
5.29577e-08
-4.95546e-07
4.75183e-08
-5.0581e-07
4.18191e-08
-5.14617e-07
3.58911e-08
-5.21918e-07
2.97654e-08
-5.27672e-07
2.34738e-08
-5.31848e-07
1.70481e-08
-5.34419e-07
1.0521e-08
-5.35371e-07
3.9254e-09
-5.34695e-07
-2.70542e-09
-5.32391e-07
-9.33761e-09
-5.28467e-07
-1.59368e-08
-5.2294e-07
-2.24682e-08
-5.15836e-07
-2.88964e-08
-5.07189e-07
-3.5186e-08
-4.97041e-07
-4.13008e-08
-4.85445e-07
-4.72045e-08
-4.72461e-07
-5.28607e-08
-4.58158e-07
-5.82329e-08
-4.42614e-07
-6.32845e-08
-4.25916e-07
-6.79794e-08
-4.08159e-07
-7.22818e-08
-3.89445e-07
-7.61567e-08
-3.69888e-07
-7.95698e-08
-3.49605e-07
-8.24881e-08
-3.28723e-07
-8.48802e-08
-3.07376e-07
-8.67163e-08
-2.85702e-07
-8.7969e-08
-2.63847e-07
-8.86134e-08
-2.41959e-07
-8.86279e-08
-2.20193e-07
-8.79943e-08
-1.98703e-07
-8.66988e-08
-1.77648e-07
-8.47326e-08
-1.57183e-07
-8.20924e-08
-1.37464e-07
-7.8782e-08
-1.18642e-07
-7.4813e-08
-1.00862e-07
-7.02065e-08
-8.42621e-08
-6.49947e-08
-6.89665e-08
-5.92238e-08
-5.50865e-08
-5.29562e-08
-4.27149e-08
-4.62746e-08
-3.19224e-08
-3.92869e-08
-2.27534e-08
-3.21317e-08
-1.52217e-08
-2.49865e-08
-9.30627e-09
-1.80766e-08
-4.9478e-09
-1.16877e-08
-2.0458e-09
-6.17676e-09
-4.57846e-10
-1.99191e-09
2.5308e-10
-7.46162e-10
9.10001e-10
-3.08533e-09
5.09427e-09
-7.10452e-09
1.10623e-08
-1.28695e-08
1.84072e-08
-2.04213e-08
2.66576e-08
-2.97733e-08
3.54043e-08
-4.091e-08
4.4321e-08
-5.37876e-08
5.31502e-08
-6.8337e-08
6.16913e-08
-8.44661e-08
6.9789e-08
-1.02064e-07
7.73252e-08
-1.21004e-07
8.42113e-08
-1.41146e-07
9.0383e-08
-1.62342e-07
9.57952e-08
-1.84437e-07
1.00419e-07
-2.07268e-07
1.04237e-07
-2.30675e-07
1.07244e-07
-2.54493e-07
1.09443e-07
-2.7856e-07
1.10842e-07
-3.02714e-07
1.11456e-07
-3.26799e-07
1.11306e-07
-3.50661e-07
1.10414e-07
-3.74151e-07
1.08807e-07
-3.97125e-07
1.06514e-07
-4.19448e-07
1.03566e-07
-4.40987e-07
9.99948e-08
-4.61619e-07
9.58347e-08
-4.81227e-07
9.11205e-08
-4.99702e-07
8.58884e-08
-5.16941e-07
8.01746e-08
-5.32851e-07
7.40164e-08
-5.47344e-07
6.74515e-08
-5.60345e-07
6.05183e-08
-5.71781e-07
5.32555e-08
-5.81592e-07
4.57022e-08
-5.89725e-07
3.78981e-08
-5.96135e-07
2.98836e-08
-6.00786e-07
2.16992e-08
-6.03651e-07
1.33863e-08
-6.04712e-07
4.9868e-09
-6.03961e-07
-3.45703e-09
-6.01396e-07
-1.19021e-08
-5.97028e-07
-2.03048e-08
-5.90875e-07
-2.8621e-08
-5.82966e-07
-3.68058e-08
-5.73338e-07
-4.48142e-08
-5.62038e-07
-5.26003e-08
-5.49124e-07
-6.01184e-08
-5.34663e-07
-6.73222e-08
-5.1873e-07
-7.41654e-08
-5.01413e-07
-8.06022e-08
-4.82805e-07
-8.65868e-08
-4.63013e-07
-9.20742e-08
-4.42149e-07
-9.70201e-08
-4.20338e-07
-1.01382e-07
-3.97708e-07
-1.05117e-07
-3.744e-07
-1.08188e-07
-3.5056e-07
-1.10557e-07
-3.2634e-07
-1.12189e-07
-3.019e-07
-1.13054e-07
-2.77403e-07
-1.13125e-07
-2.53017e-07
-1.12381e-07
-2.28911e-07
-1.10804e-07
-2.05258e-07
-1.08386e-07
-1.82229e-07
-1.05122e-07
-1.59992e-07
-1.01019e-07
-1.38713e-07
-9.6092e-08
-1.1855e-07
-9.03695e-08
-9.96528e-08
-8.38922e-08
-8.21586e-08
-7.6718e-08
-6.61905e-08
-6.89243e-08
-5.18533e-08
-6.06117e-08
-3.92306e-08
-5.19096e-08
-2.83806e-08
-4.29817e-08
-1.93337e-08
-3.40334e-08
-1.20894e-08
-2.5321e-08
-6.61444e-09
-1.71626e-08
-2.84302e-09
-9.94818e-09
-6.78513e-10
-4.15642e-09
-4.25436e-10
-9.60397e-10
1.87039e-09
-3.87784e-09
8.01172e-09
-8.78357e-09
1.5968e-08
-1.56953e-08
2.53189e-08
-2.46144e-08
3.55766e-08
-3.55222e-08
4.63121e-08
-4.83769e-08
5.71758e-08
-6.31137e-08
6.7887e-08
-7.96454e-08
7.8223e-08
-9.78647e-08
8.80083e-08
-1.17647e-07
9.71073e-08
-1.38852e-07
1.05417e-07
-1.61329e-07
1.1286e-07
-1.84916e-07
1.19382e-07
-2.09446e-07
1.24948e-07
-2.34745e-07
1.29537e-07
-2.6064e-07
1.33139e-07
-2.86953e-07
1.35756e-07
-3.13511e-07
1.37399e-07
-3.40139e-07
1.38085e-07
-3.66669e-07
1.37835e-07
-3.92933e-07
1.36679e-07
-4.18773e-07
1.34647e-07
-4.44033e-07
1.31774e-07
-4.68564e-07
1.28097e-07
-4.92226e-07
1.23656e-07
-5.14883e-07
1.18492e-07
-5.3641e-07
1.12647e-07
-5.56687e-07
1.06166e-07
-5.75604e-07
9.90919e-08
-5.9306e-07
9.14717e-08
-6.08959e-07
8.33513e-08
-6.23219e-07
7.47778e-08
-6.35762e-07
6.57987e-08
-6.46522e-07
5.64624e-08
-6.55442e-07
4.68177e-08
-6.62472e-07
3.69141e-08
-6.67575e-07
2.68019e-08
-6.70721e-07
1.65317e-08
-6.71889e-07
6.15525e-09
-6.71071e-07
-4.27538e-09
-6.68266e-07
-1.47072e-08
-6.63484e-07
-2.50864e-08
-6.56746e-07
-3.53588e-08
-6.48083e-07
-4.54692e-08
-6.37535e-07
-5.53622e-08
-6.25154e-07
-6.49816e-08
-6.11001e-07
-7.4271e-08
-5.95149e-07
-8.31738e-08
-5.77682e-07
-9.16333e-08
-5.58691e-07
-9.95931e-08
-5.3828e-07
-1.06997e-07
-5.16563e-07
-1.13791e-07
-4.93663e-07
-1.1992e-07
-4.69713e-07
-1.25332e-07
-4.44854e-07
-1.29976e-07
-4.19237e-07
-1.33806e-07
-3.93019e-07
-1.36774e-07
-3.66366e-07
-1.38842e-07
-3.39448e-07
-1.39971e-07
-3.12444e-07
-1.4013e-07
-2.85533e-07
-1.39292e-07
-2.58899e-07
-1.37438e-07
-2.32727e-07
-1.34558e-07
-2.07201e-07
-1.30647e-07
-1.82504e-07
-1.25716e-07
-1.58813e-07
-1.19783e-07
-1.363e-07
-1.12882e-07
-1.15127e-07
-1.05065e-07
-9.54448e-08
-9.64006e-08
-7.73885e-08
-8.69805e-08
-6.1077e-08
-7.69232e-08
-4.66084e-08
-6.63782e-08
-3.40578e-08
-5.55323e-08
-2.34752e-08
-4.4616e-08
-1.48835e-08
-3.39126e-08
-8.27918e-09
-2.37669e-08
-3.63287e-09
-1.45945e-08
-8.93995e-10
-6.89529e-09
-1.31944e-09
-1.16927e-09
3.03965e-09
-4.65622e-09
1.14987e-08
-1.04414e-08
2.17532e-08
-1.84963e-08
3.33738e-08
-2.87829e-08
4.58632e-08
-4.12492e-08
5.87784e-08
-5.58255e-08
7.17521e-08
-7.24237e-08
8.44851e-08
-9.09366e-08
9.67359e-08
-1.1124e-07
1.08312e-07
-1.33193e-07
1.19061e-07
-1.56643e-07
1.28866e-07
-1.81425e-07
1.37641e-07
-2.07365e-07
1.45322e-07
-2.34283e-07
1.51867e-07
-2.61995e-07
1.57249e-07
-2.90314e-07
1.61458e-07
-3.19053e-07
1.64495e-07
-3.48025e-07
1.66371e-07
-3.77044e-07
1.67104e-07
-4.05931e-07
1.66722e-07
-4.34509e-07
1.65257e-07
-4.62606e-07
1.62744e-07
-4.90057e-07
1.59225e-07
-5.16704e-07
1.54744e-07
-5.42395e-07
1.49347e-07
-5.66987e-07
1.43084e-07
-5.90344e-07
1.36005e-07
-6.1234e-07
1.28162e-07
-6.32856e-07
1.19608e-07
-6.51783e-07
1.10399e-07
-6.69022e-07
1.00589e-07
-6.8448e-07
9.02359e-08
-6.98077e-07
7.93958e-08
-7.09741e-07
6.81267e-08
-7.19411e-07
5.64875e-08
-7.27034e-07
4.45376e-08
-7.3257e-07
3.23373e-08
-7.35986e-07
1.99477e-08
-7.37261e-07
7.43054e-09
-7.36385e-07
-5.15135e-09
-7.33358e-07
-1.77344e-08
-7.2819e-07
-3.0254e-08
-7.20904e-07
-4.26451e-08
-7.11531e-07
-5.48417e-08
-7.00117e-07
-6.6777e-08
-6.86714e-07
-7.83839e-08
-6.71391e-07
-8.95946e-08
-6.54223e-07
-1.00341e-07
-6.353e-07
-1.10557e-07
-6.1472e-07
-1.20173e-07
-5.92595e-07
-1.29122e-07
-5.69046e-07
-1.37341e-07
-5.44203e-07
-1.44762e-07
-5.1821e-07
-1.51325e-07
-4.91216e-07
-1.5697e-07
-4.63383e-07
-1.61638e-07
-4.3488e-07
-1.65278e-07
-4.05882e-07
-1.6784e-07
-3.76572e-07
-1.69281e-07
-3.4714e-07
-1.69562e-07
-3.17777e-07
-1.68654e-07
-2.88681e-07
-1.66535e-07
-2.60048e-07
-1.63191e-07
-2.32075e-07
-1.5862e-07
-2.04958e-07
-1.52833e-07
-1.78887e-07
-1.45854e-07
-1.54047e-07
-1.37723e-07
-1.30612e-07
-1.285e-07
-1.08747e-07
-1.18266e-07
-8.86022e-08
-1.07126e-07
-7.03105e-08
-9.52148e-08
-5.39872e-08
-8.27016e-08
-3.97262e-08
-6.97933e-08
-2.75992e-08
-5.6743e-08
-1.76554e-08
-4.38564e-08
-9.92177e-09
-3.15005e-08
-4.40622e-09
-2.01101e-08
-1.10237e-09
-1.01991e-08
-2.42181e-09
-1.37166e-09
4.41131e-09
-5.41626e-09
1.55433e-08
-1.20681e-08
2.84049e-08
-2.12551e-08
4.25609e-08
-3.29013e-08
5.75094e-08
-4.69208e-08
7.2798e-08
-6.32156e-08
8.80469e-08
-8.16725e-08
1.02942e-07
-1.02163e-07
1.17226e-07
-1.24543e-07
1.30692e-07
-1.48657e-07
1.43175e-07
-1.74336e-07
1.54545e-07
-2.01401e-07
1.64706e-07
-2.29666e-07
1.73587e-07
-2.58938e-07
1.81139e-07
-2.89021e-07
1.87332e-07
-3.19717e-07
1.92154e-07
-3.50827e-07
1.95605e-07
-3.82153e-07
1.97697e-07
-4.135e-07
1.98451e-07
-4.44676e-07
1.97899e-07
-4.75495e-07
1.96076e-07
-5.05776e-07
1.93025e-07
-5.35344e-07
1.88793e-07
-5.6403e-07
1.83431e-07
-5.91676e-07
1.76993e-07
-6.18129e-07
1.69537e-07
-6.43246e-07
1.61122e-07
-6.66892e-07
1.51808e-07
-6.88943e-07
1.41659e-07
-7.09282e-07
1.30738e-07
-7.27803e-07
1.19111e-07
-7.44411e-07
1.06844e-07
-7.59019e-07
9.40037e-08
-7.71551e-07
8.0659e-08
-7.81942e-07
6.68786e-08
-7.90137e-07
5.27325e-08
-7.96092e-07
3.82917e-08
-7.99772e-07
2.36281e-08
-8.01156e-07
8.81444e-09
-8.00232e-07
-6.0753e-09
-7.97e-07
-2.09663e-08
-7.91471e-07
-3.57827e-08
-7.83669e-07
-5.04478e-08
-7.73627e-07
-6.48839e-08
-7.61391e-07
-7.90127e-08
-7.4702e-07
-9.2755e-08
-7.30583e-07
-1.06031e-07
-7.12162e-07
-1.18762e-07
-6.9185e-07
-1.30868e-07
-6.69753e-07
-1.4227e-07
-6.45987e-07
-1.52888e-07
-6.2068e-07
-1.62647e-07
-5.93972e-07
-1.71471e-07
-5.66012e-07
-1.79285e-07
-5.36961e-07
-1.86021e-07
-5.06987e-07
-1.91612e-07
-4.7627e-07
-1.95995e-07
-4.44996e-07
-1.99114e-07
-4.13358e-07
-2.00918e-07
-3.81558e-07
-2.01363e-07
-3.49798e-07
-2.00414e-07
-3.18287e-07
-1.98046e-07
-2.87234e-07
-1.94243e-07
-2.56849e-07
-1.89005e-07
-2.27339e-07
-1.82343e-07
-1.98908e-07
-1.74285e-07
-1.71754e-07
-1.64877e-07
-1.46065e-07
-1.54189e-07
-1.2202e-07
-1.4231e-07
-9.97846e-08
-1.29361e-07
-7.95091e-08
-1.1549e-07
-6.13266e-08
-1.00884e-07
-4.53517e-08
-8.57682e-08
-3.16798e-08
-7.04149e-08
-2.03872e-08
-5.51491e-08
-1.15322e-08
-4.03555e-08
-5.15913e-09
-2.64831e-08
-1.30305e-09
-1.40552e-08
-3.72484e-09
-1.56741e-09
5.97871e-09
-6.15662e-09
2.01325e-08
-1.36594e-08
3.59077e-08
-2.39639e-08
5.28654e-08
-3.6957e-08
7.05025e-08
-5.25204e-08
8.83613e-08
-7.05263e-08
1.06053e-07
-9.08359e-08
1.23252e-07
-1.13298e-07
1.39689e-07
-1.3775e-07
1.55144e-07
-1.64017e-07
1.69441e-07
-1.91913e-07
1.82442e-07
-2.21246e-07
1.94039e-07
-2.51816e-07
2.04157e-07
-2.83416e-07
2.1274e-07
-3.1584e-07
2.19756e-07
-3.48878e-07
2.25191e-07
-3.82318e-07
2.29045e-07
-4.15954e-07
2.31332e-07
-4.49579e-07
2.32077e-07
-4.82993e-07
2.31313e-07
-5.15998e-07
2.29081e-07
-5.48406e-07
2.25432e-07
-5.80031e-07
2.20418e-07
-6.10698e-07
2.14098e-07
-6.40239e-07
2.06534e-07
-6.68494e-07
1.97792e-07
-6.95314e-07
1.87941e-07
-7.20556e-07
1.7705e-07
-7.44089e-07
1.65192e-07
-7.65792e-07
1.52441e-07
-7.85553e-07
1.38872e-07
-8.03272e-07
1.24562e-07
-8.18857e-07
1.09589e-07
-8.32229e-07
9.4031e-08
-8.43319e-07
7.79686e-08
-8.52069e-07
6.14827e-08
-8.58433e-07
4.46554e-08
-8.62374e-07
2.75699e-08
-8.63871e-07
1.03106e-08
-8.62909e-07
-7.03702e-09
-8.59489e-07
-2.43862e-08
-8.53622e-07
-4.16494e-08
-8.45332e-07
-5.87376e-08
-8.34655e-07
-7.5561e-08
-8.21639e-07
-9.20289e-08
-8.06344e-07
-1.0805e-07
-7.88843e-07
-1.23532e-07
-7.69222e-07
-1.38384e-07
-7.47578e-07
-1.52512e-07
-7.24022e-07
-1.65826e-07
-6.98676e-07
-1.78235e-07
-6.71673e-07
-1.8965e-07
-6.43161e-07
-1.99983e-07
-6.13296e-07
-2.0915e-07
-5.82246e-07
-2.17071e-07
-5.5019e-07
-2.23669e-07
-5.17314e-07
-2.28871e-07
-4.83816e-07
-2.32612e-07
-4.49899e-07
-2.34835e-07
-4.15773e-07
-2.35489e-07
-3.81654e-07
-2.34533e-07
-3.47761e-07
-2.31939e-07
-3.14316e-07
-2.27689e-07
-2.81539e-07
-2.21782e-07
-2.49652e-07
-2.1423e-07
-2.18872e-07
-2.05065e-07
-1.89409e-07
-1.9434e-07
-1.61468e-07
-1.8213e-07
-1.35242e-07
-1.68536e-07
-1.10914e-07
-1.53689e-07
-8.86512e-08
-1.37753e-07
-6.86073e-08
-1.20928e-07
-5.09188e-08
-1.03457e-07
-3.57058e-08
-8.56279e-08
-2.3072e-08
-6.77828e-08
-1.31074e-08
-5.03201e-08
-5.89096e-09
-3.36996e-08
-1.49624e-09
-1.84499e-08
-5.22107e-09
-1.75721e-09
7.73593e-09
-6.87788e-09
2.52532e-08
-1.52156e-08
4.42454e-08
-2.66216e-08
6.42714e-08
-4.09474e-08
8.48283e-08
-5.80425e-08
1.05456e-07
-7.77505e-08
1.25761e-07
-9.99061e-08
1.45407e-07
-1.24335e-07
1.64117e-07
-1.50852e-07
1.81661e-07
-1.79265e-07
1.97854e-07
-2.09372e-07
2.12548e-07
-2.40963e-07
2.2563e-07
-2.73824e-07
2.37018e-07
-3.07737e-07
2.46653e-07
-3.42481e-07
2.545e-07
-3.77835e-07
2.60545e-07
-4.13578e-07
2.64788e-07
-4.49491e-07
2.67245e-07
-4.85359e-07
2.67945e-07
-5.20971e-07
2.66924e-07
-5.56121e-07
2.64232e-07
-5.90611e-07
2.59922e-07
-6.24249e-07
2.54056e-07
-6.56851e-07
2.46699e-07
-6.88241e-07
2.37924e-07
-7.18253e-07
2.27805e-07
-7.4673e-07
2.16418e-07
-7.73525e-07
2.03845e-07
-7.98501e-07
1.90167e-07
-8.2153e-07
1.7547e-07
-8.42497e-07
1.59839e-07
-8.61296e-07
1.43361e-07
-8.77832e-07
1.26125e-07
-8.92022e-07
1.08221e-07
-9.03795e-07
8.97414e-08
-9.1309e-07
7.07772e-08
-9.19857e-07
5.14227e-08
-9.2406e-07
3.1773e-08
-9.25674e-07
1.19243e-08
-9.24685e-07
-8.0257e-09
-9.21093e-07
-2.79781e-08
-9.1491e-07
-4.78328e-08
-9.06159e-07
-6.74883e-08
-8.94878e-07
-8.68422e-08
-8.81116e-07
-1.05791e-07
-8.64936e-07
-1.2423e-07
-8.46413e-07
-1.42055e-07
-8.25637e-07
-1.5916e-07
-8.02708e-07
-1.75441e-07
-7.77742e-07
-1.90793e-07
-7.50864e-07
-2.05112e-07
-7.22216e-07
-2.18298e-07
-6.91949e-07
-2.3025e-07
-6.60228e-07
-2.40872e-07
-6.27226e-07
-2.50073e-07
-5.93131e-07
-2.57764e-07
-5.58139e-07
-2.63863e-07
-5.22454e-07
-2.68297e-07
-4.86291e-07
-2.70998e-07
-4.4987e-07
-2.7191e-07
-4.13416e-07
-2.70987e-07
-3.77161e-07
-2.68194e-07
-3.41337e-07
-2.63513e-07
-3.0618e-07
-2.56939e-07
-2.71922e-07
-2.48488e-07
-2.38794e-07
-2.38193e-07
-2.07022e-07
-2.26112e-07
-1.76825e-07
-2.12327e-07
-1.48413e-07
-1.96948e-07
-1.21987e-07
-1.80116e-07
-9.77331e-08
-1.62007e-07
-7.5826e-08
-1.42835e-07
-5.64252e-08
-1.22857e-07
-3.96761e-08
-1.02377e-07
-2.57105e-08
-8.17485e-08
-1.46487e-08
-6.13818e-08
-6.60321e-09
-4.17451e-08
-1.68273e-09
-2.33704e-08
-6.90381e-09
-1.94163e-09
9.67755e-09
-7.58191e-09
3.08935e-08
-1.67397e-08
5.34032e-08
-2.92313e-08
7.67629e-08
-4.48756e-08
1.00473e-07
-6.3491e-08
1.24072e-07
-8.48917e-08
1.47161e-07
-1.08886e-07
1.69402e-07
-1.35276e-07
1.90507e-07
-1.63856e-07
2.10241e-07
-1.94412e-07
2.2841e-07
-2.26724e-07
2.4486e-07
-2.60568e-07
2.59474e-07
-2.95714e-07
2.72163e-07
-3.31929e-07
2.82868e-07
-3.68981e-07
2.91552e-07
-4.06636e-07
2.982e-07
-4.44663e-07
3.02815e-07
-4.82831e-07
3.05414e-07
-5.20917e-07
3.0603e-07
-5.58699e-07
3.04707e-07
-5.95964e-07
3.01497e-07
-6.32505e-07
2.96463e-07
-6.68122e-07
2.89672e-07
-7.02623e-07
2.81201e-07
-7.35828e-07
2.71129e-07
-7.67562e-07
2.59539e-07
-7.97663e-07
2.46519e-07
-8.25978e-07
2.3216e-07
-8.52365e-07
2.16554e-07
-8.76692e-07
1.99797e-07
-8.98838e-07
1.81985e-07
-9.18694e-07
1.63217e-07
-9.36162e-07
1.43593e-07
-9.51156e-07
1.23215e-07
-9.63601e-07
1.02186e-07
-9.73433e-07
8.06092e-08
-9.80601e-07
5.85914e-08
-9.85068e-07
3.62397e-08
-9.86806e-07
1.36625e-08
-9.85802e-07
-9.02987e-09
-9.82054e-07
-3.1726e-08
-9.75574e-07
-5.43128e-08
-9.66387e-07
-7.66759e-08
-9.54529e-07
-9.86996e-08
-9.40053e-07
-1.20267e-07
-9.23022e-07
-1.41261e-07
-9.03514e-07
-1.61563e-07
-8.81621e-07
-1.81053e-07
-8.57446e-07
-1.99615e-07
-8.3111e-07
-2.17129e-07
-8.02742e-07
-2.3348e-07
-7.72488e-07
-2.48552e-07
-7.40506e-07
-2.62232e-07
-7.06964e-07
-2.74413e-07
-6.72046e-07
-2.84991e-07
-6.35945e-07
-2.93865e-07
-5.98865e-07
-3.00943e-07
-5.6102e-07
-3.06142e-07
-5.22632e-07
-3.09386e-07
-4.83933e-07
-3.1061e-07
-4.45158e-07
-3.09761e-07
-4.06549e-07
-3.06802e-07
-3.68353e-07
-3.01709e-07
-3.30816e-07
-2.94476e-07
-2.94184e-07
-2.85119e-07
-2.58703e-07
-2.73674e-07
-2.24615e-07
-2.60201e-07
-1.92153e-07
-2.44788e-07
-1.61547e-07
-2.27554e-07
-1.33015e-07
-2.08648e-07
-1.06764e-07
-1.88258e-07
-8.29906e-08
-1.66609e-07
-6.1878e-08
-1.4397e-07
-4.35973e-08
-1.20658e-07
-2.83081e-08
-9.70376e-08
-1.61607e-08
-7.35292e-08
-7.29877e-09
-5.06071e-08
-1.86372e-09
-2.88054e-08
-8.76752e-09
-2.12171e-09
1.17992e-08
-8.27132e-09
3.70431e-08
-1.82357e-08
6.33677e-08
-3.17995e-08
9.03267e-08
-4.87497e-08
1.17423e-07
-6.88746e-08
1.44197e-07
-9.19602e-08
1.70247e-07
-1.17789e-07
1.9523e-07
-1.46137e-07
2.18856e-07
-1.76777e-07
2.40881e-07
-2.09475e-07
2.61108e-07
-2.43993e-07
2.79378e-07
-2.80089e-07
2.95569e-07
-3.17517e-07
3.09591e-07
-3.56031e-07
3.21382e-07
-3.95385e-07
3.30906e-07
-4.35333e-07
3.38148e-07
-4.75632e-07
3.43114e-07
-5.16042e-07
3.45824e-07
-5.56329e-07
3.46317e-07
-5.96263e-07
3.44641e-07
-6.35622e-07
3.40856e-07
-6.74191e-07
3.35031e-07
-7.11763e-07
3.27244e-07
-7.4814e-07
3.17578e-07
-7.83133e-07
3.06122e-07
-8.16564e-07
2.9297e-07
-8.48263e-07
2.78219e-07
-8.78074e-07
2.61971e-07
-9.05849e-07
2.44329e-07
-9.31452e-07
2.254e-07
-9.54759e-07
2.05292e-07
-9.75657e-07
1.84115e-07
-9.94044e-07
1.6198e-07
-1.00983e-06
1.39002e-07
-1.02294e-06
1.15295e-07
-1.03331e-06
9.09758e-08
-1.04088e-06
6.61624e-08
-1.04561e-06
4.09746e-08
-1.04748e-06
1.55338e-08
-1.04648e-06
-1.00373e-08
-1.04259e-06
-3.56139e-08
-1.03583e-06
-6.107e-08
-1.02623e-06
-8.62777e-08
-1.01382e-06
-1.11108e-07
-9.98658e-07
-1.3543e-07
-9.80806e-07
-1.59113e-07
-9.60344e-07
-1.82024e-07