/*--------------------------------*- C++ -*----------------------------------*\
  =========                 |
  \\      /  F ield         | OpenFOAM: The Open Source CFD Toolbox
   \\    /   O peration     | Website:  https://openfoam.org
    \\  /    A nd           | Version:  7
     \\/     M anipulation  |
\*---------------------------------------------------------------------------*/
FoamFile
{
    version     2.0;
    format      ascii;
    class       volVectorField;
    location    "0.05";
    object      U;
}
// * * * * * * * * * * * * * * * * * * * * * * * * * * * * * * * * * * * * * //

dimensions      [0 1 -1 0 0 0 0];

internalField   nonuniform List<vector> 
6400
(
(6.32161e-06 -6.86391e-06 0)
(2.71341e-05 -1.47427e-05 0)
(5.59208e-05 -1.53124e-05 0)
(7.79096e-05 -1.0936e-05 0)
(8.43446e-05 -4.51531e-06 0)
(7.19226e-05 2.39976e-06 0)
(3.9961e-05 9.16961e-06 0)
(-1.12086e-05 1.5561e-05 0)
(-8.06863e-05 2.14368e-05 0)
(-0.000167208 2.67657e-05 0)
(-0.000269314 3.15588e-05 0)
(-0.000385505 3.57726e-05 0)
(-0.000514196 3.94389e-05 0)
(-0.000653749 4.25808e-05 0)
(-0.000802653 4.52086e-05 0)
(-0.000959324 4.73505e-05 0)
(-0.00112223 4.90348e-05 0)
(-0.00128994 5.02584e-05 0)
(-0.001461 5.1044e-05 0)
(-0.00163405 5.14379e-05 0)
(-0.0018078 5.14598e-05 0)
(-0.00198097 5.11138e-05 0)
(-0.00215237 5.04193e-05 0)
(-0.00232086 4.93972e-05 0)
(-0.00248533 4.80566e-05 0)
(-0.00264478 4.64142e-05 0)
(-0.00279823 4.44907e-05 0)
(-0.00294478 4.23119e-05 0)
(-0.00308357 3.99021e-05 0)
(-0.00321384 3.72743e-05 0)
(-0.00333486 3.44372e-05 0)
(-0.00344596 3.14085e-05 0)
(-0.00354653 2.82159e-05 0)
(-0.00363602 2.48735e-05 0)
(-0.00371395 2.13883e-05 0)
(-0.00377988 1.77827e-05 0)
(-0.00383344 1.40779e-05 0)
(-0.00387433 1.02927e-05 0)
(-0.00390232 6.45109e-06 0)
(-0.00391723 2.56814e-06 0)
(-0.00391896 -1.34116e-06 0)
(-0.00390746 -5.25029e-06 0)
(-0.00388276 -9.14169e-06 0)
(-0.00384493 -1.30058e-05 0)
(-0.00379414 -1.68183e-05 0)
(-0.00373062 -2.05493e-05 0)
(-0.00365466 -2.41795e-05 0)
(-0.00356664 -2.76908e-05 0)
(-0.00346702 -3.10604e-05 0)
(-0.00335631 -3.42692e-05 0)
(-0.00323511 -3.72954e-05 0)
(-0.00310409 -4.01089e-05 0)
(-0.00296402 -4.26826e-05 0)
(-0.00281571 -4.49996e-05 0)
(-0.00266008 -4.70425e-05 0)
(-0.0024981 -4.87857e-05 0)
(-0.00233081 -5.02037e-05 0)
(-0.00215935 -5.12765e-05 0)
(-0.00198489 -5.19838e-05 0)
(-0.0018087 -5.23022e-05 0)
(-0.00163209 -5.22109e-05 0)
(-0.00145645 -5.16954e-05 0)
(-0.00128318 -5.07423e-05 0)
(-0.00111376 -4.93354e-05 0)
(-0.000949677 -4.7458e-05 0)
(-0.000792475 -4.50992e-05 0)
(-0.000643698 -4.22543e-05 0)
(-0.000504901 -3.89182e-05 0)
(-0.000377628 -3.50839e-05 0)
(-0.000263393 -3.07502e-05 0)
(-0.000163646 -2.593e-05 0)
(-7.974e-05 -2.06505e-05 0)
(-1.28673e-05 -1.49579e-05 0)
(3.60328e-05 -8.93029e-06 0)
(6.64186e-05 -2.71082e-06 0)
(7.83883e-05 3.42063e-06 0)
(7.3051e-05 8.92559e-06 0)
(5.33646e-05 1.2764e-05 0)
(2.66511e-05 1.2933e-05 0)
(6.45881e-06 6.45125e-06 0)
(1.08337e-05 -2.60039e-05 0)
(4.21198e-05 -4.75941e-05 0)
(7.57719e-05 -4.36052e-05 0)
(8.8944e-05 -2.08734e-05 0)
(6.61501e-05 1.15214e-05 0)
(-6.67739e-07 4.78398e-05 0)
(-0.000114636 8.49989e-05 0)
(-0.000276328 0.000121165 0)
(-0.000484502 0.000155453 0)
(-0.000736737 0.000187248 0)
(-0.00102998 0.000216242 0)
(-0.0013606 0.000242269 0)
(-0.00172468 0.000265242 0)
(-0.00211828 0.000285127 0)
(-0.00253725 0.00030195 0)
(-0.0029775 0.000315789 0)
(-0.00343499 0.00032669 0)
(-0.00390572 0.000334749 0)
(-0.0043858 0.000340053 0)
(-0.00487146 0.000342718 0)
(-0.00535905 0.000342847 0)
(-0.00584508 0.000340549 0)
(-0.00632618 0.000335933 0)
(-0.00679915 0.000329117 0)
(-0.00726095 0.000320208 0)
(-0.00770867 0.000309316 0)
(-0.00813961 0.000296569 0)
(-0.00855119 0.000282093 0)
(-0.00894104 0.000266011 0)
(-0.00930692 0.000248433 0)
(-0.00964679 0.000229475 0)
(-0.00995875 0.000209253 0)
(-0.0102411 0.000187883 0)
(-0.0104923 0.000165489 0)
(-0.0107109 0.000142186 0)
(-0.0108957 0.00011809 0)
(-0.0110458 9.33325e-05 0)
(-0.0111602 6.80418e-05 0)
(-0.0112383 4.23439e-05 0)
(-0.0112796 1.63689e-05 0)
(-0.0112838 -9.75454e-06 0)
(-0.0112508 -3.58981e-05 0)
(-0.0111806 -6.19328e-05 0)
(-0.0110736 -8.77278e-05 0)
(-0.0109301 -0.000113141 0)
(-0.0107508 -0.000138023 0)
(-0.0105367 -0.000162228 0)
(-0.0102887 -0.000185616 0)
(-0.0100081 -0.000208043 0)
(-0.00969648 -0.000229365 0)
(-0.00935548 -0.000249428 0)
(-0.00898703 -0.00026807 0)
(-0.00859324 -0.00028514 0)
(-0.00817643 -0.000300496 0)
(-0.00773916 -0.000313998 0)
(-0.0072842 -0.000325497 0)
(-0.00681445 -0.000334848 0)
(-0.00633303 -0.000341914 0)
(-0.00584327 -0.000346567 0)
(-0.00534867 -0.000348681 0)
(-0.00485287 -0.000348139 0)
(-0.00435965 -0.000344842 0)
(-0.00387291 -0.000338705 0)
(-0.00339669 -0.000329649 0)
(-0.00293506 -0.000317612 0)
(-0.00249216 -0.000302553 0)
(-0.00207214 -0.000284459 0)
(-0.00167914 -0.000263342 0)
(-0.00131719 -0.00023925 0)
(-0.000990155 -0.000212288 0)
(-0.000701648 -0.000182636 0)
(-0.000454914 -0.000150581 0)
(-0.000252633 -0.000116553 0)
(-9.66561e-05 -8.12153e-05 0)
(1.23752e-05 -4.56102e-05 0)
(7.55598e-05 -1.14026e-05 0)
(9.6427e-05 1.8718e-05 0)
(8.21272e-05 4.03877e-05 0)
(4.66419e-05 4.65119e-05 0)
(1.2985e-05 2.66526e-05 0)
(9.37484e-06 -4.82684e-05 0)
(3.1055e-05 -7.74973e-05 0)
(4.04167e-05 -5.62314e-05 0)
(1.38457e-05 3.25421e-06 0)
(-6.60618e-05 8.49519e-05 0)
(-0.000209262 0.000177482 0)
(-0.0004207 0.000273541 0)
(-0.000701754 0.000368652 0)
(-0.00105129 0.000459883 0)
(-0.00146647 0.000545426 0)
(-0.00194308 0.000624124 0)
(-0.00247616 0.000695293 0)
(-0.0030602 0.00075848 0)
(-0.00368925 0.000813487 0)
(-0.00435725 0.000860267 0)
(-0.00505805 0.00089884 0)
(-0.00578542 0.00092935 0)
(-0.00653325 0.000951962 0)
(-0.00729555 0.000966894 0)
(-0.00806643 0.000974408 0)
(-0.00884018 0.000974761 0)
(-0.00961132 0.000968238 0)
(-0.0103746 0.000955149 0)
(-0.0111249 0.000935802 0)
(-0.0118574 0.000910513 0)
(-0.0125677 0.000879605 0)
(-0.0132512 0.00084341 0)
(-0.0139041 0.000802267 0)
(-0.0145225 0.000756518 0)
(-0.0151028 0.000706494 0)
(-0.0156418 0.000652517 0)
(-0.0161365 0.000594931 0)
(-0.0165842 0.000534082 0)
(-0.0169823 0.000470296 0)
(-0.0173288 0.000403921 0)
(-0.0176216 0.00033531 0)
(-0.0178592 0.000264813 0)
(-0.0180402 0.000192795 0)
(-0.0181635 0.000119621 0)
(-0.0182285 4.56481e-05 0)
(-0.0182345 -2.87466e-05 0)
(-0.0181814 -0.000103182 0)
(-0.0180694 -0.00017729 0)
(-0.0178988 -0.000250687 0)
(-0.0176705 -0.000322962 0)
(-0.0173854 -0.000393707 0)
(-0.017045 -0.000462515 0)
(-0.016651 -0.000528978 0)
(-0.0162055 -0.000592679 0)
(-0.0157107 -0.000653198 0)
(-0.0151694 -0.000710109 0)
(-0.0145847 -0.000762979 0)
(-0.0139598 -0.000811383 0)
(-0.0132986 -0.00085491 0)
(-0.012605 -0.000893156 0)
(-0.0118834 -0.000925717 0)
(-0.0111383 -0.000952199 0)
(-0.0103748 -0.000972228 0)
(-0.009598 -0.000985446 0)
(-0.00881338 -0.000991519 0)
(-0.00802665 -0.000990146 0)
(-0.00724371 -0.000981061 0)
(-0.00647063 -0.000964036 0)
(-0.00571364 -0.000938885 0)
(-0.00497905 -0.000905477 0)
(-0.00427323 -0.000863746 0)
(-0.0036025 -0.000813707 0)
(-0.00297311 -0.000755468 0)
(-0.0023911 -0.000689266 0)
(-0.0018622 -0.000615501 0)
(-0.00139165 -0.000534803 0)
(-0.000984054 -0.000448103 0)
(-0.000643064 -0.000356757 0)
(-0.000371016 -0.000262739 0)
(-0.00016845 -0.000168942 0)
(-3.34614e-05 -7.9638e-05 0)
(3.90311e-05 -1.15182e-06 0)
(5.83787e-05 5.72699e-05 0)
(4.10518e-05 8.21638e-05 0)
(1.29385e-05 5.35393e-05 0)
(5.69831e-06 -6.1982e-05 0)
(8.48245e-06 -8.25883e-05 0)
(-2.1837e-05 -2.72708e-05 0)
(-0.000106084 8.58454e-05 0)
(-0.000260348 0.000234798 0)
(-0.000495105 0.000402545 0)
(-0.000815644 0.000577488 0)
(-0.00122369 0.000751797 0)
(-0.00171813 0.000920113 0)
(-0.00229558 0.00107889 0)
(-0.00295121 0.00122575 0)
(-0.00367898 0.00135909 0)
(-0.00447205 0.00147797 0)
(-0.00532308 0.0015818 0)
(-0.00622434 0.00167031 0)
(-0.00716794 0.00174345 0)
(-0.00814592 0.00180138 0)
(-0.00915035 0.00184432 0)
(-0.0101734 0.00187265 0)
(-0.0112073 0.00188678 0)
(-0.0122446 0.00188719 0)
(-0.0132782 0.00187439 0)
(-0.0143008 0.00184894 0)
(-0.015306 0.00181143 0)
(-0.0162872 0.00176244 0)
(-0.0172384 0.00170259 0)
(-0.0181538 0.00163252 0)
(-0.0190281 0.00155286 0)
(-0.019856 0.00146426 0)
(-0.020633 0.00136735 0)
(-0.0213546 0.0012628 0)
(-0.0220168 0.00115125 0)
(-0.0226159 0.00103336 0)
(-0.0231487 0.000909794 0)
(-0.0236122 0.000781215 0)
(-0.0240039 0.000648311 0)
(-0.0243215 0.000511769 0)
(-0.0245634 0.000372273 0)
(-0.024728 0.000230534 0)
(-0.0248144 8.72727e-05 0)
(-0.0248218 -5.67954e-05 0)
(-0.0247502 -0.000200943 0)
(-0.0245996 -0.000344422 0)
(-0.0243707 -0.000486478 0)
(-0.0240644 -0.000626342 0)
(-0.0236823 -0.000763225 0)
(-0.0232262 -0.000896333 0)
(-0.0226983 -0.00102487 0)
(-0.0221015 -0.00114804 0)
(-0.0214389 -0.00126503 0)
(-0.0207141 -0.001375 0)
(-0.0199313 -0.00147716 0)
(-0.0190949 -0.00157069 0)
(-0.0182097 -0.00165479 0)
(-0.0172813 -0.00172869 0)
(-0.0163153 -0.00179162 0)
(-0.0153179 -0.00184285 0)
(-0.0142957 -0.00188166 0)
(-0.0132554 -0.00190739 0)
(-0.0122044 -0.00191943 0)
(-0.0111502 -0.00191723 0)
(-0.0101005 -0.00190029 0)
(-0.00906331 -0.00186821 0)
(-0.00804672 -0.00182069 0)
(-0.00705898 -0.00175752 0)
(-0.00610835 -0.00167864 0)
(-0.00520298 -0.00158417 0)
(-0.00435087 -0.0014744 0)
(-0.00355971 -0.00134989 0)
(-0.00283671 -0.00121153 0)
(-0.00218842 -0.00106064 0)
(-0.00162045 -0.000899127 0)
(-0.00113719 -0.000729649 0)
(-0.000741388 -0.000555957 0)
(-0.000433605 -0.000383315 0)
(-0.000211638 -0.000219119 0)
(-6.97896e-05 -7.37599e-05 0)
(2.05008e-06 3.83821e-05 0)
(2.03142e-05 9.74255e-05 0)
(9.30128e-06 7.37928e-05 0)
(9.28533e-07 -6.17484e-05 0)
(-2.03813e-05 -5.14286e-05 0)
(-9.99385e-05 5.72768e-05 0)
(-0.000253141 0.000241602 0)
(-0.000493404 0.000474173 0)
(-0.000830217 0.000733236 0)
(-0.00126847 0.00100308 0)
(-0.00180957 0.00127243 0)
(-0.00245199 0.00153347 0)
(-0.00319194 0.00178058 0)
(-0.00402381 0.00200989 0)
(-0.00494071 0.00221877 0)
(-0.00593477 0.00240544 0)
(-0.00699739 0.00256884 0)
(-0.00811954 0.00270837 0)
(-0.00929188 0.00282381 0)
(-0.0105049 0.00291524 0)
(-0.0117492 0.00298297 0)
(-0.0130153 0.00302746 0)
(-0.0142939 0.00304931 0)
(-0.0155759 0.00304924 0)
(-0.0168527 0.00302803 0)
(-0.0181156 0.00298654 0)
(-0.0193565 0.00292566 0)
(-0.0205675 0.00284632 0)
(-0.0217413 0.00274952 0)
(-0.0228708 0.00263623 0)
(-0.0239492 0.00250747 0)
(-0.0249705 0.00236428 0)
(-0.0259288 0.00220768 0)
(-0.0268186 0.00203873 0)
(-0.0276351 0.00185848 0)
(-0.0283738 0.00166798 0)
(-0.0290306 0.00146833 0)
(-0.0296018 0.0012606 0)
(-0.0300844 0.00104589 0)
(-0.0304757 0.000825307 0)
(-0.0307735 0.000599979 0)
(-0.030976 0.000371039 0)
(-0.031082 0.000139648 0)
(-0.0310908 -9.30205e-05 0)
(-0.031002 -0.000325784 0)
(-0.0308158 -0.000557443 0)
(-0.0305331 -0.000786772 0)
(-0.0301551 -0.00101252 0)
(-0.0296836 -0.00123343 0)
(-0.0291209 -0.00144822 0)
(-0.0284699 -0.00165561 0)
(-0.0277338 -0.0018543 0)
(-0.0269168 -0.00204299 0)
(-0.0260231 -0.00222037 0)
(-0.0250578 -0.00238513 0)
(-0.0240265 -0.00253598 0)
(-0.0229351 -0.00267167 0)
(-0.0217902 -0.00279093 0)
(-0.0205989 -0.00289257 0)
(-0.0193687 -0.00297541 0)
(-0.0181075 -0.00303834 0)
(-0.0168238 -0.00308034 0)
(-0.0155263 -0.00310045 0)
(-0.0142241 -0.00309781 0)
(-0.0129266 -0.00307168 0)
(-0.0116435 -0.00302147 0)
(-0.0103845 -0.00294675 0)
(-0.0091596 -0.00284727 0)
(-0.00797856 -0.00272302 0)
(-0.00685113 -0.00257427 0)
(-0.0057868 -0.0024016 0)
(-0.00479463 -0.00220604 0)
(-0.00388307 -0.00198913 0)
(-0.00305972 -0.00175309 0)
(-0.00233111 -0.001501 0)
(-0.00170228 -0.00123712 0)
(-0.00117646 -0.000967227 0)
(-0.000754505 -0.000699164 0)
(-0.000434438 -0.000443571 0)
(-0.00021075 -0.000214836 0)
(-7.36475e-05 -3.21664e-05 0)
(-8.54163e-06 7.87555e-05 0)
(4.07561e-06 8.03042e-05 0)
(-4.41042e-06 -4.54666e-05 0)
(-5.27135e-05 2.13041e-05 0)
(-0.000187156 0.000205099 0)
(-0.000416474 0.000479107 0)
(-0.000750227 0.000811948 0)
(-0.00119623 0.00117771 0)
(-0.00175831 0.00155696 0)
(-0.00243693 0.00193542 0)
(-0.00322986 0.00230259 0)
(-0.00413263 0.00265084 0)
(-0.0051389 0.00297468 0)
(-0.00624094 0.00327022 0)
(-0.00742991 0.00353481 0)
(-0.00869616 0.00376671 0)
(-0.0100295 0.00396491 0)
(-0.0114193 0.00412897 0)
(-0.0128549 0.00425882 0)
(-0.0143254 0.00435479 0)
(-0.01582 0.00441744 0)
(-0.0173281 0.00444756 0)
(-0.0188392 0.0044461 0)
(-0.0203432 0.00441412 0)
(-0.0218301 0.00435283 0)
(-0.0232906 0.00426347 0)
(-0.0247155 0.00414737 0)
(-0.0260962 0.00400592 0)
(-0.0274245 0.00384055 0)
(-0.0286926 0.0036527 0)
(-0.0298931 0.00344386 0)
(-0.0310195 0.00321553 0)
(-0.0320653 0.00296922 0)
(-0.0330247 0.00270648 0)
(-0.0338926 0.00242883 0)
(-0.0346642 0.00213785 0)
(-0.0353352 0.00183513 0)
(-0.0359019 0.00152227 0)
(-0.0363614 0.00120088 0)
(-0.0367109 0.000872591 0)
(-0.0369485 0.000539072 0)
(-0.0370727 0.000202012 0)
(-0.0370826 -0.000136884 0)
(-0.0369779 -0.000475888 0)
(-0.0367589 -0.000813245 0)
(-0.0364265 -0.00114717 0)
(-0.0359822 -0.00147585 0)
(-0.0354281 -0.00179745 0)
(-0.0347669 -0.00211012 0)
(-0.0340019 -0.002412 0)
(-0.0331371 -0.0027012 0)
(-0.0321771 -0.00297582 0)
(-0.0311271 -0.003234 0)
(-0.029993 -0.00347384 0)
(-0.0287811 -0.00369349 0)
(-0.0274985 -0.00389112 0)
(-0.0261529 -0.00406495 0)
(-0.0247524 -0.00421324 0)
(-0.0233058 -0.00433433 0)
(-0.0218224 -0.00442665 0)
(-0.0203118 -0.00448874 0)
(-0.0187842 -0.00451925 0)
(-0.0172502 -0.004517 0)
(-0.0157205 -0.00448099 0)
(-0.0142063 -0.0044104 0)
(-0.0127188 -0.0043047 0)
(-0.0112694 -0.00416362 0)
(-0.00986929 -0.00398724 0)
(-0.00852955 -0.00377605 0)
(-0.00726097 -0.00353102 0)
(-0.00607379 -0.00325375 0)
(-0.00497754 -0.00294655 0)
(-0.00398082 -0.00261271 0)
(-0.00309098 -0.00225666 0)
(-0.00231378 -0.00188437 0)
(-0.0016531 -0.00150378 0)
(-0.00111041 -0.00112534 0)
(-0.000684428 -0.000762857 0)
(-0.000370501 -0.000434428 0)
(-0.000159967 -0.000163544 0)
(-4.13214e-05 1.92343e-05 0)
(-1.72171e-06 7.02676e-05 0)
(-9.90535e-06 -1.20165e-05 0)
(-8.64853e-05 0.000138883 0)
(-0.000278938 0.000420794 0)
(-0.00058837 0.000804009 0)
(-0.0010201 0.00125394 0)
(-0.0015799 0.00174135 0)
(-0.00226982 0.00224373 0)
(-0.00308903 0.00274396 0)
(-0.00403428 0.00322912 0)
(-0.00510018 0.00368955 0)
(-0.00627956 0.00411813 0)
(-0.00756378 0.00450969 0)
(-0.00894308 0.00486056 0)
(-0.0104068 0.00516831 0)
(-0.0119438 0.0054314 0)
(-0.0135423 0.00564908 0)
(-0.0151905 0.00582115 0)
(-0.0168762 0.0059479 0)
(-0.0185876 0.00602996 0)
(-0.0203127 0.00606829 0)
(-0.0220399 0.00606409 0)
(-0.0237577 0.00601874 0)
(-0.0254553 0.00593378 0)
(-0.0271218 0.00581085 0)
(-0.0287472 0.00565175 0)
(-0.0303215 0.00545829 0)
(-0.0318357 0.00523238 0)
(-0.0332809 0.00497596 0)
(-0.0346489 0.00469105 0)
(-0.0359321 0.00437966 0)
(-0.0371233 0.00404384 0)
(-0.038216 0.00368568 0)
(-0.0392043 0.00330728 0)
(-0.0400828 0.00291077 0)
(-0.0408467 0.0024983 0)
(-0.0414919 0.00207205 0)
(-0.0420148 0.00163422 0)
(-0.0424125 0.00118704 0)
(-0.0426828 0.000732784 0)
(-0.042824 0.000273736 0)
(-0.0428352 -0.000187781 0)
(-0.0427159 -0.000649411 0)
(-0.0424665 -0.00110876 0)
(-0.042088 -0.00156339 0)
(-0.0415822 -0.00201086 0)
(-0.0409514 -0.00244867 0)
(-0.0401986 -0.00287432 0)
(-0.0393278 -0.00328526 0)
(-0.0383433 -0.00367895 0)
(-0.0372503 -0.00405283 0)
(-0.0360548 -0.00440436 0)
(-0.0347633 -0.00473101 0)
(-0.0333831 -0.00503026 0)
(-0.0319221 -0.00529967 0)
(-0.030389 -0.00553683 0)
(-0.0287929 -0.00573943 0)
(-0.0271438 -0.00590524 0)
(-0.0254519 -0.00603218 0)
(-0.0237282 -0.00611831 0)
(-0.0219841 -0.00616187 0)
(-0.0202314 -0.00616131 0)
(-0.0184821 -0.00611533 0)
(-0.0167488 -0.00602293 0)
(-0.0150438 -0.00588347 0)
(-0.0133799 -0.00569666 0)
(-0.0117695 -0.00546274 0)
(-0.0102249 -0.00518246 0)
(-0.00875804 -0.00485725 0)
(-0.00738023 -0.00448937 0)
(-0.00610203 -0.00408201 0)
(-0.00493296 -0.00363958 0)
(-0.00388126 -0.00316798 0)
(-0.00295353 -0.00267495 0)
(-0.00215447 -0.00217056 0)
(-0.00148649 -0.00166782 0)
(-0.000949431 -0.00118345 0)
(-0.000540002 -0.000738854 0)
(-0.000251278 -0.000361148 0)
(-7.55791e-05 -8.47425e-05 0)
(-7.58886e-06 4.26186e-05 0)
(-1.53158e-05 3.89395e-05 0)
(-0.000120568 0.000302709 0)
(-0.000372153 0.000706764 0)
(-0.00076365 0.00121935 0)
(-0.00129584 0.00180347 0)
(-0.00197194 0.00242742 0)
(-0.00279209 0.00306609 0)
(-0.00375381 0.00369992 0)
(-0.00485252 0.00431379 0)
(-0.00608169 0.00489617 0)
(-0.00743315 0.00543832 0)
(-0.00889732 0.00593381 0)
(-0.0104635 0.00637794 0)
(-0.0121201 0.00676752 0)
(-0.0138549 0.00710048 0)
(-0.0156551 0.00737569 0)
(-0.0175079 0.00759278 0)
(-0.0194002 0.00775195 0)
(-0.0213188 0.00785395 0)
(-0.0232508 0.00789989 0)
(-0.0251835 0.0078912 0)
(-0.0271044 0.00782957 0)
(-0.0290014 0.00771694 0)
(-0.0308627 0.00755539 0)
(-0.0326773 0.00734713 0)
(-0.0344343 0.00709451 0)
(-0.0361235 0.00679995 0)
(-0.0377354 0.00646595 0)
(-0.0392608 0.00609508 0)
(-0.0406913 0.00568995 0)
(-0.0420191 0.00525318 0)
(-0.0432369 0.00478749 0)
(-0.0443381 0.00429559 0)
(-0.0453169 0.00378025 0)
(-0.0461679 0.00324424 0)
(-0.0468866 0.0026904 0)
(-0.0474691 0.00212157 0)
(-0.0479122 0.00154065 0)
(-0.0482133 0.000950587 0)
(-0.0483706 0.000354346 0)
(-0.0483831 -0.000245058 0)
(-0.0482504 -0.000844568 0)
(-0.0479728 -0.00144108 0)
(-0.0475515 -0.00203145 0)
(-0.0469884 -0.0026125 0)
(-0.046286 -0.003181 0)
(-0.0454478 -0.00373372 0)
(-0.0444781 -0.00426737 0)
(-0.0433816 -0.00477867 0)
(-0.0421643 -0.00526431 0)
(-0.0408324 -0.00572103 0)
(-0.0393934 -0.00614556 0)
(-0.0378553 -0.00653469 0)
(-0.0362267 -0.00688525 0)
(-0.0345171 -0.00719418 0)
(-0.0327368 -0.00745852 0)
(-0.0308964 -0.00767543 0)
(-0.0290075 -0.00784227 0)
(-0.027082 -0.00795657 0)
(-0.0251324 -0.00801613 0)
(-0.0231716 -0.00801901 0)
(-0.0212129 -0.00796362 0)
(-0.0192698 -0.00784875 0)
(-0.0173561 -0.00767363 0)
(-0.0154854 -0.00743802 0)
(-0.0136714 -0.00714231 0)
(-0.0119276 -0.00678758 0)
(-0.0102668 -0.00637577 0)
(-0.0087015 -0.00590982 0)
(-0.00724322 -0.00539387 0)
(-0.00590244 -0.00483352 0)
(-0.00468835 -0.00423613 0)
(-0.00360852 -0.00361118 0)
(-0.00266871 -0.00297082 0)
(-0.00187253 -0.0023304 0)
(-0.00122127 -0.00170929 0)
(-0.000713393 -0.00113174 0)
(-0.00034411 -0.000627793 0)
(-0.000109938 -0.000234729 0)
(-1.32897e-05 -2.83892e-06 0)
(-2.05802e-05 0.000107245 0)
(-0.00015419 0.000513039 0)
(-0.000465006 0.00106381 0)
(-0.000939041 0.00172634 0)
(-0.00157253 0.0024622 0)
(-0.00236611 0.00323766 0)
(-0.00331767 0.0040256 0)
(-0.00442288 0.00480439 0)
(-0.00567557 0.00555703 0)
(-0.00706794 0.00627024 0)
(-0.00859064 0.00693383 0)
(-0.0102331 0.00754009 0)
(-0.0119835 0.00808339 0)
(-0.0138293 0.00855973 0)
(-0.0157574 0.00896652 0)
(-0.017754 0.00930222 0)
(-0.0198053 0.00956628 0)
(-0.0218971 0.00975884 0)
(-0.0240155 0.00988067 0)
(-0.0261463 0.00993307 0)
(-0.028276 0.00991772 0)
(-0.030391 0.00983665 0)
(-0.0324783 0.00969218 0)
(-0.0345253 0.00948685 0)
(-0.0365199 0.00922336 0)
(-0.0384503 0.00890459 0)
(-0.0403057 0.00853354 0)
(-0.0420755 0.00811329 0)
(-0.0437499 0.00764702 0)
(-0.0453198 0.00713795 0)
(-0.0467767 0.00658941 0)
(-0.0481127 0.00600473 0)
(-0.0493207 0.00538731 0)
(-0.0503942 0.00474061 0)
(-0.0513276 0.0040681 0)
(-0.0521158 0.00337331 0)
(-0.0527547 0.00265981 0)
(-0.0532407 0.00193123 0)
(-0.0535711 0.00119125 0)
(-0.053744 0.000443569 0)
(-0.0537581 -0.00030803 0)
(-0.053613 -0.00105973 0)
(-0.0533093 -0.00180764 0)
(-0.052848 -0.00254785 0)
(-0.0522312 -0.00327637 0)
(-0.0514618 -0.00398919 0)
(-0.0505435 -0.00468226 0)
(-0.0494808 -0.00535149 0)
(-0.0482791 -0.00599279 0)
(-0.0469446 -0.00660206 0)
(-0.0454843 -0.00717522 0)
(-0.0439061 -0.00770822 0)
(-0.0422186 -0.00819707 0)
(-0.0404314 -0.00863786 0)
(-0.0385546 -0.00902677 0)
(-0.0365994 -0.00936016 0)
(-0.0345772 -0.00963455 0)
(-0.0325006 -0.00984666 0)
(-0.0303824 -0.0099935 0)
(-0.0282361 -0.0100724 0)
(-0.0260757 -0.0100809 0)
(-0.0239154 -0.0100172 0)
(-0.0217699 -0.00987986 0)
(-0.019654 -0.00966799 0)
(-0.0175824 -0.00938141 0)
(-0.0155699 -0.00902065 0)
(-0.0136309 -0.00858715 0)
(-0.0117794 -0.00808338 0)
(-0.0100289 -0.007513 0)
(-0.00839177 -0.00688112 0)
(-0.00687966 -0.0061945 0)
(-0.00550278 -0.00546194 0)
(-0.00426983 -0.00469461 0)
(-0.0031878 -0.00390656 0)
(-0.00226173 -0.00311531 0)
(-0.00149465 -0.00234251 0)
(-0.000887025 -0.00161479 0)
(-0.000436425 -0.000964496 0)
(-0.000143667 -0.00043095 0)
(-1.8732e-05 -6.58141e-05 0)
(-2.56581e-05 0.000192513 0)
(-0.000187045 0.000769417 0)
(-0.000556402 0.0014916 0)
(-0.00111252 0.00232516 0)
(-0.00184718 0.0032305 0)
(-0.00275839 0.00417266 0)
(-0.00384167 0.00512284 0)
(-0.00509061 0.0060578 0)
(-0.00649737 0.00695888 0)
(-0.00805268 0.00781128 0)
(-0.0097459 0.00860349 0)
(-0.0115652 0.00932667 0)
(-0.0134979 0.00997424 0)
(-0.0155303 0.0105415 0)
(-0.0176482 0.0110252 0)
(-0.0198372 0.0114237 0)
(-0.0220822 0.0117359 0)
(-0.0243682 0.0119622 0)
(-0.0266803 0.0121032 0)
(-0.0290036 0.0121605 0)
(-0.0313235 0.0121359 0)
(-0.0336255 0.012032 0)
(-0.0358959 0.0118513 0)
(-0.038121 0.011597 0)
(-0.040288 0.0112722 0)
(-0.0423845 0.0108804 0)
(-0.0443986 0.0104252 0)
(-0.0463192 0.00991024 0)
(-0.0481357 0.00933946 0)
(-0.0498385 0.00871673 0)
(-0.0514183 0.00804604 0)
(-0.0528669 0.00733146 0)
(-0.0541764 0.00657712 0)
(-0.0553402 0.00578718 0)
(-0.0563519 0.00496589 0)
(-0.0572064 0.00411754 0)
(-0.0578991 0.00324647 0)
(-0.0584262 0.00235709 0)
(-0.0587848 0.00145386 0)
(-0.0589727 0.000541305 0)
(-0.0589888 -0.000375991 0)
(-0.0588326 -0.00129337 0)
(-0.0585045 -0.00220613 0)
(-0.0580058 -0.0031095 0)
(-0.0573387 -0.00399864 0)
(-0.0565062 -0.00486869 0)
(-0.0555123 -0.00571473 0)
(-0.0543618 -0.00653179 0)
(-0.0530605 -0.00731493 0)
(-0.051615 -0.00805917 0)
(-0.0500328 -0.00875959 0)
(-0.0483223 -0.00941127 0)
(-0.0464928 -0.0100094 0)
(-0.0445544 -0.0105492 0)
(-0.042518 -0.0110262 0)
(-0.0403954 -0.011436 0)
(-0.0381991 -0.0117742 0)
(-0.0359422 -0.0120372 0)
(-0.0336385 -0.0122211 0)
(-0.0313025 -0.0123229 0)
(-0.028949 -0.0123398 0)
(-0.0265933 -0.0122694 0)
(-0.0242511 -0.0121102 0)
(-0.0219379 -0.0118612 0)
(-0.0196698 -0.0115222 0)
(-0.0174624 -0.0110939 0)
(-0.0153311 -0.0105781 0)
(-0.013291 -0.00997788 0)
(-0.0113566 -0.00929753 0)
(-0.00954151 -0.00854311 0)
(-0.00785827 -0.00772255 0)
(-0.00631831 -0.00684598 0)
(-0.00493162 -0.00592617 0)
(-0.00370657 -0.00497891 0)
(-0.00264984 -0.00402362 0)
(-0.00176636 -0.00308392 0)
(-0.00105877 -0.00218839 0)
(-0.000527109 -0.00137114 0)
(-0.000176418 -0.000672855 0)
(-2.38902e-05 -0.000145779 0)
(-3.05049e-05 0.00029426 0)
(-0.000218973 0.00107089 0)
(-0.000645824 0.00198937 0)
(-0.00128298 0.00301508 0)
(-0.00211808 0.00410801 0)
(-0.0031464 0.00523224 0)
(-0.00436108 0.0063578 0)
(-0.00575357 0.00746009 0)
(-0.00731418 0.0085191 0)
(-0.00903203 0.00951877 0)
(-0.0108951 0.0104464 0)
(-0.0128903 0.0112921 0)
(-0.0150037 0.0120485 0)
(-0.0172207 0.0127102 0)
(-0.019526 0.0132735 0)
(-0.0219042 0.0137362 0)
(-0.0243393 0.0140974 0)
(-0.0268155 0.014357 0)
(-0.0293168 0.0145161 0)
(-0.0318276 0.0145762 0)
(-0.0343323 0.0145397 0)
(-0.0368158 0.0144091 0)
(-0.0392634 0.0141877 0)
(-0.0416607 0.013879 0)
(-0.0439942 0.0134868 0)
(-0.0462506 0.0130152 0)
(-0.0484175 0.0124683 0)
(-0.050483 0.0118505 0)
(-0.0524362 0.0111664 0)
(-0.0542664 0.0104206 0)
(-0.0559642 0.00961777 0)
(-0.0575207 0.00876283 0)
(-0.0589277 0.00786064 0)
(-0.0601779 0.00691615 0)
(-0.061265 0.00593439 0)
(-0.0621831 0.00492048 0)
(-0.0629275 0.00387958 0)
(-0.0634943 0.00281692 0)
(-0.0638802 0.0017378 0)
(-0.0640831 0.00064762 0)
(-0.0641016 -0.000448184 0)
(-0.0639353 -0.00154408 0)
(-0.0635845 -0.00263446 0)
(-0.0630507 -0.00371367 0)
(-0.0623361 -0.00477597 0)
(-0.061444 -0.00581557 0)
(-0.0603784 -0.00682663 0)
(-0.0591446 -0.00780328 0)
(-0.0577485 -0.00873963 0)
(-0.0561972 -0.0096298 0)
(-0.0544987 -0.0104679 0)
(-0.0526617 -0.0112482 0)
(-0.0506961 -0.011965 0)
(-0.0486126 -0.0126127 0)
(-0.0464228 -0.0131858 0)
(-0.044139 -0.0136791 0)
(-0.0417746 -0.0140878 0)
(-0.0393433 -0.0144073 0)
(-0.0368598 -0.0146332 0)
(-0.0343394 -0.0147619 0)
(-0.0317979 -0.0147901 0)
(-0.0292513 -0.0147152 0)
(-0.0267163 -0.0145353 0)
(-0.0242096 -0.0142493 0)
(-0.0217479 -0.013857 0)
(-0.019348 -0.0133594 0)
(-0.0170264 -0.0127585 0)
(-0.0147991 -0.0120579 0)
(-0.0126817 -0.0112626 0)
(-0.0106889 -0.0103795 0)
(-0.00883451 -0.00941773 0)
(-0.00713124 -0.00838861 0)
(-0.00559043 -0.00730634 0)
(-0.00422201 -0.00618832 0)
(-0.00303443 -0.0050556 0)
(-0.00203464 -0.00393349 0)
(-0.00122755 -0.00285211 0)
(-0.000615651 -0.00184693 0)
(-0.000208068 -0.000959489 0)
(-2.87664e-05 -0.000242112 0)
(-3.51728e-05 0.000411918 0)
(-0.000249922 0.00141647 0)
(-0.000733047 0.00255585 0)
(-0.00145005 0.00379505 0)
(-0.00238441 0.00509385 0)
(-0.00352897 0.00641577 0)
(-0.0048744 0.00773 0)
(-0.00640993 0.00901089 0)
(-0.00812394 0.0102373 0)
(-0.0100039 0.0113922 0)
(-0.0120362 0.0124617 0)
(-0.0142065 0.0134353 0)
(-0.0164996 0.0143047 0)
(-0.0188998 0.0150639 0)
(-0.0213908 0.0157088 0)
(-0.0239559 0.016237 0)
(-0.0265786 0.0166473 0)
(-0.0292419 0.0169397 0)
(-0.0319291 0.0171154 0)
(-0.0346236 0.017176 0)
(-0.0373091 0.0171242 0)
(-0.0399697 0.0169631 0)
(-0.04259 0.0166962 0)
(-0.0451549 0.0163278 0)
(-0.04765 0.015862 0)
(-0.0500616 0.0153037 0)
(-0.0523765 0.0146576 0)
(-0.0545824 0.0139289 0)
(-0.0566676 0.0131229 0)
(-0.0586212 0.0122448 0)
(-0.0604329 0.0113003 0)
(-0.0620936 0.0102949 0)
(-0.0635947 0.00923438 0)
(-0.0649286 0.00812446 0)
(-0.0660883 0.00697106 0)
(-0.0670681 0.00578011 0)
(-0.0678627 0.00455765 0)
(-0.0684681 0.00330979 0)
(-0.0688809 0.00204272 0)
(-0.0690988 0.000762731 0)
(-0.0691203 -0.000523822 0)
(-0.0689449 -0.00181048 0)
(-0.0685731 -0.00309072 0)
(-0.0680062 -0.00435791 0)
(-0.0672467 -0.00560539 0)
(-0.0662979 -0.00682639 0)
(-0.0651641 -0.00801411 0)
(-0.0638507 -0.00916169 0)
(-0.062364 -0.0102623 0)
(-0.0607113 -0.011309 0)
(-0.058901 -0.0122951 0)
(-0.0569424 -0.0132138 0)
(-0.0548456 -0.0140585 0)
(-0.052622 -0.0148226 0)
(-0.0502836 -0.0154998 0)
(-0.0478436 -0.0160842 0)
(-0.0453157 -0.0165701 0)
(-0.0427146 -0.0169519 0)
(-0.0400557 -0.017225 0)
(-0.0373549 -0.0173849 0)
(-0.034629 -0.0174279 0)
(-0.0318948 -0.017351 0)
(-0.0291699 -0.017152 0)
(-0.026472 -0.0168297 0)
(-0.0238187 -0.0163838 0)
(-0.0212277 -0.0158155 0)
(-0.0187168 -0.0151271 0)
(-0.0163029 -0.0143226 0)
(-0.0140027 -0.0134077 0)
(-0.0118323 -0.0123903 0)
(-0.00980663 -0.0112802 0)
(-0.00793977 -0.0100901 0)
(-0.0062446 -0.00883535 0)
(-0.00473272 -0.00753486 0)
(-0.00341443 -0.00621108 0)
(-0.00229878 -0.0048907 0)
(-0.00139298 -0.00360512 0)
(-0.000701926 -0.00239077 0)
(-0.00023863 -0.00128975 0)
(-3.33798e-05 -0.00035419 0)
(-3.96492e-05 0.000544977 0)
(-0.000279969 0.00180512 0)
(-0.000818154 0.00318976 0)
(-0.00161361 0.00466378 0)
(-0.00264607 0.00618689 0)
(-0.00390578 0.00772235 0)
(-0.00538109 0.00923874 0)
(-0.00705905 0.0107096 0)
(-0.00892603 0.0121131 0)
(-0.0109677 0.013431 0)
(-0.0131688 0.014649 0)
(-0.0155137 0.0157555 0)
(-0.0179858 0.0167418 0)
(-0.0205682 0.0176013 0)
(-0.0232436 0.0183296 0)
(-0.0259943 0.018924 0)
(-0.0288027 0.0193833 0)
(-0.031651 0.0197075 0)
(-0.0345215 0.0198978 0)
(-0.037397 0.0199563 0)
(-0.0402604 0.0198859 0)
(-0.0430949 0.01969 0)
(-0.0458845 0.0193729 0)
(-0.0486133 0.0189391 0)
(-0.0512665 0.0183936 0)
(-0.0538296 0.0177418 0)
(-0.0562889 0.0169891 0)
(-0.0586315 0.0161416 0)
(-0.0608452 0.0152051 0)
(-0.0629187 0.0141859 0)
(-0.0648413 0.0130902 0)
(-0.0666034 0.0119246 0)
(-0.068196 0.0106956 0)
(-0.0696112 0.00940976 0)
(-0.0708418 0.00807392 0)
(-0.0718816 0.00669489 0)
(-0.0727254 0.00527961 0)
(-0.0733687 0.0038351 0)
(-0.0738082 0.00236849 0)
(-0.0740412 0.000886997 0)
(-0.0740664 -0.000602063 0)
(-0.073883 -0.00209127 0)
(-0.0734917 -0.00357313 0)
(-0.0728937 -0.00504004 0)
(-0.0720916 -0.00648431 0)
(-0.0710887 -0.00789818 0)
(-0.0698896 -0.00927383 0)
(-0.0684999 -0.0106034 0)
(-0.0669261 -0.011879 0)
(-0.0651757 -0.0130928 0)
(-0.0632575 -0.0142369 0)
(-0.0611811 -0.0153037 0)
(-0.0589571 -0.0162854 0)
(-0.0565974 -0.0171746 0)
(-0.0541144 -0.0179642 0)
(-0.0515219 -0.0186471 0)
(-0.0488342 -0.0192169 0)
(-0.0460667 -0.0196673 0)
(-0.0432355 -0.0199929 0)
(-0.0403572 -0.0201887 0)
(-0.0374493 -0.0202503 0)
(-0.0345298 -0.0201743 0)
(-0.0316168 -0.0199582 0)
(-0.028729 -0.0196006 0)
(-0.0258851 -0.0191013 0)
(-0.0231038 -0.0184613 0)
(-0.0204038 -0.0176834 0)
(-0.0178033 -0.0167719 0)
(-0.0153203 -0.0157332 0)
(-0.0129718 -0.0145756 0)
(-0.0107744 -0.0133103 0)
(-0.00874361 -0.0119506 0)
(-0.00689383 -0.0105133 0)
(-0.00523844 -0.00901844 0)
(-0.00378969 -0.00748966 0)
(-0.00255877 -0.00595484 0)
(-0.00155515 -0.0044464 0)
(-0.000786068 -0.0030015 0)
(-0.000268206 -0.00166257 0)
(-3.77671e-05 -0.000481442 0)
(-4.39773e-05 0.000693033 0)
(-0.000309194 0.00223574 0)
(-0.000901338 0.00388985 0)
(-0.00177398 0.00561996 0)
(-0.00290325 0.00738596 0)
(-0.0042771 0.00915099 0)
(-0.0058815 0.0108833 0)
(-0.00770122 0.0125558 0)
(-0.00972066 0.0141459 0)
(-0.0119237 0.015635 0)
(-0.0142934 0.0170078 0)
(-0.0168126 0.0182523 0)
(-0.0194634 0.0193592 0)
(-0.0222276 0.0203217 0)
(-0.0250867 0.0211349 0)
(-0.028022 0.0217961 0)
(-0.031015 0.0223039 0)
(-0.0340468 0.0226586 0)
(-0.0370992 0.0228615 0)
(-0.0401538 0.0229149 0)
(-0.0431928 0.0228221 0)
(-0.046199 0.0225871 0)
(-0.0491553 0.0222146 0)
(-0.0520455 0.0217098 0)
(-0.0548539 0.0210783 0)
(-0.0575657 0.0203261 0)
(-0.0601666 0.0194596 0)
(-0.0626432 0.0184853 0)
(-0.0649828 0.0174101 0)
(-0.0671736 0.0162409 0)
(-0.0692047 0.014985 0)
(-0.0710659 0.0136496 0)
(-0.0727481 0.0122422 0)
(-0.0742429 0.0107703 0)
(-0.075543 0.00924154 0)
(-0.0766419 0.00766375 0)
(-0.077534 0.00604477 0)
(-0.078215 0.00439256 0)
(-0.0786811 0.00271521 0)
(-0.0789297 0.00102092 0)
(-0.0789592 -0.000682014 0)
(-0.078769 -0.00238518 0)
(-0.0783595 -0.00408006 0)
(-0.0777322 -0.00575804 0)
(-0.0768895 -0.00741039 0)
(-0.075835 -0.0090283 0)
(-0.0745733 -0.0106029 0)