/*--------------------------------*- C++ -*----------------------------------*\
  =========                 |
  \\      /  F ield         | OpenFOAM: The Open Source CFD Toolbox
   \\    /   O peration     | Website:  https://openfoam.org
    \\  /    A nd           | Version:  7
     \\/     M anipulation  |
\*---------------------------------------------------------------------------*/
FoamFile
{
    version     2.0;
    format      ascii;
    class       surfaceScalarField;
    location    "0.425";
    object      phi;
}
// * * * * * * * * * * * * * * * * * * * * * * * * * * * * * * * * * * * * * //

dimensions      [0 3 -1 0 0 0 0];

internalField   nonuniform List<scalar> 
50880
(
7.87549e-12
-7.88776e-12
3.69383e-11
-2.90607e-11
7.61932e-11
-3.92577e-11
1.16249e-10
-4.00571e-11
1.50687e-10
-3.44382e-11
1.7535e-10
-2.46667e-11
1.87601e-10
-1.22488e-11
1.85826e-10
1.7753e-12
1.69127e-10
1.66964e-11
1.37095e-10
3.20332e-11
8.96569e-11
4.74398e-11
2.69807e-11
6.26811e-11
-5.06051e-11
7.75849e-11
-1.42638e-10
9.20338e-11
-2.4858e-10
1.05942e-10
-3.67829e-10
1.1925e-10
-4.99743e-10
1.31917e-10
-6.43662e-10
1.43921e-10
-7.98914e-10
1.5525e-10
-9.64816e-10
1.65902e-10
-1.14069e-09
1.75877e-10
-1.32587e-09
1.85182e-10
-1.51971e-09
1.93832e-10
-1.72155e-09
2.01839e-10
-1.93078e-09
2.09225e-10
-2.14679e-09
2.16008e-10
-2.36899e-09
2.22205e-10
-2.59683e-09
2.27835e-10
-2.82975e-09
2.32921e-10
-3.06723e-09
2.3748e-10
-3.30876e-09
2.41533e-10
-3.55387e-09
2.45102e-10
-3.80206e-09
2.48202e-10
-4.05291e-09
2.50849e-10
-4.30597e-09
2.53063e-10
-4.56083e-09
2.54859e-10
-4.81709e-09
2.56251e-10
-5.07434e-09
2.57254e-10
-5.33222e-09
2.5788e-10
-5.59036e-09
2.5814e-10
-5.84841e-09
2.58042e-10
-6.10601e-09
2.576e-10
-6.36283e-09
2.5682e-10
-6.61853e-09
2.55707e-10
-6.8728e-09
2.54269e-10
-7.12531e-09
2.52512e-10
-7.37575e-09
2.5044e-10
-7.6238e-09
2.48053e-10
-7.86916e-09
2.45358e-10
-8.11151e-09
2.42356e-10
-8.35056e-09
2.39049e-10
-8.586e-09
2.35437e-10
-8.81752e-09
2.3152e-10
-9.04483e-09
2.27302e-10
-9.26761e-09
2.22778e-10
-9.48556e-09
2.17951e-10
-9.69838e-09
2.12819e-10
-9.90576e-09
2.07383e-10
-1.01074e-08
2.01641e-10
-1.0303e-08
1.9559e-10
-1.04922e-08
1.89232e-10
-1.06748e-08
1.82567e-10
-1.08504e-08
1.75598e-10
-1.10187e-08
1.68324e-10
-1.11795e-08
1.60747e-10
-1.13323e-08
1.52869e-10
-1.1477e-08
1.44692e-10
-1.16132e-08
1.36218e-10
-1.17407e-08
1.27452e-10
-1.18591e-08
1.18399e-10
-1.19682e-08
1.09065e-10
-1.20676e-08
9.94581e-11
-1.21572e-08
8.95856e-11
-1.22367e-08
7.94565e-11
-1.23057e-08
6.90796e-11
-1.23642e-08
5.84652e-11
-1.24118e-08
4.76284e-11
-1.24484e-08
3.65818e-11
-1.24737e-08
2.53392e-11
-1.24877e-08
1.39172e-11
-1.249e-08
2.33207e-12
-1.24806e-08
-9.39738e-12
-1.24594e-08
-2.12496e-11
-1.24261e-08
-3.32055e-11
-1.23809e-08
-4.52446e-11
-1.23236e-08
-5.7343e-11
-1.22541e-08
-6.94769e-11
-1.21725e-08
-8.1621e-11
-1.20787e-08
-9.37472e-11
-1.19729e-08
-1.0583e-10
-1.1855e-08
-1.17842e-10
-1.17253e-08
-1.29755e-10
-1.15837e-08
-1.41538e-10
-1.14306e-08
-1.53163e-10
-1.1266e-08
-1.64599e-10
-1.10902e-08
-1.75813e-10
-1.09034e-08
-1.86777e-10
-1.07059e-08
-1.97459e-10
-1.04981e-08
-2.07825e-10
-1.02803e-08
-2.17847e-10
-1.00528e-08
-2.27494e-10
-9.81604e-09
-2.36733e-10
-9.57051e-09
-2.45534e-10
-9.31664e-09
-2.5387e-10
-9.05493e-09
-2.6171e-10
-8.7859e-09
-2.69025e-10
-8.51011e-09
-2.75791e-10
-8.22813e-09
-2.81983e-10
-7.94056e-09
-2.87572e-10
-7.64802e-09
-2.92538e-10
-7.35116e-09
-2.96859e-10
-7.05064e-09
-3.00515e-10
-6.74716e-09
-3.03487e-10
-6.44139e-09
-3.0576e-10
-6.13407e-09
-3.07321e-10
-5.82592e-09
-3.08156e-10
-5.51766e-09
-3.08255e-10
-5.21005e-09
-3.07612e-10
-4.90383e-09
-3.0622e-10
-4.59976e-09
-3.04075e-10
-4.29858e-09
-3.01179e-10
-4.00105e-09
-2.97533e-10
-3.70791e-09
-2.93142e-10
-3.4199e-09
-2.8801e-10
-3.13775e-09
-2.82149e-10
-2.86218e-09
-2.7557e-10
-2.59389e-09
-2.68289e-10
-2.33357e-09
-2.6032e-10
-2.08188e-09
-2.51684e-10
-1.83948e-09
-2.42403e-10
-1.60698e-09
-2.32504e-10
-1.38497e-09
-2.22011e-10
-1.17401e-09
-2.10955e-10
-9.74644e-10
-1.99367e-10
-7.87361e-10
-1.87284e-10
-6.12618e-10
-1.74743e-10
-4.50834e-10
-1.61784e-10
-3.0238e-10
-1.48453e-10
-1.67583e-10
-1.34798e-10
-4.67138e-11
-1.2087e-10
6.00113e-11
-1.06725e-10
1.52437e-10
-9.2425e-11
2.30477e-10
-7.80398e-11
2.9412e-10
-6.36446e-11
3.43442e-10
-4.93238e-11
3.78619e-10
-3.51752e-11
3.99933e-10
-2.13125e-11
4.07799e-10
-7.86711e-12
4.02792e-10
5.00572e-12
3.85675e-10
1.71173e-11
3.57442e-10
2.82335e-11
3.19382e-10
3.80605e-11
2.73157e-10
4.62244e-11
2.2092e-10
5.22383e-11
1.65463e-10
5.54581e-11
1.10421e-10
5.5042e-11
6.04694e-11
4.995e-11
2.1505e-11
3.89629e-11
4.00866e-13
2.1104e-11
4.00115e-13
2.85934e-11
-3.64788e-11
9.08381e-11
-9.13129e-11
1.67326e-10
-1.15747e-10
2.41366e-10
-1.14099e-10
2.99937e-10
-9.30083e-11
3.33431e-10
-5.81591e-11
3.35102e-10
-1.39187e-11
3.0043e-10
3.64494e-11
2.26572e-10
9.05589e-11
1.11936e-10
1.4666e-10
-4.41104e-11
2.03483e-10
-2.41515e-10
2.60082e-10
-4.79699e-10
3.15767e-10
-7.57697e-10
3.70032e-10
-1.07426e-09
4.22504e-10
-1.42794e-09
4.72921e-10
-1.81711e-09
5.21094e-10
-2.24009e-09
5.66897e-10
-2.69509e-09
6.10258e-10
-3.18033e-09
6.51134e-10
-3.69397e-09
6.89515e-10
-4.2342e-09
7.25415e-10
-4.79922e-09
7.5886e-10
-5.38727e-09
7.89893e-10
-5.99661e-09
8.18568e-10
-6.62555e-09
8.44944e-10
-7.27243e-09
8.69087e-10
-7.93566e-09
8.91066e-10
-8.61368e-09
9.10947e-10
-9.305e-09
9.288e-10
-1.00082e-08
9.44699e-10
-1.07218e-08
9.58709e-10
-1.14445e-08
9.70898e-10
-1.2175e-08
9.81331e-10
-1.2912e-08
9.90069e-10
-1.36543e-08
9.97166e-10
-1.44007e-08
1.00268e-09
-1.51501e-08
1.00666e-09
-1.59014e-08
1.00915e-09
-1.66534e-08
1.0102e-09
-1.74052e-08
1.00984e-09
-1.81558e-08
1.00812e-09
-1.8904e-08
1.00505e-09
-1.96489e-08
1.00066e-09
-2.03897e-08
9.94996e-10
-2.11252e-08
9.8806e-10
-2.18547e-08
9.79872e-10
-2.25771e-08
9.7045e-10
-2.32915e-08
9.59804e-10
-2.39971e-08
9.47942e-10
-2.46929e-08
9.34871e-10
-2.53781e-08
9.20597e-10
-2.60517e-08
9.05124e-10
-2.67128e-08
8.88453e-10
-2.73606e-08
8.70583e-10
-2.79942e-08
8.51515e-10
-2.86126e-08
8.31252e-10
-2.9215e-08
8.09791e-10
-2.98005e-08
7.87133e-10
-3.03682e-08
7.63277e-10
-3.09172e-08
7.38225e-10
-3.14466e-08
7.11979e-10
-3.19556e-08
6.84539e-10
-3.24431e-08
6.55913e-10
-3.29085e-08
6.26108e-10
-3.33508e-08
5.95133e-10
-3.37691e-08
5.63003e-10
-3.41626e-08
5.29729e-10
-3.45305e-08
4.95331e-10
-3.48719e-08
4.59828e-10
-3.51861e-08
4.23244e-10
-3.54722e-08
3.85608e-10
-3.57296e-08
3.46951e-10
-3.59574e-08
3.07311e-10
-3.61551e-08
2.66728e-10
-3.63219e-08
2.25245e-10
-3.64572e-08
1.82911e-10
-3.65604e-08
1.39781e-10
-3.66309e-08
9.59098e-11
-3.66684e-08
5.13605e-11
-3.66722e-08
6.20182e-12
-3.66421e-08
-3.94957e-11
-3.65777e-08
-8.56555e-11
-3.64787e-08
-1.32196e-10
-3.6345e-08
-1.79034e-10
-3.61762e-08
-2.26082e-10
-3.59725e-08
-2.73243e-10
-3.57336e-08
-3.20423e-10
-3.54599e-08
-3.67521e-10
-3.51513e-08
-4.1443e-10
-3.48081e-08
-4.61045e-10
-3.44306e-08
-5.07256e-10
-3.40192e-08
-5.5295e-10
-3.35743e-08
-5.98011e-10
-3.30966e-08
-6.42324e-10
-3.25866e-08
-6.8577e-10
-3.20452e-08
-7.28228e-10
-3.14731e-08
-7.69582e-10
-3.08712e-08
-8.09711e-10
-3.02405e-08
-8.48494e-10
-2.95822e-08
-8.85813e-10
-2.88974e-08
-9.21553e-10
-2.81873e-08
-9.55596e-10
-2.74534e-08
-9.8783e-10
-2.66969e-08
-1.01815e-09
-2.59195e-08
-1.04644e-09
-2.51227e-08
-1.0726e-09
-2.43081e-08
-1.09654e-09
-2.34776e-08
-1.11816e-09
-2.26327e-08
-1.13738e-09
-2.17755e-08
-1.15411e-09
-2.09077e-08
-1.16827e-09
-2.00314e-08
-1.17981e-09
-1.91485e-08
-1.18865e-09
-1.82611e-08
-1.19474e-09
-1.73712e-08
-1.19805e-09
-1.64809e-08
-1.19852e-09
-1.55924e-08
-1.19614e-09
-1.47077e-08
-1.19088e-09
-1.38291e-08
-1.18274e-09
-1.29586e-08
-1.1717e-09
-1.20983e-08
-1.15778e-09
-1.12505e-08
-1.141e-09
-1.04171e-08
-1.12138e-09
-9.60026e-09
-1.09897e-09
-8.80204e-09
-1.0738e-09
-8.0244e-09
-1.04593e-09
-7.26928e-09
-1.01543e-09
-6.53858e-09
-9.82388e-10
-5.83411e-09
-9.46875e-10
-5.15762e-09
-9.08991e-10
-4.51079e-09
-8.68845e-10
-3.89519e-09
-8.26554e-10
-3.31232e-09
-7.82245e-10
-2.76354e-09
-7.36056e-10
-2.25015e-09
-6.88138e-10
-1.77328e-09
-6.38654e-10
-1.33395e-09
-5.87781e-10
-9.33048e-10
-5.35706e-10
-5.71281e-10
-4.82637e-10
-2.49204e-10
-4.288e-10
3.28139e-11
-3.74443e-10
2.74611e-10
-3.19837e-10
4.76251e-10
-2.65285e-10
6.38052e-10
-2.11125e-10
7.60621e-10
-1.57745e-10
8.44889e-10
-1.05584e-10
8.92173e-10
-5.51523e-11
9.04233e-10
-7.05262e-12
8.83352e-10
3.79996e-11
8.32442e-10
7.91428e-11
7.55173e-10
1.15328e-10
6.56134e-10
1.45264e-10
5.4102e-10
1.67353e-10
4.16849e-10
1.79629e-10
2.9215e-10
1.79739e-10
1.77028e-10
1.65072e-10
8.2862e-11
1.3313e-10
2.10649e-11
8.28987e-11
2.14644e-11
3.92376e-11
-7.57191e-11
1.15561e-10
-1.67631e-10
2.02627e-10
-2.02815e-10
2.79772e-10
-1.91243e-10
3.30455e-10
-1.43692e-10
3.41941e-10
-6.96425e-11
3.04812e-10
2.32076e-11
2.1242e-10
1.28847e-10
6.03238e-11
2.42657e-10
-1.54152e-10
3.61141e-10
-4.32315e-10
4.81644e-10
-7.74392e-10
6.02158e-10
-1.17979e-09
7.21172e-10
-1.6473e-09
8.37539e-10
-2.17521e-09
9.50415e-10
-2.76146e-09
1.05917e-09
-3.40372e-09
1.16336e-09
-4.09948e-09
1.26266e-09
-4.84609e-09
1.35687e-09
-5.64081e-09
1.44585e-09
-6.48087e-09
1.52957e-09
-7.36347e-09
1.60801e-09
-8.28583e-09
1.68121e-09
-9.24517e-09
1.74924e-09
-1.02388e-08
1.81219e-09
-1.1264e-08
1.87017e-09
-1.23183e-08
1.92332e-09
-1.33989e-08
1.97175e-09
-1.45036e-08
2.01562e-09
-1.56299e-08
2.05506e-09
-1.67754e-08
2.09021e-09
-1.79379e-08
2.12122e-09
-1.91152e-08
2.14823e-09
-2.03052e-08
2.17136e-09
-2.15059e-08
2.19075e-09
-2.27153e-08
2.20651e-09
-2.39314e-08
2.21876e-09
-2.51523e-08
2.22762e-09
-2.63763e-08
2.23317e-09
-2.76016e-08
2.2355e-09
-2.88265e-08
2.23471e-09
-3.00493e-08
2.23087e-09
-3.12682e-08
2.22404e-09
-3.24819e-08
2.21428e-09
-3.36885e-08
2.20165e-09
-3.48866e-08
2.18619e-09
-3.60747e-08
2.16794e-09
-3.72512e-08
2.14693e-09
-3.84146e-08
2.1232e-09
-3.95634e-08
2.09675e-09
-4.06961e-08
2.06761e-09
-4.18113e-08
2.03579e-09
-4.29075e-08
2.0013e-09
-4.39832e-08
1.96414e-09
-4.50369e-08
1.92433e-09
-4.60673e-08
1.88186e-09
-4.70728e-08
1.83673e-09
-4.80519e-08
1.78895e-09
-4.90033e-08
1.73852e-09
-4.99255e-08
1.68544e-09
-5.0817e-08
1.62972e-09
-5.16764e-08
1.57136e-09
-5.25022e-08
1.51038e-09
-5.32931e-08
1.44678e-09
-5.40475e-08
1.38059e-09
-5.47642e-08
1.31183e-09
-5.54418e-08
1.24054e-09
-5.60788e-08
1.16673e-09
-5.66739e-08
1.09047e-09
-5.72259e-08
1.01178e-09
-5.77334e-08
9.30744e-10
-5.81952e-08
8.47409e-10
-5.86101e-08
7.61851e-10
-5.89769e-08
6.74151e-10
-5.92946e-08
5.844e-10
-5.9562e-08
4.92699e-10
-5.97783e-08
3.99154e-10
-5.99424e-08
3.03887e-10
-6.00535e-08
2.07024e-10
-6.01108e-08
1.08703e-10
-6.01137e-08
9.07283e-12
-6.00615e-08
-9.17068e-11
-5.99537e-08
-1.9347e-10
-5.97898e-08
-2.96039e-10
-5.95697e-08
-3.99227e-10
-5.92929e-08
-5.02838e-10
-5.89595e-08
-6.06669e-10
-5.85694e-08
-7.10505e-10
-5.81228e-08
-8.14127e-10
-5.76199e-08
-9.17309e-10
-5.70611e-08
-1.01981e-09
-5.6447e-08
-1.1214e-09
-5.57781e-08
-1.22182e-09
-5.50553e-08
-1.32083e-09
-5.42795e-08
-1.41817e-09
-5.34517e-08
-1.51359e-09
-5.25731e-08
-1.60682e-09
-5.1645e-08
-1.6976e-09
-5.06691e-08
-1.78568e-09
-4.96468e-08
-1.87079e-09
-4.85799e-08
-1.95269e-09
-4.74704e-08
-2.0311e-09
-4.63202e-08
-2.10579e-09
-4.51315e-08
-2.1765e-09
-4.39066e-08
-2.24301e-09
-4.2648e-08
-2.30508e-09
-4.13581e-08
-2.36248e-09
-4.00396e-08
-2.41501e-09
-3.86953e-08
-2.46247e-09
-3.73281e-08
-2.50465e-09
-3.59408e-08
-2.5414e-09
-3.45365e-08
-2.57255e-09
-3.31184e-08
-2.59794e-09
-3.16896e-08
-2.61744e-09
-3.02533e-08
-2.63095e-09
-2.8813e-08
-2.63837e-09
-2.7372e-08
-2.6396e-09
-2.59335e-08
-2.63459e-09
-2.45011e-08
-2.62331e-09
-2.30781e-08
-2.60573e-09
-2.1668e-08
-2.58184e-09
-2.02741e-08
-2.55166e-09
-1.88998e-08
-2.51524e-09
-1.75486e-08
-2.47264e-09
-1.62236e-08
-2.42394e-09
-1.49282e-08
-2.36923e-09
-1.36654e-08
-2.30866e-09
-1.24385e-08
-2.24237e-09
-1.12504e-08
-2.17052e-09
-1.01039e-08
-2.0933e-09
-9.002e-09
-2.01094e-09
-7.94718e-09
-1.92367e-09
-6.94198e-09
-1.83175e-09
-5.98877e-09
-1.73546e-09
-5.08972e-09
-1.63511e-09
-4.24682e-09
-1.53104e-09
-3.46188e-09
-1.4236e-09
-2.73646e-09
-1.31319e-09
-2.07192e-09
-1.20024e-09
-1.46935e-09
-1.08521e-09
-9.29557e-10
-9.68594e-10
-4.53054e-10
-8.50946e-10
-4.00165e-11
-7.32874e-10
3.09748e-10
-6.15049e-10
5.96845e-10
-4.98223e-10
8.2234e-10
-3.83241e-10
9.87824e-10
-2.71067e-10
1.09548e-09
-1.6281e-10
1.14818e-09
-5.97571e-11
1.1496e-09
3.65833e-11
1.10432e-09
1.24426e-10
1.018e-09
2.01645e-10
8.97569e-10
2.65699e-10
7.51365e-10
3.13556e-10
5.89342e-10
3.4165e-10
4.23162e-10
3.4592e-10
2.66146e-10
3.2209e-10
1.32944e-10
2.66331e-10
3.8845e-11
1.76996e-10
6.031e-11
4.01667e-11
-1.15891e-10
1.14335e-10
-2.41798e-10
1.91626e-10
-2.80104e-10
2.48747e-10
-2.48366e-10
2.67199e-10
-1.62143e-10
2.32509e-10
-3.49517e-11
1.33696e-10
1.22023e-10
-3.72665e-11
2.99804e-10
-2.85921e-10
4.91314e-10
-6.15788e-10
6.9101e-10
-1.02874e-09
8.94589e-10
-1.5253e-09
1.09872e-09
-2.10497e-09
1.30084e-09
-2.7664e-09
1.49897e-09
-3.50759e-09
1.69161e-09
-4.32606e-09
1.87764e-09
-5.21894e-09
2.05623e-09
-6.18306e-09
2.22678e-09
-7.21507e-09
2.38888e-09
-8.31147e-09
2.54226e-09
-9.46868e-09
2.68678e-09
-1.06831e-08
2.8224e-09
-1.1951e-08
2.94914e-09
-1.32688e-08
3.06708e-09
-1.4633e-08
3.17636e-09
-1.604e-08
3.27713e-09
-1.74863e-08
3.3696e-09
-1.89685e-08
3.45395e-09
-2.04833e-08
3.53043e-09
-2.20275e-08
3.59925e-09
-2.35979e-08
3.66064e-09
-2.51915e-08
3.71485e-09
-2.68054e-08
3.76208e-09
-2.84366e-08
3.80257e-09
-3.00823e-08
3.83651e-09
-3.174e-08
3.86413e-09
-3.34068e-08
3.8856e-09
-3.50803e-08
3.90111e-09
-3.67579e-08
3.91082e-09
-3.84373e-08
3.91489e-09
-4.01161e-08
3.91346e-09
-4.17918e-08
3.90665e-09
-4.34624e-08
3.89459e-09
-4.51255e-08
3.87738e-09
-4.67789e-08
3.8551e-09
-4.84206e-08
3.82783e-09
-5.00483e-08
3.79565e-09
-5.166e-08
3.75861e-09
-5.32535e-08
3.71675e-09
-5.48269e-08
3.67012e-09
-5.6378e-08
3.61875e-09
-5.79049e-08
3.56267e-09
-5.94055e-08
3.50188e-09
-6.08778e-08
3.43642e-09
-6.23197e-08
3.36628e-09
-6.37293e-08
3.29147e-09
-6.51046e-08
3.21201e-09
-6.64436e-08
3.1279e-09
-6.77442e-08
3.03915e-09
-6.90045e-08
2.94576e-09
-7.02225e-08
2.84775e-09
-7.13963e-08
2.74514e-09
-7.25239e-08
2.63795e-09
-7.36033e-08
2.52622e-09
-7.46327e-08
2.40996e-09
-7.56101e-08
2.28924e-09
-7.65337e-08
2.1641e-09
-7.74016e-08
2.03461e-09
-7.82119e-08
1.90085e-09
-7.89631e-08
1.76291e-09
-7.96532e-08
1.62088e-09
-8.02807e-08
1.47489e-09
-8.08439e-08
1.32505e-09
-8.13413e-08
1.17153e-09
-8.17713e-08
1.01447e-09
-8.21327e-08
8.54054e-10
-8.2424e-08
6.90474e-10
-8.26441e-08
5.23938e-10
-8.27917e-08
3.54672e-10
-8.28659e-08
1.82918e-10
-8.28658e-08
8.93592e-12
-8.27905e-08
-1.66998e-10
-8.26394e-08
-3.44591e-10
-8.24119e-08
-5.23535e-10
-8.21076e-08
-7.03505e-10
-8.17263e-08
-8.84159e-10
-8.12678e-08
-1.06514e-09
-8.07322e-08
-1.24609e-09
-8.01197e-08
-1.42661e-09
-7.94307e-08
-1.60632e-09
-7.86657e-08
-1.78481e-09
-7.78255e-08
-1.96165e-09
-7.69109e-08
-2.13644e-09
-7.5923e-08
-2.30872e-09
-7.48631e-08
-2.47807e-09
-7.37326e-08
-2.64404e-09
-7.25332e-08
-2.80618e-09
-7.12668e-08
-2.96404e-09
-6.99353e-08
-3.11718e-09
-6.85409e-08
-3.26515e-09
-6.70861e-08
-3.4075e-09
-6.55734e-08
-3.54379e-09
-6.40056e-08
-3.6736e-09
-6.23856e-08
-3.79651e-09
-6.07165e-08
-3.9121e-09
-5.90016e-08
-4.01999e-09
-5.72443e-08
-4.11978e-09
-5.54482e-08
-4.21111e-09
-5.3617e-08
-4.29365e-09
-5.17546e-08
-4.36706e-09
-4.9865e-08
-4.43103e-09
-4.79522e-08
-4.4853e-09
-4.60206e-08
-4.52961e-09
-4.40743e-08
-4.56374e-09
-4.21178e-08
-4.58748e-09
-4.01555e-08
-4.60067e-09
-3.81919e-08
-4.60317e-09
-3.62316e-08
-4.59488e-09
-3.42792e-08
-4.57573e-09
-3.23392e-08
-4.54569e-09
-3.04163e-08
-4.50475e-09
-2.8515e-08
-4.45295e-09
-2.66399e-08
-4.39035e-09
-2.47955e-08
-4.31708e-09
-2.29861e-08
-4.23327e-09
-2.12163e-08
-4.1391e-09
-1.94901e-08
-4.0348e-09
-1.78119e-08
-3.92062e-09
-1.61855e-08
-3.79686e-09
-1.4615e-08
-3.66387e-09
-1.31039e-08
-3.522e-09
-1.16559e-08
-3.37169e-09
-1.02743e-08
-3.21338e-09
-8.96216e-09
-3.04757e-09
-7.72246e-09
-2.87481e-09
-6.55782e-09
-2.69568e-09
-5.4706e-09
-2.51082e-09
-4.46288e-09
-2.32091e-09
-3.53641e-09
-2.12672e-09
-2.69259e-09
-1.92903e-09
-1.93244e-09
-1.72874e-09
-1.25657e-09
-1.52682e-09
-6.65128e-10
-1.32431e-09
-1.57776e-10
-1.1224e-09
2.66386e-10
-9.22384e-10
6.0887e-10
-7.25725e-10
8.71878e-10
-5.34075e-10
1.05838e-09
-3.49317e-10
1.17224e-09
-1.7361e-10
1.21828e-09
-9.45757e-12
1.20247e-09
1.40231e-10
1.13206e-09
2.72055e-10
1.01572e-09
3.82043e-10
8.63695e-10
4.65581e-10
6.87956e-10
5.17389e-10
5.02257e-10
5.31621e-10
3.22145e-10
5.02201e-10
1.64917e-10
4.23555e-10
4.97845e-11
2.92129e-10
1.10095e-10
3.47785e-11
-1.50672e-10
9.37939e-11
-3.00814e-10
1.44852e-10
-3.31161e-10
1.63452e-10
-2.66966e-10
1.30183e-10
-1.28873e-10
2.9755e-11
6.54824e-11
-1.49617e-10
3.01396e-10
-4.16712e-10
5.66899e-10
-7.77747e-10
8.52348e-10
-1.23678e-09
1.15005e-09
-1.79608e-09
1.45389e-09
-2.45642e-09
1.75906e-09
-3.21736e-09
2.06178e-09
-4.07748e-09
2.35909e-09
-5.0346e-09
2.64873e-09
-6.0859e-09
2.92894e-09
-7.22808e-09
3.19841e-09
-8.45748e-09
3.45618e-09
-9.77018e-09
3.70157e-09
-1.1162e-08
3.93411e-09
-1.26288e-08
4.15354e-09
-1.41661e-08
4.35972e-09
-1.57696e-08
4.55264e-09
-1.74349e-08
4.73238e-09
-1.91576e-08
4.8991e-09
-2.09335e-08
5.05301e-09
-2.27583e-08
5.19437e-09
-2.46278e-08
5.32345e-09
-2.65379e-08
5.44058e-09
-2.84847e-08
5.54606e-09
-3.04643e-08
5.64023e-09
-3.24729e-08
5.72342e-09
-3.45068e-08
5.79595e-09
-3.65623e-08
5.85814e-09
-3.86361e-08
5.91031e-09
-4.07248e-08
5.95275e-09
-4.28249e-08
5.98574e-09
-4.49334e-08
6.00955e-09
-4.7047e-08
6.02442e-09
-4.91627e-08
6.03058e-09
-5.12774e-08
6.02825e-09
-5.33884e-08
6.01761e-09
-5.54926e-08
5.99884e-09
-5.75874e-08
5.97209e-09
-5.96698e-08
5.93751e-09
-6.17371e-08
5.8952e-09
-6.37868e-08
5.84529e-09
-6.5816e-08
5.78784e-09
-6.78222e-08
5.72295e-09
-6.98028e-08
5.65066e-09
-7.1755e-08
5.57104e-09
-7.36765e-08
5.48413e-09
-7.55646e-08
5.38995e-09
-7.74167e-08
5.28853e-09
-7.92303e-08
5.17991e-09
-8.10029e-08
5.06408e-09
-8.2732e-08
4.94107e-09
-8.4415e-08
4.8109e-09
-8.60494e-08
4.67357e-09
-8.76328e-08
4.52913e-09
-8.91626e-08
4.37757e-09
-9.06364e-08
4.21895e-09
-9.20517e-08
4.05331e-09
-9.34062e-08
3.88068e-09
-9.46974e-08
3.70114e-09
-9.59229e-08
3.51476e-09
-9.70804e-08
3.32163e-09
-9.81677e-08
3.12185e-09
-9.91824e-08
2.91556e-09
-1.00122e-07
2.70288e-09
-1.00985e-07
2.48398e-09
-1.0177e-07
2.25904e-09
-1.02473e-07
2.02827e-09
-1.03093e-07
1.7919e-09
-1.03629e-07
1.55016e-09
-1.04078e-07
1.30334e-09
-1.04439e-07
1.05173e-09
-1.04711e-07
7.95659e-10
-1.04892e-07
5.3547e-10
-1.04981e-07
2.71541e-10
-1.04976e-07
4.27071e-12
-1.04877e-07
-2.6592e-10
-1.04683e-07
-5.38578e-10
-1.04393e-07
-8.13231e-10
-1.04007e-07
-1.08938e-09
-1.03525e-07
-1.36651e-09
-1.02946e-07
-1.64408e-09
-1.02271e-07
-1.92151e-09
-1.01499e-07
-2.19823e-09
-1.00632e-07
-2.47364e-09
-9.96695e-08
-2.74711e-09
-9.86131e-08
-3.01802e-09
-9.74639e-08
-3.28571e-09
-9.6223e-08
-3.54952e-09
-9.48923e-08
-3.8088e-09
-9.34735e-08
-4.06286e-09
-9.19687e-08
-4.31102e-09
-9.03801e-08
-4.55261e-09
-8.87103e-08
-4.78694e-09
-8.69621e-08
-5.01333e-09
-8.51385e-08
-5.23112e-09
-8.32427e-08
-5.43964e-09
-8.1278e-08
-5.63823e-09
-7.92483e-08
-5.82626e-09
-7.71573e-08
-6.00312e-09
-7.50091e-08
-6.16819e-09
-7.28079e-08
-6.32091e-09
-7.05583e-08
-6.46072e-09
-6.82649e-08
-6.5871e-09
-6.59324e-08
-6.69956e-09
-6.35657e-08
-6.79765e-09
-6.11701e-08
-6.88093e-09
-5.87507e-08
-6.94904e-09
-5.63128e-08
-7.00162e-09
-5.38619e-08
-7.03839e-09
-5.14035e-08
-7.05909e-09
-4.89431e-08
-7.06352e-09
-4.64865e-08
-7.05152e-09
-4.40393e-08
-7.02299e-09
-4.16071e-08
-6.97788e-09
-3.91956e-08
-6.91619e-09
-3.68106e-08
-6.83798e-09
-3.44576e-08
-6.74335e-09
-3.21422e-08
-6.63248e-09
-2.98699e-08
-6.50559e-09
-2.7646e-08
-6.36297e-09
-2.54758e-08
-6.20494e-09
-2.33645e-08
-6.03192e-09
-2.13171e-08
-5.84436e-09
-1.93382e-08
-5.64277e-09
-1.74324e-08
-5.42773e-09
-1.56042e-08
-5.19989e-09
-1.38577e-08
-4.95995e-09
-1.21966e-08
-4.70867e-09
-1.06245e-08
-4.44688e-09
-9.14465e-09
-4.17551e-09
-7.75995e-09
-3.89552e-09
-6.47289e-09
-3.60798e-09
-5.28557e-09
-3.31404e-09
-4.19966e-09
-3.01494e-09
-3.21636e-09
-2.71204e-09
-2.33634e-09
-2.40683e-09
-1.55974e-09
-2.10092e-09
-8.86035e-10
-1.7961e-09
-3.14072e-10
-1.49435e-09
1.58069e-10
-1.19787e-09
5.33125e-10
-9.09133e-10
8.14748e-10
-6.30939e-10
1.0076e-09
-3.66467e-10
1.11749e-09
-1.19345e-10
1.15146e-09
1.0626e-10
1.11795e-09
3.05562e-10
1.02694e-09
4.73061e-10
8.90024e-10
6.02493e-10
7.20602e-10
6.86812e-10
5.33921e-10
7.18302e-10
3.47239e-10
6.88882e-10
1.80079e-10
5.90714e-10
5.49465e-11
4.17263e-10
1.65041e-10
2.52221e-11
-1.75896e-10
5.94347e-11
-3.35025e-10
7.1403e-11
-3.43126e-10
3.67782e-11
-2.32342e-10
-6.38629e-11
-2.82304e-11
-2.45935e-10
2.47553e-10
-5.21423e-10
5.7689e-10
-8.99384e-10
9.4486e-10
-1.38632e-09
1.33928e-09
-1.98656e-09
1.75028e-09
-2.70255e-09
2.16988e-09
-3.5352e-09
2.59171e-09
-4.48409e-09
3.01067e-09
-5.54774e-09
3.42274e-09
-6.72378e-09
3.82477e-09
-8.00914e-09
4.2143e-09
-9.40018e-09
4.58945e-09
-1.08928e-08
4.94883e-09
-1.24827e-08
5.29141e-09
-1.4165e-08
5.61648e-09
-1.59351e-08
5.92361e-09
-1.77879e-08
6.21253e-09
-1.97185e-08
6.48318e-09
-2.17217e-08
6.73561e-09
-2.37926e-08
6.96999e-09
-2.59261e-08
7.18657e-09
-2.81174e-08
7.38565e-09
-3.03616e-08
7.5676e-09
-3.26538e-08
7.73281e-09
-3.49894e-08
7.8817e-09
-3.73639e-08
8.01471e-09
-3.97728e-08
8.13226e-09
-4.22116e-08
8.2348e-09
-4.46762e-08
8.32275e-09
-4.71624e-08
8.39653e-09
-4.96662e-08
8.45653e-09
-5.21836e-08
8.50315e-09
-5.47108e-08
8.53673e-09
-5.7244e-08
8.55763e-09
-5.97796e-08
8.56614e-09
-6.23139e-08
8.56257e-09
-6.48435e-08
8.54717e-09
-6.73648e-08
8.52019e-09
-6.98745e-08
8.48184e-09
-7.23693e-08
8.43231e-09
-7.48459e-08
8.37177e-09
-7.7301e-08
8.30037e-09
-7.97314e-08
8.21824e-09
-8.21339e-08
8.12548e-09
-8.45054e-08
8.02218e-09
-8.68428e-08
7.90842e-09
-8.9143e-08
7.78427e-09
-9.14028e-08
7.64977e-09
-9.36192e-08
7.50496e-09
-9.57892e-08
7.34989e-09
-9.79097e-08
7.18459e-09
-9.99777e-08
7.00907e-09
-1.0199e-07
6.82338e-09
-1.03944e-07
6.62754e-09
-1.05837e-07
6.42159e-09
-1.07665e-07
6.20558e-09
-1.09425e-07
5.97956e-09
-1.11116e-07
5.7436e-09
-1.12733e-07
5.49776e-09
-1.14274e-07
5.24216e-09
-1.15736e-07
4.97691e-09
-1.17116e-07
4.70213e-09
-1.18412e-07
4.41799e-09
-1.19622e-07
4.12467e-09
-1.20741e-07
3.82237e-09
-1.21768e-07
3.51133e-09
-1.22701e-07
3.19182e-09
-1.23537e-07
2.86412e-09
-1.24274e-07
2.52857e-09
-1.24909e-07
2.18551e-09
-1.25441e-07
1.83535e-09
-1.25868e-07
1.4785e-09
-1.26188e-07
1.11543e-09
-1.26399e-07
7.46638e-10
-1.265e-07
3.72647e-10
-1.2649e-07
-5.97225e-12
-1.26367e-07
-3.88619e-10
-1.26131e-07
-7.7466e-10
-1.25781e-07
-1.16342e-09
-1.25316e-07
-1.55421e-09
-1.24736e-07
-1.94628e-09
-1.24041e-07
-2.33887e-09
-1.23232e-07
-2.73119e-09
-1.22307e-07
-3.12241e-09
-1.21269e-07
-3.5117e-09
-1.20118e-07
-3.89817e-09
-1.18855e-07
-4.28095e-09
-1.17482e-07
-4.65911e-09
-1.16e-07
-5.03175e-09
-1.14411e-07
-5.39791e-09
-1.12717e-07
-5.75665e-09
-1.10921e-07
-6.10703e-09
-1.09025e-07
-6.44809e-09
-1.07033e-07
-6.77888e-09
-1.04948e-07
-7.09844e-09
-1.02774e-07
-7.40583e-09
-1.00513e-07
-7.70014e-09
-9.81709e-08
-7.98045e-09
-9.57513e-08
-8.24586e-09
-9.32589e-08
-8.49552e-09
-9.06985e-08
-8.72858e-09
-8.80751e-08
-8.94424e-09
-8.53941e-08
-9.14173e-09
-8.26609e-08
-9.32032e-09
-7.98812e-08
-9.47932e-09
-7.70607e-08
-9.61811e-09
-7.42056e-08
-9.73608e-09
-7.13219e-08
-9.83272e-09
-6.84159e-08
-9.90755e-09
-6.54942e-08
-9.96015e-09
-6.25631e-08
-9.99018e-09
-5.96292e-08
-9.99736e-09
-5.66993e-08
-9.98147e-09
-5.37799e-08
-9.94237e-09
-5.08778e-08
-9.87999e-09
-4.79997e-08
-9.79434e-09
-4.51522e-08
-9.68549e-09
-4.23419e-08
-9.55362e-09
-3.95754e-08
-9.39897e-09
-3.68592e-08
-9.22184e-09
-3.41995e-08
-9.02264e-09
-3.16026e-08
-8.80186e-09
-2.90744e-08
-8.56006e-09
-2.66209e-08
-8.29789e-09
-2.42476e-08
-8.01609e-09
-2.19598e-08
-7.71546e-09
-1.97628e-08
-7.39693e-09
-1.76613e-08
-7.06148e-09
-1.56597e-08
-6.71021e-09
-1.37623e-08
-6.34431e-09
-1.19727e-08
-5.96505e-09
-1.02944e-08
-5.57382e-09
-8.73027e-09
-5.17215e-09
-7.28266e-09
-4.76164e-09
-5.95352e-09
-4.34408e-09
-4.7442e-09
-3.92137e-09
-3.65543e-09
-3.4956e-09
-2.68731e-09
-3.06905e-09
-1.8392e-09
-2.64421e-09
-1.1097e-09
-2.22385e-09
-4.96559e-10
-1.81101e-09
3.41888e-12
-1.40911e-09
3.94437e-10
-1.02196e-09
6.81816e-10
-6.53846e-10
8.721e-10
-3.0963e-10
9.73173e-10
5.18875e-12
9.94368e-10
2.84368e-10
9.46589e-10
5.20839e-10
8.42432e-10
7.06648e-10
6.963e-10
8.32944e-10
5.24555e-10
8.90048e-10
3.4577e-10
8.67666e-10
1.81185e-10
7.55301e-10
5.56292e-11
5.42818e-10
2.2067e-10
1.29535e-11
-1.88847e-10
1.54206e-11
-3.37491e-10
-2.14487e-11
-3.06255e-10
-1.20774e-10
-1.33013e-10
-3.01242e-10
1.52237e-10
-5.77797e-10
5.24108e-10
-9.62161e-10
9.61257e-10
-1.46326e-09
1.44595e-09
-2.08754e-09
1.96357e-09
-2.83934e-09
2.50208e-09
-3.72113e-09
3.05166e-09
-4.73377e-09
3.60435e-09
-5.87681e-09
4.15371e-09
-7.14864e-09
4.69457e-09
-8.54672e-09
5.22285e-09
-1.00677e-08
5.73532e-09
-1.17078e-08
6.22947e-09
-1.34623e-08
6.70342e-09
-1.53267e-08
7.15575e-09
-1.72957e-08
7.58546e-09
-1.93639e-08
7.99188e-09
-2.1526e-08
8.37463e-09
-2.37764e-08
8.73353e-09
-2.61094e-08
9.06859e-09
-2.85193e-08
9.37996e-09
-3.10007e-08
9.66793e-09
-3.35479e-08
9.93284e-09
-3.61554e-08
1.01751e-08
-3.88179e-08
1.03953e-08
-4.153e-08
1.05938e-08
-4.42865e-08
1.07712e-08
-4.70824e-08
1.09281e-08
-4.99125e-08
1.1065e-08
-5.27722e-08
1.11824e-08
-5.56565e-08
1.12809e-08
-5.85609e-08
1.13609e-08
-6.14808e-08
1.14231e-08
-6.44118e-08
1.14677e-08
-6.73496e-08
1.14954e-08
-7.02898e-08
1.15064e-08
-7.32284e-08
1.15011e-08
-7.61613e-08
1.148e-08
-7.90843e-08
1.14433e-08
-8.19937e-08
1.13912e-08
-8.48855e-08
1.13241e-08
-8.7756e-08
1.12422e-08
-9.06012e-08
1.11456e-08
-9.34175e-08
1.10346e-08
-9.62013e-08
1.09092e-08
-9.89488e-08
1.07697e-08
-1.01656e-07
1.0616e-08
-1.0432e-07
1.04484e-08
-1.06937e-07
1.02668e-08
-1.09504e-07
1.00713e-08
-1.12016e-07
9.86207e-09
-1.1447e-07
9.63905e-09
-1.16864e-07
9.40232e-09
-1.19192e-07
9.15192e-09
-1.21453e-07
8.88791e-09
-1.23641e-07
8.61035e-09
-1.25755e-07
8.3193e-09
-1.2779e-07
8.01484e-09
-1.29744e-07
7.69708e-09
-1.31612e-07
7.36613e-09
-1.33392e-07
7.02213e-09
-1.3508e-07
6.66524e-09
-1.36674e-07
6.29565e-09
-1.3817e-07
5.91358e-09
-1.39564e-07
5.51928e-09
-1.40855e-07
5.11304e-09
-1.42039e-07
4.69518e-09
-1.43113e-07
4.26606e-09
-1.44075e-07
3.82608e-09
-1.44922e-07
3.37568e-09
-1.45652e-07
2.91535e-09
-1.46262e-07
2.44562e-09
-1.46751e-07
1.96705e-09
-1.47116e-07
1.48028e-09
-1.47355e-07
9.85971e-10
-1.47467e-07
4.84831e-10
-1.47451e-07
-2.23794e-11
-1.47304e-07
-5.34854e-10
-1.47027e-07
-1.05174e-09
-1.46619e-07
-1.57215e-09
-1.46078e-07
-2.09514e-09
-1.45404e-07
-2.61974e-09
-1.44598e-07
-3.14492e-09
-1.4366e-07
-3.66962e-09
-1.42589e-07
-4.19275e-09
-1.41388e-07
-4.7132e-09
-1.40056e-07
-5.22979e-09
-1.38596e-07
-5.74135e-09
-1.37008e-07
-6.24667e-09
-1.35296e-07
-6.74452e-09
-1.3346e-07
-7.23367e-09
-1.31504e-07
-7.71286e-09
-1.2943e-07
-8.18082e-09
-1.27242e-07
-8.6363e-09
-1.24942e-07
-9.07802e-09
-1.22536e-07
-9.50474e-09
-1.20027e-07
-9.91521e-09
-1.17419e-07
-1.03082e-08
-1.14717e-07
-1.06825e-08
-1.11926e-07
-1.1037e-08
-1.09051e-07
-1.13704e-08
-1.06097e-07
-1.16818e-08
-1.03072e-07
-1.19699e-08
-9.99796e-08
-1.22339e-08
-9.68272e-08
-1.24727e-08
-9.3621e-08
-1.26855e-08
-9.03678e-08
-1.28713e-08
-8.70743e-08
-1.30295e-08
-8.37477e-08
-1.31594e-08
-8.0395e-08
-1.32602e-08
-7.70237e-08
-1.33315e-08
-7.36411e-08
-1.33728e-08
-7.02548e-08
-1.33837e-08
-6.68722e-08
-1.3364e-08
-6.35012e-08
-1.33134e-08
-6.01492e-08
-1.3232e-08
-5.68239e-08
-1.31196e-08
-5.35329e-08
-1.29765e-08
-5.02837e-08
-1.28028e-08
-4.70839e-08
-1.25988e-08
-4.39407e-08
-1.2365e-08
-4.08613e-08
-1.2102e-08
-3.78529e-08
-1.18103e-08
-3.49222e-08
-1.14908e-08
-3.20758e-08
-1.11442e-08
-2.93203e-08
-1.07716e-08
-2.66616e-08
-1.03742e-08
-2.41055e-08
-9.95298e-09
-2.16576e-08
-9.50942e-09
-1.93228e-08
-9.04496e-09
-1.7106e-08
-8.56117e-09
-1.50112e-08
-8.05978e-09
-1.30424e-08
-7.54266e-09
-1.12027e-08
-7.01182e-09
-9.49495e-09
-6.46943e-09
-7.92119e-09
-5.91785e-09
-6.48293e-09
-5.35963e-09
-5.181e-09
-4.79754e-09
-4.01545e-09
-4.23459e-09
-2.98556e-09
-3.6741e-09
-2.08974e-09
-3.11967e-09
-1.32546e-09
-2.57529e-09
-6.89176e-10
-2.04539e-09
-1.76258e-10
-1.53488e-09
2.19125e-10
-1.04923e-09
5.0408e-10
-5.94584e-10
6.871e-10
-1.7783e-10
7.78166e-10
1.93301e-10
7.88852e-10
5.1015e-10
7.32447e-10
7.63055e-10
6.24076e-10
9.41318e-10
4.809e-10
1.03322e-09
3.22432e-10
1.02613e-09
1.71056e-10
9.06678e-10
5.29362e-11
6.60938e-10
2.73608e-10
-1.04066e-12
-1.87805e-10
-3.51835e-11
-3.03351e-10
-1.2809e-10
-2.13342e-10
-3.00909e-10
3.98042e-11
-5.70962e-10
4.22294e-10
-9.52259e-10
9.05404e-10
-1.45585e-09
1.46485e-09
-2.09019e-09
2.08029e-09
-2.86141e-09
2.73479e-09
-3.77359e-09
3.41426e-09
-4.82902e-09
4.1071e-09
-6.02844e-09
4.80377e-09
-7.37121e-09
5.49647e-09
-8.85554e-09
6.17891e-09
-1.04787e-08
6.84602e-09
-1.22371e-08
7.49375e-09
-1.41266e-08
8.11896e-09
-1.61424e-08
8.7192e-09
-1.82793e-08
9.29264e-09
-2.05318e-08
9.83794e-09
-2.28941e-08
1.03542e-08
-2.53603e-08
1.08408e-08
-2.79242e-08
1.12975e-08
-3.05799e-08
1.17242e-08
-3.3321e-08
1.21211e-08
-3.61415e-08
1.24884e-08
-3.90353e-08
1.28266e-08
-4.19962e-08
1.31361e-08
-4.50183e-08
1.34174e-08
-4.80958e-08
1.36712e-08
-5.12227e-08
1.38982e-08
-5.43935e-08
1.40989e-08
-5.76026e-08
1.42741e-08
-6.08445e-08
1.44243e-08
-6.4114e-08
1.45503e-08
-6.74057e-08
1.46527e-08
-7.07146e-08
1.4732e-08
-7.40358e-08
1.47889e-08
-7.73642e-08
1.48238e-08
-8.06951e-08
1.48373e-08
-8.40239e-08
1.48299e-08
-8.73458e-08
1.4802e-08
-9.06564e-08
1.47539e-08
-9.39512e-08
1.4686e-08
-9.72258e-08
1.45987e-08
-1.00476e-07
1.44923e-08
-1.03697e-07
1.43669e-08
-1.06885e-07
1.42228e-08
-1.10036e-07
1.40602e-08
-1.13146e-07
1.38792e-08
-1.1621e-07
1.368e-08