/*--------------------------------*- C++ -*----------------------------------*\
  =========                 |
  \\      /  F ield         | OpenFOAM: The Open Source CFD Toolbox
   \\    /   O peration     | Website:  https://openfoam.org
    \\  /    A nd           | Version:  7
     \\/     M anipulation  |
\*---------------------------------------------------------------------------*/
FoamFile
{
    version     2.0;
    format      ascii;
    class       volVectorField;
    location    "0.425";
    object      U;
}
// * * * * * * * * * * * * * * * * * * * * * * * * * * * * * * * * * * * * * //

dimensions      [0 1 -1 0 0 0 0];

internalField   nonuniform List<vector> 
25600
(
(3.37695e-07 -4.30273e-07 0)
(3.16468e-06 -1.87915e-06 0)
(8.85536e-06 -2.61107e-06 0)
(1.55025e-05 -2.73321e-06 0)
(2.16414e-05 -2.45498e-06 0)
(2.64887e-05 -1.93829e-06 0)
(2.95212e-05 -1.28299e-06 0)
(3.04085e-05 -5.52924e-07 0)
(2.89588e-05 2.12114e-07 0)
(2.50732e-05 9.86625e-07 0)
(1.8717e-05 1.75436e-06 0)
(9.90137e-06 2.5054e-06 0)
(-1.3323e-06 3.23237e-06 0)
(-1.49189e-05 3.93086e-06 0)
(-3.07768e-05 4.59799e-06 0)
(-4.88142e-05 5.23155e-06 0)
(-6.89309e-05 5.83085e-06 0)
(-9.10223e-05 6.39578e-06 0)
(-0.000114981 6.92625e-06 0)
(-0.000140699 7.42256e-06 0)
(-0.000168066 7.88489e-06 0)
(-0.000196976 8.31405e-06 0)
(-0.000227322 8.71122e-06 0)
(-0.000259 9.07748e-06 0)
(-0.000291909 9.41425e-06 0)
(-0.000325951 9.72258e-06 0)
(-0.000361031 1.00033e-05 0)
(-0.000397055 1.02575e-05 0)
(-0.000433937 1.04864e-05 0)
(-0.000471589 1.0691e-05 0)
(-0.000509929 1.08724e-05 0)
(-0.000548879 1.10316e-05 0)
(-0.000588361 1.11696e-05 0)
(-0.000628302 1.1287e-05 0)
(-0.000668632 1.13849e-05 0)
(-0.000709281 1.14642e-05 0)
(-0.000750186 1.15254e-05 0)
(-0.000791282 1.15691e-05 0)
(-0.000832507 1.15962e-05 0)
(-0.000873803 1.16072e-05 0)
(-0.000915112 1.16024e-05 0)
(-0.000956377 1.15824e-05 0)
(-0.000997544 1.15476e-05 0)
(-0.00103856 1.14981e-05 0)
(-0.00107937 1.14343e-05 0)
(-0.00111992 1.13565e-05 0)
(-0.00116017 1.12648e-05 0)
(-0.00120006 1.11595e-05 0)
(-0.00123955 1.10404e-05 0)
(-0.00127858 1.0908e-05 0)
(-0.0013171 1.0762e-05 0)
(-0.00135507 1.06025e-05 0)
(-0.00139244 1.04296e-05 0)
(-0.00142916 1.02434e-05 0)
(-0.00146518 1.00437e-05 0)
(-0.00150045 9.83031e-06 0)
(-0.00153492 9.60337e-06 0)
(-0.00156855 9.36288e-06 0)
(-0.00160129 9.10862e-06 0)
(-0.00163308 8.84038e-06 0)
(-0.00166387 8.55823e-06 0)
(-0.00169363 8.26224e-06 0)
(-0.0017223 7.95251e-06 0)
(-0.00174982 7.62894e-06 0)
(-0.00177616 7.29149e-06 0)
(-0.00180126 6.94026e-06 0)
(-0.00182508 6.57531e-06 0)
(-0.00184756 6.19673e-06 0)
(-0.00186867 5.80463e-06 0)
(-0.00188834 5.39919e-06 0)
(-0.00190655 4.9808e-06 0)
(-0.00192324 4.54977e-06 0)
(-0.00193838 4.10635e-06 0)
(-0.00195191 3.65091e-06 0)
(-0.0019638 3.18374e-06 0)
(-0.00197402 2.70531e-06 0)
(-0.00198251 2.21643e-06 0)
(-0.00198926 1.71768e-06 0)
(-0.00199422 1.20961e-06 0)
(-0.00199736 6.92898e-07 0)
(-0.00199867 1.68175e-07 0)
(-0.00199811 -3.63646e-07 0)
(-0.00199566 -9.01441e-07 0)
(-0.00199131 -1.44432e-06 0)
(-0.00198504 -1.99139e-06 0)
(-0.00197683 -2.54165e-06 0)
(-0.00196669 -3.09409e-06 0)
(-0.0019546 -3.64752e-06 0)
(-0.00194057 -4.20054e-06 0)
(-0.0019246 -4.75191e-06 0)
(-0.0019067 -5.30037e-06 0)
(-0.00188689 -5.84458e-06 0)
(-0.00186518 -6.38329e-06 0)
(-0.0018416 -6.91523e-06 0)
(-0.00181617 -7.43888e-06 0)
(-0.00178893 -7.9527e-06 0)
(-0.00175991 -8.45526e-06 0)
(-0.00172916 -8.94502e-06 0)
(-0.00169672 -9.4205e-06 0)
(-0.00166265 -9.88042e-06 0)
(-0.00162701 -1.03234e-05 0)
(-0.00158986 -1.07478e-05 0)
(-0.00155126 -1.11522e-05 0)
(-0.00151129 -1.15352e-05 0)
(-0.00147002 -1.18956e-05 0)
(-0.00142754 -1.22317e-05 0)
(-0.00138393 -1.25427e-05 0)
(-0.00133929 -1.28272e-05 0)
(-0.0012937 -1.3084e-05 0)
(-0.00124727 -1.3312e-05 0)
(-0.00120009 -1.35102e-05 0)
(-0.00115227 -1.36777e-05 0)
(-0.00110393 -1.38135e-05 0)
(-0.00105516 -1.3917e-05 0)
(-0.00100608 -1.39875e-05 0)
(-0.000956818 -1.40243e-05 0)
(-0.000907477 -1.4027e-05 0)
(-0.000858178 -1.39951e-05 0)
(-0.000809043 -1.39286e-05 0)
(-0.00076019 -1.3827e-05 0)
(-0.000711741 -1.36905e-05 0)
(-0.000663815 -1.35191e-05 0)
(-0.000616532 -1.33131e-05 0)
(-0.000570012 -1.30726e-05 0)
(-0.000524371 -1.2798e-05 0)
(-0.000479726 -1.249e-05 0)
(-0.000436191 -1.21492e-05 0)
(-0.000393876 -1.17762e-05 0)
(-0.00035289 -1.1372e-05 0)
(-0.000313339 -1.09376e-05 0)
(-0.000275323 -1.04743e-05 0)
(-0.000238939 -9.98306e-06 0)
(-0.000204281 -9.46512e-06 0)
(-0.000171436 -8.922e-06 0)
(-0.000140485 -8.35528e-06 0)
(-0.000111507 -7.76662e-06 0)
(-8.45696e-05 -7.15782e-06 0)
(-5.97373e-05 -6.53085e-06 0)
(-3.70661e-05 -5.88782e-06 0)
(-1.66037e-05 -5.23087e-06 0)
(1.61044e-06 -4.5624e-06 0)
(1.75466e-05 -3.88513e-06 0)
(3.1185e-05 -3.2021e-06 0)
(4.25176e-05 -2.51659e-06 0)
(5.15492e-05 -1.83229e-06 0)
(5.82993e-05 -1.15347e-06 0)
(6.2804e-05 -4.85176e-07 0)
(6.51182e-05 1.66692e-07 0)
(6.53201e-05 7.94957e-07 0)
(6.35152e-05 1.3906e-06 0)
(5.98426e-05 1.94199e-06 0)
(5.44825e-05 2.43388e-06 0)
(4.76677e-05 2.8458e-06 0)
(3.96995e-05 3.14913e-06 0)
(3.09693e-05 3.30287e-06 0)
(2.19877e-05 3.24887e-06 0)
(1.34148e-05 2.90875e-06 0)
(6.09597e-06 2.18178e-06 0)
(1.14002e-06 9.92118e-07 0)
(-2.94187e-07 -2.93651e-07 0)
(1.76188e-06 -3.1412e-06 0)
(8.7233e-06 -8.86022e-06 0)
(2.03907e-05 -1.15793e-05 0)
(3.30712e-05 -1.17115e-05 0)
(4.41167e-05 -9.97589e-06 0)
(5.17872e-05 -6.97683e-06 0)
(5.48143e-05 -3.14964e-06 0)
(5.23168e-05 1.19489e-06 0)
(4.37211e-05 5.83851e-06 0)
(2.86862e-05 1.06277e-05 0)
(7.04512e-06 1.54542e-05 0)
(-2.12416e-05 2.024e-05 0)
(-5.61172e-05 2.49294e-05 0)
(-9.74535e-05 2.94831e-05 0)
(-0.00014507 3.38722e-05 0)
(-0.000198748 3.8077e-05 0)
(-0.00025824 4.2084e-05 0)
(-0.000323279 4.58848e-05 0)
(-0.000393587 4.94752e-05 0)
(-0.000468877 5.28532e-05 0)
(-0.000548858 5.6019e-05 0)
(-0.000633238 5.89746e-05 0)
(-0.000721728 6.17236e-05 0)
(-0.000814043 6.427e-05 0)
(-0.000909902 6.66198e-05 0)
(-0.00100903 6.87785e-05 0)
(-0.00111116 7.07517e-05 0)
(-0.00121603 7.25457e-05 0)
(-0.00132339 7.41666e-05 0)
(-0.001433 7.56204e-05 0)
(-0.00154461 7.69137e-05 0)
(-0.00165801 7.80524e-05 0)
(-0.00177297 7.90419e-05 0)
(-0.00188927 7.98879e-05 0)
(-0.00200672 8.05959e-05 0)
(-0.00212511 8.11703e-05 0)
(-0.00224426 8.1616e-05 0)
(-0.00236397 8.19375e-05 0)
(-0.00248407 8.21384e-05 0)
(-0.00260438 8.22223e-05 0)
(-0.00272473 8.21924e-05 0)
(-0.00284495 8.2052e-05 0)
(-0.00296489 8.18034e-05 0)
(-0.00308438 8.14486e-05 0)
(-0.00320328 8.09901e-05 0)
(-0.00332142 8.04294e-05 0)
(-0.00343865 7.97677e-05 0)
(-0.00355484 7.90062e-05 0)
(-0.00366982 7.8146e-05 0)
(-0.00378346 7.71876e-05 0)
(-0.00389561 7.61316e-05 0)
(-0.00400612 7.49783e-05 0)
(-0.00411486 7.37279e-05 0)
(-0.00422167 7.23807e-05 0)
(-0.00432642 7.09363e-05 0)
(-0.00442897 6.93948e-05 0)
(-0.00452916 6.77563e-05 0)
(-0.00462687 6.60205e-05 0)
(-0.00472193 6.41872e-05 0)
(-0.00481423 6.22562e-05 0)
(-0.0049036 6.02277e-05 0)
(-0.0049899 5.81016e-05 0)
(-0.00507301 5.58781e-05 0)
(-0.00515276 5.35576e-05 0)
(-0.00522903 5.11406e-05 0)
(-0.00530168 4.86279e-05 0)
(-0.00537056 4.60203e-05 0)
(-0.00543554 4.33187e-05 0)
(-0.00549648 4.05245e-05 0)
(-0.00555326 3.76393e-05 0)
(-0.00560574 3.46649e-05 0)
(-0.00565379 3.1604e-05 0)
(-0.0056973 2.84587e-05 0)
(-0.00573615 2.52321e-05 0)
(-0.00577022 2.19272e-05 0)
(-0.0057994 1.85474e-05 0)
(-0.00582358 1.50971e-05 0)
(-0.00584268 1.15805e-05 0)
(-0.00585661 8.00207e-06 0)
(-0.00586527 4.36694e-06 0)
(-0.00586859 6.80563e-07 0)
(-0.0058665 -3.05125e-06 0)
(-0.00585896 -6.82201e-06 0)
(-0.00584589 -1.06252e-05 0)
(-0.00582728 -1.44541e-05 0)
(-0.00580308 -1.83014e-05 0)
(-0.00577328 -2.21594e-05 0)
(-0.00573788 -2.60202e-05 0)
(-0.00569686 -2.98753e-05 0)
(-0.00565027 -3.37161e-05 0)
(-0.00559811 -3.75339e-05 0)
(-0.00554044 -4.13196e-05 0)
(-0.00547731 -4.50639e-05 0)
(-0.00540879 -4.87575e-05 0)
(-0.00533496 -5.23906e-05 0)
(-0.00525592 -5.59534e-05 0)
(-0.00517178 -5.9436e-05 0)
(-0.00508266 -6.28286e-05 0)
(-0.0049887 -6.61212e-05 0)
(-0.00489005 -6.9304e-05 0)
(-0.00478689 -7.23672e-05 0)
(-0.00467939 -7.5301e-05 0)
(-0.00456775 -7.80958e-05 0)
(-0.00445217 -8.07423e-05 0)
(-0.00433288 -8.32315e-05 0)
(-0.00421012 -8.55544e-05 0)
(-0.00408411 -8.77025e-05 0)
(-0.00395514 -8.96678e-05 0)
(-0.00382346 -9.14426e-05 0)
(-0.00368935 -9.30193e-05 0)
(-0.00355311 -9.43912e-05 0)
(-0.00341503 -9.55522e-05 0)
(-0.00327543 -9.64966e-05 0)
(-0.00313461 -9.72191e-05 0)
(-0.00299291 -9.77153e-05 0)
(-0.00285064 -9.79815e-05 0)
(-0.00270814 -9.80145e-05 0)
(-0.00256576 -9.78117e-05 0)
(-0.00242382 -9.73716e-05 0)
(-0.00228267 -9.66932e-05 0)
(-0.00214265 -9.57764e-05 0)
(-0.0020041 -9.46218e-05 0)
(-0.00186737 -9.32307e-05 0)
(-0.00173279 -9.16054e-05 0)
(-0.00160069 -8.97489e-05 0)
(-0.00147141 -8.76648e-05 0)
(-0.00134527 -8.53579e-05 0)
(-0.00122257 -8.28336e-05 0)
(-0.00110363 -8.0098e-05 0)
(-0.000988746 -7.71583e-05 0)
(-0.000878202 -7.40223e-05 0)
(-0.000772273 -7.06986e-05 0)
(-0.000671218 -6.71967e-05 0)
(-0.000575283 -6.3527e-05 0)
(-0.000484699 -5.97006e-05 0)
(-0.000399679 -5.57296e-05 0)
(-0.000320415 -5.16274e-05 0)
(-0.000247082 -4.7408e-05 0)
(-0.000179833 -4.30867e-05 0)
(-0.000118794 -3.86801e-05 0)
(-6.4069e-05 -3.42064e-05 0)
(-1.57314e-05 -2.96855e-05 0)
(2.61752e-05 -2.51394e-05 0)
(6.1642e-05 -2.05924e-05 0)
(9.06985e-05 -1.6072e-05 0)
(0.000113417 -1.16096e-05 0)
(0.000129919 -7.24111e-06 0)
(0.000140382 -3.00876e-06 0)
(0.00014505 1.03754e-06 0)
(0.000144242 4.8375e-06 0)
(0.00013837 8.31711e-06 0)
(0.000127955 1.13844e-05 0)
(0.000113652 1.39232e-05 0)
(9.62753e-05 1.5785e-05 0)
(7.68367e-05 1.67787e-05 0)
(5.65783e-05 1.66644e-05 0)
(3.69804e-05 1.51599e-05 0)
(1.97413e-05 1.19711e-05 0)
(6.95604e-06 6.96453e-06 0)
(9.87891e-07 1.13822e-06 0)
(2.58052e-06 -8.82167e-06 0)
(1.15383e-05 -2.04603e-05 0)
(2.53596e-05 -2.54001e-05 0)
(3.93322e-05 -2.46822e-05 0)
(5.0142e-05 -1.96631e-05 0)
(5.55394e-05 -1.15359e-05 0)
(5.37998e-05 -1.24748e-06 0)
(4.36544e-05 1.0479e-05 0)
(2.42341e-05 2.31006e-05 0)
(-5.0136e-06 3.62153e-05 0)
(-4.43944e-05 4.95237e-05 0)
(-9.402e-05 6.28031e-05 0)
(-0.000153853 7.58887e-05 0)
(-0.000223743 8.86576e-05 0)
(-0.00030345 0.00010102 0)
(-0.000392668 0.00011291 0)
(-0.000491045 0.000124283 0)
(-0.000598188 0.000135106 0)
(-0.000713683 0.000145359 0)
(-0.000837098 0.000155032 0)
(-0.000967991 0.000164121 0)
(-0.00110591 0.000172628 0)
(-0.00125042 0.000180558 0)
(-0.00140106 0.000187921 0)
(-0.00155741 0.000194727 0)
(-0.00171902 0.000200991 0)
(-0.00188548 0.000206727 0)
(-0.00205637 0.000211951 0)
(-0.0022313 0.000216679 0)
(-0.00240987 0.000220926 0)
(-0.0025917 0.00022471 0)
(-0.00277643 0.000228045 0)
(-0.0029637 0.000230948 0)
(-0.00315317 0.000233434 0)
(-0.00334451 0.000235516 0)
(-0.00353739 0.000237208 0)
(-0.0037315 0.000238524 0)
(-0.00392654 0.000239473 0)
(-0.0041222 0.000240069 0)
(-0.00431822 0.00024032 0)
(-0.0045143 0.000240236 0)
(-0.00471018 0.000239825 0)
(-0.00490558 0.000239094 0)
(-0.00510025 0.00023805 0)
(-0.00529394 0.000236699 0)
(-0.00548638 0.000235045 0)
(-0.00567734 0.000233093 0)
(-0.00586656 0.000230846 0)
(-0.00605381 0.000228307 0)
(-0.00623885 0.000225478 0)
(-0.00642143 0.00022236 0)
(-0.00660133 0.000218956 0)
(-0.00677829 0.000215266 0)
(-0.0069521 0.00021129 0)
(-0.00712252 0.000207029 0)
(-0.0072893 0.000202483 0)
(-0.00745222 0.000197652 0)
(-0.00761105 0.000192535 0)
(-0.00776556 0.000187134 0)
(-0.0079155 0.000181448 0)
(-0.00806065 0.000175477 0)
(-0.00820078 0.000169223 0)
(-0.00833565 0.000162685 0)
(-0.00846504 0.000155866 0)
(-0.00858873 0.000148767 0)
(-0.00870648 0.00014139 0)
(-0.00881807 0.000133739 0)
(-0.00892329 0.000125816 0)
(-0.00902191 0.000117627 0)
(-0.00911373 0.000109177 0)
(-0.00919854 0.00010047 0)
(-0.00927613 9.15146e-05 0)
(-0.00934631 8.23178e-05 0)
(-0.00940889 7.28881e-05 0)
(-0.0094637 6.32353e-05 0)
(-0.00951055 5.337e-05 0)
(-0.00954928 4.33038e-05 0)
(-0.00957975 3.30496e-05 0)
(-0.0096018 2.26209e-05 0)
(-0.0096153 1.20325e-05 0)
(-0.00962015 1.30045e-06 0)
(-0.00961622 -9.55808e-06 0)
(-0.00960344 -2.05251e-05 0)
(-0.00958172 -3.15814e-05 0)
(-0.00955101 -4.2707e-05 0)
(-0.00951126 -5.38808e-05 0)
(-0.00946244 -6.50805e-05 0)
(-0.00940456 -7.62833e-05 0)
(-0.00933762 -8.74652e-05 0)
(-0.00926165 -9.86014e-05 0)
(-0.0091767 -0.000109667 0)
(-0.00908284 -0.000120635 0)
(-0.00898017 -0.000131479 0)
(-0.0088688 -0.000142173 0)
(-0.00874887 -0.000152687 0)
(-0.00862053 -0.000162996 0)
(-0.00848397 -0.000173069 0)
(-0.00833939 -0.00018288 0)
(-0.008187 -0.000192399 0)
(-0.00802708 -0.000201598 0)
(-0.00785987 -0.00021045 0)
(-0.00768568 -0.000218927 0)
(-0.00750482 -0.000227001 0)
(-0.00731762 -0.000234646 0)
(-0.00712444 -0.000241836 0)
(-0.00692566 -0.000248545 0)
(-0.00672168 -0.000254751 0)
(-0.0065129 -0.000260428 0)
(-0.00629977 -0.000265557 0)
(-0.00608273 -0.000270115 0)
(-0.00586224 -0.000274083 0)
(-0.00563879 -0.000277444 0)
(-0.00541288 -0.000280182 0)
(-0.00518499 -0.000282283 0)
(-0.00495566 -0.000283733 0)
(-0.00472541 -0.000284522 0)
(-0.00449476 -0.00028464 0)
(-0.00426427 -0.000284083 0)
(-0.00403446 -0.000282844 0)
(-0.00380589 -0.000280921 0)
(-0.00357911 -0.000278314 0)
(-0.00335465 -0.000275025 0)
(-0.00313307 -0.000271058 0)
(-0.0029149 -0.00026642 0)
(-0.00270067 -0.000261119 0)
(-0.00249091 -0.000255167 0)
(-0.00228613 -0.000248577 0)
(-0.00208684 -0.000241366 0)
(-0.00189351 -0.00023355 0)
(-0.00170664 -0.000225151 0)
(-0.00152666 -0.000216193 0)
(-0.00135402 -0.000206699 0)
(-0.00118912 -0.000196699 0)
(-0.00103236 -0.000186222 0)
(-0.000884091 -0.000175302 0)
(-0.00074466 -0.000163974 0)
(-0.000614366 -0.000152278 0)
(-0.00049348 -0.000140255 0)
(-0.000382235 -0.000127951 0)
(-0.000280829 -0.000115415 0)
(-0.000189414 -0.000102701 0)
(-0.000108097 -8.98681e-05 0)
(-3.69341e-05 -7.69813e-05 0)
(2.4074e-05 -6.41129e-05 0)
(7.49895e-05 -5.13437e-05 0)
(0.000115944 -3.87656e-05 0)
(0.000147147 -2.64833e-05 0)
(0.000168899 -1.4618e-05 0)
(0.000181598 -3.31177e-06 0)
(0.000185765 7.26741e-06 0)
(0.000182054 1.69184e-05 0)
(0.00017128 2.53983e-05 0)
(0.000154441 3.2412e-05 0)
(0.000132752 3.76e-05 0)
(0.000107672 4.05294e-05 0)
(8.09348e-05 4.06959e-05 0)
(5.45187e-05 3.75578e-05 0)
(3.05986e-05 3.06264e-05 0)
(1.19428e-05 1.97412e-05 0)
(2.17016e-06 6.08089e-06 0)
(2.73093e-06 -1.54154e-05 0)
(1.17307e-05 -3.31175e-05 0)
(2.47258e-05 -3.93696e-05 0)
(3.64152e-05 -3.63522e-05 0)
(4.31235e-05 -2.61566e-05 0)
(4.2318e-05 -1.06153e-05 0)
(3.20102e-05 8.76532e-06 0)
(1.06952e-05 3.0791e-05 0)
(-2.26962e-05 5.45334e-05 0)
(-6.88727e-05 7.92769e-05 0)
(-0.000128251 0.000104473 0)
(-0.000201012 0.000129704 0)
(-0.000287147 0.00015465 0)
(-0.000386501 0.000179069 0)
(-0.000498799 0.00020278 0)
(-0.000623679 0.000225647 0)
(-0.000760706 0.000247573 0)
(-0.000909394 0.000268487 0)
(-0.00106922 0.000288342 0)
(-0.00123963 0.000307111 0)
(-0.00142007 0.000324779 0)
(-0.00160994 0.000341344 0)
(-0.00180867 0.000356811 0)
(-0.00201567 0.000371192 0)
(-0.00223038 0.000384507 0)
(-0.00245221 0.000396777 0)
(-0.0026806 0.000408027 0)
(-0.00291501 0.000418285 0)
(-0.0031549 0.000427579 0)
(-0.00339975 0.000435938 0)
(-0.00364904 0.000443392 0)
(-0.00390229 0.000449969 0)
(-0.004159 0.000455698 0)
(-0.00441872 0.000460607 0)
(-0.00468099 0.000464722 0)
(-0.00494536 0.000468069 0)
(-0.00521142 0.000470672 0)
(-0.00547875 0.000472552 0)
(-0.00574694 0.000473731 0)
(-0.0060156 0.000474227 0)
(-0.00628434 0.000474059 0)
(-0.0065528 0.000473242 0)
(-0.00682059 0.000471789 0)
(-0.00708737 0.000469714 0)
(-0.00735278 0.000467029 0)
(-0.00761648 0.000463741 0)
(-0.00787811 0.00045986 0)
(-0.00813734 0.000455392 0)
(-0.00839384 0.000450344 0)
(-0.00864728 0.000444719 0)
(-0.00889732 0.000438522 0)
(-0.00914365 0.000431755 0)
(-0.00938592 0.000424421 0)
(-0.00962383 0.000416521 0)
(-0.00985705 0.000408055 0)
(-0.0100853 0.000399026 0)
(-0.0103081 0.000389433 0)
(-0.0105253 0.000379276 0)
(-0.0107366 0.000368558 0)
(-0.0109415 0.000357277 0)
(-0.0111399 0.000345436 0)
(-0.0113313 0.000333037 0)
(-0.0115155 0.000320082 0)
(-0.0116921 0.000306573 0)
(-0.0118609 0.000292516 0)
(-0.0120215 0.000277915 0)
(-0.0121737 0.000262777 0)
(-0.0123171 0.000247109 0)
(-0.0124514 0.00023092 0)
(-0.0125764 0.000214221 0)
(-0.0126918 0.000197024 0)
(-0.0127972 0.000179343 0)
(-0.0128926 0.000161192 0)
(-0.0129775 0.00014259 0)
(-0.0130517 0.000123555 0)
(-0.0131151 0.00010411 0)
(-0.0131674 8.42764e-05 0)
(-0.0132083 6.40801e-05 0)
(-0.0132378 4.35482e-05 0)
(-0.0132556 2.27102e-05 0)
(-0.0132615 1.59751e-06 0)
(-0.0132555 -1.97562e-05 0)
(-0.0132374 -4.13154e-05 0)
(-0.0132072 -6.30429e-05 0)
(-0.0131646 -8.4899e-05 0)
(-0.0131098 -0.000106842 0)
(-0.0130426 -0.000128829 0)
(-0.0129631 -0.000150816 0)
(-0.0128712 -0.000172754 0)
(-0.0127671 -0.000194597 0)
(-0.0126507 -0.000216294 0)
(-0.0125223 -0.000237795 0)
(-0.0123818 -0.000259048 0)
(-0.0122296 -0.00028 0)
(-0.0120657 -0.000300598 0)
(-0.0118904 -0.000320786 0)
(-0.011704 -0.000340511 0)
(-0.0115066 -0.000359717 0)
(-0.0112987 -0.00037835 0)
(-0.0110806 -0.000396355 0)
(-0.0108525 -0.000413677 0)
(-0.010615 -0.000430263 0)
(-0.0103685 -0.000446061 0)
(-0.0101133 -0.000461018 0)
(-0.00985006 -0.000475085 0)
(-0.00957921 -0.000488213 0)
(-0.00930129 -0.000500355 0)
(-0.00901688 -0.000511467 0)
(-0.00872654 -0.000521506 0)
(-0.0084309 -0.000530433 0)
(-0.00813058 -0.000538209 0)
(-0.00782622 -0.000544802 0)
(-0.00751849 -0.00055018 0)
(-0.00720808 -0.000554314 0)
(-0.00689568 -0.000557182 0)
(-0.006582 -0.000558763 0)
(-0.00626775 -0.000559038 0)
(-0.00595366 -0.000557997 0)
(-0.00564046 -0.00055563 0)
(-0.00532889 -0.000551932 0)
(-0.00501967 -0.000546904 0)
(-0.00471356 -0.000540549 0)
(-0.00441126 -0.000532876 0)
(-0.00411352 -0.000523898 0)
(-0.00382105 -0.000513632 0)
(-0.00353454 -0.000502101 0)
(-0.00325469 -0.000489331 0)
(-0.00298218 -0.000475354 0)
(-0.00271765 -0.000460206 0)
(-0.00246175 -0.000443927 0)
(-0.00221508 -0.000426563 0)
(-0.00197821 -0.000408164 0)
(-0.00175171 -0.000388785 0)
(-0.00153609 -0.000368487 0)
(-0.00133184 -0.000347335 0)
(-0.00113939 -0.0003254 0)
(-0.000959153 -0.000302759 0)
(-0.000791482 -0.000279496 0)
(-0.000636685 -0.000255701 0)
(-0.000495013 -0.000231472 0)
(-0.000366663 -0.000206916 0)
(-0.000251766 -0.000182149 0)
(-0.000150385 -0.000157301 0)
(-6.2507e-05 -0.000132514 0)
(1.19662e-05 -0.000107947 0)
(7.32242e-05 -8.3779e-05 0)
(0.000121561 -6.02135e-05 0)
(0.000157387 -3.74832e-05 0)
(0.000181244 -1.58576e-05 0)
(0.000193821 4.34945e-06 0)
(0.00019598 2.27687e-05 0)
(0.000188769 3.89642e-05 0)
(0.000173455 5.24205e-05 0)
(0.000151546 6.25303e-05 0)
(0.000124818 6.85894e-05 0)
(9.53332e-05 6.98097e-05 0)
(6.54028e-05 6.53722e-05 0)
(3.75482e-05 5.45465e-05 0)
(1.51239e-05 3.69659e-05 0)
(2.88988e-06 1.33737e-05 0)
(2.47651e-06 -2.15991e-05 0)
(1.00641e-05 -4.42079e-05 0)
(1.98197e-05 -5.02185e-05 0)
(2.63586e-05 -4.30748e-05 0)
(2.58832e-05 -2.56762e-05 0)
(1.57158e-05 -5.16443e-07 0)
(-6.26304e-06 3.03316e-05 0)
(-4.16842e-05 6.51916e-05 0)
(-9.17319e-05 0.000102727 0)
(-0.000157214 0.000141881 0)
(-0.000238621 0.000181826 0)
(-0.000336186 0.000221914 0)
(-0.000449925 0.000261643 0)
(-0.000579682 0.000300623 0)
(-0.000725162 0.000338557 0)
(-0.000885956 0.00037522 0)
(-0.00106157 0.000410443 0)
(-0.00125145 0.000444105 0)
(-0.00145498 0.000476121 0)
(-0.00167151 0.000506435 0)
(-0.00190037 0.000535016 0)
(-0.00214087 0.000561851 0)
(-0.00239231 0.000586942 0)
(-0.00265398 0.000610304 0)
(-0.0029252 0.000631959 0)
(-0.00320526 0.000651938 0)
(-0.00349348 0.000670276 0)
(-0.00378918 0.000687014 0)
(-0.00409172 0.000702194 0)
(-0.00440043 0.000715858 0)
(-0.00471469 0.000728053 0)
(-0.0050339 0.000738821 0)
(-0.00535744 0.000748208 0)
(-0.00568473 0.000756255 0)
(-0.00601522 0.000763004 0)
(-0.00634835 0.000768494 0)
(-0.00668358 0.000772763 0)
(-0.00702039 0.000775846 0)
(-0.00735828 0.000777776 0)
(-0.00769675 0.000778582 0)
(-0.0080353 0.000778293 0)
(-0.00837348 0.000776933 0)
(-0.00871081 0.000774526 0)
(-0.00904684 0.000771092 0)
(-0.00938112 0.000766648 0)
(-0.00971321 0.000761211 0)
(-0.0100427 0.000754793 0)
(-0.0103691 0.000747407 0)
(-0.010692 0.000739061 0)
(-0.0110111 0.000729764 0)
(-0.0113258 0.000719523 0)
(-0.0116358 0.000708341 0)
(-0.0119407 0.000696224 0)
(-0.01224 0.000683174 0)
(-0.0125333 0.000669194 0)
(-0.0128203 0.000654285 0)
(-0.0131006 0.00063845 0)
(-0.0133736 0.00062169 0)
(-0.0136391 0.000604006 0)
(-0.0138967 0.000585402 0)
(-0.0141458 0.000565879 0)
(-0.0143862 0.000545442 0)
(-0.0146174 0.000524096 0)
(-0.0148391 0.000501847 0)
(-0.0150509 0.000478701 0)
(-0.0152523 0.000454669 0)
(-0.015443 0.000429762 0)
(-0.0156227 0.000403992 0)
(-0.0157909 0.000377376 0)
(-0.0159474 0.000349931 0)
(-0.0160917 0.000321678 0)
(-0.0162236 0.00029264 0)
(-0.0163427 0.000262842 0)
(-0.0164486 0.000232315 0)
(-0.0165412 0.000201089 0)
(-0.01662 0.0001692 0)
(-0.0166849 0.000136686 0)
(-0.0167356 0.00010359 0)
(-0.0167719 6.99545e-05 0)
(-0.0167935 3.58296e-05 0)
(-0.0168003 1.26638e-06 0)
(-0.016792 -3.36804e-05 0)
(-0.0167686 -6.89525e-05 0)
(-0.0167299 -0.000104489 0)
(-0.0166759 -0.000140224 0)
(-0.0166065 -0.000176092 0)
(-0.0165215 -0.000212022 0)
(-0.0164212 -0.00024794 0)
(-0.0163054 -0.000283771 0)
(-0.0161743 -0.000319436 0)
(-0.0160279 -0.000354855 0)
(-0.0158663 -0.000389947 0)
(-0.0156898 -0.000424625 0)
(-0.0154986 -0.000458806 0)
(-0.0152928 -0.000492401 0)
(-0.0150727 -0.000525324 0)
(-0.0148388 -0.000557485 0)
(-0.0145912 -0.000588796 0)
(-0.0143304 -0.000619168 0)
(-0.0140569 -0.000648514 0)
(-0.013771 -0.000676744 0)
(-0.0134733 -0.000703773 0)
(-0.0131643 -0.000729517 0)
(-0.0128446 -0.00075389 0)
(-0.0125148 -0.000776814 0)
(-0.0121755 -0.00079821 0)
(-0.0118274 -0.000818001 0)
(-0.0114711 -0.000836118 0)
(-0.0111075 -0.00085249 0)
(-0.0107372 -0.000867054 0)
(-0.0103611 -0.000879751 0)
(-0.00997992 -0.000890525 0)
(-0.00959451 -0.000899327 0)
(-0.00920571 -0.000906112 0)
(-0.00881439 -0.000910841 0)
(-0.00842142 -0.000913482 0)
(-0.0080277 -0.000914007 0)
(-0.00763411 -0.000912396 0)
(-0.00724158 -0.000908636 0)
(-0.00685099 -0.00090272 0)
(-0.00646328 -0.000894647 0)
(-0.00607933 -0.000884425 0)
(-0.00570007 -0.000872068 0)
(-0.00532638 -0.000857597 0)
(-0.00495914 -0.000841042 0)
(-0.00459923 -0.000822439 0)
(-0.00424751 -0.000801832 0)
(-0.00390479 -0.000779272 0)
(-0.00357189 -0.000754818 0)
(-0.00324959 -0.000728538 0)
(-0.00293865 -0.000700505 0)
(-0.00263976 -0.000670803 0)
(-0.00235362 -0.000639522 0)
(-0.00208086 -0.000606761 0)
(-0.00182207 -0.000572628 0)
(-0.0015778 -0.000537241 0)
(-0.00134853 -0.000500725 0)
(-0.0011347 -0.000463219 0)
(-0.000936671 -0.00042487 0)
(-0.000754755 -0.00038584 0)
(-0.000589181 -0.000346304 0)
(-0.0004401 -0.000306454 0)
(-0.000307578 -0.000266501 0)
(-0.000191586 -0.000226677 0)
(-9.19942e-05 -0.000187239 0)
(-8.55825e-06 -0.000148477 0)
(5.90908e-05 -0.000110716 0)
(0.00011146 -7.43244e-05 0)
(0.000149211 -3.97258e-05 0)
(0.000173176 -7.40571e-06 0)
(0.000184378 2.20738e-05 0)
(0.00018405 4.80612e-05 0)
(0.00017366 6.98018e-05 0)
(0.000154929 8.64272e-05 0)
(0.000129855 9.69537e-05 0)
(0.000100732 0.0001003 0)
(7.01163e-05 9.5344e-05 0)
(4.0815e-05 8.10302e-05 0)
(1.66584e-05 5.65824e-05 0)
(3.22806e-06 2.19196e-05 0)
(1.97999e-06 -2.65239e-05 0)
(7.12681e-06 -5.19764e-05 0)
(1.17888e-05 -5.56928e-05 0)
(1.09149e-05 -4.22991e-05 0)
(7.92982e-07 -1.55111e-05 0)
(-2.1286e-05 2.152e-05 0)
(-5.7475e-05 6.61618e-05 0)
(-0.000109443 0.000116259 0)
(-0.000178421 0.000170064 0)
(-0.000265262 0.00022617 0)
(-0.000370494 0.000283452 0)
(-0.000494377 0.000341016 0)
(-0.000636939 0.000398155 0)
(-0.00079802 0.000454316 0)
(-0.000977304 0.000509064 0)
(-0.00117435 0.000562069 0)
(-0.00138861 0.000613077 0)
(-0.00161948 0.000661903 0)
(-0.00186626 0.000708412 0)
(-0.00212822 0.000752513 0)
(-0.00240461 0.000794149 0)
(-0.00269464 0.000833292 0)
(-0.00299751 0.000869937 0)
(-0.00331241 0.000904095 0)
(-0.00363854 0.000935792 0)
(-0.0039751 0.000965066 0)
(-0.00432128 0.000991963 0)
(-0.0046763 0.00101653 0)
(-0.0050394 0.00103883 0)
(-0.00540982 0.00105893 0)
(-0.00578681 0.00107687 0)
(-0.00616965 0.00109272 0)
(-0.00655764 0.00110654 0)
(-0.00695008 0.0011184 0)
(-0.00734631 0.00112835 0)
(-0.00774567 0.00113644 0)
(-0.00814752 0.00114273 0)
(-0.00855124 0.00114726 0)
(-0.00895622 0.00115009 0)
(-0.00936187 0.00115126 0)
(-0.0097676 0.0011508 0)
(-0.0101728 0.00114876 0)
(-0.0105771 0.00114516 0)
(-0.0109797 0.00114003 0)
(-0.0113802 0.00113341 0)
(-0.011778 0.00112531 0)
(-0.0121727 0.00111575 0)
(-0.0125636 0.00110476 0)
(-0.0129504 0.00109233 0)
(-0.0133325 0.0010785 0)
(-0.0137093 0.00106326 0)
(-0.0140804 0.00104663 0)
(-0.0144453 0.00102861 0)
(-0.0148036 0.00100921 0)
(-0.0151546 0.000988424 0)
(-0.015498 0.000966267 0)
(-0.0158332 0.000942739 0)
(-0.0161597 0.000917842 0)
(-0.0164771 0.000891581 0)
(-0.016785 0.000863961 0)
(-0.0170827 0.000834986 0)
(-0.0173699 0.000804663 0)
(-0.0176461 0.000773001 0)
(-0.0179108 0.000740009 0)
(-0.0181636 0.000705699 0)
(-0.018404 0.000670088 0)
(-0.0186315 0.000633192 0)
(-0.0188457 0.000595031 0)
(-0.0190462 0.00055563 0)
(-0.0192326 0.000515016 0)
(-0.0194045 0.00047322 0)
(-0.0195614 0.000430278 0)
(-0.019703 0.000386227 0)
(-0.0198289 0.000341112 0)
(-0.0199387 0.00029498 0)
(-0.0200322 0.000247885 0)
(-0.0201089 0.000199882 0)
(-0.0201687 0.000151034 0)
(-0.0202113 0.000101407 0)
(-0.0202363 5.10721e-05 0)
(-0.0202436 1.0671e-07 0)
(-0.020233 -5.14092e-05 0)
(-0.0202044 -0.00010339 0)
(-0.0201575 -0.000155745 0)
(-0.0200923 -0.000208379 0)
(-0.0200087 -0.000261195 0)
(-0.0199068 -0.000314088 0)
(-0.0197864 -0.00036695 0)
(-0.0196477 -0.000419672 0)
(-0.0194907 -0.000472139 0)
(-0.0193155 -0.000524233 0)
(-0.0191223 -0.000575833 0)
(-0.0189114 -0.000626817 0)
(-0.0186828 -0.00067706 0)
(-0.0184371 -0.000726434 0)
(-0.0181743 -0.000774812 0)
(-0.017895 -0.000822065 0)
(-0.0175996 -0.000868063 0)
(-0.0172885 -0.000912678 0)
(-0.0169622 -0.00095578 0)
(-0.0166213 -0.000997243 0)
(-0.0162663 -0.00103694 0)
(-0.0158979 -0.00107475 0)
(-0.0155168 -0.00111055 0)
(-0.0151236 -0.00114422 0)
(-0.0147192 -0.00117565 0)
(-0.0143043 -0.00120473 0)
(-0.0138797 -0.00123135 0)
(-0.0134464 -0.00125542 0)
(-0.0130051 -0.00127684 0)
(-0.0125569 -0.00129553 0)
(-0.0121026 -0.00131141 0)
(-0.0116432 -0.0013244 0)
(-0.0111798 -0.00133445 0)
(-0.0107133 -0.00134148 0)
(-0.0102448 -0.00134547 0)
(-0.00977537 -0.00134636 0)
(-0.009306 -0.00134413 0)
(-0.00883778 -0.00133876 0)
(-0.0083718 -0.00133024 0)
(-0.00790911 -0.00131857 0)
(-0.00745079 -0.00130377 0)
(-0.00699791 -0.00128584 0)
(-0.00655151 -0.00126484 0)
(-0.00611264 -0.00124079 0)
(-0.00568231 -0.00121375 0)
(-0.00526154 -0.00118379 0)
(-0.0048513 -0.00115098 0)
(-0.00445254 -0.00111541 0)
(-0.00406617 -0.00107718 0)
(-0.00369308 -0.0010364 0)
(-0.0033341 -0.000993196 0)
(-0.00299003 -0.000947693 0)
(-0.00266161 -0.000900043 0)
(-0.00234953 -0.000850405 0)
(-0.00205444 -0.000798951 0)
(-0.00177688 -0.000745869 0)
(-0.00151738 -0.000691361 0)
(-0.00127635 -0.000635648 0)
(-0.00105415 -0.000578966 0)
(-0.000851026 -0.000521575 0)
(-0.000667162 -0.000463756 0)
(-0.000502621 -0.000405818 0)
(-0.000357363 -0.000348099 0)
(-0.000231228 -0.000290975 0)
(-0.000123924 -0.000234863 0)
(-3.50208e-05 -0.00018023 0)
(3.60698e-05 -0.0001276 0)
(9.01057e-05 -7.75677e-05 0)
(0.000128032 -3.08091e-05 0)
(0.000150999 1.19051e-05 0)
(0.000160378 4.96944e-05 0)
(0.000157785 8.1555e-05 0)
(0.000145092 0.000106351 0)
(0.000124458 0.000122812 0)
(9.83443e-05 0.00012955 0)
(6.94942e-05 0.000125103 0)
(4.0946e-05 0.000108015 0)
(1.6864e-05 7.69628e-05 0)
(3.29007e-06 3.0899e-05 0)
(1.34048e-06 -2.96619e-05 0)
(3.33912e-06 -5.51374e-05 0)
(1.53277e-06 -5.40296e-05 0)
(-8.49733e-06 -3.19804e-05 0)
(-3.0208e-05 6.54019e-06 0)
(-6.6243e-05 5.77535e-05 0)
(-0.000118708 0.000118493 0)
(-0.00018924 0.00018614 0)
(-0.000279057 0.000258544 0)
(-0.00038901 0.000333951 0)
(-0.000519631 0.000410936 0)
(-0.000671178 0.00048835 0)
(-0.000843675 0.000565274 0)
(-0.00103695 0.000640973 0)
(-0.00125066 0.000714869 0)
(-0.00148433 0.00078651 0)
(-0.00173738 0.000855547 0)
(-0.00200913 0.00092172 0)
(-0.00229885 0.000984835 0)
(-0.00260572 0.00104476 0)
(-0.00292892 0.0011014 0)
(-0.00326757 0.00115471 0)
(-0.00362079 0.00120467 0)
(-0.00398768 0.00125129 0)
(-0.00436734 0.0012946 0)
(-0.00475887 0.00133463 0)
(-0.00516137 0.00137144 0)
(-0.00557397 0.00140509 0)
(-0.00599578 0.00143566 0)
(-0.00642596 0.00146321 0)
(-0.00686365 0.00148783 0)
(-0.00730804 0.0015096 0)
(-0.00775832 0.00152858 0)
(-0.00821369 0.00154487 0)
(-0.0086734 0.00155853 0)
(-0.00913669 0.00156965 0)
(-0.00960281 0.00157827 0)
(-0.0100711 0.00158449 0)
(-0.0105407 0.00158834 0)
(-0.0110111 0.0015899 0)
(-0.0114816 0.00158921 0)
(-0.0119515 0.00158633 0)
(-0.0124201 0.0015813 0)
(-0.0128869 0.00157415 0)
(-0.0133511 0.00156493 0)
(-0.0138123 0.00155365 0)
(-0.0142697 0.00154036 0)
(-0.0147227 0.00152508 0)
(-0.0151709 0.00150781 0)
(-0.0156135 0.00148859 0)
(-0.0160501 0.00146743 0)
(-0.01648 0.00144433 0)
(-0.0169026 0.00141931 0)
(-0.0173174 0.00139238 0)
(-0.0177238 0.00136354 0)
(-0.0181213 0.0013328 0)
(-0.0185092 0.00130016 0)
(-0.0188871 0.00126564 0)
(-0.0192544 0.00122923 0)
(-0.0196104 0.00119095 0)
(-0.0199548 0.0011508 0)
(-0.0202868 0.00110879 0)
(-0.0206061 0.00106495 0)
(-0.0209119 0.00101927 0)
(-0.0212039 0.000971792 0)
(-0.0214815 0.000922522 0)
(-0.0217442 0.00087149 0)
(-0.0219915 0.000818726 0)
(-0.0222228 0.000764264 0)
(-0.0224377 0.000708144 0)
(-0.0226358 0.000650408 0)
(-0.0228166 0.000591107 0)
(-0.0229796 0.000530294 0)
(-0.0231244 0.000468032 0)
(-0.0232506 0.000404387 0)
(-0.0233579 0.000339431 0)
(-0.0234459 0.000273243 0)
(-0.0235143 0.00020591 0)
(-0.0235627 0.000137524 0)
(-0.0235909 6.81818e-05 0)
(-0.0235986 -2.01008e-06 0)
(-0.0235856 -7.29405e-05 0)
(-0.0235518 -0.000144492 0)
(-0.0234969 -0.00021654 0)
(-0.023421 -0.000288956 0)