0.05 	0.0003125 	0.005 	0.00216964
0.05 	0.0009375 	0.005 	0.00216815
0.05 	0.0015625 	0.005 	0.00216698
0.05 	0.0021875 	0.005 	0.00216598
0.05 	0.0028125 	0.005 	0.00216503
0.05 	0.0034375 	0.005 	0.00216406
0.05 	0.0040625 	0.005 	0.00216302
0.05 	0.0046875 	0.005 	0.00216185
0.05 	0.0053125 	0.005 	0.00216048
0.05 	0.0059375 	0.005 	0.00215882
0.05 	0.0065625 	0.005 	0.0021568
0.05 	0.0071875 	0.005 	0.00215434
0.05 	0.0078125 	0.005 	0.00215137
0.05 	0.0084375 	0.005 	0.00214782
0.05 	0.0090625 	0.005 	0.00214359
0.05 	0.0096875 	0.005 	0.00213863
0.05 	0.0103125 	0.005 	0.00213284
0.05 	0.0109375 	0.005 	0.00212616
0.05 	0.0115625 	0.005 	0.0021185
0.05 	0.0121875 	0.005 	0.00210978
0.05 	0.0128125 	0.005 	0.00209993
0.05 	0.0134375 	0.005 	0.00208885
0.05 	0.0140625 	0.005 	0.00207645
0.05 	0.0146875 	0.005 	0.00206263
0.05 	0.0153125 	0.005 	0.0020473
0.05 	0.0159375 	0.005 	0.00203033
0.05 	0.0165625 	0.005 	0.0020116
0.05 	0.0171875 	0.005 	0.00199099
0.05 	0.0178125 	0.005 	0.00196835
0.05 	0.0184375 	0.005 	0.00194351
0.05 	0.0190625 	0.005 	0.00191631
0.05 	0.0196875 	0.005 	0.00188653
0.05 	0.0203125 	0.005 	0.00185398
0.05 	0.0209375 	0.005 	0.0018184
0.05 	0.0215625 	0.005 	0.00177954
0.05 	0.0221875 	0.005 	0.0017371
0.05 	0.0228125 	0.005 	0.00169075
0.05 	0.0234375 	0.005 	0.00164014
0.05 	0.0240625 	0.005 	0.00158486
0.05 	0.0246875 	0.005 	0.00152447
0.05 	0.0253125 	0.005 	0.00145848
0.05 	0.0259375 	0.005 	0.00138635
0.05 	0.0265625 	0.005 	0.00130747
0.05 	0.0271875 	0.005 	0.00122118
0.05 	0.0278125 	0.005 	0.00112674
0.05 	0.0284375 	0.005 	0.00102335
0.05 	0.0290625 	0.005 	0.000910117
0.05 	0.0296875 	0.005 	0.000786049
0.05 	0.0303125 	0.005 	0.000650072
0.05 	0.0309375 	0.005 	0.000501006
0.05 	0.0315625 	0.005 	0.000337563
0.05 	0.0321875 	0.005 	0.00015834
0.05 	0.0328125 	0.005 	-3.8187e-05
0.05 	0.0334375 	0.005 	-0.000253666
0.05 	0.0340625 	0.005 	-0.000489869
0.05 	0.0346875 	0.005 	-0.000748691
0.05 	0.0353125 	0.005 	-0.00103215
0.05 	0.0359375 	0.005 	-0.00134237
0.05 	0.0365625 	0.005 	-0.0016816
0.05 	0.0371875 	0.005 	-0.00205216
0.05 	0.0378125 	0.005 	-0.00245645
0.05 	0.0384375 	0.005 	-0.00289691
0.05 	0.0390625 	0.005 	-0.00337599
0.05 	0.0396875 	0.005 	-0.00389615
0.05 	0.0403125 	0.005 	-0.00445974
0.05 	0.0409375 	0.005 	-0.00506903
0.05 	0.0415625 	0.005 	-0.00572612
0.05 	0.0421875 	0.005 	-0.00643289
0.05 	0.0428125 	0.005 	-0.00719096
0.05 	0.0434375 	0.005 	-0.00800159
0.05 	0.0440625 	0.005 	-0.00886568
0.05 	0.0446875 	0.005 	-0.00978365
0.05 	0.0453125 	0.005 	-0.0107554
0.05 	0.0459375 	0.005 	-0.0117805
0.05 	0.0465625 	0.005 	-0.0128575
0.05 	0.0471875 	0.005 	-0.0139848
0.05 	0.0478125 	0.005 	-0.01516
0.05 	0.0484375 	0.005 	-0.0163799
0.05 	0.0490625 	0.005 	-0.017641
0.05 	0.0496875 	0.005 	-0.0189391
0.05 	0.0503125 	0.005 	-0.0202692
0.05 	0.0509375 	0.005 	-0.0216263
0.05 	0.0515625 	0.005 	-0.0230044
0.05 	0.0521875 	0.005 	-0.0243975
0.05 	0.0528125 	0.005 	-0.0257991
0.05 	0.0534375 	0.005 	-0.0272025
0.05 	0.0540625 	0.005 	-0.028601
0.05 	0.0546875 	0.005 	-0.0299876
0.05 	0.0553125 	0.005 	-0.0313554
0.05 	0.0559375 	0.005 	-0.0326978
0.05 	0.0565625 	0.005 	-0.0340081
0.05 	0.0571875 	0.005 	-0.0352799
0.05 	0.0578125 	0.005 	-0.0365071
0.05 	0.0584375 	0.005 	-0.0376843
0.05 	0.0590625 	0.005 	-0.0388059
0.05 	0.0596875 	0.005 	-0.0398673
0.05 	0.0603125 	0.005 	-0.0408641
0.05 	0.0609375 	0.005 	-0.0417926
0.05 	0.0615625 	0.005 	-0.0426495
0.05 	0.0621875 	0.005 	-0.0434321
0.05 	0.0628125 	0.005 	-0.0441384
0.05 	0.0634375 	0.005 	-0.0447668
0.05 	0.0640625 	0.005 	-0.0453163
0.05 	0.0646875 	0.005 	-0.0457864
0.05 	0.0653125 	0.005 	-0.0461774
0.05 	0.0659375 	0.005 	-0.04649
0.05 	0.0665625 	0.005 	-0.0467251
0.05 	0.0671875 	0.005 	-0.0468846
0.05 	0.0678125 	0.005 	-0.0469705
0.05 	0.0684375 	0.005 	-0.0469853
0.05 	0.0690625 	0.005 	-0.0469319
0.05 	0.0696875 	0.005 	-0.0468134
0.05 	0.0703125 	0.005 	-0.0466336
0.05 	0.0709375 	0.005 	-0.046396
0.05 	0.0715625 	0.005 	-0.0461047
0.05 	0.0721875 	0.005 	-0.0457638
0.05 	0.0728125 	0.005 	-0.0453776
0.05 	0.0734375 	0.005 	-0.0449505
0.05 	0.0740625 	0.005 	-0.0444868
0.05 	0.0746875 	0.005 	-0.0439908
0.05 	0.0753125 	0.005 	-0.043467
0.05 	0.0759375 	0.005 	-0.0429194
0.05 	0.0765625 	0.005 	-0.0423524
0.05 	0.0771875 	0.005 	-0.0417698
0.05 	0.0778125 	0.005 	-0.0411755
0.05 	0.0784375 	0.005 	-0.0405731
0.05 	0.0790625 	0.005 	-0.0399661
0.05 	0.0796875 	0.005 	-0.0393576
0.05 	0.0803125 	0.005 	-0.0387508
0.05 	0.0809375 	0.005 	-0.0381483
0.05 	0.0815625 	0.005 	-0.0375528
0.05 	0.0821875 	0.005 	-0.0369665
0.05 	0.0828125 	0.005 	-0.0363915
0.05 	0.0834375 	0.005 	-0.0358298
0.05 	0.0840625 	0.005 	-0.0352828
0.05 	0.0846875 	0.005 	-0.0347522
0.05 	0.0853125 	0.005 	-0.0342389
0.05 	0.0859375 	0.005 	-0.0337442
0.05 	0.0865625 	0.005 	-0.0332687
0.05 	0.0871875 	0.005 	-0.0328131
0.05 	0.0878125 	0.005 	-0.0323777
0.05 	0.0884375 	0.005 	-0.0319627
0.05 	0.0890625 	0.005 	-0.0315681
0.05 	0.0896875 	0.005 	-0.0311935
0.05 	0.0903125 	0.005 	-0.0308384
0.05 	0.0909375 	0.005 	-0.030502
0.05 	0.0915625 	0.005 	-0.0301831
0.05 	0.0921875 	0.005 	-0.0298804
0.05 	0.0928125 	0.005 	-0.029592
0.05 	0.0934375 	0.005 	-0.0293158
0.05 	0.0940625 	0.005 	-0.0290493
0.05 	0.0946875 	0.005 	-0.0287899
0.05 	0.0953125 	0.005 	-0.0285344
0.05 	0.0959375 	0.005 	-0.0282798
0.05 	0.0965625 	0.005 	-0.0280226
0.05 	0.0971875 	0.005 	-0.0277593
0.05 	0.0978125 	0.005 	-0.0274884
0.05 	0.0984375 	0.005 	-0.0272089
0.05 	0.0990625 	0.005 	-0.0268924
0.05 	0.0996875 	0.005 	-0.0265069
