/*--------------------------------*- C++ -*----------------------------------*\
  =========                 |
  \\      /  F ield         | OpenFOAM: The Open Source CFD Toolbox
   \\    /   O peration     | Website:  https://openfoam.org
    \\  /    A nd           | Version:  7
     \\/     M anipulation  |
\*---------------------------------------------------------------------------*/
FoamFile
{
    version     2.0;
    format      ascii;
    class       volScalarField;
    location    "0.2625";
    object      p;
}
// * * * * * * * * * * * * * * * * * * * * * * * * * * * * * * * * * * * * * //

dimensions      [0 2 -2 0 0 0 0];

internalField   nonuniform List<scalar> 
25600
(
-8.99773e-09
-4.20209e-06
-1.47357e-05
-2.91222e-05
-4.57164e-05
-6.42778e-05
-8.42777e-05
-0.000105179
-0.000126502
-0.000147807
-0.000168714
-0.000188885
-0.000208036
-0.000225944
-0.000242424
-0.000257301
-0.000270422
-0.000281676
-0.000290985
-0.000298282
-0.000303506
-0.000306605
-0.000307547
-0.000306309
-0.000302878
-0.000297246
-0.000289413
-0.000279378
-0.000267141
-0.000252712
-0.000236107
-0.000217345
-0.000196441
-0.000173406
-0.000148254
-0.000121007
-9.16807e-05
-6.02901e-05
-2.68483e-05
8.6274e-06
4.61148e-05
8.55942e-05
0.000127053
0.000170481
0.000215867
0.000263192
0.000312436
0.000363581
0.000416616
0.000471531
0.000528311
0.000586934
0.000647379
0.000709626
0.000773658
0.00083946
0.000907014
0.000976293
0.00104727
0.00111992
0.00119422
0.00127014
0.00134766
0.00142674
0.00150734
0.00158944
0.00167299
0.00175797
0.00184433
0.00193204
0.00202104
0.00211128
0.00220273
0.00229532
0.002389
0.00248372
0.0025794
0.002676
0.00277343
0.00287161
0.00297048
0.00306996
0.00316996
0.0032704
0.00337118
0.00347222
0.00357341
0.00367466
0.00377587
0.00387693
0.00397775
0.00407821
0.00417821
0.00427762
0.00437635
0.00447427
0.00457127
0.00466724
0.00476205
0.00485561
0.00494779
0.00503846
0.00512752
0.00521485
0.00530033
0.00538385
0.00546531
0.0055446
0.00562161
0.00569625
0.00576842
0.00583801
0.00590495
0.00596913
0.00603049
0.00608894
0.00614442
0.00619688
0.00624624
0.00629248
0.00633554
0.00637538
0.00641198
0.00644532
0.00647539
0.00650218
0.0065257
0.00654597
0.00656302
0.00657688
0.0065876
0.00659523
0.00659983
0.00660147
0.00660025
0.00659625
0.00658958
0.00658036
0.00656872
0.00655481
0.00653878
0.0065208
0.00650106
0.00647977
0.00645715
0.00643343
0.00640889
0.00638381
0.0063585
0.00633333
0.00630866
0.00628495
0.00626266
0.00624232
0.00622451
0.00620986
0.00619897
0.00619238
0.00619045
0.00619239
-5.33531e-06
-9.14779e-06
-1.79266e-05
-2.99978e-05
-4.42583e-05
-6.0272e-05
-7.76083e-05
-9.58108e-05
-0.000114443
-0.00013313
-0.000151529
-0.000169326
-0.000186246
-0.000202064
-0.000216598
-0.000229681
-0.000241167
-0.000250935
-0.000258889
-0.000264955
-0.000269071
-0.000271186
-0.000271259
-0.000269254
-0.000265149
-0.000258935
-0.000250607
-0.000240161
-0.00022759
-0.000212896
-0.000196091
-0.000177189
-0.000156197
-0.000133124
-0.000107983
-8.07938e-05
-5.157e-05
-2.03212e-05
1.29422e-05
4.82053e-05
8.54487e-05
0.000124654
0.000165809
0.000208904
0.000253927
0.000300861
0.000349688
0.000400394
0.000452965
0.000507389
0.00056365
0.000621727
0.0006816
0.000743252
0.000806667
0.000871825
0.000938704
0.00100728
0.00107753
0.00114942
0.00122293
0.00129804
0.00137471
0.00145291
0.0015326
0.00161376
0.00169634
0.00178032
0.00186565
0.00195229
0.00204019
0.0021293
0.00221958
0.00231097
0.00240343
0.00249688
0.00259128
0.00268654
0.00278261
0.00287941
0.00297686
0.00307489
0.00317342
0.00327236
0.00337162
0.00347111
0.00357073
0.00367038
0.00376998
0.00386941
0.00396858
0.00406739
0.00416572
0.00426347
0.00436052
0.00445676
0.00455208
0.00464638
0.00473953
0.00483143
0.00492197
0.00501103
0.00509849
0.00518424
0.00526818
0.00535019
0.00543017
0.00550803
0.00558366
0.00565696
0.00572784
0.00579621
0.00586198
0.00592507
0.00598539
0.00604289
0.0060975
0.00614916
0.00619783
0.00624345
0.00628598
0.0063254
0.00636168
0.00639479
0.00642474
0.00645153
0.00647516
0.00649565
0.00651304
0.00652736
0.00653866
0.00654699
0.00655242
0.00655503
0.00655489
0.0065521
0.00654678
0.00653903
0.006529
0.00651681
0.00650264
0.00648664
0.00646902
0.00644995
0.00642967
0.0064084
0.0063864
0.00636395
0.00634135
0.00631893
0.00629704
0.00627607
0.00625644
0.0062386
0.00622303
0.0062102
0.00620056
0.00619445
0.00619238
0.00619432
-8.39803e-06
-1.10681e-05
-1.80915e-05
-2.84373e-05
-4.09973e-05
-5.5235e-05
-7.07195e-05
-8.70146e-05
-0.000103726
-0.0001205
-0.000137028
-0.000153028
-0.000168241
-0.000182442
-0.000195449
-0.000207107
-0.000217278
-0.000225841
-0.000232693
-0.000237749
-0.000240946
-0.000242238
-0.000241578
-0.000238923
-0.000234246
-0.000227532
-0.000218774
-0.000207961
-0.000195087
-0.000180151
-0.000163163
-0.000144126
-0.000123042
-9.99204e-05
-7.47756e-05
-4.76211e-05
-1.84676e-05
1.26771e-05
4.58029e-05
8.08954e-05
0.000117938
0.000156917
0.000197823
0.000240644
0.000285365
0.00033197
0.000380445
0.000430778
0.000482959
0.000536971
0.000592793
0.000650406
0.000709792
0.000770939
0.000833829
0.00089844
0.000964747
0.00103273
0.00110235
0.0011736
0.00124645
0.00132087
0.00139683
0.00147429
0.00155322
0.00163359
0.00171536
0.0017985
0.00188297
0.00196872
0.00205571
0.00214388
0.00223319
0.0023236
0.00241504
0.00250745
0.00260078
0.00269496
0.00278991
0.00288557
0.00298186
0.0030787
0.00317603
0.00327374
0.00337175
0.00346997
0.00356831
0.00366667
0.00376495
0.00386306
0.0039609
0.00405836
0.00415535
0.00425174
0.00434744
0.00444232
0.00453629
0.00462923
0.00472105
0.00481162
0.00490084
0.00498859
0.00507477
0.00515925
0.00524195
0.00532274
0.00540154
0.00547824
0.00555276
0.00562499
0.00569484
0.00576223
0.00582706
0.00588926
0.00594876
0.00600548
0.00605939
0.00611041
0.0061585
0.00620362
0.00624573
0.0062848
0.00632081
0.00635374
0.00638358
0.00641035
0.00643406
0.00645472
0.00647237
0.00648704
0.00649879
0.00650768
0.00651376
0.00651711
0.00651783
0.00651599
0.00651172
0.00650513
0.00649635
0.00648552
0.0064728
0.00645835
0.00644236
0.00642502
0.00640654
0.00638715
0.00636709
0.00634663
0.00632605
0.00630565
0.00628577
0.00626676
0.00624898
0.00623283
0.00621872
0.00620705
0.00619815
0.00619236
0.00619031
0.00619239
-6.37185e-06
-8.86764e-06
-1.5171e-05
-2.45259e-05
-3.6016e-05
-4.90892e-05
-6.32982e-05
-7.82514e-05
-9.35784e-05
-0.00010894
-0.000124048
-0.000138653
-0.000152517
-0.000165428
-0.000177203
-0.00018769
-0.000196762
-0.000204305
-0.000210216
-0.000214406
-0.000216812
-0.000217383
-0.00021607
-0.000212834
-0.000207645
-0.000200484
-0.000191334
-0.000180181
-0.00016702
-0.000151854
-0.000134685
-0.000115509
-9.43272e-05
-7.11507e-05
-4.59904e-05
-1.88557e-05
1.02476e-05
4.1314e-05
7.433e-05
0.000109279
0.000146148
0.000184932
0.000225622
0.000268203
0.000312659
0.000358974
0.000407136
0.000457138
0.000508968
0.000562609
0.000618039
0.000675236
0.000734186
0.000794878
0.000857295
0.000921413
0.000987206
0.00105465
0.00112372
0.00119439
0.00126665
0.00134046
0.00141578
0.00149259
0.00157084
0.00165051
0.00173157
0.00181398
0.00189769
0.00198267
0.00206886
0.00215621
0.00224468
0.00233422
0.00242478
0.0025163
0.00260871
0.00270194
0.00279593
0.0028906
0.00298589
0.00308172
0.003178
0.00327466
0.00337161
0.00346875
0.00356599
0.00366323
0.0037604
0.00385738
0.00395409
0.00405042
0.00414626
0.00424151
0.00433605
0.00442979
0.00452261
0.00461442
0.0047051
0.00479456
0.00488266
0.00496932
0.00505441
0.00513783
0.00521948
0.00529925
0.00537706
0.00545279
0.00552637
0.0055977
0.00566668
0.00573324
0.00579728
0.00585873
0.00591753
0.00597361
0.00602691
0.00607739
0.006125
0.00616969
0.00621143
0.0062502
0.00628597
0.00631873
0.00634848
0.00637523
0.00639898
0.00641976
0.00643761
0.00645257
0.00646468
0.00647401
0.00648061
0.00648457
0.00648598
0.00648492
0.0064815
0.00647584
0.00646808
0.00645834
0.00644679
0.00643359
0.00641891
0.00640295
0.0063859
0.00636799
0.00634945
0.00633052
0.00631148
0.00629261
0.00627421
0.00625659
0.0062401
0.00622508
0.00621187
0.00620084
0.00619229
0.00618653
0.00618421
0.00618584
7.71924e-07
-2.92218e-06
-9.47568e-06
-1.85086e-05
-2.9449e-05
-4.17804e-05
-5.50902e-05
-6.90267e-05
-8.32602e-05
-9.74831e-05
-0.000111424
-0.000124847
-0.000137545
-0.000149325
-0.000160012
-0.000169458
-0.000177539
-0.000184148
-0.000189186
-0.000192574
-0.000194244
-0.000194135
-0.000192201
-0.000188406
-0.000182721
-0.000175125
-0.000165591
-0.000154105
-0.000140663
-0.000125265
-0.000107908
-8.85848e-05
-6.72984e-05
-4.40592e-05
-1.88748e-05
8.25085e-06
3.73149e-05
6.83117e-05
0.000101227
0.000136043
0.000172754
0.000211356
0.000251838
0.000294187
0.000338387
0.000384424
0.000432288
0.000481971
0.00053346
0.000586738
0.000641782
0.000698575
0.000757104
0.000817355
0.000879311
0.000942946
0.00100824
0.00107516
0.00114369
0.00121381
0.00128549
0.00135871
0.00143342
0.00150959
0.0015872
0.00166621
0.00174658
0.00182829
0.00191128
0.00199552
0.00208095
0.00216752
0.0022552
0.00234393
0.00243366
0.00252433
0.00261587
0.00270821
0.0028013
0.00289505
0.0029894
0.00308428
0.0031796
0.00327528
0.00337122
0.00346735
0.00356357
0.00365979
0.00375592
0.00385186
0.00394752
0.00404279
0.00413758
0.00423177
0.00432525
0.00441794
0.00450971
0.00460047
0.00469012
0.00477854
0.00486563
0.00495128
0.00503537
0.00511782
0.00519851
0.00527735
0.00535424
0.00542909
0.00550181
0.00557231
0.00564049
0.00570628
0.0057696
0.00583037
0.00588852
0.005944
0.00599675
0.00604672
0.00609387
0.00613816
0.00617956
0.00621804
0.00625359
0.00628618
0.00631583
0.00634253
0.00636631
0.00638719
0.00640521
0.00642041
0.00643283
0.00644254
0.00644961
0.0064541
0.00645611
0.00645573
0.00645306
0.00644823
0.00644136
0.00643259
0.00642207
0.00640996
0.00639642
0.00638166
0.00636585
0.00634921
0.00633196
0.00631434
0.00629658
0.00627896
0.00626174
0.00624523
0.0062297
0.00621548
0.00620286
0.00619216
0.00618365
0.00617761
0.0061746
0.00617504
1.16833e-05
6.07411e-06
-1.38833e-06
-1.06501e-05
-2.14822e-05
-3.34727e-05
-4.62441e-05
-5.9478e-05
-7.28955e-05
-8.62326e-05
-9.9241e-05
-0.000111699
-0.000123418
-0.000134225
-0.000143963
-0.000152496
-0.0001597
-0.000165468
-0.000169715
-0.000172365
-0.000173352
-0.000172613
-0.000170101
-0.000165781
-0.000159626
-0.000151607
-0.0001417
-0.000129892
-0.000116179
-0.000100553
-8.30059e-05
-6.35343e-05
-4.21413e-05
-1.88341e-05
6.38347e-06
3.3511e-05
6.25455e-05
9.34792e-05
0.0001263
0.000160995
0.000197562
0.000235994
0.00027628
0.000318406
0.00036236
0.00040813
0.00045571
0.000505087
0.000556249
0.000609174
0.000663845
0.000720248
0.00077837
0.000838196
0.000899705
0.000962875
0.00102768
0.0010941
0.00116212
0.0012317
0.00130283
0.00137548
0.0014496
0.00152517
0.00160216
0.00168054
0.00176027
0.00184131
0.00192362
0.00200716
0.00209188
0.00217773
0.00226466
0.00235264
0.00244159
0.00253147
0.0026222
0.00271372
0.00280596
0.00289886
0.00299235
0.00308634
0.00318077
0.00327554
0.00337057
0.00346577
0.00356105
0.00365632
0.0037515
0.00384649
0.00394119
0.00403551
0.00412933
0.00422255
0.00431508
0.0044068
0.00449762
0.00458743
0.00467614
0.00476363
0.00484979
0.00493453
0.00501773
0.00509929
0.00517911
0.0052571
0.00533317
0.00540722
0.00547916
0.00554891
0.00561637
0.00568147
0.00574412
0.00580426
0.00586183
0.00591676
0.005969
0.00601851
0.00606524
0.00610916
0.00615024
0.00618845
0.00622377
0.0062562
0.00628574
0.00631239
0.00633618
0.00635714
0.00637529
0.00639068
0.00640336
0.0064134
0.00642085
0.0064258
0.00642832
0.00642853
0.00642651
0.00642239
0.00641629
0.00640835
0.00639871
0.00638754
0.00637499
0.00636124
0.00634648
0.00633091
0.00631473
0.00629817
0.00628145
0.00626482
0.00624853
0.00623283
0.00621798
0.00620427
0.00619194
0.00618128
0.00617252
0.00616592
0.00616185
0.00616056
2.53669e-05
1.74339e-05
8.62216e-06
-1.28046e-06
-1.23863e-05
-2.43785e-05
-3.69283e-05
-4.97595e-05
-6.26318e-05
-7.53225e-05
-8.76163e-05
-9.93151e-05
-0.000110242
-0.00012024
-0.000129175
-0.000136919
-0.000143356
-0.000148388
-0.000151933
-0.000153919
-0.00015428
-0.000152962
-0.000149919
-0.000145116
-0.000138519
-0.000130101
-0.00011984
-0.000107727
-9.37514e-05
-7.79013e-05
-6.01679e-05
-4.05504e-05
-1.90514e-05
4.32561e-06
2.95822e-05
5.67201e-05
8.5733e-05
0.000116611
0.000149345
0.00018393
0.000220363
0.000258637
0.000298739
0.000340655
0.000384375
0.000429892
0.000477199
0.000526285
0.000577132
0.000629721
0.000684035
0.000740063
0.000797794
0.000857212
0.000918295
0.000981018
0.00104536
0.0011113
0.00117882
0.0012479
0.00131851
0.00139061
0.00146418
0.00153918
0.00161559
0.00169337
0.00177249
0.00185292
0.0019346
0.00201749
0.00210154
0.00218672
0.00227297
0.00236024
0.00244848
0.00253763
0.00262762
0.00271838
0.00280985
0.00290197
0.00299467
0.00308786
0.00318147
0.00327542
0.00336961
0.00346397
0.0035584
0.00365283
0.00374715
0.00384128
0.00393512
0.00402857
0.00412153
0.00421389
0.00430555
0.00439642
0.00448639
0.00457536
0.00466322
0.00474988
0.00483523
0.00491915
0.00500155
0.00508232
0.00516137
0.00523861
0.00531394
0.00538728
0.00545853
0.0055276
0.00559442
0.0056589
0.00572096
0.00578054
0.00583758
0.00589201
0.0059438
0.00599289
0.00603924
0.00608282
0.0061236
0.00616155
0.00619666
0.00622893
0.00625835
0.00628495
0.00630872
0.00632972
0.00634796
0.00636351
0.0063764
0.00638669
0.00639446
0.00639979
0.00640274
0.00640343
0.00640196
0.00639843
0.00639298
0.00638573
0.00637683
0.00636643
0.00635469
0.00634178
0.00632788
0.00631317
0.00629786
0.00628213
0.00626622
0.00625034
0.0062347
0.00621956
0.00620513
0.00619166
0.00617936
0.00616848
0.00615923
0.00615182
0.00614641
0.00614304
4.09638e-05
3.04953e-05
2.00772e-05
9.22309e-06
-2.46249e-06
-1.47318e-05
-2.7321e-05
-4.00046e-05
-5.25729e-05
-6.48338e-05
-7.66084e-05
-8.77261e-05
-9.80287e-05
-0.000107376
-0.000115642
-0.000122713
-0.000128489
-0.000132881
-0.000135809
-0.000137203
-0.000137002
-0.000135157
-0.000131629
-0.00012638
-0.000119373
-0.000110581
-9.99912e-05
-8.75902e-05
-7.33633e-05
-5.72968e-05
-3.93838e-05
-1.96249e-05
1.97808e-06
2.54271e-05
5.0727e-05
7.78787e-05
0.000106874
0.000137702
0.000170359
0.000204844
0.000241152
0.000279276
0.000319203
0.00036092
0.00040442
0.000449698
0.000496746
0.000545551
0.000596095
0.000648361
0.000702336
0.000758007
0.000815365
0.000874391
0.000935063
0.000997359
0.00106126
0.00112674
0.0011938
0.00126239
0.0013325
0.00140409
0.00147714
0.00155161
0.00162747
0.0017047
0.00178325
0.0018631
0.00194419
0.00202648
0.00210992
0.00219447
0.00228009
0.00236672
0.00245431
0.00254279
0.0026321
0.00272217
0.00281294
0.00290435
0.00299633
0.0030888
0.00318168
0.00327488
0.00336832
0.00346192
0.0035556
0.00364926
0.00374282
0.00383619
0.00392926
0.00402194
0.00411413
0.00420572
0.00429663
0.00438673
0.00447595
0.00456418
0.0046513
0.00473723
0.00482185
0.00490506
0.00498675
0.00506684
0.00514521
0.00522179
0.00529647
0.00536918
0.00543982
0.0055083
0.00557455
0.00563847
0.00570001
0.00575909
0.00581566
0.00586965
0.00592102
0.00596973
0.00601574
0.006059
0.0060995
0.00613722
0.00617213
0.00620424
0.00623354
0.00626005
0.0062838
0.00630481
0.00632311
0.00633876
0.00635181
0.00636231
0.00637033
0.00637595
0.00637926
0.00638034
0.0063793
0.00637626
0.00637133
0.00636465
0.00635635
0.00634658
0.00633549
0.00632325
0.00631003
0.006296
0.00628134
0.00626626
0.00625093
0.00623557
0.00622038
0.00620556
0.00619132
0.00617786
0.00616538
0.00615406
0.00614411
0.0061357
0.00612875
0.00612307
5.77444e-05
4.46704e-05
3.24947e-05
2.04866e-05
7.99231e-06
-4.78306e-06
-1.76265e-05
-3.03687e-05
-4.28348e-05
-5.48597e-05
-6.62915e-05
-7.69871e-05
-8.68141e-05
-9.56476e-05
-0.000103371
-0.000109883
-0.000115098
-0.000118938
-0.000121327
-0.000122198
-0.000121498
-0.000119183
-0.000115215
-0.000109553
-0.000102167
-9.30342e-05
-8.21405e-05
-6.94685e-05
-5.50023e-05
-3.87305e-05
-2.06482e-05
-7.55743e-07
2.09489e-05
4.44721e-05
6.98178e-05
9.69834e-05
0.000125961
0.000156745
0.000189334
0.000223727
0.000259919
0.0002979
0.000337659
0.000379187
0.000422479
0.000467531
0.000514333
0.000562868
0.000613121
0.000665078
0.000718728
0.00077406
0.000831061
0.000889712
0.000949993
0.00101188
0.00107536
0.00114041
0.00120702
0.00127516
0.0013448
0.00141591
0.00148846
0.00156242
0.00163778
0.00171449
0.00179252
0.00187183
0.00195237
0.00203411
0.00211699
0.00220097
0.00228601
0.00237206
0.00245905
0.00254692
0.00263561
0.00272506
0.00281521
0.00290598
0.00299732
0.00308913
0.00318135
0.00327389
0.00336666
0.00345959
0.00355259
0.00364558
0.00373847
0.00383116
0.00392356
0.00401556
0.00410708
0.004198
0.00428824
0.00437769
0.00446625
0.00455383
0.00464031
0.0047256
0.00480959
0.00489218
0.00497326
0.00505275
0.00513053
0.00520653
0.00528066
0.00535282
0.00542292
0.00549089
0.00555664
0.00562008
0.00568116
0.0057398
0.00579595
0.00584955
0.00590055
0.00594892
0.00599461
0.00603759
0.00607784
0.00611532
0.00615004
0.00618199
0.00621117
0.00623759
0.00626129
0.00628228
0.00630061
0.00631633
0.00632948
0.00634012
0.00634833
0.00635418
0.00635775
0.00635913
0.00635844
0.00635577
0.00635126
0.00634502
0.00633718
0.00632791
0.00631733
0.0063056
0.0062929
0.00627937
0.0062652
0.00625057
0.00623564
0.00622061
0.00620566
0.00619097
0.00617672
0.00616308
0.00615022
0.0061383
0.00612748
0.00611793
0.00610932
0.00610124
7.51284e-05
5.94306e-05
4.54246e-05
3.21439e-05
1.8681e-05
5.21817e-06
-8.05781e-06
-2.10263e-05
-3.35562e-05
-4.55091e-05
-5.67542e-05
-6.71743e-05
-7.66586e-05
-8.50973e-05
-9.23906e-05
-9.84523e-05
-0.000103204
-0.000106573
-0.000108494
-0.000108909
-0.000107773
-0.000105043
-0.000100677
-9.46413e-05
-8.6911e-05
-7.74679e-05
-6.62937e-05
-5.33688e-05
-3.86784e-05
-2.22152e-05
-3.97618e-06
1.60417e-05
3.78452e-05
6.14419e-05
8.68322e-05
0.000114011
0.000142973
0.000173716
0.000206243
0.000240551
0.000276633
0.000314478
0.000354077
0.000395425
0.00043852
0.000483358
0.000529923
0.0005782
0.000628174
0.000679836
0.000733177
0.000788186
0.000844846
0.000903141
0.000963047
0.00102455
0.00108763
0.00115227
0.00121846
0.00128617
0.00135536
0.00142602
0.00149811
0.00157161
0.00164649
0.00172272
0.00180027
0.00187908
0.00195912
0.00204035
0.00212271
0.00220618
0.0022907
0.00237622
0.00246267
0.00255
0.00263813
0.00272702
0.0028166
0.00290681
0.00299758
0.00308882
0.00318045
0.0032724
0.00336459
0.00345693
0.00354935
0.00364175
0.00373405
0.00382616
0.00391797
0.0040094
0.00410033
0.00419068
0.00428034
0.00436923
0.00445723
0.00454425
0.00463019
0.00471493
0.00479839
0.00488045
0.00496101
0.00503998
0.00511727
0.00519278
0.00526642
0.00533811
0.00540776
0.00547529
0.0055406
0.00560363
0.00566431
0.00572257
0.00577835
0.00583161
0.00588229
0.00593035
0.00597576
0.00601848
0.00605849
0.00609576
0.00613029
0.00616208
0.00619113
0.00621745
0.00624108
0.00626203
0.00628036
0.0062961
0.0063093
0.00632004
0.00632837
0.00633437
0.00633813
0.00633974
0.00633929
0.00633691
0.00633269
0.00632678
0.00631929
0.00631038
0.00630017
0.00628882
0.00627648
0.0062633
0.00624946
0.00623511
0.00622041
0.00620554
0.00619065
0.00617592
0.00616149
0.00614751
0.00613413
0.00612146
0.00610967
0.00609887
0.00608854
0.00607804
9.26445e-05
7.43389e-05
5.84665e-05
4.38415e-05
2.93086e-05
1.50286e-05
1.17785e-06
-1.21588e-05
-2.48881e-05
-3.69032e-05
-4.80982e-05
-5.83721e-05
-6.76295e-05
-7.57825e-05
-8.27502e-05
-8.84571e-05
-9.28317e-05
-9.58088e-05
-9.73331e-05
-9.73585e-05
-9.58432e-05
-9.27451e-05
-8.80252e-05
-8.16564e-05
-7.36196e-05
-6.38951e-05
-5.2463e-05
-3.93049e-05
-2.44087e-05
-7.77092e-06
1.06122e-05
3.07485e-05
5.2647e-05
7.63129e-05
0.000101743
0.000128933
0.00015788
0.000188588
0.000221057
0.000255284
0.000291259
0.000328974
0.000368422
0.000409601
0.00045251
0.000497141
0.000543479
0.000591507
0.000641217
0.0006926
0.000745648
0.000800348
0.000856683
0.000914636
0.000974187
0.00103532
0.00109803
0.00116229
0.00122808
0.00129538
0.00136416
0.00143439
0.00150606
0.00157913
0.00165357
0.00172936
0.00180646
0.00188482
0.0019644
0.00204517
0.00212707
0.00221007
0.00229412
0.00237916
0.00246513
0.00255197
0.00263962
0.00272801
0.0028171
0.00290681
0.00299708
0.00308781
0.00317894
0.00327039
0.00336207
0.0034539
0.00354582
0.00363772
0.00372953
0.00382113
0.00391245
0.00400338
0.00409383
0.00418369
0.00427288
0.00436129
0.00444883
0.00453539
0.00462087
0.00470516
0.00478817
0.00486979
0.00494992
0.00502846
0.00510534
0.00518044
0.00525369
0.00532499
0.00539425
0.00546141
0.00552636
0.00558904
0.00564938
0.00570731
0.00576278
0.00581574
0.00586613
0.00591393
0.00595908
0.00600157
0.00604136
0.00607844
0.00611279
0.00614442
0.00617333
0.00619954
0.00622307
0.00624396
0.00626225
0.00627797
0.00629119
0.00630196
0.00631036
0.00631645
0.00632032
0.00632207
0.00632179
0.00631959
0.00631558
0.00630988
0.00630263
0.00629396
0.00628399
0.00627288
0.00626077
0.0062478
0.00623414
0.00621992
0.0062053
0.00619044
0.00617547
0.00616054
0.00614579
0.00613135
0.00611732
0.00610381
0.00609095
0.00607886
0.00606678
0.00605389
0.000109887
8.90261e-05
7.12748e-05
5.52574e-05
3.95913e-05
2.44103e-05
9.87824e-06
-3.94227e-06
-1.69855e-05
-2.91759e-05
-4.04318e-05
-5.06673e-05
-5.98037e-05
-6.77725e-05
-7.45072e-05
-7.99427e-05
-8.40174e-05
-8.6676e-05
-8.78741e-05
-8.75724e-05
-8.57299e-05
-8.23083e-05
-7.72783e-05
-7.06188e-05
-6.23105e-05
-5.23323e-05
-4.06653e-05
-2.72954e-05
-1.22148e-05
4.57949e-06
2.3095e-05
4.33432e-05
6.53305e-05
8.90576e-05
0.000114522
0.00014172
0.000170655
0.00020133
0.000233745
0.000267892
0.000303763
0.000341352
0.000380657
0.000421678
0.000464411
0.000508842
0.00055496
0.000602752
0.00065221
0.000703329
0.000756099
0.000810506
0.000866531
0.000924159
0.000983375
0.00104417
0.00110652
0.00117042
0.00123585
0.00130277
0.00137116
0.001441
0.00151227
0.00158494
0.00165899
0.00173437
0.00181106
0.00188901
0.00196817
0.00204853
0.00213002
0.0022126
0.00229623
0.00238085
0.00246639
0.00255281
0.00264002
0.002728
0.00281666
0.00290594
0.00299577
0.00308608
0.00317678
0.00326779
0.00335905
0.00345046
0.00354196
0.00363345
0.00372484
0.00381604
0.00390695
0.00399748
0.00408753
0.004177
0.0042658
0.00435383
0.00444099
0.00452718
0.00461229
0.00469622
0.00477887
0.00486014
0.00493992
0.00501813
0.00509467
0.00516944
0.00524237
0.00531336
0.00538232
0.00544916
0.00551382
0.00557621
0.00563627
0.00569393
0.00574914
0.00580184
0.00585199
0.00589955
0.00594449
0.00598676
0.00602635
0.00606324
0.00609742
0.00612889
0.00615766
0.00618375
0.00620717
0.00622798
0.00624619
0.00626186
0.00627505
0.00628581
0.00629421
0.00630033
0.00630425
0.00630606
0.00630586
0.00630375
0.00629985
0.00629428
0.00628715
0.00627861
0.00626877
0.00625778
0.00624577
0.00623288
0.00621926
0.00620504
0.00619037
0.00617538
0.0061602
0.00614495
0.00612977
0.00611475
0.00609999
0.00608556
0.00607158
0.00605817
0.00604436
0.00602917
0.000126497
0.000103161
8.35476e-05
6.61105e-05
4.92682e-05
3.31301e-05
1.78437e-05
3.45195e-06
-1.0002e-05
-2.24627e-05
-3.38689e-05
-4.41569e-05
-5.32662e-05
-6.11404e-05
-6.77239e-05
-7.29626e-05
-7.68076e-05
-7.92171e-05
-8.01541e-05
-7.95804e-05
-7.74587e-05
-7.37605e-05
-6.84653e-05
-6.1554e-05
-5.30061e-05
-4.28013e-05
-3.09242e-05
-1.73667e-05
-2.1237e-06
1.48111e-05
3.34488e-05
5.37998e-05
7.5866e-05
9.96451e-05
0.000125137
0.000152342
0.000181265
0.000211909
0.00024427
0.000278338
0.000314107
0.000351576
0.000390748
0.000431618
0.00047418
0.00051842
0.000564327
0.000611894
0.000661114
0.000711983
0.000764489
0.000818616
0.000874347
0.000931669
0.000990572
0.00105104
0.00111307
0.00117663
0.00124171
0.00130828
0.00137631
0.00144579
0.0015167
0.00158901
0.0016627
0.00173772
0.00181403
0.00189161
0.00197041
0.00205039
0.00213152
0.00221374
0.002297
0.00238125
0.00246642
0.00255247
0.00263932
0.00272693
0.00281523
0.00290415
0.00299363
0.00308357
0.00317392
0.00326458
0.00335549
0.00344657
0.00353773
0.00362888
0.00371995
0.00381083
0.00390142
0.00399163
0.00408137
0.00417054
0.00425905
0.00434679
0.00443366
0.00451956
0.0046044
0.00468805
0.00477043
0.00485143
0.00493095
0.0050089
0.00508519
0.00515972
0.0052324
0.00530315
0.00537187
0.00543848
0.0055029
0.00556507
0.0056249
0.00568234
0.00573733
0.00578983
0.00583977
0.00588714
0.00593188
0.00597396
0.00601337
0.00605009
0.0060841
0.00611541
0.00614404
0.00616999
0.00619329
0.00621398
0.00623209
0.00624768
0.00626079
0.00627149
0.00627985
0.00628593
0.00628983
0.00629163
0.00629143
0.00628934
0.00628546
0.00627991
0.00627282
0.0062643
0.00625448
0.00624349
0.00623148
0.00621855
0.00620486
0.00619052
0.00617568
0.00616044
0.00614494
0.00612928
0.00611357
0.00609789
0.00608233
0.00606692
0.00605181
0.00603707
0.00602157
0.00600417
0.000142154
0.00011644
9.50114e-05
7.61522e-05
5.81034e-05
4.09692e-05
2.48798e-05
9.85184e-06
-4.08706e-06
-1.68938e-05
-2.85275e-05
-3.89476e-05
-4.81082e-05
-5.59629e-05
-6.24663e-05
-6.75767e-05
-7.12599e-05
-7.34841e-05
-7.42146e-05
-7.34172e-05
-7.10647e-05
-6.71379e-05
-6.16197e-05
-5.44909e-05
-4.57327e-05
-3.53286e-05
-2.32693e-05
-9.55048e-06
5.83483e-06
2.28968e-05
4.16454e-05
6.20867e-05
8.42194e-05
0.000108042
0.000133556
0.000160767
0.000189678
0.000220288
0.000252591
0.00028658
0.000322252
0.00035961
0.000398654
0.000439379
0.000481774
0.00052583
0.000571538
0.000618891
0.000667888
0.00071852
0.000770775
0.000824635
0.000880088
0.000937125
0.000995735
0.00105591
0.00111763
0.00118088
0.00124564
0.00131188
0.00137958
0.00144874
0.00151932
0.00159131
0.00166466
0.00173935
0.00181534
0.00189258
0.00197106
0.00205072
0.00213153
0.00221344
0.00229638
0.00238031
0.00246517
0.00255091
0.00263746
0.00272477
0.00281277
0.00290141
0.00299059
0.00308025
0.00317032
0.00326071
0.00335135
0.00344216
0.00353307
0.00362398
0.00371481
0.00380545
0.0038958
0.00398579
0.00407531
0.00416427
0.00425256
0.0043401
0.00442677
0.00451248
0.00459712
0.00468059
0.00476278
0.0048436
0.00492294
0.00500072
0.00507683
0.00515119
0.00522371
0.00529428
0.00536283
0.00542928
0.00549353
0.00555553
0.00561519
0.00567246
0.00572729
0.00577961
0.00582939
0.00587659
0.00592116
0.00596308
0.00600233
0.00603888
0.00607273
0.00610389
0.00613237
0.00615817
0.00618133
0.00620189
0.00621987
0.00623534
0.00624834
0.00625893
0.00626719
0.00627319
0.006277
0.00627873
0.00627846
0.0062763
0.00627236
0.00626675
0.00625959
0.006251
0.0062411
0.00623002
0.00621789
0.00620483
0.00619095
0.0061764
0.00616127
0.0061457
0.00612978
0.00611361
0.00609729
0.0060809
0.00606448
0.00604808
0.00603181
0.00601576
0.00599865
0.00597915
0.000156581
0.000128592
0.00010541
8.51505e-05
6.58868e-05
4.77291e-05
3.07986e-05
1.50903e-05
6.15526e-07
-1.2599e-05
-2.45287e-05
-3.51475e-05
-4.44232e-05
-5.23206e-05
-5.88066e-05
-6.38534e-05
-6.7437e-05
-6.95295e-05
-7.01006e-05
-6.9127e-05
-6.65922e-05
-6.24812e-05
-5.67776e-05
-4.94631e-05
-4.05234e-05
-2.99493e-05
-1.77363e-05
-3.87971e-06
1.1631e-05
2.88064e-05
4.76515e-05
6.81678e-05
9.03543e-05
0.000114211
0.000139744
0.000166959
0.000195854
0.000226427
0.00025867
0.00029258
0.00032816
0.000365412
0.000404334
0.000444916
0.000487151
0.00053103
0.000576548
0.000623702
0.000672487
0.000722895
0.00077491
0.000828519
0.000883712
0.000940482
0.000998823
0.00105872
0.00112016
0.00118312
0.00124758
0.00131352
0.00138093
0.00144979
0.00152009
0.00159178
0.00166484
0.00173924
0.00181493
0.0018919
0.00197009
0.00204948
0.00213002
0.00221166
0.00229434
0.002378
0.00246261
0.00254809
0.0026344
0.00272148
0.00280925
0.00289766
0.00298663
0.00307608
0.00316593
0.00325613
0.00334658
0.00343722
0.00352795
0.0036187
0.00370936
0.00379985
0.00389006
0.00397991
0.00406929
0.00415812
0.0042463
0.00433372
0.00442028
0.00450588
0.00459041
0.00467378
0.00475587
0.00483658
0.00491583
0.00499351
0.00506953
0.0051438
0.00521622
0.00528669
0.00535514
0.00542148
0.00548563
0.00554751
0.00560706
0.00566422
0.00571892
0.00577112
0.00582077
0.00586783
0.00591226
0.00595404
0.00599314
0.00602954
0.00606324
0.00609425
0.00612256
0.00614821
0.00617122
0.00619161
0.00620945
0.00622476
0.00623761
0.00624806
0.00625617
0.00626202
0.00626569
0.00626728
0.00626687
0.00626457
0.00626049
0.00625474
0.00624743
0.00623869
0.00622862
0.00621736
0.00620501
0.00619171
0.00617757
0.00616269
0.00614721
0.00613121
0.00611479
0.00609805
0.00608106
0.0060639
0.0060466
0.00602918
0.00601177
0.00599445
0.00597578
0.00595431
0.000169554
0.000139387
0.000114511
9.28871e-05
7.24204e-05
5.32248e-05
3.54285e-05
1.90114e-05
3.96193e-06
-9.7105e-06
-2.19906e-05
-3.28619e-05
-4.23052e-05
-5.0299e-05
-5.68251e-05
-6.1866e-05
-6.54008e-05
-6.74069e-05
-6.78652e-05
-6.67632e-05
-6.40901e-05
-5.98327e-05
-5.39765e-05
-4.65074e-05
-3.74177e-05
-2.67046e-05
-1.43641e-05
-3.88878e-07
1.52315e-05
3.25039e-05
5.14287e-05
7.20051e-05
9.42342e-05
0.000118119
0.000143666
0.000170879
0.000199752
0.000230282
0.000262464
0.000296299
0.000331791
0.00036894
0.000407742
0.000448186
0.000490266
0.000533977
0.000579316
0.000626281
0.000674866
0.000725059
0.000776848
0.000830221
0.000885173
0.000941698
0.000999789
0.00105943
0.00112061
0.0011833
0.0012475
0.00131317
0.00138032
0.00144892
0.00151895
0.00159039
0.00166319
0.00173734
0.00181278
0.0018895
0.00196747
0.00204663
0.00212694
0.00220835
0.00229082
0.00237428
0.00245868
0.00254398
0.00263011
0.00271701
0.00280462
0.00289287
0.00298168
0.00307099
0.00316072
0.00325079
0.00334114
0.00343167
0.00352232
0.00361298
0.00370357
0.00379398
0.00388413
0.00397393
0.00406327
0.00415206
0.0042402
0.00432759
0.00441412
0.0044997
0.00458421
0.00466755
0.00474962
0.00483033
0.00490956
0.00498722
0.00506323
0.00513747
0.00520986
0.00528031
0.00534873
0.00541502
0.00547912
0.00554095
0.00560044
0.00565753
0.00571215
0.00576427
0.00581382
0.00586078
0.0059051
0.00594675
0.00598572
0.00602199
0.00605554
0.00608639
0.00611455
0.00614003
0.00616287
0.00618309
0.00620074
0.00621588
0.00622854
0.0062388
0.00624671
0.00625237
0.00625585
0.00625723
0.00625662
0.00625412
0.00624982
0.00624385
0.00623632
0.00622733
0.00621701
0.00620548
0.00619284
0.00617922
0.00616472
0.00614945
0.00613352
0.00611702
0.00610004
0.00608267
0.00606497
0.006047
0.00602879
0.00601036
0.00599183
0.00597328
0.00595314
0.00592983
0.000180891
0.000148629
0.000122113
9.91618e-05
7.7514e-05
5.72863e-05