/*--------------------------------*- C++ -*----------------------------------*\
  =========                 |
  \\      /  F ield         | OpenFOAM: The Open Source CFD Toolbox
   \\    /   O peration     | Website:  https://openfoam.org
    \\  /    A nd           | Version:  7
     \\/     M anipulation  |
\*---------------------------------------------------------------------------*/
FoamFile
{
    version     2.0;
    format      ascii;
    class       volVectorField;
    location    "0.2625";
    object      U;
}
// * * * * * * * * * * * * * * * * * * * * * * * * * * * * * * * * * * * * * //

dimensions      [0 1 -1 0 0 0 0];

internalField   nonuniform List<vector> 
25600
(
(3.72668e-07 -1.00934e-06 0)
(3.15301e-06 -1.92006e-06 0)
(6.57002e-06 -1.71529e-06 0)
(9.53834e-06 -1.27167e-06 0)
(1.0753e-05 -6.51769e-07 0)
(1.00691e-05 3.45053e-08 0)
(7.32004e-06 7.33693e-07 0)
(2.45252e-06 1.41675e-06 0)
(-4.50064e-06 2.07062e-06 0)
(-1.34618e-05 2.6869e-06 0)
(-2.43364e-05 3.25819e-06 0)
(-3.70059e-05 3.78429e-06 0)
(-5.13496e-05 4.27021e-06 0)
(-6.725e-05 4.71731e-06 0)
(-8.45834e-05 5.12395e-06 0)
(-0.000103229 5.49135e-06 0)
(-0.000123073 5.82255e-06 0)
(-0.000144007 6.11942e-06 0)
(-0.000165925 6.38548e-06 0)
(-0.000188727 6.62415e-06 0)
(-0.000212322 6.83595e-06 0)
(-0.000236621 7.02137e-06 0)
(-0.000261543 7.18306e-06 0)
(-0.000287011 7.32405e-06 0)
(-0.000312953 7.44609e-06 0)
(-0.000339304 7.54935e-06 0)
(-0.000366001 7.63451e-06 0)
(-0.000392988 7.70375e-06 0)
(-0.00042021 7.75892e-06 0)
(-0.000447621 7.801e-06 0)
(-0.000475175 7.83097e-06 0)
(-0.000502829 7.84999e-06 0)
(-0.000530545 7.85925e-06 0)
(-0.000558289 7.85946e-06 0)
(-0.000586026 7.85081e-06 0)
(-0.000613726 7.83364e-06 0)
(-0.000641361 7.8088e-06 0)
(-0.000668904 7.77726e-06 0)
(-0.00069633 7.73961e-06 0)
(-0.000723618 7.69614e-06 0)
(-0.000750744 7.64707e-06 0)
(-0.000777688 7.5926e-06 0)
(-0.00080443 7.53287e-06 0)
(-0.000830952 7.46809e-06 0)
(-0.000857235 7.39855e-06 0)
(-0.000883262 7.32442e-06 0)
(-0.000909016 7.24581e-06 0)
(-0.000934478 7.16285e-06 0)
(-0.000959634 7.0754e-06 0)
(-0.000984466 6.98318e-06 0)
(-0.00100896 6.88623e-06 0)
(-0.00103309 6.78483e-06 0)
(-0.00105685 6.67911e-06 0)
(-0.00108022 6.56884e-06 0)
(-0.00110318 6.45364e-06 0)
(-0.00112571 6.33321e-06 0)
(-0.0011478 6.20731e-06 0)
(-0.00116942 6.07592e-06 0)
(-0.00119056 5.93926e-06 0)
(-0.0012112 5.79754e-06 0)
(-0.00123132 5.65054e-06 0)
(-0.0012509 5.49762e-06 0)
(-0.00126992 5.33829e-06 0)
(-0.00128835 5.17255e-06 0)
(-0.00130618 5.00067e-06 0)
(-0.00132339 4.82274e-06 0)
(-0.00133994 4.63851e-06 0)
(-0.00135583 4.44767e-06 0)
(-0.00137102 4.25001e-06 0)
(-0.00138549 4.04549e-06 0)
(-0.00139923 3.83415e-06 0)
(-0.0014122 3.61605e-06 0)
(-0.00142439 3.3912e-06 0)
(-0.00143577 3.15952e-06 0)
(-0.00144632 2.92089e-06 0)
(-0.001456 2.67533e-06 0)
(-0.00146481 2.42293e-06 0)
(-0.00147272 2.16381e-06 0)
(-0.0014797 1.89807e-06 0)
(-0.00148574 1.62581e-06 0)
(-0.0014908 1.34725e-06 0)
(-0.00149488 1.06259e-06 0)
(-0.00149795 7.71914e-07 0)
(-0.00149998 4.75347e-07 0)
(-0.00150097 1.73181e-07 0)
(-0.00150088 -1.34231e-07 0)
(-0.00149972 -4.46549e-07 0)
(-0.00149745 -7.63437e-07 0)
(-0.00149407 -1.08453e-06 0)
(-0.00148956 -1.4094e-06 0)
(-0.00148392 -1.7376e-06 0)
(-0.00147712 -2.06876e-06 0)
(-0.00146916 -2.40247e-06 0)
(-0.00146004 -2.73816e-06 0)
(-0.00144975 -3.07518e-06 0)
(-0.00143829 -3.41287e-06 0)
(-0.00142565 -3.75058e-06 0)
(-0.00141184 -4.08774e-06 0)
(-0.00139686 -4.42375e-06 0)
(-0.00138072 -4.75794e-06 0)
(-0.00136342 -5.08958e-06 0)
(-0.00134498 -5.41785e-06 0)
(-0.00132541 -5.74191e-06 0)
(-0.00130473 -6.06092e-06 0)
(-0.00128295 -6.37413e-06 0)
(-0.0012601 -6.68077e-06 0)
(-0.00123619 -6.98002e-06 0)
(-0.00121127 -7.27101e-06 0)
(-0.00118536 -7.55284e-06 0)
(-0.00115848 -7.82463e-06 0)
(-0.00113069 -8.08548e-06 0)
(-0.00110201 -8.33453e-06 0)
(-0.00107249 -8.57097e-06 0)
(-0.00104218 -8.79394e-06 0)
(-0.00101112 -9.00253e-06 0)
(-0.000979365 -9.19583e-06 0)
(-0.000946967 -9.37299e-06 0)
(-0.000913984 -9.53328e-06 0)
(-0.000880475 -9.67596e-06 0)
(-0.000846502 -9.8003e-06 0)
(-0.00081213 -9.90551e-06 0)
(-0.000777426 -9.99077e-06 0)
(-0.00074246 -1.00553e-05 0)
(-0.000707305 -1.00985e-05 0)
(-0.000672034 -1.01196e-05 0)
(-0.000636725 -1.01182e-05 0)
(-0.000601456 -1.00937e-05 0)
(-0.000566307 -1.00456e-05 0)
(-0.000531361 -9.97322e-06 0)
(-0.000496703 -9.87605e-06 0)
(-0.000462416 -9.75376e-06 0)
(-0.000428589 -9.606e-06 0)
(-0.00039531 -9.43242e-06 0)
(-0.000362667 -9.23266e-06 0)
(-0.000330752 -9.00632e-06 0)
(-0.000299655 -8.75307e-06 0)
(-0.000269469 -8.47264e-06 0)
(-0.000240287 -8.16481e-06 0)
(-0.0002122 -7.82941e-06 0)
(-0.000185303 -7.46631e-06 0)
(-0.000159688 -7.07538e-06 0)
(-0.000135449 -6.65652e-06 0)
(-0.000112677 -6.20968e-06 0)
(-9.14638e-05 -5.73484e-06 0)
(-7.18991e-05 -5.23213e-06 0)
(-5.40702e-05 -4.70186e-06 0)
(-3.80614e-05 -4.14452e-06 0)
(-2.39525e-05 -3.56086e-06 0)
(-1.18168e-05 -2.95215e-06 0)
(-1.71847e-06 -2.32058e-06 0)
(6.29125e-06 -1.6697e-06 0)
(1.21799e-05 -1.00502e-06 0)
(1.59426e-05 -3.3564e-07 0)
(1.76151e-05 3.23331e-07 0)
(1.7296e-05 9.45806e-07 0)
(1.51807e-05 1.48724e-06 0)
(1.1608e-05 1.87077e-06 0)
(7.15156e-06 1.96257e-06 0)
(2.88167e-06 1.54611e-06 0)
(4.84913e-07 4.85557e-07 0)
(1.1109e-06 -2.99372e-06 0)
(5.2954e-06 -6.17454e-06 0)
(1.0454e-05 -5.57093e-06 0)
(1.34515e-05 -3.29376e-06 0)
(1.25716e-05 1.07678e-08 0)
(6.98714e-06 3.84111e-06 0)
(-3.81262e-06 7.88597e-06 0)
(-2.00354e-05 1.19615e-05 0)
(-4.16976e-05 1.59526e-05 0)
(-6.8692e-05 1.97861e-05 0)
(-0.000100815 2.34206e-05 0)
(-0.000137815 2.68332e-05 0)
(-0.000179415 3.00124e-05 0)
(-0.000225313 3.29583e-05 0)
(-0.000275202 3.56722e-05 0)
(-0.000328776 3.81584e-05 0)
(-0.000385734 4.04241e-05 0)
(-0.000445785 4.24783e-05 0)
(-0.000508646 4.43331e-05 0)
(-0.000574049 4.60003e-05 0)
(-0.000641737 4.74896e-05 0)
(-0.000711468 4.88107e-05 0)
(-0.000783013 4.99746e-05 0)
(-0.000856157 5.09929e-05 0)
(-0.000930699 5.18754e-05 0)
(-0.00100645 5.26306e-05 0)
(-0.00108323 5.32675e-05 0)
(-0.00116089 5.37955e-05 0)
(-0.00123926 5.42227e-05 0)
(-0.0013182 5.45556e-05 0)
(-0.00139759 5.48017e-05 0)
(-0.0014773 5.49681e-05 0)
(-0.00155722 5.50609e-05 0)
(-0.00163724 5.50853e-05 0)
(-0.00171727 5.50459e-05 0)
(-0.00179721 5.49473e-05 0)
(-0.00187698 5.47939e-05 0)
(-0.0019565 5.45895e-05 0)
(-0.00203569 5.43372e-05 0)
(-0.0021145 5.40396e-05 0)
(-0.00219284 5.36994e-05 0)
(-0.00227066 5.33191e-05 0)
(-0.00234791 5.29003e-05 0)
(-0.00242451 5.24443e-05 0)
(-0.00250042 5.19522e-05 0)
(-0.00257558 5.1425e-05 0)
(-0.00264995 5.08635e-05 0)
(-0.00272347 5.02687e-05 0)
(-0.00279609 4.96407e-05 0)
(-0.00286776 4.8979e-05 0)
(-0.00293843 4.82835e-05 0)
(-0.00300805 4.75543e-05 0)
(-0.00307658 4.67915e-05 0)
(-0.00314395 4.59945e-05 0)
(-0.00321013 4.51627e-05 0)
(-0.00327505 4.42951e-05 0)
(-0.00333867 4.33908e-05 0)
(-0.00340094 4.24489e-05 0)
(-0.00346178 4.14692e-05 0)
(-0.00352117 4.04513e-05 0)
(-0.00357902 3.93942e-05 0)
(-0.00363529 3.82965e-05 0)
(-0.00368992 3.71572e-05 0)
(-0.00374285 3.59756e-05 0)
(-0.00379402 3.47514e-05 0)
(-0.00384336 3.3484e-05 0)
(-0.00389081 3.21726e-05 0)
(-0.00393631 3.08164e-05 0)
(-0.00397979 2.94149e-05 0)
(-0.00402119 2.79674e-05 0)
(-0.00406045 2.64741e-05 0)
(-0.0040975 2.49346e-05 0)
(-0.00413226 2.33489e-05 0)
(-0.00416468 2.1717e-05 0)
(-0.0041947 2.00389e-05 0)
(-0.00422224 1.83149e-05 0)
(-0.00424724 1.65455e-05 0)
(-0.00426963 1.47312e-05 0)
(-0.00428936 1.28725e-05 0)
(-0.00430636 1.09706e-05 0)
(-0.00432057 9.02639e-06 0)
(-0.00433194 7.0413e-06 0)
(-0.0043404 5.01658e-06 0)
(-0.0043459 2.95368e-06 0)
(-0.00434839 8.54386e-07 0)
(-0.00434781 -1.27925e-06 0)
(-0.00434414 -3.44509e-06 0)
(-0.0043373 -5.64078e-06 0)
(-0.00432728 -7.86374e-06 0)
(-0.00431404 -1.01112e-05 0)
(-0.00429753 -1.23801e-05 0)
(-0.00427774 -1.46674e-05 0)
(-0.00425464 -1.69698e-05 0)
(-0.00422821 -1.92837e-05 0)
(-0.00419844 -2.16051e-05 0)
(-0.00416533 -2.393e-05 0)
(-0.00412887 -2.62541e-05 0)
(-0.00408907 -2.85732e-05 0)
(-0.00404595 -3.08828e-05 0)
(-0.0039995 -3.31782e-05 0)
(-0.00394978 -3.54545e-05 0)
(-0.00389679 -3.77065e-05 0)
(-0.0038406 -3.99291e-05 0)
(-0.00378123 -4.21166e-05 0)
(-0.00371875 -4.42638e-05 0)
(-0.00365322 -4.6365e-05 0)
(-0.0035847 -4.84148e-05 0)
(-0.00351329 -5.04075e-05 0)
(-0.00343906 -5.23372e-05 0)
(-0.0033621 -5.4198e-05 0)
(-0.00328253 -5.59841e-05 0)
(-0.00320046 -5.76895e-05 0)
(-0.00311599 -5.93084e-05 0)
(-0.00302927 -6.08349e-05 0)
(-0.00294043 -6.22633e-05 0)
(-0.00284961 -6.35879e-05 0)
(-0.00275696 -6.4803e-05 0)
(-0.00266266 -6.59033e-05 0)
(-0.00256685 -6.68833e-05 0)
(-0.00246973 -6.77378e-05 0)
(-0.00237147 -6.84616e-05 0)
(-0.00227226 -6.90497e-05 0)
(-0.0021723 -6.94973e-05 0)
(-0.00207181 -6.97998e-05 0)
(-0.00197098 -6.99527e-05 0)
(-0.00187003 -6.9952e-05 0)
(-0.00176919 -6.97939e-05 0)
(-0.00166868 -6.94747e-05 0)
(-0.00156873 -6.8991e-05 0)
(-0.0014696 -6.83395e-05 0)
(-0.0013715 -6.75174e-05 0)
(-0.0012747 -6.6522e-05 0)
(-0.00117943 -6.53511e-05 0)
(-0.00108596 -6.40025e-05 0)
(-0.000994538 -6.24743e-05 0)
(-0.000905416 -6.07649e-05 0)
(-0.000818855 -5.88732e-05 0)
(-0.000735114 -5.67983e-05 0)
(-0.000654453 -5.45398e-05 0)
(-0.00057713 -5.20976e-05 0)
(-0.000503403 -4.94723e-05 0)
(-0.000433528 -4.6665e-05 0)
(-0.000367756 -4.36777e-05 0)
(-0.000306334 -4.05131e-05 0)
(-0.000249501 -3.71756e-05 0)
(-0.000197487 -3.3671e-05 0)
(-0.000150508 -3.00079e-05 0)
(-0.000108763 -2.61981e-05 0)
(-7.24245e-05 -2.22581e-05 0)
(-4.16349e-05 -1.82113e-05 0)
(-1.649e-05 -1.40909e-05 0)
(2.9755e-06 -9.94469e-06 0)
(1.68114e-05 -5.84212e-06 0)
(2.51855e-05 -1.88531e-06 0)
(2.84315e-05 1.77256e-06 0)
(2.71122e-05 4.90071e-06 0)
(2.20912e-05 7.15516e-06 0)
(1.46366e-05 8.02391e-06 0)
(6.78627e-06 6.79481e-06 0)
(1.54151e-06 2.87983e-06 0)
(1.47856e-06 -6.3629e-06 0)
(5.3142e-06 -1.0904e-05 0)
(8.56899e-06 -8.8452e-06 0)
(8.09288e-06 -2.71654e-06 0)
(1.78674e-06 5.91788e-06 0)
(-1.15454e-05 1.59671e-05 0)
(-3.26136e-05 2.6709e-05 0)
(-6.17757e-05 3.76583e-05 0)
(-9.91218e-05 4.84877e-05 0)
(-0.000144542 5.89921e-05 0)
(-0.000197799 6.90376e-05 0)
(-0.000258561 7.85373e-05 0)
(-0.000326438 8.74476e-05 0)
(-0.000401009 9.57476e-05 0)
(-0.00048183 0.000103431 0)
(-0.000568451 0.000110504 0)
(-0.00066042 0.000116982 0)
(-0.0007573 0.000122882 0)
(-0.00085866 0.00012823 0)
(-0.000964087 0.000133052 0)
(-0.00107318 0.000137375 0)
(-0.00118558 0.000141225 0)
(-0.0013009 0.000144631 0)
(-0.00141883 0.000147621 0)
(-0.00153903 0.000150221 0)
(-0.00166121 0.000152456 0)
(-0.00178509 0.000154352 0)
(-0.0019104 0.000155932 0)
(-0.00203691 0.000157218 0)
(-0.00216438 0.000158231 0)
(-0.00229259 0.000158991 0)
(-0.00242135 0.000159515 0)
(-0.00255048 0.000159822 0)
(-0.0026798 0.000159927 0)
(-0.00280916 0.000159843 0)
(-0.00293839 0.000159583 0)
(-0.00306737 0.000159161 0)
(-0.00319596 0.000158587 0)
(-0.00332404 0.000157869 0)
(-0.00345149 0.000157016 0)
(-0.00357821 0.000156035 0)
(-0.00370408 0.000154933 0)
(-0.00382902 0.000153715 0)
(-0.00395292 0.000152386 0)
(-0.00407569 0.00015095 0)
(-0.00419725 0.000149408 0)
(-0.00431751 0.000147763 0)
(-0.00443638 0.000146019 0)
(-0.00455379 0.000144174 0)
(-0.00466964 0.000142231 0)
(-0.00478386 0.000140188 0)
(-0.00489637 0.000138045 0)
(-0.00500707 0.000135802 0)
(-0.0051159 0.000133457 0)
(-0.00522276 0.00013101 0)
(-0.00532757 0.000128459 0)
(-0.00543024 0.000125801 0)
(-0.0055307 0.000123035 0)
(-0.00562884 0.000120159 0)
(-0.00572458 0.00011717 0)
(-0.00581783 0.000114067 0)
(-0.0059085 0.000110847 0)
(-0.00599648 0.000107508 0)
(-0.00608168 0.000104048 0)
(-0.00616402 0.000100465 0)
(-0.00624337 9.67566e-05 0)
(-0.00631966 9.29223e-05 0)
(-0.00639276 8.89599e-05 0)
(-0.00646259 8.48681e-05 0)
(-0.00652904 8.06458e-05 0)
(-0.00659201 7.62923e-05 0)
(-0.00665138 7.18073e-05 0)
(-0.00670706 6.71905e-05 0)
(-0.00675895 6.24421e-05 0)
(-0.00680693 5.75624e-05 0)
(-0.0068509 5.25526e-05 0)
(-0.00689077 4.74138e-05 0)
(-0.00692644 4.21478e-05 0)
(-0.00695779 3.67565e-05 0)
(-0.00698474 3.12428e-05 0)
(-0.00700719 2.56097e-05 0)
(-0.00702505 1.98607e-05 0)
(-0.00703823 1.39999e-05 0)
(-0.00704664 8.03189e-06 0)
(-0.0070502 1.96182e-06 0)
(-0.00704883 -4.20458e-06 0)
(-0.00704247 -1.04611e-05 0)
(-0.00703105 -1.68011e-05 0)
(-0.00701449 -2.32171e-05 0)
(-0.00699275 -2.97011e-05 0)
(-0.00696579 -3.62446e-05 0)
(-0.00693354 -4.28383e-05 0)
(-0.006896 -4.94726e-05 0)
(-0.00685312 -5.61372e-05 0)
(-0.00680488 -6.28212e-05 0)
(-0.00675129 -6.95132e-05 0)
(-0.00669234 -7.62013e-05 0)
(-0.00662803 -8.28729e-05 0)
(-0.0065584 -8.9515e-05 0)
(-0.00648347 -9.61141e-05 0)
(-0.00640328 -0.000102656 0)
(-0.00631789 -0.000109127 0)
(-0.00622735 -0.000115512 0)
(-0.00613175 -0.000121795 0)
(-0.00603118 -0.000127962 0)
(-0.00592573 -0.000133996 0)
(-0.00581552 -0.000139881 0)
(-0.00570067 -0.0001456 0)
(-0.00558132 -0.000151139 0)
(-0.00545763 -0.000156479 0)
(-0.00532976 -0.000161605 0)
(-0.00519789 -0.000166499 0)
(-0.00506221 -0.000171145 0)
(-0.00492293 -0.000175526 0)
(-0.00478025 -0.000179626 0)
(-0.00463442 -0.000183428 0)
(-0.00448568 -0.000186917 0)
(-0.00433428 -0.000190077 0)
(-0.00418049 -0.000192893 0)
(-0.00402459 -0.000195349 0)
(-0.00386688 -0.000197431 0)
(-0.00370765 -0.000199124 0)
(-0.00354722 -0.000200416 0)
(-0.00338592 -0.000201292 0)
(-0.00322408 -0.000201742 0)
(-0.00306204 -0.000201751 0)
(-0.00290016 -0.000201311 0)
(-0.00273881 -0.000200409 0)
(-0.00257834 -0.000199038 0)
(-0.00241914 -0.000197187 0)
(-0.0022616 -0.000194849 0)
(-0.00210609 -0.000192015 0)
(-0.00195302 -0.000188681 0)
(-0.00180279 -0.00018484 0)
(-0.00165579 -0.000180487 0)
(-0.00151244 -0.000175619 0)
(-0.00137314 -0.000170234 0)
(-0.0012383 -0.000164329 0)
(-0.00110833 -0.000157905 0)
(-0.000983621 -0.000150964 0)
(-0.000864589 -0.000143509 0)
(-0.000751627 -0.000135546 0)
(-0.000645123 -0.000127082 0)
(-0.000545453 -0.000118132 0)
(-0.000452982 -0.000108709 0)
(-0.000368051 -9.88388e-05 0)
(-0.00029098 -8.85502e-05 0)
(-0.000222053 -7.78853e-05 0)
(-0.000161512 -6.68999e-05 0)
(-0.00010954 -5.56705e-05 0)
(-6.62447e-05 -4.43016e-05 0)
(-3.16357e-05 -3.29375e-05 0)
(-5.58889e-06 -2.17782e-05 0)
(1.21934e-05 -1.11032e-05 0)
(2.22399e-05 -1.3049e-06 0)
(2.53816e-05 7.06596e-06 0)
(2.28157e-05 1.32474e-05 0)
(1.61872e-05 1.62088e-05 0)
(7.99822e-06 1.4637e-05 0)
(1.95088e-06 7.13623e-06 0)
(1.18634e-06 -8.95624e-06 0)
(3.23046e-06 -1.36764e-05 0)
(2.60483e-06 -8.30726e-06 0)
(-3.68668e-06 3.60129e-06 0)
(-1.77682e-05 1.9676e-05 0)
(-4.09449e-05 3.8252e-05 0)
(-7.40348e-05 5.8137e-05 0)
(-0.000117474 7.84889e-05 0)
(-0.000171388 9.8732e-05 0)
(-0.000235684 0.000118472 0)
(-0.000310106 0.000137444 0)
(-0.000394273 0.000155477 0)
(-0.000487724 0.000172464 0)
(-0.000589948 0.000188347 0)
(-0.0007004 0.000203105 0)
(-0.000818519 0.000216738 0)
(-0.000943741 0.000229261 0)
(-0.0010755 0.000240704 0)
(-0.00121326 0.000251105 0)
(-0.00135647 0.000260509 0)
(-0.00150462 0.00026896 0)
(-0.00165721 0.00027651 0)
(-0.00181379 0.000283206 0)
(-0.00197389 0.0002891 0)
(-0.0021371 0.000294238 0)
(-0.00230302 0.000298669 0)
(-0.00247126 0.000302439 0)
(-0.00264149 0.000305593 0)
(-0.00281336 0.000308171 0)
(-0.00298657 0.000310214 0)
(-0.00316082 0.000311758 0)
(-0.00333586 0.000312839 0)
(-0.00351142 0.000313489 0)
(-0.00368726 0.000313738 0)
(-0.00386318 0.000313612 0)
(-0.00403895 0.000313139 0)
(-0.0042144 0.00031234 0)
(-0.00438933 0.000311236 0)
(-0.00456358 0.000309846 0)
(-0.00473698 0.000308185 0)
(-0.00490939 0.000306268 0)
(-0.00508065 0.000304107 0)
(-0.00525064 0.000301715 0)
(-0.00541921 0.000299099 0)
(-0.00558624 0.000296267 0)
(-0.00575161 0.000293225 0)
(-0.0059152 0.000289977 0)
(-0.00607688 0.000286528 0)
(-0.00623655 0.000282879 0)
(-0.00639408 0.000279033 0)
(-0.00654937 0.000274989 0)
(-0.0067023 0.000270746 0)
(-0.00685275 0.000266305 0)
(-0.00700061 0.000261662 0)
(-0.00714577 0.000256816 0)
(-0.00728812 0.000251764 0)
(-0.00742752 0.000246502 0)
(-0.00756387 0.000241028 0)
(-0.00769705 0.000235337 0)
(-0.00782692 0.000229426 0)
(-0.00795338 0.00022329 0)
(-0.00807628 0.000216926 0)
(-0.0081955 0.00021033 0)
(-0.00831092 0.000203498 0)
(-0.0084224 0.000196426 0)
(-0.0085298 0.000189111 0)
(-0.008633 0.000181551 0)
(-0.00873185 0.000173742 0)
(-0.00882622 0.000165681 0)
(-0.00891597 0.000157369 0)
(-0.00900096 0.000148802 0)
(-0.00908105 0.00013998 0)
(-0.00915611 0.000130904 0)
(-0.00922599 0.000121573 0)
(-0.00929055 0.000111989 0)
(-0.00934966 0.000102154 0)
(-0.00940318 9.20707e-05 0)
(-0.00945098 8.17416e-05 0)
(-0.00949293 7.11717e-05 0)
(-0.00952889 6.03664e-05 0)
(-0.00955874 4.93316e-05 0)
(-0.00958236 3.80744e-05 0)
(-0.00959963 2.66027e-05 0)
(-0.00961044 1.49256e-05 0)
(-0.00961468 3.05326e-06 0)
(-0.00961225 -9.00327e-06 0)
(-0.00960305 -2.12317e-05 0)
(-0.00958699 -3.36188e-05 0)
(-0.009564 -4.61501e-05 0)
(-0.00953401 -5.88101e-05 0)
(-0.00949694 -7.15822e-05 0)
(-0.00945276 -8.44487e-05 0)
(-0.0094014 -9.73906e-05 0)
(-0.00934285 -0.000110388 0)
(-0.00927707 -0.000123419 0)
(-0.00920406 -0.000136463 0)
(-0.00912383 -0.000149496 0)
(-0.00903638 -0.000162493 0)
(-0.00894176 -0.000175431 0)
(-0.00883999 -0.000188282 0)
(-0.00873114 -0.000201019 0)
(-0.00861528 -0.000213615 0)
(-0.0084925 -0.000226041 0)
(-0.00836291 -0.000238268 0)
(-0.00822662 -0.000250265 0)
(-0.00808377 -0.000262003 0)
(-0.00793452 -0.00027345 0)
(-0.00777903 -0.000284574 0)
(-0.0076175 -0.000295345 0)
(-0.00745012 -0.000305729 0)
(-0.00727713 -0.000315695 0)
(-0.00709876 -0.000325211 0)
(-0.00691527 -0.000334244 0)
(-0.00672693 -0.000342762 0)
(-0.00653404 -0.000350734 0)
(-0.00633691 -0.000358128 0)
(-0.00613586 -0.000364914 0)
(-0.00593123 -0.000371061 0)
(-0.0057234 -0.000376538 0)
(-0.00551273 -0.000381318 0)
(-0.00529961 -0.000385372 0)
(-0.00508446 -0.000388672 0)
(-0.00486769 -0.000391193 0)
(-0.00464974 -0.000392909 0)
(-0.00443105 -0.000393796 0)
(-0.0042121 -0.000393831 0)
(-0.00399334 -0.000392994 0)
(-0.00377527 -0.000391263 0)
(-0.00355838 -0.000388621 0)
(-0.00334317 -0.000385051 0)
(-0.00313017 -0.000380537 0)
(-0.00291987 -0.000375065 0)
(-0.00271282 -0.000368624 0)
(-0.00250955 -0.000361203 0)
(-0.00231059 -0.000352794 0)
(-0.00211648 -0.000343391 0)
(-0.00192776 -0.000332991 0)
(-0.00174497 -0.000321593 0)
(-0.00156866 -0.000309199 0)
(-0.00139934 -0.000295815 0)
(-0.00123755 -0.000281449 0)
(-0.00108381 -0.000266117 0)
(-0.00093862 -0.00024984 0)
(-0.000802467 -0.000232646 0)
(-0.000675815 -0.000214572 0)
(-0.000559099 -0.000195671 0)
(-0.000452713 -0.000176008 0)
(-0.000357006 -0.000155672 0)
(-0.000272264 -0.000134781 0)
(-0.000198693 -0.000113492 0)
(-0.000136397 -9.20116e-05 0)
(-8.53519e-05 -7.06201e-05 0)
(-4.53677e-05 -4.96923e-05 0)
(-1.60446e-05 -2.97344e-05 0)
(3.28244e-06 -1.14286e-05 0)
(1.36105e-05 4.30866e-06 0)
(1.63235e-05 1.62586e-05 0)
(1.3264e-05 2.28414e-05 0)
(7.13027e-06 2.20839e-05 0)
(1.85357e-06 1.15694e-05 0)
(6.39388e-07 -1.02781e-05 0)
(2.17044e-08 -1.27646e-05 0)
(-5.94652e-06 -1.95805e-06 0)
(-1.97554e-05 1.77067e-05 0)
(-4.33057e-05 4.31933e-05 0)
(-7.78982e-05 7.22806e-05 0)
(-0.000124364 0.000103325 0)
(-0.000183144 0.000135141 0)
(-0.000254375 0.000166876 0)
(-0.00033796 0.000197925 0)
(-0.000433624 0.000227874 0)
(-0.000540953 0.000256441 0)
(-0.000659437 0.000283445 0)
(-0.000788496 0.000308777 0)
(-0.000927511 0.000332384 0)
(-0.00107583 0.00035425 0)
(-0.00123281 0.000374392 0)
(-0.00139778 0.000392845 0)
(-0.00157009 0.000409659 0)
(-0.00174912 0.000424895 0)
(-0.00193424 0.00043862 0)
(-0.00212485 0.000450908 0)
(-0.0023204 0.000461832 0)
(-0.00252034 0.000471468 0)
(-0.00272416 0.000479888 0)
(-0.00293135 0.000487169 0)
(-0.00314148 0.000493379 0)
(-0.00335409 0.000498589 0)
(-0.00356878 0.000502863 0)
(-0.00378516 0.000506264 0)
(-0.00400288 0.000508851 0)
(-0.0042216 0.00051068 0)
(-0.004441 0.000511801 0)
(-0.00466079 0.000512261 0)
(-0.00488068 0.000512106 0)
(-0.00510042 0.000511376 0)
(-0.00531976 0.000510108 0)
(-0.00553847 0.000508335 0)
(-0.00575634 0.000506086 0)
(-0.00597316 0.000503389 0)
(-0.00618874 0.000500266 0)
(-0.00640289 0.000496739 0)
(-0.00661543 0.000492825 0)
(-0.00682621 0.000488539 0)
(-0.00703504 0.000483893 0)
(-0.00724178 0.000478898 0)
(-0.00744628 0.000473563 0)
(-0.00764837 0.000467892 0)
(-0.00784791 0.00046189 0)
(-0.00804477 0.00045556 0)
(-0.00823879 0.000448904 0)
(-0.00842982 0.00044192 0)
(-0.00861773 0.000434607 0)
(-0.00880237 0.000426964 0)
(-0.00898359 0.000418987 0)
(-0.00916126 0.00041067 0)
(-0.00933521 0.00040201 0)
(-0.00950531 0.000393002 0)
(-0.00967139 0.000383641 0)
(-0.00983332 0.00037392 0)
(-0.00999092 0.000363833 0)
(-0.0101441 0.000353374 0)
(-0.0102925 0.000342537 0)
(-0.0104362 0.000331318 0)
(-0.010575 0.000319709 0)
(-0.0107086 0.000307707 0)
(-0.0108369 0.000295307 0)
(-0.0109598 0.000282505 0)
(-0.011077 0.000269297 0)
(-0.0111884 0.000255681 0)
(-0.0112939 0.000241654 0)
(-0.0113932 0.000227218 0)
(-0.0114862 0.00021237 0)
(-0.0115727 0.000197113 0)
(-0.0116526 0.000181448 0)
(-0.0117256 0.000165379 0)
(-0.0117917 0.00014891 0)
(-0.0118506 0.000132048 0)
(-0.0119022 0.000114799 0)
(-0.0119463 9.71722e-05 0)
(-0.0119828 7.91779e-05 0)
(-0.0120115 6.08274e-05 0)
(-0.0120323 4.21341e-05 0)
(-0.012045 2.31125e-05 0)
(-0.0120496 3.77941e-06 0)
(-0.0120458 -1.58473e-05 0)
(-0.0120336 -3.57475e-05 0)
(-0.0120129 -5.58997e-05 0)
(-0.0119836 -7.62802e-05 0)
(-0.0119456 -9.6864e-05 0)
(-0.0118988 -0.000117624 0)
(-0.0118431 -0.000138532 0)
(-0.0117785 -0.000159557 0)
(-0.011705 -0.000180666 0)
(-0.0116225 -0.000201826 0)
(-0.0115311 -0.000223001 0)
(-0.0114307 -0.000244153 0)
(-0.0113214 -0.000265243 0)
(-0.0112031 -0.000286231 0)
(-0.011076 -0.000307074 0)
(-0.0109402 -0.00032773 0)
(-0.0107956 -0.000348153 0)
(-0.0106425 -0.000368297 0)
(-0.010481 -0.000388114 0)
(-0.0103112 -0.000407558 0)
(-0.0101332 -0.000426577 0)
(-0.00994738 -0.000445123 0)
(-0.00975381 -0.000463145 0)
(-0.00955276 -0.000480592 0)
(-0.00934449 -0.000497412 0)
(-0.00912928 -0.000513553 0)
(-0.00890742 -0.000528964 0)
(-0.00867923 -0.000543592 0)
(-0.00844505 -0.000557387 0)
(-0.00820525 -0.000570298 0)
(-0.0079602 -0.000582273 0)
(-0.00771032 -0.000593263 0)
(-0.00745602 -0.000603219 0)
(-0.00719775 -0.000612094 0)
(-0.00693597 -0.00061984 0)
(-0.00667117 -0.000626413 0)
(-0.00640384 -0.000631768 0)
(-0.00613451 -0.000635863 0)
(-0.00586372 -0.000638657 0)
(-0.00559201 -0.000640113 0)
(-0.00531995 -0.000640194 0)
(-0.00504812 -0.000638865 0)
(-0.00477712 -0.000636095 0)
(-0.00450756 -0.000631854 0)
(-0.00424006 -0.000626116 0)
(-0.00397525 -0.000618855 0)
(-0.00371376 -0.000610051 0)
(-0.00345623 -0.000599685 0)
(-0.00320333 -0.000587742 0)
(-0.00295571 -0.000574211 0)
(-0.00271402 -0.000559084 0)
(-0.00247892 -0.000542357 0)
(-0.00225107 -0.000524031 0)
(-0.00203113 -0.000504112 0)
(-0.00181973 -0.000482614 0)
(-0.00161751 -0.000459556 0)
(-0.0014251 -0.000434966 0)
(-0.00124309 -0.000408884 0)
(-0.00107206 -0.000381362 0)
(-0.00091256 -0.00035247 0)
(-0.000765095 -0.000322297 0)
(-0.00063012 -0.00029096 0)
(-0.000508029 -0.000258612 0)
(-0.000399138 -0.000225449 0)
(-0.000303667 -0.000191731 0)
(-0.000221712 -0.000157791 0)
(-0.000153221 -0.00012407 0)
(-9.79544e-05 -9.1144e-05 0)
(-5.54467e-05 -5.97674e-05 0)
(-2.4953e-05 -3.09292e-05 0)
(-5.39275e-06 -5.91874e-06 0)
(4.69985e-06 1.35952e-05 0)
(7.24254e-06 2.54947e-05 0)
(4.91987e-06 2.71433e-05 0)
(1.47124e-06 1.51241e-05 0)
(-1.9561e-08 -9.68841e-06 0)
(-3.78797e-06 -7.13337e-06 0)
(-1.604e-05 1.145e-05 0)
(-3.84899e-05 4.0978e-05 0)
(-7.26923e-05 7.78414e-05 0)
(-0.000119838 0.000119325 0)
(-0.000180678 0.000163387 0)
(-0.000255606 0.000208507 0)
(-0.000344736 0.000253561 0)
(-0.000447942 0.000297734 0)
(-0.000564918 0.000340446 0)
(-0.000695221 0.000381297 0)
(-0.000838296 0.000420014 0)
(-0.000993513 0.000456431 0)
(-0.00116019 0.000490454 0)
(-0.00133762 0.000522045 0)
(-0.00152506 0.000551213 0)
(-0.00172179 0.000577995 0)
(-0.00192706 0.00060245 0)
(-0.00214016 0.000624656 0)
(-0.0023604 0.000644702 0)
(-0.00258708 0.000662684 0)
(-0.00281957 0.000678701 0)
(-0.00305723 0.000692856 0)
(-0.00329947 0.000705253 0)
(-0.00354572 0.000715993 0)
(-0.00379543 0.000725176 0)
(-0.00404812 0.000732897 0)
(-0.00430328 0.00073925 0)
(-0.00456048 0.000744323 0)
(-0.00481928 0.000748201 0)
(-0.00507928 0.00075096 0)
(-0.00534012 0.000752676 0)
(-0.00560143 0.000753417 0)
(-0.00586289 0.000753246 0)
(-0.00612419 0.000752222 0)
(-0.00638502 0.000750398 0)
(-0.00664512 0.000747822 0)
(-0.00690422 0.000744538 0)
(-0.00716208 0.000740585 0)
(-0.00741846 0.000735998 0)
(-0.00767313 0.000730806 0)
(-0.0079259 0.000725036 0)
(-0.00817654 0.000718709 0)
(-0.00842487 0.000711845 0)
(-0.00867068 0.00070446 0)
(-0.00891381 0.000696565 0)
(-0.00915405 0.000688171 0)
(-0.00939124 0.000679283 0)
(-0.0096252 0.000669906 0)
(-0.00985575 0.000660043 0)
(-0.0100827 0.000649693 0)
(-0.0103059 0.000638856 0)
(-0.0105252 0.000627529 0)
(-0.0107404 0.000615707 0)
(-0.0109513 0.000603384 0)
(-0.0111578 0.000590555 0)
(-0.0113596 0.000577212 0)
(-0.0115566 0.000563349 0)
(-0.0117486 0.000548957 0)
(-0.0119355 0.000534028 0)
(-0.012117 0.000518554 0)
(-0.0122929 0.000502527 0)
(-0.0124631 0.000485939 0)
(-0.0126273 0.000468782 0)
(-0.0127854 0.00045105 0)
(-0.0129372 0.000432738 0)
(-0.0130825 0.000413839 0)
(-0.013221 0.000394348 0)
(-0.0133526 0.000374263 0)
(-0.0134771 0.000353582 0)
(-0.0135943 0.000332304 0)
(-0.0137039 0.000310428 0)
(-0.0138058 0.000287958 0)
(-0.0138998 0.000264896 0)
(-0.0139857 0.000241248 0)
(-0.0140632 0.000217021 0)
(-0.0141323 0.000192223 0)
(-0.0141926 0.000166867 0)
(-0.0142441 0.000140964 0)
(-0.0142865 0.000114529 0)
(-0.0143197 8.75806e-05 0)
(-0.0143435 6.01375e-05 0)
(-0.0143577 3.22216e-05 0)
(-0.0143623 3.85718e-06 0)
(-0.014357 -2.49291e-05 0)
(-0.0143417 -5.41079e-05 0)
(-0.0143164 -8.36475e-05 0)
(-0.0142808 -0.000113514 0)
(-0.0142349 -0.000143669 0)
(-0.0141787 -0.000174075 0)
(-0.0141119 -0.00020469 0)
(-0.0140347 -0.000235468 0)
(-0.0139469 -0.000266362 0)
(-0.0138486 -0.000297323 0)
(-0.0137396 -0.000328299 0)
(-0.0136201 -0.000359235 0)
(-0.01349 -0.000390075 0)
(-0.0133494 -0.000420759 0)
(-0.0131984 -0.000451225 0)
(-0.013037 -0.000481412 0)
(-0.0128655 -0.000511253 0)
(-0.0126838 -0.000540682 0)
(-0.0124922 -0.00056963 0)
(-0.0122908 -0.000598027 0)
(-0.0120799 -0.000625802 0)
(-0.0118597 -0.000652881 0)
(-0.0116304 -0.000679193 0)
(-0.0113922 -0.000704661 0)
(-0.0111456 -0.000729213 0)
(-0.0108909 -0.000752772 0)
(-0.0106283 -0.000775264 0)
(-0.0103582 -0.000796613 0)
(-0.0100811 -0.000816745 0)
(-0.00979745 -0.000835586 0)
(-0.00950759 -0.000853063 0)
(-0.00921204 -0.000869103 0)
(-0.0089113 -0.000883635 0)
(-0.00860589 -0.000896591 0)
(-0.00829635 -0.000907902 0)
(-0.00798325 -0.000917503 0)
(-0.00766718 -0.00092533 0)
(-0.00734876 -0.000931323 0)
(-0.00702859 -0.000935422 0)
(-0.00670734 -0.000937573 0)
(-0.00638567 -0.000937722 0)
(-0.00606425 -0.000935821 0)
(-0.0057438 -0.000931823 0)
(-0.005425 -0.000925686 0)
(-0.0051086 -0.000917373 0)
(-0.00479532 -0.000906848 0)
(-0.00448591 -0.000894083 0)
(-0.00418113 -0.000879051 0)
(-0.00388172 -0.000861733 0)
(-0.00358845 -0.000842113 0)
(-0.00330208 -0.000820184 0)
(-0.00302338 -0.000795942 0)
(-0.00275311 -0.000769393 0)
(-0.00249202 -0.00074055 0)
(-0.00224085 -0.000709436 0)
(-0.00200033 -0.000676085 0)
(-0.00177117 -0.000640546 0)
(-0.00155405 -0.000602882 0)
(-0.00134963 -0.000563178 0)
(-0.00115851 -0.000521543 0)
(-0.000981273 -0.000478117 0)
(-0.000818408 -0.000433079 0)
(-0.000670349 -0.000386659 0)
(-0.000537436 -0.000339148 0)
(-0.000419896 -0.000290922 0)
(-0.000317824 -0.000242461 0)
(-0.000231148 -0.000194379 0)
(-0.000159606 -0.000147466 0)
(-0.000102699 -0.000102733 0)
(-5.96519e-05 -6.14746e-05 0)
(-2.93685e-05 -2.5342e-05 0)
(-1.03813e-05 3.56971e-06 0)
(-7.9323e-07 2.26399e-05 0)
(1.90051e-06 2.86222e-05 0)
(9.41903e-07 1.72551e-05 0)
(-7.16224e-07 -7.00045e-06 0)
(-7.88161e-06 3.75299e-06 0)
(-2.69487e-05 3.27147e-05 0)
(-5.87375e-05 7.43295e-05 0)
(-0.000104365 0.000124554 0)
(-0.000164823 0.000180275 0)
(-0.000240727 0.000239098 0)
(-0.000332375 0.000299197 0)
(-0.00043981 0.000359205 0)
(-0.000562859 0.000418103 0)
(-0.000701174 0.000475146 0)
(-0.000854269 0.000529807 0)
(-0.00102155 0.000581722 0)
(-0.00120234 0.000630656 0)
(-0.0013959 0.000676469 0)
(-0.00160147 0.000719097 0)
(-0.00181826 0.000758534 0)
(-0.00204546 0.000794815 0)
(-0.00228228 0.000828007 0)
(-0.00252793 0.000858203 0)
(-0.00278163 0.000885511 0)
(-0.00304263 0.00091005 0)
(-0.00331022 0.000931945 0)
(-0.00358369 0.00095133 0)
(-0.00386238 0.000968337 0)
(-0.00414564 0.000983098 0)
(-0.00443287 0.000995743 0)
(-0.0047235 0.0010064 0)
(-0.00501698 0.00101519 0)
(-0.00531281 0.00102222 0)
(-0.00561048 0.00102762 0)
(-0.00590955 0.00103148 0)
(-0.00620959 0.00103391 0)
(-0.00651019 0.00103499 0)
(-0.00681097 0.00103482 0)
(-0.00711156 0.00103346 0)
(-0.00741164 0.001031 0)
(-0.00771088 0.00102749 0)
(-0.00800897 0.00102301 0)
(-0.00830563 0.00101759 0)
(-0.00860059 0.00101129 0)
(-0.00889359 0.00100414 0)
(-0.00918437 0.000996194 0)
(-0.0094727 0.000987471 0)
(-0.00975835 0.000977999 0)
(-0.0100411 0.0009678 0)
(-0.0103207 0.000956892 0)
(-0.010597 0.000945289 0)
(-0.0108697 0.000932999 0)
(-0.0111387 0.000920031 0)
(-0.0114037 0.000906387 0)
(-0.0116646 0.000892069 0)
(-0.0119211 0.000877076 0)
(-0.012173 0.000861405 0)
(-0.0124202 0.00084505 0)
(-0.0126624 0.000828005 0)
(-0.0128994 0.000810262 0)
(-0.0131311 0.000791813 0)
(-0.0133572 0.000772648 0)
(-0.0135775 0.000752757 0)
(-0.0137918 0.000732129 0)
(-0.0139999 0.000710755 0)
(-0.0142015 0.000688623 0)
(-0.0143965 0.000665725 0)
(-0.0145847 0.00064205 0)
(-0.0147657 0.00061759 0)
(-0.0149394 0.000592338 0)
(-0.0151056 0.000566286 0)
(-0.015264 0.000539429 0)
(-0.0154144 0.000511763 0)
(-0.0155566 0.000483286 0)
(-0.0156904 0.000453997 0)
(-0.0158154 0.000423898 0)
(-0.0159316 0.000392991 0)
(-0.0160386 0.000361281 0)
(-0.0161363 0.000328777 0)