/*--------------------------------*- C++ -*----------------------------------*\
  =========                 |
  \\      /  F ield         | OpenFOAM: The Open Source CFD Toolbox
   \\    /   O peration     | Website:  https://openfoam.org
    \\  /    A nd           | Version:  7
     \\/     M anipulation  |
\*---------------------------------------------------------------------------*/
FoamFile
{
    version     2.0;
    format      ascii;
    class       surfaceScalarField;
    location    "0.375";
    object      phi;
}
// * * * * * * * * * * * * * * * * * * * * * * * * * * * * * * * * * * * * * //

dimensions      [0 3 -1 0 0 0 0];

internalField   nonuniform List<scalar> 
50880
(
7.76026e-12
-7.76161e-12
3.42261e-11
-2.6466e-11
7.12273e-11
-3.70006e-11
1.08532e-10
-3.73073e-11
1.40119e-10
-3.1585e-11
1.62031e-10
-2.19083e-11
1.71792e-10
-9.76001e-12
1.67931e-10
3.86381e-12
1.4965e-10
1.82811e-11
1.16613e-10
3.3036e-11
6.87981e-11
4.78152e-11
6.39713e-12
6.23976e-11
-7.02325e-11
7.66344e-11
-1.60637e-10
9.04048e-11
-2.64273e-10
1.03639e-10
-3.80558e-10
1.16285e-10
-5.08868e-10
1.28306e-10
-6.48556e-10
1.3969e-10
-7.98975e-10
1.50419e-10
-9.59466e-10
1.60492e-10
-1.12938e-09
1.69916e-10
-1.30808e-09
1.78697e-10
-1.49493e-09
1.86853e-10
-1.68933e-09
1.94396e-10
-1.89067e-09
2.0134e-10
-2.09838e-09
2.07708e-10
-2.3119e-09
2.13515e-10
-2.53068e-09
2.1878e-10
-2.75421e-09
2.23526e-10
-2.98198e-09
2.27771e-10
-3.21351e-09
2.31532e-10
-3.44833e-09
2.34828e-10
-3.68601e-09
2.37679e-10
-3.9261e-09
2.40097e-10
-4.1682e-09
2.421e-10
-4.41191e-09
2.43706e-10
-4.65683e-09
2.44928e-10
-4.90262e-09
2.45779e-10
-5.14889e-09
2.46272e-10
-5.3953e-09
2.46418e-10
-5.64153e-09
2.46225e-10
-5.88723e-09
2.45702e-10
-6.13209e-09
2.44859e-10
-6.3758e-09
2.43704e-10
-6.61804e-09
2.42241e-10
-6.85851e-09
2.40476e-10
-7.09692e-09
2.38414e-10
-7.33298e-09
2.36059e-10
-7.5664e-09
2.33414e-10
-7.79688e-09
2.30481e-10
-8.02415e-09
2.27265e-10
-8.24791e-09
2.23765e-10
-8.4679e-09
2.19982e-10
-8.68381e-09
2.15916e-10
-8.89538e-09
2.11568e-10
-9.10231e-09
2.06937e-10
-9.30434e-09
2.02022e-10
-9.50116e-09
1.96825e-10
-9.69251e-09
1.91348e-10
-9.87811e-09
1.8559e-10
-1.00577e-08
1.79549e-10
-1.02309e-08
1.73226e-10
-1.03975e-08
1.66624e-10
-1.05572e-08
1.59741e-10
-1.07098e-08
1.52578e-10
-1.0855e-08
1.45136e-10
-1.09924e-08
1.37418e-10
-1.11218e-08
1.29431e-10
-1.1243e-08
1.21176e-10
-1.13556e-08
1.12658e-10
-1.14595e-08
1.03884e-10
-1.15544e-08
9.48584e-11
-1.164e-08
8.55859e-11
-1.1716e-08
7.60754e-11
-1.17824e-08
6.63361e-11
-1.18388e-08
5.63805e-11
-1.1885e-08
4.62197e-11
-1.19209e-08
3.58632e-11
-1.19462e-08
2.53247e-11
-1.19608e-08
1.46181e-11
-1.19646e-08
3.75819e-12
-1.19573e-08
-7.23608e-12
-1.1939e-08
-1.83477e-11
-1.19094e-08
-2.95602e-11
-1.18686e-08
-4.08528e-11
-1.18164e-08
-5.22044e-11
-1.17528e-08
-6.35937e-11
-1.16778e-08
-7.49965e-11
-1.15914e-08
-8.63904e-11
-1.14936e-08
-9.77531e-11
-1.13846e-08
-1.09057e-10
-1.12643e-08
-1.20273e-10
-1.11329e-08
-1.31378e-10
-1.09906e-08
-1.42345e-10
-1.08374e-08
-1.53146e-10
-1.06737e-08
-1.63753e-10
-1.04995e-08
-1.74135e-10
-1.03153e-08
-1.84263e-10
-1.01212e-08
-1.94108e-10
-9.91752e-09
-2.03645e-10
-9.70467e-09
-2.12843e-10
-9.483e-09
-2.21674e-10
-9.25289e-09
-2.30109e-10
-9.01477e-09
-2.38119e-10
-8.76909e-09
-2.45678e-10
-8.51633e-09
-2.52759e-10
-8.257e-09
-2.59339e-10
-7.9916e-09
-2.65392e-10
-7.72071e-09
-2.70895e-10
-7.44488e-09
-2.75826e-10
-7.16472e-09
-2.80163e-10
-6.88083e-09
-2.83885e-10
-6.59386e-09
-2.86976e-10
-6.30444e-09
-2.89421e-10
-6.01323e-09
-2.91205e-10
-5.72092e-09
-2.92316e-10
-5.42817e-09
-2.92744e-10
-5.13569e-09
-2.92479e-10
-4.84418e-09
-2.91512e-10
-4.55434e-09
-2.89841e-10
-4.26687e-09
-2.87466e-10
-3.98249e-09
-2.84386e-10
-3.70189e-09
-2.80601e-10
-3.42577e-09
-2.76118e-10
-3.15483e-09
-2.70944e-10
-2.88974e-09
-2.65088e-10
-2.63118e-09
-2.58558e-10
-2.37981e-09
-2.5137e-10
-2.13627e-09
-2.43543e-10
-1.90118e-09
-2.35093e-10
-1.67514e-09
-2.26042e-10
-1.45873e-09
-2.16411e-10
-1.2525e-09
-2.06228e-10
-1.05698e-09
-1.95521e-10
-8.72659e-10
-1.84319e-10
-7.00003e-10
-1.72655e-10
-5.39435e-10
-1.60567e-10
-3.9134e-10
-1.48095e-10
-2.56061e-10
-1.3528e-10
-1.33891e-10
-1.22169e-10
-2.50779e-11
-1.08812e-10
7.01872e-11
-9.52656e-11
1.51776e-10
-8.15913e-11
2.19632e-10
-6.78563e-11
2.73772e-10
-5.41386e-11
3.14301e-10
-4.05283e-11
3.41429e-10
-2.71283e-11
3.55488e-10
-1.40587e-11
3.56951e-10
-1.46361e-12
3.46471e-10
1.0481e-11
3.24914e-10
2.15568e-11
2.93423e-10
3.14903e-11
2.53496e-10
3.99282e-11
2.07092e-10
4.64046e-11
1.56792e-10
5.03005e-11
1.05992e-10
5.07993e-11
5.91231e-11
4.68683e-11
2.18699e-11
3.72538e-11
1.04274e-12
2.08285e-11
1.0429e-12
2.84307e-11
-3.61936e-11
8.69286e-11
-8.49636e-11
1.5754e-10
-1.07608e-10
2.25129e-10
-1.04901e-10
2.77074e-10
-8.35323e-11
3.04285e-10
-4.9126e-11
3.00448e-10
-5.92544e-12
2.6138e-10
4.29277e-11
1.84503e-10
9.51587e-11
6.84287e-11
1.49115e-10
-8.73534e-11
2.03594e-10
-2.82691e-10
2.57737e-10
-5.16962e-10
3.10897e-10
-7.89171e-10
3.62614e-10
-1.09807e-09
4.12547e-10
-1.44224e-09
4.60451e-10
-1.8201e-09
5.06169e-10
-2.23e-09
5.49587e-10
-2.67022e-09
5.90642e-10
-3.13903e-09
6.29303e-10
-3.63468e-09
6.65563e-10
-4.15542e-09
6.99442e-10
-4.69953e-09
7.30969e-10
-5.26532e-09
7.60185e-10
-5.85112e-09
7.87145e-10
-6.45531e-09
8.11906e-10
-7.07633e-09
8.34529e-10
-7.71263e-09
8.55082e-10
-8.36274e-09
8.73636e-10
-9.02523e-09
8.90253e-10
-9.6987e-09
9.05004e-10
-1.03818e-08
9.17956e-10
-1.10733e-08
9.29169e-10
-1.17719e-08
9.38706e-10
-1.24765e-08
9.46628e-10
-1.31858e-08
9.5299e-10
-1.38987e-08
9.5784e-10
-1.46141e-08
9.61232e-10
-1.53311e-08
9.63212e-10
-1.60485e-08
9.63819e-10
-1.67653e-08
9.63091e-10
-1.74807e-08
9.61067e-10
-1.81936e-08
9.57773e-10
-1.89031e-08
9.53236e-10
-1.96084e-08
9.47485e-10
-2.03084e-08
9.40541e-10
-2.10025e-08
9.3242e-10
-2.16895e-08
9.23138e-10
-2.23688e-08
9.1271e-10
-2.30395e-08
9.01145e-10
-2.37007e-08
8.8845e-10
-2.43515e-08
8.74631e-10
-2.49913e-08
8.597e-10
-2.5619e-08
8.43658e-10
-2.6234e-08
8.26504e-10
-2.68353e-08
8.08239e-10
-2.74221e-08
7.88868e-10
-2.79937e-08
7.68391e-10
-2.85491e-08
7.46808e-10
-2.90877e-08
7.24119e-10
-2.96084e-08
7.00329e-10
-3.01106e-08
6.7544e-10
-3.05935e-08
6.49456e-10
-3.10561e-08
6.22383e-10
-3.14978e-08
5.94228e-10
-3.19176e-08
5.65e-10
-3.23149e-08
5.34707e-10
-3.26889e-08
5.03361e-10
-3.30387e-08
4.7098e-10
-3.33636e-08
4.37585e-10
-3.36629e-08
4.03199e-10
-3.39359e-08
3.67847e-10
-3.41819e-08
3.31555e-10
-3.44001e-08
2.94356e-10
-3.45901e-08
2.56285e-10
-3.47511e-08
2.1738e-10
-3.48826e-08
1.7769e-10
-3.4984e-08
1.3726e-10
-3.50548e-08
9.614e-11
-3.50946e-08
5.43877e-11
-3.51029e-08
1.2063e-11
-3.50793e-08
-3.077e-11
-3.50236e-08
-7.40415e-11
-3.49355e-08
-1.17681e-10
-3.48147e-08
-1.61615e-10
-3.46612e-08
-2.05758e-10
-3.44748e-08
-2.50025e-10
-3.42554e-08
-2.94332e-10
-3.40032e-08
-3.38586e-10
-3.37183e-08
-3.82693e-10
-3.34008e-08
-4.26556e-10
-3.3051e-08
-4.70072e-10
-3.26692e-08
-5.13138e-10
-3.22559e-08
-5.55652e-10
-3.18116e-08
-5.97507e-10
-3.13367e-08
-6.38592e-10
-3.08321e-08
-6.78798e-10
-3.02983e-08
-7.18015e-10
-2.97363e-08
-7.56131e-10
-2.91469e-08
-7.93037e-10
-2.85311e-08
-8.28623e-10
-2.789e-08
-8.62781e-10
-2.72247e-08
-8.95401e-10
-2.65365e-08
-9.26378e-10
-2.58265e-08
-9.5561e-10
-2.50963e-08
-9.82994e-10
-2.43472e-08
-1.00844e-09
-2.35807e-08
-1.03184e-09
-2.27985e-08
-1.05312e-09
-2.20022e-08
-1.07219e-09
-2.11933e-08
-1.08897e-09
-2.03738e-08
-1.10339e-09
-1.95454e-08
-1.11538e-09
-1.871e-08
-1.12488e-09
-1.78694e-08
-1.13183e-09
-1.70255e-08
-1.13619e-09
-1.61803e-08
-1.13791e-09
-1.53358e-08
-1.13697e-09
-1.4494e-08
-1.13335e-09
-1.36568e-08
-1.12701e-09
-1.28263e-08
-1.11797e-09
-1.20045e-08
-1.10621e-09
-1.11933e-08
-1.09175e-09
-1.03948e-08
-1.07461e-09
-9.61097e-09
-1.05482e-09
-8.84366e-09
-1.0324e-09
-8.0948e-09
-1.00741e-09
-7.36627e-09
-9.79908e-10
-6.65987e-09
-9.49946e-10
-5.97736e-09
-9.17601e-10
-5.32044e-09
-8.82959e-10
-4.69074e-09
-8.46111e-10
-4.08981e-09
-8.07156e-10
-3.51913e-09
-7.66205e-10
-2.98006e-09
-7.23382e-10
-2.4739e-09
-6.78819e-10
-2.00181e-09
-6.32659e-10
-1.56484e-09
-5.85057e-10
-1.16394e-09
-5.36185e-10
-7.99878e-10
-4.86229e-10
-4.73301e-10
-4.3539e-10
-1.84677e-10
-3.83891e-10
6.5711e-11
-3.31979e-10
2.77784e-10
-2.79929e-10
4.51696e-10
-2.28052e-10
5.87866e-10
-1.767e-10
6.87015e-10
-1.26277e-10
7.50216e-10
-7.72594e-11
7.78958e-10
-3.02057e-11
7.75221e-10
1.42177e-11
7.41574e-10
5.52031e-11
6.81307e-10
9.17578e-11
5.98583e-10
1.22652e-10
4.98634e-10
1.46352e-10
3.87984e-10
1.60951e-10
2.74652e-10
1.64132e-10
1.68267e-10
1.53255e-10
7.98601e-11
1.25663e-10
2.07855e-11
7.99029e-11
2.18284e-11
3.67826e-11
-7.29756e-11
1.08043e-10
-1.56225e-10
1.8764e-10
-1.87201e-10
2.56379e-10
-1.73637e-10
2.98599e-10
-1.2575e-10
3.02279e-10
-5.28013e-11
2.58608e-10
3.77441e-11
1.61421e-10
1.40112e-10
6.66905e-12
2.4991e-10
-2.08038e-10
3.63817e-10
-4.83781e-10
4.79344e-10
-8.20655e-10
5.94611e-10
-1.21798e-09
7.0822e-10
-1.67448e-09
8.19118e-10
-2.18846e-09
9.26524e-10
-2.75788e-09
1.02987e-09
-3.38046e-09
1.12875e-09
-4.05375e-09
1.22288e-09
-4.77518e-09
1.31208e-09
-5.54212e-09
1.39624e-09
-6.35189e-09
1.47533e-09
-7.20181e-09
1.54935e-09
-8.08919e-09
1.61835e-09
-9.0114e-09
1.68239e-09
-9.96582e-09
1.74157e-09
-1.09499e-08
1.796e-09
-1.19612e-08
1.8458e-09
-1.29972e-08
1.8911e-09
-1.40556e-08
1.93204e-09
-1.51341e-08
1.96875e-09
-1.62305e-08
2.00138e-09
-1.73426e-08
2.03005e-09
-1.84683e-08
2.0549e-09
-1.96057e-08
2.07606e-09
-2.07527e-08
2.09365e-09
-2.19075e-08
2.10779e-09
-2.30682e-08
2.11859e-09
-2.42332e-08
2.12616e-09
-2.54006e-08
2.13059e-09
-2.65687e-08
2.13197e-09
-2.7736e-08
2.13038e-09
-2.89008e-08
2.1259e-09
-3.00617e-08
2.1186e-09
-3.12169e-08
2.10853e-09
-3.23652e-08
2.09574e-09
-3.3505e-08
2.0803e-09
-3.46348e-08
2.06223e-09
-3.57532e-08
2.04157e-09
-3.68589e-08
2.01836e-09
-3.79503e-08
1.99261e-09
-3.90262e-08
1.96435e-09
-4.00852e-08
1.93359e-09
-4.11258e-08
1.90035e-09
-4.21468e-08
1.86463e-09
-4.31467e-08
1.82644e-09
-4.41243e-08
1.7858e-09
-4.50781e-08
1.7427e-09
-4.60069e-08
1.69714e-09
-4.69092e-08
1.64914e-09
-4.77838e-08
1.5987e-09
-4.86293e-08
1.54583e-09
-4.94444e-08
1.49053e-09
-5.02277e-08
1.43281e-09
-5.09781e-08
1.37269e-09
-5.1694e-08
1.3102e-09
-5.23744e-08
1.24534e-09
-5.30178e-08
1.17815e-09
-5.36231e-08
1.10865e-09
-5.4189e-08
1.03689e-09
-5.47143e-08
9.62916e-10
-5.51979e-08
8.86765e-10
-5.56386e-08
8.08504e-10
-5.60352e-08
7.28197e-10
-5.63868e-08
6.45914e-10
-5.66922e-08
5.61738e-10
-5.69506e-08
4.75756e-10
-5.7161e-08
3.88066e-10
-5.73225e-08
2.98776e-10
-5.74344e-08
2.07999e-10
-5.74958e-08
1.15858e-10
-5.75063e-08
2.24887e-11
-5.74651e-08
-7.19677e-11
-5.73717e-08
-1.67361e-10
-5.72259e-08
-2.63531e-10
-5.70272e-08
-3.60311e-10
-5.67754e-08
-4.57524e-10
-5.64705e-08
-5.54982e-10
-5.61123e-08
-6.52495e-10
-5.5701e-08
-7.49864e-10
-5.52368e-08
-8.46879e-10
-5.47201e-08
-9.43328e-10
-5.41511e-08
-1.03899e-09
-5.35306e-08
-1.13365e-09
-5.28592e-08
-1.22706e-09
-5.21377e-08
-1.319e-09
-5.13671e-08
-1.40923e-09
-5.05484e-08
-1.49752e-09
-4.96828e-08
-1.58361e-09
-4.87716e-08
-1.66728e-09
-4.78164e-08
-1.74827e-09
-4.68187e-08
-1.82636e-09
-4.57801e-08
-1.90131e-09
-4.47027e-08
-1.97287e-09
-4.35882e-08
-2.04083e-09
-4.24389e-08
-2.10495e-09
-4.12568e-08
-2.16503e-09
-4.00444e-08
-2.22084e-09
-3.88041e-08
-2.27219e-09
-3.75383e-08
-2.31889e-09
-3.62498e-08
-2.36075e-09
-3.49411e-08
-2.3976e-09
-3.36152e-08
-2.42928e-09
-3.2275e-08
-2.45565e-09
-3.09233e-08
-2.47658e-09
-2.95632e-08
-2.49194e-09
-2.81977e-08
-2.50163e-09
-2.68301e-08
-2.50558e-09
-2.54633e-08
-2.50371e-09
-2.41007e-08
-2.49596e-09
-2.27454e-08
-2.48232e-09
-2.14006e-08
-2.46275e-09
-2.00696e-08
-2.43728e-09
-1.87554e-08
-2.4059e-09
-1.74613e-08
-2.36868e-09
-1.61905e-08
-2.32567e-09
-1.49459e-08
-2.27696e-09
-1.37307e-08
-2.22264e-09
-1.25478e-08
-2.16283e-09
-1.14e-08
-2.09768e-09
-1.02903e-08
-2.02736e-09
-9.22121e-09
-1.95204e-09
-8.19539e-09
-1.87193e-09
-7.2153e-09
-1.78725e-09
-6.28325e-09
-1.69825e-09
-5.40142e-09
-1.60521e-09
-4.57182e-09
-1.50842e-09
-3.79628e-09
-1.4082e-09
-3.07644e-09
-1.3049e-09
-2.41373e-09
-1.19889e-09
-1.80935e-09
-1.09061e-09
-1.26426e-09
-9.80483e-10
-7.79126e-10
-8.69026e-10
-3.5432e-10
-7.56786e-10
1.01251e-11
-6.44376e-10
3.14556e-10
-5.32482e-10
5.59742e-10
-4.21883e-10
7.46937e-10
-3.13472e-10
8.77953e-10
-2.08278e-10
9.55244e-10
-1.07498e-10
9.82012e-10
-1.25479e-11
9.6233e-10
7.48885e-11
9.01297e-10
1.52791e-10
8.05216e-10
2.18731e-10
6.81784e-10
2.69784e-10
5.40272e-10
3.02464e-10
3.91664e-10
3.12741e-10
2.48666e-10
2.96253e-10
1.25462e-10
2.48869e-10
3.7129e-11
1.68236e-10
5.89577e-11
3.71338e-11
-1.10109e-10
1.04859e-10
-2.23957e-10
1.73573e-10
-2.55912e-10
2.21348e-10
-2.21416e-10
2.30736e-10
-1.3514e-10
1.88108e-10
-1.01742e-11
8.31814e-11
1.42673e-10
-9.14907e-11
3.14788e-10
-3.41003e-10
4.99418e-10
-6.68507e-10
6.91323e-10
-1.07561e-09
8.86439e-10
-1.56265e-09
1.08166e-09
-2.129e-09
1.27457e-09
-2.77326e-09
1.46337e-09
-3.4934e-09
1.64667e-09
-4.28698e-09
1.82344e-09
-5.15116e-09
1.99293e-09
-6.08287e-09
2.1546e-09
-7.07886e-09
2.30807e-09
-8.13576e-09
2.45314e-09
-9.2501e-09
2.58968e-09
-1.04184e-08
2.71765e-09
-1.16372e-08
2.83711e-09
-1.29029e-08
2.94813e-09
-1.42122e-08
3.05086e-09
-1.55616e-08
3.14545e-09
-1.69479e-08
3.2321e-09
-1.83678e-08
3.311e-09
-1.98182e-08
3.38238e-09
-2.12959e-08
3.44645e-09
-2.27979e-08
3.50344e-09
-2.43214e-08
3.55356e-09
-2.58636e-08
3.59704e-09
-2.74216e-08
3.63409e-09
-2.89929e-08
3.66491e-09
-3.05748e-08
3.68971e-09
-3.21649e-08
3.70866e-09
-3.37606e-08
3.72194e-09
-3.53598e-08
3.72972e-09
-3.69599e-08
3.73214e-09
-3.85589e-08
3.72935e-09
-4.01545e-08
3.72147e-09
-4.17445e-08
3.70862e-09
-4.33269e-08
3.6909e-09
-4.48995e-08
3.66841e-09
-4.64605e-08
3.64123e-09
-4.80076e-08
3.60942e-09
-4.95391e-08
3.57305e-09
-5.10529e-08
3.53218e-09
-5.25472e-08
3.48685e-09
-5.40199e-08
3.43708e-09
-5.54693e-08
3.38293e-09
-5.68933e-08
3.3244e-09
-5.82902e-08
3.26153e-09
-5.96581e-08
3.19432e-09
-6.09951e-08
3.12279e-09
-6.22993e-08
3.04696e-09
-6.3569e-08
2.96682e-09
-6.48023e-08
2.88241e-09
-6.59973e-08
2.79372e-09
-6.71523e-08
2.70079e-09
-6.82654e-08
2.60361e-09
-6.93348e-08
2.50222e-09
-7.03587e-08
2.39665e-09
-7.13355e-08
2.28693e-09
-7.22632e-08
2.17309e-09
-7.31403e-08
2.05521e-09
-7.39649e-08
1.93332e-09
-7.47356e-08
1.80751e-09
-7.54505e-08
1.67785e-09
-7.61082e-08
1.54444e-09
-7.6707e-08
1.40737e-09
-7.72456e-08
1.26676e-09
-7.77224e-08
1.12275e-09
-7.81362e-08
9.75468e-10
-7.84855e-08
8.25083e-10
-7.87692e-08
6.71764e-10
-7.89861e-08
5.15696e-10
-7.91352e-08
3.57084e-10
-7.92155e-08
1.96141e-10
-7.92261e-08
3.31028e-11
-7.91663e-08
-1.31781e-10
-7.90354e-08
-2.98249e-10
-7.88329e-08
-4.66025e-10
-7.85584e-08
-6.34811e-10
-7.82116e-08
-8.04304e-10
-7.77924e-08
-9.74181e-10
-7.73008e-08
-1.14411e-09
-7.67369e-08
-1.31373e-09
-7.61011e-08
-1.48271e-09
-7.53938e-08
-1.65065e-09
-7.46156e-08
-1.81719e-09
-7.37673e-08
-1.98193e-09
-7.28499e-08
-2.14449e-09
-7.18644e-08
-2.30444e-09
-7.08123e-08
-2.4614e-09
-6.96949e-08
-2.61494e-09
-6.85138e-08
-2.76465e-09
-6.7271e-08
-2.91012e-09
-6.59683e-08
-3.05093e-09
-6.4608e-08
-3.18667e-09
-6.31924e-08
-3.31693e-09
-6.17239e-08
-3.44131e-09
-6.02054e-08
-3.55942e-09
-5.86394e-08
-3.67087e-09
-5.70292e-08
-3.77528e-09
-5.53777e-08
-3.8723e-09
-5.36883e-08
-3.96157e-09
-5.19645e-08
-4.04277e-09
-5.02096e-08
-4.11558e-09
-4.84275e-08
-4.17972e-09
-4.66219e-08
-4.23489e-09
-4.47967e-08
-4.28087e-09
-4.29559e-08
-4.31741e-09
-4.11035e-08
-4.34433e-09
-3.92437e-08
-4.36144e-09
-3.73806e-08
-4.3686e-09
-3.55187e-08
-4.36569e-09
-3.3662e-08
-4.35264e-09
-3.18149e-08
-4.32937e-09
-2.99818e-08
-4.29587e-09
-2.8167e-08
-4.25215e-09
-2.63746e-08
-4.19824e-09
-2.46091e-08
-4.13423e-09
-2.28745e-08
-4.06022e-09
-2.11751e-08
-3.97635e-09
-1.9515e-08
-3.88281e-09
-1.7898e-08
-3.77981e-09
-1.63281e-08
-3.6676e-09
-1.4809e-08
-3.54646e-09
-1.33443e-08
-3.41671e-09
-1.19375e-08
-3.27873e-09
-1.05918e-08
-3.13289e-09
-9.31046e-09
-2.97964e-09
-8.09622e-09
-2.81945e-09
-6.95179e-09
-2.65285e-09
-5.87959e-09
-2.4804e-09
-4.88177e-09
-2.30272e-09
-3.9602e-09
-2.12047e-09
-3.11643e-09
-1.93438e-09
-2.35165e-09
-1.74526e-09
-1.66671e-09
-1.55397e-09
-1.06201e-09
-1.36149e-09
-5.37499e-10
-1.16888e-09
-9.26353e-11
-9.77344e-10
2.73708e-10
-7.88227e-10
5.63295e-10
-6.0306e-10
7.78612e-10
-4.23595e-10
9.2297e-10
-2.51854e-10
1.00061e-09
-9.01904e-11
1.01686e-09
5.86432e-11
9.7824e-10
1.91407e-10
8.92682e-10
3.0429e-10
7.69647e-10
3.9282e-10
6.20291e-10
4.51821e-10
4.57565e-10
4.75466e-10
2.96276e-10
4.57543e-10
1.5308e-10
3.92066e-10
4.66964e-11
2.74621e-10
1.05654e-10
3.14929e-11
-1.416e-10
8.36887e-11
-2.76153e-10
1.25964e-10
-2.98185e-10
1.35307e-10
-2.3076e-10
9.34922e-11
-9.33281e-11
-1.38266e-11
9.71422e-11
-1.97657e-10
3.26505e-10
-4.6615e-10
5.83279e-10
-8.25011e-10
8.58285e-10
-1.27791e-09
1.14422e-09
-1.8268e-09
1.43533e-09
-2.47224e-09
1.72709e-09
-3.21365e-09
2.01598e-09
-4.04954e-09
2.29927e-09
-4.97769e-09
2.57483e-09
-5.99531e-09
2.84107e-09
-7.09917e-09
3.09679e-09
-8.2857e-09
3.34112e-09
-9.55108e-09
3.57345e-09
-1.08913e-08
3.79338e-09
-1.23023e-08
4.00067e-09
-1.37799e-08
4.19522e-09
-1.53198e-08
4.37705e-09
-1.69179e-08
4.54624e-09
-1.857e-08
4.70297e-09
-2.0272e-08
4.84744e-09
-2.20198e-08
4.97991e-09
-2.38095e-08
5.10065e-09
-2.56371e-08
5.20997e-09
-2.74988e-08
5.30818e-09
-2.93909e-08
5.39559e-09
-3.13099e-08
5.47253e-09
-3.32522e-08
5.53932e-09
-3.52144e-08
5.59626e-09
-3.71931e-08
5.64365e-09
-3.91852e-08
5.68178e-09
-4.11875e-08
5.71093e-09
-4.31969e-08
5.73135e-09
-4.52104e-08
5.74328e-09
-4.72253e-08
5.74696e-09
-4.92385e-08
5.74259e-09
-5.12474e-08
5.73035e-09
-5.32492e-08
5.71044e-09
-5.52413e-08
5.68299e-09
-5.7221e-08
5.64816e-09
-5.91859e-08
5.60606e-09
-6.11333e-08
5.55681e-09
-6.30607e-08
5.5005e-09
-6.49657e-08
5.43721e-09
-6.68459e-08
5.36702e-09
-6.86988e-08
5.28998e-09
-7.0522e-08
5.20615e-09
-7.23132e-08
5.11556e-09
-7.40699e-08
5.01825e-09
-7.57898e-08
4.91425e-09
-7.74706e-08
4.80358e-09
-7.91099e-08
4.68628e-09
-8.07055e-08
4.56235e-09
-8.22549e-08
4.43183e-09
-8.37559e-08
4.29473e-09
-8.52062e-08
4.1511e-09
-8.66036e-08
4.00096e-09
-8.79457e-08
3.84435e-09
-8.92304e-08
3.68133e-09
-9.04554e-08
3.51195e-09
-9.16186e-08
3.33628e-09
-9.27178e-08
3.15441e-09
-9.37509e-08
2.96643e-09
-9.47158e-08
2.77245e-09
-9.56106e-08
2.5726e-09
-9.64331e-08
2.36703e-09
-9.71817e-08
2.15589e-09
-9.78543e-08
1.93938e-09
-9.84492e-08
1.71769e-09
-9.89648e-08
1.49104e-09
-9.93994e-08
1.25969e-09
-9.97515e-08
1.0239e-09
-1.0002e-07
7.83948e-10
-1.00203e-07
5.4016e-10
-1.003e-07
2.92867e-10
-1.00309e-07
4.24272e-11
-1.0023e-07
-2.10778e-10
-1.00062e-07
-4.66344e-10
-9.9804e-08
-7.23845e-10
-9.9456e-08
-9.82831e-10
-9.90175e-08
-1.24283e-09
-9.84883e-08
-1.50335e-09
-9.78685e-08
-1.76389e-09
-9.71583e-08
-2.02391e-09
-9.63582e-08
-2.28286e-09
-9.54686e-08
-2.54019e-09
-9.44905e-08
-2.79531e-09
-9.34248e-08
-3.04763e-09
-9.22728e-08
-3.29654e-09
-9.10358e-08
-3.54145e-09
-8.97154e-08
-3.78171e-09
-8.83137e-08
-4.01672e-09
-8.68325e-08
-4.24584e-09
-8.52742e-08
-4.46844e-09
-8.36412e-08
-4.68388e-09
-8.19363e-08
-4.89156e-09
-8.01624e-08
-5.09084e-09
-7.83226e-08
-5.28112e-09
-7.64202e-08
-5.4618e-09
-7.44588e-08
-5.6323e-09
-7.2442e-08
-5.79206e-09
-7.03738e-08
-5.94051e-09
-6.82582e-08
-6.07714e-09
-6.60995e-08
-6.20145e-09
-6.39022e-08
-6.31296e-09
-6.16706e-08
-6.41124e-09
-5.94097e-08
-6.49586e-09
-5.71241e-08
-6.56645e-09
-5.48188e-08
-6.62267e-09
-5.2499e-08
-6.66422e-09
-5.01696e-08
-6.69084e-09
-4.78358e-08
-6.7023e-09
-4.55031e-08
-6.69844e-09
-4.31766e-08
-6.67913e-09
-4.08617e-08
-6.64427e-09
-3.85637e-08
-6.59384e-09
-3.6288e-08
-6.52786e-09
-3.40399e-08
-6.4464e-09
-3.18245e-08
-6.34956e-09
-2.96472e-08
-6.23751e-09
-2.75131e-08
-6.1105e-09
-2.54271e-08
-5.96878e-09
-2.33943e-08
-5.81269e-09
-2.14192e-08
-5.64261e-09
-1.95067e-08
-5.45899e-09
-1.76611e-08
-5.26232e-09
-1.58867e-08
-5.05315e-09
-1.41875e-08
-4.8321e-09
-1.25673e-08
-4.59985e-09
-1.10296e-08
-4.35712e-09
-9.57772e-09
-4.10473e-09
-8.21458e-09
-3.84354e-09
-6.94279e-09
-3.5745e-09
-5.7646e-09
-3.29866e-09
-4.68185e-09
-3.01713e-09
-3.69597e-09
-2.73114e-09
-2.80789e-09
-2.44205e-09
-2.01806e-09
-2.15132e-09
-1.32634e-09
-1.8606e-09
-7.3198e-10
-1.57171e-09
-2.33528e-10
-1.28668e-09
1.71229e-10
-1.00782e-09
4.85362e-10
-7.37728e-10
7.129e-10
-4.79391e-10
8.58941e-10
-2.36231e-10
9.29782e-10
-1.21987e-11
9.33056e-10
1.88133e-10
8.77873e-10
3.59474e-10
7.74954e-10
4.95738e-10
6.36769e-10
5.90005e-10
4.77658e-10
6.34578e-10
3.13989e-10
6.21213e-10
1.64439e-10
5.41615e-10
5.06974e-11
3.88364e-10
1.56352e-10
2.20314e-11
-1.63629e-10
4.97025e-11
-3.0383e-10
5.3521e-11
-3.02001e-10
1.06811e-11
-1.87919e-10
-9.69648e-11
1.43187e-11
-2.83808e-10
2.83986e-10
-5.61017e-10
6.03709e-10
-9.36964e-10
9.59229e-10
-1.41762e-09
1.33894e-09
-2.00689e-09
1.73348e-09
-2.70689e-09
2.13534e-09
-3.51831e-09
2.53851e-09
-4.44057e-09
2.93824e-09
-5.47209e-09
3.33079e-09
-6.61049e-09
3.71322e-09
-7.85271e-09
4.08329e-09
-9.19518e-09
4.43927e-09
-1.06339e-08
4.77988e-09
-1.21647e-08
5.10421e-09
-1.3783e-08
5.41163e-09
-1.5484e-08
5.70175e-09
-1.72632e-08
5.97437e-09
-1.91156e-08
6.22945e-09
-2.10364e-08
6.46706e-09
-2.30208e-08
6.68738e-09
-2.5064e-08
6.89066e-09
-2.71613e-08
7.07722e-09
-2.93081e-08
7.24741e-09
-3.14998e-08
7.40162e-09
-3.37318e-08
7.54025e-09
-3.6e-08
7.66373e-09
-3.82999e-08
7.77248e-09
-4.06275e-08
7.86691e-09
-4.29787e-08
7.94746e-09
-4.53496e-08
8.01451e-09
-4.77363e-08
8.06845e-09
-5.0135e-08
8.10967e-09
-5.25422e-08
8.13851e-09
-5.49542e-08
8.15531e-09
-5.73676e-08
8.16037e-09
-5.9779e-08
8.15398e-09
-6.2185e-08
8.13641e-09
-6.45825e-08
8.10789e-09
-6.69681e-08
8.06864e-09
-6.93389e-08
8.01887e-09
-7.16915e-08
7.95874e-09
-7.40231e-08
7.88841e-09
-7.63307e-08
7.80801e-09
-7.86111e-08
7.71767e-09
-8.08616e-08
7.61748e-09
-8.30791e-08
7.50754e-09
-8.52609e-08
7.3879e-09
-8.7404e-08
7.25865e-09
-8.95056e-08
7.11983e-09
-9.15628e-08
6.97149e-09
-9.35729e-08
6.81367e-09
-9.5533e-08
6.64641e-09
-9.74404e-08
6.46975e-09
-9.92923e-08
6.28372e-09
-1.01086e-07
6.08838e-09
-1.02819e-07
5.88376e-09
-1.04488e-07
5.66993e-09
-1.0609e-07
5.44695e-09
-1.07624e-07
5.2149e-09
-1.09086e-07
4.97386e-09
-1.10473e-07
4.72394e-09
-1.11784e-07
4.46528e-09
-1.13016e-07
4.198e-09
-1.14166e-07
3.92227e-09
-1.15231e-07
3.63829e-09
-1.16211e-07
3.34626e-09
-1.17101e-07
3.04642e-09
-1.17901e-07
2.73902e-09
-1.18607e-07
2.42437e-09
-1.19219e-07
2.10279e-09
-1.19734e-07
1.77462e-09
-1.2015e-07
1.44024e-09
-1.20467e-07
1.10007e-09
-1.20681e-07
7.54557e-10
-1.20792e-07
4.04169e-10
-1.20799e-07
4.94201e-11
-1.20701e-07
-3.09153e-10
-1.20496e-07
-6.70977e-10
-1.20185e-07
-1.03545e-09
-1.19766e-07
-1.40193e-09
-1.19239e-07
-1.76976e-09
-1.18604e-07
-2.13824e-09
-1.17861e-07
-2.50666e-09
-1.17011e-07
-2.87428e-09
-1.16053e-07
-3.24031e-09
-1.14989e-07
-3.60397e-09
-1.1382e-07
-3.96444e-09
-1.12547e-07
-4.3209e-09
-1.11171e-07
-4.67249e-09
-1.09694e-07
-5.01836e-09
-1.08118e-07
-5.35764e-09
-1.06445e-07
-5.68945e-09
-1.04678e-07
-6.0129e-09
-1.0282e-07
-6.32713e-09
-1.00872e-07
-6.63124e-09
-9.88395e-08
-6.92436e-09
-9.67248e-08
-7.20563e-09
-9.45317e-08
-7.47419e-09
-9.22643e-08
-7.72922e-09
-8.99267e-08
-7.96989e-09
-8.75233e-08
-8.1954e-09
-8.50588e-08
-8.40501e-09
-8.2538e-08
-8.59797e-09
-7.99659e-08
-8.77358e-09
-7.73476e-08
-8.93119e-09
-7.46887e-08
-9.07017e-09
-7.19946e-08
-9.18996e-09
-6.9271e-08
-9.29002e-09
-6.65238e-08
-9.36988e-09
-6.37589e-08
-9.42912e-09
-6.09824e-08
-9.46738e-09
-5.82003e-08
-9.48435e-09
-5.5419e-08
-9.4798e-09
-5.26446e-08
-9.45354e-09
-4.98834e-08
-9.40547e-09
-4.71417e-08
-9.33554e-09
-4.44258e-08
-9.24377e-09
-4.17419e-08
-9.13027e-09
-3.90962e-08
-8.99521e-09
-3.64949e-08
-8.83883e-09
-3.3944e-08
-8.66144e-09
-3.14493e-08
-8.46344e-09
-2.90167e-08
-8.2453e-09
-2.66517e-08
-8.00757e-09
-2.43598e-08
-7.75088e-09
-2.21462e-08
-7.47592e-09
-2.00159e-08
-7.18349e-09
-1.79736e-08
-6.87446e-09
-1.60236e-08
-6.54978e-09
-1.41702e-08
-6.21051e-09
-1.24172e-08
-5.85778e-09
-1.07679e-08
-5.49283e-09
-9.22536e-09
-5.11703e-09
-7.7922e-09
-4.73183e-09
-6.4705e-09
-4.33882e-09
-5.26189e-09
-3.93976e-09
-4.16742e-09
-3.53653e-09
-3.18752e-09
-3.13122e-09
-2.322e-09
-2.72612e-09
-1.56991e-09
-2.32379e-09
-9.29547e-10
-1.92705e-09
-3.98306e-10
-1.53906e-09
2.736e-11
-1.16339e-09
3.52058e-10
-8.04088e-10
5.81553e-10
-4.65724e-10
7.2289e-10
-1.53535e-10
7.84511e-10
1.2651e-10
7.76383e-10
3.67601e-10
7.10119e-10
5.62002e-10
5.99112e-10
7.01013e-10
4.58701e-10
7.74992e-10
3.06418e-10
7.73496e-10
1.62438e-10
6.85594e-10
5.04598e-11
5.00342e-10
2.06812e-10
1.00848e-11
-1.73713e-10
6.82185e-12
-3.00568e-10
-3.68633e-11
-2.58319e-10
-1.42529e-10
-8.2255e-11
-3.27547e-10
1.9934e-10
-6.05807e-10
5.62244e-10
-9.88167e-10
9.86074e-10
-1.48286e-09
1.45392e-09
-2.09579e-09
1.95187e-09
-2.83083e-09
2.46853e-09
-3.69013e-09
2.99464e-09
-4.67432e-09
3.5227e-09
-5.78278e-09
4.0467e-09
-7.01382e-09
4.56182e-09
-8.36486e-09
5.06427e-09
-9.83263e-09
5.55106e-09
-1.14133e-08
6.0199e-09
-1.31024e-08
6.46905e-09
-1.48955e-08
6.89725e-09
-1.67874e-08
7.30358e-09
-1.87732e-08
7.68748e-09
-2.08474e-08
8.04861e-09
-2.30048e-08
8.38683e-09
-2.52399e-08
8.7022e-09
-2.75474e-08
8.99489e-09
-2.99219e-08
9.26517e-09
-3.23581e-08
9.51342e-09
-3.48508e-08
9.74005e-09
-3.73947e-08
9.94554e-09
-3.99848e-08
1.01304e-08
-4.26162e-08
1.02951e-08
-4.5284e-08
1.04403e-08
-4.79834e-08
1.05663e-08
-5.07098e-08
1.06739e-08
-5.34588e-08
1.07634e-08
-5.62258e-08
1.08354e-08
-5.90065e-08
1.08904e-08
-6.17968e-08
1.09288e-08
-6.45925e-08
1.0951e-08
-6.73897e-08
1.09575e-08
-7.01843e-08
1.09486e-08
-7.29726e-08
1.09247e-08
-7.57507e-08
1.0886e-08
-7.8515e-08
1.08329e-08
-8.12617e-08
1.07656e-08
-8.39873e-08
1.06844e-08
-8.66883e-08
1.05894e-08
-8.93611e-08
1.04809e-08
-9.20024e-08
1.03589e-08
-9.46086e-08
1.02237e-08
-9.71764e-08
1.00754e-08
-9.97025e-08
9.91398e-09
-1.02184e-07
9.73964e-09
-1.04616e-07
9.55242e-09
-1.06997e-07
9.35241e-09
-1.09323e-07
9.13965e-09
-1.11591e-07
8.9142e-09
-1.13797e-07
8.67614e-09
-1.15939e-07
8.42551e-09
-1.18013e-07
8.16239e-09
-1.20016e-07
7.88684e-09
-1.21945e-07
7.59894e-09
-1.23797e-07
7.29881e-09
-1.25569e-07
6.98653e-09
-1.27257e-07
6.66226e-09
-1.28859e-07
6.32613e-09
-1.30372e-07
5.97832e-09
-1.31793e-07
5.61904e-09
-1.33119e-07
5.2485e-09
-1.34348e-07
4.86697e-09
-1.35477e-07
4.47473e-09
-1.36502e-07
4.07212e-09
-1.37423e-07
3.65948e-09
-1.38236e-07
3.23722e-09
-1.38939e-07
2.80577e-09
-1.3953e-07
2.3656e-09
-1.40007e-07
1.91723e-09
-1.40368e-07
1.46121e-09
-1.40611e-07
9.98143e-10
-1.40736e-07
5.28667e-10
-1.4074e-07
5.34649e-11
-1.40622e-07
-4.26739e-10
-1.40382e-07
-9.11181e-10
-1.40018e-07
-1.39905e-09
-1.39531e-07
-1.8895e-09
-1.38919e-07
-2.38166e-09
-1.38183e-07
-2.87458e-09
-1.37322e-07
-3.36732e-09
-1.36337e-07
-3.85888e-09
-1.35229e-07
-4.34823e-09
-1.33999e-07
-4.83433e-09
-1.32647e-07
-5.31609e-09
-1.31176e-07
-5.79241e-09
-1.29586e-07
-6.26217e-09
-1.2788e-07
-6.72421e-09
-1.26061e-07
-7.1774e-09
-1.2413e-07
-7.62056e-09
-1.2209e-07
-8.05254e-09
-1.19945e-07
-8.47215e-09
-1.17698e-07
-8.87823e-09
-1.15353e-07
-9.26964e-09
-1.12913e-07
-9.64521e-09
-1.10383e-07
-1.00038e-08
-1.07768e-07
-1.03444e-08
-1.05072e-07
-1.06658e-08
-1.02301e-07
-1.0967e-08
-9.94586e-08
-1.12471e-08
-9.65517e-08
-1.15049e-08
-9.35856e-08
-1.17397e-08
-9.05663e-08
-1.19505e-08
-8.74999e-08
-1.21365e-08
-8.43929e-08
-1.2297e-08
-8.12517e-08
-1.24313e-08
-7.80829e-08
-1.25387e-08
-7.48933e-08
-1.26187e-08
-7.169e-08
-1.26708e-08
-6.84797e-08
-1.26946e-08
-6.52697e-08
-1.26898e-08
-6.20671e-08
-1.26562e-08
-5.8879e-08
-1.25936e-08
-5.57125e-08
-1.2502e-08
-5.25749e-08
-1.23814e-08
-4.94733e-08
-1.22319e-08
-4.64146e-08
-1.20538e-08
-4.3406e-08
-1.18475e-08
-4.04542e-08
-1.16132e-08
-3.7566e-08
-1.13517e-08
-3.47479e-08
-1.10634e-08
-3.20063e-08
-1.07491e-08
-2.93475e-08
-1.04098e-08
-2.67772e-08
-1.00462e-08
-2.43011e-08
-9.65953e-09
-2.19247e-08
-9.2509e-09
-1.96528e-08
-8.8216e-09
-1.74903e-08
-8.37304e-09
-1.54414e-08
-7.90674e-09
-1.35098e-08
-7.42438e-09
-1.16991e-08
-6.92775e-09
-1.00121e-08
-6.41884e-09
-8.45115e-09
-5.89975e-09
-7.01808e-09
-5.37283e-09
-5.71401e-09
-4.84059e-09
-4.53943e-09
-4.3058e-09
-3.49406e-09
-3.77149e-09
-2.57684e-09
-3.24101e-09
-1.78582e-09
-2.71806e-09
-1.11812e-09
-2.20676e-09
-5.69808e-10
-1.7117e-09
-1.35844e-10
-1.23805e-09
1.9004e-10
-7.91608e-10
4.15435e-10
-3.7893e-10
5.49364e-10
-7.41764e-12
6.0239e-10
3.14575e-10
5.86741e-10
5.7765e-10
5.16447e-10
7.71307e-10
4.07531e-10
8.83908e-10
2.78315e-10
9.02711e-10
1.49913e-10
8.13997e-10
4.70753e-11
6.03181e-10
2.53887e-10
-3.42734e-12
-1.70283e-10
-4.20819e-11
-2.61915e-10
-1.39889e-10
-1.60512e-10
-3.16457e-10
9.43133e-11
-5.87822e-10
4.70701e-10
-9.66909e-10
9.41335e-10
-1.46391e-09
1.48308e-09
-2.08657e-09
2.07658e-09
-2.84047e-09
2.70576e-09
-3.72925e-09
3.35731e-09
-4.75487e-09
4.02025e-09
-5.91781e-09
4.68564e-09
-7.21728e-09
5.34618e-09
-8.65143e-09
5.99598e-09
-1.02175e-08
6.63033e-09
-1.19119e-08
7.24551e-09
-1.37306e-08
7.8386e-09
-1.5669e-08
8.40737e-09
-1.77219e-08
8.95015e-09
-1.9884e-08
9.46574e-09
-2.21499e-08
9.95332e-09
-2.45137e-08
1.04124e-08
-2.69696e-08
1.08428e-08
-2.95118e-08
1.12444e-08
-3.21344e-08
1.16175e-08
-3.48314e-08
1.19622e-08
-3.75971e-08
1.22791e-08
-4.04256e-08
1.25685e-08
-4.33112e-08
1.28311e-08
-4.62483e-08
1.30675e-08
-4.92314e-08
1.32782e-08
-5.22551e-08
1.3464e-08
-5.53141e-08
1.36253e-08
-5.84032e-08
1.3763e-08
-6.15173e-08
1.38776e-08
-6.46516e-08
1.39697e-08
-6.78011e-08
1.40399e-08
-7.09611e-08
1.40888e-08
-7.41269e-08
1.41169e-08
-7.72942e-08
1.41247e-08
-8.04583e-08
1.41127e-08
-8.36149e-08
1.40813e-08
-8.67599e-08
1.40309e-08
-8.98889e-08
1.39619e-08
-9.29978e-08
1.38745e-08
-9.60826e-08
1.37692e-08
-9.91393e-08
1.3646e-08
-1.02164e-07
1.35054e-08
-1.05152e-07
1.33474e-08
-1.08101e-07
1.31723e-08
-1.11006e-07
1.29802e-08