0.05 	0.0003125 	0.005 	-0.00220014 	3.47441e-07 	0
0.05 	0.0009375 	0.005 	-0.00646976 	2.38132e-06 	0
0.05 	0.0015625 	0.005 	-0.0106164 	6.84611e-06 	0
0.05 	0.0021875 	0.005 	-0.0146473 	1.3345e-05 	0
0.05 	0.0028125 	0.005 	-0.0185691 	2.16675e-05 	0
0.05 	0.0034375 	0.005 	-0.0223879 	3.17066e-05 	0
0.05 	0.0040625 	0.005 	-0.0261101 	4.33578e-05 	0
0.05 	0.0046875 	0.005 	-0.0297412 	5.65229e-05 	0
0.05 	0.0053125 	0.005 	-0.0332868 	7.11184e-05 	0
0.05 	0.0059375 	0.005 	-0.0367522 	8.70733e-05 	0
0.05 	0.0065625 	0.005 	-0.0401424 	0.000104329 	0
0.05 	0.0071875 	0.005 	-0.043462 	0.000122839 	0
0.05 	0.0078125 	0.005 	-0.0467156 	0.000142567 	0
0.05 	0.0084375 	0.005 	-0.0499075 	0.000163489 	0
0.05 	0.0090625 	0.005 	-0.0530418 	0.00018559 	0
0.05 	0.0096875 	0.005 	-0.0561224 	0.000208867 	0
0.05 	0.0103125 	0.005 	-0.0591529 	0.000233325 	0
0.05 	0.0109375 	0.005 	-0.0621369 	0.000258979 	0
0.05 	0.0115625 	0.005 	-0.0650776 	0.000285854 	0
0.05 	0.0121875 	0.005 	-0.0679783 	0.000313983 	0
0.05 	0.0128125 	0.005 	-0.0708419 	0.000343408 	0
0.05 	0.0134375 	0.005 	-0.0736712 	0.00037418 	0
0.05 	0.0140625 	0.005 	-0.076469 	0.000406358 	0
0.05 	0.0146875 	0.005 	-0.0792376 	0.00044001 	0
0.05 	0.0153125 	0.005 	-0.0819794 	0.00047521 	0
0.05 	0.0159375 	0.005 	-0.0846967 	0.000512044 	0
0.05 	0.0165625 	0.005 	-0.0873916 	0.000550601 	0
0.05 	0.0171875 	0.005 	-0.0900659 	0.000590982 	0
0.05 	0.0178125 	0.005 	-0.0927215 	0.000633291 	0
0.05 	0.0184375 	0.005 	-0.09536 	0.000677641 	0
0.05 	0.0190625 	0.005 	-0.097983 	0.000724153 	0
0.05 	0.0196875 	0.005 	-0.100592 	0.000772953 	0
0.05 	0.0203125 	0.005 	-0.103188 	0.000824173 	0
0.05 	0.0209375 	0.005 	-0.105773 	0.000877954 	0
0.05 	0.0215625 	0.005 	-0.108346 	0.00093444 	0
0.05 	0.0221875 	0.005 	-0.110911 	0.000993783 	0
0.05 	0.0228125 	0.005 	-0.113466 	0.00105614 	0
0.05 	0.0234375 	0.005 	-0.116013 	0.00112168 	0
0.05 	0.0240625 	0.005 	-0.118553 	0.00119055 	0
0.05 	0.0246875 	0.005 	-0.121085 	0.00126295 	0
0.05 	0.0253125 	0.005 	-0.12361 	0.00133904 	0
0.05 	0.0259375 	0.005 	-0.126129 	0.001419 	0
0.05 	0.0265625 	0.005 	-0.128641 	0.00150303 	0
0.05 	0.0271875 	0.005 	-0.131146 	0.0015913 	0
0.05 	0.0278125 	0.005 	-0.133645 	0.001684 	0
0.05 	0.0284375 	0.005 	-0.136136 	0.00178134 	0
0.05 	0.0290625 	0.005 	-0.13862 	0.00188351 	0
0.05 	0.0296875 	0.005 	-0.141095 	0.00199071 	0
0.05 	0.0303125 	0.005 	-0.143562 	0.00210313 	0
0.05 	0.0309375 	0.005 	-0.146018 	0.00222098 	0
0.05 	0.0315625 	0.005 	-0.148464 	0.00234445 	0
0.05 	0.0321875 	0.005 	-0.150898 	0.00247375 	0
0.05 	0.0328125 	0.005 	-0.153319 	0.00260908 	0
0.05 	0.0334375 	0.005 	-0.155725 	0.00275063 	0
0.05 	0.0340625 	0.005 	-0.158116 	0.00289859 	0
0.05 	0.0346875 	0.005 	-0.160488 	0.00305315 	0
0.05 	0.0353125 	0.005 	-0.16284 	0.0032145 	0
0.05 	0.0359375 	0.005 	-0.165171 	0.00338281 	0
0.05 	0.0365625 	0.005 	-0.167477 	0.00355827 	0
0.05 	0.0371875 	0.005 	-0.169758 	0.00374103 	0
0.05 	0.0378125 	0.005 	-0.172009 	0.00393126 	0
0.05 	0.0384375 	0.005 	-0.174229 	0.0041291 	0
0.05 	0.0390625 	0.005 	-0.176414 	0.00433469 	0
0.05 	0.0396875 	0.005 	-0.178561 	0.00454815 	0
0.05 	0.0403125 	0.005 	-0.180667 	0.00476958 	0
0.05 	0.0409375 	0.005 	-0.182729 	0.0049991 	0
0.05 	0.0415625 	0.005 	-0.184743 	0.00523676 	0
0.05 	0.0421875 	0.005 	-0.186705 	0.00548264 	0
0.05 	0.0428125 	0.005 	-0.188611 	0.00573677 	0
0.05 	0.0434375 	0.005 	-0.190456 	0.00599917 	0
0.05 	0.0440625 	0.005 	-0.192237 	0.00626984 	0
0.05 	0.0446875 	0.005 	-0.193948 	0.00654874 	0
0.05 	0.0453125 	0.005 	-0.195585 	0.00683583 	0
0.05 	0.0459375 	0.005 	-0.197142 	0.00713101 	0
0.05 	0.0465625 	0.005 	-0.198613 	0.00743418 	0
0.05 	0.0471875 	0.005 	-0.199994 	0.00774519 	0
0.05 	0.0478125 	0.005 	-0.201278 	0.00806387 	0
0.05 	0.0484375 	0.005 	-0.20246 	0.00838998 	0
0.05 	0.0490625 	0.005 	-0.203532 	0.00872328 	0
0.05 	0.0496875 	0.005 	-0.204488 	0.00906349 	0
0.05 	0.0503125 	0.005 	-0.205321 	0.00941025 	0
0.05 	0.0509375 	0.005 	-0.206024 	0.00976321 	0
0.05 	0.0515625 	0.005 	-0.20659 	0.0101219 	0
0.05 	0.0521875 	0.005 	-0.207011 	0.0104859 	0
0.05 	0.0528125 	0.005 	-0.207278 	0.0108548 	0
0.05 	0.0534375 	0.005 	-0.207384 	0.0112278 	0
0.05 	0.0540625 	0.005 	-0.20732 	0.0116044 	0
0.05 	0.0546875 	0.005 	-0.207078 	0.0119839 	0
0.05 	0.0553125 	0.005 	-0.206647 	0.0123657 	0
0.05 	0.0559375 	0.005 	-0.206019 	0.0127488 	0
0.05 	0.0565625 	0.005 	-0.205184 	0.0131326 	0
0.05 	0.0571875 	0.005 	-0.204133 	0.0135161 	0
0.05 	0.0578125 	0.005 	-0.202854 	0.0138983 	0
0.05 	0.0584375 	0.005 	-0.201338 	0.0142783 	0
0.05 	0.0590625 	0.005 	-0.199573 	0.014655 	0
0.05 	0.0596875 	0.005 	-0.197549 	0.0150273 	0
0.05 	0.0603125 	0.005 	-0.195255 	0.0153941 	0
0.05 	0.0609375 	0.005 	-0.192678 	0.0157541 	0
0.05 	0.0615625 	0.005 	-0.189807 	0.016106 	0
0.05 	0.0621875 	0.005 	-0.18663 	0.0164486 	0
0.05 	0.0628125 	0.005 	-0.183134 	0.0167805 	0
0.05 	0.0634375 	0.005 	-0.179308 	0.0171003 	0
0.05 	0.0640625 	0.005 	-0.175138 	0.0174065 	0
0.05 	0.0646875 	0.005 	-0.170611 	0.0176978 	0
0.05 	0.0653125 	0.005 	-0.165714 	0.0179726 	0
0.05 	0.0659375 	0.005 	-0.160434 	0.0182294 	0
0.05 	0.0665625 	0.005 	-0.154757 	0.0184666 	0
0.05 	0.0671875 	0.005 	-0.14867 	0.0186829 	0
0.05 	0.0678125 	0.005 	-0.142159 	0.0188765 	0
0.05 	0.0684375 	0.005 	-0.13521 	0.0190461 	0
0.05 	0.0690625 	0.005 	-0.127808 	0.0191901 	0
0.05 	0.0696875 	0.005 	-0.119941 	0.019307 	0
0.05 	0.0703125 	0.005 	-0.111593 	0.0193954 	0
0.05 	0.0709375 	0.005 	-0.102752 	0.0194539 	0
0.05 	0.0715625 	0.005 	-0.0934019 	0.0194813 	0
0.05 	0.0721875 	0.005 	-0.0835301 	0.0194763 	0
0.05 	0.0728125 	0.005 	-0.0731222 	0.0194378 	0
0.05 	0.0734375 	0.005 	-0.0621647 	0.0193647 	0
0.05 	0.0740625 	0.005 	-0.050644 	0.019256 	0
0.05 	0.0746875 	0.005 	-0.0385468 	0.0191112 	0
0.05 	0.0753125 	0.005 	-0.0258601 	0.0189294 	0
0.05 	0.0759375 	0.005 	-0.0125712 	0.0187102 	0
0.05 	0.0765625 	0.005 	0.00133232 	0.0184534 	0
0.05 	0.0771875 	0.005 	0.0158623 	0.0181588 	0
0.05 	0.0778125 	0.005 	0.0310303 	0.0178265 	0
0.05 	0.0784375 	0.005 	0.0468472 	0.017457 	0
0.05 	0.0790625 	0.005 	0.0633232 	0.0170506 	0
0.05 	0.0796875 	0.005 	0.0804681 	0.0166083 	0
0.05 	0.0803125 	0.005 	0.0982909 	0.0161311 	0
0.05 	0.0809375 	0.005 	0.1168 	0.0156203 	0
0.05 	0.0815625 	0.005 	0.136002 	0.0150776 	0
0.05 	0.0821875 	0.005 	0.155904 	0.0145047 	0
0.05 	0.0828125 	0.005 	0.17651 	0.0139039 	0
0.05 	0.0834375 	0.005 	0.197827 	0.0132776 	0
0.05 	0.0840625 	0.005 	0.219856 	0.0126284 	0
0.05 	0.0846875 	0.005 	0.2426 	0.0119594 	0
0.05 	0.0853125 	0.005 	0.26606 	0.0112738 	0
0.05 	0.0859375 	0.005 	0.290235 	0.0105751 	0
0.05 	0.0865625 	0.005 	0.315122 	0.00986697 	0
0.05 	0.0871875 	0.005 	0.34072 	0.00915341 	0
0.05 	0.0878125 	0.005 	0.367022 	0.00843852 	0
0.05 	0.0884375 	0.005 	0.394023 	0.00772657 	0
0.05 	0.0890625 	0.005 	0.421713 	0.00702196 	0
0.05 	0.0896875 	0.005 	0.450084 	0.00632918 	0
0.05 	0.0903125 	0.005 	0.479124 	0.00565275 	0
0.05 	0.0909375 	0.005 	0.508818 	0.00499719 	0
0.05 	0.0915625 	0.005 	0.539154 	0.00436696 	0
0.05 	0.0921875 	0.005 	0.570112 	0.00376641 	0
0.05 	0.0928125 	0.005 	0.601675 	0.00319969 	0
0.05 	0.0934375 	0.005 	0.633821 	0.00267073 	0
0.05 	0.0940625 	0.005 	0.66653 	0.00218313 	0
0.05 	0.0946875 	0.005 	0.699775 	0.00174011 	0
0.05 	0.0953125 	0.005 	0.733532 	0.00134444 	0
0.05 	0.0959375 	0.005 	0.767773 	0.000998335 	0
0.05 	0.0965625 	0.005 	0.802469 	0.000703412 	0
0.05 	0.0971875 	0.005 	0.837588 	0.000460602 	0
0.05 	0.0978125 	0.005 	0.873098 	0.000269955 	0
0.05 	0.0984375 	0.005 	0.908967 	0.00013043 	0
0.05 	0.0990625 	0.005 	0.945159 	4.15301e-05 	0
0.05 	0.0996875 	0.005 	0.981637 	4.90598e-06 	0
