/*--------------------------------*- C++ -*----------------------------------*\
  =========                 |
  \\      /  F ield         | OpenFOAM: The Open Source CFD Toolbox
   \\    /   O peration     | Website:  https://openfoam.org
    \\  /    A nd           | Version:  7
     \\/     M anipulation  |
\*---------------------------------------------------------------------------*/
FoamFile
{
    version     2.0;
    format      ascii;
    class       volScalarField;
    location    "0.2";
    object      p;
}
// * * * * * * * * * * * * * * * * * * * * * * * * * * * * * * * * * * * * * //

dimensions      [0 2 -2 0 0 0 0];

internalField   nonuniform List<scalar> 
25600
(
5.43612e-09
1.59275e-05
1.36407e-05
-1.52973e-05
-6.97126e-05
-0.000147119
-0.000244818
-0.000359978
-0.000489719
-0.000631365
-0.000782359
-0.000940462
-0.00110355
-0.00126971
-0.00143725
-0.00160458
-0.00177031
-0.00193318
-0.00209201
-0.00224578
-0.00239356
-0.00253452
-0.00266791
-0.00279309
-0.00290945
-0.00301647
-0.00311371
-0.00320077
-0.00327728
-0.00334293
-0.00339749
-0.00344073
-0.00347248
-0.00349258
-0.00350093
-0.00349741
-0.00348194
-0.00345451
-0.00341509
-0.00336366
-0.00330023
-0.00322483
-0.00313752
-0.00303837
-0.00292749
-0.00280496
-0.00267086
-0.0025253
-0.00236841
-0.00220034
-0.00202125
-0.0018313
-0.00163063
-0.00141942
-0.00119786
-0.000966167
-0.000724543
-0.000473213
-0.000212418
5.76015e-05
0.000336602
0.00062432
0.000920476
0.00122477
0.00153693
0.00185663
0.00218357
0.0025174
0.00285778
0.00320436
0.00355678
0.00391466
0.00427759
0.00464518
0.00501701
0.00539269
0.00577176
0.00615377
0.00653825
0.00692474
0.00731276
0.00770182
0.00809143
0.00848106
0.00887019
0.00925832
0.00964492
0.0100294
0.0104113
0.01079
0.011165
0.0115358
0.0119017
0.0122622
0.0126168
0.0129649
0.013306
0.0136395
0.0139649
0.0142817
0.0145893
0.0148873
0.0151751
0.0154523
0.0157184
0.015973
0.0162157
0.016446
0.0166635
0.016868
0.017059
0.0172364
0.0173997
0.0175488
0.0176834
0.0178034
0.0179085
0.0179988
0.0180741
0.0181344
0.0181797
0.0182101
0.0182255
0.0182263
0.0182125
0.0181844
0.0181423
0.0180864
0.0180173
0.0179352
0.0178407
0.0177343
0.0176165
0.0174882
0.0173498
0.0172021
0.0170461
0.0168824
0.0167122
0.0165363
0.0163558
0.016172
0.015986
0.0157992
0.0156129
0.0154287
0.0152482
0.0150731
0.0149051
0.0147463
0.0145987
0.0144644
0.0143456
0.0142448
0.014164
0.0141053
0.0140699
0.0140578
0.0140665
0.0140867
-1.72523e-05
-3.74173e-06
-1.01238e-05
-3.94237e-05
-8.9545e-05
-0.000158978
-0.000246088
-0.000348787
-0.000464864
-0.000592044
-0.000728182
-0.000871247
-0.00101933
-0.00117072
-0.00132376
-0.001477
-0.00162914
-0.00177891
-0.00192522
-0.00206707
-0.00220353
-0.0023338
-0.00245716
-0.00257292
-0.00268051
-0.00277939
-0.00286911
-0.00294927
-0.00301951
-0.0030795
-0.00312899
-0.00316774
-0.00319555
-0.00321227
-0.00321777
-0.00321193
-0.00319466
-0.00316592
-0.00312567
-0.00307391
-0.00301062
-0.00293583
-0.00284956
-0.00275188
-0.00264288
-0.00252263
-0.00239124
-0.00224878
-0.00209539
-0.00193118
-0.0017563
-0.00157092
-0.00137518
-0.00116925
-0.000953319
-0.000727572
-0.000492209
-0.000247455
6.44946e-06
0.000269274
0.000540786
0.000820724
0.00110881
0.00140477
0.00170833
0.00201918
0.00233702
0.00266149
0.00299229
0.00332907
0.00367146
0.0040191
0.0043716
0.00472857
0.00508963
0.00545436
0.00582232
0.00619309
0.0065662
0.00694122
0.00731767
0.00769508
0.00807296
0.00845081
0.00882815
0.00920447
0.00957925
0.00995197
0.0103221
0.0106891
0.0110525
0.0114117
0.0117663
0.0121155
0.012459
0.0127963
0.0131267
0.0134497
0.013765
0.0140718
0.0143698
0.0146585
0.0149374
0.015206
0.0154639
0.0157108
0.0159461
0.0161695
0.0163807
0.0165792
0.0167649
0.0169374
0.0170964
0.0172418
0.0173733
0.0174907
0.017594
0.017683
0.0177577
0.0178181
0.0178641
0.0178958
0.0179134
0.0179169
0.0179066
0.0178826
0.0178454
0.0177951
0.0177322
0.017657
0.0175701
0.017472
0.0173632
0.0172444
0.0171163
0.0169795
0.0168348
0.0166832
0.0165254
0.0163626
0.0161956
0.0160257
0.0158539
0.0156816
0.0155101
0.0153409
0.0151753
0.015015
0.0148616
0.0147169
0.0145827
0.0144608
0.0143532
0.0142616
0.0141878
0.0141331
0.0140981
0.0140826
0.0140866
0.0141068
-1.92306e-05
-3.49252e-06
-1.01921e-05
-3.8823e-05
-8.58894e-05
-0.000150077
-0.000230108
-0.000324283
-0.000430711
-0.000547472
-0.000672673
-0.000804491
-0.000941237
-0.00108127
-0.00122311
-0.00136537
-0.00150677
-0.00164617
-0.0017825
-0.00191477
-0.00204211
-0.00216374
-0.00227891
-0.002387
-0.0024874
-0.0025796
-0.00266313
-0.00273758
-0.00280259
-0.00285787
-0.00290312
-0.00293811
-0.00296262
-0.0029765
-0.00297959
-0.00297178
-0.00295299
-0.00292314
-0.00288218
-0.0028301
-0.00276691
-0.00269261
-0.00260721
-0.00251077
-0.00240334
-0.00228502
-0.00215588
-0.00201603
-0.00186558
-0.00170464
-0.00153334
-0.00135182
-0.00116024
-0.000958785
-0.000747613
-0.000526902
-0.000296852
-5.768e-05
0.000190385
0.000447119
0.00071229
0.000985637
0.00126689
0.00155579
0.00185207
0.00215543
0.00246555
0.00278212
0.00310481
0.00343331
0.00376724
0.00410623
0.00444992
0.00479795
0.00514991
0.00550541
0.00586402
0.00622531
0.00658887
0.00695424
0.00732098
0.0076886
0.00805664
0.00842462
0.00879207
0.00915848
0.00952337
0.00988622
0.0102465
0.0106038
0.0109575
0.0113071
0.0116521
0.011992
0.0123263
0.0126544
0.012976
0.0132903
0.0135971
0.0138957
0.0141857
0.0144667
0.0147381
0.0149996
0.0152508
0.0154912
0.0157204
0.0159382
0.016144
0.0163377
0.0165189
0.0166874
0.0168429
0.0169852
0.0171141
0.0172295
0.0173312
0.0174192
0.0174933
0.0175537
0.0176003
0.0176332
0.0176524
0.0176582
0.0176507
0.0176301
0.0175968
0.0175511
0.0174932
0.0174237
0.017343
0.0172516
0.0171501
0.017039
0.0169191
0.016791
0.0166556
0.0165135
0.0163658
0.0162133
0.0160571
0.0158982
0.0157377
0.0155768
0.0154169
0.0152591
0.015105
0.0149561
0.0148137
0.0146795
0.0145552
0.0144424
0.0143426
0.0142576
0.0141885
0.0141368
0.0141027
0.0140865
0.0140905
0.0141155
1.31078e-06
1.79634e-05
1.11701e-05
-1.68775e-05
-6.20845e-05
-0.000123059
-0.000198535
-0.000286955
-0.000386642
-0.000495903
-0.000613005
-0.000736337
-0.000864321
-0.000995484
-0.00112844
-0.00126189
-0.00139462
-0.00152555
-0.00165364
-0.00177798
-0.00189772
-0.00201207
-0.00212035
-0.00222191
-0.00231619
-0.00240267
-0.00248089
-0.00255043
-0.00261094
-0.00266212
-0.00270368
-0.00273538
-0.00275701
-0.00276838
-0.00276936
-0.00275982
-0.00273968
-0.00270885
-0.00266726
-0.00261491
-0.00255178
-0.00247788
-0.00239323
-0.00229787
-0.00219185
-0.00207523
-0.0019481
-0.00181055
-0.0016627
-0.00150465
-0.00133652
-0.00115845
-0.000970587
-0.0007731
-0.000566151
-0.000349918
-0.000124598
0.000109599
0.000352462
0.000603774
0.000863297
0.00113078
0.00140596
0.00168858
0.00197839
0.00227508
0.00257836
0.0028879
0.00320341
0.00352455
0.00385096
0.00418229
0.00451819
0.00485829
0.00520221
0.00554954
0.00589989
0.00625283
0.00660795
0.00696482
0.00732298
0.00768198
0.00804137
0.00840068
0.00875944
0.00911716
0.00947337
0.00982757
0.0101793
0.010528
0.0108732
0.0112144
0.0115511
0.0118828
0.012209
0.0125293
0.0128431
0.0131499
0.0134492
0.0137407
0.0140238
0.014298
0.014563
0.0148184
0.0150637
0.0152985
0.0155225
0.0157353
0.0159366
0.016126
0.0163034
0.0164684
0.0166208
0.0167605
0.0168872
0.0170007
0.017101
0.0171881
0.0172618
0.0173222
0.0173693
0.0174031
0.0174237
0.0174314
0.0174263
0.0174086
0.0173786
0.0173367
0.0172831
0.0172183
0.0171428
0.017057
0.0169616
0.016857
0.016744
0.0166232
0.0164954
0.0163614
0.0162219
0.016078
0.0159306
0.0157807
0.0156293
0.0154777
0.015327
0.0151785
0.0150335
0.0148933
0.0147594
0.0146332
0.0145163
0.01441
0.0143158
0.0142352
0.0141694
0.0141196
0.0140864
0.0140703
0.0140751
0.0141035
4.60533e-05
5.9931e-05
5.11922e-05
2.24629e-05
-2.22187e-05
-8.14369e-05
-0.000153913
-0.000238189
-0.000332759
-0.000436067
-0.000546616
-0.000662901
-0.000783496
-0.000907059
-0.0010323
-0.001158
-0.00128307
-0.00140642
-0.00152712
-0.00164428
-0.00175709
-0.00186479
-0.00196673
-0.00206228
-0.00215087
-0.00223203
-0.00230528
-0.00237022
-0.00242652
-0.00247383
-0.0025119
-0.00254049
-0.00255939
-0.00256839
-0.00256735
-0.00255616
-0.00253472
-0.00250294
-0.00246077
-0.00240816
-0.0023451
-0.00227159
-0.00218765
-0.00209333
-0.00198865
-0.00187369
-0.00174849
-0.00161318
-0.00146784
-0.00131257
-0.00114751
-0.000972767
-0.000788504
-0.000594862
-0.000392
-0.000180101
4.06405e-05
0.000270027
0.000507859
0.000753919
0.00100797
0.00126977
0.00153908
0.00181564
0.00209919
0.00238944
0.00268609
0.00298885
0.00329742
0.00361147
0.00393063
0.00425458
0.00458296
0.00491543
0.00525161
0.00559109
0.00593349
0.0062784
0.00662543
0.00697413
0.00732407
0.00767481
0.00802592
0.00837692
0.00872736
0.00907678
0.0094247
0.00977064
0.0101141
0.0104547
0.0107918
0.011125
0.0114538
0.0117777
0.0120963
0.0124091
0.0127155
0.0130151
0.0133074
0.0135921
0.0138686
0.0141365
0.0143955
0.014645
0.0148847
0.0151142
0.0153332
0.0155414
0.0157383
0.0159238
0.0160975
0.0162593
0.0164088
0.016546
0.0166705
0.0167823
0.0168814
0.0169675
0.0170408
0.0171011
0.0171486
0.0171833
0.0172052
0.0172146
0.0172117
0.0171966
0.0171697
0.0171313
0.0170816
0.0170212
0.0169505
0.0168699
0.01678
0.0166814
0.0165746
0.0164605
0.0163396
0.0162128
0.0160809
0.0159447
0.0158052
0.0156633
0.0155201
0.0153767
0.0152341
0.0150936
0.0149564
0.0148238
0.0146971
0.0145776
0.0144666
0.0143655
0.0142757
0.0141984
0.0141348
0.0140861
0.014053
0.0140363
0.0140404
0.0140685
0.000114548
0.000122169
0.000109294
7.82644e-05
3.25846e-05
-2.63423e-05
-9.73188e-05
-0.000178979
-0.000269927
-0.000368792
-0.000474202
-0.000584803
-0.000699328
-0.000816511
-0.000935172
-0.00105422
-0.00117258
-0.00128928
-0.00140342
-0.00151417
-0.00162074
-0.00172245
-0.00181862
-0.00190868
-0.00199208
-0.00206833
-0.00213699
-0.00219769
-0.00225005
-0.00229379
-0.00232861
-0.00235429
-0.00237061
-0.00237739
-0.00237447
-0.00236173
-0.00233906
-0.00230639
-0.00226365
-0.00221081
-0.00214783
-0.00207471
-0.00199147
-0.00189813
-0.00179475
-0.00168136
-0.00155804
-0.00142487
-0.00128194
-0.00112936
-0.000967233
-0.000795703
-0.000614898
-0.000424955
-0.000226032
-1.83123e-05
0.000198021
0.000422786
0.000655779
0.000896785
0.00114557
0.00140191
0.00166557
0.0019363
0.00221384
0.00249789
0.00278819
0.00308446
0.00338637
0.00369361
0.00400583
0.0043227
0.0046439
0.00496907
0.00529783
0.00562981
0.00596463
0.00630188
0.00664118
0.0069821
0.00732421
0.00766709
0.00801031
0.00835342
0.00869596
0.00903748
0.00937753
0.00971564
0.0100514
0.0103842
0.0107137
0.0110393
0.0113606
0.0116772
0.0119885
0.0122942
0.0125936
0.0128865
0.0131723
0.0134505
0.0137208
0.0139828
0.014236
0.01448
0.0147145
0.0149391
0.0151534
0.0153572
0.0155501
0.0157318
0.0159021
0.0160608
0.0162076
0.0163424
0.0164649
0.0165751
0.0166729
0.0167582
0.016831
0.0168913
0.0169392
0.0169745
0.0169977
0.0170086
0.0170077
0.016995
0.0169709
0.0169356
0.0168895
0.0168331
0.0167667
0.0166908
0.0166059
0.0165127
0.0164116
0.0163034
0.0161888
0.0160685
0.0159433
0.0158139
0.0156814
0.0155466
0.0154106
0.0152742
0.0151387
0.0150051
0.0148745
0.0147482
0.0146274
0.0145133
0.014407
0.01431
0.0142233
0.0141481
0.0140857
0.014037
0.014003
0.0139845
0.013986
0.0140105
0.000204713
0.000203219
0.000184222
0.000149335
0.000101175
4.10735e-05
-2.98423e-05
-0.000110291
-0.000199066
-0.000294897
-0.000396529
-0.000502794
-0.000612496
-0.000724499
-0.000837734
-0.000951165
-0.00106382
-0.0011748
-0.00128325
-0.00138837
-0.00148945
-0.00158581
-0.00167683
-0.00176196
-0.00184067
-0.00191248
-0.00197698
-0.00203379
-0.00208256
-0.002123
-0.00215484
-0.00217784
-0.00219178
-0.0021965
-0.00219184
-0.00217766
-0.00215387
-0.00212038
-0.00207712
-0.00202406
-0.00196117
-0.00188844
-0.00180587
-0.00171349
-0.00161134
-0.00149946
-0.00137792
-0.00124681
-0.00110619
-0.00095617
-0.000796863
-0.000628397
-0.000450889
-0.000264478
-6.93235e-05
0.000134401
0.000346527
0.000566878
0.000795248
0.00103142
0.00127518
0.00152632
0.0017846
0.00204977
0.00232156
0.00259973
0.00288399
0.00317406
0.00346963
0.00377039
0.00407601
0.00438618
0.00470056
0.0050188
0.00534054
0.0056654
0.00599304
0.00632305
0.00665504
0.0069886
0.00732331
0.00765877
0.00799456
0.00833022
0.00866532
0.00899941
0.00933207
0.00966283
0.00999123
0.0103168
0.0106391
0.0109576
0.011272
0.0115817
0.0118862
0.0121852
0.0124782
0.0127647
0.0130444
0.0133167
0.0135812
0.0138376
0.0140855
0.0143244
0.014554
0.014774
0.014984
0.0151837
0.0153728
0.015551
0.0157182
0.015874
0.0160183
0.0161508
0.0162715
0.0163802
0.0164768
0.0165613
0.0166336
0.0166938
0.0167419
0.016778
0.0168021
0.0168145
0.0168153
0.0168047
0.0167831
0.0167506
0.0167078
0.0166549
0.0165923
0.0165206
0.0164402
0.0163517
0.0162557
0.0161528
0.0160437
0.015929
0.0158097
0.0156863
0.0155599
0.0154312
0.0153012
0.015171
0.0150414
0.0149135
0.0147884
0.0146672
0.0145511
0.014441
0.0143383
0.014244
0.0141593
0.0140851
0.0140227
0.013973
0.013937
0.0139156
0.0139126
0.0139307
0.000313774
0.00030103
0.000274229
0.00023409
0.000182108
0.000119503
4.73835e-05
-3.31757e-05
-0.000121039
-0.000215084
-0.000314212
-0.000417314
-0.00052335
-0.000631286
-0.000740132
-0.000848936
-0.000956816
-0.00106293
-0.00116648
-0.00126674
-0.00136302
-0.00145468
-0.00154114
-0.00162187
-0.00169637
-0.0017642
-0.00182494
-0.00187822
-0.00192373
-0.00196118
-0.00199029
-0.00201083
-0.0020226
-0.00202542
-0.00201915
-0.00200365
-0.00197884
-0.0019446
-0.00190089
-0.00184765
-0.00178486
-0.00171251
-0.0016306
-0.00153914
-0.00143818
-0.00132775
-0.00120792
-0.00107877
-0.000940356
-0.000792792
-0.000636184
-0.000470644
-0.000296287
-0.000113253
7.82989e-05
0.000278211
0.000486324
0.000702461
0.000926413
0.00115798
0.00139696
0.00164313
0.00189628
0.00215614
0.00242247
0.00269503
0.00297354
0.00325773
0.00354728
0.00384188
0.00414124
0.00444504
0.00475296
0.00506463
0.00537971
0.00569786
0.0060187
0.00634186
0.00666695
0.00699357
0.00732131
0.00764979
0.00797857
0.00830723
0.00863533
0.00896245
0.00928816
0.00961202
0.00993357
0.0102524
0.0105679
0.0108798
0.0111876
0.0114909
0.0117891
0.012082
0.0123689
0.0126495
0.0129234
0.0131902
0.0134494
0.0137006
0.0139435
0.0141776
0.0144027
0.0146185
0.0148244
0.0150204
0.015206
0.015381
0.0155452
0.0156983
0.0158402
0.0159707
0.0160896
0.0161969
0.0162924
0.0163761
0.016448
0.0165081
0.0165564
0.016593
0.016618
0.0166316
0.0166339
0.0166252
0.0166058
0.0165759
0.0165358
0.016486
0.0164269
0.0163588
0.0162824
0.0161981
0.0161065
0.0160082
0.0159039
0.0157942
0.0156799
0.0155617
0.0154405
0.015317
0.0151922
0.015067
0.0149423
0.0148191
0.0146984
0.0145812
0.0144685
0.0143616
0.0142612
0.0141686
0.0140846
0.0140104
0.013947
0.0138953
0.0138562
0.0138306
0.0138216
0.013831
0.000438959
0.00041336
0.000377457
0.00033088
0.000273894
0.000207642
0.000133134
5.13456e-05
-3.67343e-05
-0.000130138
-0.000227846
-0.000328879
-0.000432297
-0.000537159
-0.000642569
-0.000747668
-0.000851626
-0.000953677
-0.00105309
-0.00114918
-0.00124132
-0.00132889
-0.00141136
-0.0014882
-0.00155897
-0.00162323
-0.0016806
-0.00173073
-0.00177329
-0.00180802
-0.00183465
-0.00185296
-0.00186275
-0.00186386
-0.00185612
-0.00183942
-0.00181368
-0.00177878
-0.00173466
-0.00168129
-0.00161863
-0.00154666
-0.00146539
-0.00137483
-0.00127502
-0.00116599
-0.00104781
-0.000920525
-0.00078423
-0.000639021
-0.000484992
-0.000322247
-0.000150905
2.8895e-05
0.000217007
0.000413284
0.000617566
0.000829677
0.00104942
0.00127659
0.001511
0.00175246
0.00200071
0.00225552
0.00251666
0.00278389
0.00305694
0.00333553
0.00361935
0.00390812
0.00420155
0.00449932
0.00480111
0.00510656
0.00541536
0.00572715
0.00604159
0.00635828
0.00667687
0.00699695
0.00731813
0.00764003
0.00796223
0.00828431
0.00860584
0.00892643
0.00924564
0.00956304
0.00987817
0.0101906
0.0104999
0.0108056
0.0111073
0.0114046
0.0116969
0.011984
0.0122653
0.0125405
0.012809
0.0130706
0.0133248
0.0135713
0.0138096
0.0140393
0.0142603
0.014472
0.0146743
0.0148667
0.0150491
0.0152211
0.0153826
0.0155332
0.0156729
0.0158015
0.0159188
0.0160247
0.0161192
0.0162021
0.0162735
0.0163335
0.0163819
0.0164189
0.0164447
0.0164593
0.016463
0.016456
0.0164385
0.0164107
0.0163732
0.0163261
0.01627
0.0162051
0.0161321
0.0160515
0.0159637
0.0158694
0.0157692
0.0156638
0.0155538
0.01544
0.0153231
0.015204
0.0150834
0.0149623
0.0148416
0.0147221
0.0146047
0.0144905
0.0143804
0.0142754
0.0141764
0.0140844
0.0140003
0.013925
0.0138596
0.0138048
0.0137616
0.0137307
0.0137144
0.0137135
0.000577596
0.000538069
0.000492035
0.000438032
0.000375086
0.000304171
0.000226268
0.00014224
5.29098e-05
-4.08387e-05
-0.000138112
-0.000238053
-0.000339795
-0.000442495
-0.000545347
-0.000647574
-0.000748416
-0.000847162
-0.000943144
-0.00103573
-0.00112433
-0.00120839
-0.00128739
-0.00136086
-0.00142835
-0.00148947
-0.00154385
-0.00159116
-0.0016311
-0.00166339
-0.00168779
-0.00170409
-0.0017121
-0.00171165
-0.0017026
-0.00168484
-0.00165825
-0.00162277
-0.00157831
-0.00152485
-0.00146234
-0.00139077
-0.00131013
-0.00122045
-0.00112176
-0.00101408
-0.000897469
-0.000771991
-0.000637729
-0.000494771
-0.000343206
-0.000183133
-1.46747e-05
0.000162035
0.000346864
0.000539676
0.000740307
0.000948574
0.00116429
0.00138729
0.00161737
0.00185432
0.00209792
0.00234793
0.00260414
0.00286631
0.00313417
0.00340744
0.00368584
0.0039691
0.00425691
0.00454898
0.00484497
0.00514456
0.00544742
0.00575323
0.00606162
0.00637223
0.00668469
0.00699863
0.00731366
0.00762939
0.00794542
0.00826133
0.00857672
0.00889119
0.00920433
0.0095157
0.00982484
0.0101313
0.0104348
0.0107347
0.0110308
0.0113225
0.0116094
0.0118911
0.0121672
0.0124373
0.0127009
0.0129578
0.0132074
0.0134494
0.0136834
0.0139092
0.0141262
0.0143343
0.0145331
0.0147223
0.0149017
0.015071
0.0152299
0.0153783
0.015516
0.0156428
0.0157585
0.0158632
0.0159567
0.0160389
0.0161099
0.0161696
0.0162181
0.0162555
0.0162819
0.0162974
0.0163022
0.0162966
0.0162807
0.0162549
0.0162195
0.0161748
0.0161212
0.0160592
0.0159891
0.0159116
0.0158271
0.0157362
0.0156395
0.0155377
0.0154313
0.0153211
0.0152078
0.0150922
0.0149751
0.0148573
0.0147396
0.0146228
0.0145079
0.0143958
0.0142872
0.0141832
0.0140846
0.0139923
0.0139071
0.0138299
0.0137615
0.0137028
0.0136545
0.0136175
0.0135927
0.0135804
0.000727299
0.000673078
0.000616151
0.000553963
0.000484204
0.000407793
0.000325648
0.000238464
0.000147003
5.20208e-05
-4.57194e-05
-0.000145431
-0.000246352
-0.000347722
-0.000448819
-0.000548937
-0.000647393
-0.000743537
-0.000836758
-0.000926467
-0.00101212
-0.00109321
-0.00116925
-0.00123981
-0.00130446
-0.00136284
-0.0014146
-0.00145943
-0.00149704
-0.00152716
-0.00154958
-0.0015641
-0.00157051
-0.00156868
-0.00155847
-0.00153976
-0.00151245
-0.00147646
-0.00143173
-0.00137822
-0.0013159
-0.00124473
-0.00116473
-0.00107591
-0.000978297
-0.000871919
-0.000756823
-0.000633084
-0.000500777
-0.000359972
-0.000210757
-5.32429e-05
0.000112452
0.000286216
0.000467924
0.000657428
0.00085457
0.00105918
0.00127108
0.00149011
0.00171606
0.00194873
0.00218791
0.00243337
0.0026849
0.00294227
0.00320521
0.00347345
0.00374673
0.00402477
0.00430728
0.00459396
0.00488448
0.00517854
0.00547583
0.005776
0.00607872
0.00638362
0.00669034
0.00699852
0.00730778
0.00761774
0.00792799
0.00823815
0.00854781
0.00885659
0.00916407
0.00946981
0.00977339
0.0100744
0.0103724
0.010667
0.0109578
0.0112444
0.0115262
0.011803
0.0120743
0.0123397
0.0125988
0.0128513
0.0130966
0.0133346
0.0135647
0.0137867
0.0140003
0.014205
0.0144006
0.0145869
0.0147635
0.0149302
0.0150869
0.0152332
0.015369
0.0154941
0.0156085
0.0157119
0.0158045
0.015886
0.0159565
0.016016
0.0160646
0.0161022
0.0161291
0.0161454
0.0161512
0.0161467
0.0161323
0.0161081
0.0160745
0.0160318
0.0159804
0.0159207
0.0158531
0.0157782
0.0156965
0.0156084
0.0155147
0.0154157
0.0153123
0.015205
0.0150946
0.0149818
0.0148674
0.014752
0.0146365
0.0145216
0.0144083
0.0142973
0.0141895
0.0140857
0.0139866
0.0138931
0.0138059
0.0137259
0.0136538
0.0135903
0.0135362
0.0134923
0.0134583
0.0134336
0.000885769
0.00081643
0.000748084
0.000677079
0.000599854
0.000517246
0.000430093
0.000339016
0.000244637
0.000147617
4.86342e-05
-5.16303e-05
-0.000152497
-0.000253295
-0.000353365
-0.000452081
-0.000548829
-0.000643016
-0.000734085
-0.000821499
-0.000904755
-0.000983386
-0.00105695
-0.00112505
-0.00118728
-0.0012433
-0.0012928
-0.00133546
-0.00137103
-0.00139927
-0.00141995
-0.00143289
-0.0014379
-0.00143485
-0.00142362
-0.00140408
-0.00137615
-0.00133975
-0.00129481
-0.00124131
-0.00117919
-0.00110845
-0.00102909
-0.000941121
-0.00084456
-0.000739438
-0.000625811
-0.000503745
-0.000373302
-0.000234558
-8.76008e-05
6.74652e-05
0.00023053
0.000401486
0.000580215
0.000766569
0.000960389
0.00116152
0.0013698
0.00158505
0.00180709
0.00203569
0.00227067
0.00251183
0.00275893
0.00301176
0.00327004
0.00353353
0.00380197
0.0040751
0.0043526
0.0046342
0.00491958
0.00520846
0.0055005
0.00579539
0.00609278
0.00639233
0.00669368
0.00699649
0.00730036
0.00760493
0.00790981
0.00821461
0.00851895
0.00882244
0.00912466
0.0094252
0.00972362
0.0100195
0.0103126
0.0106022
0.0108882
0.01117
0.0114472
0.0117194
0.0119863
0.0122474
0.0125024
0.0127508
0.0129923
0.0132265
0.0134531
0.0136717
0.013882
0.0140837
0.0142764
0.01446
0.0146341
0.0147985
0.014953
0.0150974
0.0152315
0.0153551
0.0154682
0.0155706
0.0156622
0.0157431
0.0158132
0.0158724
0.0159209
0.0159588
0.0159861
0.0160029
0.0160095
0.016006
0.0159927
0.0159699
0.0159378
0.0158968
0.0158472
0.0157894
0.0157239
0.0156512
0.0155717
0.0154859
0.0153945
0.0152979
0.0151968
0.0150918
0.0149836
0.0148729
0.0147603
0.0146466
0.0145326
0.0144189
0.0143064
0.0141957
0.0140878
0.0139833
0.013883
0.0137875
0.0136977
0.0136141
0.0135376
0.0134687
0.0134081
0.0133565
0.0133128
0.0132751
0.001051
0.000966307
0.000886156
0.000805899
0.000720675
0.000631263
0.000538501
0.000442873
0.000344895
0.000245154
0.00014423
4.27204e-05
-5.87819e-05
-0.000159683
-0.000259391
-0.000357348
-0.000453006
-0.000545832
-0.000635319
-0.000720979
-0.000802356
-0.000879018
-0.000950562
-0.00101661
-0.00107682
-0.00113085
-0.00117842
-0.00121923
-0.00125305
-0.00127965
-0.00129882
-0.00131039
-0.0013142
-0.0013101
-0.00129799
-0.00127775
-0.00124929
-0.00121256
-0.00116749
-0.00111404
-0.00105217
-0.000981877
-0.000903155
-0.000816021
-0.000720488
-0.000616587
-0.000504376
-0.000383919
-0.000255269
-0.000118494
2.63034e-05
0.000179025
0.000339582
0.000507869
0.000683761
0.00086711
0.00105777
0.00125561
0.00146045
0.00167212
0.00189043
0.00211518
0.0023462
0.00258328
0.0028262
0.00307473
0.00332862
0.00358764
0.00385152
0.00412001
0.00439282
0.00466964
0.00495021
0.00523421
0.00552135
0.00581129
0.00610371
0.00639826
0.00669461
0.00699241
0.00729127
0.00759083
0.00789071
0.00819055
0.00848996
0.00878855
0.00908592
0.00938164
0.00967531
0.00996656
0.010255
0.0105401
0.0108216
0.0110991
0.011372
0.0116401
0.011903
0.0121602
0.0124113
0.0126561
0.012894
0.0131249
0.0133482
0.0135637
0.0137711
0.01397
0.0141601
0.0143412
0.0145131
0.0146754
0.014828
0.0149706
0.0151031
0.0152254
0.0153373
0.0154387
0.0155295
0.0156097
0.0156794
0.0157384
0.0157868
0.0158248
0.0158523
0.0158696
0.0158768
0.0158741
0.0158618
0.0158401
0.0158092
0.0157695
0.0157214
0.0156651
0.0156013
0.0155303
0.0154526
0.0153686
0.015279
0.0151841
0.0150848
0.0149814
0.0148748
0.0147655
0.0146541
0.0145415
0.0144282
0.0143149
0.0142024
0.0140914
0.0139827
0.0138768
0.0137744
0.0136763
0.0135831
0.0134954
0.0134138
0.0133388
0.0132711
0.0132115
0.0131575
0.0131067
0.00122117
0.001121
0.00102885
0.000938996
0.000845352
0.000748675
0.000649782
0.000549045
0.000446897
0.000343833
0.000240358
0.000136979
3.42249e-05
-6.73826e-05
-0.000167332
-0.000265121
-0.000360258
-0.000452266
-0.000540692
-0.0006251
-0.000705073
-0.000780219
-0.000850167
-0.000914577
-0.00097313
-0.00102552
-0.00107148
-0.00111074
-0.00114308
-0.00116829
-0.00118618
-0.00119659
-0.00119936
-0.00119438
-0.00118152
-0.0011607
-0.00113184
-0.00109486
-0.00104972
-0.000996368
-0.000934781
-0.000864956
-0.000786886
-0.00070057
-0.000606037
-0.000503332
-0.000392496
-0.000273577
-0.000146639
-1.17627e-05
0.000130964
0.000281456
0.000439629
0.000605371
0.000778557
0.000959052
0.00114672
0.00134143
0.00154301
0.00175128
0.00196607
0.00218719
0.00241447
0.0026477
0.00288667
0.00313115
0.00338091
0.00363572
0.00389533
0.00415946
0.00442785
0.00470021
0.00497626
0.00525572
0.00553827
0.0058236
0.00611138
0.00640129
0.006693
0.00698614
0.00728035
0.00757527
0.00787055
0.0081658
0.00846066
0.00875474
0.00904763
0.00933894
0.00962826
0.00991522
0.0101994
0.0104804
0.0107579
0.0110314
0.0113005
0.0115648
0.011824
0.0120776
0.0123254
0.0125668
0.0128015
0.0130293
0.0132497
0.0134625
0.0136672
0.0138636
0.0140514
0.0142303
0.0144001
0.0145605
0.0147114
0.0148524
0.0149836
0.0151046
0.0152154
0.0153159
0.015406
0.0154856
0.0155548
0.0156135
0.0156618
0.0156998
0.0157276
0.0157452
0.0157529
0.0157508
0.0157392
0.0157183
0.0156884
0.0156497
0.0156027
0.0155477
0.0154851
0.0154154
0.015339
0.0152564
0.015168
0.0150744
0.0149762
0.014874
0.0147683
0.0146598
0.0145491
0.0144367
0.0143235
0.01421
0.0140969
0.0139849
0.0138746
0.0137666
0.0136617
0.0135603
0.0134631
0.0133706
0.0132834
0.0132018
0.0131267
0.0130586
0.0129941
0.0129298
0.00139462
0.00127901
0.00117471
0.00107502
0.000972657
0.000868345
0.000762882
0.000656573
0.000549763
0.00044286
0.000336294
0.000230507
0.000125954
2.30848e-05
-7.76468e-05
-0.000175796
-0.000270932
-0.000362625
-0.000450473
-0.000534092
-0.0006131
-0.000687146
-0.000755902
-0.000819053
-0.000876302
-0.000927377
-0.000972028
-0.00101002
-0.00104115
-0.0010652
-0.00108203
-0.00109147
-0.00109339
-0.00108767
-0.00107421
-0.00105292
-0.00102375
-0.000986613
-0.00094146
-0.000888267
-0.000827009
-0.00075767
-0.000680245
-0.000594747
-0.000501207
-0.00039966
-0.000290143
-0.000172707
-4.74209e-05
8.56377e-05
0.000226391
0.000374761
0.000530661
0.000693979
0.000864595
0.00104239
0.00122723
0.00141898
0.00161747
0.00182252
0.00203399
0.00225168
0.00247544
0.00270504
0.00294028
0.00318096
0.00342684
0.00367771
0.0039333
0.00419336
0.00445762
0.00472581
0.00499766
0.00527288
0.00555116
0.0058322
0.00611569
0.0064013
0.0066887
0.00697754
0.00726746
0.0075581
0.00784914
0.00814018
0.00843087
0.0087208
0.0090096
0.00929688
0.00958224
0.00986531
0.0101457
0.0104229
0.0106967
0.0109666
0.0112322
0.0114931
0.011749
0.0119995
0.0122441
0.0124826
0.0127145
0.0129395
0.0131574
0.0133676
0.0135699
0.0137641
0.0139499
0.0141268
0.0142948
0.0144536
0.0146029
0.0147426
0.0148724
0.0149923
0.0151022
0.0152018
0.0152912
0.0153703
0.0154391
0.0154975
0.0155457
0.0155837
0.0156115
0.0156294
0.0156374
0.0156357
0.0156247
0.0156044
0.0155751
0.0155372
0.015491
0.0154369
0.0153752
0.0153064
0.0152309
0.0151491
0.0150616
0.0149688
0.0148713
0.0147696
0.0146643
0.014556
0.0144452
0.0143327
0.0142189
0.0141045
0.0139902
0.0138765
0.0137641
0.0136535
0.0135453
0.01344
0.0133383
0.0132406
0.0131472
0.0130587
0.0129757
0.0128989
0.0128237
0.0127458
0.00156987
0.00143891
0.00132242
0.00121275
0.00110143
0.000989173
0.000876803
0.00076454
0.000652636
0.000541447
0.000431331
0.000322659
0.00021582
0.000111205
9.20585e-06
-8.97841e-05
-0.000185389
-0.00027723
-0.00036495
-0.000448205
-0.00052666
-0.000600001
-0.000667934
-0.000730172
-0.000786448
-0.000836519
-0.000880157
-0.000917148
-0.000947294
-0.000970427
-0.000986393
-0.000995057
-0.000996286
-0.000989979
-0.000976053
-0.000954427
-0.000925034
-0.000887816
-0.000842726
-0.000789741
-0.000728842
-0.00066001
-0.000583241
-0.000498556
-0.00040599
-0.000305568
-0.000197325
-8.13179e-05
4.23802e-05
0.000173699
0.000312572
0.000458924
0.00061266
0.000773671
0.000941851
0.00111709
0.00129925
0.0014882
0.00168377
0.00188579
0.00209413
0.00230861
0.00252904
0.00275523
0.00298698
0.00322409
0.00346635
0.00371353
0.00396537
0.00422163
0.00448205
0.00474636
0.0050143
0.00528558
0.0055599
0.00583697
0.00611649
0.00639814
0.00668157
0.00696645
0.00725242
0.00753915
0.0078263
0.00811351
0.00840037
0.00868654
0.00897162
0.00925524
0.00953702
0.00981656
0.0100935
0.0103674
0.0106378
0.0109045
0.011167
0.0114249
0.0116778
0.0119255
0.0121674
0.0124032
0.0126326
0.0128552
0.0130707
0.0132788
0.0134791
0.0136713
0.0138552
0.0140305
0.0141969
0.0143542
0.0145021
0.0146406
0.0147694
0.0148883
0.0149973
0.0150962
0.015185
0.0152636
0.015332
0.0153901
0.0154382
0.015476
0.0155039
0.0155218
0.01553
0.0155287
0.0155179
0.0154981
0.0154693
0.0154319
0.0153862
0.0153326
0.0152715
0.0152032
0.0151282
0.0150469
0.0149597
0.0148672
0.0147699
0.0146682
0.0145628
0.0144542
0.0143429
0.0142295
0.0141146
0.0139988
0.0138827
0.0137668
0.0136517
0.0135379
0.0134259
0.0133163
0.0132096
0.0131061
0.0130063
0.0129105
0.0128193
0.0127335
0.0126475
0.012556
0.00174556
0.00159939
0.00147075
0.00135101
0.00123056
0.00111015
0.000990599
0.000872049
0.000754704
0.000638839
0.000524764
0.000412784
0.00030323
0.000196437
9.27393e-05
-7.52158e-06
-0.000104019
-0.000196426
-0.000284424
-0.000367708
-0.00044599
-0.000518991
-0.000586443
-0.000648095
-0.000703709
-0.000753068
-0.000795962
-0.000832199
-0.000861609
-0.000884035
-0.000899335
-0.000907396
-0.000908102
-0.000901354
-0.000887085
-0.000865228
-0.000835714
-0.00079849
-0.000753528
-0.000700809
-0.000640302
-0.000571991
-0.000495888
-0.00041202
-0.000320408
-0.000221074
-0.000114061
5.62715e-07
0.000122734
0.000252396
0.000389482
0.00053391
0.000685585
0.000844409
0.00101029
0.00118311
0.00136275
0.00154905
0.00174186
0.00194104
0.00214645
0.0023579
0.00257522
0.00279821
0.0030267
0.00326048
0.00349936
0.00374309
0.00399144
0.00424416
0.00450101
0.00476173
0.00502605
0.00529369
0.00556436
0.00583778
0.00611365
0.00639165
0.00667145
0.0069527
0.00723507
0.00751824
0.00780186
0.00808557
0.00836898
0.00865174
0.00893347
0.00921381
0.00949236
0.00976875
0.0100426
0.0103134
0.010581
0.0108448
0.0111045
0.0113598
0.0116101
0.0118552
0.0120948
0.0123283
0.0125555
0.012776
0.0129895
0.0131957
0.0133942
0.0135848
0.0137671
0.0139409
0.014106
0.014262
0.0144088
0.0145462
0.0146741
0.0147922
0.0149004
0.0149987
0.0150869
0.0151651