/*--------------------------------*- C++ -*----------------------------------*\
  =========                 |
  \\      /  F ield         | OpenFOAM: The Open Source CFD Toolbox
   \\    /   O peration     | Website:  https://openfoam.org
    \\  /    A nd           | Version:  7
     \\/     M anipulation  |
\*---------------------------------------------------------------------------*/
FoamFile
{
    version     2.0;
    format      ascii;
    class       surfaceScalarField;
    location    "0.2";
    object      phi;
}
// * * * * * * * * * * * * * * * * * * * * * * * * * * * * * * * * * * * * * //

dimensions      [0 3 -1 0 0 0 0];

internalField   nonuniform List<scalar> 
50880
(
6.55261e-12
-6.55467e-12
3.39901e-11
-2.74381e-11
7.30682e-11
-3.90788e-11
1.13553e-10
-4.04882e-11
1.49089e-10
-3.55329e-11
1.7585e-10
-2.67615e-11
1.9147e-10
-1.56168e-11
1.94461e-10
-2.99485e-12
1.83976e-10
1.04887e-11
1.59534e-10
2.44327e-11
1.20989e-10
3.85474e-11
6.83585e-11
5.26267e-11
1.85646e-12
6.65075e-11
-7.82196e-11
8.00825e-11
-1.71477e-10
9.32568e-11
-2.77453e-10
1.05975e-10
-3.95648e-10
1.18193e-10
-5.25528e-10
1.29876e-10
-6.66527e-10
1.41e-10
-8.18072e-10
1.51547e-10
-9.79579e-10
1.61508e-10
-1.15046e-09
1.70882e-10
-1.33012e-09
1.79667e-10
-1.51799e-09
1.87864e-10
-1.71347e-09
1.95484e-10
-1.91599e-09
2.02529e-10
-2.12501e-09
2.0901e-10
-2.33995e-09
2.14944e-10
-2.56029e-09
2.20336e-10
-2.78549e-09
2.25197e-10
-3.01503e-09
2.29542e-10
-3.24842e-09
2.33384e-10
-3.48516e-09
2.36735e-10
-3.72477e-09
2.39607e-10
-3.96679e-09
2.42016e-10
-4.21076e-09
2.43968e-10
-4.45624e-09
2.45479e-10
-4.70279e-09
2.46559e-10
-4.95001e-09
2.47219e-10
-5.19749e-09
2.47475e-10
-5.44482e-09
2.47332e-10
-5.69162e-09
2.46799e-10
-5.93751e-09
2.45892e-10
-6.18213e-09
2.44621e-10
-6.42513e-09
2.42994e-10
-6.66615e-09
2.41018e-10
-6.90485e-09
2.38703e-10
-7.14091e-09
2.36059e-10
-7.374e-09
2.33089e-10
-7.6038e-09
2.29801e-10
-7.83e-09
2.26206e-10
-8.05231e-09
2.2231e-10
-8.27043e-09
2.18115e-10
-8.48406e-09
2.13628e-10
-8.69292e-09
2.08859e-10
-8.89673e-09
2.03813e-10
-9.09522e-09
1.98492e-10
-9.28812e-09
1.92901e-10
-9.47517e-09
1.8705e-10
-9.65612e-09
1.80946e-10
-9.83071e-09
1.7459e-10
-9.9987e-09
1.67987e-10
-1.01598e-08
1.61144e-10
-1.03139e-08
1.54068e-10
-1.04607e-08
1.46766e-10
-1.05999e-08
1.39241e-10
-1.07314e-08
1.31501e-10
-1.0855e-08
1.23554e-10
-1.09704e-08
1.15403e-10
-1.10774e-08
1.07059e-10
-1.1176e-08
9.85288e-11
-1.12658e-08
8.98209e-11
-1.13467e-08
8.09445e-11
-1.14186e-08
7.1906e-11
-1.14813e-08
6.27122e-11
-1.15347e-08
5.33731e-11
-1.15786e-08
4.39003e-11
-1.16129e-08
3.43063e-11
-1.16375e-08
2.4602e-11
-1.16523e-08
1.47976e-11
-1.16572e-08
4.90583e-12
-1.16522e-08
-5.06165e-12
-1.16371e-08
-1.50915e-11
-1.16119e-08
-2.51669e-11
-1.15766e-08
-3.52748e-11
-1.15312e-08
-4.54041e-11
-1.14757e-08
-5.55383e-11
-1.141e-08
-6.56589e-11
-1.13343e-08
-7.57487e-11
-1.12485e-08
-8.57904e-11
-1.11527e-08
-9.57681e-11
-1.10471e-08
-1.05666e-10
-1.09316e-08
-1.15466e-10
-1.08065e-08
-1.25146e-10
-1.06718e-08
-1.34687e-10
-1.05277e-08
-1.4407e-10
-1.03744e-08
-1.53278e-10
-1.02121e-08
-1.62291e-10
-1.0041e-08
-1.71088e-10
-9.86139e-09
-1.79646e-10
-9.67344e-09
-1.87949e-10
-9.47747e-09
-1.95978e-10
-9.27376e-09
-2.03712e-10
-9.06263e-09
-2.11129e-10
-8.84442e-09
-2.18211e-10
-8.61948e-09
-2.24939e-10
-8.38818e-09
-2.31291e-10
-8.15094e-09
-2.37249e-10
-7.90814e-09
-2.42795e-10
-7.66023e-09
-2.47911e-10
-7.40765e-09
-2.52579e-10
-7.15087e-09
-2.56784e-10
-6.89036e-09
-2.60507e-10
-6.62663e-09
-2.63734e-10
-6.36018e-09
-2.66449e-10
-6.09154e-09
-2.68637e-10
-5.82126e-09
-2.70284e-10
-5.54988e-09
-2.71378e-10
-5.27797e-09
-2.71912e-10
-5.0061e-09
-2.71872e-10
-4.73485e-09
-2.71248e-10
-4.46482e-09
-2.7003e-10
-4.1966e-09
-2.68213e-10
-3.93082e-09
-2.6579e-10
-3.66806e-09
-2.62757e-10
-3.40895e-09
-2.59114e-10
-3.15408e-09
-2.54861e-10
-2.90409e-09
-2.49998e-10
-2.65956e-09
-2.44525e-10
-2.42112e-09
-2.38444e-10
-2.18936e-09
-2.31761e-10
-1.96488e-09
-2.24483e-10
-1.74826e-09
-2.16619e-10
-1.54008e-09
-2.08178e-10
-1.34091e-09
-1.99172e-10
-1.1513e-09
-1.89613e-10
-9.7178e-10
-1.79516e-10
-8.02879e-10
-1.689e-10
-6.4509e-10
-1.57787e-10
-4.98888e-10
-1.46203e-10
-3.64712e-10
-1.34176e-10
-2.42971e-10
-1.2174e-10
-1.34033e-10
-1.08937e-10
-3.82159e-11
-9.58165e-11
4.42171e-11
-8.24341e-11
1.13073e-10
-6.8856e-11
1.68235e-10
-5.51622e-11
2.09689e-10
-4.14536e-11
2.37539e-10
-2.78515e-11
2.52047e-10
-1.45088e-11
2.53668e-10
-1.62179e-12
2.43116e-10
1.05519e-11
2.21446e-10
2.16697e-11
1.90178e-10
3.12678e-11
1.51474e-10
3.87045e-11
1.08385e-10
4.30902e-11
6.51643e-11
4.32199e-11
2.77027e-11
3.74612e-11
3.85006e-12
2.38523e-11
3.85087e-12
2.46845e-11
-3.12387e-11
8.25402e-11
-8.52923e-11
1.57426e-10
-1.1396e-10
2.32879e-10
-1.15943e-10
2.96045e-10
-9.87019e-11
3.37673e-10
-6.83896e-11
3.51267e-10
-2.92156e-11
3.3243e-10
1.58428e-11
2.78268e-10
6.46555e-11
1.87037e-10
1.15667e-10
5.78283e-11
1.67758e-10
-1.09629e-10
2.20074e-10
-3.15106e-10
2.7198e-10
-5.58013e-10
3.22985e-10
-8.37477e-10
3.72723e-10
-1.15241e-09
4.20914e-10
-1.50156e-09
4.67346e-10
-1.88355e-09
5.1187e-10
-2.29693e-09
5.54373e-10
-2.74016e-09
5.9477e-10
-3.21166e-09
6.33013e-10
-3.70986e-09
6.69069e-10
-4.23312e-09
7.02924e-10
-4.77983e-09
7.3458e-10
-5.3484e-09
7.64047e-10
-5.93721e-09
7.91342e-10
-6.54469e-09
8.16497e-10
-7.16929e-09
8.39542e-10
-7.80946e-09
8.60513e-10
-8.46371e-09
8.79451e-10
-9.13057e-09
8.96401e-10
-9.80858e-09
9.11403e-10
-1.04963e-08
9.24506e-10
-1.11925e-08
9.35751e-10
-1.18957e-08
9.45186e-10
-1.26045e-08
9.52854e-10
-1.33179e-08
9.588e-10
-1.40344e-08
9.63066e-10
-1.47529e-08
9.657e-10
-1.54721e-08
9.66744e-10
-1.6191e-08
9.66232e-10
-1.69084e-08
9.64209e-10
-1.76233e-08
9.60714e-10
-1.83344e-08
9.55781e-10
-1.90409e-08
9.49445e-10
-1.97416e-08
9.41743e-10
-2.04356e-08
9.32707e-10
-2.11219e-08
9.22366e-10
-2.17996e-08
9.10749e-10
-2.24677e-08
8.9789e-10
-2.31253e-08
8.83816e-10
-2.37715e-08
8.68549e-10
-2.44055e-08
8.52115e-10
-2.50264e-08
8.34538e-10
-2.56334e-08
8.15846e-10
-2.62257e-08
7.96062e-10
-2.68024e-08
7.75206e-10
-2.73628e-08
7.533e-10
-2.79061e-08
7.30366e-10
-2.84316e-08
7.06429e-10
-2.89385e-08
6.81509e-10
-2.94261e-08
6.55631e-10
-2.98938e-08
6.28818e-10
-3.03408e-08
6.01092e-10
-3.07665e-08
5.72479e-10
-3.11703e-08
5.43002e-10
-3.15515e-08
5.12687e-10
-3.19095e-08
4.81564e-10
-3.22437e-08
4.49657e-10
-3.25537e-08
4.16993e-10
-3.28387e-08
3.83604e-10
-3.30984e-08
3.49522e-10
-3.33323e-08
3.14783e-10
-3.35398e-08
2.79421e-10
-3.37206e-08
2.43469e-10
-3.38742e-08
2.06964e-10
-3.40002e-08
1.69946e-10
-3.40984e-08
1.32458e-10
-3.41683e-08
9.45478e-11
-3.42098e-08
5.6259e-11
-3.42225e-08
1.76362e-11
-3.42063e-08
-2.12702e-11
-3.4161e-08
-6.04068e-11
-3.40864e-08
-9.97172e-11
-3.39826e-08
-1.39144e-10
-3.38493e-08
-1.78632e-10
-3.36867e-08
-2.18123e-10
-3.34948e-08
-2.57554e-10
-3.32737e-08
-2.96858e-10
-3.30235e-08
-3.35972e-10
-3.27445e-08
-3.74827e-10
-3.24368e-08
-4.13353e-10
-3.21008e-08
-4.51481e-10
-3.17368e-08
-4.89136e-10
-3.13452e-08
-5.26245e-10
-3.09266e-08
-5.62736e-10
-3.04813e-08
-5.98536e-10
-3.00101e-08
-6.33564e-10
-2.95134e-08
-6.67744e-10
-2.8992e-08
-7.00999e-10
-2.84467e-08
-7.33252e-10
-2.78783e-08
-7.64426e-10
-2.72876e-08
-7.94447e-10
-2.66754e-08
-8.23239e-10
-2.60429e-08
-8.50723e-10
-2.53911e-08
-8.76821e-10
-2.47209e-08
-9.0146e-10
-2.40336e-08
-9.24565e-10
-2.33303e-08
-9.46068e-10
-2.26123e-08
-9.659e-10
-2.18809e-08
-9.83995e-10
-2.11374e-08
-1.00029e-09
-2.03832e-08
-1.01471e-09
-1.96197e-08
-1.02721e-09
-1.88484e-08
-1.03772e-09
-1.80709e-08
-1.04619e-09
-1.72886e-08
-1.05257e-09
-1.65032e-08
-1.05682e-09
-1.57162e-08
-1.05889e-09
-1.49293e-08
-1.05874e-09
-1.41442e-08
-1.05634e-09
-1.33626e-08
-1.05166e-09
-1.25861e-08
-1.04467e-09
-1.18166e-08
-1.03534e-09
-1.10557e-08
-1.02367e-09
-1.03051e-08
-1.00966e-09
-9.5667e-09
-9.93287e-10
-8.84213e-09
-9.74566e-10
-8.13315e-09
-9.53504e-10
-7.44149e-09
-9.30114e-10
-6.76883e-09
-9.04414e-10
-6.11688e-09
-8.76433e-10
-5.48729e-09
-8.46209e-10
-4.88169e-09
-8.13783e-10
-4.30166e-09
-7.79203e-10
-3.74874e-09
-7.42527e-10
-3.22444e-09
-7.03822e-10
-2.73016e-09
-6.63171e-10
-2.26729e-09
-6.20663e-10
-1.83708e-09
-5.76406e-10
-1.44073e-09
-5.30523e-10
-1.07931e-09
-4.83162e-10
-7.53754e-10
-4.34492e-10
-4.64862e-10
-3.8471e-10
-2.13248e-10
-3.34047e-10
6.77525e-13
-2.82781e-10
1.76758e-10
-2.31243e-10
3.15132e-10
-1.7983e-10
4.16309e-10
-1.29029e-10
4.81247e-10
-7.94464e-11
5.11464e-10
-3.18392e-11
5.09181e-10
1.28332e-11
4.77508e-10
5.33419e-11
4.20681e-10
8.80951e-11
3.44361e-10
1.15026e-10
2.55968e-10
1.31483e-10
1.65004e-10
1.34184e-10
8.31747e-11
1.19291e-10
2.3819e-11
8.32092e-11
2.76703e-11
3.39068e-11
-6.51462e-11
1.04721e-10
-1.56108e-10
1.90314e-10
-1.99547e-10
2.71165e-10
-1.96792e-10
3.31258e-10
-1.58792e-10
3.58185e-10
-9.53108e-11
3.42692e-10
-1.37164e-11
2.78108e-10
8.04219e-11
1.59827e-10
1.82936e-10
-1.51412e-11
2.90642e-10
-2.48517e-10
4.01139e-10
-5.4101e-10
5.12578e-10
-8.92576e-10
6.23542e-10
-1.30254e-09
7.32948e-10
-1.76976e-09
8.39941e-10
-2.29273e-09
9.43877e-10
-2.86964e-09
1.04426e-09
-3.49849e-09
1.14072e-09
-4.17707e-09
1.23296e-09
-4.90309e-09
1.32079e-09
-5.67415e-09
1.40407e-09
-6.48778e-09
1.4827e-09
-7.34149e-09
1.55663e-09
-8.23276e-09
1.62585e-09
-9.15908e-09
1.69036e-09
-1.01179e-08
1.75018e-09
-1.11068e-08
1.80537e-09
-1.21232e-08
1.85598e-09
-1.31648e-08
1.90209e-09
-1.42291e-08
1.94376e-09
-1.53138e-08
1.98109e-09
-1.64166e-08
2.01416e-09
-1.75351e-08
2.04306e-09
-1.86673e-08
2.06789e-09
-1.98108e-08
2.08874e-09
-2.09637e-08
2.1057e-09
-2.21238e-08
2.11887e-09
-2.3289e-08
2.12835e-09
-2.44575e-08
2.13421e-09
-2.56274e-08
2.13656e-09
-2.67966e-08
2.13547e-09
-2.79634e-08
2.13104e-09
-2.91261e-08
2.12335e-09
-3.02828e-08
2.11247e-09
-3.14318e-08
2.09849e-09
-3.25715e-08
2.08148e-09
-3.37003e-08
2.0615e-09
-3.48166e-08
2.03863e-09
-3.59188e-08
2.01293e-09
-3.70053e-08
1.98446e-09
-3.80748e-08
1.9533e-09
-3.91258e-08
1.91949e-09
-4.01567e-08
1.88309e-09
-4.11664e-08
1.84416e-09
-4.21533e-08
1.80275e-09
-4.31161e-08
1.75891e-09
-4.40536e-08
1.7127e-09
-4.49645e-08
1.66417e-09
-4.58475e-08
1.61337e-09
-4.67014e-08
1.56034e-09
-4.7525e-08
1.50513e-09
-4.83172e-08
1.44781e-09
-4.90768e-08
1.38842e-09
-4.98027e-08
1.32701e-09
-5.04939e-08
1.26364e-09
-5.11493e-08
1.19837e-09
-5.17678e-08
1.13125e-09
-5.23486e-08
1.06235e-09
-5.28907e-08
9.91721e-10
-5.33931e-08
9.19433e-10
-5.38551e-08
8.45552e-10
-5.42757e-08
7.70149e-10
-5.46542e-08
6.93299e-10
-5.49899e-08
6.15081e-10
-5.5282e-08
5.35576e-10
-5.55299e-08
4.54864e-10
-5.5733e-08
3.73037e-10
-5.58907e-08
2.90189e-10
-5.60026e-08
2.06419e-10
-5.60681e-08
1.2183e-10
-5.6087e-08
3.65235e-11
-5.60589e-08
-4.93895e-11
-5.59835e-08
-1.35792e-10
-5.58607e-08
-2.22563e-10
-5.56902e-08
-3.09581e-10
-5.54722e-08
-3.96714e-10
-5.52065e-08
-4.83831e-10
-5.48932e-08
-5.70796e-10
-5.45326e-08
-6.57465e-10
-5.41249e-08
-7.43696e-10
-5.36704e-08
-8.29342e-10
-5.31695e-08
-9.14249e-10
-5.26227e-08
-9.98259e-10
-5.20306e-08
-1.08122e-09
-5.13939e-08
-1.16296e-09
-5.07133e-08
-1.24332e-09
-4.99897e-08
-1.32214e-09
-4.9224e-08
-1.39926e-09
-4.84173e-08
-1.4745e-09
-4.75706e-08
-1.54769e-09
-4.66852e-08
-1.61866e-09
-4.57623e-08
-1.68726e-09
-4.48035e-08
-1.7533e-09
-4.38101e-08
-1.81662e-09
-4.27838e-08
-1.87706e-09
-4.17261e-08
-1.93444e-09
-4.0639e-08
-1.98862e-09
-3.95241e-08
-2.03941e-09
-3.83835e-08
-2.08668e-09
-3.72192e-08
-2.13028e-09
-3.60331e-08
-2.17004e-09
-3.48275e-08
-2.20585e-09
-3.36047e-08
-2.23755e-09
-3.23669e-08
-2.26501e-09
-3.11165e-08
-2.28812e-09
-2.98559e-08
-2.30676e-09
-2.85877e-08
-2.32081e-09
-2.73143e-08
-2.33017e-09
-2.60385e-08
-2.33477e-09
-2.47627e-08
-2.33451e-09
-2.34897e-08
-2.32931e-09
-2.22223e-08
-2.31912e-09
-2.09631e-08
-2.30387e-09
-1.97149e-08
-2.28354e-09
-1.84805e-08
-2.25809e-09
-1.72626e-08
-2.2275e-09
-1.60641e-08
-2.19177e-09
-1.48878e-08
-2.15092e-09
-1.37363e-08
-2.10495e-09
-1.26125e-08
-2.05391e-09
-1.15191e-08
-1.99784e-09
-1.04587e-08
-1.93682e-09
-9.43404e-09
-1.87091e-09
-8.4476e-09
-1.80023e-09
-7.50192e-09
-1.72488e-09
-6.59943e-09
-1.64501e-09
-5.74248e-09
-1.56078e-09
-4.93328e-09
-1.47237e-09
-4.17395e-09
-1.37999e-09
-3.46645e-09
-1.2839e-09
-2.81259e-09
-1.18439e-09
-2.21397e-09
-1.08178e-09
-1.67199e-09
-9.76468e-10
-1.1878e-09
-8.68899e-10
-7.62249e-10
-7.59602e-10
-3.95832e-10
-6.49199e-10
-8.86471e-11
-5.38429e-10
1.59701e-10
-4.28178e-10
3.50189e-10
-3.19517e-10
4.84495e-10
-2.13754e-10
5.65152e-10
-1.12497e-10
5.95724e-10
-1.77379e-11
5.81031e-10
6.80369e-11
5.27407e-10
1.41718e-10
4.42997e-10
1.99434e-10
3.38044e-10
2.36436e-10
2.25123e-10
2.47107e-10
1.1919e-10
2.25224e-10
3.7379e-11
1.65021e-10
6.5049e-11
3.61126e-11
-1.01259e-10
1.06707e-10
-2.26707e-10
1.85397e-10
-2.78238e-10
2.50729e-10
-2.62123e-10
2.85082e-10
-1.9315e-10
2.74404e-10
-8.46373e-11
2.07855e-10
5.28379e-11
7.72927e-11
2.10983e-10
-1.23101e-10
3.83329e-10
-3.97287e-10
5.64817e-10
-7.47655e-10
7.51508e-10
-1.17539e-09
9.40305e-10
-1.68063e-09
1.1288e-09
-2.26276e-09
1.31507e-09
-2.92048e-09
1.49766e-09
-3.65201e-09
1.6754e-09
-4.45514e-09
1.84739e-09
-5.32736e-09
2.01293e-09
-6.2659e-09
2.17151e-09
-7.26783e-09
2.32272e-09
-8.33004e-09
2.46628e-09
-9.44935e-09
2.60201e-09
-1.06225e-08
2.72979e-09
-1.18462e-08
2.84954e-09
-1.31171e-08
2.96125e-09
-1.44319e-08
3.06496e-09
-1.57872e-08
3.16072e-09
-1.71798e-08
3.24861e-09
-1.86065e-08
3.32874e-09
-2.00639e-08
3.40122e-09
-2.1549e-08
3.46619e-09
-2.30586e-08
3.52378e-09
-2.45897e-08
3.57415e-09
-2.61393e-08
3.61744e-09
-2.77044e-08
3.65382e-09
-2.92821e-08
3.68343e-09
-3.08696e-08
3.70644e-09
-3.24643e-08
3.72299e-09
-3.40633e-08
3.73326e-09
-3.56642e-08
3.73737e-09
-3.72642e-08
3.73549e-09
-3.88609e-08
3.72776e-09
-4.04519e-08
3.71431e-09
-4.20347e-08
3.69529e-09
-4.3607e-08
3.67082e-09
-4.51666e-08
3.64103e-09
-4.67111e-08
3.60606e-09
-4.82385e-08
3.566e-09
-4.97465e-08
3.52098e-09
-5.12332e-08
3.47111e-09
-5.26964e-08
3.4165e-09
-5.41342e-08
3.35725e-09
-5.55445e-08
3.29346e-09
-5.69256e-08
3.22522e-09
-5.82755e-08
3.15264e-09
-5.95923e-08
3.07579e-09
-6.08744e-08
2.99479e-09
-6.212e-08
2.90971e-09
-6.33273e-08
2.82065e-09
-6.44946e-08
2.7277e-09
-6.56204e-08
2.63095e-09
-6.67031e-08
2.53048e-09
-6.77411e-08
2.4264e-09
-6.87329e-08
2.3188e-09
-6.9677e-08
2.20777e-09
-7.0572e-08
2.09341e-09
-7.14166e-08
1.97583e-09
-7.22094e-08
1.85514e-09
-7.29491e-08
1.73144e-09
-7.36345e-08
1.60484e-09
-7.42645e-08
1.47548e-09
-7.48378e-08
1.34348e-09
-7.53535e-08
1.20896e-09
-7.58105e-08
1.07207e-09
-7.62078e-08
9.32943e-10
-7.65447e-08
7.91733e-10
-7.68203e-08
6.48597e-10
-7.70338e-08
5.03701e-10
-7.71846e-08
3.57215e-10
-7.7272e-08
2.09319e-10
-7.72957e-08
6.01988e-11
-7.72552e-08
-8.9952e-11
-7.715e-08
-2.40931e-10
-7.69801e-08
-3.92527e-10
-7.67451e-08
-5.44527e-10
-7.64451e-08
-6.96705e-10
-7.60801e-08
-8.48828e-10
-7.56503e-08
-1.00066e-09
-7.51558e-08
-1.15194e-09
-7.4597e-08
-1.30244e-09
-7.39745e-08
-1.45189e-09
-7.32887e-08
-1.60002e-09
-7.25404e-08
-1.74657e-09
-7.17304e-08
-1.89126e-09
-7.08595e-08
-2.03381e-09
-6.99289e-08
-2.17393e-09
-6.89397e-08
-2.31135e-09
-6.78932e-08
-2.44577e-09
-6.67908e-08
-2.5769e-09
-6.5634e-08
-2.70445e-09
-6.44246e-08
-2.82812e-09
-6.31642e-08
-2.94763e-09
-6.18548e-08
-3.06268e-09
-6.04985e-08
-3.17297e-09
-5.90973e-08
-3.27824e-09
-5.76535e-08
-3.37818e-09
-5.61696e-08
-3.47251e-09
-5.46481e-08
-3.56097e-09
-5.30915e-08
-3.64328e-09
-5.15026e-08
-3.71919e-09
-4.98842e-08
-3.78844e-09
-4.82392e-08
-3.85079e-09
-4.65708e-08
-3.90599e-09
-4.4882e-08
-3.95384e-09
-4.3176e-08
-3.99412e-09
-4.14561e-08
-4.02662e-09
-3.97258e-08
-4.05116e-09
-3.79884e-08
-4.06757e-09
-3.62474e-08
-4.07569e-09
-3.45066e-08
-4.07538e-09
-3.27694e-08
-4.06652e-09
-3.10395e-08
-4.04901e-09
-2.93206e-08
-4.02274e-09
-2.76165e-08
-3.98766e-09
-2.59309e-08
-3.94371e-09
-2.42675e-08
-3.89088e-09
-2.26301e-08
-3.82917e-09
-2.10224e-08
-3.75857e-09
-1.94482e-08
-3.67915e-09
-1.79112e-08
-3.59097e-09
-1.64149e-08
-3.49412e-09
-1.4963e-08
-3.38873e-09
-1.35589e-08
-3.27493e-09
-1.22062e-08
-3.15293e-09
-1.09082e-08
-3.02292e-09
-9.66804e-09
-2.88517e-09
-8.48885e-09
-2.73997e-09
-7.37356e-09
-2.58765e-09
-6.32493e-09
-2.42862e-09
-5.34552e-09
-2.26331e-09
-4.43765e-09
-2.09226e-09
-3.60338e-09
-1.91604e-09
-2.84448e-09
-1.73537e-09
-2.16234e-09
-1.55104e-09
-1.55796e-09
-1.36398e-09
-1.03188e-09
-1.17529e-09
-5.84052e-10
-9.86253e-10
-2.13818e-10
-7.98412e-10
8.02573e-11
-6.13594e-10
3.00507e-10
-4.34005e-10
4.50324e-10
-2.62313e-10
5.34356e-10
-1.01768e-10
5.58722e-10
4.36714e-11
5.3126e-10
1.69179e-10
4.61783e-10
2.68911e-10
3.62334e-10
3.35887e-10
2.47421e-10
3.62019e-10
1.3425e-10
3.38395e-10
4.31522e-11
2.5612e-10
1.08201e-10
3.2935e-11
-1.3419e-10
9.2298e-11
-2.86072e-10
1.49812e-10
-3.35749e-10
1.83115e-10
-2.9543e-10
1.73914e-10
-1.83943e-10
1.07411e-10
-1.81364e-11
-2.80455e-11
1.88289e-10
-2.41391e-10
4.24332e-10
-5.39218e-10
6.81152e-10
-9.26107e-10
9.51712e-10
-1.40498e-09
1.23038e-09
-1.97735e-09
1.51267e-09
-2.64356e-09
1.79501e-09
-3.40304e-09
2.07456e-09
-4.25442e-09
2.34905e-09
-5.19572e-09
2.6167e-09
-6.22443e-09
2.8761e-09
-7.33765e-09
3.12615e-09
-8.53215e-09
3.36601e-09
-9.80446e-09
3.59503e-09
-1.11509e-08
3.81273e-09
-1.25677e-08
4.01878e-09
-1.40509e-08
4.21296e-09
-1.55964e-08
4.39512e-09
-1.72004e-08
4.56522e-09
-1.88587e-08
4.72326e-09
-2.05673e-08
4.8693e-09
-2.23221e-08
5.00345e-09
-2.41192e-08
5.12582e-09
-2.59546e-08
5.23659e-09
-2.78243e-08
5.33594e-09
-2.97246e-08
5.42405e-09
-3.16516e-08
5.50115e-09
-3.36016e-08
5.56745e-09
-3.5571e-08
5.62317e-09
-3.75561e-08
5.66854e-09
-3.95535e-08
5.7038e-09
-4.15596e-08
5.72917e-09
-4.35712e-08
5.74487e-09
-4.5585e-08
5.75114e-09
-4.75977e-08
5.7482e-09
-4.96062e-08
5.73625e-09
-5.16074e-08
5.71551e-09
-5.35983e-08
5.68619e-09
-5.5576e-08
5.64848e-09
-5.75375e-08
5.60258e-09
-5.94802e-08
5.54867e-09
-6.14011e-08
5.48694e-09
-6.32977e-08
5.41755e-09
-6.51672e-08
5.34068e-09
-6.70072e-08
5.25649e-09
-6.88151e-08
5.16515e-09
-7.05885e-08
5.0668e-09
-7.23248e-08
4.9616e-09
-7.40219e-08
4.84969e-09
-7.56773e-08
4.73122e-09
-7.72889e-08
4.60634e-09
-7.88543e-08
4.47517e-09
-8.03715e-08
4.33787e-09
-8.18384e-08
4.19458e-09
-8.32529e-08
4.04544e-09
-8.4613e-08
3.89058e-09
-8.59168e-08
3.73016e-09
-8.71623e-08
3.56433e-09
-8.83478e-08
3.39323e-09
-8.94714e-08
3.21702e-09
-9.05314e-08
3.03587e-09
-9.15262e-08
2.84993e-09
-9.24542e-08
2.65939e-09
-9.33137e-08
2.46442e-09
-9.41035e-08
2.26521e-09
-9.48219e-08
2.06196e-09
-9.54679e-08
1.85487e-09
-9.60399e-08
1.64415e-09
-9.6537e-08
1.43002e-09
-9.6958e-08
1.21272e-09
-9.73019e-08
9.92494e-10
-9.75678e-08
7.69593e-10
-9.77549e-08
5.44284e-10
-9.78624e-08
3.16839e-10
-9.78897e-08
8.75481e-11
-9.78364e-08
-1.43287e-10
-9.7702e-08
-3.75357e-10
-9.74862e-08
-6.0834e-10
-9.71888e-08
-8.41903e-10
-9.68098e-08
-1.0757e-09
-9.63492e-08
-1.30938e-09
-9.58073e-08
-1.54257e-09
-9.51844e-08
-1.77489e-09
-9.44808e-08
-2.00597e-09
-9.36973e-08
-2.2354e-09
-9.28346e-08
-2.46277e-09
-9.18935e-08
-2.68768e-09
-9.0875e-08
-2.90971e-09
-8.97804e-08
-3.12842e-09
-8.86109e-08
-3.34339e-09
-8.73681e-08
-3.55418e-09
-8.60535e-08
-3.76035e-09
-8.4669e-08
-3.96144e-09
-8.32164e-08
-4.15703e-09
-8.16979e-08
-4.34665e-09
-8.01157e-08
-4.52986e-09
-7.84721e-08
-4.70622e-09
-7.67698e-08
-4.87529e-09
-7.50114e-08
-5.03663e-09
-7.31998e-08
-5.1898e-09
-7.13379e-08
-5.33438e-09
-6.94289e-08
-5.46996e-09
-6.74761e-08
-5.59611e-09
-6.54828e-08
-5.71246e-09
-6.34527e-08
-5.81861e-09
-6.13893e-08
-5.91419e-09
-5.92964e-08
-5.99885e-09
-5.7178e-08
-6.07225e-09
-5.5038e-08
-6.13408e-09
-5.28806e-08
-6.18401e-09
-5.071e-08
-6.22179e-09
-4.85304e-08
-6.24714e-09
-4.63463e-08
-6.25984e-09
-4.4162e-08
-6.25967e-09
-4.19821e-08
-6.24646e-09
-3.9811e-08
-6.22003e-09
-3.76535e-08
-6.18026e-09
-3.55141e-08
-6.12706e-09
-3.33974e-08
-6.06036e-09
-3.13082e-08
-5.98013e-09
-2.9251e-08
-5.88637e-09
-2.72305e-08
-5.7791e-09
-2.52512e-08
-5.65842e-09
-2.33178e-08
-5.52442e-09
-2.14346e-08
-5.37727e-09
-1.96062e-08
-5.21715e-09
-1.78368e-08
-5.04431e-09
-1.61307e-08
-4.85905e-09
-1.44919e-08
-4.6617e-09
-1.29244e-08
-4.45268e-09
-1.14319e-08
-4.23245e-09
-1.00181e-08
-4.00155e-09
-8.68608e-09
-3.76059e-09
-7.43909e-09
-3.5103e-09
-6.27987e-09
-3.25148e-09
-5.21083e-09
-2.98508e-09
-4.23403e-09
-2.71217e-09
-3.35108e-09
-2.43399e-09
-2.56308e-09
-2.15198e-09
-1.87053e-09
-1.86783e-09
-1.27329e-09
-1.58349e-09
-7.7043e-10
-1.30128e-09
-3.60111e-10
-1.02391e-09
-3.94673e-11
-7.54649e-10
1.95575e-10
-4.97355e-10
3.50475e-10
-2.56667e-10
4.32283e-10
-3.81359e-11
4.49862e-10
1.51601e-10
4.14114e-10
3.04659e-10
3.38228e-10
4.11773e-10
2.37973e-10
4.62272e-10
1.32105e-10
4.44263e-10
4.31545e-11
3.45071e-10
1.51355e-10
2.574e-11
-1.59931e-10
6.51522e-11
-3.25484e-10
9.00504e-11
-3.60644e-10
7.81399e-11
-2.83523e-10
1.11349e-11
-1.16936e-10
-1.25864e-10
1.18862e-10
-3.44759e-10
4.07188e-10
-6.54808e-10
7.34382e-10
-1.06297e-09
1.08931e-09
-1.57417e-09
1.46292e-09
-2.19163e-09
1.84784e-09
-2.91708e-09
2.23812e-09
-3.751e-09
2.62893e-09
-4.69284e-09
3.01639e-09
-5.74116e-09
3.39737e-09
-6.89383e-09
3.76936e-09
-8.1481e-09
4.13037e-09
-9.50075e-09
4.4788e-09
-1.09482e-08
4.81343e-09
-1.24864e-08
5.1333e-09
-1.41114e-08
5.43769e-09
-1.58187e-08
5.72608e-09
-1.76038e-08
5.9981e-09
-1.94622e-08
6.25352e-09
-2.13893e-08
6.49222e-09
-2.33802e-08
6.71417e-09
-2.54303e-08
6.91941e-09
-2.75349e-08
7.10805e-09
-2.96893e-08
7.28025e-09
-3.18889e-08
7.4362e-09
-3.41291e-08
7.57613e-09
-3.64054e-08
7.7003e-09
-3.87132e-08
7.80898e-09
-4.10482e-08
7.90246e-09
-4.34061e-08
7.98104e-09
-4.57826e-08
8.04503e-09
-4.81735e-08
8.09473e-09
-5.05748e-08
8.13046e-09
-5.29824e-08
8.15252e-09
-5.53925e-08
8.16123e-09
-5.78012e-08
8.15688e-09
-6.02047e-08
8.13978e-09
-6.25994e-08
8.11022e-09
-6.49817e-08
8.06847e-09
-6.7348e-08
8.01483e-09
-6.9695e-08
7.94954e-09
-7.20192e-08
7.87289e-09
-7.43174e-08
7.78511e-09
-7.65863e-08
7.68647e-09
-7.88228e-08
7.57719e-09
-8.10238e-08
7.45751e-09
-8.31863e-08
7.32765e-09
-8.53074e-08
7.18783e-09
-8.7384e-08
7.03828e-09
-8.94135e-08
6.87919e-09
-9.13931e-08
6.71078e-09
-9.332e-08
6.53325e-09
-9.51916e-08
6.34681e-09
-9.70054e-08
6.15165e-09
-9.87588e-08
5.94799e-09
-1.00449e-07
5.73602e-09
-1.02075e-07
5.51595e-09
-1.03633e-07
5.28799e-09
-1.05121e-07
5.05235e-09
-1.06537e-07
4.80926e-09
-1.07879e-07
4.55893e-09
-1.09144e-07
4.3016e-09
-1.10332e-07
4.03752e-09
-1.11439e-07
3.76691e-09
-1.12465e-07
3.49005e-09
-1.13407e-07
3.20721e-09
-1.14264e-07
2.91866e-09
-1.15034e-07
2.6247e-09
-1.15715e-07
2.32563e-09
-1.16307e-07
2.02177e-09
-1.16808e-07
1.71345e-09
-1.17216e-07
1.40103e-09
-1.17531e-07
1.08485e-09
-1.17752e-07
7.65307e-10
-1.17878e-07
4.42786e-10
-1.17908e-07
1.17697e-10
-1.17842e-07
-2.09535e-10
-1.17679e-07
-5.38468e-10
-1.17419e-07
-8.68648e-10
-1.17061e-07
-1.1996e-09
-1.16606e-07
-1.53083e-09
-1.16054e-07
-1.86185e-09
-1.15404e-07
-2.19212e-09
-1.14658e-07
-2.52113e-09
-1.13815e-07
-2.84832e-09
-1.12878e-07
-3.17313e-09
-1.11845e-07
-3.495e-09
-1.1072e-07
-3.81334e-09
-1.09502e-07
-4.12755e-09
-1.08193e-07
-4.43704e-09
-1.06795e-07
-4.7412e-09
-1.0531e-07
-5.03941e-09
-1.0374e-07
-5.33104e-09
-1.02086e-07
-5.61548e-09
-1.0035e-07
-5.8921e-09
-9.85368e-08
-6.16026e-09
-9.66473e-08
-6.41935e-09
-9.46848e-08
-6.66872e-09
-9.26524e-08
-6.90778e-09
-9.05531e-08
-7.13589e-09
-8.83905e-08
-7.35245e-09
-8.6168e-08
-7.55687e-09
-8.38894e-08
-7.74855e-09
-8.15586e-08
-7.92694e-09
-7.91795e-08
-8.09147e-09
-7.67565e-08
-8.2416e-09
-7.42939e-08
-8.37682e-09
-7.17961e-08
-8.49663e-09
-6.92678e-08
-8.60057e-09
-6.67137e-08
-8.68817e-09
-6.41387e-08
-8.75901e-09
-6.15478e-08
-8.81272e-09
-5.8946e-08
-8.84894e-09
-5.63385e-08
-8.86733e-09
-5.37306e-08
-8.8676e-09
-5.11275e-08
-8.84951e-09
-4.85347e-08
-8.81283e-09
-4.59576e-08
-8.7574e-09
-4.34016e-08
-8.68308e-09
-4.08721e-08
-8.5898e-09
-3.83748e-08
-8.4775e-09
-3.59149e-08
-8.3462e-09
-3.34981e-08
-8.19597e-09
-3.11296e-08
-8.0269e-09
-2.88148e-08
-7.83919e-09
-2.6559e-08
-7.63305e-09
-2.43674e-08
-7.40877e-09
-2.2245e-08
-7.16672e-09
-2.01967e-08
-6.90732e-09
-1.82274e-08
-6.63108e-09
-1.63414e-08
-6.3386e-09
-1.45433e-08
-6.03054e-09
-1.28372e-08
-5.7077e-09
-1.12268e-08
-5.37098e-09
-9.7157e-09
-5.0214e-09
-8.30705e-09
-4.66014e-09
-7.0036e-09
-4.28853e-09
-5.80764e-09
-3.90812e-09
-4.72095e-09
-3.52068e-09
-3.74471e-09
-3.12823e-09
-2.87941e-09
-2.73313e-09
-2.1248e-09
-2.3381e-09
-1.47972e-09
-1.94635e-09
-9.42044e-10
-1.56159e-09
-5.08489e-10
-1.1882e-09
-1.74488e-10
-8.31356e-10
6.59878e-11
-4.97141e-10
2.20609e-10
-1.92757e-10
2.9889e-10
7.33195e-11
3.12402e-10
2.91148e-10
2.75014e-10
4.4916e-10
2.03238e-10
5.34048e-10
1.16706e-10
5.30794e-10
3.90419e-11
4.22734e-10
1.90396e-10
1.57605e-11
-1.75689e-10
2.86943e-11
-3.3842e-10
1.20815e-11
-3.44028e-10
-5.547e-11
-2.15969e-10
-1.91641e-10
1.9232e-11
-4.10942e-10
3.38171e-10
-7.25111e-10
7.2135e-10
-1.14335e-09
1.15262e-09
-1.67265e-09
1.61862e-09
-2.31805e-09
2.10831e-09
-3.08283e-09
2.61263e-09
-3.96883e-09
3.12411e-09
-4.97655e-09
3.63665e-09
-6.10542e-09
4.14526e-09
-7.35391e-09
4.64587e-09
-8.71974e-09
5.13519e-09
-1.01999e-08
5.61058e-09
-1.17911e-08
6.0699e-09
-1.34891e-08
6.51148e-09
-1.52898e-08
6.93399e-09
-1.71885e-08
7.33644e-09
-1.91805e-08
7.71807e-09
-2.12607e-08
8.07833e-09
-2.34241e-08
8.41688e-09
-2.56654e-08
8.7335e-09
-2.79793e-08
9.02809e-09
-3.03606e-08
9.30069e-09
-3.28039e-08
9.55137e-09
-3.5304e-08
9.78033e-09
-3.78555e-08
9.98777e-09
-4.04534e-08
1.0174e-08
-4.30923e-08
1.03393e-08
-4.57673e-08
1.0484e-08
-4.84733e-08
1.06084e-08
-5.12053e-08
1.07131e-08
-5.39586e-08
1.07982e-08
-5.67282e-08
1.08644e-08
-5.95095e-08
1.09118e-08
-6.2298e-08
1.0941e-08
-6.50891e-08
1.09523e-08
-6.78783e-08
1.09461e-08
-7.06614e-08
1.09229e-08
-7.34342e-08
1.08829e-08
-7.61923e-08
1.08267e-08
-7.89319e-08
1.07544e-08
-8.1649e-08
1.06666e-08
-8.43395e-08
1.05634e-08
-8.69998e-08
1.04454e-08
-8.96261e-08
1.03127e-08
-9.22147e-08
1.01658e-08
-9.47621e-08
1.00049e-08
-9.72647e-08
9.8303e-09
-9.97192e-08
9.64234e-09
-1.02122e-07
9.44129e-09
-1.0447e-07
9.22744e-09
-1.06761e-07
9.00107e-09
-1.0899e-07
8.76245e-09
-1.11155e-07
8.51186e-09
-1.13253e-07
8.24958e-09
-1.15281e-07
7.97588e-09
-1.17236e-07
7.69103e-09
-1.19115e-07
7.39532e-09
-1.20916e-07
7.08904e-09
-1.22636e-07
6.77247e-09
-1.24273e-07
6.4459e-09
-1.25824e-07
6.10966e-09
-1.27286e-07
5.76404e-09
-1.28658e-07
5.40938e-09
-1.29937e-07
5.04602e-09
-1.31121e-07
4.67429e-09
-1.32209e-07
4.29458e-09
-1.33197e-07
3.90725e-09
-1.34085e-07
3.51271e-09
-1.34871e-07
3.11137e-09
-1.35553e-07
2.70365e-09
-1.3613e-07
2.29e-09
-1.36599e-07
1.8709e-09
-1.36961e-07
1.44683e-09
-1.37214e-07
1.0183e-09
-1.37357e-07
5.8584e-10
-1.3739e-07
1.49996e-10
-1.37311e-07
-2.88659e-10
-1.3712e-07
-7.29534e-10
-1.36816e-07
-1.17202e-09
-1.364e-07
-1.61548e-09
-1.35872e-07
-2.05925e-09
-1.35231e-07
-2.50267e-09
-1.34478e-07
-2.94505e-09
-1.33614e-07
-3.38567e-09
-1.32638e-07
-3.8238e-09
-1.31553e-07
-4.25869e-09
-1.30358e-07
-4.68959e-09
-1.29056e-07
-5.11571e-09
-1.27647e-07
-5.53627e-09
-1.26133e-07
-5.95046e-09
-1.24517e-07
-6.35748e-09
-1.228e-07
-6.7565e-09
-1.20984e-07
-7.14668e-09
-1.19073e-07
-7.52721e-09
-1.17068e-07
-7.89725e-09
-1.14972e-07
-8.25596e-09
-1.12789e-07
-8.6025e-09
-1.10521e-07
-8.93604e-09
-1.08173e-07
-9.25577e-09
-1.05748e-07
-9.56086e-09
-1.0325e-07
-9.85051e-09
-1.00683e-07
-1.01239e-08
-9.80515e-08
-1.03803e-08
-9.53595e-08
-1.0619e-08
-9.26119e-08
-1.08391e-08
-8.98135e-08
-1.104e-08
-8.69693e-08
-1.1221e-08
-8.40845e-08
-1.13815e-08
-8.11643e-08
-1.15207e-08
-7.82142e-08
-1.16382e-08
-7.52398e-08
-1.17334e-08
-7.22468e-08
-1.18057e-08
-6.9241e-08
-1.18548e-08
-6.62282e-08
-1.188e-08
-6.32146e-08
-1.18812e-08
-6.02062e-08
-1.18579e-08
-5.72092e-08
-1.18099e-08
-5.42296e-08
-1.17369e-08
-5.12738e-08
-1.16389e-08
-4.8348e-08
-1.15156e-08
-4.54585e-08
-1.13671e-08
-4.26114e-08
-1.11933e-08
-3.9813e-08
-1.09944e-08
-3.70694e-08
-1.07705e-08
-3.43867e-08
-1.05219e-08
-3.17709e-08
-1.02489e-08
-2.92278e-08
-9.95185e-09
-2.67632e-08
-9.63134e-09
-2.43826e-08
-9.28791e-09
-2.20914e-08
-8.92227e-09
-1.98948e-08
-8.53522e-09
-1.77976e-08
-8.12771e-09
-1.58045e-08
-7.70081e-09
-1.39197e-08
-7.25573e-09
-1.21473e-08
-6.79388e-09
-1.04906e-08
-6.31684e-09
-8.95268e-09
-5.82642e-09
-7.53612e-09
-5.32469e-09
-6.2428e-09
-4.81399e-09
-5.07399e-09
-4.29704e-09
-4.03019e-09
-3.77693e-09
-3.11106e-09
-3.25723e-09
-2.31532e-09
-2.7421e-09
-1.6406e-09
-2.23631e-09
-1.08336e-09
-1.74544e-09
-6.387e-10
-1.27601e-09
-3.00248e-10
-8.35593e-10
-5.99635e-11
-4.33043e-10
9.2027e-11
-7.86715e-11
1.67627e-10
2.15547e-10
1.81017e-10
4.35769e-10
1.48989e-10
5.66076e-10
9.14215e-11
5.88361e-10
3.20451e-11
4.82109e-10
2.22441e-10
3.96222e-12
-1.79656e-10
-1.43028e-11
-3.20151e-10
-7.91511e-11
-2.79184e-10
-2.1042e-10
-8.47054e-11
-4.24707e-10
2.33519e-10
-7.35767e-10
6.49233e-10
-1.15478e-09
1.14037e-09
-1.69062e-09
1.68845e-09
-2.35004e-09
2.27804e-09
-3.13794e-09
2.89621e-09
-4.05754e-09
3.53223e-09
-5.11057e-09
4.17715e-09
-6.29749e-09
4.82357e-09
-7.61762e-09
5.46539e-09
-9.06933e-09
6.09758e-09
-1.06502e-08
6.71602e-09
-1.23569e-08
7.31735e-09
-1.41859e-08
7.89887e-09
-1.61328e-08
8.45841e-09
-1.81931e-08
8.99425e-09
-2.03617e-08
9.50505e-09
-2.26335e-08
9.9898e-09
-2.50029e-08
1.04478e-08
-2.74644e-08
1.08784e-08
-3.00123e-08
1.12814e-08
-3.26408e-08
1.16566e-08
-3.53441e-08
1.2004e-08
-3.81163e-08
1.23236e-08
-4.09516e-08
1.26156e-08
-4.38441e-08
1.28803e-08
-4.67881e-08
1.3118e-08
-4.97778e-08
1.3329e-08
-5.28075e-08
1.35137e-08
-5.58717e-08
1.36726e-08
-5.89649e-08
1.38062e-08
-6.20815e-08
1.39149e-08
-6.52162e-08
1.39991e-08
-6.83638e-08
1.40594e-08
-7.15192e-08
1.40963e-08
-7.46771e-08
1.41103e-08
-7.78328e-08
1.41018e-08
-8.09812e-08
1.40713e-08
-8.41177e-08
1.40194e-08
-8.72376e-08
1.39465e-08
-9.03362e-08
1.3853e-08
-9.3409e-08
1.37395e-08
-9.64518e-08
1.36062e-08
-9.94602e-08
1.34537e-08
-1.0243e-07
1.32825e-08