/*--------------------------------*- C++ -*----------------------------------*\
  =========                 |
  \\      /  F ield         | OpenFOAM: The Open Source CFD Toolbox
   \\    /   O peration     | Website:  https://openfoam.org
    \\  /    A nd           | Version:  7
     \\/     M anipulation  |
\*---------------------------------------------------------------------------*/
FoamFile
{
    version     2.0;
    format      ascii;
    class       volScalarField;
    location    "0.2875";
    object      p;
}
// * * * * * * * * * * * * * * * * * * * * * * * * * * * * * * * * * * * * * //

dimensions      [0 2 -2 0 0 0 0];

internalField   nonuniform List<scalar> 
25600
(
-1.55365e-09
1.5158e-05
2.4906e-05
2.13959e-05
3.53178e-06
-2.65188e-05
-6.68126e-05
-0.000115483
-0.000170836
-0.000231368
-0.000295726
-0.000362704
-0.000431248
-0.00050043
-0.000569427
-0.00063753
-0.000704099
-0.000768567
-0.00083045
-0.000889311
-0.000944764
-0.000996465
-0.00104412
-0.00108749
-0.00112637
-0.00116058
-0.00118997
-0.00121442
-0.00123382
-0.00124806
-0.0012571
-0.00126087
-0.00125932
-0.00125242
-0.00124016
-0.00122251
-0.00119949
-0.00117108
-0.00113729
-0.00109815
-0.00105366
-0.00100386
-0.000948764
-0.0008884
-0.000822802
-0.000752009
-0.000676057
-0.000594981
-0.000508827
-0.000417641
-0.000321478
-0.000220388
-0.000114424
-3.64691e-06
0.000111877
0.000232085
0.000356907
0.000486269
0.000620087
0.000758279
0.000900758
0.00104743
0.0011982
0.00135295
0.00151158
0.00167395
0.00183994
0.00200943
0.00218227
0.0023583
0.00253738
0.00271932
0.00290396
0.00309112
0.0032806
0.00347221
0.00366573
0.00386096
0.00405767
0.00425561
0.00445456
0.00465427
0.00485449
0.00505494
0.00525536
0.00545547
0.00565499
0.00585364
0.00605113
0.00624715
0.0064414
0.00663359
0.0068234
0.00701053
0.00719467
0.00737551
0.00755276
0.0077261
0.00789523
0.00805986
0.00821971
0.00837449
0.00852394
0.00866779
0.00880579
0.00893769
0.00906325
0.00918227
0.00929455
0.00939991
0.00949816
0.00958914
0.00967272
0.00974877
0.00981719
0.00987791
0.00993088
0.00997606
0.0100134
0.010043
0.0100648
0.0100788
0.0100853
0.0100842
0.0100758
0.0100602
0.0100376
0.0100082
0.00997215
0.00992983
0.00988151
0.0098275
0.00976813
0.00970377
0.00963481
0.00956166
0.00948476
0.00940459
0.00932164
0.00923645
0.00914958
0.0090616
0.00897314
0.00888483
0.00879735
0.00871141
0.00862776
0.00854716
0.00847044
0.00839847
0.00833214
0.00827239
0.00822018
0.00817644
0.00814208
0.00811784
0.00810408
0.00810052
0.00810574
0.00811535
2.19707e-06
1.67605e-05
2.29301e-05
1.76696e-05
1.31475e-06
-2.51566e-05
-6.04816e-05
-0.000103263
-0.000152146
-0.000205866
-0.000263259
-0.000323267
-0.000384933
-0.000447394
-0.000509895
-0.000571751
-0.000632346
-0.000691139
-0.000747642
-0.000801432
-0.00085213
-0.000899396
-0.000942937
-0.000982498
-0.00101786
-0.00104885
-0.00107532
-0.00109711
-0.00111412
-0.00112625
-0.00113341
-0.00113555
-0.00113261
-0.00112454
-0.00111133
-0.00109296
-0.0010694
-0.00104065
-0.00100672
-0.00096762
-0.000923358
-0.00087395
-0.000819416
-0.000759783
-0.000695079
-0.000625336
-0.000550586
-0.000470868
-0.000386221
-0.000296694
-0.000202332
-0.000103181
7.03268e-07
0.000109256
0.000222409
0.000340105
0.000462283
0.000588864
0.000719766
0.000854905
0.000994193
0.00113754
0.00128484
0.00143601
0.00159091
0.00174943
0.00191144
0.00207682
0.00224542
0.00241711
0.00259171
0.00276905
0.00294899
0.00313133
0.0033159
0.00350249
0.0036909
0.00388092
0.00407233
0.0042649
0.00445842
0.00465263
0.00484728
0.00504212
0.00523689
0.00543132
0.00562515
0.00581809
0.00600987
0.00620019
0.00638877
0.00657531
0.00675954
0.00694113
0.00711981
0.00729528
0.00746724
0.0076354
0.00779949
0.00795921
0.00811429
0.00826448
0.00840951
0.00854913
0.0086831
0.00881118
0.00893316
0.00904884
0.00915803
0.00926057
0.00935627
0.00944499
0.00952659
0.00960096
0.00966803
0.00972772
0.00977998
0.00982478
0.0098621
0.00989195
0.00991436
0.00992941
0.00993719
0.00993782
0.00993144
0.0099182
0.00989828
0.00987189
0.00983926
0.00980066
0.00975636
0.00970668
0.00965195
0.00959252
0.00952876
0.00946107
0.00938988
0.00931565
0.00923886
0.00916001
0.00907965
0.00899833
0.00891663
0.00883518
0.00875459
0.00867554
0.00859871
0.00852484
0.00845465
0.00838894
0.00832848
0.00827408
0.00822654
0.0081866
0.00815492
0.00813199
0.00811795
0.00811248
0.00811534
0.00812495
1.74211e-05
3.02991e-05
3.32438e-05
2.62005e-05
1.00959e-05
-1.45523e-05
-4.69042e-05
-8.589e-05
-0.000130394
-0.000179337
-0.000231717
-0.000286596
-0.000343106
-0.000400467
-0.000457965
-0.000514957
-0.000570869
-0.000625173
-0.000677396
-0.000727123
-0.000773979
-0.00081764
-0.000857816
-0.000894248
-0.000926719
-0.000955048
-0.000979076
-0.000998658
-0.00101367
-0.00102402
-0.0010296
-0.00103036
-0.00102623
-0.00101717
-0.00100315
-0.000984141
-0.000960117
-0.000931071
-0.000897009
-0.000857933
-0.000813846
-0.000764763
-0.000710701
-0.000651682
-0.000587733
-0.000518879
-0.000445147
-0.000366575
-0.000283212
-0.000195098
-0.00010227
-4.77598e-06
9.73297e-05
0.000203983
0.000315118
0.000430675
0.000550593
0.0006748
0.000803216
0.000935755
0.00107233
0.00121284
0.00135721
0.00150532
0.00165706
0.00181231
0.00197095
0.00213285
0.00229788
0.00246588
0.0026367
0.00281018
0.00298615
0.00316444
0.00334487
0.00352724
0.00371136
0.00389701
0.00408399
0.00427208
0.00446105
0.00465066
0.00484067
0.00503084
0.0052209
0.00541061
0.00559971
0.00578792
0.00597496
0.00616056
0.00634444
0.00652632
0.00670592
0.00688295
0.00705712
0.00722815
0.00739575
0.00755965
0.00771958
0.00787526
0.00802643
0.00817283
0.00831423
0.00845038
0.00858104
0.00870599
0.00882502
0.00893796
0.00904462
0.00914483
0.00923843
0.00932528
0.00940526
0.00947826
0.0095442
0.00960303
0.0096547
0.00969916
0.00973643
0.00976649
0.0097894
0.00980523
0.00981407
0.00981603
0.00981127
0.00979992
0.00978218
0.00975823
0.00972831
0.00969267
0.0096516
0.00960539
0.00955438
0.00949888
0.00943928
0.00937595
0.00930932
0.00923982
0.00916791
0.0090941
0.00901889
0.00894282
0.00886645
0.00879035
0.00871513
0.00864141
0.00856985
0.0085011
0.00843585
0.00837481
0.00831868
0.00826817
0.00822397
0.00818671
0.00815694
0.00813507
0.00812123
0.0081153
0.00811818
0.00813016
4.37647e-05
5.3862e-05
5.40413e-05
4.51043e-05
2.83651e-05
4.26686e-06
-2.6561e-05
-6.32559e-05
-0.000104883
-0.000150528
-0.000199303
-0.000250375
-0.000302976
-0.000356389
-0.000409948
-0.000463061
-0.000515183
-0.000565819
-0.000614521
-0.000660874
-0.000704519
-0.000745141
-0.000782456
-0.000816214
-0.000846203
-0.000872238
-0.000894155
-0.00091181
-0.000925078
-0.000933855
-0.000938053
-0.000937591
-0.000932409
-0.000922465
-0.000907718
-0.000888133
-0.000863686
-0.000834369
-0.00080018
-0.000761118
-0.000717182
-0.00066838
-0.000614732
-0.00055626
-0.000492983
-0.00042492
-0.000352101
-0.000274564
-0.000192348
-0.000105495
-1.40436e-05
8.19607e-05
0.000182465
0.000287409
0.00039673
0.000510368
0.000628261
0.000750337
0.000876515
0.00100672
0.00114086
0.00127884
0.00142058
0.00156596
0.00171488
0.00186721
0.00202285
0.00218165
0.0023435
0.00250823
0.0026757
0.00284574
0.0030182
0.00319291
0.00336969
0.00354834
0.00372867
0.00391048
0.00409357
0.00427771
0.00446269
0.00464828
0.00483424
0.00502032
0.00520628
0.00539188
0.00557685
0.00576094
0.00594387
0.00612538
0.00630518
0.00648301
0.00665861
0.00683169
0.00700197
0.00716917
0.00733301
0.00749323
0.00764957
0.00780178
0.00794958
0.00809274
0.00823101
0.00836417
0.00849198
0.00861424
0.00873075
0.00884133
0.00894581
0.00904403
0.00913583
0.00922107
0.00929964
0.00937145
0.00943642
0.00949449
0.00954563
0.00958979
0.00962698
0.0096572
0.0096805
0.00969696
0.00970666
0.00970973
0.00970631
0.00969653
0.00968058
0.00965866
0.00963099
0.00959782
0.00955943
0.00951611
0.00946817
0.00941595
0.00935979
0.00930007
0.00923719
0.00917159
0.0091037
0.00903401
0.00896302
0.00889122
0.00881916
0.00874739
0.00867647
0.008607
0.00853958
0.00847483
0.0084134
0.00835592
0.00830303
0.00825538
0.00821358
0.00817821
0.00814977
0.00812869
0.00811516
0.00810928
0.00811271
0.00812665
7.91919e-05
8.57104e-05
8.29345e-05
7.19096e-05
5.40255e-05
2.97402e-05
-3.84526e-07
-3.56268e-05
-7.52153e-05
-0.000118363
-0.000164294
-0.000212278
-0.000261625
-0.000311685
-0.00036186
-0.00041159
-0.000460367
-0.000507733
-0.000553259
-0.000596556
-0.000637277
-0.00067511
-0.000709784
-0.000741064
-0.00076874
-0.000792627
-0.000812561
-0.000828397
-0.000840014
-0.000847304
-0.000850174
-0.000848546
-0.000842358
-0.000831564
-0.000816116
-0.000795974
-0.000771119
-0.00074154
-0.000707226
-0.000668173
-0.00062438
-0.000575854
-0.000522607
-0.000464661
-0.000402033
-0.000334739
-0.000262809
-0.000186283
-0.000105191
-1.95674e-05
7.05465e-05
0.000165099
0.000264038
0.00036731
0.000474859
0.000586626
0.000702547
0.000822546
0.000946545
0.00107447
0.00120624
0.00134177
0.00148095
0.00162368
0.00176986
0.00191937
0.00207209
0.0022279
0.00238667
0.00254824
0.00271247
0.00287921
0.0030483
0.00321957
0.00339283
0.00356791
0.00374461
0.00392275
0.00410211
0.00428248
0.00446366
0.00464541
0.0048275
0.0050097
0.00519176
0.00537344
0.0055545
0.00573469
0.00591373
0.00609136
0.00626731
0.00644132
0.00661314
0.00678249
0.0069491
0.00711269
0.007273
0.00742976
0.00758274
0.00773167
0.00787632
0.00801643
0.00815176
0.00828211
0.00840726
0.00852699
0.00864114
0.00874951
0.00885195
0.00894829
0.00903838
0.00912211
0.00919936
0.00927005
0.00933409
0.00939144
0.00944206
0.00948592
0.00952301
0.00955335
0.00957699
0.009594
0.00960448
0.00960855
0.00960633
0.00959797
0.00958365
0.00956356
0.00953792
0.00950699
0.00947103
0.00943032
0.00938518
0.00933591
0.00928286
0.0092264
0.00916691
0.00910482
0.00904054
0.00897455
0.00890731
0.00883932
0.00877109
0.00870313
0.00863599
0.00857022
0.00850639
0.00844508
0.00838687
0.00833236
0.00828215
0.00823681
0.0081969
0.00816296
0.00813547
0.00811487
0.00810142
0.00809538
0.00809874
0.00811308
0.000123673
0.000125393
0.000119097
0.000105622
8.60986e-05
6.10144e-05
3.08972e-05
-3.6349e-06
-4.19256e-05
-8.32973e-05
-0.000127088
-0.000172648
-0.000219357
-0.000266643
-0.000313961
-0.000360797
-0.00040668
-0.000451176
-0.000493886
-0.00053445
-0.000572534
-0.000607841
-0.000640112
-0.000669123
-0.000694668
-0.000716568
-0.000734659
-0.000748801
-0.000758873
-0.000764768
-0.000766387
-0.000763659
-0.000756523
-0.000744919
-0.0007288
-0.000708132
-0.00068289
-0.000653059
-0.000618627
-0.000579583
-0.000535927
-0.000487668
-0.000434815
-0.00037738
-0.000315377
-0.000248826
-0.000177761
-0.000102214
-2.22105e-05
6.22189e-05
0.00015103
0.000244173
0.000341596
0.000443249
0.000549077
0.000659027
0.000773033
0.000891021
0.00101291
0.00113864
0.00126812
0.00140126
0.00153797
0.00167815
0.00182169
0.00196848
0.0021184
0.00227134
0.00242715
0.00258569
0.00274682
0.00291039
0.00307625
0.00324423
0.00341414
0.00358582
0.00375907
0.0039337
0.00410952
0.00428633
0.0044639
0.00464201
0.00482044
0.00499897
0.00517735
0.00535535
0.00553273
0.00570924
0.00588462
0.0060586
0.00623094
0.00640138
0.00656967
0.00673553
0.00689871
0.00705892
0.00721592
0.00736947
0.00751931
0.00766519
0.00780689
0.00794416
0.00807677
0.0082045
0.00832717
0.00844456
0.0085565
0.00866282
0.00876335
0.00885794
0.00894645
0.00902876
0.00910478
0.00917441
0.00923758
0.00929424
0.00934436
0.00938791
0.00942489
0.00945532
0.00947924
0.00949673
0.00950789
0.00951282
0.00951167
0.00950457
0.0094917
0.00947325
0.00944944
0.00942051
0.00938672
0.00934835
0.00930569
0.00925906
0.00920878
0.00915522
0.00909875
0.00903977
0.00897869
0.00891596
0.00885204
0.00878738
0.00872248
0.00865784
0.00859395
0.00853135
0.00847056
0.00841212
0.00835659
0.0083045
0.00825641
0.00821285
0.00817433
0.00814136
0.0081144
0.00809389
0.00808014
0.00807351
0.008076
0.00808921
0.000176296
0.000172238
0.000161811
0.000145425
0.000123772
9.73342e-05
6.66036e-05
3.21202e-05
-5.54202e-06
-4.58109e-05
-8.81125e-05
-0.000131874
-0.000176547
-0.000221617
-0.000266593
-0.000311016
-0.000354448
-0.000396483
-0.000436753
-0.000474918
-0.000510668
-0.000543724
-0.000573843
-0.000600807
-0.000624421
-0.000644508
-0.000660912
-0.000673499
-0.000682146
-0.000686746
-0.000687207
-0.000683458
-0.000675435
-0.000663074
-0.000646328
-0.000625167
-0.000599565
-0.000569502
-0.000534959
-0.000495928
-0.000452409
-0.00040441
-0.000351935
-0.000294992
-0.000233595
-0.000167766
-9.7534e-05
-2.29271e-05
5.60296e-05
0.000139305
0.000226856
0.000318638
0.000414601
0.000514696
0.000618869
0.000727068
0.000839229
0.000955279
0.00107515
0.00119876
0.00132604
0.00145691
0.00159125
0.00172898
0.00186999
0.00201418
0.00216143
0.00231162
0.00246462
0.00262028
0.00277846
0.00293903
0.00310183
0.00326669
0.00343344
0.00360189
0.00377188
0.00394322
0.00411571
0.00428916
0.00446334
0.00463804
0.00481305
0.00498814
0.00516308
0.00533764
0.0055116
0.00568468
0.00585665
0.00602724
0.00619623
0.00636335
0.00652836
0.006691
0.00685099
0.00700809
0.00716204
0.00731261
0.00745955
0.00760264
0.00774162
0.00787626
0.00800636
0.00813169
0.00825208
0.00836731
0.00847723
0.00858165
0.00868043
0.0087734
0.00886045
0.00894146
0.00901633
0.00908498
0.00914733
0.00920335
0.00925299
0.00929623
0.00933308
0.00936355
0.0093877
0.00940559
0.00941732
0.00942301
0.00942279
0.00941679
0.00940519
0.00938817
0.00936595
0.00933877
0.00930689
0.00927056
0.00923009
0.00918577
0.00913792
0.0090869
0.00903305
0.00897677
0.00891846
0.00885855
0.00879747
0.00873568
0.00867362
0.00861178
0.00855062
0.00849065
0.00843237
0.00837626
0.00832285
0.00827264
0.00822614
0.00818384
0.00814622
0.00811375
0.00808688
0.00806603
0.00805154
0.00804379
0.00804463
0.00805546
0.00023586
0.000225319
0.000210226
0.000190483
0.000166239
0.000137948
0.00010607
7.10772e-05
3.34562e-05
-6.29515e-06
-4.76759e-05
-9.01956e-05
-0.000133369
-0.00017673
-0.000219844
-0.000262293
-0.00030368
-0.000343635
-0.000381813
-0.000417898
-0.000451604
-0.000482676
-0.000510882
-0.000536016
-0.000557892
-0.000576338
-0.000591211
-0.00060238
-0.00060972
-0.000613129
-0.000612527
-0.000607837
-0.000598988
-0.000585925
-0.000568603
-0.000546987
-0.000521052
-0.000490774
-0.000456137
-0.000417128
-0.000373749
-0.000326005
-0.000273896
-0.000217428
-0.000156619
-9.14918e-05
-2.20669e-05
5.16321e-05
0.00012958
0.000211743
0.000298079
0.000388544
0.000483097
0.000581692
0.000684274
0.000790789
0.000901174
0.00101536
0.00113328
0.00125487
0.00138005
0.00150872
0.00164079
0.00177618
0.00191479
0.0020565
0.0022012
0.00234877
0.00249909
0.00265201
0.0028074
0.00296512
0.00312502
0.00328693
0.00345069
0.00361611
0.00378303
0.00395127
0.00412063
0.00429092
0.00446193
0.00463344
0.00480524
0.00497712
0.00514886
0.00532022
0.00549098
0.00566088
0.00582968
0.00599714
0.00616302
0.00632708
0.00648906
0.00664871
0.00680577
0.00695999
0.00711113
0.00725897
0.00740326
0.00754376
0.00768025
0.00781249
0.00794028
0.00806342
0.00818171
0.00829497
0.00840303
0.00850572
0.00860288
0.00869437
0.00878008
0.00885989
0.0089337
0.00900144
0.00906303
0.00911843
0.00916762
0.00921055
0.00924725
0.00927773
0.00930204
0.00932026
0.00933248
0.00933881
0.00933937
0.00933432
0.00932381
0.00930803
0.0092872
0.00926154
0.0092313
0.00919675
0.00915817
0.00911584
0.0090701
0.00902125
0.00896966
0.0089157
0.00885976
0.00880225
0.00874359
0.0086842
0.00862452
0.008565
0.00850609
0.00844826
0.00839197
0.00833769
0.0082859
0.00823707
0.00819167
0.00815015
0.00811297
0.00808055
0.00805332
0.00803169
0.00801601
0.00800664
0.00800514
0.00801259
0.000301136
0.000283627
0.000263455
0.000239976
0.000212728
0.000182144
0.000148663
0.000112674
7.4591e-05
3.48519e-05
-6.11287e-06
-4.78798e-05
-9.00247e-05
-0.000132136
-0.00017382
-0.0002147
-0.00025442
-0.000292643
-0.000329052
-0.000363357
-0.000395297
-0.000424636
-0.00045116
-0.000474671
-0.000494993
-0.000511973
-0.000525467
-0.000535346
-0.000541497
-0.000543828
-0.000542253
-0.000536697
-0.000527093
-0.000513387
-0.000495536
-0.000473507
-0.00044727
-0.000416801
-0.000382084
-0.00034311
-0.000299878
-0.000252387
-0.000200636
-0.000144632
-8.43971e-05
-1.995e-05
4.86937e-05
0.000121514
0.000198486
0.000279574
0.000364736
0.000453932
0.000547126
0.000644274
0.000745323
0.000850216
0.000958893
0.00107129
0.00118735
0.00130699
0.00143014
0.00155672
0.00168663
0.00181978
0.00195608
0.00209543
0.00223771
0.00238279
0.00253056
0.00268088
0.00283362
0.00298865
0.00314581
0.00330494
0.00346587
0.00362843
0.00379247
0.0039578
0.00412423
0.00429156
0.00445959
0.00462812
0.00479694
0.00496584
0.00513459
0.00530298
0.00547077
0.00563772
0.00580359
0.00596815
0.00613116
0.00629239
0.00645158
0.00660849
0.00676285
0.00691443
0.007063
0.00720833
0.00735018
0.00748833
0.00762253
0.00775258
0.00787827
0.0079994
0.00811578
0.00822725
0.00833361
0.00843471
0.0085304
0.00862054
0.00870502
0.00878373
0.00885657
0.00892346
0.00898434
0.00903917
0.00908791
0.00913055
0.00916708
0.00919753
0.00922196
0.00924044
0.00925305
0.00925991
0.00926114
0.00925688
0.0092473
0.00923258
0.00921292
0.00918855
0.00915972
0.00912669
0.00908972
0.0090491
0.00900513
0.00895814
0.00890846
0.00885645
0.0088025
0.008747
0.00869034
0.00863294
0.00857521
0.00851757
0.00846045
0.00840429
0.00834953
0.00829661
0.00824597
0.00819806
0.0081533
0.00811212
0.00807494
0.00804216
0.00801416
0.00799134
0.00797402
0.00796256
0.00795813
0.00796146
0.000370965
0.000346181
0.000320624
0.000293092
0.0002625
0.000229254
0.000193767
0.000156362
0.000117389
7.72173e-05
3.62221e-05
-5.2266e-06
-4.67656e-05
-8.80336e-05
-0.000128676
-0.000168359
-0.000206761
-0.000243575
-0.000278517
-0.000311325
-0.000341761
-0.000369608
-0.000394667
-0.000416756
-0.00043571
-0.000451386
-0.000463647
-0.00047237
-0.000477453
-0.00047881
-0.000476355
-0.000470013
-0.000459722
-0.000445434
-0.000427108
-0.000404708
-0.000378203
-0.000347568
-0.000312792
-0.000273868
-0.000230789
-0.000183551
-0.000132154
-7.66103e-05
-1.69368e-05
4.6851e-05
0.00011474
0.000186709
0.000262733
0.000342779
0.000426808
0.000514782
0.000606668
0.000702423
0.000801994
0.000905325
0.00101236
0.00112304
0.00123731
0.00135509
0.00147631
0.00160088
0.00172872
0.00185974
0.00199385
0.00213095
0.00227091
0.00241363
0.00255898
0.00270685
0.00285709
0.00300957
0.00316414
0.00332064
0.00347892
0.0036388
0.00380013
0.00396274
0.00412643
0.004291
0.00445626
0.00462201
0.00478806
0.00495418
0.00512017
0.0052858
0.00545085
0.00561507
0.00577824
0.00594014
0.00610052
0.00625915
0.00641578
0.00657016
0.00672206
0.00687123
0.00701746
0.0071605
0.00730014
0.00743613
0.00756827
0.00769632
0.0078201
0.00793941
0.00805407
0.0081639
0.00826872
0.00836838
0.00846274
0.00855165
0.00863501
0.00871272
0.00878466
0.00885078
0.00891101
0.0089653
0.00901361
0.00905595
0.0090923
0.0091227
0.0091472
0.00916586
0.00917878
0.00918607
0.00918784
0.00918425
0.00917544
0.00916159
0.00914292
0.00911963
0.00909198
0.00906021
0.00902459
0.00898539
0.00894291
0.00889745
0.00884935
0.00879896
0.00874664
0.00869277
0.00863773
0.00858192
0.00852572
0.00846954
0.00841379
0.00835888
0.00830521
0.00825322
0.00820331
0.00815589
0.00811136
0.00807011
0.00803253
0.00799898
0.00796983
0.00794543
0.00792608
0.00791213
0.00790432
0.00790298
0.000444286
0.000412047
0.000380883
0.000349051
0.000314843
0.000278621
0.000240786
0.000201609
0.000161373
0.000120387
7.89742e-05
3.7454e-05
-3.85736e-06
-4.46432e-05
-8.45968e-05
-0.000123418
-0.000160817
-0.000196524
-0.000230282
-0.000261857
-0.000291037
-0.00031762
-0.000341422
-0.000362279
-0.000380044
-0.000394575
-0.000405743
-0.000413444
-0.00041758
-0.000418066
-0.000414819
-0.000407772
-0.000396868
-0.000382061
-0.000363312
-0.000340584
-0.000313845
-0.000283075
-0.000248267
-0.000209408
-0.000166489
-0.000119506
-6.8465e-05
-1.33772e-05
4.57452e-05
0.000108891
0.000176047
0.000247192
0.000322297
0.000401333
0.000484266
0.000571063
0.00066169
0.000756105
0.000854252
0.000956082
0.00106154
0.00117058
0.00128314
0.00139913
0.0015185
0.00164116
0.00176702
0.00189601
0.00202804
0.00216299
0.00230076
0.00244124
0.00258431
0.00272985
0.00287773
0.00302781
0.00317995
0.00333398
0.00348977
0.00364715
0.00380595
0.00396601
0.00412714
0.00428914
0.00445183
0.00461501
0.00477849
0.00494205
0.00510549
0.00526858
0.00543109
0.00559282
0.00575352
0.00591297
0.00607094
0.00622719
0.00638148
0.00653358
0.00668323
0.00683022
0.00697431
0.00711529
0.00725292
0.00738697
0.00751723
0.00764349
0.00776555
0.00788322
0.00799633
0.00810469
0.00820813
0.0083065
0.00839965
0.00848746
0.00856981
0.0086466
0.00871774
0.00878315
0.00884277
0.00889656
0.00894448
0.00898652
0.00902268
0.009053
0.00907751
0.0090963
0.00910945
0.00911707
0.00911928
0.00911621
0.00910802
0.00909488
0.00907701
0.00905461
0.00902792
0.00899718
0.00896266
0.00892461
0.00888332
0.00883911
0.00879227
0.00874317
0.00869214
0.00863955
0.00858577
0.00853117
0.00847612
0.00842102
0.00836623
0.00831217
0.0082592
0.00820773
0.00815814
0.00811082
0.00806613
0.00802443
0.00798609
0.00795142
0.00792077
0.00789443
0.00787272
0.00785594
0.00784438
0.00783799
0.000520115
0.00048034
0.000443428
0.000407115
0.000369063
0.000329612
0.000289151
0.000247894
0.000206073
0.000163944
0.000121777
7.9847e-05
3.84301e-05
-2.202e-06
-4.17817e-05
-8.00424e-05
-0.000116729
-0.000151602
-0.00018444
-0.000215033
-0.000243185
-0.000268715
-0.000291461
-0.000311274
-0.000328014
-0.000341549
-0.000351769
-0.000358575
-0.000361879
-0.000361594
-0.000357647
-0.000349977
-0.000338534
-0.000323272
-0.000304152
-0.000281138
-0.000254204
-0.000223335
-0.000188519
-0.000149743
-0.000106994
-6.02745e-05
-9.59139e-06
4.50446e-05
0.000103626
0.000166145
0.000232587
0.000302929
0.000377142
0.000455201
0.000537077
0.00062274
0.000712154
0.000805276
0.000902054
0.00100244
0.0011064
0.00121387
0.00132478
0.00143907
0.00155667
0.0016775
0.00180148
0.00192855
0.00205859
0.00219152
0.00232721
0.00246557
0.00260648
0.00274983
0.00289549
0.00304331
0.00319316
0.00334489
0.00349835
0.00365339
0.00380984
0.00396753
0.00412628
0.0042859
0.0044462
0.00460701
0.00476812
0.00492933
0.00509042
0.00525117
0.00541138
0.00557082
0.00572926
0.00588649
0.00604227
0.00619636
0.00634854
0.00649856
0.00664619
0.00679121
0.00693339
0.0070725
0.00720833
0.00734065
0.00746923
0.00759388
0.0077144
0.00783062
0.00794234
0.00804939
0.0081516
0.00824882
0.0083409
0.00842772
0.00850917
0.00858515
0.00865556
0.00872032
0.00877939
0.00883271
0.00888025
0.008922
0.00895796
0.00898817
0.00901267
0.00903153
0.00904484
0.0090527
0.00905523
0.00905256
0.00904485
0.00903227
0.00901502
0.00899331
0.00896737
0.00893745
0.00890378
0.00886663
0.00882628
0.00878301
0.00873715
0.00868902
0.00863896
0.00858732
0.00853446
0.00848072
0.00842647
0.00837207
0.00831789
0.00826429
0.00821165
0.00816033
0.0081107
0.00806311
0.0080179
0.00797541
0.00793596
0.00789985
0.00786738
0.00783881
0.00781445
0.00779457
0.007779
0.0077673
0.000597541
0.000550233
0.000507504
0.000466569
0.0004245
0.000381622
0.000338303
0.000294709
0.000251029
0.000207472
0.000164261
0.00012163
7.98128e-05
3.90427e-05
-4.42691e-07
-3.84145e-05
-7.46548e-05
-0.000108952
-0.00014111
-0.000170946
-0.000198284
-0.000222964
-0.000244843
-0.000263784
-0.000279655
-0.000292345
-0.000301753
-0.000307789
-0.000310367
-0.000309411
-0.000304855
-0.000296645
-0.000284735
-0.000269081
-0.000249643
-0.00022639
-0.000199303
-0.000168368
-0.00013357
-9.48922e-05
-5.23291e-05
-5.88439e-06
4.4435e-05
9.86229e-05
0.000156674
0.000218579
0.000284322
0.000353879
0.000427227
0.000504342
0.000585198
0.000669768
0.000758013
0.000849888
0.000945351
0.00104436
0.00114688
0.00125284
0.00136218
0.00147484
0.00159075
0.00170985
0.00183205
0.00195728
0.00208545
0.00221645
0.00235018
0.00248654
0.00262542
0.00276671
0.00291028
0.00305599
0.0032037
0.00335327
0.00350457
0.00365743
0.00381169
0.00396719
0.00412374
0.00428116
0.00443927
0.0045979
0.00475684
0.00491589
0.00507483
0.00523346
0.00539156
0.00554893
0.00570533
0.00586054
0.00601434
0.00616649
0.00631677
0.00646493
0.00661076
0.00675401
0.00689448
0.00703194
0.00716617
0.00729694
0.00742404
0.00754727
0.00766644
0.00778137
0.00789187
0.00799777
0.0080989
0.0081951
0.00828624
0.00837219
0.00845284
0.0085281
0.00859786
0.00866205
0.00872062
0.00877351
0.00882069
0.00886216
0.00889793
0.00892801
0.00895245
0.00897133
0.00898473
0.00899275
0.0089955
0.00899311
0.00898575
0.00897358
0.00895679
0.00893559
0.00891021
0.00888088
0.00884785
0.00881135
0.00877168
0.0087291
0.00868393
0.00863649
0.0085871
0.00853609
0.00848382
0.00843061
0.00837682
0.00832279
0.00826886
0.00821539
0.00816272
0.00811121
0.0080612
0.00801301
0.00796696
0.00792336
0.0078825
0.00784465
0.00781008
0.00777902
0.00775176
0.00772856
0.00770881
0.00769165
0.000675741
0.000620958
0.000572383
0.000526744
0.000480534
0.000434065
0.000387702
0.000341564
0.000295793
0.000250564
0.00020606
0.000162472
0.000119998
7.88389e-05
3.91954e-05
1.26429e-06
-3.47674e-05
-6.87209e-05
-0.000100423
-0.000129711
-0.000156434
-0.000180456
-0.000201643
-0.000219871
-0.000235026
-0.000247013
-0.00025574
-0.000261122
-0.000263081
-0.000261551
-0.000256476
-0.000247806
-0.0002355
-0.000219513
-0.00019981
-0.000176369
-0.000149174
-0.000118206
-8.34488e-05
-4.48906e-05
-2.53094e-06
4.36258e-05
9.35768e-05
0.000147319
0.000204846
0.000266147
0.000331205
0.000399997
0.000472505
0.000548707
0.00062858
0.000712093
0.000799208
0.000889886
0.000984089
0.00108178
0.00118291
0.00128743
0.00139527
0.00150638
0.00162069
0.00173814
0.00185865
0.00198214
0.00210853
0.00223771
0.00236959
0.00250407
0.00264105
0.00278041
0.00292202
0.00306574
0.00321146
0.00335904
0.00350832
0.00365916
0.0038114
0.00396487
0.0041194
0.0042748
0.00443091
0.00458754
0.0047445
0.00490159
0.00505858
0.00521529
0.0053715
0.00552699
0.00568156
0.00583497
0.005987
0.00613742
0.006286
0.00643252
0.00657674
0.00671844
0.0068574
0.00699341
0.00712623
0.00725566
0.00738147
0.00750346
0.00762145
0.00773526
0.0078447
0.00794961
0.0080498
0.00814512
0.00823544
0.00832064
0.0084006
0.00847523
0.00854442
0.00860811
0.00866623
0.00871873
0.00876559
0.00880679
0.00884235
0.00887229
0.00889665
0.0089155
0.00892893
0.00893702
0.0089399
0.0089377
0.00893056
0.00891865
0.00890217
0.00888132
0.00885631
0.00882738
0.00879476
0.00875869
0.00871945
0.00867731
0.00863257
0.00858554
0.00853653
0.00848587
0.00843388
0.0083809
0.00832725
0.00827326
0.00821926
0.00816559
0.00811259
0.00806056
0.00800985
0.00796075
0.00791356
0.00786855
0.00782601
0.00778617
0.00774926
0.00771549
0.00768514
0.00765846
0.00763439
0.00761169
0.000753982
0.000691798
0.000637396
0.000587014
0.00053657
0.000486387
0.000436832
0.000387978
0.000339928
0.000292823
0.00024681
0.000202044
0.000158691
0.000116921
7.68963e-05
3.87834e-05
2.74029e-06
-3.10796e-05
-6.25259e-05
-9.14604e-05
-0.000117757
-0.000141292
-0.000161948
-0.000179615
-0.0001942
-0.000205619
-0.000213786
-0.000218624
-0.000220067
-0.000218059
-0.000212553
-0.000203503
-0.000190866
-0.000174606
-0.000154695
-0.000131117
-0.000103853
-7.28845e-05
-3.81961e-05
2.17518e-07
4.23541e-05
8.82113e-05
0.000137789
0.000191087
0.000248094
0.000308799
0.000373183
0.000441229
0.000512921
0.00058824
0.000667161
0.000749652
0.00083568
0.000925208
0.0010182
0.00111463
0.00121444
0.00131758
0.00142399
0.00153362
0.00164641
0.00176229
0.0018812
0.00200304
0.00212775
0.00225521
0.00238536
0.00251808
0.00265327
0.00279082
0.0029306
0.00307248
0.00321635
0.00336207
0.0035095
0.00365847
0.00380885
0.00396046
0.00411314
0.0042667
0.00442098
0.00457581
0.00473097
0.00488628
0.00504153
0.0051965
0.00535101
0.00550485
0.00565778
0.00580959
0.00596006
0.00610895
0.00625605
0.00640112
0.00654394
0.0066843
0.00682196
0.0069567
0.00708832
0.00721658
0.00734128
0.00746222
0.00757921
0.00769207
0.00780061
0.00790467
0.00800407
0.00809865
0.00818828
0.00827283
0.00835221
0.0084263
0.00849501
0.00855826
0.00861599
0.00866815
0.00871471
0.00875567
0.00879102
0.00882081
0.00884506
0.00886384
0.00887724
0.00888535
0.00888827
0.00888614
0.00887911
0.00886735
0.00885103
0.00883036
0.00880555
0.00877683
0.00874442
0.00870857
0.00866954
0.00862759
0.00858303
0.00853615
0.00848725
0.00843666
0.00838468
0.00833163
0.00827782
0.00822358
0.00816921
0.00811504
0.00806139
0.00800855
0.00795685
0.00790656
0.00785795
0.00781128
0.00776681
0.00772474
0.00768528
0.00764862
0.00761502
0.00758473
0.00755627
0.00752801
0.00083159
0.00076211
0.000701918
0.000646776
0.00059205
0.000538065
0.000485198
0.000433492
0.000383011
0.000333859
0.000286154
0.000240024
0.0001956
0.000153017
0.000112412
7.39186e-05
3.76688e-05
3.79519e-06
-2.75788e-05
-5.63412e-05
-8.23803e-05
-0.000105586
-0.00012586
-0.000143114
-0.000157267
-0.00016824
-0.000175959
-0.000180361
-0.000181388
-0.000178997
-0.000173143
-0.000163784
-0.000150883
-0.000134412
-0.000114352
-9.06842e-05
-6.33901e-05
-3.24524e-05
2.13651e-06
4.0379e-05
8.22734e-05
0.00012782
0.00017702
0.00022987
0.000286359
0.000346473
0.000410196
0.000477514
0.000548414
0.000622878
0.000700876
0.000782378
0.000867357
0.000955783
0.00104762
0.00114284
0.00124138
0.0013432
0.00144825
0.00155648
0.00166782
0.00178222
0.00189961
0.0020199
0.00214302
0.00226888
0.00239739
0.00252846
0.00266198
0.00279784
0.00293592
0.0030761
0.00321826
0.00336226
0.00350797
0.00365524
0.00380391
0.00395383
0.00410482
0.00425671
0.00440935
0.00456254
0.00471609
0.00486981
0.0050235
0.00517694
0.00532995
0.00548232
0.00563382
0.00578423
0.00593334
0.00608091
0.00622672
0.00637055
0.00651218
0.00665138
0.00678793
0.00692162
0.00705222
0.0071795
0.00730328
0.00742334
0.0075395
0.00765157
0.00775938
0.00786274
0.00796148
0.00805545
0.00814452
0.00822855
0.00830745
0.0083811
0.00844941
0.00851229
0.00856969
0.00862155
0.00866785
0.00870858
0.00874375
0.00877337
0.00879749
0.00881618
0.0088295
0.00883755
0.00884044
0.0088383
0.00883127
0.00881952
0.00880323
0.0087826
0.00875782
0.00872913
0.00869675
0.00866091
0.00862187
0.0085799
0.00853528
0.0084883
0.00843926
0.00838847
0.00833623
0.00828284
0.0082286
0.00817382
0.0081188
0.00806385
0.00800927
0.00795536
0.00790239
0.00785064
0.00780037
0.0077518
0.00770517
0.00766068
0.0076185
0.00757878
0.00754181
0.00750784
0.00747494