/*--------------------------------*- C++ -*----------------------------------*\
  =========                 |
  \\      /  F ield         | OpenFOAM: The Open Source CFD Toolbox
   \\    /   O peration     | Website:  https://openfoam.org
    \\  /    A nd           | Version:  7
     \\/     M anipulation  |
\*---------------------------------------------------------------------------*/
FoamFile
{
    version     2.0;
    format      ascii;
    class       surfaceScalarField;
    location    "0.3";
    object      phi;
}
// * * * * * * * * * * * * * * * * * * * * * * * * * * * * * * * * * * * * * //

dimensions      [0 3 -1 0 0 0 0];

internalField   nonuniform List<scalar> 
50880
(
1.01358e-11
-1.0123e-11
3.1406e-11
-2.12647e-11
5.23302e-11
-2.09311e-11
6.58538e-11
-1.3523e-11
6.81942e-11
-2.34189e-12
5.74643e-11
1.07298e-11
3.2917e-11
2.45479e-11
-5.5109e-12
3.84304e-11
-5.74674e-11
5.19564e-11
-1.22364e-10
6.48978e-11
-1.99506e-10
7.71405e-11
-2.88124e-10
8.86196e-11
-3.87422e-10
9.92993e-11
-4.96602e-10
1.09181e-10
-6.14871e-10
1.18268e-10
-7.41463e-10
1.26588e-10
-8.75643e-10
1.34179e-10
-1.01672e-09
1.41072e-10
-1.16401e-09
1.47298e-10
-1.31691e-09
1.52895e-10
-1.47481e-09
1.57905e-10
-1.63718e-09
1.62362e-10
-1.80348e-09
1.66301e-10
-1.97324e-09
1.69758e-10
-2.14602e-09
1.72771e-10
-2.32139e-09
1.7537e-10
-2.49897e-09
1.77581e-10
-2.6784e-09
1.79432e-10
-2.85935e-09
1.80953e-10
-3.04152e-09
1.82168e-10
-3.22462e-09
1.83097e-10
-3.40838e-09
1.83761e-10
-3.59256e-09
1.84182e-10
-3.77694e-09
1.84381e-10
-3.96131e-09
1.8437e-10
-4.14547e-09
1.8416e-10
-4.32923e-09
1.83763e-10
-4.51242e-09
1.83196e-10
-4.69489e-09
1.8247e-10
-4.87649e-09
1.81592e-10
-5.05706e-09
1.80567e-10
-5.23646e-09
1.794e-10
-5.41456e-09
1.781e-10
-5.59123e-09
1.76671e-10
-5.76635e-09
1.75118e-10
-5.93979e-09
1.7344e-10
-6.11143e-09
1.71637e-10
-6.28114e-09
1.69711e-10
-6.4488e-09
1.67664e-10
-6.6143e-09
1.65496e-10
-6.7775e-09
1.63207e-10
-6.93829e-09
1.60791e-10
-7.09653e-09
1.58245e-10
-7.2521e-09
1.55569e-10
-7.40487e-09
1.52762e-10
-7.55469e-09
1.49822e-10
-7.70144e-09
1.46746e-10
-7.84496e-09
1.43527e-10
-7.98512e-09
1.40159e-10
-8.12176e-09
1.36643e-10
-8.25474e-09
1.32977e-10
-8.3839e-09
1.29157e-10
-8.50908e-09
1.25179e-10
-8.63012e-09
1.2104e-10
-8.74685e-09
1.16736e-10
-8.85912e-09
1.12263e-10
-8.96673e-09
1.07618e-10
-9.06954e-09
1.02803e-10
-9.16735e-09
9.78155e-11
-9.26001e-09
9.26546e-11
-9.34733e-09
8.73184e-11
-9.42913e-09
8.18049e-11
-9.50524e-09
7.61137e-11
-9.57549e-09
7.02457e-11
-9.63969e-09
6.42032e-11
-9.69768e-09
5.7989e-11
-9.74929e-09
5.16053e-11
-9.79434e-09
4.50544e-11
-9.83268e-09
3.83393e-11
-9.86414e-09
3.14636e-11
-9.88858e-09
2.44326e-11
-9.90583e-09
1.72534e-11
-9.91576e-09
9.93284e-12
-9.91824e-09
2.47849e-12
-9.91314e-09
-5.10122e-12
-9.90034e-09
-1.27976e-11
-9.87974e-09
-2.06012e-11
-9.85124e-09
-2.85014e-11
-9.81475e-09
-3.64868e-11
-9.77021e-09
-4.45439e-11
-9.71755e-09
-5.26586e-11
-9.65673e-09
-6.08167e-11
-9.58773e-09
-6.90036e-11
-9.51052e-09
-7.72034e-11
-9.42513e-09
-8.53993e-11
-9.33155e-09
-9.35738e-11
-9.22984e-09
-1.01709e-10
-9.12006e-09
-1.09787e-10
-9.00227e-09
-1.17788e-10
-8.87657e-09
-1.25693e-10
-8.74309e-09
-1.33481e-10
-8.60196e-09
-1.41131e-10
-8.45334e-09
-1.48623e-10
-8.2974e-09
-1.55936e-10
-8.13436e-09
-1.63049e-10
-7.96441e-09
-1.69941e-10
-7.78782e-09
-1.76591e-10
-7.60484e-09
-1.82977e-10
-7.41576e-09
-1.89079e-10
-7.22089e-09
-1.94875e-10
-7.02055e-09
-2.00344e-10
-6.81508e-09
-2.05466e-10
-6.60486e-09
-2.10222e-10
-6.39027e-09
-2.14593e-10
-6.17171e-09
-2.1856e-10
-5.9496e-09
-2.22107e-10
-5.72438e-09
-2.25216e-10
-5.49651e-09
-2.27873e-10
-5.26645e-09
-2.30061e-10
-5.03468e-09
-2.31767e-10
-4.8017e-09
-2.32979e-10
-4.56802e-09
-2.33685e-10
-4.33414e-09
-2.33874e-10
-4.10061e-09
-2.33536e-10
-3.86794e-09
-2.32665e-10
-3.63669e-09
-2.31252e-10
-3.4074e-09
-2.29294e-10
-3.18061e-09
-2.26785e-10
-2.95689e-09
-2.23723e-10
-2.73678e-09
-2.20107e-10
-2.52085e-09
-2.15934e-10
-2.30964e-09
-2.11207e-10
-2.10372e-09
-2.05927e-10
-1.90362e-09
-2.00098e-10
-1.7099e-09
-1.93722e-10
-1.52309e-09
-1.86807e-10
-1.34373e-09
-1.79358e-10
-1.17235e-09
-1.71384e-10
-1.00945e-09
-1.62894e-10
-8.55555e-10
-1.539e-10
-7.11141e-10
-1.44414e-10
-5.76689e-10
-1.34453e-10
-4.52656e-10
-1.24033e-10
-3.39481e-10
-1.13176e-10
-2.37572e-10
-1.01909e-10
-1.47307e-10
-9.02647e-11
-6.90233e-11
-7.82831e-11
-3.00709e-12
-6.60162e-11
5.05258e-11
-5.35338e-11
9.14491e-11
-4.09245e-11
1.1976e-10
-2.8312e-11
1.35627e-10
-1.58671e-11
1.39458e-10
-3.83143e-12
1.32013e-10
7.44571e-12
1.14563e-10
1.74495e-11
8.91539e-11
2.54087e-11
5.89748e-11
3.01783e-11
2.89421e-11
3.00321e-11
6.49731e-12
2.24441e-11
6.49648e-12
2.14328e-11
-3.15504e-11
5.48722e-11
-5.47083e-11
8.14878e-11
-4.75441e-11
8.86355e-11
-2.06712e-11
6.8055e-11
1.82393e-11
1.49038e-11
6.38818e-11
-7.32411e-11
1.12693e-10
-1.97179e-10
1.62367e-10
-3.56617e-10
2.11395e-10
-5.50553e-10
2.58834e-10
-7.77521e-10
3.04108e-10
-1.03578e-09
3.46874e-10
-1.32343e-09
3.86946e-10
-1.63849e-09
4.2424e-10
-1.97896e-09
4.58737e-10
-2.34285e-09
4.90487e-10
-2.72824e-09
5.1957e-10
-3.13325e-09
5.46081e-10
-3.55609e-09
5.70133e-10
-3.99505e-09
5.91848e-10
-4.44849e-09
6.11353e-10
-4.9149e-09
6.28771e-10
-5.39282e-09
6.44227e-10
-5.88092e-09
6.5785e-10
-6.3779e-09
6.69761e-10
-6.88261e-09
6.8007e-10
-7.39392e-09
6.88888e-10
-7.9108e-09
6.96317e-10
-8.43231e-09
7.02459e-10
-8.95754e-09
7.07401e-10
-9.48567e-09
7.11226e-10
-1.00159e-08
7.14014e-10
-1.05476e-08
7.15842e-10
-1.108e-08
7.16776e-10
-1.16125e-08
7.16875e-10
-1.21445e-08
7.16191e-10
-1.26755e-08
7.14775e-10
-1.3205e-08
7.12672e-10
-1.37325e-08
7.09923e-10
-1.42575e-08
7.06561e-10
-1.47795e-08
7.02613e-10
-1.52982e-08
6.981e-10
-1.58131e-08
6.93048e-10
-1.63239e-08
6.87476e-10
-1.68302e-08
6.81398e-10
-1.73316e-08
6.74821e-10
-1.78277e-08
6.67749e-10
-1.83182e-08
6.60188e-10
-1.88027e-08
6.52142e-10
-1.92808e-08
6.43609e-10
-1.97522e-08
6.34588e-10
-2.02165e-08
6.25072e-10
-2.06733e-08
6.15054e-10
-2.11222e-08
6.04523e-10
-2.15629e-08
5.93474e-10
-2.1995e-08
5.81897e-10
-2.2418e-08
5.69782e-10
-2.28316e-08
5.57116e-10
-2.32354e-08
5.43885e-10
-2.36288e-08
5.30078e-10
-2.40115e-08
5.15682e-10
-2.4383e-08
5.00688e-10
-2.47429e-08
4.85083e-10
-2.50907e-08
4.68857e-10
-2.5426e-08
4.51999e-10
-2.57482e-08
4.34497e-10
-2.6057e-08
4.16342e-10
-2.63517e-08
3.97528e-10
-2.66319e-08
3.7805e-10
-2.68972e-08
3.57903e-10
-2.71469e-08
3.37085e-10
-2.73807e-08
3.15594e-10
-2.7598e-08
2.9343e-10
-2.77984e-08
2.70596e-10
-2.79813e-08
2.47098e-10
-2.81462e-08
2.22942e-10
-2.82928e-08
1.98139e-10
-2.84204e-08
1.72698e-10
-2.85287e-08
1.46636e-10
-2.86172e-08
1.19971e-10
-2.86855e-08
9.27223e-11
-2.87332e-08
6.4914e-11
-2.87598e-08
3.65722e-11
-2.8765e-08
7.72588e-12
-2.87486e-08
-2.15922e-11
-2.871e-08
-5.13466e-11
-2.86491e-08
-8.14998e-11
-2.85656e-08
-1.1201e-10
-2.84593e-08
-1.42832e-10
-2.83299e-08
-1.73917e-10
-2.81773e-08
-2.05213e-10
-2.80015e-08
-2.36665e-10
-2.78023e-08
-2.68215e-10
-2.75797e-08
-2.99804e-10
-2.73337e-08
-3.31367e-10
-2.70644e-08
-3.6284e-10
-2.6772e-08
-3.94153e-10
-2.64565e-08
-4.25236e-10
-2.61183e-08
-4.56015e-10
-2.57576e-08
-4.86417e-10
-2.53747e-08
-5.16365e-10
-2.49701e-08
-5.45781e-10
-2.45441e-08
-5.74586e-10
-2.40973e-08
-6.027e-10
-2.36303e-08
-6.30044e-10
-2.31437e-08
-6.56536e-10
-2.26382e-08
-6.82095e-10
-2.21146e-08
-7.06641e-10
-2.15735e-08
-7.30094e-10
-2.1016e-08
-7.52375e-10
-2.0443e-08
-7.73406e-10
-1.98553e-08
-7.93109e-10
-1.92542e-08
-8.11411e-10
-1.86405e-08
-8.2824e-10
-1.80155e-08
-8.43525e-10
-1.73804e-08
-8.57201e-10
-1.67365e-08
-8.69204e-10
-1.60849e-08
-8.79475e-10
-1.5427e-08
-8.87957e-10
-1.47641e-08
-8.94596e-10
-1.40978e-08
-8.99344e-10
-1.34293e-08
-9.02157e-10
-1.27602e-08
-9.02994e-10
-1.20919e-08
-9.01821e-10
-1.14259e-08
-8.98607e-10
-1.07639e-08
-8.93325e-10
-1.01072e-08
-8.85954e-10
-9.45752e-09
-8.76478e-10
-8.81636e-09
-8.64886e-10
-8.18529e-09
-8.51172e-10
-7.56589e-09
-8.35334e-10
-6.95972e-09
-8.17375e-10
-6.36835e-09
-7.97304e-10
-5.79331e-09
-7.75135e-10
-5.23615e-09
-7.50884e-10
-4.69838e-09
-7.24575e-10
-4.1815e-09
-6.96239e-10
-3.68697e-09
-6.6591e-10
-3.21624e-09
-6.3363e-10
-2.77069e-09
-5.99447e-10
-2.35168e-09
-5.6342e-10
-1.96052e-09
-5.25619e-10
-1.59842e-09
-4.86125e-10
-1.26657e-09
-4.45033e-10
-9.66017e-10
-4.02462e-10
-6.97722e-10
-3.58559e-10
-4.62499e-10
-3.13506e-10
-2.60985e-10
-2.67532e-10
-9.35896e-11
-2.2093e-10
3.95727e-11
-1.74087e-10
1.38769e-10
-1.27508e-10
2.04774e-10
-8.18744e-11
2.39046e-10
-3.81057e-11
2.43964e-10
2.52795e-12
2.23129e-10
3.82849e-11
1.81802e-10
6.67356e-11
1.27397e-10
8.45823e-11
6.99822e-11
8.74457e-11
2.24043e-11
7.00208e-11
2.88999e-11
2.12805e-11
-5.28376e-11
4.8078e-11
-8.15067e-11
5.82056e-11
-5.76736e-11
3.65968e-11
9.39065e-13
-2.69761e-11
8.18121e-11
-1.39095e-10
1.76001e-10
-3.03375e-10
2.76974e-10
-5.21297e-10
3.80291e-10
-7.92829e-10
4.82925e-10
-1.11685e-09
5.82861e-10
-1.49153e-09
6.78782e-10
-1.91451e-09
7.69851e-10
-2.38313e-09
8.55572e-10
-2.89458e-09
9.3568e-10
-3.44593e-09
1.01008e-09
-4.03424e-09
1.0788e-09
-4.65662e-09
1.14195e-09
-5.31024e-09
1.1997e-09
-5.99235e-09
1.25224e-09
-6.70031e-09
1.29981e-09
-7.43161e-09
1.34265e-09
-8.18387e-09
1.38102e-09
-8.95481e-09
1.41517e-09
-9.7423e-09
1.44534e-09
-1.05443e-08
1.47179e-09
-1.1359e-08
1.49476e-09
-1.21846e-08
1.51446e-09
-1.30194e-08
1.53113e-09
-1.38619e-08
1.54496e-09
-1.47106e-08
1.55614e-09
-1.55643e-08
1.56487e-09
-1.64216e-08
1.57129e-09
-1.72813e-08
1.57559e-09
-1.81424e-08
1.57789e-09
-1.90039e-08
1.57832e-09
-1.98647e-08
1.57701e-09
-2.0724e-08
1.57406e-09
-2.15809e-08
1.56957e-09
-2.24346e-08
1.56362e-09
-2.32843e-08
1.55629e-09
-2.41293e-08
1.54765e-09
-2.4969e-08
1.53774e-09
-2.58025e-08
1.52661e-09
-2.66294e-08
1.51431e-09
-2.74488e-08
1.50086e-09
-2.82603e-08
1.4863e-09
-2.90632e-08
1.47062e-09
-2.98568e-08
1.45385e-09
-3.06407e-08
1.43599e-09
-3.14141e-08
1.41704e-09
-3.21765e-08
1.397e-09
-3.29273e-08
1.37585e-09
-3.36658e-08
1.35358e-09
-3.43915e-08
1.33019e-09
-3.51037e-08
1.30564e-09
-3.58017e-08
1.27992e-09
-3.64849e-08
1.25301e-09
-3.71527e-08
1.22488e-09
-3.78043e-08
1.19552e-09
-3.84391e-08
1.16488e-09
-3.90564e-08
1.13296e-09
-3.96554e-08
1.09972e-09
-4.02355e-08
1.06514e-09
-4.07958e-08
1.02921e-09
-4.13357e-08
9.91884e-10
-4.18544e-08
9.53161e-10
-4.23511e-08
9.13017e-10
-4.2825e-08
8.71438e-10
-4.32753e-08
8.28412e-10
-4.37014e-08
7.83932e-10
-4.41023e-08
7.37991e-10
-4.44773e-08
6.90589e-10
-4.48256e-08
6.41727e-10
-4.51464e-08
5.91414e-10
-4.54389e-08
5.39662e-10
-4.57025e-08
4.86487e-10
-4.59363e-08
4.3191e-10
-4.61395e-08
3.75959e-10
-4.63115e-08
3.18667e-10
-4.64517e-08
2.60073e-10
-4.65592e-08
2.00223e-10
-4.66334e-08
1.39169e-10
-4.66738e-08
7.69679e-11
-4.66798e-08
1.36852e-11
-4.66507e-08
-5.06083e-11
-4.65863e-08
-1.15835e-10
-4.64858e-08
-1.8191e-10
-4.63491e-08
-2.48743e-10
-4.61757e-08
-3.16235e-10
-4.59653e-08
-3.8428e-10
-4.57178e-08
-4.52766e-10
-4.54329e-08
-5.21575e-10
-4.51105e-08
-5.90579e-10
-4.47507e-08
-6.59647e-10
-4.43534e-08
-7.28643e-10
-4.39188e-08
-7.97424e-10
-4.34471e-08
-8.65843e-10
-4.29386e-08
-9.33745e-10
-4.23937e-08
-1.00097e-09
-4.18127e-08
-1.06736e-09
-4.11963e-08
-1.13275e-09
-4.05451e-08
-1.19697e-09
-3.98599e-08
-1.25986e-09
-3.91413e-08
-1.32122e-09
-3.83905e-08
-1.3809e-09
-3.76083e-08
-1.43872e-09
-3.67959e-08
-1.49451e-09
-3.59544e-08
-1.54808e-09
-3.50853e-08
-1.59926e-09
-3.41898e-08
-1.6479e-09
-3.32694e-08
-1.69381e-09
-3.23256e-08
-1.73683e-09
-3.13603e-08
-1.7768e-09
-3.03749e-08
-1.81356e-09
-2.93715e-08
-1.84698e-09
-2.83518e-08
-1.87689e-09
-2.73178e-08
-1.90316e-09
-2.62716e-08
-1.92567e-09
-2.52153e-08
-1.94429e-09
-2.4151e-08
-1.9589e-09
-2.30809e-08
-1.96941e-09
-2.20074e-08
-1.9757e-09
-2.09327e-08
-1.97771e-09
-1.98591e-08
-1.97535e-09
-1.87892e-08
-1.96855e-09
-1.77253e-08
-1.95725e-09
-1.66698e-08
-1.94142e-09
-1.56253e-08
-1.92102e-09
-1.45941e-08
-1.89601e-09
-1.35789e-08
-1.8664e-09
-1.25821e-08
-1.83217e-09
-1.16061e-08
-1.79334e-09
-1.06535e-08
-1.74992e-09
-9.72668e-09
-1.70196e-09
-8.82809e-09
-1.64948e-09
-7.96012e-09
-1.59254e-09
-7.12513e-09
-1.53123e-09
-6.32543e-09
-1.46561e-09
-5.56327e-09
-1.39579e-09
-4.84083e-09
-1.32189e-09
-4.16021e-09
-1.24405e-09
-3.5234e-09
-1.16242e-09
-2.93232e-09
-1.07721e-09
-2.38869e-09
-9.88657e-10
-1.89412e-09
-8.97034e-10
-1.44999e-09
-8.02691e-10
-1.05744e-09
-7.06057e-10
-7.17306e-10
-6.07666e-10
-4.30044e-10
-5.08194e-10
-1.95623e-10
-4.08508e-10
-1.3402e-11
-3.09729e-10
1.18043e-10
-2.1332e-10
2.01141e-10
-1.21204e-10
2.39601e-10
-3.59327e-11
2.38775e-10
3.91102e-11
2.06033e-10
9.94762e-11
1.51259e-10
1.39356e-10
8.72257e-11
1.51478e-10
2.98973e-11
1.27348e-10
5.87966e-11
1.38008e-11
-6.66357e-11
2.11152e-11
-8.88227e-11
-4.71257e-13
-3.60868e-11
-6.64405e-11
6.6908e-11
-1.87837e-10
2.0321e-10
-3.71798e-10
3.59961e-10
-6.22522e-10
5.27699e-10
-9.41909e-10
6.99677e-10
-1.33012e-09
8.71137e-10
-1.78603e-09
1.03877e-09
-2.30756e-09
1.20031e-09
-2.89198e-09
1.35428e-09
-3.53614e-09
1.49973e-09
-4.23657e-09
1.63611e-09
-4.98968e-09
1.76319e-09
-5.7918e-09
1.88092e-09
-6.63925e-09
1.9894e-09
-7.52841e-09
2.08886e-09
-8.45575e-09
2.17958e-09
-9.41787e-09
2.26193e-09
-1.04115e-08
2.33627e-09
-1.14335e-08
2.40299e-09
-1.24808e-08
2.46251e-09
-1.35507e-08
2.51523e-09
-1.46405e-08
2.56156e-09
-1.57476e-08
2.60187e-09
-1.68697e-08
2.63656e-09
-1.80045e-08
2.66597e-09
-1.915e-08
2.69047e-09
-2.03042e-08
2.71036e-09
-2.14653e-08
2.72595e-09
-2.26316e-08
2.73754e-09
-2.38014e-08
2.74538e-09
-2.49732e-08
2.74971e-09
-2.61456e-08
2.75076e-09
-2.73174e-08
2.74874e-09
-2.84871e-08
2.74382e-09
-2.96538e-08
2.73618e-09
-3.08161e-08
2.72596e-09
-3.19731e-08
2.71328e-09
-3.31237e-08
2.69827e-09
-3.4267e-08
2.68102e-09
-3.5402e-08
2.66161e-09
-3.65278e-08
2.64011e-09
-3.76435e-08
2.61658e-09
-3.87483e-08
2.59105e-09
-3.98412e-08
2.56357e-09
-4.09215e-08
2.53414e-09
-4.19883e-08
2.50278e-09
-4.30408e-08
2.4695e-09
-4.4078e-08
2.43429e-09
-4.50993e-08
2.39713e-09
-4.61037e-08
2.35801e-09
-4.70905e-08
2.3169e-09
-4.80586e-08
2.27377e-09
-4.90073e-08
2.22859e-09
-4.99356e-08
2.18133e-09
-5.08426e-08
2.13194e-09
-5.17275e-08
2.08039e-09
-5.25893e-08
2.02664e-09
-5.3427e-08
1.97064e-09
-5.42396e-08
1.91236e-09
-5.50262e-08
1.85176e-09
-5.57858e-08
1.7888e-09
-5.65174e-08
1.72344e-09
-5.72199e-08
1.65566e-09
-5.78923e-08
1.58542e-09
-5.85335e-08
1.5127e-09
-5.91426e-08
1.43749e-09
-5.97185e-08
1.35978e-09
-6.026e-08
1.27954e-09
-6.07662e-08
1.19679e-09
-6.1236e-08
1.11154e-09
-6.16684e-08
1.02378e-09
-6.20623e-08
9.33554e-10
-6.24167e-08
8.40886e-10
-6.27306e-08
7.45815e-10
-6.3003e-08
6.4839e-10
-6.3233e-08
5.48671e-10
-6.34197e-08
4.46725e-10
-6.35621e-08
3.42633e-10
-6.36594e-08
2.36486e-10
-6.37108e-08
1.28384e-10
-6.37156e-08
1.84401e-11
-6.3673e-08
-9.32215e-11
-6.35823e-08
-2.06466e-10
-6.34431e-08
-3.21147e-10
-6.32547e-08
-4.37106e-10
-6.30168e-08
-5.54172e-10
-6.27289e-08
-6.72162e-10
-6.23908e-08
-7.90884e-10
-6.20022e-08
-9.10132e-10
-6.15631e-08
-1.02969e-09
-6.10734e-08
-1.14933e-09
-6.05333e-08
-1.26882e-09
-5.99428e-08
-1.38791e-09
-5.93023e-08
-1.50635e-09
-5.86121e-08
-1.62387e-09
-5.78729e-08
-1.74021e-09
-5.70852e-08
-1.85508e-09
-5.62497e-08
-1.96821e-09
-5.53674e-08
-2.07929e-09
-5.44392e-08
-2.18805e-09
-5.34663e-08
-2.29418e-09
-5.24498e-08
-2.39738e-09
-5.13911e-08
-2.49736e-09
-5.02918e-08
-2.59381e-09
-4.91535e-08
-2.68645e-09
-4.79778e-08
-2.77496e-09
-4.67666e-08
-2.85905e-09
-4.5522e-08
-2.93845e-09
-4.42459e-08
-3.01286e-09
-4.29407e-08
-3.08202e-09
-4.16086e-08
-3.14564e-09
-4.02521e-08
-3.20348e-09
-3.88737e-08
-3.25529e-09
-3.74761e-08
-3.30083e-09
-3.60619e-08
-3.33988e-09
-3.46339e-08
-3.37223e-09
-3.31951e-08
-3.39767e-09
-3.17485e-08
-3.41604e-09
-3.0297e-08
-3.42717e-09
-2.88438e-08
-3.4309e-09
-2.73921e-08
-3.42711e-09
-2.5945e-08
-3.41567e-09
-2.45057e-08
-3.3965e-09
-2.30776e-08
-3.36952e-09
-2.1664e-08
-3.33466e-09
-2.02681e-08
-3.29189e-09
-1.88933e-08
-3.24118e-09
-1.7543e-08
-3.18253e-09
-1.62203e-08
-3.11596e-09
-1.49287e-08
-3.04152e-09
-1.36715e-08
-2.95925e-09
-1.24517e-08
-2.86924e-09
-1.12727e-08
-2.77159e-09
-1.01374e-08
-2.66643e-09
-9.04913e-09
-2.55392e-09
-8.01067e-09
-2.43425e-09
-7.02494e-09
-2.30763e-09
-6.09466e-09
-2.17432e-09
-5.22246e-09
-2.03463e-09
-4.41075e-09
-1.88892e-09
-3.66179e-09
-1.73762e-09
-2.97755e-09
-1.58127e-09
-2.35976e-09
-1.42048e-09
-1.80978e-09
-1.25604e-09
-1.32853e-09
-1.08891e-09
-9.16451e-10
-9.20276e-10
-5.73314e-10
-7.51647e-10
-2.9811e-10
-5.84935e-10
-8.88503e-11
-4.2258e-10
5.76629e-11
-2.67717e-10
1.46108e-10
-1.24378e-10
1.83005e-10
2.2127e-12
1.7699e-10
1.05492e-10
1.39347e-10
1.76997e-10
8.43644e-11
2.06459e-10
2.99778e-11
1.81734e-10
8.87741e-11
2.51441e-12
-6.91513e-11
-1.80032e-11
-6.83036e-11
-8.18001e-11
2.77094e-11
-2.03528e-10
1.88639e-10
-3.93673e-10
3.93356e-10
-6.59302e-10
6.2559e-10
-1.00466e-09
8.73056e-10
-1.43171e-09
1.12674e-09
-1.94066e-09
1.38008e-09
-2.5303e-09
1.62841e-09
-3.19841e-09
1.86841e-09
-3.94197e-09
2.09784e-09
-4.75745e-09
2.31521e-09
-5.64094e-09
2.5196e-09
-6.58831e-09
2.71056e-09
-7.59532e-09
2.88792e-09
-8.65768e-09
3.05176e-09
-9.77114e-09
3.20232e-09
-1.09315e-08
3.33997e-09
-1.21348e-08
3.46517e-09
-1.33769e-08
3.57843e-09
-1.46542e-08
3.68031e-09
-1.59631e-08
3.77137e-09
-1.73001e-08
3.8522e-09
-1.86619e-08
3.92337e-09
-2.00454e-08
3.98543e-09
-2.14478e-08
4.03895e-09
-2.28663e-08
4.08446e-09
-2.42983e-08
4.12245e-09
-2.57414e-08
4.1534e-09
-2.71932e-08
4.17778e-09
-2.86516e-08
4.19599e-09
-3.01147e-08
4.20844e-09
-3.15805e-08
4.21548e-09
-3.30472e-08
4.21746e-09
-3.45131e-08
4.21468e-09
-3.59767e-08
4.20741e-09
-3.74364e-08
4.19592e-09
-3.88909e-08
4.18041e-09
-4.03387e-08
4.1611e-09
-4.17786e-08
4.13814e-09
-4.32092e-08
4.11169e-09
-4.46295e-08
4.08188e-09
-4.60382e-08
4.04882e-09
-4.74342e-08
4.01259e-09
-4.88164e-08
3.97325e-09
-5.01837e-08
3.93086e-09
-5.1535e-08
3.88546e-09
-5.28693e-08
3.83705e-09
-5.41855e-08
3.78566e-09
-5.54824e-08
3.73128e-09
-5.67592e-08
3.67388e-09
-5.80146e-08
3.61344e-09
-5.92477e-08
3.54994e-09
-6.04572e-08
3.48332e-09
-6.16422e-08
3.41356e-09
-6.28014e-08
3.34058e-09
-6.39338e-08
3.26435e-09
-6.50382e-08
3.18479e-09
-6.61135e-08
3.10186e-09
-6.71583e-08
3.0155e-09
-6.81716e-08
2.92565e-09
-6.91521e-08
2.83225e-09
-7.00986e-08
2.73525e-09
-7.10097e-08
2.6346e-09
-7.18843e-08
2.53026e-09
-7.27211e-08
2.42218e-09
-7.35187e-08
2.31034e-09
-7.42759e-08
2.19471e-09
-7.49914e-08
2.07527e-09
-7.56639e-08
1.95202e-09
-7.6292e-08
1.82495e-09
-7.68746e-08
1.69409e-09
-7.74102e-08
1.55944e-09
-7.78977e-08
1.42106e-09
-7.83359e-08
1.27899e-09
-7.87233e-08
1.13329e-09
-7.9059e-08
9.84046e-10
-7.93417e-08
8.31338e-10
-7.95702e-08
6.75279e-10
-7.97436e-08
5.15989e-10
-7.98607e-08
3.5361e-10
-7.99206e-08
1.88297e-10
-7.99224e-08
2.02217e-11
-7.98652e-08
-1.50426e-10
-7.97482e-08
-3.23439e-10
-7.95708e-08
-4.98594e-10
-7.93322e-08
-6.75648e-10
-7.9032e-08
-8.54342e-10
-7.86698e-08
-1.0344e-09
-7.82452e-08
-1.21552e-09
-7.77579e-08
-1.3974e-09
-7.72079e-08
-1.57971e-09
-7.65951e-08
-1.76211e-09
-7.59197e-08
-1.94424e-09
-7.51819e-08
-2.12572e-09
-7.4382e-08
-2.30618e-09
-7.35207e-08
-2.4852e-09
-7.25985e-08
-2.66239e-09
-7.16163e-08
-2.83732e-09
-7.05749e-08
-3.00957e-09
-6.94755e-08
-3.17869e-09
-6.83193e-08
-3.34425e-09
-6.71077e-08
-3.50579e-09
-6.58422e-08
-3.66287e-09
-6.45246e-08
-3.81502e-09
-6.31566e-08
-3.96181e-09
-6.17402e-08
-4.10278e-09
-6.02777e-08
-4.23748e-09
-5.87713e-08
-4.36547e-09
-5.72234e-08
-4.48631e-09
-5.56367e-08
-4.59958e-09
-5.40139e-08
-4.70486e-09
-5.23578e-08
-4.80175e-09
-5.06714e-08
-4.88985e-09
-4.89579e-08
-4.96881e-09
-4.72205e-08
-5.03825e-09
-4.54625e-08
-5.09784e-09
-4.36875e-08
-5.14727e-09
-4.18989e-08
-5.18624e-09
-4.01005e-08
-5.21447e-09
-3.82959e-08
-5.23171e-09
-3.64891e-08
-5.23775e-09
-3.46838e-08
-5.23238e-09
-3.28841e-08
-5.21543e-09
-3.10938e-08
-5.18675e-09
-2.93171e-08
-5.14623e-09
-2.7558e-08
-5.09378e-09
-2.58205e-08
-5.02934e-09
-2.41088e-08
-4.95289e-09
-2.24269e-08
-4.86441e-09
-2.07789e-08
-4.76396e-09
-1.91689e-08
-4.65158e-09
-1.76007e-08
-4.52737e-09
-1.60785e-08
-4.39148e-09
-1.4606e-08
-4.24407e-09
-1.31871e-08
-4.08534e-09
-1.18255e-08
-3.91556e-09
-1.05247e-08
-3.73501e-09
-9.28829e-09
-3.54406e-09
-8.11949e-09
-3.34312e-09
-7.02142e-09
-3.1327e-09
-5.99697e-09
-2.91337e-09
-5.04877e-09
-2.68582e-09
-4.17913e-09
-2.4509e-09
-3.39001e-09
-2.2096e-09
-2.68292e-09
-1.96314e-09
-2.05885e-09
-1.71298e-09
-1.51815e-09
-1.46098e-09
-1.06042e-09
-1.20938e-09
-6.84338e-10
-9.61014e-10
-3.87491e-10
-7.19427e-10
-1.6613e-10
-4.89077e-10
-1.49323e-11
-2.75575e-10
7.32633e-11
-8.59832e-11
1.07868e-10
7.08867e-11
1.00797e-10
1.84067e-10
6.70226e-11
2.40232e-10
2.52707e-11
2.23485e-10
1.14045e-10
-1.06488e-11
-5.85031e-11
-6.40799e-11
-1.48717e-11
-1.77059e-10
1.40686e-10
-3.62261e-10
3.73842e-10
-6.28947e-10
6.60044e-10
-9.83453e-10
9.80095e-10
-1.42961e-09
1.31921e-09
-1.96914e-09
1.66627e-09
-2.60206e-09
2.013e-09
-3.32701e-09
2.35336e-09
-4.14156e-09
2.68296e-09
-5.04246e-09
2.99874e-09
-6.02586e-09
3.29861e-09
-7.0875e-09
3.58125e-09
-8.22284e-09
3.8459e-09
-9.42717e-09
4.09225e-09
-1.06957e-08
4.32031e-09
-1.20237e-08
4.53032e-09
-1.34065e-08
4.72271e-09
-1.48393e-08
4.89803e-09
-1.63179e-08
5.05695e-09
-1.78377e-08
5.20015e-09
-1.93947e-08
5.32839e-09
-2.09849e-08
5.44242e-09
-2.26046e-08
5.54301e-09
-2.425e-08
5.6309e-09
-2.59179e-08
5.70684e-09
-2.7605e-08
5.77154e-09
-2.93082e-08
5.82568e-09
-3.10248e-08
5.86992e-09
-3.27518e-08
5.90487e-09
-3.4487e-08
5.93111e-09
-3.62277e-08
5.94918e-09
-3.79718e-08
5.95959e-09
-3.97171e-08
5.96279e-09
-4.14617e-08
5.95921e-09
-4.32035e-08
5.94925e-09
-4.49408e-08
5.93324e-09
-4.66719e-08
5.91149e-09
-4.83951e-08
5.8843e-09
-5.01089e-08
5.85188e-09
-5.18116e-08
5.81447e-09
-5.3502e-08
5.77224e-09
-5.51785e-08
5.72534e-09
-5.68398e-08
5.67389e-09
-5.84846e-08
5.61799e-09
-6.01114e-08
5.55773e-09
-6.17191e-08
5.49314e-09
-6.33063e-08
5.42426e-09
-6.48718e-08
5.35111e-09
-6.64142e-08
5.27369e-09
-6.79323e-08
5.19197e-09
-6.94248e-08
5.10592e-09
-7.08903e-08
5.01551e-09
-7.23277e-08
4.92068e-09
-7.37355e-08
4.82138e-09
-7.51125e-08
4.71752e-09
-7.64572e-08
4.60905e-09
-7.77683e-08
4.49589e-09
-7.90444e-08
4.37796e-09
-8.0284e-08
4.25518e-09
-8.14859e-08
4.12749e-09
-8.26484e-08
3.99479e-09
-8.37702e-08
3.85703e-09
-8.48497e-08
3.71415e-09
-8.58856e-08
3.56607e-09
-8.68761e-08
3.41275e-09
-8.78199e-08
3.25415e-09
-8.87155e-08
3.09024e-09
-8.95612e-08
2.921e-09
-9.03556e-08
2.74643e-09
-9.10972e-08
2.56652e-09
-9.17844e-08
2.3813e-09
-9.24158e-08
2.1908e-09
-9.29898e-08
1.9951e-09
-9.3505e-08
1.79424e-09
-9.39601e-08
1.58833e-09
-9.43535e-08
1.37748e-09
-9.4684e-08
1.16181e-09
-9.49502e-08
9.41488e-10
-9.51509e-08
7.16679e-10
-9.52849e-08
4.87582e-10
-9.5351e-08
2.5442e-10
-9.53482e-08
1.74349e-11
-9.52755e-08
-2.23105e-10
-9.5132e-08
-4.66909e-10
-9.4917e-08
-7.1366e-10
-9.46296e-08
-9.63018e-10
-9.42693e-08
-1.21462e-09
-9.38356e-08
-1.46807e-09
-9.33282e-08
-1.72297e-09
-9.27467e-08
-1.97886e-09
-9.20912e-08
-2.23531e-09
-9.13615e-08
-2.49182e-09
-9.05578e-08
-2.7479e-09
-8.96805e-08
-3.00302e-09
-8.873e-08
-3.25665e-09
-8.7707e-08
-3.50822e-09
-8.66122e-08
-3.75718e-09
-8.54466e-08
-4.00292e-09
-8.42113e-08
-4.24486e-09
-8.29076e-08
-4.48238e-09
-8.1537e-08
-4.71487e-09
-8.01011e-08
-4.9417e-09
-7.86017e-08
-5.16224e-09
-7.70409e-08
-5.37586e-09
-7.54208e-08
-5.58193e-09
-7.37437e-08
-5.77983e-09
-7.20123e-08
-5.96892e-09
-7.02291e-08
-6.14859e-09
-6.83972e-08
-6.31825e-09
-6.65195e-08
-6.47728e-09
-6.45992e-08
-6.62512e-09
-6.26398e-08
-6.7612e-09
-6.06447e-08
-6.88498e-09
-5.86175e-08
-6.99595e-09
-5.65622e-08
-7.09359e-09
-5.44826e-08
-7.17746e-09
-5.23827e-08
-7.24709e-09
-5.02669e-08
-7.30209e-09
-4.81393e-08
-7.34207e-09
-4.60043e-08
-7.36668e-09
-4.38665e-08
-7.37561e-09
-4.17303e-08
-7.36858e-09
-3.96003e-08
-7.34537e-09
-3.74813e-08
-7.30576e-09
-3.53779e-08
-7.2496e-09
-3.3295e-08
-7.17676e-09
-3.12371e-08
-7.08718e-09
-2.92092e-08
-6.98081e-09
-2.7216e-08
-6.85766e-09
-2.52621e-08
-6.71778e-09
-2.33524e-08
-6.56128e-09
-2.14915e-08
-6.38829e-09
-1.9684e-08
-6.19903e-09
-1.79343e-08
-5.99374e-09
-1.62469e-08
-5.77273e-09
-1.46261e-08
-5.53637e-09
-1.3076e-08
-5.28512e-09
-1.16006e-08
-5.01949e-09
-1.02036e-08
-4.74011e-09
-8.88858e-09
-4.4477e-09
-7.65882e-09
-4.14312e-09
-6.51727e-09
-3.82738e-09
-5.46648e-09
-3.50169e-09
-4.50861e-09
-3.16748e-09
-3.64525e-09
-2.82649e-09
-2.87744e-09
-2.48079e-09
-2.20548e-09
-2.13294e-09
-1.62881e-09
-1.78605e-09
-1.14589e-09
-1.44393e-09
-7.54024e-10
-1.1113e-09
-4.49123e-10
-7.93978e-10
-2.25521e-10
-4.99178e-10
-7.57151e-11
-2.35789e-10
9.92593e-12
-1.47548e-11
4.34734e-11
1.50519e-10
3.98746e-11
2.4383e-10
1.75906e-11
2.45768e-10
1.31635e-10
-2.46414e-11
-3.38616e-11
-1.13765e-10
7.42537e-11
-2.80115e-10
3.07035e-10
-5.33759e-10
6.27486e-10
-8.82186e-10
1.00847e-09
-1.33053e-09
1.42844e-09
-1.88183e-09
1.87051e-09
-2.53727e-09
2.32171e-09
-3.29649e-09
2.77221e-09
-4.15781e-09
3.21468e-09
-5.11854e-09
3.64369e-09
-6.17517e-09
4.05537e-09
-7.32357e-09
4.44701e-09
-8.55916e-09
4.81684e-09
-9.87705e-09
5.16379e-09
-1.12722e-08
5.48736e-09
-1.27393e-08
5.78746e-09
-1.42733e-08
6.06432e-09
-1.5869e-08
6.3184e-09
-1.75213e-08
6.55035e-09
-1.92253e-08
6.76094e-09
-2.09762e-08
6.95103e-09
-2.27693e-08
7.12154e-09
-2.46003e-08
7.2734e-09
-2.64649e-08
7.40758e-09
-2.8359e-08
7.52502e-09
-3.02788e-08
7.62667e-09
-3.22207e-08
7.71342e-09
-3.41812e-08
7.78616e-09
-3.6157e-08
7.84573e-09
-3.81451e-08
7.89293e-09
-4.01425e-08
7.92849e-09
-4.21464e-08
7.95313e-09
-4.41543e-08
7.9675e-09
-4.61637e-08
7.9722e-09
-4.81723e-08
7.96778e-09
-5.01778e-08
7.95477e-09
-5.21782e-08
7.9336e-09
-5.41714e-08
7.9047e-09
-5.61555e-08
7.86843e-09
-5.81287e-08
7.82511e-09
-6.00893e-08
7.77502e-09
-6.20355e-08
7.71842e-09
-6.39656e-08
7.65549e-09
-6.58781e-08
7.5864e-09
-6.77714e-08
7.5113e-09
-6.9644e-08
7.43028e-09
-7.14943e-08
7.34342e-09
-7.33208e-08
7.25077e-09
-7.5122e-08
7.15235e-09
-7.68965e-08
7.04815e-09
-7.86427e-08
6.93818e-09
-8.03591e-08
6.82237e-09
-8.20443e-08
6.7007e-09
-8.36967e-08
6.5731e-09
-8.53149e-08
6.43948e-09
-8.68971e-08
6.29978e-09
-8.84419e-08
6.15389e-09
-8.99478e-08
6.00173e-09
-9.1413e-08
5.8432e-09
-9.2836e-08
5.6782e-09
-9.42152e-08
5.50664e-09
-9.55488e-08
5.32842e-09
-9.68353e-08
5.14347e-09
-9.80728e-08
4.95169e-09
-9.92597e-08
4.75301e-09
-1.00394e-07
4.54738e-09
-1.01475e-07
4.33474e-09
-1.025e-07
4.11506e-09
-1.03467e-07
3.88832e-09
-1.04375e-07
3.65451e-09
-1.05222e-07
3.41364e-09
-1.06007e-07
3.16576e-09
-1.06727e-07
2.91091e-09
-1.07381e-07
2.64916e-09
-1.07967e-07
2.38063e-09
-1.08484e-07
2.10544e-09
-1.08931e-07
1.82373e-09
-1.09305e-07
1.53568e-09
-1.09605e-07
1.24151e-09
-1.09829e-07
9.41442e-10
-1.09978e-07
6.35746e-10
-1.10048e-07
3.24716e-10
-1.10039e-07
8.67876e-12
-1.0995e-07
-3.12009e-10
-1.0978e-07
-6.36958e-10
-1.09528e-07
-9.65747e-10
-1.09193e-07
-1.29792e-09
-1.08775e-07
-1.633e-09
-1.08272e-07
-1.97046e-09
-1.07686e-07
-2.30977e-09
-1.07014e-07
-2.65033e-09
-1.06258e-07
-2.99154e-09
-1.05417e-07
-3.33278e-09
-1.04491e-07
-3.67336e-09
-1.03482e-07
-4.01262e-09
-1.02389e-07
-4.34982e-09
-1.01213e-07
-4.68425e-09
-9.99546e-08
-5.01513e-09
-9.86159e-08
-5.3417e-09
-9.71976e-08
-5.66317e-09
-9.57012e-08
-5.97873e-09
-9.41285e-08
-6.28756e-09
-9.24814e-08
-6.58885e-09
-9.07619e-08
-6.88176e-09
-8.89723e-08
-7.16546e-09
-8.71151e-08
-7.43911e-09
-8.5193e-08
-7.7019e-09
-8.32089e-08
-7.953e-09
-8.11659e-08
-8.19159e-09
-7.90673e-08
-8.41688e-09
-7.69165e-08
-8.62809e-09
-7.47172e-08
-8.82445e-09
-7.24731e-08
-9.00523e-09
-7.01884e-08
-9.1697e-09
-6.78672e-08
-9.31719e-09
-6.55137e-08
-9.44704e-09
-6.31325e-08
-9.55864e-09
-6.07282e-08
-9.6514e-09
-5.83055e-08
-9.72477e-09
-5.58693e-08
-9.77827e-09
-5.34246e-08
-9.81143e-09
-5.09763e-08
-9.82385e-09
-4.85298e-08
-9.81516e-09
-4.60901e-08
-9.78505e-09
-4.36626e-08
-9.73326e-09
-4.12526e-08
-9.65958e-09
-3.88655e-08
-9.56387e-09
-3.65067e-08
-9.44602e-09
-3.41815e-08
-9.30599e-09
-3.18953e-08
-9.14381e-09
-2.96536e-08
-8.95955e-09
-2.74615e-08
-8.75337e-09
-2.53243e-08
-8.52546e-09
-2.32472e-08
-8.2761e-09
-2.12353e-08
-8.00566e-09
-1.92935e-08
-7.71457e-09
-1.74265e-08
-7.40334e-09
-1.56391e-08
-7.07259e-09
-1.39355e-08
-6.72306e-09
-1.232e-08
-6.3556e-09
-1.07965e-08
-5.97121e-09
-9.36853e-09
-5.57107e-09
-8.03934e-09
-5.15656e-09
-6.81172e-09
-4.72932e-09
-5.68793e-09
-4.29127e-09
-4.66971e-09
-3.84472e-09
-3.75808e-09
-3.39242e-09
-2.95332e-09
-2.93771e-09
-2.25479e-09
-2.48458e-09
-1.66083e-09
-2.03789e-09
-1.16858e-09
-1.60355e-09
-7.73818e-10
-1.18874e-09
-4.70765e-10
-8.02232e-10
-2.51888e-10
-4.54665e-10
-1.07671e-10
-1.58973e-10
-2.63397e-11
6.91868e-11
6.46694e-12
2.11023e-10
8.15509e-12
2.44079e-10
1.3979e-10
-3.88575e-11
4.99731e-12
-1.64917e-10
2.00314e-10
-3.86834e-10
5.28953e-10
-7.11753e-10
9.52402e-10
-1.14504e-09
1.44176e-09
-1.69032e-09
1.97372e-09
-2.34951e-09
2.5297e-09
-3.12302e-09
3.09522e-09
-4.0099e-09
3.65909e-09
-5.00805e-09
4.21283e-09
-6.11442e-09
4.75005e-09
-7.32516e-09
5.26611e-09
-8.63585e-09
5.7577e-09
-1.00416e-08
6.2226e-09
-1.15373e-08
6.65943e-09
-1.31173e-08
7.06746e-09
-1.47764e-08
7.4465e-09
-1.65088e-08
7.79674e-09
-1.83091e-08
8.11866e-09
-2.01717e-08
8.41301e-09
-2.20915e-08
8.68065e-09
-2.4063e-08
8.9226e-09
-2.60814e-08
9.13995e-09
-2.81418e-08
9.33381e-09
-3.02396e-08
9.50534e-09
-3.23703e-08
9.6557e-09
-3.45297e-08
9.78603e-09
-3.67137e-08
9.89744e-09
-3.89185e-08
9.99102e-09
-4.11406e-08
1.00678e-08
-4.33764e-08
1.01287e-08
-4.56227e-08
1.01748e-08
-4.78764e-08
1.02069e-08
-5.01346e-08
1.02257e-08
-5.23946e-08
1.02321e-08
-5.46536e-08
1.02268e-08
-5.69092e-08
1.02104e-08
-5.9159e-08
1.01834e-08
-6.14008e-08
1.01465e-08
-6.36323e-08
1.01e-08
-6.58515e-08
1.00443e-08
-6.80564e-08
9.97992e-09
-7.02451e-08
9.90705e-09
-7.24156e-08
9.82598e-09
-7.45661e-08
9.73693e-09
-7.66948e-08
9.64006e-09
-7.88001e-08
9.53552e-09
-8.08801e-08