/*--------------------------------*- C++ -*----------------------------------*\
  =========                 |
  \\      /  F ield         | OpenFOAM: The Open Source CFD Toolbox
   \\    /   O peration     | Website:  https://openfoam.org
    \\  /    A nd           | Version:  7
     \\/     M anipulation  |
\*---------------------------------------------------------------------------*/
FoamFile
{
    version     2.0;
    format      ascii;
    class       volVectorField;
    location    "0.3";
    object      U;
}
// * * * * * * * * * * * * * * * * * * * * * * * * * * * * * * * * * * * * * //

dimensions      [0 1 -1 0 0 0 0];

internalField   nonuniform List<vector> 
25600
(
(7.28345e-07 -7.24213e-07 0)
(3.24545e-06 -1.58603e-06 0)
(6.83012e-06 -1.66741e-06 0)
(9.78149e-06 -1.28844e-06 0)
(1.11597e-05 -6.8539e-07 0)
(1.05392e-05 1.41051e-08 0)
(7.7361e-06 7.48074e-07 0)
(2.69679e-06 1.47142e-06 0)
(-4.54794e-06 2.15915e-06 0)
(-1.39137e-05 2.8049e-06 0)
(-2.53008e-05 3.40761e-06 0)
(-3.85907e-05 3.96581e-06 0)
(-5.36524e-05 4.4801e-06 0)
(-7.03587e-05 4.95121e-06 0)
(-8.85832e-05 5.37907e-06 0)
(-0.0001082 5.76678e-06 0)
(-0.000129088 6.11929e-06 0)
(-0.000151134 6.4384e-06 0)
(-0.000174228 6.72435e-06 0)
(-0.000198267 6.97904e-06 0)
(-0.000223152 7.20513e-06 0)
(-0.000248794 7.40453e-06 0)
(-0.000275107 7.5788e-06 0)
(-0.00030201 7.73015e-06 0)
(-0.000329429 7.86179e-06 0)
(-0.000357296 7.97572e-06 0)
(-0.000385547 8.07183e-06 0)
(-0.000414122 8.1508e-06 0)
(-0.000442965 8.21478e-06 0)
(-0.000472026 8.26505e-06 0)
(-0.000501258 8.30226e-06 0)
(-0.000530616 8.32766e-06 0)
(-0.000560062 8.34252e-06 0)
(-0.000589555 8.34779e-06 0)
(-0.000619063 8.34416e-06 0)
(-0.000648553 8.3319e-06 0)
(-0.000677993 8.3113e-06 0)
(-0.000707357 8.28336e-06 0)
(-0.000736617 8.249e-06 0)
(-0.000765748 8.20841e-06 0)
(-0.000794726 8.16143e-06 0)
(-0.000823529 8.10806e-06 0)
(-0.000852135 8.04871e-06 0)
(-0.000880522 7.98408e-06 0)
(-0.00090867 7.91465e-06 0)
(-0.00093656 7.84024e-06 0)
(-0.00096417 7.76031e-06 0)
(-0.000991483 7.67463e-06 0)
(-0.00101848 7.58347e-06 0)
(-0.00104514 7.48722e-06 0)
(-0.00107144 7.386e-06 0)
(-0.00109736 7.27952e-06 0)
(-0.00112289 7.16734e-06 0)
(-0.001148 7.04917e-06 0)
(-0.00117267 6.92499e-06 0)
(-0.00119688 6.79481e-06 0)
(-0.00122061 6.65852e-06 0)
(-0.00124384 6.51584e-06 0)
(-0.00126654 6.36655e-06 0)
(-0.00128869 6.21057e-06 0)
(-0.00131027 6.04779e-06 0)
(-0.00133125 5.87795e-06 0)
(-0.0013516 5.70081e-06 0)
(-0.0013713 5.5162e-06 0)
(-0.00139033 5.32394e-06 0)
(-0.00140866 5.12388e-06 0)
(-0.00142625 4.91591e-06 0)
(-0.00144309 4.69996e-06 0)
(-0.00145915 4.47593e-06 0)
(-0.0014744 4.24379e-06 0)
(-0.0014888 4.00353e-06 0)
(-0.00150234 3.75506e-06 0)
(-0.00151498 3.4983e-06 0)
(-0.00152669 3.23319e-06 0)
(-0.00153745 2.95978e-06 0)
(-0.00154724 2.67827e-06 0)
(-0.00155601 2.38878e-06 0)
(-0.00156375 2.0914e-06 0)
(-0.00157043 1.78631e-06 0)
(-0.00157602 1.47363e-06 0)
(-0.00158049 1.15353e-06 0)
(-0.00158384 8.26255e-07 0)
(-0.00158602 4.92118e-07 0)
(-0.00158701 1.51598e-07 0)
(-0.00158681 -1.94798e-07 0)
(-0.00158538 -5.46724e-07 0)
(-0.00158271 -9.0388e-07 0)
(-0.00157879 -1.26587e-06 0)
(-0.00157359 -1.63218e-06 0)
(-0.00156711 -2.00215e-06 0)
(-0.00155934 -2.37503e-06 0)
(-0.00155026 -2.75009e-06 0)
(-0.00153987 -3.12662e-06 0)
(-0.00152818 -3.50391e-06 0)
(-0.00151517 -3.88128e-06 0)
(-0.00150085 -4.25797e-06 0)
(-0.00148523 -4.63308e-06 0)
(-0.0014683 -5.0057e-06 0)
(-0.00145009 -5.37485e-06 0)
(-0.00143061 -5.73958e-06 0)
(-0.00140987 -6.09897e-06 0)
(-0.0013879 -6.45219e-06 0)
(-0.00136471 -6.7983e-06 0)
(-0.00134034 -7.13623e-06 0)
(-0.00131481 -7.46489e-06 0)
(-0.00128816 -7.78326e-06 0)
(-0.00126043 -8.09036e-06 0)
(-0.00123166 -8.38523e-06 0)
(-0.00120188 -8.66689e-06 0)
(-0.00117115 -8.93444e-06 0)
(-0.00113952 -9.18695e-06 0)
(-0.00110704 -9.42339e-06 0)
(-0.00107377 -9.64269e-06 0)
(-0.00103977 -9.84388e-06 0)
(-0.0010051 -1.00262e-05 0)
(-0.000969834 -1.01889e-05 0)
(-0.000934031 -1.03313e-05 0)
(-0.000897766 -1.04525e-05 0)
(-0.000861113 -1.05519e-05 0)
(-0.000824148 -1.06289e-05 0)
(-0.000786949 -1.06829e-05 0)
(-0.000749596 -1.07131e-05 0)
(-0.000712171 -1.07191e-05 0)
(-0.000674758 -1.07007e-05 0)
(-0.000637441 -1.06574e-05 0)
(-0.000600307 -1.05888e-05 0)
(-0.000563442 -1.04948e-05 0)
(-0.000526934 -1.03752e-05 0)
(-0.000490873 -1.02299e-05 0)
(-0.000455345 -1.00585e-05 0)
(-0.00042044 -9.8612e-06 0)
(-0.000386247 -9.63799e-06 0)
(-0.000352855 -9.38911e-06 0)
(-0.000320352 -9.11458e-06 0)
(-0.000288826 -8.81447e-06 0)
(-0.000258363 -8.48907e-06 0)
(-0.00022905 -8.13871e-06 0)
(-0.00020097 -7.76359e-06 0)
(-0.000174209 -7.36385e-06 0)
(-0.000148846 -6.9399e-06 0)
(-0.000124963 -6.49243e-06 0)
(-0.000102636 -6.02196e-06 0)
(-8.19401e-05 -5.52884e-06 0)
(-6.29478e-05 -5.01367e-06 0)
(-4.57267e-05 -4.47749e-06 0)
(-3.03399e-05 -3.92147e-06 0)
(-1.68451e-05 -3.34679e-06 0)
(-5.2927e-06 -2.75512e-06 0)
(4.27613e-06 -2.14905e-06 0)
(1.1833e-05 -1.5319e-06 0)
(1.73664e-05 -9.08556e-07 0)
(2.08872e-05 -2.86189e-07 0)
(2.24383e-05 3.24085e-07 0)
(2.21085e-05 9.04506e-07 0)
(2.00543e-05 1.42635e-06 0)
(1.65325e-05 1.84226e-06 0)
(1.19446e-05 2.0753e-06 0)
(6.91546e-06 1.99879e-06 0)
(2.51601e-06 1.42561e-06 0)
(3.22645e-07 3.23209e-07 0)
(1.62256e-06 -3.24948e-06 0)
(6.10578e-06 -6.0759e-06 0)
(1.13904e-05 -5.77894e-06 0)
(1.45344e-05 -3.50379e-06 0)
(1.37089e-05 -9.69958e-08 0)
(7.94958e-06 3.90681e-06 0)
(-3.29107e-06 8.16474e-06 0)
(-2.02506e-05 1.24657e-05 0)
(-4.29422e-05 1.66798e-05 0)
(-7.12567e-05 2.07276e-05 0)
(-0.00010499 2.45657e-05 0)
(-0.000143877 2.81738e-05 0)
(-0.000187624 3.15391e-05 0)
(-0.000235918 3.46574e-05 0)
(-0.000288436 3.75299e-05 0)
(-0.000344861 4.01641e-05 0)
(-0.000404877 4.25695e-05 0)
(-0.000468181 4.4756e-05 0)
(-0.000534478 4.67339e-05 0)
(-0.000603486 4.85148e-05 0)
(-0.00067494 5.01101e-05 0)
(-0.000748586 5.15306e-05 0)
(-0.000824188 5.2787e-05 0)
(-0.000901521 5.38912e-05 0)
(-0.000980376 5.48541e-05 0)
(-0.00106056 5.56854e-05 0)
(-0.00114188 5.63941e-05 0)
(-0.00122417 5.69888e-05 0)
(-0.00130728 5.74782e-05 0)
(-0.00139106 5.78701e-05 0)
(-0.00147536 5.81708e-05 0)
(-0.00156006 5.8387e-05 0)
(-0.00164504 5.85256e-05 0)
(-0.00173019 5.85925e-05 0)
(-0.00181541 5.85924e-05 0)
(-0.00190059 5.8529e-05 0)
(-0.00198566 5.84063e-05 0)
(-0.00207052 5.82287e-05 0)
(-0.00215509 5.79998e-05 0)
(-0.0022393 5.77222e-05 0)
(-0.00232308 5.73977e-05 0)
(-0.00240636 5.70278e-05 0)
(-0.00248906 5.66147e-05 0)
(-0.00257114 5.61602e-05 0)
(-0.00265252 5.56657e-05 0)
(-0.00273315 5.51314e-05 0)
(-0.00281296 5.45574e-05 0)
(-0.0028919 5.3944e-05 0)
(-0.00296992 5.32916e-05 0)
(-0.00304694 5.26002e-05 0)
(-0.00312291 5.18695e-05 0)
(-0.00319778 5.1099e-05 0)
(-0.00327148 5.02878e-05 0)
(-0.00334396 4.9435e-05 0)
(-0.00341515 4.85401e-05 0)
(-0.00348498 4.76025e-05 0)
(-0.00355341 4.66211e-05 0)
(-0.00362036 4.55947e-05 0)
(-0.00368576 4.45219e-05 0)
(-0.00374955 4.34019e-05 0)
(-0.00381166 4.22338e-05 0)
(-0.00387201 4.10167e-05 0)
(-0.00393055 3.97495e-05 0)
(-0.00398718 3.84312e-05 0)
(-0.00404185 3.70608e-05 0)
(-0.00409447 3.56371e-05 0)
(-0.00414496 3.41595e-05 0)
(-0.00419326 3.26275e-05 0)
(-0.00423927 3.10406e-05 0)
(-0.00428293 2.93985e-05 0)
(-0.00432415 2.7701e-05 0)
(-0.00436285 2.59476e-05 0)
(-0.00439896 2.41383e-05 0)
(-0.0044324 2.22733e-05 0)
(-0.00446307 2.03531e-05 0)
(-0.00449092 1.83784e-05 0)
(-0.00451586 1.63499e-05 0)
(-0.00453781 1.42684e-05 0)
(-0.0045567 1.21351e-05 0)
(-0.00457246 9.95135e-06 0)
(-0.00458503 7.71888e-06 0)
(-0.00459432 5.43961e-06 0)
(-0.00460028 3.11567e-06 0)
(-0.00460284 7.49458e-07 0)
(-0.00460195 -1.65627e-06 0)
(-0.00459756 -4.09863e-06 0)
(-0.00458962 -6.57458e-06 0)
(-0.00457807 -9.0808e-06 0)
(-0.00456289 -1.16136e-05 0)
(-0.00454404 -1.41688e-05 0)
(-0.00452149 -1.67422e-05 0)
(-0.00449523 -1.93291e-05 0)
(-0.00446522 -2.19248e-05 0)
(-0.00443148 -2.45242e-05 0)
(-0.00439399 -2.71222e-05 0)
(-0.00435277 -2.97132e-05 0)
(-0.00430783 -3.22917e-05 0)
(-0.00425919 -3.48518e-05 0)
(-0.00420688 -3.73873e-05 0)
(-0.00415095 -3.98921e-05 0)
(-0.00409145 -4.23596e-05 0)
(-0.00402843 -4.47836e-05 0)
(-0.00396196 -4.71576e-05 0)
(-0.00389212 -4.94748e-05 0)
(-0.003819 -5.17287e-05 0)
(-0.00374268 -5.39123e-05 0)
(-0.00366329 -5.60191e-05 0)
(-0.00358092 -5.80424e-05 0)
(-0.00349572 -5.99755e-05 0)
(-0.0034078 -6.18117e-05 0)
(-0.00331732 -6.35446e-05 0)
(-0.00322442 -6.51679e-05 0)
(-0.00312927 -6.66753e-05 0)
(-0.00303204 -6.80608e-05 0)
(-0.00293291 -6.93185e-05 0)
(-0.00283206 -7.04431e-05 0)
(-0.00272968 -7.14293e-05 0)
(-0.00262598 -7.22721e-05 0)
(-0.00252117 -7.29668e-05 0)
(-0.00241546 -7.35091e-05 0)
(-0.00230906 -7.38949e-05 0)
(-0.00220222 -7.41204e-05 0)
(-0.00209515 -7.41825e-05 0)
(-0.0019881 -7.40781e-05 0)
(-0.00188131 -7.38047e-05 0)
(-0.001775 -7.33603e-05 0)
(-0.00166944 -7.27429e-05 0)
(-0.00156488 -7.19513e-05 0)
(-0.00146155 -7.09848e-05 0)
(-0.00135971 -6.98425e-05 0)
(-0.00125961 -6.85244e-05 0)
(-0.0011615 -6.70307e-05 0)
(-0.00106563 -6.5362e-05 0)
(-0.00097226 -6.35196e-05 0)
(-0.000881624 -6.15044e-05 0)
(-0.000793971 -5.93184e-05 0)
(-0.00070954 -5.69639e-05 0)
(-0.000628571 -5.44435e-05 0)
(-0.000551294 -5.17603e-05 0)
(-0.000477938 -4.89179e-05 0)
(-0.000408721 -4.59207e-05 0)
(-0.000343858 -4.27739e-05 0)
(-0.00028355 -3.94834e-05 0)
(-0.000227991 -3.60563e-05 0)
(-0.00017736 -3.25013e-05 0)
(-0.000131818 -2.88294e-05 0)
(-9.15087e-05 -2.50542e-05 0)
(-5.65502e-05 -2.11931e-05 0)
(-2.70282e-05 -1.72687e-05 0)
(-2.9877e-06 -1.33111e-05 0)
(1.55794e-05 -9.36076e-06 0)
(2.87509e-05 -5.47327e-06 0)
(3.6698e-05 -1.72628e-06 0)
(3.97172e-05 1.76977e-06 0)
(3.82747e-05 4.85511e-06 0)
(3.30652e-05 7.29952e-06 0)
(2.50703e-05 8.77175e-06 0)
(1.56359e-05 8.80524e-06 0)
(6.79809e-06 6.80722e-06 0)
(1.42152e-06 2.51448e-06 0)
(1.72281e-06 -6.88463e-06 0)
(5.85541e-06 -1.13838e-05 0)
(9.431e-06 -9.33983e-06 0)
(9.0499e-06 -3.02629e-06 0)
(2.56415e-06 5.98173e-06 0)
(-1.12958e-05 1.65333e-05 0)
(-3.33098e-05 2.78401e-05 0)
(-6.38578e-05 3.93844e-05 0)
(-0.000103038 5.08133e-05 0)
(-0.000150741 6.19017e-05 0)
(-0.000206717 7.25106e-05 0)
(-0.000270627 8.2552e-05 0)
(-0.000342063 9.19766e-05 0)
(-0.000420581 0.000100762 0)
(-0.00050572 0.000108902 0)
(-0.000597008 0.000116403 0)
(-0.000693976 0.000123281 0)
(-0.000796165 0.000129558 0)
(-0.000903129 0.000135259 0)
(-0.00101444 0.000140411 0)
(-0.00112967 0.000145044 0)
(-0.00124845 0.000149185 0)
(-0.00137039 0.000152864 0)
(-0.00149515 0.00015611 0)
(-0.00162239 0.00015895 0)
(-0.0017518 0.000161411 0)
(-0.00188309 0.000163518 0)
(-0.00201598 0.000165295 0)
(-0.00215023 0.000166767 0)
(-0.00228558 0.000167954 0)
(-0.00242182 0.000168876 0)
(-0.00255875 0.00016955 0)
(-0.00269615 0.000169996 0)
(-0.00283386 0.000170227 0)
(-0.00297171 0.00017026 0)
(-0.00310953 0.000170106 0)
(-0.00324717 0.000169776 0)
(-0.0033845 0.000169283 0)
(-0.00352138 0.000168634 0)
(-0.00365768 0.000167839 0)
(-0.00379329 0.000166903 0)
(-0.00392809 0.000165833 0)
(-0.00406197 0.000164633 0)
(-0.00419483 0.000163309 0)
(-0.00432656 0.000161863 0)
(-0.00445706 0.000160298 0)
(-0.00458623 0.000158615 0)
(-0.00471398 0.000156815 0)
(-0.00484021 0.000154898 0)
(-0.00496481 0.000152866 0)
(-0.0050877 0.000150716 0)
(-0.00520878 0.000148449 0)
(-0.00532795 0.000146061 0)
(-0.00544511 0.000143552 0)
(-0.00556016 0.00014092 0)
(-0.00567301 0.000138162 0)
(-0.00578353 0.000135275 0)
(-0.00589164 0.000132258 0)
(-0.00599722 0.000129107 0)
(-0.00610016 0.000125819 0)
(-0.00620035 0.000122391 0)
(-0.00629769 0.000118822 0)
(-0.00639204 0.000115107 0)
(-0.00648331 0.000111246 0)
(-0.00657135 0.000107234 0)
(-0.00665607 0.00010307 0)
(-0.00673733 9.87521e-05 0)
(-0.006815 9.42779e-05 0)
(-0.00688898 8.96466e-05 0)
(-0.00695912 8.48572e-05 0)
(-0.00702531 7.9909e-05 0)
(-0.00708741 7.48017e-05 0)
(-0.0071453 6.95354e-05 0)
(-0.00719886 6.41108e-05 0)
(-0.00724796 5.85292e-05 0)
(-0.00729248 5.27925e-05 0)
(-0.0073323 4.69029e-05 0)
(-0.00736729 4.08631e-05 0)
(-0.00739734 3.46767e-05 0)
(-0.00742234 2.83479e-05 0)
(-0.00744217 2.18817e-05 0)
(-0.00745674 1.52836e-05 0)
(-0.00746593 8.55985e-06 0)
(-0.00746966 1.71732e-06 0)
(-0.00746784 -5.23623e-06 0)
(-0.00746038 -1.22923e-05 0)
(-0.0074472 -1.9442e-05 0)
(-0.00742825 -2.66754e-05 0)
(-0.00740345 -3.39817e-05 0)
(-0.00737276 -4.13495e-05 0)
(-0.00733613 -4.87666e-05 0)
(-0.00729354 -5.622e-05 0)
(-0.00724496 -6.3696e-05 0)
(-0.00719038 -7.11803e-05 0)
(-0.00712981 -7.86579e-05 0)
(-0.00706325 -8.61133e-05 0)
(-0.00699074 -9.35305e-05 0)
(-0.00691231 -0.000100893 0)
(-0.00682802 -0.000108183 0)
(-0.00673793 -0.000115383 0)
(-0.00664212 -0.000122475 0)
(-0.00654068 -0.000129441 0)
(-0.00643374 -0.000136262 0)
(-0.0063214 -0.000142919 0)
(-0.00620381 -0.000149394 0)
(-0.00608112 -0.000155666 0)
(-0.00595351 -0.000161718 0)
(-0.00582115 -0.000167531 0)
(-0.00568425 -0.000173084 0)
(-0.00554302 -0.00017836 0)
(-0.00539769 -0.00018334 0)
(-0.00524849 -0.000188006 0)
(-0.0050957 -0.000192341 0)
(-0.00493957 -0.000196327 0)
(-0.0047804 -0.000199948 0)
(-0.00461847 -0.000203189 0)
(-0.0044541 -0.000206034 0)
(-0.0042876 -0.00020847 0)
(-0.00411932 -0.000210482 0)
(-0.00394958 -0.000212059 0)
(-0.00377874 -0.000213189 0)
(-0.00360716 -0.000213861 0)
(-0.00343521 -0.000214066 0)
(-0.00326325 -0.000213796 0)
(-0.00309168 -0.000213042 0)
(-0.00292087 -0.000211801 0)
(-0.00275123 -0.000210065 0)
(-0.00258313 -0.000207831 0)
(-0.00241698 -0.000205097 0)
(-0.00225317 -0.000201862 0)
(-0.0020921 -0.000198124 0)
(-0.00193418 -0.000193885 0)
(-0.0017798 -0.000189146 0)
(-0.00162935 -0.000183912 0)
(-0.00148322 -0.000178185 0)
(-0.0013418 -0.000171973 0)
(-0.00120547 -0.000165282 0)
(-0.0010746 -0.000158121 0)
(-0.000949567 -0.0001505 0)
(-0.000830715 -0.000142431 0)
(-0.000718388 -0.000133928 0)
(-0.000612917 -0.000125009 0)
(-0.000514614 -0.000115692 0)
(-0.000423771 -0.000106003 0)
(-0.000340657 -9.59698e-05 0)
(-0.000265511 -8.56287e-05 0)
(-0.000198538 -7.5024e-05 0)
(-0.000139898 -6.42118e-05 0)
(-8.96984e-05 -5.32637e-05 0)
(-4.79771e-05 -4.22724e-05 0)
(-1.46865e-05 -3.13599e-05 0)
(1.03313e-05 -2.06874e-05 0)
(2.73747e-05 -1.04713e-05 0)
(3.69226e-05 -1.00442e-06 0)
(3.96866e-05 7.31537e-06 0)
(3.66712e-05 1.39516e-05 0)
(2.92204e-05 1.81886e-05 0)
(1.90746e-05 1.91085e-05 0)
(8.7721e-06 1.56353e-05 0)
(1.9858e-06 6.89916e-06 0)
(1.32969e-06 -9.88819e-06 0)
(3.57202e-06 -1.45486e-05 0)
(3.09784e-06 -8.97418e-06 0)
(-3.35327e-06 3.41925e-06 0)
(-1.79911e-05 2.02719e-05 0)
(-4.22031e-05 3.98065e-05 0)
(-7.68564e-05 6.0753e-05 0)
(-0.000122425 8.22152e-05 0)
(-0.000179055 0.000103578 0)
(-0.000246649 0.000124422 0)
(-0.000324938 0.000144464 0)
(-0.000413531 0.000163525 0)
(-0.000511948 0.000181494 0)
(-0.000619654 0.00019831 0)
(-0.000736082 0.00021395 0)
(-0.000860646 0.000228414 0)
(-0.000992755 0.000241719 0)
(-0.00113182 0.000253898 0)
(-0.00127728 0.000264991 0)
(-0.00142857 0.000275044 0)
(-0.00158516 0.000284107 0)
(-0.00174653 0.000292229 0)
(-0.00191219 0.000299466 0)
(-0.00208168 0.000305867 0)
(-0.00225455 0.000311483 0)
(-0.0024304 0.000316364 0)
(-0.00260883 0.000320556 0)
(-0.00278947 0.000324105 0)
(-0.00297198 0.000327054 0)
(-0.00315603 0.000329444 0)
(-0.00334133 0.000331312 0)
(-0.00352758 0.000332693 0)
(-0.00371452 0.000333621 0)
(-0.00390191 0.000334124 0)
(-0.00408951 0.000334232 0)
(-0.00427709 0.000333967 0)
(-0.00446446 0.000333354 0)
(-0.00465142 0.000332412 0)
(-0.00483778 0.000331161 0)
(-0.00502337 0.000329614 0)
(-0.00520802 0.000327786 0)
(-0.00539157 0.000325689 0)
(-0.00557387 0.000323333 0)
(-0.00575477 0.000320726 0)
(-0.00593413 0.000317874 0)
(-0.0061118 0.000314783 0)
(-0.00628765 0.000311456 0)
(-0.00646154 0.000307896 0)
(-0.00663334 0.000304103 0)
(-0.00680291 0.000300079 0)
(-0.00697013 0.000295821 0)
(-0.00713484 0.000291328 0)
(-0.00729694 0.000286599 0)
(-0.00745626 0.000281628 0)
(-0.00761268 0.000276414 0)
(-0.00776606 0.000270951 0)
(-0.00791626 0.000265236 0)
(-0.00806312 0.000259263 0)
(-0.00820652 0.000253026 0)
(-0.00834628 0.000246522 0)
(-0.00848228 0.000239745 0)
(-0.00861434 0.00023269 0)
(-0.00874232 0.000225352 0)
(-0.00886606 0.000217727 0)
(-0.00898539 0.000209809 0)
(-0.00910016 0.000201595 0)
(-0.00921019 0.000193081 0)
(-0.00931533 0.000184265 0)
(-0.0094154 0.000175143 0)
(-0.00951023 0.000165715 0)
(-0.00959967 0.000155979 0)
(-0.00968353 0.000145935 0)
(-0.00976165 0.000135583 0)
(-0.00983387 0.000124926 0)
(-0.00990001 0.000113965 0)
(-0.00995991 0.000102705 0)
(-0.0100134 9.11498e-05 0)
(-0.0100604 7.93058e-05 0)
(-0.0101006 6.71796e-05 0)
(-0.010134 5.47798e-05 0)
(-0.0101603 4.21161e-05 0)
(-0.0101795 2.91993e-05 0)
(-0.0101915 1.60419e-05 0)
(-0.010196 2.65732e-06 0)
(-0.010193 -1.09393e-05 0)
(-0.0101823 -2.47314e-05 0)
(-0.010164 -3.87013e-05 0)
(-0.0101378 -5.28297e-05 0)
(-0.0101037 -6.70956e-05 0)
(-0.0100616 -8.14768e-05 0)
(-0.0100116 -9.59495e-05 0)
(-0.00995345 -0.000110489 0)
(-0.00988724 -0.000125068 0)
(-0.00981294 -0.00013966 0)
(-0.00973054 -0.000154235 0)
(-0.00964008 -0.000168764 0)
(-0.00954159 -0.000183215 0)
(-0.00943512 -0.000197555 0)
(-0.00932074 -0.000211753 0)
(-0.00919856 -0.000225773 0)
(-0.00906867 -0.000239581 0)
(-0.00893122 -0.000253142 0)
(-0.00878633 -0.000266418 0)
(-0.0086342 -0.000279375 0)
(-0.00847499 -0.000291976 0)
(-0.00830892 -0.000304183 0)
(-0.00813623 -0.00031596 0)
(-0.00795714 -0.00032727 0)
(-0.00777195 -0.000338077 0)
(-0.00758092 -0.000348345 0)
(-0.00738438 -0.000358038 0)
(-0.00718264 -0.000367122 0)
(-0.00697605 -0.000375563 0)
(-0.00676497 -0.000383328 0)
(-0.00654979 -0.000390386 0)
(-0.00633089 -0.000396705 0)
(-0.0061087 -0.000402258 0)
(-0.00588364 -0.000407016 0)
(-0.00565615 -0.000410955 0)
(-0.0054267 -0.000414049 0)
(-0.00519575 -0.000416276 0)
(-0.00496378 -0.000417617 0)
(-0.00473128 -0.000418053 0)
(-0.00449876 -0.000417568 0)
(-0.00426672 -0.000416148 0)
(-0.00403568 -0.000413781 0)
(-0.00380616 -0.000410457 0)
(-0.00357869 -0.000406168 0)
(-0.0033538 -0.000400911 0)
(-0.00313201 -0.000394682 0)
(-0.00291387 -0.00038748 0)
(-0.0026999 -0.000379308 0)
(-0.00249063 -0.00037017 0)
(-0.00228659 -0.000360074 0)
(-0.0020883 -0.000349027 0)
(-0.00189627 -0.000337043 0)
(-0.00171101 -0.000324137 0)
(-0.00153301 -0.000310326 0)
(-0.00136275 -0.000295633 0)
(-0.0012007 -0.000280083 0)
(-0.00104731 -0.000263706 0)
(-0.000903016 -0.000246538 0)
(-0.00076821 -0.000228622 0)
(-0.000643273 -0.000210009 0)
(-0.000528543 -0.00019076 0)
(-0.00042432 -0.000170951 0)
(-0.000330853 -0.000150673 0)
(-0.000248327 -0.000130042 0)
(-0.000176857 -0.000109202 0)
(-0.000116464 -8.83387e-05 0)
(-6.70551e-05 -6.76873e-05 0)
(-2.83996e-05 -4.75541e-05 0)
(-9.25168e-08 -2.83376e-05 0)
(1.84846e-05 -1.05588e-05 0)
(2.82148e-05 5.10103e-06 0)
(3.02992e-05 1.77551e-05 0)
(2.62952e-05 2.6273e-05 0)
(1.8168e-05 2.92525e-05 0)
(8.72646e-06 2.50506e-05 0)
(2.05303e-06 1.18979e-05 0)
(7.13724e-07 -1.12984e-05 0)
(1.38823e-07 -1.37549e-05 0)
(-5.95429e-06 -2.48473e-06 0)
(-2.02954e-05 1.80671e-05 0)
(-4.4903e-05 4.48222e-05 0)
(-8.1145e-05 7.54393e-05 0)
(-0.000129903 0.000108161 0)
(-0.000191654 0.000141721 0)
(-0.000266555 0.000175218 0)
(-0.000354512 0.000208011 0)
(-0.000455237 0.00023966 0)
(-0.000568301 0.000269866 0)
(-0.000693171 0.000298439 0)
(-0.000829248 0.000325265 0)
(-0.000975883 0.00035029 0)
(-0.0011324 0.0003735 0)
(-0.00129812 0.00039491 0)
(-0.00147236 0.000414558 0)
(-0.00165443 0.0004325 0)
(-0.00184367 0.000448798 0)
(-0.00203946 0.000463524 0)
(-0.00224117 0.000476753 0)
(-0.0024482 0.000488565 0)
(-0.00266 0.000499037 0)
(-0.00287603 0.000508246 0)
(-0.00309578 0.000516268 0)
(-0.00331877 0.000523176 0)
(-0.00354455 0.000529042 0)
(-0.00377268 0.000533931 0)
(-0.00400278 0.000537907 0)
(-0.00423446 0.00054103 0)
(-0.00446736 0.000543357 0)
(-0.00470116 0.000544938 0)
(-0.00493554 0.000545822 0)
(-0.00517021 0.000546053 0)
(-0.00540488 0.000545669 0)
(-0.00563931 0.000544709 0)
(-0.00587323 0.000543205 0)
(-0.00610642 0.000541187 0)
(-0.00633866 0.000538678 0)
(-0.00656972 0.000535702 0)
(-0.00679942 0.000532278 0)
(-0.00702754 0.000528423 0)
(-0.0072539 0.000524151 0)
(-0.00747833 0.000519472 0)
(-0.00770063 0.000514394 0)
(-0.00792063 0.000508925 0)
(-0.00813816 0.000503068 0)
(-0.00835305 0.000496827 0)
(-0.00856513 0.000490201 0)
(-0.00877422 0.00048319 0)
(-0.00898016 0.000475791 0)
(-0.00918278 0.000468001 0)
(-0.0093819 0.000459815 0)
(-0.00957735 0.000451228 0)
(-0.00976896 0.000442233 0)
(-0.00995654 0.000432824 0)
(-0.0101399 0.000422993 0)
(-0.0103189 0.000412732 0)
(-0.0104933 0.000402034 0)
(-0.010663 0.000390891 0)
(-0.0108277 0.000379296 0)
(-0.0109872 0.00036724 0)
(-0.0111414 0.000354717 0)
(-0.0112901 0.000341719 0)
(-0.011433 0.000328242 0)
(-0.01157 0.000314278 0)
(-0.0117008 0.000299825 0)
(-0.0118252 0.000284878 0)
(-0.0119431 0.000269435 0)
(-0.0120542 0.000253496 0)
(-0.0121583 0.000237059 0)
(-0.0122552 0.000220127 0)
(-0.0123447 0.000202702 0)
(-0.0124266 0.000184789 0)
(-0.0125007 0.000166394 0)
(-0.0125668 0.000147525 0)
(-0.0126247 0.000128192 0)
(-0.0126742 0.000108406 0)
(-0.0127151 8.81825e-05 0)
(-0.0127473 6.75357e-05 0)
(-0.0127706 4.6484e-05 0)
(-0.0127848 2.50477e-05 0)
(-0.0127898 3.24915e-06 0)
(-0.0127854 -1.88872e-05 0)
(-0.0127715 -4.13345e-05 0)
(-0.0127479 -6.40637e-05 0)
(-0.0127147 -8.70433e-05 0)
(-0.0126716 -0.00011024 0)
(-0.0126186 -0.000133617 0)
(-0.0125557 -0.000157136 0)
(-0.0124827 -0.000180757 0)
(-0.0123998 -0.000204437 0)
(-0.0123067 -0.000228132 0)
(-0.0122037 -0.000251794 0)
(-0.0120906 -0.000275376 0)
(-0.0119676 -0.000298827 0)
(-0.0118347 -0.000322094 0)
(-0.0116919 -0.000345125 0)
(-0.0115396 -0.000367865 0)
(-0.0113776 -0.000390258 0)
(-0.0112063 -0.000412246 0)
(-0.0110258 -0.000433772 0)
(-0.0108363 -0.000454777 0)
(-0.0106381 -0.000475203 0)
(-0.0104314 -0.00049499 0)
(-0.0102165 -0.000514079 0)
(-0.00999363 -0.000532411 0)
(-0.00976323 -0.000549928 0)
(-0.00952562 -0.000566572 0)
(-0.00928118 -0.000582286 0)
(-0.00903031 -0.000597015 0)
(-0.00877343 -0.000610703 0)
(-0.008511 -0.000623299 0)
(-0.00824348 -0.000634751 0)
(-0.00797136 -0.00064501 0)
(-0.00769516 -0.000654031 0)
(-0.00741539 -0.000661768 0)
(-0.00713261 -0.000668181 0)
(-0.00684738 -0.000673231 0)
(-0.00656027 -0.000676881 0)
(-0.00627189 -0.000679101 0)
(-0.00598282 -0.000679859 0)
(-0.0056937 -0.00067913 0)
(-0.00540514 -0.000676891 0)
(-0.00511778 -0.000673124 0)
(-0.00483226 -0.000667813 0)
(-0.00454923 -0.000660946 0)
(-0.00426934 -0.000652516 0)
(-0.00399324 -0.000642518 0)
(-0.00372159 -0.000630952 0)
(-0.00345504 -0.000617822 0)
(-0.00319424 -0.000603136 0)
(-0.00293982 -0.000586906 0)
(-0.00269244 -0.000569149 0)
(-0.00245271 -0.000549885 0)
(-0.00222125 -0.000529142 0)
(-0.00199866 -0.000506949 0)
(-0.00178553 -0.000483346 0)
(-0.00158242 -0.000458377 0)
(-0.00138987 -0.000432094 0)
(-0.0012084 -0.00040456 0)
(-0.00103849 -0.000375849 0)
(-0.00088058 -0.000346048 0)
(-0.000735068 -0.000315263 0)
(-0.000602298 -0.000283622 0)
(-0.000482552 -0.00025128 0)
(-0.000376031 -0.00021843 0)
(-0.00028285 -0.000185308 0)
(-0.000203009 -0.000152214 0)
(-0.000136377 -0.00011952 0)
(-8.26643e-05 -8.77039e-05 0)
(-4.13859e-05 -5.73681e-05 0)
(-1.18282e-05 -2.92831e-05 0)
(6.99718e-06 -4.42828e-06 0)
(1.64053e-05 1.59555e-05 0)
(1.80688e-05 3.03202e-05 0)
(1.40646e-05 3.67717e-05 0)
(7.28309e-06 3.30586e-05 0)
(1.81662e-06 1.6452e-05 0)
(7.27603e-09 -1.07062e-05 0)
(-3.89427e-06 -7.9865e-06 0)
(-1.6614e-05 1.14476e-05 0)
(-4.00703e-05 4.23761e-05 0)
(-7.59129e-05 8.11168e-05 0)
(-0.000125408 0.000124808 0)
(-0.000189355 0.000171268 0)
(-0.000268177 0.000218878 0)
(-0.000362001 0.000266446 0)
(-0.000470707 0.000313112 0)
(-0.000593981 0.000358262 0)
(-0.000731358 0.000401471 0)
(-0.000882265 0.000442454 0)
(-0.00104604 0.000481034 0)
(-0.00122199 0.000517115 0)
(-0.00140935 0.000550661 0)
(-0.00160737 0.000581678 0)
(-0.00181528 0.000610209 0)
(-0.00203233 0.000636318 0)
(-0.00225776 0.000660085 0)
(-0.00249084 0.000681604 0)
(-0.00273088 0.000700977 0)
(-0.00297719 0.000718307 0)
(-0.00322912 0.000733701 0)
(-0.00348606 0.000747266 0)
(-0.00374741 0.000759107 0)
(-0.00401261 0.000769326 0)
(-0.00428113 0.000778024 0)
(-0.00455247 0.000785292 0)
(-0.00482616 0.000791222 0)
(-0.00510176 0.000795898 0)
(-0.00537883 0.0007994 0)
(-0.00565699 0.000801803 0)
(-0.00593587 0.000803175 0)
(-0.00621511 0.000803578 0)
(-0.00649438 0.00080307 0)
(-0.00677336 0.000801706 0)
(-0.00705176 0.000799531 0)
(-0.0073293 0.000796589 0)
(-0.00760571 0.000792917 0)
(-0.00788073 0.000788546 0)
(-0.00815411 0.000783507 0)
(-0.00842562 0.000777823 0)
(-0.00869502 0.000771515 0)
(-0.0089621 0.0007646 0)
(-0.00922664 0.000757089 0)
(-0.00948842 0.000748993 0)
(-0.00974724 0.00074032 0)
(-0.0100029 0.000731072 0)
(-0.0102551 0.000721252 0)
(-0.0105038 0.000710859 0)
(-0.0107487 0.00069989 0)
(-0.0109896 0.00068834 0)
(-0.0112263 0.000676204 0)
(-0.0114586 0.000663475 0)
(-0.0116863 0.000650143 0)
(-0.0119091 0.0006362 0)
(-0.0121269 0.000621635 0)
(-0.0123394 0.000606437 0)
(-0.0125464 0.000590596 0)
(-0.0127478 0.000574102 0)
(-0.0129431 0.000556944 0)
(-0.0131323 0.000539111 0)
(-0.0133151 0.000520594 0)
(-0.0134913 0.000501382 0)
(-0.0136606 0.000481469 0)
(-0.0138228 0.000460847 0)
(-0.0139776 0.00043951 0)
(-0.0141248 0.000417454 0)
(-0.0142642 0.000394675 0)
(-0.0143954 0.000371173 0)
(-0.0145184 0.000346947 0)
(-0.0146327 0.000322001 0)
(-0.0147383 0.00029634 0)
(-0.0148348 0.00026997 0)
(-0.014922 0.000242901 0)
(-0.0149996 0.000215145 0)
(-0.0150676 0.000186717 0)
(-0.0151255 0.000157635 0)
(-0.0151733 0.000127919 0)
(-0.0152107 9.7592e-05 0)
(-0.0152375 6.6681e-05 0)
(-0.0152536 3.52157e-05 0)
(-0.0152587 3.22888e-06 0)
(-0.0152527 -2.92433e-05 0)
(-0.0152354 -6.21615e-05 0)
(-0.0152068 -9.54831e-05 0)
(-0.0151666 -0.000129162 0)
(-0.0151148 -0.000163149 0)
(-0.0150513 -0.000197391 0)
(-0.0149761 -0.000231833 0)
(-0.0148889 -0.000266415 0)
(-0.01479 -0.000301076 0)
(-0.0146792 -0.00033575 0)
(-0.0145565 -0.000370369 0)
(-0.014422 -0.000404863 0)
(-0.0142757 -0.000439159 0)
(-0.0141178 -0.000473181 0)
(-0.0139484 -0.000506851 0)
(-0.0137675 -0.000540091 0)
(-0.0135754 -0.000572818 0)
(-0.0133722 -0.00060495 0)
(-0.0131582 -0.000636403 0)
(-0.0129336 -0.000667092 0)
(-0.0126987 -0.000696932 0)
(-0.0124538 -0.000725837 0)
(-0.0121992 -0.000753721 0)
(-0.0119354 -0.000780499 0)
(-0.0116626 -0.000806086 0)
(-0.0113813 -0.000830399 0)
(-0.011092 -0.000853355 0)
(-0.0107951 -0.000874873 0)
(-0.0104911 -0.000894875 0)
(-0.0101806 -0.000913284 0)
(-0.00986411 -0.000930027 0)
(-0.00954218 -0.000945033 0)
(-0.00921542 -0.000958234 0)
(-0.00888447 -0.000969567 0)
(-0.00854995 -0.000978971 0)
(-0.00821253 -0.000986391 0)
(-0.00787288 -0.000991774 0)
(-0.0075317 -0.000995074 0)
(-0.00718969 -0.000996248 0)
(-0.00684758 -0.000995258 0)
(-0.00650611 -0.000992072 0)
(-0.006166 -0.000986663 0)
(-0.00582803 -0.000979008 0)
(-0.00549293 -0.000969091 0)
(-0.00516147 -0.000956901 0)
(-0.00483442 -0.000942432 0)
(-0.00451254 -0.000925686 0)
(-0.00419659 -0.000906668 0)
(-0.00388732 -0.000885393 0)
(-0.00358548 -0.000861877 0)
(-0.00329183 -0.000836148 0)
(-0.00300707 -0.000808239 0)
(-0.00273193 -0.00077819 0)
(-0.00246711 -0.00074605 0)
(-0.00221327 -0.000711878 0)
(-0.00197108 -0.000675743 0)
(-0.00174114 -0.000637726 0)
(-0.00152404 -0.000597923 0)
(-0.00132034 -0.000556448 0)
(-0.00113052 -0.000513436 0)
(-0.000955043 -0.000469046 0)
(-0.000794274 -0.000423471 0)
(-0.000648523 -0.000376944 0)
(-0.000518003 -0.000329747 0)
(-0.000402825 -0.000282228 0)
(-0.000302975 -0.000234813 0)
(-0.000218291 -0.000188032 0)
(-0.000148442 -0.000142544 0)
(-9.28929e-05 -9.91708e-05 0)
(-5.08732e-05 -5.89384e-05 0)
(-2.13391e-05 -2.31247e-05 0)
(-2.9295e-06 6.6848e-06 0)
(6.0649e-06 2.85341e-05 0)
(7.74941e-06 4.00508e-05 0)
(4.93523e-06 3.83918e-05 0)
(1.4083e-06 1.99646e-05 0)
(-7.26788e-07 -7.90795e-06 0)
(-8.21313e-06 3.33936e-06 0)
(-2.81411e-05 3.36675e-05 0)
(-6.14672e-05 7.73346e-05 0)
(-0.000109386 0.000130165 0)
(-0.000172963 0.000188878 0)
(-0.000252853 0.000250925 0)
(-0.000349379 0.000314365 0)
(-0.000462594 0.000377744 0)
(-0.000592324 0.000439984 0)
(-0.000738213 0.0005003 0)
(-0.000899755 0.000558136 0)
(-0.00107633 0.000613108 0)
(-0.00126724 0.00066497 0)
(-0.00147172 0.000713575 0)
(-0.00168896 0.00075886 0)
(-0.00191815 0.000800818 0)
(-0.00215845 0.000839489 0)
(-0.00240903 0.000874945 0)
(-0.00266907 0.000907281 0)
(-0.00293777 0.000936614 0)
(-0.00321434 0.000963068 0)
(-0.00349804 0.000986774 0)
(-0.00378815 0.00100787 0)
(-0.00408396 0.00102649 0)
(-0.00438481 0.00104278 0)
(-0.00469007 0.00105686 0)
(-0.00499915 0.00106887 0)
(-0.00531148 0.00107892 0)
(-0.00562651 0.00108715 0)
(-0.00594374 0.00109366 0)
(-0.00626269 0.00109855 0)
(-0.0065829 0.00110193 0)
(-0.00690395 0.00110389 0)
(-0.00722543 0.00110452 0)
(-0.00754696 0.00110388 0)
(-0.00786817 0.00110205 0)
(-0.00818873 0.00109911 0)
(-0.00850829 0.00109509 0)
(-0.00882655 0.00109006 0)
(-0.00914321 0.00108406 0)
(-0.00945798 0.00107713 0)
(-0.00977059 0.0010693 0)
(-0.0100808 0.0010606 0)
(-0.0103882 0.00105105 0)
(-0.0106928 0.00104067 0)
(-0.0109941 0.00102948 0)
(-0.011292 0.00101749 0)
(-0.0115862 0.0010047 0)
(-0.0118765 0.000991108 0)
(-0.0121626 0.000976725 0)
(-0.0124443 0.000961544 0)
(-0.0127214 0.000945559 0)
(-0.0129936 0.000928763 0)
(-0.0132606 0.000911147 0)
(-0.0135223 0.000892701 0)
(-0.0137784 0.000873411 0)
(-0.0140287 0.000853266 0)
(-0.0142728 0.000832251 0)
(-0.0145105 0.000810354 0)
(-0.0147416 0.000787559 0)
(-0.0149659 0.000763855 0)
(-0.015183 0.000739226 0)
(-0.0153926 0.000713661 0)
(-0.0155946 0.000687148 0)
(-0.0157887 0.000659676 0)
(-0.0159745 0.000631236 0)
(-0.0161517 0.000601822 0)
(-0.0163202 0.000571428 0)
(-0.0164797 0.00054005 0)
(-0.0166298 0.000507688 0)
(-0.0167703 0.000474342 0)
(-0.0169009 0.000440018 0)
(-0.0170213 0.000404722 0)
(-0.0171313 0.000368465 0)
(-0.0172306 0.00033126 0)
(-0.0173189 0.000293125 0)
(-0.0173961 0.00025408 0)