/*--------------------------------*- C++ -*----------------------------------*\
  =========                 |
  \\      /  F ield         | OpenFOAM: The Open Source CFD Toolbox
   \\    /   O peration     | Website:  https://openfoam.org
    \\  /    A nd           | Version:  7
     \\/     M anipulation  |
\*---------------------------------------------------------------------------*/
FoamFile
{
    version     2.0;
    format      ascii;
    class       volScalarField;
    location    "0.1625";
    object      p;
}
// * * * * * * * * * * * * * * * * * * * * * * * * * * * * * * * * * * * * * //

dimensions      [0 2 -2 0 0 0 0];

internalField   nonuniform List<scalar> 
25600
(
-3.67677e-07
0.000167896
0.000279088
0.000245195
4.79484e-05
-0.000301248
-0.000787785
-0.00139527
-0.0021067
-0.00290572
-0.00377724
-0.00470747
-0.00568336
-0.00669309
-0.00772578
-0.00877129
-0.00982062
-0.0108654
-0.011898
-0.0129112
-0.0138987
-0.0148548
-0.0157741
-0.0166519
-0.0174837
-0.0182657
-0.0189941
-0.0196657
-0.0202775
-0.020827
-0.0213119
-0.0217301
-0.0220799
-0.0223599
-0.0225687
-0.0227051
-0.0227685
-0.0227581
-0.0226735
-0.0225143
-0.0222804
-0.0219719
-0.0215888
-0.0211316
-0.0206007
-0.0199965
-0.0193198
-0.0185716
-0.0177527
-0.0168641
-0.0159071
-0.0148828
-0.0137925
-0.0126377
-0.01142
-0.0101409
-0.00880214
-0.00740542
-0.00595259
-0.00444558
-0.00288636
-0.00127693
0.000380668
0.00208428
0.00383169
0.00562064
0.00744883
0.00931391
0.0112135
0.013145
0.0151061
0.0170942
0.0191067
0.0211411
0.0231947
0.0252647
0.0273486
0.0294436
0.0315471
0.0336563
0.0357684
0.0378806
0.0399901
0.042094
0.0441898
0.0462745
0.0483453
0.0503994
0.0524339
0.0544462
0.0564334
0.0583929
0.0603219
0.0622177
0.0640776
0.0658989
0.067679
0.0694155
0.0711058
0.0727475
0.0743382
0.0758756
0.0773574
0.0787813
0.0801453
0.0814473
0.0826855
0.083858
0.084963
0.0859989
0.0869641
0.0878571
0.0886768
0.0894219
0.0900913
0.0906843
0.0912001
0.0916381
0.0919978
0.0922791
0.0924818
0.0926059
0.0926518
0.0926201
0.0925113
0.0923266
0.092067
0.0917338
0.0913287
0.0908536
0.0903105
0.0897019
0.0890305
0.0882993
0.0875117
0.0866712
0.0857821
0.0848487
0.0838757
0.0828684
0.0818325
0.0807741
0.0796999
0.078617
0.0775334
0.0764574
0.0753982
0.0743657
0.0733704
0.0724241
0.0715389
0.070728
0.0700054
0.0693855
0.0688825
0.0685096
0.0682762
0.0681842
0.0682229
0.0683371
-5.32209e-05
0.000109993
0.000178156
0.000116065
-7.68979e-05
-0.000396808
-0.000835324
-0.00138084
-0.00202025
-0.00274033
-0.00352839
-0.00437214
-0.00526032
-0.00618203
-0.00712726
-0.00808668
-0.0090517
-0.0100145
-0.0109677
-0.0119047
-0.0128192
-0.0137055
-0.0145585
-0.0153735
-0.0161462
-0.0168727
-0.0175494
-0.018173
-0.0187407
-0.0192498
-0.0196981
-0.0200834
-0.020404
-0.0206584
-0.0208451
-0.0209632
-0.0210117
-0.02099
-0.0208974
-0.0207336
-0.0204984
-0.0201918
-0.0198138
-0.0193648
-0.0188451
-0.0182551
-0.0175954
-0.016867
-0.0160707
-0.0152074
-0.0142782
-0.0132843
-0.0122268
-0.0111072
-0.009927
-0.0086876
-0.00739065
-0.00603782
-0.00463086
-0.00317162
-0.00166198
-0.000103872
0.00150071
0.00314971
0.00484101
0.00657244
0.00834176
0.0101467
0.0119849
0.013854
0.0157516
0.0176753
0.0196226
0.021591
0.0235779
0.0255807
0.0275968
0.0296237
0.0316587
0.0336992
0.0357424
0.0377856
0.0398261
0.0418613
0.0438885
0.045905
0.0479079
0.0498947
0.0518625
0.0538087
0.0557307
0.0576258
0.0594914
0.061325
0.0631237
0.0648852
0.0666069
0.0682864
0.0699213
0.0715094
0.0730482
0.0745356
0.0759693
0.0773473
0.0786674
0.0799279
0.0811269
0.0822626
0.0833335
0.0843378
0.0852742
0.0861412
0.0869378
0.0876627
0.0883152
0.0888943
0.0893994
0.0898301
0.0901859
0.0904666
0.0906722
0.0908028
0.0908588
0.0908408
0.0907496
0.090586
0.0903514
0.090047
0.0896744
0.0892356
0.0887327
0.0881681
0.0875445
0.0868649
0.0861325
0.0853511
0.0845245
0.0836571
0.0827536
0.081819
0.0808588
0.0798789
0.0788858
0.0778864
0.076888
0.0758987
0.074927
0.0739822
0.0730738
0.0722124
0.0714089
0.0706747
0.0700214
0.0694606
0.0690034
0.068659
0.0684328
0.0683248
0.0683373
0.0684514
1.24996e-06
0.000170859
0.000217081
0.000138555
-5.33484e-05
-0.000356151
-0.00076405
-0.00126791
-0.00185734
-0.00252113
-0.00324822
-0.00402789
-0.00484989
-0.0057044
-0.00658232
-0.00747483
-0.00837383
-0.00927195
-0.0101621
-0.0110381
-0.011894
-0.0127241
-0.0135236
-0.0142877
-0.0150123
-0.0156935
-0.0163279
-0.0169122
-0.0174436
-0.0179194
-0.0183374
-0.0186955
-0.0189919
-0.019225
-0.0193936
-0.0194964
-0.0195325
-0.0195013
-0.019402
-0.0192344
-0.0189981
-0.018693
-0.0183193
-0.017877
-0.0173666
-0.0167885
-0.0161432
-0.0154314
-0.0146541
-0.013812
-0.0129061
-0.0119377
-0.0109078
-0.00981784
-0.00866915
-0.00746317
-0.00620142
-0.00488554
-0.00351724
-0.00209826
-0.000630439
0.000884383
0.00244428
0.00404727
0.00569127
0.00737417
0.00909378
0.0108479
0.0126344
0.0144508
0.0162949
0.0181643
0.0200566
0.0219693
0.0238999
0.0258459
0.0278049
0.0297743
0.0317516
0.0337341
0.0357192
0.0377043
0.0396867
0.0416639
0.0436334
0.0455923
0.0475381
0.0494682
0.0513798
0.0532704
0.0551375
0.0569785
0.0587908
0.060572
0.0623194
0.0640306
0.0657032
0.067335
0.0689234
0.0704664
0.0719617
0.0734072
0.0748006
0.07614
0.0774234
0.0786491
0.0798153
0.0809203
0.0819625
0.0829405
0.0838527
0.0846981
0.0854753
0.0861835
0.0868217
0.0873893
0.0878856
0.0883101
0.0886626
0.0889429
0.0891509
0.0892869
0.0893513
0.0893448
0.089268
0.089122
0.0889079
0.0886272
0.0882814
0.0878725
0.0874026
0.0868741
0.0862896
0.0856521
0.0849648
0.0842313
0.0834555
0.0826415
0.081794
0.0809177
0.0800182
0.0791009
0.0781722
0.0772386
0.0763071
0.0753853
0.0744813
0.0736035
0.0727609
0.071963
0.0712196
0.0705407
0.0699365
0.0694168
0.0689909
0.0686665
0.0684481
0.0683376
0.0683503
0.0684908
0.000183717
0.000351036
0.000383362
0.000292507
9.80312e-05
-0.000196885
-0.000586924
-0.00106414
-0.00161942
-0.00224322
-0.00292578
-0.00365744
-0.00442893
-0.00523129
-0.00605612
-0.00689534
-0.00774133
-0.00858699
-0.00942577
-0.0102516
-0.0110588
-0.0118421
-0.0125967
-0.0133181
-0.0140021
-0.0146451
-0.0152435
-0.0157943
-0.0162947
-0.016742
-0.0171341
-0.0174687
-0.0177443
-0.0179591
-0.0181119
-0.0182015
-0.0182269
-0.0181874
-0.0180824
-0.0179113
-0.0176741
-0.0173704
-0.0170004
-0.0165642
-0.0160619
-0.0154941
-0.0148614
-0.0141643
-0.0134036
-0.0125802
-0.0116949
-0.0107489
-0.00974337
-0.0086795
-0.00755862
-0.00638211
-0.00515145
-0.0038682
-0.00253401
-0.0011506
0.000280275
0.00175683
0.00327722
0.00483953
0.00644172
0.0080817
0.00975737
0.0114666
0.0132073
0.0149772
0.0167739
0.0185952
0.0204388
0.0223022
0.0241831
0.026079
0.0279875
0.0299061
0.0318323
0.0337635
0.0356973
0.037631
0.0395622
0.0414882
0.0434066
0.0453148
0.0472102
0.0490902
0.0509523
0.0527939
0.0546126
0.0564059
0.0581713
0.0599063
0.0616085
0.0632755
0.064905
0.0664946
0.0680423
0.0695457
0.0710027
0.0724113
0.0737693
0.0750749
0.0763261
0.0775213
0.0786587
0.0797368
0.0807539
0.0817088
0.0826
0.0834263
0.0841867
0.0848802
0.085506
0.0860634
0.086552
0.0869711
0.0873207
0.0876005
0.0878106
0.0879513
0.0880229
0.0880261
0.0879618
0.0878308
0.0876344
0.087374
0.0870512
0.0866678
0.0862261
0.0857283
0.085177
0.0845752
0.083926
0.0832329
0.0824998
0.0817306
0.0809297
0.080102
0.0792525
0.0783868
0.0775107
0.0766305
0.0757529
0.0748851
0.0740344
0.073209
0.072417
0.0716671
0.0709682
0.0703294
0.0697598
0.069268
0.0688626
0.068551
0.0683379
0.0682276
0.0682433
0.0684004
0.000492504
0.000642328
0.000656198
0.000550837
0.000349259
5.59332e-05
-0.000323912
-0.000782949
-0.00131301
-0.00190575
-0.00255252
-0.00324474
-0.00397388
-0.00473185
-0.00551088
-0.00630353
-0.00710277
-0.00790187
-0.00869471
-0.00947543
-0.0102387
-0.0109794
-0.011693
-0.0123752
-0.0130219
-0.0136295
-0.0141947
-0.0147145
-0.015186
-0.0156068
-0.0159745
-0.0162873
-0.0165433
-0.016741
-0.016879
-0.0169561
-0.0169715
-0.0169243
-0.0168138
-0.0166396
-0.0164015
-0.0160993
-0.0157329
-0.0153024
-0.0148081
-0.0142502
-0.0136295
-0.0129464
-0.0122017
-0.0113962
-0.0105307
-0.00960634
-0.00862414
-0.00758533
-0.00649117
-0.00534299
-0.00414222
-0.00289036
-0.00158899
-0.000239789
0.00115555
0.0025953
0.0040777
0.00560085
0.00716275
0.0087614
0.0103948
0.0120608
0.0137574
0.0154824
0.0172336
0.0190087
0.0208054
0.0226214
0.0244544
0.026302
0.0281619
0.0300316
0.0319086
0.0337905
0.0356749
0.0375593
0.0394411
0.041318
0.0431874
0.0450468
0.0468937
0.0487257
0.0505401
0.0523347
0.0541069
0.0558544
0.0575748
0.0592656
0.0609244
0.062549
0.0641371
0.0656864
0.0671949
0.0686604
0.0700808
0.0714541
0.0727783
0.0740515
0.0752719
0.076438
0.0775479
0.0786002
0.0795934
0.0805262
0.0813972
0.0822054
0.0829497
0.0836292
0.0842432
0.0847909
0.085272
0.085686
0.0860327
0.086312
0.0865239
0.0866689
0.0867472
0.0867596
0.0867069
0.08659
0.0864101
0.0861686
0.0858671
0.0855076
0.085092
0.0846227
0.0841022
0.0835334
0.0829193
0.0822635
0.0815694
0.0808411
0.0800828
0.0792991
0.0784949
0.0776755
0.0768465
0.0760138
0.0751838
0.0743631
0.0735588
0.0727782
0.0720289
0.0713189
0.0706564
0.0700494
0.0695062
0.0690348
0.068643
0.068338
0.0681252
0.06801
0.0680186
0.0681695
0.000931438
0.00104563
0.00103204
0.000907006
0.000692683
0.000394605
1.7728e-05
-0.000430896
-0.000943936
-0.00151385
-0.002133
-0.00279377
-0.00348832
-0.00420932
-0.00494967
-0.0057024
-0.00646106
-0.00721945
-0.00797176
-0.0087125
-0.00943653
-0.010139
-0.0108157
-0.0114623
-0.0120751
-0.0126504
-0.0131852
-0.0136765
-0.0141215
-0.0145178
-0.0148632
-0.0151557
-0.0153937
-0.0155754
-0.0156996
-0.0157653
-0.0157713
-0.0157169
-0.0156014
-0.0154244
-0.0151856
-0.0148848
-0.0145219
-0.0140969
-0.0136102
-0.0130619
-0.0124527
-0.011783
-0.0110536
-0.0102652
-0.00941859
-0.00851482
-0.00755495
-0.0065401
-0.00547147
-0.00435035
-0.00317814
-0.00195629
-0.000686344
0.000630123
0.00199148
0.00339607
0.00484213
0.0063278
0.00785114
0.00941022
0.0110031
0.0126278
0.0142823
0.0159644
0.0176719
0.0194027
0.0211546
0.0229252
0.0247125
0.0265139
0.0283273
0.0301502
0.0319802
0.033815
0.0356522
0.0374894
0.0393241
0.041154
0.0429765
0.0447894
0.04659
0.0483761
0.0501451
0.0518948
0.0536227
0.0553265
0.0570038
0.0586524
0.0602699
0.0618541
0.0634027
0.0649137
0.066385
0.0678143
0.0691999
0.0705396
0.0718316
0.073074
0.0742652
0.0754035
0.0764874
0.0775152
0.0784857
0.0793975
0.0802495
0.0810404
0.0817694
0.0824356
0.0830383
0.0835768
0.0840508
0.0844598
0.0848036
0.0850823
0.0852959
0.0854448
0.0855293
0.0855501
0.085508
0.085404
0.0852393
0.0850153
0.0847336
0.084396
0.0840044
0.0835613
0.083069
0.0825303
0.0819483
0.0813262
0.0806676
0.0799763
0.0792563
0.0785121
0.0777483
0.07697
0.0761825
0.0753914
0.0746027
0.0738226
0.0730577
0.0723147
0.0716007
0.0709229
0.0702889
0.069706
0.0691817
0.0687233
0.0683381
0.0680331
0.0678138
0.0676865
0.067676
0.0677999
0.00149299
0.00155639
0.00150612
0.00135498
0.00112177
0.000812199
0.000431482
-1.4097e-05
-0.000517751
-0.00107269
-0.00167205
-0.0023089
-0.00297639
-0.00366767
-0.00437621
-0.00509571
-0.00582011
-0.00654366
-0.00726097
-0.00796687
-0.0086565
-0.00932539
-0.00996931
-0.0105842
-0.0111666
-0.011713
-0.0122204
-0.0126859
-0.0131069
-0.0134809
-0.0138059
-0.01408
-0.0143014
-0.0144686
-0.0145803
-0.0146354
-0.0146329
-0.014572
-0.014452
-0.0142725
-0.0140332
-0.0137339
-0.0133743
-0.0129547
-0.0124751
-0.011936
-0.0113377
-0.0106808
-0.0099659
-0.00919365
-0.00836493
-0.00748073
-0.00654204
-0.00554991
-0.00450548
-0.00341003
-0.00226491
-0.00107153
0.00016862
0.00145404
0.00278316
0.00415437
0.00556593
0.00701602
0.00850276
0.0100243
0.0115788
0.0131643
0.0147788
0.0164201
0.0180862
0.019775
0.0214843
0.0232119
0.0249557
0.0267134
0.0284826
0.0302611
0.0320465
0.0338367
0.0356292
0.0374217
0.0392117
0.040997
0.0427752
0.0445439
0.0463007
0.0480433
0.0497694
0.0514765
0.0531624
0.0548249
0.0564616
0.0580703
0.0596487
0.0611947
0.0627061
0.0641808
0.0656168
0.0670121
0.0683648
0.0696728
0.0709344
0.0721479
0.0733115
0.0744237
0.075483
0.0764878
0.0774369
0.078329
0.0791629
0.0799377
0.0806522
0.0813059
0.0818979
0.0824277
0.0828949
0.0832991
0.0836402
0.0839182
0.0841332
0.0842854
0.0843754
0.0844038
0.0843715
0.0842792
0.0841284
0.0839203
0.0836565
0.0833387
0.0829689
0.0825494
0.0820826
0.0815711
0.0810179
0.080426
0.0797991
0.0791406
0.0784545
0.077745
0.0770166
0.0762741
0.0755225
0.0747671
0.0740134
0.0732673
0.0725348
0.0718224
0.0711363
0.0704834
0.0698704
0.069304
0.0687912
0.0683387
0.0679532
0.0676412
0.0674084
0.0672612
0.0672205
0.0673006
0.00216554
0.00216582
0.00207041
0.00188688
0.00162854
0.00130129
0.00091025
0.000461103
-4.00259e-05
-0.000587
-0.00117357
-0.00179348
-0.00244062
-0.00310872
-0.00379183
-0.00448415
-0.00518009
-0.00587438
-0.00656187
-0.00723777
-0.00789762
-0.00853714
-0.00915225
-0.00973922
-0.0102946
-0.0108153
-0.0112982
-0.0117405
-0.0121398
-0.0124938
-0.0128004
-0.0130578
-0.0132642
-0.0134182
-0.0135185
-0.0135641
-0.0135538
-0.013487
-0.0133631
-0.0131815
-0.0129419
-0.012644
-0.0122878
-0.0118733
-0.0114007
-0.0108702
-0.0102824
-0.0096376
-0.00893641
-0.00817955
-0.00736783
-0.00650218
-0.00558354
-0.00461292
-0.00359144
-0.00252033
-0.0014009
-0.000234525
0.000977401
0.00223342
0.003532
0.00487154
0.00625036
0.00766669
0.00911875
0.0106047
0.0121228
0.0136711
0.0152476
0.0168503
0.0184772
0.0201261
0.0217951
0.0234819
0.0251846
0.0269007
0.028628
0.0303645
0.0321077
0.0338556
0.0356057
0.0373558
0.0391035
0.0408466
0.0425828
0.0443097
0.0460251
0.0477266
0.049412
0.0510789
0.0527252
0.0543486
0.0559469
0.0575179
0.0590594
0.0605693
0.0620455
0.063486
0.0648889
0.0662521
0.0675737
0.0688519
0.070085
0.0712711
0.0724088
0.0734964
0.0745325
0.0755157
0.0764447
0.0773182
0.0781352
0.0788947
0.0795957
0.0802375
0.0808195
0.081341
0.0818017
0.0822014
0.0825398
0.0828169
0.0830329
0.0831881
0.083283
0.0833182
0.0832945
0.0832129
0.0830746
0.0828808
0.0826331
0.0823332
0.0819831
0.0815848
0.0811407
0.0806535
0.0801259
0.079561
0.078962
0.0783324
0.0776761
0.0769969
0.0762992
0.0755875
0.0748664
0.074141
0.0734165
0.0726983
0.0719921
0.0713036
0.0706388
0.070004
0.0694051
0.0688486
0.0683405
0.0678872
0.0674947
0.0671692
0.066916
0.0667413
0.0666609
0.0666841
0.00293585
0.00286391
0.00271605
0.00249416
0.00220507
0.00185432
0.00144705
0.000988371
0.000483599
-6.15773e-05
-0.000641583
-0.00125091
-0.00188375
-0.00253465
-0.00319811
-0.00386879
-0.00454164
-0.00521171
-0.00587425
-0.00652478
-0.00715914
-0.00777327
-0.00836334
-0.00892589
-0.00945764
-0.0099555
-0.0104166
-0.0108384
-0.0112183
-0.0115544
-0.0118445
-0.0120868
-0.0122797
-0.0124218
-0.012512
-0.0125489
-0.0125318
-0.0124598
-0.0123324
-0.012149
-0.0119093
-0.0116131
-0.0112602
-0.0108507
-0.0103847
-0.00986258
-0.00928463
-0.00865132
-0.00796318
-0.00722093
-0.00642534
-0.00557727
-0.00467762
-0.00372736
-0.00272761
-0.00167957
-0.000584504
0.000556303
0.0017415
0.00296967
0.00423931
0.00554885
0.00689663
0.00828099
0.0097002
0.0111525
0.0126361
0.0141492
0.0156897
0.0172558
0.0188454
0.0204566
0.0220874
0.0237357
0.0253993
0.027076
0.0287638
0.0304604
0.0321637
0.0338715
0.0355815
0.0372915
0.0389992
0.0407025
0.0423989
0.0440864
0.0457626
0.0474253
0.0490722
0.0507012
0.05231
0.0538965
0.0554585
0.056994
0.0585007
0.0599766
0.0614197
0.062828
0.0641996
0.0655325
0.066825
0.0680751
0.0692813
0.0704417
0.0715549
0.0726194
0.0736338
0.0745966
0.0755067
0.0763629
0.077164
0.0779091
0.0785973
0.0792279
0.0798004
0.0803141
0.0807687
0.0811638
0.0814995
0.0817757
0.0819925
0.0821502
0.0822494
0.0822906
0.0822747
0.0822026
0.0820754
0.0818944
0.0816612
0.0813772
0.0810446
0.0806652
0.0802414
0.0797757
0.0792707
0.0787295
0.078155
0.0775506
0.07692
0.076267
0.0755955
0.0749099
0.0742144
0.0735139
0.0728131
0.0721172
0.0714313
0.0707609
0.0701114
0.0694884
0.0688976
0.0683446
0.0678352
0.0673749
0.0669694
0.066624
0.0663442
0.0661354
0.0660075
0.0659641
0.00379059
0.00363982
0.00343372
0.00316826
0.0028433
0.00246396
0.00203518
0.00156147
0.00104766
0.000498662
-8.04359e-05
-0.000684629
-0.00130884
-0.00194796
-0.00259703
-0.00325127
-0.00390596
-0.0045565
-0.00519858
-0.00582807
-0.00644096
-0.00703349
-0.00760211
-0.00814358
-0.00865475
-0.00913268
-0.00957471
-0.00997833
-0.0103412
-0.0106614
-0.0109368
-0.0111657
-0.0113466
-0.0114782
-0.0115592
-0.0115885
-0.0115653
-0.0114888
-0.0113584
-0.0111736
-0.0109341
-0.0106396
-0.01029
-0.00988532
-0.00942579
-0.00891161
-0.00834309
-0.00772068
-0.00704495
-0.00631656
-0.00553625
-0.00470482
-0.00382314
-0.00289217
-0.00191299
-0.000886767
0.000185277
0.00130191
0.00246182
0.00366365
0.0049059
0.00618704
0.00750548
0.00885961
0.0102477
0.0116682
0.0131192
0.0145988
0.0161054
0.0176369
0.0191913
0.0207669
0.0223615
0.0239732
0.0256
0.0272395
0.0288899
0.0305489
0.0322144
0.0338844
0.0355565
0.0372287
0.0388986
0.0405642
0.0422232
0.0438734
0.0455126
0.0471387
0.0487494
0.0503426
0.0519161
0.0534679
0.0549958
0.0564978
0.0579718
0.0594157
0.0608276
0.0622056
0.0635478
0.0648523
0.0661173
0.0673411
0.068522
0.0696583
0.0707486
0.0717914
0.0727854
0.0737291
0.0746215
0.0754612
0.0762474
0.076979
0.0776552
0.0782754
0.0788388
0.0793451
0.0797938
0.0801847
0.0805177
0.0807927
0.08101
0.0811699
0.0812727
0.0813192
0.0813101
0.0812463
0.0811291
0.0809594
0.0807389
0.0804692
0.0801519
0.0797893
0.0793833
0.0789364
0.0784512
0.0779305
0.0773773
0.0767946
0.0761861
0.0755552
0.0749057
0.0742417
0.0735672
0.0728867
0.0722047
0.0715258
0.070855
0.0701971
0.0695572
0.0689405
0.0683521
0.0677971
0.0672807
0.0668079
0.0663838
0.0660132
0.0657011
0.0654527
0.0652709
0.065154
0.00471689
0.00448277
0.00421406
0.00390074
0.00353553
0.00312303
0.00266806
0.00217462
0.00164679
0.001089
0.000505726
-9.84055e-05
-0.00071892
-0.00135123
-0.00199081
-0.0026333
-0.00327432
-0.00390974
-0.0045356
-0.005148
-0.00574321
-0.00631774
-0.00686832
-0.00739187
-0.00788539
-0.00834614
-0.00877163
-0.00915945
-0.00950748
-0.00981364
-0.0100761
-0.0102932
-0.0104636
-0.0105859
-0.0106589
-0.0106815
-0.010653
-0.0105726
-0.0104398
-0.010254
-0.0100149
-0.00972219
-0.00937588
-0.00897598
-0.00852264
-0.00801606
-0.00745654
-0.00684453
-0.00618058
-0.00546531
-0.00469944
-0.00388375
-0.00301907
-0.00210633
-0.00114659
-0.000140991
0.000909311
0.00200312
0.00313917
0.0043161
0.00553247
0.00678679
0.00807754
0.00940313
0.0107619
0.0121523
0.0135724
0.0150206
0.0164951
0.0179939
0.0195152
0.021057
0.0226176
0.0241948
0.0257867
0.0273912
0.0290062
0.0306298
0.0322597
0.033894
0.0355305
0.0371669
0.0388013
0.0404314
0.0420551
0.0436702
0.0452747
0.0468663
0.0484429
0.0500025
0.0515428
0.053062
0.0545579
0.0560285
0.0574717
0.0588856
0.0602683
0.0616178
0.0629324
0.0642103
0.0654496
0.0666487
0.0678059
0.0689196
0.0699885
0.0710109
0.0719858
0.0729116
0.0737874
0.0746118
0.075384
0.0761029
0.0767679
0.0773781
0.0779331
0.0784324
0.0788755
0.0792623
0.0795925
0.0798664
0.0800839
0.0802454
0.0803513
0.0804023
0.0803992
0.0803427
0.0802341
0.0800744
0.0798651
0.0796077
0.079304
0.0789558
0.0785653
0.0781348
0.0776666
0.0771635
0.0766283
0.0760641
0.0754741
0.0748615
0.0742301
0.0735835
0.0729257
0.0722607
0.0715928
0.0709262
0.0702655
0.0696152
0.0689799
0.0683643
0.0677732
0.0672111
0.0666826
0.0661924
0.0657448
0.0653441
0.0649949
0.0647022
0.0644619
0.0642664
0.00570266
0.0053824
0.00504789
0.00468334
0.00427413
0.00382464
0.00333945
0.00282198
0.00227578
0.00170474
0.00111283
0.000504138
-0.000117199
-0.000747171
-0.00138171
-0.00201675
-0.00264832
-0.0032727
-0.0038862
-0.00448519
-0.00506625
-0.00562616
-0.00616188
-0.00667048
-0.00714916
-0.00759536
-0.00800672
-0.00838102
-0.00871617
-0.00901023
-0.0092615
-0.00946845
-0.00962967
-0.00974385
-0.00980987
-0.00982678
-0.00979377
-0.00971014
-0.00957533
-0.00938886
-0.00915039
-0.00885969
-0.00851671
-0.00812148
-0.0076741
-0.00717479
-0.00662385
-0.00602174
-0.00536897
-0.00466613
-0.00391392
-0.00311309
-0.00226445
-0.00136892
-0.000427531
0.000558622
0.00158842
0.00266071
0.00377426
0.00492773
0.0061197
0.00734874
0.00861338
0.00991207
0.0112432
0.0126052
0.0139963
0.0154149
0.0168591
0.0183271
0.0198171
0.0213273
0.0228557
0.0244005
0.0259596
0.0275311
0.0291129
0.030703
0.0322995
0.0339002
0.0355031
0.037106
0.0387069
0.0403037
0.0418942
0.0434764
0.0450482
0.0466075
0.0481522
0.0496802
0.0511895
0.0526781
0.054144
0.0555851
0.0569996
0.0583853
0.0597406
0.0610636
0.0623524
0.0636053
0.0648206
0.0659966
0.0671317
0.0682244
0.0692731
0.0702766
0.0712336
0.0721428
0.073003
0.0738131
0.0745722
0.0752793
0.0759337
0.0765347
0.0770816
0.0775742
0.078012
0.0783948
0.0787224
0.0789949
0.0792123
0.0793751
0.0794837
0.0795385
0.0795404
0.0794903
0.0793891
0.079238
0.0790383
0.0787916
0.0784995
0.0781638
0.0777865
0.0773699
0.0769162
0.0764279
0.0759079
0.0753588
0.0747839
0.0741862
0.0735692
0.0729362
0.072291
0.0716374
0.0709792
0.0703205
0.0696654
0.0690181
0.0683828
0.0677638
0.0671652
0.0665914
0.0660464
0.0655343
0.0650589
0.0646239
0.0642338
0.063893
0.0635905
0.0633132
0.00673701
0.00632889
0.00592646
0.00550797
0.00505179
0.00456201
0.00404308
0.00349789
0.0029295
0.00234119
0.00173665
0.00111936
0.000493036
-0.000138695
-0.000772154
-0.00140367
-0.00202969
-0.00264678
-0.00325149
-0.00384051
-0.00441076
-0.0049592
-0.00548301
-0.00597944
-0.00644591
-0.00688003
-0.00727959
-0.00764249
-0.00796669
-0.00825048
-0.00849221
-0.00869045
-0.00884382
-0.00895106
-0.00901117
-0.00902324
-0.00898649
-0.00890026
-0.00876398
-0.00857721
-0.00833961
-0.00805103
-0.0077114
-0.00732072
-0.00687911
-0.00638676
-0.00584402
-0.0052513
-0.00460912
-0.00391805
-0.00317874
-0.00239193
-0.00155842
-0.000679102
0.000245006
0.00121285
0.00222335
0.00327539
0.00436777
0.00549915
0.00666818
0.00787345
0.00911353
0.0103869
0.011692
0.0130273
0.0143912
0.0157819
0.0171976
0.0186367
0.0200974
0.0215777
0.023076
0.0245903
0.0261186
0.0276591
0.0292097
0.0307685
0.0323335
0.0339028
0.0354742
0.0370457
0.0386152
0.0401807
0.0417401
0.0432915
0.0448328
0.0463618
0.0478766
0.0493751
0.0508553
0.0523154
0.0537532
0.0551669
0.0565544
0.057914
0.0592437
0.0605418
0.0618066
0.0630363
0.0642292
0.0653837
0.0664982
0.0675712
0.0686013
0.0695871
0.0705275
0.0714211
0.0722668
0.0730636
0.0738105
0.0745066
0.0751511
0.0757434
0.0762828
0.0767691
0.0772018
0.0775807
0.0779057
0.0781767
0.0783939
0.0785576
0.0786682
0.0787262
0.0787324
0.0786876
0.0785927
0.0784489
0.0782575
0.0780198
0.0777375
0.0774124
0.0770462
0.0766411
0.0761994
0.0757234
0.0752156
0.0746788
0.0741159
0.0735298
0.0729236
0.0723006
0.0716643
0.0710182
0.0703659
0.069711
0.0690574
0.0684089
0.0677694
0.0671427
0.0665326
0.065943
0.0653774
0.0648396
0.0643327
0.0638598
0.0634254
0.0630336
0.0626665
0.0623052
0.00781012
0.00731318
0.00684129
0.00636693
0.00586139
0.00532862
0.00477297
0.00419687
0.0036029
0.0029939
0.00237307
0.00174353
0.00110851
0.000471347
-0.000164663
-0.000796276
-0.00142028
-0.00203348
-0.00263271
-0.00321499
-0.00377749
-0.0043174
-0.00483207
-0.00531896
-0.00577569
-0.00620008
-0.00659001
-0.00694348
-0.00725862
-0.00753384
-0.00776763
-0.00795855
-0.00810532
-0.00820679
-0.00826199
-0.00827007
-0.00823031
-0.00814207
-0.00800479
-0.00781805
-0.00758159
-0.00729526
-0.00695898
-0.00657276
-0.00613671
-0.00565106
-0.00511612
-0.00453232
-0.00390016
-0.0032202
-0.00249307
-0.00171946
-0.000900173
-3.61116e-05
0.000871747
0.00182239
0.00281478
0.00384781
0.0049203
0.00603095
0.00717844
0.00836141
0.00957844
0.0108281
0.0121088
0.0134191
0.0147573
0.0161219
0.017511
0.018923
0.0203561
0.0218085
0.0232785
0.0247643
0.0262638
0.0277752
0.0292966
0.0308261
0.0323617
0.0339015
0.0354435
0.0369856
0.0385258
0.0400621
0.0415925
0.0431151
0.0446278
0.0461286
0.0476155
0.0490865
0.0505397
0.0519731
0.0533848
0.0547729
0.0561354
0.0574706
0.0587765
0.0600516
0.061294
0.0625021
0.0636743
0.0648088
0.0659042
0.066959
0.0679717
0.0689412
0.0698661
0.0707453
0.0715776
0.072362
0.0730976
0.0737834
0.0744187
0.0750028
0.0755353
0.0760156
0.0764435
0.0768187
0.077141
0.0774105
0.0776273
0.0777915
0.0779036
0.0779642
0.0779739
0.0779335
0.0778439
0.0777062
0.0775215
0.0772914
0.0770173
0.0767007
0.0763437
0.075948
0.0755159
0.0750496
0.0745516
0.0740242
0.0734704
0.0728927
0.0722942
0.0716779
0.0710471
0.0704049
0.0697547
0.0691
0.0684441
0.0677906
0.0671431
0.0665049
0.0658796
0.0652705
0.0646809
0.0641139
0.0635723
0.0630586
0.0625773
0.0621322
0.0616987
0.0612522
0.00891292
0.00832689
0.00778468
0.007253
0.0066962
0.00611818
0.00552336
0.00491359
0.00429107
0.0036584
0.00301808
0.002373
0.00172601
0.00108012
0.00043821
-0.000196831
-0.000822005
-0.00143442
-0.00203123
-0.00260974
-0.00316735
-0.00370143
-0.00420954
-0.00468934
-0.0051387
-0.00555552
-0.00593785
-0.00628376
-0.00659165
-0.00685996
-0.00708726
-0.0072722
-0.00741357
-0.00751034
-0.00756159
-0.00756652
-0.00752445
-0.00743475
-0.0072969
-0.00711054
-0.00687546
-0.0065915
-0.00625858
-0.00587672
-0.00544605
-0.0049668
-0.0044393
-0.00386397
-0.00324129
-0.0025718
-0.0018561
-0.0010949
-0.000288982
0.000560755
0.00145338
0.00238791
0.00336333
0.00437856
0.00543242
0.00652367
0.007651
0.00881309
0.0100086
0.011236
0.0124939
0.0137808
0.0150951
0.0164352
0.0177994
0.019186
0.0205934
0.0220198
0.0234634
0.0249225
0.0263951
0.0278794
0.0293736
0.0308757
0.0323839
0.0338963
0.0354108
0.0369255
0.0384384
0.0399475
0.0414509
0.0429468
0.0444329
0.0459075
0.0473684
0.0488139
0.0502419
0.0516506
0.0530381
0.0544024
0.0557417
0.0570542
0.0583382
0.0595919
0.0608136
0.0620018
0.0631547
0.0642708
0.0653485
0.0663864
0.0673832
0.0683376
0.0692483
0.0701141
0.0709341
0.0717071
0.0724321
0.0731084
0.0737352
0.0743118
0.0748377
0.0753124
0.0757357
0.0761074
0.0764271
0.076695
0.076911
0.0770754
0.0771886
0.0772512
0.0772637
0.0772268
0.0771415
0.0770087
0.0768296
0.0766056
0.0763379
0.0760283
0.0756785
0.0752902
0.0748656
0.0744067
0.0739158
0.0733954
0.0728478
0.0722757
0.0716819
0.0710692
0.0704406
0.0697991
0.0691478
0.0684897
0.0678281
0.0671662
0.0665072
0.0658542
0.0652104
0.0645786
0.0639618
0.0633627
0.0627837
0.0622268
0.0616964
0.0611964
0.0606953
0.0601631
0.0100372
0.0093623
0.00874929
0.00815926
0.00754977
0.00692473
0.00628861
0.00564292
0.0049894
0.00433023
0.00366767
0.00300418
0.0023423
0.00168468
0.00103384
0.000392442
-0.00023682
-0.000851328
-0.00144854
-0.00202602
-0.00258134
-0.00311209
-0.00361604
-0.00409109
-0.00453525
-0.00494654
-0.00532313
-0.00566333
-0.00596563
-0.00622857
-0.00645076
-0.00663098
-0.00676811
-0.0068612
-0.0069094
-0.00691197
-0.00686823
-0.00677758
-0.0066396
-0.00645396
-0.00622049
-0.005939
-0.00560943
-0.00523184
-0.00480636
-0.00433325
-0.00381282
-0.0032455
-0.00263177
-0.00197211
-0.00126714
-0.000517565
0.000275817
0.00111215
0.00199053
0.00291001
0.00386959
0.00486819
0.00590467
0.0069778
0.00808632
0.00922893
0.0104043
0.011611
0.0128477
0.0141128
0.0154048
0.0167221
0.0180631
0.0194261
0.0208095
0.0222116
0.0236307
0.0250649
0.0265125
0.0279717
0.0294405
0.0309172
0.0323999
0.0338868
0.0353758
0.0368651
0.0383526
0.0398365
0.041315
0.0427859
0.0442475
0.0456978
0.0471347
0.0485565
0.0499613
0.0513471
0.0527122
0.0540546
0.0553725
0.0566641
0.0579278
0.0591618
0.0603645
0.0615343
0.0626695
0.0637686
0.0648301
0.0658526
0.0668347
0.0677752
0.0686728
0.0695265
0.070335
0.0710975
0.0718129
0.0724805
0.0730993
0.073669
0.0741888
0.0746584
0.0750774
0.0754455
0.0757627
0.0760288
0.0762439
0.0764083
0.0765222
0.0765861
0.0766007
0.0765666
0.0764846
0.0763556
0.0761809
0.0759616
0.0756991
0.0753947
0.0750503
0.0746675
0.0742483
0.0737947
0.0733087
0.0727926
0.0722488
0.0716797
0.0710878
0.0704759
0.0698466
0.0692027
0.0685471
0.0678826
0.0672122
0.0665388
0.0658652
0.0651943
0.0645289
0.0638716
0.0632249
0.0625912
0.0619725
0.0613704
0.0607894
0.0602333
0.0596639
0.0590463
0.0111753
0.0104121
0.00972819
0.00907919
0.00841595
0.00774248
0.00706338
0.00637983
0.00569318
0.00500516
0.00431792
0.00363352
0.00295412
0.00228205
0.00161959
0.000969201
0.000333215
-0.000286027
-0.000886245
-0.00146519
-0.00202061
-0.00255034
-0.00305239
-0.00352485
-0.0039658
-0.00437345
-0.00474611
-0.00508231
-0.00538057
-0.00563955
-0.00585795
-0.00603463
-0.00616862
-0.006259
-0.00630501
-0.00630593
-0.00626111
-0.00617003
-0.00603232
-0.00584773
-0.00561604
-0.00533711
-0.00501089
-0.00463746
-0.00421699
-0.00374974
-0.00323603
-0.00267628
-0.00207094
-0.00142049
-0.000725563
1.31374e-05
0.000794819
0.00161866
0.00248378
0.00338925
0.00433407
0.00531721
0.00633752
0.00739381
0.00848485
0.00960937
0.0107661
0.0119536
0.0131705
0.0144154
0.0156866
0.0169828
0.0183022
0.0196434
0.0210046
0.0223842
0.0237805
0.0251917
0.0266161
0.0280519
0.0294973
0.0309505
0.0324097
0.0338729
0.0353384
0.0368041
0.0382683
0.0397289
0.0411842
0.0426323
0.0440712
0.045499
0.0469139
0.0483139
0.0496972
0.051062
0.0524064
0.0537287
0.0550269
0.0562994
0.0575445
0.0587605
0.0599457
0.0610987
0.0622177
0.0633013
0.064348
0.0653564
0.0663251
0.0672529
0.0681387
0.0689812
0.0697794
0.0705322
0.0712389
0.0718984
0.0725101
0.0730733
0.0735875
0.0740523
0.0744672
0.0748321
0.0751468
0.0754111
0.0756251
0.0757891
0.0759032
0.0759681
0.0759841
0.075952
0.0758724
0.0757464
0.0755749
0.075359
0.0751001
0.0747996
0.074459
0.0740799
0.0736642
0.0732138
0.0727305
0.0722166
0.0716742
0.0711056
0.0705131
0.0698992
0.0692664
0.0686174
0.0679547
0.067281
0.0665989
0.0659111
0.0652202
0.0645287
0.0638391
0.0631538
0.0624749
0.0618045
0.0611442
0.0604954
0.0598624
0.0592494
0.0586117
0.0579088
0.0123202
0.0114697
0.010715
0.0100067
0.00928896
0.008566
0.00784262
0.00711956
0.0063979
0.00567914
0.00496508
0.00425748
0.00355823
0.00286935
0.00219291
0.00153111
0.000885996
0.000259597
-0.000345978
-0.00092865
-0.00148637
-0.00201726
-0.00251951
-0.00299132
-0.00343091
-0.00383669
-0.00420715
-0.0045409
-0.00483658
-0.00509291
-0.00530874
-0.00548303
-0.00561488
-0.00570347
-0.00574807
-0.00574799
-0.00570266
-0.00561164
-0.00547461
-0.00529132
-0.00506158
-0.00478527
-0.00446239
-0.00409304
-0.00367739
-0.00321571
-0.00270837
-0.00215573
-0.00155823
-0.000916381
-0.000230821
0.000497743
0.00126855
0.00208079
0.00293362
0.0038261
0.00475726
0.00572607