/*--------------------------------*- C++ -*----------------------------------*\
  =========                 |
  \\      /  F ield         | OpenFOAM: The Open Source CFD Toolbox
   \\    /   O peration     | Website:  https://openfoam.org
    \\  /    A nd           | Version:  7
     \\/     M anipulation  |
\*---------------------------------------------------------------------------*/
FoamFile
{
    version     2.0;
    format      ascii;
    class       volVectorField;
    location    "0.1625";
    object      U;
}
// * * * * * * * * * * * * * * * * * * * * * * * * * * * * * * * * * * * * * //

dimensions      [0 1 -1 0 0 0 0];

internalField   nonuniform List<vector> 
25600
(
(3.77555e-07 2.80499e-08 0)
(2.75464e-06 -1.51158e-06 0)
(8.94304e-06 -2.76311e-06 0)
(1.66344e-05 -3.18313e-06 0)
(2.46014e-05 -3.11759e-06 0)
(3.17067e-05 -2.74351e-06 0)
(3.73117e-05 -2.17613e-06 0)
(4.0961e-05 -1.49332e-06 0)
(4.23585e-05 -7.40103e-07 0)
(4.13183e-05 4.91226e-08 0)
(3.77176e-05 8.56151e-07 0)
(3.15008e-05 1.66869e-06 0)
(2.26478e-05 2.47587e-06 0)
(1.1165e-05 3.26761e-06 0)
(-2.90858e-06 4.04237e-06 0)
(-1.9525e-05 4.79534e-06 0)
(-3.86187e-05 5.5219e-06 0)
(-6.01123e-05 6.2221e-06 0)
(-8.39206e-05 6.89287e-06 0)
(-0.000109954 7.53224e-06 0)
(-0.000138114 8.1397e-06 0)
(-0.000168301 8.71605e-06 0)
(-0.000200414 9.26175e-06 0)
(-0.000234346 9.77575e-06 0)
(-0.000269991 1.0257e-05 0)
(-0.000307241 1.07061e-05 0)
(-0.000345989 1.11232e-05 0)
(-0.000386127 1.15078e-05 0)
(-0.000427548 1.1861e-05 0)
(-0.000470143 1.21831e-05 0)
(-0.000513806 1.24746e-05 0)
(-0.000558433 1.27352e-05 0)
(-0.000603918 1.29658e-05 0)
(-0.000650158 1.31669e-05 0)
(-0.000697053 1.3339e-05 0)
(-0.000744502 1.34829e-05 0)
(-0.000792406 1.35984e-05 0)
(-0.00084067 1.36862e-05 0)
(-0.000889195 1.37469e-05 0)
(-0.00093789 1.37814e-05 0)
(-0.000986664 1.37905e-05 0)
(-0.00103543 1.37745e-05 0)
(-0.00108409 1.37338e-05 0)
(-0.00113257 1.36689e-05 0)
(-0.00118078 1.35805e-05 0)
(-0.00122863 1.34691e-05 0)
(-0.00127606 1.33354e-05 0)
(-0.00132298 1.318e-05 0)
(-0.00136931 1.30033e-05 0)
(-0.00141499 1.28062e-05 0)
(-0.00145993 1.25894e-05 0)
(-0.00150408 1.23535e-05 0)
(-0.00154736 1.20989e-05 0)
(-0.0015897 1.18259e-05 0)
(-0.00163105 1.15352e-05 0)
(-0.00167135 1.12278e-05 0)
(-0.00171052 1.09042e-05 0)
(-0.00174853 1.05649e-05 0)
(-0.0017853 1.02104e-05 0)
(-0.0018208 9.84123e-06 0)
(-0.00185496 9.45817e-06 0)
(-0.00188774 9.06192e-06 0)
(-0.0019191 8.65303e-06 0)
(-0.00194899 8.23205e-06 0)
(-0.00197736 7.79959e-06 0)
(-0.00200418 7.35624e-06 0)
(-0.00202941 6.90245e-06 0)
(-0.00205302 6.43869e-06 0)
(-0.00207496 5.96568e-06 0)
(-0.00209522 5.4843e-06 0)
(-0.00211375 4.99539e-06 0)
(-0.00213054 4.49948e-06 0)
(-0.00214556 3.99694e-06 0)
(-0.00215879 3.48829e-06 0)
(-0.00217021 2.97433e-06 0)
(-0.00217979 2.4559e-06 0)
(-0.00218754 1.93371e-06 0)
(-0.00219342 1.40829e-06 0)
(-0.00219744 8.80199e-07 0)
(-0.00219959 3.50103e-07 0)
(-0.00219985 -1.81283e-07 0)
(-0.00219823 -7.13274e-07 0)
(-0.00219472 -1.24519e-06 0)
(-0.00218934 -1.77631e-06 0)
(-0.00218207 -2.30588e-06 0)
(-0.00217293 -2.83317e-06 0)
(-0.00216194 -3.35754e-06 0)
(-0.00214909 -3.8783e-06 0)
(-0.00213441 -4.39469e-06 0)
(-0.00211791 -4.90592e-06 0)
(-0.00209961 -5.41124e-06 0)
(-0.00207954 -5.90995e-06 0)
(-0.00205771 -6.4013e-06 0)
(-0.00203417 -6.88446e-06 0)
(-0.00200893 -7.35855e-06 0)
(-0.00198204 -7.82273e-06 0)
(-0.00195353 -8.2763e-06 0)
(-0.00192343 -8.71859e-06 0)
(-0.00189179 -9.14892e-06 0)
(-0.00185866 -9.56655e-06 0)
(-0.00182408 -9.97068e-06 0)
(-0.0017881 -1.03605e-05 0)
(-0.00175076 -1.07351e-05 0)
(-0.00171214 -1.10938e-05 0)
(-0.00167229 -1.14359e-05 0)
(-0.00163125 -1.17606e-05 0)
(-0.00158911 -1.2067e-05 0)
(-0.00154593 -1.23545e-05 0)
(-0.00150176 -1.26223e-05 0)
(-0.00145669 -1.28698e-05 0)
(-0.00141079 -1.30962e-05 0)
(-0.00136414 -1.33008e-05 0)
(-0.0013168 -1.34828e-05 0)
(-0.00126887 -1.36415e-05 0)
(-0.00122042 -1.3776e-05 0)
(-0.00117155 -1.38858e-05 0)
(-0.00112234 -1.39703e-05 0)
(-0.00107287 -1.4029e-05 0)
(-0.00102325 -1.40613e-05 0)
(-0.000973561 -1.40666e-05 0)
(-0.000923903 -1.40441e-05 0)
(-0.000874374 -1.39935e-05 0)
(-0.000825073 -1.39142e-05 0)
(-0.000776099 -1.38059e-05 0)
(-0.000727556 -1.3668e-05 0)
(-0.000679546 -1.35001e-05 0)
(-0.000632174 -1.33019e-05 0)
(-0.000585546 -1.30731e-05 0)
(-0.000539768 -1.28136e-05 0)
(-0.000494947 -1.25229e-05 0)
(-0.00045119 -1.22008e-05 0)
(-0.000408606 -1.1847e-05 0)
(-0.000367302 -1.14615e-05 0)
(-0.000327387 -1.10441e-05 0)
(-0.000288969 -1.05949e-05 0)
(-0.000252153 -1.01141e-05 0)
(-0.000217046 -9.60181e-06 0)
(-0.000183751 -9.05863e-06 0)
(-0.000152369 -8.48503e-06 0)
(-0.000123 -7.8816e-06 0)
(-9.57382e-05 -7.24909e-06 0)
(-7.06759e-05 -6.58846e-06 0)
(-4.7899e-05 -5.901e-06 0)
(-2.74871e-05 -5.18827e-06 0)
(-9.51245e-06 -4.4522e-06 0)
(5.96237e-06 -3.69524e-06 0)
(1.88869e-05 -2.92077e-06 0)
(2.92263e-05 -2.13329e-06 0)
(3.69647e-05 -1.33866e-06 0)
(4.21114e-05 -5.44601e-07 0)
(4.47073e-05 2.38479e-07 0)
(4.48346e-05 9.96068e-07 0)
(4.26314e-05 1.70752e-06 0)
(3.83106e-05 2.34257e-06 0)
(3.21898e-05 2.85526e-06 0)
(2.47337e-05 3.17553e-06 0)
(1.66048e-05 3.1991e-06 0)
(8.75038e-06 2.76979e-06 0)
(2.64198e-06 1.69417e-06 0)
(1.25353e-07 1.26245e-07 0)
(2.01528e-06 -2.85852e-06 0)
(9.61293e-06 -9.0196e-06 0)
(2.31429e-05 -1.32725e-05 0)
(3.92289e-05 -1.46475e-05 0)
(5.50122e-05 -1.39077e-05 0)
(6.84442e-05 -1.16387e-05 0)
(7.7975e-05 -8.30213e-06 0)
(8.24555e-05 -4.22776e-06 0)
(8.10563e-05 3.35205e-07 0)
(7.31954e-05 5.21349e-06 0)
(5.84977e-05 1.02761e-05 0)
(3.67303e-05 1.54337e-05 0)
(7.77793e-06 2.06075e-05 0)
(-2.83766e-05 2.57487e-05 0)
(-7.16877e-05 3.08107e-05 0)
(-0.000122051 3.57636e-05 0)
(-0.000179314 4.05807e-05 0)
(-0.000243292 4.52436e-05 0)
(-0.00031377 4.97352e-05 0)
(-0.000390511 5.40432e-05 0)
(-0.000473261 5.81581e-05 0)
(-0.000561753 6.20738e-05 0)
(-0.000655705 6.57858e-05 0)
(-0.000754831 6.92894e-05 0)
(-0.000858838 7.25821e-05 0)
(-0.000967427 7.56626e-05 0)
(-0.0010803 7.85296e-05 0)
(-0.00119714 8.11825e-05 0)
(-0.00131767 8.36233e-05 0)
(-0.00144156 8.58524e-05 0)
(-0.00156853 8.78717e-05 0)
(-0.00169826 8.96823e-05 0)
(-0.00183047 9.12877e-05 0)
(-0.00196486 9.26896e-05 0)
(-0.00210114 9.38917e-05 0)
(-0.00223901 9.48968e-05 0)
(-0.00237821 9.5707e-05 0)
(-0.00251844 9.63258e-05 0)
(-0.00265944 9.67572e-05 0)
(-0.00280093 9.70048e-05 0)
(-0.00294265 9.70722e-05 0)
(-0.00308434 9.69633e-05 0)
(-0.00322575 9.66815e-05 0)
(-0.00336662 9.62307e-05 0)
(-0.00350672 9.56148e-05 0)
(-0.0036458 9.48378e-05 0)
(-0.00378364 9.39038e-05 0)
(-0.00392 9.28165e-05 0)
(-0.00405467 9.15801e-05 0)
(-0.00418743 9.01989e-05 0)
(-0.00431808 8.86773e-05 0)
(-0.0044464 8.70193e-05 0)
(-0.00457221 8.52289e-05 0)
(-0.00469531 8.33102e-05 0)
(-0.00481552 8.12672e-05 0)
(-0.00493266 7.91041e-05 0)
(-0.00504656 7.68254e-05 0)
(-0.00515705 7.44353e-05 0)
(-0.00526396 7.19379e-05 0)
(-0.00536715 6.93375e-05 0)
(-0.00546648 6.66384e-05 0)
(-0.00556178 6.38447e-05 0)
(-0.00565294 6.09608e-05 0)
(-0.00573982 5.79911e-05 0)
(-0.00582231 5.494e-05 0)
(-0.00590027 5.18118e-05 0)
(-0.00597361 4.86103e-05 0)
(-0.00604222 4.53397e-05 0)
(-0.006106 4.20044e-05 0)
(-0.00616486 3.86095e-05 0)
(-0.00621872 3.51597e-05 0)
(-0.0062675 3.16595e-05 0)
(-0.00631112 2.8113e-05 0)
(-0.00634954 2.45248e-05 0)
(-0.00638268 2.08998e-05 0)
(-0.0064105 1.72429e-05 0)
(-0.00643295 1.35586e-05 0)
(-0.00645 9.85117e-06 0)
(-0.00646162 6.12552e-06 0)
(-0.00646778 2.38654e-06 0)
(-0.00646848 -1.36086e-06 0)
(-0.00646369 -5.11186e-06 0)
(-0.00645343 -8.86155e-06 0)
(-0.00643769 -1.26049e-05 0)
(-0.00641649 -1.63367e-05 0)
(-0.00638985 -2.0052e-05 0)
(-0.0063578 -2.37458e-05 0)
(-0.00632037 -2.7413e-05 0)
(-0.00627761 -3.10484e-05 0)
(-0.00622957 -3.46466e-05 0)
(-0.00617631 -3.82025e-05 0)
(-0.00611789 -4.17107e-05 0)
(-0.00605439 -4.51658e-05 0)
(-0.00598589 -4.85622e-05 0)
(-0.00591248 -5.18944e-05 0)
(-0.00583426 -5.51568e-05 0)
(-0.00575133 -5.83443e-05 0)
(-0.00566382 -6.14515e-05 0)
(-0.00557183 -6.44734e-05 0)
(-0.0054755 -6.74044e-05 0)
(-0.00537497 -7.02392e-05 0)
(-0.00527037 -7.29723e-05 0)
(-0.00516188 -7.55982e-05 0)
(-0.00504964 -7.81114e-05 0)
(-0.00493382 -8.05068e-05 0)
(-0.0048146 -8.27789e-05 0)
(-0.00469217 -8.49226e-05 0)
(-0.00456671 -8.69326e-05 0)
(-0.00443843 -8.88039e-05 0)
(-0.00430753 -9.05316e-05 0)
(-0.00417422 -9.21108e-05 0)
(-0.00403873 -9.35364e-05 0)
(-0.00390128 -9.48034e-05 0)
(-0.0037621 -9.59068e-05 0)
(-0.00362145 -9.68422e-05 0)
(-0.00347955 -9.76052e-05 0)
(-0.00333668 -9.81918e-05 0)
(-0.00319309 -9.8598e-05 0)
(-0.00304904 -9.88197e-05 0)
(-0.0029048 -9.8853e-05 0)
(-0.00276065 -9.8694e-05 0)
(-0.00261688 -9.83397e-05 0)
(-0.00247376 -9.77869e-05 0)
(-0.00233158 -9.70327e-05 0)
(-0.00219065 -9.60745e-05 0)
(-0.00205124 -9.49096e-05 0)
(-0.00191368 -9.35362e-05 0)
(-0.00177825 -9.19526e-05 0)
(-0.00164526 -9.01574e-05 0)
(-0.00151502 -8.81495e-05 0)
(-0.00138783 -8.59279e-05 0)
(-0.00126399 -8.34921e-05 0)
(-0.00114383 -8.08422e-05 0)
(-0.00102762 -7.7979e-05 0)
(-0.000915695 -7.49038e-05 0)
(-0.000808333 -7.16192e-05 0)
(-0.000705834 -6.81281e-05 0)
(-0.000608485 -6.44347e-05 0)
(-0.000516565 -6.05441e-05 0)
(-0.000430346 -5.64626e-05 0)
(-0.000350084 -5.21979e-05 0)
(-0.000276026 -4.77597e-05 0)
(-0.000208396 -4.31597e-05 0)
(-0.0001474 -3.84126e-05 0)
(-9.32189e-05 -3.35361e-05 0)
(-4.60003e-05 -2.85525e-05 0)
(-5.85359e-06 -2.34899e-05 0)
(2.71597e-05 -1.83837e-05 0)
(5.30379e-05 -1.32785e-05 0)
(7.18532e-05 -8.23133e-06 0)
(8.37706e-05 -3.31616e-06 0)
(8.90728e-05 1.37066e-06 0)
(8.81925e-05 5.70121e-06 0)
(8.17539e-05 9.50278e-06 0)
(7.06289e-05 1.25401e-05 0)
(5.60044e-05 1.44939e-05 0)
(3.94317e-05 1.49416e-05 0)
(2.2887e-05 1.33449e-05 0)
(9.13809e-06 9.14651e-06 0)
(1.68834e-06 2.63882e-06 0)
(2.86323e-06 -9.03578e-06 0)
(1.34022e-05 -2.28394e-05 0)
(3.09855e-05 -3.08297e-05 0)
(5.06212e-05 -3.29441e-05 0)
(6.87645e-05 -3.02712e-05 0)
(8.28492e-05 -2.39379e-05 0)
(9.07918e-05 -1.48761e-05 0)
(9.09505e-05 -3.83832e-06 0)
(8.2098e-05 8.59058e-06 0)
(6.33495e-05 2.19617e-05 0)
(3.40774e-05 3.59318e-05 0)
(-6.11415e-06 5.02342e-05 0)
(-5.7444e-05 6.4664e-05 0)
(-0.000119996 7.90605e-05 0)
(-0.000193731 9.32942e-05 0)
(-0.00027852 0.000107267 0)
(-0.000374161 0.000120899 0)
(-0.000480394 0.000134127 0)
(-0.000596901 0.000146901 0)
(-0.000723331 0.000159181 0)
(-0.000859302 0.000170935 0)
(-0.0010044 0.00018214 0)
(-0.0011582 0.000192776 0)
(-0.00132025 0.000202829 0)
(-0.0014901 0.000212289 0)
(-0.00166728 0.00022115 0)
(-0.00185132 0.000229407 0)
(-0.00204173 0.000237056 0)
(-0.00223804 0.000244099 0)
(-0.00243977 0.000250538 0)
(-0.00264643 0.000256375 0)
(-0.00285755 0.000261614 0)
(-0.00307266 0.000266262 0)
(-0.00329127 0.000270324 0)
(-0.00351292 0.00027381 0)
(-0.00373716 0.000276725 0)
(-0.00396352 0.000279078 0)
(-0.00419155 0.000280878 0)
(-0.00442082 0.000282134 0)
(-0.00465089 0.000282856 0)
(-0.00488132 0.000283054 0)
(-0.0051117 0.00028274 0)
(-0.00534162 0.000281923 0)
(-0.00557068 0.000280614 0)
(-0.00579847 0.000278825 0)
(-0.00602462 0.000276566 0)
(-0.00624874 0.000273849 0)
(-0.00647047 0.000270686 0)
(-0.00668945 0.000267088 0)
(-0.00690533 0.000263067 0)
(-0.00711778 0.000258636 0)
(-0.00732645 0.000253805 0)
(-0.00753103 0.000248588 0)
(-0.00773122 0.000242996 0)
(-0.0079267 0.000237041 0)
(-0.00811719 0.000230735 0)
(-0.00830241 0.00022409 0)
(-0.00848209 0.00021712 0)
(-0.00865596 0.000209835 0)
(-0.00882377 0.000202249 0)
(-0.00898528 0.000194375 0)
(-0.00914027 0.000186224 0)
(-0.00928851 0.000177809 0)
(-0.00942978 0.000169142 0)
(-0.0095639 0.000160238 0)
(-0.00969067 0.000151107 0)
(-0.00980991 0.000141763 0)
(-0.00992145 0.000132217 0)
(-0.0100251 0.000122484 0)
(-0.0101208 0.000112576 0)
(-0.0102084 0.000102507 0)
(-0.0102876 9.22903e-05 0)
(-0.0103585 8.19388e-05 0)
(-0.0104209 7.14665e-05 0)
(-0.0104748 6.08871e-05 0)
(-0.01052 5.0214e-05 0)
(-0.0105564 3.94607e-05 0)
(-0.010584 2.86407e-05 0)
(-0.0106029 1.77683e-05 0)
(-0.0106128 6.85761e-06 0)
(-0.0106138 -4.07711e-06 0)
(-0.010606 -1.50216e-05 0)
(-0.0105892 -2.59614e-05 0)
(-0.0105635 -3.68815e-05 0)
(-0.0105289 -4.77672e-05 0)
(-0.0104855 -5.86038e-05 0)
(-0.0104333 -6.93766e-05 0)
(-0.0103724 -8.00706e-05 0)
(-0.0103027 -9.06706e-05 0)
(-0.0102245 -0.000101161 0)
(-0.0101378 -0.000111527 0)
(-0.0100428 -0.000121752 0)
(-0.00993943 -0.000131822 0)
(-0.00982798 -0.000141719 0)
(-0.00970855 -0.000151428 0)
(-0.00958131 -0.000160933 0)
(-0.00944642 -0.000170218 0)
(-0.00930408 -0.000179269 0)
(-0.00915448 -0.00018807 0)
(-0.00899783 -0.000196604 0)
(-0.00883435 -0.000204857 0)
(-0.00866429 -0.000212812 0)
(-0.0084879 -0.000220454 0)
(-0.00830542 -0.000227767 0)
(-0.00811715 -0.000234735 0)
(-0.00792336 -0.000241344 0)
(-0.00772435 -0.000247578 0)
(-0.00752044 -0.000253422 0)
(-0.00731195 -0.000258861 0)
(-0.00709922 -0.000263882 0)
(-0.00688258 -0.000268469 0)
(-0.0066624 -0.00027261 0)
(-0.00643905 -0.000276288 0)
(-0.00621291 -0.000279491 0)
(-0.00598437 -0.000282206 0)
(-0.00575382 -0.000284421 0)
(-0.00552168 -0.000286123 0)
(-0.00528837 -0.000287301 0)
(-0.00505432 -0.000287943 0)
(-0.00481997 -0.00028804 0)
(-0.00458575 -0.00028758 0)
(-0.00435213 -0.000286554 0)
(-0.00411956 -0.000284954 0)
(-0.00388851 -0.000282772 0)
(-0.00365945 -0.00028 0)
(-0.00343286 -0.000276633 0)
(-0.00320922 -0.000272664 0)
(-0.00298901 -0.000268089 0)
(-0.00277272 -0.000262906 0)
(-0.00256084 -0.000257112 0)
(-0.00235386 -0.000250706 0)
(-0.00215226 -0.000243687 0)
(-0.00195653 -0.000236058 0)
(-0.00176716 -0.000227821 0)
(-0.00158462 -0.000218983 0)
(-0.00140939 -0.000209553 0)
(-0.00124191 -0.00019954 0)
(-0.00108266 -0.000188959 0)
(-0.000932048 -0.000177828 0)
(-0.000790509 -0.000166166 0)
(-0.000658435 -0.000153999 0)
(-0.000536199 -0.00014136 0)
(-0.000424141 -0.000128285 0)
(-0.000322566 -0.000114822 0)
(-0.000231733 -0.000101027 0)
(-0.000151848 -8.69705e-05 0)
(-8.30505e-05 -7.27375e-05 0)
(-2.54025e-05 -5.8435e-05 0)
(2.11312e-05 -4.41954e-05 0)
(5.67032e-05 -3.01848e-05 0)
(8.16102e-05 -1.66127e-05 0)
(9.63262e-05 -3.74524e-06 0)
(0.000101543 8.07665e-06 0)
(9.82206e-05 1.84143e-05 0)
(8.76457e-05 2.67033e-05 0)
(7.14981e-05 3.22266e-05 0)
(5.1874e-05 3.4103e-05 0)
(3.13117e-05 3.13156e-05 0)
(1.33335e-05 2.28919e-05 0)
(2.76129e-06 8.73692e-06 0)
(3.20256e-06 -1.69646e-05 0)
(1.4677e-05 -3.90824e-05 0)
(3.30359e-05 -5.05248e-05 0)
(5.2402e-05 -5.23007e-05 0)
(6.86974e-05 -4.61025e-05 0)
(7.90201e-05 -3.36324e-05 0)
(8.09605e-05 -1.63568e-05 0)
(7.25711e-05 4.50479e-06 0)
(5.23524e-05 2.79758e-05 0)
(1.91754e-05 5.32678e-05 0)
(-2.77603e-05 7.97625e-05 0)
(-8.90019e-05 0.000106966 0)
(-0.000164869 0.000134492 0)
(-0.0002555 0.000162023 0)
(-0.000360888 0.000189316 0)
(-0.000480895 0.000216165 0)
(-0.000615288 0.000242413 0)
(-0.000763745 0.000267929 0)
(-0.000925881 0.00029261 0)
(-0.00110125 0.000316372 0)
(-0.00128936 0.000339149 0)
(-0.00148969 0.000360888 0)
(-0.00170167 0.000381547 0)
(-0.00192473 0.000401094 0)
(-0.00215825 0.000419506 0)
(-0.00240163 0.000436765 0)
(-0.00265424 0.00045286 0)
(-0.00291544 0.000467784 0)
(-0.0031846 0.000481534 0)
(-0.00346106 0.000494111 0)
(-0.00374418 0.00050552 0)
(-0.00403333 0.000515766 0)
(-0.00432786 0.000524859 0)
(-0.00462714 0.000532811 0)
(-0.00493053 0.000539635 0)
(-0.00523741 0.000545343 0)
(-0.00554717 0.000549952 0)
(-0.00585918 0.000553479 0)
(-0.00617287 0.000555939 0)
(-0.00648763 0.000557352 0)
(-0.00680287 0.000557738 0)
(-0.00711804 0.000557115 0)
(-0.00743256 0.000555505 0)
(-0.0077459 0.000552928 0)
(-0.0080575 0.000549405 0)
(-0.00836685 0.000544958 0)
(-0.00867343 0.000539609 0)
(-0.00897674 0.000533382 0)
(-0.00927629 0.000526298 0)
(-0.00957159 0.000518381 0)
(-0.0098622 0.000509655 0)
(-0.0101476 0.000500141 0)
(-0.0104275 0.000489865 0)
(-0.0107013 0.000478848 0)
(-0.0109687 0.000467116 0)
(-0.0112293 0.000454691 0)
(-0.0114827 0.000441599 0)
(-0.0117285 0.000427862 0)
(-0.0119663 0.000413506 0)
(-0.0121958 0.000398554 0)
(-0.0124168 0.000383033 0)
(-0.0126288 0.000366966 0)
(-0.0128315 0.000350379 0)
(-0.0130248 0.000333295 0)
(-0.0132082 0.00031574 0)
(-0.0133816 0.000297739 0)
(-0.0135447 0.000279316 0)
(-0.0136972 0.000260497 0)
(-0.013839 0.000241309 0)
(-0.0139698 0.000221776 0)
(-0.0140895 0.000201925 0)
(-0.0141979 0.000181782 0)
(-0.0142948 0.000161374 0)
(-0.0143801 0.000140729 0)
(-0.0144536 0.000119872 0)
(-0.0145154 9.88309e-05 0)
(-0.0145651 7.76319e-05 0)
(-0.0146028 5.63025e-05 0)
(-0.0146285 3.48704e-05 0)
(-0.014642 1.33639e-05 0)
(-0.0146433 -8.18916e-06 0)
(-0.0146324 -2.97603e-05 0)
(-0.0146093 -5.13209e-05 0)
(-0.0145741 -7.28416e-05 0)
(-0.0145267 -9.42933e-05 0)
(-0.0144672 -0.000115647 0)
(-0.0143957 -0.000136873 0)
(-0.0143122 -0.000157942 0)
(-0.0142169 -0.000178825 0)
(-0.0141098 -0.00019949 0)
(-0.0139911 -0.000219908 0)
(-0.013861 -0.000240047 0)
(-0.0137196 -0.000259877 0)
(-0.013567 -0.000279367 0)
(-0.0134036 -0.000298485 0)
(-0.0132295 -0.0003172 0)
(-0.013045 -0.000335481 0)
(-0.0128503 -0.000353299 0)
(-0.0126456 -0.000370622 0)
(-0.0124313 -0.00038742 0)
(-0.0122077 -0.000403661 0)
(-0.0119751 -0.000419314 0)
(-0.0117339 -0.00043435 0)
(-0.0114844 -0.000448737 0)
(-0.0112269 -0.000462444 0)
(-0.0109619 -0.000475443 0)
(-0.0106898 -0.000487703 0)
(-0.010411 -0.000499195 0)
(-0.0101259 -0.00050989 0)
(-0.00983509 -0.000519761 0)
(-0.00953892 -0.000528779 0)
(-0.00923791 -0.000536917 0)
(-0.00893258 -0.000544147 0)
(-0.00862343 -0.000550443 0)
(-0.008311 -0.00055578 0)
(-0.00799583 -0.000560135 0)
(-0.00767849 -0.000563483 0)
(-0.00735954 -0.000565802 0)
(-0.00703957 -0.000567071 0)
(-0.00671917 -0.000567269 0)
(-0.00639894 -0.000566377 0)
(-0.00607951 -0.000564378 0)
(-0.00576149 -0.000561254 0)
(-0.00544551 -0.000556991 0)
(-0.00513222 -0.000551575 0)
(-0.00482226 -0.000544995 0)
(-0.00451628 -0.000537242 0)
(-0.00421493 -0.000528308 0)
(-0.00391886 -0.000518187 0)
(-0.00362875 -0.000506877 0)
(-0.00334523 -0.000494377 0)
(-0.00306898 -0.000480689 0)
(-0.00280063 -0.000465817 0)
(-0.00254083 -0.000449773 0)
(-0.00229023 -0.000432569 0)
(-0.00204944 -0.000414223 0)
(-0.00181907 -0.00039476 0)
(-0.00159972 -0.00037421 0)
(-0.00139197 -0.000352609 0)
(-0.00119635 -0.000330001 0)
(-0.00101339 -0.000306442 0)
(-0.00084356 -0.000281997 0)
(-0.000687298 -0.000256745 0)
(-0.000544984 -0.000230783 0)
(-0.000416938 -0.000204227 0)
(-0.000303403 -0.000177219 0)
(-0.000204535 -0.000149929 0)
(-0.000120382 -0.00012257 0)
(-5.08637e-05 -9.53987e-05 0)
(4.25103e-06 -6.87343e-05 0)
(4.53773e-05 -4.29713e-05 0)
(7.31494e-05 -1.86009e-05 0)
(8.84633e-05 3.76452e-06 0)
(9.25255e-05 2.33601e-05 0)
(8.69093e-05 3.92365e-05 0)
(7.36118e-05 5.02317e-05 0)
(5.50656e-05 5.4966e-05 0)
(3.41642e-05 5.18884e-05 0)
(1.49536e-05 3.94471e-05 0)
(3.1941e-06 1.65836e-05 0)
(3.10923e-06 -2.48493e-05 0)
(1.39305e-05 -5.49322e-05 0)
(3.04378e-05 -6.87516e-05 0)
(4.63732e-05 -6.86372e-05 0)
(5.73864e-05 -5.70667e-05 0)
(6.03528e-05 -3.63577e-05 0)
(5.26721e-05 -8.5349e-06 0)
(3.22128e-05 2.47132e-05 0)
(-2.70298e-06 6.19787e-05 0)
(-5.33511e-05 0.000102123 0)
(-0.000120681 0.000144216 0)
(-0.000205335 0.000187502 0)
(-0.000307721 0.000231379 0)
(-0.000428031 0.000275348 0)
(-0.000566278 0.000319013 0)
(-0.000722334 0.000362044 0)
(-0.000895939 0.000404179 0)
(-0.00108673 0.0004452 0)
(-0.00129427 0.000484931 0)
(-0.00151803 0.000523231 0)
(-0.00175743 0.000559985 0)
(-0.00201185 0.0005951 0)
(-0.00228062 0.000628504 0)
(-0.00256303 0.000660139 0)
(-0.00285836 0.000689961 0)
(-0.00316586 0.000717936 0)
(-0.00348476 0.000744042 0)
(-0.00381429 0.000768263 0)
(-0.00415366 0.000790591 0)
(-0.00450208 0.000811026 0)
(-0.00485876 0.00082957 0)
(-0.0052229 0.000846232 0)
(-0.00559372 0.000861025 0)
(-0.00597042 0.000873963 0)
(-0.00635223 0.000885067 0)
(-0.00673837 0.000894356 0)
(-0.00712806 0.000901856 0)
(-0.00752056 0.000907591 0)
(-0.00791512 0.000911588 0)
(-0.00831099 0.000913877 0)
(-0.00870745 0.000914486 0)
(-0.00910379 0.000913449 0)
(-0.0094993 0.000910796 0)
(-0.0098933 0.000906563 0)
(-0.0102851 0.000900782 0)
(-0.0106741 0.00089349 0)
(-0.0110596 0.00088472 0)
(-0.0114409 0.000874511 0)
(-0.0118175 0.000862899 0)
(-0.0121888 0.000849922 0)
(-0.0125542 0.000835616 0)
(-0.0129131 0.000820021 0)
(-0.0132649 0.000803173 0)
(-0.0136092 0.000785112 0)
(-0.0139454 0.000765877 0)
(-0.014273 0.000745505 0)
(-0.0145915 0.000724037 0)
(-0.0149005 0.000701512 0)
(-0.0151995 0.000677971 0)
(-0.0154881 0.000653452 0)
(-0.0157659 0.000627997 0)
(-0.0160324 0.000601647 0)
(-0.0162872 0.000574441 0)
(-0.0165302 0.000546421 0)
(-0.0167607 0.000517628 0)
(-0.0169787 0.000488102 0)
(-0.0171836 0.000457885 0)
(-0.0173753 0.000427019 0)
(-0.0175535 0.000395545 0)
(-0.017718 0.000363507 0)
(-0.0178684 0.000330948 0)
(-0.0180045 0.00029791 0)
(-0.0181263 0.000264438 0)
(-0.0182334 0.000230577 0)
(-0.0183258 0.000196369 0)
(-0.0184033 0.000161859 0)
(-0.0184657 0.000127091 0)
(-0.018513 9.21101e-05 0)
(-0.0185451 5.69625e-05 0)
(-0.018562 2.16939e-05 0)
(-0.0185635 -1.36496e-05 0)
(-0.0185497 -4.90212e-05 0)
(-0.0185206 -8.43735e-05 0)
(-0.0184762 -0.000119659 0)
(-0.0184164 -0.000154829 0)
(-0.0183415 -0.000189837 0)
(-0.0182515 -0.000224634 0)
(-0.0181464 -0.000259172 0)
(-0.0180265 -0.000293401 0)
(-0.0178917 -0.000327271 0)
(-0.0177425 -0.000360733 0)
(-0.0175788 -0.000393737 0)
(-0.0174009 -0.000426232 0)
(-0.0172091 -0.000458166 0)
(-0.0170036 -0.00048949 0)
(-0.0167847 -0.000520152 0)
(-0.0165526 -0.000550102 0)
(-0.0163078 -0.00057929 0)
(-0.0160505 -0.000607665 0)
(-0.0157812 -0.000635177 0)
(-0.0155001 -0.000661776 0)
(-0.0152077 -0.00068741 0)
(-0.0149045 -0.00071203 0)
(-0.0145909 -0.000735586 0)
(-0.0142673 -0.000758029 0)
(-0.0139342 -0.000779309 0)
(-0.0135923 -0.000799379 0)
(-0.0132419 -0.00081819 0)
(-0.0128837 -0.000835697 0)
(-0.0125182 -0.000851854 0)
(-0.012146 -0.000866614 0)
(-0.0117677 -0.000879934 0)
(-0.011384 -0.000891768 0)
(-0.0109956 -0.000902077 0)
(-0.010603 -0.000910817 0)
(-0.0102069 -0.000917952 0)
(-0.00980811 -0.000923443 0)
(-0.00940729 -0.000927254 0)
(-0.00900516 -0.000929351 0)
(-0.00860247 -0.000929701 0)
(-0.00819997 -0.000928273 0)
(-0.00779843 -0.00092504 0)
(-0.00739862 -0.000919976 0)
(-0.00700134 -0.000913056 0)
(-0.00660737 -0.000904262 0)
(-0.00621751 -0.000893574 0)
(-0.00583259 -0.00088098 0)
(-0.00545339 -0.000866468 0)
(-0.00508074 -0.000850032 0)
(-0.00471545 -0.000831668 0)
(-0.00435834 -0.000811378 0)
(-0.0040102 -0.000789168 0)
(-0.00367184 -0.000765049 0)
(-0.00334405 -0.00073904 0)
(-0.00302762 -0.000711167 0)
(-0.00272329 -0.000681463 0)
(-0.00243183 -0.000649969 0)
(-0.00215395 -0.000616739 0)
(-0.00189034 -0.000581836 0)
(-0.00164166 -0.000545339 0)
(-0.00140853 -0.000507341 0)
(-0.00119151 -0.000467955 0)
(-0.000991126 -0.000427316 0)
(-0.000807813 -0.000385586 0)
(-0.000641937 -0.000342961 0)
(-0.000493768 -0.000299673 0)
(-0.000363469 -0.000256005 0)
(-0.00025107 -0.000212298 0)
(-0.000156451 -0.000168964 0)
(-7.93118e-05 -0.000126507 0)
(-1.91425e-05 -8.55374e-05 0)
(2.48139e-05 -4.68051e-05 0)
(5.36013e-05 -1.12244e-05 0)
(6.85953e-05 2.00887e-05 0)
(7.15547e-05 4.57814e-05 0)
(6.46732e-05 6.42343e-05 0)
(5.05904e-05 7.35514e-05 0)
(3.2434e-05 7.15931e-05 0)
(1.45619e-05 5.60808e-05 0)
(3.18001e-06 2.47239e-05 0)
(2.74553e-06 -3.19415e-05 0)
(1.17281e-05 -6.84906e-05 0)
(2.42746e-05 -8.30081e-05 0)
(3.42169e-05 -7.91078e-05 0)
(3.71366e-05 -6.00948e-05 0)
(2.98008e-05 -2.89449e-05 0)
(9.51055e-06 1.17722e-05 0)
(-2.59564e-05 5.98727e-05 0)
(-7.83725e-05 0.000113537 0)
(-0.000149113 0.000171246 0)
(-0.000239205 0.000231748 0)
(-0.000349371 0.000294015 0)
(-0.000480068 0.000357193 0)
(-0.000631531 0.000420589 0)
(-0.000803793 0.000483626 0)
(-0.000996724 0.000545833 0)
(-0.00121005 0.000606822 0)
(-0.00144338 0.000666271 0)
(-0.00169621 0.000723918 0)
(-0.00196797 0.000779548 0)
(-0.002258 0.000832985 0)
(-0.00256559 0.000884085 0)
(-0.00288997 0.000932737 0)
(-0.00323034 0.000978847 0)
(-0.00358585 0.00102235 0)
(-0.00395564 0.00106318 0)
(-0.00433883 0.0011013 0)
(-0.00473451 0.0011367 0)
(-0.00514176 0.00116934 0)
(-0.00555966 0.00119922 0)
(-0.00598729 0.00122636 0)
(-0.0064237 0.00125074 0)
(-0.00686796 0.0012724 0)
(-0.00731916 0.00129134 0)
(-0.00777637 0.00130759 0)
(-0.00823867 0.00132119 0)
(-0.00870515 0.00133216 0)
(-0.00917493 0.00134055 0)
(-0.0096471 0.00134638 0)
(-0.0101208 0.0013497 0)
(-0.0105952 0.00135055 0)
(-0.0110693 0.00134898 0)
(-0.0115425 0.00134503 0)
(-0.0120138 0.00133876 0)
(-0.0124825 0.0013302 0)
(-0.0129478 0.00131942 0)
(-0.0134088 0.00130646 0)
(-0.013865 0.00129137 0)
(-0.0143154 0.00127422 0)
(-0.0147595 0.00125505 0)
(-0.0151965 0.00123392 0)
(-0.0156257 0.00121089 0)
(-0.0160465 0.00118601 0)
(-0.0164582 0.00115934 0)
(-0.0168602 0.00113093 0)
(-0.017252 0.00110084 0)
(-0.0176329 0.00106913 0)
(-0.0180024 0.00103587 0)
(-0.01836 0.0010011 0)
(-0.0187051 0.000964882 0)
(-0.0190372 0.000927285 0)
(-0.0193559 0.000888363 0)
(-0.0196606 0.000848177 0)
(-0.0199511 0.000806789 0)
(-0.0202267 0.000764257 0)
(-0.0204873 0.000720643 0)
(-0.0207323 0.000676008 0)
(-0.0209615 0.000630414 0)
(-0.0211745 0.000583923 0)
(-0.0213711 0.000536599 0)
(-0.0215508 0.000488505 0)
(-0.0217136 0.000439705 0)
(-0.0218591 0.000390265 0)
(-0.0219871 0.000340249 0)
(-0.0220974 0.000289723 0)
(-0.0221899 0.000238751 0)
(-0.0222645 0.000187399 0)
(-0.0223209 0.000135735 0)
(-0.0223592 8.38266e-05 0)
(-0.0223792 3.17407e-05 0)
(-0.0223809 -2.04539e-05 0)
(-0.0223643 -7.26879e-05 0)
(-0.0223293 -0.000124891 0)
(-0.022276 -0.000176993 0)
(-0.0222045 -0.000228923 0)
(-0.0221148 -0.000280611 0)
(-0.022007 -0.000331985 0)
(-0.0218812 -0.000382973 0)
(-0.0217377 -0.000433501 0)
(-0.0215765 -0.000483498 0)
(-0.0213979 -0.00053289 0)
(-0.021202 -0.000581602 0)
(-0.0209893 -0.000629559 0)
(-0.0207598 -0.000676687 0)
(-0.0205141 -0.000722911 0)
(-0.0202522 -0.000768157 0)
(-0.0199747 -0.00081235 0)
(-0.019682 -0.000855416 0)
(-0.0193743 -0.00089728 0)
(-0.0190522 -0.000937868 0)
(-0.0187162 -0.000977105 0)
(-0.0183666 -0.00101492 0)
(-0.0180041 -0.00105123 0)
(-0.0176291 -0.00108598 0)
(-0.0172422 -0.00111908 0)
(-0.0168441 -0.00115046 0)
(-0.0164353 -0.00118006 0)
(-0.0160164 -0.0012078 0)
(-0.0155882 -0.00123362 0)
(-0.0151513 -0.00125745 0)
(-0.0147064 -0.00127922 0)
(-0.0142542 -0.00129887 0)
(-0.0137955 -0.00131633 0)
(-0.0133311 -0.00133154 0)
(-0.0128618 -0.00134445 0)
(-0.0123883 -0.00135499 0)
(-0.0119115 -0.00136312 0)
(-0.0114323 -0.00136877 0)
(-0.0109515 -0.0013719 0)
(-0.0104699 -0.00137247 0)
(-0.00998858 -0.00137043 0)
(-0.00950833 -0.00136574 0)
(-0.0090301 -0.00135836 0)
(-0.00855481 -0.00134826 0)
(-0.0080834 -0.00133541 0)
(-0.00761682 -0.00131979 0)
(-0.00715603 -0.00130138 0)
(-0.00670197 -0.00128016 0)
(-0.00625562 -0.00125614 0)
(-0.00581791 -0.0012293 0)
(-0.00538982 -0.00119965 0)
(-0.00497227 -0.0011672 0)
(-0.00456622 -0.00113198 0)
(-0.00417259 -0.00109401 0)
(-0.00379228 -0.00105334 0)
(-0.00342619 -0.00101002 0)
(-0.00307518 -0.000964119 0)
(-0.00274008 -0.000915716 0)
(-0.00242169 -0.00086491 0)
(-0.00212077 -0.000811823 0)
(-0.00183803 -0.000756598 0)
(-0.00157411 -0.000699407 0)
(-0.00132958 -0.000640453 0)
(-0.00110494 -0.000579981 0)
(-0.000900598 -0.00051828 0)
(-0.000716842 -0.000455693 0)
(-0.000553839 -0.000392633 0)
(-0.000411605 -0.000329592 0)
(-0.000289989 -0.000267159 0)
(-0.000188639 -0.000206043 0)
(-0.000106976 -0.000147094 0)
(-4.41599e-05 -9.13391e-05 0)
(9.51254e-07 -4.00092e-05 0)
(2.98381e-05 5.41802e-06 0)
(4.43677e-05 4.31804e-05 0)
(4.68419e-05 7.11969e-05 0)
(4.00144e-05 8.70423e-05 0)
(2.71462e-05 8.79542e-05 0)
(1.26991e-05 7.08606e-05 0)
(2.87575e-06 3.22288e-05 0)
(2.2018e-06 -3.75887e-05 0)
(8.50399e-06 -7.82652e-05 0)
(1.54651e-05 -9.12619e-05 0)
(1.7372e-05 -8.13525e-05 0)
(9.92765e-06 -5.2637e-05 0)
(-1.01183e-05 -8.73978e-06 0)
(-4.54764e-05 4.72235e-05 0)
(-9.83942e-05 0.000112597 0)
(-0.000170674 0.000185135 0)
(-0.000263732 0.000262952 0)
(-0.000378636 0.000344465 0)
(-0.000516146 0.000428359 0)
(-0.000676753 0.000513529 0)
(-0.000860706 0.00059906 0)
(-0.00106805 0.000684188 0)
(-0.00129866 0.000768281 0)
(-0.00155223 0.000850808 0)
(-0.00182834 0.000931333 0)
(-0.00212646 0.00100949 0)
(-0.00244595 0.00108499 0)
(-0.00278609 0.00115756 0)
(-0.00314609 0.00122703 0)
(-0.0035251 0.00129321 0)
(-0.00392223 0.00135597 0)
(-0.00433654 0.00141522 0)
(-0.00476705 0.00147087 0)
(-0.00521276 0.00152285 0)
(-0.00567267 0.00157114 0)
(-0.00614573 0.00161569 0)
(-0.0066309 0.00165649 0)
(-0.00712712 0.00169354 0)
(-0.00763334 0.00172685 0)
(-0.0081485 0.00175643 0)
(-0.00867154 0.0017823 0)
(-0.0092014 0.00180451 0)
(-0.00973705 0.00182307 0)
(-0.0102774 0.00183804 0)
(-0.0108216 0.00184947 0)
(-0.0113684 0.00185739 0)
(-0.0119169 0.00186187 0)
(-0.0124661 0.00186295 0)
(-0.013015 0.00186071 0)
(-0.0135628 0.00185521 0)
(-0.0141083 0.0018465 0)
(-0.0146508 0.00183466 0)
(-0.0151893 0.00181975 0)
(-0.0157229 0.00180185 0)
(-0.0162507 0.00178102 0)
(-0.016772 0.00175735 0)
(-0.0172859 0.00173089 0)
(-0.0177915 0.00170174 0)
(-0.0182881 0.00166996 0)
(-0.018775 0.00163563 0)
(-0.0192514 0.00159884 0)
(-0.0197166 0.00155965 0)
(-0.0201699 0.00151814 0)
(-0.0206106 0.0014744 0)
(-0.0210381 0.00142851 0)
(-0.0214517 0.00138055 0)
(-0.021851 0.00133059 0)
(-0.0222352 0.00127873 0)
(-0.0226038 0.00122503 0)
(-0.0229564 0.0011696 0)
(-0.0232923 0.0011125 0)
(-0.0236112 0.00105383 0)
(-0.0239126 0.000993659 0)
(-0.024196 0.000932084 0)
(-0.0244611 0.000869187 0)
(-0.0247074 0.000805054 0)
(-0.0249347 0.000739772 0)
(-0.0251425 0.000673428 0)
(-0.0253307 0.000606112 0)
(-0.0254989 0.000537914 0)
(-0.0256469 0.000468922 0)
(-0.0257744 0.000399226 0)
(-0.0258813 0.000328918 0)
(-0.0259674 0.000258088 0)
(-0.0260326 0.000186829 0)
(-0.0260767 0.000115235 0)
(-0.0260997 4.33986e-05 0)
(-0.0261016 -2.85851e-05 0)
(-0.0260822 -0.00010062 0)
(-0.0260416 -0.00017261 0)
(-0.0259798 -0.000244458 0)
(-0.0258969 -0.000316067 0)