0.05 	0.0003125 	0.005 	-0.00166496 	8.85071e-07 	0
0.05 	0.0009375 	0.005 	-0.00487514 	5.8868e-06 	0
0.05 	0.0015625 	0.005 	-0.00797286 	1.66763e-05 	0
0.05 	0.0021875 	0.005 	-0.0109648 	3.21396e-05 	0
0.05 	0.0028125 	0.005 	-0.0138571 	5.16553e-05 	0
0.05 	0.0034375 	0.005 	-0.0166557 	7.48816e-05 	0
0.05 	0.0040625 	0.005 	-0.0193665 	0.000101504 	0
0.05 	0.0046875 	0.005 	-0.0219948 	0.000131249 	0
0.05 	0.0053125 	0.005 	-0.0245461 	0.0001639 	0
0.05 	0.0059375 	0.005 	-0.0270255 	0.000199293 	0
0.05 	0.0065625 	0.005 	-0.0294378 	0.000237318 	0
0.05 	0.0071875 	0.005 	-0.0317879 	0.000277914 	0
0.05 	0.0078125 	0.005 	-0.0340803 	0.00032107 	0
0.05 	0.0084375 	0.005 	-0.0363196 	0.000366824 	0
0.05 	0.0090625 	0.005 	-0.0385099 	0.000415262 	0
0.05 	0.0096875 	0.005 	-0.0406556 	0.00046652 	0
0.05 	0.0103125 	0.005 	-0.0427606 	0.000520779 	0
0.05 	0.0109375 	0.005 	-0.0448289 	0.00057827 	0
0.05 	0.0115625 	0.005 	-0.0468642 	0.000639268 	0
0.05 	0.0121875 	0.005 	-0.0488703 	0.000704099 	0
0.05 	0.0128125 	0.005 	-0.0508507 	0.000773137 	0
0.05 	0.0134375 	0.005 	-0.0528089 	0.0008468 	0
0.05 	0.0140625 	0.005 	-0.0547484 	0.000925559 	0
0.05 	0.0146875 	0.005 	-0.0566723 	0.00100993 	0
0.05 	0.0153125 	0.005 	-0.0585839 	0.00110049 	0
0.05 	0.0159375 	0.005 	-0.0604862 	0.00119784 	0
0.05 	0.0165625 	0.005 	-0.0623823 	0.00130266 	0
0.05 	0.0171875 	0.005 	-0.0642751 	0.00141567 	0
0.05 	0.0178125 	0.005 	-0.0661673 	0.00153763 	0
0.05 	0.0184375 	0.005 	-0.0680616 	0.00166937 	0
0.05 	0.0190625 	0.005 	-0.0699607 	0.00181176 	0
0.05 	0.0196875 	0.005 	-0.0718671 	0.00196574 	0
0.05 	0.0203125 	0.005 	-0.0737831 	0.00213228 	0
0.05 	0.0209375 	0.005 	-0.075711 	0.00231242 	0
0.05 	0.0215625 	0.005 	-0.0776531 	0.00250724 	0
0.05 	0.0221875 	0.005 	-0.0796113 	0.00271789 	0
0.05 	0.0228125 	0.005 	-0.0815876 	0.00294557 	0
0.05 	0.0234375 	0.005 	-0.0835838 	0.00319152 	0
0.05 	0.0240625 	0.005 	-0.0856015 	0.00345704 	0
0.05 	0.0246875 	0.005 	-0.0876423 	0.00374348 	0
0.05 	0.0253125 	0.005 	-0.0897075 	0.00405224 	0
0.05 	0.0259375 	0.005 	-0.0917983 	0.00438477 	0
0.05 	0.0265625 	0.005 	-0.0939158 	0.00474257 	0
0.05 	0.0271875 	0.005 	-0.0960609 	0.00512717 	0
0.05 	0.0278125 	0.005 	-0.0982341 	0.00554016 	0
0.05 	0.0284375 	0.005 	-0.100436 	0.00598315 	0
0.05 	0.0290625 	0.005 	-0.102667 	0.00645779 	0
0.05 	0.0296875 	0.005 	-0.104926 	0.00696578 	0
0.05 	0.0303125 	0.005 	-0.107215 	0.0075088 	0
0.05 	0.0309375 	0.005 	-0.109531 	0.0080886 	0
0.05 	0.0315625 	0.005 	-0.111876 	0.00870692 	0
0.05 	0.0321875 	0.005 	-0.114247 	0.00936551 	0
0.05 	0.0328125 	0.005 	-0.116643 	0.0100661 	0
0.05 	0.0334375 	0.005 	-0.119063 	0.0108105 	0
0.05 	0.0340625 	0.005 	-0.121505 	0.0116004 	0
0.05 	0.0346875 	0.005 	-0.123968 	0.0124375 	0
0.05 	0.0353125 	0.005 	-0.126448 	0.0133235 	0
0.05 	0.0359375 	0.005 	-0.128942 	0.01426 	0
0.05 	0.0365625 	0.005 	-0.131449 	0.0152486 	0
0.05 	0.0371875 	0.005 	-0.133963 	0.0162908 	0
0.05 	0.0378125 	0.005 	-0.136483 	0.0173881 	0
0.05 	0.0384375 	0.005 	-0.139002 	0.0185417 	0
0.05 	0.0390625 	0.005 	-0.141518 	0.0197531 	0
0.05 	0.0396875 	0.005 	-0.144024 	0.0210232 	0
0.05 	0.0403125 	0.005 	-0.146517 	0.0223531 	0
0.05 	0.0409375 	0.005 	-0.14899 	0.0237437 	0
0.05 	0.0415625 	0.005 	-0.151438 	0.0251956 	0
0.05 	0.0421875 	0.005 	-0.153854 	0.0267094 	0
0.05 	0.0428125 	0.005 	-0.156232 	0.0282854 	0
0.05 	0.0434375 	0.005 	-0.158566 	0.0299238 	0
0.05 	0.0440625 	0.005 	-0.160847 	0.0316245 	0
0.05 	0.0446875 	0.005 	-0.163069 	0.0333872 	0
0.05 	0.0453125 	0.005 	-0.165223 	0.0352114 	0
0.05 	0.0459375 	0.005 	-0.167303 	0.0370961 	0
0.05 	0.0465625 	0.005 	-0.169299 	0.0390405 	0
0.05 	0.0471875 	0.005 	-0.171203 	0.041043 	0
0.05 	0.0478125 	0.005 	-0.173007 	0.0431022 	0
0.05 	0.0484375 	0.005 	-0.174703 	0.0452159 	0
0.05 	0.0490625 	0.005 	-0.17628 	0.047382 	0
0.05 	0.0496875 	0.005 	-0.177731 	0.0495978 	0
0.05 	0.0503125 	0.005 	-0.179046 	0.0518606 	0
0.05 	0.0509375 	0.005 	-0.180217 	0.0541669 	0
0.05 	0.0515625 	0.005 	-0.181234 	0.0565133 	0
0.05 	0.0521875 	0.005 	-0.182089 	0.0588958 	0
0.05 	0.0528125 	0.005 	-0.182773 	0.0613103 	0
0.05 	0.0534375 	0.005 	-0.183277 	0.0637522 	0
0.05 	0.0540625 	0.005 	-0.183594 	0.0662165 	0
0.05 	0.0546875 	0.005 	-0.183714 	0.0686981 	0
0.05 	0.0553125 	0.005 	-0.18363 	0.0711915 	0
0.05 	0.0559375 	0.005 	-0.183334 	0.0736909 	0
0.05 	0.0565625 	0.005 	-0.182818 	0.0761902 	0
0.05 	0.0571875 	0.005 	-0.182077 	0.078683 	0
0.05 	0.0578125 	0.005 	-0.181103 	0.0811628 	0
0.05 	0.0584375 	0.005 	-0.179891 	0.0836227 	0
0.05 	0.0590625 	0.005 	-0.178433 	0.0860558 	0
0.05 	0.0596875 	0.005 	-0.176726 	0.0884547 	0
0.05 	0.0603125 	0.005 	-0.174764 	0.0908122 	0
0.05 	0.0609375 	0.005 	-0.172542 	0.0931207 	0
0.05 	0.0615625 	0.005 	-0.170057 	0.0953726 	0
0.05 	0.0621875 	0.005 	-0.167305 	0.0975603 	0
0.05 	0.0628125 	0.005 	-0.164283 	0.099676 	0
0.05 	0.0634375 	0.005 	-0.160988 	0.101712 	0
0.05 	0.0640625 	0.005 	-0.157417 	0.103661 	0
0.05 	0.0646875 	0.005 	-0.153568 	0.105514 	0
0.05 	0.0653125 	0.005 	-0.149439 	0.107265 	0
0.05 	0.0659375 	0.005 	-0.145028 	0.108905 	0
0.05 	0.0665625 	0.005 	-0.140334 	0.110428 	0
0.05 	0.0671875 	0.005 	-0.135354 	0.111825 	0
0.05 	0.0678125 	0.005 	-0.130087 	0.113091 	0
0.05 	0.0684375 	0.005 	-0.12453 	0.114218 	0
0.05 	0.0690625 	0.005 	-0.118682 	0.1152 	0
0.05 	0.0696875 	0.005 	-0.112539 	0.11603 	0
0.05 	0.0703125 	0.005 	-0.106097 	0.116702 	0
0.05 	0.0709375 	0.005 	-0.0993533 	0.117211 	0
0.05 	0.0715625 	0.005 	-0.0923018 	0.117551 	0
0.05 	0.0721875 	0.005 	-0.0849364 	0.117717 	0
0.05 	0.0728125 	0.005 	-0.0772499 	0.117704 	0
0.05 	0.0734375 	0.005 	-0.0692334 	0.117508 	0
0.05 	0.0740625 	0.005 	-0.0608764 	0.117125 	0
0.05 	0.0746875 	0.005 	-0.0521665 	0.116551 	0
0.05 	0.0753125 	0.005 	-0.0430895 	0.115785 	0
0.05 	0.0759375 	0.005 	-0.0336289 	0.114822 	0
0.05 	0.0765625 	0.005 	-0.0237655 	0.11366 	0
0.05 	0.0771875 	0.005 	-0.0134777 	0.1123 	0
0.05 	0.0778125 	0.005 	-0.00274099 	0.110738 	0
0.05 	0.0784375 	0.005 	0.00847216 	0.108976 	0
0.05 	0.0790625 	0.005 	0.0201926 	0.107012 	0
0.05 	0.0796875 	0.005 	0.0324544 	0.104849 	0
0.05 	0.0803125 	0.005 	0.0452952 	0.102487 	0
0.05 	0.0809375 	0.005 	0.0587564 	0.0999295 	0
0.05 	0.0815625 	0.005 	0.0728827 	0.0971794 	0
0.05 	0.0821875 	0.005 	0.0877226 	0.0942412 	0
0.05 	0.0828125 	0.005 	0.103328 	0.0911201 	0
0.05 	0.0834375 	0.005 	0.119755 	0.0878227 	0
0.05 	0.0840625 	0.005 	0.137061 	0.0843566 	0
0.05 	0.0846875 	0.005 	0.155308 	0.0807309 	0
0.05 	0.0853125 	0.005 	0.174559 	0.0769562 	0
0.05 	0.0859375 	0.005 	0.19488 	0.0730446 	0
0.05 	0.0865625 	0.005 	0.216336 	0.06901 	0
0.05 	0.0871875 	0.005 	0.238994 	0.064868 	0
0.05 	0.0878125 	0.005 	0.262919 	0.0606362 	0
0.05 	0.0884375 	0.005 	0.288174 	0.0563343 	0
0.05 	0.0890625 	0.005 	0.314816 	0.0519841 	0
0.05 	0.0896875 	0.005 	0.3429 	0.0476094 	0
0.05 	0.0903125 	0.005 	0.372471 	0.0432365 	0
0.05 	0.0909375 	0.005 	0.403566 	0.0388934 	0
0.05 	0.0915625 	0.005 	0.436209 	0.0346107 	0
0.05 	0.0921875 	0.005 	0.470411 	0.0304204 	0
0.05 	0.0928125 	0.005 	0.506166 	0.0263565 	0
0.05 	0.0934375 	0.005 	0.543451 	0.0224544 	0
0.05 	0.0940625 	0.005 	0.582219 	0.0187505 	0
0.05 	0.0946875 	0.005 	0.622401 	0.0152815 	0
0.05 	0.0953125 	0.005 	0.663903 	0.0120842 	0
0.05 	0.0959375 	0.005 	0.706602 	0.00919456 	0
0.05 	0.0965625 	0.005 	0.750347 	0.00664697 	0
0.05 	0.0971875 	0.005 	0.794957 	0.00447342 	0
0.05 	0.0978125 	0.005 	0.84022 	0.00270113 	0
0.05 	0.0984375 	0.005 	0.885897 	0.00135006 	0
0.05 	0.0990625 	0.005 	0.93172 	0.000450533 	0
0.05 	0.0996875 	0.005 	0.977395 	5.96152e-05 	0
