/*--------------------------------*- C++ -*----------------------------------*\
  =========                 |
  \\      /  F ield         | OpenFOAM: The Open Source CFD Toolbox
   \\    /   O peration     | Website:  https://openfoam.org
    \\  /    A nd           | Version:  7
     \\/     M anipulation  |
\*---------------------------------------------------------------------------*/
FoamFile
{
    version     2.0;
    format      ascii;
    class       volScalarField;
    location    "0.2";
    object      p;
}
// * * * * * * * * * * * * * * * * * * * * * * * * * * * * * * * * * * * * * //

dimensions      [0 2 -2 0 0 0 0];

internalField   nonuniform List<scalar> 
6400
(
3.64385e-08
1.14079e-05
-0.000496117
-0.00152913
-0.00297105
-0.00471176
-0.00665113
-0.00869971
-0.0107803
-0.0128277
-0.0147867
-0.0166111
-0.0182627
-0.0197098
-0.0209265
-0.0218921
-0.0225906
-0.0230096
-0.0231407
-0.0229784
-0.0225205
-0.0217668
-0.0207199
-0.0193843
-0.0177665
-0.0158746
-0.0137186
-0.0113098
-0.00866068
-0.00578527
-0.00269853
0.000583512
0.00404384
0.0076646
0.0114272
0.0153121
0.0192996
0.0233688
0.0274988
0.0316681
0.0358549
0.0400372
0.0441925
0.0482988
0.0523337
0.0562751
0.0601014
0.063791
0.0673231
0.0706774
0.0738345
0.0767759
0.0794844
0.0819436
0.0841391
0.0860578
0.0876885
0.0890221
0.0900514
0.090772
0.091182
0.0912822
0.0910766
0.0905727
0.0897815
0.088718
0.0874015
0.0858561
0.0841112
0.082202
0.0801703
0.078065
0.0759438
0.0738735
0.0719317
0.0702067
0.0687955
0.0678024
0.067334
0.0673708
-1.07266e-05
1.48816e-06
-0.000452753
-0.00133618
-0.00254966
-0.00401403
-0.00565347
-0.00739577
-0.00917572
-0.0109361
-0.0126274
-0.014207
-0.0156388
-0.0168927
-0.0179435
-0.0187709
-0.0193587
-0.0196944
-0.0197689
-0.0195761
-0.0191128
-0.0183782
-0.0173736
-0.0161027
-0.0145709
-0.0127853
-0.0107545
-0.00848879
-0.00599961
-0.00329966
-0.000402733
0.00267632
0.00592173
0.00931689
0.0128444
0.0164863
0.0202237
0.0240375
0.0279079
0.0318147
0.0357376
0.0396558
0.0435486
0.0473951
0.0511745
0.0548664
0.0584503
0.0619063
0.0652151
0.068358
0.0713169
0.0740751
0.0766166
0.0789266
0.0809921
0.0828013
0.0843443
0.0856133
0.0866023
0.0873078
0.0877289
0.0878672
0.0877274
0.0873174
0.0866484
0.0857354
0.0845973
0.0832575
0.0817441
0.0800903
0.0783349
0.0765229
0.0747057
0.0729418
0.0712964
0.0698408
0.0686482
0.0677933
0.0673695
0.0674074
0.00049624
0.000457326
3.08291e-06
-0.000812827
-0.0019032
-0.00320467
-0.00465614
-0.00619761
-0.00777352
-0.00933392
-0.0108345
-0.0122366
-0.0135069
-0.0146172
-0.0155435
-0.0162664
-0.01677
-0.0170419
-0.0170729
-0.0168567
-0.0163896
-0.0156702
-0.0146995
-0.0134801
-0.0120167
-0.0103157
-0.00838486
-0.00623351
-0.00387221
-0.00131268
0.00143223
0.00434863
0.00742176
0.010636
0.0139751
0.017422
0.020959
0.0245679
0.0282301
0.0319267
0.0356383
0.0393453
0.0430281
0.0466671
0.0502426
0.0537354
0.0571262
0.0603963
0.0635277
0.0665027
0.0693046
0.0719176
0.074327
0.0765192
0.078482
0.0802049
0.0816789
0.0828969
0.083854
0.0845472
0.0849763
0.0851433
0.0850532
0.0847141
0.084137
0.0833365
0.082331
0.0811427
0.0797981
0.0783282
0.0767688
0.0751606
0.0735495
0.0719865
0.0705274
0.0692315
0.068158
0.0673671
0.0669443
0.0669407
0.00152949
0.00134367
0.000819722
5.24053e-07
-0.00104724
-0.00226996
-0.00361591
-0.00503443
-0.00647801
-0.00790307
-0.00927048
-0.0105455
-0.0116979
-0.0127016
-0.0135344
-0.0141779
-0.0146171
-0.0148401
-0.0148378
-0.0146041
-0.0141351
-0.0134291
-0.0124866
-0.0113101
-0.00990343
-0.00827247
-0.00642439
-0.00436779
-0.00211249
0.000330544
0.00294924
0.00573055
0.00866055
0.0117245
0.014907
0.0181919
0.0215623
0.0250012
0.0284907
0.0320129
0.0355493
0.0390813
0.0425904
0.0460578
0.049465
0.0527935
0.0560252
0.0591424
0.0621279
0.0649652
0.0676384
0.0701326
0.072434
0.0745299
0.0764091
0.0780616
0.0794792
0.0806554
0.0815859
0.0822682
0.0827023
0.0828905
0.0828379
0.0825523
0.0820444
0.0813282
0.080421
0.0793438
0.0781213
0.076782
0.0753585
0.0738874
0.0724096
0.0709696
0.0696156
0.0683978
0.0673667
0.0665739
0.0660874
0.0659509
0.00297809
0.0025659
0.00191414
0.00104214
-1.302e-05
-0.00120641
-0.0024942
-0.00383414
-0.00518602
-0.00651239
-0.0077791
-0.00895545
-0.0100144
-0.0109322
-0.0116888
-0.0122671
-0.0126531
-0.0128357
-0.0128063
-0.0125589
-0.0120896
-0.0113969
-0.0104809
-0.00934369
-0.00798891
-0.00642182
-0.00464909
-0.00267868
-0.000519779
0.00181728
0.00432116
0.00697954
0.00977933
0.0127066
0.0157466
0.0188841
0.0221031
0.0253874
0.02872
0.0320838
0.0354612
0.0388346
0.0421862
0.0454983
0.0487532
0.0519333
0.0550214
0.0580007
0.0608549
0.0635682
0.0661257
0.0685133
0.0707178
0.0727275
0.0745315
0.0761207
0.0774875
0.0786259
0.0795319
0.0802032
0.0806401
0.080845
0.0808227
0.0805806
0.0801292
0.0794814
0.0786534
0.0776648
0.0765381
0.0752992
0.0739777
0.072606
0.0712201
0.0698587
0.0685627
0.0673745
0.0663374
0.065495
0.0648885
0.0645399
0.00473976
0.00405092
0.00322828
0.00226322
0.00115936
-4.61428e-05
-0.00131616
-0.00261596
-0.00391204
-0.00517258
-0.00636818
-0.00747211
-0.00846046
-0.00931224
-0.0100092
-0.0105361
-0.0108799
-0.0110306
-0.0109801
-0.010723
-0.0102555
-0.0095761
-0.00868489
-0.00758375
-0.00627607
-0.00476674
-0.00306198
-0.00116925
0.000902816
0.00314446
0.00554499
0.00809278
0.0107754
0.0135796
0.0164914
0.0194964
0.0225794
0.0257247
0.0289164
0.032138
0.0353729
0.0386042
0.0418149
0.0449881
0.0481069
0.0511545
0.0541147
0.0569712
0.0597085
0.0623118
0.0647665
0.0670595
0.0691782
0.0711114
0.0728489
0.074382
0.0757035
0.0768078
0.0776911
0.0783514
0.0787889
0.0790059
0.0790068
0.0787989
0.0783915
0.077797
0.0770301
0.0761087
0.0750532
0.0738872
0.0726366
0.0713305
0.0699999
0.0686781
0.0673998
0.0662003
0.0651165
0.064185
0.0634157
0.0628043
0.00672371
0.00573015
0.00470695
0.00361728
0.00243088
0.00117831
-0.000108719
-0.00140217
-0.00267452
-0.00389906
-0.00505079
-0.00610678
-0.00704624
-0.00785075
-0.0085042
-0.0089929
-0.00930545
-0.00943258
-0.00936722
-0.00910425
-0.00864048
-0.00797444
-0.00710635
-0.006038
-0.00477261
-0.0033148
-0.00167048
0.000153318
0.00214838
0.00430549
0.00661449
0.00906436
0.0116432
0.0143386
0.0171371
0.0200249
0.0229876
0.0260103
0.0290776
0.0321739
0.0352832
0.0383893
0.0414761
0.0445273
0.0475267
0.0504584
0.0533065
0.0560558
0.0586913
0.0611985
0.0635639
0.0657747
0.0678189
0.0696856
0.0713653
0.0728495
0.0741313
0.0752054
0.0760681
0.0767174
0.0771534
0.0773781
0.0773956
0.0772125
0.0768375
0.0762816
0.0755584
0.074684
0.0736768
0.0725577
0.0713498
0.0700782
0.0687701
0.0674537
0.066158
0.0649121
0.0637479
0.0626961
0.061734
0.0608305
0.00885085
0.00753924
0.00629652
0.00505915
0.00376416
0.00243684
0.00110457
-0.000210472
-0.00148603
-0.00269998
-0.00383142
-0.00486083
-0.00577048
-0.00654445
-0.00716877
-0.00763146
-0.00792249
-0.00803378
-0.00795911
-0.007694
-0.00723573
-0.00658314
-0.00573659
-0.00469793
-0.00347031
-0.00205818
-0.00046718
0.00129593
0.00322332
0.0053062
0.00753489
0.00989889
0.0123869
0.0149868
0.017686
0.0204713
0.0233288
0.0262443
0.029203
0.03219
0.0351898
0.0381871
0.0411662
0.0441115
0.0470075
0.0498388
0.0525902
0.0552469
0.0577946
0.0602194
0.0625081
0.0646484
0.0666287
0.0684386
0.0700687
0.071511
0.0727586
0.0738063
0.0746504
0.0752889
0.0757216
0.0759502
0.0759783
0.0758118
0.0754584
0.0749282
0.0742333
0.073388
0.0724089
0.0713142
0.0701242
0.0688609
0.0675474
0.0662078
0.064866
0.0635457
0.0622749
0.0610792
0.0599047
0.0586947
0.0110544
0.00942088
0.0079476
0.00654637
0.00512337
0.00369985
0.00229978
0.000940395
-0.000360665
-0.00158544
-0.00271659
-0.00373786
-0.0046343
-0.00539239
-0.0060003
-0.00644769
-0.00672598
-0.0068283
-0.00674933
-0.00648534
-0.00603413
-0.00539493
-0.00456837
-0.00355642
-0.00236225
-0.000990194
0.000554243
0.0022645
0.00413309
0.00615158
0.00831065
0.0106002
0.0130095
0.0155269
0.0181403
0.020837
0.0236037
0.0264268
0.0292919
0.0321848
0.0350906
0.0379945
0.0408813
0.0437361
0.0465438
0.0492896
0.0519588
0.0545371
0.0570105
0.0593657
0.0615898
0.0636709
0.0655976
0.0673599
0.0689485
0.0703555
0.0715742
0.0725993
0.0734271
0.0740552
0.0744833
0.0747126
0.0747461
0.0745889
0.0742479
0.073732
0.0730518
0.0722201
0.0712514
0.0701617
0.0689687
0.0676913
0.0663493
0.0649629
0.0635518
0.0621351
0.0607375
0.0593812
0.0579826
0.0564612
0.0132787
0.0113251
0.00961582
0.00803991
0.00647476
0.00493859
0.00345292
0.00203082
0.000685859
-0.000567594
-0.00171539
-0.00274424
-0.00364178
-0.0043968
-0.00499935
-0.00544084
-0.00571413
-0.00581349
-0.0057346
-0.00547449
-0.00503156
-0.00440552
-0.00359731
-0.00260907
-0.00144408
-0.000106687
0.00139771
0.00306272
0.00488108
0.00684462
0.00894437
0.0111706
0.0135129
0.0159602
0.0185007
0.0211223
0.0238121
0.0265568
0.029343
0.0321565
0.0349831
0.0378085
0.040618
0.0433971
0.0461311
0.0488058
0.0514068
0.0539202
0.0563325
0.0586304
0.0608017
0.0628344
0.0647175
0.0664411
0.0679961
0.0693745
0.0705696
0.071576
0.0723899
0.0730085
0.0734312
0.0736587
0.0736933
0.0735393
0.0732027
0.0726911
0.0720139
0.0711823
0.0702088
0.0691076
0.0678937
0.0665834
0.0651936
0.0637412
0.0622422
0.0607118
0.0591726
0.0576441
0.0560152
0.0541831
0.015477
0.0132086
0.0112616
0.00950418
0.00778683
0.00612572
0.00454062
0.00304107
0.00163723
0.000340408
-0.000838214
-0.00188794
-0.00279876
-0.00356161
-0.00416835
-0.00461206
-0.00488698
-0.00498853
-0.00491338
-0.00465939
-0.00422558
-0.00361218
-0.0028205
-0.00185292
-0.000712879
0.000595224
0.002066
0.00369317
0.00546961
0.00738739
0.0094378
0.0116114
0.0138982
0.0162872
0.0187674
0.0213268
0.0239531
0.0266334
0.0293545
0.0321029
0.0348647
0.037626
0.0403726
0.0430902
0.0457649
0.0483823
0.0509287
0.0533904
0.0557542
0.0580071
0.0601368
0.0621318
0.0639812
0.0656749
0.0672041
0.0685605
0.0697375
0.0707295
0.0715322
0.0721427
0.0725598
0.0727836
0.0728159
0.07266
0.072321
0.0718053
0.0711212
0.0702782
0.0692872
0.0681602
0.0669105
0.0655517
0.0640981
0.062564
0.0609623
0.0593049
0.0576133
0.0559049
0.054043
0.0519047
0.0176098
0.0150335
0.0128497
0.0109069
0.00903046
0.00723538
0.00554026
0.00395167
0.00247694
0.00112472
-9.6412e-05
-0.00117806
-0.00211239
-0.00289224
-0.00351124
-0.003964
-0.0042461
-0.00435409
-0.00428564
-0.00403942
-0.00361512
-0.00301351
-0.0022363
-0.00128618
-0.000166786
0.00111736
0.00256085
0.00415744
0.00590012
0.00778112
0.00979193
0.0119233
0.0141655
0.0165081
0.0189401
0.02145
0.0240257
0.0266549
0.0293246
0.0320216
0.0347326
0.0374438
0.0401415
0.0428117
0.0454406
0.0480144
0.0505195
0.0529424
0.05527
0.0574896
0.0595891
0.0615569
0.0633821
0.0650549
0.066566
0.0679073
0.0690719
0.0700538
0.0708485
0.0714527
0.0718646
0.0720838
0.0721112
0.0719495
0.0716026
0.071076
0.0703766
0.0695125
0.0684932
0.0673288
0.0660307
0.0646105
0.0630802
0.0614518
0.0597356
0.0579412
0.0560891
0.0541959
0.0521009
0.0496623
0.0196439
0.0167673
0.0143489
0.0122187
0.0101788
0.00824328
0.00643014
0.00474357
0.00318845
0.0017711
0.000497974
-0.000624653
-0.00159091
-0.00239535
-0.00303327
-0.0035007
-0.00379447
-0.00391228
-0.00385274
-0.00361534
-0.00320046
-0.00260939
-0.00184433
-0.000908269
0.000194901
0.00146047
0.002883
0.00445622
0.00617318
0.0080262
0.0100069
0.0121063
0.0143148
0.0166223
0.0190179
0.0214906
0.0240284
0.0266194
0.029251
0.0319102
0.0345839
0.0372587
0.0399211
0.0425575
0.0451542
0.0476976
0.0501743
0.0525709
0.0548746
0.0570726
0.0591529
0.061104
0.0629148
0.0645754
0.0660765
0.0674096
0.0685676
0.0695443
0.0703347
0.070935
0.0713428
0.0715571
0.0715781
0.0714076
0.0710486
0.0705056
0.0697841
0.0688912
0.0678345
0.0666231
0.0652663
0.063774
0.0621565
0.0604237
0.058584
0.0566449
0.0546267
0.0525458
0.0502188
0.0474864
0.0215505
0.0183812
0.0157312
0.0134133
0.0112072
0.00912666
0.00718959
0.00539818
0.00375523
0.0022651
0.000932379
-0.000238542
-0.00124348
-0.00207866
-0.00274085
-0.00322739
-0.00353634
-0.00366648
-0.00361732
-0.00338917
-0.00298309
-0.00240094
-0.00164537
-0.000719748
0.000371768
0.00162428
0.0030322
0.00458925
0.00628845
0.00812218
0.0100822
0.0121596
0.014345
0.0166285
0.0189994
0.0214468
0.0239593
0.0265248
0.0291311
0.0317657
0.0344154
0.0370672
0.0397078
0.0423236
0.0449014
0.0474274
0.0498885
0.0522714
0.0545632
0.0567512
0.0588234
0.0607681
0.0625743
0.0642317
0.0657308
0.0670631
0.0682208
0.0691975
0.0699877
0.070587
0.0709926
0.0712026
0.0712166
0.0710354
0.0706613
0.0700976
0.0693488
0.0684206
0.0673196
0.0660531
0.0646293
0.0630564
0.0613432
0.0594981
0.0575277
0.0554381
0.0532499
0.0509796
0.0484225
0.0454024
0.0233049
0.0198498
0.0169717
0.0144665
0.0120926
0.00986408
0.00779881
0.00589741
0.00416093
0.00259209
0.00119382
-3.11333e-05
-0.0010801
-0.00195083
-0.00264141
-0.00315043
-0.0034771
-0.00362123
-0.0035832
-0.0033641
-0.00296569
-0.00239038
-0.00164129
-0.000722203
0.000362433
0.00160751
0.00300728
0.00455537
0.00624477
0.00806786
0.0100165
0.0120818
0.0142546
0.016525
0.0188826
0.0213166
0.0238158
0.0263684
0.0289623
0.0315851
0.0342239
0.0368659
0.0394978
0.0421063
0.0446781
0.0471997
0.0496579
0.0520394
0.0543313
0.0565209
0.0585961
0.0605449
0.0623563
0.0640197
0.0655252
0.0668641
0.0680282
0.0690106
0.0698053
0.0704073
0.0708132
0.0710203
0.0710276
0.0708351
0.0704439
0.0698565
0.0690764
0.0681081
0.0669571
0.0656294
0.0641318
0.0624716
0.060656
0.0586922
0.0565856
0.0543412
0.0519802
0.0495194
0.0467342
0.0434321
0.0248849
0.0211505
0.0180476
0.015356
0.0128137
0.0104352
0.00823874
0.00622359
0.00438934
0.00273731
0.00126895
-1.43709e-05
-0.00111145
-0.00202131
-0.00274328
-0.00327715
-0.0036232
-0.00378215
-0.00375527
-0.00354441
-0.00315199
-0.00258099
-0.00183501
-0.000918242
0.000164544
0.00140799
0.00280617
0.00435261
0.00604019
0.00786128
0.00980773
0.0118708
0.0140413
0.0163095
0.0186651
0.0210974
0.0235954
0.0261473
0.0287413
0.0313651
0.034006
0.0366511
0.0392874
0.0419016
0.0444804
0.0470103
0.0494782
0.0518706
0.0541747
0.0563775
0.0584668
0.0604304
0.0622571
0.0639358
0.0654566
0.06681
0.0679877
0.0689819
0.0697863
0.0703954
0.0708048
0.0710114
0.0710133
0.0708095
0.0704005
0.0697876
0.0689735
0.0679616
0.0667562
0.0653625
0.0637861
0.0620332
0.0601098
0.0580224
0.0557754
0.0533729
0.0508368
0.0481851
0.0451735
0.041594
0.0262707
0.0222625
0.0189379
0.0160611
0.0133504
0.0108207
0.00849104
0.00635949
0.00442443
0.00268593
0.00114419
-0.000200688
-0.00134878
-0.00230025
-0.00305562
-0.00361579
-0.00398195
-0.00415579
-0.00413941
-0.00393536
-0.00354671
-0.00297702
-0.00223039
-0.00131142
-0.000225202
0.00102265
0.00242598
0.00397816
0.00567197
0.00749975
0.0094533
0.0115239
0.0137024
0.0159791
0.0183439
0.0207861
0.0232947
0.0258582
0.0284648
0.0311022
0.0337579
0.0364191
0.0390727
0.0417055
0.0443041
0.0468552
0.0493453
0.0517611
0.0540894
0.0563172
0.0584319
0.0604213
0.0622735
0.0639774
0.0655224
0.0668987
0.0680974
0.0691104
0.0699305
0.0705516
0.0709686
0.0711778
0.0711763
0.0709625
0.0705359
0.0698969
0.0690472
0.0679893
0.0667267
0.0652635
0.0636044
0.0617546
0.0597195
0.0575046
0.0551137
0.0525504
0.0498376
0.0469945
0.0437578
0.0399045
0.0274442
0.0231668
0.0196233
0.0165624
0.0136834
0.0110021
0.00853796
0.00628827
0.00425031
0.00242309
0.000805717
-0.000602862
-0.00180381
-0.00279842
-0.0035883
-0.00417529
-0.00456154
-0.0047496
-0.00474236
-0.00454307
-0.00415546
-0.00358364
-0.00283219
-0.00190613
-0.000810905
0.000447602
0.001863
0.00342846
0.00513668
0.00697988
0.00894982
0.0110378
0.0132346
0.0155305
0.0179156
0.0203791
0.0229102
0.0254974
0.0281289
0.0307925
0.0334758
0.0361658
0.0388496
0.041514
0.0441454
0.0467304
0.0492554
0.051707
0.0540717
0.0563364
0.0584882
0.0605143
0.0624028
0.0641419
0.0657207
0.0671288
0.0683567
0.0693957
0.0702381
0.0708769
0.0713065
0.0715222
0.0715204
0.0712987
0.0708556
0.0701909
0.0693052
0.0682002
0.0668785
0.0653435
0.0635989
0.0616492
0.0594993
0.0571539
0.0546165
0.0518901
0.0489992
0.0459641
0.042503
0.0383781
0.0283885
0.0238455
0.0200852
0.0168414
0.0137947
0.0109615
0.00836221
0.00599333
0.00385118
0.00193385
0.000239495
-0.001234
-0.00248877
-0.00352718
-0.00435178
-0.00496533
-0.00537088
-0.00557179
-0.0055717
-0.00537457
-0.00498472
-0.00440686
-0.00364601
-0.00270762
-0.00159749
-0.000321808
0.00111279
0.00269925
0.00443016
0.00629762
0.0082933
0.0104084
0.0126338
0.0149598
0.0173762
0.0198726
0.022438
0.0250609
0.0277296
0.030432
0.0331555
0.0358873
0.0386142
0.041323
0.0440001
0.0466319
0.0492046
0.0517046
0.0541182
0.056432
0.0586326
0.060707
0.0626427
0.0644276
0.0660501
0.0674994
0.0687652
0.0698383
0.0707101
0.0713732
0.071821
0.072048
0.0720499
0.0718234
0.0713661
0.070677
0.0697559
0.0686038
0.0672223
0.065614
0.0637821
0.0617305
0.0594633
0.0569852
0.054299
0.0514077
0.0483372
0.0451092
0.0414238
0.0370283
0.0290874
0.0242815
0.0203062
0.0168805
0.0136665
0.0106815
0.00794685
0.00545827
0.00321128
0.0012032
-0.000568746
-0.00210755
-0.00341634
-0.0044984
-0.00535715
-0.00599625
-0.0064196
-0.00663131
-0.00663578
-0.00643761
-0.00604175
-0.00545344
-0.0046782
-0.00372187
-0.00259062
-0.00129097
0.000170187
0.0017856
0.00354766
0.00544834
0.00747922
0.00963146
0.0118958
0.0142625
0.0167215
0.0192622
0.0218736
0.0245444
0.0272627
0.0300163
0.0327928
0.0355791
0.0383621
0.0411284
0.0438642
0.0465558
0.0491892
0.0517505
0.0542256
0.0566008
0.0588624
0.0609969
0.0629913
0.0648329
0.0665096
0.06801
0.0693231
0.070439
0.0713484
0.0720429
0.0725154
0.0727594
0.0727698
0.0725425
0.0720742
0.0713631
0.0704083
0.0692098
0.0677687
0.0660868
0.0641668
0.0620118
0.0596258
0.0570131
0.0541762
0.0511183
0.0478667
0.0444446
0.040534
0.0358675
0.0295255
0.0244583
0.0202693
0.0166624
0.0132817
0.0101451
0.00727505
0.0046667
0.00231479
0.000215909
-0.00163355
-0.0032374
-0.00459967
-0.00572448
-0.0066161
-0.00727904
-0.00771801
-0.00793786
-0.00794367
-0.00774072
-0.00733455
-0.00673093
-0.00593583
-0.00495556
-0.00379664
-0.00246593
-0.000970586
0.000681922
0.00248379
0.00442683
0.00650249
0.00870185
0.0110155
0.0134338
0.0159465
0.0185431
0.0212124
0.0239432
0.0267234
0.0295409
0.0323831
0.0352369
0.0380891
0.040926
0.0437337
0.0464983
0.0492055
0.051841
0.0543906
0.05684
0.0591751
0.0613819
0.0634468
0.0653567
0.0670988
0.0686608
0.0700312
0.0711993
0.0721549
0.072889
0.0733935
0.0736611
0.0736858
0.0734626
0.0729876
0.0722579
0.0712719
0.0700289
0.0685292
0.0667741
0.0647657
0.0625067
0.0600008
0.0572521
0.054263
0.0510368
0.0476022
0.0439845
0.0398471
0.034908
0.0296873
0.0243599
0.0199578
0.0161703
0.0126231
0.00933525
0.00633009
0.00360222
0.00114575
-0.00104349
-0.00296981
-0.00463781
-0.00605235
-0.00721833
-0.00814088
-0.00882532
-0.00927708
-0.00950177
-0.00950514
-0.00929312
-0.00887181
-0.00824751
-0.00742669
-0.00641606
-0.00522256
-0.00385337
-0.00231592
-0.00061792
0.0012326
0.00322731
0.00535749
0.00761411
0.00998773
0.0124685
0.0150462
0.0177102
0.0204494
0.0232523
0.0261069
0.029001
0.0319217
0.0348561
0.0377905
0.0407113
0.0436043
0.0464552
0.0492496
0.0519728
0.0546101
0.0571468
0.0595683
0.0618601
0.064008
0.0659982
0.0678172
0.0694522
0.0708907
0.0721211
0.0731326
0.0739152
0.0744598
0.0747585
0.0748042
0.0745911
0.0741143
0.0733704
0.0723567
0.0710719
0.0695156
0.0676885
0.0655922
0.0632291
0.0606027
0.0577169
0.0545742
0.0511779
0.0475585
0.0437429
0.0393763
0.0341617
0.0295578
0.0239702
0.0193551
0.0153872
0.0116738
0.008235
0.00509513
0.0022483
-0.000312061
-0.00259074
-0.00459272
-0.00632343
-0.00778841
-0.0089934
-0.00994433
-0.0106473
-0.0111084
-0.011334
-0.0113306
-0.0111047
-0.0106629
-0.010012
-0.00915918
-0.0081114
-0.00687604
-0.00546061
-0.00387283
-0.00212068
-0.000212405
0.00184347
0.00403809
0.00636229
0.00880651
0.0113608
0.0140149
0.0167581
0.0195791
0.0224663
0.0254079
0.0283912
0.0314035
0.0344316
0.0374616
0.0404798
0.0434716
0.0464226
0.0493178
0.0521423
0.0548809
0.0575184
0.0600397
0.0624297
0.0646736
0.0667568
0.0686651
0.0703849
0.0719029
0.0732067
0.0742845
0.0751253
0.0757193
0.0760574
0.0761319
0.0759357
0.0754634
0.0747103
0.0736733
0.0723502
0.07074
0.0688429
0.0666599
0.0641933
0.0614462
0.0584226
0.055125
0.0515567
0.0477503
0.0437342
0.0391352
0.0336409
0.0291217
0.0232732
0.0184447
0.0142962
0.0104167
0.00682726
0.00355318
0.000588134
-0.00207511
-0.0044419
-0.00651792
-0.00830932
-0.00982237
-0.0110636
-0.0120398
-0.0127577
-0.0132242
-0.0134463
-0.0134311
-0.0131858
-0.0127177
-0.012034
-0.0111423
-0.0100502
-0.00876529
-0.00729551
-0.00564888
-0.00383365
-0.00185828
0.000268508
0.00253769
0.00493995
0.00746562
0.0101047
0.0128466
0.0156807
0.0185956
0.0215797
0.0246208
0.0277063
0.0308233
0.0339584
0.0370976
0.0402267
0.0433312
0.0463961
0.0494061
0.0523459
0.0551998
0.0579521
0.0605871
0.0630891
0.0654425
0.0676321
0.0696428
0.0714601
0.0730699
0.0744589
0.0756142
0.0765241
0.0771775
0.0775645
0.0776763
0.077505
0.0770441
0.0762881
0.0752331
0.0738762
0.0722157
0.0702511
0.0679833
0.0654142
0.0625466
0.0593847
0.0559308
0.0521887
0.0481926
0.0439729
0.0391374
0.0333581
0.0283632
0.0222524
0.0172097
0.0128802
0.00883449
0.00509463
0.00168695
-0.00139539
-0.0041602
-0.00661342
-0.00876143
-0.010611
-0.0121693
-0.0134436
-0.0144412
-0.0151698
-0.015637
-0.0158506
-0.0158182
-0.0155476
-0.0150467
-0.0143234
-0.0133857
-0.0122415
-0.010899
-0.00936643
-0.00765209
-0.00576454
-0.00371246
-0.00150479
0.000849296
0.00334031
0.00595844
0.00869353
0.011535
0.014472
0.0174931
0.0205864
0.0237399
0.0269406
0.0301756
0.0334312
0.0366932
0.0399473
0.0431785
0.0463714
0.0495106
0.0525801
0.0555638
0.0584454
0.0612085
0.0638367
0.0663139
0.0686239
0.0707508
0.0726792
0.074394
0.0758808
0.077126
0.0781165
0.0788405
0.0792868
0.0794455
0.0793079
0.0788665
0.0781148
0.0770481
0.0756626
0.0739561
0.0719277
0.0695775
0.0669073
0.0639199
0.0606193
0.057008
0.0530899
0.0489013
0.0444744
0.0393975
0.0333267
0.0272665
0.0208911
0.0156329
0.0111216
0.00690944
0.00301932
-0.000521323
-0.00371984
-0.00658464
-0.00912228
-0.0113398
-0.0132447
-0.0148448
-0.0161482
-0.0171631
-0.0178977
-0.0183604
-0.0185597
-0.018504
-0.0182017
-0.0176611
-0.0168909
-0.0158994
-0.0146951
-0.0132865
-0.0116822
-0.00989098
-0.00792151
-0.00578281
-0.00348399
-0.00103443
0.00155622
0.00427801
0.00712065
0.0100735
0.0131254
0.016265
0.0194804
0.0227591
0.0260883
0.0294547
0.0328445
0.0362433
0.0396365
0.0430087
0.0463443
0.0496273
0.0528413
0.0559697
0.0589955
0.0619017
0.0646713
0.0672871
0.0697323
0.0719899
0.0740437
0.0758775
0.0774759
0.0788241
0.0799081
0.0807147
0.0812317
0.0814482
0.0813543
0.0809414
0.0802022
0.0791309
0.0777232
0.0759759
0.0738877
0.0714583
0.0686891
0.0655827
0.0621433
0.0583734
0.0542771
0.0498928
0.0452546
0.0399306
0.0335607
0.0258147
0.019172
0.0136964
0.00900241
0.00462332
0.00058308
-0.00308983
-0.00640326
-0.00936625
-0.011986
-0.0142701
-0.0162269
-0.017865
-0.0191932
-0.0202204
-0.0209556
-0.0214081
-0.021587
-0.0215013
-0.0211601
-0.0205725
-0.0197474
-0.0186939
-0.0174209
-0.0159373
-0.0142521
-0.0123743
-0.010313
-0.00807747
-0.00567698
-0.00312112
-0.00041971
0.00241714
0.00537902
0.00845514
0.0116343
0.014905
0.0182552
0.0216723
0.0251433
0.0286548
0.0321927
0.0357425
0.0392891
0.042817
0.0463101
0.049752
0.0531258
0.0564142
0.0595997
0.0626647
0.0655912
0.0683613
0.0709572
0.0733611
0.0755555
0.0775233
0.079248
0.0807135
0.0819046
0.082807
0.0834074
0.0836935
0.0836543
0.0832801
0.0825627
0.0814951
0.0800723
0.0782904
0.0761473
0.0736424
0.0707767
0.0675528
0.0639747
0.060045
0.0557683
0.0511848
0.0463306
0.0407531
0.0340753
0.0239908
0.0170771
0.0113818
0.00650386
0.00195728
-0.00223299
-0.00603742
-0.00946437
-0.0125235
-0.0152227
-0.0175702
-0.0195751
-0.0212468
-0.0225947
-0.0236288
-0.0243588
-0.0247947
-0.0249462
-0.0248232
-0.0244355
-0.0237928
-0.0229045
-0.0217802
-0.0204294
-0.0188614
-0.0170855
-0.0151112
-0.0129479
-0.0106049
-0.0080919
-0.00541865
-0.00259513
0.000368396
0.0034614
0.00667298
0.00999186
0.0134063
0.0169043
0.020473
0.0240994
0.0277698
0.0314699
0.0351851
0.0388999
0.0425984
0.0462643
0.0498805
0.0534298
0.0568941
0.0602555
0.0634954
0.0665951
0.0695359
0.0722989
0.0748653
0.0772165
0.0793343
0.081201
0.0827992
0.0841124
0.0851251
0.0858225
0.0861912
0.086219
0.0858949
0.0852095
0.0841551
0.0827253
0.0809158
0.0787236
0.0761477
0.0731886
0.0698488
0.0661323
0.062042
0.0575823
0.0527959
0.0477205
0.0418824
0.0348869
0.0217764
0.0145878
0.00867014
0.0036066
-0.00110824
-0.00544854
-0.00938371
-0.0129226
-0.0160757
-0.0188512
-0.0212585
-0.0233072
-0.0250074
-0.0263697
-0.0274046
-0.0281228
-0.0285349
-0.0286516
-0.0284835
-0.028041
-0.0273344
-0.0263739
-0.0251695
-0.0237313
-0.022069
-0.0201923
-0.0181111
-0.015835
-0.0133737
-0.010737
-0.00793504
-0.00497782
-0.00187577
0.00136046
0.00471985
0.00819102
0.0117622
0.015421
0.0191549
0.0229503
0.0267937
0.0306704
0.0345655
0.0384635
0.0423479
0.0462021
0.0500085
0.0537494
0.0574061
0.0609599
0.0643916
0.0676816
0.0708102
0.0737576
0.0765037
0.079029
0.0813139
0.0833393
0.0850867
0.0865381
0.0876766
0.0884862
0.0889519
0.0890601
0.0887986
0.0881569
0.087126
0.0856986
0.0838694
0.0816347
0.0789929
0.0759442
0.0724908
0.0686366
0.0643846
0.0597395
0.054746
0.0494441
0.0433374
0.0360134
0.0191527
0.0116845
0.00554133
0.000290393
-0.00459365
-0.00908405
-0.0131491
-0.0167983
-0.0200426
-0.0228913
-0.0253541
-0.0274417
-0.0291651
-0.0305356
-0.0315646
-0.0322637
-0.0326444
-0.0327181
-0.0324962
-0.0319899
-0.0312102
-0.0301678
-0.0288735
-0.0273376
-0.0255706
-0.0235825
-0.0213834
-0.0189835
-0.0163926
-0.0136208
-0.0106784
-0.00757561
-0.00432293
-0.000931172
0.00258857
0.00622481
0.00996566
0.0137988
0.0177113
0.0216897
0.0257202
0.0297881
0.0338781
0.0379744
0.0420603
0.0461187
0.0501317
0.0540807
0.0579468
0.0617103
0.0653514
0.0688494
0.0721838
0.0753336
0.0782777
0.0809952
0.0834653
0.0856675
0.0875818
0.0891889
0.0904702
0.0914082
0.0919865
0.09219
0.0920052
0.09142
0.0904243
0.0890097
0.0871698
0.0849001
0.0821985
0.0790645
0.0755001
0.0715093
0.0670949
0.0622618
0.0570569
0.0515223
0.0451385
0.037474
0.0160997
0.00834665
0.00197442
-0.00346604
-0.00852042
-0.013161
-0.0173549
-0.0211124
-0.0244452
-0.0273633
-0.0298771
-0.0319983
-0.0337387
-0.0351106
-0.0361263
-0.0367983
-0.0371391
-0.0371609
-0.0368759
-0.0362961
-0.0354332
-0.0342987
-0.0329038
-0.0312595
-0.0293768
-0.027266
-0.0249378
-0.0224025
-0.0196704
-0.0167517
-0.0136569
-0.0103963
-0.00698066
-0.00342084
0.000271976
0.00408624
0.00801
0.0120308
0.0161357
0.0203113
0.0245433
0.028817
0.0331171
0.0374272
0.0417304
0.0460093
0.0502454
0.0544197
0.0585126
0.0625038
0.0663724
0.070097
0.073656
0.0770273
0.0801886
0.0831176
0.0857923
0.0881905
0.0902908
0.0920722
0.0935146
0.0945988
0.0953069
0.095622
0.095529
0.0950146
0.0940671
0.0926769
0.0908365
0.0885406
0.085786
0.0825718
0.0788999
0.0747738
0.0701963
0.0651726
0.0597519
0.0539783
0.047308
0.0392902
0.0125965
0.00455258
-0.00205268
-0.00768502
-0.012911
-0.0177018
-0.0220237
-0.0258873
-0.0293054
-0.0322886
-0.0348484
-0.0369971
-0.0387478
-0.0401136
-0.0411078
-0.041744
-0.0420356
-0.0419957
-0.0416375
-0.0409737
-0.0400168
-0.0387791
-0.0372724
-0.0355083
-0.0334982
-0.0312531
-0.0287838
-0.0261012
-0.0232157
-0.0201379
-0.0168783
-0.0134475
-0.00985637
-0.00611575
-0.00223693
0.00176848
0.00588847
0.0101106
0.0144218
0.0188086
0.0232567
0.0277513
0.0322766
0.0368162
0.041353
0.045869
0.0503453
0.0547625
0.0591002
0.0633374
0.0674524
0.0714229
0.0752262
0.078839
0.0822377
0.0853988
0.0882984
0.0909132
0.0932199
0.0951959
0.0968192
0.098069
0.0989254
0.0993699
0.0993858
0.0989578
0.098073
0.0967203
0.0948908
0.0925782
0.0897786
0.0864903
0.0827146
0.0784551
0.0737143
0.0684975
0.0628562
0.0568368
0.0498701
0.041485
0.00862093
0.000279514
-0.00656321
-0.0123901
-0.0177889
-0.0227301
-0.0271788
-0.0311463
-0.0346461
-0.0376898
-0.0402897
-0.0424594
-0.0442128
-0.0455642
-0.046528
-0.0471188
-0.047351
-0.0472388
-0.0467963
-0.0460371
-0.0449746
-0.0436218
-0.0419912
-0.0400951
-0.0379454
-0.0355535
-0.0329308
-0.0300884
-0.027037
-0.0237875
-0.0203505
-0.0167368
-0.0129572
-0.00902283
-0.00494492
-0.000735098
0.00359463
0.00803178
0.0125633
0.0171757
0.0218546
0.026585
0.031351
0.0361362
0.0409229
0.0456928
0.0504268
0.0551048
0.0597059
0.0642082
0.0685892
0.0728258
0.0768939
0.0807691
0.0844266
0.0878413
0.0909878
0.093841
0.096376
0.0985682
0.100394
0.10183
0.102855
0.103449
0.103592
0.103268
0.102462
0.101161
0.0993552
0.097037
0.0942013
0.0908458
0.0869711
0.0825805
0.0776763
0.072264
0.0663974
0.060125
0.0528512
0.0440838
0.00414958
-0.00449662
-0.0115817
-0.017606
-0.0231794
-0.0282711
-0.0328451
-0.0369138
-0.0404913
-0.0435903
-0.0462241
-0.0484073
-0.0501551
-0.0514828
-0.0524063
-0.052941
-0.0531026
-0.0529065
-0.0523677
-0.0515008
-0.0503202
-0.0488396
-0.0470722
-0.0450312
-0.0427288
-0.0401771
-0.037388
-0.0343727
-0.0311424
-0.0277081
-0.0240807
-0.020271
-0.01629
-0.0121486
-0.00785834
-0.00343067
0.00112241
0.00578844
0.0105545
0.0154068
0.0203313
0.0253127
0.0303351
0.0353818
0.040435
0.0454762
0.0504857
0.0554429
0.0603263
0.0651133
0.0697807
0.0743041
0.0786584
0.0828181
0.0867568
0.0904479
0.0938644
0.0969794
0.099766
0.102198
0.104249
0.105894
0.10711
0.107874
0.108165
0.107964
0.107254
0.106021
0.104254
0.101943
0.0990811
0.0956663
0.0916981
0.0871794
0.0821123
0.0765021
0.0704052
0.0638723
0.0562802
0.0471144
-0.000842277
-0.00980131
-0.0171342
-0.0233592
-0.0291087
-0.034351
-0.039049
-0.0432157
-0.0468665
-0.0500149
-0.0526755
-0.054864
-0.0565968
-0.0578908
-0.0587628
-0.0592298
-0.0593086
-0.0590158
-0.0583675
-0.0573796
-0.0560671
-0.0544449
-0.0525271
-0.0503272
-0.0478584
-0.0451333
-0.0421639
-0.0389622
-0.0355395
-0.031907
-0.0280757
-0.0240566
-0.0198607
-0.0154991
-0.010983
-0.00632388
-0.00153374
0.00337511
0.00838975
0.0134966
0.0186814
0.023929
0.0292236
0.0345481
0.0398847
0.0452145
0.0505175
0.0557727
0.0609579
0.06605
0.0710245
0.0758564
0.0805193
0.0849864
0.0892299
0.0932214
0.0969324
0.100334
0.103397
0.106094
0.108395
0.110274
0.111705
0.112662
0.113123
0.113066
0.112473
0.111326
0.109613
0.107322
0.104447
0.100982
0.0969268
0.0922837
0.0870546
0.0812445
0.0749123
0.068111
0.0601886
0.0506073
-0.0063809
-0.0156616
-0.0232484
-0.0296776
-0.0356051