/*--------------------------------*- C++ -*----------------------------------*\
  =========                 |
  \\      /  F ield         | OpenFOAM: The Open Source CFD Toolbox
   \\    /   O peration     | Website:  https://openfoam.org
    \\  /    A nd           | Version:  7
     \\/     M anipulation  |
\*---------------------------------------------------------------------------*/
FoamFile
{
    version     2.0;
    format      ascii;
    class       surfaceScalarField;
    location    "0.2";
    object      phi;
}
// * * * * * * * * * * * * * * * * * * * * * * * * * * * * * * * * * * * * * //

dimensions      [0 3 -1 0 0 0 0];

internalField   nonuniform List<scalar> 
12640
(
1.90409e-10
-1.90456e-10
5.55612e-10
-3.65213e-10
8.81829e-10
-3.26212e-10
1.04377e-09
-1.61957e-10
9.794e-10
6.43783e-11
6.61662e-10
3.17762e-10
8.36761e-11
5.77986e-10
-7.49427e-10
8.3311e-10
-1.82545e-09
1.07603e-09
-3.12796e-09
1.3025e-09
-4.63795e-09
1.50999e-09
-6.33498e-09
1.69703e-09
-8.19782e-09
1.86285e-09
-1.02049e-08
2.00715e-09
-1.23348e-08
2.12991e-09
-1.45663e-08
2.23143e-09
-1.68784e-08
2.31209e-09
-1.92508e-08
2.37243e-09
-2.16639e-08
2.41307e-09
-2.40986e-08
2.43467e-09
-2.65365e-08
2.43796e-09
-2.89602e-08
2.4237e-09
-3.13529e-08
2.39268e-09
-3.36986e-08
2.34569e-09
-3.59821e-08
2.28356e-09
-3.81892e-08
2.20711e-09
-4.03064e-08
2.11717e-09
-4.2321e-08
2.01457e-09
-4.42212e-08
1.90017e-09
-4.5996e-08
1.77479e-09
-4.76353e-08
1.6393e-09
-4.91298e-08
1.49454e-09
-5.04712e-08
1.34138e-09
-5.16519e-08
1.18069e-09
-5.26652e-08
1.01333e-09
-5.35054e-08
8.40195e-10
-5.41676e-08
6.62191e-10
-5.46478e-08
4.80231e-10
-5.4943e-08
2.95245e-10
-5.50512e-08
1.08182e-10
-5.49712e-08
-7.99932e-11
-5.47029e-08
-2.68301e-10
-5.42472e-08
-4.55742e-10
-5.36059e-08
-6.41294e-10
-5.2782e-08
-8.23921e-10
-5.17794e-08
-1.00258e-09
-5.06032e-08
-1.1762e-09
-4.92595e-08
-1.34371e-09
-4.77555e-08
-1.50401e-09
-4.60995e-08
-1.65601e-09
-4.43008e-08
-1.79862e-09
-4.23701e-08
-1.93076e-09
-4.03187e-08
-2.05133e-09
-3.81594e-08
-2.15928e-09
-3.59059e-08
-2.25356e-09
-3.35727e-08
-2.33313e-09
-3.11757e-08
-2.39701e-09
-2.87314e-08
-2.44427e-09
-2.62574e-08
-2.47401e-09
-2.3772e-08
-2.48538e-09
-2.12944e-08
-2.4776e-09
-1.88444e-08
-2.45e-09
-1.64425e-08
-2.40196e-09
-1.41095e-08
-2.33299e-09
-1.18668e-08
-2.24272e-09
-9.73584e-09
-2.13091e-09
-7.73835e-09
-1.99748e-09
-5.89576e-09
-1.84259e-09
-4.22912e-09
-1.66664e-09
-2.75871e-09
-1.47042e-09
-1.50353e-09
-1.25518e-09
-4.80616e-10
-1.02291e-09
2.96047e-10
-7.76668e-10
8.17251e-10
-5.21201e-10
1.08135e-09
-2.64088e-10
1.09903e-09
-1.76762e-11
9.01311e-10
1.97724e-10
5.53882e-10
3.47436e-10
1.83831e-10
3.7006e-10
1.83839e-10
3.65531e-10
-5.55967e-10
8.8491e-10
-8.84552e-10
1.21388e-09
-6.55194e-10
1.12984e-09
-7.7941e-11
4.95384e-10
6.98837e-10
-7.63218e-10
1.57633e-09
-2.67503e-09
2.48979e-09
-5.23896e-09
3.39703e-09
-8.43354e-09
4.27064e-09
-1.22238e-08
5.09275e-09
-1.65656e-08
5.8518e-09
-2.14091e-08
6.54047e-09
-2.67006e-08
7.15432e-09
-3.23844e-08
7.69094e-09
-3.84038e-08
8.14936e-09
-4.47021e-08
8.52969e-09
-5.12227e-08
8.83277e-09
-5.79103e-08
9.06006e-09
-6.47107e-08
9.21345e-09
-7.15712e-08
9.29516e-09
-7.84409e-08
9.30765e-09
-8.52708e-08
9.25358e-09
-9.20139e-08
9.13576e-09
-9.86253e-08
8.95709e-09
-1.05062e-07
8.72059e-09
-1.11285e-07
8.42929e-09
-1.17254e-07
8.08633e-09
-1.22934e-07
7.69486e-09
-1.28292e-07
7.25806e-09
-1.33296e-07
6.77914e-09
-1.37918e-07
6.26137e-09
-1.42132e-07
5.70802e-09
-1.45913e-07
5.1224e-09
-1.4924e-07
4.50786e-09
-1.52094e-07
3.8678e-09
-1.5446e-07
3.20565e-09
-1.56323e-07
2.52489e-09
-1.57671e-07
1.82906e-09
-1.58498e-07
1.12176e-09
-1.58796e-07
4.06647e-10
-1.58564e-07
-3.12555e-10
-1.578e-07
-1.03207e-09
-1.56508e-07
-1.74804e-09
-1.54692e-07
-2.45656e-09
-1.52363e-07
-3.15364e-09
-1.4953e-07
-3.83527e-09
-1.46209e-07
-4.49737e-09
-1.42417e-07
-5.13583e-09
-1.38174e-07
-5.74653e-09
-1.33505e-07
-6.32531e-09
-1.28435e-07
-6.86803e-09
-1.22996e-07
-7.37056e-09
-1.17218e-07
-7.82883e-09
-1.11139e-07
-8.23884e-09
-1.04796e-07
-8.59666e-09
-9.82302e-08
-8.89849e-09
-9.14865e-08
-9.14067e-09
-8.4611e-08
-9.31972e-09
-7.76527e-08
-9.43238e-09
-7.06624e-08
-9.47562e-09
-6.36933e-08
-9.4467e-09
-5.68e-08
-9.34324e-09
-5.00388e-08
-9.16321e-09
-4.34668e-08
-8.90505e-09
-3.71418e-08
-8.56774e-09
-3.11218e-08
-8.15086e-09
-2.54645e-08
-7.65478e-09
-2.02262e-08
-7.0808e-09
-1.54614e-08
-6.43141e-09
-1.12212e-08
-5.71065e-09
-7.55167e-09
-4.92468e-09
-4.49203e-09
-4.08256e-09
-2.07116e-09
-3.19754e-09
-3.03301e-10
-2.28906e-09
8.18479e-10
-1.38586e-09
1.33175e-09
-5.30935e-10
1.31841e-09
2.11064e-10
9.22598e-10
7.43251e-10
3.70031e-10
9.22642e-10
5.53869e-10
3.29443e-10
-8.85394e-10
6.63659e-10
-1.21881e-09
6.08439e-10
-5.99985e-10
-9.68584e-11
6.27359e-10
-1.62281e-09
2.22479e-09
-4.06845e-09
4.022e-09
-7.47808e-09
5.89943e-09
-1.18556e-08
7.77457e-09
-1.71757e-08
9.5907e-09
-2.33918e-08
1.13089e-08
-3.04428e-08
1.29028e-08
-3.82571e-08
1.43548e-08
-4.67563e-08
1.56535e-08
-5.58574e-08
1.6792e-08
-6.54751e-08
1.7767e-08
-7.55228e-08
1.85774e-08
-8.59142e-08
1.92241e-08
-9.65636e-08
1.97094e-08
-1.07387e-07
2.00366e-08
-1.18302e-07
2.021e-08
-1.29228e-07
2.02344e-08
-1.4009e-07
2.01152e-08
-1.50812e-07
1.98582e-08
-1.61325e-07
1.94694e-08
-1.71559e-07
1.89552e-08
-1.81452e-07
1.83219e-08
-1.90942e-07
1.75764e-08
-1.99973e-07
1.67254e-08
-2.0849e-07
1.57756e-08
-2.16445e-07
1.47342e-08
-2.23792e-07
1.36081e-08
-2.30488e-07
1.24046e-08
-2.36497e-07
1.11307e-08
-2.41783e-07
9.79391e-09
-2.46317e-07
8.40157e-09
-2.50072e-07
6.9612e-09
-2.53028e-07
5.48043e-09
-2.55166e-07
3.96701e-09
-2.56473e-07
2.42881e-09
-2.5694e-07
8.73841e-10
-2.56563e-07
-6.8977e-10
-2.55341e-07
-2.25376e-09
-2.53279e-07
-3.80972e-09
-2.50387e-07
-5.34912e-09
-2.46677e-07
-6.86332e-09
-2.42169e-07
-8.34356e-09
-2.36885e-07
-9.78099e-09
-2.30854e-07
-1.11667e-08
-2.24109e-07
-1.24918e-08
-2.16687e-07
-1.37472e-08
-2.08631e-07
-1.49241e-08
-1.99988e-07
-1.60135e-08
-1.9081e-07
-1.70068e-08
-1.81154e-07
-1.78953e-08
-1.7108e-07
-1.86706e-08
-1.60653e-07
-1.93247e-08
-1.49944e-07
-1.98498e-08
-1.39025e-07
-2.02386e-08
-1.27974e-07
-2.04841e-08
-1.16869e-07
-2.05802e-08
-1.05794e-07
-2.05212e-08
-9.48353e-08
-2.03024e-08
-8.40787e-08
-1.99198e-08
-7.36132e-08
-1.93706e-08
-6.35278e-08
-1.86531e-08
-5.39113e-08
-1.77673e-08
-4.48512e-08
-1.67149e-08
-3.64325e-08
-1.54995e-08
-2.87359e-08
-1.4128e-08
-2.18362e-08
-1.26103e-08
-1.57996e-08
-1.09614e-08
-1.068e-08
-9.2021e-09
-6.51529e-09
-7.36228e-09
-3.32066e-09
-5.4837e-09
-1.08111e-09
-3.62541e-09
2.59153e-10
-1.87119e-09
8.10149e-10
-3.3993e-10
7.51677e-10
8.0172e-10
3.50099e-10
1.32423e-09
9.03955e-10
1.70864e-10
-1.05628e-09
1.0179e-10
-1.14975e-09
-5.9327e-10
9.51293e-11
-2.17794e-09
2.21203e-09
-4.82903e-09
4.87587e-09
-8.65267e-09
7.84563e-09
-1.36981e-08
1.09449e-08
-1.99702e-08
1.40467e-08
-2.74397e-08
1.70601e-08
-3.60512e-08
1.99205e-08
-4.57307e-08
2.25822e-08
-5.63897e-08
2.50138e-08
-6.79302e-08
2.7194e-08
-8.02474e-08
2.91093e-08
-9.32324e-08
3.0752e-08
-1.06774e-07
3.21189e-08
-1.2076e-07
3.32102e-08
-1.35079e-07
3.40284e-08
-1.49621e-07
3.45785e-08
-1.64278e-07
3.48669e-08
-1.78945e-07
3.49011e-08
-1.93519e-07
3.46898e-08
-2.07903e-07
3.42425e-08
-2.22003e-07
3.35691e-08
-2.35728e-07
3.26802e-08
-2.48993e-07
3.15868e-08
-2.61717e-07
3.03002e-08
-2.73823e-07
2.88317e-08
-2.85241e-07
2.71932e-08
-2.95903e-07
2.53966e-08
-3.05749e-07
2.34541e-08
-3.14722e-07
2.13779e-08
-3.22772e-07
1.91806e-08
-3.29853e-07
1.68747e-08
-3.35925e-07
1.44731e-08
-3.40952e-07
1.19888e-08
-3.44907e-07
9.43508e-09
-3.47765e-07
6.82525e-09
-3.49509e-07
4.17297e-09
-3.50128e-07
1.4921e-09
-3.49614e-07
-1.2033e-09
-3.47969e-07
-3.89893e-09
-3.45198e-07
-6.5803e-09
-3.41315e-07
-9.23266e-09
-3.36337e-07
-1.18411e-08
-3.3029e-07
-1.43906e-08
-3.23205e-07
-1.68659e-08
-3.1512e-07
-1.92517e-08
-3.06079e-07
-2.15327e-08
-2.96133e-07
-2.36935e-08
-2.85338e-07
-2.57188e-08
-2.73758e-07
-2.75936e-08
-2.61462e-07
-2.93027e-08
-2.48525e-07
-3.08318e-08
-2.3503e-07
-3.21665e-08
-2.21061e-07
-3.32932e-08
-2.06712e-07
-3.41988e-08
-1.9208e-07
-3.4871e-08
-1.77266e-07
-3.52984e-08
-1.62375e-07
-3.54706e-08
-1.47518e-07
-3.53786e-08
-1.32806e-07
-3.50147e-08
-1.18353e-07
-3.43727e-08
-1.04275e-07
-3.34486e-08
-9.06872e-08
-3.22405e-08
-7.77052e-08
-3.07493e-08
-6.54411e-08
-2.8979e-08
-5.40033e-08
-2.69374e-08
-4.3494e-08
-2.46373e-08
-3.40067e-08
-2.20976e-08
-2.5623e-08
-1.93451e-08
-1.84085e-08
-1.64166e-08
-1.24077e-08
-1.3363e-08
-7.63792e-09
-1.02535e-08
-4.08097e-09
-7.18238e-09
-1.67377e-09
-4.27839e-09
-2.96741e-10
-1.71697e-09
2.39048e-10
2.65931e-10
2.06886e-10
1.3564e-09
1.11084e-09
-4.8331e-11
-1.00796e-09
-6.56943e-10
-5.4115e-10
-2.16301e-09
1.6012e-09
-4.80656e-09
4.85559e-09
-8.7515e-09
8.82078e-09
-1.40969e-08
1.31911e-08
-2.08877e-08
1.77356e-08
-2.91239e-08
2.22829e-08
-3.87701e-08
2.67063e-08
-4.97623e-08
3.09127e-08
-6.2015e-08
3.48349e-08
-7.54258e-08
3.84246e-08
-8.98805e-08
4.16487e-08
-1.05256e-07
4.44849e-08
-1.21424e-07
4.69198e-08
-1.38252e-07
4.89468e-08
-1.55606e-07
5.05643e-08
-1.73353e-07
5.1775e-08
-1.91359e-07
5.2585e-08
-2.09495e-07
5.30028e-08
-2.27633e-07
5.30389e-08
-2.45649e-07
5.27057e-08
-2.63423e-07
5.20167e-08
-2.8084e-07
5.09866e-08
-2.97791e-07
4.96309e-08
-3.1417e-07
4.79658e-08
-3.29878e-07
4.60081e-08
-3.44821e-07
4.37751e-08
-3.58913e-07
4.12844e-08
-3.7207e-07
3.8554e-08
-3.84218e-07
3.56022e-08
-3.95288e-07
3.24478e-08
-4.05217e-07
2.91096e-08
-4.13949e-07
2.56068e-08
-4.21435e-07
2.19589e-08
-4.27632e-07
1.81858e-08
-4.32504e-07
1.43074e-08
-4.36023e-07
1.03444e-08
-4.38168e-07
6.31726e-09
-4.38923e-07
2.2472e-09
-4.38282e-07
-1.84443e-09
-4.36245e-07
-5.93589e-09
-4.3282e-07
-1.00051e-08
-4.28023e-07
-1.40299e-08
-4.21876e-07
-1.79874e-08
-4.14412e-07
-2.18551e-08
-4.05668e-07
-2.56097e-08
-3.95692e-07
-2.92282e-08
-3.84537e-07
-3.26874e-08
-3.72266e-07
-3.59642e-08
-3.58949e-07
-3.90356e-08
-3.44664e-07
-4.18787e-08
-3.29496e-07
-4.44713e-08
-3.13536e-07
-4.67914e-08
-2.96885e-07
-4.88178e-08
-2.79648e-07
-5.05301e-08
-2.61938e-07
-5.19089e-08
-2.43873e-07
-5.29361e-08
-2.25576e-07
-5.35949e-08
-2.07177e-07
-5.38702e-08
-1.88806e-07
-5.37489e-08
-1.70601e-07
-5.32201e-08
-1.52698e-07
-5.22755e-08
-1.35237e-07
-5.091e-08
-1.18356e-07
-4.91217e-08
-1.02192e-07
-4.69133e-08
-8.68785e-08
-4.42921e-08
-7.25443e-08
-4.12715e-08
-5.93092e-08
-3.78724e-08
-4.72823e-08
-3.41245e-08
-3.65584e-08
-3.0069e-08
-2.72133e-08
-2.57618e-08
-1.92988e-08
-2.12774e-08
-1.2837e-08
-1.67153e-08
-7.81255e-09
-1.22069e-08
-4.16473e-09
-7.92621e-09
-1.77849e-09
-4.10323e-09
-4.74606e-10
-1.03797e-09
1.22454e-12
8.80579e-10
1.11207e-09
-2.94973e-10
-7.12976e-10
-1.52025e-09
6.84132e-10
-3.94395e-09
4.02488e-09
-7.7648e-09
8.67647e-09
-1.31198e-08
1.41758e-08
-2.00902e-08
2.01615e-08
-2.8708e-08
2.63534e-08
-3.89632e-08
3.25382e-08
-5.08107e-08
3.85538e-08
-6.41765e-08
4.42785e-08
-7.89637e-08
4.9622e-08
-9.50572e-08
5.45182e-08
-1.12328e-07
5.89199e-08
-1.30639e-07
6.27951e-08
-1.49842e-07
6.61233e-08
-1.69789e-07
6.88934e-08
-1.90326e-07
7.11014e-08
-2.11301e-07
7.27496e-08
-2.3256e-07
7.38448e-08
-2.53955e-07
7.43975e-08
-2.75338e-07
7.44215e-08
-2.96565e-07
7.39328e-08
-3.17498e-07
7.29495e-08
-3.38003e-07
7.14916e-08
-3.57952e-07
6.95799e-08
-3.77223e-07
6.72368e-08
-3.957e-07
6.44854e-08
-4.13274e-07
6.13493e-08
-4.29843e-07
5.78533e-08
-4.45311e-07
5.40222e-08
-4.59591e-07
4.98816e-08
-4.726e-07
4.54576e-08
-4.84268e-07
4.07767e-08
-4.94526e-07
3.58657e-08
-5.03319e-07
3.07519e-08
-5.10597e-07
2.54631e-08
-5.16317e-07
2.00274e-08
-5.20446e-07
1.44736e-08
-5.22959e-07
8.83062e-09
-5.2384e-07
3.12808e-09
-5.23081e-07
-2.60405e-09
-5.20681e-07
-8.33536e-09
-5.16651e-07
-1.4035e-08
-5.11009e-07
-1.96717e-08
-5.03783e-07
-2.52138e-08
-4.95009e-07
-3.06296e-08
-4.84731e-07
-3.58868e-08
-4.73006e-07
-4.09532e-08
-4.59897e-07
-4.57966e-08
-4.45477e-07
-5.03848e-08
-4.29826e-07
-5.46858e-08
-4.13037e-07
-5.8668e-08
-3.95208e-07
-6.23004e-08
-3.76446e-07
-6.55528e-08
-3.56868e-07
-6.8396e-08
-3.36597e-07
-7.08017e-08
-3.15762e-07
-7.27435e-08
-2.94502e-07
-7.41965e-08
-2.72959e-07
-7.5138e-08
-2.51281e-07
-7.55476e-08
-2.29622e-07
-7.54079e-08
-2.08138e-07
-7.47045e-08
-1.86986e-07
-7.3427e-08
-1.66327e-07
-7.15692e-08
-1.46319e-07
-6.913e-08
-1.27118e-07
-6.61143e-08
-1.08876e-07
-6.25339e-08
-9.17385e-08
-5.8409e-08
-7.58413e-08
-5.37697e-08
-6.13074e-08
-4.86584e-08
-4.82438e-08
-4.31326e-08
-3.67368e-08
-3.72687e-08
-2.68476e-08
-3.11667e-08
-1.86062e-08
-2.49567e-08
-1.20059e-08
-1.88071e-08
-6.99689e-09
-1.29353e-08
-3.47928e-09
-7.62082e-09
-1.2974e-09
-3.21986e-09
-2.33572e-10
-1.83252e-10
8.78502e-10
-5.50967e-10
-1.61995e-10
-2.43062e-09
2.56378e-09
-5.83163e-09
7.42585e-09
-1.09016e-08
1.37464e-08
-1.77412e-08
2.10154e-08
-2.64055e-08
2.88258e-08
-3.69071e-08
3.68551e-08
-4.92207e-08
4.48518e-08
-6.32879e-08
5.2621e-08
-7.90227e-08
6.00133e-08
-9.63158e-08
6.69151e-08
-1.15039e-07
7.32419e-08
-1.35052e-07
7.89321e-08
-1.56199e-07
8.39427e-08
-1.78321e-07
8.82454e-08
-2.01252e-07
9.18238e-08
-2.24821e-07
9.46711e-08
-2.4886e-07
9.67885e-08
-2.73199e-07
9.81832e-08
-2.97669e-07
9.88679e-08
-3.22107e-07
9.88593e-08
-3.46351e-07
9.81774e-08
-3.70247e-07
9.68454e-08
-3.93644e-07
9.48885e-08
-4.16398e-07
9.23338e-08
-4.38371e-07
8.92101e-08
-4.59434e-07
8.55475e-08
-4.79461e-07
8.13772e-08
-4.98339e-07
7.67312e-08
-5.1596e-07
7.16426e-08
-5.32223e-07
6.61449e-08
-5.47038e-07
6.02725e-08
-5.60322e-07
5.40604e-08
-5.72e-07
4.75442e-08
-5.82008e-07
4.07599e-08
-5.9029e-07
3.37445e-08
-5.96797e-07
2.65352e-08
-6.01494e-07
1.91701e-08
-6.04351e-07
1.16875e-08
-6.05349e-07
4.12666e-09
-6.04481e-07
-3.47268e-09
-6.01746e-07
-1.10703e-08
-5.97156e-07
-1.86253e-08
-5.90731e-07
-2.60964e-08
-5.82503e-07
-3.34418e-08
-5.72513e-07
-4.06194e-08
-5.60813e-07
-4.7587e-08
-5.47464e-07
-5.43018e-08
-5.32539e-07
-6.07215e-08
-5.1612e-07
-6.68037e-08
-4.983e-07
-7.25064e-08
-4.7918e-07
-7.7788e-08
-4.58872e-07
-8.26081e-08
-4.37498e-07
-8.6927e-08
-4.15187e-07
-9.07064e-08
-3.92079e-07
-9.39098e-08
-3.6832e-07
-9.65026e-08
-3.44064e-07
-9.84527e-08
-3.19471e-07
-9.97308e-08
-2.94708e-07
-1.00311e-07
-2.69945e-07
-1.00171e-07
-2.45357e-07
-9.92926e-08
-2.2112e-07
-9.76636e-08
-1.97412e-07
-9.52771e-08
-1.7441e-07
-9.21329e-08
-1.52285e-07
-8.82387e-08
-1.31208e-07
-8.36115e-08
-1.11337e-07
-7.82791e-08
-9.2825e-08
-7.22821e-08
-7.58068e-08
-6.56765e-08
-6.04021e-08
-5.85372e-08
-4.67091e-08
-5.09617e-08
-3.48001e-08
-4.30757e-08
-2.47171e-08
-3.50396e-08
-1.64675e-08
-2.70568e-08
-1.00186e-08
-1.93841e-08
-5.29422e-09
-1.23452e-08
-2.17138e-09
-6.3427e-09
-4.79159e-10
-1.87547e-09
3.9934e-10
-8.06516e-10
6.44513e-10
-3.35339e-09
5.11066e-09
-7.75896e-09
1.18314e-08
-1.41156e-08
2.0103e-08
-2.24821e-08
2.9382e-08
-3.28818e-08
3.92255e-08
-4.53026e-08
4.92759e-08
-5.96995e-08
5.92486e-08
-7.59975e-08
6.89191e-08
-9.4096e-08
7.81118e-08
-1.13872e-07
8.66912e-08
-1.35185e-07
9.45545e-08
-1.57878e-07
1.01626e-07
-1.81786e-07
1.07851e-07
-2.06733e-07
1.13192e-07
-2.32539e-07
1.17629e-07
-2.59019e-07
1.21151e-07
-2.85988e-07
1.23758e-07
-3.13261e-07
1.25456e-07
-3.40655e-07
1.26262e-07
-3.67991e-07
1.26194e-07
-3.95091e-07
1.25278e-07
-4.21785e-07
1.2354e-07
-4.47909e-07
1.21012e-07
-4.73304e-07
1.17728e-07
-4.97818e-07
1.13724e-07
-5.21308e-07
1.09038e-07
-5.43638e-07
1.03708e-07
-5.64681e-07
9.77743e-08
-5.84318e-07
9.12795e-08
-6.02439e-07
8.42658e-08
-6.18943e-07
7.67767e-08
-6.3374e-07
6.88566e-08
-6.46746e-07
6.05506e-08
-6.57891e-07
5.19046e-08
-6.67112e-07
4.29655e-08
-6.74357e-07
3.37805e-08
-6.79585e-07
2.43981e-08
-6.82765e-07
1.48672e-08
-6.83876e-07
5.23757e-09
-6.82908e-07
-4.44037e-09
-6.79863e-07
-1.41154e-08
-6.74752e-07
-2.37357e-08
-6.676e-07
-3.32488e-08
-6.5844e-07
-4.26018e-08
-6.47318e-07
-5.17413e-08
-6.34291e-07
-6.06136e-08
-6.19428e-07
-6.91649e-08
-6.02808e-07
-7.73414e-08
-5.84523e-07
-8.50897e-08
-5.64672e-07
-9.23566e-08
-5.4337e-07
-9.909e-08
-5.2074e-07
-1.05239e-07
-4.96914e-07
-1.10753e-07
-4.72037e-07
-1.15584e-07
-4.4626e-07
-1.19687e-07
-4.19744e-07
-1.23018e-07
-3.92658e-07
-1.25538e-07
-3.65179e-07
-1.2721e-07
-3.37488e-07
-1.28002e-07
-3.09773e-07
-1.27886e-07
-2.82223e-07
-1.26842e-07
-2.55033e-07
-1.24854e-07
-2.28395e-07
-1.21915e-07
-2.02502e-07
-1.18026e-07
-1.77543e-07
-1.13198e-07
-1.53702e-07
-1.07453e-07
-1.31153e-07
-1.00828e-07
-1.1006e-07
-9.33745e-08
-9.05744e-08
-8.51622e-08
-7.28279e-08
-7.62837e-08
-5.69319e-08
-6.68577e-08
-4.29727e-08
-5.70349e-08
-3.10079e-08
-4.70044e-08
-2.10629e-08
-3.70018e-08
-1.31277e-08
-2.73193e-08
-7.15532e-09
-1.83176e-08
-3.06113e-09
-1.04369e-08
-7.25326e-10
-4.21128e-09
-3.25995e-10
-1.05654e-09
1.70102e-09
-4.26837e-09
8.3225e-09
-9.68429e-09
1.72473e-08
-1.7341e-08
2.77597e-08
-2.72531e-08
3.92941e-08
-3.94083e-08
5.13807e-08
-5.37662e-08
6.36338e-08
-7.02585e-08
7.57409e-08
-8.87908e-08
8.74514e-08
-1.09245e-07
9.85664e-08
-1.31484e-07
1.0893e-07
-1.55352e-07
1.18422e-07
-1.8068e-07
1.26953e-07
-2.07286e-07
1.34457e-07
-2.34983e-07
1.4089e-07
-2.63577e-07
1.46222e-07
-2.92868e-07
1.50442e-07
-3.22658e-07
1.53548e-07
-3.52748e-07
1.55547e-07
-3.82941e-07
1.56455e-07
-4.13043e-07
1.56296e-07
-4.42863e-07
1.55098e-07
-4.72219e-07
1.52895e-07
-5.00931e-07
1.49724e-07
-5.28828e-07
1.45626e-07
-5.55747e-07
1.40644e-07
-5.81533e-07
1.34823e-07
-6.06037e-07
1.28212e-07
-6.29123e-07
1.2086e-07
-6.50661e-07
1.12817e-07
-6.70532e-07
1.04137e-07
-6.88627e-07
9.4872e-08
-7.04848e-07
8.50769e-08
-7.19104e-07
7.48072e-08
-7.31319e-07
6.41196e-08
-7.41425e-07
5.30715e-08
-7.49366e-07
4.17214e-08
-7.55097e-07
3.01287e-08
-7.58583e-07
1.83538e-08
-7.59804e-07
6.45799e-09
-7.58747e-07
-5.49667e-09
-7.55416e-07
-1.74471e-08
-7.49822e-07
-2.93297e-08
-7.41991e-07
-4.10797e-08
-7.3196e-07
-5.26323e-08
-7.1978e-07
-6.39216e-08
-7.05512e-07
-7.4882e-08
-6.89229e-07
-8.54473e-08
-6.71019e-07
-9.55515e-08
-6.5098e-07
-1.05129e-07
-6.29221e-07
-1.14115e-07
-6.05865e-07
-1.22446e-07
-5.81044e-07
-1.30059e-07
-5.54904e-07
-1.36893e-07
-5.27598e-07
-1.42889e-07
-4.99292e-07
-1.47993e-07
-4.7016e-07
-1.52151e-07
-4.40383e-07
-1.55315e-07
-4.10152e-07
-1.57441e-07
-3.79663e-07
-1.58491e-07
-3.49118e-07
-1.58431e-07
-3.18722e-07
-1.57238e-07
-2.88683e-07
-1.54893e-07
-2.5921e-07
-1.51388e-07
-2.30509e-07
-1.46727e-07
-2.02784e-07
-1.40922e-07
-1.76233e-07
-1.34004e-07
-1.51046e-07
-1.26016e-07
-1.274e-07
-1.1702e-07
-1.0546e-07
-1.07102e-07
-8.53729e-08
-9.63712e-08
-6.72641e-08
-8.49665e-08
-5.12367e-08
-7.30623e-08
-3.73669e-08
-6.08742e-08
-2.57016e-08
-4.8667e-08
-1.62575e-08
-3.67635e-08
-9.02009e-09
-2.5555e-08
-3.94588e-09
-1.55111e-08
-9.6674e-10
-7.19044e-09
-1.29274e-09
-1.29865e-09
2.99967e-09
-5.16446e-09
1.21883e-08
-1.15828e-08
2.36657e-08
-2.05368e-08
3.67137e-08
-3.19959e-08
5.07532e-08
-4.59107e-08
6.52955e-08
-6.22099e-08
7.9933e-08
-8.07994e-08
9.43303e-08
-1.01563e-07
1.08215e-07
-1.24364e-07
1.21367e-07
-1.49047e-07
1.33613e-07
-1.75441e-07
1.44817e-07
-2.03363e-07
1.54875e-07
-2.32619e-07
1.63713e-07
-2.63006e-07
1.71276e-07
-2.94316e-07
1.77533e-07
-3.26338e-07
1.82465e-07
-3.58861e-07
1.8607e-07
-3.91672e-07
1.88357e-07
-4.2456e-07
1.89344e-07
-4.57321e-07
1.89056e-07
-4.8975e-07
1.87527e-07
-5.21652e-07
1.84797e-07
-5.52836e-07
1.80909e-07
-5.83121e-07
1.7591e-07
-6.1233e-07
1.69853e-07
-6.40299e-07
1.62792e-07
-6.6687e-07
1.54783e-07
-6.91894e-07
1.45885e-07
-7.15236e-07
1.36159e-07
-7.36767e-07
1.25668e-07
-7.5637e-07
1.14475e-07
-7.7394e-07
1.02647e-07
-7.89382e-07
9.02488e-08
-8.02611e-07
7.73494e-08
-8.13557e-07
6.40175e-08
-8.22159e-07
5.03234e-08
-8.28369e-07
3.63386e-08
-8.32151e-07
2.21354e-08
-8.3348e-07
7.78745e-09
-8.32346e-07
-6.63059e-09
-8.2875e-07
-2.10431e-08
-8.22706e-07
-3.53736e-08
-8.14242e-07
-4.95446e-08
-8.03396e-07
-6.34781e-08
-7.90222e-07
-7.70955e-08
-7.74786e-07
-9.03178e-08
-7.57167e-07
-1.03066e-07
-7.37458e-07
-1.15261e-07
-7.15762e-07
-1.26825e-07
-6.92199e-07
-1.37679e-07
-6.66897e-07
-1.47748e-07
-6.4e-07
-1.56956e-07
-6.1166e-07
-1.65232e-07
-5.82044e-07
-1.72506e-07
-5.51327e-07
-1.7871e-07
-5.19694e-07
-1.83784e-07
-4.87339e-07
-1.87669e-07
-4.54467e-07
-1.90314e-07
-4.21285e-07
-1.91673e-07
-3.88009e-07
-1.91707e-07
-3.54858e-07
-1.90389e-07
-3.22053e-07
-1.87697e-07
-2.89818e-07
-1.83624e-07
-2.58372e-07
-1.78172e-07
-2.27935e-07
-1.7136e-07
-1.98717e-07
-1.63222e-07
-1.70922e-07
-1.5381e-07
-1.44744e-07
-1.43199e-07
-1.2036e-07
-1.31486e-07
-9.79345e-08
-1.18797e-07
-7.76091e-08
-1.05292e-07
-5.95053e-08
-9.1166e-08
-4.37203e-08
-7.66592e-08
-3.03255e-08
-6.20618e-08
-1.93664e-08
-4.77226e-08
-1.08633e-08
-3.40582e-08
-4.81412e-09
-2.15602e-08
-1.20084e-09
-1.08037e-08
-2.49357e-09
-1.53198e-09
4.53165e-09
-6.03621e-09
1.66926e-08
-1.3441e-08
3.10705e-08
-2.36787e-08
4.69514e-08
-3.66749e-08
6.37493e-08
-5.23421e-08
8.09628e-08
-7.05768e-08
9.81677e-08
-9.12572e-08
1.15011e-07
-1.14243e-07
1.31201e-07
-1.39377e-07
1.46501e-07
-1.66486e-07
1.60722e-07
-1.95383e-07
1.73713e-07
-2.25867e-07
1.8536e-07
-2.57731e-07
1.95576e-07
-2.90758e-07
2.04304e-07
-3.24728e-07
2.11503e-07
-3.59417e-07
2.17154e-07
-3.946e-07
2.21253e-07
-4.30053e-07
2.2381e-07
-4.65553e-07
2.24844e-07
-5.00883e-07
2.24386e-07
-5.35829e-07
2.22473e-07
-5.70183e-07
2.19151e-07
-6.03744e-07
2.1447e-07
-6.36319e-07
2.08486e-07
-6.67724e-07
2.01258e-07
-6.97782e-07
1.9285e-07
-7.26328e-07
1.83328e-07
-7.53205e-07
1.72762e-07
-7.78269e-07
1.61222e-07
-8.01383e-07
1.48782e-07
-8.22425e-07
1.35517e-07
-8.41282e-07
1.21504e-07
-8.57855e-07
1.06821e-07
-8.72053e-07
9.15482e-08
-8.83803e-07
7.57666e-08
-8.93038e-07
5.95591e-08
-8.99709e-07
4.30097e-08
-9.03778e-07
2.62037e-08
-9.05218e-07
9.22765e-09
-9.04018e-07
-7.83056e-09
-9.00179e-07
-2.4882e-08
-8.93716e-07
-4.18365e-08
-8.84657e-07
-5.86033e-08
-8.73045e-07
-7.50904e-08
-8.58935e-07
-9.12055e-08
-8.42397e-07
-1.06856e-07
-8.23514e-07
-1.21949e-07
-8.02384e-07
-1.36391e-07
-7.79118e-07
-1.50091e-07
-7.53839e-07
-1.62958e-07
-7.26684e-07
-1.74902e-07
-6.97805e-07
-1.85835e-07
-6.67364e-07
-1.95674e-07
-6.35535e-07
-2.04335e-07
-6.02503e-07
-2.11742e-07
-5.68466e-07
-2.17822e-07
-5.33627e-07
-2.22508e-07
-4.98202e-07
-2.25739e-07
-4.62412e-07
-2.27463e-07
-4.26484e-07
-2.27636e-07
-3.9065e-07
-2.26223e-07
-3.55145e-07
-2.23203e-07
-3.20204e-07
-2.18565e-07
-2.86063e-07
-2.12314e-07
-2.52952e-07
-2.04471e-07
-2.21098e-07
-1.95075e-07
-1.9072e-07
-1.84189e-07
-1.62024e-07
-1.71894e-07
-1.35207e-07
-1.58303e-07
-1.10446e-07
-1.43558e-07
-8.79048e-08
-1.27834e-07
-6.77234e-08
-1.11347e-07
-5.00224e-08
-9.43602e-08
-3.48996e-08
-7.71846e-08
-2.24306e-08
-6.01915e-08
-1.26712e-08
-4.38176e-08
-5.66026e-09
-2.85712e-08
-1.4267e-09
-1.50373e-08
-3.92025e-09
-1.75655e-09
6.28822e-09
-6.88168e-09
2.18177e-08
-1.52527e-08
3.94415e-08
-2.67546e-08
5.84533e-08
-4.12704e-08
7.82652e-08
-5.86754e-08
9.83678e-08
-7.88328e-08
1.18325e-07
-1.01592e-07
1.3777e-07
-1.26788e-07
1.56397e-07
-1.54241e-07
1.73954e-07
-1.83758e-07
1.90239e-07
-2.15133e-07
2.05089e-07
-2.48152e-07
2.18378e-07
-2.8259e-07
2.30015e-07
-3.18218e-07
2.39932e-07
-3.54802e-07
2.48086e-07
-3.92105e-07
2.54457e-07
-4.2989e-07
2.59039e-07
-4.67921e-07
2.61841e-07
-5.05965e-07
2.62888e-07
-5.43792e-07
2.62213e-07
-5.81179e-07
2.5986e-07
-6.17906e-07
2.55879e-07
-6.53764e-07
2.50328e-07
-6.88551e-07
2.43272e-07
-7.22071e-07
2.34778e-07
-7.54141e-07
2.2492e-07
-7.84587e-07
2.13774e-07
-8.13245e-07
2.0142e-07
-8.39962e-07
1.87939e-07
-8.64597e-07
1.73417e-07
-8.8702e-07
1.5794e-07
-9.07113e-07
1.41597e-07
-9.24771e-07
1.24479e-07
-9.39901e-07
1.06679e-07
-9.52424e-07
8.82892e-08
-9.62272e-07
6.94069e-08
-9.69391e-07
5.01289e-08
-9.73741e-07
3.0554e-08
-9.75296e-07
1.07824e-08
-9.74042e-07
-9.0843e-09
-9.69981e-07
-2.8943e-08
-9.63128e-07
-4.86897e-08
-9.53512e-07
-6.8219e-08
-9.41178e-07
-8.74249e-08
-9.26183e-07
-1.062e-07
-9.086e-07
-1.24439e-07
-8.88517e-07
-1.42032e-07
-8.66035e-07
-1.58873e-07
-8.4127e-07
-1.74856e-07
-8.14352e-07
-1.89876e-07
-7.85424e-07
-2.03829e-07
-7.54645e-07
-2.16615e-07
-7.22184e-07
-2.28135e-07
-6.88223e-07
-2.38295e-07
-6.52959e-07
-2.47007e-07
-6.16595e-07
-2.54185e-07
-5.79348e-07
-2.59754e-07
-5.41443e-07
-2.63644e-07
-5.03112e-07
-2.65794e-07
-4.64594e-07
-2.66153e-07
-4.26133e-07
-2.64684e-07
-3.87977e-07
-2.61359e-07
-3.50374e-07
-2.56168e-07
-3.13573e-07
-2.49115e-07
-2.77818e-07
-2.40225e-07
-2.43352e-07
-2.29542e-07
-2.10406e-07
-2.17134e-07
-1.79205e-07
-2.03095e-07
-1.4996e-07
-1.87548e-07
-1.2287e-07
-1.70648e-07
-9.81157e-08
-1.52588e-07
-7.58602e-08
-1.33603e-07
-5.62484e-08
-1.13972e-07
-3.94055e-08
-9.40275e-08
-2.54385e-08
-7.41585e-08
-1.4438e-08
-5.48181e-08
-6.48244e-09
-3.65267e-08
-1.6443e-09
-1.98754e-08
-5.56455e-09
-1.97283e-09
8.26106e-09
-7.70112e-09
2.7546e-08
-1.70164e-08
4.87568e-08
-2.97599e-08
7.11968e-08
-4.57742e-08
9.42795e-08
-6.48976e-08
1.17491e-07
-8.69605e-08
1.40388e-07
-1.11783e-07
1.62592e-07
-1.39174e-07
1.83788e-07
-1.68929e-07
2.0371e-07
-2.00836e-07
2.22146e-07
-2.34671e-07
2.38923e-07
-2.702e-07
2.53908e-07
-3.07185e-07
2.67e-07
-3.45381e-07
2.78128e-07
-3.84541e-07
2.87246e-07
-4.24415e-07
2.94331e-07
-4.64755e-07
2.99378e-07
-5.05313e-07
3.02399e-07
-5.45844e-07
3.0342e-07
-5.8611e-07
3.02479e-07
-6.25875e-07
2.99625e-07
-6.64912e-07
2.94916e-07
-7.03002e-07
2.88418e-07
-7.39934e-07
2.80203e-07
-7.75504e-07
2.70349e-07
-8.09522e-07
2.58938e-07
-8.41805e-07
2.46058e-07
-8.72183e-07
2.31798e-07
-9.00498e-07
2.16253e-07
-9.266e-07
1.9952e-07
-9.50357e-07
1.81696e-07
-9.71644e-07
1.62884e-07
-9.90352e-07
1.43187e-07
-1.00638e-06
1.22711e-07
-1.01966e-06
1.01562e-07
-1.0301e-06
7.98505e-08
-1.03766e-06
5.76871e-08
-1.04229e-06
3.51845e-08
-1.04396e-06
1.24572e-08
-1.04267e-06
-1.03788e-08
-1.03841e-06
-3.32061e-08
-1.03119e-06
-5.59059e-08
-1.02105e-06
-7.8358e-08
-1.00803e-06
-1.00441e-07
-9.92201e-07
-1.22034e-07
-9.73625e-07
-1.43014e-07
-9.52397e-07
-1.63259e-07
-9.28623e-07
-1.82647e-07
-9.02423e-07
-2.01056e-07
-8.73932e-07
-2.18367e-07
-8.43299e-07
-2.34462e-07
-8.10688e-07
-2.49226e-07
-7.76276e-07
-2.62547e-07
-7.40253e-07
-2.74318e-07
-7.02822e-07
-2.84438e-07
-6.64196e-07
-2.9281e-07
-6.24603e-07
-2.99348e-07
-5.84275e-07
-3.03972e-07
-5.43456e-07
-3.06613e-07
-5.02396e-07
-3.07213e-07
-4.61352e-07
-3.05728e-07
-4.20582e-07
-3.02129e-07
-3.80349e-07
-2.96401e-07
-3.40913e-07
-2.88551e-07
-3.02535e-07
-2.78603e-07
-2.65471e-07
-2.66607e-07
-2.29969e-07
-2.52636e-07
-1.96271e-07
-2.36794e-07
-1.64605e-07
-2.19213e-07
-1.35189e-07
-2.00063e-07
-1.08226e-07
-1.79551e-07
-8.39027e-08
-1.57927e-07
-6.23884e-08
-1.35486e-07
-4.38371e-08
-1.12579e-07
-2.83869e-08
-8.96087e-08
-1.61629e-08
-6.70421e-08
-7.28121e-09
-4.54084e-08
-1.85422e-09
-2.53024e-08
-7.41878e-09
-2.18158e-09
1.04426e-08
-8.49612e-09
3.38606e-08
-1.87338e-08
5.89945e-08
-3.26955e-08
8.51585e-08
-5.01853e-08
1.11769e-07
-7.10059e-08
1.38312e-07
-9.49549e-08
1.64337e-07
-1.21823e-07
1.8946e-07
-1.51391e-07
2.13356e-07
-1.83433e-07
2.35752e-07
-2.17714e-07
2.56426e-07
-2.53988e-07
2.75197e-07
-2.92007e-07
2.91926e-07
-3.31515e-07
3.06507e-07
-3.72252e-07
3.18865e-07
-4.13958e-07
3.28952e-07
-4.56369e-07
3.36743e-07
-4.99225e-07
3.42235e-07
-5.42268e-07
3.45442e-07
-5.85242e-07
3.46394e-07
-6.27898e-07
3.45134e-07
-6.69991e-07
3.41718e-07
-7.11286e-07
3.36211e-07
-7.51554e-07
3.28686e-07
-7.90576e-07
3.19225e-07
-8.28143e-07
3.07915e-07
-8.64055e-07
2.9485e-07
-8.98124e-07
2.80127e-07
-9.30173e-07
2.63848e-07
-9.60038e-07
2.46118e-07
-9.87566e-07
2.27048e-07
-1.01262e-06
2.06747e-07
-1.03506e-06
1.85331e-07
-1.05479e-06
1.62916e-07
-1.0717e-06
1.39621e-07
-1.08571e-06
1.15567e-07
-1.09674e-06
9.08784e-08
-1.10473e-06
6.5679e-08
-1.10964e-06
4.00964e-08
-1.11144e-06
1.42597e-08
-1.11012e-06
-1.17003e-08
-1.10567e-06
-3.76513e-08
-1.09812e-06
-6.34592e-08
-1.08749e-06
-8.89886e-08
-1.07383e-06
-1.14103e-07
-1.0572e-06
-1.38665e-07
-1.03768e-06
-1.62537e-07
-1.01535e-06
-1.85581e-07
-9.90341e-07
-2.0766e-07
-9.62761e-07
-2.28636e-07
-9.32755e-07
-2.48374e-07
-9.00475e-07
-2.66742e-07
-8.66091e-07
-2.8361e-07
-8.29786e-07
-2.98852e-07
-7.91757e-07
-3.12347e-07
-7.52214e-07
-3.2398e-07
-7.11381e-07
-3.33644e-07
-6.69489e-07
-3.4124e-07
-6.26784e-07
-3.46677e-07
-5.83519e-07
-3.49878e-07
-5.39955e-07
-3.50777e-07
-4.96359e-07
-3.49324e-07
-4.53002e-07
-3.45485e-07
-4.1016e-07
-3.39243e-07
-3.68108e-07
-3.30603e-07
-3.27121e-07
-3.19591e-07
-2.87468e-07
-3.06259e-07
-2.49417e-07
-2.90687e-07
-2.13225e-07
-2.72986e-07
-1.79142e-07
-2.53297e-07
-1.47404e-07
-2.31801e-07
-1.18237e-07
-2.08718e-07
-9.18512e-08
-1.84312e-07
-6.84436e-08
-1.58894e-07
-4.81963e-08
-1.32826e-07
-3.12785e-08
-1.06527e-07
-1.78488e-08
-8.04718e-08
-8.05859e-09
-5.51986e-08
-2.05732e-09
-3.13036e-08
-9.4761e-09
-2.38368e-09
1.28263e-08
-9.269e-09
4.07459e-08
-2.04087e-08
7.01342e-08
-3.5566e-08
1.00316e-07
-5.45085e-08
1.30712e-07
-7.70046e-08
1.60808e-07
-1.0282e-07
1.90152e-07
-1.31714e-07
2.18355e-07
-1.63444e-07
2.45086e-07
-1.97756e-07
2.70065e-07
-2.34394e-07
2.93063e-07
-2.73092e-07
3.13896e-07
-3.13583e-07
3.32417e-07
-3.55593e-07
3.48518e-07
-3.98849e-07
3.62121e-07
-4.43075e-07
3.73178e-07
-4.87996e-07
3.81663e-07
-5.33338e-07
3.87577e-07
-5.78831e-07
3.90935e-07
-6.24211e-07
3.91773e-07
-6.69217e-07
3.90141e-07
-7.13598e-07
3.86099e-07
-7.57107e-07
3.7972e-07
-7.99509e-07
3.71088e-07
-8.40578e-07
3.60294e-07
-8.80096e-07
3.47433e-07
-9.17858e-07
3.32612e-07
-9.5367e-07
3.15939e-07
-9.8735e-07
2.97527e-07
-1.01873e-06
2.77496e-07
-1.04764e-06
2.55965e-07
-1.07396e-06
2.3306e-07
-1.09754e-06
2.08909e-07
-1.11826e-06
1.83642e-07
-1.13603e-06
1.57391e-07
-1.15076e-06
1.30292e-07
-1.16236e-06
1.02483e-07
-1.17079e-06
7.41024e-08
-1.17598e-06
4.52931e-08
-1.17792e-06
1.61989e-08
-1.17659e-06
-1.30342e-08
-1.17198e-06
-4.22584e-08
-1.16412e-06
-7.13243e-08
-1.15302e-06
-1.00081e-07
-1.13875e-06
-1.28375e-07
-1.12136e-06
-1.56055e-07
-1.10093e-06
-1.82965e-07
-1.07756e-06
-2.08953e-07