/*--------------------------------*- C++ -*----------------------------------*\
  =========                 |
  \\      /  F ield         | OpenFOAM: The Open Source CFD Toolbox
   \\    /   O peration     | Website:  https://openfoam.org
    \\  /    A nd           | Version:  7
     \\/     M anipulation  |
\*---------------------------------------------------------------------------*/
FoamFile
{
    version     2.0;
    format      ascii;
    class       volVectorField;
    location    "0.2";
    object      U;
}
// * * * * * * * * * * * * * * * * * * * * * * * * * * * * * * * * * * * * * //

dimensions      [0 1 -1 0 0 0 0];

internalField   nonuniform List<vector> 
6400
(
(7.24873e-06 -7.24445e-06 0)
(2.97763e-05 -1.44188e-05 0)
(5.9204e-05 -1.41413e-05 0)
(8.04317e-05 -9.69863e-06 0)
(8.51959e-05 -3.39412e-06 0)
(7.02568e-05 3.57184e-06 0)
(3.44911e-05 1.05857e-05 0)
(-2.20654e-05 1.73296e-05 0)
(-9.86593e-05 2.3641e-05 0)
(-0.000194102 2.94392e-05 0)
(-0.000306948 3.4686e-05 0)
(-0.000435604 3.93666e-05 0)
(-0.000578389 4.34794e-05 0)
(-0.000733584 4.70312e-05 0)
(-0.000899464 5.0033e-05 0)
(-0.00107431 5.2501e-05 0)
(-0.00125644 5.44513e-05 0)
(-0.0014442 5.59038e-05 0)
(-0.00163599 5.68777e-05 0)
(-0.00183026 5.7392e-05 0)
(-0.00202551 5.74675e-05 0)
(-0.0022203 5.71255e-05 0)
(-0.00241327 5.63858e-05 0)
(-0.00260311 5.52689e-05 0)
(-0.00278856 5.37958e-05 0)
(-0.00296846 5.19868e-05 0)
(-0.00314168 4.9862e-05 0)
(-0.00330719 4.74412e-05 0)
(-0.003464 4.47446e-05 0)
(-0.0036112 4.17922e-05 0)
(-0.00374795 3.86042e-05 0)
(-0.00387348 3.52002e-05 0)
(-0.00398707 3.16e-05 0)
(-0.00408809 2.78238e-05 0)
(-0.00417597 2.38918e-05 0)
(-0.00425021 1.98244e-05 0)
(-0.00431039 1.56423e-05 0)
(-0.00435616 1.13667e-05 0)
(-0.00438722 7.01913e-06 0)
(-0.00440339 2.62126e-06 0)
(-0.00440453 -1.80463e-06 0)
(-0.00439059 -6.23594e-06 0)
(-0.0043616 -1.06493e-05 0)
(-0.00431767 -1.50208e-05 0)
(-0.004259 -1.93262e-05 0)
(-0.00418585 -2.35412e-05 0)
(-0.00409859 -2.76409e-05 0)
(-0.00399766 -3.15999e-05 0)
(-0.0038836 -3.53922e-05 0)
(-0.00375703 -3.89916e-05 0)
(-0.00361865 -4.23722e-05 0)
(-0.00346926 -4.55077e-05 0)
(-0.00330975 -4.83724e-05 0)
(-0.00314107 -5.09403e-05 0)
(-0.00296428 -5.31858e-05 0)
(-0.00278052 -5.50838e-05 0)
(-0.002591 -5.66097e-05 0)
(-0.00239702 -5.77401e-05 0)
(-0.00219995 -5.84521e-05 0)
(-0.00200121 -5.8724e-05 0)
(-0.00180232 -5.85352e-05 0)
(-0.00160484 -5.78666e-05 0)
(-0.00141037 -5.67011e-05 0)
(-0.00122057 -5.50233e-05 0)
(-0.00103714 -5.28198e-05 0)
(-0.000861786 -5.00796e-05 0)
(-0.000696249 -4.67942e-05 0)
(-0.000542254 -4.2959e-05 0)
(-0.000401508 -3.85733e-05 0)
(-0.000275673 -3.36433e-05 0)
(-0.000166334 -2.81841e-05 0)
(-7.49489e-05 -2.22257e-05 0)
(-2.78631e-06 -1.58216e-05 0)
(4.91853e-05 -9.06866e-06 0)
(8.04708e-05 -2.14594e-06 0)
(9.13323e-05 4.6129e-06 0)
(8.3211e-05 1.05839e-05 0)
(5.9666e-05 1.45719e-05 0)
(2.91978e-05 1.43345e-05 0)
(6.86779e-06 6.86646e-06 0)
(1.44339e-05 -2.97669e-05 0)
(5.14441e-05 -5.13691e-05 0)
(8.95592e-05 -4.39159e-05 0)
(0.000103112 -1.89343e-05 0)
(7.64256e-05 1.54636e-05 0)
(1.65158e-06 5.42523e-05 0)
(-0.000124894 9.43586e-05 0)
(-0.000304129 0.000133897 0)
(-0.000534999 0.000171708 0)
(-0.000815143 0.000207078 0)
(-0.00114133 0.000239569 0)
(-0.00150973 0.000268919 0)
(-0.00191619 0.000294987 0)
(-0.00235629 0.000317704 0)
(-0.00282553 0.000337059 0)
(-0.00331934 0.000353082 0)
(-0.00383319 0.000365828 0)
(-0.00436259 0.000375374 0)
(-0.00490316 0.000381814 0)
(-0.00545061 0.000385248 0)
(-0.0060008 0.000385789 0)
(-0.00654972 0.000383555 0)
(-0.00709355 0.000378668 0)
(-0.00762859 0.000371253 0)
(-0.00815135 0.000361439 0)
(-0.00865849 0.000349355 0)
(-0.00914687 0.000335133 0)
(-0.00961353 0.000318903 0)
(-0.0100557 0.000300801 0)
(-0.0104708 0.000280958 0)
(-0.0108564 0.000259509 0)
(-0.0112103 0.000236591 0)
(-0.0115305 0.000212339 0)
(-0.0118152 0.000186893 0)
(-0.0120629 0.00016039 0)
(-0.0122719 0.000132972 0)
(-0.0124413 0.000104783 0)
(-0.01257 7.59685e-05 0)
(-0.0126571 4.66753e-05 0)
(-0.0127022 1.70547e-05 0)
(-0.0127049 -1.27402e-05 0)
(-0.012665 -4.25538e-05 0)
(-0.0125827 -7.22274e-05 0)
(-0.0124582 -0.000101599 0)
(-0.0122922 -0.000130504 0)
(-0.0120855 -0.000158777 0)
(-0.011839 -0.000186248 0)
(-0.0115541 -0.000212748 0)
(-0.0112323 -0.000238103 0)
(-0.0108753 -0.000262142 0)
(-0.0104852 -0.000284691 0)
(-0.0100642 -0.000305578 0)
(-0.00961486 -0.000324633 0)
(-0.00913985 -0.000341687 0)
(-0.00864215 -0.000356575 0)
(-0.00812498 -0.000369136 0)
(-0.00759173 -0.000379216 0)
(-0.00704602 -0.000386665 0)
(-0.00649169 -0.000391345 0)
(-0.00593272 -0.000393123 0)
(-0.00537329 -0.000391881 0)
(-0.00481771 -0.00038751 0)
(-0.00427042 -0.000379919 0)
(-0.00373596 -0.000369033 0)
(-0.00321895 -0.000354797 0)
(-0.00272403 -0.000337179 0)
(-0.00225583 -0.000316176 0)
(-0.00181893 -0.000291822 0)
(-0.00141779 -0.000264193 0)
(-0.00105665 -0.000233428 0)
(-0.000739441 -0.000199748 0)
(-0.00046963 -0.000163492 0)
(-0.000250007 -0.000125178 0)
(-8.23998e-05 -8.55943e-05 0)
(3.27594e-05 -4.5967e-05 0)
(9.70541e-05 -8.23072e-06 0)
(0.000114858 2.45327e-05 0)
(9.46271e-05 4.73778e-05 0)
(5.2514e-05 5.24722e-05 0)
(1.43278e-05 2.91731e-05 0)
(1.42576e-05 -5.92951e-05 0)
(4.44163e-05 -8.96085e-05 0)
(6.09308e-05 -6.01081e-05 0)
(3.50574e-05 7.09406e-06 0)
(-5.15428e-05 9.65933e-05 0)
(-0.000209062 0.000197746 0)
(-0.000442827 0.000303332 0)
(-0.000754533 0.000408522 0)
(-0.00114315 0.000510099 0)
(-0.00160565 0.00060592 0)
(-0.00213764 0.000694573 0)
(-0.00273373 0.000775143 0)
(-0.00338785 0.000847061 0)
(-0.00409352 0.000910008 0)
(-0.00484397 0.000963837 0)
(-0.00563229 0.00100853 0)
(-0.00645156 0.00104418 0)
(-0.00729486 0.00107093 0)
(-0.00815541 0.00108898 0)
(-0.00902653 0.0010986 0)
(-0.00990174 0.00110006 0)
(-0.0107748 0.00109367 0)
(-0.0116396 0.00107976 0)
(-0.0124903 0.00105866 0)
(-0.0133215 0.00103072 0)
(-0.0141278 0.000996308 0)
(-0.0149043 0.000955784 0)
(-0.0156462 0.000909521 0)
(-0.0163492 0.000857895 0)
(-0.017009 0.000801286 0)
(-0.017622 0.000740078 0)
(-0.0181845 0.000674659 0)
(-0.0186934 0.000605422 0)
(-0.0191458 0.000532764 0)
(-0.0195392 0.000457086 0)
(-0.0198712 0.000378796 0)
(-0.02014 0.000298306 0)
(-0.0203441 0.000216037 0)
(-0.0204821 0.000132414 0)
(-0.0205532 4.78726e-05 0)
(-0.0205569 -3.71476e-05 0)
(-0.0204929 -0.000122199 0)
(-0.0203614 -0.000206824 0)
(-0.020163 -0.000290561 0)
(-0.0198986 -0.000372939 0)
(-0.0195694 -0.000453481 0)
(-0.0191773 -0.000531707 0)
(-0.0187241 -0.000607132 0)
(-0.0182123 -0.000679266 0)
(-0.0176448 -0.000747622 0)
(-0.0170248 -0.000811709 0)
(-0.0163559 -0.000871042 0)
(-0.015642 -0.000925143 0)
(-0.0148874 -0.000973538 0)
(-0.014097 -0.00101577 0)
(-0.0132756 -0.00105139 0)
(-0.0124288 -0.00107996 0)
(-0.0115622 -0.00110109 0)
(-0.0106818 -0.00111439 0)
(-0.00979395 -0.00111951 0)
(-0.00890512 -0.00111613 0)
(-0.00802207 -0.00110397 0)
(-0.0071517 -0.00108282 0)
(-0.00630106 -0.00105249 0)
(-0.00547727 -0.00101287 0)
(-0.00468746 -0.000963938 0)
(-0.0039387 -0.00090575 0)
(-0.00323791 -0.000838483 0)
(-0.00259177 -0.000762457 0)
(-0.00200653 -0.000678184 0)
(-0.0014879 -0.000586427 0)
(-0.00104075 -0.0004883 0)
(-0.000668853 -0.000385407 0)
(-0.000374466 -0.000280063 0)
(-0.000157766 -0.000175629 0)
(-1.61354e-05 -7.70152e-05 0)
(5.66599e-05 8.58794e-06 0)
(7.16294e-05 7.07626e-05 0)
(4.7837e-05 9.46929e-05 0)
(1.46462e-05 5.96959e-05 0)
(1.00191e-05 -8.09816e-05 0)
(2.02479e-05 -0.000103923 0)
(-4.63092e-06 -3.4593e-05 0)
(-9.13338e-05 9.42476e-05 0)
(-0.000257974 0.000259862 0)
(-0.000515479 0.000445719 0)
(-0.000869739 0.000639974 0)
(-0.00132271 0.000834282 0)
(-0.00187321 0.0010228 0)
(-0.00251774 0.00120146 0)
(-0.003251 0.00136744 0)
(-0.00406638 0.00151884 0)
(-0.00495637 0.00165441 0)
(-0.0059128 0.00177338 0)
(-0.00692707 0.00187534 0)
(-0.00799035 0.00196013 0)
(-0.00909367 0.00202782 0)
(-0.0102281 0.00207862 0)
(-0.0113847 0.00211285 0)
(-0.0125547 0.00213094 0)
(-0.0137297 0.00213338 0)
(-0.0149014 0.00212073 0)
(-0.0160616 0.00209358 0)
(-0.0172028 0.00205256 0)
(-0.0183176 0.00199832 0)
(-0.0193988 0.00193155 0)
(-0.0204399 0.00185294 0)
(-0.0214346 0.00176321 0)
(-0.0223769 0.00166307 0)
(-0.0232614 0.00155326 0)
(-0.0240829 0.00143452 0)
(-0.0248367 0.00130761 0)
(-0.0255186 0.00117329 0)
(-0.0261247 0.00103232 0)
(-0.0266515 0.000885502 0)
(-0.0270961 0.00073362 0)
(-0.027456 0.000577481 0)
(-0.0277289 0.000417904 0)
(-0.0279133 0.000255721 0)
(-0.0280079 9.17771e-05 0)
(-0.0280122 -7.30689e-05 0)
(-0.0279258 -0.000237944 0)
(-0.027749 -0.000401961 0)
(-0.0274825 -0.000564221 0)
(-0.0271276 -0.000723812 0)
(-0.026686 -0.00087981 0)
(-0.0261601 -0.00103128 0)
(-0.0255525 -0.0011773 0)
(-0.0248665 -0.0013169 0)
(-0.0241059 -0.00144916 0)
(-0.0232751 -0.00157314 0)
(-0.0223788 -0.00168789 0)
(-0.0214223 -0.00179251 0)
(-0.0204114 -0.00188609 0)
(-0.0193525 -0.00196776 0)
(-0.0182521 -0.00203666 0)
(-0.0171176 -0.00209199 0)
(-0.0159563 -0.00213298 0)
(-0.0147764 -0.00215891 0)
(-0.0135861 -0.00216915 0)
(-0.012394 -0.0021631 0)
(-0.0112089 -0.00214029 0)
(-0.0100401 -0.00210031 0)
(-0.00889653 -0.00204288 0)
(-0.00778763 -0.00196786 0)
(-0.0067226 -0.00187526 0)
(-0.00571056 -0.00176529 0)
(-0.0047604 -0.00163838 0)
(-0.00388058 -0.00149528 0)
(-0.00307898 -0.00133709 0)
(-0.00236267 -0.00116542 0)
(-0.00173765 -0.000982515 0)
(-0.00120841 -0.000791527 0)
(-0.000777577 -0.000596819 0)
(-0.000445278 -0.000404464 0)
(-0.000208464 -0.00022292 0)
(-6.01453e-05 -6.39629e-05 0)
(1.16059e-05 5.62426e-05 0)
(2.59592e-05 0.000115788 0)
(1.08699e-05 8.36602e-05 0)
(3.98598e-06 -8.67447e-05 0)
(-1.31478e-05 -7.88965e-05 0)
(-9.22649e-05 5.07192e-05 0)
(-0.000254396 0.000260439 0)
(-0.000515355 0.000520904 0)
(-0.00088557 0.000810083 0)
(-0.0013706 0.0011116 0)
(-0.00197206 0.00141349 0)
(-0.00268836 0.00170704 0)
(-0.00351539 0.00198599 0)
(-0.00444706 0.00224584 0)
(-0.00547576 0.00248346 0)
(-0.00659274 0.00269669 0)
(-0.00778846 0.00288416 0)
(-0.00905279 0.00304503 0)
(-0.0103753 0.00317893 0)
(-0.0117452 0.00328583 0)
(-0.0131519 0.00336596 0)
(-0.0145846 0.00341975 0)
(-0.0160329 0.00344779 0)
(-0.0174863 0.00345082 0)
(-0.0189349 0.00342968 0)
(-0.0203688 0.00338526 0)
(-0.0217788 0.00331854 0)
(-0.0231556 0.00323056 0)
(-0.0244908 0.00312239 0)
(-0.0257762 0.00299513 0)
(-0.0270041 0.00284991 0)
(-0.0281672 0.00268789 0)
(-0.0292587 0.00251025 0)
(-0.0302723 0.00231818 0)
(-0.0312024 0.0021129 0)
(-0.0320435 0.00189565 0)
(-0.032791 0.00166767 0)
(-0.0334406 0.00143023 0)
(-0.0339887 0.00118463 0)
(-0.0344321 0.000932163 0)
(-0.0347683 0.000674164 0)
(-0.0349952 0.000411979 0)
(-0.0351114 0.00014698 0)
(-0.035116 -0.000119441 0)
(-0.0350088 -0.000385871 0)
(-0.0347901 -0.000650874 0)
(-0.0344608 -0.000912995 0)
(-0.0340225 -0.00117076 0)
(-0.0334774 -0.00142268 0)
(-0.0328282 -0.00166726 0)
(-0.0320784 -0.00190298 0)
(-0.031232 -0.00212833 0)
(-0.0302937 -0.0023418 0)
(-0.0292687 -0.00254188 0)
(-0.028163 -0.00272707 0)
(-0.0269831 -0.00289592 0)
(-0.0257361 -0.00304699 0)
(-0.0244296 -0.00317888 0)
(-0.0230719 -0.00329024 0)
(-0.0216717 -0.00337981 0)
(-0.0202383 -0.00344637 0)
(-0.0187813 -0.00348881 0)
(-0.0173109 -0.00350614 0)
(-0.0158374 -0.00349746 0)
(-0.0143717 -0.00346204 0)
(-0.0129246 -0.00339931 0)
(-0.0115073 -0.00330889 0)
(-0.0101308 -0.00319063 0)
(-0.00880632 -0.00304464 0)
(-0.00754464 -0.00287137 0)
(-0.00635627 -0.00267164 0)
(-0.00525122 -0.00244677 0)
(-0.00423871 -0.00219864 0)
(-0.00332697 -0.00192995 0)
(-0.00252293 -0.00164436 0)
(-0.0018318 -0.00134685 0)
(-0.00125666 -0.00104412 0)
(-0.000797931 -0.000745202 0)
(-0.000452752 -0.000462224 0)
(-0.00021429 -0.000211477 0)
(-7.09094e-05 -1.45473e-05 0)
(-5.37423e-06 0.00010017 0)
(5.22852e-06 9.28692e-05 0)
(-2.69262e-06 -7.33941e-05 0)
(-5.10303e-05 -6.61635e-06 0)
(-0.000192075 0.000206334 0)
(-0.000439014 0.000517182 0)
(-0.000803935 0.000891031 0)
(-0.00129582 0.001301 0)
(-0.00191916 0.00172652 0)
(-0.00267465 0.00215213 0)
(-0.00355996 0.00256625 0)
(-0.00457021 0.00296029 0)
(-0.00569845 0.00332794 0)
(-0.00693611 0.00366466 0)
(-0.00827337 0.00396725 0)
(-0.00969947 0.00423357 0)
(-0.011203 0.00446228 0)
(-0.012772 0.00465268 0)
(-0.0143944 0.00480457 0)
(-0.0160579 0.00491817 0)
(-0.0177503 0.00499398 0)
(-0.0194594 0.00503277 0)
(-0.0211734 0.00503552 0)
(-0.0228806 0.00500335 0)
(-0.0245697 0.00493754 0)
(-0.0262298 0.00483943 0)
(-0.0278505 0.0047105 0)
(-0.0294217 0.00455226 0)
(-0.0309338 0.00436629 0)
(-0.032378 0.00415422 0)
(-0.0337457 0.00391772 0)
(-0.035029 0.00365849 0)
(-0.0362206 0.00337828 0)
(-0.0373137 0.00307884 0)
(-0.0383022 0.00276197 0)
(-0.0391804 0.00242949 0)
(-0.0399436 0.00208326 0)
(-0.0405873 0.00172516 0)
(-0.0411079 0.00135708 0)
(-0.0415025 0.00098098 0)
(-0.0417686 0.000598819 0)
(-0.0419046 0.0002126 0)
(-0.0419095 -0.000175647 0)
(-0.0417831 -0.000563859 0)
(-0.0415256 -0.000949946 0)
(-0.0411383 -0.00133179 0)
(-0.0406229 -0.00170724 0)
(-0.0399821 -0.00207415 0)
(-0.039219 -0.00243032 0)
(-0.0383378 -0.00277356 0)
(-0.037343 -0.0031017 0)
(-0.0362403 -0.00341252 0)
(-0.0350358 -0.00370386 0)
(-0.0337363 -0.00397357 0)
(-0.0323495 -0.00421954 0)
(-0.0308836 -0.00443969 0)
(-0.0293477 -0.00463203 0)
(-0.0277511 -0.00479463 0)
(-0.0261042 -0.00492569 0)
(-0.0244176 -0.00502348 0)
(-0.0227026 -0.00508644 0)
(-0.0209708 -0.00511317 0)
(-0.0192342 -0.00510244 0)
(-0.0175054 -0.00505325 0)
(-0.0157968 -0.00496485 0)
(-0.0141212 -0.00483679 0)
(-0.0124913 -0.00466894 0)
(-0.0109199 -0.00446159 0)
(-0.00941923 -0.00421548 0)
(-0.00800125 -0.00393194 0)
(-0.00667728 -0.00361298 0)
(-0.00545773 -0.00326146 0)
(-0.0043519 -0.00288131 0)
(-0.00336759 -0.00247779 0)
(-0.00251082 -0.00205787 0)
(-0.00178534 -0.00163073 0)
(-0.00119221 -0.00120838 0)
(-0.000729322 -0.000806548 0)
(-0.000390752 -0.000445727 0)
(-0.000166084 -0.000152341 0)
(-4.14347e-05 3.97094e-05 0)
(-1.12269e-06 8.39802e-05 0)
(-9.46095e-06 -3.96938e-05 0)
(-9.06436e-05 0.000117083 0)
(-0.00029768 0.000438485 0)
(-0.000634908 0.000871759 0)
(-0.00110982 0.00137768 0)
(-0.00172926 0.00192531 0)
(-0.00249605 0.0024904 0)
(-0.00340952 0.00305425 0)
(-0.00446621 0.00360255 0)
(-0.00566025 0.0041244 0)
(-0.00698374 0.00461165 0)
(-0.00842711 0.00505827 0)
(-0.0099795 0.00545992 0)
(-0.011629 0.0058136 0)
(-0.0133631 0.00611738 0)
(-0.0151685 0.00637016 0)
(-0.0170319 0.00657154 0)
(-0.0189396 0.00672165 0)
(-0.0208781 0.00682106 0)
(-0.0228337 0.0068707 0)
(-0.0247933 0.00687178 0)
(-0.0267438 0.00682575 0)
(-0.0286724 0.00673425 0)
(-0.0305671 0.00659908 0)
(-0.0324159 0.00642216 0)
(-0.0342077 0.00620551 0)
(-0.0359316 0.00595125 0)
(-0.0375776 0.00566156 0)
(-0.0391361 0.0053387 0)
(-0.0405981 0.00498496 0)
(-0.0419553 0.0046027 0)
(-0.0432002 0.00419431 0)
(-0.0443257 0.00376224 0)
(-0.0453256 0.00330896 0)
(-0.0461942 0.002837 0)
(-0.0469268 0.00234891 0)
(-0.0475193 0.00184729 0)
(-0.0479681 0.00133479 0)
(-0.0482707 0.000814088 0)
(-0.0484252 0.000287913 0)
(-0.0484305 -0.000240969 0)
(-0.0482862 -0.000769752 0)
(-0.0479929 -0.00129559 0)
(-0.0475518 -0.00181561 0)
(-0.0469649 -0.00232688 0)
(-0.0462353 -0.00282649 0)
(-0.0453666 -0.00331146 0)
(-0.0443633 -0.00377883 0)
(-0.0432308 -0.00422563 0)
(-0.0419753 -0.0046489 0)
(-0.0406038 -0.00504571 0)
(-0.039124 -0.00541314 0)
(-0.0375446 -0.00574836 0)
(-0.0358748 -0.00604859 0)
(-0.0341247 -0.00631114 0)
(-0.0323052 -0.00653345 0)
(-0.0304275 -0.00671308 0)
(-0.0285037 -0.00684777 0)
(-0.0265465 -0.00693544 0)
(-0.0245689 -0.00697426 0)
(-0.0225844 -0.00696264 0)
(-0.0206069 -0.00689929 0)
(-0.0186504 -0.00678329 0)
(-0.016729 -0.00661412 0)
(-0.0148571 -0.00639173 0)
(-0.0130486 -0.0061166 0)
(-0.0113173 -0.00578988 0)
(-0.00967624 -0.00541346 0)
(-0.00813807 -0.00499017 0)
(-0.00671429 -0.00452393 0)
(-0.00541519 -0.00402001 0)
(-0.00424957 -0.00348538 0)
(-0.00322433 -0.00292906 0)
(-0.00234413 -0.0023627 0)
(-0.00161106 -0.00180121 0)
(-0.00102424 -0.00126365 0)
(-0.00057922 -0.000774278 0)
(-0.000267503 -0.000363633 0)
(-7.94304e-05 -6.99884e-05 0)
(-7.61031e-06 5.56287e-05 0)
(-1.606e-05 1.46083e-05 0)
(-0.000130434 0.000294017 0)
(-0.000405115 0.000750422 0)
(-0.000835335 0.00132833 0)
(-0.00142355 0.00198534 0)
(-0.00217402 0.00268728 0)
(-0.00308742 0.00340679 0)
(-0.00416135 0.00412232 0)
(-0.00539091 0.00481704 0)
(-0.00676902 0.00547788 0)
(-0.00828664 0.00609487 0)
(-0.00993316 0.00666049 0)
(-0.0116966 0.00716924 0)
(-0.0135641 0.00761722 0)
(-0.0155219 0.00800184 0)
(-0.0175556 0.00832157 0)
(-0.0196507 0.00857575 0)
(-0.0217924 0.00876441 0)
(-0.0239658 0.00888815 0)
(-0.0261561 0.00894806 0)
(-0.0283488 0.00894559 0)
(-0.0305297 0.00888253 0)
(-0.0326848 0.0087609 0)
(-0.0348008 0.00858296 0)
(-0.0368646 0.00835114 0)
(-0.0388639 0.008068 0)
(-0.0407869 0.00773626 0)
(-0.0426223 0.0073587 0)
(-0.0443597 0.00693821 0)
(-0.0459892 0.00647777 0)
(-0.0475016 0.00598041 0)
(-0.0488885 0.00544923 0)
(-0.0501423 0.00488737 0)
(-0.0512559 0.00429806 0)
(-0.0522233 0.00368456 0)
(-0.053039 0.0030502 0)
(-0.0536986 0.00239834 0)
(-0.0541983 0.00173242 0)
(-0.0545351 0.00105592 0)
(-0.054707 0.000372377 0)
(-0.0547128 -0.000314625 0)
(-0.0545522 -0.00100144 0)
(-0.0542256 -0.00168439 0)
(-0.0537345 -0.00235974 0)
(-0.0530812 -0.00302372 0)
(-0.0522689 -0.00367253 0)
(-0.0513017 -0.00430235 0)
(-0.0501847 -0.00490935 0)
(-0.0489237 -0.00548969 0)
(-0.0475255 -0.00603955 0)
(-0.0459979 -0.00655517 0)
(-0.0443495 -0.00703279 0)
(-0.0425896 -0.00746878 0)
(-0.0407286 -0.00785956 0)
(-0.0387776 -0.00820171 0)
(-0.0367482 -0.00849195 0)
(-0.0346532 -0.00872717 0)
(-0.0325057 -0.00890449 0)
(-0.0303196 -0.00902132 0)
(-0.0281091 -0.00907531 0)
(-0.025889 -0.00906452 0)
(-0.0236746 -0.00898737 0)
(-0.0214812 -0.00884275 0)
(-0.0193242 -0.00863009 0)
(-0.0172192 -0.00834943 0)
(-0.0151814 -0.00800152 0)
(-0.0132258 -0.00758792 0)
(-0.0113667 -0.00711119 0)
(-0.00961794 -0.006575 0)
(-0.00799199 -0.0059844 0)
(-0.00650026 -0.00534607 0)
(-0.00515257 -0.00466869 0)
(-0.00395691 -0.00396333 0)
(-0.0029191 -0.00324399 0)
(-0.00204254 -0.00252831 0)
(-0.00132796 -0.00183834 0)
(-0.000772875 -0.00120158 0)
(-0.000371134 -0.000651931 0)
(-0.000117759 -0.000230941 0)
(-1.3959e-05 7.46292e-06 0)
(-2.23811e-05 8.92103e-05 0)
(-0.000169555 0.000524469 0)
(-0.000512006 0.0011433 0)
(-0.00103602 0.00188876 0)
(-0.00173888 0.0027163 0)
(-0.00262199 0.00358925 0)
(-0.00368361 0.00447773 0)
(-0.00491926 0.00535776 0)
(-0.00632238 0.00621026 0)
(-0.00788442 0.00702019 0)
(-0.00959511 0.00777586 0)
(-0.0114426 0.00846834 0)
(-0.0134139 0.00909095 0)
(-0.015495 0.00963891 0)
(-0.017671 0.010109 0)
(-0.0199265 0.0104991 0)
(-0.0222459 0.0108084 0)
(-0.0246131 0.0110368 0)
(-0.0270123 0.0111848 0)
(-0.0294275 0.0112538 0)
(-0.0318431 0.0112454 0)
(-0.0342437 0.0111618 0)
(-0.0366144 0.0110054 0)
(-0.0389406 0.0107789 0)
(-0.0412083 0.0104854 0)
(-0.0434041 0.0101278 0)
(-0.0455153 0.00970972 0)
(-0.0475298 0.00923445 0)
(-0.049436 0.00870561 0)
(-0.0512235 0.0081269 0)
(-0.0528821 0.00750208 0)
(-0.0544028 0.00683502 0)
(-0.0557773 0.00612966 0)
(-0.0569981 0.00539001 0)
(-0.0580584 0.00462017 0)
(-0.0589525 0.00382427 0)
(-0.0596753 0.00300655 0)
(-0.060223 0.00217129 0)
(-0.0605922 0.00132286 0)
(-0.0607808 0.000465664 0)
(-0.0607875 -0.000395796 0)
(-0.0606118 -0.00125698 0)
(-0.0602544 -0.00211327 0)
(-0.0597168 -0.00296001 0)
(-0.0590015 -0.0037925 0)
(-0.0581119 -0.004606 0)
(-0.0570526 -0.00539574 0)
(-0.055829 -0.00615694 0)
(-0.0544475 -0.00688484 0)
(-0.0529154 -0.00757468 0)
(-0.0512411 -0.00822177 0)
(-0.049434 -0.00882148 0)
(-0.0475042 -0.00936926 0)
(-0.0454628 -0.00986072 0)
(-0.0433217 -0.0102916 0)
(-0.0410939 -0.0106578 0)
(-0.0387928 -0.0109557 0)
(-0.0364327 -0.0111815 0)
(-0.0340286 -0.0113322 0)
(-0.0315958 -0.0114048 0)
(-0.0291504 -0.0113972 0)
(-0.0267086 -0.0113072 0)
(-0.024287 -0.0111338 0)
(-0.0219024 -0.0108762 0)
(-0.0195713 -0.0105346 0)
(-0.0173103 -0.0101101 0)
(-0.0151354 -0.00960459 0)
(-0.0130622 -0.00902137 0)
(-0.0111054 -0.008365 0)
(-0.0092789 -0.00764167 0)
(-0.00759506 -0.00685948 0)
(-0.00606491 -0.00602876 0)
(-0.00469766 -0.00516254 0)
(-0.00350052 -0.00427706 0)
(-0.00247848 -0.0033924 0)
(-0.00163417 -0.00253324 0)
(-0.000967369 -0.0017298 0)
(-0.000474541 -0.00101863 0)
(-0.00015554 -0.000443605 0)
(-2.00491e-05 -6.02879e-05 0)
(-2.83899e-05 0.000183538 0)
(-0.000207586 0.000807809 0)
(-0.000616995 0.00161689 0)
(-0.00123434 0.00255335 0)
(-0.00205182 0.00357124 0)
(-0.00306785 0.00463209 0)
(-0.00427807 0.00570404 0)
(-0.00567574 0.00676109 0)
(-0.00725239 0.00778222 0)
(-0.00899789 0.00875065 0)
(-0.0109005 0.00965312 0)
(-0.0129472 0.0104794 0)
(-0.0151236 0.0112217 0)
(-0.0174147 0.0118743 0)
(-0.0198045 0.0124334 0)
(-0.0222765 0.0128965 0)
(-0.0248141 0.0132624 0)
(-0.0274001 0.0135309 0)
(-0.0300177 0.0137026 0)
(-0.0326498 0.0137789 0)
(-0.0352799 0.0137619 0)
(-0.0378914 0.0136539 0)
(-0.0404685 0.0134578 0)
(-0.0429957 0.0131769 0)
(-0.045458 0.0128147 0)
(-0.0478412 0.0123751 0)
(-0.0501316 0.0118619 0)
(-0.0523162 0.0112794 0)
(-0.0543828 0.0106319 0)
(-0.0563201 0.00992386 0)
(-0.0581175 0.00915982 0)
(-0.0597651 0.00834448 0)
(-0.061254 0.00748263 0)
(-0.0625762 0.00657914 0)
(-0.0637246 0.00563897 0)
(-0.064693 0.00466717 0)
(-0.065476 0.00366888 0)
(-0.0660693 0.00264932 0)
(-0.0664696 0.00161378 0)
(-0.0666744 0.000567648 0)
(-0.0666823 -0.000483629 0)
(-0.0664929 -0.00153452 0)
(-0.0661069 -0.00257942 0)
(-0.0655259 -0.00361268 0)
(-0.0647525 -0.00462859 0)
(-0.0637906 -0.00562139 0)
(-0.0626447 -0.0065853 0)
(-0.0613208 -0.00751453 0)
(-0.0598257 -0.00840331 0)
(-0.0581673 -0.0092459 0)
(-0.0563545 -0.0100366 0)
(-0.0543972 -0.0107698 0)
(-0.0523062 -0.0114401 0)
(-0.0500936 -0.012042 0)
(-0.0477719 -0.0125706 0)
(-0.045355 -0.0130209 0)
(-0.0428572 -0.0133884 0)
(-0.0402937 -0.0136688 0)
(-0.0376805 -0.0138583 0)
(-0.0350341 -0.0139536 0)
(-0.0323715 -0.0139518 0)
(-0.02971 -0.0138508 0)
(-0.0270673 -0.013649 0)
(-0.0244613 -0.0133459 0)
(-0.0219097 -0.0129416 0)
(-0.01943 -0.0124375 0)
(-0.0170397 -0.0118361 0)
(-0.0147552 -0.0111412 0)
(-0.0125926 -0.0103583 0)
(-0.0105667 -0.00949481 0)
(-0.00869125 -0.00856009 0)
(-0.00697854 -0.0075661 0)
(-0.00543918 -0.0065277 0)
(-0.00408192 -0.00546315 0)
(-0.00291356 -0.00439472 0)
(-0.00193888 -0.00334937 0)
(-0.00116005 -0.00235951 0)
(-0.00057633 -0.00146373 0)
(-0.000192327 -0.000707501 0)
(-2.58407e-05 -0.0001471 0)
(-3.40913e-05 0.000296901 0)
(-0.000244347 0.00114291 0)
(-0.000719385 0.00217017 0)
(-0.00142885 0.00332134 0)
(-0.00236 0.00454972 0)
(-0.00350828 0.0058156 0)
(-0.00486661 0.00708559 0)
(-0.00642585 0.00833207 0)
(-0.00817549 0.00953242 0)
(-0.0101036 0.0106683 0)
(-0.0121969 0.0117252 0)
(-0.014441 0.0126915 0)
(-0.0168203 0.0135585 0)
(-0.0193185 0.0143198 0)
(-0.0219185 0.0149709 0)
(-0.0246029 0.0155088 0)
(-0.0273537 0.015932 0)
(-0.0301531 0.0162404 0)
(-0.032983 0.0164346 0)
(-0.0358255 0.016516 0)
(-0.038663 0.0164871 0)
(-0.0414783 0.0163505 0)
(-0.0442543 0.0161097 0)
(-0.0469749 0.0157685 0)
(-0.0496241 0.0153309 0)
(-0.0521869 0.0148014 0)
(-0.0546488 0.0141847 0)
(-0.0569962 0.0134857 0)
(-0.0592161 0.0127096 0)
(-0.0612966 0.0118616 0)
(-0.0632263 0.010947 0)
(-0.0649949 0.00997156 0)
(-0.066593 0.00894085 0)
(-0.068012 0.00786068 0)
(-0.0692445 0.00673694 0)
(-0.0702838 0.00557564 0)
(-0.0711244 0.00438288 0)
(-0.0717615 0.00316487 0)
(-0.0721918 0.00192791 0)
(-0.0724125 0.00067838 0)
(-0.0724222 -0.000577222 0)
(-0.0722205 -0.00183233 0)
(-0.071808 -0.00308029 0)
(-0.0711864 -0.00431439 0)
(-0.0703586 -0.00552784 0)
(-0.0693284 -0.00671382 0)
(-0.068101 -0.00786548 0)
(-0.0666823 -0.00897594 0)
(-0.0650798 -0.0100384 0)
(-0.0633015 -0.0110459 0)
(-0.0613571 -0.0119919 0)
(-0.0592569 -0.0128697 0)
(-0.0570124 -0.0136729 0)
(-0.0546363 -0.014395 0)
(-0.0521419 -0.0150302 0)
(-0.0495436 -0.0155726 0)
(-0.0468568 -0.016017 0)
(-0.0440976 -0.0163582 0)
(-0.0412827 -0.0165918 0)
(-0.0384296 -0.016714 0)
(-0.0355563 -0.0167213 0)
(-0.0326812 -0.0166114 0)
(-0.0298229 -0.0163825 0)
(-0.0270004 -0.0160339 0)
(-0.0242324 -0.0155659 0)
(-0.0215378 -0.0149801 0)
(-0.0189347 -0.0142795 0)
(-0.0164412 -0.0134685 0)
(-0.0140742 -0.0125536 0)
(-0.0118499 -0.011543 0)
(-0.00978338 -0.0104476 0)
(-0.00788827 -0.00928083 0)
(-0.00617672 -0.00805914 0)
(-0.00465923 -0.00680264 0)
(-0.00334455 -0.00553553 0)
(-0.00223972 -0.00428666 0)
(-0.00134946 -0.00309026 0)
(-0.000675789 -0.00198642 0)
(-0.000227933 -0.00102164 0)
(-3.13343e-05 -0.000252327 0)
(-3.95064e-05 0.000428582 0)
(-0.00027981 0.00152841 0)
(-0.000818892 0.00280161 0)
(-0.00161881 0.00419134 0)
(-0.00266215 0.00565059 0)
(-0.00394141 0.00713883 0)
(-0.00544676 0.00862158 0)
(-0.0071666 0.0100699 0)
(-0.00908827 0.01146 0)
(-0.011198 0.0127721 0)
(-0.0134807 0.0139906 0)
(-0.0159206 0.0151028 0)
(-0.0185008 0.0160992 0)
(-0.0212036 0.0169725 0)
(-0.0240109 0.0177178 0)
(-0.0269041 0.0183317 0)
(-0.0298643 0.0188127 0)
(-0.0328725 0.0191602 0)
(-0.0359099 0.0193751 0)
(-0.0389575 0.0194591 0)
(-0.0419969 0.0194147 0)
(-0.0450098 0.0192452 0)
(-0.0479787 0.0189544 0)
(-0.0508863 0.0185467 0)
(-0.053716 0.0180268 0)
(-0.056452 0.0173998 0)
(-0.0590792 0.0166713 0)
(-0.0615833 0.0158468 0)
(-0.0639506 0.0149323 0)
(-0.0661685 0.013934 0)
(-0.0682253 0.0128581 0)
(-0.07011 0.0117112 0)
(-0.0718129 0.0104998 0)
(-0.073325 0.00923071 0)
(-0.0746382 0.00791078 0)
(-0.0757458 0.00654704 0)
(-0.0766418 0.0051466 0)
(-0.0773215 0.00371671 0)
(-0.0777809 0.00226472 0)
(-0.0780175 0.000798083 0)
(-0.0780297 -0.000675621 0)
(-0.0778169 -0.00214873 0)
(-0.0773799 -0.0036135 0)
(-0.0767204 -0.00506207 0)
(-0.0758414 -0.00648655 0)
(-0.0747469 -0.00787899 0)
(-0.0734422 -0.00923139 0)
(-0.0719337 -0.0105358 0)
(-0.0702289 -0.0117841 0)
(-0.0683365 -0.0129686 0)
(-0.0662665 -0.0140813 0)
(-0.0640297 -0.0151145 0)
(-0.0616381 -0.0160607 0)
(-0.059105 -0.0169126 0)
(-0.0564443 -0.0176633 0)
(-0.0536713 -0.018306 0)
(-0.050802 -0.0188344 0)
(-0.0478532 -0.019243 0)
(-0.0448425 -0.0195263 0)
(-0.0417884 -0.01968 0)
(-0.0387096 -0.0197003 0)
(-0.0356255 -0.0195842 0)
(-0.0325559 -0.0193299 0)
(-0.0295205 -0.0189364 0)
(-0.0265394 -0.0184043 0)
(-0.0236323 -0.0177352 0)
(-0.0208187 -0.0169327 0)
(-0.0181177 -0.0160018 0)
(-0.0155474 -0.0149496 0)
(-0.0131255 -0.0137856 0)
(-0.0108683 -0.0125218 0)
(-0.00879109 -0.0111728 0)
(-0.0069076 -0.00975671 0)
(-0.00523019 -0.00829529 0)
(-0.0037697 -0.00681435 0)
(-0.00253551 -0.00534436 0)
(-0.00153491 -0.00392098 0)
(-0.00077265 -0.00258541 0)
(-0.000262327 -0.00138479 0)
(-3.65509e-05 -0.000375294 0)
(-4.46659e-05 0.000577891 0)
(-0.000314026 0.00196287 0)
(-0.000915499 0.00350948 0)
(-0.00180403 0.0051616 0)
(-0.00295777 0.00687223 0)
(-0.00436637 0.00860037 0)
(-0.0060173 0.0103108 0)
(-0.00789645 0.0119736 0)
(-0.00998892 0.0135638 0)
(-0.0122789 0.0150608 0)
(-0.0147498 0.0164479 0)
(-0.0173841 0.0177116 0)
(-0.0201633 0.0188415 0)
(-0.0230687 0.01983 0)
(-0.0260809 0.0206714 0)
(-0.0291801 0.0213622 0)
(-0.0323464 0.0219005 0)
(-0.03556 0.022286 0)
(-0.0388008 0.0225196 0)
(-0.0420492 0.0226031 0)
(-0.0452858 0.0225395 0)
(-0.0484917 0.0223324 0)
(-0.0516483 0.0219862 0)
(-0.0547377 0.0215058 0)
(-0.0577426 0.0208967 0)
(-0.0606467 0.0201647 0)
(-0.0634339 0.019316 0)
(-0.0660895 0.0183571 0)
(-0.0685992 0.0172949 0)
(-0.07095 0.0161363 0)
(-0.0731295 0.0148886 0)
(-0.0751264 0.0135592 0)
(-0.0769305 0.0121558 0)
(-0.0785323 0.010686 0)
(-0.0799237 0.00915782 0)
(-0.0810975 0.00757927 0)
(-0.0820474 0.00595854 0)
(-0.0827684 0.00430395 0)
(-0.0832567 0.00262396 0)
(-0.0835093 0.000927137 0)
(-0.0835247 -0.000777818 0)
(-0.0833022 -0.0024821 0)
(-0.0828426 -0.0041768 0)
(-0.0821476 -0.00585291 0)
(-0.0812203 -0.00750136 0)
(-0.080065 -0.00911302 0)
(-0.0786869 -0.0106787 0)
(-0.0770928 -0.0121893 0)
(-0.0752905 -0.0136355 0)
(-0.073289 -0.0150084 0)
(-0.0710985 -0.0162989 0)
(-0.0687304 -0.0174981 0)
(-0.0661973 -0.0185976 0)
(-0.0635127 -0.0195888 0)
(-0.0606913 -0.0204639 0)
(-0.057749 -0.021215 0)
(-0.0547024 -0.0218352 0)
(-0.051569 -0.0223177 0)
(-0.0483674 -0.0226567 0)
(-0.0451166 -0.022847 0)
(-0.0418364 -0.0228842 0)
(-0.0385471 -0.0227652 0)
(-0.0352693 -0.0224875 0)
(-0.0320239 -0.0220504 0)
(-0.0288319 -0.0214542 0)
(-0.0257142 -0.0207009 0)
(-0.0226915 -0.0197942 0)
(-0.019784 -0.0187398 0)
(-0.0170112 -0.0175457 0)
(-0.0143922 -0.0162221 0)
(-0.0119448 -0.0147821 0)
(-0.00968571 -0.0132416 0)
(-0.00763067 -0.01162 0)
(-0.00579389 -0.00994052 0)
(-0.00418837 -0.00823036 0)
(-0.00282588 -0.00652135 0)
(-0.00171628 -0.0048503 0)
(-0.000866929 -0.00325925 0)
(-0.000295575 -0.00179567 0)
(-4.15215e-05 -0.000515354 0)
(-4.96007e-05 0.00074419 0)
(-0.000347098 0.00244489 0)
(-0.00100935 0.004292 0)
(-0.00198462 0.00623026 0)
(-0.00324688 0.00821285 0)
(-0.00478305 0.0101986 0)
(-0.00657793 0.0121516 0)
(-0.0086149 0.0140415 0)
(-0.0108768 0.0158425 0)
(-0.0133459 0.017533 0)
(-0.0160036 0.0190957 0)
(-0.0188307 0.0205163 0)
(-0.0218075 0.0217838 0)
(-0.0249137 0.0228901 0)
(-0.0281287 0.0238292 0)
(-0.0314317 0.0245973 0)
(-0.0348016 0.0251926 0)
(-0.0382175 0.0256146 0)
(-0.0416586 0.0258643 0)
(-0.0451043 0.0259441 0)
(-0.0485344 0.0258572 0)
(-0.0519292 0.0256076 0)
(-0.0552694 0.0252004 0)
(-0.0585363 0.0246411 0)
(-0.0617122 0.0239358 0)
(-0.0647799 0.0230911 0)
(-0.0677229 0.0221141 0)
(-0.0705258 0.0210121 0)
(-0.0731739 0.0197929 0)
(-0.0756537 0.0184643 0)
(-0.0779523 0.0170346 0)
(-0.0800581 0.0155122 0)
(-0.0819604 0.0139057 0)
(-0.0836495 0.012224 0)
(-0.085117 0.0104759 0)
(-0.0863552 0.0086707 0)
(-0.0873578 0.00681759 0)
(-0.0881196 0.00492603 0)
(-0.0886365 0.00300561 0)
(-0.0889055 0.00106607 0)
(-0.0889249 -0.000882742 0)
(-0.0886941 -0.00283083 0)
(-0.0882137 -0.00476809 0)
(-0.0874855 -0.00668431 0)
(-0.0865128 -0.0085692 0)
(-0.0852997 -0.0104124 0)
(-0.0838518 -0.0122035 0)
(-0.082176 -0.0139322 0)
(-0.0802803 -0.015588 0)
(-0.078174 -0.0171606 0)
(-0.0758676 -0.0186398 0)
(-0.073373 -0.0200157 0)