/*--------------------------------*- C++ -*----------------------------------*\
  =========                 |
  \\      /  F ield         | OpenFOAM: The Open Source CFD Toolbox
   \\    /   O peration     | Website:  https://openfoam.org
    \\  /    A nd           | Version:  7
     \\/     M anipulation  |
\*---------------------------------------------------------------------------*/
FoamFile
{
    version     2.0;
    format      ascii;
    class       volVectorField;
    location    "0.45";
    object      U;
}
// * * * * * * * * * * * * * * * * * * * * * * * * * * * * * * * * * * * * * //

dimensions      [0 1 -1 0 0 0 0];

internalField   nonuniform List<vector> 
25600
(
(1.22737e-06 -1.27605e-06 0)
(4.65915e-06 -2.14773e-06 0)
(8.37556e-06 -1.79577e-06 0)
(1.01615e-05 -9.05914e-07 0)
(8.94742e-06 1.7751e-07 0)
(4.45578e-06 1.28989e-06 0)
(-3.32783e-06 2.35171e-06 0)
(-1.42713e-05 3.33485e-06 0)
(-2.8163e-05 4.22733e-06 0)
(-4.47641e-05 5.02656e-06 0)
(-6.38211e-05 5.73258e-06 0)
(-8.50832e-05 6.35187e-06 0)
(-0.00010831 6.89426e-06 0)
(-0.000133278 7.36839e-06 0)
(-0.000159778 7.78055e-06 0)
(-0.000187616 8.13492e-06 0)
(-0.000216615 8.43613e-06 0)
(-0.000246616 8.68982e-06 0)
(-0.000277473 8.9023e-06 0)
(-0.000309058 9.08022e-06 0)
(-0.000341254 9.22792e-06 0)
(-0.000373957 9.34746e-06 0)
(-0.000407076 9.44131e-06 0)
(-0.000440527 9.51272e-06 0)
(-0.00047424 9.56516e-06 0)
(-0.000508149 9.60199e-06 0)
(-0.000542199 9.62534e-06 0)
(-0.00057634 9.63616e-06 0)
(-0.000610528 9.63567e-06 0)
(-0.000644724 9.62557e-06 0)
(-0.000678894 9.60729e-06 0)
(-0.000713007 9.58188e-06 0)
(-0.000747037 9.55021e-06 0)
(-0.000780959 9.51275e-06 0)
(-0.000814751 9.46982e-06 0)
(-0.000848391 9.422e-06 0)
(-0.000881862 9.36996e-06 0)
(-0.000915144 9.31405e-06 0)
(-0.000948221 9.25389e-06 0)
(-0.000981076 9.18895e-06 0)
(-0.00101369 9.11923e-06 0)
(-0.00104605 9.04546e-06 0)
(-0.00107813 8.96815e-06 0)
(-0.00110993 8.88671e-06 0)
(-0.00114141 8.79986e-06 0)
(-0.00117257 8.70683e-06 0)
(-0.00120337 8.60788e-06 0)
(-0.00123381 8.50364e-06 0)
(-0.00126385 8.39404e-06 0)
(-0.00129348 8.27823e-06 0)
(-0.00132267 8.15506e-06 0)
(-0.00135139 8.02383e-06 0)
(-0.00137963 7.88448e-06 0)
(-0.00140734 7.73722e-06 0)
(-0.0014345 7.58203e-06 0)
(-0.00146108 7.41831e-06 0)
(-0.00148704 7.24514e-06 0)
(-0.00151237 7.06176e-06 0)
(-0.00153701 6.86788e-06 0)
(-0.00156093 6.66362e-06 0)
(-0.0015841 6.44906e-06 0)
(-0.00160649 6.22386e-06 0)
(-0.00162804 5.98733e-06 0)
(-0.00164873 5.73886e-06 0)
(-0.0016685 5.47823e-06 0)
(-0.00168733 5.20557e-06 0)
(-0.00170517 4.921e-06 0)
(-0.00172197 4.62441e-06 0)
(-0.0017377 4.3155e-06 0)
(-0.00175231 3.9941e-06 0)
(-0.00176577 3.66018e-06 0)
(-0.00177803 3.31398e-06 0)
(-0.00178904 2.95578e-06 0)
(-0.00179878 2.58575e-06 0)
(-0.00180719 2.20408e-06 0)
(-0.00181424 1.81095e-06 0)
(-0.0018199 1.40673e-06 0)
(-0.00182412 9.91982e-07 0)
(-0.00182688 5.6723e-07 0)
(-0.00182813 1.32995e-07 0)
(-0.00182785 -3.10104e-07 0)
(-0.00182602 -7.61324e-07 0)
(-0.00182259 -1.21976e-06 0)
(-0.00181757 -1.68454e-06 0)
(-0.00181091 -2.1549e-06 0)
(-0.00180261 -2.62997e-06 0)
(-0.00179266 -3.10865e-06 0)
(-0.00178104 -3.58963e-06 0)
(-0.00176775 -4.0716e-06 0)
(-0.00175279 -4.55344e-06 0)
(-0.00173615 -5.03406e-06 0)
(-0.00171786 -5.51222e-06 0)
(-0.00169792 -5.98644e-06 0)
(-0.00167634 -6.45518e-06 0)
(-0.00165315 -6.91693e-06 0)
(-0.00162838 -7.37034e-06 0)
(-0.00160205 -7.81408e-06 0)
(-0.0015742 -8.2467e-06 0)
(-0.00154487 -8.6667e-06 0)
(-0.00151411 -9.07263e-06 0)
(-0.00148196 -9.46302e-06 0)
(-0.00144849 -9.83639e-06 0)
(-0.00141375 -1.01913e-05 0)
(-0.0013778 -1.05265e-05 0)
(-0.00134072 -1.08408e-05 0)
(-0.00130258 -1.11334e-05 0)
(-0.00126345 -1.14027e-05 0)
(-0.00122341 -1.16473e-05 0)
(-0.00118255 -1.18663e-05 0)
(-0.00114096 -1.20588e-05 0)
(-0.00109873 -1.22246e-05 0)
(-0.00105594 -1.2363e-05 0)
(-0.0010127 -1.24729e-05 0)
(-0.000969104 -1.25535e-05 0)
(-0.000925245 -1.26042e-05 0)
(-0.000881228 -1.26251e-05 0)
(-0.000837153 -1.26164e-05 0)
(-0.000793123 -1.25781e-05 0)
(-0.000749239 -1.25096e-05 0)
(-0.000705604 -1.24109e-05 0)
(-0.000662321 -1.22821e-05 0)
(-0.000619491 -1.21238e-05 0)
(-0.000577214 -1.19366e-05 0)
(-0.00053559 -1.17209e-05 0)
(-0.000494716 -1.1477e-05 0)
(-0.000454688 -1.12056e-05 0)
(-0.000415601 -1.09074e-05 0)
(-0.000377545 -1.0583e-05 0)
(-0.00034061 -1.02333e-05 0)
(-0.000304883 -9.85914e-06 0)
(-0.000270447 -9.46163e-06 0)
(-0.000237382 -9.04176e-06 0)
(-0.000205765 -8.60043e-06 0)
(-0.000175671 -8.1385e-06 0)
(-0.000147169 -7.65701e-06 0)
(-0.000120326 -7.15711e-06 0)
(-9.52049e-05 -6.63998e-06 0)
(-7.18629e-05 -6.10681e-06 0)
(-5.03545e-05 -5.55886e-06 0)
(-3.07287e-05 -4.99753e-06 0)
(-1.30292e-05 -4.42427e-06 0)
(2.70584e-06 -3.84039e-06 0)
(1.64445e-05 -3.24729e-06 0)
(2.81621e-05 -2.64678e-06 0)
(3.78424e-05 -2.04183e-06 0)
(4.54793e-05 -1.43557e-06 0)
(5.10784e-05 -8.31254e-07 0)
(5.46593e-05 -2.32307e-07 0)
(5.62589e-05 3.56527e-07 0)
(5.59369e-05 9.27952e-07 0)
(5.37811e-05 1.47166e-06 0)
(4.99162e-05 1.97379e-06 0)
(4.45162e-05 2.41638e-06 0)
(3.78192e-05 2.77388e-06 0)
(3.01526e-05 3.00711e-06 0)
(2.19677e-05 3.05662e-06 0)
(1.38782e-05 2.83706e-06 0)
(6.70178e-06 2.22993e-06 0)
(1.54829e-06 1.12211e-06 0)
(-1.80988e-07 -1.79897e-07 0)
(2.08807e-06 -4.64667e-06 0)
(6.77452e-06 -6.83438e-06 0)
(1.00545e-05 -4.38346e-06 0)
(8.18738e-06 4.49652e-07 0)
(-8.15021e-07 6.37296e-06 0)
(-1.77792e-05 1.26441e-05 0)
(-4.29366e-05 1.88445e-05 0)
(-7.61443e-05 2.47542e-05 0)
(-0.000117032 3.02569e-05 0)
(-0.000165099 3.53012e-05 0)
(-0.000219778 3.98698e-05 0)
(-0.00028048 4.39692e-05 0)
(-0.000346616 4.76203e-05 0)
(-0.00041762 5.08505e-05 0)
(-0.000492949 5.36912e-05 0)
(-0.000572096 5.61727e-05 0)
(-0.000654591 5.83245e-05 0)
(-0.000739999 6.01759e-05 0)
(-0.000827928 6.17562e-05 0)
(-0.000918016 6.30942e-05 0)
(-0.00100994 6.42165e-05 0)
(-0.00110341 6.51459e-05 0)
(-0.00119815 6.59022e-05 0)
(-0.00129394 6.65038e-05 0)
(-0.00139056 6.69691e-05 0)
(-0.00148783 6.73151e-05 0)
(-0.00158558 6.7556e-05 0)
(-0.00168366 6.77033e-05 0)
(-0.00178194 6.77674e-05 0)
(-0.0018803 6.77579e-05 0)
(-0.00197864 6.76831e-05 0)
(-0.00207686 6.75506e-05 0)
(-0.00217488 6.73661e-05 0)
(-0.00227263 6.71344e-05 0)
(-0.00237002 6.6859e-05 0)
(-0.002467 6.65432e-05 0)
(-0.00256351 6.61898e-05 0)
(-0.00265948 6.58011e-05 0)
(-0.00275487 6.53779e-05 0)
(-0.00284962 6.49201e-05 0)
(-0.00294367 6.44272e-05 0)
(-0.00303698 6.38997e-05 0)
(-0.00312949 6.3338e-05 0)
(-0.00322115 6.27409e-05 0)
(-0.00331189 6.2106e-05 0)
(-0.00340167 6.14311e-05 0)
(-0.00349042 6.07145e-05 0)
(-0.00357808 5.99552e-05 0)
(-0.00366459 5.91515e-05 0)
(-0.00374988 5.8301e-05 0)
(-0.00383387 5.74007e-05 0)
(-0.00391649 5.64475e-05 0)
(-0.00399766 5.54391e-05 0)
(-0.00407731 5.43736e-05 0)
(-0.00415535 5.32488e-05 0)
(-0.00423168 5.20625e-05 0)
(-0.00430623 5.08118e-05 0)
(-0.00437889 4.94938e-05 0)
(-0.00444956 4.81062e-05 0)
(-0.00451815 4.66471e-05 0)
(-0.00458456 4.51149e-05 0)
(-0.00464867 4.3508e-05 0)
(-0.00471038 4.18243e-05 0)
(-0.00476957 4.00619e-05 0)
(-0.00482614 3.82194e-05 0)
(-0.00487997 3.62958e-05 0)
(-0.00493095 3.42905e-05 0)
(-0.00497895 3.22033e-05 0)
(-0.00502387 3.00336e-05 0)
(-0.00506558 2.77814e-05 0)
(-0.00510397 2.54468e-05 0)
(-0.00513892 2.30306e-05 0)
(-0.00517033 2.05339e-05 0)
(-0.00519807 1.79583e-05 0)
(-0.00522204 1.53056e-05 0)
(-0.00524213 1.25779e-05 0)
(-0.00525824 9.77777e-06 0)
(-0.00527026 6.90839e-06 0)
(-0.00527811 3.9733e-06 0)
(-0.0052817 9.76446e-07 0)
(-0.00528094 -2.07772e-06 0)
(-0.00527575 -5.18432e-06 0)
(-0.00526607 -8.338e-06 0)
(-0.00525184 -1.1533e-05 0)
(-0.005233 -1.47632e-05 0)
(-0.00520951 -1.80222e-05 0)
(-0.00518133 -2.13028e-05 0)
(-0.00514845 -2.45974e-05 0)
(-0.00511084 -2.78982e-05 0)
(-0.00506851 -3.11971e-05 0)
(-0.00502147 -3.44857e-05 0)
(-0.00496974 -3.77555e-05 0)
(-0.00491334 -4.09973e-05 0)
(-0.00485234 -4.42019e-05 0)
(-0.00478679 -4.73598e-05 0)
(-0.00471676 -5.04616e-05 0)
(-0.00464234 -5.34978e-05 0)
(-0.00456362 -5.64588e-05 0)
(-0.00448073 -5.93351e-05 0)
(-0.00439379 -6.2117e-05 0)
(-0.00430294 -6.47953e-05 0)
(-0.00420833 -6.73606e-05 0)
(-0.00411013 -6.98039e-05 0)
(-0.00400851 -7.21164e-05 0)
(-0.00390368 -7.42897e-05 0)
(-0.00379581 -7.63162e-05 0)
(-0.00368514 -7.81881e-05 0)
(-0.00357189 -7.9898e-05 0)
(-0.00345628 -8.14392e-05 0)
(-0.00333855 -8.28055e-05 0)
(-0.00321897 -8.39916e-05 0)
(-0.00309778 -8.4993e-05 0)
(-0.00297525 -8.58052e-05 0)
(-0.00285165 -8.6424e-05 0)
(-0.00272725 -8.68463e-05 0)
(-0.00260234 -8.70698e-05 0)
(-0.00247719 -8.7093e-05 0)
(-0.00235209 -8.69153e-05 0)
(-0.00222732 -8.65359e-05 0)
(-0.00210317 -8.59549e-05 0)
(-0.00197993 -8.51731e-05 0)
(-0.00185787 -8.41922e-05 0)
(-0.00173729 -8.30143e-05 0)
(-0.00161844 -8.16423e-05 0)
(-0.00150163 -8.00791e-05 0)
(-0.0013871 -7.83287e-05 0)
(-0.00127512 -7.63951e-05 0)
(-0.00116596 -7.4283e-05 0)
(-0.00105987 -7.19974e-05 0)
(-0.000957088 -6.95436e-05 0)
(-0.000857852 -6.69278e-05 0)
(-0.00076239 -6.41562e-05 0)
(-0.000670923 -6.12355e-05 0)
(-0.00058366 -5.81724e-05 0)
(-0.000500801 -5.4974e-05 0)
(-0.000422535 -5.16481e-05 0)
(-0.00034904 -4.82027e-05 0)
(-0.00028048 -4.46466e-05 0)
(-0.00021701 -4.09889e-05 0)
(-0.000158765 -3.72398e-05 0)
(-0.000105868 -3.34101e-05 0)
(-5.84245e-05 -2.95121e-05 0)
(-1.6519e-05 -2.55591e-05 0)
(1.97857e-05 -2.15668e-05 0)
(5.04529e-05 -1.75534e-05 0)
(7.5477e-05 -1.35416e-05 0)
(9.48877e-05 -9.55788e-06 0)
(0.000108758 -5.63414e-06 0)
(0.000117214 -1.80975e-06 0)
(0.000120446 1.86487e-06 0)
(0.000118727 5.3241e-06 0)
(0.000112429 8.48362e-06 0)
(0.000102052 1.12332e-05 0)
(8.82535e-05 1.34275e-05 0)
(7.18935e-05 1.48726e-05 0)
(5.40806e-05 1.53135e-05 0)
(3.61959e-05 1.44299e-05 0)
(1.98888e-05 1.1852e-05 0)
(7.29096e-06 7.30849e-06 0)
(1.11465e-06 1.54633e-06 0)
(1.80204e-06 -8.38191e-06 0)
(4.40871e-06 -1.0092e-05 0)
(2.61672e-06 -2.60539e-06 0)
(-7.44233e-06 1.00487e-05 0)
(-2.80392e-05 2.53589e-05 0)
(-6.02744e-05 4.17181e-05 0)
(-0.000104536 5.81218e-05 0)
(-0.000160722 7.39662e-05 0)
(-0.000228399 8.8904e-05 0)
(-0.000306928 0.000102751 0)
(-0.000395551 0.000115423 0)
(-0.000493449 0.000126903 0)
(-0.000599789 0.000137214 0)
(-0.000713745 0.000146407 0)
(-0.000834523 0.000154546 0)
(-0.000961367 0.000161704 0)
(-0.00109356 0.000167958 0)
(-0.00123046 0.00017338 0)
(-0.00137143 0.000178044 0)
(-0.00151594 0.000182024 0)
(-0.00166347 0.000185386 0)
(-0.00181355 0.000188194 0)
(-0.00196578 0.000190503 0)
(-0.00211977 0.000192367 0)
(-0.00227519 0.000193834 0)
(-0.00243173 0.000194949 0)
(-0.00258913 0.000195749 0)
(-0.00274713 0.000196271 0)
(-0.00290552 0.000196544 0)
(-0.00306411 0.000196596 0)
(-0.00322272 0.000196449 0)
(-0.00338119 0.000196125 0)
(-0.00353938 0.000195641 0)
(-0.00369716 0.000195011 0)
(-0.0038544 0.000194246 0)
(-0.00401101 0.000193356 0)
(-0.00416686 0.000192349 0)
(-0.00432187 0.000191231 0)
(-0.00447593 0.000190005 0)
(-0.00462896 0.000188673 0)
(-0.00478087 0.000187235 0)
(-0.00493157 0.000185691 0)
(-0.00508096 0.00018404 0)
(-0.00522896 0.000182281 0)
(-0.00537546 0.000180408 0)
(-0.00552039 0.000178418 0)
(-0.00566362 0.000176306 0)
(-0.00580507 0.000174066 0)
(-0.00594463 0.000171693 0)
(-0.00608218 0.000169182 0)
(-0.00621761 0.000166525 0)
(-0.00635079 0.000163716 0)
(-0.00648161 0.000160747 0)
(-0.00660992 0.000157613 0)
(-0.0067356 0.000154306 0)
(-0.0068585 0.000150821 0)
(-0.00697848 0.00014715 0)
(-0.00709538 0.000143286 0)
(-0.00720905 0.000139224 0)
(-0.00731933 0.000134958 0)
(-0.00742605 0.000130481 0)
(-0.00752905 0.000125791 0)
(-0.00762815 0.00012088 0)
(-0.00772318 0.000115747 0)
(-0.00781396 0.000110386 0)
(-0.00790031 0.000104796 0)
(-0.00798205 9.89728e-05 0)
(-0.00805899 9.29169e-05 0)
(-0.00813096 8.66274e-05 0)
(-0.00819776 8.01044e-05 0)
(-0.00825921 7.33492e-05 0)
(-0.00831514 6.6364e-05 0)
(-0.00836537 5.91518e-05 0)
(-0.00840972 5.17171e-05 0)
(-0.00844801 4.40653e-05 0)
(-0.00848009 3.6203e-05 0)
(-0.00850578 2.81379e-05 0)
(-0.00852495 1.98788e-05 0)
(-0.00853743 1.14359e-05 0)
(-0.0085431 2.82067e-06 0)
(-0.00854182 -5.95435e-06 0)
(-0.00853348 -1.48752e-05 0)
(-0.00851797 -2.39268e-05 0)
(-0.0084952 -3.30927e-05 0)
(-0.00846508 -4.23554e-05 0)
(-0.00842756 -5.16961e-05 0)
(-0.00838257 -6.10951e-05 0)
(-0.0083301 -7.05313e-05 0)
(-0.0082701 -7.99827e-05 0)
(-0.0082026 -8.94263e-05 0)
(-0.00812759 -9.88383e-05 0)
(-0.00804513 -0.000108194 0)
(-0.00795527 -0.000117469 0)
(-0.00785807 -0.000126637 0)
(-0.00775365 -0.000135671 0)
(-0.00764211 -0.000144546 0)
(-0.00752359 -0.000153234 0)
(-0.00739826 -0.000161707 0)
(-0.00726628 -0.000169941 0)
(-0.00712786 -0.000177907 0)
(-0.00698323 -0.00018558 0)
(-0.00683261 -0.000192933 0)
(-0.00667628 -0.000199942 0)
(-0.00651451 -0.000206581 0)
(-0.0063476 -0.000212828 0)
(-0.00617586 -0.00021866 0)
(-0.00599963 -0.000224055 0)
(-0.00581927 -0.000228993 0)
(-0.00563512 -0.000233457 0)
(-0.00544758 -0.000237427 0)
(-0.00525704 -0.000240888 0)
(-0.00506389 -0.000243827 0)
(-0.00486855 -0.000246232 0)
(-0.00467145 -0.00024809 0)
(-0.00447302 -0.000249395 0)
(-0.00427369 -0.000250137 0)
(-0.00407391 -0.000250313 0)
(-0.00387412 -0.000249919 0)
(-0.00367476 -0.000248954 0)
(-0.0034763 -0.000247417 0)
(-0.00327918 -0.000245311 0)
(-0.00308384 -0.00024264 0)
(-0.00289073 -0.000239408 0)
(-0.00270028 -0.000235624 0)
(-0.00251294 -0.000231295 0)
(-0.00232912 -0.000226431 0)
(-0.00214925 -0.000221044 0)
(-0.00197373 -0.000215147 0)
(-0.00180297 -0.000208753 0)
(-0.00163735 -0.000201878 0)
(-0.00147725 -0.000194538 0)
(-0.00132303 -0.000186749 0)
(-0.00117505 -0.000178532 0)
(-0.00103363 -0.000169905 0)
(-0.000899093 -0.00016089 0)
(-0.000771743 -0.000151508 0)
(-0.000651861 -0.000141783 0)
(-0.000539708 -0.00013174 0)
(-0.000435527 -0.000121407 0)
(-0.000339535 -0.000110814 0)
(-0.000251921 -9.99943e-05 0)
(-0.00017285 -8.89843e-05 0)
(-0.000102449 -7.78258e-05 0)
(-4.08097e-05 -6.65669e-05 0)
(1.20185e-05 -5.5263e-05 0)
(5.60382e-05 -4.39807e-05 0)
(9.1311e-05 -3.27995e-05 0)
(0.000117968 -2.18148e-05 0)
(0.000136226 -1.11437e-05 0)
(0.0001464 -9.30435e-07 0)
(0.000148931 8.64379e-06 0)
(0.000144409 1.7352e-05 0)
(0.000133603 2.49072e-05 0)
(0.000117498 3.09475e-05 0)
(9.73405e-05 3.50198e-05 0)
(7.46744e-05 3.65711e-05 0)
(5.13425e-05 3.49642e-05 0)
(2.94507e-05 2.95462e-05 0)
(1.17765e-05 1.9885e-05 0)
(2.20459e-06 6.67264e-06 0)
(9.3007e-07 -1.01753e-05 0)
(-4.16165e-07 -8.21716e-06 0)
(-1.00928e-05 7.46983e-06 0)
(-3.13032e-05 3.11798e-05 0)
(-6.61378e-05 5.92509e-05 0)
(-0.000115742 8.91947e-05 0)
(-0.000180542 0.000119358 0)
(-0.000260428 0.000148687 0)
(-0.000354921 0.000176532 0)
(-0.000463296 0.000202518 0)
(-0.000584671 0.000226455 0)
(-0.000718075 0.000248274 0)
(-0.000862496 0.000267987 0)
(-0.00101692 0.000285656 0)
(-0.00118037 0.000301381 0)
(-0.00135187 0.00031528 0)
(-0.00153054 0.000327481 0)
(-0.00171553 0.000338115 0)
(-0.00190605 0.000347312 0)
(-0.00210137 0.0003552 0)
(-0.00230083 0.000361901 0)
(-0.00250382 0.000367529 0)
(-0.00270979 0.000372191 0)
(-0.00291823 0.000375986 0)
(-0.00312869 0.000379004 0)
(-0.00334075 0.000381327 0)
(-0.00355405 0.000383028 0)
(-0.00376826 0.000384175 0)
(-0.00398307 0.000384825 0)
(-0.00419822 0.000385031 0)
(-0.00441345 0.000384838 0)
(-0.00462855 0.000384286 0)
(-0.00484332 0.000383407 0)
(-0.00505757 0.000382231 0)
(-0.00527114 0.000380779 0)
(-0.00548385 0.000379072 0)
(-0.00569557 0.000377125 0)
(-0.00590615 0.000374947 0)
(-0.00611546 0.000372549 0)
(-0.00632337 0.000369934 0)
(-0.00652974 0.000367104 0)
(-0.00673445 0.00036406 0)
(-0.00693738 0.000360798 0)
(-0.00713839 0.000357315 0)
(-0.00733735 0.000353605 0)
(-0.00753414 0.00034966 0)
(-0.0077286 0.000345471 0)
(-0.00792059 0.00034103 0)
(-0.00810998 0.000336324 0)
(-0.0082966 0.000331344 0)
(-0.0084803 0.000326076 0)
(-0.00866091 0.00032051 0)
(-0.00883826 0.000314632 0)
(-0.00901216 0.000308429 0)
(-0.00918245 0.000301889 0)
(-0.00934892 0.000294999 0)
(-0.00951138 0.000287747 0)
(-0.00966962 0.000280122 0)
(-0.00982344 0.000272111 0)
(-0.00997262 0.000263703 0)
(-0.0101169 0.000254889 0)
(-0.0102562 0.000245659 0)
(-0.0103901 0.000236005 0)
(-0.0105184 0.000225919 0)
(-0.010641 0.000215394 0)
(-0.0107575 0.000204427 0)
(-0.0108678 0.000193012 0)
(-0.0109716 0.000181149 0)
(-0.0110686 0.000168835 0)
(-0.0111586 0.000156073 0)
(-0.0112413 0.000142866 0)
(-0.0113166 0.000129217 0)
(-0.0113841 0.000115133 0)
(-0.0114437 0.000100623 0)
(-0.0114952 8.56978e-05 0)
(-0.0115382 7.03704e-05 0)
(-0.0115726 5.46558e-05 0)
(-0.0115982 3.85714e-05 0)
(-0.0116149 2.21371e-05 0)
(-0.0116223 5.37511e-06 0)
(-0.0116204 -1.16901e-05 0)
(-0.011609 -2.90316e-05 0)
(-0.011588 -4.66202e-05 0)
(-0.0115572 -6.44245e-05 0)
(-0.0115165 -8.24104e-05 0)
(-0.0114659 -0.000100542 0)
(-0.0114053 -0.00011878 0)
(-0.0113346 -0.000137086 0)
(-0.0112539 -0.000155417 0)
(-0.0111631 -0.000173729 0)
(-0.0110622 -0.000191976 0)
(-0.0109514 -0.000210111 0)
(-0.0108306 -0.000228087 0)
(-0.0107 -0.000245854 0)
(-0.0105598 -0.000263361 0)
(-0.01041 -0.000280558 0)
(-0.0102509 -0.000297394 0)
(-0.0100827 -0.000313818 0)
(-0.00990555 -0.000329777 0)
(-0.0097198 -0.000345221 0)
(-0.00952573 -0.000360101 0)
(-0.00932364 -0.000374366 0)
(-0.00911389 -0.000387969 0)
(-0.00889685 -0.000400863 0)
(-0.00867292 -0.000413003 0)
(-0.0084425 -0.000424345 0)
(-0.00820606 -0.00043485 0)
(-0.00796403 -0.000444479 0)
(-0.00771692 -0.000453195 0)
(-0.00746522 -0.000460965 0)
(-0.00720945 -0.00046776 0)
(-0.00695014 -0.000473552 0)
(-0.00668785 -0.000478317 0)
(-0.00642312 -0.000482035 0)
(-0.00615654 -0.000484689 0)
(-0.00588867 -0.000486263 0)
(-0.00562011 -0.000486749 0)
(-0.00535145 -0.00048614 0)
(-0.00508327 -0.000484431 0)
(-0.00481618 -0.000481623 0)
(-0.00455077 -0.000477719 0)
(-0.00428764 -0.000472725 0)
(-0.00402736 -0.000466652 0)
(-0.00377053 -0.000459512 0)
(-0.00351772 -0.000451321 0)
(-0.0032695 -0.000442097 0)
(-0.00302643 -0.000431862 0)
(-0.00278905 -0.000420639 0)
(-0.00255789 -0.000408454 0)
(-0.00233348 -0.000395337 0)
(-0.00211632 -0.000381317 0)
(-0.00190689 -0.00036643 0)
(-0.00170565 -0.000350709 0)
(-0.00151307 -0.000334193 0)
(-0.00132955 -0.000316923 0)
(-0.00115551 -0.000298941 0)
(-0.000991316 -0.000280296 0)
(-0.000837324 -0.000261036 0)
(-0.000693851 -0.000241216 0)
(-0.000561185 -0.000220896 0)
(-0.000439577 -0.000200142 0)
(-0.000329238 -0.000179029 0)
(-0.000230333 -0.00015764 0)
(-0.000142975 -0.000136072 0)
(-6.72183e-05 -0.000114437 0)
(-3.04843e-06 -9.28662e-05 0)
(4.96289e-05 -7.15151e-05 0)
(9.10019e-05 -5.05711e-05 0)
(0.000121369 -3.02601e-05 0)
(0.000141158 -1.08566e-05 0)
(0.000150952 7.30361e-06 0)
(0.000151514 2.38079e-05 0)
(0.000143821 3.81488e-05 0)
(0.000129098 4.97062e-05 0)
(0.000108854 5.77314e-05 0)
(8.4919e-05 6.13452e-05 0)
(5.94271e-05 5.95686e-05 0)
(3.47909e-05 5.14149e-05 0)
(1.42905e-05 3.61211e-05 0)
(2.78776e-06 1.37798e-05 0)
(-1.55186e-07 -8.99646e-06 0)
(-6.4121e-06 8.61398e-07 0)
(-2.56711e-05 2.82191e-05 0)
(-5.99243e-05 6.60998e-05 0)
(-0.00011077 0.000109873 0)
(-0.000179219 0.000156265 0)
(-0.000265606 0.000203017 0)
(-0.000369754 0.000248622 0)
(-0.000491119 0.000292111 0)
(-0.000628896 0.00033289 0)
(-0.000782108 0.000370632 0)
(-0.000949672 0.000405198 0)
(-0.00113045 0.000436569 0)
(-0.00132329 0.000464816 0)
(-0.00152706 0.000490064 0)
(-0.00174065 0.000512474 0)
(-0.001963 0.000532226 0)
(-0.00219313 0.000549514 0)
(-0.00243011 0.000564531 0)
(-0.00267305 0.000577468 0)
(-0.00292117 0.00058851 0)
(-0.00317373 0.00059783 0)
(-0.00343006 0.000605594 0)
(-0.00368953 0.000611954 0)
(-0.00395159 0.000617051 0)
(-0.00421573 0.000621014 0)
(-0.00448149 0.000623959 0)
(-0.00474846 0.000625991 0)
(-0.00501626 0.000627202 0)
(-0.00528454 0.000627677 0)
(-0.00555299 0.000627488 0)
(-0.00582134 0.000626696 0)
(-0.00608933 0.000625357 0)
(-0.0063567 0.000623517 0)
(-0.00662326 0.000621213 0)
(-0.00688878 0.000618478 0)
(-0.00715309 0.000615335 0)
(-0.00741598 0.000611803 0)
(-0.00767729 0.000607897 0)
(-0.00793685 0.000603624 0)
(-0.00819449 0.000598989 0)
(-0.00845005 0.000593994 0)
(-0.00870335 0.000588635 0)
(-0.00895424 0.000582904 0)
(-0.00920253 0.000576795 0)
(-0.00944807 0.000570295 0)
(-0.00969068 0.000563392 0)
(-0.00993017 0.000556071 0)
(-0.0101664 0.000548315 0)
(-0.010399 0.000540106 0)
(-0.010628 0.000531427 0)
(-0.0108531 0.000522258 0)
(-0.0110741 0.00051258 0)
(-0.0112907 0.000502373 0)
(-0.0115028 0.000491617 0)
(-0.01171 0.000480293 0)
(-0.0119122 0.000468381 0)
(-0.012109 0.000455862 0)
(-0.0123003 0.000442719 0)
(-0.0124858 0.000428936 0)
(-0.0126652 0.000414495 0)
(-0.0128381 0.000399383 0)
(-0.0130044 0.000383586 0)
(-0.0131638 0.000367094 0)
(-0.0133159 0.000349896 0)
(-0.0134604 0.000331986 0)
(-0.0135971 0.000313357 0)
(-0.0137257 0.000294007 0)
(-0.0138458 0.000273936 0)
(-0.0139572 0.000253146 0)
(-0.0140596 0.000231641 0)
(-0.0141527 0.00020943 0)
(-0.0142362 0.000186524 0)
(-0.0143097 0.000162938 0)
(-0.0143731 0.000138688 0)
(-0.0144261 0.000113798 0)
(-0.0144685 8.82902e-05 0)
(-0.0144998 6.21945e-05 0)
(-0.0145201 3.55428e-05 0)
(-0.0145289 8.371e-06 0)
(-0.0145262 -1.92811e-05 0)
(-0.0145118 -4.73701e-05 0)
(-0.0144854 -7.58489e-05 0)
(-0.014447 -0.000104667 0)
(-0.0143963 -0.000133769 0)
(-0.0143334 -0.000163097 0)
(-0.0142582 -0.000192591 0)
(-0.0141705 -0.000222185 0)
(-0.0140704 -0.000251813 0)
(-0.0139579 -0.000281403 0)
(-0.013833 -0.000310884 0)
(-0.0136958 -0.000340179 0)
(-0.0135464 -0.000369212 0)
(-0.013385 -0.000397905 0)
(-0.0132115 -0.000426176 0)
(-0.0130264 -0.000453945 0)
(-0.0128298 -0.000481131 0)
(-0.0126219 -0.000507651 0)
(-0.0124031 -0.000533425 0)
(-0.0121737 -0.00055837 0)
(-0.011934 -0.000582408 0)
(-0.0116844 -0.00060546 0)
(-0.0114254 -0.000627448 0)
(-0.0111575 -0.0006483 0)
(-0.010881 -0.000667943 0)
(-0.0105965 -0.000686308 0)
(-0.0103046 -0.000703331 0)
(-0.0100058 -0.00071895 0)
(-0.00970069 -0.000733108 0)
(-0.0093899 -0.000745752 0)
(-0.00907405 -0.000756833 0)
(-0.00875379 -0.000766309 0)
(-0.0084298 -0.00077414 0)
(-0.00810274 -0.000780293 0)
(-0.00777333 -0.000784741 0)
(-0.00744226 -0.000787462 0)
(-0.00711024 -0.000788437 0)
(-0.00677801 -0.000787656 0)
(-0.00644627 -0.000785111 0)
(-0.00611576 -0.000780804 0)
(-0.0057872 -0.000774737 0)
(-0.00546132 -0.000766922 0)
(-0.00513884 -0.000757371 0)
(-0.00482047 -0.000746106 0)
(-0.00450691 -0.00073315 0)
(-0.00419885 -0.000718533 0)
(-0.00389699 -0.000702287 0)
(-0.00360199 -0.000684449 0)
(-0.00331449 -0.000665062 0)
(-0.00303515 -0.000644171 0)
(-0.00276457 -0.000621824 0)
(-0.00250334 -0.000598077 0)
(-0.00225205 -0.000572984 0)
(-0.00201124 -0.000546608 0)
(-0.00178143 -0.000519015 0)
(-0.00156311 -0.000490275 0)
(-0.00135674 -0.000460464 0)
(-0.00116275 -0.000429666 0)
(-0.000981539 -0.000397969 0)
(-0.000813441 -0.000365472 0)
(-0.000658764 -0.000332286 0)
(-0.00051776 -0.000298532 0)
(-0.000390622 -0.000264351 0)
(-0.00027748 -0.000229902 0)
(-0.00017839 -0.000195369 0)
(-9.33237e-05 -0.000160966 0)
(-2.21543e-05 -0.000126946 0)
(3.53564e-05 -9.36081e-05 0)
(7.95781e-05 -6.13113e-05 0)
(0.000111032 -3.04848e-05 0)
(0.000130415 -1.64538e-06 0)
(0.000138624 2.45842e-05 0)
(0.00013679 4.74553e-05 0)
(0.000126305 6.60732e-05 0)
(0.000108858 7.93832e-05 0)
(8.6464e-05 8.61709e-05 0)
(6.14555e-05 8.50942e-05 0)
(3.64715e-05 7.47662e-05 0)
(1.5155e-05 5.39266e-05 0)
(2.9873e-06 2.17634e-05 0)
(-1.28719e-06 -4.47803e-06 0)
(-1.28666e-05 1.81011e-05 0)
(-4.25925e-05 6.09385e-05 0)
(-9.09663e-05 0.000116214 0)
(-0.000158897 0.000178553 0)
(-0.000247116 0.000244046 0)
(-0.000355761 0.000309904 0)
(-0.000484515 0.000374212 0)
(-0.00063273 0.00043569 0)
(-0.000799512 0.000493527 0)
(-0.000983795 0.000547251 0)
(-0.0011844 0.000596632 0)
(-0.00140009 0.000641617 0)
(-0.00162961 0.000682272 0)
(-0.0018717 0.000718744 0)
(-0.00212515 0.000751234 0)
(-0.00238878 0.000779977 0)
(-0.00266147 0.000805223 0)
(-0.00294217 0.000827235 0)
(-0.00322991 0.000846271 0)
(-0.00352376 0.000862583 0)
(-0.00382288 0.000876411 0)
(-0.00412649 0.000887985 0)
(-0.00443388 0.000897517 0)
(-0.00474441 0.000905205 0)
(-0.00505746 0.00091123 0)
(-0.00537251 0.000915758 0)
(-0.00568906 0.000918937 0)
(-0.00600665 0.000920901 0)
(-0.00632489 0.000921768 0)
(-0.0066434 0.000921642 0)
(-0.00696183 0.000920616 0)
(-0.00727988 0.000918766 0)
(-0.00759725 0.000916161 0)
(-0.00791368 0.000912855 0)
(-0.00822891 0.000908896 0)
(-0.00854271 0.000904319 0)
(-0.00885485 0.000899154 0)
(-0.00916511 0.00089342 0)
(-0.00947329 0.000887131 0)
(-0.00977918 0.000880295 0)
(-0.0100826 0.000872914 0)
(-0.0103833 0.000864984 0)
(-0.0106811 0.000856498 0)
(-0.0109758 0.000847444 0)
(-0.0112672 0.000837806 0)
(-0.011555 0.000827566 0)
(-0.0118391 0.000816704 0)
(-0.0121193 0.000805198 0)
(-0.0123952 0.000793022 0)
(-0.0126667 0.000780151 0)
(-0.0129335 0.000766558 0)
(-0.0131953 0.000752215 0)
(-0.013452 0.000737095 0)
(-0.0137031 0.00072117 0)
(-0.0139485 0.000704412 0)
(-0.0141878 0.000686794 0)
(-0.0144208 0.000668289 0)
(-0.0146471 0.000648873 0)
(-0.0148664 0.000628522 0)
(-0.0150784 0.000607214 0)
(-0.0152828 0.000584929 0)
(-0.0154792 0.000561649 0)
(-0.0156674 0.000537357 0)
(-0.0158469 0.000512041 0)
(-0.0160174 0.000485691 0)
(-0.0161786 0.000458301 0)
(-0.0163301 0.000429866 0)
(-0.0164716 0.000400387 0)
(-0.0166028 0.000369867 0)
(-0.0167233 0.000338316 0)
(-0.0168327 0.000305745 0)
(-0.0169307 0.000272172 0)
(-0.017017 0.000237618 0)
(-0.0170914 0.00020211 0)
(-0.0171534 0.000165678 0)
(-0.0172028 0.000128361 0)
(-0.0172392 9.01992e-05 0)
(-0.0172626 5.12403e-05 0)
(-0.0172725 1.15369e-05 0)
(-0.0172688 -2.88531e-05 0)
(-0.0172512 -6.98664e-05 0)
(-0.0172196 -0.000111434 0)
(-0.0171738 -0.000153483 0)
(-0.0171137 -0.000195933 0)
(-0.0170391 -0.000238701 0)
(-0.0169501 -0.000281698 0)
(-0.0168464 -0.00032483 0)
(-0.0167282 -0.000368 0)
(-0.0165954 -0.000411107 0)
(-0.016448 -0.000454045 0)
(-0.0162862 -0.000496706 0)
(-0.0161101 -0.000538979 0)
(-0.0159198 -0.00058075 0)
(-0.0157156 -0.000621905 0)
(-0.0154976 -0.000662326 0)
(-0.0152661 -0.000701897 0)
(-0.0150215 -0.000740499 0)
(-0.014764 -0.000778015 0)
(-0.0144941 -0.00081433 0)
(-0.0142122 -0.000849328 0)
(-0.0139187 -0.000882896 0)
(-0.0136142 -0.000914925 0)
(-0.0132991 -0.000945307 0)
(-0.0129741 -0.000973941 0)
(-0.0126397 -0.00100073 0)
(-0.0122965 -0.00102557 0)
(-0.0119452 -0.00104839 0)
(-0.0115866 -0.00106909 0)
(-0.0112212 -0.00108761 0)
(-0.0108499 -0.00110386 0)
(-0.0104733 -0.0011178 0)
(-0.0100924 -0.00112936 0)
(-0.00970775 -0.0011385 0)
(-0.0093203 -0.00114517 0)
(-0.00893083 -0.00114934 0)
(-0.00854018 -0.001151 0)
(-0.00814918 -0.00115011 0)
(-0.00775867 -0.00114667 0)
(-0.00736949 -0.00114068 0)
(-0.00698248 -0.00113215 0)
(-0.0065985 -0.00112108 0)
(-0.00621836 -0.00110751 0)
(-0.00584291 -0.00109144 0)
(-0.00547297 -0.00107293 0)
(-0.00510933 -0.00105201 0)
(-0.00475279 -0.00102872 0)
(-0.00440414 -0.00100313 0)
(-0.00406414 -0.000975287 0)
(-0.00373351 -0.000945259 0)
(-0.00341299 -0.000913118 0)
(-0.00310326 -0.00087894 0)
(-0.00280498 -0.000842809 0)
(-0.00251881 -0.000804814 0)
(-0.00224535 -0.000765051 0)
(-0.00198516 -0.000723623 0)
(-0.00173878 -0.000680643 0)
(-0.00150671 -0.000636233 0)
(-0.00128939 -0.000590525 0)
(-0.00108723 -0.000543667 0)
(-0.000900578 -0.000495821 0)
(-0.000729711 -0.000447169 0)
(-0.000574851 -0.000397917 0)
(-0.000436139 -0.0003483 0)
(-0.00031363 -0.00029859 0)
(-0.000207282 -0.000249098 0)
(-0.000116939 -0.000200192 0)
(-4.23206e-05 -0.000152301 0)
(1.70025e-05 -0.000105932 0)
(6.16249e-05 -6.16866e-05 0)
(9.23305e-05 -2.02796e-05 0)
(0.000110118 1.74422e-05 0)
(0.000116226 5.04773e-05 0)
(0.000112162 7.76494e-05 0)
(9.97325e-05 9.75927e-05 0)
(8.10768e-05 0.00010875 0)
(5.8659e-05 0.000109393 0)
(3.52793e-05 9.7682e-05 0)
(1.47923e-05 7.17628e-05 0)
(2.93146e-06 2.98411e-05 0)
(-2.39215e-06 3.45604e-06 0)
(-1.93854e-05 4.39002e-05 0)
(-5.99162e-05 0.000106269 0)
(-0.000122897 0.000182266 0)
(-0.000208436 0.000266018 0)
(-0.000316888 0.000353136 0)
(-0.000448111 0.000440413 0)
(-0.000601581 0.000525583 0)
(-0.000776502 0.000607097 0)
(-0.000971868 0.000683943 0)
(-0.00118652 0.000755509 0)
(-0.00141918 0.00082148 0)
(-0.00166853 0.000881758 0)
(-0.00193322 0.000936401 0)
(-0.0022119 0.000985574 0)
(-0.00250327 0.00102951 0)
(-0.00280604 0.00106851 0)
(-0.00311901 0.00110287 0)
(-0.00344103 0.00113293 0)
(-0.00377102 0.00115901 0)
(-0.00410797 0.00118144 0)
(-0.00445094 0.00120052 0)
(-0.00479907 0.00121656 0)
(-0.00515155 0.00122983 0)
(-0.00550767 0.00124058 0)
(-0.00586673 0.00124907 0)
(-0.00622814 0.00125551 0)
(-0.00659133 0.00126009 0)
(-0.00695578 0.00126299 0)
(-0.00732102 0.00126437 0)
(-0.00768662 0.00126438 0)
(-0.00805219 0.00126313 0)
(-0.00841735 0.00126073 0)
(-0.00878179 0.00125727 0)
(-0.00914516 0.00125282 0)
(-0.00950719 0.00124746 0)
(-0.00986759 0.00124123 0)
(-0.0102261 0.00123416 0)
(-0.0105824 0.0012263 0)
(-0.0109364 0.00121765 0)
(-0.0112877 0.00120823 0)
(-0.0116361 0.00119805 0)
(-0.0119814 0.0011871 0)
(-0.0123234 0.00117536 0)
(-0.0126617 0.00116284 0)
(-0.0129962 0.0011495 0)
(-0.0133266 0.00113532 0)
(-0.0136527 0.00112028 0)
(-0.0139741 0.00110435 0)
(-0.0142906 0.00108749 0)
(-0.014602 0.00106967 0)
(-0.0149079 0.00105086 0)
(-0.0152081 0.00103102 0)
(-0.0155022 0.00101011 0)
(-0.01579 0.000988097 0)
(-0.016071 0.000964944 0)
(-0.0163451 0.000940614 0)
(-0.0166117 0.000915074 0)
(-0.0168707 0.000888291 0)
(-0.0171216 0.000860233 0)
(-0.0173641 0.000830871 0)
(-0.0175977 0.000800179 0)
(-0.0178222 0.000768135 0)
(-0.0180371 0.000734716 0)
(-0.0182421 0.000699908 0)
(-0.0184367 0.000663698 0)
(-0.0186206 0.000626076 0)
(-0.0187934 0.000587041 0)
(-0.0189546 0.000546593 0)
(-0.019104 0.000504738 0)
(-0.0192411 0.000461489 0)
(-0.0193655 0.000416864 0)
(-0.0194768 0.000370887 0)
(-0.0195748 0.000323587 0)
(-0.019659 0.000275003 0)
(-0.0197291 0.000225177 0)
(-0.0197848 0.00017416 0)
(-0.0198258 0.00012201 0)
(-0.0198517 6.87913e-05 0)
(-0.0198623 1.45758e-05 0)
(-0.0198573 -4.05573e-05 0)
(-0.0198366 -9.65219e-05 0)