/*--------------------------------*- C++ -*----------------------------------*\
  =========                 |
  \\      /  F ield         | OpenFOAM: The Open Source CFD Toolbox
   \\    /   O peration     | Website:  https://openfoam.org
    \\  /    A nd           | Version:  7
     \\/     M anipulation  |
\*---------------------------------------------------------------------------*/
FoamFile
{
    version     2.0;
    format      ascii;
    class       volScalarField;
    location    "0.1125";
    object      p;
}
// * * * * * * * * * * * * * * * * * * * * * * * * * * * * * * * * * * * * * //

dimensions      [0 2 -2 0 0 0 0];

internalField   nonuniform List<scalar> 
25600
(
5.41631e-10
-1.65224e-05
-4.50619e-05
-7.61925e-05
-0.000105765
-0.000134685
-0.000163035
-0.000190673
-0.000217366
-0.000242845
-0.000266837
-0.00028915
-0.000309645
-0.000328187
-0.000344649
-0.000358928
-0.000370944
-0.000380672
-0.000388122
-0.000393287
-0.000396141
-0.000396672
-0.000394905
-0.000390875
-0.000384618
-0.000376168
-0.000365567
-0.000352841
-0.000338009
-0.0003211
-0.000302157
-0.000281221
-0.000258317
-0.000233466
-0.000206698
-0.000178041
-0.000147512
-0.000115118
-8.0878e-05
-4.48245e-05
-6.98514e-06
3.26292e-05
7.40149e-05
0.000117157
0.000162031
0.000208611
0.000256884
0.000306837
0.000358449
0.000411686
0.000466517
0.00052292
0.000580878
0.000640367
0.000701356
0.000763809
0.000827695
0.00089299
0.00095967
0.00102771
0.00109707
0.00116772
0.00123965
0.00131281
0.0013872
0.00146278
0.00153951
0.00161735
0.00169628
0.00177628
0.0018573
0.0019393
0.00202226
0.0021061
0.00219081
0.00227633
0.00236262
0.00244963
0.00253732
0.00262562
0.00271449
0.00280387
0.00289371
0.00298396
0.00307457
0.00316546
0.00325658
0.00334788
0.00343929
0.00353076
0.00362224
0.00371365
0.00380493
0.00389601
0.00398683
0.00407732
0.00416742
0.00425706
0.00434618
0.00443469
0.00452253
0.00460962
0.00469589
0.00478127
0.0048657
0.00494911
0.00503142
0.00511256
0.00519245
0.00527101
0.00534818
0.00542388
0.00549805
0.00557062
0.00564152
0.00571067
0.00577801
0.00584345
0.00590693
0.00596838
0.00602774
0.00608495
0.00613993
0.00619263
0.00624298
0.00629089
0.00633632
0.00637919
0.00641945
0.00645705
0.00649194
0.00652407
0.00655339
0.00657985
0.00660342
0.00662406
0.00664174
0.00665645
0.00666819
0.00667696
0.00668278
0.00668568
0.00668571
0.00668292
0.00667741
0.00666928
0.00665867
0.00664576
0.00663078
0.00661401
0.00659579
0.00657652
0.00655671
0.00653697
0.006518
0.00650067
0.00648599
0.00647511
0.00646931
0.00646889
-1.63377e-05
-3.17243e-05
-5.46803e-05
-8.00703e-05
-0.000105539
-0.000130847
-0.000155839
-0.000180335
-0.000204104
-0.000226877
-0.000248417
-0.000268507
-0.000286968
-0.000303683
-0.000318542
-0.000331428
-0.000342244
-0.000350934
-0.00035748
-0.00036187
-0.000364091
-0.000364132
-0.000361997
-0.000357693
-0.000351237
-0.000342661
-0.000332001
-0.000319279
-0.00030451
-0.00028772
-0.000268944
-0.000248209
-0.000225529
-0.000200928
-0.000174438
-0.000146087
-0.000115887
-8.38427e-05
-4.99728e-05
-1.43064e-05
2.31351e-05
6.23433e-05
0.00010331
0.000146015
0.000190433
0.000236543
0.000284335
0.000333797
0.000384902
0.000437617
0.000491915
0.000547775
0.00060518
0.000664101
0.000724502
0.00078635
0.000849622
0.000914295
0.000980345
0.00104774
0.00111644
0.00118642
0.00125765
0.00133013
0.00140381
0.00147867
0.00155467
0.00163176
0.00170994
0.00178917
0.00186942
0.00195063
0.00203278
0.00211581
0.00219968
0.00228437
0.00236981
0.00245597
0.00254279
0.00263021
0.00271819
0.00280667
0.0028956
0.00298494
0.00307463
0.00316459
0.00325478
0.00334513
0.00343559
0.00352611
0.00361663
0.00370708
0.00379739
0.0038875
0.00397734
0.00406685
0.00415597
0.00424464
0.00433277
0.00442031
0.00450716
0.00459327
0.00467856
0.00476297
0.00484644
0.00492888
0.00501023
0.00509042
0.00516936
0.00524698
0.00532322
0.00539801
0.00547128
0.00554296
0.00561298
0.00568127
0.00574775
0.00581236
0.00587503
0.00593569
0.00599429
0.00605076
0.00610504
0.00615706
0.00620676
0.00625407
0.00629894
0.00634129
0.00638109
0.00641828
0.00645282
0.00648467
0.00651378
0.00654012
0.00656366
0.00658436
0.00660222
0.00661722
0.00662937
0.00663869
0.00664521
0.00664898
0.00665004
0.00664847
0.00664436
0.00663783
0.00662904
0.00661816
0.00660543
0.00659112
0.00657557
0.00655916
0.00654235
0.00652568
0.00650978
0.00649534
0.00648313
0.00647398
0.00646891
0.00646849
-3.51949e-05
-4.61349e-05
-6.30309e-05
-8.34593e-05
-0.000105239
-0.000127515
-0.000149847
-0.000171908
-0.000193392
-0.000214062
-0.000233682
-0.000252016
-0.000268879
-0.000284137
-0.00029768
-0.000309411
-0.000319234
-0.000327067
-0.000332863
-0.0003366
-0.000338268
-0.000337866
-0.000335387
-0.000330823
-0.000324178
-0.000315478
-0.000304746
-0.000291998
-0.000277252
-0.000260535
-0.000241875
-0.000221285
-0.000198776
-0.000174371
-0.000148103
-0.000119991
-9.00449e-05
-5.82752e-05
-2.4705e-05
1.06438e-05
4.77601e-05
8.66374e-05
0.00012726
0.000169603
0.000213642
0.000259364
0.00030676
0.000355813
0.00040649
0.000458761
0.000512606
0.000568009
0.000624948
0.000683387
0.00074329
0.000804627
0.00086738
0.000931531
0.000997051
0.0010639
0.00113205
0.00120146
0.00127213
0.00134403
0.00141713
0.00149139
0.00156678
0.00164327
0.00172082
0.00179942
0.00187903
0.00195959
0.00204107
0.00212343
0.00220662
0.00229062
0.00237537
0.00246082
0.00254693
0.00263362
0.00272087
0.00280861
0.00289681
0.00298541
0.00307434
0.00316355
0.00325297
0.00334256
0.00343225
0.003522
0.00361175
0.00370142
0.00379095
0.00388028
0.00396933
0.00405806
0.00414639
0.00423427
0.00432162
0.00440836
0.00449443
0.00457975
0.00466426
0.00474789
0.00483058
0.00491225
0.00499284
0.00507226
0.00515045
0.00522732
0.00530282
0.00537687
0.00544942
0.00552039
0.00558972
0.00565732
0.00572313
0.00578708
0.0058491
0.00590914
0.00596714
0.00602303
0.00607676
0.00612825
0.00617745
0.00622429
0.00626871
0.00631067
0.00635011
0.00638699
0.00642128
0.00645292
0.0064819
0.00650817
0.0065317
0.00655248
0.0065705
0.00658575
0.00659826
0.00660804
0.00661514
0.0066196
0.0066215
0.00662089
0.00661789
0.00661261
0.00660521
0.00659588
0.00658483
0.00657234
0.00655871
0.00654432
0.00652957
0.00651494
0.00650097
0.00648823
0.00647735
0.00646896
0.00646389
0.00646276
-4.75195e-05
-5.55914e-05
-6.88042e-05
-8.56564e-05
-0.000104478
-0.000124287
-0.000144483
-0.000164589
-0.000184265
-0.000203243
-0.000221282
-0.000238177
-0.000253739
-0.0002678
-0.00028024
-0.000290974
-0.000299919
-0.000306997
-0.000312143
-0.000315314
-0.000316496
-0.000315684
-0.000312869
-0.00030804
-0.000301205
-0.000292378
-0.000281564
-0.000268773
-0.000254028
-0.000237355
-0.000218771
-0.000198282
-0.000175903
-0.000151662
-0.00012558
-9.76642e-05
-6.79227e-05
-3.63784e-05
-3.05808e-06
3.20247e-05
6.88675e-05
0.000107462
0.000147785
0.000189809
0.000233517
0.000278903
0.000325954
0.000374644
0.00042494
0.000476816
0.000530257
0.00058525
0.000641767
0.000699771
0.000759227
0.000820111
0.000882405
0.000946092
0.00101114
0.0010775
0.00114516
0.00121408
0.00128426
0.00135566
0.00142825
0.00150199
0.00157685
0.0016528
0.00172982
0.00180787
0.00188693
0.00196693
0.00204783
0.0021296
0.00221221
0.00229561
0.00237976
0.0024646
0.00255008
0.00263616
0.00272277
0.00280989
0.00289746
0.00298542
0.00307371
0.00316227
0.00325105
0.00333999
0.00342903
0.00351814
0.00360723
0.00369625
0.00378512
0.00387378
0.00396218
0.00405024
0.00413792
0.00422514
0.00431183
0.00439791
0.00448332
0.00456798
0.00465183
0.00473481
0.00481685
0.00489789
0.00497783
0.00505662
0.00513418
0.00521043
0.00528531
0.00535876
0.00543071
0.0055011
0.00556985
0.00563688
0.00570214
0.00576554
0.00582704
0.00588656
0.00594407
0.00599949
0.00605276
0.00610382
0.00615262
0.00619907
0.00624315
0.00628479
0.00632395
0.00636059
0.00639468
0.00642618
0.00645506
0.00648129
0.00650484
0.0065257
0.00654388
0.00655936
0.00657218
0.00658237
0.00658996
0.00659502
0.0065976
0.00659778
0.00659567
0.0065914
0.0065851
0.00657696
0.00656719
0.00655605
0.00654382
0.00653084
0.00651748
0.00650415
0.0064913
0.00647942
0.00646902
0.00646063
0.00645482
0.00645198
-5.13313e-05
-5.94906e-05
-7.12642e-05
-8.60174e-05
-0.000102773
-0.000120677
-0.000139089
-0.00015755
-0.000175695
-0.00019321
-0.000209864
-0.000225471
-0.000239849
-0.000252835
-0.000264291
-0.000274118
-0.000282239
-0.00028859
-0.000293107
-0.000295741
-0.000296467
-0.000295264
-0.000292116
-0.000287021
-0.000279988
-0.000271018
-0.000260106
-0.000247263
-0.000232512
-0.000215869
-0.000197338
-0.000176927
-0.00015466
-0.000130563
-0.000104642
-7.69001e-05
-4.73491e-05
-1.60164e-05
1.70755e-05
5.19195e-05
8.85135e-05
0.000126843
0.000166881
0.000208604
0.000252001
0.000297068
0.000343786
0.000392123
0.00044205
0.000493547
0.000546602
0.000601197
0.000657301
0.000714877
0.000773899
0.000834345
0.000896201
0.00095944
0.00102403
0.00108993
0.00115712
0.00122557
0.00129528
0.0013662
0.00143831
0.00151156
0.00158592
0.00166137
0.00173789
0.00181543
0.00189396
0.00197342
0.00205378
0.00213501
0.00221706
0.00229991
0.00238349
0.00246776
0.00255266
0.00263815
0.00272418
0.00281071
0.00289769
0.00298506
0.00307276
0.00316072
0.0032489
0.00333724
0.00342569
0.0035142
0.0036027
0.00369111
0.00377938
0.00386744
0.00395523
0.00404269
0.00412977
0.00421639
0.00430247
0.00438795
0.00447276
0.00455682
0.00464008
0.00472247
0.00480393
0.00488438
0.00496375
0.00504196
0.00511895
0.00519464
0.00526896
0.00534187
0.00541329
0.00548315
0.00555137
0.0056179
0.00568265
0.00574557
0.00580659
0.00586567
0.00592273
0.00597773
0.0060306
0.00608128
0.00612971
0.00617583
0.0062196
0.00626096
0.00629988
0.00633632
0.00637024
0.00640163
0.00643043
0.00645664
0.00648023
0.00650118
0.00651951
0.00653522
0.00654834
0.00655889
0.00656694
0.00657252
0.00657572
0.00657661
0.00657528
0.00657187
0.00656651
0.00655937
0.00655067
0.00654062
0.0065295
0.00651759
0.00650524
0.00649278
0.0064806
0.0064691
0.0064587
0.00644983
0.00644271
0.00643743
-4.95183e-05
-5.8989e-05
-7.06502e-05
-8.44425e-05
-9.99874e-05
-0.000116567
-0.000133635
-0.000150782
-0.000167655
-0.000183957
-0.000199451
-0.00021394
-0.000227263
-0.00023928
-0.000249856
-0.000258877
-0.00026626
-0.000271939
-0.00027586
-0.000277983
-0.000278272
-0.000276694
-0.000273233
-0.000267887
-0.000260655
-0.00025153
-0.00024051
-0.000227609
-0.000212841
-0.000196211
-0.000177718
-0.000157376
-0.000135208
-0.000111229
-8.54415e-05
-5.78502e-05
-2.84748e-05
2.66137e-06
3.5546e-05
7.01757e-05
0.000106542
0.000144623
0.000184392
0.000225835
0.000268945
0.000313711
0.000360108
0.000408104
0.000457676
0.000508813
0.0005615
0.000615713
0.000671417
0.000728582
0.000787186
0.000847216
0.000908652
0.000971464
0.00103561
0.00110107
0.00116782
0.00123584
0.0013051
0.00137558
0.00144723
0.00152002
0.00159392
0.00166891
0.00174496
0.00182202
0.00190006
0.00197903
0.00205888
0.0021396
0.00222114
0.00230347
0.00238652
0.00247026
0.00255462
0.00263957
0.00272506
0.00281106
0.0028975
0.00298432
0.00307147
0.00315889
0.00324653
0.00333433
0.00342224
0.00351021
0.00359816
0.00368603
0.00377376
0.00386127
0.00394852
0.00403544
0.00412198
0.00420805
0.0042936
0.00437854
0.0044628
0.00454633
0.00462906
0.00471093
0.00479187
0.0048718
0.00495066
0.00502836
0.00510484
0.00518003
0.00525387
0.00532629
0.00539724
0.00546663
0.0055344
0.00560048
0.00566479
0.00572728
0.00578789
0.00584656
0.00590324
0.00595787
0.00601039
0.00606074
0.00610886
0.00615469
0.00619819
0.00623932
0.00627803
0.0063143
0.0063481
0.00637939
0.00640814
0.00643434
0.00645797
0.00647902
0.0064975
0.00651342
0.0065268
0.0065377
0.00654614
0.0065522
0.00655593
0.00655742
0.00655677
0.00655408
0.00654949
0.00654318
0.00653532
0.00652612
0.00651583
0.0065047
0.00649301
0.00648107
0.00646918
0.00645767
0.00644689
0.00643716
0.00642836
0.00642025
-4.38703e-05
-5.52724e-05
-6.76036e-05
-8.12158e-05
-9.6185e-05
-0.000111988
-0.000128158
-0.000144325
-0.000160196
-0.000175521
-0.000190066
-0.000203629
-0.000216058
-0.000227225
-0.000237014
-0.000245318
-0.000252046
-0.000257127
-0.000260512
-0.000262162
-0.000262034
-0.0002601
-0.000256347
-0.000250765
-0.000243338
-0.000234059
-0.000222932
-0.000209968
-0.00019517
-0.000178534
-0.000160066
-0.000139784
-0.000117702
-9.38214e-05
-6.81438e-05
-4.06848e-05
-1.14673e-05
1.94938e-05
5.21954e-05
8.6633e-05
0.000122789
0.000160636
0.000200157
0.000241342
0.000284186
0.000328669
0.00037476
0.000422432
0.000471671
0.000522467
0.000574803
0.00062865
0.000683973
0.000740748
0.000798961
0.000858599
0.000919637
0.000982043
0.00104578
0.00111083
0.00117717
0.00124478
0.00131363
0.0013837
0.00145492
0.00152729
0.00160077
0.00167533
0.00175094
0.00182757
0.00190516
0.00198366
0.00206306
0.00214331
0.00222439
0.00230624
0.00238881
0.00247206
0.00255593
0.00264039
0.0027254
0.00281091
0.00289686
0.0029832
0.00306986
0.00315679
0.00324394
0.00333126
0.00341869
0.00350618
0.00359365
0.00368103
0.00376827
0.0038553
0.00394207
0.00402852
0.00411458
0.00420018
0.00428525
0.00436972
0.00445351
0.00453658
0.00461885
0.00470026
0.00478074
0.00486023
0.00493864
0.0050159
0.00509194
0.0051667
0.00524011
0.00531213
0.00538266
0.00545166
0.00551903
0.00558472
0.00564866
0.00571078
0.00577103
0.00582937
0.00588572
0.00594004
0.00599226
0.00604233
0.00609018
0.00613577
0.00617906
0.00621999
0.00625854
0.00629468
0.00632837
0.00635959
0.00638832
0.00641453
0.0064382
0.00645934
0.00647796
0.00649406
0.00650769
0.00651888
0.00652768
0.00653414
0.00653832
0.00654032
0.00654021
0.00653811
0.00653414
0.00652846
0.00652124
0.00651266
0.00650295
0.00649231
0.006481
0.00646927
0.00645736
0.00644552
0.00643405
0.0064232
0.0064125
0.0064014
-3.57004e-05
-4.93477e-05
-6.28092e-05
-7.67274e-05
-9.16036e-05
-0.000107058
-0.000122692
-0.000138203
-0.000153345
-0.000167903
-0.000181676
-0.000194487
-0.00020618
-0.000216629
-0.000225734
-0.0002334
-0.000239542
-0.000244093
-0.000247002
-0.000248221
-0.000247711
-0.000245451
-0.000241425
-0.000235613
-0.000227997
-0.000218572
-0.000207344
-0.000194316
-0.000179476
-0.000162824
-0.000144373
-0.000124139
-0.000102123
-7.83221e-05
-5.27422e-05
-2.54042e-05
3.67262e-06
3.44818e-05
6.7023e-05
0.000101285
0.000137244
0.000174875
0.000214168
0.000255118
0.000297712
0.000341924
0.000387724
0.000435093
0.000484021
0.000534497
0.000586498
0.000639993
0.000694955
0.000751366
0.000809214
0.000868484
0.000929147
0.00099117
0.00105452
0.00111919
0.00118515
0.00125239
0.00132086
0.00139054
0.00146138
0.00153336
0.00160645
0.00168062
0.00175584
0.00183206
0.00190924
0.00198733
0.00206631
0.00214615
0.0022268
0.00230822
0.00239035
0.00247316
0.00255659
0.00264062
0.00272519
0.00281027
0.00289578
0.00298168
0.0030679
0.0031544
0.00324112
0.00332801
0.00341502
0.00350209
0.00358913
0.00367609
0.0037629
0.00384951
0.00393587
0.00402191
0.00410756
0.00419275
0.00427741
0.00436146
0.00444486
0.00452752
0.0046094
0.00469043
0.00477053
0.00484963
0.00492765
0.00500454
0.00508021
0.0051546
0.00522766
0.00529933
0.00536952
0.00543818
0.00550522
0.00557058
0.0056342
0.00569602
0.00575598
0.00581403
0.00587012
0.00592418
0.00597616
0.00602599
0.00607363
0.00611903
0.00616213
0.00620291
0.00624133
0.00627737
0.00631099
0.00634217
0.00637088
0.0063971
0.00642083
0.00644206
0.0064608
0.00647708
0.00649092
0.00650236
0.00651145
0.00651825
0.00652281
0.00652521
0.00652553
0.00652389
0.0065204
0.00651519
0.00650842
0.00650027
0.00649091
0.00648054
0.00646937
0.00645759
0.00644541
0.00643301
0.00642064
0.0064085
0.00639581
0.00638171
-2.60249e-05
-4.20255e-05
-5.68451e-05
-7.14163e-05
-8.65519e-05
-0.000101962
-0.000117348
-0.000132479
-0.000147137
-0.00016113
-0.0001743
-0.000186501
-0.000197591
-0.00020745
-0.000215978
-0.000223092
-0.00022872
-0.000232803
-0.000235284
-0.000236115
-0.000235265
-0.000232712
-0.000228432
-0.000222402
-0.000214608
-0.000205049
-0.000193723
-0.000180622
-0.000165734
-0.000149066
-0.00013063
-0.00011043
-8.8461e-05
-6.47237e-05
-3.92321e-05
-1.20045e-05
1.69491e-05
4.76276e-05
8.00256e-05
0.000114124
0.000149897
0.00018733
0.000226417
0.00026715
0.000309508
0.00035346
0.000398985
0.000446071
0.00049471
0.000544884
0.000596567
0.00064973
0.000704352
0.000760424
0.000817934
0.00087686
0.000937172
0.000998837
0.00106184
0.00112615
0.00119177
0.00125866
0.00132678
0.0013961
0.00146659
0.00153821
0.00161096
0.00168478
0.00175964
0.00183549
0.00191229
0.00199001
0.00206862
0.00214808
0.00222836
0.00230939
0.00239114
0.00247355
0.00255659
0.00264023
0.00272443
0.00280912
0.00289425
0.00297976
0.0030656
0.00315172
0.00323806
0.00332459
0.00341123
0.00349793
0.0035846
0.00367119
0.00375764
0.0038439
0.0039299
0.00401559
0.00410089
0.00418573
0.00427004
0.00435376
0.00443681
0.00451915
0.0046007
0.0046814
0.00476118
0.00483996
0.00491767
0.00499424
0.00506961
0.00514371
0.00521648
0.00528785
0.00535777
0.00542614
0.00549292
0.00555802
0.00562138
0.00568295
0.00574268
0.00580051
0.00585638
0.00591023
0.00596202
0.00601167
0.00605914
0.00610438
0.00614735
0.00618801
0.00622634
0.00626231
0.00629588
0.00632703
0.00635574
0.00638199
0.00640577
0.00642709
0.00644594
0.00646237
0.00647639
0.00648805
0.00649738
0.00650445
0.00650931
0.00651203
0.00651269
0.00651139
0.00650824
0.00650336
0.00649689
0.00648899
0.0064798
0.00646951
0.00645827
0.00644625
0.00643362
0.0064205
0.00640709
0.00639358
0.00637888
0.00636188
-1.56391e-05
-3.3958e-05
-5.0255e-05
-6.56873e-05
-8.13205e-05
-9.6936e-05
-0.000112304
-0.000127259
-0.000141627
-0.000155246
-0.000167979
-0.000179702
-0.000190304
-0.000199678
-0.000207727
-0.000214377
-0.000219569
-0.000223242
-0.000225341
-0.00022583
-0.00022468
-0.000221863
-0.000217349
-0.000211118
-0.000203163
-0.000193481
-0.000182058
-0.000168879
-0.000153943
-0.00013726
-0.000118833
-9.86537e-05
-7.67182e-05
-5.30361e-05
-2.76245e-05
-4.94132e-07
2.83543e-05
5.89189e-05
9.11851e-05
0.000125129
0.00016073
0.000197983
0.000236882
0.000277411
0.000319542
0.00036325
0.00040852
0.000455343
0.000503711
0.0005536
0.000604983
0.000657835
0.000712145
0.000767905
0.000825101
0.000883706
0.00094369
0.00100503
0.0010677
0.0011317
0.00119701
0.00126358
0.00133138
0.00140038
0.00147054
0.00154185
0.00161428
0.00168778
0.00176232
0.00183784
0.00191431
0.0019917
0.00206998
0.00214911
0.00222905
0.00230974
0.00239114
0.00247322
0.00255593
0.00263923
0.00272309
0.00280745
0.00289225
0.00297743
0.00306294
0.00314873
0.00323477
0.00332098
0.00340731
0.00349369
0.00358005
0.00366633
0.00375248
0.00383844
0.00392415
0.00400955
0.00409456
0.00417911
0.00426314
0.00434657
0.00442935
0.00451142
0.00459271
0.00467316
0.00475268
0.00483121
0.00490867
0.00498499
0.00506011
0.00513397
0.00520652
0.00527767
0.00534736
0.00541552
0.00548208
0.00554698
0.00561015
0.00567153
0.00573108
0.00578874
0.00584444
0.00589815
0.00594978
0.0059993
0.00604665
0.00609178
0.00613465
0.00617524
0.00621351
0.00624943
0.00628298
0.00631413
0.00634285
0.00636913
0.00639297
0.00641436
0.00643333
0.00644988
0.00646405
0.00647588
0.00648542
0.0064927
0.00649778
0.00650074
0.00650165
0.00650058
0.00649766
0.00649298
0.00648668
0.00647888
0.00646972
0.00645934
0.00644789
0.00643549
0.00642226
0.00640831
0.00639379
0.00637887
0.0063622
0.00634246
-5.14677e-06
-2.57181e-05
-4.35192e-05
-5.99053e-05
-7.61971e-05
-9.22112e-05
-0.000107741
-0.00012268
-0.000136913
-0.00015031
-0.000162749
-0.000174125
-0.000184347
-0.000193327
-0.000200985
-0.000207256
-0.000212079
-0.000215398
-0.000217169
-0.000217362
-0.000215947
-0.00021289
-0.000208163
-0.000201755
-0.000193659
-0.00018386
-0.000172338
-0.000159086
-0.000144108
-0.000127408
-0.000108978
-8.88079e-05
-6.69005e-05
-4.327e-05
-1.79295e-05
9.1193e-06
3.78786e-05
6.83395e-05
0.00010048
0.000134279
0.000169725
0.000206815
0.000245539
0.000285872
0.000327788
0.000371268
0.000416302
0.000462884
0.000510997
0.000560618
0.000611719
0.000664285
0.00071831
0.000773786
0.000830693
0.000889001
0.000948685
0.00100973
0.00107211
0.00113583
0.00120084
0.00126713
0.00133463
0.00140334
0.00147322
0.00154425
0.0016164
0.00168962
0.00176386
0.00183909
0.00191527
0.00199237
0.00207037
0.00214921
0.00222886
0.00230926
0.00239037
0.00247215
0.00255458
0.0026376
0.00272118
0.00280526
0.00288978
0.00297468
0.00305991
0.00314544
0.00323121
0.00331717
0.00340324
0.00348936
0.00357546
0.00366149
0.0037474
0.00383312
0.0039186
0.00400376
0.00408855
0.00417287
0.00425668
0.00433989
0.00442247
0.00450433
0.00458542
0.00466567
0.004745
0.00482333
0.0049006
0.00497674
0.00505168
0.00512537
0.00519775
0.00526874
0.00533827
0.00540627
0.00547268
0.00553743
0.00560046
0.00566171
0.00572114
0.00577868
0.00583428
0.00588787
0.00593941
0.00598884
0.00603611
0.00608117
0.00612399
0.00616453
0.00620278
0.00623869
0.00627223
0.00630339
0.00633214
0.00635847
0.00638236
0.00640383
0.00642289
0.00643955
0.00645385
0.00646582
0.00647551
0.00648295
0.0064882
0.00649133
0.00649239
0.00649148
0.00648869
0.0064841
0.00647785
0.00647003
0.00646078
0.0064502
0.00643841
0.00642552
0.00641161
0.00639675
0.0063811
0.00636477
0.00634622
0.00632391
4.96977e-06
-1.77571e-05
-3.70406e-05
-5.44307e-05
-7.1468e-05
-8.79962e-05
-0.000103827
-0.000118891
-0.000133113
-0.000146403
-0.000158665
-0.000169807
-0.000179749
-0.000188426
-0.000195775
-0.000201735
-0.000206248
-0.000209269
-0.000210767
-0.000210709
-0.000209059
-0.000205786
-0.000200875
-0.000194314
-0.000186088
-0.000176174
-0.00016456
-0.000151244
-0.000136229
-0.000119506
-0.000101063
-8.0897e-05
-5.90168e-05
-3.54346e-05
-1.0154e-05
1.68283e-05
4.5509e-05
7.58707e-05
0.000107891
0.000141556
0.000176863
0.000213804
0.000252362
0.000292508
0.000334221
0.000377489
0.000422308
0.000468666
0.000516542
0.00056591
0.000616752
0.00066906
0.000722829
0.000778046
0.000834688
0.000892725
0.000952138
0.00101292
0.00107504
0.0011385
0.00120326
0.00126928
0.00133653
0.00140498
0.00147461
0.0015454
0.0016173
0.00169026
0.00176425
0.00183922
0.00191516
0.00199202
0.00206977
0.00214837
0.00222777
0.00230792
0.00238879
0.00247033
0.00255253
0.00263533
0.00271868
0.00280253
0.00288681
0.00297149
0.00305651
0.00314183
0.00322739
0.00331314
0.003399
0.00348492
0.00357082
0.00365666
0.00374238
0.00382792
0.00391323
0.00399822
0.00408283
0.00416699
0.00425064
0.0043337
0.00441612
0.00449785
0.0045788
0.00465891
0.00473811
0.00481631
0.00489345
0.00496946
0.00504429
0.00511787
0.00519014
0.00526102
0.00533045
0.00539836
0.00546467
0.00552933
0.00559227
0.00565345
0.00571281
0.00577028
0.00582582
0.00587937
0.00593086
0.00598024
0.00602747
0.0060725
0.0061153
0.00615584
0.00619409
0.00623001
0.00626358
0.00629477
0.00632356
0.00634994
0.00637389
0.00639543
0.00641457
0.00643133
0.00644573
0.00645782
0.00646762
0.00647518
0.00648054
0.00648377
0.00648493
0.0064841
0.00648134
0.00647677
0.00647047
0.00646254
0.00645309
0.00644221
0.00643
0.00641655
0.0064019
0.0063861
0.0063693
0.0063516
0.00633127
0.00630659
1.43255e-05
-1.04222e-05
-3.11591e-05
-4.95781e-05
-6.73973e-05
-8.45008e-05
-0.000100728
-0.000116027
-0.000130345
-0.000143625
-0.000155801
-0.000166798
-0.00017655
-0.00018501
-0.000192121
-0.000197829
-0.00020209
-0.000204872
-0.000206144
-0.000205868
-0.000204012
-0.000200556
-0.000195489
-0.000188793
-0.000180444
-0.000170424
-0.000158729
-0.000145359
-0.000130306
-0.000113554
-9.50937e-05
-7.49316e-05
-5.30783e-05
-2.95376e-05
-4.3047e-06
2.26212e-05
5.12272e-05
8.14919e-05
0.000113399
0.000146945
0.000182125
0.000218926
0.000257323
0.000297291
0.000338815
0.000381892
0.000426514
0.000472664
0.000520318
0.000569454
0.000620062
0.00067214
0.00072568
0.000780664
0.000837065
0.00089486
0.000954035
0.00101458
0.00107649
0.00113972
0.00120425
0.00127004
0.00133706
0.00140529
0.0014747
0.00154527
0.00161695
0.0016897
0.00176347
0.00183823
0.00191396
0.00199062
0.00206817
0.00214657
0.00222576
0.00230572
0.00238639
0.00246776
0.00254978
0.0026324
0.00271557
0.00279924
0.00288335
0.00296786
0.00305272
0.00313788
0.00322329
0.00330888
0.00339459
0.00348036
0.00356612
0.00365182
0.00373742
0.00382284
0.00390803
0.0039929
0.00407741
0.00416146
0.004245
0.00432797
0.00441031
0.00449195
0.00457283
0.00465286
0.00473198
0.00481011
0.00488718
0.00496313
0.0050379
0.00511143
0.00518365
0.00525449
0.00532388
0.00539174
0.00545801
0.00552264
0.00558555
0.00564671
0.00570605
0.00576351
0.00581904
0.00587258
0.00592406
0.00597344
0.00602068
0.00606572
0.00610855
0.00614911
0.00618739
0.00622335
0.00625696
0.0062882
0.00631705
0.00634348
0.00636751
0.00638912
0.00640833
0.00642517
0.00643966
0.00645183
0.00646172
0.00646935
0.00647479
0.00647807
0.00647927
0.00647844
0.00647566
0.00647102
0.0064646
0.00645649
0.00644677
0.00643552
0.00642283
0.00640876
0.00639334
0.00637659
0.00635866
0.00633965
0.00631765
0.0062908
2.26054e-05
-4.02036e-06
-2.61482e-05
-4.55924e-05
-6.42191e-05
-8.19359e-05
-9.86106e-05
-0.000114216
-0.000128717
-0.000142071
-0.000154235
-0.000165162
-0.000174804
-0.000183114
-0.000190048
-0.000195564
-0.000199633
-0.000202225
-0.000203307
-0.000202845
-0.000200817
-0.00019721
-0.00019201
-0.00018519
-0.000176728
-0.000166617
-0.000154855
-0.000141434
-0.000126338
-0.000109553
-9.10791e-05
-7.09249e-05
-4.90957e-05
-2.55863e-05
-3.91537e-07
2.64809e-05
5.50116e-05
8.5183e-05
0.000116988
0.000150427
0.000185489
0.000222153
0.000260395
0.000300196
0.000341551
0.000384454
0.000428895
0.000474851
0.000522299
0.000571226
0.000621629
0.000673507
0.000726844
0.000781618
0.000837805
0.000895388
0.00095436
0.00101471
0.00107642
0.00113945
0.00120378
0.00126937
0.0013362
0.00140424
0.00147348
0.00154386
0.00161536
0.00168791
0.0017615
0.00183609
0.00191165
0.00198815
0.00206555
0.00214379
0.00222283
0.00230263
0.00238317
0.00246441
0.0025463
0.0026288
0.00271184
0.00279538
0.00287937
0.00296376
0.00304851
0.00313357
0.00321888
0.00330437
0.00338999
0.00347566
0.00356133
0.00364696
0.00373249
0.00381785
0.00390298
0.0039878
0.00407224
0.00415625
0.00423975
0.00432268
0.004405
0.00448662
0.00456747
0.00464749
0.00472659
0.00480471
0.00488177
0.00495772
0.0050325
0.00510603
0.00517826
0.00524911
0.00531851
0.00538639
0.00545268
0.00551732
0.00558027
0.00564145
0.00570082
0.00575832
0.00581389
0.00586747
0.00591899
0.00596842
0.0060157
0.00606079
0.00610367
0.0061443
0.00618264
0.00621866
0.00625234
0.00628365
0.00631256
0.00633906
0.00636316
0.00638484
0.00640413
0.00642104
0.0064356
0.00644784
0.00645778
0.00646546
0.00647093
0.00647423
0.00647541
0.00647454
0.00647168
0.00646692
0.00646032
0.00645196
0.00644191
0.00643025
0.00641703
0.00640231
0.0063861
0.00636841
0.00634939
0.00632913
0.00630558
0.00627675
2.95315e-05
1.17844e-06
-2.22441e-05
-4.26812e-05
-6.21282e-05
-8.04858e-05
-9.7638e-05
-0.000113594
-0.000128335
-0.000141828
-0.000154049
-0.000164974
-0.000174565
-0.000182782
-0.000189593
-0.000194975
-0.000198903
-0.000201344
-0.000202268
-0.000201654
-0.000199491
-0.000195762
-0.000190441
-0.000183507
-0.000174949
-0.000164765
-0.000152945
-0.000139472
-0.00012433
-0.000107516
-8.90345e-05
-6.889e-05
-4.70778e-05
-2.35904e-05
1.56943e-06
2.83858e-05
5.6841e-05
8.69264e-05
0.000118641
0.000151981
0.00018693
0.000223461
0.000261555
0.000301204
0.000342406
0.000385153
0.000429425
0.000475201
0.000522464
0.00057121
0.000621438
0.00067314
0.000726299
0.000780888
0.000836891
0.000894297
0.0009531
0.00101329
0.00107483
0.00113769
0.00120185
0.00126727
0.00133394
0.00140183
0.00147091
0.00154115
0.00161249
0.00168489
0.00175834
0.0018328
0.00190824
0.00198462
0.00206189
0.00214002
0.00221895
0.00229866
0.00237911
0.00246027
0.00254208
0.0026245
0.00270747
0.00279094
0.00287486
0.00295919
0.00304389
0.0031289
0.00321416
0.0032996
0.00338517
0.00347081
0.00355646
0.00364207
0.00372758
0.00381294
0.00389806
0.00398288
0.00406733
0.00415135
0.00423487
0.00431783
0.00440018
0.00448183
0.00456273
0.00464278
0.00472193
0.00480009
0.0048772
0.00495321
0.00502805
0.00510165
0.00517395
0.00524487
0.00531433
0.00538228
0.00544864
0.00551336
0.00557638
0.00563765
0.00569711
0.00575469
0.00581035
0.005864
0.00591561
0.00596512
0.00601249
0.00605767
0.00610064
0.00614136
0.00617979
0.0062159
0.00624967
0.00628106
0.00631005
0.00633663
0.0063608
0.00638256
0.00640192
0.0064189
0.00643352
0.00644581
0.00645578
0.00646349
0.00646896
0.00647223
0.00647336
0.00647241
0.00646943
0.0064645
0.00645767
0.00644902
0.00643861
0.00642649
0.00641272
0.00639733
0.00638033
0.00636172
0.00634164
0.0063202
0.00629522
0.00626458
3.48862e-05
4.9569e-06
-1.96638e-05
-4.10409e-05
-6.12894e-05
-8.03002e-05
-9.79568e-05
-0.000114291
-0.000129308
-0.000142991
-0.000155327
-0.000166301
-0.000175888
-0.000184061
-0.000190805
-0.000196102
-0.000199926
-0.000202248
-0.00020305
-0.000202323
-0.000200054
-0.000196217
-0.00019079
-0.000183761
-0.000175127
-0.000164881
-0.000153004
-0.000139478
-0.000124295
-0.00010746
-8.89756e-05
-6.88368e-05
-4.70337e-05
-2.35653e-05
1.55601e-06
2.83133e-05
5.66969e-05
8.67063e-05
0.00011834
0.000151585
0.00018642
0.000222822
0.000260782
0.000300296
0.000341362
0.000383964
0.000428081
0.000473694
0.000520796
0.00056939
0.00061947
0.000671022
0.000724025
0.000778458
0.000834309
0.000891573
0.000950241
0.00101029
0.0010717
0.00113442
0.00119844
0.00126373
0.00133027
0.00139804
0.00146701
0.00153712
0.00160834
0.00168063
0.00175397
0.00182834
0.0019037
0.00198
0.0020572
0.00213525
0.00221413
0.00229379
0.0023742
0.00245532
0.00253711
0.0026195
0.00270244
0.00278589
0.0028698
0.00295413
0.00303883
0.00312384
0.0032091
0.00329456
0.00338014
0.0034658
0.00355148
0.00363713
0.00372269
0.00380809
0.00389327
0.00397815
0.00406266
0.00414675
0.00423034
0.00431339
0.00439583
0.00447758
0.00455857
0.00463872
0.00471797
0.00479623
0.00487346
0.00494959
0.00502455
0.00509827
0.00517069
0.00524173
0.00531132
0.00537939
0.00544588
0.00551073
0.00557389
0.00563529
0.00569488
0.0057526
0.00580838
0.00586217
0.0059139
0.00596354
0.00601103
0.00605633
0.00609942
0.00614026
0.00617881
0.00621503
0.00624891
0.0062804
0.00630949
0.00633616
0.00636041
0.00638225
0.00640168
0.00641873
0.0064334
0.00644572
0.00645571
0.00646342
0.00646886
0.00647209
0.00647314
0.00647207
0.00646893
0.00646379
0.00645671
0.00644773
0.00643692
0.00642432
0.00640998
0.00639391
0.00637613