/*--------------------------------*- C++ -*----------------------------------*\
  =========                 |
  \\      /  F ield         | OpenFOAM: The Open Source CFD Toolbox
   \\    /   O peration     | Website:  https://openfoam.org
    \\  /    A nd           | Version:  7
     \\/     M anipulation  |
\*---------------------------------------------------------------------------*/
FoamFile
{
    version     2.0;
    format      ascii;
    class       volVectorField;
    location    "0.1125";
    object      U;
}
// * * * * * * * * * * * * * * * * * * * * * * * * * * * * * * * * * * * * * //

dimensions      [0 1 -1 0 0 0 0];

internalField   nonuniform List<vector> 
25600
(
(-2.0308e-07 -1.84233e-06 0)
(3.554e-06 -2.90339e-06 0)
(6.80696e-06 -1.92219e-06 0)
(9.59302e-06 -1.16672e-06 0)
(9.66576e-06 -3.11827e-07 0)
(7.53329e-06 5.07188e-07 0)
(3.11016e-06 1.28059e-06 0)
(-3.53527e-06 2.00074e-06 0)
(-1.23009e-05 2.65622e-06 0)
(-2.30321e-05 3.24968e-06 0)
(-3.55665e-05 3.78147e-06 0)
(-4.97451e-05 4.25333e-06 0)
(-6.53964e-05 4.67468e-06 0)
(-8.23592e-05 5.04659e-06 0)
(-0.000100484 5.36512e-06 0)
(-0.000119618 5.63517e-06 0)
(-0.000139626 5.86719e-06 0)
(-0.000160386 6.0666e-06 0)
(-0.000181783 6.2342e-06 0)
(-0.000203706 6.37145e-06 0)
(-0.000226059 6.47867e-06 0)
(-0.000248758 6.55705e-06 0)
(-0.000271723 6.61258e-06 0)
(-0.000294883 6.65243e-06 0)
(-0.000318178 6.67914e-06 0)
(-0.000341553 6.69177e-06 0)
(-0.000364959 6.69046e-06 0)
(-0.000388351 6.67716e-06 0)
(-0.000411693 6.65344e-06 0)
(-0.000434952 6.62023e-06 0)
(-0.000458098 6.57948e-06 0)
(-0.000481106 6.53387e-06 0)
(-0.000503953 6.48448e-06 0)
(-0.00052662 6.43063e-06 0)
(-0.000549091 6.37181e-06 0)
(-0.000571349 6.30849e-06 0)
(-0.00059338 6.24142e-06 0)
(-0.000615171 6.17087e-06 0)
(-0.000636712 6.09699e-06 0)
(-0.000657991 6.02068e-06 0)
(-0.000678999 5.94308e-06 0)
(-0.000699726 5.86427e-06 0)
(-0.000720163 5.78319e-06 0)
(-0.000740302 5.69887e-06 0)
(-0.000760135 5.61139e-06 0)
(-0.000779651 5.5215e-06 0)
(-0.000798843 5.4297e-06 0)
(-0.000817702 5.33578e-06 0)
(-0.000836222 5.23937e-06 0)
(-0.000854392 5.14065e-06 0)
(-0.000872204 5.04003e-06 0)
(-0.00088965 4.9375e-06 0)
(-0.000906722 4.83239e-06 0)
(-0.000923411 4.72389e-06 0)
(-0.000939708 4.61197e-06 0)
(-0.000955604 4.49751e-06 0)
(-0.000971091 4.38153e-06 0)
(-0.000986161 4.26402e-06 0)
(-0.0010008 4.1441e-06 0)
(-0.00101501 4.0209e-06 0)
(-0.00102878 3.89442e-06 0)
(-0.00104209 3.76525e-06 0)
(-0.00105494 3.63395e-06 0)
(-0.00106732 3.50056e-06 0)
(-0.00107922 3.36475e-06 0)
(-0.00109063 3.22613e-06 0)
(-0.00110155 3.08465e-06 0)
(-0.00111196 2.94063e-06 0)
(-0.00112186 2.79441e-06 0)
(-0.00113124 2.64597e-06 0)
(-0.00114008 2.49491e-06 0)
(-0.00114839 2.34087e-06 0)
(-0.00115615 2.18396e-06 0)
(-0.00116335 2.02462e-06 0)
(-0.00116998 1.86327e-06 0)
(-0.00117605 1.6999e-06 0)
(-0.00118153 1.53427e-06 0)
(-0.00118643 1.3661e-06 0)
(-0.00119073 1.19524e-06 0)
(-0.00119442 1.0218e-06 0)
(-0.00119751 8.46108e-07 0)
(-0.00119998 6.68589e-07 0)
(-0.00120182 4.89471e-07 0)
(-0.00120303 3.08638e-07 0)
(-0.00120361 1.25799e-07 0)
(-0.00120354 -5.91549e-08 0)
(-0.00120283 -2.46006e-07 0)
(-0.00120146 -4.34419e-07 0)
(-0.00119943 -6.2419e-07 0)
(-0.00119674 -8.15251e-07 0)
(-0.00119338 -1.00754e-06 0)
(-0.00118935 -1.20095e-06 0)
(-0.00118465 -1.39539e-06 0)
(-0.00117927 -1.59084e-06 0)
(-0.0011732 -1.78725e-06 0)
(-0.00116646 -1.98449e-06 0)
(-0.00115902 -2.18229e-06 0)
(-0.0011509 -2.38042e-06 0)
(-0.0011421 -2.57876e-06 0)
(-0.0011326 -2.77724e-06 0)
(-0.00112242 -2.97581e-06 0)
(-0.00111155 -3.17431e-06 0)
(-0.00109999 -3.37256e-06 0)
(-0.00108775 -3.57038e-06 0)
(-0.00107483 -3.76758e-06 0)
(-0.00106122 -3.96396e-06 0)
(-0.00104694 -4.15929e-06 0)
(-0.00103199 -4.35347e-06 0)
(-0.00101637 -4.5465e-06 0)
(-0.00100008 -4.73825e-06 0)
(-0.000983138 -4.92837e-06 0)
(-0.000965545 -5.11638e-06 0)
(-0.000947308 -5.302e-06 0)
(-0.000928436 -5.48523e-06 0)
(-0.000908937 -5.6661e-06 0)
(-0.000888821 -5.84437e-06 0)
(-0.000868099 -6.01957e-06 0)
(-0.000846783 -6.19124e-06 0)
(-0.000824886 -6.35908e-06 0)
(-0.000802421 -6.52275e-06 0)
(-0.000779405 -6.68187e-06 0)
(-0.000755853 -6.83606e-06 0)
(-0.000731784 -6.98504e-06 0)
(-0.000707219 -7.12839e-06 0)
(-0.00068218 -7.26534e-06 0)
(-0.00065669 -7.39483e-06 0)
(-0.000630778 -7.51598e-06 0)
(-0.000604473 -7.62824e-06 0)
(-0.000577808 -7.73105e-06 0)
(-0.000550819 -7.82343e-06 0)
(-0.000523547 -7.90397e-06 0)
(-0.000496034 -7.97118e-06 0)
(-0.000468331 -8.02366e-06 0)
(-0.00044049 -8.05999e-06 0)
(-0.000412571 -8.07846e-06 0)
(-0.000384639 -8.07718e-06 0)
(-0.000356766 -8.05425e-06 0)
(-0.00032903 -8.00766e-06 0)
(-0.000301517 -7.93502e-06 0)
(-0.00027432 -7.83347e-06 0)
(-0.000247541 -7.70012e-06 0)
(-0.000221291 -7.53228e-06 0)
(-0.000195689 -7.32735e-06 0)
(-0.000170864 -7.08236e-06 0)
(-0.000146954 -6.79373e-06 0)
(-0.000124106 -6.45771e-06 0)
(-0.00010248 -6.07066e-06 0)
(-8.22398e-05 -5.62907e-06 0)
(-6.3561e-05 -5.12936e-06 0)
(-4.66248e-05 -4.56808e-06 0)
(-3.16167e-05 -3.94244e-06 0)
(-1.87224e-05 -3.25081e-06 0)
(-8.12121e-06 -2.4934e-06 0)
(2.47097e-08 -1.67427e-06 0)
(5.5895e-06 -8.06031e-07 0)
(8.51756e-06 8.08126e-08 0)
(8.87667e-06 9.18906e-07 0)
(6.97655e-06 1.56813e-06 0)
(3.72751e-06 1.74105e-06 0)
(9.67465e-07 9.67962e-07 0)
(2.00881e-07 -3.02109e-06 0)
(3.91741e-06 -6.87517e-06 0)
(8.29767e-06 -4.93672e-06 0)
(9.40292e-06 -1.6893e-06 0)
(5.68072e-06 2.401e-06 0)
(-3.48368e-06 6.77086e-06 0)
(-1.83413e-05 1.11509e-05 0)
(-3.89105e-05 1.53764e-05 0)
(-6.49955e-05 1.93676e-05 0)
(-9.63032e-05 2.30698e-05 0)
(-0.00013248 2.64541e-05 0)
(-0.000173119 2.9519e-05 0)
(-0.000217815 3.22695e-05 0)
(-0.00026616 3.47142e-05 0)
(-0.000317745 3.68646e-05 0)
(-0.000372187 3.87376e-05 0)
(-0.000429125 4.03507e-05 0)
(-0.000488216 4.17264e-05 0)
(-0.000549143 4.28865e-05 0)
(-0.000611613 4.38496e-05 0)
(-0.000675355 4.46297e-05 0)
(-0.000740126 4.52424e-05 0)
(-0.000805706 4.57074e-05 0)
(-0.000871895 4.60426e-05 0)
(-0.000938514 4.6262e-05 0)
(-0.0010054 4.63781e-05 0)
(-0.00107242 4.64034e-05 0)
(-0.00113944 4.63485e-05 0)
(-0.00120635 4.62215e-05 0)
(-0.00127305 4.60303e-05 0)
(-0.00133946 4.57843e-05 0)
(-0.00140549 4.54918e-05 0)
(-0.00147109 4.51577e-05 0)
(-0.00153618 4.47856e-05 0)
(-0.00160071 4.438e-05 0)
(-0.00166465 4.39456e-05 0)
(-0.00172793 4.34848e-05 0)
(-0.00179054 4.29986e-05 0)
(-0.00185242 4.24888e-05 0)
(-0.00191354 4.19582e-05 0)
(-0.00197389 4.14095e-05 0)
(-0.00203342 4.08433e-05 0)
(-0.0020921 4.0259e-05 0)
(-0.00214992 3.96563e-05 0)
(-0.00220685 3.90363e-05 0)
(-0.00226286 3.84002e-05 0)
(-0.00231792 3.77477e-05 0)
(-0.00237202 3.70782e-05 0)
(-0.00242512 3.63913e-05 0)
(-0.00247721 3.56878e-05 0)
(-0.00252826 3.49683e-05 0)
(-0.00257824 3.42327e-05 0)
(-0.00262713 3.34802e-05 0)
(-0.0026749 3.27098e-05 0)
(-0.00272154 3.19215e-05 0)
(-0.00276701 3.11161e-05 0)
(-0.00281129 3.02941e-05 0)
(-0.00285436 2.94556e-05 0)
(-0.00289619 2.85995e-05 0)
(-0.00293676 2.77255e-05 0)
(-0.00297604 2.68338e-05 0)
(-0.003014 2.59249e-05 0)
(-0.00305063 2.49988e-05 0)
(-0.00308589 2.40555e-05 0)
(-0.00311976 2.30947e-05 0)
(-0.00315223 2.21163e-05 0)
(-0.00318325 2.11206e-05 0)
(-0.00321281 2.01079e-05 0)
(-0.00324089 1.90784e-05 0)
(-0.00326745 1.80321e-05 0)
(-0.00329248 1.69688e-05 0)
(-0.00331596 1.58885e-05 0)
(-0.00333785 1.47915e-05 0)
(-0.00335814 1.36785e-05 0)
(-0.0033768 1.25498e-05 0)
(-0.00339382 1.14055e-05 0)
(-0.00340916 1.02458e-05 0)
(-0.00342281 9.0707e-06 0)
(-0.00343475 7.88064e-06 0)
(-0.00344496 6.67614e-06 0)
(-0.00345341 5.45781e-06 0)
(-0.00346009 4.22617e-06 0)
(-0.00346498 2.98166e-06 0)
(-0.00346807 1.72464e-06 0)
(-0.00346933 4.55594e-07 0)
(-0.00346875 -8.24881e-07 0)
(-0.00346631 -2.11603e-06 0)
(-0.00346201 -3.41711e-06 0)
(-0.00345582 -4.72753e-06 0)
(-0.00344774 -6.04674e-06 0)
(-0.00343774 -7.37412e-06 0)
(-0.00342584 -8.7089e-06 0)
(-0.003412 -1.00502e-05 0)
(-0.00339623 -1.1397e-05 0)
(-0.00337852 -1.27486e-05 0)
(-0.00335886 -1.41043e-05 0)
(-0.00333725 -1.54633e-05 0)
(-0.00331369 -1.68247e-05 0)
(-0.00328816 -1.81875e-05 0)
(-0.00326068 -1.95506e-05 0)
(-0.00323125 -2.0913e-05 0)
(-0.00319985 -2.22737e-05 0)
(-0.00316651 -2.36316e-05 0)
(-0.00313122 -2.49856e-05 0)
(-0.00309399 -2.63349e-05 0)
(-0.00305483 -2.76782e-05 0)
(-0.00301375 -2.90144e-05 0)
(-0.00297076 -3.03421e-05 0)
(-0.00292587 -3.166e-05 0)
(-0.00287911 -3.29669e-05 0)
(-0.00283048 -3.42615e-05 0)
(-0.00278001 -3.55421e-05 0)
(-0.00272772 -3.68073e-05 0)
(-0.00267363 -3.80555e-05 0)
(-0.00261777 -3.92852e-05 0)
(-0.00256017 -4.04948e-05 0)
(-0.00250086 -4.1682e-05 0)
(-0.00243987 -4.28445e-05 0)
(-0.00237724 -4.39802e-05 0)
(-0.00231301 -4.50864e-05 0)
(-0.00224723 -4.61605e-05 0)
(-0.00217994 -4.71995e-05 0)
(-0.00211121 -4.82e-05 0)
(-0.00204109 -4.91583e-05 0)
(-0.00196964 -5.00703e-05 0)
(-0.00189693 -5.09308e-05 0)
(-0.00182306 -5.17345e-05 0)
(-0.00174809 -5.24755e-05 0)
(-0.00167213 -5.31478e-05 0)
(-0.00159528 -5.37445e-05 0)
(-0.00151766 -5.42577e-05 0)
(-0.00143939 -5.46787e-05 0)
(-0.00136062 -5.49979e-05 0)
(-0.0012815 -5.52051e-05 0)
(-0.0012022 -5.52889e-05 0)
(-0.0011229 -5.52371e-05 0)
(-0.00104381 -5.50366e-05 0)
(-0.00096515 -5.46737e-05 0)
(-0.00088716 -5.41335e-05 0)
(-0.000810103 -5.34003e-05 0)
(-0.000734264 -5.24574e-05 0)
(-0.000659951 -5.12874e-05 0)
(-0.000587493 -4.98729e-05 0)
(-0.000517244 -4.81959e-05 0)
(-0.00044958 -4.62382e-05 0)
(-0.000384901 -4.39815e-05 0)
(-0.000323625 -4.14084e-05 0)
(-0.000266191 -3.85034e-05 0)
(-0.000213048 -3.52536e-05 0)
(-0.000164657 -3.16504e-05 0)
(-0.000121471 -2.76922e-05 0)
(-8.39306e-05 -2.3389e-05 0)
(-5.24337e-05 -1.87691e-05 0)
(-2.73065e-05 -1.38912e-05 0)
(-8.74994e-06 -8.86484e-06 0)
(3.23831e-06 -3.88764e-06 0)
(8.97192e-06 6.92214e-07 0)
(9.25229e-06 4.27281e-06 0)
(5.82096e-06 5.82478e-06 0)
(1.73844e-06 3.7246e-06 0)
(1.00443e-06 -5.91549e-06 0)
(3.67907e-06 -9.75441e-06 0)
(4.41442e-06 -5.90739e-06 0)
(4.11194e-07 2.17582e-06 0)
(-1.04803e-05 1.24494e-05 0)
(-2.92325e-05 2.37248e-05 0)
(-5.63247e-05 3.5239e-05 0)
(-9.18255e-05 4.65436e-05 0)
(-0.000135558 5.73485e-05 0)
(-0.000187166 6.74733e-05 0)
(-0.000246156 7.68295e-05 0)
(-0.000311988 8.53674e-05 0)
(-0.000384081 9.3074e-05 0)
(-0.000461837 9.99679e-05 0)
(-0.000544664 0.000106074 0)
(-0.000631988 0.000111424 0)
(-0.000723255 0.000116066 0)
(-0.000817946 0.000120045 0)
(-0.000915576 0.000123413 0)
(-0.00101569 0.000126222 0)
(-0.00111787 0.000128518 0)
(-0.00122173 0.000130348 0)
(-0.00132692 0.000131757 0)
(-0.00143313 0.000132789 0)
(-0.00154006 0.000133482 0)
(-0.00164747 0.000133873 0)
(-0.00175513 0.000133997 0)
(-0.00186283 0.000133885 0)
(-0.00197038 0.000133562 0)
(-0.00207762 0.000133053 0)
(-0.00218442 0.000132381 0)
(-0.00229064 0.000131565 0)
(-0.00239617 0.000130621 0)
(-0.00250092 0.000129563 0)
(-0.00260478 0.000128403 0)
(-0.00270768 0.000127155 0)
(-0.00280954 0.000125825 0)
(-0.00291031 0.00012442 0)
(-0.00300991 0.000122946 0)
(-0.0031083 0.000121409 0)
(-0.00320542 0.000119812 0)
(-0.00330122 0.00011816 0)
(-0.00339566 0.000116454 0)
(-0.00348869 0.000114694 0)
(-0.00358027 0.000112884 0)
(-0.00367035 0.000111025 0)
(-0.0037589 0.000109116 0)
(-0.00384588 0.000107159 0)
(-0.00393124 0.000105151 0)
(-0.00401494 0.000103095 0)
(-0.00409695 0.000100991 0)
(-0.00417723 9.88384e-05 0)
(-0.00425573 9.66369e-05 0)
(-0.00433243 9.43857e-05 0)
(-0.00440727 9.20847e-05 0)
(-0.00448022 8.97344e-05 0)
(-0.00455123 8.7335e-05 0)
(-0.00462027 8.4886e-05 0)
(-0.00468731 8.23868e-05 0)
(-0.00475229 7.98373e-05 0)
(-0.00481518 7.72379e-05 0)
(-0.00487594 7.4589e-05 0)
(-0.00493453 7.18908e-05 0)
(-0.00499091 6.91429e-05 0)
(-0.00504504 6.6345e-05 0)
(-0.00509689 6.34974e-05 0)
(-0.00514641 6.06006e-05 0)
(-0.00519356 5.76555e-05 0)
(-0.00523831 5.46623e-05 0)
(-0.00528061 5.16212e-05 0)
(-0.00532044 4.85322e-05 0)
(-0.00535775 4.5396e-05 0)
(-0.00539251 4.22132e-05 0)
(-0.00542467 3.8985e-05 0)
(-0.00545422 3.57121e-05 0)
(-0.00548111 3.23954e-05 0)
(-0.0055053 2.90354e-05 0)
(-0.00552677 2.56328e-05 0)
(-0.00554548 2.21888e-05 0)
(-0.00556141 1.87049e-05 0)
(-0.00557451 1.51826e-05 0)
(-0.00558476 1.1623e-05 0)
(-0.00559214 8.02746e-06 0)
(-0.00559662 4.39722e-06 0)
(-0.00559816 7.33817e-07 0)
(-0.00559675 -2.96098e-06 0)
(-0.00559237 -6.68527e-06 0)
(-0.00558498 -1.04371e-05 0)
(-0.00557457 -1.42147e-05 0)
(-0.00556113 -1.80161e-05 0)
(-0.00554463 -2.18396e-05 0)
(-0.00552506 -2.56831e-05 0)
(-0.0055024 -2.95442e-05 0)
(-0.00547664 -3.34205e-05 0)
(-0.00544778 -3.73096e-05 0)
(-0.00541581 -4.12091e-05 0)
(-0.0053807 -4.51166e-05 0)
(-0.00534248 -4.90296e-05 0)
(-0.00530112 -5.29454e-05 0)
(-0.00525664 -5.68612e-05 0)
(-0.00520903 -6.0774e-05 0)
(-0.0051583 -6.46808e-05 0)
(-0.00510445 -6.85787e-05 0)
(-0.0050475 -7.24645e-05 0)
(-0.00498745 -7.63352e-05 0)
(-0.00492433 -8.01875e-05 0)
(-0.00485814 -8.40182e-05 0)
(-0.00478891 -8.78235e-05 0)
(-0.00471666 -9.15997e-05 0)
(-0.00464141 -9.53431e-05 0)
(-0.0045632 -9.90497e-05 0)
(-0.00448206 -0.000102715 0)
(-0.00439802 -0.000106336 0)
(-0.00431111 -0.000109906 0)
(-0.0042214 -0.000113422 0)
(-0.00412891 -0.000116878 0)
(-0.00403371 -0.000120269 0)
(-0.00393584 -0.000123587 0)
(-0.00383537 -0.000126826 0)
(-0.00373237 -0.00012998 0)
(-0.00362691 -0.000133039 0)
(-0.00351907 -0.000135995 0)
(-0.00340894 -0.000138839 0)
(-0.00329662 -0.000141558 0)
(-0.00318221 -0.000144141 0)
(-0.00306582 -0.000146574 0)
(-0.00294759 -0.000148842 0)
(-0.00282765 -0.000150927 0)
(-0.00270617 -0.000152813 0)
(-0.0025833 -0.000154479 0)
(-0.00245924 -0.000155901 0)
(-0.00233418 -0.000157056 0)
(-0.00220837 -0.000157918 0)
(-0.00208203 -0.000158456 0)
(-0.00195545 -0.000158639 0)
(-0.00182892 -0.000158433 0)
(-0.00170275 -0.000157803 0)
(-0.00157731 -0.000156708 0)
(-0.00145298 -0.000155108 0)
(-0.00133016 -0.000152961 0)
(-0.00120931 -0.000150222 0)
(-0.0010909 -0.000146845 0)
(-0.000975441 -0.000142783 0)
(-0.000863486 -0.00013799 0)
(-0.000755611 -0.000132418 0)
(-0.000652422 -0.000126026 0)
(-0.000554554 -0.000118773 0)
(-0.000462661 -0.000110627 0)
(-0.000377408 -0.000101564 0)
(-0.000299462 -9.15796e-05 0)
(-0.000229471 -8.06898e-05 0)
(-0.000168045 -6.89484e-05 0)
(-0.000115716 -5.64631e-05 0)
(-7.28898e-05 -4.34254e-05 0)
(-3.97825e-05 -3.01551e-05 0)
(-1.63197e-05 -1.71721e-05 0)
(-2.01859e-06 -5.30498e-06 0)
(4.17913e-06 4.15872e-06 0)
(4.2789e-06 9.25912e-06 0)
(1.5663e-06 6.97045e-06 0)
(7.13797e-07 -7.16673e-06 0)
(1.06416e-06 -9.92417e-06 0)
(-3.1562e-06 -1.57884e-06 0)
(-1.43744e-05 1.33967e-05 0)
(-3.44923e-05 3.20971e-05 0)
(-6.46154e-05 5.26266e-05 0)
(-0.000105245 7.37475e-05 0)
(-0.000156497 9.46257e-05 0)
(-0.000218191 0.000114711 0)
(-0.000289911 0.000133668 0)
(-0.000371107 0.000151286 0)
(-0.000461127 0.000167448 0)
(-0.00055926 0.000182114 0)
(-0.000664777 0.000195286 0)
(-0.000776944 0.000207001 0)
(-0.000895036 0.000217317 0)
(-0.00101835 0.000226303 0)
(-0.00114622 0.00023404 0)
(-0.00127802 0.000240616 0)
(-0.00141315 0.000246121 0)
(-0.00155107 0.000250643 0)
(-0.00169128 0.00025427 0)
(-0.00183331 0.000257086 0)
(-0.00197674 0.000259169 0)
(-0.00212119 0.000260592 0)
(-0.00226632 0.000261424 0)
(-0.00241181 0.000261732 0)
(-0.00255739 0.000261572 0)
(-0.00270281 0.000260997 0)
(-0.00284785 0.000260053 0)
(-0.00299232 0.000258784 0)
(-0.00313602 0.000257227 0)
(-0.00327882 0.000255412 0)
(-0.00342056 0.000253368 0)
(-0.00356112 0.000251121 0)
(-0.00370039 0.000248691 0)
(-0.00383827 0.000246096 0)
(-0.00397466 0.000243349 0)
(-0.00410947 0.000240462 0)
(-0.00424264 0.000237448 0)
(-0.00437408 0.000234315 0)
(-0.00450373 0.000231067 0)
(-0.00463152 0.000227709 0)
(-0.00475739 0.000224246 0)
(-0.00488128 0.000220682 0)
(-0.00500313 0.000217018 0)
(-0.00512289 0.000213257 0)
(-0.00524049 0.000209398 0)
(-0.00535589 0.000205442 0)
(-0.00546902 0.00020139 0)
(-0.00557984 0.000197243 0)
(-0.00568829 0.000193 0)
(-0.00579432 0.000188661 0)
(-0.00589787 0.000184225 0)
(-0.00599889 0.000179693 0)
(-0.00609733 0.000175065 0)
(-0.00619313 0.000170341 0)
(-0.00628624 0.000165519 0)
(-0.0063766 0.0001606 0)
(-0.00646417 0.000155584 0)
(-0.00654889 0.000150471 0)
(-0.0066307 0.000145262 0)
(-0.00670955 0.000139957 0)
(-0.0067854 0.000134556 0)
(-0.00685818 0.000129058 0)
(-0.00692785 0.000123465 0)
(-0.00699435 0.000117777 0)
(-0.00705764 0.000111996 0)
(-0.00711765 0.000106121 0)
(-0.00717435 0.000100154 0)
(-0.00722769 9.4096e-05 0)
(-0.0072776 8.79472e-05 0)
(-0.00732405 8.17096e-05 0)
(-0.00736699 7.53849e-05 0)
(-0.00740637 6.89745e-05 0)
(-0.00744215 6.24801e-05 0)
(-0.00747428 5.5903e-05 0)
(-0.00750271 4.92452e-05 0)
(-0.00752742 4.25089e-05 0)
(-0.00754835 3.56967e-05 0)
(-0.00756546 2.88114e-05 0)
(-0.00757873 2.18553e-05 0)
(-0.0075881 1.48308e-05 0)
(-0.00759355 7.74076e-06 0)
(-0.00759504 5.88203e-07 0)
(-0.00759254 -6.62351e-06 0)
(-0.00758603 -1.38909e-05 0)
(-0.00757546 -2.12104e-05 0)
(-0.00756082 -2.85784e-05 0)
(-0.00754208 -3.59911e-05 0)
(-0.00751923 -4.34447e-05 0)
(-0.00749223 -5.09352e-05 0)
(-0.00746108 -5.84583e-05 0)
(-0.00742575 -6.60094e-05 0)
(-0.00738625 -7.35837e-05 0)
(-0.00734254 -8.11766e-05 0)
(-0.00729464 -8.87833e-05 0)
(-0.00724253 -9.63988e-05 0)
(-0.00718621 -0.000104018 0)
(-0.00712568 -0.000111635 0)
(-0.00706096 -0.000119245 0)
(-0.00699204 -0.000126842 0)
(-0.00691893 -0.00013442 0)
(-0.00684165 -0.000141973 0)
(-0.00676022 -0.000149495 0)
(-0.00667465 -0.000156979 0)
(-0.00658498 -0.00016442 0)
(-0.00649122 -0.000171809 0)
(-0.00639341 -0.000179141 0)
(-0.00629159 -0.000186407 0)
(-0.0061858 -0.000193599 0)
(-0.00607607 -0.000200711 0)
(-0.00596246 -0.000207733 0)
(-0.00584502 -0.000214656 0)
(-0.00572382 -0.00022147 0)
(-0.00559891 -0.000228166 0)
(-0.00547037 -0.000234732 0)
(-0.00533827 -0.000241156 0)
(-0.00520269 -0.000247424 0)
(-0.00506374 -0.000253522 0)
(-0.00492151 -0.000259435 0)
(-0.0047761 -0.000265144 0)
(-0.00462765 -0.00027063 0)
(-0.00447628 -0.000275871 0)
(-0.00432213 -0.000280844 0)
(-0.00416537 -0.000285522 0)
(-0.00400616 -0.000289875 0)
(-0.00384471 -0.000293872 0)
(-0.00368121 -0.000297476 0)
(-0.0035159 -0.000300648 0)
(-0.00334902 -0.000303345 0)
(-0.00318087 -0.00030552 0)
(-0.00301173 -0.000307122 0)
(-0.00284194 -0.000308094 0)
(-0.00267186 -0.000308376 0)
(-0.0025019 -0.000307905 0)
(-0.00233247 -0.000306611 0)
(-0.00216404 -0.000304421 0)
(-0.00199713 -0.000301259 0)
(-0.00183227 -0.000297045 0)
(-0.00167005 -0.000291697 0)
(-0.00151111 -0.000285131 0)
(-0.0013561 -0.000277262 0)
(-0.00120574 -0.000268007 0)
(-0.00106077 -0.000257286 0)
(-0.000921979 -0.000245024 0)
(-0.000790161 -0.00023116 0)
(-0.000666146 -0.000215644 0)
(-0.000550763 -0.000198451 0)
(-0.000444835 -0.00017959 0)
(-0.00034915 -0.000159118 0)
(-0.00026443 -0.000137161 0)
(-0.000191296 -0.000113946 0)
(-0.000130207 -8.98494e-05 0)
(-8.13862e-05 -6.54596e-05 0)
(-4.47351e-05 -4.16804e-05 0)
(-1.97129e-05 -1.98708e-05 0)
(-5.19439e-06 -2.02068e-06 0)
(7.32045e-07 9.00789e-06 0)
(9.21864e-07 8.87553e-06 0)
(1.61671e-07 -7.35194e-06 0)
(-2.58803e-06 -5.74777e-06 0)
(-1.30233e-05 9.59984e-06 0)
(-3.28224e-05 3.36533e-05 0)
(-6.35509e-05 6.27882e-05 0)
(-0.000106205 9.45645e-05 0)
(-0.000161268 0.000127257 0)
(-0.000228826 0.00015966 0)
(-0.000308649 0.000190968 0)
(-0.000400289 0.000220637 0)
(-0.000503135 0.000248324 0)
(-0.000616455 0.000273835 0)
(-0.00073945 0.000297075 0)
(-0.000871284 0.000318023 0)
(-0.00101111 0.000336718 0)
(-0.00115809 0.000353235 0)
(-0.0013114 0.000367674 0)
(-0.00147026 0.000380153 0)
(-0.00163392 0.000390797 0)
(-0.00180167 0.000399739 0)
(-0.00197286 0.000407114 0)
(-0.00214688 0.000413057 0)
(-0.00232317 0.000417695 0)
(-0.00250122 0.000421152 0)
(-0.00268056 0.000423543 0)
(-0.00286077 0.000424979 0)
(-0.00304147 0.000425559 0)
(-0.00322231 0.000425373 0)
(-0.00340298 0.000424506 0)
(-0.0035832 0.000423034 0)
(-0.00376273 0.000421026 0)
(-0.00394134 0.000418539 0)
(-0.00411885 0.000415626 0)
(-0.00429506 0.000412333 0)
(-0.00446981 0.000408701 0)
(-0.00464297 0.000404762 0)
(-0.0048144 0.000400545 0)
(-0.00498399 0.000396075 0)
(-0.00515161 0.000391372 0)
(-0.00531718 0.000386455 0)
(-0.0054806 0.000381336 0)
(-0.00564177 0.000376027 0)
(-0.00580062 0.000370535 0)
(-0.00595707 0.000364868 0)
(-0.00611103 0.000359032 0)
(-0.00626244 0.000353032 0)
(-0.00641122 0.000346868 0)
(-0.0065573 0.000340544 0)
(-0.00670062 0.000334062 0)
(-0.0068411 0.000327423 0)
(-0.00697867 0.000320628 0)
(-0.00711327 0.000313675 0)
(-0.00724484 0.000306565 0)
(-0.00737329 0.000299298 0)
(-0.00749858 0.000291875 0)
(-0.00762062 0.000284296 0)
(-0.00773936 0.00027656 0)
(-0.00785472 0.000268667 0)
(-0.00796665 0.000260616 0)
(-0.00807508 0.000252409 0)
(-0.00817994 0.000244045 0)
(-0.00828116 0.000235526 0)
(-0.00837868 0.000226851 0)
(-0.00847243 0.000218022 0)
(-0.00856236 0.000209037 0)
(-0.0086484 0.000199899 0)
(-0.00873048 0.000190609 0)
(-0.00880855 0.000181169 0)
(-0.00888253 0.000171579 0)
(-0.00895237 0.000161841 0)
(-0.00901802 0.000151957 0)
(-0.0090794 0.000141928 0)
(-0.00913646 0.000131758 0)
(-0.00918915 0.000121448 0)
(-0.0092374 0.000111002 0)
(-0.00928117 0.000100421 0)
(-0.0093204 8.97089e-05 0)
(-0.00935504 7.88688e-05 0)
(-0.00938503 6.79042e-05 0)
(-0.00941033 5.68191e-05 0)
(-0.00943088 4.56175e-05 0)
(-0.00944665 3.43037e-05 0)
(-0.00945759 2.28818e-05 0)
(-0.00946366 1.13564e-05 0)
(-0.00946482 -2.67437e-07 0)
(-0.00946103 -1.19845e-05 0)
(-0.00945225 -2.37894e-05 0)
(-0.00943845 -3.56762e-05 0)
(-0.0094196 -4.76391e-05 0)
(-0.00939567 -5.9672e-05 0)
(-0.00936664 -7.17685e-05 0)
(-0.00933248 -8.3922e-05 0)
(-0.00929318 -9.61255e-05 0)
(-0.00924872 -0.000108372 0)
(-0.00919907 -0.000120654 0)
(-0.00914424 -0.000132963 0)
(-0.00908421 -0.000145292 0)
(-0.00901898 -0.000157633 0)
(-0.00894855 -0.000169977 0)
(-0.00887292 -0.000182316 0)
(-0.0087921 -0.000194641 0)
(-0.0087061 -0.000206942 0)
(-0.00861494 -0.00021921 0)
(-0.00851862 -0.000231435 0)
(-0.00841718 -0.000243607 0)
(-0.00831064 -0.000255716 0)
(-0.00819903 -0.000267752 0)
(-0.00808238 -0.000279703 0)
(-0.00796075 -0.000291558 0)
(-0.00783416 -0.000303304 0)
(-0.00770268 -0.000314929 0)
(-0.00756636 -0.00032642 0)
(-0.00742526 -0.000337763 0)
(-0.00727945 -0.000348944 0)
(-0.007129 -0.000359946 0)
(-0.006974 -0.000370753 0)
(-0.00681453 -0.000381347 0)
(-0.00665069 -0.000391706 0)
(-0.00648259 -0.000401811 0)
(-0.00631034 -0.000411637 0)
(-0.00613406 -0.000421157 0)
(-0.0059539 -0.000430345 0)
(-0.00577001 -0.000439167 0)
(-0.00558255 -0.000447589 0)
(-0.0053917 -0.000455571 0)
(-0.00519766 -0.000463071 0)
(-0.00500065 -0.000470041 0)
(-0.00480089 -0.00047643 0)
(-0.00459866 -0.000482178 0)
(-0.00439424 -0.000487224 0)
(-0.00418794 -0.000491498 0)
(-0.00398009 -0.000494924 0)
(-0.00377109 -0.00049742 0)
(-0.00356132 -0.000498898 0)
(-0.00335125 -0.000499262 0)
(-0.00314135 -0.00049841 0)
(-0.00293215 -0.000496235 0)
(-0.00272421 -0.000492621 0)
(-0.00251816 -0.00048745 0)
(-0.00231464 -0.000480597 0)
(-0.00211438 -0.000471936 0)
(-0.00191812 -0.000461338 0)
(-0.00172667 -0.000448677 0)
(-0.00154086 -0.000433827 0)
(-0.00136158 -0.000416672 0)
(-0.00118976 -0.000397108 0)
(-0.00102632 -0.00037505 0)
(-0.000872234 -0.000350438 0)
(-0.000728457 -0.000323255 0)
(-0.000595925 -0.000293537 0)
(-0.00047553 -0.000261397 0)
(-0.00036808 -0.000227059 0)
(-0.000274262 -0.000190895 0)
(-0.000194581 -0.00015349 0)
(-0.000129297 -0.000115723 0)
(-7.83439e-05 -7.8887e-05 0)
(-4.12241e-05 -4.48445e-05 0)
(-1.68923e-05 -1.62163e-05 0)
(-3.78264e-06 3.36547e-06 0)
(9.47793e-08 8.54564e-06 0)
(-5.36216e-07 -5.36084e-06 0)
(-6.75877e-06 3.68418e-06 0)
(-2.40715e-05 2.86523e-05 0)
(-5.32745e-05 6.39703e-05 0)
(-9.54111e-05 0.00010553 0)
(-0.00015131 0.000150385 0)
(-0.00022134 0.000196391 0)
(-0.000305487 0.000242022 0)
(-0.000403464 0.000286196 0)
(-0.000514764 0.000328168 0)
(-0.00063871 0.000367458 0)
(-0.000774511 0.000403771 0)
(-0.000921294 0.000436955 0)
(-0.00107814 0.000466961 0)
(-0.00124412 0.00049382 0)
(-0.00141829 0.000517616 0)
(-0.00159975 0.000538478 0)
(-0.00178761 0.00055656 0)
(-0.00198102 0.000572031 0)
(-0.00217919 0.00058507 0)
(-0.00238137 0.000595862 0)
(-0.00258687 0.000604591 0)
(-0.00279503 0.000611433 0)
(-0.00300528 0.000616563 0)
(-0.00321706 0.000620145 0)
(-0.00342988 0.000622333 0)
(-0.0036433 0.000623268 0)
(-0.00385691 0.000623081 0)
(-0.00407035 0.000621892 0)
(-0.00428329 0.000619811 0)
(-0.00449543 0.000616934 0)
(-0.00470651 0.000613346 0)
(-0.00491629 0.000609124 0)
(-0.00512456 0.000604336 0)
(-0.00533112 0.00059904 0)
(-0.0055358 0.000593285 0)
(-0.00573844 0.000587113 0)
(-0.0059389 0.00058056 0)
(-0.00613704 0.000573659 0)
(-0.00633274 0.000566435 0)
(-0.00652589 0.000558907 0)
(-0.00671637 0.000551092 0)
(-0.00690409 0.000543005 0)
(-0.00708895 0.000534657 0)
(-0.00727086 0.000526057 0)
(-0.00744972 0.000517211 0)
(-0.00762545 0.000508123 0)
(-0.00779797 0.000498797 0)
(-0.00796719 0.000489237 0)
(-0.00813303 0.000479444 0)
(-0.0082954 0.000469421 0)
(-0.00845423 0.000459166 0)
(-0.00860945 0.000448681 0)
(-0.00876096 0.000437967 0)
(-0.00890869 0.000427023 0)
(-0.00905256 0.00041585 0)
(-0.00919249 0.000404447 0)
(-0.00932841 0.000392816 0)
(-0.00946024 0.000380955 0)
(-0.0095879 0.000368866 0)
(-0.00971132 0.00035655 0)
(-0.00983041 0.000344007 0)
(-0.0099451 0.000331238 0)
(-0.0100553 0.000318244 0)
(-0.010161 0.000305025 0)
(-0.010262 0.000291585 0)
(-0.0103584 0.000277924 0)
(-0.01045 0.000264046 0)
(-0.0105367 0.000249951 0)
(-0.0106185 0.000235642 0)
(-0.0106954 0.000221122 0)
(-0.0107672 0.000206394 0)
(-0.0108339 0.000191462 0)
(-0.0108954 0.00017633 0)
(-0.0109516 0.000161 0)
(-0.0110026 0.000145477 0)
(-0.0110481 0.000129766 0)
(-0.0110883 0.000113871 0)
(-0.0111229 9.77986e-05 0)
(-0.011152 8.15531e-05 0)
(-0.0111755 6.51409e-05 0)
(-0.0111934 4.85679e-05 0)
(-0.0112055 3.18405e-05 0)
(-0.0112119 1.49657e-05 0)
(-0.0112125 -2.04938e-06 0)
(-0.0112072 -1.91969e-05 0)
(-0.0111961 -3.6469e-05 0)
(-0.011179 -5.38571e-05 0)
(-0.011156 -7.1353e-05 0)
(-0.0111271 -8.89476e-05 0)
(-0.0110921 -0.000106632 0)
(-0.011051 -0.000124395 0)
(-0.0110039 -0.000142229 0)
(-0.0109508 -0.000160121 0)
(-0.0108915 -0.000178061 0)
(-0.0108261 -0.000196038 0)
(-0.0107547 -0.000214041 0)
(-0.0106771 -0.000232057 0)
(-0.0105934 -0.000250075 0)
(-0.0105035 -0.000268082 0)
(-0.0104076 -0.000286065 0)
(-0.0103056 -0.00030401 0)
(-0.0101976 -0.000321904 0)
(-0.0100834 -0.000339732 0)
(-0.00996331 -0.00035748 0)
(-0.0098372 -0.000375132 0)
(-0.00970514 -0.000392674 0)
(-0.00956717 -0.000410089 0)
(-0.00942335 -0.000427361 0)
(-0.00927373 -0.000444471 0)
(-0.00911838 -0.000461401 0)
(-0.00895735 -0.000478132 0)
(-0.00879072 -0.000494645 0)
(-0.00861858 -0.000510916 0)
(-0.00844101 -0.000526923 0)
(-0.00825812 -0.000542641 0)
(-0.00807 -0.000558043 0)
(-0.00787677 -0.000573101 0)
(-0.00767856 -0.000587781 0)
(-0.00747551 -0.00060205 0)
(-0.00726776 -0.000615869 0)
(-0.00705549 -0.000629196 0)
(-0.00683887 -0.000641984 0)
(-0.00661809 -0.000654183 0)
(-0.00639337 -0.000665736 0)
(-0.00616494 -0.00067658 0)
(-0.00593307 -0.000686646 0)
(-0.00569803 -0.000695858 0)
(-0.00546012 -0.000704132 0)
(-0.00521968 -0.000711377 0)
(-0.00497708 -0.000717494 0)
(-0.00473273 -0.000722372 0)
(-0.00448705 -0.000725895 0)
(-0.00424052 -0.000727935 0)
(-0.00399367 -0.000728357 0)
(-0.00374706 -0.000727014 0)
(-0.00350129 -0.000723755 0)
(-0.00325702 -0.000718416 0)
(-0.00301497 -0.000710831 0)
(-0.00277589 -0.000700827 0)
(-0.00254059 -0.000688226 0)
(-0.00230993 -0.000672853 0)
(-0.00208483 -0.000654534 0)
(-0.00186623 -0.000633101 0)
(-0.00165514 -0.000608401 0)
(-0.00145258 -0.0005803 0)
(-0.00125961 -0.000548693 0)
(-0.0010773 -0.000513519 0)
(-0.000906685 -0.000474773 0)
(-0.000748811 -0.000432531 0)
(-0.000604643 -0.000386976 0)
(-0.000475064 -0.00033844 0)
(-0.000360823 -0.000287456 0)
(-0.000262484 -0.000234822 0)
(-0.000180376 -0.000181703 0)
(-0.000114522 -0.000129753 0)
(-6.45554e-05 -8.12794e-05 0)
(-2.96211e-05 -3.94278e-05 0)
(-8.66028e-06 -8.42751e-06 0)
(-7.74266e-07 5.68933e-06 0)
(-1.26414e-06 -1.11322e-06 0)
(-1.10807e-05 1.87728e-05 0)
(-3.55655e-05 5.60737e-05 0)
(-7.45162e-05 0.000104934 0)
(-0.000128441 0.000160861 0)
(-0.000197918 0.000220521 0)
(-0.000283119 0.000281439 0)
(-0.000383903 0.000341789 0)
(-0.000499891 0.000400245 0)
(-0.000630491 0.000455879 0)
(-0.000774962 0.000508064 0)
(-0.000932446 0.000556404 0)
(-0.00110201 0.000600686 0)
(-0.00128267 0.000640829 0)
(-0.00147341 0.000676851 0)
(-0.00167323 0.000708846 0)
(-0.00188113 0.000736965 0)
(-0.00209617 0.000761396 0)
(-0.0023174 0.000782351 0)
(-0.00254397 0.000800061 0)
(-0.00277504 0.000814762 0)
(-0.00300984 0.000826688 0)
(-0.00324766 0.000836074 0)
(-0.00348784 0.000843144 0)
(-0.00372977 0.000848115 0)
(-0.0039729 0.000851189 0)
(-0.00421672 0.000852555 0)
(-0.00446077 0.000852387 0)
(-0.00470464 0.000850847 0)
(-0.00494796 0.00084808 0)
(-0.00519038 0.000844215 0)
(-0.00543161 0.000839368 0)
(-0.00567137 0.000833643 0)
(-0.00590941 0.000827131 0)
(-0.00614551 0.000819913 0)
(-0.00637947 0.000812054 0)
(-0.0066111 0.000803613 0)
(-0.00684022 0.000794642 0)
(-0.0070667 0.000785184 0)
(-0.00729037 0.000775272 0)
(-0.00751111 0.000764936 0)
(-0.0077288 0.000754199 0)
(-0.0079433 0.000743083 0)
(-0.00815452 0.000731603 0)
(-0.00836234 0.000719772 0)
(-0.00856666 0.000707598 0)
(-0.00876737 0.000695089 0)
(-0.00896438 0.000682253 0)
(-0.00915759 0.000669092 0)
(-0.00934691 0.000655611 0)
(-0.00953224 0.000641812 0)
(-0.00971349 0.000627695 0)
(-0.00989057 0.000613262 0)
(-0.0100634 0.000598515 0)
(-0.0102319 0.000583454 0)
(-0.0103959 0.000568081 0)
(-0.0105554 0.000552393 0)
(-0.0107102 0.000536394 0)
(-0.0108604 0.000520082 0)
(-0.0110058 0.00050346 0)
(-0.0111463 0.000486529 0)
(-0.0112818 0.00046929 0)
(-0.0114122 0.000451744 0)
(-0.0115376 0.000433892 0)
(-0.0116577 0.000415737 0)
(-0.0117725 0.000397281 0)
(-0.0118819 0.000378528 0)
(-0.0119858 0.000359479 0)
(-0.0120842 0.000340139 0)
(-0.0121769 0.000320509 0)
(-0.012264 0.000300595 0)