/*--------------------------------*- C++ -*----------------------------------*\
  =========                 |
  \\      /  F ield         | OpenFOAM: The Open Source CFD Toolbox
   \\    /   O peration     | Website:  https://openfoam.org
    \\  /    A nd           | Version:  7
     \\/     M anipulation  |
\*---------------------------------------------------------------------------*/
FoamFile
{
    version     2.0;
    format      ascii;
    class       volVectorField;
    location    "0.225";
    object      U;
}
// * * * * * * * * * * * * * * * * * * * * * * * * * * * * * * * * * * * * * //

dimensions      [0 1 -1 0 0 0 0];

internalField   nonuniform List<vector> 
25600
(
(2.94118e-07 -2.79687e-07 0)
(2.78736e-06 -1.6362e-06 0)
(8.17722e-06 -2.43668e-06 0)
(1.46616e-05 -2.64806e-06 0)
(2.09365e-05 -2.47389e-06 0)
(2.61954e-05 -2.05756e-06 0)
(2.99056e-05 -1.49457e-06 0)
(3.1717e-05 -8.4374e-07 0)
(3.14065e-05 -1.46677e-07 0)
(2.88466e-05 5.72656e-07 0)
(2.3973e-05 1.29602e-06 0)
(1.67652e-05 2.01346e-06 0)
(7.23821e-06 2.71676e-06 0)
(-4.57045e-06 3.39977e-06 0)
(-1.86053e-05 4.05871e-06 0)
(-3.47966e-05 4.69178e-06 0)
(-5.30663e-05 5.29652e-06 0)
(-7.33295e-05 5.87249e-06 0)
(-9.5495e-05 6.41932e-06 0)
(-0.00011947 6.93513e-06 0)
(-0.000145159 7.42083e-06 0)
(-0.000172464 7.87699e-06 0)
(-0.000201289 8.30312e-06 0)
(-0.000231537 8.70052e-06 0)
(-0.00026311 9.06956e-06 0)
(-0.000295916 9.40968e-06 0)
(-0.000329858 9.72214e-06 0)
(-0.000364846 1.00082e-05 0)
(-0.000400789 1.0268e-05 0)
(-0.000437598 1.05023e-05 0)
(-0.000475187 1.07119e-05 0)
(-0.000513471 1.08966e-05 0)
(-0.000552368 1.10576e-05 0)
(-0.000591795 1.11961e-05 0)
(-0.000631675 1.13125e-05 0)
(-0.000671932 1.14071e-05 0)
(-0.000712489 1.14806e-05 0)
(-0.000753276 1.15341e-05 0)
(-0.000794222 1.15684e-05 0)
(-0.000835256 1.15841e-05 0)
(-0.000876314 1.15817e-05 0)
(-0.000917329 1.15611e-05 0)
(-0.000958238 1.15218e-05 0)
(-0.000998978 1.14642e-05 0)
(-0.00103949 1.13896e-05 0)
(-0.00107971 1.12995e-05 0)
(-0.00111959 1.11941e-05 0)
(-0.00115907 1.10738e-05 0)
(-0.00119808 1.09384e-05 0)
(-0.00123659 1.07875e-05 0)
(-0.00127454 1.06214e-05 0)
(-0.00131187 1.0441e-05 0)
(-0.00134853 1.02471e-05 0)
(-0.00138448 1.00397e-05 0)
(-0.00141966 9.81887e-06 0)
(-0.00145404 9.58499e-06 0)
(-0.00148755 9.33813e-06 0)
(-0.00152017 9.07855e-06 0)
(-0.00155183 8.80643e-06 0)
(-0.0015825 8.52222e-06 0)
(-0.00161214 8.22623e-06 0)
(-0.0016407 7.91837e-06 0)
(-0.00166814 7.59897e-06 0)
(-0.00169443 7.26831e-06 0)
(-0.00171951 6.92663e-06 0)
(-0.00174336 6.57453e-06 0)
(-0.00176594 6.21213e-06 0)
(-0.00178721 5.83945e-06 0)
(-0.00180713 5.45696e-06 0)
(-0.00182568 5.0649e-06 0)
(-0.00184281 4.66357e-06 0)
(-0.0018585 4.2538e-06 0)
(-0.00187273 3.83572e-06 0)
(-0.00188545 3.40936e-06 0)
(-0.00189664 2.97551e-06 0)
(-0.00190628 2.53457e-06 0)
(-0.00191435 2.08689e-06 0)
(-0.00192082 1.63347e-06 0)
(-0.00192567 1.17452e-06 0)
(-0.00192888 7.10106e-07 0)
(-0.00193045 2.41338e-07 0)
(-0.00193035 -2.31098e-07 0)
(-0.00192857 -7.07045e-07 0)
(-0.00192511 -1.1854e-06 0)
(-0.00191996 -1.66527e-06 0)
(-0.0019131 -2.14647e-06 0)
(-0.00190455 -2.62793e-06 0)
(-0.00189431 -3.1085e-06 0)
(-0.00188237 -3.58804e-06 0)
(-0.00186874 -4.06588e-06 0)
(-0.00185344 -4.54059e-06 0)
(-0.00183647 -5.01142e-06 0)
(-0.00181785 -5.47772e-06 0)
(-0.00179761 -5.93804e-06 0)
(-0.00177576 -6.39141e-06 0)
(-0.00175233 -6.83754e-06 0)
(-0.00172734 -7.27554e-06 0)
(-0.00170083 -7.70411e-06 0)
(-0.00167284 -8.12226e-06 0)
(-0.0016434 -8.52896e-06 0)
(-0.00161256 -8.92304e-06 0)
(-0.00158036 -9.3037e-06 0)
(-0.00154685 -9.67035e-06 0)
(-0.00151209 -1.00219e-05 0)
(-0.00147612 -1.03572e-05 0)
(-0.00143901 -1.06749e-05 0)
(-0.00140082 -1.09744e-05 0)
(-0.00136161 -1.12547e-05 0)
(-0.00132146 -1.1515e-05 0)
(-0.00128044 -1.17546e-05 0)
(-0.00123862 -1.19723e-05 0)
(-0.00119608 -1.21673e-05 0)
(-0.0011529 -1.23387e-05 0)
(-0.00110916 -1.2486e-05 0)
(-0.00106495 -1.26088e-05 0)
(-0.00102035 -1.27059e-05 0)
(-0.00097546 -1.27766e-05 0)
(-0.000930369 -1.28206e-05 0)
(-0.00088517 -1.28374e-05 0)
(-0.000839958 -1.28264e-05 0)
(-0.000794833 -1.27871e-05 0)
(-0.000749891 -1.27191e-05 0)
(-0.000705232 -1.26224e-05 0)
(-0.000660958 -1.24966e-05 0)
(-0.000617169 -1.2341e-05 0)
(-0.000573967 -1.21559e-05 0)
(-0.000531454 -1.19415e-05 0)
(-0.000489731 -1.16978e-05 0)
(-0.0004489 -1.14246e-05 0)
(-0.000409062 -1.11218e-05 0)
(-0.000370317 -1.079e-05 0)
(-0.000332764 -1.04295e-05 0)
(-0.000296501 -1.00403e-05 0)
(-0.000261623 -9.62288e-06 0)
(-0.000228225 -9.17795e-06 0)
(-0.000196398 -8.70643e-06 0)
(-0.000166231 -8.20877e-06 0)
(-0.000137809 -7.68549e-06 0)
(-0.000111215 -7.1377e-06 0)
(-8.65259e-05 -6.56691e-06 0)
(-6.38148e-05 -5.97437e-06 0)
(-4.31487e-05 -5.36121e-06 0)
(-2.45878e-05 -4.72915e-06 0)
(-8.18528e-06 -4.08053e-06 0)
(6.01454e-06 -3.41804e-06 0)
(1.79779e-05 -2.74439e-06 0)
(2.76837e-05 -2.06271e-06 0)
(3.51259e-05 -1.37734e-06 0)
(4.03166e-05 -6.94312e-07 0)
(4.32911e-05 -2.12485e-08 0)
(4.41142e-05 6.32268e-07 0)
(4.28884e-05 1.25348e-06 0)
(3.97649e-05 1.82405e-06 0)
(3.49607e-05 2.31663e-06 0)
(2.87837e-05 2.69062e-06 0)
(2.16678e-05 2.88613e-06 0)
(1.4213e-05 2.81615e-06 0)
(7.24999e-06 2.35379e-06 0)
(2.01398e-06 1.35373e-06 0)
(7.75066e-09 8.2403e-09 0)
(1.69044e-06 -2.80502e-06 0)
(8.32814e-06 -8.26786e-06 0)
(1.97519e-05 -1.12318e-05 0)
(3.26395e-05 -1.17955e-05 0)
(4.44955e-05 -1.05699e-05 0)
(5.36237e-05 -8.08807e-06 0)
(5.87499e-05 -4.74996e-06 0)
(5.89516e-05 -8.48696e-07 0)
(5.36051e-05 3.4054e-06 0)
(4.23052e-05 7.86185e-06 0)
(2.48114e-05 1.24109e-05 0)
(1.01556e-06 1.6977e-05 0)
(-2.90983e-05 2.14999e-05 0)
(-6.54712e-05 2.59379e-05 0)
(-0.000107987 3.02588e-05 0)
(-0.000156491 3.44392e-05 0)
(-0.000210794 3.84615e-05 0)
(-0.000270678 4.23146e-05 0)
(-0.000335915 4.59881e-05 0)
(-0.000406258 4.94766e-05 0)
(-0.000481453 5.27769e-05 0)
(-0.000561239 5.58862e-05 0)
(-0.000645352 5.88048e-05 0)
(-0.000733525 6.15338e-05 0)
(-0.000825494 6.40734e-05 0)
(-0.000920992 6.64264e-05 0)
(-0.00101976 6.85958e-05 0)
(-0.00112153 7.05841e-05 0)
(-0.00122606 7.23951e-05 0)
(-0.00133309 7.40328e-05 0)
(-0.00144237 7.55004e-05 0)
(-0.00155366 7.68012e-05 0)
(-0.00166673 7.79399e-05 0)
(-0.00178135 7.89205e-05 0)
(-0.00189728 7.97467e-05 0)
(-0.00201431 8.04225e-05 0)
(-0.00213223 8.09517e-05 0)
(-0.00225081 8.1338e-05 0)
(-0.00236986 8.15857e-05 0)
(-0.00248918 8.16988e-05 0)
(-0.00260857 8.16807e-05 0)
(-0.00272784 8.15346e-05 0)
(-0.00284681 8.12629e-05 0)
(-0.00296529 8.08683e-05 0)
(-0.00308311 8.0354e-05 0)
(-0.00320009 7.97232e-05 0)
(-0.00331607 7.89792e-05 0)
(-0.00343088 7.81247e-05 0)
(-0.00354436 7.7162e-05 0)
(-0.00365635 7.60928e-05 0)
(-0.0037667 7.49192e-05 0)
(-0.00387525 7.36435e-05 0)
(-0.00398186 7.22682e-05 0)
(-0.00408638 7.07954e-05 0)
(-0.00418867 6.9227e-05 0)
(-0.00428859 6.75648e-05 0)
(-0.00438601 6.58107e-05 0)
(-0.00448079 6.39663e-05 0)
(-0.00457279 6.20335e-05 0)
(-0.0046619 6.00142e-05 0)
(-0.00474799 5.79101e-05 0)
(-0.00483093 5.57233e-05 0)
(-0.0049106 5.34552e-05 0)
(-0.00498689 5.11081e-05 0)
(-0.00505968 4.86841e-05 0)
(-0.00512886 4.61849e-05 0)
(-0.00519433 4.36131e-05 0)
(-0.00525598 4.09707e-05 0)
(-0.0053137 3.82595e-05 0)
(-0.00536741 3.54825e-05 0)
(-0.00541701 3.26423e-05 0)
(-0.0054624 2.97412e-05 0)
(-0.0055035 2.67825e-05 0)
(-0.00554024 2.37689e-05 0)
(-0.00557253 2.07033e-05 0)
(-0.0056003 1.75898e-05 0)
(-0.00562349 1.44315e-05 0)
(-0.00564203 1.12316e-05 0)
(-0.00565587 7.99457e-06 0)
(-0.00566496 4.72408e-06 0)
(-0.00566924 1.42391e-06 0)
(-0.0056687 -1.90106e-06 0)
(-0.00566328 -5.24626e-06 0)
(-0.00565298 -8.60735e-06 0)
(-0.00563776 -1.1979e-05 0)
(-0.00561763 -1.53558e-05 0)
(-0.00559257 -1.87329e-05 0)
(-0.0055626 -2.21047e-05 0)
(-0.00552772 -2.54655e-05 0)
(-0.00548796 -2.88097e-05 0)
(-0.00544335 -3.21315e-05 0)
(-0.00539392 -3.5425e-05 0)
(-0.00533973 -3.86835e-05 0)
(-0.00528083 -4.19005e-05 0)
(-0.00521728 -4.50697e-05 0)
(-0.00514917 -4.81848e-05 0)
(-0.00507657 -5.12391e-05 0)
(-0.00499958 -5.42262e-05 0)
(-0.0049183 -5.71397e-05 0)
(-0.00483285 -5.99723e-05 0)
(-0.00474336 -6.27169e-05 0)
(-0.00464994 -6.53671e-05 0)
(-0.00455275 -6.79169e-05 0)
(-0.00445194 -7.03593e-05 0)
(-0.00434767 -7.2687e-05 0)
(-0.00424011 -7.48938e-05 0)
(-0.00412944 -7.69734e-05 0)
(-0.00401585 -7.89193e-05 0)
(-0.00389955 -8.07253e-05 0)
(-0.00378072 -8.23857e-05 0)
(-0.0036596 -8.38948e-05 0)
(-0.00353641 -8.52468e-05 0)
(-0.00341138 -8.6436e-05 0)
(-0.00328474 -8.74578e-05 0)
(-0.00315674 -8.83078e-05 0)
(-0.00302764 -8.8981e-05 0)
(-0.00289769 -8.9473e-05 0)
(-0.00276715 -8.97801e-05 0)
(-0.00263631 -8.9899e-05 0)
(-0.00250543 -8.98264e-05 0)
(-0.00237479 -8.95592e-05 0)
(-0.00224467 -8.90953e-05 0)
(-0.00211535 -8.84329e-05 0)
(-0.00198714 -8.75705e-05 0)
(-0.0018603 -8.65067e-05 0)
(-0.00173514 -8.5241e-05 0)
(-0.00161194 -8.37735e-05 0)
(-0.00149099 -8.21048e-05 0)
(-0.00137259 -8.02355e-05 0)
(-0.00125701 -7.81671e-05 0)
(-0.00114454 -7.59014e-05 0)
(-0.00103547 -7.3441e-05 0)
(-0.000930059 -7.07887e-05 0)
(-0.000828588 -6.79486e-05 0)
(-0.000731317 -6.49253e-05 0)
(-0.000638501 -6.17241e-05 0)
(-0.00055039 -5.83509e-05 0)
(-0.000467218 -5.48127e-05 0)
(-0.00038921 -5.11174e-05 0)
(-0.000316577 -4.72747e-05 0)
(-0.000249516 -4.32951e-05 0)
(-0.000188205 -3.91909e-05 0)
(-0.000132802 -3.49764e-05 0)
(-8.34382e-05 -3.06685e-05 0)
(-4.02214e-05 -2.62866e-05 0)
(-3.22496e-06 -2.1854e-05 0)
(2.75166e-05 -1.73985e-05 0)
(5.20152e-05 -1.29541e-05 0)
(7.0338e-05 -8.56302e-06 0)
(8.26202e-05 -4.27809e-06 0)
(8.90805e-05 -1.65727e-07 0)
(9.00428e-05 3.68857e-06 0)
(8.59616e-05 7.17253e-06 0)
(7.74558e-05 1.01362e-05 0)
(6.53541e-05 1.23785e-05 0)
(5.0748e-05 1.36321e-05 0)
(3.50257e-05 1.35521e-05 0)
(1.99049e-05 1.17143e-05 0)
(7.71665e-06 7.72159e-06 0)
(1.35088e-06 2.01229e-06 0)
(2.50442e-06 -8.24821e-06 0)
(1.13293e-05 -1.97234e-05 0)
(2.53886e-05 -2.5281e-05 0)
(4.02726e-05 -2.56367e-05 0)
(5.28539e-05 -2.18887e-05 0)
(6.09412e-05 -1.50686e-05 0)
(6.28115e-05 -6.03969e-06 0)
(5.71552e-05 4.52249e-06 0)
(4.30318e-05 1.61059e-05 0)
(1.98009e-05 2.83165e-05 0)
(-1.29373e-05 4.08662e-05 0)
(-5.53992e-05 5.353e-05 0)
(-0.000107651 6.61422e-05 0)
(-0.000169643 7.85742e-05 0)
(-0.000241235 9.07285e-05 0)
(-0.000322216 0.00010253 0)
(-0.000412316 0.000113925 0)
(-0.000511229 0.000124869 0)
(-0.00061861 0.000135333 0)
(-0.000734091 0.000145296 0)
(-0.000857287 0.00015474 0)
(-0.000987797 0.000163657 0)
(-0.00112521 0.000172043 0)
(-0.00126913 0.000179895 0)
(-0.00141912 0.000187217 0)
(-0.00157477 0.00019401 0)
(-0.00173568 0.000200281 0)
(-0.00190142 0.000206036 0)
(-0.0020716 0.000211285 0)
(-0.00224582 0.000216036 0)
(-0.00242367 0.000220298 0)
(-0.00260478 0.000224082 0)
(-0.00278876 0.000227398 0)
(-0.00297524 0.000230256 0)
(-0.00316386 0.000232669 0)
(-0.00335426 0.000234645 0)
(-0.00354609 0.000236195 0)
(-0.00373902 0.000237331 0)
(-0.0039327 0.000238062 0)
(-0.00412682 0.000238398 0)
(-0.00432106 0.00023835 0)
(-0.00451511 0.000237927 0)
(-0.00470866 0.000237138 0)
(-0.00490143 0.00023599 0)
(-0.00509312 0.000234494 0)
(-0.00528344 0.000232656 0)
(-0.00547213 0.000230485 0)
(-0.00565892 0.000227988 0)
(-0.00584353 0.000225172 0)
(-0.00602572 0.000222045 0)
(-0.00620523 0.000218612 0)
(-0.0063818 0.000214881 0)
(-0.00655521 0.000210856 0)
(-0.00672521 0.000206545 0)
(-0.00689157 0.000201953 0)
(-0.00705407 0.000197086 0)
(-0.00721247 0.00019195 0)
(-0.00736656 0.000186549 0)
(-0.00751613 0.000180889 0)
(-0.00766097 0.000174977 0)
(-0.00780087 0.000168816 0)
(-0.00793564 0.000162414 0)
(-0.00806508 0.000155775 0)
(-0.008189 0.000148905 0)
(-0.00830721 0.000141811 0)
(-0.00841953 0.000134499 0)
(-0.0085258 0.000126974 0)
(-0.00862583 0.000119244 0)
(-0.00871947 0.000111317 0)
(-0.00880656 0.000103197 0)
(-0.00888695 9.48948e-05 0)
(-0.0089605 8.64173e-05 0)
(-0.00902705 7.77724e-05 0)
(-0.0090865 6.89699e-05 0)
(-0.0091387 6.00188e-05 0)
(-0.00918356 5.09284e-05 0)
(-0.00922095 4.171e-05 0)
(-0.00925079 3.2374e-05 0)
(-0.00927297 2.29308e-05 0)
(-0.00928743 1.33929e-05 0)
(-0.0092941 3.77282e-06 0)
(-0.00929291 -5.91774e-06 0)
(-0.00928381 -1.56649e-05 0)
(-0.00926677 -2.5454e-05 0)
(-0.00924176 -3.52715e-05 0)
(-0.00920876 -4.51027e-05 0)
(-0.00916778 -5.49313e-05 0)
(-0.00911882 -6.47418e-05 0)
(-0.00906191 -7.45182e-05 0)
(-0.00899709 -8.42434e-05 0)
(-0.0089244 -9.38999e-05 0)
(-0.00884391 -0.000103471 0)
(-0.0087557 -0.000112939 0)
(-0.00865986 -0.000122284 0)
(-0.0085565 -0.000131489 0)
(-0.00844575 -0.000140534 0)
(-0.00832774 -0.000149401 0)
(-0.00820262 -0.000158069 0)
(-0.00807058 -0.000166521 0)
(-0.00793178 -0.000174738 0)
(-0.00778644 -0.000182698 0)
(-0.00763477 -0.000190383 0)
(-0.00747699 -0.000197774 0)
(-0.00731336 -0.000204852 0)
(-0.00714415 -0.000211596 0)
(-0.00696962 -0.00021799 0)
(-0.00679007 -0.000224014 0)
(-0.0066058 -0.00022965 0)
(-0.00641714 -0.00023488 0)
(-0.00622442 -0.000239688 0)
(-0.00602799 -0.000244057 0)
(-0.00582821 -0.000247972 0)
(-0.00562546 -0.000251416 0)
(-0.00542011 -0.000254376 0)
(-0.00521257 -0.000256838 0)
(-0.00500324 -0.000258788 0)
(-0.00479254 -0.000260216 0)
(-0.00458089 -0.000261111 0)
(-0.00436873 -0.000261461 0)
(-0.00415649 -0.00026126 0)
(-0.00394463 -0.000260497 0)
(-0.0037336 -0.000259168 0)
(-0.00352385 -0.000257267 0)
(-0.00331585 -0.000254791 0)
(-0.00311006 -0.000251735 0)
(-0.00290694 -0.000248099 0)
(-0.00270695 -0.000243884 0)
(-0.00251056 -0.000239091 0)
(-0.00231824 -0.000233723 0)
(-0.00213043 -0.000227784 0)
(-0.00194758 -0.000221281 0)
(-0.00177016 -0.000214223 0)
(-0.00159858 -0.000206618 0)
(-0.00143329 -0.00019848 0)
(-0.00127469 -0.000189821 0)
(-0.00112319 -0.00018066 0)
(-0.000979174 -0.000171014 0)
(-0.000843017 -0.000160906 0)
(-0.000715065 -0.000150361 0)
(-0.000595645 -0.000139406 0)
(-0.000485058 -0.000128077 0)
(-0.000383574 -0.00011641 0)
(-0.000291427 -0.00010445 0)
(-0.000208812 -9.22473e-05 0)
(-0.000135877 -7.98628e-05 0)
(-7.2716e-05 -6.73667e-05 0)
(-1.93591e-05 -5.48432e-05 0)
(2.42394e-05 -4.23934e-05 0)
(5.82135e-05 -3.01407e-05 0)
(8.28041e-05 -1.82363e-05 0)
(9.83816e-05 -6.8671e-06 0)
(0.000105472 3.7329e-06 0)
(0.000104791 1.32679e-05 0)
(9.72775e-05 2.13623e-05 0)
(8.41486e-05 2.75408e-05 0)
(6.6943e-05 3.12118e-05 0)
(4.75317e-05 3.16673e-05 0)
(2.81207e-05 2.81238e-05 0)
(1.17042e-05 1.99068e-05 0)
(2.34775e-06 7.24048e-06 0)
(2.71384e-06 -1.48026e-05 0)
(1.1885e-05 -3.26483e-05 0)
(2.57479e-05 -4.01705e-05 0)
(3.92387e-05 -3.91204e-05 0)
(4.88418e-05 -3.12109e-05 0)
(5.2092e-05 -1.80273e-05 0)
(4.69908e-05 -9.34368e-07 0)
(3.1984e-05 1.89637e-05 0)
(5.91844e-06 4.07858e-05 0)
(-3.20184e-05 6.3852e-05 0)
(-8.23629e-05 8.7626e-05 0)
(-0.000145422 0.000111696 0)
(-0.000221315 0.000135741 0)
(-0.000310016 0.00015951 0)
(-0.000411376 0.00018281 0)
(-0.000525148 0.000205493 0)
(-0.000651013 0.00022744 0)
(-0.000788587 0.000248564 0)
(-0.000937439 0.0002688 0)
(-0.0010971 0.000288096 0)
(-0.00126709 0.000306419 0)
(-0.00144687 0.000323747 0)
(-0.00163592 0.000340061 0)
(-0.00183371 0.000355358 0)
(-0.00203967 0.000369637 0)
(-0.00225327 0.0003829 0)
(-0.00247396 0.000395155 0)
(-0.00270119 0.000406414 0)
(-0.00293441 0.00041669 0)
(-0.0031731 0.000425998 0)
(-0.00341672 0.000434357 0)
(-0.00366476 0.000441783 0)
(-0.0039167 0.000448295 0)
(-0.00417203 0.000453913 0)
(-0.00443027 0.000458657 0)
(-0.00469094 0.000462545 0)
(-0.00495355 0.0004656 0)
(-0.00521765 0.000467839 0)
(-0.00548278 0.000469282 0)
(-0.00574851 0.000469949 0)
(-0.00601439 0.000469857 0)
(-0.00628 0.000469024 0)
(-0.00654493 0.000467469 0)
(-0.00680878 0.000465208 0)
(-0.00707115 0.000462257 0)
(-0.00733165 0.000458631 0)
(-0.00758991 0.000454346 0)
(-0.00784555 0.000449417 0)
(-0.00809821 0.000443857 0)
(-0.00834754 0.00043768 0)
(-0.00859319 0.0004309 0)
(-0.00883482 0.000423528 0)
(-0.0090721 0.000415577 0)
(-0.0093047 0.000407058 0)
(-0.0095323 0.000397984 0)
(-0.00975459 0.000388366 0)
(-0.00997126 0.000378215 0)
(-0.010182 0.000367542 0)
(-0.0103866 0.000356358 0)
(-0.0105846 0.000344674 0)
(-0.0107759 0.000332501 0)
(-0.0109601 0.000319851 0)
(-0.011137 0.000306735 0)
(-0.0113064 0.000293164 0)
(-0.0114679 0.000279151 0)
(-0.0116213 0.00026471 0)
(-0.0117664 0.000249851 0)
(-0.011903 0.000234589 0)
(-0.0120308 0.000218938 0)
(-0.0121497 0.000202912 0)
(-0.0122593 0.000186528 0)
(-0.0123596 0.0001698 0)
(-0.0124503 0.000152747 0)
(-0.0125312 0.000135384 0)
(-0.0126023 0.000117733 0)
(-0.0126633 9.9811e-05 0)
(-0.012714 8.16387e-05 0)
(-0.0127545 6.32382e-05 0)
(-0.0127844 4.46316e-05 0)
(-0.0128038 2.58416e-05 0)
(-0.0128126 6.89281e-06 0)
(-0.0128106 -1.21891e-05 0)
(-0.0127978 -3.13785e-05 0)
(-0.0127741 -5.06479e-05 0)
(-0.0127396 -6.99682e-05 0)
(-0.0126942 -8.93105e-05 0)
(-0.0126378 -0.000108645 0)
(-0.0125706 -0.000127941 0)
(-0.0124925 -0.000147165 0)
(-0.0124037 -0.000166285 0)
(-0.0123041 -0.000185267 0)
(-0.0121938 -0.000204076 0)
(-0.0120731 -0.000222678 0)
(-0.0119419 -0.000241037 0)
(-0.0118005 -0.000259117 0)
(-0.011649 -0.00027688 0)
(-0.0114877 -0.00029429 0)
(-0.0113166 -0.000311309 0)
(-0.0111362 -0.0003279 0)
(-0.0109465 -0.000344024 0)
(-0.0107479 -0.000359645 0)
(-0.0105407 -0.000374723 0)
(-0.0103253 -0.000389222 0)
(-0.0101018 -0.000403104 0)
(-0.00987076 -0.000416332 0)
(-0.00963248 -0.00042887 0)
(-0.00938736 -0.000440682 0)
(-0.00913584 -0.000451733 0)
(-0.00887834 -0.000461989 0)
(-0.00861532 -0.000471416 0)
(-0.00834725 -0.000479983 0)
(-0.00807463 -0.000487659 0)
(-0.00779795 -0.000494415 0)
(-0.00751774 -0.000500222 0)
(-0.00723454 -0.000505054 0)
(-0.0069489 -0.000508886 0)
(-0.00666138 -0.000511697 0)
(-0.00637256 -0.000513463 0)
(-0.00608303 -0.000514168 0)
(-0.00579338 -0.000513793 0)
(-0.00550421 -0.000512324 0)
(-0.00521614 -0.000509749 0)
(-0.00492978 -0.000506058 0)
(-0.00464576 -0.000501244 0)
(-0.00436471 -0.000495302 0)
(-0.00408723 -0.000488231 0)
(-0.00381397 -0.00048003 0)
(-0.00354554 -0.000470705 0)
(-0.00328257 -0.000460262 0)
(-0.00302566 -0.000448711 0)
(-0.00277542 -0.000436066 0)
(-0.00253246 -0.000422343 0)
(-0.00229734 -0.000407564 0)
(-0.00207066 -0.000391754 0)
(-0.00185295 -0.000374941 0)
(-0.00164476 -0.00035716 0)
(-0.00144659 -0.00033845 0)
(-0.00125895 -0.000318856 0)
(-0.00108227 -0.000298428 0)
(-0.000916998 -0.000277227 0)
(-0.000763514 -0.00025532 0)
(-0.000622166 -0.000232783 0)
(-0.000493251 -0.000209708 0)
(-0.000377009 -0.000186196 0)
(-0.000273618 -0.000162368 0)
(-0.00018318 -0.000138366 0)
(-0.000105712 -0.000114355 0)
(-4.1129e-05 -9.05357e-05 0)
(1.077e-05 -6.71451e-05 0)
(5.03244e-05 -4.44712e-05 0)
(7.80366e-05 -2.28641e-05 0)
(9.46e-05 -2.75299e-06 0)
(0.000100932 1.53339e-05 0)
(9.82129e-05 3.07477e-05 0)
(8.7927e-05 4.26958e-05 0)
(7.19061e-05 5.02268e-05 0)
(5.23261e-05 5.22393e-05 0)
(3.17138e-05 4.75426e-05 0)
(1.35539e-05 3.50336e-05 0)
(2.80934e-06 1.41942e-05 0)
(2.53009e-06 -2.113e-05 0)
(1.06633e-05 -4.45553e-05 0)
(2.20317e-05 -5.27727e-05 0)
(3.1396e-05 -4.87376e-05 0)
(3.50676e-05 -3.48626e-05 0)
(3.04164e-05 -1.33264e-05 0)
(1.53088e-05 1.40049e-05 0)
(-1.19516e-05 4.55771e-05 0)
(-5.26469e-05 8.01381e-05 0)
(-0.000107705 0.000116679 0)
(-0.000177757 0.000154398 0)
(-0.000263176 0.000192662 0)
(-0.000364132 0.000230965 0)
(-0.000480616 0.000268909 0)
(-0.000612478 0.000306181 0)
(-0.000759452 0.000342532 0)
(-0.000921177 0.00037777 0)
(-0.00109721 0.000411743 0)
(-0.00128706 0.000444337 0)
(-0.00149017 0.000475463 0)
(-0.00170596 0.000505061 0)
(-0.00193381 0.000533082 0)
(-0.00217309 0.000559498 0)
(-0.00242314 0.000584293 0)
(-0.00268331 0.000607458 0)
(-0.00295292 0.000628996 0)
(-0.00323131 0.000648916 0)
(-0.00351782 0.000667231 0)
(-0.00381176 0.000683959 0)
(-0.0041125 0.000699123 0)
(-0.00441937 0.000712748 0)
(-0.00473173 0.00072486 0)
(-0.00504894 0.000735487 0)
(-0.00537039 0.00074466 0)
(-0.00569546 0.000752408 0)
(-0.00602354 0.000758763 0)
(-0.00635405 0.000763754 0)
(-0.00668641 0.000767413 0)
(-0.00702005 0.000769771 0)
(-0.00735442 0.000770857 0)
(-0.00768898 0.0007707 0)
(-0.00802319 0.000769329 0)
(-0.00835653 0.000766772 0)
(-0.00868849 0.000763056 0)
(-0.00901859 0.000758206 0)
(-0.00934632 0.000752249 0)
(-0.00967122 0.000745208 0)
(-0.00999281 0.000737109 0)
(-0.0103106 0.000727972 0)
(-0.0106243 0.00071782 0)
(-0.0109332 0.000706675 0)
(-0.0112371 0.000694557 0)
(-0.0115356 0.000681487 0)
(-0.0118281 0.000667484 0)
(-0.0121143 0.000652568 0)
(-0.0123938 0.000636757 0)
(-0.0126662 0.000620069 0)
(-0.0129311 0.000602525 0)
(-0.0131882 0.000584141 0)
(-0.0134372 0.000564936 0)
(-0.0136775 0.000544929 0)
(-0.013909 0.000524139 0)
(-0.0141313 0.000502584 0)
(-0.014344 0.000480286 0)
(-0.0145468 0.000457264 0)
(-0.0147395 0.000433539 0)
(-0.0149216 0.000409132 0)
(-0.0150931 0.000384066 0)
(-0.0152534 0.000358365 0)
(-0.0154025 0.000332053 0)
(-0.01554 0.000305155 0)
(-0.0156657 0.000277698 0)
(-0.0157793 0.000249711 0)
(-0.0158807 0.000221223 0)
(-0.0159696 0.000192263 0)
(-0.0160458 0.000162866 0)
(-0.0161092 0.000133064 0)
(-0.0161596 0.000102892 0)
(-0.0161969 7.23879e-05 0)
(-0.0162208 4.15893e-05 0)
(-0.0162314 1.05357e-05 0)
(-0.0162285 -2.0731e-05 0)
(-0.016212 -5.21671e-05 0)
(-0.0161819 -8.37283e-05 0)
(-0.0161381 -0.000115368 0)
(-0.0160807 -0.000147039 0)
(-0.0160095 -0.00017869 0)
(-0.0159247 -0.000210272 0)
(-0.0158263 -0.000241731 0)
(-0.0157144 -0.000273015 0)
(-0.015589 -0.000304068 0)
(-0.0154502 -0.000334835 0)
(-0.0152983 -0.000365257 0)
(-0.0151334 -0.000395277 0)
(-0.0149556 -0.000424835 0)
(-0.0147652 -0.000453872 0)
(-0.0145624 -0.000482328 0)
(-0.0143476 -0.000510141 0)
(-0.0141209 -0.00053725 0)
(-0.0138827 -0.000563594 0)
(-0.0136333 -0.000589111 0)
(-0.0133732 -0.000613741 0)
(-0.0131026 -0.000637421 0)
(-0.0128221 -0.000660092 0)
(-0.0125321 -0.000681694 0)
(-0.0122331 -0.000702167 0)
(-0.0119255 -0.000721454 0)
(-0.0116099 -0.000739499 0)
(-0.0112868 -0.000756245 0)
(-0.0109568 -0.00077164 0)
(-0.0106205 -0.000785631 0)
(-0.0102785 -0.000798169 0)
(-0.00993136 -0.000809207 0)
(-0.00957983 -0.000818699 0)
(-0.00922454 -0.000826603 0)
(-0.00886619 -0.00083288 0)
(-0.00850546 -0.000837491 0)
(-0.00814309 -0.000840405 0)
(-0.00777979 -0.00084159 0)
(-0.00741631 -0.000841021 0)
(-0.0070534 -0.000838673 0)
(-0.00669182 -0.000834527 0)
(-0.00633234 -0.000828569 0)
(-0.00597572 -0.000820787 0)
(-0.00562275 -0.000811174 0)
(-0.00527419 -0.000799729 0)
(-0.00493082 -0.000786454 0)
(-0.00459341 -0.000771356 0)
(-0.00426272 -0.000754448 0)
(-0.00393952 -0.000735748 0)
(-0.00362455 -0.000715279 0)
(-0.00331855 -0.000693071 0)
(-0.00302223 -0.000669159 0)
(-0.00273629 -0.000643586 0)
(-0.00246142 -0.000616402 0)
(-0.00219827 -0.000587664 0)
(-0.00194747 -0.00055744 0)
(-0.0017096 -0.000525804 0)
(-0.00148522 -0.000492844 0)
(-0.00127485 -0.000458659 0)
(-0.00107895 -0.000423363 0)
(-0.000897923 -0.000387085 0)
(-0.000732129 -0.000349974 0)
(-0.00058184 -0.000312202 0)
(-0.000447254 -0.000273967 0)
(-0.000328476 -0.0002355 0)
(-0.000225507 -0.000197074 0)
(-0.000138225 -0.000159008 0)
(-6.63688e-05 -0.00012168 0)
(-9.51548e-06 -8.55416e-05 0)
(3.29428e-05 -5.11349e-05 0)
(6.18285e-05 -1.9111e-05 0)
(7.82094e-05 9.74593e-06 0)
(8.34327e-05 3.44938e-05 0)
(7.91629e-05 5.40084e-05 0)
(6.74204e-05 6.6968e-05 0)
(5.05806e-05 7.18605e-05 0)
(3.13971e-05 6.70329e-05 0)
(1.36786e-05 5.08064e-05 0)
(2.88387e-06 2.16506e-05 0)
(2.10976e-06 -2.64463e-05 0)
(8.21001e-06 -5.37663e-05 0)
(1.53051e-05 -6.09368e-05 0)
(1.83664e-05 -5.20382e-05 0)
(1.37262e-05 -3.02334e-05 0)
(-1.29772e-06 1.71546e-06 0)
(-2.88978e-05 4.14281e-05 0)
(-7.08242e-05 8.69158e-05 0)
(-0.00012842 0.00013654 0)
(-0.000202677 0.000188962 0)
(-0.000294276 0.000243101 0)
(-0.00040364 0.000298076 0)
(-0.000530963 0.000353187 0)
(-0.000676251 0.000407865 0)
(-0.000839353 0.000461656 0)
(-0.00101998 0.000514199 0)
(-0.00121775 0.000565209 0)
(-0.00143217 0.000614456 0)
(-0.00166268 0.000661767 0)
(-0.00190867 0.000707005 0)
(-0.00216947 0.000750069 0)
(-0.0024444 0.000790885 0)
(-0.00273271 0.000829403 0)
(-0.00303366 0.00086559 0)
(-0.00334649 0.000899429 0)
(-0.00367043 0.000930917 0)
(-0.0040047 0.000960061 0)
(-0.00434852 0.000986875 0)
(-0.00470112 0.00101138 0)
(-0.00506173 0.00103361 0)
(-0.00542958 0.0010536 0)
(-0.00580391 0.00107137 0)
(-0.00618397 0.00108697 0)
(-0.00656904 0.00110044 0)
(-0.00695839 0.00111182 0)
(-0.00735129 0.00112115 0)
(-0.00774706 0.00112848 0)
(-0.00814501 0.00113385 0)
(-0.00854447 0.00113731 0)
(-0.00894476 0.00113888 0)
(-0.00934525 0.00113863 0)
(-0.00974531 0.00113658 0)
(-0.0101443 0.00113279 0)
(-0.0105416 0.00112728 0)
(-0.0109367 0.00112009 0)
(-0.0113289 0.00111127 0)
(-0.0117178 0.00110084 0)
(-0.0121026 0.00108885 0)
(-0.0124829 0.00107532 0)
(-0.0128582 0.00106029 0)
(-0.0132279 0.00104379 0)
(-0.0135915 0.00102585 0)
(-0.0139485 0.0010065 0)
(-0.0142984 0.000985774 0)
(-0.0146407 0.000963691 0)
(-0.014975 0.000940285 0)
(-0.0153008 0.000915582 0)
(-0.0156177 0.000889611 0)
(-0.0159251 0.000862399 0)
(-0.0162227 0.000833974 0)
(-0.01651 0.000804364 0)
(-0.0167867 0.000773597 0)
(-0.0170523 0.000741702 0)
(-0.0173065 0.000708709 0)
(-0.0175488 0.000674649 0)
(-0.017779 0.000639552 0)
(-0.0179965 0.000603452 0)
(-0.0182012 0.000566382 0)
(-0.0183927 0.000528376 0)
(-0.0185706 0.000489472 0)
(-0.0187346 0.000449709 0)
(-0.0188845 0.000409125 0)
(-0.01902 0.000367763 0)
(-0.0191407 0.000325667 0)
(-0.0192466 0.000282883 0)
(-0.0193373 0.000239457 0)
(-0.0194127 0.000195441 0)
(-0.0194725 0.000150886 0)
(-0.0195166 0.000105847 0)
(-0.0195448 6.03807e-05 0)
(-0.019557 1.45465e-05 0)
(-0.0195531 -3.15944e-05 0)
(-0.0195329 -7.79783e-05 0)
(-0.0194965 -0.000124539 0)
(-0.0194438 -0.000171207 0)
(-0.0193747 -0.000217914 0)
(-0.0192893 -0.000264586 0)
(-0.0191876 -0.000311146 0)
(-0.0190697 -0.00035752 0)
(-0.0189356 -0.000403628 0)
(-0.0187855 -0.000449389 0)
(-0.0186195 -0.00049472 0)
(-0.0184377 -0.000539538 0)
(-0.0182404 -0.000583758 0)
(-0.0180278 -0.000627292 0)
(-0.0178002 -0.000670053 0)
(-0.0175579 -0.000711953 0)
(-0.0173011 -0.000752901 0)
(-0.0170302 -0.000792809 0)
(-0.0167456 -0.000831587 0)
(-0.0164477 -0.000869145 0)
(-0.016137 -0.000905392 0)
(-0.015814 -0.000940241 0)
(-0.015479 -0.000973602 0)
(-0.0151328 -0.00100539 0)
(-0.0147757 -0.00103551 0)
(-0.0144085 -0.00106389 0)
(-0.0140317 -0.00109045 0)
(-0.0136461 -0.00111509 0)
(-0.0132522 -0.00113775 0)
(-0.0128507 -0.00115834 0)
(-0.0124424 -0.0011768 0)
(-0.0120281 -0.00119306 0)
(-0.0116085 -0.00120705 0)
(-0.0111844 -0.00121871 0)
(-0.0107567 -0.00122798 0)
(-0.010326 -0.00123481 0)
(-0.0098934 -0.00123915 0)
(-0.00945964 -0.00124096 0)
(-0.00902561 -0.00124019 0)
(-0.0085922 -0.00123682 0)
(-0.00816032 -0.00123082 0)
(-0.00773086 -0.00122217 0)
(-0.00730475 -0.00121085 0)
(-0.00688288 -0.00119685 0)
(-0.00646617 -0.00118017 0)
(-0.00605555 -0.00116082 0)
(-0.0056519 -0.00113881 0)
(-0.00525614 -0.00111416 0)
(-0.00486915 -0.00108689 0)
(-0.00449181 -0.00105705 0)
(-0.00412498 -0.00102468 0)
(-0.00376951 -0.000989829 0)
(-0.00342621 -0.000952567 0)
(-0.00309588 -0.00091297 0)
(-0.00277927 -0.000871126 0)
(-0.00247711 -0.000827134 0)
(-0.0021901 -0.000781111 0)
(-0.00191886 -0.000733186 0)
(-0.001664 -0.00068351 0)
(-0.00142603 -0.000632253 0)
(-0.00120543 -0.000579608 0)
(-0.00100259 -0.000525798 0)
(-0.000817807 -0.000471076 0)
(-0.000651308 -0.000415736 0)
(-0.000503194 -0.000360116 0)
(-0.000373452 -0.00030461 0)
(-0.000261929 -0.000249676 0)
(-0.000168316 -0.000195855 0)
(-9.21256e-05 -0.000143781 0)
(-3.26715e-05 -9.42035e-05 0)
(1.0962e-05 -4.80128e-05 0)
(3.99463e-05 -6.2615e-06 0)
(5.57386e-05 2.98063e-05 0)
(6.01168e-05 5.87295e-05 0)
(5.52172e-05 7.88102e-05 0)
(4.35396e-05 8.81093e-05 0)
(2.79852e-05 8.44695e-05 0)
(1.2515e-05 6.55605e-05 0)
(2.7006e-06 2.87994e-05 0)
(1.54714e-06 -3.02343e-05 0)
(4.92093e-06 -5.90346e-05 0)
(6.40195e-06 -6.29567e-05 0)
(1.46439e-06 -4.70501e-05 0)
(-1.3373e-05 -1.51852e-05 0)
(-4.07674e-05 2.92992e-05 0)
(-8.2886e-05 8.35331e-05 0)
(-0.00014147 0.000145102 0)
(-0.000217871 0.000211989 0)
(-0.00031309 0.000282532 0)
(-0.000427833 0.000355356 0)
(-0.000562534 0.00042934 0)
(-0.000717398 0.000503565 0)
(-0.000892435 0.000577286 0)
(-0.00108748 0.000649897 0)
(-0.00130224 0.000720909 0)
(-0.00153628 0.00078993 0)
(-0.00178908 0.000856645 0)
(-0.00206004 0.000920809 0)
(-0.00234848 0.000982228 0)
(-0.00265367 0.00104075 0)
(-0.00297483 0.00109628 0)
(-0.00331118 0.00114872 0)
(-0.00366186 0.00119804 0)
(-0.00402602 0.00124419 0)
(-0.00440281 0.00128716 0)
(-0.00479135 0.00132696 0)
(-0.00519077 0.0013636 0)
(-0.00560018 0.00139711 0)
(-0.00601871 0.00142752 0)
(-0.0064455 0.00145487 0)
(-0.00687968 0.0014792 0)
(-0.0073204 0.00150057 0)
(-0.00776683 0.00151902 0)
(-0.00821813 0.0015346 0)
(-0.0086735 0.00154738 0)
(-0.00913212 0.00155742 0)
(-0.00959321 0.00156476 0)
(-0.010056 0.00156946 0)
(-0.0105197 0.00157159 0)
(-0.0109836 0.00157119 0)
(-0.011447 0.00156832 0)
(-0.0119091 0.00156304 0)
(-0.0123693 0.0015554 0)
(-0.0128268 0.00154545 0)
(-0.013281 0.00153324 0)
(-0.0137312 0.00151881 0)
(-0.0141768 0.00150222 0)
(-0.0146171 0.00148351 0)
(-0.0150516 0.00146272 0)
(-0.0154795 0.00143991 0)
(-0.0159004 0.0014151 0)
(-0.0163136 0.00138835 0)
(-0.0167186 0.00135968 0)
(-0.0171148 0.00132915 0)
(-0.0175017 0.00129679 0)
(-0.0178787 0.00126265 0)
(-0.0182452 0.00122674 0)
(-0.0186009 0.00118913 0)
(-0.0189452 0.00114984 0)
(-0.0192775 0.00110892 0)
(-0.0195975 0.0010664 0)
(-0.0199047 0.00102233 0)
(-0.0201985 0.000976747 0)
(-0.0204787 0.000929691 0)
(-0.0207446 0.00088121 0)
(-0.0209961 0.000831347 0)
(-0.0212326 0.00078015 0)
(-0.0214537 0.00072767 0)
(-0.0216591 0.000673956 0)
(-0.0218485 0.000619062 0)
(-0.0220215 0.000563043 0)
(-0.0221778 0.000505959 0)
(-0.0223171 0.000447869 0)
(-0.0224392 0.000388838 0)
(-0.0225437 0.000328932 0)
(-0.0226304 0.000268219 0)
(-0.0226991 0.000206773 0)
(-0.0227496 0.00014467 0)
(-0.0227818 8.19861e-05 0)
(-0.0227955 1.88047e-05 0)
(-0.0227905 -4.47895e-05 0)
(-0.0227668 -0.000108709 0)
(-0.0227242 -0.000172862 0)