/*--------------------------------*- C++ -*----------------------------------*\
  =========                 |
  \\      /  F ield         | OpenFOAM: The Open Source CFD Toolbox
   \\    /   O peration     | Website:  https://openfoam.org
    \\  /    A nd           | Version:  7
     \\/     M anipulation  |
\*---------------------------------------------------------------------------*/
FoamFile
{
    version     2.0;
    format      ascii;
    class       volVectorField;
    location    "0.4875";
    object      U;
}
// * * * * * * * * * * * * * * * * * * * * * * * * * * * * * * * * * * * * * //

dimensions      [0 1 -1 0 0 0 0];

internalField   nonuniform List<vector> 
25600
(
(8.60335e-07 -7.95699e-07 0)
(4.12331e-06 -2.07386e-06 0)
(9.32936e-06 -2.42573e-06 0)
(1.41711e-05 -2.08413e-06 0)
(1.73065e-05 -1.38676e-06 0)
(1.80784e-05 -5.30428e-07 0)
(1.61702e-05 3.78883e-07 0)
(1.14588e-05 1.29108e-06 0)
(3.93989e-06 2.17668e-06 0)
(-6.32485e-06 3.0188e-06 0)
(-1.92198e-05 3.81008e-06 0)
(-3.46066e-05 4.54765e-06 0)
(-5.23353e-05 5.22917e-06 0)
(-7.22439e-05 5.85387e-06 0)
(-9.41696e-05 6.42543e-06 0)
(-0.000117952 6.94646e-06 0)
(-0.000143436 7.41827e-06 0)
(-0.000170471 7.84377e-06 0)
(-0.00019891 8.22642e-06 0)
(-0.000228619 8.56815e-06 0)
(-0.000259469 8.87112e-06 0)
(-0.000291339 9.13872e-06 0)
(-0.000324116 9.37482e-06 0)
(-0.000357696 9.58267e-06 0)
(-0.00039198 9.76363e-06 0)
(-0.00042688 9.91861e-06 0)
(-0.000462311 1.00502e-05 0)
(-0.000498196 1.01612e-05 0)
(-0.000534464 1.02533e-05 0)
(-0.000571049 1.03279e-05 0)
(-0.000607892 1.03866e-05 0)
(-0.000644935 1.04302e-05 0)
(-0.000682127 1.046e-05 0)
(-0.00071942 1.04775e-05 0)
(-0.000756768 1.04835e-05 0)
(-0.000794129 1.04787e-05 0)
(-0.000831463 1.04639e-05 0)
(-0.000868732 1.04392e-05 0)
(-0.0009059 1.04046e-05 0)
(-0.000942932 1.03609e-05 0)
(-0.000979794 1.03089e-05 0)
(-0.00101645 1.02486e-05 0)
(-0.00105287 1.01796e-05 0)
(-0.00108903 1.01016e-05 0)
(-0.00112488 1.00144e-05 0)
(-0.00116039 9.91823e-06 0)
(-0.00119554 9.81326e-06 0)
(-0.00123028 9.69926e-06 0)
(-0.00126458 9.57554e-06 0)
(-0.00129841 9.44147e-06 0)
(-0.00133172 9.29665e-06 0)
(-0.00136448 9.14091e-06 0)
(-0.00139665 8.9742e-06 0)
(-0.00142819 8.79626e-06 0)
(-0.00145905 8.60646e-06 0)
(-0.00148919 8.40394e-06 0)
(-0.00151857 8.18802e-06 0)
(-0.00154714 7.95854e-06 0)
(-0.00157485 7.71566e-06 0)
(-0.00160165 7.45914e-06 0)
(-0.0016275 7.18832e-06 0)
(-0.00165234 6.90252e-06 0)
(-0.00167612 6.60148e-06 0)
(-0.00169879 6.2853e-06 0)
(-0.0017203 5.95398e-06 0)
(-0.00174059 5.60734e-06 0)
(-0.00175961 5.24508e-06 0)
(-0.00177731 4.86704e-06 0)
(-0.00179363 4.47343e-06 0)
(-0.00180852 4.06459e-06 0)
(-0.00182193 3.6408e-06 0)
(-0.00183381 3.20229e-06 0)
(-0.00184411 2.7491e-06 0)
(-0.00185278 2.28157e-06 0)
(-0.00185977 1.8004e-06 0)
(-0.00186505 1.30635e-06 0)
(-0.00186856 8.00323e-07 0)
(-0.00187027 2.83096e-07 0)
(-0.00187015 -2.4474e-07 0)
(-0.00186815 -7.82321e-07 0)
(-0.00186426 -1.32851e-06 0)
(-0.00185844 -1.88211e-06 0)
(-0.00185068 -2.44181e-06 0)
(-0.00184095 -3.00618e-06 0)
(-0.00182924 -3.57389e-06 0)
(-0.00181556 -4.14352e-06 0)
(-0.00179988 -4.71348e-06 0)
(-0.00178223 -5.28224e-06 0)
(-0.0017626 -5.84814e-06 0)
(-0.00174102 -6.40935e-06 0)
(-0.00171749 -6.96414e-06 0)
(-0.00169206 -7.51075e-06 0)
(-0.00166474 -8.04725e-06 0)
(-0.00163559 -8.57172e-06 0)
(-0.00160464 -9.08231e-06 0)
(-0.00157195 -9.57713e-06 0)
(-0.00153758 -1.00543e-05 0)
(-0.00150158 -1.05121e-05 0)
(-0.00146404 -1.09487e-05 0)
(-0.00142503 -1.13624e-05 0)
(-0.00138462 -1.17511e-05 0)
(-0.00134292 -1.21135e-05 0)
(-0.0013 -1.24477e-05 0)
(-0.00125598 -1.27524e-05 0)
(-0.00121095 -1.30261e-05 0)
(-0.00116502 -1.32675e-05 0)
(-0.00111831 -1.34753e-05 0)
(-0.00107093 -1.36485e-05 0)
(-0.001023 -1.37861e-05 0)
(-0.000974647 -1.38875e-05 0)
(-0.000925993 -1.3952e-05 0)
(-0.000877166 -1.39789e-05 0)
(-0.000828294 -1.3968e-05 0)
(-0.000779508 -1.3919e-05 0)
(-0.000730936 -1.38319e-05 0)
(-0.00068271 -1.37067e-05 0)
(-0.000634958 -1.35438e-05 0)
(-0.000587808 -1.33437e-05 0)
(-0.000541387 -1.31069e-05 0)
(-0.000495819 -1.28343e-05 0)
(-0.000451224 -1.25267e-05 0)
(-0.000407721 -1.21852e-05 0)
(-0.000365424 -1.1811e-05 0)
(-0.000324442 -1.14055e-05 0)
(-0.000284879 -1.09703e-05 0)
(-0.000246837 -1.05069e-05 0)
(-0.000210408 -1.0017e-05 0)
(-0.00017568 -9.50252e-06 0)
(-0.000142735 -8.96538e-06 0)
(-0.000111648 -8.40762e-06 0)
(-8.24857e-05 -7.83133e-06 0)
(-5.53083e-05 -7.2387e-06 0)
(-3.01682e-05 -6.63207e-06 0)
(-7.10967e-06 -6.0138e-06 0)
(1.38313e-05 -5.38629e-06 0)
(3.26275e-05 -4.75205e-06 0)
(4.92609e-05 -4.11379e-06 0)
(6.37223e-05 -3.47417e-06 0)
(7.60125e-05 -2.83582e-06 0)
(8.61423e-05 -2.20164e-06 0)
(9.41332e-05 -1.57482e-06 0)
(0.000100018 -9.58709e-07 0)
(0.00010384 -3.56726e-07 0)
(0.000105658 2.27459e-07 0)
(0.000105543 7.89652e-07 0)
(0.000103583 1.3251e-06 0)
(9.98803e-05 1.82835e-06 0)
(9.456e-05 2.29319e-06 0)
(8.77685e-05 2.71216e-06 0)
(7.96787e-05 3.07614e-06 0)
(7.04953e-05 3.37365e-06 0)
(6.04609e-05 3.59006e-06 0)
(4.98653e-05 3.70628e-06 0)
(3.90563e-05 3.69673e-06 0)
(2.84549e-05 3.52669e-06 0)
(1.85724e-05 3.15084e-06 0)
(1.00219e-05 2.5164e-06 0)
(3.5099e-06 1.57509e-06 0)
(-2.02542e-07 3.54905e-07 0)
(-6.31634e-07 -6.30792e-07 0)
(2.13754e-06 -4.11479e-06 0)
(8.57944e-06 -8.50295e-06 0)
(1.71341e-05 -9.07123e-06 0)
(2.38592e-05 -6.85085e-06 0)
(2.62135e-05 -2.95144e-06 0)
(2.2713e-05 1.87303e-06 0)
(1.25032e-05 7.15229e-06 0)
(-4.86359e-06 1.25858e-05 0)
(-2.95384e-05 1.79837e-05 0)
(-6.14543e-05 2.32278e-05 0)
(-0.000100414 2.82455e-05 0)
(-0.000146126 3.29901e-05 0)
(-0.000198241 3.74369e-05 0)
(-0.000256374 4.15739e-05 0)
(-0.000320123 4.53997e-05 0)
(-0.000389079 4.89174e-05 0)
(-0.000462836 5.21354e-05 0)
(-0.000540995 5.5066e-05 0)
(-0.000623173 5.77223e-05 0)
(-0.000708999 6.01183e-05 0)
(-0.000798123 6.22679e-05 0)
(-0.000890212 6.41867e-05 0)
(-0.000984952 6.58915e-05 0)
(-0.00108205 6.73968e-05 0)
(-0.00118123 6.8716e-05 0)
(-0.00128224 6.98627e-05 0)
(-0.00138483 7.08502e-05 0)
(-0.00148879 7.16904e-05 0)
(-0.00159391 7.23944e-05 0)
(-0.0017 7.29723e-05 0)
(-0.00180688 7.3434e-05 0)
(-0.00191438 7.37878e-05 0)
(-0.00202235 7.40413e-05 0)
(-0.00213064 7.4201e-05 0)
(-0.00223913 7.42729e-05 0)
(-0.00234767 7.42623e-05 0)
(-0.00245616 7.41743e-05 0)
(-0.00256448 7.40119e-05 0)
(-0.00267251 7.37776e-05 0)
(-0.00278015 7.34733e-05 0)
(-0.0028873 7.31013e-05 0)
(-0.00299385 7.26632e-05 0)
(-0.0030997 7.21596e-05 0)
(-0.00320476 7.15898e-05 0)
(-0.00330892 7.0953e-05 0)
(-0.00341208 7.02483e-05 0)
(-0.00351415 6.94754e-05 0)
(-0.00361501 6.86331e-05 0)
(-0.00371456 6.77194e-05 0)
(-0.0038127 6.67319e-05 0)
(-0.00390931 6.56682e-05 0)
(-0.00400428 6.45256e-05 0)
(-0.0040975 6.33023e-05 0)
(-0.00418883 6.19964e-05 0)
(-0.00427816 6.06054e-05 0)
(-0.00436537 5.91262e-05 0)
(-0.00445031 5.75557e-05 0)
(-0.00453286 5.58914e-05 0)
(-0.00461288 5.41316e-05 0)
(-0.00469023 5.22745e-05 0)
(-0.00476476 5.03182e-05 0)
(-0.00483634 4.82606e-05 0)
(-0.00490482 4.61e-05 0)
(-0.00497004 4.38356e-05 0)
(-0.00503186 4.14664e-05 0)
(-0.00509012 3.89921e-05 0)
(-0.00514469 3.64125e-05 0)
(-0.0051954 3.37278e-05 0)
(-0.00524211 3.09388e-05 0)
(-0.00528466 2.80469e-05 0)
(-0.00532293 2.50536e-05 0)
(-0.00535675 2.19615e-05 0)
(-0.00538601 1.87731e-05 0)
(-0.00541055 1.54914e-05 0)
(-0.00543026 1.21203e-05 0)
(-0.00544501 8.66446e-06 0)
(-0.00545468 5.12908e-06 0)
(-0.00545917 1.51988e-06 0)
(-0.00545839 -2.15724e-06 0)
(-0.00545223 -5.89576e-06 0)
(-0.00544062 -9.68827e-06 0)
(-0.00542349 -1.35268e-05 0)
(-0.00540079 -1.74029e-05 0)
(-0.00537247 -2.13073e-05 0)
(-0.0053385 -2.52304e-05 0)
(-0.00529887 -2.91623e-05 0)
(-0.00525356 -3.30927e-05 0)
(-0.0052026 -3.70108e-05 0)
(-0.00514602 -4.09055e-05 0)
(-0.00508385 -4.47649e-05 0)
(-0.00501616 -4.85771e-05 0)
(-0.00494302 -5.23299e-05 0)
(-0.00486455 -5.60113e-05 0)
(-0.00478083 -5.96085e-05 0)
(-0.00469202 -6.31092e-05 0)
(-0.00459825 -6.6501e-05 0)
(-0.0044997 -6.97714e-05 0)
(-0.00439654 -7.29082e-05 0)
(-0.00428898 -7.58996e-05 0)
(-0.00417723 -7.87336e-05 0)
(-0.00406153 -8.13988e-05 0)
(-0.00394213 -8.38839e-05 0)
(-0.00381929 -8.61786e-05 0)
(-0.0036933 -8.82728e-05 0)
(-0.00356443 -9.01572e-05 0)
(-0.00343301 -9.18233e-05 0)
(-0.00329934 -9.32631e-05 0)
(-0.00316376 -9.44694e-05 0)
(-0.0030266 -9.54362e-05 0)
(-0.00288821 -9.6158e-05 0)
(-0.00274894 -9.66306e-05 0)
(-0.00260914 -9.68504e-05 0)
(-0.00246918 -9.6815e-05 0)
(-0.00232942 -9.65232e-05 0)
(-0.00219023 -9.59746e-05 0)
(-0.00205198 -9.51699e-05 0)
(-0.00191501 -9.41109e-05 0)
(-0.00177971 -9.28007e-05 0)
(-0.00164642 -9.12433e-05 0)
(-0.00151548 -8.94437e-05 0)
(-0.00138725 -8.74079e-05 0)
(-0.00126205 -8.5143e-05 0)
(-0.00114021 -8.2657e-05 0)
(-0.00102202 -7.99591e-05 0)
(-0.000907801 -7.70591e-05 0)
(-0.000797818 -7.39679e-05 0)
(-0.000692341 -7.06968e-05 0)
(-0.000591619 -6.72583e-05 0)
(-0.00049588 -6.36653e-05 0)
(-0.000405338 -5.99318e-05 0)
(-0.000320182 -5.60721e-05 0)
(-0.000240584 -5.21013e-05 0)
(-0.00016669 -4.8035e-05 0)
(-9.86262e-05 -4.38895e-05 0)
(-3.6494e-05 -3.96816e-05 0)
(1.96302e-05 -3.54288e-05 0)
(6.96957e-05 -3.11495e-05 0)
(0.000113678 -2.68622e-05 0)
(0.000151583 -2.25866e-05 0)
(0.000183441 -1.83434e-05 0)
(0.000209318 -1.41544e-05 0)
(0.000229309 -1.00427e-05 0)
(0.000243547 -6.0329e-06 0)
(0.000252199 -2.15183e-06 0)
(0.000255474 1.57118e-06 0)
(0.000253626 5.10347e-06 0)
(0.000246957 8.40842e-06 0)
(0.000235823 1.14442e-05 0)
(0.000220644 1.41622e-05 0)
(0.000201911 1.65057e-05 0)
(0.000180193 1.8407e-05 0)
(0.00015616 1.97845e-05 0)
(0.000130585 2.05395e-05 0)
(0.000104373 2.05514e-05 0)
(7.85677e-05 1.96758e-05 0)
(5.43647e-05 1.77505e-05 0)
(3.30811e-05 1.46232e-05 0)
(1.60732e-05 1.02187e-05 0)
(4.75305e-06 4.76695e-06 0)
(3.49279e-07 -2.03669e-07 0)
(2.41325e-06 -9.313e-06 0)
(9.03533e-06 -1.70815e-05 0)
(1.64928e-05 -1.65518e-05 0)
(2.00978e-05 -1.00764e-05 0)
(1.67694e-05 2.82189e-07 0)
(4.62594e-06 1.30093e-05 0)
(-1.75418e-05 2.70352e-05 0)
(-5.04286e-05 4.16159e-05 0)
(-9.4314e-05 5.62547e-05 0)
(-0.000149187 7.06114e-05 0)
(-0.000214824 8.44585e-05 0)
(-0.000290849 9.76519e-05 0)
(-0.00037679 0.0001101 0)
(-0.000472108 0.000121752 0)
(-0.000576222 0.000132585 0)
(-0.000688534 0.000142598 0)
(-0.000808443 0.000151801 0)
(-0.000935352 0.000160219 0)
(-0.00106867 0.000167881 0)
(-0.00120785 0.00017482 0)
(-0.00135233 0.000181074 0)
(-0.0015016 0.00018668 0)
(-0.00165517 0.000191678 0)
(-0.00181259 0.000196108 0)
(-0.0019734 0.000200005 0)
(-0.00213722 0.000203408 0)
(-0.00230365 0.00020635 0)
(-0.00247234 0.000208865 0)
(-0.00264295 0.000210982 0)
(-0.00281518 0.000212731 0)
(-0.00298874 0.000214136 0)
(-0.00316334 0.000215223 0)
(-0.00333875 0.000216013 0)
(-0.00351472 0.000216523 0)
(-0.00369103 0.000216771 0)
(-0.00386746 0.000216771 0)
(-0.00404382 0.000216537 0)
(-0.0042199 0.000216079 0)
(-0.00439554 0.000215404 0)
(-0.00457054 0.000214519 0)
(-0.00474474 0.00021343 0)
(-0.00491796 0.000212139 0)
(-0.00509003 0.00021065 0)
(-0.00526079 0.000208962 0)
(-0.00543008 0.000207074 0)
(-0.00559771 0.000204984 0)
(-0.00576353 0.000202688 0)
(-0.00592736 0.000200185 0)
(-0.00608902 0.000197469 0)
(-0.00624834 0.000194534 0)
(-0.00640514 0.000191375 0)
(-0.00655923 0.000187986 0)
(-0.00671041 0.000184359 0)
(-0.00685849 0.000180488 0)
(-0.00700327 0.000176367 0)
(-0.00714453 0.000171989 0)
(-0.00728208 0.000167347 0)
(-0.00741569 0.000162435 0)
(-0.00754515 0.000157245 0)
(-0.00767022 0.000151774 0)
(-0.00779067 0.000146015 0)
(-0.00790629 0.000139964 0)
(-0.00801682 0.000133619 0)
(-0.00812204 0.000126975 0)
(-0.0082217 0.000120031 0)
(-0.00831556 0.000112786 0)
(-0.0084034 0.000105241 0)
(-0.00848495 9.73956e-05 0)
(-0.00856 8.92539e-05 0)
(-0.00862831 8.08196e-05 0)
(-0.00868965 7.2098e-05 0)
(-0.00874379 6.30957e-05 0)
(-0.00879052 5.38212e-05 0)
(-0.00882963 4.42841e-05 0)
(-0.00886091 3.44959e-05 0)
(-0.00888418 2.44697e-05 0)
(-0.00889926 1.42203e-05 0)
(-0.00890598 3.76387e-06 0)
(-0.00890418 -6.88163e-06 0)
(-0.00889373 -1.76967e-05 0)
(-0.00887451 -2.86603e-05 0)
(-0.0088464 -3.97495e-05 0)
(-0.00880934 -5.094e-05 0)
(-0.00876325 -6.22061e-05 0)
(-0.00870808 -7.35203e-05 0)
(-0.00864382 -8.4854e-05 0)
(-0.00857047 -9.61776e-05 0)
(-0.00848805 -0.00010746 0)
(-0.00839661 -0.00011867 0)
(-0.00829623 -0.000129773 0)
(-0.00818701 -0.000140737 0)
(-0.00806908 -0.000151527 0)
(-0.0079426 -0.000162108 0)
(-0.00780774 -0.000172444 0)
(-0.00766472 -0.000182502 0)
(-0.00751379 -0.000192244 0)
(-0.0073552 -0.000201638 0)
(-0.00718925 -0.000210647 0)
(-0.00701626 -0.000219237 0)
(-0.00683658 -0.000227377 0)
(-0.00665058 -0.000235032 0)
(-0.00645866 -0.000242174 0)
(-0.00626125 -0.00024877 0)
(-0.00605877 -0.000254795 0)
(-0.0058517 -0.00026022 0)
(-0.00564053 -0.000265023 0)
(-0.00542576 -0.00026918 0)
(-0.0052079 -0.000272673 0)
(-0.00498749 -0.000275482 0)
(-0.00476508 -0.000277594 0)
(-0.00454122 -0.000278995 0)
(-0.00431649 -0.000279677 0)
(-0.00409145 -0.000279632 0)
(-0.00386669 -0.000278856 0)
(-0.00364277 -0.00027735 0)
(-0.00342028 -0.000275114 0)
(-0.0031998 -0.000272154 0)
(-0.0029819 -0.000268478 0)
(-0.00276713 -0.000264098 0)
(-0.00255606 -0.000259027 0)
(-0.00234922 -0.000253282 0)
(-0.00214713 -0.000246885 0)
(-0.00195032 -0.000239856 0)
(-0.00175927 -0.000232222 0)
(-0.00157444 -0.000224011 0)
(-0.00139629 -0.000215252 0)
(-0.00122525 -0.00020598 0)
(-0.00106169 -0.000196229 0)
(-0.000906 -0.000186035 0)
(-0.000758505 -0.000175439 0)
(-0.000619513 -0.000164482 0)
(-0.000489293 -0.000153207 0)
(-0.000368083 -0.000141658 0)
(-0.000256081 -0.000129882 0)
(-0.000153449 -0.000117929 0)
(-6.03089e-05 -0.000105848 0)
(2.32605e-05 -9.36925e-05 0)
(9.72216e-05 -8.15163e-05 0)
(0.000161582 -6.9377e-05 0)
(0.000216397 -5.73345e-05 0)
(0.000261772 -4.5452e-05 0)
(0.000297863 -3.37965e-05 0)
(0.000324882 -2.24398e-05 0)
(0.000343103 -1.14595e-05 0)
(0.000352861 -9.4007e-07 0)
(0.000354563 9.02527e-06 0)
(0.000348692 1.83328e-05 0)
(0.000335815 2.68655e-05 0)
(0.000316592 3.44902e-05 0)
(0.00029179 4.10542e-05 0)
(0.000262292 4.63804e-05 0)
(0.000229113 5.0263e-05 0)
(0.000193413 5.24635e-05 0)
(0.000156509 5.27085e-05 0)
(0.000119885 5.06959e-05 0)
(8.51832e-05 4.61221e-05 0)
(5.41408e-05 3.87519e-05 0)
(2.84791e-05 2.85595e-05 0)
(1.01579e-05 1.60705e-05 0)
(1.55558e-06 3.48831e-06 0)
(2.07393e-06 -1.41512e-05 0)
(6.83238e-06 -2.38222e-05 0)
(1.00365e-05 -2.01506e-05 0)
(6.93804e-06 -7.01572e-06 0)
(-5.64918e-06 1.25484e-05 0)
(-2.9794e-05 3.62114e-05 0)
(-6.68782e-05 6.22392e-05 0)
(-0.000117722 8.939e-05 0)
(-0.000182698 0.000116773 0)
(-0.000261835 0.000143763 0)
(-0.000354902 0.000169927 0)
(-0.000461476 0.000194971 0)
(-0.000581004 0.000218703 0)
(-0.000712836 0.000241009 0)
(-0.000856264 0.000261827 0)
(-0.00101055 0.000281136 0)
(-0.00117493 0.000298945 0)
(-0.00134865 0.000315286 0)
(-0.00153096 0.000330204 0)
(-0.00172113 0.000343755 0)
(-0.00191847 0.000356003 0)
(-0.00212229 0.000367015 0)
(-0.00233196 0.00037686 0)
(-0.00254686 0.000385608 0)
(-0.00276641 0.000393327 0)
(-0.00299007 0.000400085 0)
(-0.00321733 0.000405946 0)
(-0.00344771 0.00041097 0)
(-0.00368076 0.000415214 0)
(-0.00391606 0.000418731 0)
(-0.0041532 0.000421571 0)
(-0.00439182 0.000423778 0)
(-0.00463157 0.000425394 0)
(-0.00487212 0.000426453 0)
(-0.00511317 0.000426988 0)
(-0.0053544 0.000427027 0)
(-0.00559555 0.000426595 0)
(-0.00583635 0.000425711 0)
(-0.00607653 0.000424391 0)
(-0.00631585 0.00042265 0)
(-0.00655406 0.000420495 0)
(-0.00679093 0.000417935 0)
(-0.00702621 0.000414973 0)
(-0.00725967 0.000411611 0)
(-0.00749108 0.000407847 0)
(-0.00772021 0.000403679 0)
(-0.00794681 0.000399101 0)
(-0.00817065 0.000394105 0)
(-0.00839148 0.000388684 0)
(-0.00860906 0.000382829 0)
(-0.00882314 0.000376528 0)
(-0.00903345 0.00036977 0)
(-0.00923973 0.000362543 0)
(-0.00944172 0.000354835 0)
(-0.00963913 0.000346632 0)
(-0.00983168 0.000337923 0)
(-0.0100191 0.000328696 0)
(-0.0102011 0.000318937 0)
(-0.0103773 0.000308638 0)
(-0.0105475 0.000297786 0)
(-0.0107113 0.000286373 0)
(-0.0108685 0.000274392 0)
(-0.0110186 0.000261835 0)
(-0.0111615 0.000248699 0)
(-0.0112968 0.00023498 0)
(-0.011424 0.000220677 0)
(-0.0115431 0.000205791 0)
(-0.0116535 0.000190326 0)
(-0.011755 0.000174287 0)
(-0.0118474 0.000157683 0)
(-0.0119302 0.000140526 0)
(-0.0120032 0.000122828 0)
(-0.012066 0.000104606 0)
(-0.0121185 8.58806e-05 0)
(-0.0121604 6.6674e-05 0)
(-0.0121914 4.70122e-05 0)
(-0.0122112 2.69241e-05 0)
(-0.0122196 6.44163e-06 0)
(-0.0122166 -1.44001e-05 0)
(-0.0122017 -3.55628e-05 0)
(-0.012175 -5.70051e-05 0)
(-0.0121363 -7.86828e-05 0)
(-0.0120854 -0.000100548 0)
(-0.0120223 -0.000122552 0)
(-0.011947 -0.00014464 0)
(-0.0118593 -0.000166758 0)
(-0.0117594 -0.000188848 0)
(-0.0116472 -0.00021085 0)
(-0.0115229 -0.000232702 0)
(-0.0113865 -0.000254341 0)
(-0.0112382 -0.000275702 0)
(-0.0110781 -0.000296718 0)
(-0.0109065 -0.000317323 0)
(-0.0107236 -0.000337449 0)
(-0.0105297 -0.000357027 0)
(-0.0103252 -0.000375992 0)
(-0.0101103 -0.000394274 0)
(-0.00988558 -0.000411808 0)
(-0.00965134 -0.000428528 0)
(-0.00940809 -0.000444371 0)
(-0.00915632 -0.000459275 0)
(-0.00889658 -0.00047318 0)
(-0.00862943 -0.00048603 0)
(-0.00835545 -0.00049777 0)
(-0.00807528 -0.000508351 0)
(-0.00778956 -0.000517726 0)
(-0.00749896 -0.000525852 0)
(-0.00720418 -0.000532691 0)
(-0.00690593 -0.000538209 0)
(-0.00660495 -0.000542377 0)
(-0.00630198 -0.000545172 0)
(-0.00599776 -0.000546575 0)
(-0.00569308 -0.000546573 0)
(-0.0053887 -0.000545159 0)
(-0.00508539 -0.000542331 0)
(-0.00478392 -0.000538093 0)
(-0.00448507 -0.000532454 0)
(-0.00418959 -0.000525431 0)
(-0.00389824 -0.000517045 0)
(-0.00361176 -0.000507322 0)
(-0.00333087 -0.000496296 0)
(-0.00305626 -0.000484005 0)
(-0.00278864 -0.000470492 0)
(-0.00252865 -0.000455806 0)
(-0.00227691 -0.000440001 0)
(-0.00203404 -0.000423136 0)
(-0.0018006 -0.000405274 0)
(-0.00157711 -0.000386482 0)
(-0.00136407 -0.000366832 0)
(-0.00116192 -0.000346401 0)
(-0.00097109 -0.000325269 0)
(-0.000791928 -0.000303518 0)
(-0.000624754 -0.000281237 0)
(-0.000469837 -0.000258516 0)
(-0.000327392 -0.00023545 0)
(-0.000197583 -0.000212137 0)
(-8.05172e-05 -0.000188681 0)
(2.37573e-05 -0.000165187 0)
(0.000115252 -0.000141769 0)
(0.000194043 -0.000118542 0)
(0.000260271 -9.56312e-05 0)
(0.000314149 -7.31671e-05 0)
(0.000355965 -5.12896e-05 0)
(0.000386085 -3.01492e-05 0)
(0.000404961 -9.90949e-06 0)
(0.000413135 9.25092e-06 0)
(0.000411251 2.71344e-05 0)
(0.000400059 4.35211e-05 0)
(0.000380426 5.81641e-05 0)
(0.000353352 7.07844e-05 0)
(0.000319973 8.1066e-05 0)
(0.000281581 8.8651e-05 0)
(0.000239629 9.31374e-05 0)
(0.000195739 9.40831e-05 0)
(0.000151706 9.1023e-05 0)
(0.000109481 8.35162e-05 0)
(7.11001e-05 7.12463e-05 0)
(3.85913e-05 5.41994e-05 0)
(1.45053e-05 3.3017e-05 0)
(2.47707e-06 9.94485e-06 0)
(1.40386e-06 -1.7287e-05 0)
(2.98231e-06 -2.61517e-05 0)
(-3.27012e-07 -1.67742e-05 0)
(-1.27404e-05 5.60214e-06 0)
(-3.72767e-05 3.69822e-05 0)
(-7.60197e-05 7.42486e-05 0)
(-0.000130373 0.000115035 0)
(-0.000201192 0.000157573 0)
(-0.00028888 0.000200564 0)
(-0.000393473 0.000243066 0)
(-0.00051473 0.000284406 0)
(-0.000652192 0.00032411 0)
(-0.000805243 0.000361861 0)
(-0.000973155 0.000397456 0)
(-0.00115512 0.000430779 0)
(-0.00135029 0.000461778 0)
(-0.00155779 0.000490451 0)
(-0.00177671 0.000516831 0)
(-0.0020062 0.000540976 0)
(-0.00224538 0.000562964 0)
(-0.00249341 0.000582887 0)
(-0.00274948 0.000600842 0)
(-0.00301282 0.000616933 0)
(-0.00328269 0.000631264 0)
(-0.00355838 0.000643939 0)
(-0.00383923 0.000655063 0)
(-0.0041246 0.000664732 0)
(-0.00441391 0.000673041 0)
(-0.00470659 0.000680079 0)
(-0.00500213 0.000685928 0)
(-0.00530001 0.000690667 0)
(-0.00559979 0.000694365 0)
(-0.00590101 0.000697086 0)
(-0.00620327 0.000698888 0)
(-0.00650617 0.000699822 0)
(-0.00680934 0.000699932 0)
(-0.00711241 0.000699257 0)
(-0.00741504 0.000697829 0)
(-0.00771691 0.000695675 0)
(-0.00801769 0.000692815 0)
(-0.00831706 0.000689267 0)
(-0.00861473 0.000685042 0)
(-0.00891039 0.000680146 0)
(-0.00920373 0.000674582 0)
(-0.00949446 0.000668348 0)
(-0.00978227 0.000661441 0)
(-0.0100669 0.000653853 0)
(-0.010348 0.000645573 0)
(-0.0106252 0.000636588 0)
(-0.0108983 0.000626884 0)
(-0.0111669 0.000616445 0)
(-0.0114308 0.000605252 0)
(-0.0116895 0.000593288 0)
(-0.0119427 0.000580532 0)
(-0.0121902 0.000566967 0)
(-0.0124314 0.000552572 0)
(-0.0126661 0.000537329 0)
(-0.012894 0.00052122 0)
(-0.0131145 0.000504227 0)
(-0.0133274 0.000486336 0)
(-0.0135323 0.000467533 0)
(-0.0137287 0.000447806 0)
(-0.0139163 0.000427146 0)
(-0.0140947 0.000405547 0)
(-0.0142634 0.000383003 0)
(-0.0144222 0.000359516 0)
(-0.0145705 0.000335088 0)
(-0.014708 0.000309725 0)
(-0.0148344 0.000283439 0)
(-0.0149491 0.000256243 0)
(-0.015052 0.000228156 0)
(-0.0151425 0.000199202 0)
(-0.0152203 0.000169408 0)
(-0.0152852 0.000138808 0)
(-0.0153367 0.000107438 0)
(-0.0153746 7.53422e-05 0)
(-0.0153986 4.25666e-05 0)
(-0.0154085 9.16419e-06 0)
(-0.0154039 -2.48079e-05 0)
(-0.0153846 -5.92872e-05 0)
(-0.0153506 -9.42066e-05 0)
(-0.0153016 -0.000129494 0)
(-0.0152374 -0.000165073 0)
(-0.0151581 -0.000200862 0)
(-0.0150635 -0.000236776 0)
(-0.0149537 -0.000272726 0)
(-0.0148285 -0.000308618 0)
(-0.0146882 -0.000344356 0)
(-0.0145328 -0.000379841 0)
(-0.0143624 -0.00041497 0)
(-0.0141772 -0.000449639 0)
(-0.0139774 -0.000483741 0)
(-0.0137633 -0.00051717 0)
(-0.0135353 -0.000549815 0)
(-0.0132936 -0.00058157 0)
(-0.0130387 -0.000612324 0)
(-0.0127711 -0.000641971 0)
(-0.0124911 -0.000670403 0)
(-0.0121995 -0.000697517 0)
(-0.0118966 -0.000723211 0)
(-0.0115832 -0.000747385 0)
(-0.0112599 -0.000769945 0)
(-0.0109274 -0.000790799 0)
(-0.0105865 -0.000809862 0)
(-0.0102378 -0.000827053 0)
(-0.00988224 -0.000842298 0)
(-0.00952062 -0.000855527 0)
(-0.00915377 -0.000866681 0)
(-0.00878259 -0.000875706 0)
(-0.00840796 -0.000882554 0)
(-0.00803081 -0.000887189 0)
(-0.00765206 -0.000889579 0)
(-0.00727265 -0.000889706 0)
(-0.00689353 -0.000887556 0)
(-0.00651564 -0.000883127 0)
(-0.00613995 -0.000876425 0)
(-0.00576738 -0.000867465 0)
(-0.00539888 -0.000856273 0)
(-0.00503537 -0.000842883 0)
(-0.00467777 -0.000827337 0)
(-0.00432695 -0.000809688 0)
(-0.00398379 -0.000789998 0)
(-0.00364913 -0.000768336 0)
(-0.00332377 -0.00074478 0)
(-0.00300849 -0.000719416 0)
(-0.00270403 -0.000692339 0)
(-0.00241108 -0.000663651 0)
(-0.0021303 -0.00063346 0)
(-0.0018623 -0.000601882 0)
(-0.00160763 -0.000569039 0)
(-0.0013668 -0.000535062 0)
(-0.00114025 -0.000500084 0)
(-0.000928385 -0.000464247 0)
(-0.000731529 -0.000427699 0)
(-0.000549949 -0.000390593 0)
(-0.000383848 -0.000353089 0)
(-0.000233357 -0.000315355 0)
(-9.8538e-05 -0.000277562 0)
(2.06249e-05 -0.000239894 0)
(0.000124225 -0.00020254 0)
(0.000212438 -0.000165701 0)
(0.000285525 -0.00012959 0)
(0.000343841 -9.44323e-05 0)
(0.000387836 -6.04704e-05 0)
(0.000418063 -2.79657e-05 0)
(0.000435185 2.79732e-06 0)
(0.000439982 3.15074e-05 0)
(0.00043336 5.78213e-05 0)
(0.000416363 8.13587e-05 0)
(0.000390177 0.000101696 0)
(0.000356145 0.000118363 0)
(0.000315774 0.000130836 0)
(0.000270741 0.000138544 0)
(0.000222898 0.000140872 0)
(0.000174268 0.000137195 0)
(0.000127041 0.000126929 0)
(8.35034e-05 0.000109643 0)
(4.59827e-05 8.52342e-05 0)
(1.76033e-05 5.42187e-05 0)
(3.09313e-06 1.8406e-05 0)
(5.66558e-07 -1.8086e-05 0)
(-1.8505e-06 -2.2606e-05 0)
(-1.31983e-05 -4.45993e-06 0)
(-3.67891e-05 2.99676e-05 0)
(-7.52605e-05 7.58293e-05 0)
(-0.000130561 0.000129303 0)
(-0.000204017 0.000187416 0)
(-0.000296433 0.000247905 0)
(-0.000408174 0.000309064 0)
(-0.000539252 0.000369625 0)
(-0.000689395 0.000428658 0)
(-0.000858103 0.000485498 0)
(-0.00104471 0.000539681 0)
(-0.00124841 0.000590903 0)
(-0.00146834 0.000638976 0)
(-0.00170354 0.000683809 0)
(-0.00195304 0.000725378 0)
(-0.00221584 0.000763711 0)
(-0.00249097 0.000798878 0)
(-0.00277743 0.000830974 0)
(-0.00307428 0.000860118 0)
(-0.0033806 0.000886439 0)
(-0.00369548 0.000910076 0)
(-0.00401808 0.000931172 0)
(-0.00434759 0.00094987 0)
(-0.00468322 0.000966311 0)
(-0.00502424 0.000980633 0)
(-0.00536996 0.000992965 0)
(-0.00571972 0.00100343 0)
(-0.0060729 0.00101215 0)
(-0.00642891 0.00101924 0)
(-0.0067872 0.00102478 0)
(-0.00714724 0.00102888 0)
(-0.00750854 0.00103161 0)
(-0.00787061 0.00103305 0)
(-0.00823302 0.00103327 0)
(-0.00859533 0.00103231 0)
(-0.00895712 0.00103022 0)
(-0.00931799 0.00102704 0)
(-0.00967755 0.00102281 0)
(-0.0100354 0.00101754 0)
(-0.0103912 0.00101126 0)
(-0.0107446 0.00100398 0)
(-0.0110952 0.000995687 0)
(-0.0114426 0.000986396 0)
(-0.0117865 0.000976098 0)
(-0.0121265 0.000964781 0)
(-0.0124622 0.000952433 0)
(-0.0127933 0.000939035 0)
(-0.0131193 0.000924566 0)
(-0.01344 0.000909005 0)
(-0.0137548 0.000892326 0)
(-0.0140635 0.000874504 0)
(-0.0143655 0.000855513 0)
(-0.0146606 0.000835325 0)
(-0.0149481 0.000813915 0)
(-0.0152278 0.000791254 0)
(-0.0154992 0.00076732 0)
(-0.0157618 0.000742089 0)
(-0.0160152 0.000715539 0)
(-0.0162589 0.000687653 0)
(-0.0164925 0.000658414 0)
(-0.0167155 0.000627811 0)
(-0.0169274 0.000595836 0)
(-0.0171278 0.000562484 0)
(-0.0173162 0.000527757 0)
(-0.0174921 0.000491659 0)
(-0.0176552 0.000454202 0)
(-0.0178048 0.000415403 0)
(-0.0179406 0.000375284 0)
(-0.0180622 0.000333874 0)
(-0.018169 0.000291208 0)
(-0.0182608 0.000247328 0)
(-0.0183371 0.000202283 0)
(-0.0183976 0.000156129 0)
(-0.0184418 0.000108928 0)
(-0.0184695 6.07503e-05 0)
(-0.0184804 1.16736e-05 0)
(-0.0184742 -3.8218e-05 0)
(-0.0184505 -8.88332e-05 0)
(-0.0184094 -0.000140074 0)
(-0.0183504 -0.000191834 0)
(-0.0182736 -0.000244002 0)
(-0.0181787 -0.00029646 0)
(-0.0180658 -0.000349082 0)
(-0.0179349 -0.00040174 0)
(-0.0177859 -0.000454299 0)
(-0.0176189 -0.000506616 0)
(-0.017434 -0.000558549 0)
(-0.0172315 -0.000609949 0)
(-0.0170115 -0.000660665 0)
(-0.0167743 -0.000710542 0)
(-0.0165202 -0.000759425 0)
(-0.0162497 -0.000807157 0)
(-0.015963 -0.00085358 0)
(-0.0156608 -0.000898538 0)
(-0.0153434 -0.000941874 0)
(-0.0150116 -0.000983435 0)
(-0.014666 -0.00102307 0)
(-0.0143071 -0.00106063 0)
(-0.0139358 -0.00109598 0)
(-0.0135529 -0.00112897 0)
(-0.013159 -0.00115948 0)
(-0.0127552 -0.00118739 0)
(-0.0123422 -0.00121256 0)
(-0.0119211 -0.00123491 0)
(-0.0114928 -0.00125433 0)
(-0.0110583 -0.00127072 0)
(-0.0106186 -0.00128402 0)
(-0.0101747 -0.00129416 0)
(-0.00972786 -0.00130108 0)
(-0.00927903 -0.00130474 0)
(-0.00882932 -0.00130511 0)
(-0.00837986 -0.00130217 0)
(-0.00793174 -0.00129592 0)
(-0.00748609 -0.00128636 0)
(-0.00704401 -0.00127353 0)
(-0.00660659 -0.00125744 0)
(-0.00617492 -0.00123816 0)
(-0.00575006 -0.00121575 0)
(-0.00533305 -0.00119028 0)
(-0.0049249 -0.00116183 0)
(-0.00452661 -0.00113052 0)
(-0.00413911 -0.00109645 0)
(-0.00376332 -0.00105975 0)
(-0.0034001 -0.00102055 0)
(-0.00305028 -0.000979003 0)
(-0.00271462 -0.000935267 0)
(-0.00239383 -0.000889509 0)
(-0.00208857 -0.000841907 0)
(-0.00179943 -0.000792649 0)
(-0.00152694 -0.000741932 0)
(-0.00127156 -0.000689961 0)
(-0.00103369 -0.000636953 0)
(-0.00081363 -0.000583131 0)
(-0.000611627 -0.000528729 0)
(-0.000427836 -0.00047399 0)
(-0.000262327 -0.000419169 0)
(-0.000115085 -0.000364531 0)
(1.39979e-05 -0.000310353 0)
(0.000125127 -0.000256929 0)
(0.000218608 -0.000204568 0)
(0.000294852 -0.000153597 0)
(0.000354381 -0.000104366 0)
(0.000397837 -5.72525e-05 0)
(0.000425986 -1.26611e-05 0)
(0.000439723 2.89666e-05 0)
(0.000440087 6.71491e-05 0)
(0.000428263 0.000101358 0)
(0.000405593 0.000131015 0)
(0.000373583 0.000155483 0)
(0.000333909 0.000174071 0)
(0.000288423 0.000186029 0)
(0.000239153 0.000190573 0)
(0.000188306 0.000186906 0)
(0.00013827 0.000174283 0)
(9.15579e-05 0.000152107 0)
(5.07846e-05 0.000120078 0)
(1.95686e-05 7.83973e-05 0)
(3.45987e-06 2.8189e-05 0)
(-3.46748e-07 -1.61996e-05 0)
(-7.22548e-06 -1.22218e-05 0)
(-2.75937e-05 1.81458e-05 0)
(-6.36398e-05 6.76524e-05 0)
(-0.000117449 0.000130754 0)
(-0.000190748 0.000203008 0)
(-0.000284693 0.000280905 0)
(-0.000399958 0.000361726 0)
(-0.00053682 0.00044338 0)
(-0.000695227 0.000524281 0)
(-0.000874847 0.000603246 0)
(-0.00107513 0.000679409 0)
(-0.00129535 0.000752156 0)
(-0.00153465 0.000821067 0)
(-0.00179208 0.000885879 0)
(-0.00206661 0.00094645 0)
(-0.0023572 0.00100273 0)
(-0.00266276 0.00105473 0)
(-0.00298221 0.00110253 0)
(-0.00331448 0.00114624 0)
(-0.00365852 0.00118601 0)
(-0.0040133 0.001222 0)
(-0.00437784 0.00125437 0)
(-0.00475119 0.00128332 0)
(-0.00513242 0.00130903 0)
(-0.00552067 0.00133167 0)
(-0.00591511 0.00135143 0)
(-0.00631496 0.00136847 0)
(-0.00671946 0.00138297 0)
(-0.00712791 0.00139507 0)
(-0.00753963 0.00140491 0)
(-0.007954 0.00141264 0)
(-0.0083704 0.00141837 0)
(-0.00878826 0.00142221 0)
(-0.00920703 0.00142426 0)
(-0.00962619 0.0014246 0)
(-0.0100452 0.0014233 0)
(-0.0104637 0.00142044 0)
(-0.010881 0.00141605 0)
(-0.0112969 0.0014102 0)
(-0.0117108 0.00140289 0)
(-0.0121222 0.00139417 0)
(-0.0125308 0.00138405 0)
(-0.0129362 0.00137252 0)
(-0.0133378 0.0013596 0)
(-0.0137353 0.00134526 0)
(-0.0141282 0.00132952 0)
(-0.0145162 0.00131233 0)
(-0.0148987 0.00129368 0)
(-0.0152754 0.00127355 0)
(-0.0156457 0.00125191 0)
(-0.0160092 0.00122872 0)
(-0.0163655 0.00120394 0)
(-0.0167141 0.00117756 0)
(-0.0170544 0.00114952 0)
(-0.0173861 0.00111979 0)
(-0.0177086 0.00108835 0)
(-0.0180214 0.00105516 0)
(-0.018324 0.00102019 0)
(-0.0186159 0.000983414 0)
(-0.0188965 0.000944806 0)
(-0.0191653 0.000904348 0)
(-0.0194219 0.000862027 0)
(-0.0196656 0.000817833 0)
(-0.0198959 0.000771761 0)
(-0.0201123 0.000723816 0)
(-0.0203143 0.000674007 0)
(-0.0205014 0.00062235 0)
(-0.0206729 0.00056887 0)
(-0.0208286 0.000513599 0)
(-0.0209677 0.000456579 0)
(-0.0210899 0.000397859 0)
(-0.0211948 0.000337498 0)
(-0.0212817 0.000275563 0)
(-0.0213505 0.000212132 0)
(-0.0214005 0.000147292 0)
(-0.0214316 8.11398e-05 0)
(-0.0214433 1.37808e-05 0)
(-0.0214353 -5.4669e-05 0)
(-0.0214073 -0.000124084 0)
(-0.0213592 -0.00019433 0)
(-0.0212908 -0.000265263 0)
(-0.0212018 -0.00033673 0)