/*--------------------------------*- C++ -*----------------------------------*\
  =========                 |
  \\      /  F ield         | OpenFOAM: The Open Source CFD Toolbox
   \\    /   O peration     | Website:  https://openfoam.org
    \\  /    A nd           | Version:  7
     \\/     M anipulation  |
\*---------------------------------------------------------------------------*/
FoamFile
{
    version     2.0;
    format      ascii;
    class       surfaceScalarField;
    location    "0.3375";
    object      phi;
}
// * * * * * * * * * * * * * * * * * * * * * * * * * * * * * * * * * * * * * //

dimensions      [0 3 -1 0 0 0 0];

internalField   nonuniform List<scalar> 
50880
(
5.90595e-12
-6.32416e-12
3.61686e-11
-3.0263e-11
8.10846e-11
-4.49155e-11
1.30728e-10
-4.96425e-11
1.77968e-10
-4.72413e-11
2.17834e-10
-3.98676e-11
2.46898e-10
-2.9066e-11
2.62848e-10
-1.59505e-11
2.6416e-10
-1.31053e-12
2.49866e-10
1.4294e-11
2.19408e-10
3.04582e-11
1.72523e-10
4.68836e-11
1.09177e-10
6.33461e-11
2.95024e-11
7.96753e-11
-6.62378e-11
9.57407e-11
-1.7768e-10
1.11442e-10
-3.04381e-10
1.26701e-10
-4.45839e-10
1.41458e-10
-6.01502e-10
1.55664e-10
-7.70784e-10
1.69283e-10
-9.53071e-10
1.82287e-10
-1.14773e-09
1.94655e-10
-1.3541e-09
2.06371e-10
-1.57152e-09
2.17425e-10
-1.79933e-09
2.27809e-10
-2.03685e-09
2.37519e-10
-2.28341e-09
2.46554e-10
-2.53832e-09
2.54913e-10
-2.80092e-09
2.626e-10
-3.07054e-09
2.69618e-10
-3.34651e-09
2.75974e-10
-3.62818e-09
2.81673e-10
-3.91491e-09
2.86724e-10
-4.20604e-09
2.91134e-10
-4.50096e-09
2.94912e-10
-4.79902e-09
2.98069e-10
-5.09964e-09
3.00613e-10
-5.4022e-09
3.02557e-10
-5.70611e-09
3.03911e-10
-6.0108e-09
3.04687e-10
-6.31569e-09
3.04895e-10
-6.62024e-09
3.04549e-10
-6.9239e-09
3.03659e-10
-7.22614e-09
3.02239e-10
-7.52644e-09
3.00301e-10
-7.8243e-09
2.97857e-10
-8.11922e-09
2.9492e-10
-8.41072e-09
2.91503e-10
-8.69834e-09
2.87618e-10
-8.98162e-09
2.83279e-10
-9.26012e-09
2.78498e-10
-9.53341e-09
2.73289e-10
-9.80107e-09
2.67664e-10
-1.00627e-08
2.61636e-10
-1.03179e-08
2.5522e-10
-1.05664e-08
2.48427e-10
-1.08076e-08
2.41271e-10
-1.10414e-08
2.33765e-10
-1.12673e-08
2.25922e-10
-1.14851e-08
2.17757e-10
-1.16944e-08
2.09281e-10
-1.18949e-08
2.00508e-10
-1.20863e-08
1.91453e-10
-1.22684e-08
1.82127e-10
-1.2441e-08
1.72545e-10
-1.26037e-08
1.62721e-10
-1.27564e-08
1.52668e-10
-1.28988e-08
1.42399e-10
-1.30307e-08
1.31929e-10
-1.3152e-08
1.21272e-10
-1.32624e-08
1.10441e-10
-1.33619e-08
9.94506e-11
-1.34502e-08
8.83151e-11
-1.35272e-08
7.70488e-11
-1.35929e-08
6.56662e-11
-1.36471e-08
5.41818e-11
-1.36897e-08
4.26103e-11
-1.37207e-08
3.09665e-11
-1.37399e-08
1.92654e-11
-1.37475e-08
7.52221e-12
-1.37432e-08
-4.24791e-12
-1.37272e-08
-1.60296e-11
-1.36994e-08
-2.78073e-11
-1.36598e-08
-3.95653e-11
-1.36085e-08
-5.12879e-11
-1.35456e-08
-6.2959e-11
-1.3471e-08
-7.45626e-11
-1.33849e-08
-8.60825e-11
-1.32874e-08
-9.75023e-11
-1.31786e-08
-1.08806e-10
-1.30586e-08
-1.19976e-10
-1.29277e-08
-1.30996e-10
-1.27858e-08
-1.4185e-10
-1.26333e-08
-1.52521e-10
-1.24703e-08
-1.62991e-10
-1.22971e-08
-1.73244e-10
-1.21138e-08
-1.83262e-10
-1.19208e-08
-1.93029e-10
-1.17182e-08
-2.02528e-10
-1.15065e-08
-2.1174e-10
-1.12858e-08
-2.2065e-10
-1.10566e-08
-2.29241e-10
-1.08191e-08
-2.37494e-10
-1.05737e-08
-2.45394e-10
-1.03208e-08
-2.52924e-10
-1.00607e-08
-2.60066e-10
-9.79392e-09
-2.66805e-10
-9.5208e-09
-2.73124e-10
-9.24179e-09
-2.79006e-10
-8.95736e-09
-2.84437e-10
-8.66796e-09
-2.89399e-10
-8.37408e-09
-2.93879e-10
-8.07622e-09
-2.9786e-10
-7.77489e-09
-3.01328e-10
-7.47062e-09
-3.04269e-10
-7.16395e-09
-3.06668e-10
-6.85544e-09
-3.08513e-10
-6.54565e-09
-3.09789e-10
-6.23517e-09
-3.10485e-10
-5.92458e-09
-3.10588e-10
-5.61449e-09
-3.10088e-10
-5.30552e-09
-3.08972e-10
-4.99829e-09
-3.07232e-10
-4.69343e-09
-3.04857e-10
-4.39159e-09
-3.0184e-10
-4.09342e-09
-2.98171e-10
-3.79957e-09
-2.93846e-10
-3.51072e-09
-2.88857e-10
-3.22752e-09
-2.83199e-10
-2.95065e-09
-2.76868e-10
-2.68078e-09
-2.69864e-10
-2.4186e-09
-2.62183e-10
-2.16477e-09
-2.53827e-10
-1.91998e-09
-2.44798e-10
-1.68488e-09
-2.35099e-10
-1.46014e-09
-2.24737e-10
-1.24642e-09
-2.1372e-10
-1.04436e-09
-2.0206e-10
-8.54587e-10
-1.89772e-10
-6.77714e-10
-1.76874e-10
-5.14324e-10
-1.63389e-10
-3.64974e-10
-1.49348e-10
-2.30186e-10
-1.34788e-10
-1.10435e-10
-1.19751e-10
-6.14275e-12
-1.04293e-10
8.23404e-11
-8.84834e-11
1.54749e-10
-7.24079e-11
2.10925e-10
-5.61754e-11
2.50849e-10
-3.99235e-11
2.74677e-10
-2.38284e-11
2.82796e-10
-8.11935e-12
2.75896e-10
6.9002e-12
2.55075e-10
2.08223e-11
2.21987e-10
3.30883e-11
1.7907e-10
4.29188e-11
1.29847e-10
4.92239e-11
7.93374e-11
5.05094e-11
3.46116e-11
4.47243e-11
5.32493e-12
2.92842e-11
5.32333e-12
3.00376e-11
-3.63618e-11
1.01165e-10
-1.01393e-10
1.95416e-10
-1.39169e-10
2.95725e-10
-1.49952e-10
3.87734e-10
-1.3925e-10
4.60206e-10
-1.1234e-10
5.04684e-10
-7.35451e-11
5.14982e-10
-2.62502e-11
4.8671e-10
2.69605e-11
4.16869e-10
8.41352e-11
3.03539e-10
1.4379e-10
1.45632e-10
2.0479e-10
-5.72833e-11
2.66261e-10
-3.0513e-10
3.27523e-10
-5.9743e-10
3.88041e-10
-9.33386e-10
4.47399e-10
-1.31195e-09
5.05264e-10
-1.73187e-09
5.61376e-10
-2.19173e-09
6.15527e-10
-2.69e-09
6.67555e-10
-3.22505e-09
7.17331e-10
-3.79515e-09
7.64757e-10
-4.39853e-09
8.09756e-10
-5.03338e-09
8.52272e-10
-5.69783e-09
8.92265e-10
-6.39002e-09
9.29708e-10
-7.10805e-09
9.64586e-10
-7.85003e-09
9.96892e-10
-8.61406e-09
1.02663e-09
-9.39825e-09
1.05381e-09
-1.02007e-08
1.07844e-09
-1.10196e-08
1.10055e-09
-1.1853e-08
1.12015e-09
-1.26992e-08
1.13729e-09
-1.35562e-08
1.15198e-09
-1.44224e-08
1.16426e-09
-1.5296e-08
1.17418e-09
-1.61752e-08
1.18176e-09
-1.70583e-08
1.18705e-09
-1.79438e-08
1.19009e-09
-1.88298e-08
1.19092e-09
-1.97148e-08
1.1896e-09
-2.05973e-08
1.18615e-09
-2.14757e-08
1.18064e-09
-2.23485e-08
1.1731e-09
-2.32143e-08
1.16359e-09
-2.40715e-08
1.15215e-09
-2.49188e-08
1.13884e-09
-2.57549e-08
1.1237e-09
-2.65784e-08
1.10678e-09
-2.7388e-08
1.08813e-09
-2.81825e-08
1.0678e-09
-2.89607e-08
1.04585e-09
-2.97214e-08
1.02232e-09
-3.04635e-08
9.97263e-10
-3.11858e-08
9.70733e-10
-3.18873e-08
9.42781e-10
-3.2567e-08
9.13457e-10
-3.32239e-08
8.82815e-10
-3.3857e-08
8.50904e-10
-3.44655e-08
8.17779e-10
-3.50485e-08
7.83491e-10
-3.56051e-08
7.48093e-10
-3.61347e-08
7.11637e-10
-3.66363e-08
6.74178e-10
-3.71093e-08
6.35767e-10
-3.75531e-08
5.9646e-10
-3.7967e-08
5.5631e-10
-3.83505e-08
5.15371e-10
-3.87029e-08
4.73698e-10
-3.90238e-08
4.31347e-10
-3.93128e-08
3.88372e-10
-3.95693e-08
3.44831e-10
-3.9793e-08
3.00778e-10
-3.99836e-08
2.56271e-10
-4.01408e-08
2.11368e-10
-4.02643e-08
1.66126e-10
-4.0354e-08
1.20604e-10
-4.04095e-08
7.48595e-11
-4.0431e-08
2.8953e-11
-4.04182e-08
-1.70559e-11
-4.03711e-08
-6.31066e-11
-4.02898e-08
-1.09138e-10
-4.01742e-08
-1.5509e-10
-4.00246e-08
-2.00898e-10
-3.98411e-08
-2.46502e-10
-3.96238e-08
-2.91837e-10
-3.93731e-08
-3.36841e-10
-3.90891e-08
-3.81449e-10
-3.87723e-08
-4.25597e-10
-3.84231e-08
-4.69221e-10
-3.80418e-08
-5.12254e-10
-3.7629e-08
-5.54631e-10
-3.71853e-08
-5.96287e-10
-3.67111e-08
-6.37155e-10
-3.62072e-08
-6.77169e-10
-3.56742e-08
-7.16263e-10
-3.51129e-08
-7.5437e-10
-3.4524e-08
-7.91423e-10
-3.39083e-08
-8.27357e-10
-3.32669e-08
-8.62103e-10
-3.26005e-08
-8.95597e-10
-3.19103e-08
-9.27773e-10
-3.11971e-08
-9.58564e-10
-3.04621e-08
-9.87905e-10
-2.97064e-08
-1.01573e-09
-2.89313e-08
-1.04198e-09
-2.81378e-08
-1.06659e-09
-2.73273e-08
-1.08949e-09
-2.65011e-08
-1.11063e-09
-2.56606e-08
-1.12994e-09
-2.48071e-08
-1.14737e-09
-2.39421e-08
-1.16286e-09
-2.30671e-08
-1.17634e-09
-2.21836e-08
-1.18777e-09
-2.12931e-08
-1.19709e-09
-2.03974e-08
-1.20425e-09
-1.9498e-08
-1.20921e-09
-1.85966e-08
-1.2119e-09
-1.76949e-08
-1.2123e-09
-1.67946e-08
-1.21034e-09
-1.58976e-08
-1.20601e-09
-1.50056e-08
-1.19925e-09
-1.41204e-08
-1.19003e-09
-1.32439e-08
-1.17832e-09
-1.2378e-08
-1.1641e-09
-1.15245e-08
-1.14734e-09
-1.06853e-08
-1.12802e-09
-9.86238e-09
-1.10612e-09
-9.05761e-09
-1.08164e-09
-8.27291e-09
-1.05457e-09
-7.51018e-09
-1.0249e-09
-6.77136e-09
-9.92655e-10
-6.05832e-09
-9.57837e-10
-5.37295e-09
-9.2047e-10
-4.7171e-09
-8.80587e-10
-4.09259e-09
-8.38231e-10
-3.50119e-09
-7.93455e-10
-2.94463e-09
-7.46328e-10
-2.42457e-09
-6.96934e-10
-1.94258e-09
-6.4538e-10
-1.50014e-09
-5.91793e-10
-1.09859e-09
-5.36332e-10
-7.39152e-10
-4.7919e-10
-4.22841e-10
-4.20603e-10
-1.50466e-10
-3.60859e-10
7.74443e-11
-3.00318e-10
2.60693e-10
-2.39424e-10
3.99503e-10
-1.78732e-10
4.9462e-10
-1.18944e-10
5.4745e-10
-6.09481e-11
5.60237e-10
-5.88703e-12
5.36298e-10
4.47605e-11
4.80322e-10
8.90639e-11
3.98747e-10
1.24494e-10
3.00202e-10
1.4777e-10
1.95954e-10
1.5476e-10
1.00154e-10
1.40529e-10
2.9271e-11
1.00171e-10
3.45923e-11
4.48294e-11
-8.11907e-11
1.391e-10
-1.95666e-10
2.56323e-10
-2.56395e-10
3.74868e-10
-2.68499e-10
4.7646e-10
-2.40842e-10
5.46226e-10
-1.82105e-10
5.72459e-10
-9.9778e-11
5.46206e-10
2.42716e-15
4.60833e-10
1.12332e-10
3.11603e-10
2.33365e-10
9.53225e-11
3.60072e-10
-1.8996e-10
4.90074e-10
-5.45193e-10
6.21494e-10
-9.70518e-10
7.52847e-10
-1.46543e-09
8.8295e-10
-2.02888e-09
1.01086e-09
-2.65943e-09
1.13581e-09
-3.35527e-09
1.25722e-09
-4.11433e-09
1.37458e-09
-4.93428e-09
1.48751e-09
-5.81266e-09
1.59571e-09
-6.74684e-09
1.69893e-09
-7.73407e-09
1.79699e-09
-8.77153e-09
1.88973e-09
-9.85632e-09
1.97705e-09
-1.09855e-08
2.05888e-09
-1.21561e-08
2.13517e-09
-1.33651e-08
2.20588e-09
-1.46095e-08
2.27102e-09
-1.58862e-08
2.33059e-09
-1.71924e-08
2.38461e-09
-1.8525e-08
2.43313e-09
-1.9881e-08
2.47617e-09
-2.12575e-08
2.51381e-09
-2.26517e-08
2.54609e-09
-2.40605e-08
2.5731e-09
-2.54812e-08
2.5949e-09
-2.69111e-08
2.61158e-09
-2.83472e-08
2.62322e-09
-2.9787e-08
2.62991e-09
-3.12279e-08
2.63174e-09
-3.26671e-08
2.62881e-09
-3.41021e-08
2.62121e-09
-3.55305e-08
2.60905e-09
-3.69499e-08
2.59242e-09
-3.83577e-08
2.57143e-09
-3.97517e-08
2.54619e-09
-4.11297e-08
2.5168e-09
-4.24894e-08
2.48337e-09
-4.38286e-08
2.44601e-09
-4.51453e-08
2.40483e-09
-4.64375e-08
2.35994e-09
-4.77031e-08
2.31144e-09
-4.89402e-08
2.25946e-09
-5.0147e-08
2.2041e-09
-5.13218e-08
2.14548e-09
-5.24627e-08
2.08371e-09
-5.35682e-08
2.0189e-09
-5.46365e-08
1.95117e-09
-5.56662e-08
1.88063e-09
-5.66559e-08
1.80741e-09
-5.7604e-08
1.73161e-09
-5.85093e-08
1.65335e-09
-5.93704e-08
1.57275e-09
-6.01861e-08
1.48992e-09
-6.09553e-08
1.40499e-09
-6.1677e-08
1.31808e-09
-6.23499e-08
1.2293e-09
-6.29734e-08
1.13877e-09
-6.35463e-08
1.04663e-09
-6.40679e-08
9.52977e-10
-6.45375e-08
8.57951e-10
-6.49543e-08
7.61671e-10
-6.53178e-08
6.64263e-10
-6.56274e-08
5.65854e-10
-6.58826e-08
4.66569e-10
-6.6083e-08
3.66539e-10
-6.62283e-08
2.65891e-10
-6.63182e-08
1.64758e-10
-6.63525e-08
6.32696e-11
-6.63312e-08
-3.844e-11
-6.6254e-08
-1.40237e-10
-6.61212e-08
-2.41987e-10
-6.59327e-08
-3.43553e-10
-6.56888e-08
-4.44797e-10
-6.53897e-08
-5.45582e-10
-6.50358e-08
-6.45767e-10
-6.46274e-08
-7.45212e-10
-6.41651e-08
-8.43775e-10
-6.36494e-08
-9.41314e-10
-6.30809e-08
-1.03769e-09
-6.24604e-08
-1.13275e-09
-6.17887e-08
-1.22635e-09
-6.10667e-08
-1.31835e-09
-6.02952e-08
-1.4086e-09
-5.94754e-08
-1.49696e-09
-5.86084e-08
-1.58328e-09
-5.76954e-08
-1.66741e-09
-5.67376e-08
-1.74921e-09
-5.57364e-08
-1.82852e-09
-5.46933e-08
-1.90521e-09
-5.36098e-08
-1.97912e-09
-5.24874e-08
-2.05012e-09
-5.1328e-08
-2.11805e-09
-5.01331e-08
-2.18278e-09
-4.89046e-08
-2.24416e-09
-4.76446e-08
-2.30206e-09
-4.63548e-08
-2.35632e-09
-4.50375e-08
-2.40683e-09
-4.36947e-08
-2.45343e-09
-4.23286e-08
-2.49601e-09
-4.09416e-08
-2.53442e-09
-3.95359e-08
-2.56855e-09
-3.81139e-08
-2.59827e-09
-3.66783e-08
-2.62346e-09
-3.52313e-08
-2.64401e-09
-3.37758e-08
-2.6598e-09
-3.23143e-08
-2.67072e-09
-3.08495e-08
-2.67668e-09
-2.93842e-08
-2.67757e-09
-2.79213e-08
-2.67331e-09
-2.64634e-08
-2.66381e-09
-2.50137e-08
-2.64899e-09
-2.3575e-08
-2.62878e-09
-2.21502e-08
-2.6031e-09
-2.07424e-08
-2.57192e-09
-1.93545e-08
-2.53517e-09
-1.79897e-08
-2.49283e-09
-1.6651e-08
-2.44486e-09
-1.53414e-08
-2.39124e-09
-1.4064e-08
-2.33197e-09
-1.28218e-08
-2.26706e-09
-1.1618e-08
-2.19654e-09
-1.04554e-08
-2.12044e-09
-9.337e-09
-2.03882e-09
-8.26581e-09
-1.95177e-09
-7.24464e-09
-1.8594e-09
-6.27627e-09
-1.76183e-09
-5.36336e-09
-1.65923e-09
-4.50848e-09
-1.55182e-09
-3.71402e-09
-1.43983e-09
-2.98223e-09
-1.32359e-09
-2.31512e-09
-1.20344e-09
-1.71445e-09
-1.07986e-09
-1.18167e-09
-9.53373e-10
-7.17881e-10
-8.24652e-10
-3.23696e-10
-6.94503e-10
8.01995e-13
-5.63922e-10
2.56206e-10
-4.34135e-10
4.43928e-10
-3.06664e-10
5.66389e-10
-1.83408e-10
6.27251e-10
-6.67482e-11
6.317e-10
4.03124e-11
5.8678e-10
1.33984e-10
5.01778e-10
2.09496e-10
3.88614e-10
2.60933e-10
2.62193e-10
2.8118e-10
1.40554e-10
2.6217e-10
4.47095e-11
1.96019e-10
7.93008e-11
4.96875e-11
-1.30878e-10
1.50249e-10
-2.96227e-10
2.69077e-10
-3.75224e-10
3.80984e-10
-3.80408e-10
4.65167e-10
-3.25027e-10
5.04561e-10
-2.21499e-10
4.85448e-10
-8.06644e-11
3.97056e-10
8.83947e-11
2.31154e-10
2.78233e-10
-1.83091e-11
4.82827e-10
-3.55562e-10
6.97325e-10
-7.83314e-10
9.17826e-10
-1.30302e-09
1.1412e-09
-1.91508e-09
1.36491e-09
-2.61905e-09
1.58692e-09
-3.41378e-09
1.80559e-09
-4.29754e-09
2.01957e-09
-5.26811e-09
2.22779e-09
-6.32289e-09
2.42936e-09
-7.45896e-09
2.62358e-09
-8.67312e-09
2.80987e-09
-9.96197e-09
2.98779e-09
-1.1322e-08
3.15697e-09
-1.27494e-08
3.31713e-09
-1.42404e-08
3.46806e-09
-1.57911e-08
3.6096e-09
-1.73975e-08
3.74164e-09
-1.90558e-08
3.86412e-09
-2.07618e-08
3.97701e-09
-2.25115e-08
4.0803e-09
-2.43009e-08
4.17401e-09
-2.61259e-08
4.25821e-09
-2.79827e-08
4.33294e-09
-2.98672e-08
4.3983e-09
-3.17755e-08
4.45439e-09
-3.37037e-08
4.50131e-09
-3.5648e-08
4.53918e-09
-3.76046e-08
4.56815e-09
-3.95697e-08
4.58835e-09
-4.15397e-08
4.59993e-09
-4.3511e-08
4.60304e-09
-4.54801e-08
4.59786e-09
-4.74434e-08
4.58453e-09
-4.93976e-08
4.56324e-09
-5.13393e-08
4.53415e-09
-5.32653e-08
4.49745e-09
-5.51725e-08
4.45332e-09
-5.70576e-08
4.40194e-09
-5.89177e-08
4.34349e-09
-6.07499e-08
4.27817e-09
-6.25512e-08
4.20616e-09
-6.43189e-08
4.12766e-09
-6.60503e-08
4.04286e-09
-6.77428e-08
3.95195e-09
-6.93939e-08
3.85513e-09
-7.1001e-08
3.7526e-09
-7.25618e-08
3.64456e-09
-7.40741e-08
3.53119e-09
-7.55357e-08
3.41271e-09
-7.69444e-08
3.28932e-09
-7.82982e-08
3.16121e-09
-7.95952e-08
3.02859e-09
-8.08335e-08
2.89167e-09
-8.20114e-08
2.75064e-09
-8.31272e-08
2.60573e-09
-8.41793e-08
2.45712e-09
-8.51663e-08
2.30505e-09
-8.60867e-08
2.1497e-09
-8.69392e-08
1.9913e-09
-8.77227e-08
1.83006e-09
-8.84359e-08
1.6662e-09
-8.90779e-08
1.49992e-09
-8.96476e-08
1.33146e-09
-9.01444e-08
1.16102e-09
-9.05674e-08
9.88838e-10
-9.0916e-08
8.15125e-10
-9.11895e-08
6.40113e-10
-9.13877e-08
4.64026e-10
-9.151e-08
2.87095e-10
-9.15563e-08
1.0955e-10
-9.15264e-08
-6.83747e-11
-9.14201e-08
-2.46445e-10
-9.12377e-08
-4.24423e-10
-9.09792e-08
-6.02071e-10
-9.06448e-08
-7.79148e-10
-9.0235e-08
-9.5541e-10
-8.97502e-08
-1.13061e-09
-8.91909e-08
-1.30451e-09
-8.85578e-08
-1.47686e-09
-8.78517e-08
-1.6474e-09
-8.70735e-08
-1.81589e-09
-8.62242e-08
-1.98208e-09
-8.53048e-08
-2.14571e-09
-8.43166e-08
-2.30652e-09
-8.3261e-08
-2.46427e-09
-8.21392e-08
-2.6187e-09
-8.0953e-08
-2.76954e-09
-7.97038e-08
-2.91656e-09
-7.83935e-08
-3.05948e-09
-7.7024e-08
-3.19805e-09
-7.55972e-08
-3.33203e-09
-7.41152e-08
-3.46114e-09
-7.25802e-08
-3.58515e-09
-7.09944e-08
-3.70381e-09
-6.93603e-08
-3.81685e-09
-6.76805e-08
-3.92404e-09
-6.59574e-08
-4.02514e-09
-6.41938e-08
-4.11989e-09
-6.23926e-08
-4.20807e-09
-6.05566e-08
-4.28944e-09
-5.86888e-08
-4.36377e-09
-5.67924e-08
-4.43084e-09
-5.48705e-08
-4.49042e-09
-5.29265e-08
-4.54232e-09
-5.09636e-08
-4.58631e-09
-4.89854e-08
-4.62221e-09
-4.69954e-08
-4.64981e-09
-4.49972e-08
-4.66894e-09
-4.29945e-08
-4.67942e-09
-4.09909e-08
-4.68109e-09
-3.89905e-08
-4.67379e-09
-3.69969e-08
-4.65737e-09
-3.50142e-08
-4.63171e-09
-3.30463e-08
-4.59668e-09
-3.10972e-08
-4.55217e-09
-2.9171e-08
-4.4981e-09
-2.72718e-08
-4.43439e-09
-2.54037e-08
-4.36098e-09
-2.35707e-08
-4.27783e-09
-2.1777e-08
-4.18493e-09
-2.00267e-08
-4.08227e-09
-1.83239e-08
-3.96988e-09
-1.66726e-08
-3.84782e-09
-1.50769e-08
-3.71617e-09
-1.35406e-08
-3.57507e-09
-1.20678e-08
-3.42465e-09
-1.0662e-08
-3.26514e-09
-9.32706e-09
-3.09679e-09
-8.06639e-09
-2.9199e-09
-6.88334e-09
-2.73487e-09
-5.78101e-09
-2.54216e-09
-4.76226e-09
-2.34233e-09
-3.82966e-09
-2.13605e-09
-2.98538e-09
-1.92414e-09
-2.23118e-09
-1.70756e-09
-1.56833e-09
-1.48751e-09
-9.97442e-10
-1.26539e-09
-5.18422e-10
-1.04294e-09
-1.30289e-10
-8.22269e-10
1.68993e-10
-6.05946e-10
3.82721e-10
-3.97134e-10
5.15701e-10
-1.99727e-10
5.74535e-10
-1.85208e-11
5.67942e-10
1.40578e-10
5.07098e-10
2.7034e-10
4.05991e-10
3.6204e-10
2.81765e-10
4.05405e-10
1.55052e-10
3.88883e-10
5.05552e-11
3.00518e-10
1.29856e-10
4.74796e-11
-1.78359e-10
1.40172e-10
-3.88919e-10
2.4261e-10
-4.77662e-10
3.27411e-10
-4.65211e-10
3.72212e-10
-3.69831e-10
3.58657e-10
-2.07946e-10
2.71835e-10
6.15776e-12
9.98458e-11
2.60385e-10
-1.66577e-10
5.44656e-10
-5.34401e-10
8.5065e-10
-1.00861e-09
1.17154e-09
-1.59251e-09
1.50173e-09
-2.28797e-09
1.83665e-09
-3.09563e-09
2.17257e-09
-4.01515e-09
2.50644e-09
-5.0453e-09
2.83574e-09
-6.18415e-09
3.15843e-09
-7.42919e-09
3.47282e-09
-8.77738e-09
3.77755e-09
-1.02253e-08
4.07149e-09
-1.17691e-08
4.35372e-09
-1.34049e-08
4.62352e-09
-1.51282e-08
4.88029e-09
-1.69346e-08
5.12357e-09
-1.88196e-08
5.353e-09
-2.07783e-08
5.5683e-09
-2.28059e-08
5.76927e-09
-2.48976e-08
5.9558e-09
-2.70484e-08
6.1278e-09
-2.92533e-08
6.28525e-09
-3.15075e-08
6.42817e-09
-3.38059e-08
6.5566e-09
-3.61436e-08
6.67063e-09
-3.85157e-08
6.77038e-09
-4.09172e-08
6.85598e-09
-4.33435e-08
6.92758e-09
-4.57897e-08
6.98537e-09
-4.82511e-08
7.02953e-09
-5.0723e-08
7.06027e-09
-5.32009e-08
7.07781e-09
-5.56802e-08
7.08239e-09
-5.81566e-08
7.07423e-09
-6.06257e-08
7.0536e-09
-6.30832e-08
7.02074e-09
-6.55249e-08
6.97591e-09
-6.79469e-08
6.9194e-09
-7.0345e-08
6.85146e-09
-7.27155e-08
6.77239e-09
-7.50545e-08
6.68245e-09
-7.73582e-08
6.58195e-09
-7.96232e-08
6.47116e-09
-8.18459e-08
6.35038e-09
-8.4023e-08
6.21991e-09
-8.61511e-08
6.08004e-09
-8.8227e-08
5.93107e-09
-9.02477e-08
5.77331e-09
-9.22102e-08
5.60705e-09
-9.41116e-08
5.43261e-09
-9.59492e-08
5.2503e-09
-9.77203e-08
5.06041e-09
-9.94224e-08
4.86326e-09
-1.01053e-07
4.65918e-09
-1.0261e-07
4.44846e-09
-1.04091e-07
4.23142e-09
-1.05493e-07
4.0084e-09
-1.06816e-07
3.7797e-09
-1.08056e-07
3.54564e-09
-1.09213e-07
3.30656e-09
-1.10285e-07
3.06278e-09
-1.11269e-07
2.81463e-09
-1.12166e-07
2.56244e-09
-1.12972e-07
2.30655e-09
-1.13688e-07
2.04728e-09
-1.14312e-07
1.78499e-09
-1.14843e-07
1.52001e-09
-1.15281e-07
1.25269e-09
-1.15624e-07
9.83368e-10
-1.15872e-07
7.12406e-10
-1.16025e-07
4.40154e-10
-1.16083e-07
1.66967e-10
-1.16044e-07
-1.06794e-10
-1.1591e-07
-3.80768e-10
-1.1568e-07
-6.54589e-10
-1.15354e-07
-9.27889e-10
-1.14933e-07
-1.2003e-09
-1.14417e-07
-1.47144e-09
-1.13807e-07
-1.74094e-09
-1.13103e-07
-2.00842e-09
-1.12306e-07
-2.27349e-09
-1.11418e-07
-2.53578e-09
-1.10439e-07
-2.7949e-09
-1.0937e-07
-3.05045e-09
-1.08214e-07
-3.30206e-09
-1.06971e-07
-3.54932e-09
-1.05644e-07
-3.79186e-09
-1.04233e-07
-4.02927e-09
-1.02741e-07
-4.26116e-09
-1.01171e-07
-4.48715e-09
-9.95235e-08
-4.70683e-09
-9.78017e-08
-4.91981e-09
-9.6008e-08
-5.12572e-09
-9.4145e-08
-5.32415e-09
-9.22154e-08
-5.51472e-09
-9.02222e-08
-5.69704e-09
-8.81683e-08
-5.87074e-09
-8.60569e-08
-6.03544e-09
-8.38913e-08
-6.19076e-09
-8.16748e-08
-6.33634e-09
-7.94111e-08
-6.47182e-09
-7.71037e-08
-6.59683e-09
-7.47564e-08
-6.71104e-09
-7.23732e-08
-6.8141e-09
-6.99579e-08
-6.90567e-09
-6.75148e-08
-6.98544e-09
-6.5048e-08
-7.0531e-09
-6.25619e-08
-7.10834e-09
-6.00608e-08
-7.15086e-09
-5.75494e-08
-7.18041e-09
-5.50321e-08
-7.19671e-09
-5.25137e-08
-7.19951e-09
-4.99989e-08
-7.18858e-09
-4.74925e-08
-7.16371e-09
-4.49995e-08
-7.12471e-09
-4.25248e-08
-7.07139e-09
-4.00734e-08
-7.00361e-09
-3.76503e-08
-6.92123e-09
-3.52605e-08
-6.82414e-09
-3.29092e-08
-6.71228e-09
-3.06015e-08
-6.58559e-09
-2.83423e-08
-6.44406e-09
-2.61369e-08
-6.28771e-09
-2.39902e-08
-6.11659e-09
-2.19072e-08
-5.93082e-09
-1.98928e-08
-5.73054e-09
-1.79519e-08
-5.51597e-09
-1.60892e-08
-5.28737e-09
-1.43092e-08
-5.04508e-09
-1.26165e-08
-4.78953e-09
-1.10152e-08
-4.52122e-09
-9.50927e-09
-4.24077e-09
-8.1025e-09
-3.94894e-09
-6.79823e-09
-3.6466e-09
-5.59946e-09
-3.33482e-09
-4.50872e-09
-3.01488e-09
-3.52799e-09
-2.68829e-09
-2.65862e-09
-2.35687e-09
-1.90122e-09
-2.02279e-09
-1.2555e-09
-1.68866e-09
-7.20141e-10
-1.35763e-09
-2.92587e-10
-1.0335e-09
3.11417e-11
-7.20862e-10
2.567e-10
-4.25283e-10
3.91684e-10
-1.53504e-10
4.45925e-10
8.63376e-11
4.31798e-10
2.84468e-10
3.64558e-10
4.29281e-10
2.62734e-10
5.07229e-10
1.48654e-10
5.02962e-10
4.94262e-11
3.99747e-10
1.79283e-10
4.03786e-11
-2.1874e-10
1.14154e-10
-4.62695e-10
1.85586e-10
-5.49092e-10
2.26518e-10
-5.06142e-10
2.13913e-10
-3.57226e-10
1.28813e-10
-1.22847e-10
-4.42852e-11
1.79255e-10
-3.17882e-10
5.33983e-10
-7.01837e-10
9.28612e-10
-1.20367e-09
1.35249e-09
-1.82888e-09
1.79674e-09
-2.58115e-09
2.254e-09
-3.46264e-09
2.71815e-09
-4.4742e-09
3.18414e-09
-5.61553e-09
3.64777e-09
-6.88536e-09
4.10557e-09
-8.2816e-09
4.55467e-09
-9.80148e-09
4.9927e-09
-1.14416e-08
5.41769e-09
-1.31982e-08
5.82802e-09
-1.50668e-08
6.22237e-09
-1.70429e-08
6.59966e-09
-1.91217e-08
6.959e-09
-2.12978e-08
7.29971e-09
-2.3566e-08
7.62122e-09
-2.59208e-08
7.92312e-09
-2.83566e-08
8.20509e-09
-3.08678e-08
8.46691e-09
-3.34484e-08
8.70844e-09
-3.60928e-08
8.92963e-09
-3.87951e-08
9.13045e-09
-4.15494e-08
9.31097e-09
-4.43501e-08
9.47128e-09
-4.71912e-08
9.61151e-09
-5.00671e-08
9.73184e-09
-5.2972e-08
9.83247e-09
-5.59002e-08
9.91363e-09
-5.88463e-08
9.97558e-09
-6.18046e-08
1.00186e-08
-6.47698e-08
1.0043e-08
-6.77365e-08
1.00491e-08
-7.06994e-08
1.00372e-08
-7.36534e-08
1.00076e-08
-7.65934e-08
9.96074e-09
-7.95144e-08
9.89695e-09
-8.24117e-08
9.81662e-09
-8.52803e-08
9.72012e-09
-8.81158e-08
9.60783e-09
-9.09135e-08
9.48016e-09
-9.3669e-08
9.33751e-09
-9.63781e-08
9.18027e-09
-9.90366e-08
9.00888e-09
-1.0164e-07
8.82373e-09
-1.04186e-07
8.62526e-09
-1.06668e-07
8.41388e-09
-1.09085e-07
8.19002e-09
-1.11432e-07
7.95411e-09
-1.13706e-07
7.70658e-09
-1.15904e-07
7.44787e-09
-1.18022e-07
7.17842e-09
-1.20057e-07
6.89867e-09
-1.22007e-07
6.60906e-09
-1.23869e-07
6.31004e-09
-1.25639e-07
6.00205e-09
-1.27316e-07
5.68556e-09
-1.28898e-07
5.36102e-09
-1.30381e-07
5.02889e-09
-1.31764e-07
4.68962e-09
-1.33045e-07
4.34368e-09
-1.34222e-07
3.99154e-09
-1.35293e-07
3.63368e-09
-1.36257e-07
3.27056e-09
-1.37113e-07
2.90267e-09
-1.37858e-07
2.53048e-09
-1.38493e-07
2.1545e-09
-1.39015e-07
1.77519e-09
-1.39425e-07
1.39307e-09
-1.39721e-07
1.00862e-09
-1.39903e-07
6.2236e-10
-1.39971e-07
2.34783e-10
-1.39924e-07
-1.53595e-10
-1.39763e-07
-5.42261e-10
-1.39487e-07
-9.30694e-10
-1.39096e-07
-1.31837e-09
-1.38592e-07
-1.70477e-09
-1.37974e-07
-2.08935e-09
-1.37243e-07
-2.47158e-09
-1.36401e-07
-2.85093e-09
-1.35447e-07
-3.22686e-09
-1.34384e-07
-3.59881e-09
-1.33213e-07
-3.96625e-09
-1.31935e-07
-4.32861e-09
-1.30551e-07
-4.68536e-09
-1.29065e-07
-5.03594e-09
-1.27477e-07
-5.37979e-09
-1.2579e-07
-5.71635e-09
-1.24006e-07
-6.04508e-09
-1.22128e-07
-6.36542e-09
-1.20158e-07
-6.6768e-09
-1.18099e-07
-6.97869e-09
-1.15954e-07
-7.27052e-09
-1.13726e-07
-7.55174e-09
-1.11419e-07
-7.82181e-09
-1.09036e-07
-8.0802e-09
-1.0658e-07
-8.32635e-09
-1.04056e-07
-8.55974e-09
-1.01467e-07
-8.77985e-09
-9.88172e-08
-8.98615e-09
-9.61109e-08
-9.17815e-09
-9.33524e-08
-9.35533e-09
-9.05463e-08
-9.51721e-09
-8.7697e-08
-9.66331e-09
-8.48096e-08
-9.79316e-09
-8.18887e-08
-9.90632e-09
-7.89394e-08
-1.00023e-08
-7.5967e-08
-1.00808e-08
-7.29765e-08
-1.01413e-08
-6.99734e-08
-1.01835e-08
-6.69632e-08
-1.02069e-08
-6.39513e-08
-1.02114e-08
-6.09435e-08
-1.01964e-08
-5.79454e-08
-1.01618e-08
-5.49629e-08
-1.01072e-08
-5.20018e-08
-1.00325e-08
-4.90679e-08
-9.93745e-09
-4.61673e-08
-9.82183e-09
-4.33059e-08
-9.68553e-09
-4.04897e-08
-9.52847e-09
-3.77248e-08
-9.35059e-09
-3.50169e-08
-9.15188e-09
-3.23722e-08
-8.93241e-09
-2.97965e-08
-8.69228e-09
-2.72957e-08
-8.43165e-09
-2.48755e-08
-8.15077e-09
-2.25415e-08
-7.84997e-09
-2.02992e-08
-7.52965e-09
-1.81539e-08
-7.19033e-09
-1.61108e-08
-6.83263e-09
-1.41747e-08
-6.45732e-09
-1.23502e-08
-6.0653e-09
-1.06415e-08
-5.65765e-09
-9.0524e-09
-5.23569e-09
-7.5863e-09
-4.80093e-09
-6.246e-09
-4.35519e-09
-5.03367e-09
-3.90063e-09
-3.95073e-09
-3.4398e-09
-2.99777e-09
-2.97575e-09
-2.17435e-09
-2.51208e-09
-1.47888e-09
-2.0531e-09
-9.08445e-10
-1.60394e-09
-4.5858e-10
-1.17073e-09
-1.2306e-10
-7.60803e-10
1.06346e-10
-3.82908e-10
2.40138e-10
-4.74534e-11
2.91373e-10
2.33234e-10
2.75995e-10
4.4466e-10
2.1326e-10
5.69964e-10
1.26347e-10
5.89876e-10
4.33919e-11
4.82702e-10
2.22675e-10
2.99248e-11
-2.48666e-10
7.6486e-11
-5.09259e-10
1.0541e-10
-5.78017e-10
8.89759e-11
-4.89707e-10
4.27648e-12
-2.72526e-10
-1.67655e-10
4.90834e-11
-4.42425e-10
4.54024e-10
-8.32714e-10
9.24271e-10
-1.34861e-09
1.44451e-09
-1.99789e-09
2.00177e-09
-2.78628e-09
2.58513e-09
-3.71771e-09
3.18542e-09
-4.79448e-09
3.79492e-09
-6.01752e-09
4.40718e-09
-7.38656e-09
5.01681e-09
-8.90026e-09
5.61927e-09
-1.05564e-08
6.2108e-09
-1.23519e-08
6.78823e-09
-1.42832e-08
7.34896e-09
-1.6346e-08
7.89079e-09
-1.85355e-08
8.41191e-09
-2.08467e-08
8.91084e-09
-2.3274e-08
9.38637e-09
-2.58118e-08
9.83752e-09
-2.84541e-08
1.02635e-08
-3.11947e-08
1.06637e-08
-3.40272e-08
1.10376e-08
-3.69453e-08
1.1385e-08
-3.99425e-08
1.17056e-08
-4.30121e-08
1.19993e-08
-4.61476e-08
1.22659e-08
-4.93423e-08
1.25057e-08
-5.25897e-08
1.27186e-08
-5.58831e-08
1.29049e-08
-5.92159e-08
1.30647e-08
-6.25817e-08
1.31982e-08
-6.59739e-08
1.33059e-08
-6.93862e-08
1.33879e-08
-7.28123e-08
1.34447e-08
-7.62458e-08
1.34766e-08
-7.96808e-08
1.3484e-08
-8.31111e-08
1.34674e-08
-8.65308e-08
1.34273e-08
-8.99341e-08
1.3364e-08
-9.33152e-08
1.32781e-08
-9.66685e-08
1.317e-08
-9.99887e-08
1.30403e-08
-1.0327e-07
1.28894e-08
-1.06508e-07
1.27179e-08
-1.09697e-07
1.25264e-08
-1.12832e-07
1.23153e-08
-1.15908e-07
1.20853e-08
-1.18921e-07
1.18368e-08
-1.21867e-07
1.15704e-08
-1.24739e-07
1.12867e-08
-1.27536e-07
1.09863e-08
-1.30251e-07
1.06697e-08
-1.32882e-07
1.03376e-08
-1.35425e-07
9.99043e-09
-1.37875e-07
9.62885e-09
-1.4023e-07
9.25346e-09
-1.42486e-07
8.86484e-09
-1.44639e-07
8.4636e-09
-1.46688e-07
8.05033e-09
-1.48628e-07
7.62565e-09
-1.50457e-07
7.19017e-09
-1.52173e-07
6.74449e-09
-1.53772e-07
6.28925e-09
-1.55254e-07
5.82507e-09
-1.56615e-07
5.35258e-09
-1.57853e-07
4.8724e-09
-1.58968e-07
4.38519e-09
-1.59957e-07
3.89158e-09
-1.60819e-07
3.39222e-09
-1.61552e-07
2.88776e-09
-1.62156e-07
2.37888e-09
-1.62629e-07
1.86622e-09
-1.62971e-07
1.35046e-09
-1.63181e-07
8.32276e-10
-1.63258e-07
3.12348e-10
-1.63203e-07
-2.08637e-10
-1.63015e-07
-7.2999e-10
-1.62695e-07
-1.25101e-09
-1.62242e-07
-1.771e-09
-1.61658e-07
-2.28925e-09
-1.60942e-07
-2.80504e-09
-1.60096e-07
-3.31767e-09
-1.59121e-07
-3.82641e-09
-1.58017e-07
-4.33052e-09
-1.56786e-07
-4.82929e-09
-1.55431e-07
-5.32198e-09
-1.53952e-07
-5.80786e-09
-1.52351e-07
-6.28618e-09
-1.5063e-07
-6.7562e-09
-1.48793e-07
-7.21719e-09
-1.46841e-07
-7.66839e-09
-1.44777e-07
-8.10906e-09
-1.42604e-07
-8.53847e-09
-1.40325e-07
-8.95587e-09
-1.37943e-07
-9.36051e-09
-1.35462e-07
-9.75166e-09
-1.32885e-07
-1.01286e-08
-1.30216e-07
-1.04906e-08
-1.2746e-07
-1.08369e-08
-1.24619e-07
-1.11668e-08
-1.21699e-07
-1.14796e-08
-1.18705e-07
-1.17746e-08
-1.1564e-07
-1.20512e-08
-1.12509e-07
-1.23085e-08
-1.09318e-07
-1.25461e-08
-1.06072e-07
-1.27631e-08
-1.02777e-07
-1.29591e-08
-9.94365e-08
-1.31333e-08
-9.60576e-08
-1.32852e-08
-9.26458e-08
-1.34142e-08
-8.92069e-08
-1.35197e-08
-8.57469e-08
-1.36012e-08
-8.22722e-08
-1.36583e-08
-7.87888e-08
-1.36903e-08
-7.53032e-08
-1.3697e-08
-7.18218e-08
-1.36778e-08
-6.83513e-08
-1.36323e-08
-6.48981e-08
-1.35604e-08
-6.14692e-08
-1.34615e-08
-5.80711e-08
-1.33355e-08
-5.47106e-08
-1.31822e-08
-5.13947e-08
-1.30015e-08
-4.81301e-08
-1.27931e-08
-4.49237e-08
-1.2557e-08
-4.17822e-08
-1.22934e-08
-3.87124e-08
-1.20022e-08
-3.5721e-08
-1.16837e-08
-3.28146e-08
-1.1338e-08
-2.99997e-08
-1.09656e-08
-2.72827e-08
-1.0567e-08
-2.46698e-08
-1.01426e-08
-2.21668e-08
-9.69328e-09
-1.97796e-08
-9.21985e-09
-1.75135e-08
-8.72338e-09
-1.53737e-08
-8.20511e-09
-1.33648e-08
-7.66654e-09
-1.14911e-08
-7.10942e-09
-9.7562e-09
-6.53583e-09
-8.16318e-09
-5.94821e-09
-6.71438e-09
-5.34943e-09
-5.41132e-09
-4.74286e-09
-4.25458e-09
-4.13249e-09
-3.24364e-09
-3.52302e-09
-2.37675e-09
-2.91998e-09
-1.65077e-09
-2.32992e-09
-1.06094e-09
-1.76055e-09
-6.00732e-10
-1.22101e-09
-2.61579e-10
-7.22061e-10
-3.26701e-11
-2.76361e-10
9.93231e-11
1.01242e-10
1.50563e-10
3.93421e-10
1.40463e-10
5.80064e-10
9.22688e-11
6.3807e-10
3.39494e-11
5.41022e-10
2.56626e-10
1.72142e-11
-2.6588e-10
3.04875e-11
-5.22534e-10
8.07674e-12
-5.55608e-10
-7.63906e-11
-4.0524e-10
-2.45011e-10
-1.03905e-10
-5.16242e-10
3.20315e-10
-9.05378e-10
8.4316e-10
-1.42492e-09
1.44382e-09
-2.08489e-09
2.10447e-09
-2.89304e-09
2.80992e-09
-3.85513e-09
3.54723e-09
-4.97512e-09
4.3054e-09
-6.25533e-09
5.07514e-09
-7.6967e-09
5.84855e-09
-9.29888e-09
6.61898e-09
-1.10604e-08
7.38082e-09
-1.29789e-08
8.12932e-09
-1.50512e-08
8.86049e-09
-1.72732e-08
9.57099e-09
-1.96404e-08
1.0258e-08
-2.21477e-08
1.09192e-08
-2.47895e-08
1.15526e-08
-2.75599e-08
1.21567e-08
-3.04524e-08
1.27301e-08
-3.34607e-08
1.32718e-08
-3.6578e-08
1.37809e-08
-3.97972e-08
1.42569e-08
-4.31113e-08
1.46991e-08
-4.65131e-08
1.51074e-08
-4.99953e-08
1.54815e-08
-5.35506e-08
1.58212e-08
-5.71716e-08
1.61267e-08
-6.0851e-08
1.6398e-08
-6.45814e-08
1.66353e-08
-6.83554e-08
1.68387e-08
-7.21659e-08
1.70087e-08
-7.60056e-08
1.71455e-08
-7.98673e-08
1.72496e-08
-8.37439e-08
1.73213e-08
-8.76286e-08
1.73612e-08
-9.15143e-08
1.73698e-08
-9.53943e-08
1.73475e-08
-9.9262e-08
1.7295e-08
-1.03111e-07
1.72128e-08
-1.06934e-07
1.71015e-08
-1.10726e-07
1.69618e-08
-1.1448e-07
1.67943e-08
-1.1819e-07
1.65996e-08
-1.21851e-07