/*--------------------------------*- C++ -*----------------------------------*\
  =========                 |
  \\      /  F ield         | OpenFOAM: The Open Source CFD Toolbox
   \\    /   O peration     | Website:  https://openfoam.org
    \\  /    A nd           | Version:  7
     \\/     M anipulation  |
\*---------------------------------------------------------------------------*/
FoamFile
{
    version     2.0;
    format      ascii;
    class       volVectorField;
    location    "0.3375";
    object      U;
}
// * * * * * * * * * * * * * * * * * * * * * * * * * * * * * * * * * * * * * //

dimensions      [0 1 -1 0 0 0 0];

internalField   nonuniform List<vector> 
25600
(
(1.74465e-07 -2.10301e-07 0)
(2.83077e-06 -1.79717e-06 0)
(9.07162e-06 -2.83408e-06 0)
(1.69245e-05 -3.2069e-06 0)
(2.48828e-05 -3.12318e-06 0)
(3.19981e-05 -2.74535e-06 0)
(3.7618e-05 -2.18063e-06 0)
(4.12929e-05 -1.50011e-06 0)
(4.27235e-05 -7.50266e-07 0)
(4.17169e-05 3.8557e-08 0)
(3.81553e-05 8.45946e-07 0)
(3.19763e-05 1.65777e-06 0)
(2.31585e-05 2.46397e-06 0)
(1.17113e-05 3.25727e-06 0)
(-2.33202e-06 4.03231e-06 0)
(-1.89205e-05 4.78515e-06 0)
(-3.79887e-05 5.51284e-06 0)
(-5.94605e-05 6.21317e-06 0)
(-8.32511e-05 6.8845e-06 0)
(-0.000109269 7.52562e-06 0)
(-0.000137418 8.13566e-06 0)
(-0.000167598 8.71404e-06 0)
(-0.000199705 9.26038e-06 0)
(-0.000233634 9.77448e-06 0)
(-0.000269278 1.02562e-05 0)
(-0.00030653 1.07057e-05 0)
(-0.000345282 1.11231e-05 0)
(-0.000385425 1.15085e-05 0)
(-0.000426852 1.18623e-05 0)
(-0.000469456 1.21847e-05 0)
(-0.000513129 1.24763e-05 0)
(-0.000557766 1.27373e-05 0)
(-0.000603263 1.29682e-05 0)
(-0.000649516 1.31695e-05 0)
(-0.000696424 1.33418e-05 0)
(-0.000743887 1.34854e-05 0)
(-0.000791805 1.3601e-05 0)
(-0.000840082 1.36891e-05 0)
(-0.000888623 1.37502e-05 0)
(-0.000937333 1.37849e-05 0)
(-0.000986122 1.37939e-05 0)
(-0.0010349 1.37776e-05 0)
(-0.00108358 1.37366e-05 0)
(-0.00113207 1.36716e-05 0)
(-0.00118029 1.35831e-05 0)
(-0.00122816 1.34717e-05 0)
(-0.00127561 1.3338e-05 0)
(-0.00132254 1.31827e-05 0)
(-0.00136889 1.30062e-05 0)
(-0.00141458 1.28093e-05 0)
(-0.00145954 1.25924e-05 0)
(-0.00150369 1.23562e-05 0)
(-0.00154699 1.21014e-05 0)
(-0.00158935 1.18284e-05 0)
(-0.00163071 1.15379e-05 0)
(-0.00167102 1.12305e-05 0)
(-0.00171021 1.09068e-05 0)
(-0.00174822 1.05673e-05 0)
(-0.00178501 1.02127e-05 0)
(-0.00182052 9.8436e-06 0)
(-0.00185469 9.46056e-06 0)
(-0.00188749 9.06419e-06 0)
(-0.00191886 8.65509e-06 0)
(-0.00194875 8.23387e-06 0)
(-0.00197714 7.80112e-06 0)
(-0.00200397 7.35747e-06 0)
(-0.00202921 6.90351e-06 0)
(-0.00205282 6.43987e-06 0)
(-0.00207478 5.96715e-06 0)
(-0.00209504 5.48598e-06 0)
(-0.00211358 4.99699e-06 0)
(-0.00213038 4.50081e-06 0)
(-0.00214541 3.99806e-06 0)
(-0.00215864 3.48939e-06 0)
(-0.00217006 2.97546e-06 0)
(-0.00217965 2.45689e-06 0)
(-0.0021874 1.93436e-06 0)
(-0.00219329 1.40852e-06 0)
(-0.00219731 8.80044e-07 0)
(-0.00219945 3.49609e-07 0)
(-0.00219972 -1.82103e-07 0)
(-0.0021981 -7.14404e-07 0)
(-0.00219459 -1.2466e-06 0)
(-0.0021892 -1.77799e-06 0)
(-0.00218193 -2.30786e-06 0)
(-0.00217279 -2.83549e-06 0)
(-0.00216178 -3.36016e-06 0)
(-0.00214893 -3.88115e-06 0)
(-0.00213423 -4.39771e-06 0)
(-0.00211773 -4.90912e-06 0)
(-0.00209942 -5.41461e-06 0)
(-0.00207933 -5.91343e-06 0)
(-0.0020575 -6.40484e-06 0)
(-0.00203394 -6.88805e-06 0)
(-0.00200869 -7.36232e-06 0)
(-0.00198179 -7.82686e-06 0)
(-0.00195326 -8.28091e-06 0)
(-0.00192314 -8.72369e-06 0)
(-0.00189149 -9.15442e-06 0)
(-0.00185833 -9.57232e-06 0)
(-0.00182373 -9.97662e-06 0)
(-0.00178773 -1.03665e-05 0)
(-0.00175037 -1.07413e-05 0)
(-0.00171173 -1.11001e-05 0)
(-0.00167185 -1.14423e-05 0)
(-0.00163079 -1.17669e-05 0)
(-0.00158863 -1.20734e-05 0)
(-0.00154542 -1.23608e-05 0)
(-0.00150123 -1.26286e-05 0)
(-0.00145614 -1.28759e-05 0)
(-0.00141021 -1.31019e-05 0)
(-0.00136353 -1.33061e-05 0)
(-0.00131617 -1.34877e-05 0)
(-0.00126821 -1.3646e-05 0)
(-0.00121975 -1.37803e-05 0)
(-0.00117085 -1.389e-05 0)
(-0.00112161 -1.39744e-05 0)
(-0.00107213 -1.4033e-05 0)
(-0.00102248 -1.4065e-05 0)
(-0.000972772 -1.407e-05 0)
(-0.000923094 -1.40473e-05 0)
(-0.000873545 -1.39965e-05 0)
(-0.000824224 -1.39171e-05 0)
(-0.000775232 -1.38085e-05 0)
(-0.000726671 -1.36704e-05 0)
(-0.000678645 -1.35022e-05 0)
(-0.000631258 -1.33038e-05 0)
(-0.000584615 -1.30746e-05 0)
(-0.000538825 -1.28144e-05 0)
(-0.000493994 -1.2523e-05 0)
(-0.000450229 -1.22e-05 0)
(-0.000407639 -1.18455e-05 0)
(-0.000366332 -1.14593e-05 0)
(-0.000326416 -1.10413e-05 0)
(-0.000287999 -1.05915e-05 0)
(-0.000251187 -1.01102e-05 0)
(-0.000216085 -9.59744e-06 0)
(-0.000182799 -9.05361e-06 0)
(-0.000151429 -8.47912e-06 0)
(-0.000122075 -7.87456e-06 0)
(-9.48322e-05 -7.2407e-06 0)
(-6.97931e-05 -6.57858e-06 0)
(-4.70439e-05 -5.88948e-06 0)
(-2.66646e-05 -5.17499e-06 0)
(-8.72765e-06 -4.43715e-06 0)
(6.70473e-06 -3.67861e-06 0)
(1.95824e-05 -2.90275e-06 0)
(2.98705e-05 -2.11402e-06 0)
(3.75536e-05 -1.31817e-06 0)
(4.26409e-05 -5.22911e-07 0)
(4.51734e-05 2.61307e-07 0)
(4.52343e-05 1.01991e-06 0)
(4.29622e-05 1.73205e-06 0)
(3.85716e-05 2.36706e-06 0)
(3.23823e-05 2.87857e-06 0)
(2.48621e-05 3.19625e-06 0)
(1.66773e-05 3.21536e-06 0)
(8.77941e-06 2.77969e-06 0)
(2.64376e-06 1.69682e-06 0)
(1.22324e-07 1.22457e-07 0)
(1.77453e-06 -2.88404e-06 0)
(9.37646e-06 -9.41737e-06 0)
(2.31319e-05 -1.34191e-05 0)
(3.93699e-05 -1.47279e-05 0)
(5.52484e-05 -1.39626e-05 0)
(6.87748e-05 -1.16943e-05 0)
(7.84096e-05 -8.36341e-06 0)
(8.29958e-05 -4.29914e-06 0)
(8.17018e-05 2.58007e-07 0)
(7.39497e-05 5.13319e-06 0)
(5.93562e-05 1.01978e-05 0)
(3.76885e-05 1.53561e-05 0)
(8.8314e-06 2.05357e-05 0)
(-2.72389e-05 2.56812e-05 0)
(-7.04743e-05 3.07502e-05 0)
(-0.00012077 3.57096e-05 0)
(-0.000177975 4.05338e-05 0)
(-0.000241905 4.52027e-05 0)
(-0.000312344 4.97006e-05 0)
(-0.000389057 5.40154e-05 0)
(-0.000471788 5.81375e-05 0)
(-0.000560267 6.20599e-05 0)
(-0.000654217 6.57773e-05 0)
(-0.000753347 6.92858e-05 0)
(-0.000857364 7.2583e-05 0)
(-0.00096597 7.56671e-05 0)
(-0.00107886 7.85375e-05 0)
(-0.00119574 8.11942e-05 0)
(-0.00131629 8.36379e-05 0)
(-0.00144023 8.58698e-05 0)
(-0.00156723 8.78913e-05 0)
(-0.00169701 8.97046e-05 0)
(-0.00182927 9.13118e-05 0)
(-0.00196371 9.27155e-05 0)
(-0.00210004 9.39186e-05 0)
(-0.00223797 9.4924e-05 0)
(-0.00237722 9.57349e-05 0)
(-0.00251751 9.63547e-05 0)
(-0.00265856 9.67868e-05 0)
(-0.00280011 9.70347e-05 0)
(-0.00294189 9.71023e-05 0)
(-0.00308364 9.69931e-05 0)
(-0.0032251 9.67111e-05 0)
(-0.00336604 9.626e-05 0)
(-0.00350619 9.56439e-05 0)
(-0.00364533 9.48668e-05 0)
(-0.00378322 9.39325e-05 0)
(-0.00391965 9.28452e-05 0)
(-0.00405437 9.1609e-05 0)
(-0.00418719 9.02279e-05 0)
(-0.00431789 8.87061e-05 0)
(-0.00444627 8.70477e-05 0)
(-0.00457213 8.52568e-05 0)
(-0.00469529 8.33376e-05 0)
(-0.00481555 8.12942e-05 0)
(-0.00493274 7.91309e-05 0)
(-0.00504669 7.68519e-05 0)
(-0.00515723 7.44613e-05 0)
(-0.00526419 7.19634e-05 0)
(-0.00536743 6.93625e-05 0)
(-0.0054668 6.66626e-05 0)
(-0.00556215 6.38682e-05 0)
(-0.00565335 6.09835e-05 0)
(-0.00574028 5.80128e-05 0)
(-0.0058228 5.49604e-05 0)
(-0.0059008 5.18306e-05 0)
(-0.00597417 4.86278e-05 0)
(-0.00604281 4.53565e-05 0)
(-0.00610662 4.20209e-05 0)
(-0.00616551 3.86256e-05 0)
(-0.0062194 3.5175e-05 0)
(-0.0062682 3.16736e-05 0)
(-0.00631186 2.8126e-05 0)
(-0.00635029 2.45367e-05 0)
(-0.00638345 2.09103e-05 0)
(-0.00641128 1.72516e-05 0)
(-0.00643375 1.35651e-05 0)
(-0.00645081 9.85565e-06 0)
(-0.00646243 6.12801e-06 0)
(-0.0064686 2.38698e-06 0)
(-0.00646929 -1.36256e-06 0)
(-0.0064645 -5.11571e-06 0)
(-0.00645423 -8.86751e-06 0)
(-0.00643848 -1.2613e-05 0)
(-0.00641726 -1.63471e-05 0)
(-0.0063906 -2.00647e-05 0)
(-0.00635853 -2.37607e-05 0)
(-0.00632107 -2.74299e-05 0)
(-0.00627829 -3.10672e-05 0)
(-0.00623021 -3.46672e-05 0)
(-0.00617691 -3.82247e-05 0)
(-0.00611845 -4.17345e-05 0)
(-0.00605491 -4.5191e-05 0)
(-0.00598636 -4.8589e-05 0)
(-0.00591291 -5.19231e-05 0)
(-0.00583463 -5.51879e-05 0)
(-0.00575165 -5.83779e-05 0)
(-0.00566407 -6.14877e-05 0)
(-0.00557202 -6.45118e-05 0)
(-0.00547563 -6.74449e-05 0)
(-0.00537503 -7.02814e-05 0)
(-0.00527036 -7.3016e-05 0)
(-0.00516179 -7.56433e-05 0)
(-0.00504947 -7.81579e-05 0)
(-0.00493358 -8.05544e-05 0)
(-0.00481428 -8.28275e-05 0)
(-0.00469177 -8.4972e-05 0)
(-0.00456623 -8.69827e-05 0)
(-0.00443786 -8.88545e-05 0)
(-0.00430687 -9.05822e-05 0)
(-0.00417348 -9.2161e-05 0)
(-0.0040379 -9.35859e-05 0)
(-0.00390036 -9.48521e-05 0)
(-0.0037611 -9.5955e-05 0)
(-0.00362036 -9.68899e-05 0)
(-0.00347838 -9.76525e-05 0)
(-0.00333542 -9.82386e-05 0)
(-0.00319174 -9.86438e-05 0)
(-0.00304761 -9.88643e-05 0)
(-0.00290329 -9.88964e-05 0)
(-0.00275907 -9.87363e-05 0)
(-0.00261521 -9.83807e-05 0)
(-0.00247202 -9.78264e-05 0)
(-0.00232977 -9.70705e-05 0)
(-0.00218876 -9.61102e-05 0)
(-0.0020493 -9.49431e-05 0)
(-0.00191167 -9.35672e-05 0)
(-0.00177618 -9.19806e-05 0)
(-0.00164314 -9.01817e-05 0)
(-0.00151284 -8.81695e-05 0)
(-0.00138561 -8.59433e-05 0)
(-0.00126174 -8.35027e-05 0)
(-0.00114154 -8.08482e-05 0)
(-0.00102532 -7.79804e-05 0)
(-0.000913372 -7.49006e-05 0)
(-0.000806002 -7.16112e-05 0)
(-0.000703502 -6.81149e-05 0)
(-0.000606161 -6.44158e-05 0)
(-0.000514259 -6.05187e-05 0)
(-0.000428067 -5.64299e-05 0)
(-0.000347843 -5.21572e-05 0)
(-0.000273833 -4.77102e-05 0)
(-0.000206265 -4.31011e-05 0)
(-0.000145343 -3.83445e-05 0)
(-9.12481e-05 -3.34585e-05 0)
(-4.41282e-05 -2.84658e-05 0)
(-4.09246e-06 -2.33944e-05 0)
(2.87982e-05 -1.82797e-05 0)
(5.45425e-05 -1.31665e-05 0)
(7.3213e-05 -8.11211e-06 0)
(8.49761e-05 -3.19033e-06 0)
(9.01163e-05 1.50183e-06 0)
(8.90685e-05 5.83541e-06 0)
(8.24607e-05 9.6366e-06 0)
(7.11697e-05 1.26687e-05 0)
(5.63884e-05 1.46109e-05 0)
(3.96754e-05 1.50395e-05 0)
(2.30146e-05 1.34162e-05 0)
(9.18237e-06 9.18467e-06 0)
(1.695e-06 2.64212e-06 0)
(2.82376e-06 -9.09538e-06 0)
(1.34036e-05 -2.31657e-05 0)
(3.10639e-05 -3.10696e-05 0)
(5.08305e-05 -3.3132e-05 0)
(6.91032e-05 -3.04516e-05 0)
(8.33214e-05 -2.4122e-05 0)
(9.14027e-05 -1.50709e-05 0)
(9.17057e-05 -4.04325e-06 0)
(8.29981e-05 8.38061e-06 0)
(6.43855e-05 2.1753e-05 0)
(3.5246e-05 3.57292e-05 0)
(-4.82159e-06 5.0043e-05 0)
(-5.60407e-05 6.4487e-05 0)
(-0.000118492 7.88991e-05 0)
(-0.00019214 9.31515e-05 0)
(-0.000276858 0.000107143 0)
(-0.000372443 0.000120795 0)
(-0.00047863 0.000134042 0)
(-0.000595108 0.000146834 0)
(-0.000721523 0.000159132 0)
(-0.00085749 0.000170904 0)
(-0.0010026 0.000182125 0)
(-0.00115642 0.000192776 0)
(-0.00131851 0.000202844 0)
(-0.00148841 0.000212317 0)
(-0.00166564 0.000221189 0)
(-0.00184974 0.000229456 0)
(-0.00204023 0.000237116 0)
(-0.00223662 0.000244168 0)
(-0.00243843 0.000250615 0)
(-0.00264518 0.000256459 0)
(-0.0028564 0.000261705 0)
(-0.00307161 0.000266359 0)
(-0.00329033 0.000270426 0)
(-0.00351209 0.000273915 0)
(-0.00373644 0.000276833 0)
(-0.00396292 0.000279188 0)
(-0.00419108 0.00028099 0)
(-0.00442046 0.000282247 0)
(-0.00465065 0.00028297 0)
(-0.00488121 0.000283169 0)
(-0.00511171 0.000282855 0)
(-0.00534175 0.000282038 0)
(-0.00557093 0.000280728 0)
(-0.00579884 0.000278938 0)
(-0.00602511 0.000276679 0)
(-0.00624935 0.000273962 0)
(-0.0064712 0.000270798 0)
(-0.0066903 0.000267199 0)
(-0.0069063 0.000263177 0)
(-0.00711885 0.000258745 0)
(-0.00732764 0.000253913 0)
(-0.00753234 0.000248694 0)
(-0.00773263 0.0002431 0)
(-0.00792822 0.000237143 0)
(-0.00811882 0.000230835 0)
(-0.00830414 0.000224189 0)
(-0.00848392 0.000217216 0)
(-0.00865788 0.00020993 0)
(-0.00882579 0.000202341 0)
(-0.0089874 0.000194464 0)
(-0.00914247 0.00018631 0)
(-0.00929079 0.000177891 0)
(-0.00943215 0.000169222 0)
(-0.00956635 0.000160313 0)
(-0.00969319 0.000151178 0)
(-0.0098125 0.000141829 0)
(-0.00992411 0.00013228 0)
(-0.0100279 0.000122543 0)
(-0.0101236 0.000112632 0)
(-0.0102112 0.000102559 0)
(-0.0102905 9.23386e-05 0)
(-0.0103615 8.19828e-05 0)
(-0.0104239 7.15056e-05 0)
(-0.0104778 6.09204e-05 0)
(-0.010523 5.0241e-05 0)
(-0.0105594 3.94812e-05 0)
(-0.0105871 2.86547e-05 0)
(-0.0106059 1.77757e-05 0)
(-0.0106159 6.85825e-06 0)
(-0.0106169 -4.08338e-06 0)
(-0.010609 -1.50348e-05 0)
(-0.0105922 -2.59815e-05 0)
(-0.0105665 -3.69088e-05 0)
(-0.0105319 -4.78019e-05 0)
(-0.0104885 -5.86461e-05 0)
(-0.0104362 -6.94262e-05 0)
(-0.0103752 -8.01272e-05 0)
(-0.0103055 -9.07338e-05 0)
(-0.0102273 -0.000101231 0)
(-0.0101405 -0.000111603 0)
(-0.0100454 -0.000121834 0)
(-0.00994196 -0.000131909 0)
(-0.00983042 -0.000141812 0)
(-0.0097109 -0.000151527 0)
(-0.00958355 -0.00016104 0)
(-0.00944856 -0.000170333 0)
(-0.00930611 -0.000179391 0)
(-0.00915639 -0.000188198 0)
(-0.00899962 -0.000196739 0)
(-0.00883602 -0.000204997 0)
(-0.00866583 -0.000212957 0)
(-0.00848929 -0.000220604 0)
(-0.00830668 -0.000227921 0)
(-0.00811825 -0.000234893 0)
(-0.00792432 -0.000241506 0)
(-0.00772516 -0.000247743 0)
(-0.00752109 -0.000253589 0)
(-0.00731244 -0.000259031 0)
(-0.00709955 -0.000264053 0)
(-0.00688275 -0.00026864 0)
(-0.00666241 -0.00027278 0)
(-0.00643889 -0.000276458 0)
(-0.00621258 -0.000279661 0)
(-0.00598387 -0.000282375 0)
(-0.00575316 -0.000284589 0)
(-0.00552086 -0.000286289 0)
(-0.00528739 -0.000287465 0)
(-0.00505318 -0.000288105 0)
(-0.00481866 -0.000288198 0)
(-0.00458429 -0.000287734 0)
(-0.00435051 -0.000286705 0)
(-0.00411779 -0.0002851 0)
(-0.0038866 -0.000282913 0)
(-0.0036574 -0.000280135 0)
(-0.00343067 -0.000276761 0)
(-0.0032069 -0.000272784 0)
(-0.00298656 -0.000268201 0)
(-0.00277016 -0.000263008 0)
(-0.00255817 -0.000257202 0)
(-0.00235109 -0.000250783 0)
(-0.00214941 -0.000243751 0)
(-0.0019536 -0.000236108 0)
(-0.00176417 -0.000227858 0)
(-0.00158157 -0.000219006 0)
(-0.0014063 -0.00020956 0)
(-0.0012388 -0.000199531 0)
(-0.00107953 -0.000188933 0)
(-0.000928919 -0.000177782 0)
(-0.000787398 -0.000166099 0)
(-0.000655359 -0.00015391 0)
(-0.000533176 -0.000141247 0)
(-0.000421189 -0.000128148 0)
(-0.000319703 -0.00011466 0)
(-0.000228978 -0.00010084 0)
(-0.00014922 -8.67582e-05 0)
(-8.05685e-05 -7.25011e-05 0)
(-2.30845e-05 -5.81754e-05 0)
(2.32676e-05 -4.39139e-05 0)
(5.86416e-05 -2.98832e-05 0)
(8.33365e-05 -1.62937e-05 0)
(9.78288e-05 -3.4129e-06 0)
(0.000102814 8.41644e-06 0)
(9.92574e-05 1.87531e-05 0)
(8.84513e-05 2.70299e-05 0)
(7.20833e-05 3.25269e-05 0)
(5.22586e-05 3.43611e-05 0)
(3.15244e-05 3.15146e-05 0)
(1.34156e-05 2.30165e-05 0)
(2.77659e-06 8.77337e-06 0)
(3.20586e-06 -1.69394e-05 0)
(1.47494e-05 -3.94175e-05 0)
(3.32062e-05 -5.08484e-05 0)
(5.27125e-05 -5.26027e-05 0)
(6.91628e-05 -4.64174e-05 0)
(7.96459e-05 -3.39657e-05 0)
(8.17495e-05 -1.67067e-05 0)
(7.35235e-05 4.14724e-06 0)
(5.3461e-05 2.76159e-05 0)
(2.04341e-05 5.29166e-05 0)
(-2.63665e-05 7.94275e-05 0)
(-8.74849e-05 0.000106655 0)
(-0.000163244 0.000134208 0)
(-0.000253786 0.000161772 0)
(-0.0003591 0.000189097 0)
(-0.000479054 0.000215982 0)
(-0.000613411 0.000242265 0)
(-0.000761853 0.000267817 0)
(-0.00092399 0.000292533 0)
(-0.00109938 0.00031633 0)
(-0.00128753 0.000339139 0)
(-0.00148791 0.000360908 0)
(-0.00169996 0.000381596 0)
(-0.0019231 0.00040117 0)
(-0.00215672 0.000419607 0)
(-0.00240022 0.000436889 0)
(-0.00265295 0.000453005 0)
(-0.00291429 0.000467948 0)
(-0.00318358 0.000481715 0)
(-0.0034602 0.000494308 0)
(-0.00374349 0.000505731 0)
(-0.0040328 0.000515991 0)
(-0.00432751 0.000525096 0)
(-0.00462697 0.000533058 0)
(-0.00493055 0.000539889 0)
(-0.00523762 0.000545604 0)
(-0.00554757 0.000550217 0)
(-0.00585979 0.000553747 0)
(-0.00617367 0.00055621 0)
(-0.00648863 0.000557625 0)
(-0.00680408 0.000558011 0)
(-0.00711945 0.000557389 0)
(-0.00743417 0.000555778 0)
(-0.00774771 0.000553199 0)
(-0.00805951 0.000549675 0)
(-0.00836906 0.000545227 0)
(-0.00867584 0.000539877 0)
(-0.00897934 0.000533648 0)
(-0.00927908 0.000526562 0)
(-0.00957458 0.000518642 0)
(-0.00986537 0.000509912 0)
(-0.010151 0.000500394 0)
(-0.010431 0.000490113 0)
(-0.0107051 0.000479092 0)
(-0.0109726 0.000467355 0)
(-0.0112334 0.000454926 0)
(-0.0114869 0.000441828 0)
(-0.0117329 0.000428086 0)
(-0.0119709 0.000413724 0)
(-0.0122006 0.000398767 0)
(-0.0124216 0.000383239 0)
(-0.0126338 0.000367165 0)
(-0.0128367 0.000350569 0)
(-0.01303 0.000333476 0)
(-0.0132136 0.000315912 0)
(-0.0133871 0.000297901 0)
(-0.0135503 0.000279469 0)
(-0.0137029 0.000260642 0)
(-0.0138448 0.000241444 0)
(-0.0139757 0.000221902 0)
(-0.0140955 0.000202041 0)
(-0.014204 0.000181889 0)
(-0.0143009 0.000161471 0)
(-0.0143863 0.000140813 0)
(-0.0144599 0.000119944 0)
(-0.0145216 9.88885e-05 0)
(-0.0145714 7.76755e-05 0)
(-0.0146092 5.63319e-05 0)
(-0.0146348 3.48855e-05 0)
(-0.0146483 1.33642e-05 0)
(-0.0146497 -8.2037e-06 0)
(-0.0146388 -2.97898e-05 0)
(-0.0146157 -5.13655e-05 0)
(-0.0145804 -7.29017e-05 0)
(-0.0145329 -9.43693e-05 0)
(-0.0144734 -0.000115739 0)
(-0.0144018 -0.000136981 0)
(-0.0143182 -0.000158066 0)
(-0.0142228 -0.000178963 0)
(-0.0141157 -0.000199642 0)
(-0.0139969 -0.000220074 0)
(-0.0138666 -0.000240227 0)
(-0.0137251 -0.00026007 0)
(-0.0135724 -0.000279573 0)
(-0.0134089 -0.000298705 0)
(-0.0132346 -0.000317435 0)
(-0.0130499 -0.000335732 0)
(-0.012855 -0.000353564 0)
(-0.0126502 -0.000370901 0)
(-0.0124357 -0.000387711 0)
(-0.0122119 -0.000403965 0)
(-0.0119791 -0.000419629 0)
(-0.0117377 -0.000434675 0)
(-0.0114879 -0.000449072 0)
(-0.0112303 -0.000462788 0)
(-0.010965 -0.000475795 0)
(-0.0106927 -0.000488062 0)
(-0.0104137 -0.00049956 0)
(-0.0101284 -0.000510261 0)
(-0.00983726 -0.000520135 0)
(-0.00954083 -0.000529156 0)
(-0.00923958 -0.000537294 0)
(-0.00893398 -0.000544525 0)
(-0.00862458 -0.000550821 0)
(-0.00831189 -0.000556158 0)
(-0.00799647 -0.000560511 0)
(-0.00767887 -0.000563857 0)
(-0.00735967 -0.000566173 0)
(-0.00703944 -0.000567437 0)
(-0.00671879 -0.000567629 0)
(-0.00639832 -0.000566731 0)
(-0.00607864 -0.000564723 0)
(-0.00576038 -0.00056159 0)
(-0.00544417 -0.000557316 0)
(-0.00513065 -0.000551889 0)
(-0.00482047 -0.000545295 0)
(-0.00451428 -0.000537527 0)
(-0.00421272 -0.000528575 0)
(-0.00391647 -0.000518435 0)
(-0.00362617 -0.000507103 0)
(-0.00334249 -0.000494579 0)
(-0.00306608 -0.000480865 0)
(-0.00279759 -0.000465967 0)
(-0.00253767 -0.000449895 0)
(-0.00228696 -0.000432661 0)
(-0.00204608 -0.000414285 0)
(-0.00181564 -0.000394789 0)
(-0.00159624 -0.000374203 0)
(-0.00138846 -0.000352564 0)
(-0.00119283 -0.000329916 0)
(-0.00100988 -0.000306314 0)
(-0.000840088 -0.000281824 0)
(-0.000683886 -0.000256527 0)
(-0.000541656 -0.000230518 0)
(-0.000413719 -0.000203915 0)
(-0.000300319 -0.000176859 0)
(-0.000201609 -0.000149524 0)
(-0.000117638 -0.000122121 0)
(-4.8325e-05 -9.49081e-05 0)
(6.56292e-06 -6.82058e-05 0)
(4.7444e-05 -4.24104e-05 0)
(7.49559e-05 -1.80152e-05 0)
(8.99994e-05 4.36396e-06 0)
(9.37863e-05 2.39589e-05 0)
(8.78969e-05 3.98159e-05 0)
(7.43367e-05 5.07691e-05 0)
(5.55481e-05 5.54352e-05 0)
(3.4435e-05 5.22608e-05 0)
(1.50603e-05 3.96937e-05 0)
(3.21434e-06 1.66707e-05 0)
(3.13384e-06 -2.49179e-05 0)
(1.40426e-05 -5.53637e-05 0)
(3.06667e-05 -6.9201e-05 0)
(4.6766e-05 -6.90901e-05 0)
(5.79561e-05 -5.75437e-05 0)
(6.1105e-05 -3.68629e-05 0)
(5.36042e-05 -9.05512e-06 0)
(3.33183e-05 2.41867e-05 0)
(-1.43399e-06 6.14625e-05 0)
(-5.19377e-05 0.000101628 0)
(-0.000119137 0.000143752 0)
(-0.000203684 0.000187081 0)
(-0.000305983 0.000231004 0)
(-0.000426227 0.000275026 0)
(-0.000564433 0.000318744 0)
(-0.000720469 0.000361831 0)
(-0.000894078 0.000404021 0)
(-0.0010849 0.000445098 0)
(-0.00129249 0.000484885 0)
(-0.00151632 0.000523239 0)
(-0.00175581 0.000560045 0)
(-0.00201035 0.000595209 0)
(-0.00227924 0.000628659 0)
(-0.00256181 0.000660337 0)
(-0.0028573 0.000690199 0)
(-0.00316499 0.00071821 0)
(-0.00348409 0.00074435 0)
(-0.00381383 0.000768602 0)
(-0.00415342 0.000790959 0)
(-0.00450208 0.00081142 0)
(-0.00485901 0.000829988 0)
(-0.00522341 0.000846671 0)
(-0.00559449 0.000861482 0)
(-0.00597147 0.000874436 0)
(-0.00635355 0.000885553 0)
(-0.00673997 0.000894853 0)
(-0.00712996 0.000902361 0)
(-0.00752275 0.000908101 0)
(-0.0079176 0.000912103 0)
(-0.00831376 0.000914393 0)
(-0.00871052 0.000915004 0)
(-0.00910715 0.000913966 0)
(-0.00950296 0.000911313 0)
(-0.00989725 0.000907078 0)
(-0.0102894 0.000901294 0)
(-0.0106786 0.000893999 0)
(-0.0110644 0.000885226 0)
(-0.011446 0.000875013 0)
(-0.0118229 0.000863396 0)
(-0.0121945 0.000850412 0)
(-0.0125601 0.000836099 0)
(-0.0129193 0.000820496 0)
(-0.0132714 0.00080364 0)
(-0.0136159 0.00078557 0)
(-0.0139524 0.000766325 0)
(-0.0142802 0.000745943 0)
(-0.014599 0.000724465 0)
(-0.0149082 0.000701929 0)
(-0.0152075 0.000678376 0)
(-0.0154963 0.000653846 0)
(-0.0157742 0.000628378 0)
(-0.0160409 0.000602013 0)
(-0.016296 0.000574792 0)
(-0.0165391 0.000546756 0)
(-0.0167699 0.000517946 0)
(-0.016988 0.000488402 0)
(-0.0171931 0.000458168 0)
(-0.0173849 0.000427284 0)
(-0.0175633 0.000395793 0)
(-0.0177278 0.000363737 0)
(-0.0178783 0.000331159 0)
(-0.0180146 0.000298102 0)
(-0.0181365 0.00026461 0)
(-0.0182437 0.000230726 0)
(-0.0183361 0.000196494 0)
(-0.0184137 0.00016196 0)
(-0.0184761 0.000127167 0)
(-0.0185235 9.21613e-05 0)
(-0.0185556 5.69881e-05 0)
(-0.0185725 2.16934e-05 0)
(-0.018574 -1.36764e-05 0)
(-0.0185602 -4.90744e-05 0)
(-0.018531 -8.44536e-05 0)
(-0.0184865 -0.000119766 0)
(-0.0184268 -0.000154965 0)
(-0.0183518 -0.000190001 0)
(-0.0182616 -0.000224826 0)
(-0.0181565 -0.00025939 0)
(-0.0180364 -0.000293646 0)
(-0.0179015 -0.000327542 0)
(-0.0177521 -0.000361029 0)
(-0.0175883 -0.000394057 0)
(-0.0174102 -0.000426577 0)
(-0.0172182 -0.000458536 0)
(-0.0170125 -0.000489885 0)
(-0.0167934 -0.000520572 0)
(-0.0165611 -0.000550548 0)
(-0.0163161 -0.000579761 0)
(-0.0160586 -0.00060816 0)
(-0.0157889 -0.000635694 0)
(-0.0155076 -0.000662314 0)
(-0.015215 -0.000687968 0)
(-0.0149114 -0.000712607 0)
(-0.0145975 -0.00073618 0)
(-0.0142736 -0.000758639 0)
(-0.0139402 -0.000779934 0)
(-0.013598 -0.000800017 0)
(-0.0132472 -0.000818841 0)
(-0.0128887 -0.000836358 0)
(-0.0125229 -0.000852522 0)
(-0.0121503 -0.000867288 0)
(-0.0117717 -0.000880611 0)
(-0.0113877 -0.000892449 0)
(-0.0109988 -0.000902759 0)
(-0.0106059 -0.000911501 0)
(-0.0102095 -0.000918635 0)
(-0.00981032 -0.000924123 0)
(-0.00940914 -0.000927929 0)
(-0.00900666 -0.000930018 0)
(-0.00860361 -0.000930359 0)
(-0.00820077 -0.00092892 0)
(-0.00779888 -0.000925674 0)
(-0.00739874 -0.000920594 0)
(-0.00700112 -0.000913658 0)
(-0.00660683 -0.000904843 0)
(-0.00621666 -0.000894134 0)
(-0.00583143 -0.000881514 0)
(-0.00545194 -0.000866974 0)
(-0.00507902 -0.000850506 0)
(-0.00471346 -0.000832107 0)
(-0.0043561 -0.000811779 0)
(-0.00400773 -0.000789527 0)
(-0.00366915 -0.000765365 0)
(-0.00334117 -0.00073931 0)
(-0.00302455 -0.000711388 0)
(-0.00272008 -0.000681631 0)
(-0.00242849 -0.000650083 0)
(-0.0021505 -0.000616794 0)
(-0.00188681 -0.000581829 0)
(-0.00163808 -0.000545267 0)
(-0.00140493 -0.000507201 0)
(-0.00118792 -0.000467745 0)
(-0.000987564 -0.000427033 0)
(-0.000804313 -0.00038523 0)
(-0.000638529 -0.00034253 0)
(-0.000490482 -0.000299168 0)
(-0.000360335 -0.000255427 0)
(-0.000248117 -0.00021165 0)
(-0.000153707 -0.00016825 0)
(-7.68022e-05 -0.000125732 0)
(-1.68899e-05 -8.47117e-05 0)
(2.67912e-05 -4.59404e-05 0)
(5.52899e-05 -1.03371e-05 0)
(6.9988e-05 2.09775e-05 0)
(7.26513e-05 4.66452e-05 0)
(6.54827e-05 6.50412e-05 0)
(5.11322e-05 7.42635e-05 0)
(3.27394e-05 7.21683e-05 0)
(1.46823e-05 5.64721e-05 0)
(3.20281e-06 2.48719e-05 0)
(2.77215e-06 -3.20913e-05 0)
(1.18571e-05 -6.90424e-05 0)
(2.45389e-05 -8.36111e-05 0)
(3.46598e-05 -7.97356e-05 0)
(3.77727e-05 -6.07579e-05 0)
(3.06318e-05 -2.96348e-05 0)
(1.05304e-05 1.10699e-05 0)
(-2.47614e-05 5.91792e-05 0)
(-7.70212e-05 0.000112868 0)
(-0.000147627 0.000170618 0)
(-0.000237609 0.000231175 0)
(-0.000347691 0.000293505 0)
(-0.000478334 0.000356756 0)
(-0.000629768 0.000420229 0)
(-0.00080203 0.000483347 0)
(-0.00099499 0.000545636 0)
(-0.00120837 0.000606705 0)
(-0.00144179 0.000666235 0)
(-0.00169473 0.000723962 0)
(-0.00196663 0.000779669 0)
(-0.00225682 0.00083318 0)
(-0.00256459 0.000884352 0)
(-0.00288918 0.00093307 0)
(-0.00322978 0.000979242 0)
(-0.00358554 0.0010228 0)
(-0.00395561 0.00106368 0)
(-0.00433908 0.00110186 0)
(-0.00473506 0.0011373 0)
(-0.00514264 0.00116998 0)
(-0.00556087 0.00119991 0)
(-0.00598883 0.00122707 0)
(-0.0064256 0.00125149 0)
(-0.00687023 0.00127317 0)
(-0.0073218 0.00129213 0)
(-0.00777939 0.00130841 0)
(-0.00824208 0.00132202 0)
(-0.00870895 0.00133301 0)
(-0.00917912 0.0013414 0)
(-0.00965169 0.00134724 0)
(-0.0101258 0.00135056 0)
(-0.0106005 0.00135141 0)
(-0.0110751 0.00134984 0)
(-0.0115487 0.00134589 0)
(-0.0120204 0.00133961 0)
(-0.0124895 0.00133105 0)
(-0.0129551 0.00132026 0)
(-0.0134166 0.00130729 0)
(-0.0138731 0.0012922 0)
(-0.0143239 0.00127504 0)
(-0.0147684 0.00125586 0)
(-0.0152057 0.00123472 0)
(-0.0156353 0.00121168 0)
(-0.0160564 0.00118678 0)
(-0.0164685 0.00116009 0)
(-0.0168709 0.00113166 0)
(-0.017263 0.00110156 0)
(-0.0176442 0.00106984 0)
(-0.0180141 0.00103655 0)
(-0.0183719 0.00100176 0)
(-0.0187173 0.000965525 0)
(-0.0190497 0.000927905 0)
(-0.0193686 0.00088896 0)
(-0.0196736 0.000848749 0)
(-0.0199643 0.000807333 0)
(-0.0202402 0.000764774 0)
(-0.020501 0.000721131 0)
(-0.0207463 0.000676466 0)
(-0.0209757 0.000630843 0)
(-0.0211888 0.000584323 0)
(-0.0213855 0.000536968 0)
(-0.0215655 0.000488843 0)
(-0.0217283 0.000440011 0)
(-0.0218739 0.000390537 0)
(-0.0220021 0.000340485 0)
(-0.0221125 0.000289921 0)
(-0.0222051 0.00023891 0)
(-0.0222797 0.000187519 0)
(-0.0223362 0.000135815 0)
(-0.0223745 8.38653e-05 0)
(-0.0223945 3.17382e-05 0)
(-0.0223962 -2.04979e-05 0)
(-0.0223795 -7.27737e-05 0)
(-0.0223445 -0.000125019 0)
(-0.0222912 -0.000177165 0)
(-0.0222196 -0.000229139 0)
(-0.0221297 -0.00028087 0)
(-0.0220218 -0.000332288 0)
(-0.0218959 -0.000383318 0)
(-0.0217522 -0.000433889 0)
(-0.0215909 -0.000483927 0)
(-0.0214121 -0.000533358 0)
(-0.021216 -0.00058211 0)
(-0.021003 -0.000630107 0)
(-0.0207734 -0.000677274 0)
(-0.0205273 -0.000723538 0)
(-0.0202652 -0.000768824 0)
(-0.0199875 -0.000813056 0)
(-0.0196944 -0.00085616 0)
(-0.0193864 -0.000898061 0)
(-0.019064 -0.000938684 0)
(-0.0187276 -0.000977954 0)
(-0.0183777 -0.0010158 0)
(-0.0180147 -0.00105214 0)
(-0.0176394 -0.00108692 0)
(-0.0172521 -0.00112004 0)
(-0.0168536 -0.00115145 0)
(-0.0164444 -0.00118107 0)
(-0.0160251 -0.00120883 0)
(-0.0155964 -0.00123467 0)
(-0.0151591 -0.00125851 0)
(-0.0147137 -0.00128029 0)
(-0.0142611 -0.00129995 0)
(-0.013802 -0.00131742 0)
(-0.0133371 -0.00133263 0)
(-0.0128673 -0.00134554 0)
(-0.0123933 -0.00135608 0)
(-0.0119161 -0.00136421 0)
(-0.0114364 -0.00136985 0)
(-0.0109551 -0.00137298 0)
(-0.0104731 -0.00137353 0)
(-0.00999131 -0.00137148 0)
(-0.00951061 -0.00136676 0)
(-0.00903193 -0.00135936 0)
(-0.0085562 -0.00134924 0)
(-0.00808437 -0.00133636 0)
(-0.00761738 -0.00132071 0)
(-0.00715618 -0.00130226 0)
(-0.00670173 -0.001281 0)
(-0.006255 -0.00125693 0)
(-0.00581694 -0.00123004 0)
(-0.0053885 -0.00120033 0)
(-0.00497063 -0.00116782 0)
(-0.00456428 -0.00113254 0)
(-0.00417037 -0.0010945 0)
(-0.00378981 -0.00105376 0)
(-0.00342349 -0.00101036 0)
(-0.00307228 -0.00096438 0)
(-0.00273701 -0.00091589 0)
(-0.00241849 -0.000864994 0)
(-0.00211746 -0.000811812 0)
(-0.00183464 -0.00075649 0)
(-0.00157068 -0.000699197 0)
(-0.00132614 -0.00064014 0)
(-0.00110153 -0.000579562 0)
(-0.000897243 -0.000517753 0)
(-0.000713581 -0.00045506 0)
(-0.000550706 -0.000391895 0)
(-0.000408635 -0.000328753 0)
(-0.000287213 -0.000266225 0)
(-0.000186087 -0.000205022 0)
(-0.000104674 -0.000146001 0)
(-4.21297e-05 -9.01889e-05 0)
(2.69299e-06 -3.88244e-05 0)
(3.12809e-05 6.60915e-06 0)
(4.55086e-05 4.43434e-05 0)
(4.76874e-05 7.22895e-05 0)
(4.05819e-05 8.80144e-05 0)
(2.74665e-05 8.87479e-05 0)
(1.2825e-05 7.14085e-05 0)
(2.89934e-06 3.24424e-05 0)
(2.22811e-06 -3.78192e-05 0)
(8.63138e-06 -7.89434e-05 0)
(1.57421e-05 -9.20346e-05 0)
(1.78337e-05 -8.21698e-05 0)
(1.05856e-05 -5.3497e-05 0)
(-9.26425e-06 -9.62194e-06 0)
(-4.44393e-05 4.63421e-05 0)
(-9.71915e-05 0.000111741 0)
(-0.000169332 0.000184328 0)
(-0.000262278 0.000262213 0)
(-0.000377101 0.000343811 0)
(-0.000514563 0.000427797 0)
(-0.000675155 0.00051307 0)
(-0.000859128 0.000598708 0)
(-0.00106653 0.000683948 0)
(-0.00129722 0.000768152 0)
(-0.00155091 0.000850792 0)
(-0.00182718 0.000931428 0)
(-0.00212548 0.0010097 0)
(-0.00244518 0.00108529 0)
(-0.00278556 0.00115797 0)
(-0.00314583 0.00122753 0)
(-0.00352514 0.0012938 0)
(-0.00392258 0.00135665 0)
(-0.00433723 0.00141598 0)
(-0.00476811 0.0014717 0)
(-0.00521421 0.00152375 0)
(-0.00567452 0.0015721 0)
(-0.006148 0.0016167 0)
(-0.00663361 0.00165756 0)
(-0.00713028 0.00169466 0)
(-0.00763696 0.001728 0)
(-0.00815259 0.00175762 0)
(-0.00867612 0.00178353 0)
(-0.00920647 0.00180576 0)
(-0.00974262 0.00182435 0)
(-0.0102835 0.00183933 0)
(-0.0108281 0.00185077 0)
(-0.0113755 0.0018587 0)
(-0.0119245 0.00186318 0)
(-0.0124742 0.00186427 0)
(-0.0130237 0.00186203 0)
(-0.0135719 0.00185652 0)
(-0.014118 0.00184781 0)
(-0.0146609 0.00183596 0)
(-0.0151999 0.00182104 0)
(-0.015734 0.00180313 0)
(-0.0162624 0.00178229 0)
(-0.0167841 0.00175859 0)
(-0.0172984 0.00173212 0)
(-0.0178046 0.00170295 0)
(-0.0183017 0.00167115 0)
(-0.018789 0.0016368 0)
(-0.0192658 0.00159998 0)
(-0.0197314 0.00156076 0)
(-0.0201851 0.00151923 0)
(-0.0206263 0.00147546 0)
(-0.0210541 0.00142954 0)
(-0.0214682 0.00138155 0)
(-0.0218678 0.00133156 0)
(-0.0222523 0.00127966 0)
(-0.0226213 0.00122593 0)
(-0.0229742 0.00117045 0)
(-0.0233104 0.00111331 0)
(-0.0236296 0.0010546 0)
(-0.0239313 0.000994388 0)
(-0.0242149 0.000932769 0)
(-0.0244803 0.000869827 0)
(-0.0247268 0.000805648 0)
(-0.0249543 0.000740319 0)
(-0.0251624 0.000673928 0)
(-0.0253507 0.000606563 0)
(-0.025519 0.000538312 0)
(-0.0256672 0.000469266 0)
(-0.0257948 0.000399515 0)
(-0.0259018 0.00032915 0)
(-0.025988 0.000258262 0)
(-0.0260532 0.000186944 0)
(-0.0260974 0.00011529 0)
(-0.0261204 4.33929e-05 0)
(-0.0261222 -2.86515e-05 0)
(-0.0261028 -0.000100748 0)
(-0.0260621 -0.0001728 0)
(-0.0260003 -0.000244711 0)
(-0.0259173 -0.000316383 0)