/*--------------------------------*- C++ -*----------------------------------*\
  =========                 |
  \\      /  F ield         | OpenFOAM: The Open Source CFD Toolbox
   \\    /   O peration     | Website:  https://openfoam.org
    \\  /    A nd           | Version:  7
     \\/     M anipulation  |
\*---------------------------------------------------------------------------*/
FoamFile
{
    version     2.0;
    format      ascii;
    class       volScalarField;
    location    "0.475";
    object      p;
}
// * * * * * * * * * * * * * * * * * * * * * * * * * * * * * * * * * * * * * //

dimensions      [0 2 -2 0 0 0 0];

internalField   nonuniform List<scalar> 
25600
(
1.901e-06
0.000115062
0.000144149
3.60496e-05
-0.000217288
-0.000611735
-0.0011362
-0.00177619
-0.00251634
-0.00334142
-0.00423689
-0.00518912
-0.00618551
-0.00721443
-0.00826518
-0.0093279
-0.0103936
-0.0114539
-0.0125013
-0.013529
-0.0145304
-0.0154999
-0.0164322
-0.0173224
-0.0181663
-0.0189598
-0.0196993
-0.0203817
-0.0210041
-0.0215639
-0.0220588
-0.0224868
-0.0228461
-0.0231353
-0.0233531
-0.0234984
-0.0235704
-0.0235685
-0.0234921
-0.0233409
-0.0231149
-0.0228141
-0.0224387
-0.0219889
-0.0214653
-0.0208684
-0.0201989
-0.0194577
-0.0186457
-0.017764
-0.0168137
-0.015796
-0.0147124
-0.0135642
-0.0123529
-0.0110802
-0.00974767
-0.00835716
-0.00691048
-0.0054095
-0.00385621
-0.00225261
-0.000600801
0.00109707
0.00283881
0.00462217
0.00644482
0.00830442
0.0101986
0.0121248
0.0140807
0.0160637
0.0180711
0.0201005
0.0221492
0.0242146
0.0262939
0.0283844
0.0304835
0.0325883
0.0346961
0.0368041
0.0389095
0.0410095
0.0431013
0.0451821
0.047249
0.0492993
0.0513302
0.0533389
0.0553226
0.0572786
0.0592041
0.0610964
0.0629529
0.0647709
0.0665478
0.0682811
0.0699683
0.0716069
0.0731945
0.0747287
0.0762074
0.0776284
0.0789894
0.0802885
0.0815238
0.0826933
0.0837954
0.0848283
0.0857907
0.0866809
0.0874978
0.0882402
0.088907
0.0894973
0.0900105
0.0904459
0.0908031
0.0910819
0.0912821
0.0914039
0.0914475
0.0914135
0.0913025
0.0911154
0.0908535
0.090518
0.0901106
0.0896332
0.0890879
0.088477
0.0878034
0.08707
0.0862802
0.0854375
0.0845462
0.0836105
0.0826353
0.0816259
0.0805878
0.0795273
0.078451
0.0773663
0.0762809
0.0752032
0.0741426
0.0731088
0.0721126
0.0711654
0.0702796
0.0694685
0.0687459
0.0681263
0.0676241
0.0672525
0.0670207
0.0669304
0.0669704
0.0670854
-0.000108323
3.63512e-06
7.92488e-06
-0.000112887
-0.000354919
-0.000716476
-0.0011909
-0.0017677
-0.00243496
-0.00318039
-0.00399175
-0.00485717
-0.00576544
-0.00670601
-0.00766906
-0.00864542
-0.00962663
-0.0106048
-0.0115728
-0.0125239
-0.013452
-0.0143515
-0.0152172
-0.0160446
-0.0168291
-0.017567
-0.0182548
-0.0188892
-0.0194673
-0.0199866
-0.0204447
-0.0208397
-0.0211698
-0.0214334
-0.0216292
-0.0217561
-0.0218132
-0.0217998
-0.0217155
-0.0215597
-0.0213324
-0.0210335
-0.0206631
-0.0202215
-0.0197091
-0.0191263
-0.0184739
-0.0177526
-0.0169632
-0.0161067
-0.0151843
-0.014197
-0.0131462
-0.0120331
-0.0108594
-0.00962634
-0.00833569
-0.00698909
-0.00558828
-0.00413509
-0.00263141
-0.00107917
0.000519611
0.00216287
0.00384848
0.00557428
0.00733804
0.00913748
0.0109703
0.0128341
0.0147265
0.016645
0.0185873
0.0205506
0.0225327
0.0245307
0.0265422
0.0285645
0.030595
0.0326311
0.0346699
0.0367089
0.0387454
0.0407766
0.0427997
0.0448122
0.0468113
0.0487942
0.0507583
0.0527009
0.0546193
0.0565108
0.0583729
0.0602029
0.0619982
0.0637564
0.0654748
0.0671511
0.0687829
0.0703678
0.0719034
0.0733876
0.0748183
0.0761932
0.0775104
0.078768
0.079964
0.0810968
0.0821647
0.0831661
0.0840997
0.0849639
0.0857578
0.0864801
0.0871299
0.0877064
0.0882089
0.088637
0.0889902
0.0892685
0.0894716
0.0895999
0.0896537
0.0896335
0.08954
0.0893742
0.0891372
0.0888305
0.0884558
0.0880148
0.0875097
0.0869429
0.0863172
0.0856354
0.084901
0.0841175
0.0832888
0.0824193
0.0815137
0.080577
0.0796148
0.078633
0.0776381
0.0766369
0.0756369
0.0746461
0.0736732
0.0727272
0.0718179
0.0709558
0.0701518
0.0694173
0.0687641
0.0682036
0.067747
0.0674037
0.0671789
0.0670726
0.0670864
0.0672013
-0.000136793
-2.66765e-07
4.02301e-06
-0.000118091
-0.000350146
-0.000689163
-0.00112969
-0.00166291
-0.00227876
-0.00296677
-0.00371634
-0.004517
-0.00535863
-0.00623164
-0.00712693
-0.00803601
-0.00895091
-0.00986421
-0.010769
-0.011659
-0.0125282
-0.0133713
-0.0141833
-0.0149595
-0.0156958
-0.0163884
-0.0170337
-0.0176287
-0.0181704
-0.0186564
-0.0190842
-0.0194519
-0.0197577
-0.02
-0.0201776
-0.0202891
-0.0203339
-0.020311
-0.0202199
-0.0200602
-0.0198318
-0.0195344
-0.0191683
-0.0187335
-0.0182304
-0.0176595
-0.0170214
-0.0163167
-0.0155463
-0.014711
-0.013812
-0.0128502
-0.011827
-0.0107435
-0.00960128
-0.00840168
-0.00714625
-0.00583662
-0.00447446
-0.00306154
-0.00159967
-9.07249e-05
0.00146335
0.00306055
0.00469883
0.00637609
0.00809016
0.00983885
0.0116199
0.013431
0.0152699
0.0171341
0.0190213
0.020929
0.0228547
0.024796
0.0267503
0.0287151
0.0306878
0.0326659
0.0346466
0.0366275
0.0386058
0.040579
0.0425443
0.0444993
0.0464412
0.0483674
0.0502753
0.0521622
0.0540257
0.055863
0.0576718
0.0594493
0.0611933
0.0629011
0.0645705
0.0661989
0.0677842
0.069324
0.0708161
0.0722583
0.0736486
0.074985
0.0762655
0.0774883
0.0786515
0.0797536
0.0807929
0.081768
0.0826775
0.0835201
0.0842946
0.0850002
0.0856358
0.0862008
0.0866945
0.0871165
0.0874664
0.0877442
0.0879498
0.0880835
0.0881457
0.0881368
0.0880578
0.0879095
0.0876932
0.0874102
0.0870623
0.0866512
0.0861792
0.0856486
0.085062
0.0844224
0.0837331
0.0829976
0.0822197
0.0814038
0.0805542
0.079676
0.0787746
0.0778555
0.0769251
0.0759899
0.0750569
0.0741337
0.0732285
0.0723496
0.0715062
0.0707076
0.0699637
0.0692846
0.0686805
0.0681611
0.0677357
0.0674121
0.0671949
0.0670859
0.0671003
0.0672422
-2.90117e-05
0.000120822
0.000126682
4.58794e-06
-0.000221574
-0.000546781
-0.000965403
-0.00146921
-0.00204915
-0.0026958
-0.00339971
-0.00415148
-0.00494193
-0.00576226
-0.00660406
-0.00745941
-0.00832085
-0.0091814
-0.0100345
-0.0108741
-0.0116945
-0.0124906
-0.0132575
-0.0139908
-0.0146864
-0.0153405
-0.0159499
-0.0165112
-0.0170219
-0.0174792
-0.017881
-0.0182253
-0.0185102
-0.0187342
-0.0188959
-0.0189942
-0.0190282
-0.018997
-0.0189001
-0.0187371
-0.0185077
-0.0182117
-0.0178493
-0.0174205
-0.0169256
-0.0163651
-0.0157395
-0.0150495
-0.0142957
-0.0134791
-0.0126007
-0.0116614
-0.0106625
-0.00960513
-0.0084907
-0.00732057
-0.00609623
-0.00481924
-0.00349122
-0.00211386
-0.000688931
0.000781753
0.00229631
0.0038528
0.00544924
0.00708358
0.00875372
0.0104575
0.0121928
0.0139573
0.0157488
0.017565
0.0194035
0.0212619
0.0231379
0.0250291
0.0269328
0.0288468
0.0307684
0.0326952
0.0346246
0.0365541
0.0384811
0.040403
0.0423174
0.0442216
0.046113
0.0479891
0.0498474
0.0516853
0.0535003
0.05529
0.0570517
0.0587831
0.0604818
0.0621454
0.0637716
0.0653579
0.0669023
0.0684025
0.0698563
0.0712616
0.0726166
0.0739192
0.0751675
0.0763597
0.0774943
0.0785694
0.0795837
0.0805357
0.0814241
0.0822478
0.0830055
0.0836964
0.0843196
0.0848745
0.0853605
0.0857771
0.0861241
0.0864015
0.0866092
0.0867475
0.0868168
0.0868178
0.0867512
0.0866179
0.0864193
0.0861566
0.0858317
0.0854462
0.0850023
0.0845024
0.0839491
0.0833453
0.0826941
0.081999
0.0812639
0.0804927
0.0796899
0.0788603
0.0780091
0.0771416
0.0762639
0.0753822
0.0745031
0.073634
0.0727821
0.0719556
0.0711628
0.0704122
0.0697129
0.0690738
0.0685042
0.0680128
0.067608
0.0672971
0.067085
0.0669761
0.0669936
0.0671527
0.000223519
0.000362994
0.000359409
0.000231465
5.17714e-06
-0.000313108
-0.000717451
-0.00120006
-0.0017526
-0.00236657
-0.00303341
-0.00374462
-0.00449187
-0.00526709
-0.00606256
-0.0068709
-0.00768515
-0.00849875
-0.00930554
-0.0100997
-0.010876
-0.0116293
-0.012355
-0.0130489
-0.013707
-0.0143257
-0.0149017
-0.0154319
-0.0159136
-0.0163443
-0.0167218
-0.0170441
-0.0173094
-0.0175162
-0.0176631
-0.0177489
-0.0177728
-0.0177339
-0.0176316
-0.0174654
-0.0172352
-0.0169406
-0.0165817
-0.0161587
-0.0156717
-0.0151212
-0.0145076
-0.0138316
-0.0130939
-0.0122952
-0.0114365
-0.0105189
-0.00954331
-0.00851104
-0.00742333
-0.00628154
-0.00508709
-0.00384148
-0.00254628
-0.00120314
0.000186249
0.00162012
0.00309665
0.00461397
0.00617013
0.00776316
0.00939101
0.0110516
0.0127428
0.0144625
0.0162084
0.0179784
0.01977
0.021581
0.0234092
0.025252
0.0271071
0.0289721
0.0308446
0.0327221
0.0346021
0.0364822
0.0383598
0.0402326
0.0420979
0.0439532
0.0457962
0.0476243
0.0494349
0.0512257
0.0529943
0.0547381
0.0564547
0.0581419
0.0597972
0.0614184
0.0630031
0.0645491
0.0660543
0.0675165
0.0689337
0.0703038
0.0716249
0.0728951
0.0741127
0.0752758
0.0763828
0.0774323
0.0784227
0.0793527
0.080221
0.0810265
0.0817681
0.0824451
0.0830565
0.0836017
0.0840802
0.0844917
0.0848359
0.0851127
0.0853223
0.0854649
0.0855409
0.085551
0.0854959
0.0853767
0.0851946
0.0849508
0.0846472
0.0842855
0.0838678
0.0833964
0.0828739
0.0823031
0.081687
0.0810292
0.0803332
0.0796029
0.0788428
0.0780573
0.0772514
0.0764303
0.0755997
0.0747655
0.0739341
0.0731121
0.0723066
0.0715249
0.0707748
0.0700641
0.0694011
0.0687938
0.0682506
0.0677795
0.0673884
0.0670842
0.0668723
0.0667584
0.0667687
0.0669219
0.000617096
0.000724783
0.000699285
0.000557625
0.000324012
5.32777e-06
-0.000392323
-0.000861561
-0.00139474
-0.00198413
-0.00262194
-0.00330047
-0.00401213
-0.00474955
-0.00550562
-0.00627352
-0.00704677
-0.00781923
-0.0085851
-0.00933895
-0.0100757
-0.0107905
-0.0114791
-0.0121373
-0.0127613
-0.0133476
-0.013893
-0.0143946
-0.0148497
-0.0152559
-0.015611
-0.0159129
-0.0161601
-0.0163509
-0.016484
-0.0165583
-0.0165728
-0.0165267
-0.0164194
-0.0162504
-0.0160194
-0.0157263
-0.0153709
-0.0149534
-0.014474
-0.0139331
-0.0133311
-0.0126685
-0.011946
-0.0111645
-0.0103247
-0.00942763
-0.00847437
-0.00746605
-0.00640389
-0.00528917
-0.00412329
-0.00290768
-0.00164388
-0.000333447
0.00102195
0.00242062
0.00386078
0.00534061
0.00685825
0.00841175
0.00999915
0.0116184
0.0132675
0.0149442
0.0166466
0.0183722
0.020119
0.0218847
0.0236671
0.0254637
0.0272723
0.0290905
0.030916
0.0327464
0.0345792
0.0364121
0.0382426
0.0400682
0.0418867
0.0436955
0.0454921
0.0472743
0.0490395
0.0507854
0.0525096
0.0542097
0.0558834
0.0575283
0.0591423
0.060723
0.0622683
0.0637759
0.0652438
0.06667
0.0680523
0.0693888
0.0706777
0.0719172
0.0731055
0.0742409
0.0753218
0.0763469
0.0773146
0.0782236
0.0790729
0.0798612
0.0805876
0.0812512
0.0818514
0.0823874
0.0828588
0.0832653
0.0836067
0.0838829
0.0840941
0.0842406
0.0843227
0.0843412
0.0842968
0.0841905
0.0840236
0.0837973
0.0835134
0.0831735
0.0827798
0.0823346
0.0818402
0.0812996
0.0807156
0.0800915
0.079431
0.0787378
0.0780159
0.0772699
0.0765045
0.0757245
0.0749355
0.0741429
0.0733527
0.0725713
0.0718052
0.0710611
0.0703462
0.0696678
0.0690333
0.0684501
0.0679258
0.0674676
0.067083
0.0667788
0.0665606
0.0664345
0.0664256
0.0665519
0.00114125
0.00120013
0.00114127
0.000977684
0.000729248
0.000402772
4.33002e-06
-0.000459171
-0.000980723
-0.00155329
-0.00216982
-0.00282328
-0.00350676
-0.00421354
-0.00493707
-0.00567107
-0.00640952
-0.00714669
-0.00787716
-0.00859581
-0.00929785
-0.00997875
-0.0106343
-0.0112607
-0.0118541
-0.0124113
-0.0129292
-0.0134049
-0.0138359
-0.0142197
-0.0145543
-0.0148378
-0.0150684
-0.0152446
-0.0153651
-0.0154288
-0.0154348
-0.0153822
-0.0152704
-0.0150989
-0.0148674
-0.0145757
-0.0142237
-0.0138116
-0.0133394
-0.0128076
-0.0122165
-0.0115666
-0.0108587
-0.0100934
-0.00927149
-0.008394
-0.0074619
-0.00647629
-0.00543834
-0.00434931
-0.00321052
-0.00202337
-0.000789332
0.000490062
0.00181322
0.00317847
0.00458412
0.00602839
0.00750946
0.00902546
0.0105745
0.0121545
0.0137636
0.0153996
0.0170605
0.0187442
0.0204485
0.0221712
0.02391
0.0256629
0.0274273
0.0292012
0.0309821
0.0327678
0.0345559
0.036344
0.0381298
0.0399109
0.041685
0.0434496
0.0452024
0.0469411
0.0486633
0.0503667
0.0520489
0.0537077
0.0553408
0.0569458
0.0585207
0.0600633
0.0615713
0.0630427
0.0644754
0.0658674
0.0672169
0.0685218
0.0697803
0.0709908
0.0721515
0.0732608
0.0743172
0.0753192
0.0762655
0.0771549
0.0779862
0.0787583
0.0794703
0.0801214
0.0807109
0.0812382
0.0817028
0.0821046
0.0824432
0.0827187
0.0829313
0.0830812
0.0831688
0.0831949
0.0831601
0.0830656
0.0829124
0.082702
0.0824359
0.0821159
0.081744
0.0813223
0.0808534
0.0803399
0.0797847
0.0791909
0.078562
0.0779016
0.0772137
0.0765024
0.0757724
0.0750282
0.074275
0.073518
0.0727629
0.0720155
0.0712818
0.0705683
0.0698813
0.0692277
0.0686142
0.0680476
0.0675348
0.0670824
0.0666973
0.0663861
0.0661543
0.0660082
0.0659692
0.0660516
0.00178212
0.00177923
0.00167723
0.00148396
0.00121349
0.000872238
0.000466058
1.28296e-06
-0.000515703
-0.00107852
-0.00168076
-0.00231607
-0.00297814
-0.00366083
-0.00435814
-0.00506428
-0.00577369
-0.00648104
-0.00718127
-0.0078696
-0.00854149
-0.00919271
-0.00981926
-0.0104174
-0.0109837
-0.011515
-0.0120082
-0.0124607
-0.0128699
-0.0132336
-0.0135497
-0.0138164
-0.0140319
-0.0141949
-0.014304
-0.0143581
-0.0143563
-0.0142979
-0.014182
-0.0140084
-0.0137766
-0.0134864
-0.0131378
-0.0127308
-0.0122656
-0.0117425
-0.0111618
-0.010524
-0.00982985
-0.00907992
-0.00827504
-0.00741609
-0.00650405
-0.00553996
-0.00452497
-0.00346027
-0.00234716
-0.00118698
1.88405e-05
0.00126882
0.0025614
0.00389499
0.00526792
0.00667847
0.00812487
0.00960531
0.0111179
0.0126608
0.0142319
0.0158293
0.017451
0.0190949
0.0207588
0.0224407
0.0241384
0.0258497
0.0275724
0.0293042
0.0310429
0.0327863
0.034532
0.0362777
0.0380212
0.0397601
0.0414922
0.0432151
0.0449265
0.0466241
0.0483056
0.0499688
0.0516114
0.0532311
0.0548258
0.0563932
0.0579312
0.0594377
0.0609106
0.0623478
0.0637473
0.0651072
0.0664257
0.0677008
0.0689308
0.0701139
0.0712487
0.0723334
0.0733667
0.074347
0.0752733
0.0761441
0.0769584
0.0777153
0.0784137
0.079053
0.0796324
0.0801514
0.0806097
0.0810068
0.0813427
0.0816174
0.081831
0.0819839
0.0820764
0.0821092
0.0820832
0.0819992
0.0818585
0.0816624
0.0814124
0.0811102
0.0807579
0.0803574
0.0799112
0.0794219
0.0788923
0.0783254
0.0777244
0.077093
0.0764348
0.0757538
0.0750544
0.0743409
0.0736183
0.0728913
0.0721654
0.0714458
0.0707383
0.0700488
0.0693832
0.0687476
0.0681482
0.0675913
0.0670832
0.06663
0.0662378
0.0659129
0.0656606
0.065487
0.0654082
0.0654336
0.00252507
0.00245088
0.00229784
0.00206806
0.00176901
0.00140659
0.000986347
0.000513951
-4.85429e-06
-0.000564305
-0.00115862
-0.00178204
-0.00242885
-0.00309343
-0.00377031
-0.00445416
-0.00513986
-0.00582246
-0.00649728
-0.00715982
-0.00780587
-0.0084314
-0.00903267
-0.00960616
-0.0101486
-0.0106569
-0.0111282
-0.0115599
-0.0119497
-0.0122954
-0.0125949
-0.0128464
-0.0130485
-0.0131995
-0.0132983
-0.0133439
-0.0133352
-0.0132714
-0.0131521
-0.0129767
-0.0127448
-0.0124563
-0.012111
-0.011709
-0.0112505
-0.0107356
-0.0101648
-0.0095386
-0.00885749
-0.00812217
-0.0073334
-0.00649202
-0.00559897
-0.00465528
-0.00366202
-0.00262038
-0.00153159
-0.000396958
0.000782131
0.00200424
0.00326787
0.00457145
0.00591339
0.007292
0.00870556
0.0101523
0.0116304
0.013138
0.0146732
0.0162341
0.0178186
0.0194248
0.0210506
0.0226939
0.0243526
0.0260245
0.0277076
0.0293997
0.0310984
0.0328018
0.0345074
0.036213
0.0379165
0.0396156
0.0413079
0.0429913
0.0446636
0.0463224
0.0479655
0.0495907
0.0511959
0.0527788
0.0543372
0.0558692
0.0573724
0.0588449
0.0602846
0.0616896
0.0630579
0.0643876
0.0656769
0.0669239
0.068127
0.0692845
0.0703949
0.0714565
0.072468
0.073428
0.0743353
0.0751887
0.0759872
0.0767296
0.0774153
0.0780434
0.0786133
0.0791245
0.0795766
0.0799693
0.0803025
0.0805762
0.0807906
0.080946
0.0810428
0.0810816
0.0810633
0.0809888
0.0808592
0.0806759
0.0804403
0.0801541
0.0798191
0.0794375
0.0790116
0.0785437
0.0780367
0.0774934
0.0769169
0.0763107
0.0756782
0.0750233
0.0743501
0.0736626
0.0729655
0.0722634
0.0715612
0.0708639
0.0701768
0.0695053
0.0688549
0.0682311
0.0676397
0.0670864
0.0665768
0.0661165
0.0657112
0.0653663
0.0650872
0.0648794
0.0647529
0.0647115
0.00335587
0.00320355
0.00299334
0.00272137
0.00238802
0.00199873
0.00155874
0.00107301
0.000546632
-1.52286e-05
-0.000607369
-0.0012246
-0.00186175
-0.00251371
-0.00317548
-0.00384219
-0.00450912
-0.00517171
-0.00582561
-0.00646665
-0.00709087
-0.00769453
-0.00827409
-0.00882623
-0.00934785
-0.00983604
-0.0102881
-0.0107016
-0.0110742
-0.0114038
-0.0116885
-0.0119266
-0.0121166
-0.012257
-0.0123467
-0.0123845
-0.0123697
-0.0123014
-0.0121791
-0.0120023
-0.0117705
-0.0114837
-0.0111418
-0.0107446
-0.0102925
-0.0097856
-0.00922429
-0.008609
-0.00794031
-0.00721883
-0.00644532
-0.00562058
-0.00474552
-0.00382112
-0.00284843
-0.0018286
-0.000762815
0.000347648
0.00150145
0.0026972
0.00393344
0.00520866
0.00652127
0.00786967
0.00925217
0.0106671
0.0121126
0.0135868
0.0150881
0.0166144
0.0181637
0.0197343
0.0213239
0.0229307
0.0245526
0.0261874
0.0278331
0.0294875
0.0311486
0.0328141
0.0344818
0.0361497
0.0378154
0.0394768
0.0411317
0.0427779
0.0444132
0.0460354
0.0476423
0.0492318
0.0508017
0.0523499
0.0538743
0.0553728
0.0568433
0.0582839
0.0596925
0.0610672
0.0624061
0.0637074
0.0649693
0.06619
0.0673678
0.0685012
0.0695886
0.0706286
0.0716197
0.0725606
0.0734502
0.0742872
0.0750707
0.0757996
0.0764733
0.0770909
0.0776518
0.0781555
0.0786017
0.0789901
0.0793206
0.0795932
0.0798081
0.0799656
0.080066
0.0801102
0.0800987
0.0800325
0.0799128
0.0797408
0.0795179
0.0792458
0.0789263
0.0785613
0.0781531
0.0777041
0.0772168
0.076694
0.0761387
0.0755541
0.0749436
0.0743108
0.0736595
0.0729937
0.0723175
0.0716354
0.0709519
0.0702717
0.0695996
0.0689406
0.0682998
0.0676823
0.0670932
0.0665377
0.066021
0.0655481
0.0651241
0.0647538
0.0644422
0.0641946
0.064014
0.0638989
0.0042612
0.00402598
0.00375395
0.00343515
0.0030627
0.0026416
0.00217683
0.00167267
0.00113357
0.000564109
-3.10564e-05
-0.000647259
-0.00127985
-0.0019242
-0.00257575
-0.00323006
-0.0038828
-0.00452978
-0.00516696
-0.00579049
-0.00639668
-0.00698204
-0.00754326
-0.00807721
-0.00858098
-0.00905182
-0.00948719
-0.00988473
-0.0102423
-0.0105578
-0.0108295
-0.0110558
-0.0112351
-0.0113661
-0.0114477
-0.0114789
-0.0114587
-0.0113865
-0.0112617
-0.0110838
-0.0108525
-0.0105675
-0.0102288
-0.00983646
-0.0093905
-0.00889121
-0.00833891
-0.00773403
-0.00707711
-0.00636876
-0.00560969
-0.00480069
-0.00394263
-0.00303647
-0.00208322
-0.00108398
-3.99272e-05
0.00104771
0.00217764
0.00334851
0.00455888
0.0058073
0.00709224
0.00841212
0.0097653
0.0111501
0.0125648
0.0140076
0.0154768
0.0169704
0.0184867
0.0200236
0.0215792
0.0231515
0.0247386
0.0263384
0.0279488
0.0295678
0.0311933
0.0328231
0.0344552
0.0360874
0.0377176
0.0393435
0.0409632
0.0425743
0.0441749
0.0457626
0.0473355
0.0488914
0.0504282
0.0519438
0.0534361
0.0549032
0.056343
0.0577536
0.059133
0.0604793
0.0617907
0.0630653
0.0643015
0.0654975
0.0666517
0.0677626
0.0688285
0.0698482
0.0708202
0.0717433
0.0726162
0.0734379
0.0742073
0.0749237
0.075586
0.0761937
0.0767461
0.0772428
0.0776834
0.0780676
0.0783954
0.0786667
0.0788818
0.0790409
0.0791445
0.0791932
0.0791876
0.0791287
0.0790177
0.0788556
0.0786438
0.0783841
0.078078
0.0777275
0.0773348
0.076902
0.0764317
0.0759265
0.0753892
0.074823
0.0742309
0.0736164
0.0729831
0.0723348
0.0716752
0.0710086
0.0703391
0.0696712
0.0690092
0.0683577
0.0677214
0.067105
0.066513
0.0659503
0.0654214
0.0649309
0.0644832
0.0640826
0.0637338
0.0634417
0.0632023
0.0630083
0.00522873
0.00490744
0.00457012
0.00420081
0.00378529
0.00332818
0.00283427
0.00230721
0.00175081
0.00116911
0.000566255
-5.35904e-05
-0.000686244
-0.00132754
-0.00197334
-0.00261961
-0.00326238
-0.00389781
-0.00452218
-0.00513193
-0.00572365
-0.00629408
-0.00684012
-0.00735887
-0.00784757
-0.00830366
-0.00872473
-0.00910856
-0.0094531
-0.00975644
-0.0100169
-0.0102328
-0.0104028
-0.0105257
-0.0106003
-0.0106256
-0.0106009
-0.0105254
-0.0103986
-0.01022
-0.00998933
-0.00970635
-0.00937097
-0.00898323
-0.00854324
-0.00805123
-0.00750752
-0.00691254
-0.00626678
-0.00557085
-0.00482544
-0.0040313
-0.0031893
-0.00230034
-0.00136542
-0.000385617
0.000637948
0.00170407
0.0028115
0.0039589
0.00514491
0.00636808
0.00762693
0.00891993
0.0102455
0.0116019
0.0129876
0.0144008
0.0158398
0.0173027
0.0187877
0.0202929
0.0218164
0.0233564
0.0249107
0.0264775
0.0280548
0.0296404
0.0312324
0.0328287
0.0344273
0.036026
0.0376227
0.0392154
0.0408019
0.0423801
0.043948
0.0455035
0.0470445
0.0485688
0.0500745
0.0515596
0.0530219
0.0544596
0.0558706
0.0572531
0.0586052
0.0599249
0.0612105
0.0624603
0.0636725
0.0648454
0.0659775
0.0670673
0.0681132
0.0691139
0.0700681
0.0709744
0.0718318
0.0726392
0.0733956
0.0741
0.0747518
0.0753502
0.0758946
0.0763846
0.0768198
0.0772
0.0775251
0.0777951
0.0780101
0.0781705
0.0782766
0.078329
0.0783286
0.078276
0.0781723
0.0780188
0.0778167
0.0775676
0.0772731
0.0769351
0.0765555
0.0761366
0.0756807
0.0751903
0.0746681
0.074117
0.0735401
0.0729404
0.0723214
0.0716866
0.0710397
0.0703844
0.0697246
0.0690645
0.068408
0.0677595
0.0671231
0.0665031
0.0659037
0.0653291
0.0647836
0.064271
0.0637953
0.0633602
0.0629702
0.0626298
0.0623281
0.0620518
0.00624717
0.00583786
0.00543278
0.00501009
0.00454826
0.00405163
0.00352485
0.00297097
0.00239325
0.00179521
0.00118049
0.000552812
-8.40912e-05
-0.000726475
-0.00137061
-0.00201282
-0.0026495
-0.00327713
-0.00389232
-0.00449177
-0.00507232
-0.00563095
-0.00616481
-0.00667115
-0.00714743
-0.00759123
-0.0080003
-0.00837255
-0.00870603
-0.00899896
-0.00924971
-0.00945679
-0.00961886
-0.00973473
-0.00980334
-0.00982378
-0.00979525
-0.00971708
-0.00958875
-0.00940984
-0.00918002
-0.00889913
-0.00856707
-0.00818386
-0.00774963
-0.0072646
-0.00672908
-0.00614348
-0.00550829
-0.00482411
-0.00409159
-0.00331148
-0.0024846
-0.00161185
-0.000694199
0.000267322
0.00127161
0.00231749
0.00340375
0.00452908
0.00569217
0.0068916
0.00812593
0.00939365
0.0106932
0.012023
0.0133815
0.0147668
0.0161774
0.0176114
0.019067
0.0205425
0.0220359
0.0235454
0.025069
0.0266048
0.0281509
0.0297053
0.0312659
0.0328307
0.0343978
0.0359651
0.0375305
0.0390919
0.0406474
0.0421949
0.0437322
0.0452575
0.0467685
0.0482634
0.04974
0.0511965
0.0526308
0.054041
0.0554252
0.0567815
0.058108
0.0594029
0.0606646
0.0618911
0.0630809
0.0642324
0.0653439
0.0664141
0.0674413
0.0684244
0.0693619
0.0702528
0.0710957
0.0718897
0.0726339
0.0733273
0.0739692
0.0745588
0.0750958
0.0755794
0.0760095
0.0763858
0.0767082
0.0769767
0.0771914
0.0773526
0.0774608
0.0775164
0.0775201
0.0774728
0.0773755
0.0772293
0.0770354
0.0767954
0.0765107
0.0761832
0.0758147
0.0754074
0.0749634
0.0744852
0.0739752
0.0734363
0.0728713
0.0722831
0.071675
0.0710502
0.0704121
0.0697643
0.0691103
0.0684539
0.0677989
0.0671491
0.0665084
0.0658806
0.0652695
0.064679
0.0641127
0.0635742
0.0630668
0.0625936
0.0621591
0.0617675
0.0614008
0.0610403
0.00730615
0.00680784
0.00633336
0.00585509
0.00534437
0.00480532
0.00424251
0.00365845
0.00305589
0.00243787
0.00180759
0.00116833
0.00052341
-0.000123811
-0.000769985
-0.00141178
-0.00204594
-0.00266924
-0.00327858
-0.00387094
-0.0044434
-0.00499319
-0.00551763
-0.00601422
-0.00648055
-0.00691439
-0.00731362
-0.0076763
-0.00800058
-0.00828481
-0.00852744
-0.00872707
-0.00888245
-0.00899245
-0.00905606
-0.00907242
-0.00904079
-0.00896055
-0.00883117
-0.00865227
-0.00842356
-0.00814488
-0.00781614
-0.00743737
-0.0070087
-0.00653034
-0.00600262
-0.00542592
-0.00480074
-0.00412763
-0.00340727
-0.00264036
-0.00182771
-0.000970194
-6.87586e-05
0.000875588
0.00186177
0.00288865
0.00395504
0.00505968
0.00620126
0.00737841
0.00858973
0.00983376
0.011109
0.0124138
0.0137467
0.0151059
0.0164898
0.0178968
0.0193249
0.0207725
0.0222376
0.0237186
0.0252134
0.0267203
0.0282372
0.0297623
0.0312935
0.032829
0.0343666
0.0359045
0.0374406
0.0389729
0.0404994
0.0420181
0.0435269
0.0450239
0.0465071
0.0479744
0.049424
0.0508539
0.0522621
0.0536467
0.0550059
0.0563378
0.0576405
0.0589124
0.0601517
0.0613567
0.0625258
0.0636573
0.0647497
0.0658017
0.0668116
0.0677783
0.0687005
0.0695769
0.0704064
0.0711881
0.0719209
0.072604
0.0732367
0.0738182
0.0743481
0.0748258
0.0752511
0.0756236
0.0759433
0.0762102
0.0764243
0.076586
0.0766957
0.0767538
0.076761
0.0767181
0.0766261
0.0764859
0.0762989
0.0760663
0.0757898
0.075471
0.0751116
0.0747137
0.0742793
0.0738108
0.0733105
0.072781
0.072225
0.0716453
0.0710448
0.0704266
0.0697939
0.0691499
0.0684981
0.0678417
0.0671843
0.0665295
0.0658806
0.0652412
0.0646148
0.0640046
0.0634141
0.0628462
0.062304
0.0617898
0.0613082
0.060863
0.0604296
0.0599836
0.0083963
0.00780869
0.0072638
0.00672836
0.00616672
0.00558289
0.0049814
0.0043643
0.00373384
0.00309266
0.00244353
0.00178934
0.00113303
0.000477593
-0.000173979
-0.000818688
-0.00145357
-0.00207572
-0.0026823
-0.00327053
-0.00383777
-0.00438143
-0.00489908
-0.00538836
-0.00584708
-0.00627314
-0.00666458
-0.00701958
-0.00733643
-0.00761357
-0.00784955
-0.00804308
-0.00819297
-0.00829815
-0.00835771
-0.00837081
-0.00833677
-0.008255
-0.00812502
-0.00794647
-0.00771909
-0.00744272
-0.0071173
-0.00674288
-0.00631957
-0.00584761
-0.00532729
-0.00475902
-0.00414328
-0.00348061
-0.00277167
-0.00201716
-0.00121787
-0.000374639
0.000511597
0.00143986
0.00240909
0.00341818
0.00446597
0.00555124
0.0066727
0.00782902
0.00901882
0.0102407
0.0114931
0.0127746
0.0140835
0.0154184
0.0167774
0.018159
0.0195615
0.020983
0.0224218
0.0238761
0.0253441
0.0268239
0.0283136
0.0298113
0.0313151
0.0328231
0.0343334
0.0358439
0.0373527
0.0388578
0.0403573
0.0418492
0.0433315
0.0448023
0.0462595
0.0477014
0.0491258
0.0505309
0.0519149
0.0532758
0.0546118
0.0559211
0.0572019
0.0584524
0.0596711
0.0608561
0.0620059
0.063119
0.0641938
0.0652289
0.0662229
0.0671745
0.0680824
0.0689455
0.0697627
0.0705329
0.0712552
0.0719288
0.072553
0.073127
0.0736502
0.0741224
0.074543
0.074912
0.075229
0.0754942
0.0757076
0.0758695
0.0759802
0.0760402
0.0760502
0.0760108
0.075923
0.0757878
0.0756063
0.0753798
0.0751098
0.0747979
0.0744457
0.0740552
0.0736283
0.0731672
0.0726741
0.0721514
0.0716017
0.0710275
0.0704316
0.069817
0.0691865
0.0685431
0.06789
0.0672303
0.0665671
0.0659037
0.0652432
0.0645889
0.0639437
0.0633107
0.0626928
0.0620927
0.0615128
0.0609553
0.0604244
0.0599241
0.0594228
0.0588907
0.0095091
0.0088324
0.00821659
0.00762287
0.00700877
0.00637824
0.00573589
0.00508332
0.00442234
0.00375522
0.00308436
0.00241227
0.00174155
0.00107485
0.000414844
-0.000235786
-0.000874368
-0.00149827
-0.00210491
-0.00269177
-0.00325642
-0.0037965
-0.00430976
-0.00479405
-0.00524732
-0.00566765
-0.00605321
-0.00640232
-0.00671339
-0.00698497
-0.00721571
-0.00740439
-0.00754992
-0.00765132
-0.0077077
-0.00771832
-0.00768251
-0.00759975
-0.00746959
-0.0072917
-0.00706585
-0.0067919
-0.00646981
-0.00609963
-0.00568149
-0.00521562
-0.00470234
-0.00414203
-0.00353518
-0.00288233
-0.00218411
-0.00144121
-0.000654408
0.000175461
0.00104749
0.00196073
0.00291413
0.00390663
0.00493707
0.00600426
0.00710696
0.00824385
0.00941359
0.0106148
0.011846
0.0131057
0.0143924
0.0157044
0.0170403
0.0183984
0.0197769
0.0211741
0.0225884
0.0240179
0.0254609
0.0269155
0.0283799
0.0298522
0.0313306
0.0328131
0.0342979
0.0357829
0.0372664
0.0387464
0.0402208
0.0416879
0.0431456
0.0445921
0.0460253
0.0474435
0.0488447
0.050227
0.0515885
0.0529275
0.0542421
0.0555305
0.0567911
0.058022
0.0592216
0.0603883
0.0615204
0.0626165
0.0636751
0.0646948
0.0656741
0.0666118
0.0675067
0.0683575
0.0691633
0.069923
0.0706357
0.0713006
0.0719168
0.0724838
0.073001
0.0734679
0.0738842
0.0742497
0.0745641
0.0748276
0.07504
0.0752018
0.0753131
0.0753745
0.0753865
0.0753499
0.0752654
0.075134
0.0749568
0.0747351
0.0744702
0.0741636
0.0738169
0.0734318
0.0730103
0.0725544
0.0720662
0.0715479
0.0710019
0.0704306
0.0698366
0.0692227
0.0685914
0.0679456
0.0672882
0.066622
0.0659499
0.0652748
0.0645997
0.0639273
0.0632604
0.0626018
0.0619538
0.061319
0.0606992
0.0600962
0.0595145
0.0589578
0.0583881
0.05777
0.0106368
0.00987159
0.00918475
0.00853204
0.00786434
0.00718563
0.00650062
0.00581052
0.00511679
0.00442133
0.0037262
0.00303359
0.00234577
0.00166508
0.000993895
0.000334618
-0.000310361
-0.000938667
-0.00154797
-0.00213597
-0.00270047
-0.00323931
-0.00375043
-0.00423185
-0.00468171
-0.00509822
-0.0054797
-0.00582459
-0.00613144
-0.00639888
-0.00662569
-0.00681073
-0.00695298
-0.00705154
-0.00710559
-0.00711444
-0.00707749
-0.00699424
-0.0068643
-0.00668736
-0.00646323
-0.00619178
-0.005873
-0.00550696
-0.00509379
-0.00463373
-0.00412711
-0.00357431
-0.00297581
-0.00233214
-0.00164394
-0.000911891
-0.000136743
0.000680679
0.00153949
0.00243874
0.00337742
0.00435448
0.00536879
0.00641919
0.00750445
0.00862329
0.00977439
0.0109564
0.0121679
0.0134074
0.0146734
0.0159643
0.0172787
0.0186149
0.0199712
0.0213459
0.0227375
0.024144
0.0255638
0.0269951
0.028436
0.0298848
0.0313396
0.0327986
0.0342598
0.0357214
0.0371815
0.0386381
0.0400895
0.0415336
0.0429687
0.0443927
0.0458039
0.0472003
0.04858
0.0499413
0.0512823
0.0526011
0.0538961
0.0551654
0.0564073
0.0576202
0.0588024
0.0599522
0.0610682
0.0621488
0.0631926
0.0641981
0.065164
0.0660891
0.066972
0.0678117
0.0686071
0.0693572
0.0700611
0.070718
0.071327
0.0718876
0.0723992
0.0728613
0.0732735
0.0736357
0.0739476
0.0742092
0.0744206
0.074582
0.0746935
0.0747558
0.0747692
0.0747345
0.0746525
0.0745239
0.07435
0.0741317
0.0738705
0.0735676
0.0732247
0.0728434
0.0724254
0.0719727
0.0714872
0.070971
0.0704263
0.0698555
0.0692609
0.068645
0.0680102
0.0673592
0.0666947
0.0660192
0.0653353
0.0646458
0.0639532
0.0632601
0.0625689
0.0618821
0.0612018
0.06053
0.0598685
0.0592186
0.0585847
0.0579708
0.0573324
0.0566288
0.0117724
0.0109195
0.0101618
0.00944971
0.00872761
0.00799956
0.00727044
0.00654113
0.00581273
0.00508685
0.00436525
0.00364981
0.0029425
0.00224539
0.00156057
0.000890187
0.000236366
-0.000398758
-0.00101308
-0.00160454
-0.00217113
-0.00271089
-0.00322194
-0.00370249
-0.00415081
-0.00456527
-0.00494435
-0.00528659
-0.00559066
-0.00585532
-0.00607942
-0.00626194
-0.00640192
-0.00649853
-0.00655104
-0.00655881
-0.00652128
-0.00643802
-0.00630866
-0.00613294
-0.00591069
-0.00564182
-0.00532633
-0.0049643
-0.0045559
-0.00410137
-0.00360103
-0.00305528
-0.00246459
-0.00182951
-0.00115064
-0.000428678
0.000335645
0.00114151
0.00198806
0.00287435