/*--------------------------------*- C++ -*----------------------------------*\
  =========                 |
  \\      /  F ield         | OpenFOAM: The Open Source CFD Toolbox
   \\    /   O peration     | Website:  https://openfoam.org
    \\  /    A nd           | Version:  7
     \\/     M anipulation  |
\*---------------------------------------------------------------------------*/
FoamFile
{
    version     2.0;
    format      ascii;
    class       surfaceScalarField;
    location    "0.475";
    object      phi;
}
// * * * * * * * * * * * * * * * * * * * * * * * * * * * * * * * * * * * * * //

dimensions      [0 3 -1 0 0 0 0];

internalField   nonuniform List<scalar> 
50880
(
5.97661e-12
-6.24934e-12
3.62023e-11
-3.02274e-11
8.11162e-11
-4.49072e-11
1.30776e-10
-4.96534e-11
1.78038e-10
-4.72665e-11
2.17927e-10
-3.98997e-11
2.4702e-10
-2.90979e-11
2.63005e-10
-1.59823e-11
2.64351e-10
-1.34393e-12
2.50088e-10
1.426e-11
2.19658e-10
3.04265e-11
1.72801e-10
4.68554e-11
1.0948e-10
6.3321e-11
2.98267e-11
7.9653e-11
-6.58961e-11
9.57217e-11
-1.77325e-10
1.11427e-10
-3.04017e-10
1.26691e-10
-4.45468e-10
1.41452e-10
-6.01129e-10
1.55662e-10
-7.70414e-10
1.69285e-10
-9.52707e-10
1.82293e-10
-1.14737e-09
1.94665e-10
-1.35376e-09
2.06385e-10
-1.5712e-09
2.17443e-10
-1.79903e-09
2.27831e-10
-2.03657e-09
2.37543e-10
-2.28316e-09
2.46581e-10
-2.5381e-09
2.54943e-10
-2.80073e-09
2.62633e-10
-3.07039e-09
2.69654e-10
-3.3464e-09
2.76013e-10
-3.62811e-09
2.81714e-10
-3.91488e-09
2.86767e-10
-4.20606e-09
2.91179e-10
-4.50102e-09
2.94959e-10
-4.79913e-09
2.98117e-10
-5.09979e-09
3.00664e-10
-5.4024e-09
3.02609e-10
-5.70637e-09
3.03964e-10
-6.0111e-09
3.0474e-10
-6.31605e-09
3.04949e-10
-6.62066e-09
3.04603e-10
-6.92437e-09
3.03714e-10
-7.22666e-09
3.02294e-10
-7.52702e-09
3.00356e-10
-7.82493e-09
2.97912e-10
-8.11991e-09
2.94975e-10
-8.41146e-09
2.91557e-10
-8.69914e-09
2.87672e-10
-8.98247e-09
2.83332e-10
-9.26102e-09
2.78551e-10
-9.53436e-09
2.73341e-10
-9.80208e-09
2.67715e-10
-1.00638e-08
2.61687e-10
-1.0319e-08
2.55269e-10
-1.05675e-08
2.48474e-10
-1.08088e-08
2.41317e-10
-1.10426e-08
2.3381e-10
-1.12686e-08
2.25966e-10
-1.14864e-08
2.17798e-10
-1.16957e-08
2.09321e-10
-1.18963e-08
2.00547e-10
-1.20878e-08
1.9149e-10
-1.22699e-08
1.82163e-10
-1.24425e-08
1.72579e-10
-1.26053e-08
1.62753e-10
-1.2758e-08
1.52698e-10
-1.29004e-08
1.42427e-10
-1.30323e-08
1.31955e-10
-1.31536e-08
1.21296e-10
-1.32641e-08
1.10463e-10
-1.33636e-08
9.94709e-11
-1.34519e-08
8.83333e-11
-1.3529e-08
7.70649e-11
-1.35947e-08
6.56802e-11
-1.36488e-08
5.41936e-11
-1.36915e-08
4.26199e-11
-1.37224e-08
3.0974e-11
-1.37417e-08
1.92708e-11
-1.37492e-08
7.52536e-12
-1.3745e-08
-4.24704e-12
-1.3729e-08
-1.6031e-11
-1.37011e-08
-2.7811e-11
-1.36616e-08
-3.95713e-11
-1.36103e-08
-5.12962e-11
-1.35473e-08
-6.29697e-11
-1.34727e-08
-7.45757e-11
-1.33866e-08
-8.6098e-11
-1.32891e-08
-9.75202e-11
-1.31803e-08
-1.08826e-10
-1.30603e-08
-1.19998e-10
-1.29293e-08
-1.31021e-10
-1.27874e-08
-1.41877e-10
-1.26348e-08
-1.5255e-10
-1.24718e-08
-1.63022e-10
-1.22985e-08
-1.73277e-10
-1.21152e-08
-1.83298e-10
-1.19222e-08
-1.93067e-10
-1.17196e-08
-2.02567e-10
-1.15078e-08
-2.11782e-10
-1.12871e-08
-2.20694e-10
-1.10578e-08
-2.29286e-10
-1.08203e-08
-2.37541e-10
-1.05749e-08
-2.45443e-10
-1.03219e-08
-2.52974e-10
-1.00618e-08
-2.60118e-10
-9.79491e-09
-2.66858e-10
-9.52174e-09
-2.73178e-10
-9.24267e-09
-2.79061e-10
-8.95818e-09
-2.84492e-10
-8.66873e-09
-2.89456e-10
-8.37479e-09
-2.93936e-10
-8.07687e-09
-2.97917e-10
-7.77549e-09
-3.01386e-10
-7.47116e-09
-3.04327e-10
-7.16443e-09
-3.06726e-10
-6.85586e-09
-3.08571e-10
-6.54602e-09
-3.09847e-10
-6.23547e-09
-3.10542e-10
-5.92483e-09
-3.10645e-10
-5.61468e-09
-3.10143e-10
-5.30566e-09
-3.09027e-10
-4.99837e-09
-3.07285e-10
-4.69346e-09
-3.04909e-10
-4.39157e-09
-3.0189e-10
-4.09335e-09
-2.9822e-10
-3.79946e-09
-2.93892e-10
-3.51056e-09
-2.88901e-10
-3.22732e-09
-2.8324e-10
-2.95041e-09
-2.76908e-10
-2.68051e-09
-2.699e-10
-2.4183e-09
-2.62217e-10
-2.16444e-09
-2.53857e-10
-1.91962e-09
-2.44824e-10
-1.6845e-09
-2.35122e-10
-1.45974e-09
-2.24756e-10
-1.24601e-09
-2.13735e-10
-1.04393e-09
-2.02071e-10
-8.54156e-10
-1.89779e-10
-6.7728e-10
-1.76877e-10
-5.13892e-10
-1.63389e-10
-3.64549e-10
-1.49344e-10
-2.29772e-10
-1.34778e-10
-1.10036e-10
-1.19737e-10
-5.76213e-12
-1.04275e-10
8.26991e-11
-8.84609e-11
1.55082e-10
-7.23828e-11
2.1123e-10
-5.61484e-11
2.51121e-10
-3.9894e-11
2.74914e-10
-2.37956e-11
2.82997e-10
-8.08401e-12
2.76062e-10
6.93564e-12
2.55205e-10
2.08559e-11
2.22081e-10
3.31213e-11
1.79127e-10
4.29543e-11
1.29877e-10
4.9259e-11
7.93592e-11
5.05288e-11
3.46357e-11
4.47121e-11
5.3458e-12
2.92419e-11
5.292e-12
3.00834e-11
-3.63311e-11
1.01228e-10
-1.01385e-10
1.95504e-10
-1.39194e-10
2.95862e-10
-1.50005e-10
3.87938e-10
-1.39331e-10
4.60482e-10
-1.12443e-10
5.05033e-10
-7.36586e-11
5.15411e-10
-2.63658e-11
4.87223e-10
2.68454e-11
4.17463e-10
8.40221e-11
3.04205e-10
1.43682e-10
1.46366e-10
2.04692e-10
-5.64894e-11
2.66174e-10
-3.04284e-10
3.27448e-10
-5.96542e-10
3.8798e-10
-9.32466e-10
4.4735e-10
-1.31101e-09
5.05231e-10
-1.73092e-09
5.61359e-10
-2.19078e-09
6.15526e-10
-2.68906e-09
6.67569e-10
-3.22413e-09
7.1736e-10
-3.79426e-09
7.648e-10
-4.39769e-09
8.09813e-10
-5.03259e-09
8.52343e-10
-5.69711e-09
8.9235e-10
-6.38938e-09
9.29806e-10
-7.10749e-09
9.64696e-10
-7.84956e-09
9.97014e-10
-8.61369e-09
1.02676e-09
-9.39799e-09
1.05395e-09
-1.02006e-08
1.07859e-09
-1.10196e-08
1.10071e-09
-1.18531e-08
1.12032e-09
-1.26994e-08
1.13746e-09
-1.35566e-08
1.15216e-09
-1.44229e-08
1.16445e-09
-1.52966e-08
1.17437e-09
-1.6176e-08
1.18196e-09
-1.70593e-08
1.18725e-09
-1.79448e-08
1.1903e-09
-1.8831e-08
1.19113e-09
-1.97162e-08
1.18981e-09
-2.05989e-08
1.18637e-09
-2.14774e-08
1.18085e-09
-2.23504e-08
1.17332e-09
-2.32163e-08
1.16381e-09
-2.40737e-08
1.15237e-09
-2.49212e-08
1.13905e-09
-2.57574e-08
1.12391e-09
-2.65811e-08
1.10699e-09
-2.73908e-08
1.08833e-09
-2.81855e-08
1.068e-09
-2.89638e-08
1.04605e-09
-2.97247e-08
1.02251e-09
-3.04669e-08
9.97454e-10
-3.11893e-08
9.70919e-10
-3.1891e-08
9.42962e-10
-3.25708e-08
9.13633e-10
-3.32278e-08
8.82985e-10
-3.38611e-08
8.51069e-10
-3.44697e-08
8.17938e-10
-3.50528e-08
7.83643e-10
-3.56095e-08
7.48239e-10
-3.61392e-08
7.11777e-10
-3.66409e-08
6.7431e-10
-3.7114e-08
6.35893e-10
-3.75579e-08
5.96578e-10
-3.79719e-08
5.5642e-10
-3.83554e-08
5.15474e-10
-3.87079e-08
4.73793e-10
-3.90289e-08
4.31434e-10
-3.93179e-08
3.88451e-10
-3.95744e-08
3.44901e-10
-3.97982e-08
3.00841e-10
-3.99889e-08
2.56326e-10
-4.01461e-08
2.11414e-10
-4.02696e-08
1.66163e-10
-4.03593e-08
1.20632e-10
-4.04149e-08
7.48792e-11
-4.04363e-08
2.89638e-11
-4.04235e-08
-1.7054e-11
-4.03764e-08
-6.31139e-11
-4.02951e-08
-1.09155e-10
-4.01796e-08
-1.55115e-10
-4.00299e-08
-2.00933e-10
-3.98463e-08
-2.46546e-10
-3.9629e-08
-2.91891e-10
-3.93782e-08
-3.36904e-10
-3.90942e-08
-3.81521e-10
-3.87774e-08
-4.25678e-10
-3.8428e-08
-4.6931e-10
-3.80467e-08
-5.12352e-10
-3.76339e-08
-5.54738e-10
-3.719e-08
-5.96403e-10
-3.67157e-08
-6.3728e-10
-3.62117e-08
-6.77302e-10
-3.56786e-08
-7.16404e-10
-3.51172e-08
-7.54519e-10
-3.45281e-08
-7.9158e-10
-3.39124e-08
-8.2752e-10
-3.32708e-08
-8.62274e-10
-3.26043e-08
-8.95775e-10
-3.19139e-08
-9.27957e-10
-3.12006e-08
-9.58754e-10
-3.04655e-08
-9.88101e-10
-2.97097e-08
-1.01593e-09
-2.89343e-08
-1.04219e-09
-2.81407e-08
-1.0668e-09
-2.73301e-08
-1.08971e-09
-2.65037e-08
-1.11085e-09
-2.5663e-08
-1.13017e-09
-2.48093e-08
-1.14759e-09
-2.39442e-08
-1.16308e-09
-2.3069e-08
-1.17657e-09
-2.21853e-08
-1.188e-09
-2.12947e-08
-1.19732e-09
-2.03988e-08
-1.20448e-09
-1.94992e-08
-1.20943e-09
-1.85976e-08
-1.21213e-09
-1.76958e-08
-1.21252e-09
-1.67954e-08
-1.21056e-09
-1.58982e-08
-1.20622e-09
-1.5006e-08
-1.19945e-09
-1.41207e-08
-1.19023e-09
-1.3244e-08
-1.17852e-09
-1.2378e-08
-1.16429e-09
-1.15243e-08
-1.14752e-09
-1.0685e-08
-1.12819e-09
-9.862e-09
-1.10629e-09
-9.05711e-09
-1.0818e-09
-8.2723e-09
-1.05471e-09
-7.50948e-09
-1.02503e-09
-6.77056e-09
-9.92774e-10
-6.05745e-09
-9.57942e-10
-5.37201e-09
-9.20562e-10
-4.7161e-09
-8.80665e-10
-4.09154e-09
-8.38294e-10
-3.50011e-09
-7.93503e-10
-2.94353e-09
-7.46359e-10
-2.42346e-09
-6.9695e-10
-1.94147e-09
-6.4538e-10
-1.49904e-09
-5.91778e-10
-1.09751e-09
-5.36302e-10
-7.38109e-10
-4.79144e-10
-4.21845e-10
-4.20542e-10
-1.49526e-10
-3.60784e-10
7.83189e-11
-3.00229e-10
2.61495e-10
-2.39324e-10
4.00224e-10
-1.78623e-10
4.95253e-10
-1.18828e-10
5.47991e-10
-6.08257e-11
5.60686e-10
-5.76137e-12
5.3666e-10
4.48834e-11
4.80599e-10
8.91782e-11
3.98938e-10
1.246e-10
3.00309e-10
1.47872e-10
1.96e-10
1.54857e-10
1.00181e-10
1.40602e-10
2.9316e-11
1.00195e-10
3.45713e-11
4.48624e-11
-8.11862e-11
1.39185e-10
-1.95707e-10
2.56464e-10
-2.5649e-10
3.75086e-10
-2.68639e-10
4.76779e-10
-2.41019e-10
5.46657e-10
-1.82314e-10
5.73004e-10
-1.00008e-10
5.46865e-10
-2.34933e-13
4.61611e-10
1.12096e-10
3.12496e-10
2.33138e-10
9.63212e-11
3.59857e-10
-1.88866e-10
4.89877e-10
-5.44015e-10
6.21321e-10
-9.69269e-10
7.527e-10
-1.46412e-09
8.82832e-10
-2.02754e-09
1.01077e-09
-2.65806e-09
1.13576e-09
-3.3539e-09
1.25719e-09
-4.11296e-09
1.37459e-09
-4.93294e-09
1.48755e-09
-5.81137e-09
1.59579e-09
-6.74561e-09
1.69904e-09
-7.73292e-09
1.79712e-09
-8.77047e-09
1.8899e-09
-9.85537e-09
1.97725e-09
-1.09847e-08
2.05911e-09
-1.21554e-08
2.13542e-09
-1.33645e-08
2.20616e-09
-1.46091e-08
2.27132e-09
-1.58861e-08
2.33091e-09
-1.71924e-08
2.38496e-09
-1.85252e-08
2.43349e-09
-1.98814e-08
2.47655e-09
-2.12582e-08
2.5142e-09
-2.26525e-08
2.5465e-09
-2.40616e-08
2.57352e-09
-2.54825e-08
2.59534e-09
-2.69126e-08
2.61203e-09
-2.8349e-08
2.62368e-09
-2.97891e-08
2.63037e-09
-3.12302e-08
2.63221e-09
-3.26696e-08
2.62928e-09
-3.4105e-08
2.62168e-09
-3.55336e-08
2.60952e-09
-3.69532e-08
2.59289e-09
-3.83613e-08
2.57191e-09
-3.97556e-08
2.54666e-09
-4.11338e-08
2.51727e-09
-4.24938e-08
2.48384e-09
-4.38332e-08
2.44648e-09
-4.51502e-08
2.40529e-09
-4.64426e-08
2.36039e-09
-4.77084e-08
2.31188e-09
-4.89458e-08
2.25989e-09
-5.01529e-08
2.20453e-09
-5.13279e-08
2.14589e-09
-5.2469e-08
2.08411e-09
-5.35747e-08
2.01929e-09
-5.46432e-08
1.95155e-09
-5.56732e-08
1.881e-09
-5.6663e-08
1.80776e-09
-5.76113e-08
1.73194e-09
-5.85167e-08
1.65367e-09
-5.9378e-08
1.57305e-09
-6.01939e-08
1.49021e-09
-6.09633e-08
1.40527e-09
-6.1685e-08
1.31834e-09
-6.23582e-08
1.22954e-09
-6.29817e-08
1.139e-09
-6.35547e-08
1.04684e-09
-6.40765e-08
9.53169e-10
-6.45462e-08
8.58125e-10
-6.49631e-08
7.61827e-10
-6.53266e-08
6.644e-10
-6.56363e-08
5.65972e-10
-6.58915e-08
4.66668e-10
-6.6092e-08
3.66618e-10
-6.62373e-08
2.65952e-10
-6.63272e-08
1.64798e-10
-6.63616e-08
6.32905e-11
-6.63402e-08
-3.84392e-11
-6.6263e-08
-1.40257e-10
-6.61302e-08
-2.42027e-10
-6.59417e-08
-3.43613e-10
-6.56977e-08
-4.44877e-10
-6.53986e-08
-5.45682e-10
-6.50446e-08
-6.45888e-10
-6.46361e-08
-7.45353e-10
-6.41737e-08
-8.43937e-10
-6.36579e-08
-9.41496e-10
-6.30893e-08
-1.03789e-09
-6.24687e-08
-1.13297e-09
-6.17969e-08
-1.22659e-09
-6.10746e-08
-1.31861e-09
-6.0303e-08
-1.40888e-09
-5.94831e-08
-1.49726e-09
-5.86159e-08
-1.58359e-09
-5.77027e-08
-1.66774e-09
-5.67447e-08
-1.74955e-09
-5.57433e-08
-1.82889e-09
-5.47e-08
-1.90559e-09
-5.36163e-08
-1.97952e-09
-5.24937e-08
-2.05053e-09
-5.1334e-08
-2.11848e-09
-5.01389e-08
-2.18322e-09
-4.89102e-08
-2.24461e-09
-4.76499e-08
-2.30251e-09
-4.63599e-08
-2.35679e-09
-4.50423e-08
-2.4073e-09
-4.36992e-08
-2.45392e-09
-4.23329e-08
-2.4965e-09
-4.09455e-08
-2.53492e-09
-3.95396e-08
-2.56905e-09
-3.81174e-08
-2.59878e-09
-3.66814e-08
-2.62397e-09
-3.52342e-08
-2.64451e-09
-3.37784e-08
-2.6603e-09
-3.23166e-08
-2.67122e-09
-3.08515e-08
-2.67718e-09
-2.9386e-08
-2.67806e-09
-2.79227e-08
-2.6738e-09
-2.64647e-08
-2.66429e-09
-2.50147e-08
-2.64945e-09
-2.35757e-08
-2.62923e-09
-2.21507e-08
-2.60354e-09
-2.07426e-08
-2.57234e-09
-1.93546e-08
-2.53558e-09
-1.79895e-08
-2.49321e-09
-1.66506e-08
-2.44522e-09
-1.53408e-08
-2.39158e-09
-1.40633e-08
-2.33229e-09
-1.28209e-08
-2.26736e-09
-1.16169e-08
-2.1968e-09
-1.04542e-08
-2.12068e-09
-9.3357e-09
-2.03903e-09
-8.26441e-09
-1.95195e-09
-7.24316e-09
-1.85954e-09
-6.27473e-09
-1.76194e-09
-5.36177e-09
-1.65931e-09
-4.50686e-09
-1.55186e-09
-3.7124e-09
-1.43985e-09
-2.98061e-09
-1.32356e-09
-2.31353e-09
-1.20339e-09
-1.71291e-09
-1.07977e-09
-1.1802e-09
-9.53253e-10
-7.16483e-10
-8.24501e-10
-3.22391e-10
-6.94325e-10
2.00148e-12
-5.63718e-10
2.5729e-10
-4.33911e-10
4.44886e-10
-3.06424e-10
5.67214e-10
-1.83156e-10
6.2794e-10
-6.64899e-11
6.32256e-10
4.05696e-11
5.87215e-10
1.34227e-10
5.02099e-10
2.09712e-10
3.88821e-10
2.61116e-10
2.62294e-10
2.81336e-10
1.40587e-10
2.62297e-10
4.47415e-11
1.96097e-10
7.9308e-11
4.97147e-11
-1.30901e-10
1.50349e-10
-2.96328e-10
2.69264e-10
-3.75409e-10
3.81273e-10
-3.80662e-10
4.65579e-10
-3.25333e-10
5.05114e-10
-2.21845e-10
4.86146e-10
-8.10371e-11
3.97898e-10
8.80103e-11
2.32137e-10
2.77852e-10
-1.71895e-11
4.82462e-10
-3.54316e-10
6.96983e-10
-7.81955e-10
9.17516e-10
-1.30156e-09
1.14092e-09
-1.91354e-09
1.36468e-09
-2.61746e-09
1.58674e-09
-3.41215e-09
1.80546e-09
-4.29589e-09
2.0195e-09
-5.26647e-09
2.22777e-09
-6.32128e-09
2.4294e-09
-7.45739e-09
2.62367e-09
-8.67163e-09
2.81002e-09
-9.96058e-09
2.98799e-09
-1.13207e-08
3.15722e-09
-1.27482e-08
3.31743e-09
-1.42394e-08
3.46841e-09
-1.57903e-08
3.61e-09
-1.73969e-08
3.74209e-09
-1.90554e-08
3.86461e-09
-2.07616e-08
3.97754e-09
-2.25116e-08
4.08087e-09
-2.43012e-08
4.17462e-09
-2.61266e-08
4.25885e-09
-2.79837e-08
4.33361e-09
-2.98685e-08
4.399e-09
-3.17771e-08
4.45511e-09
-3.37056e-08
4.50205e-09
-3.56502e-08
4.53995e-09
-3.76071e-08
4.56894e-09
-3.95726e-08
4.58915e-09
-4.1543e-08
4.60074e-09
-4.35146e-08
4.60387e-09
-4.5484e-08
4.59868e-09
-4.74477e-08
4.58536e-09
-4.94023e-08
4.56407e-09
-5.13443e-08
4.53499e-09
-5.32707e-08
4.49829e-09
-5.51782e-08
4.45415e-09
-5.70637e-08
4.40276e-09
-5.89242e-08
4.34431e-09
-6.07567e-08
4.27898e-09
-6.25584e-08
4.20696e-09
-6.43264e-08
4.12845e-09
-6.60582e-08
4.04364e-09
-6.7751e-08
3.95271e-09
-6.94023e-08
3.85588e-09
-7.10098e-08
3.75333e-09
-7.25709e-08
3.64526e-09
-7.40835e-08
3.53188e-09
-7.55454e-08
3.41338e-09
-7.69543e-08
3.28996e-09
-7.83084e-08
3.16183e-09
-7.96056e-08
3.02918e-09
-8.08442e-08
2.89224e-09
-8.20223e-08
2.75119e-09
-8.31383e-08
2.60624e-09
-8.41907e-08
2.45761e-09
-8.51779e-08
2.3055e-09
-8.60984e-08
2.15013e-09
-8.69511e-08
1.9917e-09
-8.77347e-08
1.83043e-09
-8.84481e-08
1.66653e-09
-8.90902e-08
1.50023e-09
-8.96601e-08
1.33173e-09
-9.0157e-08
1.16126e-09
-9.05801e-08
9.89043e-10
-9.09287e-08
8.15297e-10
-9.12023e-08
6.4025e-10
-9.14005e-08
4.64129e-10
-9.15229e-08
2.87163e-10
-9.15691e-08
1.09583e-10
-9.15392e-08
-6.83768e-11
-9.1433e-08
-2.46483e-10
-9.12505e-08
-4.24497e-10
-9.09919e-08
-6.02181e-10
-9.06575e-08
-7.79293e-10
-9.02476e-08
-9.55591e-10
-8.97627e-08
-1.13083e-09
-8.92033e-08
-1.30476e-09
-8.85701e-08
-1.47715e-09
-8.78638e-08
-1.64773e-09
-8.70855e-08
-1.81625e-09
-8.6236e-08
-1.98247e-09
-8.53164e-08
-2.14613e-09
-8.4328e-08
-2.30698e-09
-8.32722e-08
-2.46476e-09
-8.21502e-08
-2.61922e-09
-8.09637e-08
-2.7701e-09
-7.97143e-08
-2.91714e-09
-7.84038e-08
-3.06009e-09
-7.70339e-08
-3.19869e-09
-7.56068e-08
-3.33269e-09
-7.41245e-08
-3.46184e-09
-7.25892e-08
-3.58587e-09
-7.10031e-08
-3.70455e-09
-6.93687e-08
-3.81762e-09
-6.76885e-08
-3.92483e-09
-6.59651e-08
-4.02594e-09
-6.42011e-08
-4.12071e-09
-6.23995e-08
-4.2089e-09
-6.05632e-08
-4.29029e-09
-5.8695e-08
-4.36463e-09
-5.67983e-08
-4.4317e-09
-5.4876e-08
-4.4913e-09
-5.29316e-08
-4.5432e-09
-5.09684e-08
-4.5872e-09
-4.89898e-08
-4.62309e-09
-4.69994e-08
-4.6507e-09
-4.50008e-08
-4.66982e-09
-4.29977e-08
-4.6803e-09
-4.09938e-08
-4.68195e-09
-3.89929e-08
-4.67464e-09
-3.6999e-08
-4.6582e-09
-3.50159e-08
-4.63252e-09
-3.30477e-08
-4.59747e-09
-3.10983e-08
-4.55294e-09
-2.91718e-08
-4.49885e-09
-2.72723e-08
-4.43511e-09
-2.54038e-08
-4.36166e-09
-2.35706e-08
-4.27848e-09
-2.17766e-08
-4.18554e-09
-2.00261e-08
-4.08283e-09
-1.8323e-08
-3.9704e-09
-1.66715e-08
-3.8483e-09
-1.50756e-08
-3.7166e-09
-1.35392e-08
-3.57544e-09
-1.20662e-08
-3.42498e-09
-1.06603e-08
-3.26541e-09
-9.32524e-09
-3.097e-09
-8.0645e-09
-2.92006e-09
-6.8814e-09
-2.73497e-09
-5.77904e-09
-2.5422e-09
-4.7603e-09
-2.34231e-09
-3.82771e-09
-2.13597e-09
-2.98348e-09
-1.924e-09
-2.22936e-09
-1.70738e-09
-1.56659e-09
-1.48727e-09
-9.95812e-10
-1.26511e-09
-5.16918e-10
-1.04262e-09
-1.28925e-10
-8.21907e-10
1.70207e-10
-6.05556e-10
3.83775e-10
-3.96726e-10
5.16587e-10
-1.99308e-10
5.75254e-10
-1.81001e-11
5.68502e-10
1.40987e-10
5.07519e-10
2.70717e-10
4.06283e-10
3.62362e-10
2.81931e-10
4.05662e-10
1.55112e-10
3.89076e-10
5.05759e-11
3.00643e-10
1.29893e-10
4.75058e-11
-1.78417e-10
1.40279e-10
-3.89092e-10
2.42828e-10
-4.77948e-10
3.27756e-10
-4.65594e-10
3.72699e-10
-3.70287e-10
3.59301e-10
-2.08451e-10
2.72644e-10
5.62231e-12
1.00817e-10
2.59838e-10
-1.6545e-10
5.44116e-10
-5.33126e-10
8.50134e-10
-1.0072e-09
1.17106e-09
-1.59099e-09
1.5013e-09
-2.28634e-09
1.83628e-09
-3.09393e-09
2.17227e-09
-4.0134e-09
2.50621e-09
-5.04352e-09
2.83559e-09
-6.18237e-09
3.15835e-09
-7.42744e-09
3.47283e-09
-8.77568e-09
3.77764e-09
-1.02237e-08
4.07166e-09
-1.17676e-08
4.35398e-09
-1.34035e-08
4.62386e-09
-1.5127e-08
4.88071e-09
-1.69336e-08
5.12407e-09
-1.88188e-08
5.35357e-09
-2.07777e-08
5.56894e-09
-2.28056e-08
5.76999e-09
-2.48976e-08
5.95658e-09
-2.70487e-08
6.12864e-09
-2.9254e-08
6.28615e-09
-3.15085e-08
6.42912e-09
-3.38072e-08
6.5576e-09
-3.61453e-08
6.67168e-09
-3.85178e-08
6.77147e-09
-4.09198e-08
6.85711e-09
-4.33465e-08
6.92874e-09
-4.57931e-08
6.98656e-09
-4.82549e-08
7.03075e-09
-5.07272e-08
7.06151e-09
-5.32056e-08
7.07907e-09
-5.56854e-08
7.08366e-09
-5.81622e-08
7.07552e-09
-6.06317e-08
7.05489e-09
-6.30897e-08
7.02203e-09
-6.55319e-08
6.97721e-09
-6.79543e-08
6.92069e-09
-7.03529e-08
6.85275e-09
-7.27238e-08
6.77367e-09
-7.50632e-08
6.68372e-09
-7.73674e-08
6.5832e-09
-7.96329e-08
6.4724e-09
-8.1856e-08
6.3516e-09
-8.40335e-08
6.22111e-09
-8.6162e-08
6.08121e-09
-8.82384e-08
5.93222e-09
-9.02595e-08
5.77443e-09
-9.22223e-08
5.60815e-09
-9.41241e-08
5.43368e-09
-9.59621e-08
5.25132e-09
-9.77335e-08
5.0614e-09
-9.94359e-08
4.86422e-09
-1.01067e-07
4.66009e-09
-1.02624e-07
4.44934e-09
-1.04105e-07
4.23226e-09
-1.05508e-07
4.00919e-09
-1.06831e-07
3.78045e-09
-1.08072e-07
3.54635e-09
-1.09229e-07
3.30722e-09
-1.103e-07
3.0634e-09
-1.11285e-07
2.8152e-09
-1.12182e-07
2.56296e-09
-1.12988e-07
2.30701e-09
-1.13704e-07
2.0477e-09
-1.14328e-07
1.78535e-09
-1.1486e-07
1.52032e-09
-1.15297e-07
1.25295e-09
-1.15641e-07
9.83577e-10
-1.15889e-07
7.12562e-10
-1.16042e-07
4.40255e-10
-1.161e-07
1.67014e-10
-1.16061e-07
-1.06802e-10
-1.15927e-07
-3.80831e-10
-1.15697e-07
-6.54707e-10
-1.15371e-07
-9.28063e-10
-1.1495e-07
-1.20053e-09
-1.14433e-07
-1.47172e-09
-1.13823e-07
-1.74128e-09
-1.13119e-07
-2.00881e-09
-1.12322e-07
-2.27394e-09
-1.11434e-07
-2.53628e-09
-1.10454e-07
-2.79545e-09
-1.09386e-07
-3.05106e-09
-1.08229e-07
-3.30272e-09
-1.06986e-07
-3.55004e-09
-1.05658e-07
-3.79262e-09
-1.04247e-07
-4.03008e-09
-1.02756e-07
-4.26202e-09
-1.01185e-07
-4.48805e-09
-9.9537e-08
-4.70778e-09
-9.78148e-08
-4.92081e-09
-9.60208e-08
-5.12675e-09
-9.41574e-08
-5.32522e-09
-9.22274e-08
-5.51583e-09
-9.02338e-08
-5.69819e-09
-8.81795e-08
-5.87192e-09
-8.60677e-08
-6.03665e-09
-8.39016e-08
-6.192e-09
-8.16847e-08
-6.33761e-09
-7.94205e-08
-6.47311e-09
-7.71126e-08
-6.59814e-09
-7.47649e-08
-6.71237e-09
-7.23812e-08
-6.81544e-09
-6.99654e-08
-6.90703e-09
-6.75218e-08
-6.98681e-09
-6.50546e-08
-7.05447e-09
-6.25679e-08
-7.10971e-09
-6.00664e-08
-7.15223e-09
-5.75544e-08
-7.18177e-09
-5.50367e-08
-7.19806e-09
-5.25178e-08
-7.20084e-09
-5.00025e-08
-7.1899e-09
-4.74957e-08
-7.16501e-09
-4.50023e-08
-7.12597e-09
-4.25271e-08
-7.07263e-09
-4.00753e-08
-7.00481e-09
-3.76517e-08
-6.92238e-09
-3.52616e-08
-6.82526e-09
-3.29099e-08
-6.71335e-09
-3.06018e-08
-6.5866e-09
-2.83423e-08
-6.44501e-09
-2.61365e-08
-6.2886e-09
-2.39895e-08
-6.11741e-09
-2.19062e-08
-5.93157e-09
-1.98916e-08
-5.73122e-09
-1.79505e-08
-5.51657e-09
-1.60876e-08
-5.28789e-09
-1.43075e-08
-5.04552e-09
-1.26146e-08
-4.78988e-09
-1.10132e-08
-4.52148e-09
-9.50719e-09
-4.24095e-09
-8.10036e-09
-3.94903e-09
-6.79607e-09
-3.6466e-09
-5.59731e-09
-3.33474e-09
-4.5066e-09
-3.01471e-09
-3.52594e-09
-2.68804e-09
-2.65666e-09
-2.35654e-09
-1.89937e-09
-2.02239e-09
-1.25379e-09
-1.6882e-09
-7.18577e-10
-1.35712e-09
-2.91188e-10
-1.03295e-09
3.2365e-11
-7.20279e-10
2.57739e-10
-4.24686e-10
3.92534e-10
-1.52906e-10
4.46588e-10
8.69212e-11
4.32292e-10
2.85018e-10
3.64907e-10
4.29768e-10
2.62951e-10
5.07626e-10
1.48748e-10
5.03254e-10
4.94469e-11
3.9993e-10
1.79346e-10
4.04095e-11
-2.18837e-10
1.14267e-10
-4.62955e-10
1.85821e-10
-5.49496e-10
2.26899e-10
-5.06667e-10
2.14451e-10
-3.57843e-10
1.29517e-10
-1.23525e-10
-4.34081e-11
1.78545e-10
-3.16834e-10
5.33265e-10
-7.00627e-10
9.27909e-10
-1.20232e-09
1.35182e-09
-1.82739e-09
1.79613e-09
-2.57955e-09
2.25345e-09
-3.46095e-09
2.71769e-09
-4.47245e-09
3.18377e-09
-5.61375e-09
3.6475e-09
-6.88357e-09
4.10541e-09
-8.27984e-09
4.55463e-09
-9.79978e-09
4.99277e-09
-1.144e-08
5.41787e-09
-1.31967e-08
5.82832e-09
-1.50655e-08
6.22279e-09
-1.70418e-08
6.60019e-09
-1.91207e-08
6.95964e-09
-2.12971e-08
7.30046e-09
-2.35656e-08
7.62207e-09
-2.59208e-08
7.92407e-09
-2.83569e-08
8.20614e-09
-3.08684e-08
8.46805e-09
-3.34494e-08
8.70967e-09
-3.60942e-08
8.93094e-09
-3.87969e-08
9.13184e-09
-4.15517e-08
9.31243e-09
-4.43528e-08
9.4728e-09
-4.71944e-08
9.61309e-09
-5.00708e-08
9.73347e-09
-5.29762e-08
9.83414e-09
-5.5905e-08
9.91535e-09
-5.88516e-08
9.97734e-09
-6.18104e-08
1.00204e-08
-6.47762e-08
1.00448e-08
-6.77434e-08
1.00509e-08
-7.07069e-08
1.0039e-08
-7.36614e-08
1.00094e-08
-7.6602e-08
9.96259e-09
-7.95236e-08
9.89881e-09
-8.24214e-08
9.81847e-09
-8.52906e-08
9.72196e-09
-8.81266e-08
9.60966e-09
-9.09248e-08
9.48198e-09
-9.36809e-08
9.3393e-09
-9.63906e-08
9.18205e-09
-9.90496e-08
9.01062e-09
-1.01654e-07
8.82545e-09
-1.042e-07
8.62694e-09
-1.06683e-07
8.41552e-09
-1.091e-07
8.19162e-09
-1.11448e-07
7.95567e-09
-1.13722e-07
7.70809e-09
-1.1592e-07
7.44934e-09
-1.18039e-07
7.17984e-09
-1.20074e-07
6.90003e-09
-1.22025e-07
6.61037e-09
-1.23887e-07
6.31129e-09
-1.25658e-07
6.00325e-09
-1.27335e-07
5.6867e-09
-1.28917e-07
5.3621e-09
-1.304e-07
5.02989e-09
-1.31784e-07
4.69056e-09
-1.33065e-07
4.34455e-09
-1.34242e-07
3.99235e-09
-1.35313e-07
3.63441e-09
-1.36278e-07
3.27123e-09
-1.37133e-07
2.90326e-09
-1.37879e-07
2.531e-09
-1.38513e-07
2.15494e-09
-1.39036e-07
1.77556e-09
-1.39446e-07
1.39336e-09
-1.39742e-07
1.00884e-09
-1.39924e-07
6.225e-10
-1.39992e-07
2.34846e-10
-1.39945e-07
-1.53611e-10
-1.39784e-07
-5.42355e-10
-1.39508e-07
-9.30867e-10
-1.39117e-07
-1.31862e-09
-1.38613e-07
-1.7051e-09
-1.37995e-07
-2.08976e-09
-1.37264e-07
-2.47207e-09
-1.36421e-07
-2.8515e-09
-1.35467e-07
-3.2275e-09
-1.34404e-07
-3.59953e-09
-1.33233e-07
-3.96704e-09
-1.31954e-07
-4.32949e-09
-1.30571e-07
-4.68631e-09
-1.29084e-07
-5.03696e-09
-1.27495e-07
-5.38088e-09
-1.25808e-07
-5.71752e-09
-1.24024e-07
-6.04631e-09
-1.22145e-07
-6.36671e-09
-1.20175e-07
-6.67816e-09
-1.18115e-07
-6.98011e-09
-1.1597e-07
-7.272e-09
-1.13742e-07
-7.55328e-09
-1.11434e-07
-7.82341e-09
-1.09051e-07
-8.08184e-09
-1.06595e-07
-8.32804e-09
-1.0407e-07
-8.56148e-09
-1.0148e-07
-8.78163e-09
-9.88299e-08
-8.98797e-09
-9.6123e-08
-9.17999e-09
-9.3364e-08
-9.3572e-09
-9.05572e-08
-9.51911e-09
-8.77074e-08
-9.66523e-09
-8.48194e-08
-9.7951e-09
-8.18979e-08
-9.90827e-09
-7.89481e-08
-1.00043e-08
-7.5975e-08
-1.00828e-08
-7.2984e-08
-1.01433e-08
-6.99803e-08
-1.01854e-08
-6.69695e-08
-1.02089e-08
-6.3957e-08
-1.02133e-08
-6.09486e-08
-1.01983e-08
-5.795e-08
-1.01636e-08
-5.49669e-08
-1.01091e-08
-5.20052e-08
-1.00343e-08
-4.90709e-08
-9.93917e-09
-4.61698e-08
-9.82349e-09
-4.33079e-08
-9.68713e-09
-4.04912e-08
-9.53e-09
-3.77258e-08
-9.35204e-09
-3.50175e-08
-9.15326e-09
-3.23724e-08
-8.9337e-09
-2.97964e-08
-8.69347e-09
-2.72952e-08
-8.43275e-09
-2.48747e-08
-8.15177e-09
-2.25404e-08
-7.85086e-09
-2.02978e-08
-7.53043e-09
-1.81524e-08
-7.19099e-09
-1.61091e-08
-6.83318e-09
-1.41728e-08
-6.45774e-09
-1.23482e-08
-6.0656e-09
-1.06394e-08
-5.65783e-09
-9.05021e-09
-5.23574e-09
-7.58409e-09
-4.80086e-09
-6.24381e-09
-4.35501e-09
-5.03152e-09
-3.90033e-09
-3.94866e-09
-3.4394e-09
-2.9958e-09
-2.97525e-09
-2.17251e-09
-2.5115e-09
-1.4772e-09
-2.05244e-09
-9.06931e-10
-1.60321e-09
-4.57249e-10
-1.16996e-09
-1.21919e-10
-7.60012e-10
1.0729e-10
-3.82117e-10
2.40883e-10
-4.66825e-11
2.91926e-10
2.33962e-10
2.76379e-10
4.45319e-10
2.13505e-10
5.70517e-10
1.26465e-10
5.90292e-10
4.34214e-11
4.82962e-10
2.22766e-10
2.99622e-11
-2.488e-10
7.6605e-11
-5.0961e-10
1.05654e-10
-5.78547e-10
8.93725e-11
-4.90381e-10
4.83892e-12
-2.73308e-10
-1.66922e-10
4.82316e-11
-4.4152e-10
4.53139e-10
-8.31641e-10
9.23385e-10
-1.34738e-09
1.44365e-09
-1.99652e-09
2.00096e-09
-2.7848e-09
2.5844e-09
-3.71613e-09
3.18478e-09
-4.79283e-09
3.79439e-09
-6.01584e-09
4.40678e-09
-7.38488e-09
5.01654e-09
-8.89861e-09
5.61914e-09
-1.05548e-08
6.21081e-09
-1.23504e-08
6.7884e-09
-1.42818e-08
7.34928e-09
-1.63448e-08
7.89126e-09
-1.85345e-08
8.41254e-09
-2.0846e-08
8.91162e-09
-2.32736e-08
9.3873e-09
-2.58117e-08
9.83858e-09
-2.84544e-08
1.02647e-08
-3.11953e-08
1.0665e-08
-3.40283e-08
1.10391e-08
-3.69468e-08
1.13866e-08
-3.99444e-08
1.17073e-08
-4.30146e-08
1.20011e-08
-4.61506e-08
1.22678e-08
-4.93458e-08
1.25077e-08
-5.25938e-08
1.27207e-08
-5.58877e-08
1.2907e-08
-5.92211e-08
1.30669e-08
-6.25875e-08
1.32005e-08
-6.59803e-08
1.33082e-08
-6.93933e-08
1.33903e-08
-7.282e-08
1.34471e-08
-7.62542e-08
1.3479e-08
-7.96898e-08
1.34865e-08
-8.31208e-08
1.347e-08
-8.65411e-08
1.34298e-08
-8.99451e-08
1.33665e-08
-9.33268e-08
1.32806e-08
-9.66809e-08
1.31725e-08
-1.00002e-07
1.30428e-08
-1.03284e-07
1.28919e-08
-1.06522e-07
1.27204e-08
-1.09712e-07
1.25288e-08
-1.12847e-07
1.23177e-08
-1.15924e-07
1.20876e-08
-1.18938e-07
1.18391e-08
-1.21884e-07
1.15727e-08
-1.24757e-07
1.1289e-08
-1.27554e-07
1.09885e-08
-1.3027e-07
1.06719e-08
-1.32902e-07
1.03396e-08
-1.35445e-07
9.99241e-09
-1.37896e-07
9.63077e-09
-1.40251e-07
9.25531e-09
-1.42507e-07
8.86662e-09
-1.44661e-07
8.4653e-09
-1.4671e-07
8.05195e-09
-1.48651e-07
7.62719e-09
-1.5048e-07
7.19162e-09
-1.52196e-07
6.74586e-09
-1.53796e-07
6.29053e-09
-1.55278e-07
5.82625e-09
-1.56639e-07
5.35367e-09
-1.57878e-07
4.8734e-09
-1.58993e-07
4.38609e-09
-1.59982e-07
3.89238e-09
-1.60844e-07
3.39292e-09
-1.61577e-07
2.88836e-09
-1.62181e-07
2.37937e-09
-1.62654e-07
1.86661e-09
-1.62996e-07
1.35075e-09
-1.63206e-07
8.32461e-10
-1.63284e-07
3.12427e-10
-1.63229e-07
-2.08665e-10
-1.63041e-07
-7.30124e-10
-1.62721e-07
-1.25125e-09
-1.62268e-07
-1.77135e-09
-1.61683e-07
-2.2897e-09
-1.60968e-07
-2.80561e-09
-1.60121e-07
-3.31834e-09
-1.59146e-07
-3.82718e-09
-1.58042e-07
-4.3314e-09
-1.56811e-07
-4.83028e-09
-1.55455e-07
-5.32307e-09
-1.53975e-07
-5.80905e-09
-1.52374e-07
-6.28746e-09
-1.50654e-07
-6.75759e-09
-1.48816e-07
-7.21867e-09
-1.46863e-07
-7.66996e-09
-1.44799e-07
-8.11073e-09
-1.42625e-07
-8.54023e-09
-1.40346e-07
-8.95771e-09
-1.37964e-07
-9.36244e-09
-1.35482e-07
-9.75367e-09
-1.32904e-07
-1.01307e-08
-1.30235e-07
-1.04927e-08
-1.27478e-07
-1.08391e-08
-1.24637e-07
-1.11691e-08
-1.21716e-07
-1.1482e-08
-1.18721e-07
-1.1777e-08
-1.15655e-07
-1.20536e-08
-1.12524e-07
-1.2311e-08
-1.09333e-07
-1.25486e-08
-1.06086e-07
-1.27657e-08
-1.0279e-07
-1.29617e-08
-9.94489e-08
-1.31359e-08
-9.60693e-08
-1.32878e-08
-9.26568e-08
-1.34168e-08
-8.92172e-08
-1.35224e-08
-8.57566e-08
-1.36039e-08
-8.22811e-08
-1.36609e-08
-7.8797e-08
-1.3693e-08
-7.53107e-08
-1.36996e-08
-7.18287e-08
-1.36803e-08
-6.83575e-08
-1.36349e-08
-6.49037e-08
-1.35628e-08
-6.14741e-08
-1.34639e-08
-5.80754e-08
-1.33379e-08
-5.47143e-08
-1.31845e-08
-5.13978e-08
-1.30036e-08
-4.81327e-08
-1.27952e-08
-4.49257e-08
-1.2559e-08
-4.17837e-08
-1.22953e-08
-3.87134e-08
-1.2004e-08
-3.57215e-08
-1.16853e-08
-3.28147e-08
-1.13395e-08
-2.99995e-08
-1.0967e-08
-2.72821e-08
-1.05682e-08
-2.46688e-08
-1.01437e-08
-2.21656e-08
-9.69423e-09
-1.97781e-08
-9.22064e-09
-1.75119e-08
-8.72401e-09
-1.53719e-08
-8.20558e-09
-1.33629e-08
-7.66685e-09
-1.1489e-08
-7.10957e-09
-9.75409e-09
-6.53582e-09
-8.16105e-09
-5.94805e-09
-6.71227e-09
-5.34912e-09
-5.40926e-09
-4.74241e-09
-4.2526e-09
-4.13191e-09
-3.24177e-09
-3.52233e-09
-2.37503e-09
-2.91919e-09
-1.64921e-09
-2.32904e-09
-1.05956e-09
-1.75961e-09
-5.99543e-10
-1.22003e-09
-2.60585e-10
-7.21069e-10
-3.18752e-11
-2.75392e-10
9.9919e-11
1.02158e-10
1.50974e-10
3.94253e-10
1.40721e-10
5.80776e-10
9.23982e-11
6.38619e-10
3.39862e-11
5.41372e-10
2.56749e-10
1.72539e-11
-2.66047e-10
3.06113e-11
-5.22976e-10
8.32267e-12
-5.56267e-10
-7.59942e-11
-4.06065e-10
-2.44449e-10
-1.0485e-10
-5.15513e-10
3.19295e-10
-9.04486e-10
8.42109e-10
-1.42388e-09
1.44277e-09
-2.0837e-09
2.10347e-09
-2.89173e-09
2.809e-09
-3.85373e-09
3.5464e-09
-4.97365e-09
4.3047e-09
-6.25384e-09
5.07458e-09
-7.69521e-09
5.84815e-09
-9.29742e-09
6.61875e-09
-1.1059e-08
7.38077e-09
-1.29777e-08
8.12945e-09
-1.50501e-08
8.86081e-09
-1.72723e-08
9.5715e-09
-1.96398e-08
1.02587e-08
-2.21473e-08
1.09201e-08
-2.47895e-08
1.15537e-08
-2.75601e-08
1.2158e-08
-3.04531e-08
1.27316e-08
-3.34619e-08
1.32734e-08
-3.65796e-08
1.37827e-08
-3.97993e-08
1.42588e-08
-4.31139e-08
1.47012e-08
-4.65163e-08
1.51096e-08
-4.9999e-08
1.54838e-08
-5.35549e-08
1.58237e-08
-5.71766e-08
1.61293e-08
-6.08566e-08
1.64007e-08
-6.45877e-08
1.66381e-08
-6.83625e-08
1.68417e-08
-7.21737e-08
1.70117e-08
-7.6014e-08
1.71486e-08
-7.98765e-08
1.72527e-08
-8.37539e-08
1.73245e-08
-8.76393e-08
1.73644e-08
-9.15258e-08
1.7373e-08
-9.54066e-08
1.73508e-08
-9.9275e-08
1.72982e-08
-1.03125e-07
1.7216e-08
-1.06949e-07
1.71048e-08
-1.10741e-07
1.69651e-08
-1.14496e-07
1.67975e-08
-1.18207e-07
1.66028e-08
-1.21868e-07
1.63816e-08
-1.25474e-07
1.61346e-08
-1.29019e-07