/*--------------------------------*- C++ -*----------------------------------*\
  =========                 |
  \\      /  F ield         | OpenFOAM: The Open Source CFD Toolbox
   \\    /   O peration     | Website:  https://openfoam.org
    \\  /    A nd           | Version:  7
     \\/     M anipulation  |
\*---------------------------------------------------------------------------*/
FoamFile
{
    version     2.0;
    format      ascii;
    class       volVectorField;
    location    "0.475";
    object      U;
}
// * * * * * * * * * * * * * * * * * * * * * * * * * * * * * * * * * * * * * //

dimensions      [0 1 -1 0 0 0 0];

internalField   nonuniform List<vector> 
25600
(
(1.80363e-07 -2.0378e-07 0)
(2.83972e-06 -1.79325e-06 0)
(9.07687e-06 -2.83281e-06 0)
(1.69306e-05 -3.20712e-06 0)
(2.48919e-05 -3.12437e-06 0)
(3.2011e-05 -2.74701e-06 0)
(3.76351e-05 -2.18232e-06 0)
(4.13151e-05 -1.50182e-06 0)
(4.27514e-05 -7.52061e-07 0)
(4.175e-05 3.67222e-08 0)
(3.81931e-05 8.44225e-07 0)
(3.20186e-05 1.65623e-06 0)
(2.3205e-05 2.46259e-06 0)
(1.17616e-05 3.25603e-06 0)
(-2.27861e-06 4.03123e-06 0)
(-1.88646e-05 4.78429e-06 0)
(-3.7931e-05 5.51222e-06 0)
(-5.94016e-05 6.21278e-06 0)
(-8.31914e-05 6.88429e-06 0)
(-0.000109209 7.52558e-06 0)
(-0.000137359 8.13581e-06 0)
(-0.00016754 8.7144e-06 0)
(-0.000199649 9.26094e-06 0)
(-0.000233581 9.77521e-06 0)
(-0.000269228 1.02571e-05 0)
(-0.000306484 1.07068e-05 0)
(-0.00034524 1.11242e-05 0)
(-0.000385388 1.15098e-05 0)
(-0.00042682 1.18637e-05 0)
(-0.000469429 1.21863e-05 0)
(-0.000513107 1.2478e-05 0)
(-0.000557751 1.27391e-05 0)
(-0.000603254 1.29701e-05 0)
(-0.000649515 1.31716e-05 0)
(-0.00069643 1.33439e-05 0)
(-0.0007439 1.34876e-05 0)
(-0.000791826 1.36033e-05 0)
(-0.000840111 1.36914e-05 0)
(-0.00088866 1.37526e-05 0)
(-0.000937378 1.37874e-05 0)
(-0.000986175 1.37963e-05 0)
(-0.00103496 1.37801e-05 0)
(-0.00108365 1.37391e-05 0)
(-0.00113215 1.36741e-05 0)
(-0.00118038 1.35856e-05 0)
(-0.00122826 1.34742e-05 0)
(-0.00127571 1.33405e-05 0)
(-0.00132265 1.31852e-05 0)
(-0.00136901 1.30087e-05 0)
(-0.00141471 1.28117e-05 0)
(-0.00145968 1.25948e-05 0)
(-0.00150384 1.23586e-05 0)
(-0.00154714 1.21037e-05 0)
(-0.00158951 1.18307e-05 0)
(-0.00163088 1.15401e-05 0)
(-0.0016712 1.12326e-05 0)
(-0.00171039 1.09088e-05 0)
(-0.00174842 1.05693e-05 0)
(-0.00178521 1.02147e-05 0)
(-0.00182073 9.84548e-06 0)
(-0.00185491 9.46237e-06 0)
(-0.00188771 9.06593e-06 0)
(-0.00191908 8.65675e-06 0)
(-0.00194899 8.23546e-06 0)
(-0.00197738 7.80264e-06 0)
(-0.00200421 7.3589e-06 0)
(-0.00202946 6.90486e-06 0)
(-0.00205307 6.44113e-06 0)
(-0.00207503 5.96833e-06 0)
(-0.0020953 5.48707e-06 0)
(-0.00211385 4.99799e-06 0)
(-0.00213065 4.50172e-06 0)
(-0.00214568 3.99889e-06 0)
(-0.00215892 3.49013e-06 0)
(-0.00217034 2.9761e-06 0)
(-0.00217993 2.45744e-06 0)
(-0.00218768 1.93482e-06 0)
(-0.00219357 1.40889e-06 0)
(-0.00219759 8.80323e-07 0)
(-0.00219974 3.49793e-07 0)
(-0.0022 -1.82019e-07 0)
(-0.00219838 -7.14422e-07 0)
(-0.00219487 -1.24672e-06 0)
(-0.00218948 -1.77821e-06 0)
(-0.00218221 -2.30819e-06 0)
(-0.00217306 -2.83593e-06 0)
(-0.00216206 -3.36071e-06 0)
(-0.0021492 -3.88181e-06 0)
(-0.00213451 -4.39848e-06 0)
(-0.00211799 -4.90999e-06 0)
(-0.00209968 -5.41558e-06 0)
(-0.00207959 -5.91451e-06 0)
(-0.00205776 -6.40602e-06 0)
(-0.00203419 -6.88934e-06 0)
(-0.00200894 -7.36371e-06 0)
(-0.00198203 -7.82835e-06 0)
(-0.00195349 -8.2825e-06 0)
(-0.00192337 -8.72538e-06 0)
(-0.00189171 -9.1562e-06 0)
(-0.00185855 -9.57419e-06 0)
(-0.00182394 -9.97858e-06 0)
(-0.00178793 -1.03686e-05 0)
(-0.00175057 -1.07434e-05 0)
(-0.00171192 -1.11023e-05 0)
(-0.00167203 -1.14445e-05 0)
(-0.00163096 -1.17693e-05 0)
(-0.00158879 -1.20758e-05 0)
(-0.00154557 -1.23633e-05 0)
(-0.00150137 -1.2631e-05 0)
(-0.00145627 -1.28784e-05 0)
(-0.00141034 -1.31045e-05 0)
(-0.00136365 -1.33087e-05 0)
(-0.00131628 -1.34903e-05 0)
(-0.00126831 -1.36486e-05 0)
(-0.00121984 -1.37829e-05 0)
(-0.00117093 -1.38926e-05 0)
(-0.00112168 -1.3977e-05 0)
(-0.00107219 -1.40355e-05 0)
(-0.00102253 -1.40676e-05 0)
(-0.000972816 -1.40725e-05 0)
(-0.000923129 -1.40498e-05 0)
(-0.000873572 -1.3999e-05 0)
(-0.000824242 -1.39195e-05 0)
(-0.000775242 -1.38109e-05 0)
(-0.000726673 -1.36726e-05 0)
(-0.000678638 -1.35044e-05 0)
(-0.000631244 -1.33058e-05 0)
(-0.000584594 -1.30766e-05 0)
(-0.000538797 -1.28163e-05 0)
(-0.000493959 -1.25247e-05 0)
(-0.000450189 -1.22017e-05 0)
(-0.000407593 -1.1847e-05 0)
(-0.000366281 -1.14606e-05 0)
(-0.000326361 -1.10424e-05 0)
(-0.00028794 -1.05925e-05 0)
(-0.000251124 -1.0111e-05 0)
(-0.00021602 -9.59807e-06 0)
(-0.000182732 -9.05403e-06 0)
(-0.00015136 -8.47935e-06 0)
(-0.000122005 -7.87461e-06 0)
(-9.47628e-05 -7.24059e-06 0)
(-6.97244e-05 -6.57827e-06 0)
(-4.69766e-05 -5.88895e-06 0)
(-2.65994e-05 -5.17422e-06 0)
(-8.6651e-06 -4.43615e-06 0)
(6.76402e-06 -3.67741e-06 0)
(1.96379e-05 -2.90143e-06 0)
(2.99217e-05 -2.1126e-06 0)
(3.75998e-05 -1.31662e-06 0)
(4.26816e-05 -5.21187e-07 0)
(4.52084e-05 2.63171e-07 0)
(4.52637e-05 1.02177e-06 0)
(4.29859e-05 1.73382e-06 0)
(3.85894e-05 2.3688e-06 0)
(3.23942e-05 2.88047e-06 0)
(2.4869e-05 3.1981e-06 0)
(1.66813e-05 3.21632e-06 0)
(8.78293e-06 2.77883e-06 0)
(2.64692e-06 1.69433e-06 0)
(1.23291e-07 1.20483e-07 0)
(1.77859e-06 -2.87445e-06 0)
(9.38533e-06 -9.41234e-06 0)
(2.31437e-05 -1.34189e-05 0)
(3.93872e-05 -1.47317e-05 0)
(5.52754e-05 -1.39697e-05 0)
(6.88127e-05 -1.17035e-05 0)
(7.84595e-05 -8.37335e-06 0)
(8.30581e-05 -4.3092e-06 0)
(8.17773e-05 2.47795e-07 0)
(7.40384e-05 5.12302e-06 0)
(5.94572e-05 1.01882e-05 0)
(3.78008e-05 1.53474e-05 0)
(8.95392e-06 2.05279e-05 0)
(-2.71074e-05 2.56745e-05 0)
(-7.03351e-05 3.07445e-05 0)
(-0.000120625 3.57051e-05 0)
(-0.000177826 4.05307e-05 0)
(-0.000241753 4.5201e-05 0)
(-0.000312192 4.97002e-05 0)
(-0.000388905 5.40161e-05 0)
(-0.000471639 5.81395e-05 0)
(-0.000560123 6.20631e-05 0)
(-0.000654078 6.57817e-05 0)
(-0.000753217 6.92915e-05 0)
(-0.000857244 7.25897e-05 0)
(-0.00096586 7.56748e-05 0)
(-0.00107877 7.85462e-05 0)
(-0.00119565 8.12039e-05 0)
(-0.00131623 8.36486e-05 0)
(-0.00144017 8.58813e-05 0)
(-0.0015672 8.79037e-05 0)
(-0.001697 8.97176e-05 0)
(-0.00182927 9.13255e-05 0)
(-0.00196373 9.27299e-05 0)
(-0.00210008 9.39336e-05 0)
(-0.00223804 9.49395e-05 0)
(-0.00237731 9.57509e-05 0)
(-0.00251762 9.6371e-05 0)
(-0.0026587 9.68035e-05 0)
(-0.00280027 9.70517e-05 0)
(-0.00294208 9.71195e-05 0)
(-0.00308385 9.70105e-05 0)
(-0.00322534 9.67285e-05 0)
(-0.0033663 9.62776e-05 0)
(-0.00350648 9.56615e-05 0)
(-0.00364564 9.48843e-05 0)
(-0.00378356 9.395e-05 0)
(-0.00392001 9.28626e-05 0)
(-0.00405476 9.16262e-05 0)
(-0.0041876 9.0245e-05 0)
(-0.00431833 8.87229e-05 0)
(-0.00444673 8.70642e-05 0)
(-0.00457262 8.5273e-05 0)
(-0.0046958 8.33535e-05 0)
(-0.00481608 8.13098e-05 0)
(-0.0049333 7.91461e-05 0)
(-0.00504727 7.68667e-05 0)
(-0.00515782 7.44756e-05 0)
(-0.00526481 7.19773e-05 0)
(-0.00536807 6.93758e-05 0)
(-0.00546746 6.66755e-05 0)
(-0.00556283 6.38806e-05 0)
(-0.00565405 6.09953e-05 0)
(-0.00574099 5.80241e-05 0)
(-0.00582352 5.49711e-05 0)
(-0.00590154 5.18408e-05 0)
(-0.00597493 4.86374e-05 0)
(-0.00604358 4.53655e-05 0)
(-0.00610741 4.20293e-05 0)
(-0.00616631 3.86333e-05 0)
(-0.00622021 3.51821e-05 0)
(-0.00626902 3.168e-05 0)
(-0.00631268 2.81317e-05 0)
(-0.00635112 2.45418e-05 0)
(-0.00638429 2.09148e-05 0)
(-0.00641213 1.72553e-05 0)
(-0.0064346 1.35682e-05 0)
(-0.00645166 9.85805e-06 0)
(-0.00646329 6.1297e-06 0)
(-0.00646946 2.38796e-06 0)
(-0.00647015 -1.3623e-06 0)
(-0.00646536 -5.11619e-06 0)
(-0.00645508 -8.86874e-06 0)
(-0.00643933 -1.26149e-05 0)
(-0.00641811 -1.63498e-05 0)
(-0.00639144 -2.00681e-05 0)
(-0.00635936 -2.37649e-05 0)
(-0.0063219 -2.74349e-05 0)
(-0.00627911 -3.10729e-05 0)
(-0.00623102 -3.46737e-05 0)
(-0.00617771 -3.82319e-05 0)
(-0.00611924 -4.17424e-05 0)
(-0.00605569 -4.51997e-05 0)
(-0.00598713 -4.85984e-05 0)
(-0.00591365 -5.19332e-05 0)
(-0.00583537 -5.51986e-05 0)
(-0.00575237 -5.83893e-05 0)
(-0.00566477 -6.14997e-05 0)
(-0.0055727 -6.45245e-05 0)
(-0.00547629 -6.74582e-05 0)
(-0.00537567 -7.02953e-05 0)
(-0.00527098 -7.30305e-05 0)
(-0.00516239 -7.56583e-05 0)
(-0.00505005 -7.81733e-05 0)
(-0.00493413 -8.05703e-05 0)
(-0.00481481 -8.28439e-05 0)
(-0.00469227 -8.49888e-05 0)
(-0.0045667 -8.69998e-05 0)
(-0.00443831 -8.88719e-05 0)
(-0.0043073 -9.05999e-05 0)
(-0.00417388 -9.21789e-05 0)
(-0.00403827 -9.3604e-05 0)
(-0.00390071 -9.48704e-05 0)
(-0.00376142 -9.59733e-05 0)
(-0.00362065 -9.69083e-05 0)
(-0.00347865 -9.7671e-05 0)
(-0.00333566 -9.82569e-05 0)
(-0.00319196 -9.86621e-05 0)
(-0.0030478 -9.88825e-05 0)
(-0.00290345 -9.89143e-05 0)
(-0.0027592 -9.87539e-05 0)
(-0.00261532 -9.8398e-05 0)
(-0.0024721 -9.78433e-05 0)
(-0.00232983 -9.7087e-05 0)
(-0.0021888 -9.61262e-05 0)
(-0.00204931 -9.49586e-05 0)
(-0.00191165 -9.3582e-05 0)
(-0.00177615 -9.19946e-05 0)
(-0.00164308 -9.0195e-05 0)
(-0.00151277 -8.81819e-05 0)
(-0.00138552 -8.59548e-05 0)
(-0.00126164 -8.35133e-05 0)
(-0.00114142 -8.08577e-05 0)
(-0.00102518 -7.79888e-05 0)
(-0.000913227 -7.4908e-05 0)
(-0.000805847 -7.16174e-05 0)
(-0.000703339 -6.81199e-05 0)
(-0.000605991 -6.44195e-05 0)
(-0.000514084 -6.0521e-05 0)
(-0.000427889 -5.64309e-05 0)
(-0.000347664 -5.21569e-05 0)
(-0.000273656 -4.77087e-05 0)
(-0.00020609 -4.30983e-05 0)
(-0.000145173 -3.83403e-05 0)
(-9.10845e-05 -3.3453e-05 0)
(-4.3973e-05 -2.8459e-05 0)
(-3.94697e-06 -2.33865e-05 0)
(2.89327e-05 -1.8271e-05 0)
(5.46645e-05 -1.31572e-05 0)
(7.33216e-05 -8.10198e-06 0)
(8.50702e-05 -3.17956e-06 0)
(9.01956e-05 1.51283e-06 0)
(8.91333e-05 5.84604e-06 0)
(8.25116e-05 9.64656e-06 0)
(7.12068e-05 1.26783e-05 0)
(5.64118e-05 1.46203e-05 0)
(3.96874e-05 1.50475e-05 0)
(2.30196e-05 1.34199e-05 0)
(9.18777e-06 9.18218e-06 0)
(1.69718e-06 2.63776e-06 0)
(2.82611e-06 -9.09197e-06 0)
(1.34125e-05 -2.31674e-05 0)
(3.10811e-05 -3.10782e-05 0)
(5.08588e-05 -3.31462e-05 0)
(6.91455e-05 -3.0471e-05 0)
(8.3381e-05 -2.41455e-05 0)
(9.14804e-05 -1.5097e-05 0)
(9.1802e-05 -4.07011e-06 0)
(8.31132e-05 8.35393e-06 0)
(6.45193e-05 2.1727e-05 0)
(3.53976e-05 3.57046e-05 0)
(-4.65374e-06 5.00204e-05 0)
(-5.58584e-05 6.4467e-05 0)
(-0.000118297 7.8882e-05 0)
(-0.000191935 9.31375e-05 0)
(-0.000276645 0.000107133 0)
(-0.000372225 0.000120787 0)
(-0.00047841 0.000134038 0)
(-0.000594888 0.000146834 0)
(-0.000721306 0.000159136 0)
(-0.000857279 0.000170911 0)
(-0.0010024 0.000182135 0)
(-0.00115623 0.00019279 0)
(-0.00131833 0.000202861 0)
(-0.00148825 0.000212337 0)
(-0.0016655 0.000221213 0)
(-0.00184962 0.000229483 0)
(-0.00204013 0.000237145 0)
(-0.00223654 0.0002442 0)
(-0.00243839 0.000250649 0)
(-0.00264517 0.000256495 0)
(-0.00285642 0.000261744 0)
(-0.00307166 0.000266399 0)
(-0.00329041 0.000270469 0)
(-0.00351221 0.000273959 0)
(-0.0037366 0.000276878 0)
(-0.00396311 0.000279235 0)
(-0.00419131 0.000281037 0)
(-0.00442073 0.000282296 0)
(-0.00465096 0.00028302 0)
(-0.00488155 0.00028322 0)
(-0.0051121 0.000282906 0)
(-0.00534218 0.000282089 0)
(-0.0055714 0.00028078 0)
(-0.00579936 0.00027899 0)
(-0.00602566 0.00027673 0)
(-0.00624995 0.000274012 0)
(-0.00647184 0.000270848 0)
(-0.00669098 0.000267249 0)
(-0.00690702 0.000263227 0)
(-0.00711961 0.000258794 0)
(-0.00732844 0.000253961 0)
(-0.00753318 0.000248741 0)
(-0.00773351 0.000243146 0)
(-0.00792914 0.000237188 0)
(-0.00811977 0.000230879 0)
(-0.00830513 0.000224232 0)
(-0.00848494 0.000217258 0)
(-0.00865894 0.00020997 0)
(-0.00882688 0.00020238 0)
(-0.00898852 0.000194502 0)
(-0.00914362 0.000186346 0)
(-0.00929197 0.000177926 0)
(-0.00943336 0.000169255 0)
(-0.00956758 0.000160344 0)
(-0.00969445 0.000151207 0)
(-0.00981378 0.000141857 0)
(-0.00992541 0.000132306 0)
(-0.0100292 0.000122568 0)
(-0.0101249 0.000112655 0)
(-0.0102126 0.00010258 0)
(-0.0102919 9.23573e-05 0)
(-0.0103629 8.19996e-05 0)
(-0.0104253 7.15203e-05 0)
(-0.0104792 6.09332e-05 0)
(-0.0105244 5.02518e-05 0)
(-0.0105609 3.94899e-05 0)
(-0.0105885 2.86614e-05 0)
(-0.0106074 1.77803e-05 0)
(-0.0106173 6.86068e-06 0)
(-0.0106184 -4.08309e-06 0)
(-0.0106105 -1.50367e-05 0)
(-0.0105937 -2.59855e-05 0)
(-0.010568 -3.6915e-05 0)
(-0.0105334 -4.78104e-05 0)
(-0.0104899 -5.86567e-05 0)
(-0.0104376 -6.9439e-05 0)
(-0.0103766 -8.01421e-05 0)
(-0.0103069 -9.07509e-05 0)
(-0.0102286 -0.00010125 0)
(-0.0101419 -0.000111624 0)
(-0.0100467 -0.000121857 0)
(-0.00994327 -0.000131934 0)
(-0.00983171 -0.00014184 0)
(-0.00971216 -0.000151557 0)
(-0.00958479 -0.000161071 0)
(-0.00944978 -0.000170366 0)
(-0.00930729 -0.000179426 0)
(-0.00915754 -0.000188235 0)
(-0.00900074 -0.000196778 0)
(-0.00883711 -0.000205038 0)
(-0.00866688 -0.000213 0)
(-0.00849031 -0.000220648 0)
(-0.00830766 -0.000227966 0)
(-0.0081192 -0.00023494 0)
(-0.00792522 -0.000241554 0)
(-0.00772602 -0.000247792 0)
(-0.00752192 -0.000253639 0)
(-0.00731323 -0.000259082 0)
(-0.00710029 -0.000264104 0)
(-0.00688345 -0.000268693 0)
(-0.00666306 -0.000272833 0)
(-0.0064395 -0.000276511 0)
(-0.00621315 -0.000279714 0)
(-0.0059844 -0.000282429 0)
(-0.00575364 -0.000284643 0)
(-0.0055213 -0.000286343 0)
(-0.00528778 -0.000287518 0)
(-0.00505352 -0.000288158 0)
(-0.00481897 -0.00028825 0)
(-0.00458455 -0.000287786 0)
(-0.00435073 -0.000286756 0)
(-0.00411797 -0.00028515 0)
(-0.00388673 -0.000282961 0)
(-0.00365749 -0.000280182 0)
(-0.00343073 -0.000276806 0)
(-0.00320692 -0.000272828 0)
(-0.00298655 -0.000268243 0)
(-0.00277012 -0.000263047 0)
(-0.0025581 -0.000257239 0)
(-0.00235099 -0.000250817 0)
(-0.00214927 -0.000243783 0)
(-0.00195345 -0.000236136 0)
(-0.00176399 -0.000227883 0)
(-0.00158137 -0.000219028 0)
(-0.00140608 -0.000209579 0)
(-0.00123857 -0.000199546 0)
(-0.00107928 -0.000188944 0)
(-0.000928668 -0.00017779 0)
(-0.000787141 -0.000166103 0)
(-0.000655099 -0.000153911 0)
(-0.000532916 -0.000141244 0)
(-0.000420932 -0.000128141 0)
(-0.000319453 -0.000114649 0)
(-0.000228736 -0.000100826 0)
(-0.000148989 -8.67408e-05 0)
(-8.03517e-05 -7.24807e-05 0)
(-2.28838e-05 -5.81522e-05 0)
(2.34505e-05 -4.38885e-05 0)
(5.88053e-05 -2.98562e-05 0)
(8.34793e-05 -1.62653e-05 0)
(9.795e-05 -3.38374e-06 0)
(0.000102914 8.4453e-06 0)
(9.93364e-05 1.87802e-05 0)
(8.85112e-05 2.70542e-05 0)
(7.21248e-05 3.25483e-05 0)
(5.22826e-05 3.438e-05 0)
(3.15345e-05 3.15293e-05 0)
(1.34197e-05 2.3024e-05 0)
(2.77824e-06 8.77184e-06 0)
(3.20761e-06 -1.69407e-05 0)
(1.47583e-05 -3.94285e-05 0)
(3.32282e-05 -5.08698e-05 0)
(5.27497e-05 -5.26333e-05 0)
(6.92185e-05 -4.64551e-05 0)
(7.97228e-05 -3.40091e-05 0)
(8.18494e-05 -1.67539e-05 0)
(7.36467e-05 4.09839e-06 0)
(5.36071e-05 2.75675e-05 0)
(2.06027e-05 5.28698e-05 0)
(-2.61768e-05 7.93836e-05 0)
(-8.72759e-05 0.000106615 0)
(-0.000163019 0.000134172 0)
(-0.000253546 0.000161742 0)
(-0.000358849 0.000189073 0)
(-0.000478795 0.000215964 0)
(-0.000613147 0.000242254 0)
(-0.000761588 0.000267813 0)
(-0.000923729 0.000292536 0)
(-0.00109912 0.000316339 0)
(-0.00128728 0.000339155 0)
(-0.00148768 0.000360931 0)
(-0.00169974 0.000381626 0)
(-0.00192291 0.000401206 0)
(-0.00215655 0.000419649 0)
(-0.00240008 0.000436937 0)
(-0.00265284 0.000453058 0)
(-0.00291421 0.000468007 0)
(-0.00318354 0.000481779 0)
(-0.0034602 0.000494377 0)
(-0.00374352 0.000505804 0)
(-0.00403289 0.000516068 0)
(-0.00432764 0.000525177 0)
(-0.00462714 0.000533142 0)
(-0.00493077 0.000539976 0)
(-0.0052379 0.000545694 0)
(-0.0055479 0.00055031 0)
(-0.00586017 0.000553842 0)
(-0.00617411 0.000556307 0)
(-0.00648912 0.000557723 0)
(-0.00680463 0.00055811 0)
(-0.00712005 0.000557489 0)
(-0.00743483 0.000555878 0)
(-0.00774843 0.0005533 0)
(-0.00806029 0.000549776 0)
(-0.0083699 0.000545328 0)
(-0.00867673 0.000539978 0)
(-0.00898029 0.000533748 0)
(-0.00928009 0.000526661 0)
(-0.00957564 0.00051874 0)
(-0.00986649 0.000510009 0)
(-0.0101522 0.00050049 0)
(-0.0104323 0.000490207 0)
(-0.0107063 0.000479184 0)
(-0.010974 0.000467445 0)
(-0.0112348 0.000455013 0)
(-0.0114883 0.000441913 0)
(-0.0117343 0.000428169 0)
(-0.0119724 0.000413805 0)
(-0.0122021 0.000398845 0)
(-0.0124232 0.000383314 0)
(-0.0126354 0.000367237 0)
(-0.0128384 0.000350638 0)
(-0.0130318 0.000333542 0)
(-0.0132154 0.000315974 0)
(-0.0133889 0.00029796 0)
(-0.0135521 0.000279525 0)
(-0.0137048 0.000260693 0)
(-0.0138467 0.000241492 0)
(-0.0139776 0.000221946 0)
(-0.0140974 0.000202082 0)
(-0.0142059 0.000181926 0)
(-0.0143029 0.000161504 0)
(-0.0143883 0.000140842 0)
(-0.0144619 0.000119968 0)
(-0.0145237 9.89094e-05 0)
(-0.0145735 7.76923e-05 0)
(-0.0146112 5.63446e-05 0)
(-0.0146369 3.4894e-05 0)
(-0.0146504 1.33685e-05 0)
(-0.0146517 -8.20372e-06 0)
(-0.0146408 -2.97941e-05 0)
(-0.0146177 -5.13741e-05 0)
(-0.0145824 -7.29146e-05 0)
(-0.014535 -9.43866e-05 0)
(-0.0144754 -0.000115761 0)
(-0.0144038 -0.000137007 0)
(-0.0143202 -0.000158096 0)
(-0.0142248 -0.000178997 0)
(-0.0141176 -0.000199681 0)
(-0.0139988 -0.000220117 0)
(-0.0138685 -0.000240274 0)
(-0.013727 -0.000260121 0)
(-0.0135743 -0.000279628 0)
(-0.0134107 -0.000298764 0)
(-0.0132364 -0.000317498 0)
(-0.0130517 -0.000335798 0)
(-0.0128567 -0.000353634 0)
(-0.0126518 -0.000370975 0)
(-0.0124373 -0.000387789 0)
(-0.0122135 -0.000404045 0)
(-0.0119807 -0.000419713 0)
(-0.0117392 -0.000434762 0)
(-0.0114894 -0.000449161 0)
(-0.0112316 -0.00046288 0)
(-0.0109664 -0.00047589 0)
(-0.010694 -0.000488159 0)
(-0.0104149 -0.00049966 0)
(-0.0101295 -0.000510362 0)
(-0.00983834 -0.000520238 0)
(-0.00954186 -0.00052926 0)
(-0.00924054 -0.000537399 0)
(-0.00893489 -0.000544631 0)
(-0.00862543 -0.000550928 0)
(-0.00831268 -0.000556265 0)
(-0.00799719 -0.000560618 0)
(-0.00767953 -0.000563964 0)
(-0.00736027 -0.000566279 0)
(-0.00703998 -0.000567542 0)
(-0.00671927 -0.000567733 0)
(-0.00639874 -0.000566833 0)
(-0.006079 -0.000564824 0)
(-0.00576069 -0.000561688 0)
(-0.00544442 -0.000557412 0)
(-0.00513085 -0.000551981 0)
(-0.00482061 -0.000545385 0)
(-0.00451437 -0.000537613 0)
(-0.00421277 -0.000528657 0)
(-0.00391647 -0.000518513 0)
(-0.00362613 -0.000507176 0)
(-0.0033424 -0.000494647 0)
(-0.00306595 -0.000480927 0)
(-0.00279743 -0.000466024 0)
(-0.00253748 -0.000449946 0)
(-0.00228674 -0.000432706 0)
(-0.00204583 -0.000414323 0)
(-0.00181537 -0.00039482 0)
(-0.00159596 -0.000374227 0)
(-0.00138816 -0.000352581 0)
(-0.00119252 -0.000329926 0)
(-0.00100957 -0.000306317 0)
(-0.000839772 -0.00028182 0)
(-0.000683572 -0.000256516 0)
(-0.000541348 -0.0002305 0)
(-0.000413421 -0.00020389 0)
(-0.000300032 -0.000176828 0)
(-0.000201339 -0.000149488 0)
(-0.000117386 -0.000122079 0)
(-4.80951e-05 -9.48619e-05 0)
(6.76951e-06 -6.81562e-05 0)
(4.76255e-05 -4.23585e-05 0)
(7.51112e-05 -1.79621e-05 0)
(9.01277e-05 4.4171e-06 0)
(9.38884e-05 2.401e-05 0)
(8.79748e-05 3.98623e-05 0)
(7.43928e-05 5.08087e-05 0)
(5.55838e-05 5.54674e-05 0)
(3.44522e-05 5.22855e-05 0)
(1.50655e-05 3.97089e-05 0)
(3.21536e-06 1.66739e-05 0)
(3.13537e-06 -2.49244e-05 0)
(1.40518e-05 -5.53852e-05 0)
(3.06914e-05 -6.92382e-05 0)
(4.68103e-05 -6.91403e-05 0)
(5.80221e-05 -5.7604e-05 0)
(6.11952e-05 -3.69304e-05 0)
(5.37203e-05 -9.12722e-06 0)
(3.34608e-05 2.41127e-05 0)
(-1.26584e-06 6.13892e-05 0)
(-5.17451e-05 0.000101557 0)
(-0.000118922 0.000143686 0)
(-0.000203448 0.000187022 0)
(-0.00030573 0.000230952 0)
(-0.00042596 0.000274983 0)
(-0.000564156 0.00031871 0)
(-0.000720186 0.000361808 0)
(-0.000893792 0.000404008 0)
(-0.00108462 0.000445096 0)
(-0.00129221 0.000484894 0)
(-0.00151605 0.000523259 0)
(-0.00175556 0.000560075 0)
(-0.00201012 0.000595251 0)
(-0.00227904 0.000628712 0)
(-0.00256163 0.000660399 0)
(-0.00285716 0.000690271 0)
(-0.00316488 0.000718292 0)
(-0.00348402 0.00074444 0)
(-0.0038138 0.000768701 0)
(-0.00415345 0.000791066 0)
(-0.00450216 0.000811534 0)
(-0.00485914 0.000830109 0)
(-0.00522359 0.000846799 0)
(-0.00559473 0.000861616 0)
(-0.00597177 0.000874576 0)
(-0.00635392 0.000885698 0)
(-0.00674041 0.000895002 0)
(-0.00713046 0.000902514 0)
(-0.00752332 0.000908258 0)
(-0.00791824 0.000912262 0)
(-0.00831448 0.000914555 0)
(-0.0087113 0.000915168 0)
(-0.00910801 0.000914132 0)
(-0.00950389 0.000911479 0)
(-0.00989826 0.000907244 0)
(-0.0102904 0.000901461 0)
(-0.0106798 0.000894165 0)
(-0.0110656 0.000885392 0)
(-0.0114473 0.000875177 0)
(-0.0118243 0.000863559 0)
(-0.0121959 0.000850574 0)
(-0.0125616 0.000836259 0)
(-0.0129209 0.000820653 0)
(-0.0132731 0.000803794 0)
(-0.0136177 0.000785721 0)
(-0.0139542 0.000766473 0)
(-0.0142821 0.000746088 0)
(-0.0146009 0.000724606 0)
(-0.0149102 0.000702066 0)
(-0.0152095 0.000678509 0)
(-0.0154984 0.000653974 0)
(-0.0157764 0.000628501 0)
(-0.0160431 0.000602132 0)
(-0.0162983 0.000574906 0)
(-0.0165414 0.000546864 0)
(-0.0167722 0.000518048 0)
(-0.0169903 0.000488499 0)
(-0.0171955 0.000458259 0)
(-0.0173874 0.000427369 0)
(-0.0175658 0.000395872 0)
(-0.0177304 0.00036381 0)
(-0.0178809 0.000331226 0)
(-0.0180172 0.000298162 0)
(-0.0181391 0.000264664 0)
(-0.0182463 0.000230773 0)
(-0.0183388 0.000196535 0)
(-0.0184163 0.000161994 0)
(-0.0184788 0.000127194 0)
(-0.0185262 9.21816e-05 0)
(-0.0185583 5.70014e-05 0)
(-0.0185752 2.16997e-05 0)
(-0.0185767 -1.36771e-05 0)
(-0.0185629 -4.90822e-05 0)
(-0.0185337 -8.44685e-05 0)
(-0.0184892 -0.000119788 0)
(-0.0184294 -0.000154994 0)
(-0.0183544 -0.000190037 0)
(-0.0182643 -0.000224869 0)
(-0.0181591 -0.000259441 0)
(-0.018039 -0.000293703 0)
(-0.0179041 -0.000327606 0)
(-0.0177546 -0.0003611 0)
(-0.0175908 -0.000394136 0)
(-0.0174127 -0.000426661 0)
(-0.0172207 -0.000458627 0)
(-0.0170149 -0.000489983 0)
(-0.0167957 -0.000520676 0)
(-0.0165634 -0.000550658 0)
(-0.0163183 -0.000579877 0)
(-0.0160607 -0.000608282 0)
(-0.0157911 -0.000635822 0)
(-0.0155097 -0.000662447 0)
(-0.015217 -0.000688106 0)
(-0.0149134 -0.00071275 0)
(-0.0145994 -0.000736328 0)
(-0.0142754 -0.000758791 0)
(-0.013942 -0.00078009 0)
(-0.0135996 -0.000800177 0)
(-0.0132489 -0.000819004 0)
(-0.0128902 -0.000836524 0)
(-0.0125243 -0.000852691 0)
(-0.0121517 -0.000867459 0)
(-0.011773 -0.000880785 0)
(-0.0113889 -0.000892624 0)
(-0.011 -0.000902935 0)
(-0.010607 -0.000911677 0)
(-0.0102105 -0.000918811 0)
(-0.00981125 -0.000924298 0)
(-0.00940999 -0.000928104 0)
(-0.00900743 -0.000930192 0)
(-0.00860431 -0.000930531 0)
(-0.00820139 -0.00092909 0)
(-0.00779943 -0.000925841 0)
(-0.00739921 -0.000920757 0)
(-0.00700153 -0.000913816 0)
(-0.00660716 -0.000904997 0)
(-0.00621693 -0.000894282 0)
(-0.00583163 -0.000881657 0)
(-0.00545208 -0.00086711 0)
(-0.0050791 -0.000850635 0)
(-0.00471349 -0.000832229 0)
(-0.00435607 -0.000811892 0)
(-0.00400765 -0.000789632 0)
(-0.00366902 -0.000765461 0)
(-0.003341 -0.000739396 0)
(-0.00302435 -0.000711464 0)
(-0.00271984 -0.000681697 0)
(-0.00242822 -0.000650137 0)
(-0.00215021 -0.000616837 0)
(-0.0018865 -0.000581861 0)
(-0.00163775 -0.000545287 0)
(-0.00140459 -0.00050721 0)
(-0.00118757 -0.000467742 0)
(-0.000987218 -0.000427019 0)
(-0.000803971 -0.000385205 0)
(-0.000638194 -0.000342494 0)
(-0.00049016 -0.000299122 0)
(-0.000360029 -0.000255373 0)
(-0.000247831 -0.000211587 0)
(-0.000153444 -0.00016818 0)
(-7.65646e-05 -0.000125657 0)
(-1.66798e-05 -8.46328e-05 0)
(2.69724e-05 -4.58596e-05 0)
(5.54411e-05 -1.02563e-05 0)
(7.01089e-05 2.10561e-05 0)
(7.27436e-05 4.67185e-05 0)
(6.55493e-05 6.51052e-05 0)
(5.11762e-05 7.43153e-05 0)
(3.27629e-05 7.22066e-05 0)
(1.46899e-05 5.64963e-05 0)
(3.20388e-06 2.48796e-05 0)
(2.77388e-06 -3.21036e-05 0)
(1.1867e-05 -6.90769e-05 0)
(2.45655e-05 -8.36659e-05 0)
(3.47082e-05 -7.98078e-05 0)
(3.78456e-05 -6.08433e-05 0)
(3.07309e-05 -2.97291e-05 0)
(1.06569e-05 1.09705e-05 0)
(-2.46072e-05 5.90781e-05 0)
(-7.68402e-05 0.000112768 0)
(-0.000147421 0.000170523 0)
(-0.000237381 0.000231088 0)
(-0.000347443 0.000293427 0)
(-0.000478069 0.000356689 0)
(-0.000629492 0.000420174 0)
(-0.000801746 0.000483306 0)
(-0.000994703 0.000545609 0)
(-0.00120809 0.000606694 0)
(-0.00144151 0.00066624 0)
(-0.00169447 0.000723982 0)
(-0.00196638 0.000779705 0)
(-0.00225659 0.000833231 0)
(-0.00256439 0.000884419 0)
(-0.00288902 0.000933152 0)
(-0.00322965 0.00097934 0)
(-0.00358546 0.00102291 0)
(-0.00395557 0.00106381 0)
(-0.0043391 0.001102 0)
(-0.00473513 0.00113745 0)
(-0.00514276 0.00117014 0)
(-0.00556106 0.00120008 0)
(-0.00598909 0.00122726 0)
(-0.00642593 0.00125168 0)
(-0.00687063 0.00127337 0)
(-0.00732228 0.00129234 0)
(-0.00777995 0.00130863 0)
(-0.00824272 0.00132225 0)
(-0.00870967 0.00133324 0)
(-0.00917993 0.00134163 0)
(-0.00965258 0.00134747 0)
(-0.0101268 0.0013508 0)
(-0.0106016 0.00135166 0)
(-0.0110763 0.00135009 0)
(-0.0115499 0.00134614 0)
(-0.0120217 0.00133986 0)
(-0.0124909 0.0013313 0)
(-0.0129566 0.00132051 0)
(-0.0134182 0.00130754 0)
(-0.0138748 0.00129245 0)
(-0.0143257 0.00127528 0)
(-0.0147702 0.0012561 0)
(-0.0152077 0.00123496 0)
(-0.0156373 0.00121191 0)
(-0.0160585 0.00118701 0)
(-0.0164707 0.00116031 0)
(-0.0168732 0.00113188 0)
(-0.0172654 0.00110178 0)
(-0.0176467 0.00107005 0)
(-0.0180166 0.00103675 0)
(-0.0183745 0.00100196 0)
(-0.0187199 0.000965715 0)
(-0.0190524 0.000928088 0)
(-0.0193714 0.000889136 0)
(-0.0196765 0.000848917 0)
(-0.0199672 0.000807494 0)
(-0.0202432 0.000764926 0)
(-0.020504 0.000721275 0)
(-0.0207493 0.000676602 0)
(-0.0209788 0.000630969 0)
(-0.021192 0.00058444 0)
(-0.0213887 0.000537077 0)
(-0.0215687 0.000488942 0)
(-0.0217316 0.000440101 0)
(-0.0218772 0.000390617 0)
(-0.0220054 0.000340555 0)
(-0.0221158 0.000289981 0)
(-0.0222084 0.00023896 0)
(-0.0222831 0.000187559 0)
(-0.0223396 0.000135844 0)
(-0.0223779 8.38845e-05 0)
(-0.0223979 3.17469e-05 0)
(-0.0223996 -2.04997e-05 0)
(-0.0223829 -7.27859e-05 0)
(-0.0223479 -0.000125042 0)
(-0.0222945 -0.000177198 0)
(-0.0222229 -0.000229183 0)
(-0.0221331 -0.000280925 0)
(-0.0220251 -0.000332353 0)
(-0.0218992 -0.000383394 0)
(-0.0217555 -0.000433975 0)
(-0.0215941 -0.000484023 0)
(-0.0214152 -0.000533465 0)
(-0.0212192 -0.000582227 0)
(-0.0210061 -0.000630233 0)
(-0.0207764 -0.000677411 0)
(-0.0205303 -0.000723684 0)
(-0.0202682 -0.000768979 0)
(-0.0199904 -0.000813221 0)
(-0.0196972 -0.000856333 0)
(-0.0193892 -0.000898243 0)
(-0.0190667 -0.000938874 0)
(-0.0187302 -0.000978153 0)
(-0.0183802 -0.001016 0)
(-0.0180172 -0.00105236 0)
(-0.0176418 -0.00108714 0)
(-0.0172545 -0.00112027 0)
(-0.0168558 -0.00115168 0)
(-0.0164465 -0.00118131 0)
(-0.0160272 -0.00120908 0)
(-0.0155984 -0.00123492 0)
(-0.015161 -0.00125876 0)
(-0.0147155 -0.00128055 0)
(-0.0142628 -0.00130021 0)
(-0.0138036 -0.00131768 0)
(-0.0133386 -0.0013329 0)
(-0.0128687 -0.0013458 0)
(-0.0123947 -0.00135635 0)
(-0.0119173 -0.00136447 0)
(-0.0114375 -0.00137011 0)
(-0.0109562 -0.00137324 0)
(-0.0104741 -0.00137379 0)
(-0.00999218 -0.00137173 0)
(-0.00951139 -0.00136701 0)
(-0.00903262 -0.00135961 0)
(-0.0085568 -0.00134947 0)
(-0.00808488 -0.00133659 0)
(-0.00761781 -0.00132093 0)
(-0.00715653 -0.00130247 0)
(-0.00670201 -0.00128121 0)
(-0.0062552 -0.00125712 0)
(-0.00581707 -0.00123022 0)
(-0.00538856 -0.0012005 0)
(-0.00497064 -0.00116798 0)
(-0.00456423 -0.00113268 0)
(-0.00417026 -0.00109463 0)
(-0.00378965 -0.00105388 0)
(-0.00342329 -0.00101047 0)
(-0.00307204 -0.000964465 0)
(-0.00273674 -0.000915959 0)
(-0.00241819 -0.000865047 0)
(-0.00211714 -0.000811849 0)
(-0.00183431 -0.000756509 0)
(-0.00157033 -0.0006992 0)
(-0.00132578 -0.000640127 0)
(-0.00110117 -0.000579533 0)
(-0.000896894 -0.000517709 0)
(-0.000713243 -0.000455001 0)
(-0.000550382 -0.000391823 0)
(-0.00040833 -0.000328669 0)
(-0.00028693 -0.000266131 0)
(-0.00018583 -0.00020492 0)
(-0.000104446 -0.000145893 0)
(-4.19317e-05 -9.00779e-05 0)
(2.85986e-06 -3.87135e-05 0)
(3.14159e-05 6.71714e-06 0)
(4.56121e-05 4.44452e-05 0)
(4.77617e-05 7.23807e-05 0)
(4.06311e-05 8.80899e-05 0)
(2.7494e-05 8.88042e-05 0)
(1.28351e-05 7.14436e-05 0)
(2.90091e-06 3.24546e-05 0)
(2.23017e-06 -3.78376e-05 0)
(8.64221e-06 -7.89922e-05 0)
(1.57698e-05 -9.21092e-05 0)
(1.78842e-05 -8.22656e-05 0)
(1.06618e-05 -5.36089e-05 0)
(-9.16077e-06 -9.7443e-06 0)
(-4.43081e-05 4.62143e-05 0)
(-9.7033e-05 0.000111612 0)
(-0.000169147 0.000184203 0)
(-0.00026207 0.000262094 0)
(-0.000376872 0.000343702 0)
(-0.000514317 0.000427702 0)
(-0.000674896 0.00051299 0)
(-0.000858861 0.000598645 0)
(-0.00106626 0.000683904 0)
(-0.00129695 0.000768128 0)
(-0.00155065 0.000850788 0)
(-0.00182693 0.000931445 0)
(-0.00212525 0.00100973 0)
(-0.00244498 0.00108535 0)
(-0.00278539 0.00115805 0)
(-0.00314569 0.00122763 0)
(-0.00352505 0.00129392 0)
(-0.00392254 0.00135679 0)
(-0.00433724 0.00141614 0)
(-0.00476818 0.00147188 0)
(-0.00521435 0.00152395 0)
(-0.00567472 0.00157231 0)
(-0.00614828 0.00161693 0)
(-0.00663396 0.0016578 0)
(-0.00713072 0.00169491 0)
(-0.00763748 0.00172828 0)
(-0.0081532 0.00175791 0)
(-0.00867681 0.00178382 0)
(-0.00920726 0.00180606 0)
(-0.00974351 0.00182466 0)
(-0.0102845 0.00183965 0)
(-0.0108292 0.0018511 0)
(-0.0113766 0.00185903 0)
(-0.0119258 0.00186352 0)
(-0.0124756 0.00186461 0)
(-0.0130252 0.00186237 0)
(-0.0135735 0.00185686 0)
(-0.0141197 0.00184815 0)
(-0.0146628 0.0018363 0)
(-0.0152018 0.00182138 0)
(-0.015736 0.00180347 0)
(-0.0162645 0.00178263 0)
(-0.0167863 0.00175893 0)
(-0.0173008 0.00173246 0)
(-0.017807 0.00170328 0)
(-0.0183042 0.00167148 0)
(-0.0187916 0.00163712 0)
(-0.0192686 0.00160029 0)
(-0.0197343 0.00156107 0)
(-0.0201881 0.00151953 0)
(-0.0206293 0.00147575 0)
(-0.0210572 0.00142982 0)
(-0.0214714 0.00138182 0)
(-0.021871 0.00133182 0)
(-0.0222557 0.00127991 0)
(-0.0226247 0.00122617 0)
(-0.0229777 0.00117069 0)
(-0.023314 0.00111354 0)
(-0.0236332 0.00105481 0)
(-0.0239349 0.000994588 0)
(-0.0242187 0.000932957 0)
(-0.0244841 0.000870003 0)
(-0.0247307 0.000805811 0)
(-0.0249582 0.00074047 0)
(-0.0251663 0.000674065 0)
(-0.0253547 0.000606687 0)
(-0.0255231 0.000538423 0)
(-0.0256712 0.000469363 0)
(-0.0257989 0.000399598 0)
(-0.0259059 0.000329218 0)
(-0.0259921 0.000258316 0)
(-0.0260573 0.000186984 0)
(-0.0261015 0.000115315 0)
(-0.0261245 4.34042e-05 0)
(-0.0261263 -2.86549e-05 0)
(-0.0261069 -0.000100766 0)
(-0.0260662 -0.000172833 0)
(-0.0260044 -0.000244759 0)
(-0.0259214 -0.000316445 0)
(-0.0258173 -0.000387794 0)