/*--------------------------------*- C++ -*----------------------------------*\
  =========                 |
  \\      /  F ield         | OpenFOAM: The Open Source CFD Toolbox
   \\    /   O peration     | Website:  https://openfoam.org
    \\  /    A nd           | Version:  7
     \\/     M anipulation  |
\*---------------------------------------------------------------------------*/
FoamFile
{
    version     2.0;
    format      ascii;
    class       surfaceScalarField;
    location    "0.0125";
    object      phi;
}
// * * * * * * * * * * * * * * * * * * * * * * * * * * * * * * * * * * * * * //

dimensions      [0 3 -1 0 0 0 0];

internalField   nonuniform List<scalar> 
50880
(
2.50023e-11
-2.49968e-11
3.99724e-09
-3.97222e-09
1.47372e-08
-1.074e-08
2.93839e-08
-1.46466e-08
4.51079e-08
-1.5724e-08
6.01171e-08
-1.50092e-08
7.3305e-08
-1.31879e-08
8.41787e-08
-1.08737e-08
9.25443e-08
-8.36565e-09
9.84968e-08
-5.95244e-09
1.02235e-07
-3.73849e-09
1.04017e-07
-1.78184e-09
1.04131e-07
-1.13819e-10
1.02865e-07
1.26555e-09
1.00486e-07
2.37971e-09
9.72649e-08
3.22081e-09
9.34081e-08
3.8568e-09
8.91162e-08
4.29182e-09
8.45227e-08
4.59355e-09
7.97862e-08
4.73652e-09
7.50127e-08
4.77342e-09
7.02692e-08
4.74353e-09
6.56636e-08
4.60561e-09
6.12457e-08
4.41792e-09
5.70967e-08
4.14902e-09
5.31862e-08
3.91044e-09
4.95708e-08
3.6154e-09
4.62185e-08
3.35234e-09
4.3166e-08
3.05252e-09
4.03114e-08
2.85456e-09
3.76874e-08
2.62404e-09
3.52525e-08
2.43489e-09
3.29872e-08
2.26529e-09
3.08494e-08
2.13777e-09
2.88167e-08
2.03268e-09
2.68724e-08
1.9443e-09
2.50041e-08
1.86837e-09
2.3199e-08
1.80503e-09
2.1458e-08
1.741e-09
1.98208e-08
1.63725e-09
1.83014e-08
1.5194e-09
1.68745e-08
1.4269e-09
1.55582e-08
1.31627e-09
1.4393e-08
1.16519e-09
1.33957e-08
9.97396e-10
1.25624e-08
8.33261e-10
1.18955e-08
6.66925e-10
1.13961e-08
4.99374e-10
1.10366e-08
3.59512e-10
1.08039e-08
2.32665e-10
1.07029e-08
1.01099e-10
1.07242e-08
-2.13729e-11
1.08471e-08
-1.2292e-10
1.10524e-08
-2.05259e-10
1.13317e-08
-2.79281e-10
1.16669e-08
-3.35275e-10
1.2033e-08
-3.66037e-10
1.24133e-08
-3.80351e-10
1.27943e-08
-3.80951e-10
1.31532e-08
-3.589e-10
1.3456e-08
-3.02806e-10
1.36816e-08
-2.256e-10
1.38277e-08
-1.46057e-10
1.38853e-08
-5.76289e-11
1.38404e-08
4.48752e-11
1.36881e-08
1.5235e-10
1.34286e-08
2.59496e-10
1.3056e-08
3.72595e-10
1.2557e-08
4.99019e-10
1.19242e-08
6.328e-10
1.11596e-08
7.64565e-10
1.02674e-08
8.92192e-10
9.25052e-09
1.01687e-09
8.11299e-09
1.13753e-09
6.87258e-09
1.24041e-09
5.55919e-09
1.3134e-09
4.18942e-09
1.36978e-09
2.76793e-09
1.4215e-09
1.30903e-09
1.4589e-09
-1.68706e-10
1.47774e-09
-1.64889e-09
1.48019e-09
-3.11141e-09
1.46253e-09
-4.54413e-09
1.43272e-09
-5.94303e-09
1.3989e-09
-7.28857e-09
1.34554e-09
-8.55564e-09
1.26706e-09
-9.7412e-09
1.18555e-09
-1.08482e-08
1.10702e-09
-1.18662e-08
1.01795e-09
-1.27902e-08
9.24034e-10
-1.36251e-08
8.34928e-10
-1.43631e-08
7.38003e-10
-1.49919e-08
6.28772e-10
-1.55138e-08
5.21902e-10
-1.59268e-08
4.1303e-10
-1.62111e-08
2.84311e-10
-1.63593e-08
1.48209e-10
-1.63901e-08
3.07422e-11
-1.63185e-08
-7.15665e-11
-1.61451e-08
-1.73445e-10
-1.58799e-08
-2.65178e-10
-1.55472e-08
-3.32727e-10
-1.51615e-08
-3.85643e-10
-1.47246e-08
-4.36904e-10
-1.42403e-08
-4.84299e-10
-1.37106e-08
-5.29687e-10
-1.31246e-08
-5.86072e-10
-1.24715e-08
-6.53117e-10
-1.17565e-08
-7.14955e-10
-1.09862e-08
-7.70333e-10
-1.01495e-08
-8.3663e-10
-9.23155e-09
-9.17976e-10
-8.2353e-09
-9.9624e-10
-7.17564e-09
-1.05967e-09
-6.05915e-09
-1.11649e-09
-4.88541e-09
-1.17375e-09
-3.66215e-09
-1.22327e-09
-2.4064e-09
-1.25574e-09
-1.13419e-09
-1.2722e-09
1.3938e-10
-1.27357e-09
1.3914e-09
-1.25202e-09
2.59394e-09
-1.20254e-09
3.72671e-09
-1.13278e-09
4.77862e-09
-1.05192e-09
5.73708e-09
-9.5845e-10
6.587e-09
-8.49918e-10
7.32462e-09
-7.37627e-10
7.96437e-09
-6.39752e-10
8.52663e-09
-5.62263e-10
9.02472e-09
-4.98096e-10
9.46759e-09
-4.42866e-10
9.87034e-09
-4.0275e-10
1.02553e-08
-3.85018e-10
1.06412e-08
-3.8588e-10
1.10342e-08
-3.92952e-10
1.14336e-08
-3.99394e-10
1.18377e-08
-4.04115e-10
1.22362e-08
-3.98466e-10
1.2605e-08
-3.68832e-10
1.29114e-08
-3.06438e-10
1.31194e-08
-2.07934e-10
1.31985e-08
-7.91796e-11
1.31271e-08
7.14091e-11
1.28845e-08
2.42654e-10
1.24585e-08
4.25932e-10
1.18501e-08
6.0844e-10
1.10621e-08
7.88048e-10
1.01059e-08
9.56166e-10
9.00496e-09
1.10093e-09
7.78675e-09
1.21821e-09
6.48831e-09
1.29845e-09
5.14995e-09
1.33835e-09
3.80921e-09
1.34074e-09
2.50908e-09
1.30014e-09
1.303e-09
1.20608e-09
2.65188e-10
1.03781e-09
-4.9778e-10
7.62971e-10
-8.09845e-10
3.12073e-10
-4.94285e-10
-3.15556e-10
-4.94286e-10
-3.82939e-09
3.80441e-09
-3.7109e-09
-4.09073e-09
6.02621e-09
-2.04771e-08
2.21009e-08
-3.07213e-08
4.09507e-08
-3.45739e-08
6.00517e-08
-3.41101e-08
7.78025e-08
-3.09387e-08
9.3249e-08
-2.63202e-08
1.05967e-07
-2.10837e-08
1.15808e-07
-1.57933e-08
1.22858e-07
-1.07881e-08
1.27334e-07
-6.25868e-09
1.29531e-07
-2.31075e-09
1.29761e-07
1.03611e-09
1.2836e-07
3.78094e-09
1.25606e-07
5.97399e-09
1.21818e-07
7.6456e-09
1.17213e-07
8.896e-09
1.12057e-07
9.74974e-09
1.0648e-07
1.03137e-08
1.00687e-07
1.05664e-08
9.48329e-08
1.05976e-08
8.90135e-08
1.0425e-08
8.3326e-08
1.01054e-08
7.78322e-08
9.6428e-09
7.25846e-08
9.158e-09
6.76301e-08
8.56991e-09
6.29587e-08
8.02375e-09
5.85504e-08
7.46088e-09
5.44546e-08
6.95037e-09
5.06157e-08
6.46297e-09
4.69976e-08
6.05291e-09
4.35898e-08
5.67315e-09
4.0377e-08
5.3505e-09
3.7313e-08
5.09674e-09
3.4388e-08
4.86931e-09
3.15832e-08
4.67313e-09
2.88872e-08
4.50104e-09
2.63256e-08
4.30257e-09
2.38969e-08
4.06596e-09
2.15975e-08
3.81884e-09
1.94628e-08
3.56155e-09
1.75195e-08
3.25959e-09
1.57578e-08
2.92682e-09
1.41747e-08
2.58055e-09
1.28008e-08
2.20711e-09
1.16449e-08
1.82285e-09
1.06873e-08
1.45695e-09
9.92154e-09
1.12527e-09
9.3464e-09
8.078e-10
8.94869e-09
4.98824e-10
8.6994e-09
2.27929e-10
8.5808e-09
-4.32222e-12
8.58271e-09
-2.07151e-10
8.68057e-09
-3.77121e-10
8.84784e-09
-5.02562e-10
9.0627e-09
-5.80895e-10
9.30519e-09
-6.22838e-10
9.54416e-09
-6.19924e-10
9.74387e-09
-5.58621e-10
9.88479e-09
-4.43716e-10
9.94931e-09
-2.90119e-10
9.91244e-09
-1.09199e-10
9.75498e-09
9.98321e-11
9.4648e-09
3.35054e-10
9.03509e-09
5.82061e-10
8.46174e-09
8.32839e-10
7.73789e-09
1.09645e-09
6.85501e-09
1.38192e-09
5.80915e-09
1.67867e-09
4.59992e-09
1.97382e-09
3.22662e-09
2.26551e-09
1.69716e-09
2.54633e-09
3.13137e-11
2.80338e-09
-1.75264e-09
3.02435e-09
-3.63618e-09
3.19694e-09
-5.59467e-09
3.32826e-09
-7.60967e-09
3.43649e-09
-9.66427e-09
3.51351e-09
-1.17301e-08
3.54354e-09
-1.3786e-08
3.53607e-09
-1.58237e-08
3.50026e-09
-1.78214e-08
3.43046e-09
-1.97509e-08
3.32835e-09
-2.16014e-08
3.19604e-09
-2.33608e-08
3.02647e-09
-2.50037e-08
2.82853e-09
-2.65216e-08
2.62485e-09
-2.79207e-08
2.41706e-09
-2.91892e-08
2.1926e-09
-3.03093e-08
1.95499e-09
-3.1285e-08
1.71369e-09
-3.21194e-08
1.46322e-09
-3.27927e-08
1.1952e-09
-3.32912e-08
9.11525e-10
-3.3624e-08
6.17125e-10
-3.37948e-08
3.19003e-10
-3.37963e-08
3.22741e-11
-3.36388e-08
-2.29139e-10
-3.33481e-08
-4.64081e-10
-3.29372e-08
-6.76095e-10
-3.24077e-08
-8.62262e-10
-3.17732e-08
-1.02012e-09
-3.10516e-08
-1.15852e-09
-3.02428e-08
-1.29315e-09
-2.93381e-08
-1.43436e-09
-2.83407e-08
-1.58346e-09
-2.72562e-08
-1.73763e-09
-2.60757e-08
-1.89541e-09
-2.47878e-08
-2.05823e-09
-2.33966e-08
-2.22787e-09
-2.19124e-08
-2.40223e-09
-2.03341e-08
-2.57445e-09
-1.86574e-08
-2.73641e-09
-1.68917e-08
-2.88219e-09
-1.50569e-08
-3.00851e-09
-1.3167e-08
-3.11317e-09
-1.12307e-08
-3.19205e-09
-9.26599e-09
-3.23693e-09
-7.30189e-09
-3.23766e-09
-5.36598e-09
-3.18792e-09
-3.47934e-09
-3.08919e-09
-1.66377e-09
-2.94835e-09
5.63248e-11
-2.77202e-09
1.66375e-09
-2.56588e-09
3.15421e-09
-2.34037e-09
4.52924e-09
-2.11266e-09
5.78891e-09
-1.89943e-09
6.93653e-09
-1.7099e-09
7.98686e-09
-1.54843e-09
8.96347e-09
-1.41948e-09
9.88619e-09
-1.32547e-09
1.07651e-08
-1.26393e-09
1.16069e-08
-1.2277e-09
1.24196e-08
-1.20559e-09
1.3207e-08
-1.18685e-09
1.39633e-08
-1.16038e-09
1.46703e-08
-1.1055e-09
1.53009e-08
-9.99449e-10
1.58247e-08
-8.30176e-10
1.62088e-08
-5.92047e-10
1.64192e-08
-2.89647e-10
1.64283e-08
6.23339e-11
1.6216e-08
4.54944e-10
1.57683e-08
8.73679e-10
1.50808e-08
1.2959e-09
1.41582e-08
1.71063e-09
1.30136e-08
2.10075e-09
1.16733e-08
2.44125e-09
1.01712e-08
2.72038e-09
8.54346e-09
2.92615e-09
6.83227e-09
3.04954e-09
5.08678e-09
3.08622e-09
3.36742e-09
3.01949e-09
1.75379e-09
2.81972e-09
3.56393e-10
2.4352e-09
-6.66608e-10
1.78596e-09
-1.0802e-09
7.25667e-10
-6.62196e-10
-7.33558e-10
-1.15648e-09
-1.05688e-08
1.43732e-08
-2.00623e-08
5.40281e-09
-1.99497e-08
-2.05897e-08
-1.31208e-08
-3.75502e-08
-2.71972e-09
-4.4975e-08
9.22983e-09
-4.60597e-08
2.1427e-08
-4.31359e-08
3.29592e-08
-3.78525e-08
4.32789e-08
-3.14033e-08
5.20935e-08
-2.46079e-08
5.92837e-08
-1.79783e-08
6.48531e-08
-1.18281e-08
6.88548e-08
-6.31251e-09
7.14542e-08
-1.56329e-09
7.27863e-08
2.44888e-09
7.30276e-08
5.73271e-09
7.23412e-08
8.33202e-09
7.0875e-08
1.03621e-08
6.87896e-08
1.18352e-08
6.62514e-08
1.28518e-08
6.33424e-08
1.34754e-08
6.01905e-08
1.37495e-08
5.68495e-08
1.37661e-08
5.34559e-08
1.3499e-08
5.00037e-08
1.3095e-08
4.66214e-08
1.25403e-08
4.32286e-08
1.19627e-08
3.99806e-08
1.12717e-08
3.67957e-08
1.06458e-08
3.37542e-08
9.9918e-09
3.07843e-08
9.43296e-09
2.79666e-08
8.87063e-09
2.52539e-08
8.38584e-09
2.26329e-08
7.97145e-09
2.01203e-08
7.60937e-09
1.77015e-08
7.28812e-09
1.53821e-08
6.9925e-09
1.31639e-08
6.71918e-09
1.10368e-08
6.42972e-09
8.99812e-09
6.10465e-09
7.06106e-09
5.75589e-09
5.23679e-09
5.38582e-09
3.51549e-09
4.98091e-09
1.91177e-09
4.53057e-09
4.41111e-10
4.05121e-09
-9.04704e-10
3.55293e-09
-2.13285e-09
3.05102e-09
-3.24179e-09
2.56588e-09
-4.21862e-09
2.10209e-09
-5.0742e-09
1.66339e-09
-5.82601e-09
1.25063e-09
-6.47578e-09
8.77673e-10
-7.02938e-09
5.49279e-10
-7.5012e-09
2.6467e-10
-7.91304e-09
3.47159e-11
-8.27491e-09
-1.40697e-10
-8.59592e-09
-2.59877e-10
-8.89691e-09
-3.21853e-10
-9.19313e-09
-3.23709e-10
-9.50092e-09
-2.50825e-10
-9.83337e-09
-1.11261e-10
-1.01993e-08
7.58234e-11
-1.06161e-08
3.07544e-10
-1.10955e-08
5.79333e-10
-1.16427e-08
8.82258e-10
-1.22666e-08
1.20593e-09
-1.29758e-08
1.542e-09
-1.37752e-08
1.89591e-09
-1.46638e-08
2.27048e-09
-1.56384e-08
2.65323e-09
-1.66994e-08
3.03487e-09
-1.78447e-08
3.41083e-09
-1.9069e-08
3.77061e-09
-2.03633e-08
4.09769e-09
-2.17141e-08
4.37513e-09
-2.31144e-08
4.59728e-09
-2.45577e-08
4.7715e-09
-2.60233e-08
4.90213e-09
-2.74953e-08
4.98554e-09
-2.89693e-08
5.01752e-09
-3.0429e-08
4.99575e-09
-3.18546e-08
4.92592e-09
-3.32427e-08
4.81854e-09
-3.45832e-08
4.66881e-09
-3.58517e-08
4.46455e-09
-3.70413e-08
4.21607e-09
-3.81572e-08
3.94442e-09
-3.91839e-08
3.65161e-09
-4.01014e-08
3.33458e-09
-4.09127e-08
3.00385e-09
-4.16215e-08
2.66377e-09
-4.22129e-08
2.30519e-09
-4.26782e-08
1.92845e-09
-4.30245e-08
1.54156e-09
-4.32528e-08
1.13973e-09
-4.33548e-08
7.19212e-10
-4.33348e-08
2.98966e-10
-4.32036e-08
-9.89194e-11
-4.29602e-08
-4.726e-10
-4.26002e-08
-8.24062e-10
-4.21334e-08
-1.1428e-09
-4.15727e-08
-1.423e-09
-4.0917e-08
-1.6758e-09
-4.01623e-08
-1.91323e-09
-3.93161e-08
-2.13939e-09
-3.83883e-08
-2.36213e-09
-3.73783e-08
-2.59345e-09
-3.62819e-08
-2.83408e-09
-3.51024e-08
-3.07483e-09
-3.38459e-08
-3.31475e-09
-3.2512e-08
-3.56173e-09
-3.11002e-08
-3.81412e-09
-2.96176e-08
-4.05706e-09
-2.80748e-08
-4.27921e-09
-2.64767e-08
-4.4802e-09
-2.48261e-08
-4.65913e-09
-2.31324e-08
-4.80687e-09
-2.14119e-08
-4.91259e-09
-1.96787e-08
-4.97012e-09
-1.79415e-08
-4.97483e-09
-1.62089e-08
-4.92049e-09
-1.4494e-08
-4.80409e-09
-1.28109e-08
-4.63149e-09
-1.1169e-08
-4.41397e-09
-9.57339e-09
-4.16144e-09
-8.02981e-09
-3.88395e-09
-6.54476e-09
-3.59772e-09
-5.12167e-09
-3.32251e-09
-3.75958e-09
-3.07198e-09
-2.45636e-09
-2.85167e-09
-1.21062e-09
-2.66523e-09
-2.06112e-11
-2.51548e-09
1.11617e-09
-2.40071e-09
2.20126e-09
-2.31279e-09
3.2327e-09
-2.23703e-09
4.20397e-09
-2.15812e-09
5.1064e-09
-2.06282e-09
5.93166e-09
-1.93077e-09
6.67045e-09
-1.73823e-09
7.31099e-09
-1.47071e-09
7.83953e-09
-1.12059e-09
8.24171e-09
-6.91833e-10
8.50509e-09
-2.01036e-10
8.62083e-09
3.39198e-10
8.58177e-09
9.12736e-10
8.38192e-09
1.49576e-09
8.02186e-09
2.07069e-09
7.50763e-09
2.61499e-09
6.84671e-09
3.10216e-09
6.05148e-09
3.51561e-09
5.13636e-09
3.84127e-09
4.12112e-09
4.06477e-09
3.03755e-09
4.16979e-09
1.92669e-09
4.13036e-09
8.46988e-10
3.89943e-09
-1.15037e-10
3.39724e-09
-8.22619e-10
2.49355e-09
-1.06071e-09
9.63761e-10
-6.18147e-10
-1.17611e-09
-1.77463e-09
-1.45002e-08
2.88733e-08
-3.03703e-08
2.12729e-08
-3.70151e-08
-1.39449e-08
-3.69393e-08
-3.76259e-08
-3.29559e-08
-4.89584e-08
-2.6736e-08
-5.22796e-08
-1.94223e-08
-5.04496e-08
-1.17338e-08
-4.5541e-08
-4.14444e-09
-3.89927e-08
2.93853e-09
-3.16909e-08
9.33077e-09
-2.43705e-08
1.49044e-08
-1.74018e-08
1.96163e-08
-1.10244e-08
2.3435e-08
-5.38199e-09
2.64037e-08
-5.19844e-10
2.85724e-08
3.564e-09
3.00061e-08
6.89837e-09
3.08085e-08
9.55975e-09
3.10242e-08
1.16194e-08
3.07537e-08
1.31223e-08
3.00524e-08
1.41767e-08
2.90187e-08
1.47832e-08
2.77121e-08
1.50727e-08
2.61524e-08
1.50587e-08
2.44041e-08
1.48433e-08
2.25114e-08
1.44329e-08
2.05301e-08
1.39441e-08
1.84703e-08
1.33316e-08
1.63538e-08
1.27623e-08
1.42112e-08
1.21344e-08
1.20967e-08
1.15475e-08
9.96747e-09
1.09998e-08
7.85634e-09
1.0497e-08
5.78333e-09
1.00445e-08
3.75743e-09
9.63524e-09
1.77853e-09
9.26705e-09
-1.56505e-10
8.92752e-09
-2.03021e-09
8.59288e-09
-3.8316e-09
8.23113e-09
-5.57356e-09
7.84661e-09
-7.2643e-09
7.44662e-09
-8.88815e-09
7.00965e-09
-1.04467e-08
6.53949e-09
-1.19575e-08
6.04132e-09
-1.34173e-08
5.51105e-09
-1.48151e-08
4.95067e-09
-1.61442e-08
4.38014e-09
-1.74057e-08
3.82737e-09
-1.85985e-08
3.29494e-09
-1.97249e-08
2.78971e-09
-2.07966e-08
2.32242e-09
-2.18142e-08
1.89522e-09
-2.27766e-08
1.51174e-09
-2.36858e-08
1.17379e-09
-2.4549e-08
8.97935e-10
-2.53778e-08
6.88082e-10
-2.61729e-08
5.35295e-10
-2.69449e-08
4.5014e-10
-2.77071e-08
4.38424e-10
-2.84557e-08
4.97845e-10
-2.91933e-08
6.26301e-10
-2.9928e-08
8.10492e-10
-3.06676e-08
1.04713e-09
-3.14218e-08
1.3336e-09
-3.21909e-08
1.65128e-09
-3.29758e-08
1.99084e-09
-3.37865e-08
2.35277e-09
-3.46263e-08
2.73572e-09
-3.54922e-08
3.13633e-09
-3.63815e-08
3.54253e-09
-3.72909e-08
3.94432e-09
-3.82177e-08
4.33762e-09
-3.91576e-08
4.7105e-09
-4.0106e-08
5.04609e-09
-4.10625e-08
5.33159e-09
-4.20252e-08
5.56004e-09
-4.29903e-08
5.73658e-09
-4.39529e-08
5.86477e-09
-4.49003e-08
5.93291e-09
-4.58206e-08
5.93777e-09
-4.67171e-08
5.89234e-09
-4.75887e-08
5.79748e-09
-4.8415e-08
5.64486e-09
-4.91857e-08
5.43952e-09
-4.99088e-08
5.18764e-09
-5.058e-08
4.88729e-09
-5.1183e-08
4.5474e-09
-5.17155e-08
4.1841e-09
-5.21792e-08
3.7983e-09
-5.25607e-08
3.38533e-09
-5.28506e-08
2.95369e-09
-5.3057e-08
2.51162e-09
-5.31819e-08
2.05337e-09
-5.3214e-08
1.57359e-09
-5.3153e-08
1.07877e-09
-5.30123e-08
5.78529e-10
-5.27943e-08
8.09763e-11
-5.24906e-08
-4.02716e-10
-5.21013e-08
-8.61819e-10
-5.16325e-08
-1.29292e-09
-5.10797e-08
-1.6956e-09
-5.04363e-08
-2.06641e-09
-4.97072e-08
-2.4049e-09
-4.88996e-08
-2.72078e-09
-4.80109e-08
-3.02805e-09
-4.70389e-08
-3.33417e-09
-4.5993e-08
-3.63931e-09
-4.48837e-08
-3.94347e-09
-4.37093e-08
-4.24924e-09
-4.24663e-08
-4.55768e-09
-4.11626e-08
-4.86545e-09
-3.98102e-08
-5.16653e-09
-3.84126e-08
-5.45465e-09
-3.69682e-08
-5.72357e-09
-3.54821e-08
-5.96634e-09
-3.39652e-08
-6.17609e-09
-3.24247e-08
-6.34735e-09
-3.08628e-08
-6.47442e-09
-2.9284e-08
-6.54892e-09
-2.76965e-08
-6.56241e-09
-2.61049e-08
-6.51206e-09
-2.4508e-08
-6.40093e-09
-2.29059e-08
-6.2336e-09
-2.1305e-08
-6.01488e-09
-1.9713e-08
-5.75351e-09
-1.81324e-08
-5.4645e-09
-1.65643e-08
-5.16587e-09
-1.50139e-08
-4.87285e-09
-1.34908e-08
-4.5951e-09
-1.20031e-08
-4.33935e-09
-1.05558e-08
-4.11257e-09
-9.15332e-09
-3.91795e-09
-7.80315e-09
-3.75088e-09
-6.5134e-09
-3.60254e-09
-5.2897e-09
-3.46074e-09
-4.13805e-09
-3.30977e-09
-3.06604e-09
-3.13482e-09
-2.07922e-09
-2.91759e-09
-1.18057e-09
-2.63688e-09
-3.69911e-10
-2.28138e-09
3.54667e-10
-1.84516e-09
9.90242e-10
-1.3274e-09
1.53163e-09
-7.42422e-10
1.97619e-09
-1.05359e-10
2.32016e-09
5.68768e-10
2.5605e-09
1.25543e-09
2.69612e-09
1.93506e-09
2.72321e-09
2.58789e-09
2.63713e-09
3.18824e-09
2.43593e-09
3.7168e-09
2.12135e-09
4.15584e-09
1.70099e-09
4.48513e-09
1.19017e-09
4.68061e-09
6.13871e-10
4.70666e-09
1.1824e-11
4.50147e-09
-5.47579e-10
3.95665e-09
-9.50948e-10
2.89692e-09
-1.01686e-09
1.02967e-09
-5.61822e-10
-1.63113e-09
-2.33645e-09
-1.56403e-08
4.45136e-08
-3.43588e-08
3.99915e-08
-4.4637e-08
-3.66677e-09
-4.85286e-08
-3.37343e-08
-4.85148e-08
-4.89722e-08
-4.60795e-08
-5.47149e-08
-4.21194e-08
-5.44096e-08
-3.72622e-08
-5.03982e-08
-3.19971e-08
-4.42578e-08
-2.65602e-08
-3.71279e-08
-2.12465e-08
-2.96842e-08
-1.62512e-08
-2.2397e-08
-1.16308e-08
-1.56448e-08
-7.52005e-09
-9.49277e-09
-3.91752e-09
-4.12237e-09
-8.66922e-10
5.13371e-10
1.62119e-09
4.41029e-09
3.58411e-09
7.59681e-09
5.05644e-09
1.01471e-08
6.05151e-09
1.21273e-08
6.67181e-09
1.35564e-08
6.86775e-09
1.45873e-08
6.72939e-09
1.52111e-08
6.27204e-09
1.55161e-08
5.58471e-09
1.55307e-08
4.61901e-09
1.53986e-08
3.49411e-09
1.5069e-08
2.14066e-09
1.4685e-08
7.26462e-10
1.41765e-08
-8.39497e-10
1.37003e-08
-2.48907e-09
1.3197e-08
-4.20023e-09
1.2711e-08
-5.93709e-09
1.22338e-08
-7.69686e-09
1.18042e-08
-9.474e-09
1.14124e-08
-1.12387e-08
1.10317e-08
-1.29749e-08
1.06638e-08
-1.46874e-08
1.03053e-08
-1.63875e-08
9.93125e-09
-1.80638e-08
9.52295e-09
-1.97017e-08
9.0845e-09
-2.13044e-08
8.61238e-09
-2.28803e-08
8.11531e-09
-2.44312e-08
7.59224e-09
-2.59551e-08
7.03498e-09
-2.74634e-08
6.45902e-09
-2.89586e-08
5.87531e-09
-3.04252e-08
5.29399e-09
-3.18549e-08
4.72462e-09
-3.32478e-08
4.18262e-09
-3.46108e-08
3.68532e-09
-3.59401e-08
3.22462e-09
-3.72352e-08
2.80678e-09
-3.8503e-08
2.44162e-09
-3.97376e-08
2.13249e-09
-4.09375e-08
1.88805e-09
-4.21071e-08
1.70488e-09
-4.32465e-08
1.58955e-09
-4.43615e-08
1.55338e-09
-4.54486e-08
1.585e-09
-4.65012e-08
1.67888e-09
-4.75248e-08
1.83407e-09
-4.85218e-08
2.04412e-09
-4.94918e-08
2.30365e-09
-5.04378e-08
2.59723e-09
-5.13619e-08
2.915e-09
-5.22688e-08
3.25963e-09
-5.31583e-08
3.62521e-09
-5.40241e-08
4.00212e-09
-5.48649e-08
4.38335e-09
-5.56816e-08
4.76109e-09
-5.64731e-08
5.12906e-09
-5.72359e-08
5.4733e-09
-5.79642e-08
5.77438e-09
-5.86599e-08
6.02731e-09
-5.93331e-08
6.23329e-09
-5.9981e-08
6.38446e-09
-6.05925e-08
6.4763e-09
-6.11708e-08
6.51118e-09
-6.17193e-08
6.48629e-09
-6.2227e-08
6.40005e-09
-6.26895e-08
6.25992e-09
-6.3113e-08
6.06841e-09
-6.34918e-08
5.81833e-09
-6.38149e-08
5.51073e-09
-6.40874e-08
5.15979e-09
-6.4315e-08
4.77496e-09
-6.44857e-08
4.3548e-09
-6.45885e-08
3.90118e-09
-6.46272e-08
3.42403e-09
-6.46034e-08
2.9298e-09
-6.45096e-08
2.41786e-09
-6.43442e-08
1.888e-09
-6.41127e-08
1.34205e-09
-6.38163e-08
7.82391e-10
-6.34544e-08
2.16609e-10
-6.30311e-08
-3.42285e-10
-6.25481e-08
-8.85754e-10
-6.1998e-08
-1.41193e-09
-6.13751e-08
-1.91581e-09
-6.06823e-08
-2.38836e-09
-5.99209e-08
-2.82787e-09
-5.90835e-08
-3.2423e-09
-5.81653e-08
-3.6389e-09
-5.71726e-08
-4.02074e-09
-5.61141e-08
-4.39272e-09
-5.49918e-08
-4.7616e-09
-5.3806e-08
-5.12927e-09
-5.25621e-08
-5.49312e-09
-5.12676e-08
-5.85219e-09
-4.99265e-08
-6.20661e-09
-4.85417e-08
-6.55131e-09
-4.71195e-08
-6.87677e-09
-4.56667e-08
-7.17637e-09
-4.41853e-08
-7.44777e-09
-4.26752e-08
-7.68624e-09
-4.11405e-08
-7.88201e-09
-3.9589e-08
-8.02589e-09
-3.80244e-08
-8.11356e-09
-3.64434e-08
-8.14338e-09
-3.48421e-08
-8.11342e-09
-3.32208e-08
-8.0222e-09
-3.15827e-08
-7.87172e-09
-2.99287e-08
-7.66881e-09
-2.82581e-08
-7.42417e-09
-2.65722e-08
-7.15042e-09
-2.48773e-08
-6.86068e-09
-2.31825e-08
-6.56766e-09
-2.14962e-08
-6.28147e-09
-1.98273e-08
-6.00827e-09
-1.81866e-08
-5.75325e-09
-1.65848e-08
-5.51973e-09
-1.5032e-08
-5.30373e-09
-1.3538e-08
-5.09653e-09
-1.21112e-08
-4.88756e-09
-1.07592e-08
-4.66176e-09
-9.4888e-09
-4.40518e-09
-8.30165e-09
-4.10474e-09
-7.19619e-09
-3.74234e-09
-6.17049e-09
-3.30708e-09
-5.21949e-09
-2.79615e-09
-4.34012e-09
-2.20677e-09
-3.53281e-09
-1.54973e-09
-2.79633e-09
-8.41836e-10
-2.13255e-09
-9.50134e-11
-1.54632e-09
6.69204e-10
-1.04103e-09
1.42977e-09
-6.23187e-10
2.17005e-09
-3.02246e-10
2.8673e-09
-8.65141e-11
3.50106e-09
1.88417e-11
4.05049e-09
1.35674e-11
4.4904e-09
-9.54705e-11
4.78965e-09
-2.92188e-10
4.90338e-09
-5.47672e-10
4.75695e-09
-8.07223e-10
4.2162e-09
-9.78195e-10
3.06789e-09
-9.14178e-10
9.65652e-10
-4.74554e-10
-2.07075e-09
-2.81101e-09
-1.50078e-08
5.95214e-08
-3.40828e-08
5.90665e-08
-4.59913e-08
8.24173e-09
-5.22e-08
-2.75256e-08
-5.46997e-08
-4.64725e-08
-5.47901e-08
-5.46245e-08
-5.32461e-08
-5.59536e-08
-5.05721e-08
-5.30721e-08
-4.71446e-08
-4.76853e-08
-4.32821e-08
-4.09904e-08
-3.91912e-08
-3.37752e-08
-3.50036e-08
-2.65846e-08
-3.09415e-08
-1.97068e-08
-2.70635e-08
-1.33707e-08
-2.35016e-08
-7.68432e-09
-2.02774e-08
-2.71077e-09
-1.74275e-08
1.56033e-09
-1.49956e-08
5.16497e-09
-1.29601e-08
8.1115e-09
-1.13311e-08
1.04983e-08
-1.01228e-08
1.23481e-08
-9.27212e-09
1.37365e-08
-8.76243e-09
1.47014e-08
-8.59402e-09
1.53477e-08
-8.75633e-09
1.5693e-08
-9.18235e-09
1.58246e-08
-9.85246e-09
1.57391e-08
-1.07393e-08
1.55719e-08
-1.18406e-08
1.52778e-08
-1.30865e-08
1.49462e-08
-1.44557e-08
1.45662e-08
-1.59288e-08
1.41842e-08
-1.7506e-08
1.3811e-08
-1.91414e-08
1.34396e-08
-2.08017e-08
1.30727e-08
-2.249e-08
1.272e-08
-2.41953e-08
1.23691e-08
-2.58938e-08
1.20038e-08
-2.75881e-08
1.16255e-08
-2.92852e-08
1.12201e-08
-3.09825e-08
1.07818e-08
-3.26789e-08
1.03088e-08
-3.4366e-08
9.80246e-09
-3.60417e-08
9.26796e-09
-3.7711e-08
8.70421e-09
-3.9381e-08
8.12901e-09
-4.10524e-08
7.54673e-09
-4.27178e-08
6.95938e-09
-4.43772e-08
6.38403e-09
-4.60243e-08
5.82971e-09
-4.76507e-08
5.3118e-09
-4.92553e-08
4.82917e-09
-5.08335e-08
4.38498e-09
-5.23907e-08
3.99882e-09
-5.39242e-08
3.66602e-09
-5.54218e-08
3.38564e-09
-5.68862e-08
3.16932e-09
-5.83177e-08
3.02103e-09
-5.97077e-08
2.94342e-09
-6.10533e-08
2.93053e-09
-6.23516e-08
2.97726e-09
-6.36027e-08
3.08517e-09
-6.48041e-08
3.24549e-09
-6.59492e-08
3.44875e-09
-6.70403e-08
3.68839e-09
-6.80825e-08
3.95721e-09
-6.90754e-08
4.25251e-09
-7.00167e-08
4.56645e-09
-7.0901e-08
4.88649e-09
-7.17268e-08
5.20908e-09
-7.24969e-08
5.5312e-09
-7.32077e-08
5.83992e-09
-7.38566e-08
6.12212e-09
-7.44496e-08
6.36741e-09
-7.49876e-08
6.56529e-09
-7.5468e-08
6.71368e-09
-7.58989e-08
6.81544e-09
-7.62843e-08
6.86171e-09
-7.66151e-08
6.84199e-09
-7.68922e-08
6.76336e-09
-7.7127e-08
6.63481e-09
-7.73166e-08
6.44954e-09
-7.74498e-08
6.20159e-09
-7.75296e-08
5.89819e-09
-7.75657e-08
5.54679e-09
-7.7556e-08
5.15005e-09
-7.74934e-08
4.71245e-09
-7.73769e-08
4.23825e-09
-7.72066e-08
3.73086e-09
-7.69808e-08
3.19832e-09
-7.6699e-08
2.64796e-09
-7.63596e-08
2.07846e-09
-7.59597e-08
1.48806e-09
-7.55008e-08
8.83139e-10
-7.49896e-08
2.71198e-10
-7.44287e-08
-3.44214e-10
-7.38141e-08
-9.56934e-10
-7.31425e-08
-1.55731e-09
-7.24148e-08
-2.13966e-09
-7.16289e-08
-2.70169e-09
-7.0779e-08
-3.23825e-09
-6.98618e-08
-3.74508e-09
-6.8878e-08
-4.22616e-09
-6.78267e-08
-4.69019e-09
-6.67059e-08
-5.14156e-09
-6.55183e-08
-5.58025e-09
-6.42723e-08
-6.00765e-09
-6.29737e-08
-6.42779e-09
-6.16235e-08
-6.84334e-09
-6.02231e-08
-7.25262e-09
-5.87796e-08
-7.65015e-09
-5.73017e-08
-8.02921e-09
-5.57936e-08
-8.38485e-09
-5.42554e-08
-8.71459e-09
-5.26882e-08
-9.01496e-09
-5.10964e-08
-9.27807e-09
-4.94841e-08
-9.49425e-09
-4.78523e-08
-9.65775e-09
-4.61989e-08
-9.76687e-09
-4.45226e-08
-9.81972e-09
-4.28224e-08
-9.81366e-09
-4.10965e-08
-9.74809e-09
-3.93427e-08
-9.62547e-09
-3.75608e-08
-9.45075e-09
-3.57526e-08
-9.23236e-09
-3.39208e-08
-8.98221e-09
-3.20693e-08
-8.71213e-09
-3.02058e-08
-8.43126e-09
-2.83408e-08
-8.14648e-09
-2.64861e-08
-7.86289e-09
-2.46537e-08
-7.5857e-09
-2.28539e-08
-7.31949e-09
-2.10969e-08
-7.06071e-09
-1.93946e-08
-6.79886e-09
-1.77578e-08
-6.52433e-09
-1.61939e-08
-6.22569e-09
-1.47077e-08
-5.8914e-09
-1.32995e-08
-5.51288e-09
-1.19667e-08
-5.07516e-09
-1.07079e-08
-4.56593e-09
-9.51917e-09
-3.98483e-09
-8.39522e-09
-3.33071e-09
-7.33441e-09
-2.61054e-09
-6.33515e-09
-1.8411e-09
-5.39769e-09
-1.03247e-09
-4.52795e-09
-2.00541e-10
-3.73198e-09
6.33795e-10
-3.01692e-09
1.45498e-09
-2.39302e-09
2.24339e-09
-1.86974e-09
2.97777e-09
-1.4551e-09
3.63584e-09
-1.15469e-09
4.18998e-09
-9.68367e-10
4.60332e-09
-8.85141e-10
4.82016e-09
-8.81004e-10
4.75281e-09
-9.12228e-10
4.24743e-09
-9.07037e-10
3.06271e-09
-7.57395e-10
8.16007e-10
-3.65591e-10
-2.46255e-09
-3.17659e-09
-1.3273e-08
7.27944e-08
-3.11129e-08
7.69064e-08
-4.33687e-08
2.04976e-08
-5.07791e-08
-2.01152e-08
-5.4926e-08
-4.23256e-08
-5.67934e-08
-5.27572e-08
-5.70389e-08
-5.57082e-08
-5.61022e-08
-5.40087e-08
-5.42675e-08
-4.95201e-08
-5.17816e-08
-4.34762e-08
-4.88484e-08
-3.67084e-08
-4.57029e-08
-2.97301e-08
-4.24108e-08
-2.29989e-08
-3.91167e-08
-1.66649e-08
-3.59443e-08
-1.08567e-08
-3.29408e-08
-5.71425e-09
-3.02067e-08
-1.17381e-09
-2.77527e-08
2.711e-09
-2.56437e-08
6.00246e-09
-2.38618e-08
8.71647e-09
-2.24254e-08
1.09118e-08
-2.13242e-08
1.26353e-08
-2.06084e-08
1.39856e-08
-2.01939e-08
1.49332e-08
-2.00958e-08
1.55949e-08
-2.02654e-08
1.59942e-08
-2.07651e-08
1.62388e-08
-2.14527e-08
1.62595e-08
-2.23862e-08
1.62114e-08
-2.34832e-08
1.60432e-08
-2.47685e-08
1.58516e-08
-2.61803e-08
1.55959e-08
-2.76834e-08
1.53142e-08
-2.92793e-08
1.50354e-08
-3.0952e-08
1.47454e-08
-3.26715e-08
1.44396e-08
-3.44189e-08
1.41166e-08
-3.6189e-08
1.37738e-08
-3.7977e-08
1.34135e-08
-3.97758e-08
1.30189e-08
-4.15826e-08
1.25886e-08
-4.34064e-08
1.21326e-08
-4.52431e-08
1.16391e-08
-4.70869e-08
1.11118e-08
-4.89402e-08
1.05575e-08
-5.07997e-08
9.98851e-09
-5.26637e-08
9.4107e-09
-5.45294e-08
8.82512e-09
-5.64002e-08
8.25486e-09
-5.82732e-08
7.70271e-09
-6.01302e-08
7.16879e-09
-6.19717e-08
6.67066e-09
-6.3798e-08
6.21128e-09
-6.5598e-08
5.79883e-09
-6.73691e-08
5.43704e-09
-6.91078e-08
5.12441e-09
-7.08095e-08
4.87101e-09
-7.24705e-08
4.68203e-09
-7.40799e-08
4.55275e-09
-7.56312e-08
4.48185e-09
-7.71235e-08
4.46959e-09
-7.85534e-08
4.51509e-09
-7.99166e-08
4.60868e-09
-8.12061e-08
4.7382e-09
-8.24204e-08
4.90275e-09
-8.35642e-08
5.10098e-09
-8.46341e-08
5.32239e-09
-8.5626e-08
5.55839e-09
-8.65409e-08
5.80139e-09
-8.7375e-08
6.0432e-09
-8.81267e-08
6.28289e-09
-8.87999e-08
6.51315e-09
-8.93909e-08
6.71312e-09
-8.98972e-08
6.87364e-09
-9.03312e-08
6.9993e-09
-9.07009e-08
7.08342e-09
-9.09981e-08
7.11258e-09
-9.1221e-08
7.08463e-09
-9.13826e-08
7.00361e-09
-9.14892e-08
6.87e-09
-9.15352e-08
6.68074e-09
-9.15183e-08
6.43266e-09
-9.14446e-08
6.12787e-09
-9.13191e-08
5.77277e-09
-9.11424e-08
5.37007e-09
-9.09129e-08
4.9206e-09
-9.06304e-08
4.42991e-09
-9.02961e-08
3.90395e-09
-8.99107e-08
3.34549e-09
-8.94724e-08
2.75996e-09
-8.89792e-08
2.15477e-09
-8.84324e-08
1.53171e-09
-8.78338e-08
8.89418e-10
-8.71824e-08
2.31797e-10
-8.64786e-08
-4.32645e-10
-8.57263e-08
-1.09654e-09
-8.49278e-08
-1.75538e-09
-8.40788e-08
-2.4063e-09
-8.3173e-08
-3.04544e-09
-8.22095e-08
-3.66519e-09
-8.11898e-08
-4.25799e-09
-8.01105e-08
-4.82435e-09
-7.89652e-08
-5.37144e-09
-7.77525e-08
-5.90296e-09
-7.64771e-08
-6.41692e-09
-7.51439e-08
-6.91345e-09
-7.37539e-08
-7.39772e-09
-7.23082e-08
-7.87347e-09
-7.08123e-08
-8.33927e-09
-6.92731e-08
-8.79175e-09
-6.76955e-08
-9.2278e-09
-6.60816e-08
-9.64308e-09
-6.44342e-08
-1.00323e-08
-6.27572e-08
-1.03916e-08
-6.10538e-08
-1.07184e-08
-5.93251e-08
-1.10068e-08
-5.75715e-08
-1.12478e-08
-5.5794e-08
-1.14353e-08
-5.39923e-08
-1.15685e-08
-5.2164e-08
-1.16481e-08
-5.03061e-08
-1.16715e-08
-4.84176e-08
-1.16366e-08
-4.64981e-08
-1.1545e-08
-4.45468e-08
-1.1402e-08
-4.2564e-08
-1.12152e-08
-4.05523e-08
-1.09939e-08
-3.85175e-08
-1.07469e-08
-3.64679e-08
-1.04809e-08
-3.44134e-08
-1.0201e-08
-3.23642e-08
-9.91202e-09
-3.0332e-08
-9.61798e-09
-2.83286e-08
-9.32282e-09
-2.6365e-08
-9.02437e-09
-2.44519e-08
-8.71195e-09
-2.25998e-08
-8.37644e-09
-2.08153e-08
-8.01017e-09
-1.91033e-08
-7.60338e-09
-1.7466e-08
-7.1502e-09
-1.59005e-08
-6.64066e-09
-1.4405e-08
-6.06143e-09
-1.29775e-08
-5.41225e-09
-1.16131e-08
-4.69518e-09
-1.03101e-08
-3.91348e-09
-9.06885e-09
-3.08237e-09
-7.88881e-09
-2.21251e-09
-6.77514e-09
-1.31421e-09
-5.7357e-09
-4.05649e-10
-4.77901e-09
4.98288e-10
-3.91494e-09
1.37932e-09
-3.15208e-09
2.21491e-09
-2.49826e-09
2.98202e-09
-1.96079e-09
3.65252e-09
-1.54367e-09
4.1862e-09
-1.24195e-09
4.51843e-09
-1.03633e-09
4.54718e-09
-8.93594e-10
4.10469e-09
-7.60879e-10
2.93e-09
-5.66882e-10
6.22015e-10
-2.51589e-10
-2.77784e-09
-3.42818e-09
-1.10357e-08
8.38302e-08
-2.66917e-08
9.25623e-08
-3.83958e-08
3.22017e-08
-4.6301e-08
-1.221e-08
-5.14893e-08
-3.71373e-08
-5.4654e-08
-4.95925e-08
-5.62754e-08
-5.40867e-08
-5.67258e-08
-5.35583e-08
-5.624e-08
-5.00059e-08
-5.50449e-08
-4.46713e-08
-5.331e-08
-3.84434e-08
-5.11199e-08
-3.19202e-08
-4.87212e-08
-2.53976e-08
-4.6193e-08
-1.9193e-08
-4.36198e-08
-1.343e-08
-4.11371e-08
-8.19688e-09
-3.87887e-08
-3.5223e-09
-3.66261e-08
5.48456e-10
-3.47103e-08
4.0866e-09
-3.30593e-08
7.06545e-09
-3.17193e-08
9.57183e-09
-3.06919e-08
1.16078e-08
-2.99399e-08
1.32335e-08
-2.95191e-08
1.45125e-08
-2.94084e-08
1.54842e-08
-2.95802e-08
1.6166e-08
-3.00016e-08
1.66601e-08
-3.06869e-08
1.69448e-08
-3.15934e-08
1.71179e-08
-3.27064e-08
1.71562e-08
-3.39771e-08
1.71223e-08
-3.54065e-08
1.70253e-08
-3.69666e-08
1.68743e-08
-3.86204e-08
1.66893e-08
-4.03528e-08
1.64777e-08
-4.21502e-08
1.6237e-08
-4.40024e-08
1.59687e-08
-4.5898e-08
1.56694e-08
-4.78204e-08
1.53359e-08
-4.9766e-08
1.49645e-08
-5.17327e-08
1.45553e-08
-5.37182e-08
1.41181e-08
-5.57206e-08
1.36415e-08
-5.774e-08
1.31313e-08
-5.97811e-08
1.25985e-08
-6.18332e-08
1.20407e-08
-6.3893e-08
1.14705e-08
-6.59625e-08
1.08945e-08
-6.80325e-08
1.03249e-08
-7.0102e-08
9.77227e-09
-7.21649e-08
9.23171e-09
-7.4213e-08
8.71873e-09
-7.62461e-08
8.24441e-09
-7.82527e-08
7.80542e-09
-8.02228e-08
7.40716e-09
-8.21578e-08
7.05941e-09
-8.40525e-08
6.76571e-09
-8.58966e-08
6.52607e-09
-8.76805e-08
6.33665e-09
-8.93992e-08
6.20055e-09
-9.10502e-08
6.12068e-09