/*--------------------------------*- C++ -*----------------------------------*\
  =========                 |
  \\      /  F ield         | OpenFOAM: The Open Source CFD Toolbox
   \\    /   O peration     | Website:  https://openfoam.org
    \\  /    A nd           | Version:  7
     \\/     M anipulation  |
\*---------------------------------------------------------------------------*/
FoamFile
{
    version     2.0;
    format      ascii;
    class       volVectorField;
    location    "0.0125";
    object      U;
}
// * * * * * * * * * * * * * * * * * * * * * * * * * * * * * * * * * * * * * //

dimensions      [0 1 -1 0 0 0 0];

internalField   nonuniform List<vector> 
25600
(
(-8.80849e-05 -9.23127e-05 0)
(0.000147244 -0.000608977 0)
(0.00134115 -0.00127655 0)
(0.00344049 -0.00165892 0)
(0.00593863 -0.00177077 0)
(0.00845122 -0.00170166 0)
(0.0107387 -0.00150767 0)
(0.0126759 -0.00125785 0)
(0.0142251 -0.000992616 0)
(0.0153649 -0.000728871 0)
(0.0161318 -0.000485781 0)
(0.0165701 -0.000275267 0)
(0.0167066 -8.62792e-05 0)
(0.0166062 6.50245e-05 0)
(0.0163073 0.000194681 0)
(0.0158476 0.000290524 0)
(0.0152764 0.000368308 0)
(0.0146203 0.000421248 0)
(0.013899 0.000463313 0)
(0.0131512 0.000489753 0)
(0.0123853 0.000502693 0)
(0.0116184 0.000502119 0)
(0.010871 0.00049788 0)
(0.0101469 0.00047736 0)
(0.00945732 0.000453305 0)
(0.00881803 0.000429431 0)
(0.00821021 0.000401167 0)
(0.00765283 0.000366327 0)
(0.00714503 0.000346157 0)
(0.00666906 0.000318867 0)
(0.00623035 0.00029429 0)
(0.0058284 0.000277791 0)
(0.00545671 0.000257766 0)
(0.00509741 0.000243192 0)
(0.00476946 0.000235011 0)
(0.00445442 0.000228376 0)
(0.00414349 0.000220202 0)
(0.00385195 0.000215158 0)
(0.00357176 0.000212526 0)
(0.00329833 0.000204824 0)
(0.00304366 0.00019691 0)
(0.0028094 0.000190973 0)
(0.0025901 0.000177819 0)
(0.00238948 0.000154071 0)
(0.00221864 0.00012813 0)
(0.00207431 0.000109008 0)
(0.00195161 9.34697e-05 0)
(0.00185643 8.03454e-05 0)
(0.00178769 7.154e-05 0)
(0.00174174 6.00386e-05 0)
(0.00171598 4.22147e-05 0)
(0.00170995 2.30699e-05 0)
(0.00172336 8.8702e-06 0)
(0.0017506 -3.88717e-07 0)
(0.00178852 -7.66126e-06 0)
(0.0018371 -1.29593e-05 0)
(0.00189477 -1.64436e-05 0)
(0.00195596 -1.91005e-05 0)
(0.0020172 -2.24398e-05 0)
(0.00207713 -2.3563e-05 0)
(0.00213063 -1.86289e-05 0)
(0.00217401 -1.08672e-05 0)
(0.00220416 -3.5116e-06 0)
(0.00221996 2.95907e-06 0)
(0.00222238 9.82147e-06 0)
(0.00220748 1.99259e-05 0)
(0.00217377 3.0999e-05 0)
(0.00212272 4.10388e-05 0)
(0.00205223 5.2673e-05 0)
(0.00196263 6.46933e-05 0)
(0.00185288 7.59475e-05 0)
(0.00171925 8.86619e-05 0)
(0.00156481 0.000101561 0)
(0.00139261 0.000113423 0)
(0.00120186 0.000124427 0)
(0.000997019 0.000131408 0)
(0.000782232 0.000134671 0)
(0.000557326 0.000139032 0)
(0.000326029 0.000143831 0)
(9.19789e-05 0.000146049 0)
(-0.000145413 0.000146593 0)
(-0.000382443 0.000145328 0)
(-0.000613699 0.000141466 0)
(-0.000839929 0.000137602 0)
(-0.00106065 0.000134019 0)
(-0.00127024 0.000127246 0)
(-0.00146662 0.000117839 0)
(-0.00165076 0.000109436 0)
(-0.00182059 0.00010194 0)
(-0.00197497 9.3591e-05 0)
(-0.00211625 8.46327e-05 0)
(-0.00224356 7.4944e-05 0)
(-0.00235296 6.38956e-05 0)
(-0.00244424 5.27237e-05 0)
(-0.00251914 4.21413e-05 0)
(-0.00257541 3.03727e-05 0)
(-0.00261002 1.69959e-05 0)
(-0.00262417 4.49334e-06 0)
(-0.00262046 -5.98034e-06 0)
(-0.00259984 -1.57096e-05 0)
(-0.00256405 -2.48395e-05 0)
(-0.00251663 -3.20183e-05 0)
(-0.00245978 -3.72597e-05 0)
(-0.00239365 -4.18862e-05 0)
(-0.0023191 -4.65902e-05 0)
(-0.00223766 -5.16896e-05 0)
(-0.0021488 -5.77053e-05 0)
(-0.00205033 -6.42109e-05 0)
(-0.0019413 -6.99782e-05 0)
(-0.00182231 -7.52604e-05 0)
(-0.00169321 -8.18607e-05 0)
(-0.00155259 -9.01515e-05 0)
(-0.00139975 -9.81853e-05 0)
(-0.00123559 -0.000104536 0)
(-0.00106129 -0.000109986 0)
(-0.000877506 -0.000115614 0)
(-0.00068524 -0.000120955 0)
(-0.0004865 -0.000124874 0)
(-0.000283759 -0.0001268 0)
(-7.94257e-05 -0.000126265 0)
(0.000123473 -0.000122612 0)
(0.000320837 -0.000116186 0)
(0.000508543 -0.000108478 0)
(0.000683628 -0.00010008 0)
(0.000844171 -8.98862e-05 0)
(0.000988693 -7.74049e-05 0)
(0.00111628 -6.45535e-05 0)
(0.00122718 -5.38716e-05 0)
(0.00132304 -4.58343e-05 0)
(0.0014065 -3.91429e-05 0)
(0.00148049 -3.31354e-05 0)
(0.00154769 -2.88128e-05 0)
(0.00161086 -2.73654e-05 0)
(0.00167273 -2.80153e-05 0)
(0.00173484 -2.85923e-05 0)
(0.00179788 -2.84507e-05 0)
(0.00186235 -2.81999e-05 0)
(0.00192709 -2.72381e-05 0)
(0.00198918 -2.42572e-05 0)
(0.00204451 -1.78172e-05 0)
(0.00208681 -6.82328e-06 0)
(0.00211031 7.38284e-06 0)
(0.0021116 2.34472e-05 0)
(0.00208678 4.15687e-05 0)
(0.0020336 6.02291e-05 0)
(0.00195175 7.88137e-05 0)
(0.00183947 9.7998e-05 0)
(0.00169833 0.000115734 0)
(0.00153281 0.000130833 0)
(0.00134621 0.000142774 0)
(0.0011443 0.000150226 0)
(0.000932858 0.000153813 0)
(0.000716689 0.000153545 0)
(0.000502804 0.000148273 0)
(0.000299401 0.000136213 0)
(0.000117448 0.000116302 0)
(-2.99208e-05 8.74412e-05 0)
(-0.000121849 4.39447e-05 0)
(-0.000117901 -1.59438e-05 0)
(-5.18338e-05 -4.20146e-05 0)
(-0.000596268 0.00012793 0)
(-0.00089561 -0.000937325 0)
(-9.25269e-05 -0.00277625 0)
(0.00207188 -0.00389771 0)
(0.00498598 -0.00425435 0)
(0.00808951 -0.00411231 0)
(0.0110932 -0.0036596 0)
(0.0137755 -0.00305041 0)
(0.0160359 -0.00237491 0)
(0.0178491 -0.00172128 0)
(0.0191937 -0.00110664 0)
(0.0201071 -0.000558542 0)
(0.0206308 -9.37e-05 0)
(0.0208111 0.000302092 0)
(0.0207056 0.000613728 0)
(0.0203664 0.000858082 0)
(0.0198312 0.00104566 0)
(0.0191482 0.00117138 0)
(0.0183661 0.00126382 0)
(0.0174964 0.00131169 0)
(0.0165793 0.00132476 0)
(0.0156431 0.00132389 0)
(0.0147041 0.00128401 0)
(0.0137835 0.00123624 0)
(0.0128901 0.00116777 0)
(0.0120225 0.00110266 0)
(0.0112059 0.0010163 0)
(0.0104429 0.000955131 0)
(0.00971186 0.000867439 0)
(0.00902343 0.000811319 0)
(0.0083995 0.000746906 0)
(0.00780353 0.000696443 0)
(0.00723419 0.000644571 0)
(0.00671051 0.000606328 0)
(0.00620967 0.000578109 0)
(0.00573064 0.000549082 0)
(0.00527265 0.000527519 0)
(0.00482984 0.000509723 0)
(0.00441102 0.000486636 0)
(0.0040152 0.000458511 0)
(0.00363487 0.000431108 0)
(0.00327641 0.000405551 0)
(0.0029508 0.00037213 0)
(0.00265557 0.000331892 0)
(0.00238754 0.000286405 0)
(0.00215192 0.000236422 0)
(0.00194987 0.000188588 0)
(0.00178024 0.000144835 0)
(0.00164134 0.000107986 0)
(0.00153326 7.33597e-05 0)
(0.00145582 3.71129e-05 0)
(0.00140576 3.23107e-06 0)
(0.00137906 -2.61725e-05 0)
(0.00137037 -5.08962e-05 0)
(0.00137834 -7.17973e-05 0)
(0.00140032 -8.58673e-05 0)
(0.00143132 -9.35772e-05 0)
(0.00146898 -9.81176e-05 0)
(0.00150808 -9.79877e-05 0)
(0.001544 -9.18207e-05 0)
(0.00157319 -7.71905e-05 0)
(0.00159058 -5.63374e-05 0)
(0.00159338 -3.42484e-05 0)
(0.00157778 -8.53446e-06 0)
(0.001542 2.02302e-05 0)
(0.00148697 4.89839e-05 0)
(0.00140692 7.96401e-05 0)
(0.00129995 0.00011193 0)
(0.00117178 0.00014609 0)
(0.00101954 0.00018341 0)
(0.000838958 0.000219795 0)
(0.000632421 0.00025402 0)
(0.000399191 0.000289039 0)
(0.000141623 0.000322168 0)
(-0.000133266 0.000349398 0)
(-0.000426725 0.000370889 0)
(-0.000737847 0.000387079 0)
(-0.00105639 0.00039908 0)
(-0.00138018 0.000408813 0)
(-0.00171134 0.000414721 0)
(-0.00204263 0.000414386 0)
(-0.00236971 0.000409507 0)
(-0.00269397 0.000402437 0)
(-0.003009 0.000391935 0)
(-0.00330957 0.000376144 0)
(-0.00359968 0.000356083 0)
(-0.00387581 0.000333866 0)
(-0.0041277 0.000310228 0)
(-0.00435785 0.000285478 0)
(-0.00457287 0.000260357 0)
(-0.00476658 0.000234453 0)
(-0.00493324 0.000206481 0)
(-0.00507776 0.000176801 0)
(-0.00520017 0.000146472 0)
(-0.00529299 0.000114405 0)
(-0.00535731 7.93756e-05 0)
(-0.00539924 4.3631e-05 0)
(-0.00541515 1.05951e-05 0)
(-0.00540009 -1.92856e-05 0)
(-0.00536119 -4.69641e-05 0)
(-0.00530664 -7.15324e-05 0)
(-0.00523368 -9.17347e-05 0)
(-0.00513921 -0.00010842 0)
(-0.00502899 -0.000123223 0)
(-0.00490733 -0.00013713 0)
(-0.00477069 -0.000151601 0)
(-0.00461722 -0.000168267 0)
(-0.00445083 -0.000186556 0)
(-0.00427172 -0.000204376 0)
(-0.0040743 -0.000221713 0)
(-0.00385746 -0.000240784 0)
(-0.00362668 -0.00026216 0)
(-0.00338377 -0.000283446 0)
(-0.00312421 -0.000302413 0)
(-0.00284677 -0.000319113 0)
(-0.00255717 -0.000334236 0)
(-0.00226007 -0.000347283 0)
(-0.00195465 -0.000357059 0)
(-0.00164086 -0.000362531 0)
(-0.00132423 -0.000362561 0)
(-0.00101153 -0.000355947 0)
(-0.000705813 -0.000342631 0)
(-0.000408833 -0.000324139 0)
(-0.000124936 -0.000301923 0)
(0.000141083 -0.000276103 0)
(0.000388357 -0.00024703 0)
(0.00061854 -0.000217185 0)
(0.000831029 -0.000190033 0)
(0.00102345 -0.000167289 0)
(0.00119691 -0.000148574 0)
(0.00135715 -0.000133519 0)
(0.00150934 -0.000122761 0)
(0.00165463 -0.00011684 0)
(0.00179249 -0.000115034 0)
(0.00192402 -0.000115381 0)
(0.00205172 -0.000116015 0)
(0.00217612 -0.000115713 0)
(0.00229407 -0.000112209 0)
(0.00240141 -0.000102312 0)
(0.00249452 -8.42208e-05 0)
(0.00256843 -5.72082e-05 0)
(0.00261718 -2.16447e-05 0)
(0.00263561 2.02432e-05 0)
(0.00261945 6.70085e-05 0)
(0.00256684 0.000117032 0)
(0.00247699 0.000166946 0)
(0.00234799 0.000215813 0)
(0.00218093 0.000262185 0)
(0.00198059 0.000302 0)
(0.00175204 0.000333934 0)
(0.00150143 0.000356433 0)
(0.00123416 0.000368301 0)
(0.000955261 0.000370042 0)
(0.000673766 0.000359309 0)
(0.000402609 0.00033311 0)
(0.000157963 0.000285506 0)
(-4.07645e-05 0.000207826 0)
(-0.000164258 8.40227e-05 0)
(-0.000164839 -8.36873e-05 0)
(-6.94328e-05 -0.00013148 0)
(-0.0012619 0.00129627 0)
(-0.00272845 -0.000173938 0)
(-0.00349543 -0.00358128 0)
(-0.00285037 -0.00574484 0)
(-0.00135984 -0.00663669 0)
(0.000484008 -0.00664945 0)
(0.00245441 -0.00611463 0)
(0.00438512 -0.00527666 0)
(0.00615113 -0.00429507 0)
(0.00768129 -0.00327536 0)
(0.0089738 -0.00231026 0)
(0.00999258 -0.00141781 0)
(0.0107518 -0.000631637 0)
(0.0112762 3.63522e-05 0)
(0.0115832 0.000595827 0)
(0.0117058 0.00104686 0)
(0.0116616 0.00138542 0)
(0.0114887 0.00166065 0)
(0.0111959 0.00183863 0)
(0.0108168 0.00196371 0)
(0.0103866 0.00203268 0)
(0.00988913 0.00204815 0)
(0.00936632 0.0020289 0)
(0.00883226 0.00197947 0)
(0.00827936 0.001899 0)
(0.00772808 0.00180989 0)
(0.00719125 0.0017127 0)
(0.00665267 0.00160238 0)
(0.00613741 0.00150131 0)
(0.00564575 0.00140539 0)
(0.005153 0.00131654 0)
(0.00469747 0.00122833 0)
(0.00425474 0.00116276 0)
(0.00382293 0.00109891 0)
(0.00341551 0.00104115 0)
(0.00302428 0.00099801 0)
(0.00264157 0.000957345 0)
(0.00227667 0.000917216 0)
(0.00193243 0.000875589 0)
(0.00159951 0.000826612 0)
(0.00128067 0.000772987 0)
(0.000981756 0.000720681 0)
(0.000697102 0.000665999 0)
(0.000428518 0.000603552 0)
(0.000182901 0.000537065 0)
(-4.06698e-05 0.000465488 0)
(-0.000246176 0.000388926 0)
(-0.000433679 0.000314482 0)
(-0.00060014 0.000246216 0)
(-0.000747269 0.000183713 0)
(-0.000877921 0.00012539 0)
(-0.000989681 7.33652e-05 0)
(-0.00108247 2.74013e-05 0)
(-0.00116374 -1.30179e-05 0)
(-0.00123576 -4.68982e-05 0)
(-0.00129574 -7.31809e-05 0)
(-0.00134923 -8.88981e-05 0)
(-0.00140034 -9.63662e-05 0)
(-0.00144881 -9.60155e-05 0)
(-0.00149654 -8.44451e-05 0)
(-0.00154471 -6.34907e-05 0)
(-0.00159953 -3.42042e-05 0)
(-0.001664 1.62272e-06 0)
(-0.00173471 4.1599e-05 0)
(-0.0018161 8.79473e-05 0)
(-0.00190968 0.000136877 0)
(-0.00201495 0.000184607 0)
(-0.00213785 0.000236764 0)
(-0.00227389 0.000293426 0)
(-0.00241959 0.000350475 0)
(-0.00258371 0.000408799 0)
(-0.00276285 0.000465515 0)
(-0.00295022 0.000517684 0)
(-0.00315155 0.000567683 0)
(-0.00336469 0.000611568 0)
(-0.0035841 0.000644147 0)
(-0.00381387 0.000670197 0)
(-0.00404893 0.000692051 0)
(-0.00428054 0.00070508 0)
(-0.00451526 0.000710034 0)
(-0.00475438 0.000709587 0)
(-0.00498571 0.000701366 0)
(-0.00520819 0.000685873 0)
(-0.00542755 0.000666183 0)
(-0.00563767 0.000639668 0)
(-0.00583359 0.000604306 0)
(-0.0060194 0.000565039 0)
(-0.0061924 0.000524977 0)
(-0.00634573 0.000481823 0)
(-0.00648269 0.000435525 0)
(-0.00660729 0.000388287 0)
(-0.00671327 0.000339207 0)
(-0.00679601 0.000287023 0)
(-0.00685967 0.000233017 0)
(-0.00690635 0.000177044 0)
(-0.00693295 0.000117604 0)
(-0.00693918 5.71509e-05 0)
(-0.00692729 5.17325e-07 0)
(-0.00689688 -5.11455e-05 0)
(-0.00684759 -9.93091e-05 0)
(-0.00678205 -0.000143396 0)
(-0.0067016 -0.000181836 0)
(-0.00660429 -0.000215282 0)
(-0.00648975 -0.000245649 0)
(-0.00636083 -0.000274364 0)
(-0.00621956 -0.000303184 0)
(-0.00606515 -0.000334015 0)
(-0.00589658 -0.00036669 0)
(-0.00571417 -0.000399356 0)
(-0.00551867 -0.000431707 0)
(-0.0053108 -0.000465343 0)
(-0.00509135 -0.000500526 0)
(-0.00486052 -0.000535053 0)
(-0.00461815 -0.000566764 0)
(-0.00436549 -0.000595092 0)
(-0.0041051 -0.000619815 0)
(-0.00383849 -0.000640062 0)
(-0.00356583 -0.000654826 0)
(-0.00328829 -0.000663138 0)
(-0.0030089 -0.000663483 0)
(-0.00273067 -0.000654251 0)
(-0.00245529 -0.000635306 0)
(-0.00218393 -0.000608334 0)
(-0.00191805 -0.000575188 0)
(-0.00165887 -0.000536767 0)
(-0.00140695 -0.000494211 0)
(-0.00116326 -0.000450376 0)
(-0.000929757 -0.000408903 0)
(-0.000707767 -0.000372141 0)
(-0.000496097 -0.00034081 0)
(-0.000292398 -0.000315103 0)
(-9.62516e-05 -0.000295158 0)
(9.09581e-05 -0.000280822 0)
(0.000268576 -0.00027113 0)
(0.000437231 -0.000264093 0)
(0.000597646 -0.000257599 0)
(0.000748853 -0.000249233 0)
(0.000887679 -0.000235079 0)
(0.00101207 -0.000211351 0)
(0.00112198 -0.000176031 0)
(0.00121577 -0.000128206 0)
(0.001291 -6.87729e-05 0)
(0.00134528 3.119e-07 0)
(0.00137554 7.75532e-05 0)
(0.00138126 0.000159711 0)
(0.00136276 0.000242822 0)
(0.00131802 0.000324372 0)
(0.00124731 0.000400944 0)
(0.00115277 0.000468846 0)
(0.00103615 0.000525452 0)
(0.000899974 0.000568268 0)
(0.000745965 0.000595387 0)
(0.000576214 0.000604997 0)
(0.000396664 0.000594071 0)
(0.000217738 0.000556489 0)
(5.23328e-05 0.000482277 0)
(-8.58093e-05 0.000354593 0)
(-0.000170223 0.000142546 0)
(-0.000156404 -0.000151348 0)
(-6.71999e-05 -0.000235116 0)
(-0.00164751 0.00336992 0)
(-0.00385753 0.00195404 0)
(-0.00567206 -0.00296936 0)
(-0.00613355 -0.0062325 0)
(-0.00570217 -0.00773039 0)
(-0.00483405 -0.00807275 0)
(-0.00371962 -0.00767383 0)
(-0.00250051 -0.00682825 0)
(-0.00125994 -0.00575811 0)
(-7.49114e-05 -0.00460791 0)
(0.00100563 -0.00345338 0)
(0.00197446 -0.0023836 0)
(0.00279385 -0.00140241 0)
(0.00347453 -0.000553125 0)
(0.00402351 0.000176435 0)
(0.00442297 0.000777166 0)
(0.00471603 0.00127015 0)
(0.00489018 0.00164716 0)
(0.00496544 0.00193618 0)
(0.00496681 0.00214434 0)
(0.00487816 0.00227697 0)
(0.00473689 0.00234305 0)
(0.00455198 0.00237613 0)
(0.00431829 0.00234131 0)
(0.00405454 0.00229394 0)
(0.00376194 0.00221043 0)
(0.00344475 0.00212464 0)
(0.00312557 0.00200939 0)
(0.00279171 0.00192037 0)
(0.00244226 0.00180229 0)
(0.00210327 0.00171156 0)
(0.00176831 0.00162441 0)
(0.00142547 0.00153783 0)
(0.00108467 0.00146714 0)
(0.000760274 0.00140649 0)
(0.00044327 0.00134728 0)
(0.000127696 0.00129415 0)
(-0.000179701 0.00124703 0)
(-0.000472737 0.00119423 0)
(-0.000754923 0.00113467 0)
(-0.0010293 0.00107148 0)
(-0.00129345 0.00100133 0)
(-0.00154801 0.000926125 0)
(-0.00179243 0.000849764 0)
(-0.00202984 0.000771598 0)
(-0.00226179 0.000687852 0)
(-0.00248057 0.00059977 0)
(-0.00268519 0.000513187 0)
(-0.00288089 0.000429459 0)
(-0.00306858 0.00034939 0)
(-0.0032452 0.000275896 0)
(-0.0034106 0.000212302 0)
(-0.00356811 0.000156382 0)
(-0.00371892 0.000105255 0)
(-0.00386131 6.31789e-05 0)
(-0.00399393 3.12849e-05 0)
(-0.00412293 8.66541e-06 0)
(-0.00425117 -3.29284e-06 0)
(-0.00437427 -3.97847e-06 0)
(-0.00449411 8.55415e-06 0)
(-0.00461215 3.1453e-05 0)
(-0.00472906 6.02489e-05 0)
(-0.00484791 9.85797e-05 0)
(-0.00496664 0.000145949 0)
(-0.00508706 0.000197573 0)
(-0.00521305 0.000253318 0)
(-0.00534142 0.000310858 0)
(-0.0054726 0.000370057 0)
(-0.00560874 0.000434937 0)
(-0.00574835 0.00050159 0)
(-0.00589328 0.000565861 0)
(-0.00604256 0.000630275 0)
(-0.00619071 0.000691774 0)
(-0.00633941 0.000745175 0)
(-0.00649269 0.000791755 0)
(-0.00664821 0.000830688 0)
(-0.00680295 0.000859573 0)
(-0.00695659 0.000881359 0)
(-0.0071087 0.000896132 0)
(-0.00725831 0.000899395 0)
(-0.00740456 0.000892742 0)
(-0.00754651 0.000880506 0)
(-0.00768211 0.000860876 0)
(-0.00780908 0.00083142 0)
(-0.00792854 0.000793938 0)
(-0.00804198 0.000749804 0)
(-0.00814504 0.000699669 0)
(-0.00823385 0.000646047 0)
(-0.00831216 0.000589829 0)
(-0.00838206 0.000529209 0)
(-0.00843761 0.000464789 0)
(-0.00847601 0.000399394 0)
(-0.00850162 0.000332688 0)
(-0.00851504 0.000262094 0)
(-0.00851248 0.000187866 0)
(-0.00849543 0.000112639 0)
(-0.00846756 3.81513e-05 0)
(-0.00842633 -3.43141e-05 0)
(-0.00836903 -0.000102742 0)
(-0.00829979 -0.000165903 0)
(-0.00822102 -0.000224129 0)
(-0.00812728 -0.000277657 0)
(-0.0080153 -0.00032619 0)
(-0.00789007 -0.000370635 0)
(-0.00775532 -0.000413428 0)
(-0.00760785 -0.000456427 0)
(-0.00744574 -0.000499788 0)
(-0.00727255 -0.000543312 0)
(-0.00709031 -0.000587445 0)
(-0.00689661 -0.000632401 0)
(-0.00669142 -0.000677453 0)
(-0.00647886 -0.0007216 0)
(-0.00626039 -0.000764122 0)
(-0.00603305 -0.000804154 0)
(-0.00579646 -0.000840362 0)
(-0.00555531 -0.000871476 0)
(-0.00531256 -0.000896671 0)
(-0.00506583 -0.000915053 0)
(-0.0048131 -0.000925269 0)
(-0.0045574 -0.00092611 0)
(-0.00430287 -0.000917107 0)
(-0.00404949 -0.000898318 0)
(-0.00379471 -0.000870152 0)
(-0.00353822 -0.000833736 0)
(-0.00328214 -0.000791109 0)
(-0.00302768 -0.000744798 0)
(-0.00277467 -0.000697251 0)
(-0.00252425 -0.000650657 0)
(-0.00227896 -0.000606989 0)
(-0.00203962 -0.000568047 0)
(-0.0018047 -0.000534989 0)
(-0.00157444 -0.000507502 0)
(-0.00135245 -0.000484367 0)
(-0.00114163 -0.000464653 0)
(-0.000941821 -0.000447053 0)
(-0.000751801 -0.000429224 0)
(-0.000572047 -0.000408205 0)
(-0.000406044 -0.000380051 0)
(-0.000256529 -0.000341259 0)
(-0.000121665 -0.000290548 0)
(6.32731e-07 -0.000227021 0)
(0.000110034 -0.000150655 0)
(0.000205651 -6.35778e-05 0)
(0.000284956 3.24234e-05 0)
(0.000346935 0.000134516 0)
(0.000393485 0.000238133 0)
(0.000423841 0.000340189 0)
(0.000436758 0.000437323 0)
(0.000432518 0.000525528 0)
(0.000410387 0.000602042 0)
(0.00037019 0.000664084 0)
(0.000311705 0.000708314 0)
(0.000235511 0.000731185 0)
(0.000145203 0.000728228 0)
(4.81754e-05 0.000691168 0)
(-4.54174e-05 0.000605117 0)
(-0.000126052 0.000445225 0)
(-0.000171333 0.000169418 0)
(-0.000143926 -0.000220753 0)
(-6.38202e-05 -0.000329489 0)
(-0.00176545 0.00584858 0)
(-0.00423135 0.00484141 0)
(-0.00659109 -0.00150312 0)
(-0.00766667 -0.00582123 0)
(-0.00786743 -0.00794006 0)
(-0.00764019 -0.00866252 0)
(-0.00709946 -0.00848472 0)
(-0.00637009 -0.00775667 0)
(-0.00555453 -0.0067331 0)
(-0.004689 -0.00555363 0)
(-0.00381706 -0.00436908 0)
(-0.0029873 -0.00321132 0)
(-0.0022126 -0.00215241 0)
(-0.00151474 -0.00119339 0)
(-0.000895648 -0.000369519 0)
(-0.000358122 0.000340998 0)
(8.00895e-05 0.000922621 0)
(0.000436285 0.00139456 0)
(0.000713058 0.00177223 0)
(0.000904492 0.00204343 0)
(0.00103414 0.00224768 0)
(0.00110265 0.00238337 0)
(0.00109891 0.0024458 0)
(0.00105221 0.00247338 0)
(0.000962426 0.00245596 0)
(0.000827187 0.00240658 0)
(0.000656719 0.00233921 0)
(0.000459307 0.00226025 0)
(0.000235602 0.00216697 0)
(-8.37148e-06 0.00207999 0)
(-0.000259853 0.00198753 0)
(-0.00053413 0.00190212 0)
(-0.000810939 0.00182288 0)
(-0.00108962 0.00175225 0)
(-0.0013751 0.00168713 0)
(-0.00165948 0.00162493 0)
(-0.00193736 0.00156661 0)
(-0.00221385 0.00151026 0)
(-0.00248806 0.00145159 0)
(-0.00275706 0.00139031 0)
(-0.0030228 0.00132493 0)
(-0.00328232 0.00125044 0)
(-0.00353511 0.00116943 0)
(-0.00378308 0.00108415 0)
(-0.00402893 0.000993833 0)
(-0.00427414 0.000901911 0)
(-0.00451483 0.000811867 0)
(-0.00475106 0.000722894 0)
(-0.0049836 0.000633191 0)
(-0.00521068 0.000547068 0)
(-0.00543053 0.000468341 0)
(-0.00564367 0.000395727 0)
(-0.0058541 0.00033074 0)
(-0.00606091 0.000274532 0)
(-0.00626062 0.000228895 0)
(-0.00645381 0.000193525 0)
(-0.00664384 0.000165448 0)
(-0.00683084 0.000148795 0)
(-0.00701069 0.000145997 0)
(-0.00718488 0.000154426 0)
(-0.00735734 0.000174272 0)
(-0.007525 0.000202375 0)
(-0.00768495 0.000237667 0)
(-0.0078406 0.00028305 0)
(-0.00799463 0.000333774 0)
(-0.00814546 0.000387019 0)
(-0.00829273 0.000446052 0)
(-0.00843625 0.000508215 0)
(-0.00857468 0.000570841 0)
(-0.00871122 0.000635377 0)
(-0.00884648 0.000699432 0)
(-0.00897486 0.000761252 0)
(-0.00909748 0.000821437 0)
(-0.00921751 0.000875064 0)
(-0.00933146 0.00091776 0)
(-0.00944072 0.000952627 0)
(-0.00954816 0.000981165 0)
(-0.00964796 0.00100009 0)
(-0.00974051 0.00100873 0)
(-0.00983292 0.00100829 0)
(-0.00991993 0.000998134 0)
(-0.00999448 0.000978912 0)
(-0.0100636 0.000952196 0)
(-0.0101306 0.000916438 0)
(-0.0101878 0.000870416 0)
(-0.0102339 0.000817371 0)
(-0.010274 0.000760069 0)
(-0.010306 0.000697286 0)
(-0.0103267 0.000628738 0)
(-0.0103391 0.000557023 0)
(-0.0103426 0.000483042 0)
(-0.0103322 0.000405571 0)
(-0.0103093 0.000325049 0)
(-0.0102783 0.000242742 0)
(-0.0102376 0.000158157 0)
(-0.0101842 7.1459e-05 0)
(-0.0101204 -1.43477e-05 0)
(-0.0100481 -9.67446e-05 0)
(-0.00996535 -0.000176013 0)
(-0.00987149 -0.00025217 0)
(-0.00976796 -0.000323094 0)
(-0.00965313 -0.000387635 0)
(-0.00952397 -0.00044764 0)
(-0.00938151 -0.00050537 0)
(-0.00922892 -0.000561375 0)
(-0.00906617 -0.000615835 0)
(-0.00889156 -0.000669648 0)
(-0.00870593 -0.00072338 0)
(-0.00851138 -0.000776905 0)
(-0.00830832 -0.000830335 0)
(-0.00809686 -0.000883705 0)
(-0.00787852 -0.000935737 0)
(-0.00765442 -0.000984457 0)
(-0.00742422 -0.00102906 0)
(-0.00718842 -0.00106981 0)
(-0.00694907 -0.00110605 0)
(-0.00670692 -0.00113575 0)
(-0.00646059 -0.00115701 0)
(-0.00620981 -0.00116915 0)
(-0.00595669 -0.0011721 0)
(-0.00570262 -0.00116559 0)
(-0.00544638 -0.00114928 0)
(-0.00518641 -0.00112335 0)
(-0.00492283 -0.0010889 0)
(-0.00465643 -0.00104779 0)
(-0.00438726 -0.00100229 0)
(-0.00411572 -0.000954907 0)
(-0.00384377 -0.000907917 0)
(-0.00357385 -0.000862767 0)
(-0.00330661 -0.000820192 0)
(-0.00304135 -0.000781176 0)
(-0.00277946 -0.000746628 0)
(-0.00252537 -0.000716109 0)
(-0.00228224 -0.000688013 0)
(-0.00204975 -0.000660062 0)
(-0.00182719 -0.000629633 0)
(-0.0016155 -0.000594814 0)
(-0.00141761 -0.000553437 0)
(-0.00123581 -0.000502157 0)
(-0.00106772 -0.000438838 0)
(-0.000910072 -0.000362603 0)
(-0.000762997 -0.000273336 0)
(-0.000626834 -0.000173555 0)
(-0.00050269 -6.58292e-05 0)
(-0.000391739 4.82964e-05 0)
(-0.000292334 0.00016523 0)
(-0.000204735 0.000281289 0)
(-0.000130803 0.000393249 0)
(-7.08984e-05 0.000497004 0)
(-2.62731e-05 0.000589785 0)
(9.44083e-07 0.000668993 0)
(8.90516e-06 0.000730788 0)
(-2.21312e-06 0.000770381 0)
(-2.94283e-05 0.000781051 0)
(-6.73814e-05 0.000752102 0)
(-0.000108705 0.000663942 0)
(-0.000146296 0.000485125 0)
(-0.000160351 0.000164303 0)
(-0.000123522 -0.000296025 0)
(-5.61602e-05 -0.000413848 0)
(-0.00170408 0.00835353 0)
(-0.00411091 0.00793048 0)
(-0.00664211 0.000327197 0)
(-0.0080583 -0.00496224 0)
(-0.00865131 -0.00771148 0)
(-0.00883093 -0.00882247 0)
(-0.00868659 -0.00889586 0)
(-0.00834465 -0.00834772 0)
(-0.00783494 -0.00741054 0)
(-0.00724695 -0.0063044 0)
(-0.00661222 -0.00511705 0)
(-0.00593172 -0.003949 0)
(-0.00527163 -0.0028538 0)
(-0.0046337 -0.00184868 0)
(-0.00402913 -0.000953919 0)
(-0.00348995 -0.0001831 0)
(-0.00300314 0.00047447 0)
(-0.00257199 0.00102552 0)
(-0.00222506 0.00146196 0)
(-0.00192689 0.00182056 0)
(-0.00169388 0.00208036 0)
(-0.00154176 0.00227426 0)
(-0.00142862 0.00240367 0)
(-0.00137015 0.00248253 0)
(-0.00137625 0.00250469 0)
(-0.00142303 0.00251083 0)
(-0.00151274 0.00247201 0)
(-0.00163805 0.00243114 0)
(-0.00179508 0.00236053 0)
(-0.00199062 0.00230149 0)
(-0.00220288 0.00222548 0)
(-0.00242347 0.00215224 0)
(-0.00267042 0.00208546 0)
(-0.00293218 0.00201931 0)
(-0.00319563 0.00195693 0)
(-0.00346221 0.00189953 0)
(-0.0037345 0.00184138 0)
(-0.00400966 0.00177962 0)
(-0.00428005 0.00171645 0)
(-0.00454742 0.00165081 0)
(-0.00482077 0.00158171 0)
(-0.00509466 0.00150771 0)
(-0.00536328 0.00142865 0)
(-0.00563032 0.00134342 0)
(-0.00589884 0.0012512 0)
(-0.00616735 0.00115643 0)
(-0.00643318 0.00106181 0)
(-0.00670073 0.000968596 0)
(-0.00696948 0.000877489 0)
(-0.00723365 0.000790186 0)
(-0.00749444 0.000709624 0)
(-0.0077526 0.000633062 0)
(-0.00800759 0.000562488 0)
(-0.00825892 0.00050226 0)
(-0.00850495 0.000451411 0)
(-0.00874766 0.0004106 0)
(-0.00898716 0.00037901 0)
(-0.00921905 0.000357289 0)
(-0.00944342 0.000349219 0)
(-0.00966191 0.00035135 0)
(-0.00987415 0.000362213 0)
(-0.0100801 0.000385094 0)
(-0.0102753 0.00041648 0)
(-0.0104601 0.000453504 0)
(-0.0106412 0.000496799 0)
(-0.0108139 0.000544269 0)
(-0.0109746 0.000596276 0)
(-0.0111295 0.000653511 0)
(-0.0112762 0.000711003 0)
(-0.0114122 0.000766699 0)
(-0.0115416 0.000823423 0)
(-0.0116602 0.000879369 0)
(-0.0117658 0.000930257 0)
(-0.0118664 0.000975128 0)
(-0.0119597 0.00101276 0)
(-0.0120394 0.00104156 0)
(-0.0121107 0.00106248 0)
(-0.0121768 0.00107496 0)
(-0.012234 0.00107655 0)
(-0.0122829 0.00106828 0)
(-0.0123245 0.00105234 0)
(-0.0123571 0.0010271 0)
(-0.0123818 0.000991248 0)
(-0.0124004 0.000946915 0)
(-0.0124108 0.000895115 0)
(-0.012412 0.000835139 0)
(-0.0124053 0.000768501 0)
(-0.0123905 0.00069724 0)
(-0.0123676 0.000620815 0)
(-0.0123374 0.000539154 0)
(-0.0122978 0.000454667 0)
(-0.0122466 0.000368492 0)
(-0.0121862 0.000279067 0)
(-0.0121187 0.000185865 0)
(-0.0120422 9.09266e-05 0)
(-0.0119556 -3.66427e-06 0)
(-0.0118605 -9.71387e-05 0)
(-0.0117577 -0.000189005 0)
(-0.011646 -0.000278369 0)
(-0.0115257 -0.000364154 0)
(-0.0113964 -0.00044533 0)
(-0.0112554 -0.000521375 0)
(-0.0111015 -0.000592916 0)
(-0.0109377 -0.000661496 0)
(-0.0107652 -0.000728376 0)
(-0.0105814 -0.000793833 0)
(-0.0103855 -0.00085774 0)
(-0.0101807 -0.000920348 0)
(-0.00996941 -0.000982211 0)
(-0.00975015 -0.00104353 0)
(-0.00952188 -0.00110375 0)
(-0.00928718 -0.00116167 0)
(-0.00904835 -0.001216 0)
(-0.00880473 -0.00126592 0)
(-0.00855581 -0.00131104 0)
(-0.00830339 -0.00135069 0)
(-0.00804846 -0.00138362 0)
(-0.0077892 -0.00140843 0)
(-0.00752451 -0.00142404 0)
(-0.00725661 -0.00142994 0)
(-0.00698765 -0.00142632 0)
(-0.00671594 -0.00141374 0)
(-0.00643826 -0.00139237 0)
(-0.00615424 -0.0013623 0)
(-0.00586598 -0.00132466 0)
(-0.00557467 -0.00128201 0)
(-0.00527999 -0.00123717 0)
(-0.00498237 -0.00119188 0)
(-0.00468383 -0.00114668 0)
(-0.0043864 -0.00110183 0)
(-0.00409095 -0.00105853 0)
(-0.00379874 -0.00101826 0)
(-0.0035131 -0.000980722 0)
(-0.00323685 -0.000943951 0)
(-0.00297013 -0.00090569 0)
(-0.00271318 -0.000863515 0)
(-0.00246765 -0.000815821 0)
(-0.00223549 -0.00076151 0)
(-0.00201798 -0.000697883 0)
(-0.001813 -0.000622696 0)
(-0.00161714 -0.000535383 0)
(-0.00143095 -0.000435421 0)
(-0.0012555 -0.000324722 0)
(-0.00109043 -0.000206455 0)
(-0.000936337 -8.20501e-05 0)
(-0.00079245 4.57649e-05 0)
(-0.000658831 0.000173652 0)
(-0.000537716 0.000298902 0)
(-0.000429801 0.000417854 0)
(-0.000336135 0.000527054 0)
(-0.000259412 0.000623207 0)
(-0.000202282 0.000702617 0)
(-0.000165246 0.00075994 0)
(-0.000145809 0.000786994 0)
(-0.000140118 0.00077001 0)
(-0.000142391 0.000685372 0)
(-0.000147312 0.00049672 0)
(-0.000137762 0.000145552 0)
(-9.70648e-05 -0.000363921 0)
(-4.47007e-05 -0.000481834 0)
(-0.00151833 0.0106477 0)
(-0.00368151 0.0109386 0)
(-0.00614712 0.0022972 0)
(-0.00771666 -0.00384191 0)
(-0.00854775 -0.00715232 0)
(-0.00899894 -0.00863987 0)
(-0.00916121 -0.00899355 0)
(-0.00908225 -0.00861745 0)
(-0.00885863 -0.00782725 0)
(-0.00851136 -0.00680477 0)
(-0.00805658 -0.00567571 0)
(-0.00757697 -0.00454295 0)
(-0.00705451 -0.00344376 0)
(-0.006519 -0.00242425 0)
(-0.00600188 -0.00150467 0)
(-0.00550178 -0.000688488 0)
(-0.0050377 2.48409e-05 0)
(-0.00462835 0.000623081 0)
(-0.00425482 0.00112615 0)
(-0.00394686 0.00153837 0)
(-0.0036936 0.00186 0)
(-0.00347914 0.00211026 0)
(-0.00333914 0.00230052 0)
(-0.00325602 0.00242237 0)
(-0.00320594 0.00250677 0)
(-0.00321551 0.00254931 0)
(-0.00327263 0.00255919 0)
(-0.00336715 0.0025478 0)
(-0.00349862 0.00252187 0)
(-0.0036599 0.00247674 0)
(-0.0038574 0.00243566 0)
(-0.0040715 0.0023841 0)
(-0.0043048 0.00232716 0)
(-0.00455453 0.00227387 0)
(-0.004816 0.0022216 0)
(-0.00508793 0.00216874 0)
(-0.00536722 0.00211446 0)
(-0.00565011 0.00205785 0)
(-0.00593373 0.00199867 0)
(-0.00621871 0.00193223 0)
(-0.006508 0.00185947 0)
(-0.00679837 0.00178479 0)
(-0.00708953 0.00170665 0)
(-0.00738464 0.00162269 0)
(-0.00768145 0.00153301 0)
(-0.00797853 0.00144158 0)
(-0.00827557 0.00134785 0)
(-0.00857466 0.00125218 0)
(-0.00887575 0.00116013 0)
(-0.0091742 0.00107213 0)
(-0.00947186 0.000988858 0)
(-0.00976924 0.000910711 0)
(-0.0100623 0.00083778 0)
(-0.010352 0.000774286 0)
(-0.0106375 0.000718612 0)
(-0.0109182 0.000670229 0)
(-0.0111962 0.000633984 0)
(-0.0114656 0.000608356 0)
(-0.0117249 0.000591574 0)
(-0.0119791 0.000585254 0)
(-0.0122239 0.000587875 0)
(-0.0124568 0.000600168 0)
(-0.01268 0.00062258 0)
(-0.0128919 0.000650205 0)
(-0.0130937 0.000681837 0)
(-0.0132837 0.000719895 0)
(-0.0134583 0.000762353 0)
(-0.0136225 0.000806761 0)
(-0.0137774 0.000852986 0)
(-0.0139179 0.000899368 0)
(-0.014044 0.000944702 0)
(-0.0141571 0.000988535 0)
(-0.0142578 0.00102781 0)
(-0.0143469 0.00106039 0)
(-0.0144227 0.00108714 0)
(-0.0144856 0.00110717 0)
(-0.0145386 0.00111817 0)
(-0.0145803 0.00111997 0)
(-0.0146105 0.00111281 0)
(-0.0146327 0.00109613 0)
(-0.0146453 0.00107061 0)
(-0.0146456 0.00103687 0)
(-0.0146379 0.000993596 0)
(-0.0146242 0.000940256 0)
(-0.0146005 0.000879191 0)
(-0.0145661 0.00081247 0)
(-0.0145242 0.000739376 0)
(-0.0144751 0.000658902 0)
(-0.0144181 0.000572643 0)
(-0.0143533 0.000483269 0)
(-0.0142788 0.00039139 0)
(-0.0141939 0.000295922 0)
(-0.0141018 0.000196814 0)
(-0.014004 9.55121e-05 0)
(-0.0138964 -6.75212e-06 0)
(-0.0137778 -0.000109303 0)
(-0.0136523 -0.000211112 0)
(-0.0135216 -0.000311101 0)
(-0.0133824 -0.000408784 0)
(-0.0132333 -0.00050351 0)
(-0.0130753 -0.000594103 0)