/*--------------------------------*- C++ -*----------------------------------*\
  =========                 |
  \\      /  F ield         | OpenFOAM: The Open Source CFD Toolbox
   \\    /   O peration     | Website:  https://openfoam.org
    \\  /    A nd           | Version:  7
     \\/     M anipulation  |
\*---------------------------------------------------------------------------*/
FoamFile
{
    version     2.0;
    format      ascii;
    class       surfaceScalarField;
    location    "0.175";
    object      phi;
}
// * * * * * * * * * * * * * * * * * * * * * * * * * * * * * * * * * * * * * //

dimensions      [0 3 -1 0 0 0 0];

internalField   nonuniform List<scalar> 
50880
(
9.29924e-12
-9.28919e-12
2.83015e-11
-1.90068e-11
4.77358e-11
-1.94362e-11
5.96016e-11
-1.18674e-11
6.05053e-11
-9.02948e-13
4.92203e-11
1.12851e-11
2.52668e-11
2.39592e-11
-1.1229e-11
3.64947e-11
-5.98224e-11
4.8595e-11
-1.19924e-10
6.00975e-11
-1.90806e-10
7.0884e-11
-2.71714e-10
8.09064e-11
-3.61851e-10
9.01369e-11
-4.60424e-10
9.85734e-11
-5.66669e-10
1.06242e-10
-6.79839e-10
1.13168e-10
-7.99227e-10
1.19388e-10
-9.24156e-10
1.24931e-10
-1.05397e-09
1.29825e-10
-1.18809e-09
1.34115e-10
-1.32593e-09
1.37846e-10
-1.46699e-09
1.41058e-10
-1.61079e-09
1.43793e-10
-1.75686e-09
1.46077e-10
-1.90481e-09
1.47948e-10
-2.05426e-09
1.49451e-10
-2.20488e-09
1.50611e-10
-2.35633e-09
1.5145e-10
-2.50833e-09
1.52004e-10
-2.66064e-09
1.52301e-10
-2.813e-09
1.52357e-10
-2.9652e-09
1.52202e-10
-3.11706e-09
1.51861e-10
-3.2684e-09
1.51342e-10
-3.41906e-09
1.50659e-10
-3.56889e-09
1.49828e-10
-3.71775e-09
1.48862e-10
-3.86552e-09
1.47773e-10
-4.0121e-09
1.46581e-10
-4.1574e-09
1.45298e-10
-4.30132e-09
1.43918e-10
-4.44376e-09
1.42438e-10
-4.58464e-09
1.40875e-10
-4.72387e-09
1.39238e-10
-4.8614e-09
1.37529e-10
-4.99714e-09
1.35743e-10
-5.13103e-09
1.33887e-10
-5.26299e-09
1.31963e-10
-5.39297e-09
1.29969e-10
-5.52087e-09
1.27904e-10
-5.64664e-09
1.25773e-10
-5.77021e-09
1.23576e-10
-5.89152e-09
1.21309e-10
-6.01049e-09
1.18969e-10
-6.12705e-09
1.16556e-10
-6.24113e-09
1.14077e-10
-6.35266e-09
1.11528e-10
-6.46156e-09
1.08902e-10
-6.56776e-09
1.062e-10
-6.67119e-09
1.03425e-10
-6.77177e-09
1.00578e-10
-6.86942e-09
9.76536e-11
-6.96407e-09
9.46472e-11
-7.05562e-09
9.15584e-11
-7.14401e-09
8.83902e-11
-7.22915e-09
8.51421e-11
-7.31096e-09
8.18095e-11
-7.38935e-09
7.83904e-11
-7.46424e-09
7.48872e-11
-7.53554e-09
7.13018e-11
-7.60317e-09
6.76323e-11
-7.66705e-09
6.38755e-11
-7.72708e-09
6.00311e-11
-7.78318e-09
5.61028e-11
-7.83528e-09
5.20929e-11
-7.88328e-09
4.7999e-11
-7.9271e-09
4.38188e-11
-7.96665e-09
3.95546e-11
-8.00186e-09
3.52105e-11
-8.03264e-09
3.07875e-11
-8.05892e-09
2.62837e-11
-8.08062e-09
2.16984e-11
-8.09766e-09
1.7035e-11
-8.10996e-09
1.22996e-11
-8.11746e-09
7.49593e-12
-8.12008e-09
2.62294e-12
-8.11776e-09
-2.32085e-12
-8.11042e-09
-7.332e-12
-8.09802e-09
-1.24038e-11
-8.08049e-09
-1.75309e-11
-8.05778e-09
-2.27107e-11
-8.02984e-09
-2.79408e-11
-7.99662e-09
-3.32176e-11
-7.95808e-09
-3.85357e-11
-7.91419e-09
-4.38892e-11
-7.86492e-09
-4.92728e-11
-7.81024e-09
-5.46823e-11
-7.75012e-09
-6.0113e-11
-7.68457e-09
-6.55586e-11
-7.61355e-09
-7.10114e-11
-7.53709e-09
-7.64643e-11
-7.45518e-09
-8.1912e-11
-7.36783e-09
-8.73494e-11
-7.27506e-09
-9.27692e-11
-7.1769e-09
-9.81618e-11
-7.07338e-09
-1.03517e-10
-6.96455e-09
-1.08827e-10
-6.85047e-09
-1.14082e-10
-6.73119e-09
-1.19276e-10
-6.60679e-09
-1.24398e-10
-6.47736e-09
-1.29436e-10
-6.34298e-09
-1.34378e-10
-6.20377e-09
-1.39212e-10
-6.05984e-09
-1.43929e-10
-5.91132e-09
-1.48518e-10
-5.75836e-09
-1.52965e-10
-5.6011e-09
-1.57256e-10
-5.43973e-09
-1.61374e-10
-5.27442e-09
-1.65305e-10
-5.10539e-09
-1.69035e-10
-4.93284e-09
-1.72549e-10
-4.75701e-09
-1.7583e-10
-4.57815e-09
-1.78857e-10
-4.39654e-09
-1.81611e-10
-4.21246e-09
-1.84074e-10
-4.02623e-09
-1.86227e-10
-3.83819e-09
-1.88048e-10
-3.64867e-09
-1.89516e-10
-3.45806e-09
-1.90609e-10
-3.26676e-09
-1.91304e-10
-3.07519e-09
-1.91575e-10
-2.88379e-09
-1.91399e-10
-2.69304e-09
-1.90752e-10
-2.50343e-09
-1.89609e-10
-2.31549e-09
-1.87943e-10
-2.12976e-09
-1.85726e-10
-1.94683e-09
-1.82931e-10
-1.7673e-09
-1.79531e-10
-1.5918e-09
-1.75501e-10
-1.42098e-09
-1.70815e-10
-1.25554e-09
-1.65444e-10
-1.09618e-09
-1.5936e-10
-9.43641e-10
-1.52537e-10
-7.98691e-10
-1.4495e-10
-6.62113e-10
-1.36578e-10
-5.34711e-10
-1.27403e-10
-4.173e-10
-1.1741e-10
-3.10707e-10
-1.06592e-10
-2.15753e-10
-9.49529e-11
-1.3324e-10
-8.25121e-11
-6.39284e-11
-6.93119e-11
-8.49493e-12
-5.54333e-11
3.25253e-11
-4.10204e-11
5.88365e-11
-2.63121e-11
7.05512e-11
-1.17161e-11
6.84706e-11
2.07957e-12
5.45642e-11
1.39059e-11
3.27799e-11
2.17847e-11
1.05989e-11
2.21821e-11
1.06002e-11
1.89524e-11
-2.82462e-11
4.7924e-11
-4.79691e-11
7.03135e-11
-4.18286e-11
7.43437e-11
-1.58981e-11
5.25919e-11
2.08453e-11
8.48706e-13
6.30226e-11
-8.27095e-11
1.0751e-10
-1.98543e-10
1.5233e-10
-3.46153e-10
1.96201e-10
-5.24364e-10
2.38313e-10
-7.31661e-10
2.78177e-10
-9.66254e-10
3.15498e-10
-1.22623e-09
3.50112e-10
-1.50962e-09
3.81965e-10
-1.81444e-09
4.11067e-10
-2.13874e-09
4.37469e-10
-2.48064e-09
4.61275e-10
-2.83829e-09
4.82582e-10
-3.20998e-09
5.015e-10
-3.59404e-09
5.18174e-10
-3.98892e-09
5.32736e-10
-4.39319e-09
5.45324e-10
-4.80548e-09
5.5608e-10
-5.22453e-09
5.65128e-10
-5.64918e-09
5.726e-10
-6.07835e-09
5.78629e-10
-6.51106e-09
5.8332e-10
-6.94639e-09
5.86785e-10
-7.38352e-09
5.89139e-10
-7.82169e-09
5.90473e-10
-8.2602e-09
5.90872e-10
-8.69843e-09
5.90432e-10
-9.1358e-09
5.89228e-10
-9.57177e-09
5.87317e-10
-1.00059e-08
5.84771e-10
-1.04377e-08
5.81645e-10
-1.08668e-08
5.77982e-10
-1.12929e-08
5.73832e-10
-1.17156e-08
5.69247e-10
-1.21345e-08
5.64257e-10
-1.25495e-08
5.58877e-10
-1.29602e-08
5.53132e-10
-1.33663e-08
5.47051e-10
-1.37678e-08
5.40654e-10
-1.41642e-08
5.33951e-10
-1.45554e-08
5.26953e-10
-1.49412e-08
5.19673e-10
-1.53213e-08
5.12114e-10
-1.56956e-08
5.04277e-10
-1.60639e-08
4.96167e-10
-1.64259e-08
4.87791e-10
-1.67815e-08
4.79149e-10
-1.71304e-08
4.70235e-10
-1.74725e-08
4.61045e-10
-1.78075e-08
4.5158e-10
-1.81353e-08
4.4184e-10
-1.84556e-08
4.31821e-10
-1.87682e-08
4.21514e-10
-1.90729e-08
4.10917e-10
-1.93695e-08
4.00031e-10
-1.96578e-08
3.88851e-10
-1.99375e-08
3.77371e-10
-2.02084e-08
3.65585e-10
-2.04704e-08
3.5349e-10
-2.07231e-08
3.41087e-10
-2.09663e-08
3.28372e-10
-2.11998e-08
3.15336e-10
-2.14234e-08
3.0198e-10
-2.16368e-08
2.88304e-10
-2.18398e-08
2.74309e-10
-2.20322e-08
2.5999e-10
-2.22137e-08
2.45343e-10
-2.2384e-08
2.30371e-10
-2.2543e-08
2.15078e-10
-2.26903e-08
1.99467e-10
-2.28259e-08
1.83534e-10
-2.29493e-08
1.67279e-10
-2.30605e-08
1.50708e-10
-2.31591e-08
1.3383e-10
-2.3245e-08
1.16648e-10
-2.33179e-08
9.91665e-11
-2.33775e-08
8.13875e-11
-2.34238e-08
6.3319e-11
-2.34565e-08
4.49715e-11
-2.34753e-08
2.63545e-11
-2.34802e-08
7.47628e-12
-2.34709e-08
-1.16543e-11
-2.34472e-08
-3.10253e-11
-2.3409e-08
-5.06224e-11
-2.33561e-08
-7.04313e-11
-2.32883e-08
-9.04391e-11
-2.32056e-08
-1.10632e-10
-2.31079e-08
-1.30994e-10
-2.29949e-08
-1.51506e-10
-2.28666e-08
-1.72149e-10
-2.2723e-08
-1.92904e-10
-2.25639e-08
-2.13752e-10
-2.23894e-08
-2.34673e-10
-2.21993e-08
-2.55643e-10
-2.19937e-08
-2.76636e-10
-2.17725e-08
-2.97626e-10
-2.15358e-08
-3.18589e-10
-2.12837e-08
-3.39499e-10
-2.10161e-08
-3.60329e-10
-2.07332e-08
-3.81046e-10
-2.04351e-08
-4.01618e-10
-2.01219e-08
-4.22008e-10
-1.97938e-08
-4.42186e-10
-1.9451e-08
-4.62114e-10
-1.90936e-08
-4.81757e-10
-1.8722e-08
-5.01071e-10
-1.83364e-08
-5.20015e-10
-1.7937e-08
-5.38545e-10
-1.75243e-08
-5.56616e-10
-1.70987e-08
-5.74183e-10
-1.66604e-08
-5.91194e-10
-1.62101e-08
-6.07596e-10
-1.57481e-08
-6.23332e-10
-1.52751e-08
-6.38347e-10
-1.47916e-08
-6.52581e-10
-1.42981e-08
-6.65974e-10
-1.37955e-08
-6.78458e-10
-1.32844e-08
-6.89967e-10
-1.27656e-08
-7.00427e-10
-1.22399e-08
-7.09766e-10
-1.17082e-08
-7.17908e-10
-1.11715e-08
-7.24773e-10
-1.06307e-08
-7.3028e-10
-1.0087e-08
-7.34344e-10
-9.54141e-09
-7.36876e-10
-8.9952e-09
-7.37788e-10
-8.44962e-09
-7.36987e-10
-7.90599e-09
-7.3438e-10
-7.36573e-09
-7.29871e-10
-6.83031e-09
-7.23363e-10
-6.30127e-09
-7.14756e-10
-5.78025e-09
-7.03951e-10
-5.26893e-09
-6.90849e-10
-4.76908e-09
-6.75352e-10
-4.28253e-09
-6.57365e-10
-3.81118e-09
-6.36794e-10
-3.357e-09
-6.13547e-10
-2.922e-09
-5.87539e-10
-2.50825e-09
-5.58697e-10
-2.11787e-09
-5.26959e-10
-1.75299e-09
-4.92283e-10
-1.41575e-09
-4.5465e-10
-1.10826e-09
-4.14076e-10
-8.32584e-10
-3.70629e-10
-5.90646e-10
-3.24449e-10
-3.84176e-10
-2.75781e-10
-2.14581e-10
-2.25029e-10
-8.27737e-11
-1.7283e-10
1.10856e-11
-1.20173e-10
6.79646e-11
-6.85957e-11
9.05103e-11
-2.04655e-11
8.38513e-11
2.05668e-11
5.66399e-11
4.89984e-11
2.21375e-11
5.66867e-11
3.27386e-11
1.70963e-11
-4.53444e-11
3.85766e-11
-6.94549e-11
4.43029e-11
-4.75534e-11
2.07008e-11
7.70173e-12
-4.14636e-11
8.30078e-11
-1.47888e-10
1.6945e-10
-3.01537e-10
2.61159e-10
-5.0341e-10
3.54197e-10
-7.5313e-10
4.4592e-10
-1.04935e-09
5.34532e-10
-1.39007e-09
6.18896e-10
-1.77285e-09
6.98276e-10
-2.19499e-09
7.72243e-10
-2.65363e-09
8.40608e-10
-3.14587e-09
9.03306e-10
-3.66879e-09
9.60399e-10
-4.21955e-09
1.01204e-09
-4.79536e-09
1.05839e-09
-5.39356e-09
1.0997e-09
-6.01161e-09
1.13622e-09
-6.6471e-09
1.16822e-09
-7.29774e-09
1.19596e-09
-7.9614e-09
1.21975e-09
-8.63611e-09
1.23983e-09
-9.32001e-09
1.2565e-09
-1.00114e-08
1.26999e-09
-1.07086e-08
1.28057e-09
-1.14103e-08
1.28847e-09
-1.21151e-08
1.29391e-09
-1.28217e-08
1.29709e-09
-1.35291e-08
1.29822e-09
-1.42361e-08
1.29748e-09
-1.49419e-08
1.29502e-09
-1.56456e-08
1.291e-09
-1.63464e-08
1.28556e-09
-1.70435e-08
1.27881e-09
-1.77364e-08
1.27086e-09
-1.84244e-08
1.26182e-09
-1.91069e-08
1.25178e-09
-1.97835e-08
1.24081e-09
-2.04536e-08
1.22897e-09
-2.11168e-08
1.21632e-09
-2.17726e-08
1.20291e-09
-2.24208e-08
1.18877e-09
-2.30607e-08
1.17394e-09
-2.36922e-08
1.15845e-09
-2.43149e-08
1.14231e-09
-2.49283e-08
1.12555e-09
-2.55322e-08
1.10818e-09
-2.61262e-08
1.09019e-09
-2.671e-08
1.07161e-09
-2.72833e-08
1.05242e-09
-2.78457e-08
1.03264e-09
-2.83969e-08
1.01225e-09
-2.89366e-08
9.9125e-10
-2.94644e-08
9.69642e-10
-2.998e-08
9.47415e-10
-3.04831e-08
9.24561e-10
-3.09732e-08
9.01073e-10
-3.14501e-08
8.76947e-10
-3.19134e-08
8.52174e-10
-3.23628e-08
8.26744e-10
-3.27979e-08
8.00648e-10
-3.32183e-08
7.73883e-10
-3.36236e-08
7.46442e-10
-3.40136e-08
7.18317e-10
-3.43877e-08
6.89502e-10
-3.47457e-08
6.59993e-10
-3.50872e-08
6.29789e-10
-3.54118e-08
5.98889e-10
-3.57191e-08
5.67286e-10
-3.60087e-08
5.34978e-10
-3.62803e-08
5.01969e-10
-3.65335e-08
4.68264e-10
-3.67679e-08
4.33867e-10
-3.69832e-08
3.98777e-10
-3.71789e-08
3.62999e-10
-3.73547e-08
3.26542e-10
-3.75103e-08
2.89417e-10
-3.76453e-08
2.51633e-10
-3.77593e-08
2.13204e-10
-3.78521e-08
1.74142e-10
-3.79232e-08
1.34464e-10
-3.79724e-08
9.41879e-11
-3.79994e-08
5.33324e-11
-3.80039e-08
1.19168e-11
-3.79855e-08
-3.00363e-11
-3.7944e-08
-7.25004e-11
-3.78792e-08
-1.15446e-10
-3.77908e-08
-1.58844e-10
-3.76785e-08
-2.02664e-10
-3.75423e-08
-2.46875e-10
-3.73819e-08
-2.91441e-10
-3.7197e-08
-3.36323e-10
-3.69877e-08
-3.81481e-10
-3.67537e-08
-4.26872e-10
-3.6495e-08
-4.72453e-10
-3.62115e-08
-5.18179e-10
-3.59032e-08
-5.63999e-10
-3.55699e-08
-6.0986e-10
-3.52119e-08
-6.55706e-10
-3.4829e-08
-7.01481e-10
-3.44213e-08
-7.47127e-10
-3.39891e-08
-7.92581e-10
-3.35324e-08
-8.37777e-10
-3.30513e-08
-8.82643e-10
-3.25462e-08
-9.27108e-10
-3.20173e-08
-9.71095e-10
-3.14649e-08
-1.01453e-09
-3.08893e-08
-1.05732e-09
-3.0291e-08
-1.09939e-09
-2.96704e-08
-1.14064e-09
-2.9028e-08
-1.18098e-09
-2.83643e-08
-1.22031e-09
-2.76799e-08
-1.25852e-09
-2.69756e-08
-1.29551e-09
-2.62521e-08
-1.33116e-09
-2.551e-08
-1.36535e-09
-2.47504e-08
-1.39795e-09
-2.39742e-08
-1.42884e-09
-2.31823e-08
-1.45789e-09
-2.23758e-08
-1.48495e-09
-2.15559e-08
-1.50986e-09
-2.07238e-08
-1.53249e-09
-1.98809e-08
-1.55267e-09
-1.90286e-08
-1.57022e-09
-1.81684e-08
-1.58499e-09
-1.73018e-08
-1.5968e-09
-1.64307e-08
-1.60546e-09
-1.55568e-08
-1.61078e-09
-1.4682e-08
-1.61257e-09
-1.38084e-08
-1.61064e-09
-1.2938e-08
-1.60478e-09
-1.20731e-08
-1.59479e-09
-1.1216e-08
-1.58046e-09
-1.03691e-08
-1.56159e-09
-9.53512e-09
-1.53796e-09
-8.7166e-09
-1.50937e-09
-7.91633e-09
-1.47562e-09
-7.13718e-09
-1.43651e-09
-6.38212e-09
-1.39186e-09
-5.65419e-09
-1.34148e-09
-4.9565e-09
-1.28522e-09
-4.29225e-09
-1.22295e-09
-3.66463e-09
-1.15458e-09
-3.07687e-09
-1.08004e-09
-2.53217e-09
-9.99353e-10
-2.03363e-09
-9.12618e-10
-1.58421e-09
-8.20051e-10
-1.18662e-09
-7.22038e-10
-8.43194e-10
-6.19203e-10
-5.55722e-10
-5.12502e-10
-3.25179e-10
-4.03375e-10
-1.51401e-10
-2.93952e-10
-3.26374e-11
-1.87361e-10
3.5069e-11
-8.81722e-11
5.86667e-11
-3.02952e-12
4.89787e-11
5.8688e-11
2.17353e-11
8.39315e-11
5.44748e-11
1.04574e-11
-5.58019e-11
1.35281e-11
-7.25268e-11
-1.06395e-11
-2.33884e-11
-7.57024e-11
7.27715e-11
-1.91303e-10
1.98604e-10
-3.63622e-10
3.41774e-10
-5.96115e-10
4.93651e-10
-8.90105e-10
6.48189e-10
-1.24531e-09
8.01121e-10
-1.66029e-09
9.49514e-10
-2.13276e-09
1.09136e-09
-2.65983e-09
1.22535e-09
-3.23825e-09
1.35067e-09
-3.86452e-09
1.46688e-09
-4.53502e-09
1.5738e-09
-5.24608e-09
1.67146e-09
-5.99407e-09
1.76003e-09
-6.77544e-09
1.83976e-09
-7.58675e-09
1.91101e-09
-8.42469e-09
1.97416e-09
-9.28612e-09
2.02964e-09
-1.0168e-08
2.07788e-09
-1.10676e-08
2.11934e-09
-1.19823e-08
2.15446e-09
-1.29095e-08
2.1837e-09
-1.38469e-08
2.20747e-09
-1.47926e-08
2.2262e-09
-1.57444e-08
2.24027e-09
-1.67005e-08
2.25007e-09
-1.76594e-08
2.25595e-09
-1.86194e-08
2.25823e-09
-1.95791e-08
2.25722e-09
-2.05373e-08
2.25321e-09
-2.14928e-08
2.24645e-09
-2.24444e-08
2.23718e-09
-2.33912e-08
2.2256e-09
-2.43322e-08
2.2119e-09
-2.52667e-08
2.19626e-09
-2.61937e-08
2.17884e-09
-2.71127e-08
2.15976e-09
-2.80228e-08
2.13913e-09
-2.89236e-08
2.11706e-09
-2.98143e-08
2.09363e-09
-3.06944e-08
2.06891e-09
-3.15634e-08
2.04296e-09
-3.24208e-08
2.01582e-09
-3.32661e-08
1.98755e-09
-3.40987e-08
1.95817e-09
-3.49182e-08
1.9277e-09
-3.57242e-08
1.89615e-09
-3.65161e-08
1.86355e-09
-3.72936e-08
1.82988e-09
-3.80561e-08
1.79516e-09
-3.88032e-08
1.75939e-09
-3.95345e-08
1.72255e-09
-4.02495e-08
1.68464e-09
-4.09478e-08
1.64566e-09
-4.16288e-08
1.60558e-09
-4.22921e-08
1.5644e-09
-4.29373e-08
1.52211e-09
-4.35638e-08
1.4787e-09
-4.41712e-08
1.43415e-09
-4.4759e-08
1.38845e-09
-4.53267e-08
1.3416e-09
-4.58739e-08
1.29358e-09
-4.63999e-08
1.24437e-09
-4.69044e-08
1.19398e-09
-4.73868e-08
1.1424e-09
-4.78466e-08
1.08962e-09
-4.82834e-08
1.03564e-09
-4.86966e-08
9.80458e-10
-4.90857e-08
9.24068e-10
-4.94502e-08
8.66476e-10
-4.97896e-08
8.07689e-10
-5.01034e-08
7.47711e-10
-5.03912e-08
6.86549e-10
-5.06524e-08
6.24215e-10
-5.08866e-08
5.60723e-10
-5.10933e-08
4.96091e-10
-5.1272e-08
4.30334e-10
-5.14222e-08
3.63473e-10
-5.15436e-08
2.95535e-10
-5.16357e-08
2.2655e-10
-5.16981e-08
1.56548e-10
-5.17303e-08
8.55614e-11
-5.1732e-08
1.36261e-11
-5.17028e-08
-5.92188e-11
-5.16424e-08
-1.32928e-10
-5.15504e-08
-2.07453e-10
-5.14265e-08
-2.82742e-10
-5.12704e-08
-3.58743e-10
-5.10819e-08
-4.35399e-10
-5.08607e-08
-5.1265e-10
-5.06066e-08
-5.90428e-10
-5.03194e-08
-6.68664e-10
-4.9999e-08
-7.47286e-10
-4.96452e-08
-8.26218e-10
-4.9258e-08
-9.05379e-10
-4.88373e-08
-9.84683e-10
-4.83832e-08
-1.06404e-09
-4.78955e-08
-1.14335e-09
-4.73745e-08
-1.22253e-09
-4.68201e-08
-1.30146e-09
-4.62327e-08
-1.38004e-09
-4.56123e-08
-1.45815e-09
-4.49593e-08
-1.53568e-09
-4.42739e-08
-1.61249e-09
-4.35565e-08
-1.68846e-09
-4.28076e-08
-1.76346e-09
-4.20276e-08
-1.83733e-09
-4.1217e-08
-1.90993e-09
-4.03766e-08
-1.9811e-09
-3.95069e-08
-2.05068e-09
-3.86087e-08
-2.1185e-09
-3.76828e-08
-2.18436e-09
-3.67302e-08
-2.2481e-09
-3.57519e-08
-2.30951e-09
-3.47489e-08
-2.36838e-09
-3.37223e-08
-2.4245e-09
-3.26735e-08
-2.47764e-09
-3.16038e-08
-2.52758e-09
-3.05147e-08
-2.57407e-09
-2.94077e-08
-2.61685e-09
-2.82845e-08
-2.65567e-09
-2.7147e-08
-2.69024e-09
-2.59969e-08
-2.72028e-09
-2.48364e-08
-2.74551e-09
-2.36676e-08
-2.76561e-09
-2.24927e-08
-2.78028e-09
-2.13143e-08
-2.7892e-09
-2.01349e-08
-2.79203e-09
-1.89571e-08
-2.78844e-09
-1.77838e-08
-2.77809e-09
-1.66179e-08
-2.76064e-09
-1.54627e-08
-2.73574e-09
-1.43212e-08
-2.70304e-09
-1.3197e-08
-2.6622e-09
-1.20934e-08
-2.61288e-09
-1.10143e-08
-2.55475e-09
-9.96335e-09
-2.48748e-09
-8.94442e-09
-2.41079e-09
-7.9615e-09
-2.3244e-09
-7.01864e-09
-2.22808e-09
-6.11994e-09
-2.12165e-09
-5.26952e-09
-2.00499e-09
-4.47149e-09
-1.87807e-09
-3.72985e-09
-1.74099e-09
-3.04849e-09
-1.59398e-09
-2.43102e-09
-1.43752e-09
-1.8807e-09
-1.27236e-09
-1.40026e-09
-1.09964e-09
-9.91691e-10
-9.21071e-10
-6.55958e-10
-7.39109e-10
-3.92653e-10
-5.57257e-10
-1.99543e-10
-3.80471e-10
-7.20094e-11
-2.15704e-10
-2.38712e-12
-7.26506e-11
2.0853e-11
3.54493e-11
1.39267e-11
9.08579e-11
6.84019e-11
5.59069e-13
-5.63594e-11
-2.19095e-11
-5.00613e-11
-8.49383e-11
3.96386e-11
-2.01073e-10
1.88903e-10
-3.79361e-10
3.7689e-10
-6.25789e-10
5.88196e-10
-9.43762e-10
8.11629e-10
-1.33462e-09
1.03904e-09
-1.79805e-09
1.26455e-09
-2.33248e-09
1.48395e-09
-2.9354e-09
1.69428e-09
-3.60361e-09
1.89356e-09
-4.33344e-09
2.0805e-09
-5.12089e-09
2.25433e-09
-5.9618e-09
2.41471e-09
-6.85191e-09
2.56157e-09
-7.78697e-09
2.69509e-09
-8.76279e-09
2.81558e-09
-9.77528e-09
2.9235e-09
-1.08205e-08
3.01937e-09
-1.18946e-08
3.10379e-09
-1.29941e-08
3.17737e-09
-1.41155e-08
3.24075e-09
-1.52557e-08
3.2946e-09
-1.64115e-08
3.33954e-09
-1.75802e-08
3.3762e-09
-1.87592e-08
3.40519e-09
-1.99461e-08
3.4271e-09
-2.11385e-08
3.44248e-09
-2.23344e-08
3.45186e-09
-2.35319e-08
3.45573e-09
-2.47292e-08
3.45453e-09
-2.59247e-08
3.44871e-09
-2.71169e-08
3.43864e-09
-2.83044e-08
3.42468e-09
-2.94859e-08
3.40714e-09
-3.06604e-08
3.38633e-09
-3.18266e-08
3.3625e-09
-3.29836e-08
3.33588e-09
-3.41305e-08
3.30667e-09
-3.52665e-08
3.27504e-09
-3.63906e-08
3.24117e-09
-3.75021e-08
3.20517e-09
-3.86003e-08
3.16715e-09
-3.96846e-08
3.12721e-09
-4.07542e-08
3.08543e-09
-4.18085e-08
3.04187e-09
-4.28469e-08
2.99658e-09
-4.38688e-08
2.9496e-09
-4.48736e-08
2.90096e-09
-4.58608e-08
2.85067e-09
-4.68296e-08
2.79874e-09
-4.77797e-08
2.74519e-09
-4.87103e-08
2.69e-09
-4.96209e-08
2.63319e-09
-5.0511e-08
2.57473e-09
-5.138e-08
2.51461e-09
-5.22272e-08
2.45283e-09
-5.30522e-08
2.38936e-09
-5.38542e-08
2.3242e-09
-5.46329e-08
2.25732e-09
-5.53874e-08
2.1887e-09
-5.61173e-08
2.11834e-09
-5.68219e-08
2.04623e-09
-5.75007e-08
1.97233e-09
-5.8153e-08
1.89665e-09
-5.87781e-08
1.81916e-09
-5.93756e-08
1.73988e-09
-5.99448e-08
1.65877e-09
-6.0485e-08
1.57585e-09
-6.09956e-08
1.49111e-09
-6.14761e-08
1.40455e-09
-6.19258e-08
1.31618e-09
-6.23441e-08
1.226e-09
-6.27304e-08
1.13402e-09
-6.30841e-08
1.04027e-09
-6.34047e-08
9.44742e-10
-6.36914e-08
8.47479e-10
-6.39438e-08
7.485e-10
-6.41613e-08
6.47834e-10
-6.43434e-08
5.45512e-10
-6.44894e-08
4.41574e-10
-6.45989e-08
3.36066e-10
-6.46714e-08
2.29033e-10
-6.47064e-08
1.20527e-10
-6.47034e-08
1.06038e-11
-6.46619e-08
-1.00675e-10
-6.45816e-08
-2.13242e-10
-6.4462e-08
-3.27024e-10
-6.43028e-08
-4.41944e-10
-6.41036e-08
-5.5792e-10
-6.38642e-08
-6.74867e-10
-6.35841e-08
-7.92689e-10
-6.32633e-08
-9.11286e-10
-6.29014e-08
-1.03055e-09
-6.24983e-08
-1.15038e-09
-6.20539e-08
-1.27065e-09
-6.1568e-08
-1.39125e-09
-6.10406e-08
-1.51203e-09
-6.04718e-08
-1.63286e-09
-5.98616e-08
-1.75361e-09
-5.921e-08
-1.87411e-09
-5.85172e-08
-1.99422e-09
-5.77835e-08
-2.11376e-09
-5.70091e-08
-2.23257e-09
-5.61943e-08
-2.35046e-09
-5.53395e-08
-2.46725e-09
-5.44453e-08
-2.58272e-09
-5.3512e-08
-2.69669e-09
-5.25404e-08
-2.80892e-09
-5.15312e-08
-2.91919e-09
-5.0485e-08
-3.02727e-09
-4.94028e-08
-3.13289e-09
-4.82855e-08
-3.23581e-09
-4.71341e-08
-3.33575e-09
-4.59498e-08
-3.43242e-09
-4.47337e-08
-3.52553e-09
-4.34874e-08
-3.61476e-09
-4.22121e-08
-3.69979e-09
-4.09094e-08
-3.78027e-09
-3.95812e-08
-3.85586e-09
-3.8229e-08
-3.92619e-09
-3.6855e-08
-3.99087e-09
-3.54612e-08
-4.0495e-09
-3.40498e-08
-4.10168e-09
-3.26231e-08
-4.14697e-09
-3.11837e-08
-4.18493e-09
-2.97342e-08
-4.2151e-09
-2.82774e-08
-4.23703e-09
-2.68164e-08
-4.25022e-09
-2.53543e-08
-4.25418e-09
-2.38943e-08
-4.24842e-09
-2.24399e-08
-4.23244e-09
-2.09948e-08
-4.20571e-09
-1.95628e-08
-4.16773e-09
-1.81479e-08
-4.11799e-09
-1.67541e-08
-4.05598e-09
-1.53858e-08
-3.98121e-09
-1.40473e-08
-3.89321e-09
-1.27433e-08
-3.79152e-09
-1.14783e-08
-3.67574e-09
-1.02572e-08
-3.5455e-09
-9.08483e-09
-3.4005e-09
-7.96598e-09
-3.24051e-09
-6.90555e-09
-3.06542e-09
-5.90834e-09
-2.87528e-09
-4.97902e-09
-2.6703e-09
-4.12205e-09
-2.45095e-09
-3.34156e-09
-2.21801e-09
-2.6412e-09
-1.97271e-09
-2.02399e-09
-1.71685e-09
-1.49206e-09
-1.453e-09
-1.04642e-09
-1.18475e-09
-6.86575e-10
-9.17099e-10
-4.10172e-10
-6.56873e-10
-2.12492e-10
-4.13382e-10
-8.59351e-11
-1.99206e-10
-1.94278e-11
-3.1056e-11
2.28333e-12
6.91473e-11
7.06849e-11
-1.12497e-11
-4.51093e-11
-6.3522e-11
2.20592e-12
-1.71131e-10
1.47249e-10
-3.4469e-10
3.62467e-10
-5.91984e-10
6.24181e-10
-9.18233e-10
9.14442e-10
-1.3264e-09
1.21979e-09
-1.81752e-09
1.53016e-09
-2.39108e-09
1.83811e-09
-3.04531e-09
2.13817e-09
-3.77745e-09
2.42642e-09
-4.58403e-09
2.70014e-09
-5.46103e-09
2.95749e-09
-6.40406e-09
3.19736e-09
-7.40853e-09
3.41918e-09
-8.4697e-09
3.62275e-09
-9.58283e-09
3.80821e-09
-1.07432e-08
3.97595e-09
-1.19462e-08
4.12648e-09
-1.31873e-08
4.26049e-09
-1.44622e-08
4.37872e-09
-1.57668e-08
4.48198e-09
-1.70972e-08
4.57113e-09
-1.84496e-08
4.64702e-09
-1.98206e-08
4.71051e-09
-2.12068e-08
4.76244e-09
-2.26053e-08
4.80365e-09
-2.40131e-08
4.83492e-09
-2.54277e-08
4.85701e-09
-2.68464e-08
4.87065e-09
-2.82672e-08
4.8765e-09
-2.96879e-08
4.87519e-09
-3.11065e-08
4.86732e-09
-3.25213e-08
4.85341e-09
-3.39306e-08
4.83397e-09
-3.53328e-08
4.80943e-09
-3.67267e-08
4.78021e-09
-3.81109e-08
4.74667e-09
-3.94841e-08
4.70913e-09
-4.08453e-08
4.66787e-09
-4.21935e-08
4.62316e-09
-4.35275e-08
4.5752e-09
-4.48465e-08
4.52419e-09
-4.61497e-08
4.47029e-09
-4.74361e-08
4.41363e-09
-4.8705e-08
4.35432e-09
-4.99556e-08
4.29246e-09
-5.11871e-08
4.22813e-09
-5.23989e-08
4.16137e-09
-5.35901e-08
4.09223e-09
-5.47602e-08
4.02074e-09
-5.59084e-08
3.94693e-09
-5.7034e-08
3.87079e-09
-5.81363e-08
3.79235e-09
-5.92147e-08
3.71158e-09
-6.02685e-08
3.62849e-09
-6.12969e-08
3.54306e-09
-6.22994e-08
3.45527e-09
-6.32752e-08
3.36512e-09
-6.42235e-08
3.27257e-09
-6.51438e-08
3.1776e-09
-6.60353e-08
3.08021e-09
-6.68973e-08
2.98036e-09
-6.77292e-08
2.87804e-09
-6.85301e-08
2.77324e-09
-6.92993e-08
2.66593e-09
-7.00363e-08
2.5561e-09
-7.07402e-08
2.44375e-09
-7.14103e-08
2.32887e-09
-7.20458e-08
2.21145e-09
-7.26462e-08
2.09149e-09
-7.32107e-08
1.96899e-09
-7.37385e-08
1.84397e-09
-7.42289e-08
1.71644e-09
-7.46813e-08
1.58641e-09
-7.50949e-08
1.4539e-09
-7.54691e-08
1.31894e-09
-7.58032e-08
1.18156e-09
-7.60965e-08
1.0418e-09
-7.63484e-08
8.99705e-10
-7.65582e-08
7.55316e-10
-7.67253e-08
6.08693e-10
-7.68491e-08
4.59895e-10
-7.69291e-08
3.0899e-10
-7.69646e-08
1.5605e-10
-7.69552e-08
1.1553e-12
-7.69002e-08
-1.55607e-10
-7.67993e-08
-3.1414e-10
-7.6652e-08
-4.74343e-10
-7.64578e-08
-6.36109e-10
-7.62164e-08
-7.99322e-10
-7.59274e-08
-9.6386e-10
-7.55905e-08
-1.12959e-09
-7.52055e-08
-1.29637e-09
-7.4772e-08
-1.46405e-09
-7.42899e-08
-1.63249e-09
-7.3759e-08
-1.80151e-09
-7.31793e-08
-1.97095e-09
-7.25507e-08
-2.14061e-09
-7.18733e-08
-2.31031e-09
-7.1147e-08
-2.47985e-09
-7.03721e-08
-2.64902e-09
-6.95487e-08
-2.81759e-09
-6.86771e-08
-2.98534e-09
-6.77577e-08
-3.15202e-09
-6.67908e-08
-3.31738e-09
-6.57769e-08
-3.48115e-09
-6.47166e-08
-3.64305e-09
-6.36105e-08
-3.8028e-09
-6.24593e-08
-3.96008e-09
-6.12639e-08
-4.11457e-09
-6.00252e-08
-4.26596e-09
-5.87442e-08
-4.41387e-09
-5.74221e-08
-4.55796e-09
-5.606e-08
-4.69784e-09
-5.46593e-08
-4.8331e-09
-5.32215e-08
-4.96333e-09
-5.17482e-08
-5.0881e-09
-5.0241e-08
-5.20695e-09
-4.87019e-08
-5.3194e-09
-4.71328e-08
-5.42497e-09
-4.55359e-08
-5.52314e-09
-4.39134e-08
-5.61337e-09
-4.22677e-08
-5.69511e-09
-4.06016e-08
-5.76779e-09
-3.89178e-08
-5.8308e-09
-3.72192e-08
-5.88354e-09
-3.55089e-08
-5.92538e-09
-3.37903e-08
-5.95567e-09
-3.20667e-08
-5.97374e-09
-3.0342e-08
-5.97892e-09
-2.86199e-08
-5.97051e-09
-2.69045e-08
-5.94784e-09
-2.52e-08
-5.91019e-09
-2.35109e-08
-5.85688e-09
-2.18417e-08
-5.7872e-09
-2.01972e-08
-5.70049e-09
-1.85823e-08
-5.59608e-09
-1.70022e-08
-5.47334e-09
-1.5462e-08
-5.33171e-09
-1.39671e-08
-5.17063e-09
-1.2523e-08
-4.98966e-09
-1.1135e-08
-4.78843e-09
-9.80881e-09
-4.56672e-09
-8.5498e-09
-4.32444e-09
-7.36335e-09
-4.06173e-09
-6.25466e-09
-3.77899e-09
-5.22866e-09
-3.47696e-09
-4.28985e-09
-3.15682e-09
-3.44222e-09
-2.82034e-09
-2.68903e-09
-2.47004e-09
-2.0326e-09
-2.10943e-09
-1.47406e-09
-1.74329e-09
-1.01306e-09
-1.3781e-09
-6.47445e-10
-1.02249e-09
-3.72862e-10
-6.87965e-10
-1.82412e-10
-3.89655e-10
-6.62464e-11
-1.4722e-10
-1.11602e-11
1.40624e-11
5.95243e-11
-2.38097e-11
-2.12937e-11
-1.08117e-10
8.65076e-11
-2.63623e-10
3.02755e-10
-4.9845e-10
5.97292e-10
-8.1868e-10
9.44417e-10
-1.22839e-09
1.32415e-09
-1.72974e-09
1.72114e-09
-2.32323e-09
2.12366e-09
-3.00796e-09
2.52284e-09
-3.78182e-09
2.91204e-09
-4.64178e-09
3.28639e-09
-5.58407e-09
3.64242e-09
-6.60436e-09
3.97778e-09
-7.69794e-09
4.29094e-09
-8.85984e-09
4.58107e-09
-1.00849e-08
4.84784e-09
-1.13681e-08
5.09134e-09
-1.27041e-08
5.31196e-09
-1.40879e-08
5.51032e-09
-1.55146e-08
5.68721e-09
-1.69795e-08
5.84355e-09
-1.84778e-08
5.98035e-09
-2.00054e-08
6.09867e-09
-2.15579e-08
6.19957e-09
-2.31316e-08
6.28416e-09
-2.47227e-08
6.35352e-09
-2.63277e-08
6.40868e-09
-2.79435e-08
6.45069e-09
-2.9567e-08
6.48051e-09
-3.11954e-08
6.49907e-09
-3.28261e-08
6.50725e-09
-3.44568e-08
6.50588e-09
-3.60852e-08
6.49572e-09
-3.77093e-08
6.47747e-09
-3.93271e-08
6.45177e-09
-4.09369e-08
6.41923e-09
-4.2537e-08
6.38037e-09
-4.4126e-08
6.33567e-09
-4.57025e-08
6.28558e-09
-4.72651e-08
6.23046e-09
-4.88126e-08
6.17065e-09
-5.03438e-08
6.10645e-09
-5.18577e-08
6.03811e-09
-5.33533e-08
5.96584e-09
-5.48295e-08
5.88984e-09
-5.62854e-08
5.81026e-09
-5.77202e-08
5.72721e-09
-5.91329e-08
5.64082e-09
-6.05227e-08
5.55115e-09
-6.18887e-08
5.45827e-09
-6.32302e-08
5.36222e-09
-6.45463e-08
5.26304e-09
-6.58362e-08
5.16075e-09
-6.70992e-08
5.05535e-09
-6.83345e-08
4.94684e-09
-6.95412e-08
4.83522e-09
-7.07186e-08
4.72047e-09
-7.18659e-08
4.60258e-09
-7.29824e-08
4.48153e-09
-7.40671e-08
4.35728e-09
-7.51193e-08
4.22983e-09
-7.61382e-08
4.09915e-09
-7.71231e-08
3.96522e-09
-7.80731e-08
3.828e-09
-7.89873e-08
3.68749e-09
-7.9865e-08
3.54366e-09
-8.07054e-08
3.39651e-09
-8.15077e-08
3.24602e-09
-8.2271e-08
3.09218e-09
-8.29946e-08
2.93498e-09
-8.36775e-08
2.77444e-09
-8.43191e-08
2.61056e-09
-8.49185e-08
2.44335e-09
-8.54749e-08
2.27284e-09
-8.59875e-08
2.09903e-09
-8.64555e-08
1.92196e-09
-8.68783e-08
1.74168e-09
-8.72549e-08
1.55822e-09
-8.75848e-08
1.37163e-09
-8.7867e-08
1.18198e-09
-8.8101e-08
9.89321e-10
-8.82861e-08
7.93737e-10
-8.84215e-08
5.95308e-10
-8.85066e-08
3.94121e-10
-8.85409e-08
1.90276e-10
-8.85236e-08
-1.61213e-11
-8.84542e-08
-2.24952e-10
-8.83323e-08
-4.36089e-10
-8.81572e-08
-6.49399e-10
-8.79286e-08
-8.64739e-10
-8.7646e-08
-1.08195e-09
-8.73089e-08
-1.30088e-09
-8.69172e-08
-1.52134e-09
-8.64704e-08
-1.74315e-09
-8.59683e-08
-1.96612e-09
-8.54108e-08
-2.19004e-09
-8.47976e-08
-2.41468e-09
-8.41287e-08
-2.63983e-09
-8.34041e-08
-2.86524e-09
-8.26238e-08
-3.09065e-09
-8.17878e-08
-3.3158e-09
-8.08964e-08
-3.54041e-09
-7.99498e-08
-3.76418e-09
-7.89484e-08
-3.98682e-09
-7.78924e-08
-4.20799e-09
-7.67824e-08
-4.42736e-09
-7.5619e-08
-4.64459e-09
-7.44027e-08
-4.85929e-09
-7.31344e-08
-5.07108e-09
-7.1815e-08
-5.27956e-09
-7.04452e-08
-5.48431e-09
-6.90263e-08
-5.68488e-09
-6.75593e-08
-5.88082e-09
-6.60457e-08
-6.07163e-09
-6.44867e-08
-6.25682e-09
-6.28839e-08
-6.43585e-09
-6.12391e-08
-6.60817e-09
-5.9554e-08
-6.77321e-09
-5.78306e-08
-6.93037e-09
-5.6071e-08
-7.07901e-09
-5.42774e-08
-7.2185e-09
-5.24524e-08
-7.34815e-09
-5.05985e-08
-7.46725e-09
-4.87186e-08
-7.57508e-09
-4.68155e-08
-7.67088e-09
-4.48924e-08
-7.75388e-09
-4.29527e-08
-7.82326e-09
-4.09999e-08
-7.8782e-09
-3.90377e-08
-7.91785e-09
-3.70701e-08
-7.94134e-09
-3.51012e-08
-7.9478e-09
-3.31354e-08
-7.93633e-09
-3.11772e-08
-7.90603e-09
-2.92314e-08
-7.856e-09
-2.73029e-08
-7.78535e-09
-2.53969e-08
-7.69318e-09
-2.35188e-08
-7.57864e-09
-2.1674e-08
-7.44089e-09
-1.98682e-08
-7.27916e-09
-1.81072e-08
-7.09272e-09
-1.63969e-08
-6.88092e-09
-1.47433e-08
-6.64323e-09
-1.31525e-08
-6.37924e-09
-1.16305e-08
-6.08874e-09
-1.01832e-08
-5.77169e-09
-8.81656e-09
-5.42838e-09
-7.53614e-09
-5.05941e-09
-6.34725e-09
-4.66585e-09
-5.25474e-09
-4.24933e-09
-4.26289e-09
-3.81219e-09
-3.37522e-09
-3.35771e-09
-2.59429e-09
-2.89036e-09
-1.9215e-09
-2.41608e-09
-1.35685e-09
-1.94275e-09
-8.98647e-10
-1.48069e-09
-5.4331e-10
-1.0433e-09
-2.85094e-10
-6.47872e-10
-1.15913e-10
-3.16402e-10
-2.52229e-11
-7.66274e-11
3.43012e-11
-3.64885e-11
1.5193e-11
-1.53698e-10
2.03722e-10
-3.58561e-10
5.07615e-10
-6.56537e-10
8.95268e-10
-1.05175e-09
1.33963e-09
-1.54681e-09
1.81921e-09
-2.14285e-09
2.31718e-09
-2.83963e-09
2.82043e-09
-3.63565e-09
3.31886e-09
-4.52839e-09
3.80478e-09
-5.51445e-09
4.27245e-09
-6.58973e-09
4.71771e-09
-7.7496e-09
5.13765e-09
-8.98902e-09
5.53037e-09
-1.03027e-08
5.89476e-09
-1.16852e-08
6.23034e-09
-1.3131e-08
6.53713e-09
-1.46346e-08
6.81553e-09
-1.61905e-08
7.06623e-09
-1.77934e-08
7.29015e-09
-1.94382e-08
7.48836e-09
-2.112e-08
7.66207e-09
-2.28338e-08
7.81254e-09
-2.45753e-08
7.94107e-09
-2.63402e-08
8.04901e-09
-2.81243e-08
8.13766e-09
-2.9924e-08
8.20832e-09
-3.17355e-08
8.26226e-09
-3.35557e-08
8.30068e-09
-3.53814e-08
8.32475e-09
-3.72097e-08
8.33555e-09
-3.90379e-08
8.33411e-09
-4.08636e-08
8.32139e-09
-4.26844e-08
8.29828e-09
-4.44982e-08
8.26559e-09
-4.63031e-08
8.22407e-09
-4.80971e-08
8.17439e-09
-4.98786e-08
8.11717e-09
-5.1646e-08
8.05295e-09
-5.33977e-08
7.98222e-09
-5.51325e-08
7.90541e-09
-5.68489e-08
7.82289e-09
-5.85458e-08
7.735e-09
-6.0222e-08
7.64201e-09
-6.18763e-08
7.54417e-09
-6.35077e-08
7.44167e-09
-6.51152e-08