/*--------------------------------*- C++ -*----------------------------------*\
  =========                 |
  \\      /  F ield         | OpenFOAM: The Open Source CFD Toolbox
   \\    /   O peration     | Website:  https://openfoam.org
    \\  /    A nd           | Version:  7
     \\/     M anipulation  |
\*---------------------------------------------------------------------------*/
FoamFile
{
    version     2.0;
    format      ascii;
    class       surfaceScalarField;
    location    "0.3";
    object      phi;
}
// * * * * * * * * * * * * * * * * * * * * * * * * * * * * * * * * * * * * * //

dimensions      [0 3 -1 0 0 0 0];

internalField   nonuniform List<scalar> 
50880
(
5.91043e-12
-6.32697e-12
3.61735e-11
-3.02619e-11
8.10941e-11
-4.49201e-11
1.30718e-10
-4.96502e-11
1.77951e-10
-4.72274e-11
2.17799e-10
-3.98483e-11
2.46847e-10
-2.9045e-11
2.62786e-10
-1.5927e-11
2.64072e-10
-1.28947e-12
2.49749e-10
1.43134e-11
2.19265e-10
3.04819e-11
1.72359e-10
4.69123e-11
1.08989e-10
6.3375e-11
2.92853e-11
7.97011e-11
-6.64835e-11
9.57651e-11
-1.77949e-10
1.11467e-10
-3.04675e-10
1.26726e-10
-4.46156e-10
1.41482e-10
-6.01842e-10
1.55687e-10
-7.71147e-10
1.69303e-10
-9.53454e-10
1.82307e-10
-1.14813e-09
1.94675e-10
-1.35452e-09
2.06391e-10
-1.57196e-09
2.17443e-10
-1.79979e-09
2.27825e-10
-2.03732e-09
2.37533e-10
-2.28389e-09
2.46567e-10
-2.53881e-09
2.54926e-10
-2.80143e-09
2.62612e-10
-3.07106e-09
2.6963e-10
-3.34704e-09
2.75984e-10
-3.62872e-09
2.81681e-10
-3.91546e-09
2.86731e-10
-4.2066e-09
2.9114e-10
-4.50151e-09
2.94919e-10
-4.79959e-09
2.98075e-10
-5.10021e-09
3.0062e-10
-5.40277e-09
3.02563e-10
-5.70669e-09
3.03916e-10
-6.01138e-09
3.0469e-10
-6.31628e-09
3.04898e-10
-6.62083e-09
3.04551e-10
-6.92449e-09
3.03661e-10
-7.22673e-09
3.02241e-10
-7.52703e-09
3.00303e-10
-7.82489e-09
2.97859e-10
-8.11981e-09
2.94922e-10
-8.41131e-09
2.91504e-10
-8.69893e-09
2.87619e-10
-8.98221e-09
2.8328e-10
-9.26071e-09
2.78498e-10
-9.534e-09
2.73289e-10
-9.80166e-09
2.67663e-10
-1.00633e-08
2.61636e-10
-1.03185e-08
2.55219e-10
-1.05669e-08
2.48426e-10
-1.08082e-08
2.4127e-10
-1.1042e-08
2.33764e-10
-1.12679e-08
2.25922e-10
-1.14857e-08
2.17756e-10
-1.16949e-08
2.0928e-10
-1.18954e-08
2.00508e-10
-1.20869e-08
1.91452e-10
-1.2269e-08
1.82126e-10
-1.24416e-08
1.72544e-10
-1.26043e-08
1.6272e-10
-1.27569e-08
1.52666e-10
-1.28993e-08
1.42398e-10
-1.30313e-08
1.31928e-10
-1.31525e-08
1.21271e-10
-1.3263e-08
1.1044e-10
-1.33624e-08
9.94501e-11
-1.34507e-08
8.83147e-11
-1.35278e-08
7.70485e-11
-1.35935e-08
6.56659e-11
-1.36476e-08
5.41814e-11
-1.36902e-08
4.26099e-11
-1.37212e-08
3.09662e-11
-1.37405e-08
1.92652e-11
-1.3748e-08
7.52224e-12
-1.37438e-08
-4.24761e-12
-1.37277e-08
-1.6029e-11
-1.36999e-08
-2.78065e-11
-1.36604e-08
-3.95644e-11
-1.36091e-08
-5.1287e-11
-1.35461e-08
-6.29581e-11
-1.34715e-08
-7.45617e-11
-1.33855e-08
-8.60814e-11
-1.3288e-08
-9.7501e-11
-1.31792e-08
-1.08804e-10
-1.30592e-08
-1.19974e-10
-1.29282e-08
-1.30994e-10
-1.27863e-08
-1.41848e-10
-1.26338e-08
-1.52519e-10
-1.24708e-08
-1.62989e-10
-1.22976e-08
-1.73242e-10
-1.21143e-08
-1.8326e-10
-1.19213e-08
-1.93027e-10
-1.17188e-08
-2.02525e-10
-1.1507e-08
-2.11738e-10
-1.12864e-08
-2.20648e-10
-1.10572e-08
-2.29238e-10
-1.08197e-08
-2.37492e-10
-1.05743e-08
-2.45392e-10
-1.03214e-08
-2.52921e-10
-1.00613e-08
-2.60063e-10
-9.79449e-09
-2.66802e-10
-9.52137e-09
-2.73121e-10
-9.24236e-09
-2.79004e-10
-8.95793e-09
-2.84434e-10
-8.66853e-09
-2.89397e-10
-8.37465e-09
-2.93876e-10
-8.0768e-09
-2.97858e-10
-7.77547e-09
-3.01326e-10
-7.4712e-09
-3.04267e-10
-7.16453e-09
-3.06667e-10
-6.85602e-09
-3.08511e-10
-6.54624e-09
-3.09788e-10
-6.23575e-09
-3.10484e-10
-5.92516e-09
-3.10588e-10
-5.61508e-09
-3.10088e-10
-5.3061e-09
-3.08973e-10
-4.99887e-09
-3.07233e-10
-4.69401e-09
-3.04859e-10
-4.39217e-09
-3.01843e-10
-4.094e-09
-2.98176e-10
-3.80014e-09
-2.93851e-10
-3.51128e-09
-2.88862e-10
-3.22808e-09
-2.83205e-10
-2.9512e-09
-2.76876e-10
-2.68133e-09
-2.69873e-10
-2.41913e-09
-2.62194e-10
-2.16529e-09
-2.53839e-10
-1.92048e-09
-2.4481e-10
-1.68537e-09
-2.35113e-10
-1.46062e-09
-2.24753e-10
-1.24688e-09
-2.13737e-10
-1.0448e-09
-2.02078e-10
-8.55007e-10
-1.89791e-10
-6.78112e-10
-1.76896e-10
-5.147e-10
-1.63413e-10
-3.65327e-10
-1.49373e-10
-2.30515e-10
-1.34811e-10
-1.10739e-10
-1.19776e-10
-6.41746e-12
-1.04322e-10
8.20943e-11
-8.85141e-11
1.5453e-10
-7.2439e-11
2.10735e-10
-5.62063e-11
2.5069e-10
-3.99534e-11
2.74548e-10
-2.38558e-11
2.82694e-10
-8.14365e-12
2.7582e-10
6.87771e-12
2.55022e-10
2.07991e-11
2.21952e-10
3.30622e-11
1.79048e-10
4.28923e-11
1.29837e-10
4.92056e-11
7.93409e-11
5.0508e-11
3.46313e-11
4.47374e-11
5.34327e-12
2.92912e-11
5.3125e-12
3.00446e-11
-3.63641e-11
1.01159e-10
-1.01381e-10
1.95397e-10
-1.39162e-10
2.95698e-10
-1.49924e-10
3.87663e-10
-1.39215e-10
4.60088e-10
-1.12292e-10
5.04519e-10
-7.34771e-11
5.14768e-10
-2.61681e-11
4.86433e-10
2.70449e-11
4.16528e-10
8.42218e-11
3.03131e-10
1.43883e-10
1.45155e-10
2.04889e-10
-5.78324e-11
2.66361e-10
-3.05752e-10
3.2762e-10
-5.98123e-10
3.88136e-10
-9.34146e-10
4.47493e-10
-1.31277e-09
5.05356e-10
-1.73276e-09
5.61464e-10
-2.19269e-09
6.15611e-10
-2.69102e-09
6.67635e-10
-3.22612e-09
7.17407e-10
-3.79627e-09
7.64829e-10
-4.39971e-09
8.09824e-10
-5.0346e-09
8.52335e-10
-5.6991e-09
8.92324e-10
-6.39133e-09
9.29762e-10
-7.1094e-09
9.64637e-10
-7.85142e-09
9.96941e-10
-8.61548e-09
1.02667e-09
-9.3997e-09
1.05385e-09
-1.02022e-08
1.07848e-09
-1.10211e-08
1.10058e-09
-1.18545e-08
1.12018e-09
-1.27007e-08
1.13731e-09
-1.35578e-08
1.152e-09
-1.4424e-08
1.16429e-09
-1.52976e-08
1.1742e-09
-1.61768e-08
1.18178e-09
-1.706e-08
1.18706e-09
-1.79454e-08
1.1901e-09
-1.88314e-08
1.19093e-09
-1.97165e-08
1.1896e-09
-2.0599e-08
1.18616e-09
-2.14774e-08
1.18065e-09
-2.23502e-08
1.17311e-09
-2.32159e-08
1.1636e-09
-2.40731e-08
1.15216e-09
-2.49205e-08
1.13884e-09
-2.57565e-08
1.1237e-09
-2.658e-08
1.10678e-09
-2.73897e-08
1.08813e-09
-2.81842e-08
1.0678e-09
-2.89624e-08
1.04585e-09
-2.9723e-08
1.02232e-09
-3.04651e-08
9.97261e-10
-3.11874e-08
9.70731e-10
-3.18889e-08
9.42778e-10
-3.25686e-08
9.13454e-10
-3.32255e-08
8.82811e-10
-3.38586e-08
8.50901e-10
-3.44671e-08
8.17775e-10
-3.50501e-08
7.83487e-10
-3.56067e-08
7.48088e-10
-3.61362e-08
7.11633e-10
-3.66379e-08
6.74173e-10
-3.71109e-08
6.35763e-10
-3.75547e-08
5.96455e-10
-3.79686e-08
5.56306e-10
-3.8352e-08
5.15367e-10
-3.87045e-08
4.73695e-10
-3.90254e-08
4.31344e-10
-3.93143e-08
3.88369e-10
-3.95708e-08
3.44828e-10
-3.97945e-08
3.00775e-10
-3.99851e-08
2.56269e-10
-4.01423e-08
2.11366e-10
-4.02658e-08
1.66124e-10
-4.03555e-08
1.20602e-10
-4.04111e-08
7.48585e-11
-4.04325e-08
2.89528e-11
-4.04197e-08
-1.70554e-11
-4.03726e-08
-6.31056e-11
-4.02913e-08
-1.09137e-10
-4.01757e-08
-1.55088e-10
-4.00261e-08
-2.00896e-10
-3.98426e-08
-2.46499e-10
-3.96253e-08
-2.91834e-10
-3.93746e-08
-3.36837e-10
-3.90906e-08
-3.81445e-10
-3.87738e-08
-4.25592e-10
-3.84246e-08
-4.69215e-10
-3.80433e-08
-5.12248e-10
-3.76306e-08
-5.54625e-10
-3.71868e-08
-5.9628e-10
-3.67126e-08
-6.37148e-10
-3.62087e-08
-6.77162e-10
-3.56757e-08
-7.16256e-10
-3.51144e-08
-7.54362e-10
-3.45255e-08
-7.91415e-10
-3.39099e-08
-8.27347e-10
-3.32684e-08
-8.62094e-10
-3.26021e-08
-8.95587e-10
-3.19118e-08
-9.27762e-10
-3.11987e-08
-9.58553e-10
-3.04637e-08
-9.87894e-10
-2.9708e-08
-1.01572e-09
-2.89329e-08
-1.04197e-09
-2.81394e-08
-1.06658e-09
-2.73289e-08
-1.08948e-09
-2.65027e-08
-1.11062e-09
-2.56622e-08
-1.12993e-09
-2.48087e-08
-1.14736e-09
-2.39437e-08
-1.16285e-09
-2.30687e-08
-1.17633e-09
-2.21852e-08
-1.18776e-09
-2.12948e-08
-1.19709e-09
-2.0399e-08
-1.20425e-09
-1.94996e-08
-1.2092e-09
-1.85982e-08
-1.2119e-09
-1.76965e-08
-1.21229e-09
-1.67963e-08
-1.21034e-09
-1.58992e-08
-1.20601e-09
-1.50072e-08
-1.19925e-09
-1.4122e-08
-1.19004e-09
-1.32455e-08
-1.17834e-09
-1.23796e-08
-1.16412e-09
-1.15261e-08
-1.14736e-09
-1.06869e-08
-1.12804e-09
-9.86395e-09
-1.10615e-09
-9.05916e-09
-1.08167e-09
-8.27443e-09
-1.0546e-09
-7.51168e-09
-1.02494e-09
-6.77282e-09
-9.92697e-10
-6.05974e-09
-9.57883e-10
-5.37433e-09
-9.20523e-10
-4.71844e-09
-8.80645e-10
-4.09388e-09
-8.38294e-10
-3.50243e-09
-7.93523e-10
-2.94582e-09
-7.46401e-10
-2.4257e-09
-6.97013e-10
-1.94365e-09
-6.45464e-10
-1.50114e-09
-5.91883e-10
-1.09953e-09
-5.36429e-10
-7.40016e-10
-4.79291e-10
-4.23629e-10
-4.20706e-10
-1.51174e-10
-3.60965e-10
7.68131e-11
-3.00427e-10
2.60142e-10
-2.39533e-10
3.99036e-10
-1.78839e-10
4.94231e-10
-1.19051e-10
5.47133e-10
-6.10541e-11
5.59989e-10
-5.98499e-12
5.36112e-10
4.46733e-11
4.80191e-10
8.89891e-11
3.98666e-10
1.24433e-10
3.00167e-10
1.47722e-10
1.95951e-10
1.54728e-10
1.00159e-10
1.4051e-10
2.92693e-11
1.00163e-10
3.45857e-11
4.48327e-11
-8.11932e-11
1.39065e-10
-1.95662e-10
2.56274e-10
-2.56351e-10
3.7478e-10
-2.68433e-10
4.76316e-10
-2.40757e-10
5.46019e-10
-1.81991e-10
5.72175e-10
-9.96347e-11
5.45833e-10
1.65968e-13
4.60366e-10
1.1251e-10
3.11042e-10
2.33556e-10
9.466e-11
3.60272e-10
-1.90732e-10
4.90279e-10
-5.46077e-10
6.21701e-10
-9.7151e-10
7.53053e-10
-1.46653e-09
8.83153e-10
-2.03009e-09
1.01106e-09
-2.66074e-09
1.13601e-09
-3.35668e-09
1.2574e-09
-4.11583e-09
1.37476e-09
-4.93588e-09
1.48768e-09
-5.81435e-09
1.59588e-09
-6.74861e-09
1.69909e-09
-7.73592e-09
1.79713e-09
-8.77345e-09
1.88987e-09
-9.85831e-09
1.97718e-09
-1.09875e-08
2.059e-09
-1.21582e-08
2.13528e-09
-1.33672e-08
2.20599e-09
-1.46117e-08
2.27112e-09
-1.58885e-08
2.33068e-09
-1.71947e-08
2.38469e-09
-1.85273e-08
2.4332e-09
-1.98834e-08
2.47624e-09
-2.12599e-08
2.51387e-09
-2.26541e-08
2.54615e-09
-2.4063e-08
2.57315e-09
-2.54837e-08
2.59495e-09
-2.69135e-08
2.61162e-09
-2.83497e-08
2.62325e-09
-2.97896e-08
2.62994e-09
-3.12304e-08
2.63176e-09
-3.26696e-08
2.62883e-09
-3.41047e-08
2.62123e-09
-3.55331e-08
2.60906e-09
-3.69524e-08
2.59243e-09
-3.83603e-08
2.57144e-09
-3.97543e-08
2.5462e-09
-4.11323e-08
2.51681e-09
-4.24919e-08
2.48338e-09
-4.38312e-08
2.44601e-09
-4.51479e-08
2.40483e-09
-4.644e-08
2.35993e-09
-4.77056e-08
2.31144e-09
-4.89427e-08
2.25945e-09
-5.01496e-08
2.2041e-09
-5.13243e-08
2.14547e-09
-5.24652e-08
2.0837e-09
-5.35707e-08
2.01889e-09
-5.4639e-08
1.95116e-09
-5.56687e-08
1.88062e-09
-5.66584e-08
1.8074e-09
-5.76065e-08
1.73159e-09
-5.85117e-08
1.65333e-09
-5.93728e-08
1.57273e-09
-6.01885e-08
1.48991e-09
-6.09578e-08
1.40498e-09
-6.16794e-08
1.31807e-09
-6.23524e-08
1.22929e-09
-6.29757e-08
1.13876e-09
-6.35487e-08
1.04662e-09
-6.40703e-08
9.52968e-10
-6.45399e-08
8.57942e-10
-6.49567e-08
7.61662e-10
-6.53202e-08
6.64255e-10
-6.56298e-08
5.65846e-10
-6.5885e-08
4.66562e-10
-6.60854e-08
3.66533e-10
-6.62306e-08
2.65886e-10
-6.63205e-08
1.64754e-10
-6.63549e-08
6.32674e-11
-6.63335e-08
-3.8441e-11
-6.62563e-08
-1.40237e-10
-6.61235e-08
-2.41986e-10
-6.5935e-08
-3.4355e-10
-6.56911e-08
-4.44794e-10
-6.5392e-08
-5.45577e-10
-6.50381e-08
-6.45761e-10
-6.46298e-08
-7.45205e-10
-6.41674e-08
-8.43767e-10
-6.36517e-08
-9.41305e-10
-6.30833e-08
-1.03768e-09
-6.24628e-08
-1.13273e-09
-6.17911e-08
-1.22634e-09
-6.1069e-08
-1.31834e-09
-6.02976e-08
-1.40859e-09
-5.94778e-08
-1.49695e-09
-5.86108e-08
-1.58326e-09
-5.76977e-08
-1.66739e-09
-5.674e-08
-1.74919e-09
-5.57388e-08
-1.8285e-09
-5.46957e-08
-1.90519e-09
-5.36122e-08
-1.9791e-09
-5.24899e-08
-2.0501e-09
-5.13304e-08
-2.11803e-09
-5.01355e-08
-2.18276e-09
-4.89071e-08
-2.24414e-09
-4.7647e-08
-2.30203e-09
-4.63573e-08
-2.3563e-09
-4.504e-08
-2.40681e-09
-4.36972e-08
-2.45341e-09
-4.23312e-08
-2.49599e-09
-4.09441e-08
-2.5344e-09
-3.95384e-08
-2.56853e-09
-3.81165e-08
-2.59826e-09
-3.66808e-08
-2.62345e-09
-3.52339e-08
-2.644e-09
-3.37784e-08
-2.65979e-09
-3.23169e-08
-2.67071e-09
-3.08521e-08
-2.67668e-09
-2.93868e-08
-2.67757e-09
-2.79238e-08
-2.67332e-09
-2.6466e-08
-2.66382e-09
-2.50163e-08
-2.649e-09
-2.35775e-08
-2.62879e-09
-2.21527e-08
-2.60313e-09
-2.07449e-08
-2.57195e-09
-1.9357e-08
-2.53521e-09
-1.79922e-08
-2.49287e-09
-1.66534e-08
-2.44491e-09
-1.53438e-08
-2.3913e-09
-1.40664e-08
-2.33204e-09
-1.28242e-08
-2.26714e-09
-1.16202e-08
-2.19663e-09
-1.04576e-08
-2.12054e-09
-9.33918e-09
-2.03894e-09
-8.26792e-09
-1.9519e-09
-7.24668e-09
-1.85953e-09
-6.27823e-09
-1.76198e-09
-5.36524e-09
-1.65939e-09
-4.51026e-09
-1.55199e-09
-3.71571e-09
-1.44002e-09
-2.98381e-09
-1.32378e-09
-2.31659e-09
-1.20365e-09
-1.71581e-09
-1.08007e-09
-1.18293e-09
-9.53593e-10
-7.19012e-10
-8.24878e-10
-3.24706e-10
-6.94735e-10
-8.58163e-14
-5.64155e-10
2.55442e-10
-4.34368e-10
4.43285e-10
-3.06893e-10
5.65863e-10
-1.8363e-10
6.26834e-10
-6.69586e-11
6.3138e-10
4.01199e-11
5.86546e-10
1.33816e-10
5.01619e-10
2.09357e-10
3.88528e-10
2.60825e-10
2.62155e-10
2.81097e-10
1.40542e-10
2.62118e-10
4.46948e-11
1.95994e-10
7.93034e-11
4.96794e-11
-1.30874e-10
1.50217e-10
-2.96189e-10
2.68992e-10
-3.7515e-10
3.80834e-10
-3.80291e-10
4.64951e-10
-3.2486e-10
5.04263e-10
-2.21289e-10
4.85043e-10
-8.04207e-11
3.96534e-10
8.86673e-11
2.30512e-10
2.78534e-10
-1.90751e-11
4.83152e-10
-3.56461e-10
6.97662e-10
-7.84355e-10
9.18169e-10
-1.3042e-09
1.14154e-09
-1.9164e-09
1.36525e-09
-2.62051e-09
1.58727e-09
-3.41538e-09
1.80593e-09
-4.29927e-09
2.0199e-09
-5.26997e-09
2.2281e-09
-6.32488e-09
2.42966e-09
-7.46106e-09
2.62387e-09
-8.67533e-09
2.81015e-09
-9.96429e-09
2.98805e-09
-1.13244e-08
3.15721e-09
-1.27519e-08
3.31736e-09
-1.4243e-08
3.46827e-09
-1.57938e-08
3.6098e-09
-1.74003e-08
3.74183e-09
-1.90586e-08
3.86429e-09
-2.07647e-08
3.97716e-09
-2.25144e-08
4.08044e-09
-2.43039e-08
4.17414e-09
-2.6129e-08
4.25832e-09
-2.79858e-08
4.33305e-09
-2.98703e-08
4.3984e-09
-3.17787e-08
4.45447e-09
-3.37069e-08
4.50138e-09
-3.56512e-08
4.53925e-09
-3.76078e-08
4.56821e-09
-3.9573e-08
4.5884e-09
-4.1543e-08
4.59997e-09
-4.35143e-08
4.60308e-09
-4.54834e-08
4.59789e-09
-4.74467e-08
4.58455e-09
-4.94009e-08
4.56326e-09
-5.13426e-08
4.53416e-09
-5.32686e-08
4.49746e-09
-5.51758e-08
4.45332e-09
-5.70609e-08
4.40194e-09
-5.8921e-08
4.34349e-09
-6.07532e-08
4.27816e-09
-6.25545e-08
4.20615e-09
-6.43222e-08
4.12765e-09
-6.60536e-08
4.04285e-09
-6.77461e-08
3.95194e-09
-6.93971e-08
3.85512e-09
-7.10042e-08
3.75259e-09
-7.25651e-08
3.64454e-09
-7.40773e-08
3.53117e-09
-7.55389e-08
3.41269e-09
-7.69475e-08
3.28929e-09
-7.83013e-08
3.16119e-09
-7.95983e-08
3.02857e-09
-8.08366e-08
2.89164e-09
-8.20145e-08
2.75062e-09
-8.31303e-08
2.6057e-09
-8.41824e-08
2.4571e-09
-8.51694e-08
2.30502e-09
-8.60898e-08
2.14968e-09
-8.69423e-08
1.99128e-09
-8.77257e-08
1.83004e-09
-8.84389e-08
1.66618e-09
-8.90809e-08
1.49991e-09
-8.96506e-08
1.33144e-09
-9.01474e-08
1.16101e-09
-9.05704e-08
9.88822e-10
-9.09189e-08
8.15112e-10
-9.11925e-08
6.40101e-10
-9.13906e-08
4.64016e-10
-9.1513e-08
2.87087e-10
-9.15592e-08
1.09545e-10
-9.15293e-08
-6.83781e-11
-9.14231e-08
-2.46446e-10
-9.12406e-08
-4.24423e-10
-9.09821e-08
-6.02069e-10
-9.06478e-08
-7.79143e-10
-9.02379e-08
-9.55403e-10
-8.97531e-08
-1.1306e-09
-8.91938e-08
-1.3045e-09
-8.85607e-08
-1.47684e-09
-8.78546e-08
-1.64739e-09
-8.70764e-08
-1.81588e-09
-8.62271e-08
-1.98206e-09
-8.53078e-08
-2.14569e-09
-8.43196e-08
-2.3065e-09
-8.3264e-08
-2.46425e-09
-8.21422e-08
-2.61867e-09
-8.0956e-08
-2.76951e-09
-7.97069e-08
-2.91652e-09
-7.83966e-08
-3.05944e-09
-7.70271e-08
-3.19802e-09
-7.56003e-08
-3.33199e-09
-7.41183e-08
-3.4611e-09
-7.25833e-08
-3.58511e-09
-7.09975e-08
-3.70377e-09
-6.93635e-08
-3.81681e-09
-6.76836e-08
-3.924e-09
-6.59606e-08
-4.02509e-09
-6.4197e-08
-4.11985e-09
-6.23958e-08
-4.20803e-09
-6.05598e-08
-4.2894e-09
-5.86921e-08
-4.36373e-09
-5.67957e-08
-4.4308e-09
-5.48738e-08
-4.49039e-09
-5.29298e-08
-4.54228e-09
-5.0967e-08
-4.58628e-09
-4.89888e-08
-4.62218e-09
-4.69988e-08
-4.64979e-09
-4.50006e-08
-4.66893e-09
-4.29978e-08
-4.67941e-09
-4.09943e-08
-4.68109e-09
-3.89938e-08
-4.67379e-09
-3.70003e-08
-4.65738e-09
-3.50176e-08
-4.63173e-09
-3.30496e-08
-4.59671e-09
-3.11006e-08
-4.55221e-09
-2.91744e-08
-4.49815e-09
-2.72751e-08
-4.43445e-09
-2.54069e-08
-4.36106e-09
-2.35739e-08
-4.27792e-09
-2.17802e-08
-4.18503e-09
-2.00298e-08
-4.08239e-09
-1.8327e-08
-3.97001e-09
-1.66756e-08
-3.84797e-09
-1.50798e-08
-3.71635e-09
-1.35435e-08
-3.57526e-09
-1.20705e-08
-3.42486e-09
-1.06647e-08
-3.26537e-09
-9.32964e-09
-3.09703e-09
-8.06886e-09
-2.92017e-09
-6.88569e-09
-2.73516e-09
-5.78324e-09
-2.54247e-09
-4.76436e-09
-2.34266e-09
-3.83161e-09
-2.1364e-09
-2.98719e-09
-1.9245e-09
-2.23285e-09
-1.70794e-09
-1.56984e-09
-1.48789e-09
-9.98793e-10
-1.26578e-09
-5.19614e-10
-1.04334e-09
-1.31325e-10
-8.22661e-10
1.68114e-10
-6.06328e-10
3.81995e-10
-3.97504e-10
5.15118e-10
-2.0008e-10
5.74084e-10
-1.8848e-11
5.67605e-10
1.40286e-10
5.06862e-10
2.701e-10
4.05841e-10
3.61852e-10
2.81689e-10
4.05264e-10
1.55018e-10
3.88789e-10
5.05427e-11
3.00476e-10
1.29858e-10
4.74708e-11
-1.78331e-10
1.40126e-10
-3.88847e-10
2.42496e-10
-4.77538e-10
3.27219e-10
-4.65017e-10
3.71931e-10
-3.69566e-10
3.58267e-10
-2.07624e-10
2.71318e-10
6.52605e-12
9.91933e-11
2.60798e-10
-1.67373e-10
5.45108e-10
-5.35349e-10
8.51131e-10
-1.00972e-09
1.17204e-09
-1.59379e-09
1.50223e-09
-2.28941e-09
1.83716e-09
-3.09724e-09
2.17309e-09
-4.01691e-09
2.50695e-09
-5.04723e-09
2.83624e-09
-6.18624e-09
3.15891e-09
-7.43142e-09
3.47329e-09
-8.77975e-09
3.778e-09
-1.02278e-08
4.07191e-09
-1.17718e-08
4.35413e-09
-1.34076e-08
4.62391e-09
-1.51311e-08
4.88065e-09
-1.69376e-08
5.12391e-09
-1.88227e-08
5.35331e-09
-2.07815e-08
5.56859e-09
-2.28092e-08
5.76955e-09
-2.49009e-08
5.95605e-09
-2.70518e-08
6.12803e-09
-2.92568e-08
6.28546e-09
-3.15111e-08
6.42836e-09
-3.38095e-08
6.55677e-09
-3.61472e-08
6.67079e-09
-3.85193e-08
6.77052e-09
-4.0921e-08
6.8561e-09
-4.33473e-08
6.92769e-09
-4.57935e-08
6.98546e-09
-4.82549e-08
7.02961e-09
-5.07268e-08
7.06034e-09
-5.32047e-08
7.07787e-09
-5.56841e-08
7.08243e-09
-5.81605e-08
7.07427e-09
-6.06295e-08
7.05363e-09
-6.3087e-08
7.02076e-09
-6.55288e-08
6.97593e-09
-6.79507e-08
6.9194e-09
-7.03489e-08
6.85146e-09
-7.27193e-08
6.77238e-09
-7.50583e-08
6.68244e-09
-7.7362e-08
6.58193e-09
-7.9627e-08
6.47114e-09
-8.18497e-08
6.35036e-09
-8.40267e-08
6.21988e-09
-8.61548e-08
6.08001e-09
-8.82307e-08
5.93104e-09
-9.02514e-08
5.77327e-09
-9.22139e-08
5.60702e-09
-9.41153e-08
5.43258e-09
-9.59529e-08
5.25026e-09
-9.77239e-08
5.06037e-09
-9.9426e-08
4.86322e-09
-1.01057e-07
4.65913e-09
-1.02613e-07
4.44842e-09
-1.04094e-07
4.23138e-09
-1.05497e-07
4.00836e-09
-1.06819e-07
3.77965e-09
-1.0806e-07
3.5456e-09
-1.09217e-07
3.30652e-09
-1.10288e-07
3.06274e-09
-1.11273e-07
2.8146e-09
-1.12169e-07
2.56241e-09
-1.12976e-07
2.30651e-09
-1.13691e-07
2.04725e-09
-1.14315e-07
1.78496e-09
-1.14846e-07
1.51998e-09
-1.15284e-07
1.25266e-09
-1.15627e-07
9.83348e-10
-1.15876e-07
7.12389e-10
-1.16029e-07
4.40141e-10
-1.16086e-07
1.66957e-10
-1.16048e-07
-1.06801e-10
-1.15913e-07
-3.80771e-10
-1.15683e-07
-6.54589e-10
-1.15357e-07
-9.27885e-10
-1.14936e-07
-1.20029e-09
-1.1442e-07
-1.47143e-09
-1.1381e-07
-1.74092e-09
-1.13106e-07
-2.0084e-09
-1.12309e-07
-2.27347e-09
-1.11421e-07
-2.53575e-09
-1.10442e-07
-2.79487e-09
-1.09374e-07
-3.05042e-09
-1.08217e-07
-3.30202e-09
-1.06975e-07
-3.54928e-09
-1.05647e-07
-3.79181e-09
-1.04236e-07
-4.02922e-09
-1.02745e-07
-4.26111e-09
-1.01174e-07
-4.48709e-09
-9.95269e-08
-4.70677e-09
-9.78052e-08
-4.91975e-09
-9.60115e-08
-5.12565e-09
-9.41485e-08
-5.32408e-09
-9.2219e-08
-5.51465e-09
-9.02258e-08
-5.69697e-09
-8.81719e-08
-5.87067e-09
-8.60606e-08
-6.03537e-09
-8.3895e-08
-6.19069e-09
-8.16786e-08
-6.33627e-09
-7.94148e-08
-6.47175e-09
-7.71075e-08
-6.59676e-09
-7.47602e-08
-6.71097e-09
-7.2377e-08
-6.81403e-09
-6.99618e-08
-6.90561e-09
-6.75187e-08
-6.98539e-09
-6.50519e-08
-7.05305e-09
-6.25658e-08
-7.10829e-09
-6.00648e-08
-7.15083e-09
-5.75533e-08
-7.18038e-09
-5.5036e-08
-7.19668e-09
-5.25176e-08
-7.19949e-09
-5.00028e-08
-7.18858e-09
-4.74965e-08
-7.16372e-09
-4.50035e-08
-7.12473e-09
-4.25288e-08
-7.07143e-09
-4.00773e-08
-7.00366e-09
-3.76542e-08
-6.9213e-09
-3.52644e-08
-6.82423e-09
-3.29131e-08
-6.71239e-09
-3.06053e-08
-6.58572e-09
-2.83461e-08
-6.44421e-09
-2.61406e-08
-6.28788e-09
-2.39938e-08
-6.11679e-09
-2.19108e-08
-5.93104e-09
-1.98963e-08
-5.73079e-09
-1.79553e-08
-5.51625e-09
-1.60925e-08
-5.28768e-09
-1.43124e-08
-5.04542e-09
-1.26196e-08
-4.78989e-09
-1.10181e-08
-4.52161e-09
-9.5121e-09
-4.2412e-09
-8.10518e-09
-3.94939e-09
-6.80076e-09
-3.64708e-09
-5.60183e-09
-3.33533e-09
-4.51091e-09
-3.01541e-09
-3.53001e-09
-2.68884e-09
-2.66046e-09
-2.35744e-09
-1.90287e-09
-2.02336e-09
-1.25696e-09
-1.68924e-09
-7.21414e-10
-1.35821e-09
-2.93676e-10
-1.03407e-09
3.02319e-11
-7.21413e-10
2.55962e-10
-4.25805e-10
3.91108e-10
-1.5399e-10
4.45496e-10
8.58963e-11
4.31491e-10
2.84088e-10
3.64349e-10
4.28972e-10
2.62616e-10
5.07001e-10
1.48603e-10
5.02815e-10
4.94164e-11
3.99675e-10
1.79273e-10
4.03559e-11
-2.18706e-10
1.1409e-10
-4.62581e-10
1.85456e-10
-5.48892e-10
2.26294e-10
-5.05854e-10
2.13572e-10
-3.56856e-10
1.28342e-10
-1.22401e-10
-4.48967e-11
1.79769e-10
-3.18644e-10
5.34556e-10
-7.02762e-10
9.29231e-10
-1.20478e-09
1.35314e-09
-1.83016e-09
1.79742e-09
-2.58261e-09
2.25469e-09
-3.46429e-09
2.71885e-09
-4.47603e-09
3.18483e-09
-5.61754e-09
3.64845e-09
-6.88754e-09
4.10624e-09
-8.28396e-09
4.55532e-09
-9.804e-09
4.99333e-09
-1.14443e-08
5.41829e-09
-1.3201e-08
5.8286e-09
-1.50698e-08
6.22292e-09
-1.7046e-08
6.60017e-09
-1.91249e-08
6.95949e-09
-2.13011e-08
7.30016e-09
-2.35695e-08
7.62164e-09
-2.59244e-08
7.92351e-09
-2.83603e-08
8.20545e-09
-3.08715e-08
8.46724e-09
-3.34522e-08
8.70875e-09
-3.60966e-08
8.9299e-09
-3.8799e-08
9.1307e-09
-4.15534e-08
9.31119e-09
-4.43541e-08
9.47148e-09
-4.71953e-08
9.61169e-09
-5.00712e-08
9.73199e-09
-5.29761e-08
9.8326e-09
-5.59044e-08
9.91374e-09
-5.88504e-08
9.97568e-09
-6.18088e-08
1.00187e-08
-6.4774e-08
1.00431e-08
-6.77407e-08
1.00491e-08
-7.07036e-08
1.00372e-08
-7.36576e-08
1.00076e-08
-7.65975e-08
9.96075e-09
-7.95186e-08
9.89696e-09
-8.24158e-08
9.81661e-09
-8.52844e-08
9.7201e-09
-8.81199e-08
9.60781e-09
-9.09175e-08
9.48013e-09
-9.36731e-08
9.33747e-09
-9.63822e-08
9.18023e-09
-9.90406e-08
9.00883e-09
-1.01644e-07
8.82368e-09
-1.0419e-07
8.6252e-09
-1.06672e-07
8.41382e-09
-1.09089e-07
8.18996e-09
-1.11436e-07
7.95404e-09
-1.1371e-07
7.70651e-09
-1.15908e-07
7.4478e-09
-1.18026e-07
7.17835e-09
-1.20061e-07
6.8986e-09
-1.22011e-07
6.60899e-09
-1.23872e-07
6.30997e-09
-1.25643e-07
6.00199e-09
-1.2732e-07
5.6855e-09
-1.28901e-07
5.36096e-09
-1.30385e-07
5.02882e-09
-1.31768e-07
4.68956e-09
-1.33049e-07
4.34362e-09
-1.34225e-07
3.99149e-09
-1.35297e-07
3.63362e-09
-1.36261e-07
3.27051e-09
-1.37116e-07
2.90262e-09
-1.37862e-07
2.53044e-09
-1.38496e-07
2.15446e-09
-1.39018e-07
1.77516e-09
-1.39428e-07
1.39304e-09
-1.39724e-07
1.0086e-09
-1.39907e-07
6.2234e-10
-1.39974e-07
2.34768e-10
-1.39928e-07
-1.53605e-10
-1.39766e-07
-5.42265e-10
-1.3949e-07
-9.30693e-10
-1.39099e-07
-1.31836e-09
-1.38595e-07
-1.70475e-09
-1.37977e-07
-2.08933e-09
-1.37246e-07
-2.47156e-09
-1.36404e-07
-2.8509e-09
-1.35451e-07
-3.22682e-09
-1.34388e-07
-3.59877e-09
-1.33216e-07
-3.9662e-09
-1.31938e-07
-4.32856e-09
-1.30555e-07
-4.6853e-09
-1.29068e-07
-5.03587e-09
-1.2748e-07
-5.37972e-09
-1.25793e-07
-5.71628e-09
-1.24009e-07
-6.045e-09
-1.22131e-07
-6.36533e-09
-1.20161e-07
-6.67672e-09
-1.18102e-07
-6.97859e-09
-1.15958e-07
-7.27042e-09
-1.1373e-07
-7.55164e-09
-1.11423e-07
-7.82171e-09
-1.0904e-07
-8.08009e-09
-1.06584e-07
-8.32624e-09
-1.0406e-07
-8.55963e-09
-1.01471e-07
-8.77974e-09
-9.88212e-08
-8.98604e-09
-9.61149e-08
-9.17804e-09
-9.33565e-08
-9.35522e-09
-9.05503e-08
-9.5171e-09
-8.77012e-08
-9.6632e-09
-8.48137e-08
-9.79306e-09
-8.18929e-08
-9.90623e-09
-7.89437e-08
-1.00023e-08
-7.59712e-08
-1.00807e-08
-7.29808e-08
-1.01413e-08
-6.99777e-08
-1.01834e-08
-6.69675e-08
-1.02069e-08
-6.39557e-08
-1.02113e-08
-6.09479e-08
-1.01964e-08
-5.79498e-08
-1.01618e-08
-5.49673e-08
-1.01073e-08
-5.20061e-08
-1.00326e-08
-4.90723e-08
-9.93751e-09
-4.61717e-08
-9.82191e-09
-4.33103e-08
-9.68564e-09
-4.0494e-08
-9.5286e-09
-3.7729e-08
-9.35075e-09
-3.50211e-08
-9.15208e-09
-3.23764e-08
-8.93264e-09
-2.98006e-08
-8.69254e-09
-2.72997e-08
-8.43195e-09
-2.48794e-08
-8.15111e-09
-2.25453e-08
-7.85035e-09
-2.03029e-08
-7.53007e-09
-1.81576e-08
-7.19079e-09
-1.61143e-08
-6.83313e-09
-1.41781e-08
-6.45785e-09
-1.23534e-08
-6.06587e-09
-1.06445e-08
-5.65827e-09
-9.05527e-09
-5.23634e-09
-7.58899e-09
-4.80161e-09
-6.2485e-09
-4.35591e-09
-5.03597e-09
-3.90138e-09
-3.95283e-09
-3.44057e-09
-2.99966e-09
-2.97653e-09
-2.17603e-09
-2.51287e-09
-1.48035e-09
-2.05389e-09
-9.09709e-10
-1.60472e-09
-4.59643e-10
-1.17148e-09
-1.23933e-10
-7.61515e-10
1.05654e-10
-3.83573e-10
2.39624e-10
-4.80555e-11
2.91e-10
2.32701e-10
2.75741e-10
4.4422e-10
2.13113e-10
5.69631e-10
1.26278e-10
5.89651e-10
4.338e-11
4.82584e-10
2.22646e-10
2.98966e-11
-2.48616e-10
7.64142e-11
-5.09084e-10
1.05262e-10
-5.77729e-10
8.8719e-11
-4.89314e-10
3.88844e-12
-2.72032e-10
-1.68185e-10
4.96741e-11
-4.43109e-10
4.54701e-10
-8.33563e-10
9.25019e-10
-1.34964e-09
1.44531e-09
-1.99911e-09
2.00261e-09
-2.78769e-09
2.586e-09
-3.71931e-09
3.1863e-09
-4.79627e-09
3.79581e-09
-6.01951e-09
4.40807e-09
-7.38874e-09
5.01768e-09
-8.90262e-09
5.62012e-09
-1.05589e-08
6.21162e-09
-1.23546e-08
6.78904e-09
-1.42861e-08
7.34973e-09
-1.6349e-08
7.89152e-09
-1.85387e-08
8.4126e-09
-2.085e-08
8.91149e-09
-2.32775e-08
9.38698e-09
-2.58154e-08
9.83809e-09
-2.84578e-08
1.0264e-08
-3.11984e-08
1.06642e-08
-3.40311e-08
1.10381e-08
-3.69493e-08
1.13854e-08
-3.99465e-08
1.1706e-08
-4.30162e-08
1.19996e-08
-4.61517e-08
1.22662e-08
-4.93465e-08
1.2506e-08
-5.25939e-08
1.27189e-08
-5.58873e-08
1.29051e-08
-5.92201e-08
1.30648e-08
-6.25859e-08
1.31984e-08
-6.59782e-08
1.3306e-08
-6.93905e-08
1.3388e-08
-7.28165e-08
1.34447e-08
-7.62501e-08
1.34766e-08
-7.96851e-08
1.34841e-08
-8.31153e-08
1.34675e-08
-8.6535e-08
1.34273e-08
-8.99383e-08
1.3364e-08
-9.33193e-08
1.3278e-08
-9.66727e-08
1.317e-08
-9.99928e-08
1.30402e-08
-1.03274e-07
1.28893e-08
-1.06512e-07
1.27179e-08
-1.09701e-07
1.25263e-08
-1.12836e-07
1.23152e-08
-1.15912e-07
1.20852e-08
-1.18925e-07
1.18367e-08
-1.2187e-07
1.15703e-08
-1.24743e-07
1.12866e-08
-1.27539e-07
1.09862e-08
-1.30255e-07
1.06696e-08
-1.32886e-07
1.03375e-08
-1.35429e-07
9.99032e-09
-1.37879e-07
9.62875e-09
-1.40234e-07
9.25336e-09
-1.42489e-07
8.86474e-09
-1.44643e-07
8.4635e-09
-1.46691e-07
8.05023e-09
-1.48631e-07
7.62555e-09
-1.5046e-07
7.19007e-09
-1.52176e-07
6.7444e-09
-1.53776e-07
6.28916e-09
-1.55257e-07
5.82499e-09
-1.56618e-07
5.35249e-09
-1.57857e-07
4.87232e-09
-1.58971e-07
4.38511e-09
-1.5996e-07
3.89151e-09
-1.60822e-07
3.39216e-09
-1.61555e-07
2.88771e-09
-1.62159e-07
2.37883e-09
-1.62632e-07
1.86618e-09
-1.62974e-07
1.35043e-09
-1.63184e-07
8.32249e-10
-1.63261e-07
3.12329e-10
-1.63206e-07
-2.0865e-10
-1.63018e-07
-7.29994e-10
-1.62698e-07
-1.25101e-09
-1.62245e-07
-1.77099e-09
-1.61661e-07
-2.28923e-09
-1.60945e-07
-2.80502e-09
-1.60099e-07
-3.31763e-09
-1.59124e-07
-3.82636e-09
-1.5802e-07
-4.33047e-09
-1.5679e-07
-4.82923e-09
-1.55434e-07
-5.32191e-09
-1.53955e-07
-5.80778e-09
-1.52354e-07
-6.28609e-09
-1.50634e-07
-6.75611e-09
-1.48796e-07
-7.21708e-09
-1.46844e-07
-7.66828e-09
-1.4478e-07
-8.10895e-09
-1.42607e-07
-8.53835e-09
-1.40328e-07
-8.95573e-09
-1.37947e-07
-9.36037e-09
-1.35466e-07
-9.75152e-09
-1.32889e-07
-1.01284e-08
-1.3022e-07
-1.04904e-08
-1.27463e-07
-1.08367e-08
-1.24623e-07
-1.11666e-08
-1.21703e-07
-1.14795e-08
-1.18708e-07
-1.17745e-08
-1.15643e-07
-1.2051e-08
-1.12513e-07
-1.23084e-08
-1.09322e-07
-1.25459e-08
-1.06077e-07
-1.2763e-08
-1.02781e-07
-1.29589e-08
-9.94407e-08
-1.31332e-08
-9.60618e-08
-1.32851e-08
-9.26501e-08
-1.34141e-08
-8.92112e-08
-1.35196e-08
-8.57513e-08
-1.36011e-08
-8.22766e-08
-1.36582e-08
-7.87932e-08
-1.36903e-08
-7.53077e-08
-1.36969e-08
-7.18263e-08
-1.36777e-08
-6.83558e-08
-1.36323e-08
-6.49027e-08
-1.35604e-08
-6.14737e-08
-1.34615e-08
-5.80756e-08
-1.33356e-08
-5.47152e-08
-1.31823e-08
-5.13993e-08
-1.30016e-08
-4.81346e-08
-1.27932e-08
-4.49282e-08
-1.25572e-08
-4.17866e-08
-1.22936e-08
-3.87168e-08
-1.20025e-08
-3.57253e-08
-1.1684e-08
-3.28189e-08
-1.13384e-08
-3.00039e-08
-1.09661e-08
-2.72868e-08
-1.05674e-08
-2.46738e-08
-1.01431e-08
-2.21707e-08
-9.69386e-09
-1.97833e-08
-9.22048e-09
-1.75171e-08
-8.72405e-09
-1.53772e-08
-8.20584e-09
-1.33681e-08
-7.66732e-09
-1.14942e-08
-7.11025e-09
-9.75912e-09
-6.53671e-09
-8.1659e-09
-5.94913e-09
-6.71689e-09
-5.35038e-09
-5.41362e-09
-4.74385e-09
-4.25665e-09
-4.1335e-09
-3.24549e-09
-3.52404e-09
-2.37837e-09
-2.921e-09
-1.65217e-09
-2.33092e-09
-1.06212e-09
-1.76153e-09
-6.01712e-10
-1.22194e-09
-2.6236e-10
-7.22924e-10
-3.32648e-11
-2.77144e-10
9.88979e-11
1.00554e-10
1.50278e-10
3.92839e-10
1.40293e-10
5.79609e-10
9.21885e-11
6.37752e-10
3.39317e-11
5.40845e-10
2.56574e-10
1.71915e-11
-2.65807e-10
3.04082e-11
-5.22303e-10
7.90762e-12
-5.55234e-10
-7.66744e-11
-4.04733e-10
-2.4543e-10
-1.03273e-10
-5.16811e-10
3.21062e-10
-9.06113e-10
8.44006e-10
-1.42584e-09
1.44474e-09
-2.08599e-09
2.10546e-09
-2.89433e-09
2.81096e-09
-3.85662e-09
3.54829e-09
-4.9768e-09
4.30649e-09
-6.25722e-09
5.07622e-09
-7.69878e-09
5.84963e-09
-9.30115e-09
6.62005e-09
-1.10629e-08
7.38186e-09
-1.29816e-08
8.13032e-09
-1.5054e-08
8.86146e-09
-1.72762e-08
9.57191e-09
-1.96436e-08
1.02589e-08
-2.2151e-08
1.092e-08
-2.47929e-08
1.15534e-08
-2.75634e-08
1.21574e-08
-3.04561e-08
1.27308e-08
-3.34645e-08
1.32724e-08
-3.65818e-08
1.37815e-08
-3.98011e-08
1.42574e-08
-4.31152e-08
1.46996e-08
-4.65171e-08
1.51078e-08
-4.99993e-08
1.54818e-08
-5.35547e-08
1.58216e-08
-5.71757e-08
1.6127e-08
-6.08551e-08
1.63983e-08
-6.45855e-08
1.66355e-08
-6.83596e-08
1.68389e-08
-7.21701e-08
1.70089e-08
-7.60097e-08
1.71456e-08
-7.98714e-08
1.72497e-08
-8.37481e-08
1.73214e-08
-8.76327e-08
1.73613e-08
-9.15184e-08
1.73698e-08
-9.53984e-08
1.73475e-08
-9.9266e-08
1.72949e-08
-1.03115e-07
1.72127e-08
-1.06938e-07
1.71014e-08
-1.1073e-07
1.69617e-08
-1.14484e-07
1.67942e-08
-1.18194e-07
1.65995e-08
-1.21854e-07
1.63783e-08