/*--------------------------------*- C++ -*----------------------------------*\
  =========                 |
  \\      /  F ield         | OpenFOAM: The Open Source CFD Toolbox
   \\    /   O peration     | Website:  https://openfoam.org
    \\  /    A nd           | Version:  7
     \\/     M anipulation  |
\*---------------------------------------------------------------------------*/
FoamFile
{
    version     2.0;
    format      ascii;
    class       volVectorField;
    location    "0.3";
    object      U;
}
// * * * * * * * * * * * * * * * * * * * * * * * * * * * * * * * * * * * * * //

dimensions      [0 1 -1 0 0 0 0];

internalField   nonuniform List<vector> 
25600
(
(1.75417e-07 -2.10072e-07 0)
(2.83143e-06 -1.79709e-06 0)
(9.07338e-06 -2.83465e-06 0)
(1.69245e-05 -3.2076e-06 0)
(2.48807e-05 -3.12239e-06 0)
(3.19941e-05 -2.7444e-06 0)
(3.76112e-05 -2.1796e-06 0)
(4.12839e-05 -1.49887e-06 0)
(4.27116e-05 -7.49196e-07 0)
(4.17004e-05 3.94833e-08 0)
(3.81345e-05 8.47112e-07 0)
(3.19518e-05 1.65923e-06 0)
(2.31303e-05 2.46545e-06 0)
(1.16789e-05 3.25854e-06 0)
(-2.36907e-06 4.03347e-06 0)
(-1.89617e-05 4.78632e-06 0)
(-3.80338e-05 5.51404e-06 0)
(-5.95094e-05 6.21439e-06 0)
(-8.33038e-05 6.88562e-06 0)
(-0.000109325 7.52659e-06 0)
(-0.000137478 8.13661e-06 0)
(-0.00016766 8.71501e-06 0)
(-0.00019977 9.26133e-06 0)
(-0.000233702 9.77532e-06 0)
(-0.00026935 1.0257e-05 0)
(-0.000306605 1.07064e-05 0)
(-0.000345359 1.11237e-05 0)
(-0.000385504 1.15091e-05 0)
(-0.000426933 1.18629e-05 0)
(-0.000469538 1.21853e-05 0)
(-0.000513213 1.24767e-05 0)
(-0.000557851 1.27376e-05 0)
(-0.00060335 1.29685e-05 0)
(-0.000649604 1.31698e-05 0)
(-0.000696513 1.33421e-05 0)
(-0.000743977 1.34857e-05 0)
(-0.000791896 1.36013e-05 0)
(-0.000840173 1.36894e-05 0)
(-0.000888715 1.37504e-05 0)
(-0.000937426 1.37851e-05 0)
(-0.000986215 1.3794e-05 0)
(-0.00103499 1.37777e-05 0)
(-0.00108367 1.37367e-05 0)
(-0.00113216 1.36717e-05 0)
(-0.00118039 1.35832e-05 0)
(-0.00122826 1.34718e-05 0)
(-0.0012757 1.33381e-05 0)
(-0.00132263 1.31828e-05 0)
(-0.00136898 1.30063e-05 0)
(-0.00141467 1.28093e-05 0)
(-0.00145963 1.25924e-05 0)
(-0.00150379 1.23563e-05 0)
(-0.00154708 1.21014e-05 0)
(-0.00158944 1.18284e-05 0)
(-0.0016308 1.15379e-05 0)
(-0.00167111 1.12305e-05 0)
(-0.0017103 1.09068e-05 0)
(-0.00174832 1.05673e-05 0)
(-0.0017851 1.02127e-05 0)
(-0.00182061 9.84359e-06 0)
(-0.00185479 9.46056e-06 0)
(-0.00188758 9.06419e-06 0)
(-0.00191895 8.65508e-06 0)
(-0.00194884 8.23384e-06 0)
(-0.00197723 7.80108e-06 0)
(-0.00200406 7.35742e-06 0)
(-0.0020293 6.90346e-06 0)
(-0.00205291 6.43983e-06 0)
(-0.00207486 5.96713e-06 0)
(-0.00209513 5.48598e-06 0)
(-0.00211367 4.997e-06 0)
(-0.00213047 4.50082e-06 0)
(-0.00214549 3.99808e-06 0)
(-0.00215873 3.48942e-06 0)
(-0.00217015 2.97547e-06 0)
(-0.00217974 2.4569e-06 0)
(-0.00218749 1.93437e-06 0)
(-0.00219338 1.40853e-06 0)
(-0.0021974 8.80057e-07 0)
(-0.00219954 3.49636e-07 0)
(-0.0021998 -1.82059e-07 0)
(-0.00219818 -7.14344e-07 0)
(-0.00219467 -1.24653e-06 0)
(-0.00218928 -1.77791e-06 0)
(-0.00218201 -2.30779e-06 0)
(-0.00217287 -2.83543e-06 0)
(-0.00216187 -3.3601e-06 0)
(-0.00214901 -3.88108e-06 0)
(-0.00213432 -4.39763e-06 0)
(-0.00211781 -4.90901e-06 0)
(-0.0020995 -5.41449e-06 0)
(-0.00207942 -5.9133e-06 0)
(-0.00205758 -6.40471e-06 0)
(-0.00203403 -6.88794e-06 0)
(-0.00200878 -7.36221e-06 0)
(-0.00198187 -7.82677e-06 0)
(-0.00195334 -8.28082e-06 0)
(-0.00192323 -8.72359e-06 0)
(-0.00189157 -9.15431e-06 0)
(-0.00185842 -9.57221e-06 0)
(-0.00182382 -9.97651e-06 0)
(-0.00178781 -1.03664e-05 0)
(-0.00175046 -1.07412e-05 0)
(-0.00171182 -1.11e-05 0)
(-0.00167194 -1.14421e-05 0)
(-0.00163088 -1.17668e-05 0)
(-0.00158872 -1.20733e-05 0)
(-0.00154551 -1.23607e-05 0)
(-0.00150132 -1.26285e-05 0)
(-0.00145623 -1.28758e-05 0)
(-0.0014103 -1.31018e-05 0)
(-0.00136362 -1.3306e-05 0)
(-0.00131626 -1.34876e-05 0)
(-0.00126831 -1.36459e-05 0)
(-0.00121984 -1.37802e-05 0)
(-0.00117094 -1.38899e-05 0)
(-0.00112171 -1.39743e-05 0)
(-0.00107222 -1.40329e-05 0)
(-0.00102257 -1.40649e-05 0)
(-0.000972865 -1.40699e-05 0)
(-0.000923188 -1.40473e-05 0)
(-0.000873639 -1.39966e-05 0)
(-0.000824318 -1.39171e-05 0)
(-0.000775325 -1.38086e-05 0)
(-0.000726764 -1.36705e-05 0)
(-0.000678737 -1.35025e-05 0)
(-0.00063135 -1.3304e-05 0)
(-0.000584707 -1.30749e-05 0)
(-0.000538915 -1.28147e-05 0)
(-0.000494082 -1.25233e-05 0)
(-0.000450316 -1.22005e-05 0)
(-0.000407725 -1.1846e-05 0)
(-0.000366416 -1.14598e-05 0)
(-0.000326498 -1.10419e-05 0)
(-0.000288079 -1.05922e-05 0)
(-0.000251264 -1.0111e-05 0)
(-0.00021616 -9.59824e-06 0)
(-0.000182871 -9.05444e-06 0)
(-0.000151498 -8.48005e-06 0)
(-0.00012214 -7.87566e-06 0)
(-9.48943e-05 -7.24191e-06 0)
(-6.98515e-05 -6.57974e-06 0)
(-4.70984e-05 -5.89056e-06 0)
(-2.67152e-05 -5.17617e-06 0)
(-8.77393e-06 -4.43858e-06 0)
(6.663e-06 -3.68021e-06 0)
(1.95452e-05 -2.90435e-06 0)
(2.98378e-05 -2.11555e-06 0)
(3.75257e-05 -1.31963e-06 0)
(4.26178e-05 -5.24269e-07 0)
(4.5155e-05 2.60174e-07 0)
(4.52202e-05 1.01897e-06 0)
(4.29521e-05 1.73098e-06 0)
(3.85647e-05 2.36557e-06 0)
(3.23779e-05 2.877e-06 0)
(2.48597e-05 3.19531e-06 0)
(1.66768e-05 3.21553e-06 0)
(8.78145e-06 2.78073e-06 0)
(2.64707e-06 1.69733e-06 0)
(1.2389e-07 1.21588e-07 0)
(1.77542e-06 -2.88479e-06 0)
(9.37734e-06 -9.41627e-06 0)
(2.31303e-05 -1.34194e-05 0)
(3.93666e-05 -1.4727e-05 0)
(5.5241e-05 -1.39594e-05 0)
(6.87599e-05 -1.16898e-05 0)
(7.83873e-05 -8.35745e-06 0)
(8.29658e-05 -4.29197e-06 0)
(8.16627e-05 2.65024e-07 0)
(7.39003e-05 5.14015e-06 0)
(5.92962e-05 1.02056e-05 0)
(3.76177e-05 1.53647e-05 0)
(8.74933e-06 2.05443e-05 0)
(-2.73326e-05 2.56894e-05 0)
(-7.05794e-05 3.07581e-05 0)
(-0.000120886 3.57175e-05 0)
(-0.000178102 4.05416e-05 0)
(-0.000242042 4.52102e-05 0)
(-0.000312492 4.97077e-05 0)
(-0.000389215 5.4022e-05 0)
(-0.000471955 5.81438e-05 0)
(-0.000560443 6.20661e-05 0)
(-0.000654401 6.57832e-05 0)
(-0.000753539 6.92912e-05 0)
(-0.000857564 7.25879e-05 0)
(-0.000966176 7.56716e-05 0)
(-0.00107907 7.85417e-05 0)
(-0.00119596 8.11982e-05 0)
(-0.00131652 8.36417e-05 0)
(-0.00144045 8.58732e-05 0)
(-0.00156747 8.78944e-05 0)
(-0.00169725 8.97072e-05 0)
(-0.00182951 9.13141e-05 0)
(-0.00196395 9.27177e-05 0)
(-0.00210028 9.39207e-05 0)
(-0.00223822 9.49259e-05 0)
(-0.00237747 9.57367e-05 0)
(-0.00251776 9.63563e-05 0)
(-0.00265882 9.67881e-05 0)
(-0.00280037 9.70358e-05 0)
(-0.00294215 9.71032e-05 0)
(-0.0030839 9.69939e-05 0)
(-0.00322536 9.67118e-05 0)
(-0.0033663 9.62607e-05 0)
(-0.00350645 9.56445e-05 0)
(-0.00364559 9.48673e-05 0)
(-0.00378349 9.3933e-05 0)
(-0.00391991 9.28456e-05 0)
(-0.00405463 9.16093e-05 0)
(-0.00418745 9.02281e-05 0)
(-0.00431815 8.87062e-05 0)
(-0.00444653 8.70477e-05 0)
(-0.0045724 8.52567e-05 0)
(-0.00469555 8.33375e-05 0)
(-0.00481581 8.12941e-05 0)
(-0.004933 7.91308e-05 0)
(-0.00504695 7.68518e-05 0)
(-0.00515748 7.44611e-05 0)
(-0.00526445 7.19632e-05 0)
(-0.00536769 6.93622e-05 0)
(-0.00546706 6.66624e-05 0)
(-0.00556241 6.3868e-05 0)
(-0.00565361 6.09832e-05 0)
(-0.00574053 5.80125e-05 0)
(-0.00582305 5.496e-05 0)
(-0.00590105 5.18302e-05 0)
(-0.00597442 4.86275e-05 0)
(-0.00604306 4.53562e-05 0)
(-0.00610687 4.20206e-05 0)
(-0.00616576 3.86254e-05 0)
(-0.00621965 3.51748e-05 0)
(-0.00626845 3.16734e-05 0)
(-0.0063121 2.81258e-05 0)
(-0.00635053 2.45365e-05 0)
(-0.00638369 2.09102e-05 0)
(-0.00641153 1.72514e-05 0)
(-0.00643399 1.3565e-05 0)
(-0.00645105 9.85557e-06 0)
(-0.00646268 6.12798e-06 0)
(-0.00646884 2.38702e-06 0)
(-0.00646953 -1.36246e-06 0)
(-0.00646474 -5.11555e-06 0)
(-0.00645447 -8.86731e-06 0)
(-0.00643872 -1.26127e-05 0)
(-0.0064175 -1.63468e-05 0)
(-0.00639084 -2.00644e-05 0)
(-0.00635877 -2.37604e-05 0)
(-0.00632131 -2.74296e-05 0)
(-0.00627852 -3.10668e-05 0)
(-0.00623045 -3.46667e-05 0)
(-0.00617715 -3.82242e-05 0)
(-0.00611869 -4.17339e-05 0)
(-0.00605515 -4.51904e-05 0)
(-0.00598661 -4.85885e-05 0)
(-0.00591315 -5.19226e-05 0)
(-0.00583488 -5.51873e-05 0)
(-0.00575189 -5.83773e-05 0)
(-0.00566432 -6.1487e-05 0)
(-0.00557227 -6.45111e-05 0)
(-0.00547587 -6.74441e-05 0)
(-0.00537527 -7.02806e-05 0)
(-0.00527061 -7.30152e-05 0)
(-0.00516204 -7.56425e-05 0)
(-0.00504972 -7.8157e-05 0)
(-0.00493383 -8.05535e-05 0)
(-0.00481453 -8.28266e-05 0)
(-0.00469202 -8.49712e-05 0)
(-0.00456648 -8.69819e-05 0)
(-0.00443811 -8.88537e-05 0)
(-0.00430713 -9.05814e-05 0)
(-0.00417374 -9.21602e-05 0)
(-0.00403816 -9.35851e-05 0)
(-0.00390062 -9.48513e-05 0)
(-0.00376136 -9.59543e-05 0)
(-0.00362062 -9.68893e-05 0)
(-0.00347864 -9.7652e-05 0)
(-0.00333569 -9.82381e-05 0)
(-0.00319201 -9.86434e-05 0)
(-0.00304787 -9.88641e-05 0)
(-0.00290356 -9.88963e-05 0)
(-0.00275933 -9.87364e-05 0)
(-0.00261548 -9.83809e-05 0)
(-0.00247228 -9.78268e-05 0)
(-0.00233003 -9.70711e-05 0)
(-0.00218902 -9.61112e-05 0)
(-0.00204956 -9.49444e-05 0)
(-0.00191192 -9.35687e-05 0)
(-0.00177643 -9.19823e-05 0)
(-0.00164339 -9.01837e-05 0)
(-0.00151309 -8.81719e-05 0)
(-0.00138586 -8.59461e-05 0)
(-0.00126198 -8.35059e-05 0)
(-0.00114178 -8.08517e-05 0)
(-0.00102555 -7.79843e-05 0)
(-0.000913597 -7.49051e-05 0)
(-0.00080622 -7.16161e-05 0)
(-0.000703713 -6.81202e-05 0)
(-0.000606364 -6.44215e-05 0)
(-0.000514454 -6.05249e-05 0)
(-0.000428252 -5.64366e-05 0)
(-0.000348019 -5.21644e-05 0)
(-0.000273999 -4.77178e-05 0)
(-0.00020642 -4.31091e-05 0)
(-0.000145487 -3.83528e-05 0)
(-9.13804e-05 -3.34673e-05 0)
(-4.4248e-05 -2.84749e-05 0)
(-4.19967e-06 -2.34037e-05 0)
(2.87037e-05 -1.8289e-05 0)
(5.4461e-05 -1.31756e-05 0)
(7.31446e-05 -8.12111e-06 0)
(8.49199e-05 -3.19897e-06 0)
(9.00713e-05 1.49389e-06 0)
(8.9034e-05 5.82811e-06 0)
(8.24357e-05 9.62986e-06 0)
(7.11532e-05 1.26628e-05 0)
(5.63795e-05 1.46064e-05 0)
(3.96728e-05 1.50378e-05 0)
(2.3015e-05 1.34163e-05 0)
(9.18317e-06 9.18487e-06 0)
(1.69516e-06 2.64073e-06 0)
(2.82407e-06 -9.09546e-06 0)
(1.34016e-05 -2.31648e-05 0)
(3.10578e-05 -3.10661e-05 0)
(5.08201e-05 -3.31252e-05 0)
(6.9085e-05 -3.04429e-05 0)
(8.32938e-05 -2.411e-05 0)
(9.13638e-05 -1.50551e-05 0)
(9.16534e-05 -4.02483e-06 0)
(8.29311e-05 8.40028e-06 0)
(6.43033e-05 2.17738e-05 0)
(3.51482e-05 3.57513e-05 0)
(-4.93627e-06 5.00659e-05 0)
(-5.61732e-05 6.451e-05 0)
(-0.000118642 7.89218e-05 0)
(-0.000192308 9.31739e-05 0)
(-0.000277043 0.000107166 0)
(-0.000372644 0.000120816 0)
(-0.000478848 0.000134062 0)
(-0.000595341 0.000146854 0)
(-0.000721771 0.000159151 0)
(-0.000857753 0.000170922 0)
(-0.00100288 0.000182142 0)
(-0.00115671 0.000192792 0)
(-0.00131881 0.000202859 0)
(-0.00148872 0.000212331 0)
(-0.00166597 0.000221202 0)
(-0.00185007 0.000229468 0)
(-0.00204057 0.000237127 0)
(-0.00223697 0.000244178 0)
(-0.00243879 0.000250624 0)
(-0.00264555 0.000256467 0)
(-0.00285678 0.000261713 0)
(-0.00307199 0.000266366 0)
(-0.00329071 0.000270433 0)
(-0.00351248 0.000273921 0)
(-0.00373684 0.000276838 0)
(-0.00396332 0.000279193 0)
(-0.00419147 0.000280994 0)
(-0.00442086 0.000282251 0)
(-0.00465105 0.000282973 0)
(-0.00488161 0.000283172 0)
(-0.00511212 0.000282857 0)
(-0.00534216 0.00028204 0)
(-0.00557134 0.00028073 0)
(-0.00579925 0.00027894 0)
(-0.00602552 0.00027668 0)
(-0.00624976 0.000273962 0)
(-0.00647161 0.000270798 0)
(-0.00669071 0.000267199 0)
(-0.0069067 0.000263178 0)
(-0.00711926 0.000258745 0)
(-0.00732805 0.000253913 0)
(-0.00753274 0.000248694 0)
(-0.00773304 0.000243099 0)
(-0.00792863 0.000237142 0)
(-0.00811922 0.000230834 0)
(-0.00830454 0.000224188 0)
(-0.00848432 0.000217215 0)
(-0.00865828 0.000209929 0)
(-0.00882619 0.00020234 0)
(-0.00898779 0.000194463 0)
(-0.00914287 0.000186309 0)
(-0.00929119 0.00017789 0)
(-0.00943254 0.00016922 0)
(-0.00956674 0.000160312 0)
(-0.00969358 0.000151176 0)
(-0.00981289 0.000141828 0)
(-0.00992449 0.000132279 0)
(-0.0100282 0.000122542 0)
(-0.010124 0.000112631 0)
(-0.0102116 0.000102559 0)
(-0.0102909 9.23377e-05 0)
(-0.0103618 8.1982e-05 0)
(-0.0104243 7.15048e-05 0)
(-0.0104782 6.09197e-05 0)
(-0.0105234 5.02404e-05 0)
(-0.0105598 3.94806e-05 0)
(-0.0105875 2.86543e-05 0)
(-0.0106063 1.77754e-05 0)
(-0.0106162 6.85811e-06 0)
(-0.0106173 -4.08337e-06 0)
(-0.0106094 -1.50347e-05 0)
(-0.0105926 -2.59812e-05 0)
(-0.0105669 -3.69084e-05 0)
(-0.0105323 -4.78015e-05 0)
(-0.0104888 -5.86455e-05 0)
(-0.0104366 -6.94255e-05 0)
(-0.0103756 -8.01263e-05 0)
(-0.0103059 -9.07328e-05 0)
(-0.0102276 -0.00010123 0)
(-0.0101409 -0.000111601 0)
(-0.0100457 -0.000121832 0)
(-0.00994233 -0.000131907 0)
(-0.00983079 -0.00014181 0)
(-0.00971127 -0.000151526 0)
(-0.00958393 -0.000161038 0)
(-0.00944894 -0.000170331 0)
(-0.00930649 -0.000179389 0)
(-0.00915677 -0.000188196 0)
(-0.009 -0.000196737 0)
(-0.0088364 -0.000204995 0)
(-0.00866621 -0.000212955 0)
(-0.00848968 -0.000220601 0)
(-0.00830706 -0.000227919 0)
(-0.00811865 -0.000234891 0)
(-0.00792471 -0.000241503 0)
(-0.00772555 -0.00024774 0)
(-0.00752149 -0.000253587 0)
(-0.00731284 -0.000259028 0)
(-0.00709995 -0.00026405 0)
(-0.00688315 -0.000268638 0)
(-0.00666281 -0.000272778 0)
(-0.0064393 -0.000276456 0)
(-0.00621299 -0.000279659 0)
(-0.00598428 -0.000282373 0)
(-0.00575357 -0.000284587 0)
(-0.00552127 -0.000286288 0)
(-0.0052878 -0.000287464 0)
(-0.00505359 -0.000288104 0)
(-0.00481908 -0.000288198 0)
(-0.0045847 -0.000287735 0)
(-0.00435093 -0.000286706 0)
(-0.00411821 -0.000285102 0)
(-0.00388701 -0.000282915 0)
(-0.00365781 -0.000280138 0)
(-0.00343108 -0.000276764 0)
(-0.0032073 -0.000272789 0)
(-0.00298697 -0.000268206 0)
(-0.00277056 -0.000263014 0)
(-0.00255856 -0.000257209 0)
(-0.00235148 -0.000250791 0)
(-0.00214978 -0.00024376 0)
(-0.00195397 -0.000236118 0)
(-0.00176453 -0.000227869 0)
(-0.00158193 -0.000219018 0)
(-0.00140664 -0.000209574 0)
(-0.00123913 -0.000199546 0)
(-0.00107984 -0.000188949 0)
(-0.000929226 -0.000177799 0)
(-0.000787691 -0.000166118 0)
(-0.000655637 -0.00015393 0)
(-0.000533438 -0.000141268 0)
(-0.000421434 -0.000128171 0)
(-0.000319931 -0.000114683 0)
(-0.000229188 -0.000100864 0)
(-0.000149411 -8.67831e-05 0)
(-8.07398e-05 -7.25267e-05 0)
(-2.32361e-05 -5.8201e-05 0)
(2.31356e-05 -4.39393e-05 0)
(5.85292e-05 -2.99086e-05 0)
(8.32433e-05 -1.63185e-05 0)
(9.77537e-05 -3.43608e-06 0)
(0.000102756 8.39552e-06 0)
(9.92135e-05 1.8735e-05 0)
(8.84205e-05 2.7015e-05 0)
(7.20646e-05 3.25155e-05 0)
(5.22493e-05 3.43527e-05 0)
(3.15209e-05 3.15096e-05 0)
(1.34139e-05 2.30145e-05 0)
(2.77591e-06 8.77319e-06 0)
(3.20545e-06 -1.69395e-05 0)
(1.47469e-05 -3.94144e-05 0)
(3.31976e-05 -5.08396e-05 0)
(5.26944e-05 -5.25888e-05 0)
(6.91341e-05 -4.6398e-05 0)
(7.96053e-05 -3.39406e-05 0)
(8.16937e-05 -1.66767e-05 0)
(7.34497e-05 4.18112e-06 0)
(5.33681e-05 2.76532e-05 0)
(2.03217e-05 5.29567e-05 0)
(-2.64995e-05 7.94695e-05 0)
(-8.764e-05 0.000106698 0)
(-0.000163422 0.000134251 0)
(-0.000253987 0.000161815 0)
(-0.000359323 0.000189139 0)
(-0.000479298 0.000216024 0)
(-0.000613677 0.000242306 0)
(-0.00076214 0.000267856 0)
(-0.000924298 0.000292571 0)
(-0.00109971 0.000316366 0)
(-0.00128787 0.000339173 0)
(-0.00148827 0.000360941 0)
(-0.00170034 0.000381627 0)
(-0.00192349 0.000401199 0)
(-0.00215713 0.000419634 0)
(-0.00240064 0.000436914 0)
(-0.00265339 0.000453028 0)
(-0.00291473 0.000467969 0)
(-0.00318404 0.000481735 0)
(-0.00346067 0.000494326 0)
(-0.00374396 0.000505748 0)
(-0.00403329 0.000516006 0)
(-0.004328 0.000525109 0)
(-0.00462747 0.00053307 0)
(-0.00493105 0.0005399 0)
(-0.00523813 0.000545613 0)
(-0.00554808 0.000550226 0)
(-0.00586031 0.000553755 0)
(-0.00617419 0.000556217 0)
(-0.00648915 0.000557631 0)
(-0.0068046 0.000558016 0)
(-0.00711997 0.000557393 0)
(-0.0074347 0.000555781 0)
(-0.00774824 0.000553202 0)
(-0.00806004 0.000549677 0)
(-0.00836959 0.000545229 0)
(-0.00867637 0.000539878 0)
(-0.00897987 0.000533648 0)
(-0.00927961 0.000526562 0)
(-0.00957511 0.000518642 0)
(-0.0098659 0.000509911 0)
(-0.0101515 0.000500394 0)
(-0.0104316 0.000490112 0)
(-0.0107056 0.000479091 0)
(-0.0109732 0.000467354 0)
(-0.0112339 0.000454924 0)
(-0.0114874 0.000441826 0)
(-0.0117334 0.000428084 0)
(-0.0119714 0.000413722 0)
(-0.0122011 0.000398765 0)
(-0.0124221 0.000383237 0)
(-0.0126343 0.000367162 0)
(-0.0128372 0.000350566 0)
(-0.0130305 0.000333474 0)
(-0.0132141 0.000315909 0)
(-0.0133876 0.000297899 0)
(-0.0135508 0.000279467 0)
(-0.0137034 0.000260639 0)
(-0.0138453 0.000241441 0)
(-0.0139762 0.000221899 0)
(-0.014096 0.000202039 0)
(-0.0142044 0.000181887 0)
(-0.0143014 0.000161469 0)
(-0.0143868 0.000140811 0)
(-0.0144604 0.000119942 0)
(-0.0145221 9.88869e-05 0)
(-0.0145719 7.76741e-05 0)
(-0.0146097 5.63308e-05 0)
(-0.0146353 3.48847e-05 0)
(-0.0146488 1.33636e-05 0)
(-0.0146501 -8.20403e-06 0)
(-0.0146392 -2.97899e-05 0)
(-0.0146161 -5.13653e-05 0)
(-0.0145809 -7.29013e-05 0)
(-0.0145334 -9.43687e-05 0)
(-0.0144739 -0.000115738 0)
(-0.0144023 -0.00013698 0)
(-0.0143187 -0.000158064 0)
(-0.0142233 -0.000178961 0)
(-0.0141161 -0.00019964 0)
(-0.0139973 -0.000220072 0)
(-0.0138671 -0.000240224 0)
(-0.0137256 -0.000260067 0)
(-0.0135729 -0.00027957 0)
(-0.0134093 -0.000298702 0)
(-0.0132351 -0.000317432 0)
(-0.0130504 -0.000335728 0)
(-0.0128555 -0.00035356 0)
(-0.0126507 -0.000370897 0)
(-0.0124362 -0.000387707 0)
(-0.0122124 -0.00040396 0)
(-0.0119796 -0.000419625 0)
(-0.0117382 -0.00043467 0)
(-0.0114884 -0.000449067 0)
(-0.0112308 -0.000462783 0)
(-0.0109655 -0.00047579 0)
(-0.0106932 -0.000488057 0)
(-0.0104142 -0.000499556 0)
(-0.0101289 -0.000510256 0)
(-0.00983778 -0.000520131 0)
(-0.00954136 -0.000529151 0)
(-0.0092401 -0.00053729 0)
(-0.00893451 -0.000544521 0)
(-0.00862511 -0.000550818 0)
(-0.00831242 -0.000556155 0)
(-0.007997 -0.000560508 0)
(-0.0076794 -0.000563855 0)
(-0.0073602 -0.000566171 0)
(-0.00703998 -0.000567436 0)
(-0.00671933 -0.000567629 0)
(-0.00639885 -0.000566731 0)
(-0.00607918 -0.000564725 0)
(-0.00576092 -0.000561592 0)
(-0.00544471 -0.00055732 0)
(-0.00513119 -0.000551894 0)
(-0.004821 -0.000545302 0)
(-0.0045148 -0.000537535 0)
(-0.00421325 -0.000528585 0)
(-0.00391699 -0.000518446 0)
(-0.00362668 -0.000507116 0)
(-0.00334299 -0.000494594 0)
(-0.00306657 -0.000480882 0)
(-0.00279808 -0.000465986 0)
(-0.00253815 -0.000449916 0)
(-0.00228742 -0.000432685 0)
(-0.00204653 -0.000414311 0)
(-0.00181608 -0.000394817 0)
(-0.00159666 -0.000374234 0)
(-0.00138886 -0.000352597 0)
(-0.00119322 -0.000329952 0)
(-0.00101025 -0.000306352 0)
(-0.000840434 -0.000281865 0)
(-0.00068421 -0.000256569 0)
(-0.000541958 -0.000230563 0)
(-0.000413998 -0.000203961 0)
(-0.000300573 -0.000176907 0)
(-0.000201838 -0.000149573 0)
(-0.000117841 -0.00012217 0)
(-4.85033e-05 -9.49568e-05 0)
(6.40981e-06 -6.82535e-05 0)
(4.73159e-05 -4.24565e-05 0)
(7.48517e-05 -1.80591e-05 0)
(8.99171e-05 4.32354e-06 0)
(9.37237e-05 2.39232e-05 0)
(8.78518e-05 3.97866e-05 0)
(7.43066e-05 5.07463e-05 0)
(5.55308e-05 5.54181e-05 0)
(3.44271e-05 5.22498e-05 0)
(1.50573e-05 3.96887e-05 0)
(3.21381e-06 1.66713e-05 0)
(3.13351e-06 -2.49155e-05 0)
(1.40392e-05 -5.53552e-05 0)
(3.06548e-05 -6.91857e-05 0)
(4.67423e-05 -6.90659e-05 0)
(5.7919e-05 -5.75099e-05 0)
(6.10519e-05 -3.68212e-05 0)
(5.35321e-05 -9.00697e-06 0)
(3.32251e-05 2.42407e-05 0)
(-1.54946e-06 6.15219e-05 0)
(-5.20769e-05 0.000101691 0)
(-0.000119301 0.000143818 0)
(-0.000203875 0.000187148 0)
(-0.0003062 0.000231072 0)
(-0.000426471 0.000275093 0)
(-0.000564703 0.000318811 0)
(-0.000720765 0.000361897 0)
(-0.000894399 0.000404085 0)
(-0.00108525 0.00044516 0)
(-0.00129285 0.000484944 0)
(-0.00151671 0.000523296 0)
(-0.00175623 0.000560099 0)
(-0.00201078 0.000595261 0)
(-0.0022797 0.000628708 0)
(-0.00256228 0.000660382 0)
(-0.00285779 0.000690241 0)
(-0.00316549 0.00071825 0)
(-0.0034846 0.000744386 0)
(-0.00381436 0.000768636 0)
(-0.00415396 0.00079099 0)
(-0.00450263 0.000811448 0)
(-0.00485957 0.000830013 0)
(-0.00522398 0.000846694 0)
(-0.00559507 0.000861502 0)
(-0.00597205 0.000874455 0)
(-0.00635415 0.00088557 0)
(-0.00674057 0.000894868 0)
(-0.00713056 0.000902374 0)
(-0.00752336 0.000908113 0)
(-0.00791821 0.000912112 0)
(-0.00831438 0.000914401 0)
(-0.00871113 0.000915011 0)
(-0.00910777 0.000913972 0)
(-0.00950358 0.000911318 0)
(-0.00989787 0.000907081 0)
(-0.01029 0.000901297 0)
(-0.0106792 0.000894 0)
(-0.011065 0.000885227 0)
(-0.0114466 0.000875013 0)
(-0.0118235 0.000863395 0)
(-0.0121951 0.000850411 0)
(-0.0125607 0.000836098 0)
(-0.0129199 0.000820494 0)
(-0.013272 0.000803637 0)
(-0.0136165 0.000785567 0)
(-0.013953 0.000766321 0)
(-0.0142808 0.000745939 0)
(-0.0145996 0.000724461 0)
(-0.0149088 0.000701925 0)
(-0.0152081 0.000678372 0)
(-0.0154969 0.000653841 0)
(-0.0157748 0.000628373 0)
(-0.0160415 0.000602008 0)
(-0.0162966 0.000574788 0)
(-0.0165397 0.000546751 0)
(-0.0167704 0.000517941 0)
(-0.0169885 0.000488397 0)
(-0.0171936 0.000458163 0)
(-0.0173855 0.000427279 0)
(-0.0175638 0.000395788 0)
(-0.0177284 0.000363732 0)
(-0.0178789 0.000331155 0)
(-0.0180152 0.000298098 0)
(-0.018137 0.000264606 0)
(-0.0182442 0.000230722 0)
(-0.0183367 0.000196491 0)
(-0.0184142 0.000161957 0)
(-0.0184767 0.000127165 0)
(-0.018524 9.21593e-05 0)
(-0.0185562 5.69864e-05 0)
(-0.018573 2.16922e-05 0)
(-0.0185745 -1.36772e-05 0)
(-0.0185607 -4.90748e-05 0)
(-0.0185315 -8.44536e-05 0)
(-0.0184871 -0.000119766 0)
(-0.0184273 -0.000154964 0)
(-0.0183523 -0.00019 0)
(-0.0182622 -0.000224824 0)
(-0.018157 -0.000259388 0)
(-0.0180369 -0.000293643 0)
(-0.0179021 -0.000327538 0)
(-0.0177526 -0.000361025 0)
(-0.0175888 -0.000394053 0)
(-0.0174108 -0.000426572 0)
(-0.0172188 -0.000458531 0)
(-0.0170131 -0.000489879 0)
(-0.0167939 -0.000520566 0)
(-0.0165617 -0.000550542 0)
(-0.0163166 -0.000579754 0)
(-0.0160591 -0.000608152 0)
(-0.0157895 -0.000635687 0)
(-0.0155082 -0.000662306 0)
(-0.0152155 -0.00068796 0)
(-0.014912 -0.000712598 0)
(-0.0145981 -0.000736171 0)
(-0.0142742 -0.00075863 0)
(-0.0139408 -0.000779925 0)
(-0.0135985 -0.000800008 0)
(-0.0132478 -0.000818832 0)
(-0.0128893 -0.000836349 0)
(-0.0125235 -0.000852513 0)
(-0.0121509 -0.00086728 0)
(-0.0117723 -0.000880604 0)
(-0.0113883 -0.000892442 0)
(-0.0109995 -0.000902753 0)
(-0.0106065 -0.000911495 0)
(-0.0102101 -0.000918629 0)
(-0.00981095 -0.000924118 0)
(-0.00940977 -0.000927925 0)
(-0.00900729 -0.000930016 0)
(-0.00860425 -0.000930358 0)
(-0.0082014 -0.000928921 0)
(-0.00779952 -0.000925676 0)
(-0.00739937 -0.000920598 0)
(-0.00700176 -0.000913663 0)
(-0.00660746 -0.000904851 0)
(-0.00621729 -0.000894143 0)
(-0.00583206 -0.000881526 0)
(-0.00545257 -0.000866989 0)
(-0.00507963 -0.000850524 0)
(-0.00471407 -0.000832127 0)
(-0.0043567 -0.000811802 0)
(-0.00400832 -0.000789554 0)
(-0.00366973 -0.000765395 0)
(-0.00334174 -0.000739344 0)
(-0.00302511 -0.000711425 0)
(-0.00272062 -0.000681672 0)
(-0.00242901 -0.000650127 0)
(-0.00215101 -0.000616843 0)
(-0.0018873 -0.000581882 0)
(-0.00163855 -0.000545324 0)
(-0.00140537 -0.000507261 0)
(-0.00118833 -0.000467808 0)
(-0.000987956 -0.0004271 0)
(-0.000804678 -0.0003853 0)
(-0.000638866 -0.000342603 0)
(-0.000490791 -0.000299243 0)
(-0.000360614 -0.000255503 0)
(-0.000248365 -0.000211727 0)
(-0.000153925 -0.000168327 0)
(-7.6991e-05 -0.000125807 0)
(-1.70496e-05 -8.47843e-05 0)
(2.66598e-05 -4.60093e-05 0)
(5.51854e-05 -1.04012e-05 0)
(6.99082e-05 2.09197e-05 0)
(7.25931e-05 4.65965e-05 0)
(6.54423e-05 6.50022e-05 0)
(5.1107e-05 7.42347e-05 0)
(3.27267e-05 7.21495e-05 0)
(1.46784e-05 5.64634e-05 0)
(3.20244e-06 2.48715e-05 0)
(2.77104e-06 -3.20866e-05 0)
(1.18511e-05 -6.90279e-05 0)
(2.45243e-05 -8.35857e-05 0)
(3.46323e-05 -7.96975e-05 0)
(3.77282e-05 -6.07077e-05 0)
(3.05675e-05 -2.9574e-05 0)
(1.04444e-05 1.11398e-05 0)
(-2.48709e-05 5.92574e-05 0)
(-7.71558e-05 0.000112953 0)
(-0.000147789 0.000170708 0)
(-0.000237799 0.000231269 0)
(-0.000347911 0.0002936 0)
(-0.000478582 0.000356853 0)
(-0.000630046 0.000420325 0)
(-0.000802337 0.000483442 0)
(-0.000995325 0.000545728 0)
(-0.00120874 0.000606796 0)
(-0.00144218 0.000666322 0)
(-0.00169515 0.000724046 0)
(-0.00196707 0.000779749 0)
(-0.00225728 0.000833256 0)
(-0.00256508 0.000884423 0)
(-0.00288969 0.000933137 0)
(-0.0032303 0.000979306 0)
(-0.00358609 0.00102286 0)
(-0.00395617 0.00106374 0)
(-0.00433966 0.00110191 0)
(-0.00473565 0.00113734 0)
(-0.00514324 0.00117002 0)
(-0.00556148 0.00119994 0)
(-0.00598946 0.00122711 0)
(-0.00642623 0.00125152 0)
(-0.00687087 0.0012732 0)
(-0.00732245 0.00129216 0)
(-0.00778004 0.00130843 0)
(-0.00824273 0.00132204 0)
(-0.00870961 0.00133303 0)
(-0.00917978 0.00134141 0)
(-0.00965236 0.00134725 0)
(-0.0101265 0.00135057 0)
(-0.0106012 0.00135142 0)
(-0.0110758 0.00134985 0)
(-0.0115493 0.0013459 0)
(-0.0120211 0.00133961 0)
(-0.0124901 0.00133105 0)
(-0.0129558 0.00132026 0)
(-0.0134173 0.00130729 0)
(-0.0138738 0.0012922 0)
(-0.0143246 0.00127504 0)
(-0.014769 0.00125586 0)
(-0.0152064 0.00123472 0)
(-0.0156359 0.00121167 0)
(-0.0160571 0.00118677 0)
(-0.0164691 0.00116008 0)
(-0.0168715 0.00113166 0)
(-0.0172636 0.00110155 0)
(-0.0176449 0.00106983 0)
(-0.0180147 0.00103654 0)
(-0.0183725 0.00100175 0)
(-0.0187179 0.000965517 0)
(-0.0190503 0.000927897 0)
(-0.0193692 0.000888952 0)
(-0.0196742 0.000848741 0)
(-0.0199649 0.000807325 0)
(-0.0202408 0.000764765 0)
(-0.0205016 0.000721123 0)
(-0.0207468 0.000676459 0)
(-0.0209762 0.000630835 0)
(-0.0211894 0.000584315 0)
(-0.0213861 0.000536961 0)
(-0.021566 0.000488836 0)
(-0.0217289 0.000440005 0)
(-0.0218745 0.000390531 0)
(-0.0220026 0.000340479 0)
(-0.0221131 0.000289916 0)
(-0.0222056 0.000238905 0)
(-0.0222802 0.000187515 0)
(-0.0223367 0.000135812 0)
(-0.022375 8.38627e-05 0)
(-0.022395 3.17362e-05 0)
(-0.0223967 -2.04992e-05 0)
(-0.0223801 -7.27743e-05 0)
(-0.0223451 -0.000125019 0)
(-0.0222917 -0.000177164 0)
(-0.0222201 -0.000229137 0)
(-0.0221303 -0.000280868 0)
(-0.0220224 -0.000332285 0)
(-0.0218965 -0.000383314 0)
(-0.0217528 -0.000433884 0)
(-0.0215914 -0.000483922 0)
(-0.0214126 -0.000533353 0)
(-0.0212166 -0.000582103 0)
(-0.0210036 -0.000630099 0)
(-0.0207739 -0.000677266 0)
(-0.0205279 -0.00072353 0)
(-0.0202658 -0.000768815 0)
(-0.019988 -0.000813046 0)
(-0.019695 -0.000856149 0)
(-0.019387 -0.000898049 0)
(-0.0190646 -0.000938672 0)
(-0.0187282 -0.000977942 0)
(-0.0183783 -0.00101579 0)
(-0.0180153 -0.00105213 0)
(-0.01764 -0.0010869 0)
(-0.0172528 -0.00112003 0)
(-0.0168542 -0.00115144 0)
(-0.016445 -0.00118106 0)
(-0.0160257 -0.00120882 0)
(-0.0155971 -0.00123466 0)
(-0.0151597 -0.0012585 0)
(-0.0147144 -0.00128028 0)
(-0.0142617 -0.00129994 0)
(-0.0138026 -0.0013174 0)
(-0.0133378 -0.00133262 0)
(-0.012868 -0.00134553 0)
(-0.012394 -0.00135608 0)
(-0.0119168 -0.0013642 0)
(-0.0114371 -0.00136985 0)
(-0.0109558 -0.00137297 0)
(-0.0104738 -0.00137353 0)
(-0.00999201 -0.00137148 0)
(-0.00951131 -0.00136677 0)
(-0.00903263 -0.00135937 0)
(-0.0085569 -0.00134924 0)
(-0.00808507 -0.00133637 0)
(-0.00761807 -0.00132072 0)
(-0.00715687 -0.00130228 0)
(-0.00670242 -0.00128102 0)
(-0.00625569 -0.00125695 0)
(-0.00581762 -0.00123006 0)
(-0.00538917 -0.00120036 0)
(-0.00497129 -0.00116786 0)
(-0.00456493 -0.00113258 0)
(-0.00417101 -0.00109455 0)
(-0.00379043 -0.00105381 0)
(-0.0034241 -0.00101042 0)
(-0.00307287 -0.000964443 0)
(-0.00273758 -0.000915958 0)
(-0.00241904 -0.000865068 0)
(-0.00211799 -0.000811892 0)
(-0.00183514 -0.000756575 0)
(-0.00157115 -0.000699288 0)
(-0.00132658 -0.000640235 0)
(-0.00110194 -0.000579661 0)
(-0.000897627 -0.000517857 0)
(-0.000713933 -0.000455166 0)
(-0.000551026 -0.000392003 0)
(-0.000408921 -0.000328862 0)
(-0.000287465 -0.000266334 0)
(-0.000186305 -0.00020513 0)
(-0.00010486 -0.000146104 0)
(-4.22841e-05 -9.02868e-05 0)
(2.56831e-06 -3.89158e-05 0)
(3.11851e-05 6.52652e-06 0)
(4.54386e-05 4.4271e-05 0)
(4.76382e-05 7.22304e-05 0)
(4.05509e-05 8.797e-05 0)
(2.74505e-05 8.87187e-05 0)
(1.28198e-05 7.13936e-05 0)
(2.89888e-06 3.24395e-05 0)
(2.22667e-06 -3.78126e-05 0)
(8.6246e-06 -7.89207e-05 0)
(1.57256e-05 -9.19958e-05 0)
(1.78022e-05 -8.21158e-05 0)
(1.05347e-05 -5.34283e-05 0)
(-9.33705e-06 -9.53948e-06 0)
(-4.45358e-05 4.64369e-05 0)
(-9.73137e-05 0.000111846 0)
(-0.000169482 0.000184441 0)
(-0.000262457 0.000262332 0)
(-0.000377311 0.000343934 0)
(-0.000514804 0.000427923 0)
(-0.000675427 0.000513196 0)
(-0.000859431 0.000598835 0)
(-0.00106686 0.000684073 0)
(-0.00129758 0.000768274 0)
(-0.0015513 0.000850911 0)
(-0.0018276 0.000931542 0)
(-0.00212592 0.0010098 0)
(-0.00244565 0.0010854 0)
(-0.00278606 0.00115807 0)
(-0.00314635 0.00122762 0)
(-0.00352568 0.00129389 0)
(-0.00392314 0.00135673 0)
(-0.00433781 0.00141605 0)
(-0.0047687 0.00147177 0)
(-0.00521482 0.00152382 0)
(-0.00567515 0.00157216 0)
(-0.00614864 0.00161676 0)
(-0.00663425 0.00165761 0)
(-0.00713094 0.0016947 0)
(-0.00763763 0.00172804 0)
(-0.00815326 0.00175766 0)
(-0.00867679 0.00178356 0)
(-0.00920715 0.00180579 0)
(-0.0097433 0.00182437 0)
(-0.0102842 0.00183935 0)
(-0.0108288 0.00185078 0)
(-0.0113761 0.00185871 0)
(-0.0119252 0.00186319 0)
(-0.0124749 0.00186428 0)
(-0.0130243 0.00186203 0)
(-0.0135726 0.00185652 0)
(-0.0141186 0.00184781 0)
(-0.0146616 0.00183596 0)
(-0.0152006 0.00182104 0)
(-0.0157347 0.00180312 0)
(-0.016263 0.00178228 0)
(-0.0167848 0.00175859 0)
(-0.0172991 0.00173212 0)
(-0.0178052 0.00170294 0)
(-0.0183023 0.00167114 0)
(-0.0187896 0.00163679 0)
(-0.0192665 0.00159997 0)
(-0.0197321 0.00156075 0)
(-0.0201858 0.00151922 0)
(-0.0206269 0.00147545 0)
(-0.0210547 0.00142953 0)
(-0.0214688 0.00138153 0)
(-0.0218683 0.00133154 0)
(-0.0222529 0.00127964 0)
(-0.0226219 0.00122591 0)
(-0.0229747 0.00117044 0)
(-0.023311 0.0011133 0)
(-0.0236302 0.00105459 0)
(-0.0239318 0.000994376 0)
(-0.0242155 0.000932757 0)
(-0.0244808 0.000869816 0)
(-0.0247274 0.000805637 0)
(-0.0249548 0.000740309 0)
(-0.0251629 0.000673918 0)
(-0.0253512 0.000606553 0)
(-0.0255196 0.000538303 0)
(-0.0256677 0.000469258 0)
(-0.0257953 0.000399508 0)
(-0.0259023 0.000329143 0)
(-0.0259885 0.000258256 0)
(-0.0260537 0.000186939 0)
(-0.0260979 0.000115286 0)
(-0.0261209 4.33901e-05 0)
(-0.0261227 -2.86533e-05 0)
(-0.0261033 -0.000100749 0)
(-0.0260626 -0.0001728 0)
(-0.0260008 -0.00024471 0)
(-0.0259178 -0.000316381 0)