/*--------------------------------*- C++ -*----------------------------------*\
  =========                 |
  \\      /  F ield         | OpenFOAM: The Open Source CFD Toolbox
   \\    /   O peration     | Website:  https://openfoam.org
    \\  /    A nd           | Version:  7
     \\/     M anipulation  |
\*---------------------------------------------------------------------------*/
FoamFile
{
    version     2.0;
    format      ascii;
    class       surfaceScalarField;
    location    "0.4";
    object      phi;
}
// * * * * * * * * * * * * * * * * * * * * * * * * * * * * * * * * * * * * * //

dimensions      [0 3 -1 0 0 0 0];

internalField   nonuniform List<scalar> 
50880
(
5.98578e-12
-6.23436e-12
3.62078e-11
-3.02171e-11
8.11225e-11
-4.4909e-11
1.30763e-10
-4.96576e-11
1.77999e-10
-4.72571e-11
2.17874e-10
-3.98737e-11
2.46964e-10
-2.90698e-11
2.62942e-10
-1.59629e-11
2.64272e-10
-1.33218e-12
2.49993e-10
1.42709e-11
2.1955e-10
3.04396e-11
1.72687e-10
4.68689e-11
1.09362e-10
6.33316e-11
2.97041e-11
7.96596e-11
-6.60223e-11
9.57254e-11
-1.77452e-10
1.11429e-10
-3.04141e-10
1.2669e-10
-4.45588e-10
1.41449e-10
-6.01243e-10
1.55656e-10
-7.70518e-10
1.69277e-10
-9.52801e-10
1.82282e-10
-1.14745e-09
1.94652e-10
-1.35382e-09
2.0637e-10
-1.57125e-09
2.17426e-10
-1.79906e-09
2.27811e-10
-2.03658e-09
2.37523e-10
-2.28314e-09
2.46559e-10
-2.53806e-09
2.5492e-10
-2.80067e-09
2.62608e-10
-3.0703e-09
2.69628e-10
-3.34628e-09
2.75985e-10
-3.62796e-09
2.81686e-10
-3.9147e-09
2.86737e-10
-4.20585e-09
2.91148e-10
-4.50077e-09
2.94927e-10
-4.79886e-09
2.98085e-10
-5.09949e-09
3.00631e-10
-5.40206e-09
3.02575e-10
-5.70599e-09
3.0393e-10
-6.01069e-09
3.04706e-10
-6.31561e-09
3.04915e-10
-6.62018e-09
3.04569e-10
-6.92385e-09
3.03679e-10
-7.22611e-09
3.0226e-10
-7.52643e-09
3.00321e-10
-7.82431e-09
2.97878e-10
-8.11925e-09
2.94941e-10
-8.41077e-09
2.91524e-10
-8.69841e-09
2.87639e-10
-8.98171e-09
2.83299e-10
-9.26023e-09
2.78518e-10
-9.53353e-09
2.73309e-10
-9.80122e-09
2.67684e-10
-1.00629e-08
2.61656e-10
-1.03181e-08
2.55239e-10
-1.05666e-08
2.48446e-10
-1.08078e-08
2.41289e-10
-1.10416e-08
2.33783e-10
-1.12676e-08
2.2594e-10
-1.14853e-08
2.17773e-10
-1.16946e-08
2.09297e-10
-1.18952e-08
2.00524e-10
-1.20866e-08
1.91468e-10
-1.22688e-08
1.82141e-10
-1.24413e-08
1.72559e-10
-1.26041e-08
1.62734e-10
-1.27567e-08
1.5268e-10
-1.28991e-08
1.42411e-10
-1.30311e-08
1.3194e-10
-1.31524e-08
1.21282e-10
-1.32628e-08
1.1045e-10
-1.33623e-08
9.94592e-11
-1.34506e-08
8.83229e-11
-1.35277e-08
7.70559e-11
-1.35933e-08
6.56724e-11
-1.36475e-08
5.41872e-11
-1.36901e-08
4.26149e-11
-1.37211e-08
3.09703e-11
-1.37404e-08
1.92684e-11
-1.37479e-08
7.52438e-12
-1.37436e-08
-4.24661e-12
-1.37276e-08
-1.60292e-11
-1.36998e-08
-2.78077e-11
-1.36602e-08
-3.95666e-11
-1.3609e-08
-5.12901e-11
-1.3546e-08
-6.29621e-11
-1.34714e-08
-7.45666e-11
-1.33853e-08
-8.60873e-11
-1.32878e-08
-9.7508e-11
-1.3179e-08
-1.08812e-10
-1.3059e-08
-1.19983e-10
-1.2928e-08
-1.31005e-10
-1.27862e-08
-1.41859e-10
-1.26336e-08
-1.52531e-10
-1.24706e-08
-1.63002e-10
-1.22974e-08
-1.73256e-10
-1.21141e-08
-1.83275e-10
-1.19211e-08
-1.93043e-10
-1.17185e-08
-2.02542e-10
-1.15068e-08
-2.11756e-10
-1.12861e-08
-2.20667e-10
-1.10568e-08
-2.29258e-10
-1.08193e-08
-2.37512e-10
-1.05739e-08
-2.45412e-10
-1.0321e-08
-2.52943e-10
-1.00609e-08
-2.60086e-10
-9.79406e-09
-2.66825e-10
-9.52091e-09
-2.73144e-10
-9.24189e-09
-2.79027e-10
-8.95743e-09
-2.84458e-10
-8.66801e-09
-2.89421e-10
-8.37411e-09
-2.939e-10
-8.07623e-09
-2.97881e-10
-7.77488e-09
-3.0135e-10
-7.47059e-09
-3.0429e-10
-7.1639e-09
-3.0669e-10
-6.85537e-09
-3.08534e-10
-6.54556e-09
-3.0981e-10
-6.23505e-09
-3.10506e-10
-5.92445e-09
-3.10609e-10
-5.61434e-09
-3.10107e-10
-5.30535e-09
-3.08991e-10
-4.9981e-09
-3.0725e-10
-4.69323e-09
-3.04875e-10
-4.39137e-09
-3.01856e-10
-4.09318e-09
-2.98187e-10
-3.79932e-09
-2.9386e-10
-3.51045e-09
-2.88869e-10
-3.22724e-09
-2.8321e-10
-2.95036e-09
-2.76879e-10
-2.68049e-09
-2.69873e-10
-2.4183e-09
-2.62191e-10
-2.16446e-09
-2.53833e-10
-1.91966e-09
-2.44802e-10
-1.68456e-09
-2.35101e-10
-1.45982e-09
-2.24737e-10
-1.2461e-09
-2.13719e-10
-1.04405e-09
-2.02057e-10
-8.54281e-10
-1.89767e-10
-6.77414e-10
-1.76867e-10
-5.14034e-10
-1.6338e-10
-3.64695e-10
-1.49338e-10
-2.2992e-10
-1.34775e-10
-1.10185e-10
-1.19736e-10
-5.90925e-12
-1.04276e-10
8.25564e-11
-8.84651e-11
1.54945e-10
-7.2389e-11
2.111e-10
-5.61552e-11
2.51001e-10
-3.99011e-11
2.74807e-10
-2.38049e-11
2.82906e-10
-8.09752e-12
2.75984e-10
6.91912e-12
2.5514e-10
2.08397e-11
2.22031e-10
3.31065e-11
1.79095e-10
4.29386e-11
1.29859e-10
4.92417e-11
7.93455e-11
5.05179e-11
3.46189e-11
4.47184e-11
5.33056e-12
2.92668e-11
5.31106e-12
3.00798e-11
-3.63182e-11
1.01205e-10
-1.01345e-10
1.95479e-10
-1.39149e-10
2.95821e-10
-1.49969e-10
3.87855e-10
-1.39296e-10
4.60352e-10
-1.12395e-10
5.0487e-10
-7.35983e-11
5.15224e-10
-2.63046e-11
4.87011e-10
2.68985e-11
4.17222e-10
8.40662e-11
3.03939e-10
1.43721e-10
1.4608e-10
2.04726e-10
-5.67868e-11
2.66202e-10
-3.04588e-10
3.27467e-10
-5.96847e-10
3.87989e-10
-9.32767e-10
4.47351e-10
-1.3113e-09
5.05222e-10
-1.73119e-09
5.6134e-10
-2.19103e-09
6.15498e-10
-2.68929e-09
6.67532e-10
-3.22432e-09
7.17315e-10
-3.79441e-09
7.64747e-10
-4.3978e-09
8.09752e-10
-5.03264e-09
8.52275e-10
-5.69711e-09
8.92274e-10
-6.38931e-09
9.29724e-10
-7.10735e-09
9.64607e-10
-7.84935e-09
9.9692e-10
-8.61341e-09
1.02666e-09
-9.39762e-09
1.05385e-09
-1.02001e-08
1.07848e-09
-1.1019e-08
1.10059e-09
-1.18525e-08
1.1202e-09
-1.26987e-08
1.13734e-09
-1.35558e-08
1.15204e-09
-1.4422e-08
1.16433e-09
-1.52956e-08
1.17424e-09
-1.61749e-08
1.18183e-09
-1.70581e-08
1.18712e-09
-1.79435e-08
1.19016e-09
-1.88296e-08
1.191e-09
-1.97147e-08
1.18967e-09
-2.05973e-08
1.18623e-09
-2.14757e-08
1.18072e-09
-2.23486e-08
1.17318e-09
-2.32144e-08
1.16367e-09
-2.40717e-08
1.15223e-09
-2.4919e-08
1.13892e-09
-2.57552e-08
1.12378e-09
-2.65787e-08
1.10685e-09
-2.73884e-08
1.08821e-09
-2.8183e-08
1.06788e-09
-2.89612e-08
1.04592e-09
-2.9722e-08
1.02239e-09
-3.04641e-08
9.97336e-10
-3.11864e-08
9.70805e-10
-3.1888e-08
9.42851e-10
-3.25677e-08
9.13526e-10
-3.32247e-08
8.82881e-10
-3.38579e-08
8.50969e-10
-3.44664e-08
8.17842e-10
-3.50494e-08
7.83551e-10
-3.56061e-08
7.48151e-10
-3.61357e-08
7.11693e-10
-3.66373e-08
6.7423e-10
-3.71104e-08
6.35818e-10
-3.75542e-08
5.96508e-10
-3.79682e-08
5.56354e-10
-3.83516e-08
5.15413e-10
-3.87041e-08
4.73737e-10
-3.9025e-08
4.31383e-10
-3.9314e-08
3.88405e-10
-3.95705e-08
3.44861e-10
-3.97943e-08
3.00805e-10
-3.99849e-08
2.56295e-10
-4.01421e-08
2.11389e-10
-4.02656e-08
1.66143e-10
-4.03553e-08
1.20618e-10
-4.04109e-08
7.48701e-11
-4.04323e-08
2.89603e-11
-4.04195e-08
-1.70519e-11
-4.03724e-08
-6.31061e-11
-4.02911e-08
-1.09141e-10
-4.01756e-08
-1.55096e-10
-4.00259e-08
-2.00908e-10
-3.98424e-08
-2.46515e-10
-3.96251e-08
-2.91854e-10
-3.93743e-08
-3.36862e-10
-3.90903e-08
-3.81473e-10
-3.87735e-08
-4.25625e-10
-3.84243e-08
-4.69252e-10
-3.8043e-08
-5.12288e-10
-3.76302e-08
-5.54669e-10
-3.71864e-08
-5.96328e-10
-3.67122e-08
-6.372e-10
-3.62082e-08
-6.77218e-10
-3.56752e-08
-7.16315e-10
-3.51138e-08
-7.54425e-10
-3.45248e-08
-7.91481e-10
-3.39092e-08
-8.27417e-10
-3.32677e-08
-8.62167e-10
-3.26013e-08
-8.95664e-10
-3.1911e-08
-9.27841e-10
-3.11977e-08
-9.58635e-10
-3.04627e-08
-9.87978e-10
-2.9707e-08
-1.01581e-09
-2.89317e-08
-1.04206e-09
-2.81382e-08
-1.06667e-09
-2.73277e-08
-1.08957e-09
-2.65014e-08
-1.11071e-09
-2.56608e-08
-1.13003e-09
-2.48073e-08
-1.14746e-09
-2.39422e-08
-1.16294e-09
-2.30671e-08
-1.17642e-09
-2.21836e-08
-1.18785e-09
-2.12931e-08
-1.19718e-09
-2.03973e-08
-1.20434e-09
-1.94978e-08
-1.20929e-09
-1.85963e-08
-1.21198e-09
-1.76946e-08
-1.21237e-09
-1.67942e-08
-1.21042e-09
-1.58972e-08
-1.20608e-09
-1.50051e-08
-1.19932e-09
-1.41199e-08
-1.1901e-09
-1.32433e-08
-1.17839e-09
-1.23774e-08
-1.16416e-09
-1.15238e-08
-1.1474e-09
-1.06846e-08
-1.12807e-09
-9.86166e-09
-1.10617e-09
-9.05685e-09
-1.08168e-09
-8.27212e-09
-1.0546e-09
-7.50938e-09
-1.02493e-09
-6.77053e-09
-9.92679e-10
-6.05748e-09
-9.57854e-10
-5.3721e-09
-9.20481e-10
-4.71624e-09
-8.80591e-10
-4.09173e-09
-8.38227e-10
-3.50035e-09
-7.93444e-10
-2.9438e-09
-7.46309e-10
-2.42376e-09
-6.96909e-10
-1.9418e-09
-6.45346e-10
-1.49938e-09
-5.91752e-10
-1.09787e-09
-5.36285e-10
-7.3847e-10
-4.79136e-10
-4.22206e-10
-4.20542e-10
-1.49878e-10
-3.60793e-10
7.79804e-11
-3.00247e-10
2.61174e-10
-2.3935e-10
3.99924e-10
-1.78655e-10
4.94981e-10
-1.18863e-10
5.47752e-10
-6.08658e-11
5.60484e-10
-5.80788e-12
5.36492e-10
4.48326e-11
4.80464e-10
8.9128e-11
3.9884e-10
1.24552e-10
3.00252e-10
1.47823e-10
1.95975e-10
1.54807e-10
1.00164e-10
1.4056e-10
2.9287e-11
1.00178e-10
3.45819e-11
4.4863e-11
-8.11798e-11
1.39143e-10
-1.95658e-10
2.56396e-10
-2.56404e-10
3.74998e-10
-2.6854e-10
4.76653e-10
-2.40924e-10
5.46474e-10
-1.82219e-10
5.72765e-10
-9.99057e-11
5.46582e-10
-1.27968e-13
4.61293e-10
1.12198e-10
3.12145e-10
2.33226e-10
9.59406e-11
3.5993e-10
-1.89271e-10
4.89936e-10
-5.44434e-10
6.21365e-10
-9.69692e-10
7.52728e-10
-1.46454e-09
8.8284e-10
-2.02794e-09
1.01076e-09
-2.65845e-09
1.13573e-09
-3.35425e-09
1.25714e-09
-4.11327e-09
1.37452e-09
-4.9332e-09
1.48747e-09
-5.81157e-09
1.59568e-09
-6.74574e-09
1.69891e-09
-7.73297e-09
1.79698e-09
-8.77043e-09
1.88974e-09
-9.85523e-09
1.97708e-09
-1.09844e-08
2.05892e-09
-1.2155e-08
2.13522e-09
-1.33641e-08
2.20595e-09
-1.46085e-08
2.2711e-09
-1.58853e-08
2.33068e-09
-1.71916e-08
2.38471e-09
-1.85242e-08
2.43323e-09
-1.98803e-08
2.47629e-09
-2.12569e-08
2.51393e-09
-2.2651e-08
2.54622e-09
-2.406e-08
2.57324e-09
-2.54808e-08
2.59505e-09
-2.69107e-08
2.61173e-09
-2.83469e-08
2.62338e-09
-2.97868e-08
2.63007e-09
-3.12277e-08
2.6319e-09
-3.2667e-08
2.62897e-09
-3.41022e-08
2.62138e-09
-3.55307e-08
2.60922e-09
-3.69501e-08
2.59259e-09
-3.8358e-08
2.5716e-09
-3.97521e-08
2.54636e-09
-4.11302e-08
2.51698e-09
-4.249e-08
2.48355e-09
-4.38293e-08
2.44618e-09
-4.51461e-08
2.405e-09
-4.64383e-08
2.36011e-09
-4.7704e-08
2.31161e-09
-4.89412e-08
2.25962e-09
-5.01481e-08
2.20426e-09
-5.1323e-08
2.14564e-09
-5.2464e-08
2.08386e-09
-5.35695e-08
2.01905e-09
-5.46379e-08
1.95132e-09
-5.56677e-08
1.88078e-09
-5.66574e-08
1.80754e-09
-5.76056e-08
1.73174e-09
-5.8511e-08
1.65347e-09
-5.93721e-08
1.57287e-09
-6.01879e-08
1.49004e-09
-6.09572e-08
1.4051e-09
-6.16789e-08
1.31818e-09
-6.23519e-08
1.2294e-09
-6.29754e-08
1.13887e-09
-6.35484e-08
1.04671e-09
-6.407e-08
9.53055e-10
-6.45396e-08
8.58022e-10
-6.49565e-08
7.61735e-10
-6.532e-08
6.64321e-10
-6.56296e-08
5.65904e-10
-6.58849e-08
4.66612e-10
-6.60853e-08
3.66574e-10
-6.62306e-08
2.6592e-10
-6.63205e-08
1.64779e-10
-6.63548e-08
6.32832e-11
-6.63334e-08
-3.8434e-11
-6.62563e-08
-1.40239e-10
-6.61235e-08
-2.41996e-10
-6.5935e-08
-3.4357e-10
-6.56911e-08
-4.44822e-10
-6.5392e-08
-5.45614e-10
-6.5038e-08
-6.45807e-10
-6.46296e-08
-7.4526e-10
-6.41673e-08
-8.43831e-10
-6.36515e-08
-9.41378e-10
-6.3083e-08
-1.03776e-09
-6.24625e-08
-1.13282e-09
-6.17907e-08
-1.22644e-09
-6.10686e-08
-1.31844e-09
-6.02971e-08
-1.40871e-09
-5.94772e-08
-1.49707e-09
-5.86101e-08
-1.5834e-09
-5.7697e-08
-1.66753e-09
-5.67392e-08
-1.74934e-09
-5.57379e-08
-1.82866e-09
-5.46947e-08
-1.90535e-09
-5.36111e-08
-1.97927e-09
-5.24887e-08
-2.05027e-09
-5.13291e-08
-2.11821e-09
-5.01342e-08
-2.18295e-09
-4.89056e-08
-2.24433e-09
-4.76455e-08
-2.30223e-09
-4.63556e-08
-2.3565e-09
-4.50382e-08
-2.40701e-09
-4.36953e-08
-2.45361e-09
-4.23291e-08
-2.49619e-09
-4.0942e-08
-2.53461e-09
-3.95362e-08
-2.56874e-09
-3.81142e-08
-2.59846e-09
-3.66784e-08
-2.62365e-09
-3.52314e-08
-2.64419e-09
-3.37757e-08
-2.65998e-09
-3.23141e-08
-2.6709e-09
-3.08492e-08
-2.67686e-09
-2.93838e-08
-2.67775e-09
-2.79208e-08
-2.67348e-09
-2.64629e-08
-2.66397e-09
-2.50131e-08
-2.64915e-09
-2.35742e-08
-2.62893e-09
-2.21494e-08
-2.60325e-09
-2.07415e-08
-2.57205e-09
-1.93536e-08
-2.5353e-09
-1.79887e-08
-2.49294e-09
-1.66499e-08
-2.44496e-09
-1.53403e-08
-2.39133e-09
-1.40628e-08
-2.33205e-09
-1.28206e-08
-2.26713e-09
-1.16167e-08
-2.19659e-09
-1.04541e-08
-2.12048e-09
-9.33572e-09
-2.03885e-09
-8.26452e-09
-1.95179e-09
-7.24336e-09
-1.85939e-09
-6.27499e-09
-1.76181e-09
-5.3621e-09
-1.6592e-09
-4.50724e-09
-1.55177e-09
-3.71282e-09
-1.43977e-09
-2.98108e-09
-1.3235e-09
-2.31401e-09
-1.20335e-09
-1.7134e-09
-1.07975e-09
-1.1807e-09
-9.53247e-10
-7.16979e-10
-8.24513e-10
-3.22872e-10
-6.94353e-10
1.54483e-12
-5.63765e-10
2.56862e-10
-4.33974e-10
4.44494e-10
-3.065e-10
5.66864e-10
-1.8324e-10
6.2764e-10
-6.65814e-11
6.32008e-10
4.04709e-11
5.87015e-10
1.34126e-10
5.01944e-10
2.09618e-10
3.88716e-10
2.61034e-10
2.62242e-10
2.81262e-10
1.40571e-10
2.62231e-10
4.47228e-11
1.96051e-10
7.93009e-11
4.97231e-11
-1.3088e-10
1.5031e-10
-2.96266e-10
2.69172e-10
-3.75295e-10
3.81141e-10
-3.80509e-10
4.65408e-10
-3.25166e-10
5.0489e-10
-2.21681e-10
4.8586e-10
-8.08769e-11
3.97554e-10
8.8168e-11
2.31748e-10
2.78003e-10
-1.76138e-11
4.82596e-10
-3.54768e-10
6.97094e-10
-7.82429e-10
9.176e-10
-1.30205e-09
1.14098e-09
-1.91403e-09
1.36471e-09
-2.61793e-09
1.58674e-09
-3.41259e-09
1.80543e-09
-4.29629e-09
2.01943e-09
-5.26682e-09
2.22767e-09
-6.32156e-09
2.42926e-09
-7.4576e-09
2.6235e-09
-8.67175e-09
2.80982e-09
-9.9606e-09
2.98777e-09
-1.13206e-08
3.15697e-09
-1.2748e-08
3.31715e-09
-1.4239e-08
3.4681e-09
-1.57898e-08
3.60967e-09
-1.73963e-08
3.74173e-09
-1.90546e-08
3.86423e-09
-2.07606e-08
3.97714e-09
-2.25104e-08
4.08045e-09
-2.42998e-08
4.17418e-09
-2.6125e-08
4.25839e-09
-2.79819e-08
4.33315e-09
-2.98665e-08
4.39852e-09
-3.17748e-08
4.45462e-09
-3.37032e-08
4.50155e-09
-3.56475e-08
4.53944e-09
-3.76042e-08
4.56841e-09
-3.95695e-08
4.58862e-09
-4.15396e-08
4.60021e-09
-4.3511e-08
4.60333e-09
-4.54802e-08
4.59815e-09
-4.74437e-08
4.58482e-09
-4.9398e-08
4.56353e-09
-5.13398e-08
4.53445e-09
-5.3266e-08
4.49775e-09
-5.51732e-08
4.45362e-09
-5.70585e-08
4.40224e-09
-5.89187e-08
4.34379e-09
-6.0751e-08
4.27847e-09
-6.25525e-08
4.20646e-09
-6.43203e-08
4.12796e-09
-6.60519e-08
4.04315e-09
-6.77445e-08
3.95224e-09
-6.93956e-08
3.85542e-09
-7.10029e-08
3.75288e-09
-7.25638e-08
3.64482e-09
-7.40762e-08
3.53145e-09
-7.55379e-08
3.41297e-09
-7.69467e-08
3.28956e-09
-7.83006e-08
3.16145e-09
-7.95976e-08
3.02882e-09
-8.08361e-08
2.89189e-09
-8.2014e-08
2.75085e-09
-8.31299e-08
2.60593e-09
-8.41821e-08
2.45731e-09
-8.51692e-08
2.30523e-09
-8.60897e-08
2.14987e-09
-8.69423e-08
1.99146e-09
-8.77258e-08
1.83021e-09
-8.8439e-08
1.66633e-09
-8.90811e-08
1.50005e-09
-8.96509e-08
1.33157e-09
-9.01477e-08
1.16112e-09
-9.05707e-08
9.88924e-10
-9.09193e-08
8.15199e-10
-9.11929e-08
6.40173e-10
-9.1391e-08
4.64073e-10
-9.15134e-08
2.87129e-10
-9.15597e-08
1.09571e-10
-9.15298e-08
-6.83671e-11
-9.14235e-08
-2.46451e-10
-9.12411e-08
-4.24443e-10
-9.09826e-08
-6.02105e-10
-9.06482e-08
-7.79195e-10
-9.02383e-08
-9.55471e-10
-8.97534e-08
-1.13069e-09
-8.91941e-08
-1.3046e-09
-8.8561e-08
-1.47696e-09
-8.78548e-08
-1.64752e-09
-8.70766e-08
-1.81602e-09
-8.62272e-08
-1.98222e-09
-8.53077e-08
-2.14586e-09
-8.43195e-08
-2.30669e-09
-8.32637e-08
-2.46445e-09
-8.21419e-08
-2.61889e-09
-8.09556e-08
-2.76975e-09
-7.97063e-08
-2.91677e-09
-7.8396e-08
-3.05971e-09
-7.70263e-08
-3.19829e-09
-7.55994e-08
-3.33228e-09
-7.41173e-08
-3.4614e-09
-7.25821e-08
-3.58542e-09
-7.09962e-08
-3.70409e-09
-6.9362e-08
-3.81714e-09
-6.7682e-08
-3.92434e-09
-6.59588e-08
-4.02544e-09
-6.41951e-08
-4.1202e-09
-6.23938e-08
-4.20838e-09
-6.05576e-08
-4.28975e-09
-5.86897e-08
-4.36409e-09
-5.67932e-08
-4.43116e-09
-5.48712e-08
-4.49075e-09
-5.2927e-08
-4.54264e-09
-5.0964e-08
-4.58664e-09
-4.89857e-08
-4.62253e-09
-4.69955e-08
-4.65013e-09
-4.49972e-08
-4.66926e-09
-4.29943e-08
-4.67974e-09
-4.09906e-08
-4.6814e-09
-3.899e-08
-4.67409e-09
-3.69963e-08
-4.65766e-09
-3.50135e-08
-4.63198e-09
-3.30455e-08
-4.59694e-09
-3.10963e-08
-4.55242e-09
-2.917e-08
-4.49834e-09
-2.72707e-08
-4.43461e-09
-2.54025e-08
-4.36119e-09
-2.35694e-08
-4.27802e-09
-2.17756e-08
-4.1851e-09
-2.00253e-08
-4.08241e-09
-1.83224e-08
-3.97e-09
-1.66711e-08
-3.84792e-09
-1.50753e-08
-3.71625e-09
-1.3539e-08
-3.57512e-09
-1.20661e-08
-3.42468e-09
-1.06604e-08
-3.26514e-09
-9.32545e-09
-3.09676e-09
-8.0648e-09
-2.91985e-09
-6.88177e-09
-2.73479e-09
-5.77949e-09
-2.54205e-09
-4.76079e-09
-2.3422e-09
-3.82825e-09
-2.13589e-09
-2.98404e-09
-1.92395e-09
-2.22993e-09
-1.70736e-09
-1.56717e-09
-1.48728e-09
-9.96381e-10
-1.26514e-09
-5.17463e-10
-1.04268e-09
-1.29436e-10
-8.21999e-10
1.69735e-10
-6.05672e-10
3.83349e-10
-3.9686e-10
5.16217e-10
-1.99455e-10
5.74945e-10
-1.82569e-11
5.68256e-10
1.40824e-10
5.07328e-10
2.70557e-10
4.06144e-10
3.62218e-10
2.81849e-10
4.05543e-10
1.55083e-10
3.8898e-10
5.05657e-11
3.00575e-10
1.29869e-10
4.75059e-11
-1.78366e-10
1.40249e-10
-3.88992e-10
2.42735e-10
-4.77799e-10
3.27601e-10
-4.65397e-10
3.72492e-10
-3.70057e-10
3.59044e-10
-2.08214e-10
2.7233e-10
5.85149e-12
1.00445e-10
2.60053e-10
-1.65872e-10
5.44314e-10
-5.33585e-10
8.50309e-10
-1.00769e-09
1.1712e-09
-1.59148e-09
1.5014e-09
-2.28684e-09
1.83634e-09
-3.09442e-09
2.17229e-09
-4.01385e-09
2.50618e-09
-5.04393e-09
2.83551e-09
-6.18273e-09
3.15823e-09
-7.42771e-09
3.47266e-09
-8.77587e-09
3.77742e-09
-1.02238e-08
4.07139e-09
-1.17676e-08
4.35366e-09
-1.34033e-08
4.6235e-09
-1.51267e-08
4.88031e-09
-1.69331e-08
5.12362e-09
-1.88181e-08
5.35308e-09
-2.07769e-08
5.56842e-09
-2.28046e-08
5.76943e-09
-2.48963e-08
5.95599e-09
-2.70472e-08
6.12802e-09
-2.92522e-08
6.2855e-09
-3.15065e-08
6.42844e-09
-3.3805e-08
6.55689e-09
-3.61428e-08
6.67095e-09
-3.8515e-08
6.77072e-09
-4.09167e-08
6.85634e-09
-4.33431e-08
6.92796e-09
-4.57894e-08
6.98576e-09
-4.8251e-08
7.02994e-09
-5.0723e-08
7.06069e-09
-5.32011e-08
7.07825e-09
-5.56806e-08
7.08283e-09
-5.81571e-08
7.07468e-09
-6.06263e-08
7.05405e-09
-6.3084e-08
7.0212e-09
-6.55259e-08
6.97638e-09
-6.7948e-08
6.91987e-09
-7.03463e-08
6.85193e-09
-7.27169e-08
6.77285e-09
-7.50561e-08
6.68292e-09
-7.736e-08
6.58241e-09
-7.96252e-08
6.47162e-09
-8.1848e-08
6.35083e-09
-8.40252e-08
6.22036e-09
-8.61535e-08
6.08048e-09
-8.82296e-08
5.9315e-09
-9.02504e-08
5.77373e-09
-9.22131e-08
5.60747e-09
-9.41146e-08
5.43302e-09
-9.59523e-08
5.25069e-09
-9.77236e-08
5.06079e-09
-9.94258e-08
4.86363e-09
-1.01056e-07
4.65953e-09
-1.02613e-07
4.4488e-09
-1.04094e-07
4.23175e-09
-1.05497e-07
4.00871e-09
-1.0682e-07
3.77999e-09
-1.0806e-07
3.54592e-09
-1.09217e-07
3.30682e-09
-1.10289e-07
3.06302e-09
-1.11274e-07
2.81486e-09
-1.1217e-07
2.56265e-09
-1.12977e-07
2.30673e-09
-1.13692e-07
2.04745e-09
-1.14316e-07
1.78514e-09
-1.14848e-07
1.52014e-09
-1.15285e-07
1.2528e-09
-1.15629e-07
9.83458e-10
-1.15877e-07
7.12476e-10
-1.1603e-07
4.40204e-10
-1.16087e-07
1.66996e-10
-1.16049e-07
-1.06786e-10
-1.15915e-07
-3.80781e-10
-1.15685e-07
-6.54623e-10
-1.15359e-07
-9.27944e-10
-1.14938e-07
-1.20037e-09
-1.14421e-07
-1.47154e-09
-1.13811e-07
-1.74106e-09
-1.13107e-07
-2.00856e-09
-1.1231e-07
-2.27365e-09
-1.11422e-07
-2.53596e-09
-1.10443e-07
-2.7951e-09
-1.09374e-07
-3.05067e-09
-1.08218e-07
-3.3023e-09
-1.06975e-07
-3.54959e-09
-1.05647e-07
-3.79214e-09
-1.04237e-07
-4.02957e-09
-1.02745e-07
-4.26148e-09
-1.01174e-07
-4.48748e-09
-9.95268e-08
-4.70718e-09
-9.78049e-08
-4.92019e-09
-9.60111e-08
-5.12611e-09
-9.4148e-08
-5.32455e-09
-9.22183e-08
-5.51513e-09
-9.02249e-08
-5.69747e-09
-8.81708e-08
-5.87119e-09
-8.60593e-08
-6.03589e-09
-8.38935e-08
-6.19123e-09
-8.16769e-08
-6.33682e-09
-7.94129e-08
-6.4723e-09
-7.71054e-08
-6.59732e-09
-7.47579e-08
-6.71153e-09
-7.23745e-08
-6.8146e-09
-6.99591e-08
-6.90618e-09
-6.75157e-08
-6.98595e-09
-6.50488e-08
-7.0536e-09
-6.25625e-08
-7.10884e-09
-6.00613e-08
-7.15136e-09
-5.75496e-08
-7.1809e-09
-5.50322e-08
-7.19719e-09
-5.25136e-08
-7.19998e-09
-4.99986e-08
-7.18904e-09
-4.74921e-08
-7.16416e-09
-4.4999e-08
-7.12514e-09
-4.25241e-08
-7.07181e-09
-4.00725e-08
-7.004e-09
-3.76493e-08
-6.9216e-09
-3.52594e-08
-6.8245e-09
-3.2908e-08
-6.71261e-09
-3.06001e-08
-6.58589e-09
-2.83409e-08
-6.44433e-09
-2.61353e-08
-6.28794e-09
-2.39885e-08
-6.11679e-09
-2.19055e-08
-5.93099e-09
-1.9891e-08
-5.73067e-09
-1.79501e-08
-5.51606e-09
-1.60874e-08
-5.28742e-09
-1.43074e-08
-5.0451e-09
-1.26147e-08
-4.7895e-09
-1.10134e-08
-4.52115e-09
-9.50748e-09
-4.24066e-09
-8.10075e-09
-3.94879e-09
-6.79653e-09
-3.64641e-09
-5.59783e-09
-3.33459e-09
-4.50717e-09
-3.01462e-09
-3.52653e-09
-2.68799e-09
-2.65726e-09
-2.35654e-09
-1.89998e-09
-2.02243e-09
-1.25438e-09
-1.68828e-09
-7.19134e-10
-1.35724e-09
-2.91704e-10
-1.0331e-09
3.18973e-11
-7.20462e-10
2.57326e-10
-4.2489e-10
3.92184e-10
-1.53123e-10
4.46308e-10
8.66966e-11
4.32079e-10
2.84793e-10
3.64751e-10
4.29557e-10
2.6285e-10
5.07445e-10
1.48703e-10
5.03115e-10
4.94379e-11
3.99836e-10
1.79309e-10
4.03917e-11
-2.18762e-10
1.14232e-10
-4.628e-10
1.85736e-10
-5.4929e-10
2.26744e-10
-5.06417e-10
2.1423e-10
-3.57558e-10
1.29241e-10
-1.23223e-10
-4.37352e-11
1.78841e-10
-3.17212e-10
5.3354e-10
-7.01049e-10
9.28153e-10
-1.20277e-09
1.35203e-09
-1.82786e-09
1.79629e-09
-2.58002e-09
2.25357e-09
-3.46141e-09
2.71774e-09
-4.47288e-09
3.18376e-09
-5.61413e-09
3.64743e-09
-6.88389e-09
4.10527e-09
-8.28008e-09
4.55442e-09
-9.79991e-09
4.99249e-09
-1.144e-08
5.41753e-09
-1.31965e-08
5.82791e-09
-1.50652e-08
6.22231e-09
-1.70413e-08
6.59965e-09
-1.91201e-08
6.95905e-09
-2.12963e-08
7.2998e-09
-2.35645e-08
7.62136e-09
-2.59194e-08
7.92331e-09
-2.83553e-08
8.20532e-09
-3.08665e-08
8.46719e-09
-3.34473e-08
8.70876e-09
-3.60918e-08
8.92999e-09
-3.87942e-08
9.13085e-09
-4.15487e-08
9.31141e-09
-4.43495e-08
9.47174e-09
-4.71908e-08
9.61201e-09
-5.00668e-08
9.73236e-09
-5.29718e-08
9.83302e-09
-5.59003e-08
9.9142e-09
-5.88465e-08
9.97617e-09
-6.1805e-08
1.00192e-08
-6.47704e-08
1.00436e-08
-6.77373e-08
1.00497e-08
-7.07004e-08
1.00378e-08
-7.36546e-08
1.00082e-08
-7.65948e-08
9.9614e-09
-7.9516e-08
9.89762e-09
-8.24135e-08
9.81729e-09
-8.52823e-08
9.72079e-09
-8.8118e-08
9.6085e-09
-9.09159e-08
9.48083e-09
-9.36716e-08
9.33817e-09
-9.63809e-08
9.18093e-09
-9.90396e-08
9.00953e-09
-1.01644e-07
8.82437e-09
-1.04189e-07
8.62589e-09
-1.06672e-07
8.4145e-09
-1.09089e-07
8.19062e-09
-1.11436e-07
7.9547e-09
-1.1371e-07
7.70715e-09
-1.15908e-07
7.44843e-09
-1.18026e-07
7.17896e-09
-1.20062e-07
6.89919e-09
-1.22012e-07
6.60956e-09
-1.23874e-07
6.31052e-09
-1.25644e-07
6.00252e-09
-1.27322e-07
5.68601e-09
-1.28903e-07
5.36144e-09
-1.30386e-07
5.02928e-09
-1.3177e-07
4.68999e-09
-1.33051e-07
4.34402e-09
-1.34228e-07
3.99186e-09
-1.35299e-07
3.63397e-09
-1.36263e-07
3.27083e-09
-1.37118e-07
2.90291e-09
-1.37864e-07
2.5307e-09
-1.38499e-07
2.15468e-09
-1.39021e-07
1.77535e-09
-1.39431e-07
1.3932e-09
-1.39727e-07
1.00872e-09
-1.39909e-07
6.22428e-10
-1.39977e-07
2.34821e-10
-1.3993e-07
-1.53587e-10
-1.39769e-07
-5.42283e-10
-1.39493e-07
-9.30746e-10
-1.39102e-07
-1.31845e-09
-1.38598e-07
-1.70488e-09
-1.3798e-07
-2.08949e-09
-1.37249e-07
-2.47176e-09
-1.36406e-07
-2.85114e-09
-1.35453e-07
-3.22709e-09
-1.3439e-07
-3.59907e-09
-1.33218e-07
-3.96654e-09
-1.3194e-07
-4.32894e-09
-1.30557e-07
-4.68571e-09
-1.2907e-07
-5.03632e-09
-1.27482e-07
-5.3802e-09
-1.25795e-07
-5.71679e-09
-1.24011e-07
-6.04555e-09
-1.22132e-07
-6.36591e-09
-1.20162e-07
-6.67732e-09
-1.18103e-07
-6.97922e-09
-1.15958e-07
-7.27108e-09
-1.1373e-07
-7.55232e-09
-1.11423e-07
-7.82242e-09
-1.0904e-07
-8.08082e-09
-1.06584e-07
-8.32699e-09
-1.04059e-07
-8.5604e-09
-1.0147e-07
-8.78052e-09
-9.88201e-08
-8.98684e-09
-9.61136e-08
-9.17884e-09
-9.33549e-08
-9.35603e-09
-9.05485e-08
-9.51792e-09
-8.7699e-08
-9.66402e-09
-8.48113e-08
-9.79388e-09
-8.18903e-08
-9.90704e-09
-7.89408e-08
-1.00031e-08
-7.59681e-08
-1.00815e-08
-7.29774e-08
-1.0142e-08
-6.99741e-08
-1.01842e-08
-6.69637e-08
-1.02076e-08
-6.39516e-08
-1.0212e-08
-6.09436e-08
-1.01971e-08
-5.79453e-08
-1.01624e-08
-5.49626e-08
-1.01079e-08
-5.20013e-08
-1.00331e-08
-4.90672e-08
-9.93802e-09
-4.61665e-08
-9.82237e-09
-4.33049e-08
-9.68604e-09
-4.04886e-08
-9.52894e-09
-3.77235e-08
-9.35102e-09
-3.50155e-08
-9.15228e-09
-3.23707e-08
-8.93276e-09
-2.97949e-08
-8.69258e-09
-2.7294e-08
-8.43191e-09
-2.48737e-08
-8.15098e-09
-2.25396e-08
-7.85012e-09
-2.02973e-08
-7.52975e-09
-1.8152e-08
-7.19037e-09
-1.61089e-08
-6.83262e-09
-1.41728e-08
-6.45725e-09
-1.23483e-08
-6.06517e-09
-1.06396e-08
-5.65747e-09
-9.05056e-09
-5.23545e-09
-7.58453e-09
-4.80063e-09
-6.2443e-09
-4.35484e-09
-5.03206e-09
-3.90024e-09
-3.94923e-09
-3.43937e-09
-2.99639e-09
-2.97528e-09
-2.17309e-09
-2.51158e-09
-1.47776e-09
-2.05257e-09
-9.07458e-10
-1.6034e-09
-4.5773e-10
-1.17019e-09
-1.22347e-10
-7.60271e-10
1.06922e-10
-3.82397e-10
2.40581e-10
-4.6972e-11
2.91696e-10
2.33674e-10
2.76216e-10
4.45043e-10
2.13397e-10
5.70273e-10
1.26412e-10
5.90098e-10
4.34083e-11
4.82834e-10
2.22717e-10
2.99349e-11
-2.48717e-10
7.6557e-11
-5.09409e-10
1.05568e-10
-5.78276e-10
8.92268e-11
-4.90066e-10
4.62574e-12
-2.72965e-10
-1.67195e-10
4.85895e-11
-4.41841e-10
4.53491e-10
-8.32002e-10
9.2371e-10
-1.34777e-09
1.44393e-09
-1.99693e-09
2.00119e-09
-2.78522e-09
2.58457e-09
-3.71653e-09
3.18488e-09
-4.7932e-09
3.79442e-09
-6.01616e-09
4.40672e-09
-7.38513e-09
5.01639e-09
-8.89877e-09
5.61891e-09
-1.05548e-08
6.2105e-09
-1.23503e-08
6.788e-09
-1.42816e-08
7.34878e-09
-1.63444e-08
7.89068e-09
-1.85339e-08
8.41187e-09
-2.08451e-08
8.91087e-09
-2.32726e-08
9.38646e-09
-2.58104e-08
9.83767e-09
-2.84528e-08
1.02637e-08
-3.11934e-08
1.0664e-08
-3.40261e-08
1.1038e-08
-3.69443e-08
1.13854e-08
-3.99416e-08
1.17061e-08
-4.30114e-08
1.19998e-08
-4.6147e-08
1.22665e-08
-4.93419e-08
1.25063e-08
-5.25895e-08
1.27193e-08
-5.5883e-08
1.29056e-08
-5.92161e-08
1.30654e-08
-6.2582e-08
1.3199e-08
-6.59745e-08
1.33066e-08
-6.9387e-08
1.33887e-08
-7.28133e-08
1.34455e-08
-7.62471e-08
1.34774e-08
-7.96823e-08
1.34849e-08
-8.31128e-08
1.34683e-08
-8.65328e-08
1.34282e-08
-8.99363e-08
1.33649e-08
-9.33176e-08
1.3279e-08
-9.66712e-08
1.31709e-08
-9.99916e-08
1.30412e-08
-1.03273e-07
1.28903e-08
-1.06511e-07
1.27188e-08
-1.09701e-07
1.25273e-08
-1.12836e-07
1.23162e-08
-1.15912e-07
1.20861e-08
-1.18926e-07
1.18376e-08
-1.21871e-07
1.15713e-08
-1.24744e-07
1.12876e-08
-1.27541e-07
1.09871e-08
-1.30256e-07
1.06705e-08
-1.32888e-07
1.03384e-08
-1.3543e-07
9.99119e-09
-1.37881e-07
9.62959e-09
-1.40236e-07
9.25417e-09
-1.42492e-07
8.86553e-09
-1.44646e-07
8.46426e-09
-1.46694e-07
8.05096e-09
-1.48634e-07
7.62625e-09
-1.50464e-07
7.19073e-09
-1.52179e-07
6.74503e-09
-1.53779e-07
6.28975e-09
-1.55261e-07
5.82554e-09
-1.56622e-07
5.35301e-09
-1.57861e-07
4.8728e-09
-1.58975e-07
4.38555e-09
-1.59964e-07
3.8919e-09
-1.60826e-07
3.3925e-09
-1.6156e-07
2.88801e-09
-1.62163e-07
2.37908e-09
-1.62637e-07
1.86639e-09
-1.62978e-07
1.35059e-09
-1.63188e-07
8.32364e-10
-1.63266e-07
3.12396e-10
-1.63211e-07
-2.08631e-10
-1.63023e-07
-7.30024e-10
-1.62703e-07
-1.25109e-09
-1.6225e-07
-1.77112e-09
-1.61666e-07
-2.28941e-09
-1.6095e-07
-2.80524e-09
-1.60104e-07
-3.31791e-09
-1.59128e-07
-3.82669e-09
-1.58024e-07
-4.33084e-09
-1.56794e-07
-4.82966e-09
-1.55438e-07
-5.32239e-09
-1.53959e-07
-5.8083e-09
-1.52358e-07
-6.28666e-09
-1.50637e-07
-6.75672e-09
-1.488e-07
-7.21774e-09
-1.46847e-07
-7.66898e-09
-1.44783e-07
-8.10969e-09
-1.4261e-07
-8.53914e-09
-1.40331e-07
-8.95656e-09
-1.37949e-07
-9.36124e-09
-1.35467e-07
-9.75243e-09
-1.3289e-07
-1.01294e-08
-1.30221e-07
-1.04914e-08
-1.27465e-07
-1.08377e-08
-1.24624e-07
-1.11677e-08
-1.21704e-07
-1.14805e-08
-1.18709e-07
-1.17755e-08
-1.15643e-07
-1.20521e-08
-1.12513e-07
-1.23095e-08
-1.09322e-07
-1.2547e-08
-1.06076e-07
-1.27641e-08
-1.0278e-07
-1.29601e-08
-9.94391e-08
-1.31343e-08
-9.606e-08
-1.32862e-08
-9.26479e-08
-1.34152e-08
-8.92087e-08
-1.35207e-08
-8.57486e-08
-1.36022e-08
-8.22735e-08
-1.36592e-08
-7.87899e-08
-1.36913e-08
-7.5304e-08
-1.36979e-08
-7.18224e-08
-1.36787e-08
-6.83516e-08
-1.36332e-08
-6.48983e-08
-1.35612e-08
-6.14691e-08
-1.34623e-08
-5.80708e-08
-1.33363e-08
-5.47101e-08
-1.3183e-08
-5.1394e-08
-1.30022e-08
-4.81292e-08
-1.27937e-08
-4.49226e-08
-1.25576e-08
-4.17809e-08
-1.22939e-08
-3.8711e-08
-1.20027e-08
-3.57195e-08
-1.16841e-08
-3.2813e-08
-1.13384e-08
-2.9998e-08
-1.09659e-08
-2.72809e-08
-1.05672e-08
-2.46679e-08
-1.01428e-08
-2.21649e-08
-9.69337e-09
-1.97776e-08
-9.21987e-09
-1.75116e-08
-8.72332e-09
-1.53718e-08
-8.20497e-09
-1.33629e-08
-7.66633e-09
-1.14892e-08
-7.10914e-09
-9.75437e-09
-6.53548e-09
-8.16142e-09
-5.94779e-09
-6.71271e-09
-5.34895e-09
-5.40975e-09
-4.74232e-09
-4.25312e-09
-4.13191e-09
-3.24231e-09
-3.5224e-09
-2.37556e-09
-2.91933e-09
-1.64971e-09
-2.32924e-09
-1.06003e-09
-1.75987e-09
-5.99963e-10
-1.22034e-09
-2.6095e-10
-7.21407e-10
-3.21797e-11
-2.75746e-10
9.96824e-11
1.01804e-10
1.50807e-10
3.93915e-10
1.40613e-10
5.80472e-10
9.23425e-11
6.38372e-10
3.39701e-11
5.41206e-10
2.56686e-10
1.72328e-11
-2.6596e-10
3.05568e-11
-5.22744e-10
8.23136e-12
-5.5594e-10
-7.61322e-11
-4.05685e-10
-2.44644e-10
-1.04446e-10
-5.15762e-10
3.19704e-10
-9.04779e-10
8.42504e-10
-1.4242e-09
1.44313e-09
-2.08404e-09
2.10378e-09
-2.89208e-09
2.80923e-09
-3.85406e-09
3.54656e-09
-4.97395e-09
4.30477e-09
-6.25408e-09
5.07455e-09
-7.69537e-09
5.84801e-09
-9.29748e-09
6.61851e-09
-1.1059e-08
7.38042e-09
-1.29775e-08
8.12899e-09
-1.50497e-08
8.86024e-09
-1.72718e-08
9.57082e-09
-1.9639e-08
1.02579e-08
-2.21463e-08
1.09192e-08
-2.47882e-08
1.15527e-08
-2.75586e-08
1.21569e-08
-3.04513e-08
1.27304e-08
-3.34597e-08
1.32721e-08
-3.6577e-08
1.37813e-08
-3.97964e-08
1.42573e-08
-4.31106e-08
1.46997e-08
-4.65126e-08
1.5108e-08
-4.9995e-08
1.54822e-08
-5.35505e-08
1.5822e-08
-5.71717e-08
1.61275e-08
-6.08513e-08
1.63989e-08
-6.45819e-08
1.66362e-08
-6.83562e-08
1.68397e-08
-7.2167e-08
1.70097e-08
-7.60069e-08
1.71466e-08
-7.98688e-08
1.72507e-08
-8.37458e-08
1.73224e-08
-8.76307e-08
1.73623e-08
-9.15167e-08
1.73709e-08
-9.5397e-08
1.73487e-08
-9.9265e-08
1.72961e-08
-1.03114e-07
1.72139e-08
-1.06938e-07
1.71027e-08
-1.1073e-07
1.6963e-08
-1.14484e-07
1.67955e-08
-1.18195e-07
1.66008e-08
-1.21855e-07
1.63796e-08
-1.25461e-07
1.61326e-08
-1.29005e-07
1.58605e-08