/*--------------------------------*- C++ -*----------------------------------*\
  =========                 |
  \\      /  F ield         | OpenFOAM: The Open Source CFD Toolbox
   \\    /   O peration     | Website:  https://openfoam.org
    \\  /    A nd           | Version:  7
     \\/     M anipulation  |
\*---------------------------------------------------------------------------*/
FoamFile
{
    version     2.0;
    format      ascii;
    class       volVectorField;
    location    "0.4";
    object      U;
}
// * * * * * * * * * * * * * * * * * * * * * * * * * * * * * * * * * * * * * //

dimensions      [0 1 -1 0 0 0 0];

internalField   nonuniform List<vector> 
25600
(
(1.8126e-07 -2.02668e-07 0)
(2.84111e-06 -1.79271e-06 0)
(9.0781e-06 -2.83276e-06 0)
(1.69299e-05 -3.20723e-06 0)
(2.48877e-05 -3.12374e-06 0)
(3.20037e-05 -2.74559e-06 0)
(3.76265e-05 -2.18082e-06 0)
(4.13056e-05 -1.50075e-06 0)
(4.27399e-05 -7.51352e-07 0)
(4.17359e-05 3.74162e-08 0)
(3.81768e-05 8.45032e-07 0)
(3.20008e-05 1.65704e-06 0)
(2.31863e-05 2.46326e-06 0)
(1.17423e-05 3.25651e-06 0)
(-2.29861e-06 4.03157e-06 0)
(-1.88849e-05 4.78451e-06 0)
(-3.79512e-05 5.51231e-06 0)
(-5.94212e-05 6.21274e-06 0)
(-8.32103e-05 6.88414e-06 0)
(-0.000109227 7.5253e-06 0)
(-0.000137375 8.13541e-06 0)
(-0.000167554 8.71388e-06 0)
(-0.000199661 9.26031e-06 0)
(-0.00023359 9.77448e-06 0)
(-0.000269234 1.02563e-05 0)
(-0.000306487 1.07059e-05 0)
(-0.00034524 1.11233e-05 0)
(-0.000385384 1.15088e-05 0)
(-0.000426812 1.18626e-05 0)
(-0.000469416 1.21852e-05 0)
(-0.000513091 1.24768e-05 0)
(-0.00055773 1.27378e-05 0)
(-0.000603228 1.29688e-05 0)
(-0.000649484 1.31702e-05 0)
(-0.000696394 1.33425e-05 0)
(-0.000743859 1.34862e-05 0)
(-0.00079178 1.36018e-05 0)
(-0.000840059 1.36899e-05 0)
(-0.000888602 1.37511e-05 0)
(-0.000937315 1.37858e-05 0)
(-0.000986107 1.37948e-05 0)
(-0.00103489 1.37785e-05 0)
(-0.00108357 1.37375e-05 0)
(-0.00113206 1.36725e-05 0)
(-0.00118029 1.3584e-05 0)
(-0.00122816 1.34727e-05 0)
(-0.00127561 1.3339e-05 0)
(-0.00132254 1.31836e-05 0)
(-0.0013689 1.30072e-05 0)
(-0.00141459 1.28102e-05 0)
(-0.00145955 1.25934e-05 0)
(-0.00150371 1.23572e-05 0)
(-0.00154701 1.21023e-05 0)
(-0.00158937 1.18293e-05 0)
(-0.00163074 1.15388e-05 0)
(-0.00167105 1.12314e-05 0)
(-0.00171024 1.09076e-05 0)
(-0.00174826 1.05681e-05 0)
(-0.00178505 1.02135e-05 0)
(-0.00182056 9.84439e-06 0)
(-0.00185474 9.46132e-06 0)
(-0.00188753 9.06492e-06 0)
(-0.0019189 8.65579e-06 0)
(-0.0019488 8.23453e-06 0)
(-0.00197719 7.80176e-06 0)
(-0.00200402 7.35807e-06 0)
(-0.00202926 6.90408e-06 0)
(-0.00205288 6.4404e-06 0)
(-0.00207483 5.96766e-06 0)
(-0.0020951 5.48646e-06 0)
(-0.00211364 4.99744e-06 0)
(-0.00213044 4.50122e-06 0)
(-0.00214547 3.99843e-06 0)
(-0.00215871 3.48973e-06 0)
(-0.00217013 2.97576e-06 0)
(-0.00217972 2.45716e-06 0)
(-0.00218747 1.93459e-06 0)
(-0.00219336 1.40872e-06 0)
(-0.00219738 8.80212e-07 0)
(-0.00219952 3.49741e-07 0)
(-0.00219979 -1.82008e-07 0)
(-0.00219816 -7.14348e-07 0)
(-0.00219466 -1.24658e-06 0)
(-0.00218927 -1.77801e-06 0)
(-0.00218199 -2.30792e-06 0)
(-0.00217285 -2.83559e-06 0)
(-0.00216185 -3.3603e-06 0)
(-0.00214899 -3.88133e-06 0)
(-0.0021343 -4.39794e-06 0)
(-0.00211779 -4.90938e-06 0)
(-0.00209948 -5.41491e-06 0)
(-0.00207939 -5.91377e-06 0)
(-0.00205756 -6.40522e-06 0)
(-0.002034 -6.88848e-06 0)
(-0.00200875 -7.36279e-06 0)
(-0.00198184 -7.82738e-06 0)
(-0.00195331 -8.28147e-06 0)
(-0.00192319 -8.72429e-06 0)
(-0.00189153 -9.15506e-06 0)
(-0.00185838 -9.57301e-06 0)
(-0.00182377 -9.97735e-06 0)
(-0.00178776 -1.03673e-05 0)
(-0.00175041 -1.07421e-05 0)
(-0.00171176 -1.1101e-05 0)
(-0.00167188 -1.14431e-05 0)
(-0.00163082 -1.17678e-05 0)
(-0.00158865 -1.20743e-05 0)
(-0.00154544 -1.23618e-05 0)
(-0.00150125 -1.26295e-05 0)
(-0.00145615 -1.28768e-05 0)
(-0.00141022 -1.31029e-05 0)
(-0.00136353 -1.33071e-05 0)
(-0.00131617 -1.34887e-05 0)
(-0.00126821 -1.3647e-05 0)
(-0.00121974 -1.37813e-05 0)
(-0.00117084 -1.3891e-05 0)
(-0.0011216 -1.39754e-05 0)
(-0.00107211 -1.40339e-05 0)
(-0.00102246 -1.40659e-05 0)
(-0.000972752 -1.40709e-05 0)
(-0.000923071 -1.40482e-05 0)
(-0.000873519 -1.39974e-05 0)
(-0.000824196 -1.39179e-05 0)
(-0.000775201 -1.38093e-05 0)
(-0.000726637 -1.36711e-05 0)
(-0.000678608 -1.35029e-05 0)
(-0.000631219 -1.33044e-05 0)
(-0.000584575 -1.30752e-05 0)
(-0.000538782 -1.28149e-05 0)
(-0.000493949 -1.25234e-05 0)
(-0.000450182 -1.22004e-05 0)
(-0.000407591 -1.18459e-05 0)
(-0.000366283 -1.14595e-05 0)
(-0.000326366 -1.10414e-05 0)
(-0.000287948 -1.05916e-05 0)
(-0.000251136 -1.01102e-05 0)
(-0.000216035 -9.59736e-06 0)
(-0.000182748 -9.05345e-06 0)
(-0.000151379 -8.47886e-06 0)
(-0.000122026 -7.8742e-06 0)
(-9.4785e-05 -7.24025e-06 0)
(-6.97475e-05 -6.57804e-06 0)
(-4.70002e-05 -5.88885e-06 0)
(-2.66233e-05 -5.17425e-06 0)
(-8.68888e-06 -4.4363e-06 0)
(6.74075e-06 -3.67769e-06 0)
(1.96154e-05 -2.90181e-06 0)
(2.99002e-05 -2.113e-06 0)
(3.75798e-05 -1.31704e-06 0)
(4.26634e-05 -5.21726e-07 0)
(4.51926e-05 2.62419e-07 0)
(4.525e-05 1.02088e-06 0)
(4.29744e-05 1.73294e-06 0)
(3.85802e-05 2.36799e-06 0)
(3.23876e-05 2.87957e-06 0)
(2.4865e-05 3.19713e-06 0)
(1.66788e-05 3.21574e-06 0)
(8.78051e-06 2.77931e-06 0)
(2.64455e-06 1.69582e-06 0)
(1.22476e-07 1.21698e-07 0)
(1.77859e-06 -2.87237e-06 0)
(9.38381e-06 -9.40846e-06 0)
(2.31402e-05 -1.34161e-05 0)
(3.93821e-05 -1.47296e-05 0)
(5.52652e-05 -1.39666e-05 0)
(6.87958e-05 -1.16981e-05 0)
(7.84361e-05 -8.36696e-06 0)
(8.30301e-05 -4.3035e-06 0)
(8.17452e-05 2.52341e-07 0)
(7.40019e-05 5.12695e-06 0)
(5.94164e-05 1.01919e-05 0)
(3.77564e-05 1.53509e-05 0)
(8.90707e-06 2.05308e-05 0)
(-2.71556e-05 2.56764e-05 0)
(-7.0384e-05 3.07457e-05 0)
(-0.000120673 3.57055e-05 0)
(-0.000177873 4.05303e-05 0)
(-0.000241798 4.51997e-05 0)
(-0.000312234 4.96982e-05 0)
(-0.000388944 5.40134e-05 0)
(-0.000471672 5.8136e-05 0)
(-0.00056015 6.2059e-05 0)
(-0.000654099 6.57769e-05 0)
(-0.000753229 6.9286e-05 0)
(-0.000857247 7.25836e-05 0)
(-0.000965854 7.56683e-05 0)
(-0.00107875 7.85392e-05 0)
(-0.00119563 8.11964e-05 0)
(-0.00131619 8.36406e-05 0)
(-0.00144012 8.58729e-05 0)
(-0.00156713 8.78948e-05 0)
(-0.00169692 8.97085e-05 0)
(-0.00182918 9.1316e-05 0)
(-0.00196363 9.27201e-05 0)
(-0.00209996 9.39234e-05 0)
(-0.0022379 9.49291e-05 0)
(-0.00237716 9.57403e-05 0)
(-0.00251745 9.63603e-05 0)
(-0.00265851 9.67926e-05 0)
(-0.00280007 9.70407e-05 0)
(-0.00294186 9.71084e-05 0)
(-0.00308362 9.69993e-05 0)
(-0.00322509 9.67174e-05 0)
(-0.00336603 9.62664e-05 0)
(-0.00350619 9.56504e-05 0)
(-0.00364534 9.48733e-05 0)
(-0.00378325 9.3939e-05 0)
(-0.00391968 9.28518e-05 0)
(-0.00405441 9.16155e-05 0)
(-0.00418724 9.02344e-05 0)
(-0.00431795 8.87125e-05 0)
(-0.00444634 8.7054e-05 0)
(-0.00457221 8.52631e-05 0)
(-0.00469537 8.33438e-05 0)
(-0.00481564 8.13003e-05 0)
(-0.00493284 7.91369e-05 0)
(-0.0050468 7.68577e-05 0)
(-0.00515734 7.4467e-05 0)
(-0.00526431 7.1969e-05 0)
(-0.00536756 6.93678e-05 0)
(-0.00546694 6.66678e-05 0)
(-0.00556229 6.38732e-05 0)
(-0.0056535 6.09883e-05 0)
(-0.00574043 5.80173e-05 0)
(-0.00582296 5.49647e-05 0)
(-0.00590097 5.18347e-05 0)
(-0.00597435 4.86318e-05 0)
(-0.00604299 4.53602e-05 0)
(-0.00610681 4.20244e-05 0)
(-0.0061657 3.86288e-05 0)
(-0.00621959 3.5178e-05 0)
(-0.0062684 3.16763e-05 0)
(-0.00631205 2.81285e-05 0)
(-0.00635049 2.45389e-05 0)
(-0.00638365 2.09123e-05 0)
(-0.00641149 1.72533e-05 0)
(-0.00643396 1.35666e-05 0)
(-0.00645102 9.85687e-06 0)
(-0.00646264 6.12896e-06 0)
(-0.00646881 2.38766e-06 0)
(-0.0064695 -1.36215e-06 0)
(-0.00646471 -5.11558e-06 0)
(-0.00645444 -8.86766e-06 0)
(-0.00643869 -1.26134e-05 0)
(-0.00641747 -1.63478e-05 0)
(-0.00639081 -2.00657e-05 0)
(-0.00635873 -2.3762e-05 0)
(-0.00632128 -2.74315e-05 0)
(-0.00627848 -3.1069e-05 0)
(-0.00623041 -3.46693e-05 0)
(-0.0061771 -3.82272e-05 0)
(-0.00611864 -4.17372e-05 0)
(-0.00605509 -4.5194e-05 0)
(-0.00598654 -4.85923e-05 0)
(-0.00591308 -5.19267e-05 0)
(-0.0058348 -5.51917e-05 0)
(-0.00575181 -5.8382e-05 0)
(-0.00566423 -6.14921e-05 0)
(-0.00557217 -6.45165e-05 0)
(-0.00547577 -6.74498e-05 0)
(-0.00537516 -7.02866e-05 0)
(-0.00527049 -7.30214e-05 0)
(-0.00516191 -7.56489e-05 0)
(-0.00504958 -7.81637e-05 0)
(-0.00493368 -8.05603e-05 0)
(-0.00481437 -8.28336e-05 0)
(-0.00469185 -8.49783e-05 0)
(-0.0045663 -8.69892e-05 0)
(-0.00443792 -8.8861e-05 0)
(-0.00430692 -9.05889e-05 0)
(-0.00417352 -9.21677e-05 0)
(-0.00403793 -9.35926e-05 0)
(-0.00390038 -9.48589e-05 0)
(-0.00376111 -9.59618e-05 0)
(-0.00362036 -9.68967e-05 0)
(-0.00347837 -9.76593e-05 0)
(-0.00333541 -9.82453e-05 0)
(-0.00319172 -9.86504e-05 0)
(-0.00304758 -9.88709e-05 0)
(-0.00290325 -9.89028e-05 0)
(-0.00275901 -9.87425e-05 0)
(-0.00261515 -9.83867e-05 0)
(-0.00247195 -9.78322e-05 0)
(-0.00232969 -9.7076e-05 0)
(-0.00218868 -9.61154e-05 0)
(-0.0020492 -9.4948e-05 0)
(-0.00191157 -9.35717e-05 0)
(-0.00177607 -9.19847e-05 0)
(-0.00164302 -9.01854e-05 0)
(-0.00151272 -8.81728e-05 0)
(-0.00138549 -8.59461e-05 0)
(-0.00126161 -8.35051e-05 0)
(-0.00114141 -8.08501e-05 0)
(-0.00102518 -7.79817e-05 0)
(-0.000913236 -7.49014e-05 0)
(-0.000805866 -7.16114e-05 0)
(-0.000703366 -6.81145e-05 0)
(-0.000606026 -6.44148e-05 0)
(-0.000514125 -6.05171e-05 0)
(-0.000427935 -5.64277e-05 0)
(-0.000347715 -5.21543e-05 0)
(-0.00027371 -4.77068e-05 0)
(-0.000206146 -4.30971e-05 0)
(-0.000145231 -3.83399e-05 0)
(-9.11425e-05 -3.34533e-05 0)
(-4.40302e-05 -2.846e-05 0)
(-4.00248e-06 -2.33883e-05 0)
(2.88797e-05 -1.82734e-05 0)
(5.46147e-05 -1.31599e-05 0)
(7.32756e-05 -8.10507e-06 0)
(8.50292e-05 -3.1833e-06 0)
(9.01602e-05 1.50841e-06 0)
(8.91036e-05 5.84138e-06 0)
(8.24873e-05 9.6421e-06 0)
(7.11882e-05 1.26739e-05 0)
(5.63995e-05 1.46157e-05 0)
(3.96808e-05 1.50431e-05 0)
(2.30167e-05 1.34176e-05 0)
(9.18423e-06 9.18345e-06 0)
(1.69562e-06 2.64025e-06 0)
(2.82625e-06 -9.09053e-06 0)
(1.34097e-05 -2.31609e-05 0)
(3.10731e-05 -3.10681e-05 0)
(5.08464e-05 -3.31359e-05 0)
(6.91284e-05 -3.04608e-05 0)
(8.33561e-05 -2.41346e-05 0)
(9.14467e-05 -1.50844e-05 0)
(9.17602e-05 -4.05713e-06 0)
(8.3065e-05 8.36591e-06 0)
(6.44655e-05 2.17373e-05 0)
(3.53388e-05 3.57134e-05 0)
(-4.71689e-06 5.00277e-05 0)
(-5.59247e-05 6.44727e-05 0)
(-0.000118365 7.88858e-05 0)
(-0.000192003 9.31392e-05 0)
(-0.000276712 0.000107132 0)
(-0.000372288 0.000120785 0)
(-0.000478469 0.000134033 0)
(-0.000594941 0.000146827 0)
(-0.000721351 0.000159127 0)
(-0.000857316 0.0001709 0)
(-0.00100242 0.000182123 0)
(-0.00115625 0.000192775 0)
(-0.00131834 0.000202844 0)
(-0.00148823 0.000212319 0)
(-0.00166547 0.000221193 0)
(-0.00184957 0.000229461 0)
(-0.00204006 0.000237122 0)
(-0.00223646 0.000244176 0)
(-0.00243828 0.000250624 0)
(-0.00264504 0.000256469 0)
(-0.00285627 0.000261716 0)
(-0.00307148 0.000266371 0)
(-0.00329021 0.00027044 0)
(-0.00351199 0.000273929 0)
(-0.00373635 0.000276848 0)
(-0.00396284 0.000279204 0)
(-0.00419101 0.000281006 0)
(-0.00442041 0.000282264 0)
(-0.00465061 0.000282987 0)
(-0.00488118 0.000283187 0)
(-0.00511169 0.000282873 0)
(-0.00534175 0.000282056 0)
(-0.00557094 0.000280747 0)
(-0.00579887 0.000278957 0)
(-0.00602515 0.000276698 0)
(-0.00624941 0.00027398 0)
(-0.00647127 0.000270816 0)
(-0.00669038 0.000267218 0)
(-0.0069064 0.000263196 0)
(-0.00711897 0.000258763 0)
(-0.00732777 0.000253931 0)
(-0.00753248 0.000248712 0)
(-0.00773279 0.000243118 0)
(-0.00792839 0.00023716 0)
(-0.008119 0.000230852 0)
(-0.00830434 0.000224205 0)
(-0.00848412 0.000217232 0)
(-0.0086581 0.000209945 0)
(-0.00882602 0.000202357 0)
(-0.00898764 0.000194479 0)
(-0.00914273 0.000186324 0)
(-0.00929106 0.000177905 0)
(-0.00943243 0.000169235 0)
(-0.00956664 0.000160325 0)
(-0.00969349 0.000151189 0)
(-0.00981281 0.00014184 0)
(-0.00992442 0.000132291 0)
(-0.0100282 0.000122553 0)
(-0.0101239 0.000112641 0)
(-0.0102115 0.000102568 0)
(-0.0102909 9.23463e-05 0)
(-0.0103618 8.19898e-05 0)
(-0.0104243 7.15118e-05 0)
(-0.0104781 6.09259e-05 0)
(-0.0105233 5.02458e-05 0)
(-0.0105598 3.94852e-05 0)
(-0.0105875 2.86579e-05 0)
(-0.0106063 1.77781e-05 0)
(-0.0106162 6.85987e-06 0)
(-0.0106173 -4.08257e-06 0)
(-0.0106094 -1.50348e-05 0)
(-0.0105926 -2.59823e-05 0)
(-0.0105669 -3.69104e-05 0)
(-0.0105323 -4.78044e-05 0)
(-0.0104888 -5.86494e-05 0)
(-0.0104366 -6.94304e-05 0)
(-0.0103756 -8.01322e-05 0)
(-0.0103059 -9.07396e-05 0)
(-0.0102276 -0.000101237 0)
(-0.0101408 -0.00011161 0)
(-0.0100457 -0.000121842 0)
(-0.00994227 -0.000131918 0)
(-0.00983073 -0.000141822 0)
(-0.0097112 -0.000151538 0)
(-0.00958385 -0.000161051 0)
(-0.00944884 -0.000170345 0)
(-0.00930638 -0.000179404 0)
(-0.00915665 -0.000188212 0)
(-0.00899987 -0.000196753 0)
(-0.00883625 -0.000205012 0)
(-0.00866605 -0.000212973 0)
(-0.0084895 -0.00022062 0)
(-0.00830687 -0.000227938 0)
(-0.00811844 -0.000234911 0)
(-0.00792448 -0.000241524 0)
(-0.00772531 -0.000247761 0)
(-0.00752123 -0.000253608 0)
(-0.00731256 -0.00025905 0)
(-0.00709965 -0.000264072 0)
(-0.00688284 -0.00026866 0)
(-0.00666248 -0.0002728 0)
(-0.00643895 -0.000276478 0)
(-0.00621263 -0.00027968 0)
(-0.0059839 -0.000282395 0)
(-0.00575317 -0.000284608 0)
(-0.00552086 -0.000286309 0)
(-0.00528737 -0.000287484 0)
(-0.00505314 -0.000288124 0)
(-0.00481861 -0.000288216 0)
(-0.00458422 -0.000287752 0)
(-0.00435043 -0.000286722 0)
(-0.0041177 -0.000285117 0)
(-0.00388649 -0.000282929 0)
(-0.00365727 -0.00028015 0)
(-0.00343053 -0.000276775 0)
(-0.00320675 -0.000272798 0)
(-0.00298641 -0.000268214 0)
(-0.00276999 -0.000263019 0)
(-0.002558 -0.000257212 0)
(-0.00235091 -0.000250792 0)
(-0.00214922 -0.000243758 0)
(-0.00195341 -0.000236114 0)
(-0.00176397 -0.000227862 0)
(-0.00158137 -0.000219008 0)
(-0.00140609 -0.000209561 0)
(-0.00123859 -0.000199531 0)
(-0.00107932 -0.00018893 0)
(-0.000928716 -0.000177778 0)
(-0.000787198 -0.000166093 0)
(-0.000655165 -0.000153903 0)
(-0.000532987 -0.000141238 0)
(-0.000421008 -0.000128137 0)
(-0.000319531 -0.000114647 0)
(-0.000228817 -0.000100826 0)
(-0.00014907 -8.67426e-05 0)
(-8.04303e-05 -7.24844e-05 0)
(-2.29591e-05 -5.8158e-05 0)
(2.33795e-05 -4.38959e-05 0)
(5.87394e-05 -2.98647e-05 0)
(8.34197e-05 -1.62749e-05 0)
(9.78978e-05 -3.39436e-06 0)
(0.00010287 8.43384e-06 0)
(9.93005e-05 1.87687e-05 0)
(8.8483e-05 2.70434e-05 0)
(7.21044e-05 3.25384e-05 0)
(5.22703e-05 3.43705e-05 0)
(3.15292e-05 3.15212e-05 0)
(1.34174e-05 2.30192e-05 0)
(2.77715e-06 8.77233e-06 0)
(3.20792e-06 -1.69386e-05 0)
(1.47566e-05 -3.94195e-05 0)
(3.32181e-05 -5.08544e-05 0)
(5.27324e-05 -5.26136e-05 0)
(6.91943e-05 -4.64345e-05 0)
(7.96911e-05 -3.39885e-05 0)
(8.18084e-05 -1.67331e-05 0)
(7.35962e-05 4.11944e-06 0)
(5.35484e-05 2.75875e-05 0)
(2.05373e-05 5.28876e-05 0)
(-2.62473e-05 7.93984e-05 0)
(-8.73505e-05 0.000106627 0)
(-0.000163096 0.000134181 0)
(-0.000253624 0.000161747 0)
(-0.000358926 0.000189074 0)
(-0.000478868 0.000215961 0)
(-0.000613216 0.000242247 0)
(-0.000761649 0.000267802 0)
(-0.00092378 0.000292521 0)
(-0.00109916 0.00031632 0)
(-0.00128731 0.000339132 0)
(-0.00148769 0.000360905 0)
(-0.00169974 0.000381595 0)
(-0.00192288 0.000401173 0)
(-0.00215651 0.000419612 0)
(-0.00240001 0.000436897 0)
(-0.00265274 0.000453016 0)
(-0.00291409 0.000467961 0)
(-0.00318339 0.000481731 0)
(-0.00346002 0.000494327 0)
(-0.00374332 0.000505752 0)
(-0.00403265 0.000516013 0)
(-0.00432737 0.00052512 0)
(-0.00462684 0.000533084 0)
(-0.00493043 0.000539917 0)
(-0.00523752 0.000545633 0)
(-0.00554749 0.000550248 0)
(-0.00585973 0.000553779 0)
(-0.00617363 0.000556243 0)
(-0.0064886 0.000557659 0)
(-0.00680407 0.000558046 0)
(-0.00711946 0.000557424 0)
(-0.00743421 0.000555813 0)
(-0.00774776 0.000553235 0)
(-0.00805959 0.000549712 0)
(-0.00836915 0.000545264 0)
(-0.00867595 0.000539914 0)
(-0.00897948 0.000533684 0)
(-0.00927923 0.000526598 0)
(-0.00957475 0.000518678 0)
(-0.00986556 0.000509948 0)
(-0.0101512 0.00050043 0)
(-0.0104313 0.000490149 0)
(-0.0107053 0.000479127 0)
(-0.0109729 0.000467389 0)
(-0.0112337 0.000454959 0)
(-0.0114872 0.000441861 0)
(-0.0117332 0.000428118 0)
(-0.0119712 0.000413755 0)
(-0.0122009 0.000398797 0)
(-0.012422 0.000383268 0)
(-0.0126342 0.000367193 0)
(-0.0128371 0.000350596 0)
(-0.0130305 0.000333502 0)
(-0.013214 0.000315936 0)
(-0.0133875 0.000297924 0)
(-0.0135507 0.000279491 0)
(-0.0137034 0.000260662 0)
(-0.0138453 0.000241463 0)
(-0.0139762 0.00022192 0)
(-0.014096 0.000202058 0)
(-0.0142045 0.000181904 0)
(-0.0143015 0.000161484 0)
(-0.0143868 0.000140825 0)
(-0.0144604 0.000119954 0)
(-0.0145222 9.88975e-05 0)
(-0.014572 7.76829e-05 0)
(-0.0146097 5.63378e-05 0)
(-0.0146354 3.48898e-05 0)
(-0.0146489 1.33669e-05 0)
(-0.0146502 -8.20259e-06 0)
(-0.0146393 -2.97903e-05 0)
(-0.0146162 -5.13676e-05 0)
(-0.0145809 -7.29055e-05 0)
(-0.0145335 -9.43748e-05 0)
(-0.0144739 -0.000115746 0)
(-0.0144023 -0.00013699 0)
(-0.0143188 -0.000158076 0)
(-0.0142233 -0.000178975 0)
(-0.0141162 -0.000199656 0)
(-0.0139974 -0.000220089 0)
(-0.0138671 -0.000240244 0)
(-0.0137256 -0.000260088 0)
(-0.0135729 -0.000279593 0)
(-0.0134093 -0.000298727 0)
(-0.0132351 -0.000317458 0)
(-0.0130503 -0.000335756 0)
(-0.0128554 -0.00035359 0)
(-0.0126506 -0.000370928 0)
(-0.0124361 -0.00038774 0)
(-0.0122123 -0.000403995 0)
(-0.0119795 -0.000419661 0)
(-0.011738 -0.000434708 0)
(-0.0114882 -0.000449105 0)
(-0.0112305 -0.000462823 0)
(-0.0109653 -0.00047583 0)
(-0.0106929 -0.000488098 0)
(-0.0104139 -0.000499598 0)
(-0.0101286 -0.000510299 0)
(-0.00983744 -0.000520174 0)
(-0.00954099 -0.000529194 0)
(-0.00923971 -0.000537333 0)
(-0.0089341 -0.000544564 0)
(-0.00862467 -0.000550861 0)
(-0.00831196 -0.000556198 0)
(-0.00799652 -0.00056055 0)
(-0.00767889 -0.000563896 0)
(-0.00735967 -0.000566211 0)
(-0.00703942 -0.000567475 0)
(-0.00671875 -0.000567666 0)
(-0.00639826 -0.000566766 0)
(-0.00607856 -0.000564758 0)
(-0.00576028 -0.000561623 0)
(-0.00544405 -0.000557348 0)
(-0.00513052 -0.000551919 0)
(-0.00482032 -0.000545324 0)
(-0.00451411 -0.000537554 0)
(-0.00421254 -0.0005286 0)
(-0.00391627 -0.000518457 0)
(-0.00362596 -0.000507123 0)
(-0.00334227 -0.000494596 0)
(-0.00306584 -0.00048088 0)
(-0.00279735 -0.000465979 0)
(-0.00253742 -0.000449903 0)
(-0.0022867 -0.000432667 0)
(-0.00204582 -0.000414287 0)
(-0.00181538 -0.000394788 0)
(-0.00159598 -0.000374199 0)
(-0.0013882 -0.000352556 0)
(-0.00119258 -0.000329905 0)
(-0.00100963 -0.0003063 0)
(-0.000839848 -0.000281807 0)
(-0.000683655 -0.000256506 0)
(-0.000541437 -0.000230494 0)
(-0.000413512 -0.000203889 0)
(-0.000300125 -0.000176831 0)
(-0.000201431 -0.000149493 0)
(-0.000117476 -0.000122088 0)
(-4.818e-05 -9.48744e-05 0)
(6.69052e-06 -6.81715e-05 0)
(4.75535e-05 -4.23759e-05 0)
(7.50474e-05 -1.7981e-05 0)
(9.00733e-05 4.39688e-06 0)
(9.3844e-05 2.39892e-05 0)
(8.794e-05 3.98423e-05 0)
(7.43668e-05 5.07908e-05 0)
(5.55665e-05 5.54521e-05 0)
(3.44437e-05 5.22728e-05 0)
(1.50629e-05 3.97002e-05 0)
(3.21481e-06 1.66716e-05 0)
(3.13529e-06 -2.49185e-05 0)
(1.40499e-05 -5.53722e-05 0)
(3.06821e-05 -6.9217e-05 0)
(4.67908e-05 -6.91126e-05 0)
(5.79935e-05 -5.75726e-05 0)
(6.1158e-05 -3.68985e-05 0)
(5.36744e-05 -9.09604e-06 0)
(3.34055e-05 2.41426e-05 0)
(-1.32969e-06 6.14172e-05 0)
(-5.18159e-05 0.000101582 0)
(-0.000118997 0.000143707 0)
(-0.000203527 0.000187037 0)
(-0.00030581 0.000230962 0)
(-0.000426039 0.000274987 0)
(-0.000564232 0.000318708 0)
(-0.000720256 0.000361799 0)
(-0.000893854 0.000403994 0)
(-0.00108467 0.000445075 0)
(-0.00129225 0.000484866 0)
(-0.00151607 0.000523225 0)
(-0.00175557 0.000560036 0)
(-0.0020101 0.000595205 0)
(-0.002279 0.00062866 0)
(-0.00256156 0.000660343 0)
(-0.00285707 0.000690208 0)
(-0.00316475 0.000718225 0)
(-0.00348386 0.000744369 0)
(-0.00381361 0.000768625 0)
(-0.00415322 0.000790986 0)
(-0.00450189 0.00081145 0)
(-0.00485883 0.000830022 0)
(-0.00522325 0.000846708 0)
(-0.00559435 0.000861522 0)
(-0.00597135 0.00087448 0)
(-0.00635345 0.000885599 0)
(-0.0067399 0.000894902 0)
(-0.0071299 0.000902411 0)
(-0.00752272 0.000908154 0)
(-0.00791759 0.000912157 0)
(-0.00831378 0.000914449 0)
(-0.00871056 0.000915061 0)
(-0.00910722 0.000914024 0)
(-0.00950305 0.000911372 0)
(-0.00989737 0.000907137 0)
(-0.0102895 0.000901354 0)
(-0.0106788 0.000894059 0)
(-0.0110646 0.000885286 0)
(-0.0114462 0.000875073 0)
(-0.0118232 0.000863455 0)
(-0.0121948 0.000850472 0)
(-0.0125604 0.000836159 0)
(-0.0129196 0.000820555 0)
(-0.0132718 0.000803698 0)
(-0.0136163 0.000785627 0)
(-0.0139528 0.00076638 0)
(-0.0142807 0.000745998 0)
(-0.0145995 0.000724518 0)
(-0.0149087 0.000701981 0)
(-0.015208 0.000678427 0)
(-0.0154968 0.000653895 0)
(-0.0157748 0.000628425 0)
(-0.0160415 0.000602059 0)
(-0.0162966 0.000574836 0)
(-0.0165397 0.000546798 0)
(-0.0167705 0.000517986 0)
(-0.0169886 0.00048844 0)
(-0.0171937 0.000458203 0)
(-0.0173856 0.000427317 0)
(-0.0175639 0.000395824 0)
(-0.0177285 0.000363766 0)
(-0.017879 0.000331185 0)
(-0.0180153 0.000298126 0)
(-0.0181372 0.000264632 0)
(-0.0182444 0.000230745 0)
(-0.0183369 0.000196511 0)
(-0.0184144 0.000161974 0)
(-0.0184769 0.000127179 0)
(-0.0185242 9.21706e-05 0)
(-0.0185564 5.69947e-05 0)
(-0.0185732 2.16974e-05 0)
(-0.0185747 -1.36751e-05 0)
(-0.0185609 -4.90758e-05 0)
(-0.0185318 -8.44577e-05 0)
(-0.0184873 -0.000119773 0)
(-0.0184275 -0.000154975 0)
(-0.0183525 -0.000190013 0)
(-0.0182624 -0.000224841 0)
(-0.0181572 -0.000259408 0)
(-0.0180371 -0.000293666 0)
(-0.0179022 -0.000327565 0)
(-0.0177528 -0.000361055 0)
(-0.0175889 -0.000394086 0)
(-0.0174109 -0.000426608 0)
(-0.0172189 -0.000458569 0)
(-0.0170132 -0.000489921 0)
(-0.016794 -0.000520611 0)
(-0.0165617 -0.000550589 0)
(-0.0163167 -0.000579804 0)
(-0.0160591 -0.000608205 0)
(-0.0157895 -0.000635742 0)
(-0.0155081 -0.000662364 0)
(-0.0152154 -0.00068802 0)
(-0.0149119 -0.00071266 0)
(-0.0145979 -0.000736236 0)
(-0.014274 -0.000758696 0)
(-0.0139406 -0.000779993 0)
(-0.0135983 -0.000800077 0)
(-0.0132476 -0.000818902 0)
(-0.012889 -0.00083642 0)
(-0.0125231 -0.000852585 0)
(-0.0121506 -0.000867352 0)
(-0.0117719 -0.000880676 0)
(-0.0113879 -0.000892514 0)
(-0.010999 -0.000902824 0)
(-0.010606 -0.000911566 0)
(-0.0102096 -0.000918699 0)
(-0.0098104 -0.000924186 0)
(-0.00940919 -0.000927992 0)
(-0.00900668 -0.00093008 0)
(-0.00860361 -0.00093042 0)
(-0.00820074 -0.00092898 0)
(-0.00779883 -0.000925732 0)
(-0.00739866 -0.00092065 0)
(-0.00700102 -0.000913711 0)
(-0.0066067 -0.000904894 0)
(-0.00621651 -0.000894181 0)
(-0.00583126 -0.000881559 0)
(-0.00545175 -0.000867015 0)
(-0.00507881 -0.000850544 0)
(-0.00471324 -0.000832141 0)
(-0.00435585 -0.000811808 0)
(-0.00400747 -0.000789553 0)
(-0.00366888 -0.000765386 0)
(-0.00334089 -0.000739326 0)
(-0.00302427 -0.000711399 0)
(-0.00271979 -0.000681637 0)
(-0.00242819 -0.000650083 0)
(-0.00215021 -0.000616789 0)
(-0.00188652 -0.000581819 0)
(-0.00163779 -0.000545251 0)
(-0.00140464 -0.00050718 0)
(-0.00118764 -0.000467719 0)
(-0.000987297 -0.000427002 0)
(-0.000804058 -0.000385194 0)
(-0.000638287 -0.000342489 0)
(-0.000490256 -0.000299124 0)
(-0.000360126 -0.000255379 0)
(-0.000247926 -0.000211599 0)
(-0.000153535 -0.000168197 0)
(-7.66508e-05 -0.000125679 0)
(-1.67588e-05 -8.46583e-05 0)
(2.69016e-05 -4.58878e-05 0)
(5.53799e-05 -1.02862e-05 0)
(7.00585e-05 2.10252e-05 0)
(7.27041e-05 4.66879e-05 0)
(6.552e-05 6.5077e-05 0)
(5.11561e-05 7.42914e-05 0)
(3.27518e-05 7.21879e-05 0)
(1.46863e-05 5.64835e-05 0)
(3.20338e-06 2.48749e-05 0)
(2.7729e-06 -3.20937e-05 0)
(1.18633e-05 -6.90565e-05 0)
(2.45562e-05 -8.36374e-05 0)
(3.46892e-05 -7.97719e-05 0)
(3.78157e-05 -6.08022e-05 0)
(3.06912e-05 -2.96859e-05 0)
(1.06084e-05 1.10126e-05 0)
(-2.4664e-05 5.91175e-05 0)
(-7.69046e-05 0.000112804 0)
(-0.000147492 0.000170554 0)
(-0.000237455 0.000231113 0)
(-0.000347519 0.000293445 0)
(-0.000478144 0.000356699 0)
(-0.000629563 0.000420176 0)
(-0.000801812 0.000483298 0)
(-0.00099476 0.000545593 0)
(-0.00120813 0.000606669 0)
(-0.00144154 0.000666205 0)
(-0.00169448 0.000723938 0)
(-0.00196637 0.000779652 0)
(-0.00225656 0.00083317 0)
(-0.00256434 0.000884349 0)
(-0.00288893 0.000933074 0)
(-0.00322953 0.000979253 0)
(-0.0035853 0.00102282 0)
(-0.00395538 0.00106371 0)
(-0.00433887 0.00110189 0)
(-0.00473486 0.00113733 0)
(-0.00514245 0.00117002 0)
(-0.0055607 0.00119995 0)
(-0.00598868 0.00122712 0)
(-0.00642547 0.00125155 0)
(-0.00687012 0.00127323 0)
(-0.00732172 0.0012922 0)
(-0.00777933 0.00130848 0)
(-0.00824205 0.0013221 0)
(-0.00870895 0.00133308 0)
(-0.00917915 0.00134148 0)
(-0.00965174 0.00134732 0)
(-0.0101259 0.00135064 0)
(-0.0106007 0.0013515 0)
(-0.0110753 0.00134993 0)
(-0.0115489 0.00134598 0)
(-0.0120206 0.0013397 0)
(-0.0124897 0.00133114 0)
(-0.0129554 0.00132035 0)
(-0.0134169 0.00130738 0)
(-0.0138734 0.00129229 0)
(-0.0143243 0.00127513 0)
(-0.0147688 0.00125595 0)
(-0.0152061 0.00123481 0)
(-0.0156357 0.00121176 0)
(-0.0160569 0.00118686 0)
(-0.016469 0.00116017 0)
(-0.0168715 0.00113175 0)
(-0.0172636 0.00110164 0)
(-0.0176449 0.00106992 0)
(-0.0180147 0.00103663 0)
(-0.0183726 0.00100184 0)
(-0.018718 0.000965598 0)
(-0.0190504 0.000927976 0)
(-0.0193694 0.000889028 0)
(-0.0196744 0.000848814 0)
(-0.0199651 0.000807396 0)
(-0.0202411 0.000764833 0)
(-0.0205018 0.000721187 0)
(-0.0207471 0.000676519 0)
(-0.0209765 0.000630893 0)
(-0.0211897 0.000584369 0)
(-0.0213864 0.000537011 0)
(-0.0215664 0.000488883 0)
(-0.0217293 0.000440047 0)
(-0.0218749 0.000390569 0)
(-0.022003 0.000340514 0)
(-0.0221135 0.000289946 0)
(-0.0222061 0.000238931 0)
(-0.0222807 0.000187536 0)
(-0.0223372 0.000135828 0)
(-0.0223755 8.38747e-05 0)
(-0.0223955 3.17435e-05 0)
(-0.0223972 -2.04965e-05 0)
(-0.0223805 -7.27763e-05 0)
(-0.0223455 -0.000125026 0)
(-0.0222921 -0.000177175 0)
(-0.0222205 -0.000229154 0)
(-0.0221307 -0.000280889 0)
(-0.0220228 -0.00033231 0)
(-0.0218969 -0.000383345 0)
(-0.0217532 -0.00043392 0)
(-0.0215918 -0.000483962 0)
(-0.021413 -0.000533397 0)
(-0.0212169 -0.000582153 0)
(-0.0210039 -0.000630153 0)
(-0.0207742 -0.000677325 0)
(-0.0205282 -0.000723593 0)
(-0.0202661 -0.000768882 0)
(-0.0199883 -0.000813118 0)
(-0.0196952 -0.000856225 0)
(-0.0193872 -0.000898129 0)
(-0.0190647 -0.000938755 0)
(-0.0187283 -0.000978029 0)
(-0.0183783 -0.00101588 0)
(-0.0180154 -0.00105222 0)
(-0.01764 -0.001087 0)
(-0.0172527 -0.00112013 0)
(-0.0168541 -0.00115154 0)
(-0.0164449 -0.00118116 0)
(-0.0160256 -0.00120893 0)
(-0.0155969 -0.00123476 0)
(-0.0151595 -0.00125861 0)
(-0.0147141 -0.00128039 0)
(-0.0142614 -0.00130005 0)
(-0.0138023 -0.00131751 0)
(-0.0133374 -0.00133273 0)
(-0.0128675 -0.00134564 0)
(-0.0123935 -0.00135618 0)
(-0.0119163 -0.0013643 0)
(-0.0114365 -0.00136995 0)
(-0.0109552 -0.00137307 0)
(-0.0104732 -0.00137363 0)
(-0.00999134 -0.00137157 0)
(-0.00951061 -0.00136685 0)
(-0.0090319 -0.00135945 0)
(-0.00855614 -0.00134932 0)
(-0.00808427 -0.00133644 0)
(-0.00761725 -0.00132078 0)
(-0.00715603 -0.00130233 0)
(-0.00670156 -0.00128107 0)
(-0.0062548 -0.00125699 0)
(-0.00581672 -0.00123009 0)
(-0.00538826 -0.00120038 0)
(-0.00497038 -0.00116786 0)
(-0.00456401 -0.00113257 0)
(-0.00417009 -0.00109453 0)
(-0.00378952 -0.00105378 0)
(-0.00342319 -0.00101038 0)
(-0.00307197 -0.000964384 0)
(-0.0027367 -0.000915886 0)
(-0.00241818 -0.000864982 0)
(-0.00211715 -0.000811793 0)
(-0.00183434 -0.000756462 0)
(-0.00157038 -0.000699162 0)
(-0.00132585 -0.000640098 0)
(-0.00110125 -0.000579513 0)
(-0.000896979 -0.000517698 0)
(-0.000713333 -0.000454999 0)
(-0.000550475 -0.000391829 0)
(-0.000408424 -0.000328683 0)
(-0.000287022 -0.000266152 0)
(-0.000185918 -0.000204947 0)
(-0.000104527 -0.000145926 0)
(-4.20048e-05 -9.01152e-05 0)
(2.79585e-06 -3.87534e-05 0)
(3.13622e-05 6.67593e-06 0)
(4.55696e-05 4.44041e-05 0)
(4.77304e-05 7.23417e-05 0)
(4.06098e-05 8.8056e-05 0)
(2.74816e-05 8.87776e-05 0)
(1.28305e-05 7.14259e-05 0)
(2.90019e-06 3.24478e-05 0)
(2.22874e-06 -3.78252e-05 0)
(8.6368e-06 -7.8964e-05 0)
(1.57595e-05 -9.20709e-05 0)
(1.78656e-05 -8.22203e-05 0)
(1.06331e-05 -5.35583e-05 0)
(-9.19973e-06 -9.69132e-06 0)
(-4.43559e-05 4.62664e-05 0)
(-9.7088e-05 0.000111661 0)
(-0.000169208 0.000184245 0)
(-0.000262135 0.00026213 0)
(-0.000376939 0.000343729 0)
(-0.000514384 0.00042772 0)
(-0.000674959 0.000512997 0)
(-0.000858917 0.000598641 0)
(-0.0010663 0.000683887 0)
(-0.00129698 0.000768099 0)
(-0.00155067 0.000850747 0)
(-0.00182693 0.000931392 0)
(-0.00212522 0.00100967 0)
(-0.00244493 0.00108527 0)
(-0.00278531 0.00115796 0)
(-0.00314558 0.00122753 0)
(-0.00352489 0.00129381 0)
(-0.00392235 0.00135667 0)
(-0.00433701 0.00141601 0)
(-0.0047679 0.00147174 0)
(-0.00521402 0.0015238 0)
(-0.00567435 0.00157215 0)
(-0.00614785 0.00161676 0)
(-0.00663348 0.00165763 0)
(-0.00713018 0.00169473 0)
(-0.00763689 0.00172809 0)
(-0.00815254 0.00175771 0)
(-0.0086761 0.00178362 0)
(-0.00920648 0.00180586 0)
(-0.00974266 0.00182445 0)
(-0.0102836 0.00183944 0)
(-0.0108282 0.00185088 0)
(-0.0113756 0.00185881 0)
(-0.0119247 0.0018633 0)
(-0.0124744 0.00186439 0)
(-0.0130239 0.00186215 0)
(-0.0135722 0.00185664 0)
(-0.0141183 0.00184793 0)
(-0.0146613 0.00183608 0)
(-0.0152003 0.00182116 0)
(-0.0157345 0.00180325 0)
(-0.0162628 0.00178241 0)
(-0.0167846 0.00175872 0)
(-0.017299 0.00173225 0)
(-0.0178052 0.00170307 0)
(-0.0183023 0.00167127 0)
(-0.0187897 0.00163692 0)
(-0.0192665 0.0016001 0)
(-0.0197322 0.00156088 0)
(-0.0201859 0.00151934 0)
(-0.0206271 0.00147557 0)
(-0.021055 0.00142965 0)
(-0.0214691 0.00138165 0)
(-0.0218687 0.00133166 0)
(-0.0222533 0.00127975 0)
(-0.0226223 0.00122602 0)
(-0.0229752 0.00117054 0)
(-0.0233115 0.0011134 0)
(-0.0236307 0.00105468 0)
(-0.0239323 0.000994466 0)
(-0.024216 0.000932843 0)
(-0.0244814 0.000869896 0)
(-0.024728 0.000805713 0)
(-0.0249555 0.000740379 0)
(-0.0251635 0.000673983 0)
(-0.0253519 0.000606612 0)
(-0.0255202 0.000538357 0)
(-0.0256684 0.000469306 0)
(-0.025796 0.000399549 0)
(-0.025903 0.000329178 0)
(-0.0259892 0.000258285 0)
(-0.0260544 0.000186962 0)
(-0.0260986 0.000115302 0)
(-0.0261216 4.33997e-05 0)
(-0.0261234 -2.86503e-05 0)
(-0.026104 -0.000100752 0)
(-0.0260634 -0.00017281 0)
(-0.0260015 -0.000244727 0)
(-0.0259185 -0.000316404 0)