0.05 	0.0003125 	0.005 	-0.00184668 	3.42545e-06 	0
0.05 	0.0009375 	0.005 	-0.0053825 	9.28342e-06 	0
0.05 	0.0015625 	0.005 	-0.00878183 	1.8046e-05 	0
0.05 	0.0021875 	0.005 	-0.0120758 	2.65997e-05 	0
0.05 	0.0028125 	0.005 	-0.0152746 	3.51637e-05 	0
0.05 	0.0034375 	0.005 	-0.0183839 	4.44829e-05 	0
0.05 	0.0040625 	0.005 	-0.0214094 	5.47167e-05 	0
0.05 	0.0046875 	0.005 	-0.0243562 	6.59856e-05 	0
0.05 	0.0053125 	0.005 	-0.0272296 	7.84198e-05 	0
0.05 	0.0059375 	0.005 	-0.030034 	9.20328e-05 	0
0.05 	0.0065625 	0.005 	-0.0327744 	0.000106795 	0
0.05 	0.0071875 	0.005 	-0.0354551 	0.000122778 	0
0.05 	0.0078125 	0.005 	-0.0380804 	0.000139932 	0
0.05 	0.0084375 	0.005 	-0.0406545 	0.000158272 	0
0.05 	0.0090625 	0.005 	-0.0431813 	0.000177762 	0
0.05 	0.0096875 	0.005 	-0.0456649 	0.00019842 	0
0.05 	0.0103125 	0.005 	-0.0481089 	0.000220229 	0
0.05 	0.0109375 	0.005 	-0.0505168 	0.000243192 	0
0.05 	0.0115625 	0.005 	-0.0528924 	0.000267321 	0
0.05 	0.0121875 	0.005 	-0.0552388 	0.000292655 	0
0.05 	0.0128125 	0.005 	-0.0575592 	0.00031926 	0
0.05 	0.0134375 	0.005 	-0.0598568 	0.000347184 	0
0.05 	0.0140625 	0.005 	-0.0621344 	0.000376458 	0
0.05 	0.0146875 	0.005 	-0.0643951 	0.000407106 	0
0.05 	0.0153125 	0.005 	-0.0666414 	0.000439178 	0
0.05 	0.0159375 	0.005 	-0.0688761 	0.000472756 	0
0.05 	0.0165625 	0.005 	-0.0711015 	0.000507934 	0
0.05 	0.0171875 	0.005 	-0.07332 	0.0005448 	0
0.05 	0.0178125 	0.005 	-0.075534 	0.000583444 	0
0.05 	0.0184375 	0.005 	-0.0777454 	0.000623943 	0
0.05 	0.0190625 	0.005 	-0.0799565 	0.000666374 	0
0.05 	0.0196875 	0.005 	-0.0821691 	0.000710839 	0
0.05 	0.0203125 	0.005 	-0.084385 	0.000757458 	0
0.05 	0.0209375 	0.005 	-0.0866058 	0.000806383 	0
0.05 	0.0215625 	0.005 	-0.0888333 	0.000857749 	0
0.05 	0.0221875 	0.005 	-0.0910689 	0.000911637 	0
0.05 	0.0228125 	0.005 	-0.0933139 	0.000968159 	0
0.05 	0.0234375 	0.005 	-0.0955697 	0.00102749 	0
0.05 	0.0240625 	0.005 	-0.0978372 	0.00108978 	0
0.05 	0.0246875 	0.005 	-0.100118 	0.00115519 	0
0.05 	0.0253125 	0.005 	-0.102412 	0.00122385 	0
0.05 	0.0259375 	0.005 	-0.10472 	0.0012959 	0
0.05 	0.0265625 	0.005 	-0.107044 	0.00137152 	0
0.05 	0.0271875 	0.005 	-0.109383 	0.00145086 	0
0.05 	0.0278125 	0.005 	-0.111739 	0.00153414 	0
0.05 	0.0284375 	0.005 	-0.114111 	0.00162153 	0
0.05 	0.0290625 	0.005 	-0.116499 	0.00171315 	0
0.05 	0.0296875 	0.005 	-0.118904 	0.00180917 	0
0.05 	0.0303125 	0.005 	-0.121325 	0.00190984 	0
0.05 	0.0309375 	0.005 	-0.123762 	0.00201534 	0
0.05 	0.0315625 	0.005 	-0.126214 	0.00212582 	0
0.05 	0.0321875 	0.005 	-0.128681 	0.00224146 	0
0.05 	0.0328125 	0.005 	-0.131162 	0.00236244 	0
0.05 	0.0334375 	0.005 	-0.133656 	0.00248896 	0
0.05 	0.0340625 	0.005 	-0.136162 	0.00262118 	0
0.05 	0.0346875 	0.005 	-0.138679 	0.00275929 	0
0.05 	0.0353125 	0.005 	-0.141204 	0.00290348 	0
0.05 	0.0359375 	0.005 	-0.143737 	0.00305397 	0
0.05 	0.0365625 	0.005 	-0.146276 	0.00321091 	0
0.05 	0.0371875 	0.005 	-0.148817 	0.00337441 	0
0.05 	0.0378125 	0.005 	-0.15136 	0.00354464 	0
0.05 	0.0384375 	0.005 	-0.153901 	0.00372174 	0
0.05 	0.0390625 	0.005 	-0.156437 	0.00390587 	0
0.05 	0.0396875 	0.005 	-0.158966 	0.00409715 	0
0.05 	0.0403125 	0.005 	-0.161485 	0.00429572 	0
0.05 	0.0409375 	0.005 	-0.16399 	0.00450168 	0
0.05 	0.0415625 	0.005 	-0.166476 	0.00471512 	0
0.05 	0.0421875 	0.005 	-0.168942 	0.00493611 	0
0.05 	0.0428125 	0.005 	-0.171381 	0.00516472 	0
0.05 	0.0434375 	0.005 	-0.173789 	0.00540098 	0
0.05 	0.0440625 	0.005 	-0.176162 	0.00564491 	0
0.05 	0.0446875 	0.005 	-0.178495 	0.0058965 	0
0.05 	0.0453125 	0.005 	-0.180782 	0.00615574 	0
0.05 	0.0459375 	0.005 	-0.183018 	0.00642258 	0
0.05 	0.0465625 	0.005 	-0.185196 	0.00669693 	0
0.05 	0.0471875 	0.005 	-0.187311 	0.00697872 	0
0.05 	0.0478125 	0.005 	-0.189356 	0.00726782 	0
0.05 	0.0484375 	0.005 	-0.191324 	0.00756403 	0
0.05 	0.0490625 	0.005 	-0.193207 	0.00786714 	0
0.05 	0.0496875 	0.005 	-0.194999 	0.00817693 	0
0.05 	0.0503125 	0.005 	-0.196691 	0.0084931 	0
0.05 	0.0509375 	0.005 	-0.198276 	0.00881534 	0
0.05 	0.0515625 	0.005 	-0.199744 	0.00914332 	0
0.05 	0.0521875 	0.005 	-0.201087 	0.00947664 	0
0.05 	0.0528125 	0.005 	-0.202296 	0.00981484 	0
0.05 	0.0534375 	0.005 	-0.203361 	0.0101574 	0
0.05 	0.0540625 	0.005 	-0.204272 	0.0105039 	0
0.05 	0.0546875 	0.005 	-0.20502 	0.0108536 	0
0.05 	0.0553125 	0.005 	-0.205592 	0.0112059 	0
0.05 	0.0559375 	0.005 	-0.20598 	0.0115602 	0
0.05 	0.0565625 	0.005 	-0.206171 	0.0119156 	0
0.05 	0.0571875 	0.005 	-0.206154 	0.0122713 	0
0.05 	0.0578125 	0.005 	-0.205916 	0.0126266 	0
0.05 	0.0584375 	0.005 	-0.205446 	0.0129806 	0
0.05 	0.0590625 	0.005 	-0.204732 	0.0133322 	0
0.05 	0.0596875 	0.005 	-0.203759 	0.0136804 	0
0.05 	0.0603125 	0.005 	-0.202515 	0.0140243 	0
0.05 	0.0609375 	0.005 	-0.200987 	0.0143626 	0
0.05 	0.0615625 	0.005 	-0.199161 	0.0146942 	0
0.05 	0.0621875 	0.005 	-0.197022 	0.0150179 	0
0.05 	0.0628125 	0.005 	-0.194556 	0.0153324 	0
0.05 	0.0634375 	0.005 	-0.19175 	0.0156365 	0
0.05 	0.0640625 	0.005 	-0.188586 	0.0159288 	0
0.05 	0.0646875 	0.005 	-0.185052 	0.0162079 	0
0.05 	0.0653125 	0.005 	-0.181131 	0.0164724 	0
0.05 	0.0659375 	0.005 	-0.176808 	0.0167209 	0
0.05 	0.0665625 	0.005 	-0.172067 	0.016952 	0
0.05 	0.0671875 	0.005 	-0.166893 	0.0171642 	0
0.05 	0.0678125 	0.005 	-0.16127 	0.017356 	0
0.05 	0.0684375 	0.005 	-0.155182 	0.017526 	0
0.05 	0.0690625 	0.005 	-0.148612 	0.0176728 	0
0.05 	0.0696875 	0.005 	-0.141545 	0.017795 	0
0.05 	0.0703125 	0.005 	-0.133965 	0.0178911 	0
0.05 	0.0709375 	0.005 	-0.125855 	0.01796 	0
0.05 	0.0715625 	0.005 	-0.1172 	0.0180001 	0
0.05 	0.0721875 	0.005 	-0.107984 	0.0180105 	0
0.05 	0.0728125 	0.005 	-0.098191 	0.0179898 	0
0.05 	0.0734375 	0.005 	-0.0878059 	0.0179371 	0
0.05 	0.0740625 	0.005 	-0.0768134 	0.0178515 	0
0.05 	0.0746875 	0.005 	-0.0651986 	0.0177321 	0
0.05 	0.0753125 	0.005 	-0.0529468 	0.0175784 	0
0.05 	0.0759375 	0.005 	-0.0400439 	0.0173897 	0
0.05 	0.0765625 	0.005 	-0.0264761 	0.0171657 	0
0.05 	0.0771875 	0.005 	-0.0122302 	0.0169063 	0
0.05 	0.0778125 	0.005 	0.00270639 	0.0166114 	0
0.05 	0.0784375 	0.005 	0.0183458 	0.0162813 	0
0.05 	0.0790625 	0.005 	0.0346993 	0.0159164 	0
0.05 	0.0796875 	0.005 	0.0517775 	0.0155174 	0
0.05 	0.0803125 	0.005 	0.0695902 	0.0150852 	0
0.05 	0.0809375 	0.005 	0.0881463 	0.0146209 	0
0.05 	0.0815625 	0.005 	0.107454 	0.0141259 	0
0.05 	0.0821875 	0.005 	0.12752 	0.0136021 	0
0.05 	0.0828125 	0.005 	0.14835 	0.0130512 	0
0.05 	0.0834375 	0.005 	0.169948 	0.0124754 	0
0.05 	0.0840625 	0.005 	0.19232 	0.0118774 	0
0.05 	0.0846875 	0.005 	0.215465 	0.0112597 	0
0.05 	0.0853125 	0.005 	0.239386 	0.0106253 	0
0.05 	0.0859375 	0.005 	0.264081 	0.00997751 	0
0.05 	0.0865625 	0.005 	0.289549 	0.00931978 	0
0.05 	0.0871875 	0.005 	0.315786 	0.00865574 	0
0.05 	0.0878125 	0.005 	0.342787 	0.00798927 	0
0.05 	0.0884375 	0.005 	0.370544 	0.00732438 	0
0.05 	0.0890625 	0.005 	0.399048 	0.00666514 	0
0.05 	0.0896875 	0.005 	0.428291 	0.00601579 	0
0.05 	0.0903125 	0.005 	0.458258 	0.00538063 	0
0.05 	0.0909375 	0.005 	0.488936 	0.00476389 	0
0.05 	0.0915625 	0.005 	0.52031 	0.00416988 	0
0.05 	0.0921875 	0.005 	0.55236 	0.00360269 	0
0.05 	0.0928125 	0.005 	0.585067 	0.00306636 	0
0.05 	0.0934375 	0.005 	0.618411 	0.00256469 	0
0.05 	0.0940625 	0.005 	0.652365 	0.00210118 	0
0.05 	0.0946875 	0.005 	0.686907 	0.00167896 	0
0.05 	0.0953125 	0.005 	0.722007 	0.00130085 	0
0.05 	0.0959375 	0.005 	0.757637 	0.000969074 	0
0.05 	0.0965625 	0.005 	0.793766 	0.000685377 	0
0.05 	0.0971875 	0.005 	0.830362 	0.000450887 	0
0.05 	0.0978125 	0.005 	0.867392 	0.000265927 	0
0.05 	0.0984375 	0.005 	0.90482 	0.000129638 	0
0.05 	0.0990625 	0.005 	0.942616 	4.19629e-05 	0
0.05 	0.0996875 	0.005 	0.980763 	5.63202e-06 	0
