/*--------------------------------*- C++ -*----------------------------------*\
  =========                 |
  \\      /  F ield         | OpenFOAM: The Open Source CFD Toolbox
   \\    /   O peration     | Website:  https://openfoam.org
    \\  /    A nd           | Version:  7
     \\/     M anipulation  |
\*---------------------------------------------------------------------------*/
FoamFile
{
    version     2.0;
    format      ascii;
    class       volScalarField;
    location    "0.1625";
    object      p;
}
// * * * * * * * * * * * * * * * * * * * * * * * * * * * * * * * * * * * * * //

dimensions      [0 2 -2 0 0 0 0];

internalField   nonuniform List<scalar> 
25600
(
4.86998e-09
2.69296e-07
-4.10617e-06
-1.30982e-05
-2.54619e-05
-4.01994e-05
-5.66424e-05
-7.41686e-05
-9.22368e-05
-0.000110373
-0.000128176
-0.000145314
-0.000161497
-0.000176503
-0.000190141
-0.000202247
-0.000212698
-0.000221395
-0.000228255
-0.000233221
-0.000236252
-0.000237312
-0.000236381
-0.000233448
-0.000228505
-0.000221549
-0.00021259
-0.000201638
-0.000188705
-0.000173818
-0.000156993
-0.000138232
-0.000117551
-9.49824e-05
-7.05541e-05
-4.42944e-05
-1.62319e-05
1.36192e-05
4.52579e-05
7.86752e-05
0.000113844
0.000150732
0.000189321
0.000229604
0.000271574
0.000315217
0.000360522
0.000407475
0.000456057
0.000506249
0.00055804
0.000611419
0.000666365
0.000722848
0.000780843
0.000840339
0.000901319
0.00096376
0.00102764
0.00109294
0.00115964
0.00122773
0.00129718
0.00136797
0.00144009
0.0015135
0.00158818
0.00166409
0.00174118
0.00181943
0.00189879
0.0019792
0.00206064
0.00214305
0.00222639
0.00231061
0.00239569
0.00248155
0.00256818
0.00265551
0.00274351
0.00283211
0.00292126
0.00301089
0.00310096
0.0031914
0.00328215
0.00337313
0.00346427
0.0035555
0.00364676
0.00373797
0.00382905
0.00391994
0.00401056
0.00410085
0.00419071
0.00428008
0.00436886
0.00445698
0.00454437
0.00463094
0.00471661
0.00480129
0.0048849
0.00496736
0.00504858
0.00512849
0.005207
0.00528401
0.00535945
0.00543323
0.00550527
0.00557548
0.00564379
0.0057101
0.00577433
0.00583641
0.00589627
0.00595381
0.00600896
0.00606164
0.00611179
0.00615932
0.00620419
0.00624633
0.00628568
0.0063222
0.00635585
0.0063866
0.00641442
0.00643931
0.00646125
0.00648022
0.00649623
0.00650928
0.00651938
0.00652658
0.0065309
0.00653239
0.00653112
0.00652716
0.00652061
0.00651158
0.00650022
0.00648669
0.00647117
0.0064539
0.00643515
0.00641523
0.00639451
0.00637344
0.0063525
0.00633229
0.0063135
0.00629694
0.00628346
0.00627399
0.00626947
0.00626983
-5.94083e-07
-7.40595e-07
-4.8434e-06
-1.25979e-05
-2.30331e-05
-3.55143e-05
-4.94972e-05
-6.45071e-05
-8.00809e-05
-9.58002e-05
-0.000111309
-0.000126282
-0.000140457
-0.000153613
-0.000165553
-0.000176127
-0.000185198
-0.000192656
-0.000198422
-0.000202425
-0.000204609
-0.00020494
-0.000203392
-0.000199939
-0.000194573
-0.000187291
-0.000178085
-0.000166955
-0.000153911
-0.000138968
-0.000122139
-0.000103435
-8.2867e-05
-6.04498e-05
-3.61976e-05
-1.01339e-05
1.77101e-05
4.73116e-05
7.86612e-05
0.000111753
0.000146571
0.000183097
0.000221314
0.000261209
0.000302766
0.000345977
0.000390836
0.000437331
0.000485436
0.000535133
0.000586411
0.000639261
0.000693659
0.000749581
0.000807005
0.000865916
0.000926292
0.000988111
0.00105135
0.001116
0.00118205
0.00124945
0.0013182
0.00138828
0.00145966
0.00153233
0.00160624
0.00168135
0.00175764
0.00183507
0.00191359
0.00199314
0.0020737
0.00215521
0.00223765
0.00232095
0.00240508
0.00248998
0.00257563
0.00266198
0.00274897
0.00283655
0.00292466
0.00301324
0.00310224
0.00319161
0.00328126
0.00337113
0.00346115
0.00355126
0.00364138
0.00373144
0.00382136
0.00391107
0.00400052
0.00408963
0.00417831
0.00426649
0.00435408
0.00444101
0.00452721
0.00461259
0.00469707
0.00478057
0.004863
0.00494429
0.00502436
0.00510312
0.00518049
0.00525639
0.00533072
0.00540341
0.00547439
0.00554356
0.00561085
0.00567618
0.00573946
0.00580062
0.00585959
0.00591629
0.00597065
0.00602258
0.00607203
0.00611892
0.00616321
0.00620483
0.00624374
0.00627988
0.00631324
0.00634378
0.00637149
0.00639636
0.00641839
0.00643755
0.00645386
0.00646733
0.00647799
0.00648587
0.00649102
0.00649349
0.00649334
0.00649067
0.00648557
0.00647815
0.00646858
0.006457
0.00644362
0.00642866
0.00641238
0.00639509
0.00637714
0.00635894
0.00634093
0.00632363
0.00630764
0.0062936
0.00628217
0.00627402
0.00626995
0.00627031
2.6389e-06
2.04922e-06
-2.05011e-06
-9.17709e-06
-1.85228e-05
-2.96011e-05
-4.20088e-05
-5.53355e-05
-6.91794e-05
-8.31851e-05
-9.70142e-05
-0.000110385
-0.000123049
-0.000134779
-0.000145405
-0.000154772
-0.00016274
-0.000169209
-0.000174088
-0.0001773
-0.000178791
-0.00017852
-0.000176449
-0.000172555
-0.000166825
-0.000159248
-0.000149815
-0.000138524
-0.000125372
-0.000110365
-9.35133e-05
-7.48336e-05
-5.43375e-05
-3.20344e-05
-7.92942e-06
1.79655e-05
4.56253e-05
7.50242e-05
0.000106145
0.000138976
0.000173507
0.000209732
0.000247641
0.000287212
0.000328426
0.000371277
0.000415761
0.000461864
0.000509563
0.00055884
0.000609685
0.000662083
0.00071601
0.00077145
0.000828387
0.000886801
0.000946666
0.00100796
0.00107067
0.00113478
0.00120027
0.0012671
0.00133527
0.00140475
0.00147553
0.00154756
0.00162082
0.00169528
0.00177089
0.00184763
0.00192544
0.00200428
0.00208411
0.00216488
0.00224656
0.0023291
0.00241244
0.00249657
0.00258142
0.00266696
0.00275312
0.00283986
0.00292711
0.00301483
0.00310297
0.00319145
0.00328021
0.00336917
0.00345829
0.00354748
0.00363667
0.00372579
0.00381476
0.00390354
0.00399204
0.00408019
0.00416791
0.00425512
0.00434175
0.00442772
0.00451296
0.00459739
0.00468092
0.00476347
0.00484496
0.00492532
0.00500447
0.00508231
0.00515877
0.00523376
0.00530721
0.00537904
0.00544917
0.00551752
0.005584
0.00564854
0.00571106
0.00577149
0.00582977
0.00588581
0.00593953
0.00599086
0.00603976
0.00608615
0.00612998
0.00617121
0.00620977
0.00624563
0.00627877
0.00630916
0.0063368
0.00636167
0.00638378
0.0064031
0.00641967
0.00643349
0.0064446
0.00645304
0.00645886
0.0064621
0.00646285
0.00646119
0.00645721
0.00645106
0.00644287
0.00643279
0.00642104
0.00640781
0.00639337
0.00637802
0.00636207
0.00634591
0.00632992
0.00631457
0.00630036
0.00628782
0.00627751
0.00626997
0.00626594
0.00626594
9.81519e-06
8.22941e-06
3.74059e-06
-3.20464e-06
-1.20393e-05
-2.23713e-05
-3.38382e-05
-4.6075e-05
-5.87521e-05
-7.1534e-05
-8.41343e-05
-9.63013e-05
-0.000107792
-0.000118411
-0.000127989
-0.000136369
-0.000143434
-0.000149076
-0.000153201
-0.000155742
-0.00015664
-0.000155843
-0.00015332
-0.000149041
-0.000142983
-0.000135134
-0.000125486
-0.000114035
-0.000100777
-8.57064e-05
-6.8829e-05
-5.0156e-05
-2.97005e-05
-7.47438e-06
1.65141e-05
4.22568e-05
6.9743e-05
9.89583e-05
0.000129883
0.000162496
0.000196787
0.000232754
0.000270389
0.000309672
0.000350586
0.000393125
0.000437276
0.000483023
0.00053035
0.000579248
0.000629703
0.000681692
0.000735195
0.000790201
0.000846699
0.000904664
0.000964072
0.0010249
0.00108714
0.00115078
0.00121577
0.00128211
0.00134976
0.00141872
0.00148895
0.00156043
0.00163312
0.00170699
0.00178201
0.00185814
0.00193533
0.00201353
0.00209272
0.00217285
0.00225387
0.00233574
0.00241841
0.00250186
0.00258603
0.00267087
0.00275632
0.00284233
0.00292885
0.00301584
0.00310323
0.00319095
0.00327894
0.00336714
0.00345547
0.00354388
0.00363228
0.0037206
0.00380877
0.00389674
0.00398444
0.00407178
0.00415869
0.00424509
0.00433091
0.00441607
0.00450051
0.00458414
0.00466687
0.00474863
0.00482934
0.00490892
0.00498729
0.00506437
0.00514007
0.00521431
0.00528703
0.00535814
0.00542756
0.00549522
0.00556103
0.00562492
0.00568682
0.00574665
0.00580435
0.00585983
0.00591302
0.00596387
0.00601231
0.00605829
0.00610176
0.00614266
0.00618095
0.00621659
0.00624956
0.00627985
0.00630744
0.00633233
0.00635451
0.00637398
0.00639077
0.00640489
0.00641639
0.0064253
0.00643167
0.00643555
0.00643703
0.00643618
0.00643312
0.00642798
0.00642088
0.006412
0.0064015
0.00638962
0.00637659
0.00636267
0.00634818
0.00633344
0.00631883
0.00630473
0.00629158
0.00627984
0.00626995
0.00626241
0.00625782
0.00625658
2.05057e-05
1.73183e-05
1.20022e-05
4.82774e-06
-3.91926e-06
-1.38977e-05
-2.47816e-05
-3.62783e-05
-4.80852e-05
-5.99243e-05
-7.15466e-05
-8.27122e-05
-9.32199e-05
-0.000102889
-0.000111549
-0.000119068
-0.000125328
-0.000130219
-0.000133661
-0.000135584
-0.000135925
-0.000134636
-0.000131684
-0.000127038
-0.000120668
-0.00011256
-0.000102701
-9.10845e-05
-7.77101e-05
-6.25725e-05
-4.567e-05
-2.70082e-05
-6.59161e-06
1.55715e-05
3.94645e-05
6.50753e-05
9.24004e-05
0.000121434
0.000152162
0.000184566
0.000218636
0.000254364
0.000291735
0.000330738
0.000371363
0.000413601
0.000457431
0.000502833
0.000549801
0.000598327
0.000648393
0.00069998
0.000753071
0.00080766
0.000863729
0.000921256
0.00098022
0.00104061
0.0011024
0.00116557
0.0012301
0.00129595
0.00136312
0.00143157
0.00150129
0.00157223
0.00164437
0.00171768
0.00179213
0.00186767
0.00194426
0.00202186
0.00210044
0.00217996
0.00226036
0.0023416
0.00242365
0.00250645
0.00258998
0.00267416
0.00275895
0.00284429
0.00293013
0.00301643
0.00310312
0.00319013
0.00327741
0.00336489
0.0034525
0.00354018
0.00362784
0.00371542
0.00380286
0.00389009
0.00397705
0.00406364
0.0041498
0.00423545
0.00432053
0.00440496
0.00448866
0.00457156
0.00465356
0.0047346
0.0048146
0.00489347
0.00497114
0.00504752
0.00512254
0.00519611
0.00526816
0.00533862
0.00540741
0.00547444
0.00553964
0.00560294
0.00566427
0.00572356
0.00578073
0.00583571
0.00588843
0.00593884
0.00598688
0.00603249
0.00607563
0.00611625
0.0061543
0.00618975
0.00622258
0.00625279
0.00628034
0.00630525
0.00632751
0.00634712
0.00636411
0.00637852
0.00639036
0.00639969
0.00640656
0.00641101
0.00641313
0.00641301
0.00641075
0.00640649
0.00640034
0.00639247
0.00638306
0.0063723
0.00636043
0.00634768
0.00633435
0.00632071
0.00630709
0.00629385
0.00628136
0.00626999
0.00626012
0.00625216
0.00624647
0.00624324
3.40822e-05
2.88189e-05
2.23056e-05
1.45275e-05
5.51712e-06
-4.43552e-06
-1.50644e-05
-2.61068e-05
-3.73203e-05
-4.84746e-05
-5.93369e-05
-6.97101e-05
-7.94171e-05
-8.8283e-05
-9.61659e-05
-0.000102941
-0.000108492
-0.000112724
-0.000115557
-0.00011692
-0.000116755
-0.000115015
-0.000111664
-0.000106669
-0.000100005
-9.1654e-05
-8.1597e-05
-6.98232e-05
-5.63303e-05
-4.11156e-05
-2.41796e-05
-5.52467e-06
1.48518e-05
3.69473e-05
6.07491e-05
8.62463e-05
0.000113432
0.000142299
0.000172835
0.000205037
0.000238895
0.000274395
0.000311517
0.000350255
0.000390602
0.000432545
0.00047606
0.000521134
0.000567759
0.000615924
0.00066561
0.000716806
0.000769503
0.00082369
0.000879346
0.000936452
0.000994994
0.00105496
0.00111632
0.00117905
0.00124313
0.00130852
0.00137523
0.0014432
0.00151242
0.00158285
0.00165447
0.00172725
0.00180116
0.00187614
0.00195217
0.00202921
0.00210722
0.00218615
0.00226597
0.00234663
0.00242809
0.00251031
0.00259323
0.0026768
0.00276097
0.00284569
0.00293091
0.00301657
0.00310261
0.00318898
0.0032756
0.00336242
0.00344937
0.00353638
0.00362337
0.00371028
0.00379705
0.00388361
0.00396988
0.0040558
0.00414128
0.00422626
0.00431067
0.00439443
0.00447748
0.00455971
0.00464106
0.00472145
0.00480081
0.00487906
0.0049561
0.00503186
0.00510626
0.00517923
0.0052507
0.00532058
0.00538879
0.00545527
0.00551993
0.0055827
0.00564353
0.00570233
0.00575903
0.00581356
0.00586586
0.00591588
0.00596357
0.00600886
0.00605172
0.00609209
0.00612993
0.00616522
0.00619794
0.00622807
0.00625561
0.00628054
0.00630287
0.00632262
0.0063398
0.00635445
0.00636661
0.00637631
0.00638361
0.00638855
0.00639123
0.00639174
0.00639018
0.00638666
0.00638132
0.00637431
0.00636578
0.00635594
0.00634499
0.00633316
0.0063207
0.00630786
0.00629492
0.00628219
0.00626999
0.00625863
0.00624844
0.00623972
0.00623257
0.00622689
4.97369e-05
4.21442e-05
3.41481e-05
2.54902e-05
1.59452e-05
5.73198e-06
-4.90431e-06
-1.57533e-05
-2.66265e-05
-3.73143e-05
-4.76321e-05
-5.741e-05
-6.64806e-05
-7.47014e-05
-8.19458e-05
-8.80905e-05
-9.30362e-05
-9.66988e-05
-9.89969e-05
-9.98651e-05
-9.92516e-05
-9.71083e-05
-9.33947e-05
-8.80807e-05
-8.11423e-05
-7.25613e-05
-6.23198e-05
-5.04021e-05
-3.68004e-05
-2.15123e-05
-4.53682e-06
1.4125e-05
3.44713e-05
5.65009e-05
8.02121e-05
0.000105601
0.000132658
0.000161371
0.000191734
0.000223746
0.000257398
0.000292674
0.000329561
0.000368051
0.000408133
0.000449787
0.000492998
0.000537758
0.000584056
0.000631874
0.000681199
0.000732024
0.000784345
0.000838146
0.000893408
0.000950116
0.00100826
0.00106782
0.00112877
0.00119108
0.00125473
0.0013197
0.00138596
0.00145348
0.00152223
0.00159218
0.00166332
0.0017356
0.00180899
0.00188346
0.00195896
0.00203548
0.00211296
0.00219136
0.00227063
0.00235075
0.00243167
0.00251335
0.00259573
0.00267874
0.00276235
0.0028465
0.00293115
0.00301624
0.00310169
0.00318747
0.0032735
0.00335973
0.00344608
0.00353248
0.00361887
0.00370517
0.00379134
0.0038773
0.00396297
0.00404829
0.00413317
0.00421755
0.00430137
0.00438455
0.004467
0.00454866
0.00462943
0.00470926
0.00478806
0.00486575
0.00494224
0.00501746
0.00509133
0.00516378
0.00523473
0.00530411
0.00537182
0.00543781
0.005502
0.00556431
0.00562469
0.00568306
0.00573936
0.0057935
0.00584544
0.00589512
0.0059425
0.00598753
0.00603014
0.0060703
0.00610797
0.00614312
0.00617575
0.00620583
0.00623335
0.00625831
0.00628072
0.00630059
0.00631794
0.00633281
0.00634524
0.00635526
0.00636292
0.00636828
0.00637144
0.00637247
0.00637149
0.00636859
0.00636392
0.00635759
0.00634977
0.00634064
0.00633039
0.00631923
0.00630738
0.00629507
0.00628252
0.00627001
0.0062578
0.00624615
0.00623534
0.00622562
0.00621674
0.00620837
6.6748e-05
5.66845e-05
4.70436e-05
3.73233e-05
2.70251e-05
1.63493e-05
5.4944e-06
-5.38451e-06
-1.61118e-05
-2.65324e-05
-3.64922e-05
-4.58357e-05
-5.44268e-05
-6.21455e-05
-6.88713e-05
-7.44983e-05
-7.89405e-05
-8.21166e-05
-8.39521e-05
-8.43897e-05
-8.33809e-05
-8.08777e-05
-7.68423e-05
-7.12449e-05
-6.40584e-05
-5.52639e-05
-4.48476e-05
-3.27941e-05
-1.90937e-05
-3.74169e-06
1.32691e-05
3.19401e-05
5.22647e-05
7.42407e-05
9.78713e-05
0.000123155
0.000150085
0.000178653
0.000208856
0.00024069
0.000274142
0.000309201
0.000345862
0.000384115
0.000423939
0.000465316
0.000508238
0.000552698
0.000598679
0.000646165
0.000695149
0.000745628
0.000797591
0.000851024
0.000905912
0.000962246
0.00102001
0.00107919
0.00113975
0.00120166
0.00126491
0.00132947
0.0013953
0.00146239
0.0015307
0.00160021
0.00167089
0.00174271
0.00181562
0.00188961
0.00196463
0.00204066
0.00211765
0.00219556
0.00227434
0.00235397
0.0024344
0.00251558
0.00259745
0.00267996
0.00276306
0.00284671
0.00293085
0.00301541
0.00310034
0.00318559
0.00327109
0.00335679
0.0034426
0.00352846
0.00361431
0.00370008
0.00378572
0.00387115
0.00395629
0.00404108
0.00412543
0.0042093
0.00429261
0.00437527
0.00445721
0.00453836
0.00461864
0.00469797
0.00477629
0.0048535
0.00492952
0.00500428
0.00507769
0.00514969
0.00522021
0.00528915
0.00535644
0.005422
0.00548578
0.0055477
0.0056077
0.0056657
0.00572164
0.00577545
0.00582708
0.00587649
0.00592361
0.0059684
0.0060108
0.00605079
0.00608831
0.00612336
0.00615591
0.00618595
0.00621347
0.00623847
0.00626095
0.00628093
0.00629843
0.00631349
0.00632614
0.00633642
0.00634439
0.0063501
0.00635365
0.00635512
0.00635461
0.00635222
0.00634806
0.00634227
0.006335
0.0063264
0.00631666
0.00630596
0.00629449
0.00628246
0.00627007
0.00625754
0.00624508
0.0062329
0.00622125
0.00621033
0.0061996
0.00618843
8.44982e-05
7.19307e-05
6.05611e-05
4.96422e-05
3.84553e-05
2.71552e-05
1.59071e-05
4.84416e-06
-5.91161e-06
-1.6232e-05
-2.59823e-05
-3.50397e-05
-4.32916e-05
-5.06266e-05
-5.69453e-05
-6.21604e-05
-6.61891e-05
-6.89578e-05
-7.04047e-05
-7.04755e-05
-6.91218e-05
-6.63021e-05
-6.1983e-05
-5.6135e-05
-4.87299e-05
-3.97463e-05
-2.91708e-05
-1.69905e-05
-3.19661e-06
1.22168e-05
2.92583e-05
4.79316e-05
6.82339e-05
9.01654e-05
0.000113726
0.000138911
0.000165719
0.000194149
0.0002242
0.000255861
0.00028912
0.000323973
0.000360416
0.000398433
0.000438006
0.00047912
0.000521769
0.00056594
0.000611617
0.000658789
0.000707455
0.000757606
0.000809231
0.000862316
0.000916852
0.000972834
0.00103024
0.00108905
0.00114923
0.00121077
0.00127363
0.0013378
0.00140324
0.00146993
0.00153782
0.00160692
0.00167718
0.00174856
0.00182104
0.00189459
0.00196917
0.00204475
0.00212129
0.00219874
0.00227708
0.00235626
0.00243625
0.00251698
0.00259839
0.00268045
0.0027631
0.00284629
0.00292997
0.00301406
0.00309853
0.00318331
0.00326835
0.00335357
0.0034389
0.00352429
0.00360967
0.00369499
0.00378016
0.00386513
0.00394981
0.00403414
0.00411805
0.00420147
0.00428434
0.00436656
0.00444806
0.00452878
0.00460863
0.00468755
0.00476546
0.00484226
0.00491789
0.00499225
0.00506529
0.00513692
0.00520706
0.00527564
0.00534256
0.00540778
0.00547121
0.0055328
0.00559247
0.00565016
0.0057058
0.00575934
0.00581071
0.00585988
0.00590679
0.00595139
0.00599362
0.00603346
0.00607087
0.00610583
0.00613833
0.00616835
0.00619588
0.00622091
0.00624345
0.00626353
0.00628116
0.00629638
0.00630922
0.00631972
0.00632793
0.00633394
0.0063378
0.00633962
0.00633948
0.00633748
0.00633372
0.00632833
0.00632144
0.00631322
0.00630381
0.00629339
0.00628213
0.00627018
0.00625774
0.00624499
0.0062321
0.00621923
0.00620659
0.00619434
0.00618168
0.00616773
0.000102482
8.74403e-05
7.43011e-05
6.21229e-05
4.99459e-05
3.78972e-05
2.61377e-05
1.47514e-05
3.82885e-06
-6.52024e-06
-1.61935e-05
-2.50951e-05
-3.31235e-05
-4.01845e-05
-4.6201e-05
-5.10952e-05
-5.47908e-05
-5.72285e-05
-5.83554e-05
-5.8118e-05
-5.64724e-05
-5.33826e-05
-4.88161e-05
-4.27471e-05
-3.51502e-05
-2.60023e-05
-1.52888e-05
-2.99819e-06
1.08806e-05
2.6354e-05
4.3425e-05
6.20977e-05
8.2377e-05
0.000104265
0.000127758
0.000152851
0.000179546
0.000207846
0.000237746
0.000269236
0.000302311
0.000336968
0.000373198
0.000410983
0.000450312
0.000491176
0.000533564
0.00057746
0.000622849
0.000669728
0.000718095
0.000767937
0.000819242
0.000872002
0.000926211
0.00098186
0.00103893
0.00109738
0.00115721
0.00121839
0.00128089
0.00134469
0.00140975
0.00147606
0.00154358
0.00161229
0.00168215
0.00175314
0.00182522
0.00189837
0.00197255
0.00204772
0.00212385
0.0022009
0.00227883
0.00235762
0.0024372
0.00251752
0.00259853
0.00268019
0.00276244
0.00284523
0.00292849
0.00301218
0.00309623
0.00318061
0.00326523
0.00335004
0.00343497
0.00351995
0.00360493
0.00368985
0.00377464
0.00385921
0.00394351
0.00402746
0.00411099
0.00419404
0.00427653
0.00435838
0.00443952
0.00451988
0.00459939
0.00467796
0.00475553
0.004832
0.0049073
0.00498135
0.00505408
0.00512541
0.00519525
0.00526352
0.00533016
0.00539508
0.00545823
0.00551955
0.00557896
0.0056364
0.00569179
0.0057451
0.00579627
0.00584525
0.00589199
0.00593643
0.00597852
0.00601825
0.00605557
0.00609047
0.00612294
0.00615294
0.00618048
0.00620555
0.00622816
0.00624832
0.00626606
0.00628141
0.0062944
0.00630507
0.00631349
0.00631972
0.00632383
0.00632592
0.00632606
0.00632433
0.00632086
0.00631574
0.00630912
0.00630113
0.00629192
0.00628162
0.00627039
0.00625838
0.00624573
0.0062326
0.00621913
0.00620543
0.0061917
0.00617806
0.00616346
0.00614681
0.000120281
0.000102822
8.79306e-05
7.44538e-05
6.12204e-05
4.83533e-05
3.59824e-05
2.41634e-05
1.29707e-05
2.4813e-06
-7.22894e-06
-1.60776e-05
-2.39824e-05
-3.08721e-05
-3.66774e-05
-4.13304e-05
-4.47714e-05
-4.69491e-05
-4.78149e-05
-4.73232e-05
-4.54372e-05
-4.21226e-05
-3.73475e-05
-3.10885e-05
-2.33242e-05
-1.40336e-05
-3.2021e-06
9.18193e-06
2.31323e-05
3.86558e-05
5.57524e-05
7.44267e-05
9.4685e-05
0.000116528
0.000139952
0.000164958
0.000191549
0.000219723
0.000249473
0.000280796
0.000313694
0.000348161
0.000384181
0.000421743
0.00046084
0.000501464
0.0005436
0.000587232
0.000632353
0.000678961
0.000727047
0.000776598
0.000827603
0.000880062
0.000933966
0.000989299
0.00104604
0.00110416
0.00116365
0.00122449
0.00128665
0.0013501
0.00141482
0.00148077
0.00154794
0.00161629
0.0016858
0.00175642
0.00182814
0.00190093
0.00197475
0.00204956
0.00212532
0.002202
0.00227958
0.00235801
0.00243723
0.00251719
0.00259785
0.00267916
0.00276105
0.00284348
0.00292639
0.00300972
0.00309343
0.00317745
0.00326173
0.00334618
0.00343076
0.00351541
0.00360006
0.00368466
0.00376912
0.00385337
0.00393735
0.00402099
0.00410422
0.00418697
0.00426916
0.00435072
0.00443156
0.00451164
0.00459087
0.00466917
0.00474646
0.00482267
0.00489772
0.00497152
0.00504402
0.00511511
0.00518471
0.00525275
0.00531916
0.00538386
0.0054468
0.00550791
0.00556711
0.00562434
0.00567955
0.00573269
0.0057837
0.00583253
0.00587913
0.00592345
0.00596544
0.00600508
0.00604235
0.00607721
0.00610966
0.00613966
0.00616722
0.00619232
0.00621499
0.00623523
0.00625306
0.00626851
0.00628162
0.00629243
0.006301
0.0063074
0.00631169
0.00631397
0.00631429
0.00631276
0.00630947
0.00630452
0.00629805
0.00629017
0.00628102
0.00627072
0.0062594
0.00624718
0.00623419
0.00622056
0.0062064
0.00619179
0.00617689
0.00616184
0.00614534
0.00612612
0.000137532
0.000117759
0.00010114
8.63514e-05
7.20405e-05
5.82992e-05
4.52449e-05
3.29216e-05
2.13705e-05
1.06453e-05
8.09955e-07
-8.07185e-06
-1.59447e-05
-2.27466e-05
-2.84165e-05
-3.29045e-05
-3.61628e-05
-3.8143e-05
-3.88038e-05
-3.81096e-05
-3.60282e-05
-3.2529e-05
-2.75833e-05
-2.11674e-05
-1.32628e-05
-3.85173e-06
7.08039e-06
1.95449e-05
3.35533e-05
4.91128e-05
6.62274e-05
8.49021e-05
0.000105139
0.000126934
0.000150291
0.000175214
0.000201703
0.000229751
0.000259357
0.000290522
0.000323248
0.000357524
0.00039334
0.000430689
0.000469567
0.00050996
0.000551854
0.000595239
0.000640112
0.000686466
0.000734287
0.000783565
0.000834294
0.000886473
0.00094009
0.000995123
0.00105155
0.00110937
0.00116855
0.00122907
0.0012909
0.00135403
0.00141841
0.00148404
0.00155089
0.00161891
0.00168809
0.00175839
0.00182979
0.00190226
0.00197575
0.00205023
0.00212567
0.00220204
0.00227931
0.00235742
0.00243633
0.00251598
0.00259633
0.00267733
0.00275892
0.00284104
0.00292364
0.00300668
0.00309009
0.00317382
0.0032578
0.00334197
0.00342627
0.00351065
0.00359504
0.00367938
0.00376358
0.00384759
0.00393132
0.00401472
0.00409772
0.00418024
0.0042622
0.00434352
0.00442415
0.00450401
0.00458304
0.00466113
0.00473823
0.00481424
0.00488911
0.00496274
0.00503505
0.00510597
0.00517541
0.00524328
0.00530953
0.00537408
0.00543686
0.00549782
0.00555687
0.00561395
0.00566903
0.00572203
0.00577292
0.00582165
0.00586815
0.00591238
0.00595431
0.0059939
0.00603113
0.00606598
0.00609842
0.00612843
0.00615601
0.00618115
0.00620387
0.00622417
0.00624208
0.00625761
0.00627081
0.00628172
0.0062904
0.00629692
0.00630133
0.00630373
0.00630417
0.00630274
0.00629954
0.00629467
0.00628825
0.00628038
0.00627118
0.00626077
0.00624923
0.0062367
0.00622327
0.00620905
0.00619412
0.00617854
0.00616246
0.006146
0.00612767
0.00610601
0.00015394
0.000131956
0.000113662
9.75829e-05
8.21754e-05
6.75251e-05
5.37512e-05
4.08648e-05
2.88852e-05
1.78558e-05
7.82296e-06
-1.17315e-06
-9.0875e-06
-1.58694e-05
-2.14744e-05
-2.58646e-05
-2.89992e-05
-3.08381e-05
-3.13487e-05
-3.05005e-05
-2.82652e-05
-2.46185e-05
-1.95357e-05
-1.2994e-05
-4.97764e-06
4.52954e-06
1.55438e-05
2.80747e-05
4.21287e-05
5.7714e-05
7.48391e-05
9.35071e-05
0.000113716
0.000135464
0.000158757
0.000183598
0.000209983
0.000237907
0.000267375
0.000298391
0.000330947
0.000365037
0.000400657
0.000437805
0.000476471
0.000516643
0.000558308
0.000601464
0.000646106
0.000692219
0.000739791
0.000788816
0.000839291
0.00089121
0.000944554
0.000999306
0.00105545
0.00111297
0.00117186
0.00123208
0.00129361
0.00135643
0.00142052
0.00148586
0.0015524
0.00162013
0.00168901
0.00175903
0.00183015
0.00190233
0.00197553
0.00204972
0.00212489
0.00220099
0.00227799
0.00235583
0.00243446
0.00251385
0.00259394
0.00267468
0.00275601
0.00283788
0.00292023
0.00300302
0.0030862
0.00316969
0.00325344
0.00333738
0.00342147
0.00350565
0.00358985
0.00367399
0.00375801
0.00384183
0.00392539
0.00400862
0.00409145
0.0041738
0.0042556
0.00433677
0.00441726
0.00449698
0.00457586
0.00465382
0.00473079
0.00480668
0.00488142
0.00495494
0.00502715
0.00509796
0.00516729
0.00523507
0.00530122
0.00536567
0.00542836
0.00548922
0.00554818
0.00560517
0.00566016
0.00571308
0.0057639
0.00581255
0.00585899
0.00590318
0.00594507
0.00598464
0.00602187
0.00605672
0.00608916
0.00611919
0.00614679
0.00617197
0.00619473
0.00621509
0.00623306
0.00624866
0.00626192
0.0062729
0.00628165
0.00628824
0.00629272
0.00629516
0.00629565
0.00629426
0.00629108
0.00628621
0.00627975
0.0062718
0.00626246
0.00625182
0.00623999
0.00622706
0.00621311
0.00619823
0.00618248
0.00616591
0.00614864
0.0061308
0.00611073
0.00608678
0.000169237
0.000145162
0.000125271
0.000107922
9.14184e-05
7.58545e-05
6.13284e-05
4.78342e-05
3.53831e-05
2.39974e-05
1.37024e-05
4.52998e-06
-3.48456e-06
-1.03097e-05
-1.5913e-05
-2.02611e-05
-2.33237e-05
-2.50724e-05
-2.54808e-05
-2.45225e-05
-2.21734e-05
-1.84143e-05
-1.3225e-05
-6.58623e-06
1.51625e-06
1.10975e-05
2.21731e-05
3.47516e-05
4.88382e-05
6.44423e-05
8.15701e-05
0.000100221
0.000120395
0.000142096
0.000165327
0.000190083
0.000216363
0.000244169
0.000273506
0.000304373
0.000336764
0.000370677
0.000406113
0.000443068
0.000481531
0.000521492
0.000562946
0.000605889
0.00065031
0.000696196
0.000743535
0.000792328
0.000842568
0.000894241
0.00094733
0.00100182
0.0010577
0.00111496
0.00117357
0.00123351
0.00129477
0.00135731
0.00142113
0.00148619
0.00155246
0.00161992
0.00168855
0.00175832
0.00182918
0.00190111
0.00197407
0.00204803
0.00212296
0.00219883
0.0022756
0.00235321
0.00243162
0.00251079
0.00259067
0.00267119
0.00275231
0.00283397
0.00291613
0.00299873
0.00308172
0.00316504
0.00324861
0.0033324
0.00341635
0.00350039
0.00358445
0.00366847
0.00375236
0.00383607
0.00391952
0.00400265
0.00408539
0.00416764
0.00424935
0.00433044
0.00441085
0.0044905
0.00456931
0.00464721
0.00472411
0.00479994
0.00487464
0.00494811
0.00502027
0.00509104
0.00516033
0.00522806
0.00529418
0.0053586
0.00542126
0.00548208
0.00554099
0.00559795
0.0056529
0.00570579
0.00575657
0.00580519
0.00585161
0.00589578
0.00593767
0.00597725
0.00601449
0.00604936
0.00608183
0.00611188
0.00613951
0.00616472
0.00618753
0.00620793
0.00622594
0.00624159
0.0062549
0.00626591
0.0062747
0.00628131
0.00628581
0.00628826
0.00628874
0.00628732
0.00628409
0.00627915
0.00627257
0.00626445
0.00625489
0.00624396
0.00623175
0.00621835
0.00620382
0.00618824
0.00617165
0.00615407
0.00613564
0.00611647
0.00609474
0.00606867
0.000183205
0.000157166
0.000135744
0.000117167
9.9597e-05
8.31138e-05
6.78168e-05
5.36933e-05
4.07358e-05
2.89482e-05
1.83452e-05
8.95066e-06
7.83318e-07
-6.13902e-06
-1.17907e-05
-1.61461e-05
-1.91856e-05
-2.08894e-05
-2.12364e-05
-2.02071e-05
-1.77818e-05
-1.39435e-05
-8.67793e-06
-1.96931e-06
6.19729e-06
1.58334e-05
2.69501e-05
3.95574e-05
5.36638e-05
6.92763e-05
8.63956e-05
0.000105021
0.000125157
0.000146809
0.000169972
0.000194641
0.000220819
0.000248513
0.000277722
0.000308443
0.000340676
0.000374424
0.000409686
0.000446457
0.000484726
0.00052449
0.000565748
0.000608489
0.000652701
0.000698373
0.000745499
0.000794077
0.000844096
0.000895539
0.000948391
0.00100264
0.00105828
0.00111529
0.00117365
0.00123334
0.00129434
0.00135664
0.0014202
0.00148502
0.00155105
0.00161828
0.00168669
0.00175623
0.00182688
0.0018986
0.00197135
0.00204511
0.00211986
0.00219555
0.00227212
0.00234955
0.00242778
0.00250678
0.00258648
0.00266684
0.00274779
0.0028293
0.00291131
0.00299379
0.00307665
0.00315984
0.00324331
0.00332701
0.00341087
0.00349484
0.00357883
0.00366278
0.00374662
0.00383028
0.0039137
0.00399679
0.00407949
0.00416172
0.00424341
0.0043245
0.0044049
0.00448454
0.00456335
0.00464124
0.00471815
0.00479399
0.0048687
0.00494219
0.00501437
0.00508515
0.00515446
0.00522223
0.00528837
0.00535282
0.0054155
0.00547633
0.00553526
0.00559223
0.00564719
0.0057001
0.00575089
0.00579953
0.00584596
0.00589015
0.00593207
0.00597169
0.00600896
0.00604386
0.00607635
0.00610644
0.00613411
0.00615936
0.00618221
0.00620265
0.00622069
0.00623636
0.00624969
0.00626072
0.00626951
0.00627611
0.00628059
0.006283
0.00628343
0.00628193
0.00627859
0.0062735
0.00626675
0.0062584
0.00624854
0.00623725
0.00622461
0.00621068
0.00619553
0.00617922
0.00616177
0.0061432
0.00612363
0.00610318
0.00607989
0.00605185
0.000195669
0.000167774
0.000144899
0.00012515
0.000106536
8.91438e-05
7.308e-05
5.83126e-05
4.482e-05
3.25997e-05
2.16568e-05
1.19982e-05
3.63273e-06
-3.42792e-06
-9.16931e-06
-1.35767e-05
-1.66364e-05
-1.83343e-05
-1.86568e-05
-1.75912e-05
-1.51219e-05
-1.12357e-05
-5.92286e-06
8.30637e-07
9.0391e-06
1.87099e-05
2.98506e-05
4.24729e-05
5.6586e-05
7.21922e-05
8.92907e-05
0.000107885
0.00012798
0.000149575
0.000172664
0.000197247
0.000223329
0.000250913
0.000279996
0.000310577
0.000342662
0.000376255
0.000411353
0.000447947
0.000486035
0.000525619
0.000566692
0.000609241
0.000653255
0.000698728
0.000745657
0.000794035
0.000843846
0.000895075
0.000947711
0.00100175
0.00105717
0.00111395
0.00117208
0.00123154
0.00129231
0.00135439
0.00141773
0.00148233
0.00154815
0.00161519
0.0016834
0.00175276
0.00182323
0.00189477
0.00196736
0.00204097
0.00211557
0.0021911
0.00226753
0.00234482
0.00242292
0.00250178
0.00258136
0.00266159
0.00274243
0.00282384
0.00290577
0.00298816
0.00307095
0.00315409
0.00323751
0.00332118
0.00340503
0.00348898
0.00357297
0.00365692
0.00374076
0.00382444
0.00390789
0.00399101
0.00407375
0.00415602
0.00423776
0.0043189
0.00439937
0.00447908
0.00455795
0.0046359
0.00471288
0.0047888
0.00486359
0.00493716
0.00500942
0.00508028
0.00514968
0.00521753
0.00528376
0.00534829
0.00541104
0.00547195
0.00553095
0.00558799
0.00564301
0.00569598
0.00574682
0.00579551
0.005842
0.00588624
0.00592822
0.00596789
0.00600522
0.00604016
0.00607271
0.00610284
0.00613055
0.00615585
0.00617873
0.0061992
0.00621727
0.00623295
0.00624627
0.00625729
0.00626605
0.00627262
0.00627704
0.00627938
0.0062797
0.00627808
0.00627459
0.0062693
0.0062623
0.00625366
0.00624346
0.00623176
0.00621863
0.00620414
0.00618835
0.00617129
0.00615299
0.00613343
0.00611276
0.00609109
0.00606635
0.0060365
0.000206465
0.000176831
0.000152587
0.000131709
0.000112084
9.38091e-05
7.69836e-05
6.15638e-05
4.75234e-05
3.48529e-05
2.35416e-05