/*--------------------------------*- C++ -*----------------------------------*\
  =========                 |
  \\      /  F ield         | OpenFOAM: The Open Source CFD Toolbox
   \\    /   O peration     | Website:  https://openfoam.org
    \\  /    A nd           | Version:  7
     \\/     M anipulation  |
\*---------------------------------------------------------------------------*/
FoamFile
{
    version     2.0;
    format      ascii;
    class       surfaceScalarField;
    location    "0.075";
    object      phi;
}
// * * * * * * * * * * * * * * * * * * * * * * * * * * * * * * * * * * * * * //

dimensions      [0 3 -1 0 0 0 0];

internalField   nonuniform List<scalar> 
50880
(
1.28446e-11
-1.28347e-11
3.02824e-11
-1.74382e-11
4.12276e-11
-1.09441e-11
3.8537e-11
2.69132e-12
1.9959e-11
1.85766e-11
-1.50279e-11
3.49856e-11
-6.5893e-11
5.08663e-11
-1.31526e-10
6.56342e-11
-2.10533e-10
7.90094e-11
-3.01422e-10
9.08922e-11
-4.0275e-10
1.01329e-10
-5.13145e-10
1.10393e-10
-6.31304e-10
1.18158e-10
-7.56012e-10
1.24709e-10
-8.86162e-10
1.30151e-10
-1.02077e-09
1.34607e-10
-1.15897e-09
1.38204e-10
-1.30001e-09
1.41036e-10
-1.4432e-09
1.43183e-10
-1.58793e-09
1.44733e-10
-1.73369e-09
1.45766e-10
-1.88005e-09
1.46356e-10
-2.02663e-09
1.46579e-10
-2.17313e-09
1.46495e-10
-2.31927e-09
1.46141e-10
-2.46482e-09
1.45553e-10
-2.60959e-09
1.44768e-10
-2.75342e-09
1.43824e-10
-2.89616e-09
1.42743e-10
-3.03771e-09
1.41549e-10
-3.17797e-09
1.4026e-10
-3.31686e-09
1.38886e-10
-3.45429e-09
1.3743e-10
-3.59019e-09
1.35901e-10
-3.7245e-09
1.34312e-10
-3.85718e-09
1.32675e-10
-3.98816e-09
1.30989e-10
-4.11741e-09
1.29247e-10
-4.24486e-09
1.27446e-10
-4.37045e-09
1.25595e-10
-4.49415e-09
1.237e-10
-4.61591e-09
1.21763e-10
-4.73569e-09
1.19778e-10
-4.85344e-09
1.17742e-10
-4.96909e-09
1.15652e-10
-5.08261e-09
1.13514e-10
-5.19394e-09
1.11332e-10
-5.30304e-09
1.09105e-10
-5.40987e-09
1.06829e-10
-5.51437e-09
1.04501e-10
-5.6165e-09
1.02122e-10
-5.71619e-09
9.9695e-11
-5.81341e-09
9.72226e-11
-5.90812e-09
9.47058e-11
-6.00026e-09
9.21421e-11
-6.08979e-09
8.95286e-11
-6.17665e-09
8.68656e-11
-6.26081e-09
8.4157e-11
-6.34222e-09
8.14064e-11
-6.42083e-09
7.86138e-11
-6.4966e-09
7.57762e-11
-6.5695e-09
7.28918e-11
-6.63946e-09
6.9962e-11
-6.70645e-09
6.69904e-11
-6.77043e-09
6.39798e-11
-6.83136e-09
6.093e-11
-6.88919e-09
5.78388e-11
-6.9439e-09
5.47051e-11
-6.99542e-09
5.15305e-11
-7.04374e-09
4.8318e-11
-7.08881e-09
4.50699e-11
-7.1306e-09
4.17865e-11
-7.16907e-09
3.84673e-11
-7.20418e-09
3.51125e-11
-7.2359e-09
3.17234e-11
-7.2642e-09
2.83023e-11
-7.28905e-09
2.48506e-11
-7.31042e-09
2.13691e-11
-7.32828e-09
1.78583e-11
-7.3426e-09
1.43196e-11
-7.35335e-09
1.07551e-11
-7.36052e-09
7.16669e-12
-7.36407e-09
3.55549e-12
-7.36399e-09
-7.75741e-14
-7.36026e-09
-3.73109e-12
-7.35286e-09
-7.40391e-12
-7.34176e-09
-1.10938e-11
-7.32697e-09
-1.47981e-11
-7.30845e-09
-1.85149e-11
-7.28621e-09
-2.22432e-11
-7.26023e-09
-2.59819e-11
-7.2305e-09
-2.97297e-11
-7.19701e-09
-3.3484e-11
-7.15977e-09
-3.72421e-11
-7.11877e-09
-4.1002e-11
-7.07401e-09
-4.47618e-11
-7.02549e-09
-4.85195e-11
-6.97321e-09
-5.22739e-11
-6.91719e-09
-5.60234e-11
-6.85742e-09
-5.97654e-11
-6.79393e-09
-6.34965e-11
-6.72671e-09
-6.72139e-11
-6.6558e-09
-7.09156e-11
-6.5812e-09
-7.45997e-11
-6.50294e-09
-7.82644e-11
-6.42103e-09
-8.19069e-11
-6.33551e-09
-8.55245e-11
-6.24639e-09
-8.91146e-11
-6.15372e-09
-9.26748e-11
-6.05752e-09
-9.62028e-11
-5.95782e-09
-9.96962e-11
-5.85467e-09
-1.03152e-10
-5.7481e-09
-1.06569e-10
-5.63815e-09
-1.09944e-10
-5.52488e-09
-1.13275e-10
-5.40832e-09
-1.16559e-10
-5.28853e-09
-1.19794e-10
-5.16555e-09
-1.22977e-10
-5.03945e-09
-1.26104e-10
-4.91027e-09
-1.29173e-10
-4.77809e-09
-1.3218e-10
-4.64297e-09
-1.35124e-10
-4.50497e-09
-1.38e-10
-4.36416e-09
-1.40804e-10
-4.22063e-09
-1.4353e-10
-4.07446e-09
-1.46172e-10
-3.92574e-09
-1.48723e-10
-3.77456e-09
-1.51174e-10
-3.62105e-09
-1.53514e-10
-3.46532e-09
-1.55729e-10
-3.30752e-09
-1.57805e-10
-3.14779e-09
-1.59724e-10
-2.98633e-09
-1.61463e-10
-2.82333e-09
-1.62998e-10
-2.65903e-09
-1.64297e-10
-2.49371e-09
-1.65326e-10
-2.32766e-09
-1.66044e-10
-2.16126e-09
-1.66402e-10
-1.99491e-09
-1.66348e-10
-1.82909e-09
-1.65821e-10
-1.66434e-09
-1.64754e-10
-1.50127e-09
-1.63072e-10
-1.34057e-09
-1.60692e-10
-1.18305e-09
-1.57523e-10
-1.02958e-09
-1.5347e-10
-8.81152e-10
-1.4843e-10
-7.38859e-10
-1.42293e-10
-6.03909e-10
-1.3495e-10
-4.77618e-10
-1.2629e-10
-3.61411e-10
-1.16208e-10
-2.56803e-10
-1.04608e-10
-1.65381e-10
-9.14211e-11
-8.87588e-11
-7.66221e-11
-2.84903e-11
-6.02691e-11
1.4084e-11
-4.25746e-11
3.81312e-11
-2.4047e-11
4.38785e-11
-5.74746e-12
3.36704e-11
1.0208e-11
1.41443e-11
1.95266e-11
1.41438e-11
2.04001e-11
-3.32353e-11
3.86467e-11
-3.56861e-11
3.46043e-11
-6.90181e-12
-2.07339e-12
3.93712e-11
-7.72442e-11
9.37501e-11
-1.92804e-10
1.50546e-10
-3.48162e-10
2.06224e-10
-5.4129e-10
2.5876e-10
-7.69315e-10
3.07032e-10
-1.02894e-09
3.50521e-10
-1.31672e-09
3.89106e-10
-1.62921e-09
4.22883e-10
-1.96312e-09
4.52065e-10
-2.31534e-09
4.76931e-10
-2.68301e-09
4.97812e-10
-3.06347e-09
5.15078e-10
-3.45437e-09
5.29102e-10
-3.85357e-09
5.40233e-10
-4.25918e-09
5.488e-10
-4.66956e-09
5.55111e-10
-5.08325e-09
5.59458e-10
-5.499e-09
5.62105e-10
-5.91572e-09
5.63299e-10
-6.33248e-09
5.63252e-10
-6.74848e-09
5.6214e-10
-7.16305e-09
5.60116e-10
-7.5756e-09
5.5732e-10
-7.98564e-09
5.5387e-10
-8.39276e-09
5.49863e-10
-8.79659e-09
5.45381e-10
-9.19683e-09
5.40493e-10
-9.59319e-09
5.35251e-10
-9.98546e-09
5.29692e-10
-1.03734e-08
5.23846e-10
-1.07568e-08
5.17746e-10
-1.11356e-08
5.11418e-10
-1.15095e-08
5.04874e-10
-1.18783e-08
4.98118e-10
-1.22421e-08
4.91155e-10
-1.26005e-08
4.83993e-10
-1.29534e-08
4.76641e-10
-1.33007e-08
4.69101e-10
-1.36423e-08
4.61373e-10
-1.3978e-08
4.53453e-10
-1.43077e-08
4.45341e-10
-1.46313e-08
4.3704e-10
-1.49485e-08
4.28552e-10
-1.52593e-08
4.19881e-10
-1.55635e-08
4.11024e-10
-1.58609e-08
4.01978e-10
-1.61515e-08
3.92744e-10
-1.64352e-08
3.83323e-10
-1.67117e-08
3.7372e-10
-1.69809e-08
3.63939e-10
-1.72427e-08
3.53979e-10
-1.74971e-08
3.43839e-10
-1.77437e-08
3.3352e-10
-1.79826e-08
3.23024e-10
-1.82135e-08
3.12357e-10
-1.84364e-08
3.01523e-10
-1.86512e-08
2.90522e-10
-1.88576e-08
2.79355e-10
-1.90557e-08
2.68021e-10
-1.92452e-08
2.56525e-10
-1.94261e-08
2.44872e-10
-1.95983e-08
2.33064e-10
-1.97615e-08
2.21104e-10
-1.99158e-08
2.08992e-10
-2.0061e-08
1.96733e-10
-2.0197e-08
1.84328e-10
-2.03237e-08
1.71784e-10
-2.0441e-08
1.59102e-10
-2.05489e-08
1.46287e-10
-2.06471e-08
1.33342e-10
-2.07356e-08
1.20272e-10
-2.08144e-08
1.07081e-10
-2.08833e-08
9.37739e-11
-2.09423e-08
8.03558e-11
-2.09913e-08
6.68307e-11
-2.10302e-08
5.32039e-11
-2.10589e-08
3.94812e-11
-2.10774e-08
2.56685e-11
-2.10856e-08
1.17712e-11
-2.10835e-08
-2.20578e-12
-2.1071e-08
-1.62561e-11
-2.1048e-08
-3.03732e-11
-2.10145e-08
-4.4551e-11
-2.09706e-08
-5.87827e-11
-2.0916e-08
-7.30614e-11
-2.08509e-08
-8.73807e-11
-2.07751e-08
-1.01734e-10
-2.06887e-08
-1.16116e-10
-2.05917e-08
-1.30518e-10
-2.0484e-08
-1.44933e-10
-2.03657e-08
-1.59353e-10
-2.02366e-08
-1.73771e-10
-2.0097e-08
-1.88178e-10
-1.99467e-08
-2.02568e-10
-1.97858e-08
-2.16932e-10
-1.96143e-08
-2.31262e-10
-1.94322e-08
-2.45549e-10
-1.92397e-08
-2.59784e-10
-1.90366e-08
-2.73956e-10
-1.88232e-08
-2.88058e-10
-1.85994e-08
-3.02081e-10
-1.83652e-08
-3.16016e-10
-1.81209e-08
-3.29853e-10
-1.78664e-08
-3.43583e-10
-1.76019e-08
-3.57196e-10
-1.73274e-08
-3.70683e-10
-1.70431e-08
-3.84036e-10
-1.6749e-08
-3.97245e-10
-1.64453e-08
-4.103e-10
-1.6132e-08
-4.23192e-10
-1.58094e-08
-4.35912e-10
-1.54775e-08
-4.48449e-10
-1.51365e-08
-4.60793e-10
-1.47866e-08
-4.72934e-10
-1.44278e-08
-4.8486e-10
-1.40604e-08
-4.96561e-10
-1.36846e-08
-5.08024e-10
-1.33005e-08
-5.19234e-10
-1.29083e-08
-5.30177e-10
-1.25082e-08
-5.40835e-10
-1.21006e-08
-5.51185e-10
-1.16856e-08
-5.61203e-10
-1.12634e-08
-5.70858e-10
-1.08345e-08
-5.80114e-10
-1.03991e-08
-5.88929e-10
-9.95755e-09
-5.97251e-10
-9.51034e-09
-6.05021e-10
-9.05789e-09
-6.12165e-10
-8.60076e-09
-6.186e-10
-8.13953e-09
-6.24226e-10
-7.6749e-09
-6.28925e-10
-7.20766e-09
-6.32563e-10
-6.73872e-09
-6.34985e-10
-6.26911e-09
-6.36013e-10
-5.80001e-09
-6.35448e-10
-5.33277e-09
-6.33063e-10
-4.86892e-09
-6.2861e-10
-4.41018e-09
-6.21814e-10
-3.95849e-09
-6.12375e-10
-3.51605e-09
-5.9997e-10
-3.08526e-09
-5.8426e-10
-2.6688e-09
-5.64887e-10
-2.26961e-09
-5.41486e-10
-1.89086e-09
-5.13695e-10
-1.53598e-09
-4.8117e-10
-1.20858e-09
-4.43607e-10
-9.12415e-10
-4.00774e-10
-6.51267e-10
-3.52569e-10
-4.28791e-10
-2.99099e-10
-2.48238e-10
-2.40822e-10
-1.12036e-10
-1.78775e-10
-2.11149e-11
-1.14969e-10
2.61752e-11
-5.30381e-11
3.57485e-11
6.35514e-13
1.95169e-11
3.57575e-11
3.36611e-11
1.21244e-11
-4.53586e-11
9.85361e-12
-3.34204e-11
-2.97041e-11
3.26545e-11
-1.18778e-10
1.28445e-10
-2.64194e-10
2.39166e-10
-4.68457e-10
3.5481e-10
-7.31074e-10
4.68845e-10
-1.04955e-09
5.77239e-10
-1.42015e-09
6.77634e-10
-1.83843e-09
7.68797e-10
-2.29958e-09
8.50253e-10
-2.7987e-09
9.22006e-10
-3.33099e-09
9.84359e-10
-3.89188e-09
1.03781e-09
-4.47705e-09
1.08299e-09
-5.08256e-09
1.12058e-09
-5.70475e-09
1.1513e-09
-6.34036e-09
1.17585e-09
-6.98647e-09
1.1949e-09
-7.64046e-09
1.20911e-09
-8.30007e-09
1.21906e-09
-8.96328e-09
1.22532e-09
-9.62836e-09
1.22838e-09
-1.02938e-08
1.2287e-09
-1.09583e-08
1.22666e-09
-1.16208e-08
1.22259e-09
-1.22803e-08
1.21679e-09
-1.29359e-08
1.20953e-09
-1.35871e-08
1.201e-09
-1.42331e-08
1.19139e-09
-1.48734e-08
1.18085e-09
-1.55077e-08
1.16949e-09
-1.61354e-08
1.1574e-09
-1.67562e-08
1.14468e-09
-1.73698e-08
1.13137e-09
-1.79759e-08
1.11752e-09
-1.85742e-08
1.10318e-09
-1.91645e-08
1.08835e-09
-1.97464e-08
1.07307e-09
-2.03197e-08
1.05734e-09
-2.08843e-08
1.04119e-09
-2.14398e-08
1.02461e-09
-2.1986e-08
1.00761e-09
-2.25228e-08
9.90195e-10
-2.30498e-08
9.7236e-10
-2.35669e-08
9.54111e-10
-2.40738e-08
9.35452e-10
-2.45703e-08
9.16385e-10
-2.50562e-08
8.96909e-10
-2.55312e-08
8.77025e-10
-2.59952e-08
8.56735e-10
-2.64479e-08
8.36042e-10
-2.68892e-08
8.14952e-10
-2.73187e-08
7.93466e-10
-2.77363e-08
7.7159e-10
-2.81418e-08
7.49326e-10
-2.85349e-08
7.26677e-10
-2.89156e-08
7.03648e-10
-2.92834e-08
6.80246e-10
-2.96384e-08
6.56474e-10
-2.99802e-08
6.32339e-10
-3.03087e-08
6.07845e-10
-3.06237e-08
5.82996e-10
-3.0925e-08
5.578e-10
-3.12123e-08
5.32262e-10
-3.14857e-08
5.06387e-10
-3.17447e-08
4.80182e-10
-3.19894e-08
4.53654e-10
-3.22195e-08
4.26809e-10
-3.24348e-08
3.99656e-10
-3.26352e-08
3.72203e-10
-3.28206e-08
3.44457e-10
-3.29907e-08
3.16425e-10
-3.31455e-08
2.88117e-10
-3.32848e-08
2.59542e-10
-3.34084e-08
2.30711e-10
-3.35162e-08
2.01633e-10
-3.36082e-08
1.72319e-10
-3.36842e-08
1.42779e-10
-3.3744e-08
1.13024e-10
-3.37876e-08
8.30655e-11
-3.38148e-08
5.29167e-11
-3.38256e-08
2.25895e-11
-3.38199e-08
-7.90451e-12
-3.37976e-08
-3.85526e-11
-3.37587e-08
-6.93406e-11
-3.3703e-08
-1.00254e-10
-3.36305e-08
-1.3128e-10
-3.35411e-08
-1.62403e-10
-3.34349e-08
-1.93609e-10
-3.33117e-08
-2.24885e-10
-3.31716e-08
-2.56214e-10
-3.30146e-08
-2.87583e-10
-3.28405e-08
-3.18973e-10
-3.26495e-08
-3.50369e-10
-3.24415e-08
-3.81754e-10
-3.22166e-08
-4.13112e-10
-3.19747e-08
-4.44425e-10
-3.1716e-08
-4.75675e-10
-3.14404e-08
-5.06844e-10
-3.11481e-08
-5.37914e-10
-3.0839e-08
-5.68864e-10
-3.05133e-08
-5.99676e-10
-3.0171e-08
-6.3033e-10
-2.98123e-08
-6.60807e-10
-2.94372e-08
-6.91087e-10
-2.90459e-08
-7.2115e-10
-2.86385e-08
-7.50976e-10
-2.82152e-08
-7.80545e-10
-2.7776e-08
-8.09837e-10
-2.73212e-08
-8.38833e-10
-2.68509e-08
-8.67511e-10
-2.63654e-08
-8.95851e-10
-2.58648e-08
-9.23832e-10
-2.53492e-08
-9.51432e-10
-2.4819e-08
-9.78632e-10
-2.42744e-08
-1.00541e-09
-2.37156e-08
-1.03174e-09
-2.31429e-08
-1.05759e-09
-2.25565e-08
-1.08295e-09
-2.19567e-08
-1.10779e-09
-2.13439e-08
-1.13206e-09
-2.07184e-08
-1.15574e-09
-2.00804e-08
-1.17879e-09
-1.94304e-08
-1.20115e-09
-1.87689e-08
-1.22278e-09
-1.80961e-08
-1.24359e-09
-1.74127e-08
-1.26352e-09
-1.67192e-08
-1.28246e-09
-1.60161e-08
-1.3003e-09
-1.53043e-08
-1.31691e-09
-1.45843e-08
-1.33214e-09
-1.38571e-08
-1.34579e-09
-1.31237e-08
-1.35764e-09
-1.23852e-08
-1.36745e-09
-1.16428e-08
-1.37491e-09
-1.08981e-08
-1.37971e-09
-1.01526e-08
-1.38146e-09
-9.40836e-09
-1.37973e-09
-8.66737e-09
-1.37405e-09
-7.9321e-09
-1.36389e-09
-7.20524e-09
-1.34867e-09
-6.48983e-09
-1.32779e-09
-5.78923e-09
-1.30057e-09
-5.10717e-09
-1.26632e-09
-4.44773e-09
-1.22433e-09
-3.81533e-09
-1.17389e-09
-3.21473e-09
-1.11429e-09
-2.65097e-09
-1.04492e-09
-2.12933e-09
-9.65252e-10
-1.65515e-09
-8.74956e-10
-1.23371e-09
-7.74009e-10
-8.69946e-10
-6.62862e-10
-5.68065e-10
-5.42702e-10
-3.3098e-10
-4.1586e-10
-1.59507e-10
-2.86442e-10
-5.12377e-11
-1.61306e-10
7.88531e-13
-5.13908e-11
1.02414e-11
2.63052e-11
4.39024e-11
-1.87812e-12
-4.34768e-11
-3.73329e-11
2.03473e-12
-1.26015e-10
1.21335e-10
-2.79621e-10
2.82054e-10
-5.04623e-10
4.64167e-10
-8.03413e-10
6.53597e-10
-1.1753e-09
8.40736e-10
-1.61743e-09
1.01937e-09
-2.12546e-09
1.18567e-09
-2.69416e-09
1.33749e-09
-3.31776e-09
1.47385e-09
-3.99034e-09
1.59458e-09
-4.70598e-09
1.7e-09
-5.45898e-09
1.79082e-09
-6.24394e-09
1.86795e-09
-7.0558e-09
1.93244e-09
-7.8899e-09
1.9854e-09
-8.74203e-09
2.02797e-09
-9.60836e-09
2.06124e-09
-1.04855e-08
2.08626e-09
-1.13705e-08
2.10401e-09
-1.22606e-08
2.11541e-09
-1.31535e-08
2.12128e-09
-1.40471e-08
2.12238e-09
-1.49398e-08
2.11937e-09
-1.58301e-08
2.11281e-09
-1.67165e-08
2.10322e-09
-1.7598e-08
2.09103e-09
-1.84736e-08
2.07659e-09
-1.93424e-08
2.06023e-09
-2.02038e-08
2.04219e-09
-2.1057e-08
2.02269e-09
-2.19015e-08
2.00189e-09
-2.27367e-08
1.97993e-09
-2.35623e-08
1.95692e-09
-2.43777e-08
1.93295e-09
-2.51826e-08
1.90808e-09
-2.59766e-08
1.88236e-09
-2.67594e-08
1.85583e-09
-2.75306e-08
1.82852e-09
-2.82898e-08
1.80044e-09
-2.90368e-08
1.77161e-09
-2.97712e-08
1.74205e-09
-3.04928e-08
1.71176e-09
-3.12012e-08
1.68074e-09
-3.18961e-08
1.649e-09
-3.25772e-08
1.61655e-09
-3.32442e-08
1.58339e-09
-3.38968e-08
1.54953e-09
-3.45347e-08
1.51496e-09
-3.51577e-08
1.47969e-09
-3.57654e-08
1.44373e-09
-3.63575e-08
1.40708e-09
-3.69338e-08
1.36975e-09
-3.74939e-08
1.33174e-09
-3.80377e-08
1.29307e-09
-3.85647e-08
1.25374e-09
-3.90748e-08
1.21375e-09
-3.95677e-08
1.17312e-09
-4.00431e-08
1.13186e-09
-4.05007e-08
1.08997e-09
-4.09404e-08
1.04747e-09
-4.13617e-08
1.00436e-09
-4.17646e-08
9.60657e-10
-4.21487e-08
9.16367e-10
-4.25138e-08
8.71502e-10
-4.28597e-08
8.26076e-10
-4.31861e-08
7.80099e-10
-4.34929e-08
7.33584e-10
-4.37798e-08
6.86543e-10
-4.40466e-08
6.38991e-10
-4.42931e-08
5.90943e-10
-4.45191e-08
5.42413e-10
-4.47244e-08
4.93416e-10
-4.49088e-08
4.43968e-10
-4.50722e-08
3.94087e-10
-4.52143e-08
3.43789e-10
-4.53351e-08
2.93092e-10
-4.54343e-08
2.42016e-10
-4.55119e-08
1.90579e-10
-4.55676e-08
1.38801e-10
-4.56014e-08
8.67027e-11
-4.56131e-08
3.4305e-11
-4.56027e-08
-1.83701e-11
-4.55699e-08
-7.13012e-11
-4.55148e-08
-1.24465e-10
-4.54372e-08
-1.77837e-10
-4.53371e-08
-2.31394e-10
-4.52144e-08
-2.85111e-10
-4.5069e-08
-3.38963e-10
-4.4901e-08
-3.92926e-10
-4.47102e-08
-4.46972e-10
-4.44967e-08
-5.01076e-10
-4.42605e-08
-5.55209e-10
-4.40015e-08
-6.09343e-10
-4.37198e-08
-6.6345e-10
-4.34154e-08
-7.175e-10
-4.30884e-08
-7.71464e-10
-4.27388e-08
-8.25312e-10
-4.23666e-08
-8.7901e-10
-4.1972e-08
-9.32528e-10
-4.1555e-08
-9.85834e-10
-4.11158e-08
-1.03889e-09
-4.06544e-08
-1.09167e-09
-4.01711e-08
-1.14414e-09
-3.96659e-08
-1.19626e-09
-3.91391e-08
-1.248e-09
-3.85907e-08
-1.29933e-09
-3.80211e-08
-1.35021e-09
-3.74303e-08
-1.40061e-09
-3.68186e-08
-1.45049e-09
-3.61863e-08
-1.49981e-09
-3.55336e-08
-1.54855e-09
-3.48608e-08
-1.59666e-09
-3.41681e-08
-1.64411e-09
-3.34559e-08
-1.69087e-09
-3.27244e-08
-1.73688e-09
-3.1974e-08
-1.78212e-09
-3.12051e-08
-1.82653e-09
-3.0418e-08
-1.87008e-09
-2.96131e-08
-1.91271e-09
-2.87907e-08
-1.95436e-09
-2.79515e-08
-1.99498e-09
-2.70958e-08
-2.03448e-09
-2.62242e-08
-2.07278e-09
-2.53372e-08
-2.10978e-09
-2.44354e-08
-2.14536e-09
-2.35196e-08
-2.17937e-09
-2.25904e-08
-2.21166e-09
-2.16487e-08
-2.24202e-09
-2.06953e-08
-2.27022e-09
-1.97315e-08
-2.29599e-09
-1.87583e-08
-2.319e-09
-1.77771e-08
-2.33887e-09
-1.67893e-08
-2.35519e-09
-1.57968e-08
-2.36744e-09
-1.48014e-08
-2.37506e-09
-1.38055e-08
-2.37742e-09
-1.28114e-08
-2.37379e-09
-1.18221e-08
-2.36338e-09
-1.08407e-08
-2.34531e-09
-9.87069e-09
-2.31864e-09
-8.91615e-09
-2.28233e-09
-7.98139e-09
-2.23533e-09
-7.07121e-09
-2.17649e-09
-6.19084e-09
-2.1047e-09
-5.34589e-09
-2.01883e-09
-4.54236e-09
-1.91783e-09
-3.78651e-09
-1.80076e-09
-3.08484e-09
-1.66693e-09
-2.44383e-09
-1.51596e-09
-1.8698e-09
-1.34804e-09
-1.36854e-09
-1.16412e-09
-9.449e-10
-9.66346e-10
-6.02186e-10
-7.58575e-10
-3.4142e-10
-5.47207e-10
-1.60374e-10
-3.42352e-10
-5.24732e-11
-1.59292e-10
-5.59468e-12
-2.05733e-11
3.83075e-11
-1.83882e-11
-2.50887e-11
-9.28098e-11
7.64592e-11
-2.37942e-10
2.66467e-10
-4.63028e-10
5.07141e-10
-7.7308e-10
7.74223e-10
-1.16962e-09
1.05014e-09
-1.65139e-09
1.3225e-09
-2.21501e-09
1.58299e-09
-2.85562e-09
1.82628e-09
-3.56736e-09
2.04923e-09
-4.34379e-09
2.25028e-09
-5.17819e-09
2.42898e-09
-6.06384e-09
2.58565e-09
-6.99417e-09
2.72115e-09
-7.96293e-09
2.8367e-09
-8.96421e-09
2.93372e-09
-9.99256e-09
3.01374e-09
-1.1043e-08
3.07836e-09
-1.21108e-08
3.12914e-09
-1.31922e-08
3.16758e-09
-1.42833e-08
3.19512e-09
-1.5381e-08
3.21308e-09
-1.64824e-08
3.22268e-09
-1.7585e-08
3.22501e-09
-1.86867e-08
3.22105e-09
-1.97855e-08
3.21168e-09
-2.08799e-08
3.19762e-09
-2.19684e-08
3.17954e-09
-2.30498e-08
3.15798e-09
-2.4123e-08
3.13342e-09
-2.51871e-08
3.10624e-09
-2.62411e-08
3.07676e-09
-2.72845e-08
3.04525e-09
-2.83165e-08
3.01192e-09
-2.93365e-08
2.97694e-09
-3.0344e-08
2.94045e-09
-3.13385e-08
2.90254e-09
-3.23194e-08
2.86331e-09
-3.32864e-08
2.82282e-09
-3.4239e-08
2.78111e-09
-3.51768e-08
2.73821e-09
-3.60993e-08
2.69416e-09
-3.70062e-08
2.64897e-09
-3.78971e-08
2.60266e-09
-3.87716e-08
2.55524e-09
-3.96294e-08
2.50672e-09
-4.04699e-08
2.45711e-09
-4.12929e-08
2.40642e-09
-4.20981e-08
2.35465e-09
-4.28849e-08
2.30181e-09
-4.36532e-08
2.24792e-09
-4.44024e-08
2.19297e-09
-4.51323e-08
2.13697e-09
-4.58425e-08
2.07995e-09
-4.65327e-08
2.0219e-09
-4.72024e-08
1.96285e-09
-4.78515e-08
1.90279e-09
-4.84795e-08
1.84175e-09
-4.90861e-08
1.77973e-09
-4.9671e-08
1.71676e-09
-5.02339e-08
1.65285e-09
-5.07744e-08
1.588e-09
-5.12923e-08
1.52224e-09
-5.17872e-08
1.45559e-09
-5.22589e-08
1.38805e-09
-5.2707e-08
1.31965e-09
-5.31314e-08
1.25041e-09
-5.35316e-08
1.18034e-09
-5.39075e-08
1.10946e-09
-5.42587e-08
1.0378e-09
-5.45851e-08
9.65373e-10
-5.48864e-08
8.92204e-10
-5.51623e-08
8.18316e-10
-5.54126e-08
7.43733e-10
-5.56371e-08
6.68479e-10
-5.58356e-08
5.92579e-10
-5.60079e-08
5.16059e-10
-5.61537e-08
4.38948e-10
-5.6273e-08
3.61273e-10
-5.63655e-08
2.83064e-10
-5.6431e-08
2.04351e-10
-5.64695e-08
1.25165e-10
-5.64807e-08
4.55365e-11
-5.64646e-08
-3.45001e-11
-5.6421e-08
-1.14911e-10
-5.63498e-08
-1.95663e-10
-5.62509e-08
-2.76719e-10
-5.61242e-08
-3.58043e-10
-5.59697e-08
-4.39598e-10
-5.57874e-08
-5.21346e-10
-5.5577e-08
-6.03249e-10
-5.53387e-08
-6.85267e-10
-5.50725e-08
-7.67359e-10
-5.47782e-08
-8.49483e-10
-5.44559e-08
-9.31597e-10
-5.41057e-08
-1.01366e-09
-5.37276e-08
-1.09562e-09
-5.33216e-08
-1.17744e-09
-5.28879e-08
-1.25907e-09
-5.24264e-08
-1.34046e-09
-5.19374e-08
-1.42157e-09
-5.14209e-08
-1.50234e-09
-5.0877e-08
-1.58273e-09
-5.0306e-08
-1.66269e-09
-4.9708e-08
-1.74217e-09
-4.90831e-08
-1.82111e-09
-4.84317e-08
-1.89947e-09
-4.77538e-08
-1.97719e-09
-4.70498e-08
-2.05422e-09
-4.63199e-08
-2.13051e-09
-4.55644e-08
-2.20601e-09
-4.47835e-08
-2.28066e-09
-4.39777e-08
-2.35441e-09
-4.31471e-08
-2.42721e-09
-4.22923e-08
-2.49899e-09
-4.14134e-08
-2.56971e-09
-4.0511e-08
-2.6393e-09
-3.95854e-08
-2.70769e-09
-3.86371e-08
-2.77483e-09
-3.76666e-08
-2.84064e-09
-3.66742e-08
-2.90504e-09
-3.56607e-08
-2.96794e-09
-3.46264e-08
-3.02924e-09
-3.35721e-08
-3.08882e-09
-3.24983e-08
-3.14656e-09
-3.14058e-08
-3.20229e-09
-3.02953e-08
-3.25583e-09
-2.91677e-08
-3.30697e-09
-2.80239e-08
-3.35544e-09
-2.6865e-08
-3.40094e-09
-2.56921e-08
-3.44312e-09
-2.45065e-08
-3.48156e-09
-2.33097e-08
-3.51577e-09
-2.21034e-08
-3.54519e-09
-2.08895e-08
-3.56916e-09
-1.96699e-08
-3.58696e-09
-1.84473e-08
-3.59772e-09
-1.72242e-08
-3.6005e-09
-1.60038e-08
-3.59423e-09
-1.47894e-08
-3.57776e-09
-1.35849e-08
-3.54978e-09
-1.23946e-08
-3.50893e-09
-1.12232e-08
-3.45372e-09
-1.0076e-08
-3.38261e-09
-8.95845e-09
-3.29401e-09
-7.87684e-09
-3.18632e-09
-6.83768e-09
-3.05799e-09
-5.84792e-09
-2.90759e-09
-4.91477e-09
-2.73392e-09
-4.04559e-09
-2.5361e-09
-3.24774e-09
-2.31382e-09
-2.52826e-09
-2.06752e-09
-1.89361e-09
-1.79877e-09
-1.3492e-09
-1.51076e-09
-8.98879e-10
-1.2089e-09
-5.44298e-10
-9.01787e-10
-2.84204e-10
-6.02447e-10
-1.13717e-10
-3.29779e-10
-2.36868e-11
-1.10604e-10
1.46205e-11
-3.5189e-11
1.00988e-11
-1.50587e-10
1.91858e-10
-3.55107e-10
4.70986e-10
-6.5458e-10
8.06613e-10
-1.05179e-09
1.17143e-09
-1.5468e-09
1.54515e-09
-2.13739e-09
1.91309e-09
-2.81949e-09
2.26508e-09
-3.58761e-09
2.5944e-09
-4.43535e-09
2.89697e-09
-5.35569e-09
3.17062e-09
-6.34132e-09
3.4146e-09
-7.38487e-09
3.6292e-09
-8.47914e-09
3.81542e-09
-9.61719e-09
3.97475e-09
-1.07925e-08
4.109e-09
-1.19989e-08
4.22014e-09
-1.32308e-08
4.31024e-09
-1.4483e-08
4.38135e-09
-1.57509e-08
4.43549e-09
-1.70303e-08
4.47456e-09
-1.83176e-08
4.50035e-09
-1.96094e-08
4.51449e-09
-2.09029e-08
4.51847e-09
-2.21954e-08
4.51362e-09
-2.34849e-08
4.50114e-09
-2.47693e-08
4.48204e-09
-2.6047e-08
4.45723e-09
-2.73165e-08
4.42747e-09
-2.85765e-08
4.39342e-09
-2.98259e-08
4.35561e-09
-3.10636e-08
4.3145e-09
-3.22888e-08
4.27047e-09
-3.35007e-08
4.22381e-09
-3.46985e-08
4.17478e-09
-3.58817e-08
4.12357e-09
-3.70494e-08
4.07032e-09
-3.82013e-08
4.01517e-09
-3.93367e-08
3.95821e-09
-4.04551e-08
3.8995e-09
-4.1556e-08
3.83911e-09
-4.26389e-08
3.77707e-09
-4.37034e-08
3.71342e-09
-4.47489e-08
3.64819e-09
-4.5775e-08
3.58138e-09
-4.67814e-08
3.51303e-09
-4.77674e-08
3.44314e-09
-4.87327e-08
3.37173e-09
-4.96769e-08
3.29881e-09
-5.05994e-08
3.22438e-09
-5.15e-08
3.14848e-09
-5.23781e-08
3.0711e-09
-5.32334e-08
2.99226e-09
-5.40654e-08
2.91198e-09
-5.48738e-08
2.83027e-09
-5.56581e-08
2.74715e-09
-5.6418e-08
2.66264e-09
-5.7153e-08
2.57676e-09
-5.78628e-08
2.48952e-09
-5.85469e-08
2.40094e-09
-5.92051e-08
2.31105e-09
-5.9837e-08
2.21987e-09
-6.04422e-08
2.12742e-09
-6.10203e-08
2.03372e-09
-6.15711e-08
1.9388e-09
-6.20941e-08
1.84268e-09
-6.25891e-08
1.7454e-09
-6.30557e-08
1.64697e-09
-6.34937e-08
1.54743e-09
-6.39027e-08
1.4468e-09
-6.42824e-08
1.34512e-09
-6.46326e-08
1.24241e-09
-6.4953e-08
1.13871e-09
-6.52433e-08
1.03406e-09
-6.55033e-08
9.28477e-10
-6.57328e-08
8.22011e-10
-6.59314e-08
7.14695e-10
-6.6099e-08
6.06568e-10
-6.62354e-08
4.97669e-10
-6.63404e-08
3.88039e-10
-6.64138e-08
2.77722e-10
-6.64554e-08
1.66759e-10
-6.6465e-08
5.51947e-11
-6.64426e-08
-5.69246e-11
-6.6388e-08
-1.69551e-10
-6.6301e-08
-2.82637e-10
-6.61816e-08
-3.96133e-10
-6.60296e-08
-5.09988e-10
-6.58451e-08
-6.24149e-10
-6.56279e-08
-7.38566e-10
-6.53779e-08
-8.53182e-10
-6.50952e-08
-9.67943e-10
-6.47798e-08
-1.08279e-09
-6.44316e-08
-1.19767e-09
-6.40507e-08
-1.31252e-09
-6.36371e-08
-1.42727e-09
-6.31908e-08
-1.54188e-09
-6.2712e-08
-1.65626e-09
-6.22007e-08
-1.77037e-09
-6.1657e-08
-1.88413e-09
-6.10811e-08
-1.99748e-09
-6.04731e-08
-2.11035e-09
-5.98332e-08
-2.22267e-09
-5.91615e-08
-2.33438e-09
-5.84583e-08
-2.44539e-09
-5.77237e-08
-2.55565e-09
-5.69581e-08
-2.66508e-09
-5.61617e-08
-2.77361e-09
-5.53347e-08
-2.88117e-09
-5.44776e-08
-2.98768e-09
-5.35905e-08
-3.09307e-09
-5.26739e-08
-3.19726e-09
-5.17282e-08
-3.30018e-09
-5.07536e-08
-3.40176e-09
-4.97507e-08
-3.50191e-09
-4.87198e-08
-3.60056e-09
-4.76615e-08
-3.69761e-09
-4.65762e-08
-3.79299e-09
-4.54645e-08
-3.88658e-09
-4.43268e-08
-3.9783e-09
-4.31638e-08
-4.06803e-09
-4.19761e-08
-4.15563e-09
-4.07644e-08
-4.24097e-09
-3.95293e-08
-4.32388e-09
-3.82717e-08
-4.40417e-09
-3.69924e-08
-4.48162e-09
-3.56923e-08
-4.55596e-09
-3.43724e-08
-4.62688e-09
-3.30338e-08
-4.69403e-09
-3.16777e-08
-4.75698e-09
-3.03056e-08
-4.81523e-09
-2.8919e-08
-4.86819e-09
-2.75196e-08
-4.91519e-09
-2.61093e-08
-4.95545e-09
-2.46904e-08
-4.98807e-09
-2.32653e-08
-5.01202e-09
-2.18369e-08
-5.02614e-09
-2.04083e-08
-5.02914e-09
-1.8983e-08
-5.01956e-09
-1.75649e-08
-4.99582e-09
-1.61585e-08
-4.9562e-09
-1.47686e-08
-4.89882e-09
-1.34006e-08
-4.82173e-09
-1.20603e-08
-4.72287e-09
-1.07542e-08
-4.60015e-09
-9.489e-09
-4.45149e-09
-8.27209e-09
-4.2749e-09
-7.11109e-09
-4.06859e-09
-6.01394e-09
-3.83107e-09
-4.98868e-09
-3.56136e-09
-4.04332e-09
-3.25919e-09
-3.18551e-09
-2.92533e-09
-2.4223e-09
-2.56198e-09
-1.75973e-09
-2.17333e-09
-1.2024e-09
-1.76623e-09
-7.52996e-10
-1.35119e-09
-4.11857e-10
-9.43585e-10
-1.76588e-10
-5.65048e-10
-4.19223e-11
-2.45271e-10
-2.7302e-11
-5.13045e-11
6.14041e-11
-2.07261e-10
3.47816e-10
-4.71097e-10
7.34822e-10
-8.44837e-10
1.18035e-09
-1.32861e-09
1.6552e-09
-1.92064e-09
2.13719e-09
-2.61742e-09
2.60988e-09
-3.41396e-09
3.06161e-09
-4.30409e-09
3.48453e-09
-5.28079e-09
3.87367e-09
-6.33652e-09
4.22635e-09
-7.46345e-09
4.54154e-09
-8.65373e-09
4.81948e-09
-9.89962e-09
5.06131e-09
-1.11937e-08
5.26879e-09
-1.25288e-08
5.44412e-09
-1.38984e-08
5.58973e-09
-1.52963e-08
5.70815e-09
-1.67169e-08
5.80197e-09
-1.81551e-08
5.87371e-09
-1.96063e-08
5.92578e-09
-2.10664e-08
5.96046e-09
-2.25318e-08
5.97983e-09
-2.39991e-08
5.98581e-09
-2.54656e-08
5.98011e-09
-2.69287e-08
5.96426e-09
-2.83863e-08
5.9396e-09
-2.98364e-08
5.90731e-09
-3.12773e-08
5.86837e-09
-3.27075e-08
5.82366e-09
-3.41258e-08
5.77388e-09
-3.55309e-08
5.71964e-09
-3.69219e-08
5.66143e-09
-3.82977e-08
5.59967e-09
-3.96576e-08
5.53469e-09
-4.10008e-08
5.46674e-09
-4.23265e-08
5.39604e-09
-4.36341e-08
5.32276e-09
-4.49229e-08
5.24702e-09
-4.61924e-08
5.16894e-09
-4.74418e-08
5.08859e-09
-4.86708e-08
5.00602e-09
-4.98787e-08
4.9213e-09
-5.10649e-08
4.83445e-09
-5.2229e-08
4.74551e-09
-5.33705e-08
4.65451e-09
-5.44888e-08
4.56146e-09
-5.55835e-08
4.46638e-09
-5.6654e-08
4.3693e-09
-5.76998e-08
4.27024e-09
-5.87206e-08
4.1692e-09
-5.97157e-08
4.06622e-09
-6.06847e-08
3.96131e-09
-6.16273e-08
3.85449e-09
-6.25428e-08
3.74579e-09
-6.34308e-08
3.63523e-09
-6.4291e-08
3.52282e-09
-6.51229e-08
3.40861e-09
-6.5926e-08
3.29261e-09
-6.66999e-08
3.17485e-09
-6.74442e-08
3.05536e-09
-6.81585e-08
2.93418e-09
-6.88424e-08
2.81132e-09
-6.94955e-08
2.68683e-09
-7.01174e-08
2.56074e-09
-7.07078e-08
2.43307e-09
-7.12663e-08
2.30388e-09
-7.17925e-08
2.17319e-09
-7.22861e-08
2.04104e-09
-7.27468e-08
1.90747e-09
-7.31742e-08
1.77252e-09
-7.3568e-08
1.63624e-09
-7.3928e-08
1.49866e-09
-7.42538e-08
1.35984e-09
-7.45451e-08
1.21982e-09
-7.48018e-08
1.07864e-09
-7.50234e-08
9.36356e-10
-7.52099e-08
7.93021e-10
-7.53609e-08
6.48686e-10
-7.54763e-08
5.03405e-10
-7.55558e-08
3.57234e-10
-7.55992e-08
2.1023e-10
-7.56065e-08
6.24527e-11
-7.55774e-08
-8.60387e-11
-7.55118e-08
-2.35181e-10
-7.54095e-08
-3.8491e-10
-7.52705e-08
-5.35161e-10
-7.50946e-08
-6.85867e-10
-7.48818e-08
-8.36959e-10
-7.4632e-08
-9.88368e-10
-7.43451e-08
-1.14002e-09
-7.40212e-08
-1.29185e-09
-7.36602e-08
-1.44377e-09
-7.32622e-08
-1.59571e-09
-7.28271e-08
-1.74759e-09
-7.23551e-08
-1.89933e-09
-7.18461e-08
-2.05084e-09
-7.13003e-08
-2.20206e-09
-7.07178e-08
-2.35289e-09
-7.00987e-08
-2.50324e-09
-6.94432e-08
-2.65303e-09
-6.87513e-08
-2.80217e-09
-6.80234e-08
-2.95057e-09
-6.72597e-08
-3.09813e-09
-6.64603e-08
-3.24478e-09
-6.56256e-08
-3.3904e-09
-6.47557e-08
-3.53492e-09
-6.38511e-08
-3.67823e-09
-6.2912e-08
-3.82024e-09
-6.19388e-08
-3.96086e-09
-6.09319e-08
-4.09998e-09
-5.98917e-08
-4.23751e-09
-5.88185e-08
-4.37334e-09
-5.77129e-08
-4.50738e-09
-5.65753e-08
-4.63953e-09
-5.54062e-08
-4.76966e-09
-5.42061e-08
-4.89767e-09
-5.29757e-08
-5.02345e-09
-5.17154e-08
-5.14685e-09
-5.04259e-08
-5.26774e-09
-4.9108e-08
-5.38598e-09
-4.77623e-08
-5.50137e-09
-4.63895e-08
-5.61374e-09
-4.49905e-08
-5.72286e-09
-4.35662e-08
-5.82848e-09
-4.21175e-08
-5.93028e-09
-4.06456e-08
-6.02793e-09
-3.91514e-08
-6.12101e-09
-3.76364e-08
-6.20904e-09
-3.61019e-08
-6.29146e-09
-3.45496e-08
-6.36761e-09
-3.2981e-08
-6.43671e-09
-3.13983e-08
-6.49789e-09
-2.98037e-08
-6.55011e-09
-2.81995e-08
-6.59221e-09
-2.65887e-08
-6.62285e-09
-2.49743e-08
-6.64052e-09
-2.33599e-08
-6.64356e-09
-2.17494e-08
-6.63009e-09
-2.01471e-08
-6.59808e-09
-1.8558e-08
-6.54533e-09
-1.69873e-08
-6.46948e-09
-1.5441e-08
-6.36802e-09
-1.39255e-08
-6.23839e-09
-1.24477e-08
-6.07798e-09
-1.10149e-08
-5.88422e-09
-9.63515e-09
-5.65468e-09
-8.31657e-09
-5.38718e-09
-7.06765e-09
-5.07999e-09
-5.89701e-09
-4.732e-09
-4.81318e-09
-4.34302e-09
-3.82439e-09
-3.91411e-09
-2.9383e-09
-3.44807e-09
-2.16169e-09
-2.94994e-09
-1.50012e-09
-2.42779e-09
-9.57664e-10
-1.89365e-09
-5.36625e-10
-1.36462e-09
-2.37521e-10
-8.64153e-10
-5.92609e-11
-4.23531e-10
-8.65629e-11
-6.63305e-11
1.27734e-10
-2.60987e-10
5.42473e-10
-5.82092e-10
1.05593e-09
-1.02785e-09
1.62611e-09
-1.59557e-09
2.22292e-09
-2.28142e-09
2.82304e-09
-3.0804e-09
3.40886e-09
-3.98642e-09
3.96763e-09
-4.99249e-09
4.4906e-09
-6.09096e-09
4.97214e-09
-7.27373e-09
5.40912e-09
-8.53251e-09
5.80032e-09
-9.85901e-09
6.14597e-09
-1.1245e-08
6.44735e-09
-1.26828e-08
6.70651e-09
-1.41647e-08
6.92603e-09
-1.56837e-08
7.10878e-09
-1.72334e-08
7.25783e-09
-1.88077e-08
7.37628e-09
-2.04012e-08
7.46717e-09
-2.20088e-08
7.53344e-09
-2.36262e-08
7.57787e-09
-2.52494e-08
7.60302e-09
-2.68749e-08
7.61125e-09
-2.84995e-08
7.60468e-09
-3.01204e-08
7.58521e-09
-3.17353e-08
7.5545e-09
-3.3342e-08
7.51402e-09
-3.49387e-08
7.46502e-09
-3.65236e-08
7.40858e-09
-3.80953e-08
7.34561e-09
-3.96526e-08
7.27687e-09
-4.11941e-08
7.20299e-09
-4.27189e-08
7.1245e-09
-4.42261e-08
7.04183e-09
-4.57147e-08
6.9553e-09
-4.71838e-08
6.86522e-09
-4.86329e-08
6.77178e-09
-5.0061e-08
6.67517e-09
-5.14676e-08
6.57552e-09
-5.28519e-08
6.47294e-09
-5.42134e-08
6.36752e-09
-5.55515e-08
6.25932e-09
-5.68654e-08
6.1484e-09
-5.81547e-08