/*--------------------------------*- C++ -*----------------------------------*\
  =========                 |
  \\      /  F ield         | OpenFOAM: The Open Source CFD Toolbox
   \\    /   O peration     | Website:  https://openfoam.org
    \\  /    A nd           | Version:  7
     \\/     M anipulation  |
\*---------------------------------------------------------------------------*/
FoamFile
{
    version     2.0;
    format      ascii;
    class       volVectorField;
    location    "0.1125";
    object      U;
}
// * * * * * * * * * * * * * * * * * * * * * * * * * * * * * * * * * * * * * //

dimensions      [0 1 -1 0 0 0 0];

internalField   nonuniform List<vector> 
25600
(
(1.18676e-06 -9.71589e-07 0)
(3.58146e-06 -1.41796e-06 0)
(5.74222e-06 -1.06401e-06 0)
(5.86017e-06 -2.44987e-07 0)
(3.41143e-06 6.94913e-07 0)
(-1.76018e-06 1.60323e-06 0)
(-9.517e-06 2.42603e-06 0)
(-1.96377e-05 3.14599e-06 0)
(-3.18595e-05 3.7589e-06 0)
(-4.59035e-05 4.27297e-06 0)
(-6.15081e-05 4.7075e-06 0)
(-7.8434e-05 5.0757e-06 0)
(-9.64562e-05 5.37535e-06 0)
(-0.000115367 5.60191e-06 0)
(-0.000134983 5.7656e-06 0)
(-0.000155151 5.88889e-06 0)
(-0.000175742 5.98856e-06 0)
(-0.000196645 6.06519e-06 0)
(-0.00021776 6.11122e-06 0)
(-0.000239007 6.12619e-06 0)
(-0.000260318 6.12083e-06 0)
(-0.000281642 6.10797e-06 0)
(-0.000302939 6.09269e-06 0)
(-0.000324174 6.0717e-06 0)
(-0.000345318 6.04015e-06 0)
(-0.000366348 5.9982e-06 0)
(-0.000387246 5.9513e-06 0)
(-0.000408 5.90529e-06 0)
(-0.000428599 5.86144e-06 0)
(-0.000449034 5.81633e-06 0)
(-0.000469295 5.76639e-06 0)
(-0.000489376 5.71168e-06 0)
(-0.000509268 5.65542e-06 0)
(-0.000528968 5.60041e-06 0)
(-0.000548469 5.54641e-06 0)
(-0.000567767 5.49076e-06 0)
(-0.000586853 5.43132e-06 0)
(-0.000605722 5.36855e-06 0)
(-0.000624368 5.30464e-06 0)
(-0.000642785 5.24091e-06 0)
(-0.000660967 5.17658e-06 0)
(-0.000678908 5.10977e-06 0)
(-0.000696599 5.03952e-06 0)
(-0.000714035 4.96663e-06 0)
(-0.000731208 4.89252e-06 0)
(-0.000748112 4.81766e-06 0)
(-0.00076474 4.74117e-06 0)
(-0.000781085 4.66187e-06 0)
(-0.000797139 4.57953e-06 0)
(-0.000812895 4.49494e-06 0)
(-0.000828345 4.40894e-06 0)
(-0.000843483 4.32158e-06 0)
(-0.000858302 4.23209e-06 0)
(-0.000872793 4.13981e-06 0)
(-0.00088695 4.04477e-06 0)
(-0.000900764 3.94765e-06 0)
(-0.00091423 3.84894e-06 0)
(-0.000927338 3.74852e-06 0)
(-0.000940083 3.64578e-06 0)
(-0.000952456 3.54035e-06 0)
(-0.00096445 3.43241e-06 0)
(-0.000976057 3.32244e-06 0)
(-0.000987271 3.21073e-06 0)
(-0.000998085 3.09711e-06 0)
(-0.00100849 2.9812e-06 0)
(-0.00101848 2.86279e-06 0)
(-0.00102805 2.74202e-06 0)
(-0.00103718 2.61922e-06 0)
(-0.00104589 2.49458e-06 0)
(-0.00105414 2.368e-06 0)
(-0.00106195 2.23924e-06 0)
(-0.0010693 2.1082e-06 0)
(-0.00107618 1.97498e-06 0)
(-0.0010826 1.8398e-06 0)
(-0.00108854 1.70281e-06 0)
(-0.00109399 1.56397e-06 0)
(-0.00109895 1.42315e-06 0)
(-0.00110342 1.28031e-06 0)
(-0.00110739 1.13552e-06 0)
(-0.00111084 9.88951e-07 0)
(-0.00111378 8.40721e-07 0)
(-0.00111621 6.90835e-07 0)
(-0.00111811 5.39246e-07 0)
(-0.00111947 3.85955e-07 0)
(-0.00112031 2.31058e-07 0)
(-0.0011206 7.46849e-08 0)
(-0.00112035 -8.30621e-08 0)
(-0.00111955 -2.42179e-07 0)
(-0.00111819 -4.02629e-07 0)
(-0.00111628 -5.64336e-07 0)
(-0.00111381 -7.27179e-07 0)
(-0.00111077 -8.91048e-07 0)
(-0.00110717 -1.05589e-06 0)
(-0.001103 -1.22165e-06 0)
(-0.00109825 -1.38826e-06 0)
(-0.00109293 -1.55559e-06 0)
(-0.00108703 -1.7235e-06 0)
(-0.00108056 -1.8919e-06 0)
(-0.0010735 -2.0607e-06 0)
(-0.00106586 -2.22983e-06 0)
(-0.00105765 -2.39918e-06 0)
(-0.00104885 -2.5686e-06 0)
(-0.00103947 -2.73795e-06 0)
(-0.00102951 -2.90714e-06 0)
(-0.00101898 -3.07606e-06 0)
(-0.00100786 -3.24459e-06 0)
(-0.000996172 -3.41261e-06 0)
(-0.000983909 -3.57994e-06 0)
(-0.000971077 -3.74643e-06 0)
(-0.000957677 -3.91196e-06 0)
(-0.000943714 -4.07642e-06 0)
(-0.000929192 -4.2397e-06 0)
(-0.000914116 -4.40164e-06 0)
(-0.00089849 -4.56213e-06 0)
(-0.000882321 -4.721e-06 0)
(-0.000865614 -4.87812e-06 0)
(-0.000848375 -5.03337e-06 0)
(-0.000830613 -5.18661e-06 0)
(-0.000812333 -5.33771e-06 0)
(-0.000793544 -5.48654e-06 0)
(-0.000774253 -5.63297e-06 0)
(-0.00075447 -5.77687e-06 0)
(-0.000734204 -5.91811e-06 0)
(-0.000713464 -6.05659e-06 0)
(-0.000692259 -6.19217e-06 0)
(-0.000670602 -6.32474e-06 0)
(-0.000648502 -6.45412e-06 0)
(-0.000625972 -6.58012e-06 0)
(-0.000603025 -6.70249e-06 0)
(-0.000579674 -6.82097e-06 0)
(-0.000555933 -6.93518e-06 0)
(-0.000531821 -7.04464e-06 0)
(-0.000507354 -7.14878e-06 0)
(-0.000482555 -7.24682e-06 0)
(-0.000457448 -7.33782e-06 0)
(-0.00043206 -7.42056e-06 0)
(-0.000406426 -7.49353e-06 0)
(-0.000380582 -7.55487e-06 0)
(-0.000354576 -7.60233e-06 0)
(-0.000328462 -7.63325e-06 0)
(-0.000302304 -7.64439e-06 0)
(-0.000276177 -7.63191e-06 0)
(-0.000250173 -7.5913e-06 0)
(-0.000224394 -7.51741e-06 0)
(-0.000198963 -7.40444e-06 0)
(-0.000174022 -7.24586e-06 0)
(-0.000149734 -7.03429e-06 0)
(-0.000126283 -6.76149e-06 0)
(-0.00010388 -6.41843e-06 0)
(-8.27592e-05 -5.99545e-06 0)
(-6.31821e-05 -5.48231e-06 0)
(-4.54336e-05 -4.86839e-06 0)
(-2.98198e-05 -4.14319e-06 0)
(-1.66612e-05 -3.29784e-06 0)
(-6.27634e-06 -2.32909e-06 0)
(1.04591e-06 -1.24916e-06 0)
(5.10165e-06 -1.05092e-07 0)
(5.89402e-06 9.77142e-07 0)
(4.04095e-06 1.68334e-06 0)
(1.29436e-06 1.29472e-06 0)
(1.70326e-06 -3.63623e-06 0)
(4.49775e-06 -4.18133e-06 0)
(4.84195e-06 -1.45417e-06 0)
(2.72847e-07 2.98616e-06 0)
(-1.04408e-05 8.02575e-06 0)
(-2.76553e-05 1.30737e-05 0)
(-5.12357e-05 1.78259e-05 0)
(-8.07909e-05 2.21392e-05 0)
(-0.000115776 2.59545e-05 0)
(-0.000155581 2.92588e-05 0)
(-0.000199587 3.20757e-05 0)
(-0.000247196 3.44484e-05 0)
(-0.000297833 3.64153e-05 0)
(-0.000350972 3.80069e-05 0)
(-0.000406141 3.92602e-05 0)
(-0.000462927 4.02256e-05 0)
(-0.00052097 4.09554e-05 0)
(-0.000579953 4.14884e-05 0)
(-0.000639604 4.18489e-05 0)
(-0.000699696 4.2058e-05 0)
(-0.000760039 4.21424e-05 0)
(-0.000820481 4.21313e-05 0)
(-0.000880894 4.2048e-05 0)
(-0.00094117 4.19064e-05 0)
(-0.00100122 4.17139e-05 0)
(-0.00106098 4.1477e-05 0)
(-0.0011204 4.12049e-05 0)
(-0.00117942 4.09076e-05 0)
(-0.00123801 4.05924e-05 0)
(-0.00129614 4.02616e-05 0)
(-0.00135377 3.99141e-05 0)
(-0.00141089 3.95497e-05 0)
(-0.00146748 3.91707e-05 0)
(-0.00152351 3.87804e-05 0)
(-0.00157896 3.83805e-05 0)
(-0.00163382 3.79697e-05 0)
(-0.00168807 3.75458e-05 0)
(-0.00174169 3.71078e-05 0)
(-0.00179465 3.66569e-05 0)
(-0.00184695 3.61945e-05 0)
(-0.00189857 3.57207e-05 0)
(-0.00194948 3.5234e-05 0)
(-0.00199966 3.4733e-05 0)
(-0.0020491 3.42172e-05 0)
(-0.00209777 3.36878e-05 0)
(-0.00214566 3.31454e-05 0)
(-0.00219274 3.25898e-05 0)
(-0.002239 3.20198e-05 0)
(-0.00228442 3.14349e-05 0)
(-0.00232897 3.0835e-05 0)
(-0.00237263 3.02209e-05 0)
(-0.00241539 2.9593e-05 0)
(-0.00245722 2.8951e-05 0)
(-0.00249811 2.82943e-05 0)
(-0.00253802 2.76224e-05 0)
(-0.00257695 2.69356e-05 0)
(-0.00261486 2.62346e-05 0)
(-0.00265175 2.55195e-05 0)
(-0.00268758 2.479e-05 0)
(-0.00272235 2.40458e-05 0)
(-0.00275602 2.32868e-05 0)
(-0.00278858 2.25133e-05 0)
(-0.00282001 2.17257e-05 0)
(-0.00285029 2.09241e-05 0)
(-0.0028794 2.01084e-05 0)
(-0.00290731 1.92784e-05 0)
(-0.00293402 1.84342e-05 0)
(-0.00295949 1.7576e-05 0)
(-0.00298371 1.67042e-05 0)
(-0.00300667 1.5819e-05 0)
(-0.00302834 1.49203e-05 0)
(-0.0030487 1.40083e-05 0)
(-0.00306773 1.30829e-05 0)
(-0.00308543 1.21447e-05 0)
(-0.00310176 1.11938e-05 0)
(-0.00311672 1.02306e-05 0)
(-0.00313029 9.25516e-06 0)
(-0.00314244 8.26767e-06 0)
(-0.00315317 7.26837e-06 0)
(-0.00316245 6.25766e-06 0)
(-0.00317028 5.23592e-06 0)
(-0.00317663 4.2035e-06 0)
(-0.0031815 3.16067e-06 0)
(-0.00318486 2.10772e-06 0)
(-0.00318671 1.04505e-06 0)
(-0.00318704 -2.68629e-08 0)
(-0.00318582 -1.10752e-06 0)
(-0.00318305 -2.19648e-06 0)
(-0.00317873 -3.29331e-06 0)
(-0.00317283 -4.39752e-06 0)
(-0.00316535 -5.50859e-06 0)
(-0.00315628 -6.62593e-06 0)
(-0.00314561 -7.74897e-06 0)
(-0.00313334 -8.87717e-06 0)
(-0.00311946 -1.00099e-05 0)
(-0.00310396 -1.11466e-05 0)
(-0.00308685 -1.22865e-05 0)
(-0.00306811 -1.34289e-05 0)
(-0.00304774 -1.45732e-05 0)
(-0.00302575 -1.57186e-05 0)
(-0.00300213 -1.68644e-05 0)
(-0.00297688 -1.801e-05 0)
(-0.00295001 -1.91544e-05 0)
(-0.00292152 -2.02968e-05 0)
(-0.0028914 -2.14366e-05 0)
(-0.00285968 -2.25727e-05 0)
(-0.00282634 -2.37045e-05 0)
(-0.00279141 -2.48309e-05 0)
(-0.00275488 -2.59512e-05 0)
(-0.00271678 -2.70644e-05 0)
(-0.0026771 -2.81698e-05 0)
(-0.00263587 -2.92664e-05 0)
(-0.00259309 -3.03534e-05 0)
(-0.00254878 -3.143e-05 0)
(-0.00250295 -3.24951e-05 0)
(-0.00245563 -3.3548e-05 0)
(-0.00240683 -3.45877e-05 0)
(-0.00235657 -3.56134e-05 0)
(-0.00230488 -3.66241e-05 0)
(-0.00225177 -3.76191e-05 0)
(-0.00219726 -3.85975e-05 0)
(-0.00214139 -3.95583e-05 0)
(-0.00208417 -4.05008e-05 0)
(-0.00202564 -4.14239e-05 0)
(-0.00196583 -4.23266e-05 0)
(-0.00190476 -4.32079e-05 0)
(-0.00184246 -4.40663e-05 0)
(-0.00177898 -4.49004e-05 0)
(-0.00171434 -4.57082e-05 0)
(-0.00164859 -4.64873e-05 0)
(-0.00158178 -4.72348e-05 0)
(-0.00151395 -4.79471e-05 0)
(-0.00144515 -4.86197e-05 0)
(-0.00137546 -4.92469e-05 0)
(-0.00130494 -4.98215e-05 0)
(-0.00123368 -5.03351e-05 0)
(-0.00116177 -5.0777e-05 0)
(-0.00108932 -5.11343e-05 0)
(-0.00101648 -5.13918e-05 0)
(-0.000943403 -5.15314e-05 0)
(-0.000870267 -5.15319e-05 0)
(-0.000797293 -5.13685e-05 0)
(-0.000724732 -5.1013e-05 0)
(-0.000652877 -5.04334e-05 0)
(-0.000582069 -4.95943e-05 0)
(-0.000512694 -4.84564e-05 0)
(-0.000445193 -4.69776e-05 0)
(-0.000380064 -4.51124e-05 0)
(-0.000317858 -4.28142e-05 0)
(-0.000259187 -4.00354e-05 0)
(-0.000204712 -3.67309e-05 0)
(-0.000155135 -3.28612e-05 0)
(-0.000111187 -2.83993e-05 0)
(-7.35905e-05 -2.33422e-05 0)
(-4.3015e-05 -1.77332e-05 0)
(-1.99911e-05 -1.17043e-05 0)
(-4.77787e-06 -5.55454e-06 0)
(2.85211e-06 1.09527e-07 0)
(4.09995e-06 4.10163e-06 0)
(1.6809e-06 4.03842e-06 0)
(1.12554e-06 -5.8128e-06 0)
(1.52484e-06 -4.67536e-06 0)
(-3.19056e-06 3.2687e-06 0)
(-1.55142e-05 1.46967e-05 0)
(-3.67362e-05 2.75601e-05 0)
(-6.7304e-05 4.05962e-05 0)
(-0.000107094 5.306e-05 0)
(-0.000155631 6.45487e-05 0)
(-0.000212214 7.48603e-05 0)
(-0.000276021 8.39163e-05 0)
(-0.000346188 9.17259e-05 0)
(-0.000421865 9.83543e-05 0)
(-0.00050223 0.000103891 0)
(-0.00058651 0.000108432 0)
(-0.000673999 0.000112076 0)
(-0.000764065 0.00011493 0)
(-0.000856159 0.000117105 0)
(-0.000949795 0.000118703 0)
(-0.00104455 0.000119809 0)
(-0.00114007 0.000120498 0)
(-0.00123605 0.000120838 0)
(-0.00133224 0.000120892 0)
(-0.00142843 0.000120716 0)
(-0.00152444 0.000120352 0)
(-0.00162014 0.000119837 0)
(-0.0017154 0.000119196 0)
(-0.00181013 0.000118451 0)
(-0.00190426 0.000117623 0)
(-0.00199771 0.000116726 0)
(-0.00209042 0.000115773 0)
(-0.00218236 0.00011477 0)
(-0.00227348 0.000113721 0)
(-0.00236373 0.000112628 0)
(-0.00245309 0.000111496 0)
(-0.00254152 0.000110328 0)
(-0.00262899 0.000109124 0)
(-0.00271547 0.000107884 0)
(-0.00280093 0.000106606 0)
(-0.00288533 0.00010529 0)
(-0.00296865 0.000103938 0)
(-0.00305085 0.000102548 0)
(-0.00313191 0.00010112 0)
(-0.00321179 9.96535e-05 0)
(-0.00329047 9.81469e-05 0)
(-0.0033679 9.66003e-05 0)
(-0.00344406 9.50139e-05 0)
(-0.00351892 9.33876e-05 0)
(-0.00359244 9.17211e-05 0)
(-0.00366459 9.00134e-05 0)
(-0.00373534 8.82643e-05 0)
(-0.00380466 8.64739e-05 0)
(-0.00387251 8.46426e-05 0)
(-0.00393886 8.27703e-05 0)
(-0.00400368 8.08567e-05 0)
(-0.00406694 7.89016e-05 0)
(-0.00412859 7.69049e-05 0)
(-0.00418862 7.4867e-05 0)
(-0.00424699 7.27882e-05 0)
(-0.00430367 7.06686e-05 0)
(-0.00435862 6.85082e-05 0)
(-0.00441182 6.63069e-05 0)
(-0.00446322 6.4065e-05 0)
(-0.00451281 6.17827e-05 0)
(-0.00456054 5.94605e-05 0)
(-0.00460639 5.70988e-05 0)
(-0.00465033 5.46975e-05 0)
(-0.00469233 5.22569e-05 0)
(-0.00473235 4.97775e-05 0)
(-0.00477038 4.72597e-05 0)
(-0.00480636 4.47042e-05 0)
(-0.00484029 4.21112e-05 0)
(-0.00487213 3.94814e-05 0)
(-0.00490185 3.68151e-05 0)
(-0.00492943 3.41131e-05 0)
(-0.00495483 3.13759e-05 0)
(-0.00497804 2.86044e-05 0)
(-0.00499902 2.57993e-05 0)
(-0.00501775 2.29612e-05 0)
(-0.00503421 2.00909e-05 0)
(-0.00504837 1.71893e-05 0)
(-0.00506021 1.42575e-05 0)
(-0.0050697 1.12963e-05 0)
(-0.00507683 8.30681e-06 0)
(-0.00508158 5.29005e-06 0)
(-0.00508391 2.24713e-06 0)
(-0.00508382 -8.20715e-07 0)
(-0.00508129 -3.91221e-06 0)
(-0.0050763 -7.02603e-06 0)
(-0.00506884 -1.01608e-05 0)
(-0.00505888 -1.33151e-05 0)
(-0.00504642 -1.64875e-05 0)
(-0.00503144 -1.96765e-05 0)
(-0.00501394 -2.28803e-05 0)
(-0.00499389 -2.60974e-05 0)
(-0.0049713 -2.93261e-05 0)
(-0.00494616 -3.25644e-05 0)
(-0.00491846 -3.58107e-05 0)
(-0.00488819 -3.90629e-05 0)
(-0.00485536 -4.23192e-05 0)
(-0.00481996 -4.55774e-05 0)
(-0.00478199 -4.88357e-05 0)
(-0.00474146 -5.20918e-05 0)
(-0.00469836 -5.53436e-05 0)
(-0.00465271 -5.85887e-05 0)
(-0.00460451 -6.18251e-05 0)
(-0.00455377 -6.50502e-05 0)
(-0.0045005 -6.82618e-05 0)
(-0.00444471 -7.14574e-05 0)
(-0.00438641 -7.46347e-05 0)
(-0.00432563 -7.77913e-05 0)
(-0.00426239 -8.09247e-05 0)
(-0.00419669 -8.40325e-05 0)
(-0.00412856 -8.71122e-05 0)
(-0.00405803 -9.01614e-05 0)
(-0.00398513 -9.31776e-05 0)
(-0.00390987 -9.61582e-05 0)
(-0.00383229 -9.91007e-05 0)
(-0.00375243 -0.000102003 0)
(-0.0036703 -0.000104862 0)
(-0.00358596 -0.000107675 0)
(-0.00349943 -0.000110441 0)
(-0.00341076 -0.000113156 0)
(-0.00331999 -0.000115818 0)
(-0.00322716 -0.000118424 0)
(-0.00313232 -0.000120971 0)
(-0.00303551 -0.000123455 0)
(-0.00293679 -0.000125872 0)
(-0.00283622 -0.000128218 0)
(-0.00273385 -0.000130486 0)
(-0.00262976 -0.00013267 0)
(-0.00252401 -0.00013476 0)
(-0.00241668 -0.000136745 0)
(-0.00230788 -0.000138613 0)
(-0.00219769 -0.000140346 0)
(-0.00208623 -0.000141923 0)
(-0.00197366 -0.00014332 0)
(-0.00186011 -0.000144506 0)
(-0.00174578 -0.000145445 0)
(-0.00163089 -0.000146093 0)
(-0.00151567 -0.000146399 0)
(-0.00140044 -0.000146304 0)
(-0.00128553 -0.00014574 0)
(-0.00117134 -0.000144631 0)
(-0.00105833 -0.000142888 0)
(-0.00094701 -0.000140419 0)
(-0.000837991 -0.000137119 0)
(-0.000731939 -0.000132879 0)
(-0.000629603 -0.000127585 0)
(-0.000531808 -0.000121122 0)
(-0.000439452 -0.00011338 0)
(-0.000353494 -0.000104263 0)
(-0.000274934 -9.36969e-05 0)
(-0.000204787 -8.16562e-05 0)
(-0.000144027 -6.81907e-05 0)
(-9.35211e-05 -5.34802e-05 0)
(-5.39178e-05 -3.79233e-05 0)
(-2.54852e-05 -2.22855e-05 0)
(-7.88406e-06 -7.92301e-06 0)
(1.25355e-07 2.85765e-06 0)
(9.76849e-07 5.88949e-06 0)
(2.65903e-07 -6.04868e-06 0)
(-2.98363e-06 -1.88297e-07 0)
(-1.47053e-05 1.55764e-05 0)
(-3.66264e-05 3.65815e-05 0)
(-6.9775e-05 5.98675e-05 0)
(-0.000114558 8.34874e-05 0)
(-0.000170796 0.000106208 0)
(-0.000237932 0.000127306 0)
(-0.000315163 0.000146394 0)
(-0.000401528 0.000163301 0)
(-0.000495993 0.000177994 0)
(-0.000597517 0.000190546 0)
(-0.000705098 0.000201094 0)
(-0.000817787 0.000209807 0)
(-0.000934703 0.000216864 0)
(-0.00105504 0.000222448 0)
(-0.00117809 0.000226742 0)
(-0.00130322 0.000229923 0)
(-0.00142989 0.000232158 0)
(-0.00155763 0.000233593 0)
(-0.00168604 0.000234355 0)
(-0.00181478 0.000234556 0)
(-0.00194356 0.000234296 0)
(-0.00207215 0.000233657 0)
(-0.00220035 0.00023271 0)
(-0.00232801 0.000231511 0)
(-0.00245498 0.000230104 0)
(-0.00258115 0.000228525 0)
(-0.00270643 0.0002268 0)
(-0.00283074 0.000224954 0)
(-0.002954 0.000223003 0)
(-0.00307616 0.000220957 0)
(-0.00319717 0.000218825 0)
(-0.00331695 0.000216611 0)
(-0.00343549 0.00021432 0)
(-0.00355271 0.000211954 0)
(-0.00366859 0.000209515 0)
(-0.00378309 0.000207003 0)
(-0.00389615 0.000204416 0)
(-0.00400773 0.000201755 0)
(-0.00411779 0.000199019 0)
(-0.0042263 0.000196208 0)
(-0.0043332 0.000193321 0)
(-0.00443846 0.000190358 0)
(-0.00454203 0.000187316 0)
(-0.00464387 0.000184197 0)
(-0.00474394 0.000180999 0)
(-0.00484219 0.000177723 0)
(-0.00493858 0.000174367 0)
(-0.00503306 0.000170932 0)
(-0.0051256 0.000167418 0)
(-0.00521615 0.000163824 0)
(-0.00530466 0.00016015 0)
(-0.0053911 0.000156397 0)
(-0.00547541 0.000152564 0)
(-0.00555756 0.000148652 0)
(-0.00563751 0.00014466 0)
(-0.00571521 0.00014059 0)
(-0.00579062 0.000136441 0)
(-0.00586369 0.000132214 0)
(-0.00593439 0.000127909 0)
(-0.00600268 0.000123527 0)
(-0.0060685 0.000119068 0)
(-0.00613183 0.000114532 0)
(-0.00619262 0.00010992 0)
(-0.00625083 0.000105234 0)
(-0.00630642 0.000100473 0)
(-0.00635936 9.5638e-05 0)
(-0.00640959 9.07305e-05 0)
(-0.0064571 8.57511e-05 0)
(-0.00650183 8.07009e-05 0)
(-0.00654375 7.55809e-05 0)
(-0.00658283 7.03923e-05 0)
(-0.00661903 6.51362e-05 0)
(-0.00665231 5.98138e-05 0)
(-0.00668264 5.44266e-05 0)
(-0.00670999 4.89761e-05 0)
(-0.00673433 4.34637e-05 0)
(-0.00675561 3.78911e-05 0)
(-0.00677382 3.226e-05 0)
(-0.00678893 2.65722e-05 0)
(-0.00680089 2.08296e-05 0)
(-0.0068097 1.50341e-05 0)
(-0.00681531 9.18808e-06 0)
(-0.00681771 3.29355e-06 0)
(-0.00681688 -2.64712e-06 0)
(-0.00681278 -8.63151e-06 0)
(-0.0068054 -1.46571e-05 0)
(-0.00679471 -2.07211e-05 0)
(-0.00678071 -2.68209e-05 0)
(-0.00676337 -3.29536e-05 0)
(-0.00674268 -3.91163e-05 0)
(-0.00671862 -4.53057e-05 0)
(-0.00669119 -5.15189e-05 0)
(-0.00666037 -5.77523e-05 0)
(-0.00662615 -6.40026e-05 0)
(-0.00658853 -7.02662e-05 0)
(-0.0065475 -7.65396e-05 0)
(-0.00650306 -8.28189e-05 0)
(-0.00645521 -8.91003e-05 0)
(-0.00640396 -9.538e-05 0)
(-0.0063493 -0.000101654 0)
(-0.00629124 -0.000107918 0)
(-0.00622979 -0.000114167 0)
(-0.00616496 -0.000120398 0)
(-0.00609676 -0.000126606 0)
(-0.00602521 -0.000132786 0)
(-0.00595033 -0.000138934 0)
(-0.00587213 -0.000145046 0)
(-0.00579064 -0.000151117 0)
(-0.00570588 -0.000157141 0)
(-0.00561788 -0.000163116 0)
(-0.00552666 -0.000169035 0)
(-0.00543227 -0.000174894 0)
(-0.00533474 -0.000180688 0)
(-0.0052341 -0.000186413 0)
(-0.00513039 -0.000192064 0)
(-0.00502366 -0.000197636 0)
(-0.00491395 -0.000203124 0)
(-0.0048013 -0.000208524 0)
(-0.00468578 -0.00021383 0)
(-0.00456742 -0.000219038 0)
(-0.00444629 -0.000224142 0)
(-0.00432245 -0.000229137 0)
(-0.00419596 -0.000234016 0)
(-0.00406689 -0.000238771 0)
(-0.0039353 -0.000243396 0)
(-0.00380127 -0.000247879 0)
(-0.00366489 -0.00025221 0)
(-0.00352624 -0.000256373 0)
(-0.00338543 -0.000260351 0)
(-0.00324257 -0.000264122 0)
(-0.00309778 -0.000267659 0)
(-0.00295119 -0.00027093 0)
(-0.00280298 -0.000273893 0)
(-0.00265332 -0.000276501 0)
(-0.00250244 -0.000278693 0)
(-0.00235058 -0.000280401 0)
(-0.00219803 -0.000281542 0)
(-0.00204512 -0.000282018 0)
(-0.00189226 -0.000281718 0)
(-0.00173988 -0.000280515 0)
(-0.00158852 -0.000278265 0)
(-0.00143876 -0.00027481 0)
(-0.00129129 -0.000269976 0)
(-0.00114687 -0.000263576 0)
(-0.00100636 -0.000255415 0)
(-0.000870707 -0.000245294 0)
(-0.000740946 -0.000233018 0)
(-0.000618188 -0.000218405 0)
(-0.000503609 -0.000201307 0)
(-0.000398419 -0.00018163 0)
(-0.000303825 -0.000159371 0)
(-0.000220968 -0.000134672 0)
(-0.000150848 -0.000107905 0)
(-9.42122e-05 -7.97962e-05 0)
(-5.13946e-05 -5.1627e-05 0)
(-2.21143e-05 -2.54976e-05 0)
(-5.48521e-06 -4.72696e-06 0)
(-9.59857e-08 5.11167e-06 0)
(-6.78532e-07 -3.56399e-06 0)
(-8.06407e-06 1.05422e-05 0)
(-2.76883e-05 3.68449e-05 0)
(-6.01252e-05 6.97563e-05 0)
(-0.000105915 0.000105576 0)
(-0.000165288 0.00014177 0)
(-0.000237942 0.00017665 0)
(-0.000323201 0.000209166 0)
(-0.000420158 0.000238727 0)
(-0.000527752 0.000265054 0)
(-0.000644833 0.000288073 0)
(-0.000770226 0.000307852 0)
(-0.000902785 0.00032456 0)
(-0.00104142 0.000338431 0)
(-0.00118513 0.000349733 0)
(-0.00133298 0.00035874 0)
(-0.00148413 0.000365724 0)
(-0.00163783 0.000370946 0)
(-0.00179344 0.000374655 0)
(-0.00195039 0.000377077 0)
(-0.0021082 0.000378417 0)
(-0.00226646 0.00037885 0)
(-0.00242482 0.000378531 0)
(-0.00258298 0.000377587 0)
(-0.0027407 0.000376129 0)
(-0.00289777 0.000374249 0)
(-0.00305403 0.00037202 0)
(-0.00320932 0.0003695 0)
(-0.00336352 0.000366737 0)
(-0.00351653 0.000363763 0)
(-0.00366826 0.000360606 0)
(-0.00381863 0.000357288 0)
(-0.00396757 0.000353822 0)
(-0.004115 0.00035022 0)
(-0.00426087 0.000346487 0)
(-0.00440512 0.000342628 0)
(-0.00454769 0.000338644 0)
(-0.00468852 0.000334539 0)
(-0.00482758 0.000330312 0)
(-0.00496479 0.000325963 0)
(-0.0051001 0.000321491 0)
(-0.00523347 0.000316895 0)
(-0.00536484 0.000312175 0)
(-0.00549416 0.000307331 0)
(-0.00562138 0.000302361 0)
(-0.00574643 0.000297265 0)
(-0.00586927 0.000292041 0)
(-0.00598985 0.000286691 0)
(-0.00610811 0.000281212 0)
(-0.00622399 0.000275606 0)
(-0.00633746 0.000269872 0)
(-0.00644844 0.00026401 0)
(-0.00655689 0.00025802 0)
(-0.00666276 0.000251902 0)
(-0.006766 0.000245656 0)
(-0.00686654 0.000239284 0)
(-0.00696435 0.000232785 0)
(-0.00705936 0.000226159 0)
(-0.00715153 0.000219408 0)
(-0.00724081 0.000212532 0)
(-0.00732714 0.000205532 0)
(-0.00741048 0.000198409 0)
(-0.00749078 0.000191163 0)
(-0.00756798 0.000183795 0)
(-0.00764204 0.000176307 0)
(-0.0077129 0.0001687 0)
(-0.00778053 0.000160975 0)
(-0.00784488 0.000153133 0)
(-0.00790589 0.000145175 0)
(-0.00796353 0.000137104 0)
(-0.00801774 0.000128921 0)
(-0.00806849 0.000120628 0)
(-0.00811573 0.000112227 0)
(-0.00815942 0.000103719 0)
(-0.00819952 9.51068e-05 0)
(-0.00823598 8.63928e-05 0)
(-0.00826877 7.75793e-05 0)
(-0.00829785 6.86688e-05 0)
(-0.00832319 5.96639e-05 0)
(-0.00834474 5.05675e-05 0)
(-0.00836247 4.13825e-05 0)
(-0.00837635 3.2112e-05 0)
(-0.00838634 2.27594e-05 0)
(-0.00839242 1.33279e-05 0)
(-0.00839456 3.82133e-06 0)
(-0.00839272 -5.75669e-06 0)
(-0.00838689 -1.54022e-05 0)
(-0.00837703 -2.51112e-05 0)
(-0.00836313 -3.48793e-05 0)
(-0.00834516 -4.47022e-05 0)
(-0.00832311 -5.45752e-05 0)
(-0.00829696 -6.44935e-05 0)
(-0.00826669 -7.44523e-05 0)
(-0.00823228 -8.44463e-05 0)
(-0.00819374 -9.44703e-05 0)
(-0.00815105 -0.000104519 0)
(-0.0081042 -0.000114586 0)
(-0.0080532 -0.000124666 0)
(-0.00799803 -0.000134754 0)
(-0.0079387 -0.000144842 0)
(-0.00787521 -0.000154925 0)
(-0.00780757 -0.000164996 0)
(-0.00773579 -0.000175049 0)
(-0.00765987 -0.000185077 0)
(-0.00757983 -0.000195072 0)
(-0.0074957 -0.000205029 0)
(-0.00740748 -0.00021494 0)
(-0.0073152 -0.000224797 0)
(-0.00721888 -0.000234594 0)
(-0.00711856 -0.000244322 0)
(-0.00701427 -0.000253976 0)
(-0.00690603 -0.000263547 0)
(-0.00679388 -0.000273028 0)
(-0.00667788 -0.000282411 0)
(-0.00655805 -0.000291689 0)
(-0.00643445 -0.000300854 0)
(-0.00630712 -0.000309899 0)
(-0.00617611 -0.000318815 0)
(-0.00604149 -0.000327597 0)
(-0.00590332 -0.000336234 0)
(-0.00576164 -0.00034472 0)
(-0.00561654 -0.000353047 0)
(-0.00546807 -0.000361205 0)
(-0.00531631 -0.000369185 0)
(-0.00516134 -0.000376976 0)
(-0.00500325 -0.000384567 0)
(-0.00484211 -0.000391944 0)
(-0.00467803 -0.000399089 0)
(-0.00451111 -0.000405985 0)
(-0.00434146 -0.000412606 0)
(-0.0041692 -0.000418923 0)
(-0.00399448 -0.0004249 0)
(-0.00381745 -0.000430494 0)
(-0.00363828 -0.000435651 0)
(-0.00345718 -0.000440306 0)
(-0.00327437 -0.000444379 0)
(-0.00309012 -0.000447777 0)
(-0.00290473 -0.000450389 0)
(-0.00271857 -0.000452082 0)
(-0.00253204 -0.000452705 0)
(-0.00234561 -0.000452083 0)
(-0.00215984 -0.000450017 0)
(-0.00197534 -0.000446286 0)
(-0.00179282 -0.000440645 0)
(-0.0016131 -0.00043283 0)
(-0.00143708 -0.000422558 0)
(-0.00126575 -0.00040954 0)
(-0.00110021 -0.000393481 0)
(-0.000941667 -0.000374102 0)
(-0.000791382 -0.000351151 0)
(-0.000650691 -0.000324433 0)
(-0.000520952 -0.000293844 0)
(-0.00040351 -0.000259425 0)
(-0.000299632 -0.00022143 0)
(-0.000210435 -0.000180439 0)
(-0.000136791 -0.000137506 0)
(-7.91793e-05 -9.43819e-05 0)
(-3.75247e-05 -5.37881e-05 0)
(-1.15411e-05 -1.98062e-05 0)
(-1.22205e-06 1.10924e-06 0)
(-1.59876e-06 1.65848e-06 0)
(-1.31784e-05 2.78581e-05 0)
(-4.09248e-05 6.75836e-05 0)
(-8.41227e-05 0.00011471 0)
(-0.000142687 0.000165018 0)
(-0.000216579 0.000215514 0)
(-0.000305311 0.000264138 0)
(-0.000408055 0.000309552 0)
(-0.000523779 0.000350962 0)
(-0.000651322 0.000387972 0)
(-0.000789443 0.000420465 0)
(-0.000936873 0.000448513 0)
(-0.00109236 0.000472318 0)
(-0.00125471 0.000492171 0)
(-0.0014228 0.00050842 0)
(-0.00159562 0.000521436 0)
(-0.00177222 0.00053159 0)
(-0.00195178 0.000539242 0)
(-0.00213356 0.000544728 0)
(-0.00231692 0.000548361 0)
(-0.00250131 0.000550424 0)
(-0.00268624 0.000551168 0)
(-0.00287132 0.000550811 0)
(-0.0030562 0.000549538 0)
(-0.0032406 0.000547503 0)
(-0.00342426 0.000544836 0)
(-0.00360698 0.000541644 0)
(-0.0037886 0.000538014 0)
(-0.00396895 0.000534015 0)
(-0.00414792 0.000529697 0)
(-0.00432539 0.0005251 0)
(-0.00450126 0.000520256 0)
(-0.00467544 0.000515187 0)
(-0.00484786 0.00050991 0)
(-0.00501843 0.000504436 0)
(-0.00518709 0.000498772 0)
(-0.00535376 0.000492922 0)
(-0.00551839 0.000486889 0)
(-0.0056809 0.000480675 0)
(-0.00584123 0.000474281 0)
(-0.00599932 0.000467706 0)
(-0.00615511 0.000460949 0)
(-0.00630852 0.00045401 0)
(-0.00645951 0.000446887 0)
(-0.00660801 0.000439581 0)
(-0.00675395 0.000432091 0)
(-0.00689727 0.000424416 0)
(-0.00703791 0.000416556 0)
(-0.00717581 0.00040851 0)
(-0.0073109 0.000400279 0)
(-0.00744313 0.000391861 0)
(-0.00757244 0.000383259 0)
(-0.00769875 0.000374472 0)
(-0.00782201 0.000365499 0)
(-0.00794217 0.000356343 0)
(-0.00805915 0.000347002 0)
(-0.0081729 0.00033748 0)
(-0.00828336 0.000327775 0)
(-0.00839047 0.000317889 0)
(-0.00849417 0.000307824 0)
(-0.0085944 0.00029758 0)
(-0.00869112 0.000287158 0)
(-0.00878424 0.000276561 0)
(-0.00887374 0.000265789 0)
(-0.00895953 0.000254845 0)
(-0.00904158 0.00024373 0)
(-0.00911983 0.000232446 0)
(-0.00919422 0.000220995 0)
(-0.0092647 0.00020938 0)
(-0.00933122 0.000197602 0)
(-0.00939373 0.000185665 0)
(-0.00945217 0.00017357 0)
(-0.00950651 0.000161322 0)
(-0.00955668 0.000148922 0)
(-0.00960265 0.000136374 0)
(-0.00964437 0.000123682 0)
(-0.00968179 0.000110849 0)
(-0.00971488 9.78778e-05 0)
(-0.00974358 8.47735e-05 0)
(-0.00976786 7.154e-05 0)
(-0.00978769 5.81816e-05 0)
(-0.00980301 4.47028e-05 0)
(-0.0098138 3.11084e-05 0)
(-0.00982003 1.74035e-05 0)
(-0.00982165 3.59319e-06 0)
(-0.00981865 -1.0317e-05 0)
(-0.00981099 -2.43213e-05 0)
(-0.00979864 -3.84139e-05 0)
(-0.00978158 -5.25886e-05 0)
(-0.00975979 -6.6839e-05 0)
(-0.00973324 -8.11584e-05 0)
(-0.00970192 -9.55399e-05 0)
(-0.00966582 -0.000109976 0)
(-0.00962491 -0.00012446 0)
(-0.00957919 -0.000138984 0)
(-0.00952865 -0.00015354 0)
(-0.00947329 -0.00016812 0)
(-0.00941309 -0.000182715 0)
(-0.00934806 -0.000197317 0)
(-0.0092782 -0.000211918 0)
(-0.00920352 -0.000226507 0)
(-0.00912403 -0.000241076 0)
(-0.00903973 -0.000255616 0)
(-0.00895064 -0.000270116 0)
(-0.00885677 -0.000284568 0)
(-0.00875816 -0.00029896 0)
(-0.00865482 -0.000313283 0)
(-0.00854677 -0.000327526 0)
(-0.00843406 -0.00034168 0)
(-0.0083167 -0.000355733 0)
(-0.00819475 -0.000369675 0)
(-0.00806823 -0.000383495 0)
(-0.0079372 -0.000397183 0)
(-0.0078017 -0.000410728 0)
(-0.00766179 -0.000424118 0)
(-0.00751751 -0.000437344 0)
(-0.00736892 -0.000450393 0)
(-0.0072161 -0.000463256 0)
(-0.00705909 -0.00047592 0)
(-0.00689797 -0.000488376 0)
(-0.00673282 -0.00050061 0)
(-0.00656371 -0.000512611 0)
(-0.00639072 -0.000524365 0)
(-0.00621394 -0.000535859 0)
(-0.00603345 -0.000547076 0)
(-0.00584937 -0.000558 0)
(-0.00566179 -0.000568609 0)
(-0.00547082 -0.000578878 0)
(-0.00527659 -0.000588779 0)
(-0.00507923 -0.000598276 0)
(-0.00487888 -0.000607325 0)
(-0.00467571 -0.000615874 0)
(-0.00446991 -0.000623859 0)
(-0.00426168 -0.0006312 0)
(-0.00405125 -0.000637805 0)
(-0.0038389 -0.000643559 0)
(-0.00362493 -0.000648326 0)
(-0.0034097 -0.000651947 0)
(-0.00319363 -0.000654236 0)
(-0.00297718 -0.000654976 0)
(-0.0027609 -0.000653921 0)
(-0.00254542 -0.000650792 0)
(-0.00233143 -0.000645281 0)
(-0.00211975 -0.000637048 0)
(-0.00191129 -0.000625729 0)
(-0.00170705 -0.00061094 0)
(-0.00150814 -0.000592289 0)
(-0.00131578 -0.000569385 0)
(-0.00113128 -0.00054186 0)
(-0.000956041 -0.000509395 0)
(-0.000791499 -0.000471753 0)
(-0.00063913 -0.000428827 0)
(-0.000500389 -0.000380705 0)
(-0.000376656 -0.000327758 0)
(-0.000269173 -0.00027076 0)
(-0.000178976 -0.000211051 0)
(-0.000106762 -0.000150762 0)
(-5.27697e-05 -9.30741e-05 0)
(-1.74394e-05 -4.25619e-05 0)
(-2.27607e-06 -6.09926e-06 0)
(-2.44031e-06 9.50002e-06 0)
(-1.80355e-05 5.1666e-05 0)
(-5.36923e-05 0.000107738 0)
(-0.00010742 0.000171371 0)
(-0.000178463 0.000238025 0)
(-0.000266445 0.00030438 0)
(-0.000370642 0.000368102 0)
(-0.00049005 0.000427631 0)
(-0.0006235 0.000482003 0)
(-0.000769715 0.000530713 0)
(-0.000927366 0.000573598 0)
(-0.0010951 0.000610738 0)
(-0.0012716 0.000642375 0)
(-0.00145558 0.000668864 0)
(-0.00164585 0.00069063 0)
(-0.00184129 0.000708137 0)
(-0.00204092 0.000721858 0)
(-0.00224382 0.000732256 0)
(-0.0024492 0.000739767 0)
(-0.00265635 0.000744795 0)
(-0.00286466 0.000747709 0)
(-0.0030736 0.000748834 0)
(-0.00328273 0.000748459 0)
(-0.00349165 0.000746831 0)
(-0.00370005 0.000744156 0)
(-0.00390763 0.000740609 0)
(-0.00411418 0.00073633 0)
(-0.00431947 0.000731439 0)
(-0.00452336 0.000726026 0)
(-0.00472567 0.000720166 0)
(-0.0049263 0.000713914 0)
(-0.0051251 0.000707313 0)
(-0.005322 0.000700393 0)
(-0.00551688 0.00069318 0)
(-0.00570966 0.000685689 0)
(-0.00590026 0.000677933 0)
(-0.0060886 0.000669918 0)
(-0.0062746 0.000661649 0)
(-0.00645818 0.000653129 0)
(-0.00663927 0.000644359 0)
(-0.0068178 0.00063534 0)
(-0.00699369 0.000626073 0)
(-0.00716688 0.000616556 0)
(-0.00733729 0.000606788 0)
(-0.00750485 0.00059677 0)
(-0.00766949 0.000586501 0)
(-0.00783114 0.00057598 0)
(-0.00798973 0.000565208 0)
(-0.00814519 0.000554184 0)
(-0.00829744 0.000542909 0)
(-0.00844643 0.000531381 0)
(-0.00859208 0.000519603 0)
(-0.00873432 0.000507575 0)
(-0.00887308 0.000495298 0)
(-0.0090083 0.000482771 0)
(-0.0091399 0.000469997 0)
(-0.00926783 0.000456977 0)
(-0.00939201 0.000443711 0)
(-0.00951237 0.000430202 0)
(-0.00962886 0.000416452 0)
(-0.00974141 0.000402461 0)
(-0.00984995 0.000388232 0)
(-0.00995442 0.000373767 0)
(-0.0100548 0.000359069 0)
(-0.0101509 0.000344139 0)
(-0.0102428 0.000328981 0)
(-0.0103304 0.000313597 0)
(-0.0104136 0.00029799 0)
(-0.0104923 0.000282163 0)
(-0.0105666 0.000266119 0)