/*--------------------------------*- C++ -*----------------------------------*\
  =========                 |
  \\      /  F ield         | OpenFOAM: The Open Source CFD Toolbox
   \\    /   O peration     | Website:  https://openfoam.org
    \\  /    A nd           | Version:  7
     \\/     M anipulation  |
\*---------------------------------------------------------------------------*/
FoamFile
{
    version     2.0;
    format      ascii;
    class       volScalarField;
    location    "0.3625";
    object      p;
}
// * * * * * * * * * * * * * * * * * * * * * * * * * * * * * * * * * * * * * //

dimensions      [0 2 -2 0 0 0 0];

internalField   nonuniform List<scalar> 
25600
(
1.50208e-06
0.000114311
0.000143243
3.50672e-05
-0.000218264
-0.000612648
-0.00113704
-0.00177697
-0.00251701
-0.00334196
-0.00423726
-0.00518928
-0.00618542
-0.00721405
-0.00826449
-0.00932689
-0.0103922
-0.0114522
-0.0124993
-0.0135266
-0.0145277
-0.0154968
-0.0164287
-0.0173186
-0.018162
-0.0189551
-0.0196943
-0.0203763
-0.0209983
-0.0215577
-0.0220522
-0.0224799
-0.0228388
-0.0231277
-0.0233451
-0.0234901
-0.0235617
-0.0235595
-0.0234828
-0.0233313
-0.023105
-0.0228039
-0.0224282
-0.0219782
-0.0214543
-0.0208571
-0.0201874
-0.019446
-0.0186338
-0.0177518
-0.0168013
-0.0157835
-0.0146997
-0.0135513
-0.0123398
-0.011067
-0.00973437
-0.00834376
-0.00689696
-0.00539588
-0.00384248
-0.00223879
-0.000586891
0.00111107
0.00285288
0.0046363
0.00645901
0.00831866
0.0102128
0.0121391
0.014095
0.016078
0.0180855
0.0201149
0.0221636
0.024229
0.0263082
0.0283988
0.0304978
0.0326026
0.0347103
0.0368183
0.0389236
0.0410236
0.0431154
0.0451961
0.047263
0.0493133
0.0513442
0.0533528
0.0553365
0.0572924
0.0592179
0.0611102
0.0629667
0.0647847
0.0665616
0.0682949
0.0699821
0.0716207
0.0732084
0.0747427
0.0762214
0.0776424
0.0790035
0.0803027
0.0815381
0.0827077
0.0838099
0.084843
0.0858054
0.0866958
0.0875128
0.0882554
0.0889224
0.0895129
0.0900263
0.0904619
0.0908193
0.0910983
0.0912988
0.0914208
0.0914648
0.091431
0.0913204
0.0911337
0.0908721
0.090537
0.0901299
0.0896529
0.0891079
0.0884974
0.0878242
0.0870912
0.0863017
0.0854595
0.0845685
0.0836333
0.0826585
0.0816494
0.0806117
0.0795515
0.0784756
0.0773912
0.0763061
0.0752288
0.0741684
0.0731349
0.0721389
0.0711919
0.0703064
0.0694954
0.0687729
0.0681534
0.0676512
0.0672796
0.0670477
0.0669574
0.0669977
0.067113
-0.000109006
2.89877e-06
7.14339e-06
-0.000113736
-0.000355801
-0.00071732
-0.00119166
-0.00176838
-0.00243554
-0.00318084
-0.00399202
-0.00485725
-0.00576529
-0.0067056
-0.00766834
-0.0086444
-0.00962528
-0.0106032
-0.0115708
-0.0125216
-0.0134493
-0.0143485
-0.0152139
-0.0160408
-0.016825
-0.0175626
-0.01825
-0.018884
-0.0194617
-0.0199806
-0.0204384
-0.020833
-0.0211627
-0.021426
-0.0216214
-0.021748
-0.0218048
-0.0217911
-0.0217064
-0.0215504
-0.0213228
-0.0210236
-0.0206529
-0.020211
-0.0196983
-0.0191153
-0.0184627
-0.0177411
-0.0169515
-0.0160949
-0.0151722
-0.0141847
-0.0131337
-0.0120205
-0.0108466
-0.00961342
-0.00832264
-0.00697591
-0.00557499
-0.00412169
-0.00261789
-0.00106555
0.00053333
0.00217668
0.00386238
0.00558825
0.00735207
0.00915157
0.0109844
0.0128483
0.0147407
0.0166593
0.0186015
0.020565
0.022547
0.024545
0.0265565
0.0285788
0.0306093
0.0326453
0.0346842
0.0367232
0.0387596
0.0407907
0.0428139
0.0448263
0.0468254
0.0488083
0.0507723
0.0527149
0.0546333
0.0565248
0.0583869
0.0602169
0.0620122
0.0637704
0.0654888
0.0671652
0.0687969
0.0703818
0.0719175
0.0734018
0.0748325
0.0762075
0.0775248
0.0787824
0.0799786
0.0811115
0.0821795
0.083181
0.0841147
0.0849791
0.0857731
0.0864955
0.0871455
0.0877222
0.088225
0.0886533
0.0890067
0.0892852
0.0894886
0.0896172
0.0896712
0.0896513
0.0895581
0.0893927
0.089156
0.0888497
0.0884753
0.0880346
0.0875299
0.0869635
0.0863382
0.0856568
0.0849227
0.0841395
0.0833112
0.0824421
0.0815368
0.0806005
0.0796387
0.0786572
0.0776626
0.0766618
0.0756621
0.0746716
0.0736989
0.0727532
0.0718442
0.0709823
0.0701784
0.0694441
0.0687909
0.0682306
0.0677741
0.0674307
0.0672057
0.0670992
0.0671131
0.0672284
-0.000137509
-1.01618e-06
3.29682e-06
-0.00011883
-0.000350924
-0.000689935
-0.00113039
-0.00166353
-0.00227928
-0.00296717
-0.00371657
-0.00451702
-0.00535844
-0.00623119
-0.00712621
-0.00803499
-0.00894957
-0.00986256
-0.0107671
-0.0116567
-0.0125256
-0.0133684
-0.01418
-0.0149559
-0.0156918
-0.016384
-0.017029
-0.0176236
-0.018165
-0.0186506
-0.019078
-0.0194454
-0.0197508
-0.0199928
-0.02017
-0.0202812
-0.0203256
-0.0203024
-0.0202111
-0.0200511
-0.0198224
-0.0195248
-0.0191583
-0.0187233
-0.0182199
-0.0176488
-0.0170104
-0.0163055
-0.0155348
-0.0146994
-0.0138001
-0.0128382
-0.0118147
-0.0107311
-0.00958872
-0.00838897
-0.00713341
-0.00582365
-0.00446137
-0.00304833
-0.00158634
-7.72798e-05
0.0014769
0.00307421
0.00471258
0.00638992
0.00810406
0.00985281
0.0116339
0.0134451
0.015284
0.0171483
0.0190355
0.0209432
0.022869
0.0248103
0.0267646
0.0287294
0.0307021
0.0326801
0.0346609
0.0366417
0.03862
0.0405932
0.0425585
0.0445135
0.0464553
0.0483815
0.0502894
0.0521763
0.0540398
0.0558771
0.0576859
0.0594635
0.0612074
0.0629153
0.0645846
0.0662131
0.0677984
0.0693382
0.0708304
0.0722727
0.0736631
0.0749995
0.0762801
0.077503
0.0786663
0.0797685
0.080808
0.0817832
0.0826928
0.0835355
0.0843102
0.0850159
0.0856517
0.0862169
0.0867108
0.087133
0.0874831
0.0877612
0.0879671
0.088101
0.0881635
0.0881549
0.0880762
0.0879282
0.0877122
0.0874296
0.087082
0.0866713
0.0861996
0.0856693
0.0850831
0.0844439
0.083755
0.0830198
0.0822423
0.0814267
0.0805775
0.0796996
0.0787985
0.0778798
0.0769497
0.0760147
0.0750821
0.0741592
0.0732542
0.0723756
0.0715324
0.070734
0.0699902
0.0693113
0.0687072
0.0681879
0.0677627
0.0674392
0.0672219
0.0671128
0.0671269
0.067269
-2.96452e-05
0.00012008
0.00012594
3.87031e-06
-0.000222293
-0.000547501
-0.000966077
-0.00146981
-0.00204966
-0.00269619
-0.00339993
-0.00415149
-0.00494172
-0.0057618
-0.00660334
-0.00745841
-0.00831955
-0.00917979
-0.0100326
-0.0108719
-0.011692
-0.0124878
-0.0132543
-0.0139873
-0.0146825
-0.0153363
-0.0159453
-0.0165063
-0.0170166
-0.0174736
-0.0178751
-0.018219
-0.0185035
-0.0187271
-0.0188885
-0.0189865
-0.0190202
-0.0189887
-0.0188915
-0.0187282
-0.0184985
-0.0182023
-0.0178396
-0.0174105
-0.0169153
-0.0163546
-0.0157287
-0.0150385
-0.0142845
-0.0134677
-0.012589
-0.0116495
-0.0106504
-0.00959293
-0.00847833
-0.00730806
-0.00608358
-0.00480645
-0.0034783
-0.00210082
-0.000675762
0.000795044
0.00230972
0.00386632
0.00546285
0.00709728
0.0087675
0.0104714
0.0122067
0.0139713
0.0157629
0.0175791
0.0194176
0.0212761
0.0231521
0.0250433
0.0269471
0.028861
0.0307827
0.0327094
0.0346388
0.0365683
0.0384953
0.0404173
0.0423316
0.0442358
0.0461272
0.0480033
0.0498616
0.0516995
0.0535145
0.0553042
0.0570659
0.0587974
0.0604961
0.0621597
0.0637859
0.0653723
0.0669167
0.0684169
0.0698707
0.0712762
0.0726312
0.0739339
0.0751823
0.0763746
0.0775092
0.0785845
0.0795989
0.0805511
0.0814396
0.0822634
0.0830213
0.0837124
0.0843358
0.0848909
0.085377
0.0857938
0.0861411
0.0864187
0.0866266
0.0867652
0.0868348
0.0868361
0.0867698
0.0866368
0.0864385
0.0861762
0.0858515
0.0854664
0.0850229
0.0845233
0.0839703
0.0833669
0.082716
0.0820213
0.0812865
0.0805157
0.0797133
0.078884
0.078033
0.0771659
0.0762885
0.075407
0.0745283
0.0736594
0.0728078
0.0719816
0.0711889
0.0704385
0.0697394
0.0691005
0.0685309
0.0680396
0.0676348
0.067324
0.067112
0.067003
0.0670203
0.0671793
0.000222977
0.000362296
0.000358648
0.000230717
4.45522e-06
-0.000313817
-0.000718127
-0.00120066
-0.00175311
-0.00236696
-0.00303364
-0.00374465
-0.00449167
-0.00526665
-0.00606185
-0.00686992
-0.0076839
-0.00849721
-0.0093037
-0.0100976
-0.0108736
-0.0116265
-0.012352
-0.0130455
-0.0137033
-0.0143216
-0.0148973
-0.0154271
-0.0159085
-0.0163389
-0.016716
-0.017038
-0.0173029
-0.0175093
-0.0176559
-0.0177414
-0.017765
-0.0177258
-0.0176232
-0.0174568
-0.0172262
-0.0169314
-0.0165722
-0.0161489
-0.0156617
-0.0151109
-0.0144971
-0.0138208
-0.0130829
-0.012284
-0.0114251
-0.0105072
-0.00953147
-0.00849903
-0.00741116
-0.00626922
-0.00507462
-0.00382888
-0.00253354
-0.00119027
0.000199259
0.00163326
0.00310992
0.00462734
0.00618361
0.00777673
0.00940467
0.0110654
0.0127566
0.0144764
0.0162224
0.0179924
0.019784
0.0215951
0.0234233
0.0252661
0.0271213
0.0289863
0.0308588
0.0327363
0.0346164
0.0364964
0.0383741
0.0402468
0.0421121
0.0439675
0.0458104
0.0476385
0.0494492
0.05124
0.0530085
0.0547524
0.0564691
0.0581563
0.0598116
0.0614328
0.0630175
0.0645636
0.0660688
0.0675311
0.0689484
0.0703185
0.0716397
0.07291
0.0741276
0.0752909
0.076398
0.0774476
0.0784381
0.0793682
0.0802367
0.0810423
0.0817842
0.0824613
0.0830728
0.0836182
0.084097
0.0845086
0.0848531
0.0851301
0.0853399
0.0854828
0.0855591
0.0855695
0.0855147
0.0853958
0.085214
0.0849706
0.0846673
0.0843059
0.0838885
0.0834174
0.0828953
0.0823248
0.0817091
0.0810516
0.0803559
0.079626
0.0788662
0.078081
0.0772754
0.0764546
0.0756243
0.0747904
0.0739592
0.0731375
0.0723323
0.0715508
0.0708009
0.0700904
0.0694275
0.0688205
0.0682774
0.0678063
0.0674152
0.067111
0.0668992
0.0667854
0.0667955
0.0669486
0.000616575
0.000724123
0.000698525
0.000556842
0.000323248
4.58441e-06
-0.000393036
-0.000862207
-0.00139528
-0.00198454
-0.00262219
-0.00330053
-0.00401196
-0.00474914
-0.00550495
-0.00627259
-0.00704557
-0.00781775
-0.00858335
-0.00933691
-0.0100733
-0.0107879
-0.0114762
-0.012134
-0.0127577
-0.0133437
-0.0138888
-0.01439
-0.0148448
-0.0152506
-0.0156053
-0.0159069
-0.0161538
-0.0163442
-0.016477
-0.016551
-0.0165652
-0.0165188
-0.0164112
-0.016242
-0.0160107
-0.0157172
-0.0153616
-0.0149438
-0.0144642
-0.013923
-0.0133207
-0.0126579
-0.0119352
-0.0111534
-0.0103134
-0.00941617
-0.00846273
-0.00745424
-0.00639191
-0.00527704
-0.00411101
-0.00289526
-0.00163131
-0.000320733
0.00103481
0.00243361
0.0038739
0.00535385
0.0068716
0.0084252
0.0100127
0.011632
0.0132812
0.014958
0.0166604
0.0183862
0.020133
0.0218988
0.0236811
0.0254778
0.0272865
0.0291047
0.0309302
0.0327606
0.0345934
0.0364263
0.0382568
0.0400825
0.041901
0.0437097
0.0455064
0.0472886
0.0490538
0.0507997
0.0525239
0.0542241
0.0558978
0.0575428
0.0591568
0.0607375
0.0622828
0.0637905
0.0652585
0.0666847
0.0680671
0.0694037
0.0706927
0.0719323
0.0731206
0.0742561
0.0753372
0.0763624
0.0773302
0.0782394
0.0790888
0.0798773
0.0806038
0.0812676
0.0818679
0.0824041
0.0828758
0.0832825
0.0836241
0.0839005
0.084112
0.0842587
0.0843411
0.0843599
0.0843158
0.0842098
0.0840431
0.0838172
0.0835336
0.083194
0.0828007
0.0823557
0.0818617
0.0813214
0.0807378
0.080114
0.0794538
0.0787609
0.0780394
0.0772937
0.0765285
0.0757489
0.0749601
0.0741678
0.0733779
0.0725968
0.0718309
0.0710871
0.0703724
0.0696942
0.0690598
0.0684767
0.0679525
0.0674945
0.0671099
0.0668057
0.0665874
0.0664614
0.0664525
0.0665786
0.00114066
0.00119944
0.00114049
0.000976849
0.000728407
0.000401954
3.54917e-06
-0.000459883
-0.000981325
-0.00155375
-0.00217011
-0.00282338
-0.00350664
-0.00421318
-0.00493646
-0.0056702
-0.00640838
-0.00714529
-0.0078755
-0.00859388
-0.00929563
-0.00997624
-0.0106315
-0.0112575
-0.0118506
-0.0124075
-0.0129251
-0.0134005
-0.0138311
-0.0142146
-0.0145488
-0.014832
-0.0150622
-0.0152381
-0.0153583
-0.0154217
-0.0154274
-0.0153745
-0.0152624
-0.0150906
-0.0148588
-0.0145668
-0.0142146
-0.0138022
-0.0133298
-0.0127977
-0.0122063
-0.0115562
-0.010848
-0.0100825
-0.00926041
-0.00838273
-0.00745045
-0.00646466
-0.00542655
-0.00433736
-0.00319841
-0.00201111
-0.000776924
0.000502621
0.00182592
0.00319132
0.00459711
0.0060415
0.00752269
0.00903879
0.0105879
0.012168
0.0137772
0.0154133
0.0170743
0.0187581
0.0204624
0.0221851
0.0239241
0.0256769
0.0274415
0.0292153
0.0309963
0.032782
0.0345701
0.0363582
0.0381441
0.0399252
0.0416993
0.0434639
0.0452168
0.0469555
0.0486777
0.0503811
0.0520634
0.0537222
0.0553553
0.0569604
0.0585353
0.0600779
0.0615859
0.0630574
0.0644902
0.0658823
0.0672318
0.0685368
0.0697955
0.071006
0.0721668
0.0732762
0.0743327
0.0753349
0.0762814
0.0771709
0.0780023
0.0787745
0.0794867
0.080138
0.0807277
0.0812551
0.08172
0.082122
0.0824608
0.0827366
0.0829494
0.0830995
0.0831874
0.0832137
0.0831793
0.083085
0.0829322
0.0827221
0.0824563
0.0821366
0.081765
0.0813437
0.0808751
0.0803619
0.0798069
0.0792135
0.0785849
0.0779248
0.0772372
0.0765263
0.0757965
0.0750526
0.0742997
0.073543
0.0727881
0.0720409
0.0713075
0.0705942
0.0699075
0.0692541
0.0686407
0.0680743
0.0675615
0.0671093
0.0667242
0.066413
0.0661812
0.0660351
0.0659961
0.0660783
0.00178142
0.00177844
0.00167637
0.00148304
0.00121254
0.000871317
0.000465186
4.88038e-07
-0.000516386
-0.00107905
-0.00168112
-0.00231623
-0.00297808
-0.00366054
-0.0043576
-0.0050635
-0.00577265
-0.00647974
-0.00717972
-0.00786778
-0.00853939
-0.00919031
-0.00981655
-0.0104144
-0.0109804
-0.0115113
-0.0120042
-0.0124563
-0.0128652
-0.0132286
-0.0135444
-0.0138107
-0.0140259
-0.0141886
-0.0142974
-0.0143512
-0.0143491
-0.0142903
-0.0141742
-0.0140003
-0.0137682
-0.0134778
-0.0131289
-0.0127216
-0.0122561
-0.0117327
-0.0111518
-0.0105138
-0.0098194
-0.00906924
-0.00826415
-0.007405
-0.00649277
-0.00552851
-0.00451334
-0.00344849
-0.00233522
-0.00117488
3.10933e-05
0.00128123
0.00257397
0.0039077
0.00528077
0.00669145
0.00813798
0.00961852
0.0111312
0.0126742
0.0142454
0.0158429
0.0174647
0.0191086
0.0207727
0.0224547
0.0241524
0.0258637
0.0275865
0.0293183
0.0310571
0.0328005
0.0345462
0.036292
0.0380355
0.0397745
0.0415065
0.0432294
0.0449409
0.0466385
0.0483201
0.0499833
0.0516259
0.0532457
0.0548404
0.0564079
0.0579459
0.0594524
0.0609254
0.0623626
0.0637622
0.0651222
0.0664407
0.0677159
0.068946
0.0701293
0.0712642
0.072349
0.0733824
0.0743629
0.0752892
0.0761602
0.0769747
0.0777317
0.0784303
0.0790698
0.0796494
0.0801686
0.080627
0.0810244
0.0813605
0.0816354
0.0818493
0.0820024
0.0820951
0.0821283
0.0821025
0.0820188
0.0818784
0.0816826
0.0814329
0.081131
0.080779
0.0803788
0.079933
0.079444
0.0789147
0.0783481
0.0777475
0.0771163
0.0764584
0.0757777
0.0750786
0.0743654
0.073643
0.0729164
0.0721907
0.0714714
0.0707641
0.0700748
0.0694094
0.068774
0.0681748
0.0676181
0.06711
0.0666569
0.0662648
0.0659399
0.0656875
0.065514
0.0654351
0.0654604
0.00252421
0.00244994
0.00229684
0.00206702
0.00176794
0.00140555
0.000985363
0.000513055
-5.63206e-06
-0.00056493
-0.00115906
-0.00178228
-0.00242887
-0.00309322
-0.00376987
-0.00445348
-0.00513893
-0.00582129
-0.00649584
-0.00715812
-0.00780388
-0.00842913
-0.00903009
-0.00960327
-0.0101454
-0.0106533
-0.0111243
-0.0115558
-0.0119452
-0.0122905
-0.0125897
-0.0128409
-0.0130426
-0.0131934
-0.0132919
-0.0133371
-0.0133281
-0.0132641
-0.0131445
-0.0129688
-0.0127366
-0.0124478
-0.0121022
-0.0117
-0.0112412
-0.010726
-0.010155
-0.00952855
-0.00884721
-0.00811166
-0.00732268
-0.0064811
-0.00558787
-0.00464399
-0.00365057
-0.00260876
-0.00151981
-0.000385017
0.000794236
0.00201651
0.0032803
0.00458404
0.00592612
0.00730486
0.00871855
0.0101654
0.0116436
0.0131513
0.0146867
0.0162476
0.0178322
0.0194385
0.0210643
0.0227077
0.0243665
0.0260385
0.0277217
0.0294138
0.0311126
0.0328159
0.0345216
0.0362273
0.0379308
0.0396299
0.0413223
0.0430057
0.044678
0.0463368
0.04798
0.0496053
0.0512105
0.0527934
0.0543519
0.0558839
0.0573872
0.0588597
0.0602996
0.0617046
0.063073
0.0644028
0.0656921
0.0669392
0.0681425
0.0693001
0.0704105
0.0714723
0.0724839
0.0734441
0.0743515
0.075205
0.0760036
0.0767463
0.0774321
0.0780604
0.0786305
0.0791418
0.0795941
0.079987
0.0803204
0.0805944
0.080809
0.0809646
0.0810617
0.0811008
0.0810828
0.0810086
0.0808793
0.0806962
0.0804609
0.080175
0.0798404
0.0794591
0.0790335
0.0785659
0.0780592
0.0775162
0.07694
0.0763341
0.0757019
0.0750473
0.0743743
0.0736872
0.0729904
0.0722885
0.0715866
0.0708895
0.0702027
0.0695314
0.0688811
0.0682576
0.0676664
0.0671132
0.0666037
0.0661435
0.0657382
0.0653934
0.0651142
0.0649065
0.0647799
0.0647384
0.00335483
0.00320241
0.00299216
0.00272016
0.00238681
0.00199755
0.00155762
0.001072
0.000545745
-1.59562e-05
-0.000607915
-0.00122494
-0.00186187
-0.00251361
-0.00317515
-0.00384163
-0.00450832
-0.00517067
-0.00582431
-0.00646508
-0.00708902
-0.00769238
-0.00827164
-0.00882347
-0.00934477
-0.00983264
-0.0102844
-0.0106976
-0.0110698
-0.0113991
-0.0116835
-0.0119213
-0.0121109
-0.012251
-0.0123404
-0.012378
-0.0123629
-0.0122943
-0.0121717
-0.0119945
-0.0117625
-0.0114754
-0.0111332
-0.0107358
-0.0102834
-0.00977622
-0.00921465
-0.00859912
-0.00793019
-0.00720849
-0.00643476
-0.00560983
-0.00473458
-0.00381
-0.00283714
-0.00181714
-0.000751189
0.000359442
0.00151342
0.00270934
0.00394575
0.00522112
0.00653388
0.00788242
0.00926505
0.0106801
0.0121257
0.0136001
0.0151014
0.0166278
0.0181773
0.0197479
0.0213377
0.0229445
0.0245664
0.0262013
0.0278471
0.0295016
0.0311627
0.0328283
0.0344961
0.0361639
0.0378297
0.0394911
0.0411461
0.0427923
0.0444277
0.0460499
0.0476569
0.0492464
0.0508164
0.0523646
0.0538891
0.0553876
0.0568582
0.0582988
0.0597075
0.0610823
0.0624213
0.0637226
0.0649846
0.0662054
0.0673834
0.0685169
0.0696044
0.0706445
0.0716357
0.0725768
0.0734665
0.0743037
0.0750873
0.0758164
0.0764902
0.077108
0.0776691
0.078173
0.0786194
0.079008
0.0793387
0.0796116
0.0798267
0.0799844
0.0800851
0.0801295
0.0801183
0.0800524
0.079933
0.0797613
0.0795387
0.0792669
0.0789476
0.078583
0.0781751
0.0777264
0.0772394
0.0767169
0.0761619
0.0755776
0.0749674
0.0743349
0.0736839
0.0730183
0.0723424
0.0716606
0.0709773
0.0702974
0.0696255
0.0689668
0.0683262
0.0677088
0.0671199
0.0665646
0.066048
0.0655752
0.0651512
0.064781
0.0644694
0.0642218
0.0640412
0.0639259
0.00425994
0.00402463
0.00375255
0.00343375
0.00306132
0.00264026
0.00217556
0.00167152
0.00113256
0.000563263
-3.17192e-05
-0.000647726
-0.0012801
-0.00192423
-0.00257556
-0.00322964
-0.00388214
-0.00452887
-0.00516579
-0.00578905
-0.00639496
-0.00698002
-0.00754094
-0.00807458
-0.00857803
-0.00904855
-0.0094836
-0.00988081
-0.010238
-0.0105532
-0.0108246
-0.0110506
-0.0112296
-0.0113603
-0.0114416
-0.0114725
-0.011452
-0.0113795
-0.0112544
-0.0110762
-0.0108446
-0.0105594
-0.0102204
-0.00982776
-0.00938154
-0.00888198
-0.00832943
-0.0077243
-0.00706715
-0.00635857
-0.00559929
-0.00479009
-0.00393185
-0.0030255
-0.00207208
-0.00107267
-2.84459e-05
0.00105937
0.00218948
0.00336051
0.00457106
0.00581965
0.00710474
0.00842475
0.00977806
0.011163
0.0125778
0.0140208
0.01549
0.0169838
0.0185001
0.0200371
0.0215928
0.0231653
0.0247524
0.0263523
0.0279628
0.0295818
0.0312074
0.0328373
0.0344694
0.0361017
0.0377319
0.0393579
0.0409776
0.0425888
0.0441894
0.0457772
0.0473501
0.0489061
0.0504429
0.0519586
0.053451
0.0549181
0.056358
0.0577686
0.0591481
0.0604945
0.0618059
0.0630807
0.064317
0.0655131
0.0666674
0.0677784
0.0688445
0.0698642
0.0708364
0.0717596
0.0726326
0.0734545
0.0742241
0.0749406
0.0756031
0.076211
0.0767636
0.0772604
0.0777012
0.0780857
0.0784137
0.0786852
0.0789006
0.0790599
0.0791638
0.0792127
0.0792074
0.0791488
0.079038
0.0788762
0.0786647
0.0784053
0.0780995
0.0777493
0.0773569
0.0769244
0.0764544
0.0759495
0.0754126
0.0748466
0.0742548
0.0736406
0.0730076
0.0723595
0.0717002
0.0710339
0.0703647
0.0696969
0.0690352
0.068384
0.0677479
0.0671316
0.0665399
0.0659773
0.0654485
0.0649581
0.0645105
0.06411
0.0637612
0.0634691
0.0632297
0.0630355
0.00522723
0.00490585
0.00456849
0.0041992
0.00378371
0.00332666
0.00283284
0.00230589
0.00174964
0.00116812
0.000565453
-5.41968e-05
-0.000686643
-0.00132772
-0.0019733
-0.00261934
-0.00326187
-0.00389704
-0.00452115
-0.00513063
-0.00572205
-0.00629218
-0.00683792
-0.00735636
-0.00784475
-0.00830052
-0.00872128
-0.00910478
-0.00944899
-0.009752
-0.0100121
-0.0102277
-0.0103974
-0.01052
-0.0105943
-0.0106194
-0.0105944
-0.0105186
-0.0103915
-0.0102126
-0.00998162
-0.00969836
-0.0093627
-0.00897469
-0.00853443
-0.00804216
-0.0074982
-0.00690296
-0.00625697
-0.00556081
-0.00481519
-0.00402086
-0.00317866
-0.00228953
-0.00135443
-0.00037445
0.000649293
0.0017156
0.00282321
0.00397079
0.00515697
0.00638031
0.00763932
0.00893246
0.0102581
0.0116147
0.0130006
0.0144139
0.015853
0.017316
0.0188011
0.0203064
0.02183
0.02337
0.0249245
0.0264914
0.0280687
0.0296544
0.0312465
0.0328429
0.0344415
0.0360402
0.037637
0.0392297
0.0408163
0.0423946
0.0439626
0.0455181
0.0470591
0.0485835
0.0500893
0.0515744
0.0530368
0.0544746
0.0558857
0.0572682
0.0586203
0.0599402
0.0612259
0.0624757
0.063688
0.0648611
0.0659933
0.0670832
0.0681293
0.0691301
0.0700844
0.0709909
0.0718484
0.072656
0.0734125
0.0741171
0.0747691
0.0753676
0.0759122
0.0764024
0.0768378
0.0772182
0.0775435
0.0778137
0.078029
0.0781896
0.078296
0.0783487
0.0783485
0.0782962
0.0781928
0.0780396
0.0778378
0.0775889
0.0772948
0.076957
0.0765778
0.0761592
0.0757035
0.0752135
0.0746916
0.0741408
0.0735641
0.0729647
0.072346
0.0717114
0.0710648
0.0704097
0.0697502
0.0690904
0.0684342
0.0677859
0.0671497
0.0665299
0.0659306
0.0653562
0.0648108
0.0642983
0.0638228
0.0633877
0.0629977
0.0626573
0.0623556
0.0620793
0.00624537
0.00583601
0.00543091
0.00500823
0.00454646
0.00404991
0.00352323
0.00296949
0.00239191
0.00179405
0.00117952
0.000552042
-8.4655e-05
-0.000726821
-0.00137073
-0.00201271
-0.00264914
-0.00327652
-0.00389144
-0.0044906
-0.00507085
-0.00562919
-0.00616274
-0.00666878
-0.00714474
-0.00758823
-0.00799698
-0.0083689
-0.00870206
-0.00899467
-0.0092451
-0.00945187
-0.00961365
-0.00972922
-0.00979754
-0.00981769
-0.00978886
-0.0097104
-0.00958177
-0.00940256
-0.00917246
-0.00889129
-0.00855895
-0.00817547
-0.00774097
-0.00725567
-0.0067199
-0.00613405
-0.00549863
-0.00481422
-0.00408149
-0.00330118
-0.00247411
-0.00160118
-0.000683346
0.000278355
0.00128282
0.00232889
0.00341534
0.00454086
0.00570412
0.00690372
0.00813821
0.00940608
0.0107058
0.0120357
0.0133943
0.0147798
0.0161905
0.0176246
0.0190803
0.0205559
0.0220494
0.023559
0.0250827
0.0266186
0.0281648
0.0297192
0.0312799
0.0328449
0.034412
0.0359794
0.0375448
0.0391063
0.0406619
0.0422094
0.0437468
0.0452721
0.0467832
0.0482781
0.0497549
0.0512114
0.0526458
0.0540561
0.0554403
0.0567967
0.0581233
0.0594183
0.06068
0.0619067
0.0630966
0.0642482
0.0653598
0.0664301
0.0674575
0.0684407
0.0693784
0.0702693
0.0711124
0.0719066
0.0726509
0.0733445
0.0739866
0.0745764
0.0751135
0.0755974
0.0760277
0.0764042
0.0767268
0.0769955
0.0772104
0.0773719
0.0774803
0.0775361
0.0775402
0.0774932
0.0773961
0.0772502
0.0770566
0.0768168
0.0765324
0.0762052
0.075837
0.07543
0.0749863
0.0745084
0.0739988
0.0734602
0.0728954
0.0723075
0.0716997
0.0710751
0.0704373
0.0697897
0.069136
0.0684799
0.0678251
0.0671756
0.0665351
0.0659075
0.0652966
0.0647062
0.0641401
0.0636017
0.0630944
0.0626213
0.0621869
0.0617953
0.0614286
0.0610679
0.00730402
0.00680569
0.00633121
0.00585298
0.00534233
0.00480338
0.00424069
0.00365677
0.00305436
0.00243652
0.00180643
0.00116737
0.00052266
-0.000124342
-0.000770286
-0.00141184
-0.00204574
-0.00266878
-0.00327784
-0.00386991
-0.00444207
-0.00499155
-0.00551569
-0.00601197
-0.00647799
-0.00691151
-0.00731043
-0.00767278
-0.00799674
-0.00828066
-0.00852298
-0.00872231
-0.00887739
-0.00898709
-0.00905041
-0.00906648
-0.00903455
-0.00895401
-0.00882433
-0.00864514
-0.00841615
-0.00813718
-0.00780816
-0.00742912
-0.00700018
-0.00652156
-0.00599357
-0.00541663
-0.00479121
-0.00411788
-0.0033973
-0.0026302
-0.00181736
-0.000959658
-5.80385e-05
0.000886494
0.00187287
0.00289994
0.00396652
0.00507135
0.00621311
0.00739043
0.00860191
0.00984609
0.0111214
0.0124264
0.0137594
0.0151188
0.0165028
0.0179099
0.0193381
0.0207858
0.0222511
0.0237322
0.0252271
0.026734
0.0282511
0.0297762
0.0313075
0.0328431
0.0343808
0.0359188
0.0374549
0.0389873
0.0405138
0.0420326
0.0435415
0.0450385
0.0465218
0.0479892
0.0494389
0.0508688
0.0522771
0.0536618
0.055021
0.056353
0.0576559
0.0589279
0.0601673
0.0613724
0.0625415
0.0636732
0.0647657
0.0658178
0.0668279
0.0677947
0.068717
0.0695936
0.0704233
0.0712051
0.0719381
0.0726214
0.0732542
0.0738359
0.074366
0.0748439
0.0752693
0.0756421
0.075962
0.0762291
0.0764435
0.0766054
0.0767153
0.0767737
0.0767812
0.0767386
0.0766468
0.0765069
0.0763202
0.0760879
0.0758117
0.0754931
0.075134
0.0747364
0.0743024
0.0738342
0.0733342
0.072805
0.0722492
0.0716698
0.0710696
0.0704517
0.0698192
0.0691755
0.0685239
0.0678678
0.0672107
0.0665561
0.0659074
0.0652683
0.064642
0.064032
0.0634416
0.0628739
0.0623318
0.0618177
0.0613361
0.060891
0.0604577
0.0600115
0.00839379
0.00780621
0.00726136
0.00672597
0.00616442
0.0055807
0.00497934
0.00436239
0.0037321
0.0030911
0.00244217
0.00178818
0.00113208
0.000476866
-0.000174466
-0.00081892
-0.00145354
-0.00207541
-0.0026817
-0.00326964
-0.00383657
-0.00437993
-0.00489727
-0.00538624
-0.00584465
-0.00627039
-0.00666151
-0.00701619
-0.00733272
-0.00760955
-0.00784523
-0.00803846
-0.00818805
-0.00829295
-0.0083522
-0.00836501
-0.00833067
-0.00824859
-0.00811832
-0.00793947
-0.00771181
-0.00743515
-0.00710946
-0.00673476
-0.00631118
-0.00583895
-0.00531838
-0.00474986
-0.00413388
-0.003471
-0.00276185
-0.00200714
-0.00120765
-0.000364234
0.000522191
0.00145064
0.00242007
0.00342936
0.00447735
0.00556281
0.00668445
0.00784094
0.00903091
0.0102529
0.0115055
0.0127871
0.0140962
0.0154312
0.0167904
0.0181721
0.0195746
0.0209963
0.0224352
0.0238896
0.0253577
0.0268376
0.0283274
0.0298252
0.0313291
0.0328372
0.0343476
0.0358581
0.037367
0.0388722
0.0403718
0.0418637
0.0433461
0.044817
0.0462743
0.0477162
0.0491407
0.0505459
0.0519299
0.0532909
0.054627
0.0559364
0.0572173
0.058468
0.0596867
0.0608718
0.0620218
0.063135
0.0642099
0.0652452
0.0662393
0.067191
0.0680991
0.0689623
0.0697797
0.07055
0.0712725
0.0719463
0.0725706
0.0731448
0.0736682
0.0741406
0.0745614
0.0749305
0.0752478
0.0755132
0.0757269
0.075889
0.076
0.0760602
0.0760705
0.0760314
0.0759438
0.0758089
0.0756277
0.0754015
0.0751318
0.0748202
0.0744683
0.0740781
0.0736515
0.0731907
0.0726978
0.0721754
0.071626
0.0710521
0.0704565
0.0698422
0.0692119
0.0685688
0.067916
0.0672565
0.0665936
0.0659305
0.0652702
0.0646161
0.0639711
0.0633383
0.0627206
0.0621206
0.0615409
0.0609834
0.0604526
0.0599524
0.0594511
0.058919
0.0095062
0.00882955
0.00821381
0.00762019
0.00700619
0.00637579
0.00573358
0.00508116
0.00442036
0.00375343
0.00308277
0.00241089
0.00174039
0.00107393
0.000414171
-0.000236191
-0.000874495
-0.00149811
-0.00210445
-0.00269102
-0.00325536
-0.00379513
-0.00430808
-0.00479206
-0.00524502
-0.00566503
-0.00605027
-0.00639906
-0.00670982
-0.00698109
-0.00721153
-0.00739992
-0.00754516
-0.00764625
-0.00770234
-0.00771265
-0.00767654
-0.00759348
-0.00746302
-0.00728484
-0.0070587
-0.00678447
-0.00646209
-0.00609163
-0.00567322
-0.00520709
-0.00469355
-0.004133
-0.00352592
-0.00287284
-0.00217441
-0.00143131
-0.00064432
0.000185741
0.00105797
0.0019714
0.00292501
0.00391771
0.00494835
0.00601574
0.00711862
0.00825568
0.00942558
0.0106269
0.0118583
0.0131181
0.0144049
0.0157172
0.0170532
0.0184114
0.01979
0.0211874
0.0226018
0.0240314
0.0254745
0.0269292
0.0283937
0.0298661
0.0313446
0.0328272
0.034312
0.0357972
0.0372807
0.0387608
0.0402353
0.0417024
0.0431602
0.0446068
0.0460401
0.0474584
0.0488596
0.050242
0.0516036
0.0529427
0.0542574
0.0555459
0.0568066
0.0580376
0.0592373
0.0604041
0.0615364
0.0626326
0.0636913
0.0647111
0.0656905
0.0666284
0.0675234
0.0683744
0.0691804
0.0699402
0.0706531
0.0713181
0.0719345
0.0725017
0.0730191
0.0734862
0.0739028
0.0742684
0.0745831
0.0748467
0.0750594
0.0752214
0.075333
0.0753947
0.0754069
0.0753705
0.0752863
0.0751552
0.0749783
0.0747569
0.0744923
0.074186
0.0738396
0.0734548
0.0730336
0.072578
0.0720901
0.071572
0.0710263
0.0704553
0.0698617
0.069248
0.068617
0.0679715
0.0673143
0.0666483
0.0659765
0.0653017
0.0646268
0.0639547
0.063288
0.0626296
0.0619818
0.0613471
0.0607275
0.0601246
0.059543
0.0589864
0.0584167
0.0577987
0.0106335
0.00986836
0.00918161
0.00852902
0.00786144
0.00718288
0.00649802
0.0058081
0.00511455
0.00441928
0.00372437
0.00303198
0.00234439
0.00166395
0.000993039
0.000334041
-0.000310647
-0.000938656
-0.00154765
-0.00213535
-0.00269954
-0.00323807
-0.00374888
-0.00422999
-0.00467953
-0.00509572
-0.00547689
-0.00582147
-0.006128
-0.00639514
-0.00662165
-0.00680639
-0.00694835
-0.00704661
-0.00710035
-0.0071089
-0.00707164
-0.00698809
-0.00685785
-0.00668062
-0.0064562
-0.00618447
-0.00586541
-0.00549908
-0.00508564
-0.00462532
-0.00411844
-0.0035654
-0.00296666
-0.00232278
-0.00163437
-0.000902122
-0.000126778
0.00069084
0.00154985
0.0024493
0.0033882
0.00436546
0.00537998
0.00643057
0.00751602
0.00863503
0.0097863
0.0109685
0.0121801
0.0134197
0.0146859
0.015977
0.0172915
0.0186278
0.0199842
0.0213591
0.0227508
0.0241574
0.0255774
0.0270088
0.0284498
0.0298987
0.0313536
0.0328127
0.0342739
0.0357356
0.0371958
0.0386525
0.040104
0.0415482
0.0429833
0.0444074
0.0458187
0.0472152
0.048595
0.0499564
0.0512974
0.0526164
0.0539114
0.0551808
0.0564229
0.0576358
0.0588181
0.0599681
0.0610842
0.062165
0.0632089
0.0642145
0.0651806
0.0661058
0.0669889
0.0678287
0.0686243
0.0693746
0.0700786
0.0707356
0.0713449
0.0719056
0.0724174
0.0728797
0.0732922
0.0736545
0.0739667
0.0742285
0.0744401
0.0746017
0.0747135
0.0747761
0.0747898
0.0747553
0.0746735
0.0745453
0.0743716
0.0741536
0.0738927
0.0735901
0.0732475
0.0728665
0.0724488
0.0719964
0.0715112
0.0709953
0.0704509
0.0698804
0.069286
0.0686704
0.0680359
0.0673852
0.0667209
0.0660457
0.0653621
0.0646728
0.0639805
0.0632876
0.0625967
0.0619101
0.0612299
0.0605584
0.059897
0.0592472
0.0586135
0.0579997
0.0573614
0.0566578
0.0117687
0.0109159
0.0101583
0.00944632
0.00872437
0.00799649
0.00726754
0.00653842
0.00581022
0.00508455
0.00436317
0.00364796
0.00294091
0.00224407
0.00155953
0.000889439
0.00023592
-0.000398897
-0.00101291
-0.00160406
-0.00217034
-0.00270978
-0.00322052
-0.00370075
-0.00414875
-0.0045629
-0.00494166
-0.0052836
-0.00558736
-0.00585172
-0.00607553
-0.00625774
-0.00639742
-0.00649373
-0.00654593
-0.00655339
-0.00651555
-0.00643198
-0.00630232
-0.00612631
-0.00590377
-0.00563462
-0.00531885
-0.00495654
-0.00454787
-0.00409307
-0.00359248
-0.00304649
-0.00245557
-0.00182027
-0.0011412
-0.00041903
0.000345492
0.00115156
0.00199831
0.00288481
0.00381007
0.00477305
0.00577264