/*--------------------------------*- C++ -*----------------------------------*\
  =========                 |
  \\      /  F ield         | OpenFOAM: The Open Source CFD Toolbox
   \\    /   O peration     | Website:  https://openfoam.org
    \\  /    A nd           | Version:  7
     \\/     M anipulation  |
\*---------------------------------------------------------------------------*/
FoamFile
{
    version     2.0;
    format      ascii;
    class       surfaceScalarField;
    location    "0.3625";
    object      phi;
}
// * * * * * * * * * * * * * * * * * * * * * * * * * * * * * * * * * * * * * //

dimensions      [0 3 -1 0 0 0 0];

internalField   nonuniform List<scalar> 
50880
(
6.00679e-12
-6.22089e-12
3.62158e-11
-3.02093e-11
8.11107e-11
-4.48937e-11
1.30746e-10
-4.96361e-11
1.77985e-10
-4.7243e-11
2.17852e-10
-3.98721e-11
2.46923e-10
-2.90707e-11
2.62883e-10
-1.59567e-11
2.64204e-10
-1.3195e-12
2.49919e-10
1.4283e-11
2.19468e-10
3.04475e-11
1.72592e-10
4.68744e-11
1.09256e-10
6.33378e-11
2.95907e-11
7.96671e-11
-6.61406e-11
9.57323e-11
-1.77574e-10
1.11434e-10
-3.04268e-10
1.26694e-10
-4.45718e-10
1.41451e-10
-6.01375e-10
1.55658e-10
-7.70652e-10
1.69278e-10
-9.52934e-10
1.82283e-10
-1.14759e-09
1.94652e-10
-1.35395e-09
2.06369e-10
-1.57138e-09
2.17423e-10
-1.79918e-09
2.27808e-10
-2.0367e-09
2.37518e-10
-2.28326e-09
2.46553e-10
-2.53817e-09
2.54913e-10
-2.80077e-09
2.62601e-10
-3.07039e-09
2.6962e-10
-3.34636e-09
2.75976e-10
-3.62804e-09
2.81676e-10
-3.91476e-09
2.86726e-10
-4.2059e-09
2.91137e-10
-4.50082e-09
2.94916e-10
-4.79889e-09
2.98073e-10
-5.09951e-09
3.00618e-10
-5.40207e-09
3.02562e-10
-5.70598e-09
3.03917e-10
-6.01068e-09
3.04693e-10
-6.31558e-09
3.04901e-10
-6.62013e-09
3.04555e-10
-6.9238e-09
3.03666e-10
-7.22605e-09
3.02245e-10
-7.52635e-09
3.00307e-10
-7.82422e-09
2.97863e-10
-8.11914e-09
2.94927e-10
-8.41065e-09
2.91509e-10
-8.69828e-09
2.87625e-10
-8.98156e-09
2.83285e-10
-9.26007e-09
2.78505e-10
-9.53336e-09
2.73295e-10
-9.80103e-09
2.6767e-10
-1.00627e-08
2.61643e-10
-1.03179e-08
2.55226e-10
-1.05663e-08
2.48433e-10
-1.08076e-08
2.41277e-10
-1.10414e-08
2.33771e-10
-1.12673e-08
2.25928e-10
-1.14851e-08
2.17762e-10
-1.16944e-08
2.09286e-10
-1.18949e-08
2.00514e-10
-1.20863e-08
1.91458e-10
-1.22685e-08
1.82132e-10
-1.2441e-08
1.7255e-10
-1.26037e-08
1.62726e-10
-1.27564e-08
1.52672e-10
-1.28988e-08
1.42403e-10
-1.30307e-08
1.31933e-10
-1.3152e-08
1.21276e-10
-1.32625e-08
1.10444e-10
-1.33619e-08
9.94538e-11
-1.34502e-08
8.83181e-11
-1.35273e-08
7.70516e-11
-1.3593e-08
6.56688e-11
-1.36471e-08
5.41843e-11
-1.36897e-08
4.26125e-11
-1.37207e-08
3.09685e-11
-1.374e-08
1.92672e-11
-1.37475e-08
7.52369e-12
-1.37433e-08
-4.24673e-12
-1.37272e-08
-1.60287e-11
-1.36994e-08
-2.78067e-11
-1.36599e-08
-3.9565e-11
-1.36086e-08
-5.12879e-11
-1.35456e-08
-6.29594e-11
-1.3471e-08
-7.45633e-11
-1.3385e-08
-8.60835e-11
-1.32875e-08
-9.75036e-11
-1.31787e-08
-1.08807e-10
-1.30587e-08
-1.19978e-10
-1.29277e-08
-1.30999e-10
-1.27858e-08
-1.41853e-10
-1.26333e-08
-1.52524e-10
-1.24703e-08
-1.62994e-10
-1.22971e-08
-1.73247e-10
-1.21138e-08
-1.83266e-10
-1.19208e-08
-1.93033e-10
-1.17182e-08
-2.02532e-10
-1.15065e-08
-2.11745e-10
-1.12858e-08
-2.20655e-10
-1.10566e-08
-2.29246e-10
-1.08191e-08
-2.375e-10
-1.05737e-08
-2.454e-10
-1.03208e-08
-2.52929e-10
-1.00607e-08
-2.60072e-10
-9.79387e-09
-2.66811e-10
-9.52074e-09
-2.7313e-10
-9.24172e-09
-2.79013e-10
-8.95728e-09
-2.84443e-10
-8.66788e-09
-2.89406e-10
-8.37399e-09
-2.93885e-10
-8.07612e-09
-2.97866e-10
-7.77479e-09
-3.01334e-10
-7.47051e-09
-3.04275e-10
-7.16384e-09
-3.06674e-10
-6.85532e-09
-3.08518e-10
-6.54552e-09
-3.09794e-10
-6.23503e-09
-3.1049e-10
-5.92444e-09
-3.10593e-10
-5.61434e-09
-3.10093e-10
-5.30537e-09
-3.08977e-10
-4.99813e-09
-3.07237e-10
-4.69327e-09
-3.04862e-10
-4.39143e-09
-3.01844e-10
-4.09325e-09
-2.98176e-10
-3.7994e-09
-2.93849e-10
-3.51054e-09
-2.8886e-10
-3.22734e-09
-2.83201e-10
-2.95047e-09
-2.76871e-10
-2.68061e-09
-2.69865e-10
-2.41842e-09
-2.62184e-10
-2.16459e-09
-2.53827e-10
-1.9198e-09
-2.44797e-10
-1.6847e-09
-2.35097e-10
-1.45997e-09
-2.24735e-10
-1.24625e-09
-2.13717e-10
-1.04419e-09
-2.02056e-10
-8.54426e-10
-1.89767e-10
-6.77558e-10
-1.76868e-10
-5.14175e-10
-1.63383e-10
-3.64833e-10
-1.49342e-10
-2.30054e-10
-1.3478e-10
-1.10313e-10
-1.19741e-10
-6.0298e-12
-1.04283e-10
8.24438e-11
-8.84726e-11
1.54842e-10
-7.23975e-11
2.11007e-10
-5.61652e-11
2.50919e-10
-3.99129e-11
2.74736e-10
-2.38171e-11
2.82844e-10
-8.10793e-12
2.75933e-10
6.91092e-12
2.55102e-10
2.0832e-11
2.22005e-10
3.30974e-11
1.79079e-10
4.29275e-11
1.29851e-10
4.92313e-11
7.9338e-11
5.05139e-11
3.46117e-11
4.47241e-11
5.32546e-12
2.92798e-11
5.3196e-12
3.00906e-11
-3.63121e-11
1.01218e-10
-1.01343e-10
1.95463e-10
-1.39141e-10
2.95773e-10
-1.49943e-10
3.87791e-10
-1.39258e-10
4.60275e-10
-1.1236e-10
5.04768e-10
-7.35713e-11
5.15086e-10
-2.62792e-11
4.86838e-10
2.69291e-11
4.17023e-10
8.41011e-11
3.03717e-10
1.43754e-10
1.45834e-10
2.04754e-10
-5.70573e-11
2.66227e-10
-3.0488e-10
3.2749e-10
-5.97156e-10
3.88011e-10
-9.33089e-10
4.4737e-10
-1.31163e-09
5.05237e-10
-1.73153e-09
5.61351e-10
-2.19138e-09
6.15506e-10
-2.68963e-09
6.67536e-10
-3.22466e-09
7.17315e-10
-3.79476e-09
7.64743e-10
-4.39813e-09
8.09745e-10
-5.03297e-09
8.52264e-10
-5.69742e-09
8.92259e-10
-6.38961e-09
9.29704e-10
-7.10764e-09
9.64585e-10
-7.84962e-09
9.96894e-10
-8.61365e-09
1.02663e-09
-9.39784e-09
1.05381e-09
-1.02003e-08
1.07845e-09
-1.10192e-08
1.10056e-09
-1.18526e-08
1.12016e-09
-1.26988e-08
1.1373e-09
-1.35559e-08
1.15199e-09
-1.44221e-08
1.16428e-09
-1.52956e-08
1.17419e-09
-1.61749e-08
1.18178e-09
-1.7058e-08
1.18707e-09
-1.79434e-08
1.19011e-09
-1.88295e-08
1.19094e-09
-1.97145e-08
1.18962e-09
-2.0597e-08
1.18617e-09
-2.14755e-08
1.18066e-09
-2.23483e-08
1.17313e-09
-2.3214e-08
1.16361e-09
-2.40713e-08
1.15218e-09
-2.49186e-08
1.13886e-09
-2.57547e-08
1.12372e-09
-2.65783e-08
1.1068e-09
-2.73879e-08
1.08815e-09
-2.81824e-08
1.06783e-09
-2.89606e-08
1.04587e-09
-2.97213e-08
1.02234e-09
-3.04634e-08
9.97286e-10
-3.11857e-08
9.70757e-10
-3.18872e-08
9.42804e-10
-3.2567e-08
9.1348e-10
-3.32239e-08
8.82837e-10
-3.3857e-08
8.50926e-10
-3.44655e-08
8.178e-10
-3.50485e-08
7.83512e-10
-3.56052e-08
7.48113e-10
-3.61347e-08
7.11656e-10
-3.66364e-08
6.74196e-10
-3.71094e-08
6.35785e-10
-3.75532e-08
5.96477e-10
-3.79671e-08
5.56326e-10
-3.83506e-08
5.15386e-10
-3.8703e-08
4.73712e-10
-3.90239e-08
4.3136e-10
-3.93129e-08
3.88385e-10
-3.95694e-08
3.44842e-10
-3.97931e-08
3.00789e-10
-3.99837e-08
2.56281e-10
-4.01409e-08
2.11377e-10
-4.02645e-08
1.66134e-10
-4.03541e-08
1.2061e-10
-4.04097e-08
7.4865e-11
-4.04311e-08
2.89575e-11
-4.04183e-08
-1.70526e-11
-4.03712e-08
-6.31045e-11
-4.02899e-08
-1.09138e-10
-4.01744e-08
-1.5509e-10
-4.00248e-08
-2.009e-10
-3.98412e-08
-2.46505e-10
-3.9624e-08
-2.91841e-10
-3.93732e-08
-3.36846e-10
-3.90892e-08
-3.81456e-10
-3.87724e-08
-4.25605e-10
-3.84232e-08
-4.69229e-10
-3.80419e-08
-5.12264e-10
-3.76291e-08
-5.54642e-10
-3.71854e-08
-5.96299e-10
-3.67112e-08
-6.37169e-10
-3.62073e-08
-6.77184e-10
-3.56742e-08
-7.16279e-10
-3.51129e-08
-7.54387e-10
-3.4524e-08
-7.91441e-10
-3.39083e-08
-8.27375e-10
-3.32669e-08
-8.62123e-10
-3.26005e-08
-8.95617e-10
-3.19102e-08
-9.27794e-10
-3.1197e-08
-9.58585e-10
-3.0462e-08
-9.87927e-10
-2.97063e-08
-1.01576e-09
-2.89311e-08
-1.04201e-09
-2.81377e-08
-1.06661e-09
-2.73272e-08
-1.08952e-09
-2.65009e-08
-1.11066e-09
-2.56604e-08
-1.12997e-09
-2.48069e-08
-1.1474e-09
-2.39418e-08
-1.16288e-09
-2.30668e-08
-1.17637e-09
-2.21833e-08
-1.1878e-09
-2.12928e-08
-1.19712e-09
-2.03971e-08
-1.20428e-09
-1.94977e-08
-1.20923e-09
-1.85962e-08
-1.21192e-09
-1.76945e-08
-1.21232e-09
-1.67942e-08
-1.21036e-09
-1.58972e-08
-1.20603e-09
-1.50051e-08
-1.19927e-09
-1.412e-08
-1.19005e-09
-1.32435e-08
-1.17834e-09
-1.23775e-08
-1.16412e-09
-1.1524e-08
-1.14736e-09
-1.06848e-08
-1.12803e-09
-9.8619e-09
-1.10613e-09
-9.05713e-09
-1.08165e-09
-8.27242e-09
-1.05457e-09
-7.50969e-09
-1.02491e-09
-6.77087e-09
-9.92655e-10
-6.05783e-09
-9.57833e-10
-5.37246e-09
-9.20464e-10
-4.71662e-09
-8.80578e-10
-4.09212e-09
-8.38219e-10
-3.50073e-09
-7.9344e-10
-2.94419e-09
-7.46309e-10
-2.42415e-09
-6.96912e-10
-1.94217e-09
-6.45355e-10
-1.49975e-09
-5.91765e-10
-1.09823e-09
-5.36302e-10
-7.38812e-10
-4.79158e-10
-4.22529e-10
-4.20567e-10
-1.50181e-10
-3.60821e-10
7.77007e-11
-3.00278e-10
2.6092e-10
-2.39383e-10
3.997e-10
-1.78691e-10
4.94786e-10
-1.18902e-10
5.47586e-10
-6.09072e-11
5.60345e-10
-5.84758e-12
5.36381e-10
4.4797e-11
4.80381e-10
8.90964e-11
3.98785e-10
1.24523e-10
3.00222e-10
1.47794e-10
1.95961e-10
1.5478e-10
1.00155e-10
1.40542e-10
2.92741e-11
1.00175e-10
3.45892e-11
4.48555e-11
-8.11664e-11
1.39144e-10
-1.95637e-10
2.56377e-10
-2.56381e-10
3.74936e-10
-2.68505e-10
4.76549e-10
-2.40868e-10
5.46341e-10
-1.82148e-10
5.72602e-10
-9.98341e-11
5.46379e-10
-6.17879e-14
4.61041e-10
1.12263e-10
3.11849e-10
2.33294e-10
9.56066e-11
3.59999e-10
-1.89638e-10
4.9e-10
-5.44833e-10
6.21422e-10
-9.70122e-10
7.52778e-10
-1.46499e-09
8.82885e-10
-2.02842e-09
1.0108e-09
-2.65894e-09
1.13576e-09
-3.35475e-09
1.25717e-09
-4.11378e-09
1.37453e-09
-4.93371e-09
1.48747e-09
-5.81207e-09
1.59568e-09
-6.74623e-09
1.6989e-09
-7.73345e-09
1.79696e-09
-8.7709e-09
1.88971e-09
-9.85568e-09
1.97704e-09
-1.09849e-08
2.05888e-09
-1.21554e-08
2.13517e-09
-1.33644e-08
2.20589e-09
-1.46088e-08
2.27103e-09
-1.58856e-08
2.3306e-09
-1.71918e-08
2.38463e-09
-1.85244e-08
2.43315e-09
-1.98804e-08
2.4762e-09
-2.1257e-08
2.51384e-09
-2.26511e-08
2.54613e-09
-2.40599e-08
2.57314e-09
-2.54807e-08
2.59494e-09
-2.69105e-08
2.61162e-09
-2.83467e-08
2.62326e-09
-2.97866e-08
2.62996e-09
-3.12274e-08
2.63179e-09
-3.26667e-08
2.62886e-09
-3.41017e-08
2.62126e-09
-3.55302e-08
2.6091e-09
-3.69495e-08
2.59247e-09
-3.83574e-08
2.57148e-09
-3.97515e-08
2.54624e-09
-4.11295e-08
2.51686e-09
-4.24892e-08
2.48343e-09
-4.38284e-08
2.44607e-09
-4.51452e-08
2.40488e-09
-4.64373e-08
2.35999e-09
-4.77029e-08
2.3115e-09
-4.89401e-08
2.25951e-09
-5.0147e-08
2.20415e-09
-5.13218e-08
2.14553e-09
-5.24627e-08
2.08376e-09
-5.35682e-08
2.01895e-09
-5.46366e-08
1.95122e-09
-5.56663e-08
1.88068e-09
-5.6656e-08
1.80745e-09
-5.76041e-08
1.73165e-09
-5.85094e-08
1.65339e-09
-5.93705e-08
1.57279e-09
-6.01863e-08
1.48996e-09
-6.09555e-08
1.40503e-09
-6.16772e-08
1.31811e-09
-6.23502e-08
1.22933e-09
-6.29736e-08
1.13881e-09
-6.35465e-08
1.04666e-09
-6.40682e-08
9.53005e-10
-6.45378e-08
8.57977e-10
-6.49546e-08
7.61695e-10
-6.53181e-08
6.64285e-10
-6.56277e-08
5.65873e-10
-6.58829e-08
4.66586e-10
-6.60833e-08
3.66554e-10
-6.62286e-08
2.65904e-10
-6.63185e-08
1.64768e-10
-6.63528e-08
6.32773e-11
-6.63315e-08
-3.84349e-11
-6.62543e-08
-1.40235e-10
-6.61215e-08
-2.41987e-10
-6.5933e-08
-3.43555e-10
-6.56891e-08
-4.44802e-10
-6.539e-08
-5.4559e-10
-6.50361e-08
-6.45777e-10
-6.46277e-08
-7.45225e-10
-6.41654e-08
-8.43791e-10
-6.36496e-08
-9.41333e-10
-6.30812e-08
-1.03771e-09
-6.24607e-08
-1.13277e-09
-6.17889e-08
-1.22638e-09
-6.10669e-08
-1.31838e-09
-6.02954e-08
-1.40863e-09
-5.94756e-08
-1.497e-09
-5.86085e-08
-1.58332e-09
-5.76955e-08
-1.66745e-09
-5.67377e-08
-1.74925e-09
-5.57365e-08
-1.82856e-09
-5.46933e-08
-1.90525e-09
-5.36098e-08
-1.97917e-09
-5.24874e-08
-2.05017e-09
-5.13279e-08
-2.1181e-09
-5.0133e-08
-2.18283e-09
-4.89045e-08
-2.24422e-09
-4.76444e-08
-2.30211e-09
-4.63547e-08
-2.35638e-09
-4.50373e-08
-2.40688e-09
-4.36945e-08
-2.45349e-09
-4.23284e-08
-2.49607e-09
-4.09413e-08
-2.53448e-09
-3.95355e-08
-2.56861e-09
-3.81136e-08
-2.59833e-09
-3.66779e-08
-2.62352e-09
-3.52309e-08
-2.64406e-09
-3.37753e-08
-2.65985e-09
-3.23138e-08
-2.67078e-09
-3.0849e-08
-2.67673e-09
-2.93837e-08
-2.67762e-09
-2.79207e-08
-2.67336e-09
-2.64628e-08
-2.66386e-09
-2.50131e-08
-2.64903e-09
-2.35743e-08
-2.62882e-09
-2.21495e-08
-2.60314e-09
-2.07417e-08
-2.57195e-09
-1.93538e-08
-2.5352e-09
-1.7989e-08
-2.49286e-09
-1.66503e-08
-2.44488e-09
-1.53407e-08
-2.39125e-09
-1.40632e-08
-2.33198e-09
-1.28211e-08
-2.26707e-09
-1.16172e-08
-2.19654e-09
-1.04546e-08
-2.12043e-09
-9.33625e-09
-2.03881e-09
-8.26508e-09
-1.95176e-09
-7.24392e-09
-1.85937e-09
-6.27556e-09
-1.7618e-09
-5.36268e-09
-1.6592e-09
-4.50782e-09
-1.55177e-09
-3.71339e-09
-1.43978e-09
-2.98163e-09
-1.32353e-09
-2.31455e-09
-1.20338e-09
-1.71392e-09
-1.07979e-09
-1.18119e-09
-9.53299e-10
-7.17435e-10
-8.24573e-10
-3.23294e-10
-6.9442e-10
1.15894e-12
-5.63836e-10
2.56517e-10
-4.34048e-10
4.44193e-10
-3.06577e-10
5.66609e-10
-1.83322e-10
6.27428e-10
-6.66651e-11
6.31836e-10
4.03905e-11
5.86881e-10
1.34054e-10
5.01848e-10
2.09556e-10
3.88657e-10
2.60981e-10
2.62214e-10
2.81217e-10
1.4056e-10
2.62195e-10
4.47123e-11
1.96031e-10
7.9301e-11
4.97029e-11
-1.30868e-10
1.50288e-10
-2.96221e-10
2.69137e-10
-3.75236e-10
3.81068e-10
-3.80443e-10
4.65281e-10
-3.25084e-10
5.04712e-10
-2.21577e-10
4.8564e-10
-8.07593e-11
3.9729e-10
8.82865e-11
2.31432e-10
2.78117e-10
-1.79836e-11
4.82707e-10
-3.55187e-10
6.97203e-10
-7.8289e-10
9.17705e-10
-1.30254e-09
1.14108e-09
-1.91456e-09
1.36479e-09
-2.61849e-09
1.58681e-09
-3.41318e-09
1.80549e-09
-4.2969e-09
2.01948e-09
-5.26743e-09
2.2277e-09
-6.32218e-09
2.42928e-09
-7.45822e-09
2.62351e-09
-8.67236e-09
2.80982e-09
-9.96119e-09
2.98774e-09
-1.13212e-08
3.15693e-09
-1.27485e-08
3.3171e-09
-1.42395e-08
3.46804e-09
-1.57903e-08
3.60959e-09
-1.73967e-08
3.74164e-09
-1.9055e-08
3.86413e-09
-2.0761e-08
3.97702e-09
-2.25107e-08
4.08032e-09
-2.43001e-08
4.17405e-09
-2.61252e-08
4.25825e-09
-2.7982e-08
4.33299e-09
-2.98665e-08
4.39835e-09
-3.17748e-08
4.45444e-09
-3.3703e-08
4.50137e-09
-3.56473e-08
4.53925e-09
-3.76039e-08
4.56822e-09
-3.95691e-08
4.58843e-09
-4.15392e-08
4.60001e-09
-4.35105e-08
4.60313e-09
-4.54796e-08
4.59794e-09
-4.74429e-08
4.58462e-09
-4.93972e-08
4.56333e-09
-5.13389e-08
4.53424e-09
-5.3265e-08
4.49754e-09
-5.51722e-08
4.45341e-09
-5.70573e-08
4.40203e-09
-5.89175e-08
4.34358e-09
-6.07497e-08
4.27826e-09
-6.25511e-08
4.20626e-09
-6.43188e-08
4.12775e-09
-6.60503e-08
4.04295e-09
-6.77428e-08
3.95204e-09
-6.93939e-08
3.85523e-09
-7.10011e-08
3.75269e-09
-7.25619e-08
3.64464e-09
-7.40743e-08
3.53128e-09
-7.55358e-08
3.4128e-09
-7.69446e-08
3.2894e-09
-7.82984e-08
3.16129e-09
-7.95954e-08
3.02867e-09
-8.08338e-08
2.89174e-09
-8.20117e-08
2.75071e-09
-8.31275e-08
2.60579e-09
-8.41797e-08
2.45719e-09
-8.51667e-08
2.30511e-09
-8.60871e-08
2.14976e-09
-8.69396e-08
1.99136e-09
-8.77231e-08
1.83011e-09
-8.84363e-08
1.66625e-09
-8.90783e-08
1.49997e-09
-8.96481e-08
1.3315e-09
-9.01449e-08
1.16106e-09
-9.05679e-08
9.8887e-10
-9.09165e-08
8.15154e-10
-9.11901e-08
6.40137e-10
-9.13882e-08
4.64046e-10
-9.15105e-08
2.87111e-10
-9.15568e-08
1.09562e-10
-9.15269e-08
-6.83678e-11
-9.14207e-08
-2.46443e-10
-9.12382e-08
-4.24426e-10
-9.09797e-08
-6.02078e-10
-9.06454e-08
-7.7916e-10
-9.02355e-08
-9.55427e-10
-8.97507e-08
-1.13063e-09
-8.91914e-08
-1.30454e-09
-8.85583e-08
-1.47689e-09
-8.78522e-08
-1.64744e-09
-8.70739e-08
-1.81593e-09
-8.62246e-08
-1.98212e-09
-8.53052e-08
-2.14576e-09
-8.4317e-08
-2.30658e-09
-8.32613e-08
-2.46433e-09
-8.21395e-08
-2.61876e-09
-8.09532e-08
-2.76961e-09
-7.97041e-08
-2.91662e-09
-7.83938e-08
-3.05955e-09
-7.70242e-08
-3.19813e-09
-7.55974e-08
-3.3321e-09
-7.41153e-08
-3.46123e-09
-7.25802e-08
-3.58524e-09
-7.09944e-08
-3.7039e-09
-6.93603e-08
-3.81694e-09
-6.76804e-08
-3.92414e-09
-6.59573e-08
-4.02523e-09
-6.41937e-08
-4.11999e-09
-6.23924e-08
-4.20817e-09
-6.05563e-08
-4.28954e-09
-5.86885e-08
-4.36387e-09
-5.67921e-08
-4.43094e-09
-5.48702e-08
-4.49052e-09
-5.29261e-08
-4.54242e-09
-5.09632e-08
-4.58641e-09
-4.89849e-08
-4.62231e-09
-4.69949e-08
-4.64991e-09
-4.49966e-08
-4.66904e-09
-4.29938e-08
-4.67952e-09
-4.09903e-08
-4.68118e-09
-3.89898e-08
-4.67387e-09
-3.69962e-08
-4.65745e-09
-3.50134e-08
-4.63178e-09
-3.30455e-08
-4.59675e-09
-3.10964e-08
-4.55224e-09
-2.91702e-08
-4.49816e-09
-2.72709e-08
-4.43445e-09
-2.54028e-08
-4.36103e-09
-2.35698e-08
-4.27787e-09
-2.17761e-08
-4.18496e-09
-2.00258e-08
-4.08229e-09
-1.83229e-08
-3.96989e-09
-1.66716e-08
-3.84782e-09
-1.50759e-08
-3.71617e-09
-1.35397e-08
-3.57505e-09
-1.20668e-08
-3.42462e-09
-1.06611e-08
-3.2651e-09
-9.32615e-09
-3.09673e-09
-8.06551e-09
-2.91984e-09
-6.88248e-09
-2.7348e-09
-5.78019e-09
-2.54208e-09
-4.76148e-09
-2.34223e-09
-3.82892e-09
-2.13595e-09
-2.98469e-09
-1.92402e-09
-2.23055e-09
-1.70744e-09
-1.56774e-09
-1.48737e-09
-9.96914e-10
-1.26525e-09
-5.17952e-10
-1.0428e-09
-1.29876e-10
-8.22124e-10
1.69348e-10
-6.05801e-10
3.83018e-10
-3.96992e-10
5.15942e-10
-1.99589e-10
5.74724e-10
-1.83899e-11
5.68083e-10
1.40698e-10
5.07198e-10
2.70446e-10
4.06056e-10
3.62126e-10
2.81801e-10
4.0547e-10
1.55066e-10
3.88926e-10
5.05584e-11
3.00542e-10
1.29861e-10
4.74896e-11
-1.78361e-10
1.40206e-10
-3.88934e-10
2.42675e-10
-4.77702e-10
3.27509e-10
-4.65281e-10
3.72349e-10
-3.69929e-10
3.58838e-10
-2.08068e-10
2.72066e-10
6.0146e-12
1.00128e-10
2.60226e-10
-1.66241e-10
5.44485e-10
-5.34009e-10
8.50472e-10
-1.00816e-09
1.17136e-09
-1.59201e-09
1.50155e-09
-2.28741e-09
1.83648e-09
-3.09502e-09
2.17241e-09
-4.01448e-09
2.50628e-09
-5.04459e-09
2.83559e-09
-6.1834e-09
3.15829e-09
-7.42839e-09
3.4727e-09
-8.77655e-09
3.77744e-09
-1.02244e-08
4.07139e-09
-1.17682e-08
4.35364e-09
-1.3404e-08
4.62345e-09
-1.51273e-08
4.88024e-09
-1.69337e-08
5.12353e-09
-1.88186e-08
5.35297e-09
-2.07773e-08
5.56829e-09
-2.2805e-08
5.76928e-09
-2.48967e-08
5.95582e-09
-2.70475e-08
6.12783e-09
-2.92524e-08
6.28529e-09
-3.15066e-08
6.42822e-09
-3.3805e-08
6.55666e-09
-3.61428e-08
6.67071e-09
-3.85149e-08
6.77046e-09
-4.09165e-08
6.85607e-09
-4.33428e-08
6.92768e-09
-4.5789e-08
6.98547e-09
-4.82504e-08
7.02964e-09
-5.07224e-08
7.06039e-09
-5.32003e-08
7.07794e-09
-5.56797e-08
7.08252e-09
-5.81561e-08
7.07437e-09
-6.06253e-08
7.05373e-09
-6.30828e-08
7.02088e-09
-6.55246e-08
6.97605e-09
-6.79466e-08
6.91954e-09
-7.03448e-08
6.85161e-09
-7.27153e-08
6.77253e-09
-7.50543e-08
6.6826e-09
-7.73582e-08
6.58209e-09
-7.96232e-08
6.4713e-09
-8.1846e-08
6.35052e-09
-8.40231e-08
6.22005e-09
-8.61512e-08
6.08018e-09
-8.82272e-08
5.93121e-09
-9.02479e-08
5.77345e-09
-9.22105e-08
5.60719e-09
-9.4112e-08
5.43275e-09
-9.59496e-08
5.25042e-09
-9.77207e-08
5.06053e-09
-9.94228e-08
4.86339e-09
-1.01053e-07
4.65929e-09
-1.0261e-07
4.44857e-09
-1.04091e-07
4.23153e-09
-1.05494e-07
4.0085e-09
-1.06816e-07
3.77979e-09
-1.08057e-07
3.54574e-09
-1.09214e-07
3.30665e-09
-1.10285e-07
3.06287e-09
-1.1127e-07
2.81471e-09
-1.12166e-07
2.56251e-09
-1.12973e-07
2.30661e-09
-1.13689e-07
2.04734e-09
-1.14313e-07
1.78504e-09
-1.14844e-07
1.52006e-09
-1.15282e-07
1.25273e-09
-1.15625e-07
9.83403e-10
-1.15873e-07
7.12435e-10
-1.16026e-07
4.40176e-10
-1.16084e-07
1.66982e-10
-1.16045e-07
-1.06786e-10
-1.15911e-07
-3.80767e-10
-1.15681e-07
-6.54595e-10
-1.15355e-07
-9.27902e-10
-1.14934e-07
-1.20032e-09
-1.14418e-07
-1.47147e-09
-1.13807e-07
-1.74097e-09
-1.13103e-07
-2.00846e-09
-1.12307e-07
-2.27354e-09
-1.11418e-07
-2.53584e-09
-1.10439e-07
-2.79496e-09
-1.09371e-07
-3.05052e-09
-1.08215e-07
-3.30213e-09
-1.06972e-07
-3.54941e-09
-1.05644e-07
-3.79195e-09
-1.04234e-07
-4.02936e-09
-1.02742e-07
-4.26126e-09
-1.01171e-07
-4.48725e-09
-9.95239e-08
-4.70694e-09
-9.78021e-08
-4.91993e-09
-9.60083e-08
-5.12584e-09
-9.41453e-08
-5.32428e-09
-9.22157e-08
-5.51485e-09
-9.02224e-08
-5.69718e-09
-8.81685e-08
-5.87088e-09
-8.6057e-08
-6.03558e-09
-8.38913e-08
-6.19091e-09
-8.16748e-08
-6.33649e-09
-7.9411e-08
-6.47197e-09
-7.71036e-08
-6.59699e-09
-7.47562e-08
-6.7112e-09
-7.23729e-08
-6.81425e-09
-6.99576e-08
-6.90583e-09
-6.75144e-08
-6.9856e-09
-6.50476e-08
-7.05326e-09
-6.25614e-08
-7.10849e-09
-6.00603e-08
-7.15102e-09
-5.75488e-08
-7.18056e-09
-5.50314e-08
-7.19685e-09
-5.2513e-08
-7.19965e-09
-4.99981e-08
-7.18872e-09
-4.74917e-08
-7.16384e-09
-4.49987e-08
-7.12483e-09
-4.25239e-08
-7.07151e-09
-4.00725e-08
-7.00371e-09
-3.76493e-08
-6.92132e-09
-3.52595e-08
-6.82423e-09
-3.29082e-08
-6.71236e-09
-3.06004e-08
-6.58566e-09
-2.83412e-08
-6.44411e-09
-2.61358e-08
-6.28775e-09
-2.39891e-08
-6.11662e-09
-2.19061e-08
-5.93083e-09
-1.98917e-08
-5.73054e-09
-1.79508e-08
-5.51595e-09
-1.60881e-08
-5.28733e-09
-1.43082e-08
-5.04503e-09
-1.26154e-08
-4.78945e-09
-1.10141e-08
-4.52113e-09
-9.50827e-09
-4.24067e-09
-8.10154e-09
-3.94881e-09
-6.79731e-09
-3.64646e-09
-5.59859e-09
-3.33467e-09
-4.5079e-09
-3.01471e-09
-3.52723e-09
-2.68811e-09
-2.65793e-09
-2.35668e-09
-1.90059e-09
-2.02259e-09
-1.25494e-09
-1.68845e-09
-7.19644e-10
-1.35742e-09
-2.92156e-10
-1.03329e-09
3.15054e-11
-7.20653e-10
2.56998e-10
-4.25082e-10
3.91919e-10
-1.53312e-10
4.46103e-10
8.65144e-11
4.31926e-10
2.84625e-10
3.64643e-10
4.29413e-10
2.62784e-10
5.07332e-10
1.48676e-10
5.03033e-10
4.94311e-11
3.99786e-10
1.79293e-10
4.03876e-11
-2.18754e-10
1.14187e-10
-4.62735e-10
1.85653e-10
-5.49165e-10
2.26627e-10
-5.06253e-10
2.14068e-10
-3.57372e-10
1.29018e-10
-1.23023e-10
-4.40248e-11
1.79055e-10
-3.17563e-10
5.33764e-10
-7.01456e-10
9.2838e-10
-1.20323e-09
1.35225e-09
-1.82837e-09
1.7965e-09
-2.58058e-09
2.25376e-09
-3.46202e-09
2.71792e-09
-4.47352e-09
3.18391e-09
-5.61479e-09
3.64756e-09
-6.88457e-09
4.10537e-09
-8.28077e-09
4.55449e-09
-9.80061e-09
4.99254e-09
-1.14407e-08
5.41754e-09
-1.31972e-08
5.8279e-09
-1.50658e-08
6.22227e-09
-1.7042e-08
6.59957e-09
-1.91207e-08
6.95894e-09
-2.12968e-08
7.29966e-09
-2.3565e-08
7.6212e-09
-2.59198e-08
7.92311e-09
-2.83557e-08
8.2051e-09
-3.08668e-08
8.46694e-09
-3.34474e-08
8.70849e-09
-3.60918e-08
8.92969e-09
-3.87942e-08
9.13054e-09
-4.15486e-08
9.31107e-09
-4.43492e-08
9.47139e-09
-4.71904e-08
9.61163e-09
-5.00663e-08
9.73197e-09
-5.29713e-08
9.83261e-09
-5.58996e-08
9.91379e-09
-5.88457e-08
9.97575e-09
-6.18041e-08
1.00188e-08
-6.47693e-08
1.00432e-08
-6.7736e-08
1.00493e-08
-7.0699e-08
1.00373e-08
-7.36531e-08
1.00078e-08
-7.65931e-08
9.96094e-09
-7.95142e-08
9.89716e-09
-8.24115e-08
9.81683e-09
-8.52803e-08
9.72032e-09
-8.81158e-08
9.60804e-09
-9.09135e-08
9.48037e-09
-9.36692e-08
9.33772e-09
-9.63783e-08
9.18048e-09
-9.90369e-08
9.00909e-09
-1.01641e-07
8.82394e-09
-1.04186e-07
8.62546e-09
-1.06669e-07
8.41408e-09
-1.09086e-07
8.19021e-09
-1.11433e-07
7.9543e-09
-1.13707e-07
7.70677e-09
-1.15904e-07
7.44805e-09
-1.18023e-07
7.1786e-09
-1.20058e-07
6.89884e-09
-1.22008e-07
6.60922e-09
-1.2387e-07
6.3102e-09
-1.2564e-07
6.00221e-09
-1.27317e-07
5.68571e-09
-1.28899e-07
5.36116e-09
-1.30382e-07
5.02902e-09
-1.31765e-07
4.68974e-09
-1.33046e-07
4.3438e-09
-1.34223e-07
3.99165e-09
-1.35294e-07
3.63378e-09
-1.36258e-07
3.27065e-09
-1.37114e-07
2.90275e-09
-1.37859e-07
2.53056e-09
-1.38494e-07
2.15456e-09
-1.39016e-07
1.77525e-09
-1.39426e-07
1.39312e-09
-1.39722e-07
1.00866e-09
-1.39904e-07
6.2239e-10
-1.39972e-07
2.34803e-10
-1.39925e-07
-1.53586e-10
-1.39764e-07
-5.42261e-10
-1.39488e-07
-9.30704e-10
-1.39097e-07
-1.31839e-09
-1.38593e-07
-1.7048e-09
-1.37975e-07
-2.08939e-09
-1.37244e-07
-2.47164e-09
-1.36402e-07
-2.851e-09
-1.35448e-07
-3.22693e-09
-1.34385e-07
-3.59889e-09
-1.33214e-07
-3.96634e-09
-1.31936e-07
-4.32871e-09
-1.30552e-07
-4.68547e-09
-1.29066e-07
-5.03606e-09
-1.27478e-07
-5.37992e-09
-1.25791e-07
-5.71649e-09
-1.24007e-07
-6.04523e-09
-1.22128e-07
-6.36558e-09
-1.20158e-07
-6.67697e-09
-1.18099e-07
-6.97886e-09
-1.15955e-07
-7.2707e-09
-1.13727e-07
-7.55193e-09
-1.1142e-07
-7.82201e-09
-1.09037e-07
-8.0804e-09
-1.06581e-07
-8.32656e-09
-1.04056e-07
-8.55995e-09
-1.01467e-07
-8.78007e-09
-9.88174e-08
-8.98637e-09
-9.6111e-08
-9.17837e-09
-9.33525e-08
-9.35555e-09
-9.05462e-08
-9.51743e-09
-8.76969e-08
-9.66353e-09
-8.48094e-08
-9.79339e-09
-8.18884e-08
-9.90655e-09
-7.89391e-08
-1.00026e-08
-7.59666e-08
-1.0081e-08
-7.29761e-08
-1.01415e-08
-6.99729e-08
-1.01837e-08
-6.69626e-08
-1.02072e-08
-6.39507e-08
-1.02116e-08
-6.09428e-08
-1.01966e-08
-5.79447e-08
-1.0162e-08
-5.49621e-08
-1.01074e-08
-5.20009e-08
-1.00327e-08
-4.9067e-08
-9.93761e-09
-4.61663e-08
-9.82197e-09
-4.33049e-08
-9.68566e-09
-4.04887e-08
-9.52858e-09
-3.77236e-08
-9.35069e-09
-3.50158e-08
-9.15197e-09
-3.23711e-08
-8.93247e-09
-2.97954e-08
-8.69232e-09
-2.72945e-08
-8.43167e-09
-2.48743e-08
-8.15077e-09
-2.25403e-08
-7.84995e-09
-2.0298e-08
-7.52961e-09
-1.81528e-08
-7.19026e-09
-1.61097e-08
-6.83254e-09
-1.41736e-08
-6.4572e-09
-1.23491e-08
-6.06516e-09
-1.06404e-08
-5.65749e-09
-9.05139e-09
-5.2355e-09
-7.58534e-09
-4.80072e-09
-6.24509e-09
-4.35496e-09
-5.03282e-09
-3.90038e-09
-3.94995e-09
-3.43954e-09
-2.99706e-09
-2.97548e-09
-2.17371e-09
-2.5118e-09
-1.47831e-09
-2.05281e-09
-9.07954e-10
-1.60365e-09
-4.58163e-10
-1.17044e-09
-1.22715e-10
-7.60528e-10
1.06622e-10
-3.82648e-10
2.40348e-10
-4.7213e-11
2.91524e-10
2.33449e-10
2.76096e-10
4.44844e-10
2.13321e-10
5.70111e-10
1.26375e-10
5.8998e-10
4.33991e-11
4.82762e-10
2.22693e-10
2.99352e-11
-2.4869e-10
7.65193e-11
-5.09326e-10
1.0548e-10
-5.78127e-10
8.90913e-11
-4.89862e-10
4.4438e-12
-2.72723e-10
-1.67432e-10
4.88501e-11
-4.42142e-10
4.53762e-10
-8.32368e-10
9.23989e-10
-1.3482e-09
1.44421e-09
-1.99741e-09
2.00147e-09
-2.78574e-09
2.58483e-09
-3.7171e-09
3.18512e-09
-4.79381e-09
3.79463e-09
-6.0168e-09
4.4069e-09
-7.38579e-09
5.01654e-09
-8.89944e-09
5.61902e-09
-1.05555e-08
6.21057e-09
-1.2351e-08
6.78803e-09
-1.42823e-08
7.34878e-09
-1.6345e-08
7.89064e-09
-1.85345e-08
8.41178e-09
-2.08457e-08
8.91074e-09
-2.3273e-08
9.3863e-09
-2.58108e-08
9.83747e-09
-2.84531e-08
1.02635e-08
-3.11937e-08
1.06637e-08
-3.40263e-08
1.10377e-08
-3.69444e-08
1.13851e-08
-3.99416e-08
1.17057e-08
-4.30112e-08
1.19994e-08
-4.61468e-08
1.22661e-08
-4.93415e-08
1.25058e-08
-5.25889e-08
1.27188e-08
-5.58824e-08
1.29051e-08
-5.92152e-08
1.30649e-08
-6.25811e-08
1.31984e-08
-6.59734e-08
1.33061e-08
-6.93857e-08
1.33881e-08
-7.28119e-08
1.34449e-08
-7.62455e-08
1.34768e-08
-7.96805e-08
1.34843e-08
-8.31109e-08
1.34677e-08
-8.65307e-08
1.34276e-08
-8.9934e-08
1.33643e-08
-9.33152e-08
1.32783e-08
-9.66687e-08
1.31703e-08
-9.99889e-08
1.30405e-08
-1.03271e-07
1.28897e-08
-1.06508e-07
1.27182e-08
-1.09697e-07
1.25267e-08
-1.12832e-07
1.23156e-08
-1.15909e-07
1.20855e-08
-1.18922e-07
1.1837e-08
-1.21867e-07
1.15707e-08
-1.2474e-07
1.1287e-08
-1.27537e-07
1.09866e-08
-1.30252e-07
1.067e-08
-1.32883e-07
1.03378e-08
-1.35426e-07
9.99068e-09
-1.37876e-07
9.6291e-09
-1.40231e-07
9.2537e-09
-1.42487e-07
8.86507e-09
-1.44641e-07
8.46382e-09
-1.46689e-07
8.05054e-09
-1.48629e-07
7.62585e-09
-1.50458e-07
7.19036e-09
-1.52174e-07
6.74468e-09
-1.53774e-07
6.28943e-09
-1.55255e-07
5.82523e-09
-1.56616e-07
5.35273e-09
-1.57855e-07
4.87254e-09
-1.5897e-07
4.38531e-09
-1.59959e-07
3.89169e-09
-1.6082e-07
3.39232e-09
-1.61554e-07
2.88785e-09
-1.62157e-07
2.37895e-09
-1.62631e-07
1.86628e-09
-1.62972e-07
1.35051e-09
-1.63182e-07
8.32314e-10
-1.6326e-07
3.12373e-10
-1.63205e-07
-2.08627e-10
-1.63017e-07
-7.29993e-10
-1.62697e-07
-1.25103e-09
-1.62244e-07
-1.77103e-09
-1.6166e-07
-2.28929e-09
-1.60944e-07
-2.8051e-09
-1.60098e-07
-3.31774e-09
-1.59122e-07
-3.82649e-09
-1.58019e-07
-4.33062e-09
-1.56788e-07
-4.82941e-09
-1.55432e-07
-5.32211e-09
-1.53953e-07
-5.808e-09
-1.52352e-07
-6.28633e-09
-1.50632e-07
-6.75637e-09
-1.48794e-07
-7.21737e-09
-1.46842e-07
-7.66858e-09
-1.44778e-07
-8.10927e-09
-1.42605e-07
-8.53869e-09
-1.40326e-07
-8.95609e-09
-1.37944e-07
-9.36075e-09
-1.35463e-07
-9.75191e-09
-1.32886e-07
-1.01289e-08
-1.30217e-07
-1.04908e-08
-1.2746e-07
-1.08372e-08
-1.2462e-07
-1.11671e-08
-1.217e-07
-1.14799e-08
-1.18705e-07
-1.17749e-08
-1.1564e-07
-1.20515e-08
-1.1251e-07
-1.23088e-08
-1.09319e-07
-1.25464e-08
-1.06073e-07
-1.27635e-08
-1.02777e-07
-1.29594e-08
-9.94366e-08
-1.31336e-08
-9.60576e-08
-1.32855e-08
-9.26457e-08
-1.34145e-08
-8.92067e-08
-1.352e-08
-8.57467e-08
-1.36015e-08
-8.22718e-08
-1.36586e-08
-7.87883e-08
-1.36906e-08
-7.53026e-08
-1.36973e-08
-7.18212e-08
-1.3678e-08
-6.83506e-08
-1.36326e-08
-6.48974e-08
-1.35606e-08
-6.14683e-08
-1.34618e-08
-5.80702e-08
-1.33358e-08
-5.47097e-08
-1.31825e-08
-5.13937e-08
-1.30016e-08
-4.81291e-08
-1.27932e-08
-4.49226e-08
-1.25572e-08
-4.1781e-08
-1.22935e-08
-3.87112e-08
-1.20023e-08
-3.57198e-08
-1.16837e-08
-3.28134e-08
-1.13381e-08
-2.99985e-08
-1.09657e-08
-2.72815e-08
-1.0567e-08
-2.46685e-08
-1.01426e-08
-2.21656e-08
-9.69321e-09
-1.97784e-08
-9.21975e-09
-1.75124e-08
-8.72324e-09
-1.53726e-08
-8.20494e-09
-1.33637e-08
-7.66634e-09
-1.149e-08
-7.10919e-09
-9.75518e-09
-6.53557e-09
-8.16221e-09
-5.94793e-09
-6.71348e-09
-5.34912e-09
-5.41049e-09
-4.74253e-09
-4.25382e-09
-4.13215e-09
-3.24295e-09
-3.52267e-09
-2.37614e-09
-2.91962e-09
-1.65023e-09
-2.32955e-09
-1.06049e-09
-1.76019e-09
-6.00353e-10
-1.22066e-09
-2.61272e-10
-7.21726e-10
-3.24333e-11
-2.76051e-10
9.9495e-11
1.0152e-10
1.50678e-10
3.93661e-10
1.40532e-10
5.80259e-10
9.23021e-11
6.38213e-10
3.39587e-11
5.41107e-10
2.56653e-10
1.7225e-11
-2.65913e-10
3.0523e-11
-5.22628e-10
8.1488e-12
-5.55758e-10
-7.62713e-11
-4.05443e-10
-2.44837e-10
-1.04156e-10
-5.16008e-10
3.20023e-10
-9.05083e-10
8.42835e-10
-1.42456e-09
1.44347e-09
-2.08446e-09
2.10411e-09
-2.89255e-09
2.80955e-09
-3.85458e-09
3.54686e-09
-4.9745e-09
4.30504e-09
-6.25466e-09
5.07479e-09
-7.69597e-09
5.84822e-09
-9.2981e-09
6.61867e-09
-1.10596e-08
7.38053e-09
-1.29781e-08
8.12906e-09
-1.50503e-08
8.86026e-09
-1.72723e-08
9.57079e-09
-1.96395e-08
1.02578e-08
-2.21468e-08
1.09191e-08
-2.47886e-08
1.15525e-08
-2.75589e-08
1.21566e-08
-3.04515e-08
1.27301e-08
-3.34598e-08
1.32718e-08
-3.65771e-08
1.37809e-08
-3.97963e-08
1.42569e-08
-4.31105e-08
1.46992e-08
-4.65123e-08
1.51075e-08
-4.99945e-08
1.54816e-08
-5.35499e-08
1.58214e-08
-5.71709e-08
1.61269e-08
-6.08504e-08
1.63982e-08
-6.45808e-08
1.66355e-08
-6.8355e-08
1.6839e-08
-7.21655e-08
1.7009e-08
-7.60053e-08
1.71458e-08
-7.98671e-08
1.72499e-08
-8.37438e-08
1.73217e-08
-8.76285e-08
1.73616e-08
-9.15143e-08
1.73701e-08
-9.53945e-08
1.73478e-08
-9.92622e-08
1.72953e-08
-1.03111e-07
1.72131e-08
-1.06935e-07
1.71019e-08
-1.10727e-07
1.69622e-08
-1.14481e-07
1.67946e-08
-1.18191e-07