/*--------------------------------*- C++ -*----------------------------------*\
  =========                 |
  \\      /  F ield         | OpenFOAM: The Open Source CFD Toolbox
   \\    /   O peration     | Website:  https://openfoam.org
    \\  /    A nd           | Version:  7
     \\/     M anipulation  |
\*---------------------------------------------------------------------------*/
FoamFile
{
    version     2.0;
    format      ascii;
    class       surfaceScalarField;
    location    "0.4875";
    object      phi;
}
// * * * * * * * * * * * * * * * * * * * * * * * * * * * * * * * * * * * * * //

dimensions      [0 3 -1 0 0 0 0];

internalField   nonuniform List<scalar> 
50880
(
5.97845e-12
-6.24756e-12
3.621e-11
-3.02247e-11
8.1129e-11
-4.48964e-11
1.3079e-10
-4.96462e-11
1.78048e-10
-4.72713e-11
2.17937e-10
-3.99068e-11
2.47037e-10
-2.91003e-11
2.63027e-10
-1.59797e-11
2.64373e-10
-1.34095e-12
2.50108e-10
1.42606e-11
2.19678e-10
3.04246e-11
1.72823e-10
4.68538e-11
1.09503e-10
6.33223e-11
2.98513e-11
7.96566e-11
-6.58722e-11
9.57257e-11
-1.77303e-10
1.1143e-10
-3.03996e-10
1.26693e-10
-4.4545e-10
1.41453e-10
-6.01113e-10
1.55664e-10
-7.704e-10
1.69288e-10
-9.52695e-10
1.82296e-10
-1.14736e-09
1.94668e-10
-1.35375e-09
2.06389e-10
-1.5712e-09
2.17448e-10
-1.79903e-09
2.27836e-10
-2.03658e-09
2.3755e-10
-2.28317e-09
2.46587e-10
-2.53812e-09
2.54949e-10
-2.80076e-09
2.62639e-10
-3.07042e-09
2.69661e-10
-3.34644e-09
2.76019e-10
-3.62816e-09
2.8172e-10
-3.91494e-09
2.86773e-10
-4.20612e-09
2.91185e-10
-4.50109e-09
2.94965e-10
-4.79921e-09
2.98124e-10
-5.09988e-09
3.0067e-10
-5.4025e-09
3.02615e-10
-5.70647e-09
3.0397e-10
-6.01121e-09
3.04746e-10
-6.31617e-09
3.04955e-10
-6.62078e-09
3.0461e-10
-6.9245e-09
3.03721e-10
-7.2268e-09
3.02301e-10
-7.52717e-09
3.00362e-10
-7.82509e-09
2.97918e-10
-8.12007e-09
2.94981e-10
-8.41163e-09
2.91563e-10
-8.69931e-09
2.87678e-10
-8.98265e-09
2.83338e-10
-9.26121e-09
2.78557e-10
-9.53455e-09
2.73347e-10
-9.80227e-09
2.67721e-10
-1.0064e-08
2.61692e-10
-1.03192e-08
2.55274e-10
-1.05677e-08
2.4848e-10
-1.0809e-08
2.41323e-10
-1.10429e-08
2.33815e-10
-1.12688e-08
2.25971e-10
-1.14866e-08
2.17804e-10
-1.1696e-08
2.09326e-10
-1.18965e-08
2.00552e-10
-1.2088e-08
1.91494e-10
-1.22702e-08
1.82167e-10
-1.24428e-08
1.72583e-10
-1.26055e-08
1.62757e-10
-1.27582e-08
1.52701e-10
-1.29006e-08
1.42431e-10
-1.30326e-08
1.31958e-10
-1.31539e-08
1.21299e-10
-1.32644e-08
1.10466e-10
-1.33638e-08
9.94733e-11
-1.34522e-08
8.83357e-11
-1.35292e-08
7.70673e-11
-1.35949e-08
6.56822e-11
-1.36491e-08
5.41952e-11
-1.36917e-08
4.2621e-11
-1.37227e-08
3.09746e-11
-1.3742e-08
1.9271e-11
-1.37495e-08
7.52529e-12
-1.37453e-08
-4.24734e-12
-1.37292e-08
-1.60316e-11
-1.37014e-08
-2.78119e-11
-1.36618e-08
-3.95726e-11
-1.36106e-08
-5.12979e-11
-1.35476e-08
-6.29716e-11
-1.3473e-08
-7.45777e-11
-1.33869e-08
-8.60999e-11
-1.32894e-08
-9.75221e-11
-1.31805e-08
-1.08828e-10
-1.30605e-08
-1.20001e-10
-1.29295e-08
-1.31024e-10
-1.27876e-08
-1.4188e-10
-1.26351e-08
-1.52553e-10
-1.24721e-08
-1.63026e-10
-1.22988e-08
-1.73281e-10
-1.21155e-08
-1.83302e-10
-1.19224e-08
-1.93071e-10
-1.17198e-08
-2.02572e-10
-1.15081e-08
-2.11787e-10
-1.12874e-08
-2.20699e-10
-1.10581e-08
-2.29291e-10
-1.08205e-08
-2.37547e-10
-1.05751e-08
-2.45449e-10
-1.03221e-08
-2.5298e-10
-1.0062e-08
-2.60123e-10
-9.7951e-09
-2.66864e-10
-9.52192e-09
-2.73184e-10
-9.24285e-09
-2.79067e-10
-8.95835e-09
-2.84499e-10
-8.66889e-09
-2.89462e-10
-8.37495e-09
-2.93942e-10
-8.07702e-09
-2.97924e-10
-7.77563e-09
-3.01393e-10
-7.4713e-09
-3.04333e-10
-7.16456e-09
-3.06732e-10
-6.85599e-09
-3.08577e-10
-6.54613e-09
-3.09853e-10
-6.23558e-09
-3.10549e-10
-5.92493e-09
-3.10651e-10
-5.61478e-09
-3.1015e-10
-5.30575e-09
-3.09033e-10
-4.99846e-09
-3.07292e-10
-4.69354e-09
-3.04916e-10
-4.39165e-09
-3.01897e-10
-4.09342e-09
-2.98227e-10
-3.79952e-09
-2.93898e-10
-3.51062e-09
-2.88906e-10
-3.22737e-09
-2.83246e-10
-2.95046e-09
-2.76913e-10
-2.68055e-09
-2.69905e-10
-2.41833e-09
-2.62221e-10
-2.16447e-09
-2.53862e-10
-1.91964e-09
-2.44828e-10
-1.68452e-09
-2.35126e-10
-1.45975e-09
-2.2476e-10
-1.24602e-09
-2.13739e-10
-1.04394e-09
-2.02075e-10
-8.54159e-10
-1.89782e-10
-6.7728e-10
-1.76879e-10
-5.1389e-10
-1.6339e-10
-3.64545e-10
-1.49344e-10
-2.29766e-10
-1.34779e-10
-1.10028e-10
-1.19738e-10
-5.75219e-12
-1.04276e-10
8.27096e-11
-8.84621e-11
1.55092e-10
-7.23826e-11
2.11238e-10
-5.61463e-11
2.5113e-10
-3.98908e-11
2.74924e-10
-2.37929e-11
2.83009e-10
-8.08336e-12
2.76071e-10
6.93504e-12
2.55208e-10
2.08572e-11
2.22082e-10
3.3125e-11
1.79135e-10
4.2954e-11
1.29888e-10
4.92519e-11
7.93509e-11
5.05335e-11
3.46016e-11
4.47527e-11
5.31038e-12
2.93159e-11
5.33297e-12
3.00876e-11
-3.63242e-11
1.01255e-10
-1.01371e-10
1.95525e-10
-1.39187e-10
2.95876e-10
-1.50006e-10
3.87956e-10
-1.39335e-10
4.60511e-10
-1.12446e-10
5.05073e-10
-7.36604e-11
5.15455e-10
-2.63679e-11
4.87264e-10
2.68424e-11
4.17502e-10
8.402e-11
3.04249e-10
1.43682e-10
1.46415e-10
2.04694e-10
-5.64378e-11
2.66179e-10
-3.04234e-10
3.27454e-10
-5.96496e-10
3.87987e-10
-9.32426e-10
4.47358e-10
-1.31097e-09
5.05239e-10
-1.73089e-09
5.61368e-10
-2.19076e-09
6.15536e-10
-2.68905e-09
6.67581e-10
-3.22412e-09
7.17374e-10
-3.79427e-09
7.64816e-10
-4.39771e-09
8.09831e-10
-5.03262e-09
8.52363e-10
-5.69715e-09
8.92371e-10
-6.38943e-09
9.29828e-10
-7.10756e-09
9.64718e-10
-7.84965e-09
9.97037e-10
-8.6138e-09
1.02679e-09
-9.39811e-09
1.05397e-09
-1.02007e-08
1.07862e-09
-1.10197e-08
1.10073e-09
-1.18533e-08
1.12035e-09
-1.26996e-08
1.13749e-09
-1.35568e-08
1.15219e-09
-1.44232e-08
1.16448e-09
-1.52969e-08
1.1744e-09
-1.61763e-08
1.18198e-09
-1.70596e-08
1.18728e-09
-1.79452e-08
1.19032e-09
-1.88314e-08
1.19116e-09
-1.97166e-08
1.18983e-09
-2.05993e-08
1.18639e-09
-2.14778e-08
1.18088e-09
-2.23508e-08
1.17334e-09
-2.32167e-08
1.16383e-09
-2.40741e-08
1.15239e-09
-2.49217e-08
1.13908e-09
-2.57579e-08
1.12393e-09
-2.65816e-08
1.10701e-09
-2.73914e-08
1.08836e-09
-2.81861e-08
1.06803e-09
-2.89644e-08
1.04607e-09
-2.97253e-08
1.02254e-09
-3.04675e-08
9.97477e-10
-3.11899e-08
9.70942e-10
-3.18916e-08
9.42984e-10
-3.25714e-08
9.13655e-10
-3.32285e-08
8.83005e-10
-3.38617e-08
8.51088e-10
-3.44704e-08
8.17956e-10
-3.50535e-08
7.83661e-10
-3.56103e-08
7.48255e-10
-3.61399e-08
7.11792e-10
-3.66416e-08
6.74325e-10
-3.71148e-08
6.35907e-10
-3.75587e-08
5.96592e-10
-3.79727e-08
5.56433e-10
-3.83562e-08
5.15486e-10
-3.87087e-08
4.73804e-10
-3.90297e-08
4.31444e-10
-3.93187e-08
3.88461e-10
-3.95752e-08
3.4491e-10
-3.9799e-08
3.00848e-10
-3.99897e-08
2.56331e-10
-4.01469e-08
2.11418e-10
-4.02704e-08
1.66166e-10
-4.03601e-08
1.20634e-10
-4.04157e-08
7.48799e-11
-4.04371e-08
2.89636e-11
-4.04243e-08
-1.70554e-11
-4.03772e-08
-6.31164e-11
-4.02959e-08
-1.09158e-10
-4.01804e-08
-1.5512e-10
-4.00307e-08
-2.00938e-10
-3.98471e-08
-2.46552e-10
-3.96298e-08
-2.91897e-10
-3.9379e-08
-3.36911e-10
-3.9095e-08
-3.81529e-10
-3.87781e-08
-4.25687e-10
-3.84288e-08
-4.69321e-10
-3.80475e-08
-5.12364e-10
-3.76346e-08
-5.54752e-10
-3.71907e-08
-5.96417e-10
-3.67165e-08
-6.37295e-10
-3.62124e-08
-6.77318e-10
-3.56793e-08
-7.16421e-10
-3.51179e-08
-7.54536e-10
-3.45288e-08
-7.91598e-10
-3.39131e-08
-8.2754e-10
-3.32715e-08
-8.62294e-10
-3.2605e-08
-8.95796e-10
-3.19145e-08
-9.27979e-10
-3.12012e-08
-9.58777e-10
-3.04661e-08
-9.88125e-10
-2.97102e-08
-1.01596e-09
-2.89349e-08
-1.04221e-09
-2.81413e-08
-1.06683e-09
-2.73306e-08
-1.08973e-09
-2.65042e-08
-1.11088e-09
-2.56635e-08
-1.13019e-09
-2.48098e-08
-1.14762e-09
-2.39446e-08
-1.16311e-09
-2.30694e-08
-1.17659e-09
-2.21857e-08
-1.18802e-09
-2.12951e-08
-1.19735e-09
-2.03992e-08
-1.20451e-09
-1.94996e-08
-1.20946e-09
-1.8598e-08
-1.21215e-09
-1.76961e-08
-1.21254e-09
-1.67957e-08
-1.21059e-09
-1.58984e-08
-1.20625e-09
-1.50063e-08
-1.19948e-09
-1.41209e-08
-1.19026e-09
-1.32443e-08
-1.17855e-09
-1.23782e-08
-1.16432e-09
-1.15245e-08
-1.14755e-09
-1.06852e-08
-1.12822e-09
-9.86214e-09
-1.10631e-09
-9.05724e-09
-1.08182e-09
-8.27241e-09
-1.05473e-09
-7.50958e-09
-1.02505e-09
-6.77065e-09
-9.92793e-10
-6.05752e-09
-9.5796e-10
-5.37207e-09
-9.2058e-10
-4.71615e-09
-8.80681e-10
-4.09158e-09
-8.38309e-10
-3.50013e-09
-7.93516e-10
-2.94354e-09
-7.46372e-10
-2.42346e-09
-6.96961e-10
-1.94147e-09
-6.4539e-10
-1.49903e-09
-5.91785e-10
-1.0975e-09
-5.36307e-10
-7.38091e-10
-4.79147e-10
-4.21822e-10
-4.20542e-10
-1.495e-10
-3.60784e-10
7.83461e-11
-3.0023e-10
2.61521e-10
-2.39325e-10
4.00248e-10
-1.78622e-10
4.95276e-10
-1.18822e-10
5.48015e-10
-6.08184e-11
5.60709e-10
-5.75641e-12
5.36675e-10
4.48863e-11
4.80603e-10
8.91868e-11
3.98943e-10
1.24616e-10
3.00336e-10
1.47875e-10
1.96034e-10
1.5483e-10
1.00179e-10
1.40565e-10
2.92495e-11
1.00194e-10
3.46007e-11
4.48684e-11
-8.1171e-11
1.39209e-10
-1.95694e-10
2.56482e-10
-2.56497e-10
3.75099e-10
-2.68654e-10
4.76801e-10
-2.41031e-10
5.46694e-10
-1.82319e-10
5.73052e-10
-1.00012e-10
5.46917e-10
-2.41878e-13
4.61663e-10
1.12087e-10
3.12548e-10
2.33131e-10
9.6378e-11
3.59858e-10
-1.88803e-10
4.89884e-10
-5.43951e-10
6.21331e-10
-9.69209e-10
7.52712e-10
-1.46407e-09
8.82844e-10
-2.02749e-09
1.01078e-09
-2.65803e-09
1.13577e-09
-3.35387e-09
1.25721e-09
-4.11295e-09
1.37461e-09
-4.93295e-09
1.48758e-09
-5.81139e-09
1.59582e-09
-6.74564e-09
1.69907e-09
-7.73297e-09
1.79716e-09
-8.77054e-09
1.88994e-09
-9.85546e-09
1.97729e-09
-1.09848e-08
2.05915e-09
-1.21555e-08
2.13547e-09
-1.33647e-08
2.20621e-09
-1.46093e-08
2.27137e-09
-1.58863e-08
2.33096e-09
-1.71927e-08
2.38501e-09
-1.85255e-08
2.43354e-09
-1.98817e-08
2.47661e-09
-2.12585e-08
2.51426e-09
-2.26529e-08
2.54656e-09
-2.4062e-08
2.57358e-09
-2.5483e-08
2.59539e-09
-2.69131e-08
2.61208e-09
-2.83495e-08
2.62373e-09
-2.97896e-08
2.63043e-09
-3.12308e-08
2.63226e-09
-3.26703e-08
2.62933e-09
-3.41056e-08
2.62174e-09
-3.55343e-08
2.60958e-09
-3.69539e-08
2.59295e-09
-3.8362e-08
2.57196e-09
-3.97564e-08
2.54672e-09
-4.11346e-08
2.51733e-09
-4.24946e-08
2.48389e-09
-4.38341e-08
2.44653e-09
-4.51511e-08
2.40534e-09
-4.64435e-08
2.36044e-09
-4.77094e-08
2.31194e-09
-4.89468e-08
2.25994e-09
-5.01539e-08
2.20457e-09
-5.13289e-08
2.14594e-09
-5.247e-08
2.08416e-09
-5.35757e-08
2.01934e-09
-5.46443e-08
1.95159e-09
-5.56743e-08
1.88104e-09
-5.66641e-08
1.8078e-09
-5.76124e-08
1.73198e-09
-5.85179e-08
1.65371e-09
-5.93792e-08
1.57309e-09
-6.01951e-08
1.49025e-09
-6.09645e-08
1.4053e-09
-6.16863e-08
1.31837e-09
-6.23594e-08
1.22957e-09
-6.2983e-08
1.13903e-09
-6.3556e-08
1.04686e-09
-6.40778e-08
9.53191e-10
-6.45475e-08
8.58145e-10
-6.49644e-08
7.61844e-10
-6.5328e-08
6.64415e-10
-6.56376e-08
5.65984e-10
-6.58929e-08
4.66678e-10
-6.60933e-08
3.66626e-10
-6.62387e-08
2.65956e-10
-6.63286e-08
1.64801e-10
-6.63629e-08
6.32903e-11
-6.63415e-08
-3.84417e-11
-6.62644e-08
-1.40261e-10
-6.61315e-08
-2.42033e-10
-6.5943e-08
-3.43621e-10
-6.5699e-08
-4.44888e-10
-6.53999e-08
-5.45695e-10
-6.50459e-08
-6.45903e-10
-6.46374e-08
-7.4537e-10
-6.4175e-08
-8.43955e-10
-6.36592e-08
-9.41517e-10
-6.30906e-08
-1.03791e-09
-6.247e-08
-1.13299e-09
-6.17981e-08
-1.22662e-09
-6.10759e-08
-1.31864e-09
-6.03042e-08
-1.40891e-09
-5.94843e-08
-1.49729e-09
-5.86171e-08
-1.58363e-09
-5.77038e-08
-1.66778e-09
-5.67458e-08
-1.74959e-09
-5.57444e-08
-1.82893e-09
-5.47011e-08
-1.90563e-09
-5.36173e-08
-1.97956e-09
-5.24947e-08
-2.05058e-09
-5.1335e-08
-2.11853e-09
-5.01398e-08
-2.18327e-09
-4.89111e-08
-2.24466e-09
-4.76508e-08
-2.30257e-09
-4.63608e-08
-2.35685e-09
-4.50431e-08
-2.40736e-09
-4.37e-08
-2.45397e-09
-4.23337e-08
-2.49656e-09
-4.09463e-08
-2.53498e-09
-3.95403e-08
-2.56911e-09
-3.81181e-08
-2.59883e-09
-3.66821e-08
-2.62403e-09
-3.52348e-08
-2.64457e-09
-3.3779e-08
-2.66036e-09
-3.23172e-08
-2.67128e-09
-3.08521e-08
-2.67724e-09
-2.93865e-08
-2.67812e-09
-2.79232e-08
-2.67386e-09
-2.64651e-08
-2.66434e-09
-2.50151e-08
-2.64951e-09
-2.35761e-08
-2.62928e-09
-2.2151e-08
-2.6036e-09
-2.0743e-08
-2.5724e-09
-1.93549e-08
-2.53563e-09
-1.79898e-08
-2.49327e-09
-1.66509e-08
-2.44527e-09
-1.53411e-08
-2.39163e-09
-1.40634e-08
-2.33234e-09
-1.28211e-08
-2.2674e-09
-1.16171e-08
-2.19685e-09
-1.04543e-08
-2.12072e-09
-9.33581e-09
-2.03907e-09
-8.2645e-09
-1.95199e-09
-7.24323e-09
-1.85958e-09
-6.27477e-09
-1.76197e-09
-5.36181e-09
-1.65934e-09
-4.50688e-09
-1.55189e-09
-3.7124e-09
-1.43986e-09
-2.98061e-09
-1.32358e-09
-2.31352e-09
-1.2034e-09
-1.71288e-09
-1.07978e-09
-1.18017e-09
-9.53259e-10
-7.1645e-10
-8.24503e-10
-3.22355e-10
-6.94324e-10
2.03931e-12
-5.63718e-10
2.57327e-10
-4.3391e-10
4.44921e-10
-3.0642e-10
5.67246e-10
-1.83146e-10
6.2797e-10
-6.64755e-11
6.32286e-10
4.05819e-11
5.87234e-10
1.34239e-10
5.02099e-10
2.09735e-10
3.88821e-10
2.61152e-10
2.6232e-10
2.8136e-10
1.40626e-10
2.62291e-10
4.47088e-11
1.96078e-10
7.93175e-11
4.97164e-11
-1.30892e-10
1.50357e-10
-2.96321e-10
2.69278e-10
-3.75418e-10
3.81293e-10
-3.8068e-10
4.65609e-10
-3.25349e-10
5.05154e-10
-2.21857e-10
4.86194e-10
-8.10472e-11
3.9795e-10
8.80001e-11
2.32194e-10
2.77842e-10
-1.71297e-11
4.82456e-10
-3.54253e-10
6.96985e-10
-7.8189e-10
9.17526e-10
-1.3015e-09
1.14094e-09
-1.91349e-09
1.3647e-09
-2.61741e-09
1.58677e-09
-3.41211e-09
1.80549e-09
-4.29587e-09
2.01953e-09
-5.26646e-09
2.22781e-09
-6.32128e-09
2.42944e-09
-7.45742e-09
2.62372e-09
-8.67168e-09
2.81007e-09
-9.96065e-09
2.98805e-09
-1.13208e-08
3.15729e-09
-1.27483e-08
3.3175e-09
-1.42395e-08
3.46848e-09
-1.57905e-08
3.61008e-09
-1.73972e-08
3.74217e-09
-1.90557e-08
3.8647e-09
-2.07619e-08
3.97763e-09
-2.25119e-08
4.08096e-09
-2.43016e-08
4.17471e-09
-2.6127e-08
4.25894e-09
-2.79841e-08
4.33371e-09
-2.9869e-08
4.3991e-09
-3.17776e-08
4.45521e-09
-3.37062e-08
4.50215e-09
-3.56508e-08
4.54005e-09
-3.76078e-08
4.56904e-09
-3.95733e-08
4.58925e-09
-4.15437e-08
4.60084e-09
-4.35154e-08
4.60397e-09
-4.54849e-08
4.59878e-09
-4.74486e-08
4.58546e-09
-4.94032e-08
4.56417e-09
-5.13453e-08
4.53509e-09
-5.32718e-08
4.49838e-09
-5.51793e-08
4.45425e-09
-5.70648e-08
4.40286e-09
-5.89253e-08
4.34441e-09
-6.07579e-08
4.27907e-09
-6.25596e-08
4.20706e-09
-6.43277e-08
4.12854e-09
-6.60595e-08
4.04372e-09
-6.77523e-08
3.9528e-09
-6.94037e-08
3.85596e-09
-7.10112e-08
3.75341e-09
-7.25724e-08
3.64534e-09
-7.4085e-08
3.53196e-09
-7.55469e-08
3.41345e-09
-7.69559e-08
3.29003e-09
-7.831e-08
3.1619e-09
-7.96072e-08
3.02925e-09
-8.08458e-08
2.8923e-09
-8.2024e-08
2.75125e-09
-8.314e-08
2.6063e-09
-8.41924e-08
2.45767e-09
-8.51796e-08
2.30555e-09
-8.61002e-08
2.15018e-09
-8.69529e-08
1.99175e-09
-8.77365e-08
1.83047e-09
-8.84499e-08
1.66657e-09
-8.9092e-08
1.50026e-09
-8.96619e-08
1.33176e-09
-9.01588e-08
1.16129e-09
-9.05819e-08
9.89064e-10
-9.09305e-08
8.15314e-10
-9.12042e-08
6.40263e-10
-9.14023e-08
4.64138e-10
-9.15247e-08
2.87168e-10
-9.1571e-08
1.09584e-10
-9.15411e-08
-6.838e-11
-9.14348e-08
-2.4649e-10
-9.12524e-08
-4.24508e-10
-9.09938e-08
-6.02196e-10
-9.06594e-08
-7.79312e-10
-9.02495e-08
-9.55613e-10
-8.97645e-08
-1.13086e-09
-8.92051e-08
-1.30479e-09
-8.85718e-08
-1.47718e-09
-8.78656e-08
-1.64776e-09
-8.70872e-08
-1.81629e-09
-8.62377e-08
-1.98252e-09
-8.53181e-08
-2.14618e-09
-8.43297e-08
-2.30704e-09
-8.32738e-08
-2.46482e-09
-8.21518e-08
-2.61928e-09
-8.09653e-08
-2.77016e-09
-7.97159e-08
-2.91721e-09
-7.84053e-08
-3.06016e-09
-7.70355e-08
-3.19877e-09
-7.56083e-08
-3.33277e-09
-7.4126e-08
-3.46192e-09
-7.25906e-08
-3.58595e-09
-7.10045e-08
-3.70463e-09
-6.93701e-08
-3.8177e-09
-6.76898e-08
-3.92492e-09
-6.59663e-08
-4.02603e-09
-6.42024e-08
-4.1208e-09
-6.24008e-08
-4.209e-09
-6.05643e-08
-4.29038e-09
-5.86962e-08
-4.36473e-09
-5.67993e-08
-4.43181e-09
-5.48771e-08
-4.4914e-09
-5.29326e-08
-4.5433e-09
-5.09693e-08
-4.5873e-09
-4.89907e-08
-4.6232e-09
-4.70002e-08
-4.6508e-09
-4.50016e-08
-4.66993e-09
-4.29984e-08
-4.6804e-09
-4.09945e-08
-4.68206e-09
-3.89936e-08
-4.67474e-09
-3.69997e-08
-4.65831e-09
-3.50165e-08
-4.63262e-09
-3.30483e-08
-4.59757e-09
-3.10988e-08
-4.55304e-09
-2.91723e-08
-4.49894e-09
-2.72727e-08
-4.4352e-09
-2.54042e-08
-4.36176e-09
-2.35709e-08
-4.27857e-09
-2.17769e-08
-4.18562e-09
-2.00263e-08
-4.08292e-09
-1.83233e-08
-3.97048e-09
-1.66717e-08
-3.84837e-09
-1.50758e-08
-3.71667e-09
-1.35393e-08
-3.57551e-09
-1.20663e-08
-3.42504e-09
-1.06604e-08
-3.26547e-09
-9.32532e-09
-3.09705e-09
-8.06456e-09
-2.9201e-09
-6.88144e-09
-2.73501e-09
-5.77907e-09
-2.54224e-09
-4.76031e-09
-2.34234e-09
-3.82771e-09
-2.136e-09
-2.98346e-09
-1.92403e-09
-2.22933e-09
-1.70739e-09
-1.56656e-09
-1.48728e-09
-9.95776e-10
-1.26511e-09
-5.16878e-10
-1.04261e-09
-1.2888e-10
-8.21899e-10
1.70252e-10
-6.05547e-10
3.83815e-10
-3.96716e-10
5.1662e-10
-1.99296e-10
5.75288e-10
-1.80861e-11
5.68538e-10
1.40999e-10
5.07536e-10
2.70731e-10
4.06276e-10
3.6239e-10
2.81932e-10
4.05701e-10
1.55145e-10
3.89101e-10
5.05726e-11
3.00638e-10
1.29892e-10
4.75053e-11
-1.78422e-10
1.4028e-10
-3.89098e-10
2.42839e-10
-4.77957e-10
3.27781e-10
-4.65609e-10
3.72734e-10
-3.70305e-10
3.59343e-10
-2.08471e-10
2.7269e-10
5.60297e-12
1.00867e-10
2.59823e-10
-1.65394e-10
5.44107e-10
-5.33065e-10
8.50132e-10
-1.00714e-09
1.17106e-09
-1.59093e-09
1.50131e-09
-2.28629e-09
1.8363e-09
-3.09389e-09
2.1723e-09
-4.01337e-09
2.50624e-09
-5.0435e-09
2.83563e-09
-6.18237e-09
3.1584e-09
-7.42746e-09
3.47289e-09
-8.77572e-09
3.77771e-09
-1.02237e-08
4.07174e-09
-1.17677e-08
4.35406e-09
-1.34036e-08
4.62395e-09
-1.51272e-08
4.88081e-09
-1.69338e-08
5.12418e-09
-1.8819e-08
5.35368e-09
-2.0778e-08
5.56906e-09
-2.28059e-08
5.77011e-09
-2.4898e-08
5.95671e-09
-2.70491e-08
6.12878e-09
-2.92544e-08
6.28629e-09
-3.1509e-08
6.42926e-09
-3.38078e-08
6.55775e-09
-3.61459e-08
6.67183e-09
-3.85184e-08
6.77162e-09
-4.09205e-08
6.85726e-09
-4.33472e-08
6.9289e-09
-4.57939e-08
6.98671e-09
-4.82558e-08
7.0309e-09
-5.07282e-08
7.06167e-09
-5.32066e-08
7.07923e-09
-5.56864e-08
7.08382e-09
-5.81633e-08
7.07567e-09
-6.06329e-08
7.05504e-09
-6.30909e-08
7.02219e-09
-6.55332e-08
6.97736e-09
-6.79556e-08
6.92084e-09
-7.03543e-08
6.8529e-09
-7.27253e-08
6.77382e-09
-7.50647e-08
6.68387e-09
-7.7369e-08
6.58335e-09
-7.96345e-08
6.47254e-09
-8.18577e-08
6.35174e-09
-8.40352e-08
6.22124e-09
-8.61638e-08
6.08135e-09
-8.82401e-08
5.93235e-09
-9.02613e-08
5.77456e-09
-9.22242e-08
5.60827e-09
-9.41261e-08
5.4338e-09
-9.5964e-08
5.25144e-09
-9.77355e-08
5.06151e-09
-9.9438e-08
4.86433e-09
-1.01069e-07
4.6602e-09
-1.02626e-07
4.44943e-09
-1.04107e-07
4.23236e-09
-1.0551e-07
4.00928e-09
-1.06833e-07
3.78053e-09
-1.08074e-07
3.54643e-09
-1.09231e-07
3.3073e-09
-1.10303e-07
3.06347e-09
-1.11288e-07
2.81526e-09
-1.12184e-07
2.56302e-09
-1.12991e-07
2.30706e-09
-1.13707e-07
2.04774e-09
-1.14331e-07
1.78539e-09
-1.14862e-07
1.52036e-09
-1.153e-07
1.25297e-09
-1.15643e-07
9.83597e-10
-1.15892e-07
7.12576e-10
-1.16045e-07
4.40263e-10
-1.16102e-07
1.67016e-10
-1.16064e-07
-1.06806e-10
-1.15929e-07
-3.80841e-10
-1.15699e-07
-6.54724e-10
-1.15373e-07
-9.28085e-10
-1.14952e-07
-1.20055e-09
-1.14436e-07
-1.47176e-09
-1.13825e-07
-1.74132e-09
-1.13121e-07
-2.00886e-09
-1.12324e-07
-2.27399e-09
-1.11436e-07
-2.53634e-09
-1.10457e-07
-2.79552e-09
-1.09388e-07
-3.05113e-09
-1.08231e-07
-3.30279e-09
-1.06988e-07
-3.55012e-09
-1.0566e-07
-3.79271e-09
-1.0425e-07
-4.03017e-09
-1.02758e-07
-4.26212e-09
-1.01187e-07
-4.48815e-09
-9.9539e-08
-4.70788e-09
-9.78168e-08
-4.92092e-09
-9.60227e-08
-5.12687e-09
-9.41593e-08
-5.32534e-09
-9.22293e-08
-5.51595e-09
-9.02356e-08
-5.69832e-09
-8.81813e-08
-5.87206e-09
-8.60694e-08
-6.03679e-09
-8.39033e-08
-6.19214e-09
-8.16863e-08
-6.33775e-09
-7.94221e-08
-6.47326e-09
-7.71142e-08
-6.59829e-09
-7.47664e-08
-6.71252e-09
-7.23826e-08
-6.8156e-09
-6.99668e-08
-6.90719e-09
-6.75231e-08
-6.98697e-09
-6.50558e-08
-7.05463e-09
-6.25691e-08
-7.10987e-09
-6.00675e-08
-7.15239e-09
-5.75555e-08
-7.18193e-09
-5.50377e-08
-7.19822e-09
-5.25188e-08
-7.201e-09
-5.00034e-08
-7.19006e-09
-4.74966e-08
-7.16516e-09
-4.50031e-08
-7.12613e-09
-4.25279e-08
-7.07278e-09
-4.0076e-08
-7.00496e-09
-3.76524e-08
-6.92253e-09
-3.52622e-08
-6.8254e-09
-3.29104e-08
-6.71349e-09
-3.06023e-08
-6.58674e-09
-2.83427e-08
-6.44515e-09
-2.61369e-08
-6.28872e-09
-2.39899e-08
-6.11754e-09
-2.19066e-08
-5.93169e-09
-1.98919e-08
-5.73133e-09
-1.79507e-08
-5.51668e-09
-1.60878e-08
-5.28799e-09
-1.43076e-08
-5.04561e-09
-1.26147e-08
-4.78996e-09
-1.10133e-08
-4.52156e-09
-9.50726e-09
-4.24102e-09
-8.10041e-09
-3.94909e-09
-6.7961e-09
-3.64665e-09
-5.59732e-09
-3.33478e-09
-4.5066e-09
-3.01475e-09
-3.52592e-09
-2.68807e-09
-2.65663e-09
-2.35657e-09
-1.89934e-09
-2.02241e-09
-1.25375e-09
-1.68821e-09
-7.18536e-10
-1.35711e-09
-2.91144e-10
-1.03293e-09
3.24067e-11
-7.20264e-10
2.57774e-10
-4.24666e-10
3.92567e-10
-1.52878e-10
4.46628e-10
8.69509e-11
4.32326e-10
2.85039e-10
3.64914e-10
4.29787e-10
2.62942e-10
5.07657e-10
1.48757e-10
5.03289e-10
4.94558e-11
3.99945e-10
1.79348e-10
4.0413e-11
-2.18842e-10
1.14272e-10
-4.62965e-10
1.85834e-10
-5.49507e-10
2.26922e-10
-5.06682e-10
2.14483e-10
-3.57863e-10
1.29557e-10
-1.23548e-10
-4.33638e-11
1.78522e-10
-3.16787e-10
5.33247e-10
-7.00575e-10
9.27901e-10
-1.20226e-09
1.35182e-09
-1.82733e-09
1.79614e-09
-2.5795e-09
2.25348e-09
-3.46092e-09
2.71772e-09
-4.47243e-09
3.18381e-09
-5.61374e-09
3.64755e-09
-6.88358e-09
4.10547e-09
-8.27988e-09
4.5547e-09
-9.79984e-09
4.99285e-09
-1.14401e-08
5.41797e-09
-1.31968e-08
5.82843e-09
-1.50656e-08
6.22291e-09
-1.7042e-08
6.60032e-09
-1.9121e-08
6.95979e-09
-2.12974e-08
7.30061e-09
-2.3566e-08
7.62223e-09
-2.59211e-08
7.92424e-09
-2.83573e-08
8.20631e-09
-3.08689e-08
8.46823e-09
-3.34499e-08
8.70986e-09
-3.60948e-08
8.93113e-09
-3.87976e-08
9.13204e-09
-4.15524e-08
9.31263e-09
-4.43536e-08
9.473e-09
-4.71953e-08
9.6133e-09
-5.00717e-08
9.73368e-09
-5.29772e-08
9.83436e-09
-5.5906e-08
9.91556e-09
-5.88527e-08
9.97755e-09
-6.18116e-08
1.00206e-08
-6.47774e-08
1.0045e-08
-6.77447e-08
1.00511e-08
-7.07083e-08
1.00392e-08
-7.36629e-08
1.00097e-08
-7.66035e-08
9.96281e-09
-7.95252e-08
9.89903e-09
-8.2423e-08
9.81869e-09
-8.52923e-08
9.72218e-09
-8.81284e-08
9.60988e-09
-9.09267e-08
9.48219e-09
-9.36828e-08
9.33951e-09
-9.63926e-08
9.18225e-09
-9.90516e-08
9.01082e-09
-1.01656e-07
8.82564e-09
-1.04202e-07
8.62713e-09
-1.06685e-07
8.41571e-09
-1.09102e-07
8.1918e-09
-1.1145e-07
7.95584e-09
-1.13724e-07
7.70827e-09
-1.15923e-07
7.4495e-09
-1.18041e-07
7.18e-09
-1.20077e-07
6.90019e-09
-1.22027e-07
6.61051e-09
-1.23889e-07
6.31143e-09
-1.2566e-07
6.00338e-09
-1.27338e-07
5.68683e-09
-1.28919e-07
5.36222e-09
-1.30403e-07
5.03001e-09
-1.31786e-07
4.69066e-09
-1.33068e-07
4.34465e-09
-1.34245e-07
3.99244e-09
-1.35316e-07
3.63449e-09
-1.3628e-07
3.2713e-09
-1.37136e-07
2.90332e-09
-1.37882e-07
2.53106e-09
-1.38516e-07
2.15499e-09
-1.39039e-07
1.7756e-09
-1.39449e-07
1.39339e-09
-1.39745e-07
1.00886e-09
-1.39927e-07
6.22512e-10
-1.39995e-07
2.34849e-10
-1.39948e-07
-1.53617e-10
-1.39787e-07
-5.4237e-10
-1.39511e-07
-9.30891e-10
-1.3912e-07
-1.31866e-09
-1.38615e-07
-1.70514e-09
-1.37997e-07
-2.08981e-09
-1.37267e-07
-2.47213e-09
-1.36424e-07
-2.85157e-09
-1.3547e-07
-3.22758e-09
-1.34407e-07
-3.59962e-09
-1.33235e-07
-3.96713e-09
-1.31957e-07
-4.32959e-09
-1.30573e-07
-4.68642e-09
-1.29086e-07
-5.03707e-09
-1.27498e-07
-5.381e-09
-1.25811e-07
-5.71765e-09
-1.24026e-07
-6.04645e-09
-1.22148e-07
-6.36686e-09
-1.20177e-07
-6.67832e-09
-1.18118e-07
-6.98027e-09
-1.15972e-07
-7.27216e-09
-1.13744e-07
-7.55345e-09
-1.11437e-07
-7.82358e-09
-1.09053e-07
-8.08202e-09
-1.06597e-07
-8.32823e-09
-1.04072e-07
-8.56167e-09
-1.01482e-07
-8.78183e-09
-9.88319e-08
-8.98817e-09
-9.61249e-08
-9.1802e-09
-9.33658e-08
-9.35742e-09
-9.0559e-08
-9.51933e-09
-8.77092e-08
-9.66545e-09
-8.4821e-08
-9.79532e-09
-8.18995e-08
-9.9085e-09
-7.89496e-08
-1.00045e-08
-7.59765e-08
-1.0083e-08
-7.29853e-08
-1.01435e-08
-6.99816e-08
-1.01857e-08
-6.69707e-08
-1.02091e-08
-6.39582e-08
-1.02135e-08
-6.09498e-08
-1.01985e-08
-5.79511e-08
-1.01639e-08
-5.49679e-08
-1.01093e-08
-5.20062e-08
-1.00345e-08
-4.90717e-08
-9.93939e-09
-4.61706e-08
-9.82371e-09
-4.33086e-08
-9.68734e-09
-4.04919e-08
-9.53021e-09
-3.77264e-08
-9.35224e-09
-3.50181e-08
-9.15345e-09
-3.23729e-08
-8.93389e-09
-2.97968e-08
-8.69365e-09
-2.72956e-08
-8.43292e-09
-2.4875e-08
-8.15193e-09
-2.25407e-08
-7.85101e-09
-2.02981e-08
-7.53057e-09
-1.81526e-08
-7.19112e-09
-1.61092e-08
-6.8333e-09
-1.4173e-08
-6.45785e-09
-1.23483e-08
-6.0657e-09
-1.06394e-08
-5.65792e-09
-9.05028e-09
-5.23582e-09
-7.58413e-09
-4.80093e-09
-6.24382e-09
-4.35506e-09
-5.03152e-09
-3.90038e-09
-3.94865e-09
-3.43944e-09
-2.99578e-09
-2.97528e-09
-2.17248e-09
-2.51151e-09
-1.47716e-09
-2.05244e-09
-9.06894e-10
-1.6032e-09
-4.57209e-10
-1.16994e-09
-1.21882e-10
-7.59988e-10
1.07322e-10
-3.82086e-10
2.40913e-10
-4.66439e-11
2.91957e-10
2.33998e-10
2.76402e-10
4.45345e-10
2.13505e-10
5.70545e-10
1.26463e-10
5.90324e-10
4.34275e-11
4.82989e-10
2.22775e-10
2.99678e-11
-2.48796e-10
7.66175e-11
-5.09618e-10
1.05669e-10
-5.78564e-10
8.9393e-11
-4.90404e-10
4.86543e-12
-2.73334e-10
-1.66888e-10
4.82052e-11
-4.4148e-10
4.53115e-10
-8.31597e-10
9.23369e-10
-1.34733e-09
1.44364e-09
-1.99648e-09
2.00097e-09
-2.78476e-09
2.58442e-09
-3.7161e-09
3.18481e-09
-4.79282e-09
3.79444e-09
-6.01584e-09
4.40684e-09
-7.3849e-09
5.01661e-09
-8.89865e-09
5.61923e-09
-1.05549e-08
6.21092e-09
-1.23505e-08
6.78852e-09
-1.4282e-08
7.34942e-09
-1.6345e-08
7.89141e-09
-1.85348e-08
8.4127e-09
-2.08462e-08
8.9118e-09
-2.32739e-08
9.38749e-09
-2.58121e-08
9.83879e-09
-2.84548e-08
1.02649e-08
-3.11958e-08
1.06652e-08
-3.40288e-08
1.10393e-08
-3.69474e-08
1.13868e-08
-3.99451e-08
1.17075e-08
-4.30153e-08
1.20013e-08
-4.61514e-08
1.22681e-08
-4.93467e-08
1.2508e-08
-5.25947e-08
1.2721e-08
-5.58887e-08
1.29073e-08
-5.92222e-08
1.30672e-08
-6.25887e-08
1.32008e-08
-6.59816e-08
1.33085e-08
-6.93946e-08
1.33906e-08
-7.28214e-08
1.34474e-08
-7.62557e-08
1.34793e-08
-7.96914e-08
1.34868e-08
-8.31225e-08
1.34703e-08
-8.65429e-08
1.34301e-08
-8.99469e-08
1.33668e-08
-9.33287e-08
1.32809e-08
-9.66828e-08
1.31728e-08
-1.00004e-07
1.3043e-08
-1.03286e-07
1.28922e-08
-1.06524e-07
1.27207e-08
-1.09714e-07
1.25291e-08
-1.1285e-07
1.2318e-08
-1.15927e-07
1.20879e-08
-1.18941e-07
1.18393e-08
-1.21886e-07
1.15729e-08
-1.2476e-07
1.12892e-08
-1.27557e-07
1.09887e-08
-1.30273e-07
1.06721e-08
-1.32905e-07
1.03399e-08
-1.35448e-07
9.99264e-09
-1.37899e-07
9.63099e-09
-1.40254e-07
9.25552e-09
-1.4251e-07
8.86682e-09
-1.44664e-07
8.46549e-09
-1.46713e-07
8.05213e-09
-1.48654e-07
7.62736e-09
-1.50483e-07
7.19178e-09
-1.52199e-07
6.74601e-09
-1.53799e-07
6.29067e-09
-1.55281e-07
5.82638e-09
-1.56642e-07
5.35378e-09
-1.57881e-07
4.8735e-09
-1.58996e-07
4.38618e-09
-1.59985e-07
3.89246e-09
-1.60847e-07
3.39299e-09
-1.61581e-07
2.88843e-09
-1.62185e-07
2.37942e-09
-1.62658e-07
1.86665e-09
-1.63e-07
1.35078e-09
-1.6321e-07
8.32477e-10
-1.63287e-07
3.12432e-10
-1.63232e-07
-2.08672e-10
-1.63045e-07
-7.30143e-10
-1.62724e-07
-1.25128e-09
-1.62271e-07
-1.77139e-09
-1.61687e-07
-2.28976e-09
-1.60971e-07
-2.80567e-09
-1.60125e-07
-3.31842e-09
-1.59149e-07
-3.82727e-09
-1.58045e-07
-4.3315e-09
-1.56814e-07
-4.83039e-09
-1.55458e-07
-5.32319e-09
-1.53979e-07
-5.80918e-09
-1.52377e-07
-6.28761e-09
-1.50657e-07
-6.75774e-09
-1.48819e-07
-7.21883e-09
-1.46866e-07
-7.67014e-09
-1.44802e-07
-8.11092e-09
-1.42628e-07
-8.54042e-09
-1.40349e-07
-8.95791e-09
-1.37966e-07
-9.36265e-09
-1.35485e-07
-9.75389e-09
-1.32907e-07
-1.01309e-08
-1.30238e-07
-1.0493e-08
-1.2748e-07
-1.08394e-08
-1.24639e-07
-1.11693e-08
-1.21719e-07
-1.14822e-08
-1.18723e-07
-1.17773e-08
-1.15658e-07
-1.20539e-08
-1.12526e-07
-1.23113e-08
-1.09335e-07
-1.25489e-08
-1.06088e-07
-1.2766e-08
-1.02792e-07
-1.2962e-08
-9.94509e-08
-1.31362e-08
-9.60712e-08
-1.32881e-08
-9.26586e-08
-1.34171e-08
-8.92189e-08
-1.35227e-08
-8.57582e-08
-1.36042e-08
-8.22827e-08
-1.36612e-08
-7.87985e-08
-1.36933e-08
-7.53122e-08
-1.36999e-08
-7.18301e-08
-1.36806e-08
-6.83588e-08
-1.36352e-08
-6.49049e-08
-1.35631e-08
-6.14752e-08
-1.34642e-08
-5.80764e-08
-1.33382e-08
-5.47153e-08
-1.31848e-08
-5.13987e-08
-1.30039e-08
-4.81335e-08
-1.27954e-08
-4.49264e-08
-1.25593e-08
-4.17844e-08
-1.22955e-08
-3.8714e-08
-1.20042e-08
-3.57221e-08
-1.16856e-08
-3.28153e-08
-1.13398e-08
-2.99999e-08
-1.09672e-08
-2.72825e-08
-1.05684e-08
-2.46692e-08
-1.01439e-08
-2.21659e-08
-9.69441e-09
-1.97784e-08
-9.22081e-09
-1.75121e-08
-8.72416e-09
-1.53721e-08
-8.20572e-09
-1.3363e-08
-7.66697e-09
-1.14892e-08
-7.10968e-09
-9.75416e-09
-6.53592e-09
-8.16109e-09
-5.94813e-09
-6.71229e-09
-5.34918e-09
-5.40927e-09
-4.74246e-09
-4.2526e-09
-4.13195e-09
-3.24176e-09
-3.52235e-09
-2.375e-09
-2.91919e-09
-1.64918e-09
-2.32903e-09
-1.05953e-09
-1.75959e-09
-5.99509e-10
-1.22001e-09
-2.60553e-10
-7.21039e-10
-3.1853e-11
-2.75352e-10
9.99397e-11
1.02204e-10
1.51e-10
3.94297e-10
1.40731e-10
5.80814e-10
9.23985e-11
6.38652e-10
3.39875e-11
5.414e-10
2.56761e-10
1.72568e-11
-2.6604e-10
3.0623e-11
-5.22982e-10
8.33733e-12
-5.56289e-10
-7.59765e-11
-4.06097e-10
-2.44428e-10
-1.04884e-10
-5.15486e-10
3.19266e-10
-9.04453e-10
8.42087e-10
-1.42384e-09
1.44276e-09
-2.08367e-09
2.10347e-09
-2.89171e-09
2.80901e-09
-3.85372e-09
3.54643e-09
-4.97365e-09
4.30474e-09
-6.25385e-09
5.07464e-09
-7.69524e-09
5.84823e-09
-9.29748e-09
6.61885e-09
-1.10591e-08
7.38089e-09
-1.29778e-08
8.12959e-09
-1.50503e-08
8.86097e-09
-1.72725e-08
9.57168e-09
-1.964e-08
1.02589e-08
-2.21476e-08
1.09203e-08
-2.47898e-08
1.1554e-08
-2.75606e-08
1.21582e-08
-3.04536e-08
1.27318e-08
-3.34624e-08
1.32737e-08
-3.65802e-08
1.3783e-08
-3.97999e-08
1.42591e-08
-4.31147e-08
1.47016e-08
-4.65171e-08
1.511e-08
-5e-08
1.54842e-08
-5.35559e-08
1.58241e-08
-5.71777e-08
1.61297e-08
-6.08578e-08
1.64011e-08
-6.45889e-08
1.66385e-08
-6.83638e-08
1.6842e-08
-7.21751e-08
1.70121e-08
-7.60156e-08
1.7149e-08
-7.98781e-08
1.72531e-08
-8.37556e-08
1.73249e-08
-8.76411e-08
1.73648e-08
-9.15276e-08
1.73734e-08
-9.54085e-08
1.73511e-08
-9.92771e-08
1.72986e-08
-1.03127e-07
1.72164e-08
-1.06951e-07
1.71052e-08
-1.10744e-07
1.69654e-08
-1.14498e-07
1.67979e-08
-1.18209e-07
1.66032e-08
-1.21871e-07
1.6382e-08