/*--------------------------------*- C++ -*----------------------------------*\
  =========                 |
  \\      /  F ield         | OpenFOAM: The Open Source CFD Toolbox
   \\    /   O peration     | Website:  https://openfoam.org
    \\  /    A nd           | Version:  7
     \\/     M anipulation  |
\*---------------------------------------------------------------------------*/
FoamFile
{
    version     2.0;
    format      ascii;
    class       volVectorField;
    location    "0.4875";
    object      U;
}
// * * * * * * * * * * * * * * * * * * * * * * * * * * * * * * * * * * * * * //

dimensions      [0 1 -1 0 0 0 0];

internalField   nonuniform List<vector> 
25600
(
(1.80808e-07 -2.03342e-07 0)
(2.84055e-06 -1.79269e-06 0)
(9.0787e-06 -2.83188e-06 0)
(1.69327e-05 -3.20661e-06 0)
(2.48938e-05 -3.12469e-06 0)
(3.20125e-05 -2.74743e-06 0)
(3.76372e-05 -2.18238e-06 0)
(4.13183e-05 -1.50159e-06 0)
(4.2755e-05 -7.51866e-07 0)
(4.17534e-05 3.67406e-08 0)
(3.81964e-05 8.44098e-07 0)
(3.2022e-05 1.65614e-06 0)
(2.32086e-05 2.4627e-06 0)
(1.17655e-05 3.25628e-06 0)
(-2.2747e-06 4.03149e-06 0)
(-1.88609e-05 4.78445e-06 0)
(-3.79276e-05 5.51228e-06 0)
(-5.93985e-05 6.21281e-06 0)
(-8.31887e-05 6.88436e-06 0)
(-0.000109207 7.52571e-06 0)
(-0.000137357 8.13597e-06 0)
(-0.000167538 8.71456e-06 0)
(-0.000199648 9.26112e-06 0)
(-0.00023358 9.77545e-06 0)
(-0.000269228 1.02574e-05 0)
(-0.000306485 1.07071e-05 0)
(-0.000345242 1.11246e-05 0)
(-0.000385391 1.15101e-05 0)
(-0.000426824 1.1864e-05 0)
(-0.000469434 1.21866e-05 0)
(-0.000513114 1.24782e-05 0)
(-0.000557758 1.27393e-05 0)
(-0.000603263 1.29704e-05 0)
(-0.000649524 1.31718e-05 0)
(-0.000696441 1.33442e-05 0)
(-0.000743912 1.34879e-05 0)
(-0.000791839 1.36036e-05 0)
(-0.000840125 1.36917e-05 0)
(-0.000888675 1.37528e-05 0)
(-0.000937395 1.37876e-05 0)
(-0.000986193 1.37966e-05 0)
(-0.00103498 1.37803e-05 0)
(-0.00108367 1.37394e-05 0)
(-0.00113217 1.36744e-05 0)
(-0.0011804 1.35859e-05 0)
(-0.00122829 1.34745e-05 0)
(-0.00127574 1.33408e-05 0)
(-0.00132268 1.31854e-05 0)
(-0.00136904 1.30089e-05 0)
(-0.00141474 1.28119e-05 0)
(-0.0014597 1.25951e-05 0)
(-0.00150387 1.23589e-05 0)
(-0.00154717 1.2104e-05 0)
(-0.00158954 1.18309e-05 0)
(-0.00163092 1.15404e-05 0)
(-0.00167123 1.12329e-05 0)
(-0.00171043 1.09091e-05 0)
(-0.00174845 1.05696e-05 0)
(-0.00178525 1.02149e-05 0)
(-0.00182076 9.84572e-06 0)
(-0.00185495 9.46259e-06 0)
(-0.00188775 9.06613e-06 0)
(-0.00191912 8.65695e-06 0)
(-0.00194903 8.23564e-06 0)
(-0.00197742 7.8028e-06 0)
(-0.00200425 7.35906e-06 0)
(-0.0020295 6.90501e-06 0)
(-0.00205312 6.44127e-06 0)
(-0.00207508 5.96846e-06 0)
(-0.00209534 5.48719e-06 0)
(-0.00211389 4.99811e-06 0)
(-0.00213069 4.50184e-06 0)
(-0.00214572 3.99901e-06 0)
(-0.00215896 3.49026e-06 0)
(-0.00217038 2.97621e-06 0)
(-0.00217998 2.45753e-06 0)
(-0.00218772 1.93487e-06 0)
(-0.00219362 1.40891e-06 0)
(-0.00219764 8.80322e-07 0)
(-0.00219978 3.49777e-07 0)
(-0.00220004 -1.82045e-07 0)
(-0.00219842 -7.1446e-07 0)
(-0.00219491 -1.24677e-06 0)
(-0.00218952 -1.77828e-06 0)
(-0.00218225 -2.30827e-06 0)
(-0.00217311 -2.83601e-06 0)
(-0.0021621 -3.3608e-06 0)
(-0.00214924 -3.88189e-06 0)
(-0.00213455 -4.39855e-06 0)
(-0.00211804 -4.91006e-06 0)
(-0.00209972 -5.41567e-06 0)
(-0.00207963 -5.91462e-06 0)
(-0.0020578 -6.40615e-06 0)
(-0.00203423 -6.88949e-06 0)
(-0.00200898 -7.36387e-06 0)
(-0.00198207 -7.82852e-06 0)
(-0.00195353 -8.28267e-06 0)
(-0.00192341 -8.72555e-06 0)
(-0.00189175 -9.15639e-06 0)
(-0.00185859 -9.57439e-06 0)
(-0.00182398 -9.9788e-06 0)
(-0.00178796 -1.03688e-05 0)
(-0.0017506 -1.07437e-05 0)
(-0.00171195 -1.11026e-05 0)
(-0.00167206 -1.14448e-05 0)
(-0.001631 -1.17695e-05 0)
(-0.00158882 -1.2076e-05 0)
(-0.0015456 -1.23635e-05 0)
(-0.0015014 -1.26313e-05 0)
(-0.0014563 -1.28786e-05 0)
(-0.00141036 -1.31048e-05 0)
(-0.00136367 -1.3309e-05 0)
(-0.0013163 -1.34906e-05 0)
(-0.00126834 -1.36489e-05 0)
(-0.00121986 -1.37832e-05 0)
(-0.00117095 -1.38929e-05 0)
(-0.0011217 -1.39773e-05 0)
(-0.00107221 -1.40358e-05 0)
(-0.00102255 -1.40679e-05 0)
(-0.000972834 -1.40728e-05 0)
(-0.000923146 -1.40501e-05 0)
(-0.000873587 -1.39993e-05 0)
(-0.000824256 -1.39198e-05 0)
(-0.000775255 -1.38112e-05 0)
(-0.000726685 -1.3673e-05 0)
(-0.00067865 -1.35048e-05 0)
(-0.000631254 -1.33061e-05 0)
(-0.000584604 -1.30768e-05 0)
(-0.000538805 -1.28165e-05 0)
(-0.000493967 -1.25249e-05 0)
(-0.000450195 -1.22019e-05 0)
(-0.000407599 -1.18472e-05 0)
(-0.000366286 -1.14608e-05 0)
(-0.000326365 -1.10426e-05 0)
(-0.000287943 -1.05927e-05 0)
(-0.000251127 -1.01112e-05 0)
(-0.000216022 -9.59827e-06 0)
(-0.000182733 -9.05424e-06 0)
(-0.000151361 -8.47953e-06 0)
(-0.000122006 -7.87471e-06 0)
(-9.47627e-05 -7.24061e-06 0)
(-6.97239e-05 -6.57825e-06 0)
(-4.69757e-05 -5.88894e-06 0)
(-2.65982e-05 -5.17425e-06 0)
(-8.66363e-06 -4.4362e-06 0)
(6.76567e-06 -3.67743e-06 0)
(1.96395e-05 -2.90137e-06 0)
(2.99232e-05 -2.11246e-06 0)
(3.76012e-05 -1.31645e-06 0)
(4.26831e-05 -5.21051e-07 0)
(4.52102e-05 2.63209e-07 0)
(4.52653e-05 1.02177e-06 0)
(4.29868e-05 1.73392e-06 0)
(3.85897e-05 2.36902e-06 0)
(3.23949e-05 2.88039e-06 0)
(2.48704e-05 3.19765e-06 0)
(1.66814e-05 3.21667e-06 0)
(8.77935e-06 2.7815e-06 0)
(2.64141e-06 1.69896e-06 0)
(1.20993e-07 1.23131e-07 0)
(1.77927e-06 -2.87362e-06 0)
(9.38816e-06 -9.41059e-06 0)
(2.31474e-05 -1.34173e-05 0)
(3.93901e-05 -1.4731e-05 0)
(5.52778e-05 -1.39703e-05 0)
(6.88165e-05 -1.17043e-05 0)
(7.8465e-05 -8.37357e-06 0)
(8.30649e-05 -4.30904e-06 0)
(8.17841e-05 2.4788e-07 0)
(7.40449e-05 5.12294e-06 0)
(5.94639e-05 1.0188e-05 0)
(3.78083e-05 1.53474e-05 0)
(8.96209e-06 2.05284e-05 0)
(-2.70992e-05 2.56752e-05 0)
(-7.03274e-05 3.07453e-05 0)
(-0.000120618 3.57059e-05 0)
(-0.00017782 4.05313e-05 0)
(-0.000241748 4.52016e-05 0)
(-0.000312188 4.97009e-05 0)
(-0.000388902 5.40171e-05 0)
(-0.000471637 5.81406e-05 0)
(-0.000560123 6.20644e-05 0)
(-0.00065408 6.57832e-05 0)
(-0.00075322 6.92931e-05 0)
(-0.000857249 7.25915e-05 0)
(-0.000965868 7.56767e-05 0)
(-0.00107878 7.85482e-05 0)
(-0.00119567 8.12059e-05 0)
(-0.00131624 8.36505e-05 0)
(-0.00144019 8.58832e-05 0)
(-0.00156722 8.79056e-05 0)
(-0.00169702 8.97196e-05 0)
(-0.0018293 9.13275e-05 0)
(-0.00196376 9.27319e-05 0)
(-0.00210012 9.39356e-05 0)
(-0.00223807 9.49415e-05 0)
(-0.00237735 9.57529e-05 0)
(-0.00251767 9.6373e-05 0)
(-0.00265875 9.68054e-05 0)
(-0.00280032 9.70536e-05 0)
(-0.00294213 9.71214e-05 0)
(-0.00308391 9.70124e-05 0)
(-0.0032254 9.67305e-05 0)
(-0.00336636 9.62796e-05 0)
(-0.00350654 9.56635e-05 0)
(-0.00364571 9.48862e-05 0)
(-0.00378364 9.39519e-05 0)
(-0.00392008 9.28646e-05 0)
(-0.00405484 9.16282e-05 0)
(-0.00418769 9.02469e-05 0)
(-0.00431841 8.87249e-05 0)
(-0.00444682 8.70661e-05 0)
(-0.00457271 8.52749e-05 0)
(-0.00469589 8.33554e-05 0)
(-0.00481618 8.13117e-05 0)
(-0.0049334 7.9148e-05 0)
(-0.00504737 7.68685e-05 0)
(-0.00515793 7.44774e-05 0)
(-0.00526492 7.19789e-05 0)
(-0.00536818 6.93774e-05 0)
(-0.00546757 6.6677e-05 0)
(-0.00556294 6.3882e-05 0)
(-0.00565416 6.09967e-05 0)
(-0.0057411 5.80253e-05 0)
(-0.00582364 5.49723e-05 0)
(-0.00590166 5.18419e-05 0)
(-0.00597505 4.86385e-05 0)
(-0.0060437 4.53665e-05 0)
(-0.00610753 4.20302e-05 0)
(-0.00616643 3.86342e-05 0)
(-0.00622033 3.51829e-05 0)
(-0.00626915 3.16808e-05 0)
(-0.00631281 2.81325e-05 0)
(-0.00635125 2.45424e-05 0)
(-0.00638442 2.09153e-05 0)
(-0.00641226 1.72557e-05 0)
(-0.00643473 1.35684e-05 0)
(-0.00645179 9.85819e-06 0)
(-0.00646342 6.12975e-06 0)
(-0.00646959 2.38793e-06 0)
(-0.00647028 -1.36243e-06 0)
(-0.00646549 -5.11641e-06 0)
(-0.00645521 -8.86905e-06 0)
(-0.00643946 -1.26153e-05 0)
(-0.00641824 -1.63502e-05 0)
(-0.00639157 -2.00686e-05 0)
(-0.00635949 -2.37654e-05 0)
(-0.00632203 -2.74354e-05 0)
(-0.00627923 -3.10735e-05 0)
(-0.00623115 -3.46744e-05 0)
(-0.00617784 -3.82328e-05 0)
(-0.00611936 -4.17433e-05 0)
(-0.00605581 -4.52007e-05 0)
(-0.00598725 -4.85995e-05 0)
(-0.00591377 -5.19344e-05 0)
(-0.00583548 -5.51999e-05 0)
(-0.00575248 -5.83906e-05 0)
(-0.00566488 -6.15011e-05 0)
(-0.00557281 -6.4526e-05 0)
(-0.0054764 -6.74597e-05 0)
(-0.00537577 -7.02969e-05 0)
(-0.00527109 -7.30322e-05 0)
(-0.00516249 -7.56601e-05 0)
(-0.00505015 -7.81752e-05 0)
(-0.00493423 -8.05722e-05 0)
(-0.0048149 -8.28458e-05 0)
(-0.00469236 -8.49908e-05 0)
(-0.00456679 -8.70019e-05 0)
(-0.0044384 -8.8874e-05 0)
(-0.00430738 -9.06021e-05 0)
(-0.00417396 -9.21811e-05 0)
(-0.00403835 -9.36062e-05 0)
(-0.00390078 -9.48726e-05 0)
(-0.00376149 -9.59755e-05 0)
(-0.00362072 -9.69105e-05 0)
(-0.00347871 -9.76731e-05 0)
(-0.00333572 -9.82591e-05 0)
(-0.00319201 -9.86643e-05 0)
(-0.00304785 -9.88847e-05 0)
(-0.0029035 -9.89165e-05 0)
(-0.00275925 -9.87561e-05 0)
(-0.00261536 -9.84002e-05 0)
(-0.00247214 -9.78455e-05 0)
(-0.00232987 -9.70892e-05 0)
(-0.00218883 -9.61284e-05 0)
(-0.00204934 -9.49607e-05 0)
(-0.00191169 -9.3584e-05 0)
(-0.00177617 -9.19965e-05 0)
(-0.00164311 -9.01968e-05 0)
(-0.00151279 -8.81837e-05 0)
(-0.00138554 -8.59565e-05 0)
(-0.00126165 -8.35149e-05 0)
(-0.00114144 -8.08592e-05 0)
(-0.0010252 -7.79903e-05 0)
(-0.000913237 -7.49094e-05 0)
(-0.000805855 -7.16187e-05 0)
(-0.000703345 -6.81211e-05 0)
(-0.000605996 -6.44206e-05 0)
(-0.000514087 -6.05221e-05 0)
(-0.00042789 -5.64318e-05 0)
(-0.000347665 -5.21576e-05 0)
(-0.000273655 -4.77092e-05 0)
(-0.000206088 -4.30985e-05 0)
(-0.00014517 -3.83405e-05 0)
(-9.10812e-05 -3.34531e-05 0)
(-4.3969e-05 -2.8459e-05 0)
(-3.94266e-06 -2.33866e-05 0)
(2.89369e-05 -1.82709e-05 0)
(5.46685e-05 -1.31568e-05 0)
(7.33253e-05 -8.10139e-06 0)
(8.5074e-05 -3.179e-06 0)
(9.01994e-05 1.51309e-06 0)
(8.91364e-05 5.8463e-06 0)
(8.25131e-05 9.64748e-06 0)
(7.12076e-05 1.26794e-05 0)
(5.64144e-05 1.46199e-05 0)
(3.96918e-05 1.50457e-05 0)
(2.30223e-05 1.34204e-05 0)
(9.18166e-06 9.1887e-06 0)
(1.69306e-06 2.64338e-06 0)
(2.8268e-06 -9.08997e-06 0)
(1.34149e-05 -2.31651e-05 0)
(3.10845e-05 -3.10778e-05 0)
(5.08611e-05 -3.31473e-05 0)
(6.91484e-05 -3.04721e-05 0)
(8.33857e-05 -2.41462e-05 0)
(9.14873e-05 -1.50974e-05 0)
(9.181e-05 -4.07075e-06 0)
(8.31215e-05 8.35299e-06 0)
(6.45276e-05 2.17263e-05 0)
(3.54063e-05 3.57046e-05 0)
(-4.64407e-06 5.00211e-05 0)
(-5.58482e-05 6.44681e-05 0)
(-0.000118287 7.88833e-05 0)
(-0.000191926 9.3139e-05 0)
(-0.000276638 0.000107134 0)
(-0.000372218 0.000120789 0)
(-0.000478405 0.00013404 0)
(-0.000594884 0.000146837 0)
(-0.000721304 0.000159139 0)
(-0.00085728 0.000170914 0)
(-0.0010024 0.000182139 0)
(-0.00115624 0.000192794 0)
(-0.00131834 0.000202865 0)
(-0.00148826 0.000212342 0)
(-0.00166552 0.000221218 0)
(-0.00184964 0.000229488 0)
(-0.00204015 0.00023715 0)
(-0.00223657 0.000244205 0)
(-0.00243842 0.000250654 0)
(-0.00264521 0.000256501 0)
(-0.00285646 0.000261749 0)
(-0.00307171 0.000266405 0)
(-0.00329046 0.000270475 0)
(-0.00351227 0.000273965 0)
(-0.00373666 0.000276884 0)
(-0.00396318 0.000279241 0)
(-0.00419138 0.000281043 0)
(-0.00442081 0.000282302 0)
(-0.00465104 0.000283026 0)
(-0.00488164 0.000283225 0)
(-0.0051122 0.000282912 0)
(-0.00534228 0.000282095 0)
(-0.00557151 0.000280786 0)
(-0.00579947 0.000278996 0)
(-0.00602578 0.000276736 0)
(-0.00625007 0.000274018 0)
(-0.00647196 0.000270854 0)
(-0.00669111 0.000267255 0)
(-0.00690715 0.000263233 0)
(-0.00711975 0.000258799 0)
(-0.00732859 0.000253967 0)
(-0.00753333 0.000248747 0)
(-0.00773366 0.000243152 0)
(-0.0079293 0.000237194 0)
(-0.00811993 0.000230885 0)
(-0.00830529 0.000224237 0)
(-0.00848511 0.000217263 0)
(-0.00865911 0.000209975 0)
(-0.00882706 0.000202385 0)
(-0.0089887 0.000194506 0)
(-0.00914381 0.00018635 0)
(-0.00929216 0.00017793 0)
(-0.00943355 0.000169258 0)
(-0.00956777 0.000160348 0)
(-0.00969464 0.000151211 0)
(-0.00981398 0.00014186 0)
(-0.00992561 0.000132309 0)
(-0.0100294 0.000122571 0)
(-0.0101251 0.000112657 0)
(-0.0102128 0.000102583 0)
(-0.0102921 9.23595e-05 0)
(-0.0103631 8.20015e-05 0)
(-0.0104255 7.1522e-05 0)
(-0.0104794 6.09346e-05 0)
(-0.0105246 5.02529e-05 0)
(-0.0105611 3.94907e-05 0)
(-0.0105888 2.86619e-05 0)
(-0.0106076 1.77805e-05 0)
(-0.0106175 6.86063e-06 0)
(-0.0106186 -4.08339e-06 0)
(-0.0106107 -1.50372e-05 0)
(-0.0105939 -2.59863e-05 0)
(-0.0105682 -3.6916e-05 0)
(-0.0105336 -4.78116e-05 0)
(-0.0104901 -5.86581e-05 0)
(-0.0104378 -6.94406e-05 0)
(-0.0103768 -8.01439e-05 0)
(-0.0103071 -9.07529e-05 0)
(-0.0102288 -0.000101252 0)
(-0.0101421 -0.000111626 0)
(-0.0100469 -0.00012186 0)
(-0.00994347 -0.000131937 0)
(-0.0098319 -0.000141843 0)
(-0.00971236 -0.000151561 0)
(-0.00958498 -0.000161075 0)
(-0.00944996 -0.00017037 0)
(-0.00930748 -0.00017943 0)
(-0.00915773 -0.000188239 0)
(-0.00900092 -0.000196782 0)
(-0.00883728 -0.000205042 0)
(-0.00866705 -0.000213005 0)
(-0.00849048 -0.000220653 0)
(-0.00830782 -0.000227972 0)
(-0.00811936 -0.000234945 0)
(-0.00792538 -0.000241559 0)
(-0.00772617 -0.000247797 0)
(-0.00752206 -0.000253645 0)
(-0.00731337 -0.000259088 0)
(-0.00710042 -0.000264111 0)
(-0.00688358 -0.000268699 0)
(-0.00666319 -0.000272839 0)
(-0.00643962 -0.000276518 0)
(-0.00621327 -0.000279721 0)
(-0.00598451 -0.000282435 0)
(-0.00575375 -0.000284649 0)
(-0.0055214 -0.000286349 0)
(-0.00528788 -0.000287525 0)
(-0.00505362 -0.000288164 0)
(-0.00481905 -0.000288257 0)
(-0.00458463 -0.000287793 0)
(-0.00435081 -0.000286762 0)
(-0.00411804 -0.000285156 0)
(-0.0038868 -0.000282967 0)
(-0.00365756 -0.000280188 0)
(-0.00343079 -0.000276812 0)
(-0.00320697 -0.000272833 0)
(-0.0029866 -0.000268248 0)
(-0.00277016 -0.000263052 0)
(-0.00255813 -0.000257244 0)
(-0.00235102 -0.000250822 0)
(-0.0021493 -0.000243787 0)
(-0.00195347 -0.000236141 0)
(-0.00176401 -0.000227887 0)
(-0.00158139 -0.000219032 0)
(-0.0014061 -0.000209583 0)
(-0.00123858 -0.00019955 0)
(-0.00107929 -0.000188948 0)
(-0.000928675 -0.000177793 0)
(-0.000787145 -0.000166106 0)
(-0.000655101 -0.000153913 0)
(-0.000532916 -0.000141246 0)
(-0.000420931 -0.000128142 0)
(-0.00031945 -0.00011465 0)
(-0.000228732 -0.000100826 0)
(-0.000148985 -8.67409e-05 0)
(-8.03462e-05 -7.24807e-05 0)
(-2.28778e-05 -5.81522e-05 0)
(2.34566e-05 -4.38884e-05 0)
(5.88112e-05 -2.98555e-05 0)
(8.34847e-05 -1.6264e-05 0)
(9.7955e-05 -3.38224e-06 0)
(0.000102919 8.44646e-06 0)
(9.93403e-05 1.87818e-05 0)
(8.85128e-05 2.70572e-05 0)
(7.21249e-05 3.25515e-05 0)
(5.22845e-05 3.43798e-05 0)
(3.15392e-05 3.15261e-05 0)
(1.34201e-05 2.30223e-05 0)
(2.77607e-06 8.77509e-06 0)
(3.20785e-06 -1.69389e-05 0)
(1.47592e-05 -3.94266e-05 0)
(3.32298e-05 -5.08712e-05 0)
(5.27524e-05 -5.26357e-05 0)
(6.92224e-05 -4.64572e-05 0)
(7.97285e-05 -3.40104e-05 0)
(8.18565e-05 -1.67551e-05 0)
(7.36547e-05 4.097e-06 0)
(5.36159e-05 2.75659e-05 0)
(2.0612e-05 5.28688e-05 0)
(-2.61668e-05 7.93837e-05 0)
(-8.72655e-05 0.000106616 0)
(-0.000163008 0.000134174 0)
(-0.000253536 0.000161744 0)
(-0.000358841 0.000189075 0)
(-0.000478788 0.000215967 0)
(-0.000613143 0.000242258 0)
(-0.000761586 0.000267818 0)
(-0.000923729 0.000292541 0)
(-0.00109913 0.000316345 0)
(-0.00128729 0.000339162 0)
(-0.00148769 0.000360938 0)
(-0.00169976 0.000381633 0)
(-0.00192292 0.000401215 0)
(-0.00215658 0.000419658 0)
(-0.0024001 0.000436946 0)
(-0.00265287 0.000453068 0)
(-0.00291425 0.000468017 0)
(-0.00318359 0.000481789 0)
(-0.00346025 0.000494388 0)
(-0.00374358 0.000505815 0)
(-0.00403295 0.000516079 0)
(-0.00432771 0.000525188 0)
(-0.00462722 0.000533154 0)
(-0.00493086 0.000539988 0)
(-0.00523799 0.000545706 0)
(-0.005548 0.000550322 0)
(-0.00586028 0.000553854 0)
(-0.00617422 0.000556318 0)
(-0.00648924 0.000557735 0)
(-0.00680475 0.000558122 0)
(-0.00712018 0.000557501 0)
(-0.00743498 0.00055589 0)
(-0.00774858 0.000553312 0)
(-0.00806045 0.000549788 0)
(-0.00837006 0.00054534 0)
(-0.0086769 0.000539989 0)
(-0.00898047 0.000533759 0)
(-0.00928027 0.000526672 0)
(-0.00957583 0.000518751 0)
(-0.00986668 0.00051002 0)
(-0.0101524 0.000500501 0)
(-0.0104325 0.000490218 0)
(-0.0107066 0.000479195 0)
(-0.0109742 0.000467456 0)
(-0.011235 0.000455024 0)
(-0.0114886 0.000441923 0)
(-0.0117346 0.000428179 0)
(-0.0119726 0.000413814 0)
(-0.0122024 0.000398854 0)
(-0.0124235 0.000383322 0)
(-0.0126357 0.000367245 0)
(-0.0128386 0.000350645 0)
(-0.013032 0.000333549 0)
(-0.0132156 0.000315981 0)
(-0.0133892 0.000297967 0)
(-0.0135524 0.000279531 0)
(-0.0137051 0.000260699 0)
(-0.013847 0.000241497 0)
(-0.0139779 0.000221951 0)
(-0.0140977 0.000202087 0)
(-0.0142062 0.00018193 0)
(-0.0143032 0.000161507 0)
(-0.0143886 0.000140845 0)
(-0.0144622 0.000119971 0)
(-0.014524 9.89115e-05 0)
(-0.0145738 7.76939e-05 0)
(-0.0146115 5.63456e-05 0)
(-0.0146372 3.48945e-05 0)
(-0.0146507 1.33685e-05 0)
(-0.014652 -8.20416e-06 0)
(-0.0146411 -2.9795e-05 0)
(-0.014618 -5.13754e-05 0)
(-0.0145827 -7.29165e-05 0)
(-0.0145353 -9.43889e-05 0)
(-0.0144757 -0.000115763 0)
(-0.0144041 -0.00013701 0)
(-0.0143205 -0.0001581 0)
(-0.0142251 -0.000179001 0)
(-0.0141179 -0.000199686 0)
(-0.0139991 -0.000220122 0)
(-0.0138688 -0.000240279 0)
(-0.0137272 -0.000260127 0)
(-0.0135745 -0.000279635 0)
(-0.0134109 -0.000298771 0)
(-0.0132367 -0.000317505 0)
(-0.0130519 -0.000335806 0)
(-0.012857 -0.000353642 0)
(-0.0126521 -0.000370983 0)
(-0.0124376 -0.000387798 0)
(-0.0122137 -0.000404054 0)
(-0.0119809 -0.000419723 0)
(-0.0117394 -0.000434772 0)
(-0.0114896 -0.000449171 0)
(-0.0112318 -0.000462891 0)
(-0.0109666 -0.000475901 0)
(-0.0106942 -0.00048817 0)
(-0.0104151 -0.000499671 0)
(-0.0101297 -0.000510374 0)
(-0.00983853 -0.00052025 0)
(-0.00954205 -0.000529272 0)
(-0.00924072 -0.000537412 0)
(-0.00893506 -0.000544643 0)
(-0.00862559 -0.00055094 0)
(-0.00831283 -0.000556278 0)
(-0.00799734 -0.000560631 0)
(-0.00767967 -0.000563976 0)
(-0.0073604 -0.000566292 0)
(-0.00704011 -0.000567555 0)
(-0.00671939 -0.000567746 0)
(-0.00639885 -0.000566846 0)
(-0.00607911 -0.000564836 0)
(-0.00576079 -0.000561701 0)
(-0.00544451 -0.000557424 0)
(-0.00513094 -0.000551993 0)
(-0.00482069 -0.000545397 0)
(-0.00451444 -0.000537624 0)
(-0.00421283 -0.000528668 0)
(-0.00391653 -0.000518523 0)
(-0.00362618 -0.000507186 0)
(-0.00334245 -0.000494657 0)
(-0.003066 -0.000480937 0)
(-0.00279747 -0.000466033 0)
(-0.00253751 -0.000449954 0)
(-0.00228677 -0.000432714 0)
(-0.00204585 -0.00041433 0)
(-0.00181539 -0.000394827 0)
(-0.00159597 -0.000374234 0)
(-0.00138817 -0.000352587 0)
(-0.00119253 -0.000329931 0)
(-0.00100957 -0.000306321 0)
(-0.000839775 -0.000281824 0)
(-0.000683572 -0.000256519 0)
(-0.000541346 -0.000230502 0)
(-0.000413417 -0.000203892 0)
(-0.000300027 -0.000176829 0)
(-0.000201333 -0.000149488 0)
(-0.00011738 -0.000122079 0)
(-4.80883e-05 -9.48612e-05 0)
(6.77677e-06 -6.81552e-05 0)
(4.76325e-05 -4.23569e-05 0)
(7.51171e-05 -1.79599e-05 0)
(9.01331e-05 4.41922e-06 0)
(9.38939e-05 2.40119e-05 0)
(8.7979e-05 3.98653e-05 0)
(7.43938e-05 5.08136e-05 0)
(5.55833e-05 5.54723e-05 0)
(3.44546e-05 5.2287e-05 0)
(1.50677e-05 3.97073e-05 0)
(3.21511e-06 1.66746e-05 0)
(3.13537e-06 -2.49241e-05 0)
(1.40518e-05 -5.53852e-05 0)
(3.06924e-05 -6.92397e-05 0)
(4.68131e-05 -6.91429e-05 0)
(5.80268e-05 -5.76067e-05 0)
(6.12013e-05 -3.69329e-05 0)
(5.37274e-05 -9.12961e-06 0)
(3.34685e-05 2.41106e-05 0)
(-1.25732e-06 6.13876e-05 0)
(-5.17356e-05 0.000101557 0)
(-0.000118912 0.000143687 0)
(-0.000203439 0.000187023 0)
(-0.000305721 0.000230955 0)
(-0.000425952 0.000274986 0)
(-0.00056415 0.000318714 0)
(-0.000720181 0.000361813 0)
(-0.000893791 0.000404015 0)
(-0.00108462 0.000445104 0)
(-0.00129221 0.000484902 0)
(-0.00151606 0.000523268 0)
(-0.00175558 0.000560086 0)
(-0.00201013 0.000595263 0)
(-0.00227906 0.000628724 0)
(-0.00256166 0.000660413 0)
(-0.00285719 0.000690285 0)
(-0.00316492 0.000718307 0)
(-0.00348407 0.000744456 0)
(-0.00381386 0.000768717 0)
(-0.00415351 0.000791083 0)
(-0.00450223 0.000811552 0)
(-0.00485921 0.000830127 0)
(-0.00522368 0.000846817 0)
(-0.00559483 0.000861635 0)
(-0.00597188 0.000874595 0)
(-0.00635403 0.000885717 0)
(-0.00674053 0.000895022 0)
(-0.00713059 0.000902534 0)
(-0.00752346 0.000908278 0)
(-0.00791839 0.000912282 0)
(-0.00831463 0.000914575 0)
(-0.00871147 0.000915188 0)
(-0.00910818 0.000914152 0)
(-0.00950407 0.000911499 0)
(-0.00989845 0.000907264 0)
(-0.0102906 0.000901481 0)
(-0.01068 0.000894185 0)
(-0.0110658 0.000885411 0)
(-0.0114475 0.000875197 0)
(-0.0118245 0.000863578 0)
(-0.0121962 0.000850592 0)
(-0.0125619 0.000836277 0)
(-0.0129211 0.000820671 0)
(-0.0132733 0.000803812 0)
(-0.0136179 0.000785739 0)
(-0.0139545 0.00076649 0)
(-0.0142824 0.000746104 0)
(-0.0146012 0.000724622 0)
(-0.0149105 0.000702082 0)
(-0.0152098 0.000678524 0)
(-0.0154987 0.000653988 0)
(-0.0157767 0.000628515 0)
(-0.0160434 0.000602145 0)
(-0.0162986 0.000574918 0)
(-0.0165417 0.000546876 0)
(-0.0167725 0.00051806 0)
(-0.0169907 0.00048851 0)
(-0.0171959 0.000458269 0)
(-0.0173878 0.000427379 0)
(-0.0175661 0.000395881 0)
(-0.0177307 0.000363818 0)
(-0.0178813 0.000331233 0)
(-0.0180176 0.000298169 0)
(-0.0181394 0.00026467 0)
(-0.0182467 0.000230778 0)
(-0.0183392 0.000196539 0)
(-0.0184167 0.000161997 0)
(-0.0184792 0.000127197 0)
(-0.0185266 9.21834e-05 0)
(-0.0185587 5.70024e-05 0)
(-0.0185756 2.17e-05 0)
(-0.0185771 -1.36776e-05 0)
(-0.0185633 -4.90836e-05 0)
(-0.0185341 -8.44707e-05 0)
(-0.0184896 -0.000119791 0)
(-0.0184298 -0.000154998 0)
(-0.0183548 -0.000190042 0)
(-0.0182646 -0.000224874 0)
(-0.0181595 -0.000259447 0)
(-0.0180393 -0.00029371 0)
(-0.0179045 -0.000327614 0)
(-0.017755 -0.000361109 0)
(-0.0175911 -0.000394145 0)
(-0.017413 -0.000426671 0)
(-0.017221 -0.000458638 0)
(-0.0170153 -0.000489994 0)
(-0.0167961 -0.000520688 0)
(-0.0165638 -0.000550671 0)
(-0.0163187 -0.00057989 0)
(-0.0160611 -0.000608295 0)
(-0.0157914 -0.000635836 0)
(-0.01551 -0.000662462 0)
(-0.0152173 -0.000688122 0)
(-0.0149137 -0.000712766 0)
(-0.0145997 -0.000736344 0)
(-0.0142757 -0.000758808 0)
(-0.0139423 -0.000780108 0)
(-0.0135999 -0.000800195 0)
(-0.0132491 -0.000819023 0)
(-0.0128905 -0.000836543 0)
(-0.0125246 -0.00085271 0)
(-0.012152 -0.000867479 0)
(-0.0117733 -0.000880805 0)
(-0.0113891 -0.000892644 0)
(-0.0110002 -0.000902956 0)
(-0.0106072 -0.000911698 0)
(-0.0102107 -0.000918832 0)
(-0.00981144 -0.000924319 0)
(-0.00941017 -0.000928125 0)
(-0.0090076 -0.000930213 0)
(-0.00860447 -0.000930552 0)
(-0.00820154 -0.00092911 0)
(-0.00779957 -0.000925861 0)
(-0.00739934 -0.000920777 0)
(-0.00700165 -0.000913836 0)
(-0.00660728 -0.000905017 0)
(-0.00621704 -0.000894301 0)
(-0.00583173 -0.000881676 0)
(-0.00545217 -0.000867129 0)
(-0.00507918 -0.000850653 0)
(-0.00471356 -0.000832246 0)
(-0.00435613 -0.000811909 0)
(-0.0040077 -0.000789648 0)
(-0.00366908 -0.000765476 0)
(-0.00334105 -0.000739411 0)
(-0.00302439 -0.000711477 0)
(-0.00271987 -0.000681709 0)
(-0.00242825 -0.000650148 0)
(-0.00215023 -0.000616848 0)
(-0.00188652 -0.000581871 0)
(-0.00163777 -0.000545296 0)
(-0.0014046 -0.000507218 0)
(-0.00118758 -0.000467749 0)
(-0.000987221 -0.000427025 0)
(-0.000803971 -0.000385209 0)
(-0.000638192 -0.000342498 0)
(-0.000490156 -0.000299125 0)
(-0.000360024 -0.000255374 0)
(-0.000247825 -0.000211587 0)
(-0.000153437 -0.000168179 0)
(-7.65577e-05 -0.000125655 0)
(-1.66729e-05 -8.46308e-05 0)
(2.69786e-05 -4.5857e-05 0)
(5.54465e-05 -1.02529e-05 0)
(7.01147e-05 2.10595e-05 0)
(7.27493e-05 4.67214e-05 0)
(6.55526e-05 6.51088e-05 0)
(5.11762e-05 7.43206e-05 0)
(3.27628e-05 7.22112e-05 0)
(1.46913e-05 5.6497e-05 0)
(3.20442e-06 2.48798e-05 0)
(2.77407e-06 -3.21044e-05 0)
(1.18676e-05 -6.90781e-05 0)
(2.45669e-05 -8.36676e-05 0)
(3.47111e-05 -7.98102e-05 0)
(3.78501e-05 -6.08464e-05 0)
(3.07366e-05 -2.97326e-05 0)
(1.06637e-05 1.0967e-05 0)
(-2.45999e-05 5.90753e-05 0)
(-7.68322e-05 0.000112767 0)
(-0.000147413 0.000170523 0)
(-0.000237372 0.000231089 0)
(-0.000347435 0.00029343 0)
(-0.000478062 0.000356693 0)
(-0.000629487 0.00042018 0)
(-0.000801744 0.000483312 0)
(-0.000994703 0.000545617 0)
(-0.00120809 0.000606704 0)
(-0.00144151 0.000666251 0)
(-0.00169448 0.000723995 0)
(-0.0019664 0.000779719 0)
(-0.00225662 0.000833247 0)
(-0.00256442 0.000884437 0)
(-0.00288905 0.000933171 0)
(-0.00322969 0.00097936 0)
(-0.00358551 0.00102293 0)
(-0.00395563 0.00106383 0)
(-0.00433916 0.00110202 0)
(-0.00473521 0.00113747 0)
(-0.00514285 0.00117017 0)
(-0.00556115 0.00120011 0)
(-0.00598919 0.00122728 0)
(-0.00642604 0.00125171 0)
(-0.00687075 0.0012734 0)
(-0.00732241 0.00129237 0)
(-0.00778009 0.00130866 0)
(-0.00824287 0.00132228 0)
(-0.00870984 0.00133327 0)
(-0.0091801 0.00134166 0)
(-0.00965276 0.0013475 0)
(-0.010127 0.00135083 0)
(-0.0106018 0.00135169 0)
(-0.0110765 0.00135012 0)
(-0.0115502 0.00134617 0)
(-0.012022 0.00133989 0)
(-0.0124912 0.00133133 0)
(-0.0129569 0.00132054 0)
(-0.0134185 0.00130757 0)
(-0.0138751 0.00129248 0)
(-0.014326 0.00127531 0)
(-0.0147705 0.00125613 0)
(-0.015208 0.00123499 0)
(-0.0156376 0.00121194 0)
(-0.0160589 0.00118703 0)
(-0.016471 0.00116034 0)
(-0.0168735 0.00113191 0)
(-0.0172657 0.0011018 0)
(-0.017647 0.00107007 0)
(-0.0180169 0.00103678 0)
(-0.0183749 0.00100198 0)
(-0.0187203 0.000965737 0)
(-0.0190528 0.000928109 0)
(-0.0193718 0.000889156 0)
(-0.0196769 0.000848936 0)
(-0.0199676 0.000807512 0)
(-0.0202436 0.000764943 0)
(-0.0205044 0.000721291 0)
(-0.0207498 0.000676617 0)
(-0.0209792 0.000630984 0)
(-0.0211924 0.000584453 0)
(-0.0213892 0.000537088 0)
(-0.0215691 0.000488953 0)
(-0.021732 0.000440111 0)
(-0.0218777 0.000390625 0)
(-0.0220058 0.000340562 0)
(-0.0221163 0.000289987 0)
(-0.0222089 0.000238965 0)
(-0.0222835 0.000187563 0)
(-0.02234 0.000135847 0)
(-0.0223783 8.38861e-05 0)
(-0.0223984 3.17473e-05 0)
(-0.0224001 -2.05004e-05 0)
(-0.0223834 -7.27879e-05 0)
(-0.0223484 -0.000125045 0)
(-0.022295 -0.000177202 0)
(-0.0222234 -0.000229188 0)
(-0.0221335 -0.000280932 0)
(-0.0220256 -0.00033236 0)
(-0.0218997 -0.000383402 0)
(-0.0217559 -0.000433985 0)
(-0.0215945 -0.000484034 0)
(-0.0214157 -0.000533477 0)
(-0.0212196 -0.00058224 0)
(-0.0210066 -0.000630248 0)
(-0.0207769 -0.000677426 0)
(-0.0205308 -0.000723701 0)
(-0.0202686 -0.000768997 0)
(-0.0199908 -0.000813239 0)
(-0.0196976 -0.000856353 0)
(-0.0193896 -0.000898263 0)
(-0.0190671 -0.000938895 0)
(-0.0187306 -0.000978175 0)
(-0.0183806 -0.00101603 0)
(-0.0180176 -0.00105238 0)
(-0.0176421 -0.00108716 0)
(-0.0172548 -0.00112029 0)
(-0.0168562 -0.00115171 0)
(-0.0164468 -0.00118134 0)
(-0.0160275 -0.00120911 0)
(-0.0155987 -0.00123495 0)
(-0.0151613 -0.00125879 0)
(-0.0147158 -0.00128058 0)
(-0.0142631 -0.00130024 0)
(-0.0138038 -0.00131771 0)
(-0.0133389 -0.00133293 0)
(-0.012869 -0.00134584 0)
(-0.0123949 -0.00135638 0)
(-0.0119176 -0.0013645 0)
(-0.0114378 -0.00137015 0)
(-0.0109564 -0.00137327 0)
(-0.0104743 -0.00137382 0)
(-0.00999236 -0.00137176 0)
(-0.00951156 -0.00136704 0)
(-0.00903278 -0.00135964 0)
(-0.00855696 -0.0013495 0)
(-0.00808503 -0.00133662 0)
(-0.00761794 -0.00132096 0)
(-0.00715665 -0.0013025 0)
(-0.00670212 -0.00128123 0)
(-0.00625531 -0.00125715 0)
(-0.00581716 -0.00123025 0)
(-0.00538865 -0.00120053 0)
(-0.00497071 -0.00116801 0)
(-0.0045643 -0.00113271 0)
(-0.00417032 -0.00109466 0)
(-0.00378971 -0.0010539 0)
(-0.00342334 -0.00101048 0)
(-0.00307208 -0.000964483 0)
(-0.00273678 -0.000915975 0)
(-0.00241822 -0.000865061 0)
(-0.00211716 -0.000811862 0)
(-0.00183432 -0.000756521 0)
(-0.00157034 -0.000699211 0)
(-0.00132579 -0.000640135 0)
(-0.00110118 -0.00057954 0)
(-0.000896896 -0.000517714 0)
(-0.000713242 -0.000455005 0)
(-0.000550379 -0.000391826 0)
(-0.000408325 -0.00032867 0)
(-0.000286925 -0.00026613 0)
(-0.000185824 -0.000204918 0)
(-0.00010444 -0.00014589 0)
(-4.19255e-05 -9.00744e-05 0)
(2.8654e-06 -3.87088e-05 0)
(3.14208e-05 6.72265e-06 0)
(4.5617e-05 4.44498e-05 0)
(4.7766e-05 7.23843e-05 0)
(4.06329e-05 8.80946e-05 0)
(2.74938e-05 8.88095e-05 0)
(1.28354e-05 7.14469e-05 0)
(2.90132e-06 3.24554e-05 0)
(2.23051e-06 -3.78377e-05 0)
(8.64361e-06 -7.89936e-05 0)
(1.5772e-05 -9.21114e-05 0)
(1.7887e-05 -8.22687e-05 0)
(1.06656e-05 -5.36127e-05 0)
(-9.15594e-06 -9.7484e-06 0)
(-4.43022e-05 4.62104e-05 0)
(-9.70262e-05 0.000111609 0)
(-0.00016914 0.000184202 0)
(-0.000262062 0.000262095 0)
(-0.000376865 0.000343705 0)
(-0.000514312 0.000427706 0)
(-0.000674892 0.000512995 0)
(-0.00085886 0.000598653 0)
(-0.00106626 0.000683913 0)
(-0.00129696 0.00076814 0)
(-0.00155066 0.000850802 0)
(-0.00182694 0.000931461 0)
(-0.00212527 0.00100975 0)
(-0.002445 0.00108537 0)
(-0.00278542 0.00115808 0)
(-0.00314573 0.00122766 0)
(-0.00352509 0.00129395 0)
(-0.0039226 0.00135682 0)
(-0.00433731 0.00141617 0)
(-0.00476825 0.00147191 0)
(-0.00521443 0.00152398 0)
(-0.00567482 0.00157235 0)
(-0.00614838 0.00161697 0)
(-0.00663408 0.00165784 0)
(-0.00713084 0.00169495 0)
(-0.00763762 0.00172831 0)
(-0.00815335 0.00175794 0)
(-0.00867697 0.00178386 0)
(-0.00920743 0.0018061 0)
(-0.00974369 0.0018247 0)
(-0.0102847 0.0018397 0)
(-0.0108294 0.00185114 0)
(-0.0113769 0.00185907 0)
(-0.011926 0.00186356 0)
(-0.0124758 0.00186465 0)
(-0.0130254 0.00186241 0)
(-0.0135738 0.00185691 0)
(-0.01412 0.00184819 0)
(-0.014663 0.00183634 0)
(-0.0152021 0.00182143 0)
(-0.0157364 0.00180351 0)
(-0.0162648 0.00178267 0)
(-0.0167867 0.00175897 0)
(-0.0173011 0.0017325 0)
(-0.0178074 0.00170332 0)
(-0.0183046 0.00167151 0)
(-0.018792 0.00163716 0)
(-0.019269 0.00160033 0)
(-0.0197347 0.0015611 0)
(-0.0201885 0.00151956 0)
(-0.0206297 0.00147579 0)
(-0.0210577 0.00142986 0)
(-0.0214718 0.00138185 0)
(-0.0218715 0.00133185 0)
(-0.0222561 0.00127994 0)
(-0.0226252 0.0012262 0)
(-0.0229781 0.00117071 0)
(-0.0233145 0.00111356 0)
(-0.0236337 0.00105483 0)
(-0.0239355 0.00099461 0)
(-0.0242192 0.000932978 0)
(-0.0244846 0.000870022 0)
(-0.0247312 0.000805829 0)
(-0.0249587 0.000740486 0)
(-0.0251668 0.00067408 0)
(-0.0253552 0.0006067 0)
(-0.0255236 0.000538435 0)
(-0.0256717 0.000469373 0)
(-0.0257994 0.000399606 0)
(-0.0259064 0.000329225 0)
(-0.0259926 0.000258322 0)
(-0.0260579 0.000186988 0)
(-0.026102 0.000115318 0)
(-0.0261251 4.34048e-05 0)
(-0.0261269 -2.86558e-05 0)
(-0.0261074 -0.000100769 0)
(-0.0260668 -0.000172837 0)
(-0.0260049 -0.000244765 0)
(-0.0259219 -0.000316453 0)