0.05 	0.0003125 	0.005 	0.0326083
0.05 	0.0009375 	0.005 	0.0326511
0.05 	0.0015625 	0.005 	0.0326859
0.05 	0.0021875 	0.005 	0.0327152
0.05 	0.0028125 	0.005 	0.0327421
0.05 	0.0034375 	0.005 	0.0327664
0.05 	0.0040625 	0.005 	0.0327878
0.05 	0.0046875 	0.005 	0.0328063
0.05 	0.0053125 	0.005 	0.0328217
0.05 	0.0059375 	0.005 	0.0328341
0.05 	0.0065625 	0.005 	0.0328431
0.05 	0.0071875 	0.005 	0.0328488
0.05 	0.0078125 	0.005 	0.0328508
0.05 	0.0084375 	0.005 	0.032849
0.05 	0.0090625 	0.005 	0.0328432
0.05 	0.0096875 	0.005 	0.0328332
0.05 	0.0103125 	0.005 	0.0328187
0.05 	0.0109375 	0.005 	0.0327995
0.05 	0.0115625 	0.005 	0.0327753
0.05 	0.0121875 	0.005 	0.0327459
0.05 	0.0128125 	0.005 	0.0327109
0.05 	0.0134375 	0.005 	0.03267
0.05 	0.0140625 	0.005 	0.032623
0.05 	0.0146875 	0.005 	0.0325694
0.05 	0.0153125 	0.005 	0.032509
0.05 	0.0159375 	0.005 	0.0324413
0.05 	0.0165625 	0.005 	0.0323661
0.05 	0.0171875 	0.005 	0.0322828
0.05 	0.0178125 	0.005 	0.0321912
0.05 	0.0184375 	0.005 	0.0320908
0.05 	0.0190625 	0.005 	0.0319812
0.05 	0.0196875 	0.005 	0.0318618
0.05 	0.0203125 	0.005 	0.0317324
0.05 	0.0209375 	0.005 	0.0315923
0.05 	0.0215625 	0.005 	0.0314411
0.05 	0.0221875 	0.005 	0.0312782
0.05 	0.0228125 	0.005 	0.0311032
0.05 	0.0234375 	0.005 	0.0309156
0.05 	0.0240625 	0.005 	0.0307146
0.05 	0.0246875 	0.005 	0.0304998
0.05 	0.0253125 	0.005 	0.0302706
0.05 	0.0259375 	0.005 	0.0300264
0.05 	0.0265625 	0.005 	0.0297665
0.05 	0.0271875 	0.005 	0.0294903
0.05 	0.0278125 	0.005 	0.0291971
0.05 	0.0284375 	0.005 	0.0288863
0.05 	0.0290625 	0.005 	0.0285572
0.05 	0.0296875 	0.005 	0.028209
0.05 	0.0303125 	0.005 	0.0278411
0.05 	0.0309375 	0.005 	0.0274528
0.05 	0.0315625 	0.005 	0.0270432
0.05 	0.0321875 	0.005 	0.0266117
0.05 	0.0328125 	0.005 	0.0261575
0.05 	0.0334375 	0.005 	0.0256797
0.05 	0.0340625 	0.005 	0.0251777
0.05 	0.0346875 	0.005 	0.0246505
0.05 	0.0353125 	0.005 	0.0240975
0.05 	0.0359375 	0.005 	0.0235179
0.05 	0.0365625 	0.005 	0.0229107
0.05 	0.0371875 	0.005 	0.0222754
0.05 	0.0378125 	0.005 	0.0216109
0.05 	0.0384375 	0.005 	0.0209167
0.05 	0.0390625 	0.005 	0.0201918
0.05 	0.0396875 	0.005 	0.0194356
0.05 	0.0403125 	0.005 	0.0186473
0.05 	0.0409375 	0.005 	0.0178261
0.05 	0.0415625 	0.005 	0.0169715
0.05 	0.0421875 	0.005 	0.0160826
0.05 	0.0428125 	0.005 	0.0151589
0.05 	0.0434375 	0.005 	0.0141997
0.05 	0.0440625 	0.005 	0.0132045
0.05 	0.0446875 	0.005 	0.0121727
0.05 	0.0453125 	0.005 	0.011104
0.05 	0.0459375 	0.005 	0.00999775
0.05 	0.0465625 	0.005 	0.0088538
0.05 	0.0471875 	0.005 	0.00767181
0.05 	0.0478125 	0.005 	0.00645159
0.05 	0.0484375 	0.005 	0.00519298
0.05 	0.0490625 	0.005 	0.00389596
0.05 	0.0496875 	0.005 	0.00256058
0.05 	0.0503125 	0.005 	0.00118701
0.05 	0.0509375 	0.005 	-0.000224461
0.05 	0.0515625 	0.005 	-0.00167346
0.05 	0.0521875 	0.005 	-0.00315949
0.05 	0.0528125 	0.005 	-0.00468192
0.05 	0.0534375 	0.005 	-0.00623998
0.05 	0.0540625 	0.005 	-0.00783276
0.05 	0.0546875 	0.005 	-0.00945918
0.05 	0.0553125 	0.005 	-0.011118
0.05 	0.0559375 	0.005 	-0.0128079
0.05 	0.0565625 	0.005 	-0.0145272
0.05 	0.0571875 	0.005 	-0.0162743
0.05 	0.0578125 	0.005 	-0.0180473
0.05 	0.0584375 	0.005 	-0.0198439
0.05 	0.0590625 	0.005 	-0.021662
0.05 	0.0596875 	0.005 	-0.0234991
0.05 	0.0603125 	0.005 	-0.0253526
0.05 	0.0609375 	0.005 	-0.0272194
0.05 	0.0615625 	0.005 	-0.0290966
0.05 	0.0621875 	0.005 	-0.0309809
0.05 	0.0628125 	0.005 	-0.0328688
0.05 	0.0634375 	0.005 	-0.0347567
0.05 	0.0640625 	0.005 	-0.0366407
0.05 	0.0646875 	0.005 	-0.0385168
0.05 	0.0653125 	0.005 	-0.0403808
0.05 	0.0659375 	0.005 	-0.0422283
0.05 	0.0665625 	0.005 	-0.0440548
0.05 	0.0671875 	0.005 	-0.0458558
0.05 	0.0678125 	0.005 	-0.0476263
0.05 	0.0684375 	0.005 	-0.0493615
0.05 	0.0690625 	0.005 	-0.0510564
0.05 	0.0696875 	0.005 	-0.0527061
0.05 	0.0703125 	0.005 	-0.0543054
0.05 	0.0709375 	0.005 	-0.0558493
0.05 	0.0715625 	0.005 	-0.0573326
0.05 	0.0721875 	0.005 	-0.0587504
0.05 	0.0728125 	0.005 	-0.0600978
0.05 	0.0734375 	0.005 	-0.0613699
0.05 	0.0740625 	0.005 	-0.062562
0.05 	0.0746875 	0.005 	-0.0636697
0.05 	0.0753125 	0.005 	-0.0646886
0.05 	0.0759375 	0.005 	-0.0656148
0.05 	0.0765625 	0.005 	-0.0664446
0.05 	0.0771875 	0.005 	-0.0671746
0.05 	0.0778125 	0.005 	-0.0678019
0.05 	0.0784375 	0.005 	-0.068324
0.05 	0.0790625 	0.005 	-0.0687388
0.05 	0.0796875 	0.005 	-0.0690447
0.05 	0.0803125 	0.005 	-0.0692407
0.05 	0.0809375 	0.005 	-0.0693264
0.05 	0.0815625 	0.005 	-0.0693019
0.05 	0.0821875 	0.005 	-0.069168
0.05 	0.0828125 	0.005 	-0.0689262
0.05 	0.0834375 	0.005 	-0.0685786
0.05 	0.0840625 	0.005 	-0.068128
0.05 	0.0846875 	0.005 	-0.0675778
0.05 	0.0853125 	0.005 	-0.0669323
0.05 	0.0859375 	0.005 	-0.0661962
0.05 	0.0865625 	0.005 	-0.0653751
0.05 	0.0871875 	0.005 	-0.0644752
0.05 	0.0878125 	0.005 	-0.0635032
0.05 	0.0884375 	0.005 	-0.0624665
0.05 	0.0890625 	0.005 	-0.0613728
0.05 	0.0896875 	0.005 	-0.0602306
0.05 	0.0903125 	0.005 	-0.0590485
0.05 	0.0909375 	0.005 	-0.0578357
0.05 	0.0915625 	0.005 	-0.0566014
0.05 	0.0921875 	0.005 	-0.055355
0.05 	0.0928125 	0.005 	-0.0541062
0.05 	0.0934375 	0.005 	-0.0528643
0.05 	0.0940625 	0.005 	-0.0516389
0.05 	0.0946875 	0.005 	-0.0504389
0.05 	0.0953125 	0.005 	-0.0492732
0.05 	0.0959375 	0.005 	-0.0481501
0.05 	0.0965625 	0.005 	-0.0470771
0.05 	0.0971875 	0.005 	-0.0460609
0.05 	0.0978125 	0.005 	-0.0451114
0.05 	0.0984375 	0.005 	-0.0442376
0.05 	0.0990625 	0.005 	-0.0433932
0.05 	0.0996875 	0.005 	-0.0425304
