/*--------------------------------*- C++ -*----------------------------------*\
  =========                 |
  \\      /  F ield         | OpenFOAM: The Open Source CFD Toolbox
   \\    /   O peration     | Website:  https://openfoam.org
    \\  /    A nd           | Version:  7
     \\/     M anipulation  |
\*---------------------------------------------------------------------------*/
FoamFile
{
    version     2.0;
    format      ascii;
    class       volScalarField;
    location    "0.2125";
    object      p;
}
// * * * * * * * * * * * * * * * * * * * * * * * * * * * * * * * * * * * * * //

dimensions      [0 2 -2 0 0 0 0];

internalField   nonuniform List<scalar> 
25600
(
3.66727e-06
2.52344e-05
2.83974e-05
5.71604e-06
-4.28867e-05
-0.000115624
-0.000209909
-0.000322728
-0.000451116
-0.00059226
-0.000743559
-0.000902606
-0.00106719
-0.00123533
-0.00140522
-0.00157525
-0.00174395
-0.00190999
-0.00207216
-0.00222941
-0.00238079
-0.00252545
-0.00266263
-0.00279164
-0.00291189
-0.00302282
-0.00312397
-0.00321494
-0.00329533
-0.00336485
-0.00342322
-0.00347022
-0.00350563
-0.0035293
-0.00354108
-0.00354086
-0.00352857
-0.00350417
-0.00346764
-0.00341895
-0.00335811
-0.00328514
-0.00320009
-0.00310303
-0.00299402
-0.00287318
-0.00274057
-0.00259633
-0.00244059
-0.00227348
-0.00209515
-0.00190578
-0.00170552
-0.00149454
-0.00127305
-0.00104124
-0.000799321
-0.000547531
-0.000286097
-1.52598e-05
0.000264717
0.000553561
0.000850995
0.00115673
0.00147048
0.00179192
0.00212072
0.00245656
0.00279908
0.00314794
0.00350276
0.00386315
0.00422871
0.00459905
0.00497373
0.00535232
0.00573438
0.00611946
0.00650709
0.00689679
0.00728805
0.00768037
0.00807324
0.00846617
0.00885862
0.00925003
0.00963987
0.0100276
0.0104126
0.0107944
0.0111724
0.011546
0.0119147
0.0122779
0.012635
0.0129855
0.0133287
0.0136643
0.0139915
0.0143099
0.0146189
0.0149181
0.0152068
0.0154847
0.0157513
0.0160061
0.0162486
0.0164786
0.0166955
0.0168991
0.0170889
0.0172648
0.0174263
0.0175733
0.0177055
0.0178228
0.0179251
0.0180121
0.018084
0.0181406
0.0181819
0.018208
0.0182191
0.0182152
0.0181966
0.0181635
0.0181162
0.0180551
0.0179804
0.0178927
0.0177925
0.0176804
0.0175568
0.0174226
0.0172783
0.0171248
0.0169629
0.0167935
0.0166175
0.0164361
0.0162502
0.0160612
0.0158702
0.0156787
0.015488
0.0152996
0.0151153
0.0149367
0.0147656
0.0146042
0.0144543
0.0143182
0.0141982
0.0140965
0.0140154
0.0139567
0.0139218
0.0139104
0.0139199
0.0139406
-8.94097e-06
1.00162e-05
8.85174e-06
-1.50669e-05
-6.03141e-05
-0.000125903
-0.000210185
-0.000310983
-0.000425937
-0.000552721
-0.000689123
-0.000833036
-0.000982474
-0.00113562
-0.00129079
-0.00144647
-0.00160129
-0.00175397
-0.00190338
-0.00204846
-0.00218829
-0.00232202
-0.00244892
-0.00256831
-0.00267956
-0.00278215
-0.0028756
-0.00295948
-0.00303343
-0.00309711
-0.00315025
-0.00319259
-0.00322393
-0.00324408
-0.0032529
-0.00325025
-0.00323607
-0.00321029
-0.00317287
-0.00312379
-0.00306304
-0.00299062
-0.00290658
-0.00281095
-0.00270382
-0.00258527
-0.00245538
-0.00231427
-0.00216204
-0.00199882
-0.00182478
-0.00164005
-0.00144479
-0.00123917
-0.00102338
-0.000797625
-0.00056209
-0.000317001
-6.2589e-05
0.000200911
0.000473249
0.000754158
0.00104336
0.00134059
0.00164556
0.00195795
0.00227744
0.00260371
0.00293643
0.00327526
0.00361982
0.00396975
0.00432464
0.0046841
0.00504774
0.00541511
0.0057858
0.00615938
0.00653537
0.00691331
0.00729271
0.00767309
0.00805397
0.00843484
0.00881519
0.0091945
0.00957223
0.00994786
0.0103209
0.0106907
0.0110568
0.0114186
0.0117757
0.0121273
0.0124731
0.0128124
0.0131448
0.0134697
0.0137865
0.0140948
0.014394
0.0146836
0.0149633
0.0152325
0.0154907
0.0157376
0.0159727
0.0161957
0.0164061
0.0166037
0.0167881
0.0169591
0.0171163
0.0172596
0.0173887
0.0175035
0.017604
0.0176899
0.0177612
0.0178179
0.0178601
0.0178878
0.0179011
0.0179001
0.0178852
0.0178565
0.0178143
0.0177589
0.0176907
0.0176102
0.0175179
0.0174143
0.0173001
0.0171757
0.017042
0.0168996
0.0167494
0.0165923
0.0164292
0.0162611
0.016089
0.0159142
0.0157378
0.015561
0.0153854
0.0152122
0.015043
0.0148795
0.0147232
0.014576
0.0144397
0.0143162
0.0142073
0.0141149
0.0140406
0.0139858
0.0139511
0.013936
0.0139406
0.0139613
-6.20291e-06
1.50303e-05
1.30485e-05
-1.10003e-05
-5.4011e-05
-0.000115008
-0.000192691
-0.000285296
-0.000390846
-0.000507344
-0.000632853
-0.000765489
-0.000903492
-0.00104518
-0.001189
-0.00133352
-0.00147743
-0.00161954
-0.00175876
-0.00189409
-0.00202461
-0.00214952
-0.00226806
-0.00237958
-0.00248347
-0.0025792
-0.00266629
-0.00274432
-0.00281291
-0.00287174
-0.00292051
-0.00295896
-0.00298688
-0.00300408
-0.0030104
-0.00300571
-0.00298992
-0.00296296
-0.00292479
-0.00287535
-0.00281465
-0.00274268
-0.00265947
-0.00256505
-0.0024595
-0.00234288
-0.00221528
-0.00207679
-0.00192753
-0.00176761
-0.00159719
-0.00141639
-0.00122537
-0.00102429
-0.000813348
-0.000592718
-0.000362597
-0.000123197
0.000125261
0.000382542
0.0006484
0.000922578
0.00120481
0.00149483
0.00179235
0.00209708
0.00240869
0.00272687
0.0030513
0.00338165
0.00371755
0.00405863
0.00440451
0.00475481
0.00510913
0.00546706
0.00582818
0.00619206
0.00655826
0.00692632
0.00729576
0.00766612
0.00803692
0.00840769
0.00877791
0.00914708
0.00951468
0.00988021
0.0102431
0.010603
0.0109592
0.0113112
0.0116585
0.0120005
0.0123369
0.0126669
0.0129902
0.0133062
0.0136144
0.0139142
0.0142053
0.0144871
0.0147592
0.0150211
0.0152724
0.0155128
0.0157417
0.0159589
0.016164
0.0163567
0.0165366
0.0167035
0.0168571
0.0169973
0.0171239
0.0172367
0.0173356
0.0174205
0.0174914
0.0175482
0.0175911
0.01762
0.0176351
0.0176366
0.0176246
0.0175995
0.0175614
0.0175107
0.0174478
0.0173732
0.0172873
0.0171906
0.0170838
0.0169674
0.0168422
0.0167088
0.016568
0.0164208
0.0162679
0.0161105
0.0159494
0.0157858
0.0156209
0.0154558
0.0152919
0.0151305
0.014973
0.014821
0.0146759
0.0145393
0.014413
0.0142985
0.0141976
0.0141116
0.0140421
0.0139902
0.0139563
0.0139405
0.0139451
0.0139708
2.05591e-05
4.21079e-05
3.9334e-05
1.49288e-05
-2.70654e-05
-8.54847e-05
-0.000159091
-0.000246279
-0.000345337
-0.000454491
-0.00057199
-0.000696156
-0.000825377
-0.000958126
-0.00109297
-0.00122857
-0.00136368
-0.00149718
-0.00162802
-0.00175526
-0.00187802
-0.00199552
-0.00210702
-0.00221187
-0.0023095
-0.00239937
-0.00248101
-0.00255399
-0.00261796
-0.00267258
-0.00271755
-0.00275262
-0.00277755
-0.00279215
-0.00279626
-0.00278976
-0.00277256
-0.00274456
-0.0027057
-0.00265595
-0.00259528
-0.0025237
-0.00244121
-0.00234786
-0.0022437
-0.00212879
-0.00200321
-0.00186706
-0.00172044
-0.00156345
-0.00139625
-0.00121895
-0.00103171
-0.000834676
-0.000628045
-0.000411988
-0.000186688
4.76455e-05
0.000290793
0.000542529
0.000802614
0.0010708
0.00134682
0.00163042
0.00192133
0.00221924
0.00252384
0.00283483
0.0031519
0.00347473
0.00380295
0.00413619
0.00447409
0.00481627
0.00516235
0.00551193
0.0058646
0.00621993
0.00657749
0.00693683
0.0072975
0.00765904
0.00802098
0.00838285
0.00874417
0.00910445
0.00946317
0.00981985
0.010174
0.010525
0.0108725
0.011216
0.0115548
0.0118885
0.0122166
0.0125385
0.0128539
0.0131622
0.0134628
0.0137553
0.0140393
0.0143143
0.0145798
0.0148354
0.0150808
0.0153155
0.0155391
0.0157513
0.0159517
0.0161401
0.0163161
0.0164795
0.0166301
0.0167676
0.016892
0.017003
0.0171006
0.0171846
0.0172551
0.017312
0.0173554
0.0173853
0.017402
0.0174055
0.017396
0.0173738
0.0173392
0.0172925
0.017234
0.0171643
0.0170838
0.016993
0.0168924
0.0167827
0.0166646
0.0165387
0.0164058
0.0162667
0.0161224
0.0159737
0.0158217
0.0156673
0.0155117
0.0153561
0.0152016
0.0150496
0.0149013
0.0147582
0.0146217
0.0144932
0.0143743
0.0142665
0.0141712
0.0140897
0.0140234
0.0139734
0.0139403
0.0139246
0.0139301
0.0139596
7.19902e-05
8.99342e-05
8.44429e-05
5.85283e-05
1.63088e-05
-4.09551e-05
-0.000112019
-0.00019541
-0.000289585
-0.00039298
-0.000504031
-0.000621211
-0.000743051
-0.000868157
-0.000995219
-0.001123
-0.00125033
-0.00137616
-0.00149948
-0.00161941
-0.00173511
-0.00184583
-0.00195086
-0.00204956
-0.00214138
-0.0022258
-0.00230235
-0.00237062
-0.00243025
-0.0024809
-0.00252229
-0.00255415
-0.00257624
-0.00258838
-0.00259041
-0.00258219
-0.00256362
-0.00253462
-0.00249512
-0.00244506
-0.00238444
-0.00231322
-0.00223144
-0.00213912
-0.0020363
-0.00192305
-0.00179943
-0.00166553
-0.00152146
-0.00136732
-0.00120323
-0.00102932
-0.000845732
-0.000652626
-0.000450175
-0.000238548
-1.79208e-05
0.000211505
0.000449509
0.000695868
0.000950357
0.00121274
0.00148275
0.00176014
0.00204464
0.00233596
0.00263379
0.00293784
0.00324781
0.00356338
0.00388418
0.00420987
0.00454007
0.00487444
0.0052126
0.00555415
0.00589869
0.00624579
0.00659505
0.00694604
0.0072983
0.00765138
0.00800483
0.0083582
0.00871101
0.00906278
0.00941302
0.00976123
0.0101069
0.0104497
0.0107889
0.0111241
0.0114548
0.0117806
0.0121008
0.0124151
0.012723
0.0130239
0.0133174
0.013603
0.0138803
0.0141488
0.0144081
0.0146577
0.0148974
0.0151267
0.0153453
0.0155528
0.0157488
0.0159331
0.0161055
0.0162656
0.0164133
0.0165483
0.0166705
0.0167798
0.0168761
0.0169593
0.0170294
0.0170863
0.0171302
0.0171611
0.0171791
0.0171844
0.0171773
0.0171578
0.0171264
0.0170833
0.017029
0.0169638
0.0168882
0.0168027
0.0167079
0.0166043
0.0164927
0.0163736
0.0162478
0.0161162
0.0159795
0.0158388
0.0156948
0.0155487
0.0154014
0.0152541
0.015108
0.0149641
0.0148238
0.0146884
0.0145591
0.0144374
0.0143246
0.014222
0.0141311
0.0140529
0.0139889
0.01394
0.013907
0.0138907
0.0138955
0.013925
0.000147039
0.000157833
0.000147496
0.00011862
7.47935e-05
1.72931e-05
-5.2694e-05
-0.000133784
-0.000224584
-0.000323701
-0.000429736
-0.000541317
-0.000657111
-0.000775835
-0.000896285
-0.00101733
-0.00113789
-0.00125698
-0.00137365
-0.00148707
-0.00159644
-0.00170103
-0.00180018
-0.00189328
-0.00197979
-0.00205919
-0.00213105
-0.00219496
-0.00225056
-0.00229753
-0.00233557
-0.00236442
-0.00238386
-0.00239369
-0.00239375
-0.00238392
-0.00236407
-0.00233413
-0.00229401
-0.00224368
-0.0021831
-0.00211225
-0.00203115
-0.00193982
-0.0018383
-0.00172664
-0.00160491
-0.00147319
-0.00133157
-0.00118016
-0.00101908
-0.000848434
-0.00066837
-0.000479047
-0.000280626
-7.32644e-05
0.000142864
0.000367557
0.000600603
0.000841788
0.00109089
0.00134768
0.00161192
0.00188334
0.00216168
0.00244666
0.00273799
0.00303538
0.00333854
0.00364714
0.00396083
0.00427927
0.00460212
0.00492901
0.00525959
0.00559346
0.00593023
0.00626949
0.00661084
0.00695386
0.0072981
0.00764313
0.0079885
0.00833378
0.00867851
0.0090222
0.00936438
0.00970458
0.0100423
0.0103771
0.0107085
0.011036
0.0113591
0.0116773
0.0119902
0.0122972
0.012598
0.0128919
0.0131787
0.0134578
0.0137287
0.0139911
0.0142446
0.0144887
0.0147231
0.0149473
0.0151612
0.0153642
0.0155561
0.0157366
0.0159055
0.0160625
0.0162074
0.0163401
0.0164603
0.016568
0.0166631
0.0167455
0.0168151
0.0168721
0.0169163
0.0169481
0.0169673
0.0169743
0.0169692
0.0169523
0.0169237
0.016884
0.0168333
0.0167722
0.0167011
0.0166205
0.0165309
0.0164328
0.016327
0.0162141
0.0160947
0.0159697
0.0158399
0.0157062
0.0155694
0.0154306
0.0152906
0.0151505
0.0150115
0.0148747
0.0147412
0.0146122
0.0144889
0.0143727
0.0142646
0.0141661
0.0140783
0.0140023
0.0139394
0.0138906
0.0138567
0.0138387
0.013841
0.0138669
0.000243476
0.000244387
0.000227304
0.000193992
0.000147177
8.80592e-05
1.7772e-05
-6.24328e-05
-0.000151288
-0.000247538
-0.000349932
-0.00045724
-0.000568263
-0.000681833
-0.00079684
-0.00091224
-0.00102705
-0.00114033
-0.00125124
-0.00135896
-0.00146274
-0.00156189
-0.0016558
-0.00174388
-0.00182559
-0.00190045
-0.00196805
-0.00202798
-0.00207989
-0.00212348
-0.00215844
-0.00218452
-0.0022015
-0.00220919
-0.00220744
-0.00219611
-0.00217508
-0.00214427
-0.0021036
-0.00205302
-0.0019925
-0.00192202
-0.00184158
-0.0017512
-0.00165093
-0.00154079
-0.00142087
-0.00129124
-0.00115198
-0.00100318
-0.000844965
-0.000677447
-0.00050076
-0.000315053
-0.000120482
8.27995e-05
0.000294623
0.000514792
0.000743099
0.000979337
0.0012233
0.00147476
0.00173348
0.0019992
0.00227166
0.00255061
0.00283574
0.00312679
0.00342346
0.00372543
0.00403236
0.00434393
0.00465978
0.00497958
0.00530297
0.00562956
0.00595897
0.00629081
0.00662468
0.00696015
0.00729682
0.00763425
0.00797201
0.00830966
0.00864677
0.00898286
0.00931746
0.00965012
0.00998037
0.0103078
0.0106318
0.010952
0.0112679
0.0115791
0.011885
0.0121853
0.0124794
0.012767
0.0130474
0.0133204
0.0135855
0.0138422
0.0140902
0.0143291
0.0145586
0.0147781
0.0149875
0.0151864
0.0153745
0.0155515
0.0157172
0.0158713
0.0160136
0.0161441
0.0162625
0.0163686
0.0164625
0.0165441
0.0166134
0.0166703
0.0167149
0.0167473
0.0167677
0.0167761
0.0167729
0.0167581
0.0167322
0.0166954
0.0166481
0.0165906
0.0165235
0.0164472
0.0163622
0.0162691
0.0161684
0.0160609
0.0159472
0.0158281
0.0157043
0.0155767
0.0154461
0.0153135
0.0151798
0.0150459
0.014913
0.014782
0.014654
0.0145302
0.0144117
0.0142997
0.0141952
0.0140995
0.0140136
0.0139387
0.0138758
0.013826
0.0137901
0.0137692
0.0137671
0.0137866
0.000358614
0.000347579
0.000322164
0.000283106
0.000232006
0.000170008
9.81657e-05
1.75906e-05
-7.05896e-05
-0.000165244
-0.000265245
-0.000369486
-0.000476894
-0.000586417
-0.000697046
-0.000807814
-0.000917815
-0.0010262
-0.00113215
-0.00123494
-0.00133384
-0.00142823
-0.0015175
-0.00160109
-0.00167851
-0.0017493
-0.00181305
-0.00186938
-0.00191794
-0.00195844
-0.00199059
-0.00201413
-0.00202886
-0.00203459
-0.00203117
-0.00201847
-0.00199636
-0.00196476
-0.00192359
-0.0018728
-0.00181236
-0.00174224
-0.00166245
-0.00157301
-0.00147393
-0.00136526
-0.00124708
-0.00111945
-0.000982441
-0.000836148
-0.00068068
-0.000516152
-0.000342694
-0.000160448
3.04427e-05
0.000229827
0.000437537
0.000653377
0.000877153
0.00110867
0.00134773
0.0015941
0.00184755
0.00210784
0.00237471
0.0026479
0.00292715
0.00321216
0.00350265
0.00379832
0.00409884
0.00440388
0.0047131
0.00502617
0.00534275
0.00566245
0.0059849
0.00630972
0.00663651
0.00696488
0.0072944
0.00762467
0.00795525
0.00828573
0.00861567
0.00894461
0.00927209
0.00959767
0.0099209
0.0102413
0.0105585
0.0108719
0.0111811
0.0114857
0.0117852
0.0120791
0.0123671
0.0126486
0.0129232
0.0131905
0.0134501
0.0137016
0.0139445
0.0141786
0.0144034
0.0146187
0.014824
0.015019
0.0152035
0.0153772
0.0155399
0.0156914
0.0158313
0.0159597
0.0160763
0.0161811
0.0162739
0.0163547
0.0164235
0.0164804
0.0165252
0.0165583
0.0165796
0.0165893
0.0165877
0.0165749
0.0165513
0.0165171
0.0164727
0.0164185
0.0163549
0.0162824
0.0162015
0.0161127
0.0160166
0.0159138
0.015805
0.015691
0.0155724
0.0154501
0.0153248
0.0151975
0.0150691
0.0149404
0.0148124
0.0146862
0.0145627
0.014443
0.0143281
0.0142191
0.0141171
0.014023
0.013938
0.013863
0.0137991
0.0137472
0.0137082
0.0136831
0.013675
0.013686
0.000489703
0.000465248
0.000430245
0.000384312
0.000327809
0.000261797
0.000187274
0.000105208
1.65849e-05
-7.75913e-05
-0.000176314
-0.000278583
-0.000383435
-0.000489924
-0.000597139
-0.000704199
-0.000810271
-0.000914573
-0.00101636
-0.00111493
-0.00120963
-0.00129987
-0.00138507
-0.00146471
-0.00153833
-0.00160549
-0.00166579
-0.00171888
-0.00176442
-0.00180213
-0.00183172
-0.00185295
-0.00186564
-0.00186959
-0.00186465
-0.00185069
-0.00182761
-0.0017953
-0.00175369
-0.00170274
-0.0016424
-0.00157266
-0.00149351
-0.00140497
-0.00130706
-0.00119981
-0.0010833
-0.000957588
-0.000822741
-0.000678844
-0.000526008
-0.000364348
-0.000193982
-1.504e-05
0.000172335
0.000367991
0.000571764
0.000783473
0.00100293
0.00122994
0.00146432
0.00170584
0.00195427
0.00220938
0.00247093
0.00273865
0.00301228
0.00329156
0.00357619
0.00386588
0.00416031
0.00445915
0.00476209
0.00506879
0.00537893
0.00569212
0.006008
0.00632618
0.0066463
0.00696796
0.00729076
0.00761428
0.00793812
0.00826186
0.00858506
0.00890729
0.0092281
0.00954705
0.00986372
0.0101776
0.0104884
0.0107954
0.0110984
0.0113968
0.0116903
0.0119784
0.0122606
0.0125365
0.0128057
0.0130677
0.0133222
0.0135688
0.013807
0.0140366
0.0142572
0.0144684
0.0146699
0.0148614
0.0150426
0.0152133
0.0153732
0.0155222
0.0156599
0.0157864
0.0159014
0.0160048
0.0160966
0.0161766
0.016245
0.0163017
0.0163468
0.0163804
0.0164025
0.0164133
0.0164131
0.0164021
0.0163804
0.0163485
0.0163067
0.0162553
0.0161948
0.0161256
0.0160483
0.0159632
0.0158711
0.0157724
0.0156679
0.0155582
0.0154441
0.0153262
0.0152055
0.0150826
0.0149585
0.0148341
0.0147101
0.0145876
0.0144676
0.0143509
0.0142386
0.0141316
0.014031
0.0139375
0.0138524
0.0137763
0.0137104
0.0136554
0.0136123
0.0135818
0.0135664
0.013567
0.000634164
0.000595254
0.000549687
0.000495955
0.000433109
0.00036211
0.000283911
0.000199349
0.000109284
1.45931e-05
-8.38376e-05
-0.000185116
-0.00028837
-0.000392755
-0.000497444
-0.000601646
-0.000704606
-0.000805596
-0.000903927
-0.000998965
-0.00109011
-0.00117678
-0.00125846
-0.00133466
-0.00140494
-0.00146889
-0.00152614
-0.00157635
-0.00161919
-0.00165438
-0.00168167
-0.00170084
-0.00171168
-0.00171402
-0.00170772
-0.00169264
-0.00166868
-0.00163575
-0.00159378
-0.00154271
-0.00148251
-0.00141315
-0.00133464
-0.00124698
-0.00115019
-0.00104432
-0.000929426
-0.000805554
-0.000672777
-0.000531181
-0.000380871
-0.000221952
-5.45371e-05
0.000121245
0.000305256
0.000497349
0.000697369
0.000905139
0.00112047
0.00134319
0.00157311
0.00181001
0.00205367
0.00230385
0.00256033
0.00282286
0.00309117
0.003365
0.00364407
0.00392809
0.00421675
0.00450973
0.00480672
0.00510741
0.00541146
0.00571851
0.00602818
0.00634012
0.00665396
0.00696931
0.00728578
0.00760298
0.00792048
0.0082379
0.00855479
0.00887074
0.00918531
0.00949808
0.00980861
0.0101165
0.0104212
0.0107224
0.0110195
0.0113123
0.0116001
0.0118827
0.0121596
0.0124303
0.0126944
0.0129516
0.0132014
0.0134434
0.0136774
0.0139029
0.0141195
0.014327
0.014525
0.0147132
0.0148914
0.0150593
0.0152166
0.0153633
0.015499
0.0156237
0.0157371
0.0158393
0.0159301
0.0160095
0.0160774
0.016134
0.0161792
0.0162131
0.0162359
0.0162477
0.0162487
0.0162391
0.0162192
0.0161893
0.0161497
0.0161008
0.0160429
0.0159766
0.0159023
0.0158205
0.0157317
0.0156366
0.0155356
0.0154296
0.0153192
0.0152051
0.015088
0.0149688
0.0148482
0.0147271
0.0146063
0.0144866
0.0143691
0.0142545
0.0141438
0.0140378
0.0139375
0.0138438
0.0137575
0.0136795
0.0136106
0.0135516
0.0135034
0.0134668
0.0134429
0.013432
0.000789595
0.000735544
0.000678685
0.000616414
0.000546435
0.000469634
0.000386909
0.000298975
0.000206574
0.000110478
1.14579e-05
-8.97043e-05
-0.000192224
-0.000295345
-0.000398329
-0.000500457
-0.000601047
-0.000699437
-0.000794997
-0.000887139
-0.000975312
-0.00105898
-0.00113766
-0.0012109
-0.00127829
-0.00133945
-0.00139402
-0.00144168
-0.00148212
-0.00151509
-0.00154034
-0.00155766
-0.00156685
-0.00156776
-0.00156025
-0.00154418
-0.00151946
-0.00148599
-0.00144372
-0.00139258
-0.00133256
-0.00126361
-0.00118573
-0.00109894
-0.00100325
-0.000898713
-0.000785365
-0.000663265
-0.00053248
-0.000393091
-0.000245197
-8.89011e-05
7.56908e-05
0.000248455
0.000429255
0.000617952
0.00081439
0.0010184
0.00122981
0.00144845
0.00167413
0.00190663
0.00214575
0.00239125
0.00264292
0.00290052
0.00316379
0.00343246
0.00370626
0.00398492
0.00426812
0.00455556
0.00484695
0.00514197
0.00544028
0.00574154
0.00604538
0.00635144
0.00665938
0.00696882
0.00727937
0.00759063
0.00790221
0.0082137
0.00852471
0.0088348
0.00914356
0.00945057
0.00975539
0.0100576
0.0103568
0.0106524
0.0109442
0.0112317
0.0115144
0.0117919
0.0120639
0.0123298
0.0125893
0.0128419
0.0130874
0.0133253
0.0135553
0.0137769
0.01399
0.014194
0.0143888
0.014574
0.0147494
0.0149147
0.0150697
0.0152143
0.0153481
0.0154711
0.0155832
0.0156842
0.015774
0.0158528
0.0159203
0.0159767
0.016022
0.0160562
0.0160795
0.0160921
0.0160941
0.0160858
0.0160674
0.0160391
0.0160014
0.0159546
0.015899
0.0158351
0.0157634
0.0156843
0.0155983
0.0155061
0.0154082
0.0153052
0.0151978
0.0150867
0.0149726
0.0148562
0.0147383
0.0146197
0.0145011
0.0143835
0.0142675
0.0141541
0.0140441
0.0139383
0.0138376
0.0137427
0.0136544
0.0135735
0.0135009
0.0134371
0.013383
0.0133393
0.0133061
0.0132828
0.000953775
0.000884176
0.000815524
0.000744118
0.000666361
0.00058307
0.000495103
0.000403047
0.000307535
0.000209241
0.000108842
7.01463e-06
-9.55476e-05
-0.000198164
-0.000300185
-0.000400963
-0.000499868
-0.000596311
-0.000689732
-0.000779576
-0.000865333
-0.000946521
-0.00102269
-0.00109344
-0.00115837
-0.00121712
-0.00126937
-0.00131481
-0.00135316
-0.00138418
-0.00140764
-0.00142332
-0.00143107
-0.00143072
-0.00142214
-0.00140521
-0.00137983
-0.00134592
-0.00130342
-0.00125228
-0.00119245
-0.00112393
-0.00104669
-0.000960759
-0.000866151
-0.0007629
-0.000651053
-0.000530661
-0.000401788
-0.000264514
-0.000118937
3.48492e-05
0.000196745
0.00036663
0.00054437
0.000729823
0.000922847
0.00112328
0.00133096
0.00154572
0.00176737
0.0019957
0.0022305
0.00247157
0.00271869
0.00297162
0.00323011
0.0034939
0.00376273
0.00403631
0.00431437
0.0045966
0.00488271
0.00517238
0.00546531
0.00576112
0.00605948
0.00636004
0.00666246
0.00696636
0.00727137
0.00757709
0.00788314
0.00818912
0.00849464
0.00879929
0.00910265
0.00940431
0.00970384
0.0100008
0.0102948
0.0105854
0.0108723
0.0111548
0.0114328
0.0117057
0.0119731
0.0122346
0.0124898
0.0127384
0.0129799
0.013214
0.0134403
0.0136585
0.0138682
0.0140691
0.014261
0.0144434
0.0146163
0.0147793
0.0149322
0.0150748
0.0152069
0.0153284
0.0154391
0.015539
0.015628
0.0157061
0.0157732
0.0158294
0.0158747
0.0159092
0.0159329
0.0159461
0.015949
0.0159417
0.0159245
0.0158977
0.0158615
0.0158164
0.0157627
0.0157008
0.0156312
0.0155544
0.0154707
0.0153808
0.0152853
0.0151847
0.0150797
0.014971
0.0148591
0.0147449
0.0146289
0.0145121
0.014395
0.0142785
0.0141634
0.0140504
0.0139402
0.0138338
0.0137317
0.0136348
0.0135438
0.0134594
0.0133822
0.0133129
0.0132522
0.0132009
0.0131578
0.0131215
0.00112469
0.00103934
0.000958553
0.000877578
0.00079153
0.000701175
0.000607351
0.000510535
0.000411244
0.000310059
0.000207576
0.000104389
1.09205e-06
-0.000101716
-0.000203443
-0.000303514
-0.000401374
-0.000496486
-0.000588339
-0.000676432
-0.000760294
-0.000839497
-0.00091363
-0.000982308
-0.00104518
-0.0011019
-0.00115217
-0.00119571
-0.00123226
-0.00126159
-0.00128349
-0.00129777
-0.00130426
-0.00130282
-0.00129333
-0.00127566
-0.00124974
-0.00121548
-0.00117282
-0.00112172
-0.00106214
-0.000994056
-0.000917468
-0.000832388
-0.000738836
-0.00063684
-0.000526441
-0.000407692
-0.000280659
-0.000145419
-2.06071e-06
0.00014933
0.000308653
0.00047579
0.000650607
0.00083297
0.00102275
0.00121978
0.00142392
0.00163499
0.00185281
0.00207719
0.00230791
0.00254478
0.0027876
0.00303612
0.00329009
0.00354927
0.0038134
0.00408221
0.00435543
0.00463275
0.0049139
0.00519857
0.00548643
0.00577714
0.00607038
0.0063658
0.00666306
0.0069618
0.00726164
0.00756221
0.00786311
0.00816398
0.00846441
0.00876402
0.00906239
0.00935909
0.00965373
0.00994589
0.0102352
0.0105211
0.0108034
0.0110815
0.0113551
0.0116237
0.011887
0.0121445
0.0123958
0.0126406
0.0128785
0.0131091
0.0133321
0.0135471
0.0137539
0.013952
0.0141411
0.0143211
0.0144917
0.0146525
0.0148035
0.0149443
0.0150749
0.015195
0.0153045
0.0154034
0.0154917
0.0155691
0.0156358
0.0156918
0.015737
0.0157716
0.0157957
0.0158094
0.0158129
0.0158065
0.0157903
0.0157646
0.0157297
0.015686
0.0156338
0.0155736
0.0155057
0.0154306
0.0153487
0.0152607
0.0151671
0.0150683
0.0149651
0.0148581
0.0147478
0.014635
0.0145203
0.0144045
0.0142882
0.0141721
0.014057
0.0139436
0.0138326
0.0137248
0.0136207
0.0135211
0.0134266
0.013338
0.0132556
0.0131802
0.0131123
0.0130528
0.0129994
0.0129497
0.00130052
0.00119935
0.00110623
0.00101537
0.000920637
0.000822753
0.000722559
0.000620431
0.000516787
0.000412117
0.000306936
0.000201758
9.71042e-05
-6.506e-06
-0.000108549
-0.00020851
-0.000305901
-0.00040024
-0.000491057
-0.000577904
-0.000660362
-0.000738042
-0.000810569
-0.000877586
-0.000938767
-0.000993813
-0.00104244
-0.00108438
-0.00111941
-0.0011473
-0.00116788
-0.00118096
-0.00118638
-0.00118403
-0.00117376
-0.00115549
-0.00112913
-0.00109461
-0.00105187
-0.00100086
-0.000941562
-0.000873948
-0.000798021
-0.000713792
-0.000621275
-0.000520497
-0.000411499
-0.00029434
-0.000169081
-3.57915e-05
0.000105447
0.00025455
0.000411416
0.000575928
0.000747959
0.000927385
0.00111408
0.00130789
0.00150867
0.00171625
0.00193044
0.00215107
0.00237793
0.00261084
0.00284959
0.00309395
0.00334367
0.00359851
0.00385822
0.00412254
0.00439121
0.00466394
0.00494044
0.00522041
0.00550353
0.00578949
0.00607795
0.00636858
0.00666104
0.00695498
0.00725003
0.00754581
0.00784195
0.00813809
0.00843383
0.00872879
0.00902255
0.0093147
0.00960485
0.00989259
0.0101775
0.0104592
0.0107373
0.0110113
0.0112809
0.0115457
0.0118052
0.012059
0.0123068
0.0125482
0.0127829
0.0130104
0.0132304
0.0134426
0.0136466
0.0138421
0.0140289
0.0142067
0.0143751
0.0145341
0.0146833
0.0148226
0.0149517
0.0150706
0.015179
0.0152771
0.0153645
0.0154414
0.0155077
0.0155634
0.0156086
0.0156432
0.0156675
0.0156816
0.0156856
0.0156798
0.0156644
0.0156396
0.0156057
0.0155631
0.0155121
0.0154531
0.0153865
0.0153127
0.0152323
0.0151456
0.0150533
0.0149559
0.0148539
0.014748
0.0146387
0.0145267
0.0144126
0.0142971
0.0141809
0.0140646
0.0139489
0.0138344
0.0137219
0.0136119
0.0135051
0.0134022
0.0133037
0.0132101
0.0131221
0.01304
0.0129646
0.0128965
0.0128324
0.012769
0.00147966
0.00136268
0.00125711
0.00115615
0.00105243
0.000946661
0.000839671
0.000731767
0.000623276
0.000514602
0.000406187
0.000298467
0.000191897
8.69369e-05
-1.59658e-05
-0.000116362
-0.000213811
-0.00030788
-0.000398148
-0.000484224
-0.000565737
-0.000642322
-0.000713641
-0.000779379
-0.000839236
-0.000892935
-0.00094022
-0.000980856
-0.00101463
-0.00104134
-0.00106081
-0.00107289
-0.00107744
-0.00107432
-0.00106343
-0.00104467
-0.00101798
-0.000983288
-0.000940537
-0.000889684
-0.000830706
-0.000763591
-0.000688338
-0.000604954
-0.000513452
-0.000413861
-0.000306228
-0.000190607
-6.70537e-05
6.43681e-05
0.00020358
0.000350496
0.000505016
0.000667025
0.000836406
0.00101304
0.00119681
0.00138757
0.00158516
0.00178943
0.0020002
0.00221729
0.00244051
0.00266969
0.00290461
0.00314505
0.00339077
0.00364152
0.00389709
0.00415721
0.00442162
0.00469005
0.0049622
0.00523779
0.0055165
0.00579803
0.00608205
0.00636823
0.00665624
0.00694574
0.00723635
0.00752772
0.00781947
0.00811126
0.00840269
0.00869338
0.00898292
0.00927091
0.00955696
0.00984067
0.0101216
0.0103995
0.0106738
0.0109441
0.0112101
0.0114714
0.0117275
0.011978
0.0122227
0.012461
0.0126927
0.0129174
0.0131348
0.0133444
0.013546
0.0137393
0.013924
0.0140997
0.0142664
0.0144236
0.0145713
0.0147091
0.014837
0.0149548
0.0150623
0.0151595
0.0152463
0.0153226
0.0153885
0.015444
0.015489
0.0155237
0.0155481
0.0155624
0.0155668
0.0155615
0.0155466
0.0155225
0.0154893
0.0154475
0.0153974
0.0153393
0.0152736
0.0152008
0.0151212
0.0150355
0.014944
0.0148474
0.0147461
0.0146407
0.0145319
0.0144201
0.014306
0.0141903
0.0140735
0.0139563
0.0138393
0.0137232
0.0136084
0.0134958
0.0133857
0.0132789
0.0131757
0.0130768
0.0129826
0.0128934
0.01281
0.012733
0.0126581
0.0125809
0.0016606
0.00152794
0.00140988
0.00129866
0.00118574
0.0010718
0.000957673
0.000843601
0.000729842
0.000616719
0.000504595
0.000393854
0.000284881
0.000178073
7.38142e-05
-2.75023e-05
-0.000125478
-0.000219736
-0.000309913
-0.000395656
-0.000476633
-0.000552521
-0.000623014
-0.000687827
-0.000746693
-0.000799364
-0.000845605
-0.000885206
-0.000917972
-0.000943731
-0.000962322
-0.000973599
-0.000977432
-0.000973707
-0.000962332
-0.000943222
-0.000916307
-0.000881528
-0.000838833
-0.00078819
-0.00072958
-0.000662993
-0.000588424
-0.00050588
-0.000415377
-0.00031695
-0.000210644
-9.65093e-05
2.54053e-05
0.000155038
0.000292311
0.000437136
0.000589418
0.000749046
0.000915909
0.0010899
0.0012709
0.00145877
0.00165335
0.00185448
0.00206202
0.00227577
0.00249558
0.00272124
0.00295257
0.00318932
0.00343128
0.00367822
0.00392991
0.00418611
0.00444655
0.00471096
0.00497907
0.00525058
0.0055252
0.00580262
0.00608253
0.0063646
0.0066485
0.0069339
0.00722044
0.00750775
0.00779549
0.00808329
0.00837078
0.00865757
0.00894327
0.00922748
0.00950981
0.00978987
0.0100673
0.0103416
0.0106125
0.0108796
0.0111423
0.0114005
0.0116535
0.0119012
0.012143
0.0123786
0.0126077
0.01283
0.0130449
0.0132524
0.0134519
0.0136431
0.0138259
0.014
0.014165
0.0143208
0.0144671
0.0146037
0.0147305
0.0148472
0.0149539
0.0150504
0.0151366
0.0152125
0.015278
0.0153332
0.015378
0.0154127
0.0154371
0.0154516
0.0154562
0.0154512
0.0154367
0.015413
0.0153803
0.0153391
0.0152895
0.0152319
0.0151668
0.0150946
0.0150156
0.0149303
0.0148393
0.0147429
0.0146418
0.0145365
0.0144275
0.0143154
0.0142008
0.0140842
0.0139663
0.0138477
0.0137288
0.0136104
0.0134929
0.013377
0.0132631
0.0131518
0.0130435
0.0129388
0.0128379
0.0127413
0.0126496
0.0125635
0.0124776
0.0123866
0.001842
0.00169381
0.00156329
0.00144175
0.00131945
0.00119712
0.00107559
0.000955032
0.000835639
0.00071768
0.000601448
0.000487267
0.000375459
0.000266357
0.000160304
5.76365e-05
-4.12983e-05
-0.000136169
-0.000226666
-0.000312478
-0.000393303
-0.000468857
-0.000538872
-0.000603095
-0.000661286
-0.000713223
-0.000758698
-0.000797523
-0.000829529
-0.00085456
-0.00087247
-0.000883127
-0.000886418
-0.000882243
-0.00087052
-0.000851171
-0.00082413
-0.000789348
-0.000746783
-0.000696409
-0.00063821
-0.000572176
-0.000498301
-0.000416597
-0.000327084
-0.000229797
-0.000124781
-1.20796e-05
0.000108261
0.000236179
0.000371595
0.000514425
0.000664573
0.000821938
0.000986417
0.00115791
0.00133628
0.00152142
0.00171315
0.00191134
0.00211583
0.00232646
0.00254305
0.00276542
0.00299337
0.00322668
0.00346513
0.0037085
0.00395658
0.00420912
0.00446587
0.00472655
0.0049909
0.00525863
0.00552947
0.00580311
0.00607923
0.00635752
0.00663765
0.0069193
0.0072021
0.00748572
0.00776979
0.00805397
0.00833789
0.00862116
0.00890338
0.00918418
0.00946316
0.00973996
0.0100142
0.0102854
0.0105533
0.0108174
0.0110773
0.0113326
0.011583
0.0118281
0.0120674
0.0123007
0.0125276
0.0127476
0.0129606
0.013166
0.0133637
0.0135533
0.0137345
0.013907
0.0140706
0.0142252
0.0143703
0.0145059
0.0146317
0.0147477
0.0148536
0.0149494
0.0150351
0.0151106