/*--------------------------------*- C++ -*----------------------------------*\
  =========                 |
  \\      /  F ield         | OpenFOAM: The Open Source CFD Toolbox
   \\    /   O peration     | Website:  https://openfoam.org
    \\  /    A nd           | Version:  7
     \\/     M anipulation  |
\*---------------------------------------------------------------------------*/
FoamFile
{
    version     2.0;
    format      ascii;
    class       surfaceScalarField;
    location    "0.2125";
    object      phi;
}
// * * * * * * * * * * * * * * * * * * * * * * * * * * * * * * * * * * * * * //

dimensions      [0 3 -1 0 0 0 0];

internalField   nonuniform List<scalar> 
50880
(
5.33581e-12
-7.83193e-12
3.24089e-11
-2.70637e-11
7.00464e-11
-3.76398e-11
1.09497e-10
-3.94515e-11
1.44774e-10
-3.52845e-11
1.71891e-10
-2.71131e-11
1.88198e-10
-1.6316e-11
1.92035e-10
-3.83631e-12
1.82377e-10
9.65799e-12
1.58666e-10
2.37122e-11
1.20658e-10
3.80073e-11
6.83501e-11
5.23065e-11
1.91699e-12
6.64364e-11
-7.83396e-11
8.02642e-11
-1.72043e-10
9.37075e-11
-2.78735e-10
1.06693e-10
-3.9791e-10
1.19174e-10
-5.29025e-10
1.31112e-10
-6.71508e-10
1.42481e-10
-8.24772e-10
1.53267e-10
-9.88229e-10
1.63457e-10
-1.16128e-09
1.73048e-10
-1.34333e-09
1.82044e-10
-1.53378e-09
1.90446e-10
-1.73204e-09
1.9826e-10
-1.93754e-09
2.05494e-10
-2.14969e-09
2.12157e-10
-2.36795e-09
2.18258e-10
-2.59175e-09
2.23806e-10
-2.82057e-09
2.28817e-10
-3.05388e-09
2.33303e-10
-3.29115e-09
2.37275e-10
-3.53189e-09
2.40747e-10
-3.77562e-09
2.4373e-10
-4.02186e-09
2.46235e-10
-4.27013e-09
2.48275e-10
-4.51999e-09
2.49862e-10
-4.77101e-09
2.51012e-10
-5.02275e-09
2.51737e-10
-5.2748e-09
2.52047e-10
-5.52675e-09
2.51954e-10
-5.77821e-09
2.51464e-10
-6.0288e-09
2.5059e-10
-6.27814e-09
2.49342e-10
-6.52586e-09
2.47725e-10
-6.77161e-09
2.45749e-10
-7.01504e-09
2.43426e-10
-7.2558e-09
2.40764e-10
-7.49358e-09
2.37769e-10
-7.72802e-09
2.3445e-10
-7.95884e-09
2.30813e-10
-8.1857e-09
2.26866e-10
-8.40831e-09
2.22612e-10
-8.62637e-09
2.18058e-10
-8.83959e-09
2.13215e-10
-9.04767e-09
2.08085e-10
-9.25034e-09
2.02672e-10
-9.44732e-09
1.96982e-10
-9.63835e-09
1.91023e-10
-9.82315e-09
1.84801e-10
-1.00015e-08
1.78319e-10
-1.01731e-08
1.71585e-10
-1.03377e-08
1.64606e-10
-1.0495e-08
1.57386e-10
-1.0645e-08
1.49928e-10
-1.07872e-08
1.42242e-10
-1.09215e-08
1.34335e-10
-1.10478e-08
1.26212e-10
-1.11656e-08
1.17881e-10
-1.1275e-08
1.09347e-10
-1.13756e-08
1.0062e-10
-1.14673e-08
9.17069e-11
-1.15499e-08
8.26175e-11
-1.16233e-08
7.33616e-11
-1.16872e-08
6.39479e-11
-1.17416e-08
5.43855e-11
-1.17863e-08
4.46853e-11
-1.18212e-08
3.4858e-11
-1.18461e-08
2.49148e-11
-1.1861e-08
1.48687e-11
-1.18657e-08
4.73367e-12
-1.18602e-08
-5.47694e-12
-1.18445e-08
-1.57508e-11
-1.18184e-08
-2.60754e-11
-1.1782e-08
-3.64349e-11
-1.17351e-08
-4.68111e-11
-1.1678e-08
-5.71883e-11
-1.16104e-08
-6.75523e-11
-1.15325e-08
-7.7887e-11
-1.14443e-08
-8.81734e-11
-1.1346e-08
-9.83913e-11
-1.12374e-08
-1.08522e-10
-1.11189e-08
-1.18549e-10
-1.09904e-08
-1.28454e-10
-1.08522e-08
-1.38216e-10
-1.07044e-08
-1.47814e-10
-1.05472e-08
-1.57228e-10
-1.03807e-08
-1.66438e-10
-1.02053e-08
-1.75425e-10
-1.00211e-08
-1.84167e-10
-9.8285e-09
-1.92643e-10
-9.62767e-09
-2.00831e-10
-9.41896e-09
-2.08712e-10
-9.20269e-09
-2.16265e-10
-8.97922e-09
-2.23471e-10
-8.74891e-09
-2.30309e-10
-8.51215e-09
-2.36759e-10
-8.26935e-09
-2.42802e-10
-8.02093e-09
-2.48419e-10
-7.76734e-09
-2.53592e-10
-7.50904e-09
-2.58301e-10
-7.24651e-09
-2.6253e-10
-6.98025e-09
-2.66261e-10
-6.71077e-09
-2.69481e-10
-6.4386e-09
-2.72172e-10
-6.16428e-09
-2.7432e-10
-5.88837e-09
-2.75912e-10
-5.61143e-09
-2.76937e-10
-5.33405e-09
-2.77382e-10
-5.05681e-09
-2.77239e-10
-4.78032e-09
-2.76497e-10
-4.50517e-09
-2.75149e-10
-4.23198e-09
-2.73187e-10
-3.96137e-09
-2.70609e-10
-3.69396e-09
-2.67411e-10
-3.43037e-09
-2.63589e-10
-3.17123e-09
-2.59142e-10
-2.91716e-09
-2.5407e-10
-2.66879e-09
-2.48376e-10
-2.42672e-09
-2.42066e-10
-2.19157e-09
-2.35145e-10
-1.96396e-09
-2.27619e-10
-1.74446e-09
-2.19496e-10
-1.53368e-09
-2.10787e-10
-1.33217e-09
-2.01505e-10
-1.1405e-09
-1.91667e-10
-9.59212e-10
-1.81289e-10
-7.88822e-10
-1.70391e-10
-6.29829e-10
-1.58995e-10
-4.82703e-10
-1.47126e-10
-3.47882e-10
-1.34819e-10
-2.2577e-10
-1.2211e-10
-1.16727e-10
-1.09042e-10
-2.10651e-11
-9.56619e-11
6.09613e-11
-8.20271e-11
1.29169e-10
-6.82077e-11
1.83458e-10
-5.42882e-11
2.23829e-10
-4.03709e-11
2.50411e-10
-2.65817e-11
2.63489e-10
-1.30787e-11
2.63554e-10
-6.52235e-14
2.51361e-10
1.21943e-11
2.28013e-10
2.33483e-11
1.9509e-10
3.2923e-11
1.54825e-10
4.02649e-11
1.10355e-10
4.44708e-11
6.60326e-11
4.43232e-11
2.78456e-11
3.81884e-11
3.72725e-12
2.41194e-11
3.72707e-12
2.59926e-11
-3.38168e-11
8.51434e-11
-8.62234e-11
1.59997e-10
-1.12486e-10
2.35273e-10
-1.14727e-10
2.98707e-10
-9.87161e-11
3.41076e-10
-6.94825e-11
3.55723e-10
-3.09566e-11
3.37988e-10
1.38954e-11
2.8478e-10
6.28661e-11
1.94177e-10
1.14321e-10
6.51384e-11
1.67047e-10
-1.02692e-10
2.20129e-10
-3.0915e-10
2.72888e-10
-5.53696e-10
3.24801e-10
-8.35469e-10
3.75478e-10
-1.15339e-09
4.24622e-10
-1.50622e-09
4.72003e-10
-1.89257e-09
5.1746e-10
-2.31096e-09
5.60875e-10
-2.75986e-09
6.02163e-10
-3.23767e-09
6.41267e-10
-3.74277e-09
6.78154e-10
-4.27353e-09
7.12808e-10
-4.82831e-09
7.45228e-10
-5.40548e-09
7.75426e-10
-6.00341e-09
8.03424e-10
-6.6205e-09
8.29245e-10
-7.25517e-09
8.52924e-10
-7.90586e-09
8.74494e-10
-8.57103e-09
8.93993e-10
-9.2492e-09
9.11466e-10
-9.93888e-09
9.26956e-10
-1.06386e-08
9.40509e-10
-1.13471e-08
9.5217e-10
-1.20628e-08
9.61982e-10
-1.27845e-08
9.69991e-10
-1.35109e-08
9.76241e-10
-1.42407e-08
9.8078e-10
-1.49726e-08
9.83651e-10
-1.57054e-08
9.84896e-10
-1.6438e-08
9.84556e-10
-1.71693e-08
9.82674e-10
-1.78979e-08
9.79282e-10
-1.8623e-08
9.7442e-10
-1.93434e-08
9.68123e-10
-2.00581e-08
9.60422e-10
-2.0766e-08
9.5135e-10
-2.14662e-08
9.40938e-10
-2.21576e-08
9.29219e-10
-2.28394e-08
9.16224e-10
-2.35106e-08
9.0198e-10
-2.41702e-08
8.86512e-10
-2.48175e-08
8.69844e-10
-2.54514e-08
8.52002e-10
-2.60712e-08
8.33009e-10
-2.6676e-08
8.1289e-10
-2.7265e-08
7.91668e-10
-2.78374e-08
7.69365e-10
-2.83924e-08
7.46002e-10
-2.89292e-08
7.21603e-10
-2.9447e-08
6.96193e-10
-2.99452e-08
6.69795e-10
-3.04231e-08
6.42432e-10
-3.08798e-08
6.14127e-10
-3.13148e-08
5.84904e-10
-3.17273e-08
5.54787e-10
-3.21168e-08
5.23804e-10
-3.24826e-08
4.91983e-10
-3.2824e-08
4.5935e-10
-3.31406e-08
4.25936e-10
-3.34318e-08
3.91773e-10
-3.3697e-08
3.56894e-10
-3.39357e-08
3.2133e-10
-3.41474e-08
2.85118e-10
-3.43318e-08
2.48297e-10
-3.44883e-08
2.10908e-10
-3.46166e-08
1.72992e-10
-3.47164e-08
1.34589e-10
-3.47872e-08
9.57446e-11
-3.48288e-08
5.65105e-11
-3.4841e-08
1.69382e-11
-3.48236e-08
-2.29222e-11
-3.47763e-08
-6.30192e-11
-3.46991e-08
-1.03297e-10
-3.45918e-08
-1.43697e-10
-3.44545e-08
-1.84156e-10
-3.42871e-08
-2.24612e-10
-3.40896e-08
-2.65e-10
-3.38623e-08
-3.05256e-10
-3.36051e-08
-3.45312e-10
-3.33184e-08
-3.85096e-10
-3.30024e-08
-4.24537e-10
-3.26574e-08
-4.63558e-10
-3.22838e-08
-5.02088e-10
-3.18819e-08
-5.40053e-10
-3.14524e-08
-5.77375e-10
-3.09956e-08
-6.13974e-10
-3.05123e-08
-6.49771e-10
-3.0003e-08
-6.84686e-10
-2.94685e-08
-7.18641e-10
-2.89096e-08
-7.51558e-10
-2.83271e-08
-7.83357e-10
-2.77219e-08
-8.13954e-10
-2.70949e-08
-8.43272e-10
-2.64471e-08
-8.71233e-10
-2.57796e-08
-8.97761e-10
-2.50936e-08
-9.2278e-10
-2.43902e-08
-9.46217e-10
-2.36706e-08
-9.67996e-10
-2.29362e-08
-9.88046e-10
-2.21882e-08
-1.0063e-09
-2.1428e-08
-1.02269e-09
-2.06571e-08
-1.03715e-09
-1.9877e-08
-1.04963e-09
-1.90891e-08
-1.06006e-09
-1.8295e-08
-1.06839e-09
-1.74964e-08
-1.07457e-09
-1.66948e-08
-1.07855e-09
-1.58919e-08
-1.0803e-09
-1.50893e-08
-1.07976e-09
-1.42889e-08
-1.07692e-09
-1.34923e-08
-1.07174e-09
-1.27013e-08
-1.0642e-09
-1.19176e-08
-1.05428e-09
-1.11431e-08
-1.04196e-09
-1.03794e-08
-1.02725e-09
-9.62844e-09
-1.01013e-09
-8.8919e-09
-9.90611e-10
-8.17157e-09
-9.68705e-10
-7.46921e-09
-9.44429e-10
-6.78654e-09
-9.17807e-10
-6.12529e-09
-8.8887e-10
-5.48713e-09
-8.57655e-10
-4.87371e-09
-8.24207e-10
-4.28664e-09
-7.88581e-10
-3.72746e-09
-7.50842e-10
-3.19769e-09
-7.11064e-10
-2.69874e-09
-6.69331e-10
-2.232e-09
-6.2574e-10
-1.79872e-09
-5.80405e-10
-1.40008e-09
-5.33455e-10
-1.03715e-09
-4.85044e-10
-7.10837e-10
-4.35349e-10
-4.21924e-10
-3.84573e-10
-1.70998e-10
-3.32956e-10
4.1572e-11
-2.8078e-10
2.15672e-10
-2.28389e-10
3.51498e-10
-1.76195e-10
4.49622e-10
-1.24702e-10
5.11079e-10
-7.45333e-11
5.37477e-10
-2.64642e-11
5.31149e-10
1.85216e-11
4.95332e-10
5.91655e-11
4.34411e-10
9.38455e-11
3.54214e-10
1.20465e-10
2.62349e-10
1.3634e-10
1.68513e-10
1.38162e-10
8.46029e-11
1.221e-10
2.40853e-11
8.46378e-11
2.7812e-11
3.69755e-11
-7.07942e-11
1.11666e-10
-1.6091e-10
1.99912e-10
-2.00737e-10
2.82644e-10
-1.97459e-10
3.44292e-10
-1.60366e-10
3.72628e-10
-9.78256e-11
3.58378e-10
-1.67037e-11
2.94732e-10
7.7541e-11
1.76915e-10
1.80681e-10
1.78851e-12
2.8945e-10
-2.3249e-10
4.0133e-10
-5.26751e-10
5.14398e-10
-8.81014e-10
6.27154e-10
-1.29467e-09
7.38453e-10
-1.76661e-09
8.47413e-10
-2.29533e-09
9.53345e-10
-2.87905e-09
1.05573e-09
-3.51575e-09
1.15416e-09
-4.20323e-09
1.24835e-09
-4.93915e-09
1.33808e-09
-5.7211e-09
1.42321e-09
-6.54658e-09
1.50364e-09
-7.41307e-09
1.5793e-09
-8.31802e-09
1.65017e-09
-9.25886e-09
1.71627e-09
-1.0233e-08
1.77761e-09
-1.1238e-08
1.83424e-09
-1.22713e-08
1.88622e-09
-1.33305e-08
1.93362e-09
-1.4413e-08
1.9765e-09
-1.55165e-08
2.01496e-09
-1.66386e-08
2.04909e-09
-1.77771e-08
2.07897e-09
-1.89296e-08
2.10469e-09
-2.0094e-08
2.12635e-09
-2.1268e-08
2.14406e-09
-2.24497e-08
2.15789e-09
-2.36368e-08
2.16795e-09
-2.48275e-08
2.17432e-09
-2.60197e-08
2.17711e-09
-2.72115e-08
2.17639e-09
-2.84011e-08
2.17224e-09
-2.95866e-08
2.16477e-09
-3.07662e-08
2.15403e-09
-3.19382e-08
2.14011e-09
-3.31008e-08
2.12308e-09
-3.42525e-08
2.10301e-09
-3.53916e-08
2.07998e-09
-3.65164e-08
2.05404e-09
-3.76254e-08
2.02527e-09
-3.87172e-08
1.99372e-09
-3.97901e-08
1.95945e-09
-4.08428e-08
1.92253e-09
-4.18738e-08
1.88299e-09
-4.28817e-08
1.84091e-09
-4.38651e-08
1.79633e-09
-4.48228e-08
1.7493e-09
-4.57533e-08
1.69988e-09
-4.66554e-08
1.64811e-09
-4.75278e-08
1.59405e-09
-4.83694e-08
1.53775e-09
-4.91788e-08
1.47926e-09
-4.9955e-08
1.41864e-09
-5.06968e-08
1.35593e-09
-5.14031e-08
1.2912e-09
-5.20729e-08
1.2245e-09
-5.27049e-08
1.15589e-09
-5.32984e-08
1.08543e-09
-5.38522e-08
1.01319e-09
-5.43655e-08
9.39226e-10
-5.48374e-08
8.63619e-10
-5.52669e-08
7.86437e-10
-5.56533e-08
7.07758e-10
-5.59959e-08
6.27663e-10
-5.62938e-08
5.46234e-10
-5.65465e-08
4.63562e-10
-5.67532e-08
3.79738e-10
-5.69135e-08
2.9486e-10
-5.70268e-08
2.09029e-10
-5.70926e-08
1.22351e-10
-5.71106e-08
3.49363e-11
-5.70804e-08
-5.30972e-11
-5.70018e-08
-1.4163e-10
-5.68746e-08
-2.30541e-10
-5.66986e-08
-3.19702e-10
-5.64738e-08
-4.08979e-10
-5.62001e-08
-4.98232e-10
-5.58778e-08
-5.87317e-10
-5.5507e-08
-6.76089e-10
-5.50879e-08
-7.64401e-10
-5.46209e-08
-8.52098e-10
-5.41064e-08
-9.3902e-10
-5.3545e-08
-1.02501e-09
-5.29372e-08
-1.10989e-09
-5.22837e-08
-1.19351e-09
-5.15854e-08
-1.2757e-09
-5.08431e-08
-1.35629e-09
-5.00577e-08
-1.43509e-09
-4.92305e-08
-1.51195e-09
-4.83624e-08
-1.58668e-09
-4.74549e-08
-1.65911e-09
-4.65092e-08
-1.72906e-09
-4.55268e-08
-1.79637e-09
-4.45092e-08
-1.86086e-09
-4.3458e-08
-1.92235e-09
-4.23751e-08
-1.98069e-09
-4.12622e-08
-2.0357e-09
-4.01212e-08
-2.08722e-09
-3.89541e-08
-2.1351e-09
-3.7763e-08
-2.17918e-09
-3.655e-08
-2.2193e-09
-3.53173e-08
-2.25533e-09
-3.40673e-08
-2.28713e-09
-3.28024e-08
-2.31456e-09
-3.1525e-08
-2.3375e-09
-3.02375e-08
-2.35583e-09
-2.89426e-08
-2.36945e-09
-2.76429e-08
-2.37826e-09
-2.63411e-08
-2.38215e-09
-2.50398e-08
-2.38106e-09
-2.37418e-08
-2.37492e-09
-2.24499e-08
-2.36365e-09
-2.11669e-08
-2.34722e-09
-1.98956e-08
-2.32558e-09
-1.86388e-08
-2.29871e-09
-1.73995e-08
-2.26659e-09
-1.61804e-08
-2.22923e-09
-1.49843e-08
-2.18663e-09
-1.38142e-08
-2.13883e-09
-1.26728e-08
-2.08586e-09
-1.15628e-08
-2.02778e-09
-1.0487e-08
-1.96466e-09
-9.44809e-09
-1.8966e-09
-8.4486e-09
-1.8237e-09
-7.4911e-09
-1.74608e-09
-6.57803e-09
-1.66391e-09
-5.71176e-09
-1.57734e-09
-4.89451e-09
-1.48658e-09
-4.1284e-09
-1.39185e-09
-3.41539e-09
-1.29342e-09
-2.75726e-09
-1.19158e-09
-2.15561e-09
-1.08669e-09
-1.61181e-09
-9.79151e-10
-1.12696e-09
-8.69422e-10
-7.01857e-10
-7.58054e-10
-3.36951e-10
-6.45687e-10
-3.22565e-11
-5.33084e-10
2.12709e-10
-4.2116e-10
3.99026e-10
-3.11018e-10
5.28496e-10
-2.04001e-10
6.03789e-10
-1.01756e-10
6.28632e-10
-6.32299e-12
6.08033e-10
7.97637e-11
5.48538e-10
1.5334e-10
4.58525e-10
2.1048e-10
3.48482e-10
2.46384e-10
2.31242e-10
2.55403e-10
1.22006e-10
2.31335e-10
3.81121e-11
1.68531e-10
6.59234e-11
3.91802e-11
-1.09973e-10
1.14535e-10
-2.36267e-10
1.97468e-10
-2.83674e-10
2.66227e-10
-2.66219e-10
3.03282e-10
-1.97425e-10
2.94669e-10
-8.92141e-11
2.29531e-10
4.84315e-11
9.96665e-11
2.07409e-10
-1.0088e-10
3.81225e-10
-3.7618e-10
5.64741e-10
-7.28754e-10
7.53904e-10
-1.15987e-09
9.45511e-10
-1.66976e-09
1.13705e-09
-2.25786e-09
1.32655e-09
-2.92291e-09
1.51246e-09
-3.66315e-09
1.69358e-09
-4.47638e-09
1.86896e-09
-5.36008e-09
2.03787e-09
-6.31149e-09
2.19976e-09
-7.32763e-09
2.35422e-09
-8.40537e-09
2.50096e-09
-9.5415e-09
2.63976e-09
-1.07327e-08
2.7705e-09
-1.19756e-08
2.89311e-09
-1.32669e-08
3.00756e-09
-1.46032e-08
3.11388e-09
-1.59811e-08
3.21213e-09
-1.73972e-08
3.30237e-09
-1.88483e-08
3.38472e-09
-2.03311e-08
3.4593e-09
-2.18424e-08
3.52622e-09
-2.33789e-08
3.58563e-09
-2.49376e-08
3.63768e-09
-2.65155e-08
3.68252e-09
-2.81094e-08
3.72031e-09
-2.97166e-08
3.75119e-09
-3.1334e-08
3.77534e-09
-3.2959e-08
3.79291e-09
-3.45887e-08
3.80404e-09
-3.62205e-08
3.80891e-09
-3.78517e-08
3.80764e-09
-3.94799e-08
3.80039e-09
-4.11024e-08
3.7873e-09
-4.27169e-08
3.76849e-09
-4.43209e-08
3.74412e-09
-4.59121e-08
3.71429e-09
-4.74882e-08
3.67914e-09
-4.9047e-08
3.63878e-09
-5.05863e-08
3.59334e-09
-5.2104e-08
3.54291e-09
-5.35979e-08
3.48761e-09
-5.50659e-08
3.42754e-09
-5.65062e-08
3.3628e-09
-5.79167e-08
3.2935e-09
-5.92955e-08
3.21971e-09
-6.06407e-08
3.14155e-09
-6.19505e-08
3.05909e-09
-6.32231e-08
2.97244e-09
-6.44567e-08
2.88168e-09
-6.56495e-08
2.78691e-09
-6.68e-08
2.68821e-09
-6.79064e-08
2.58569e-09
-6.89672e-08
2.47943e-09
-6.99808e-08
2.36953e-09
-7.09457e-08
2.25609e-09
-7.18604e-08
2.13921e-09
-7.27235e-08
2.019e-09
-7.35336e-08
1.89557e-09
-7.42895e-08
1.76903e-09
-7.49898e-08
1.63949e-09
-7.56332e-08
1.5071e-09
-7.62188e-08
1.37196e-09
-7.67452e-08
1.23423e-09
-7.72116e-08
1.09404e-09
-7.76169e-08
9.51543e-10
-7.79603e-08
8.06892e-10
-7.82408e-08
6.60254e-10
-7.84577e-08
5.11796e-10
-7.86104e-08
3.61698e-10
-7.86982e-08
2.10146e-10
-7.87206e-08
5.73358e-11
-7.86771e-08
-9.65316e-11
-7.85675e-08
-2.51247e-10
-7.83915e-08
-4.06593e-10
-7.81488e-08
-5.62346e-10
-7.78395e-08
-7.18269e-10
-7.74636e-08
-8.74125e-10
-7.70213e-08
-1.02966e-09
-7.65128e-08
-1.18463e-09
-7.59384e-08
-1.33876e-09
-7.52987e-08
-1.49179e-09
-7.45943e-08
-1.64345e-09
-7.38258e-08
-1.79345e-09
-7.29942e-08
-1.94151e-09
-7.21004e-08
-2.08733e-09
-7.11455e-08
-2.23064e-09
-7.01306e-08
-2.37113e-09
-6.90572e-08
-2.50849e-09
-6.79267e-08
-2.64245e-09
-6.67407e-08
-2.77267e-09
-6.55009e-08
-2.89888e-09
-6.42092e-08
-3.02076e-09
-6.28676e-08
-3.13801e-09
-6.14781e-08
-3.25034e-09
-6.0043e-08
-3.35745e-09
-5.85646e-08
-3.45905e-09
-5.70455e-08
-3.55486e-09
-5.54881e-08
-3.64458e-09
-5.38953e-08
-3.72795e-09
-5.22697e-08
-3.80471e-09
-5.06145e-08
-3.87459e-09
-4.89324e-08
-3.93734e-09
-4.72268e-08
-3.99273e-09
-4.55009e-08
-4.04053e-09
-4.37578e-08
-4.08053e-09
-4.20011e-08
-4.11253e-09
-4.02342e-08
-4.13634e-09
-3.84607e-08
-4.15179e-09
-3.66841e-08
-4.15873e-09
-3.49082e-08
-4.15701e-09
-3.31366e-08
-4.14652e-09
-3.13731e-08
-4.12716e-09
-2.96214e-08
-4.09884e-09
-2.78855e-08
-4.0615e-09
-2.61691e-08
-4.01511e-09
-2.44761e-08
-3.95963e-09
-2.28102e-08
-3.89508e-09
-2.11754e-08
-3.82148e-09
-1.95753e-08
-3.73889e-09
-1.80138e-08
-3.64738e-09
-1.64945e-08
-3.54706e-09
-1.50211e-08
-3.43806e-09
-1.35972e-08
-3.32055e-09
-1.22261e-08
-3.19472e-09
-1.09114e-08
-3.06081e-09
-9.65623e-09
-2.91909e-09
-8.46371e-09
-2.76986e-09
-7.33678e-09
-2.6135e-09
-6.27822e-09
-2.45041e-09
-5.29057e-09
-2.28107e-09
-4.37614e-09
-2.10602e-09
-3.53695e-09
-1.92587e-09
-2.77474e-09
-1.74136e-09
-2.09085e-09
-1.55331e-09
-1.48621e-09
-1.36269e-09
-9.61262e-10
-1.17063e-09
-5.15883e-10
-9.78462e-10
-1.49284e-10
-7.87759e-10
1.40106e-10
-6.00408e-10
3.54776e-10
-4.18669e-10
4.98298e-10
-2.45277e-10
5.75521e-10
-8.35471e-11
5.92798e-10
6.24863e-11
5.58222e-10
1.87918e-10
4.81879e-10
2.86823e-10
3.76107e-10
3.52156e-10
2.55722e-10
3.75789e-10
1.38231e-10
3.48825e-10
4.42624e-11
2.62498e-10
1.10185e-10
3.5364e-11
-1.45343e-10
9.93154e-11
-3.00213e-10
1.61598e-10
-3.45961e-10
1.99071e-10
-3.03696e-10
1.93174e-10
-1.91524e-10
1.29023e-10
-2.50694e-11
-5.09661e-12
1.82554e-10
-2.18209e-10
4.20523e-10
-5.17007e-10
6.80024e-10
-9.06187e-10
9.53924e-10
-1.38877e-09
1.23648e-09
-1.96635e-09
1.52309e-09
-2.63937e-09
1.81007e-09
-3.4073e-09
2.09448e-09
-4.26881e-09
2.37398e-09
-5.22194e-09
2.64671e-09
-6.2642e-09
2.91121e-09
-7.39267e-09
3.16634e-09
-8.60412e-09
3.4112e-09
-9.89503e-09
3.64513e-09
-1.12617e-08
3.86763e-09
-1.27003e-08
4.07834e-09
-1.42068e-08
4.27701e-09
-1.57772e-08
4.46351e-09
-1.74074e-08
4.63776e-09
-1.90933e-08
4.79977e-09
-2.08307e-08
4.94959e-09
-2.26157e-08
5.08732e-09
-2.4444e-08
5.21307e-09
-2.63118e-08
5.32702e-09
-2.82149e-08
5.42934e-09
-3.01495e-08
5.52022e-09
-3.21117e-08
5.59988e-09
-3.40977e-08
5.66853e-09
-3.61038e-08
5.7264e-09
-3.81263e-08
5.77371e-09
-4.01617e-08
5.8107e-09
-4.22064e-08
5.8376e-09
-4.42569e-08
5.85463e-09
-4.63101e-08
5.86203e-09
-4.83624e-08
5.86e-09
-5.04108e-08
5.84877e-09
-5.24521e-08
5.82856e-09
-5.44831e-08
5.79955e-09
-5.6501e-08
5.76196e-09
-5.85026e-08
5.71597e-09
-6.04853e-08
5.66177e-09
-6.2446e-08
5.59955e-09
-6.43822e-08
5.52948e-09
-6.6291e-08
5.45172e-09
-6.81698e-08
5.36645e-09
-7.00161e-08
5.27383e-09
-7.18273e-08
5.174e-09
-7.36009e-08
5.06712e-09
-7.53346e-08
4.95334e-09
-7.70258e-08
4.83281e-09
-7.86724e-08
4.70566e-09
-8.0272e-08
4.57205e-09
-8.18224e-08
4.43211e-09
-8.33215e-08
4.28598e-09
-8.47671e-08
4.13382e-09
-8.61572e-08
3.97577e-09
-8.74897e-08
3.81196e-09
-8.87628e-08
3.64257e-09
-8.99744e-08
3.46773e-09
-9.11228e-08
3.28762e-09
-9.22062e-08
3.10239e-09
-9.32229e-08
2.91221e-09
-9.41711e-08
2.71727e-09
-9.50494e-08
2.51775e-09
-9.58561e-08
2.31385e-09
-9.65899e-08
2.10576e-09
-9.72494e-08
1.8937e-09
-9.78332e-08
1.67789e-09
-9.83403e-08
1.45856e-09
-9.87693e-08
1.23596e-09
-9.91194e-08
1.01032e-09
-9.93895e-08
7.81929e-10
-9.95789e-08
5.51049e-10
-9.96867e-08
3.17974e-10
-9.97124e-08
8.30003e-11
-9.96553e-08
-1.53562e-10
-9.95152e-08
-3.9139e-10
-9.92916e-08
-6.30147e-10
-9.89845e-08
-8.69486e-10
-9.85937e-08
-1.10905e-09
-9.81194e-08
-1.34847e-09
-9.75617e-08
-1.58737e-09
-9.6921e-08
-1.82535e-09
-9.61977e-08
-2.06201e-09
-9.53926e-08
-2.29694e-09
-9.45063e-08
-2.52973e-09
-9.35398e-08
-2.75995e-09
-9.24941e-08
-2.98715e-09
-9.13706e-08
-3.2109e-09
-9.01704e-08
-3.43075e-09
-8.88953e-08
-3.64625e-09
-8.75469e-08
-3.85694e-09
-8.6127e-08
-4.06236e-09
-8.46376e-08
-4.26205e-09
-8.30809e-08
-4.45556e-09
-8.14592e-08
-4.64242e-09
-7.97751e-08
-4.82217e-09
-7.80311e-08
-4.99436e-09
-7.623e-08
-5.15854e-09
-7.43748e-08
-5.31426e-09
-7.24685e-08
-5.4611e-09
-7.05145e-08
-5.59862e-09
-6.8516e-08
-5.72641e-09
-6.64767e-08
-5.84407e-09
-6.44001e-08
-5.95119e-09
-6.229e-08
-6.04742e-09
-6.01503e-08
-6.13238e-09
-5.79851e-08
-6.20573e-09
-5.57985e-08
-6.26716e-09
-5.35947e-08
-6.31635e-09
-5.1378e-08
-6.35303e-09
-4.91528e-08
-6.37695e-09
-4.69237e-08
-6.38786e-09
-4.46951e-08
-6.38556e-09
-4.24718e-08
-6.36988e-09
-4.02583e-08
-6.34067e-09
-3.80593e-08
-6.29779e-09
-3.58797e-08
-6.24117e-09
-3.3724e-08
-6.17074e-09
-3.15972e-08
-6.08649e-09
-2.95038e-08
-5.98842e-09
-2.74487e-08
-5.87659e-09
-2.54365e-08
-5.75109e-09
-2.34719e-08
-5.61203e-09
-2.15593e-08
-5.45961e-09
-1.97034e-08
-5.29402e-09
-1.79084e-08
-5.11554e-09
-1.61786e-08
-4.92448e-09
-1.45182e-08
-4.72121e-09
-1.29311e-08
-4.50617e-09
-1.14211e-08
-4.27984e-09
-9.99183e-09
-4.0428e-09
-8.64654e-09
-3.7957e-09
-7.38832e-09
-3.53929e-09
-6.21991e-09
-3.27442e-09
-5.14373e-09
-3.00206e-09
-4.16176e-09
-2.72333e-09
-3.27554e-09
-2.43953e-09
-2.4861e-09
-2.15213e-09
-1.79385e-09
-1.86288e-09
-1.19851e-09
-1.5738e-09
-6.99016e-10
-1.28726e-09
-2.93366e-10
-1.00606e-09
2.14896e-11
-7.33525e-10
2.49836e-10
-4.73623e-10
3.97367e-10
-2.31078e-10
4.71396e-10
-1.15437e-11
4.81073e-10
1.78241e-10
4.37608e-10
3.30287e-10
3.54521e-10
4.35242e-10
2.47934e-10
4.82378e-10
1.36962e-10
4.59796e-10
4.45354e-11
3.54925e-10
1.5472e-10
2.75261e-11
-1.72867e-10
7.09089e-11
-3.43595e-10
1.00382e-10
-3.75442e-10
9.26696e-11
-2.95984e-10
2.89733e-11
-1.2783e-10
-1.05858e-10
1.09763e-10
-3.23885e-10
4.00575e-10
-6.34488e-10
7.31126e-10
-1.04473e-09
1.09027e-09
-1.55967e-09
1.46886e-09
-2.18261e-09
1.85941e-09
-2.91535e-09
2.25584e-09
-3.75847e-09
2.65319e-09
-4.71146e-09
3.04747e-09
-5.77292e-09
3.43544e-09
-6.94073e-09
3.81452e-09
-8.21215e-09
4.18263e-09
-9.58396e-09
4.53814e-09
-1.10525e-08
4.87976e-09
-1.26139e-08
5.20649e-09
-1.42638e-08
5.51758e-09
-1.5998e-08
5.81248e-09
-1.78118e-08
6.0908e-09
-1.97006e-08
6.35229e-09
-2.16596e-08
6.59682e-09
-2.36842e-08
6.82433e-09
-2.57695e-08
7.03488e-09
-2.79107e-08
7.22855e-09
-3.01031e-08
7.40549e-09
-3.2342e-08
7.56591e-09
-3.46227e-08
7.71001e-09
-3.69405e-08
7.83807e-09
-3.9291e-08
7.95034e-09
-4.16696e-08
8.04713e-09
-4.40719e-08
8.12872e-09
-4.64936e-08
8.19543e-09
-4.89305e-08
8.24756e-09
-5.13783e-08
8.28543e-09
-5.3833e-08
8.30935e-09
-5.62906e-08
8.31962e-09
-5.87472e-08
8.31655e-09
-6.11988e-08
8.30044e-09
-6.36419e-08
8.27158e-09
-6.60726e-08
8.23025e-09
-6.84873e-08
8.17674e-09
-7.08827e-08
8.11131e-09
-7.32551e-08
8.03421e-09
-7.56013e-08
7.94571e-09
-7.79179e-08
7.84606e-09
-8.02016e-08
7.73549e-09
-8.24494e-08
7.61424e-09
-8.46581e-08
7.48253e-09
-8.68247e-08
7.34058e-09
-8.89462e-08
7.18861e-09
-9.10197e-08
7.02683e-09
-9.30423e-08
6.85546e-09
-9.50114e-08
6.67469e-09
-9.6924e-08
6.48472e-09
-9.87777e-08
6.28578e-09
-1.0057e-07
6.07806e-09
-1.02298e-07
5.86177e-09
-1.03959e-07
5.63712e-09
-1.05551e-07
5.40432e-09
-1.07072e-07
5.16359e-09
-1.0852e-07
4.91516e-09
-1.09892e-07
4.65925e-09
-1.11185e-07
4.3961e-09
-1.12399e-07
4.12596e-09
-1.13531e-07
3.84908e-09
-1.14579e-07
3.56574e-09
-1.15541e-07
3.2762e-09
-1.16416e-07
2.98077e-09
-1.17202e-07
2.67973e-09
-1.17898e-07
2.37342e-09
-1.18501e-07
2.06216e-09
-1.19012e-07
1.74629e-09
-1.19427e-07
1.42617e-09
-1.19748e-07
1.10219e-09
-1.19971e-07
7.74729e-10
-1.20098e-07
4.44204e-10
-1.20126e-07
1.11038e-10
-1.20055e-07
-2.24327e-10
-1.19885e-07
-5.61435e-10
-1.19615e-07
-8.99809e-10
-1.19246e-07
-1.23896e-09
-1.18776e-07
-1.57838e-09
-1.18207e-07
-1.91754e-09
-1.17539e-07
-2.25591e-09
-1.16771e-07
-2.59293e-09
-1.15905e-07
-2.92804e-09
-1.14941e-07
-3.26066e-09
-1.13881e-07
-3.5902e-09
-1.12725e-07
-3.91605e-09
-1.11474e-07
-4.23759e-09
-1.10131e-07
-4.55422e-09
-1.08697e-07
-4.86529e-09
-1.07173e-07
-5.17016e-09
-1.05561e-07
-5.46821e-09
-1.03865e-07
-5.75877e-09
-1.02086e-07
-6.0412e-09
-1.00227e-07
-6.31487e-09
-9.82898e-08
-6.57911e-09
-9.62787e-08
-6.83328e-09
-9.41963e-08
-7.07676e-09
-9.20459e-08
-7.3089e-09
-8.98311e-08
-7.52909e-09
-8.75555e-08
-7.73671e-09
-8.52229e-08
-7.93117e-09
-8.28375e-08
-8.11188e-09
-8.04033e-08
-8.27828e-09
-7.79246e-08
-8.42981e-09
-7.54061e-08
-8.56596e-09
-7.28522e-08
-8.68622e-09
-7.02679e-08
-8.79011e-09
-6.76578e-08
-8.87719e-09
-6.50272e-08
-8.94702e-09
-6.2381e-08
-8.99923e-09
-5.97245e-08
-9.03344e-09
-5.7063e-08
-9.04935e-09
-5.44019e-08
-9.04666e-09
-5.17466e-08
-9.02514e-09
-4.91027e-08
-8.98456e-09
-4.64758e-08
-8.92478e-09
-4.38712e-08
-8.84568e-09
-4.12948e-08
-8.74717e-09
-3.87521e-08
-8.62925e-09
-3.62485e-08
-8.49193e-09
-3.37898e-08
-8.3353e-09
-3.13814e-08
-8.15948e-09
-2.90288e-08
-7.96469e-09
-2.67372e-08
-7.75117e-09
-2.4512e-08
-7.51924e-09
-2.23583e-08
-7.26929e-09
-2.0281e-08
-7.00178e-09
-1.82849e-08
-6.71725e-09
-1.63748e-08
-6.41634e-09
-1.45548e-08
-6.09976e-09
-1.28293e-08
-5.76834e-09
-1.1202e-08
-5.42302e-09
-9.67639e-09
-5.06488e-09
-8.25566e-09
-4.69515e-09
-6.94251e-09
-4.31521e-09
-5.73916e-09
-3.92668e-09
-4.64732e-09
-3.53137e-09
-3.66807e-09
-3.13139e-09
-2.80179e-09
-2.72916e-09
-2.04808e-09
-2.32751e-09
-1.40564e-09
-1.92969e-09
-8.72146e-10
-1.53955e-09
-4.44116e-10
-1.16156e-09
-1.16747e-10
-8.00992e-10
1.1625e-10
-4.64075e-10
2.62833e-10
-1.58126e-10
3.32828e-10
1.08246e-10
3.38141e-10
3.24973e-10
2.93009e-10
4.80374e-10
2.14329e-10
5.61056e-10
1.2216e-10
5.51965e-10
4.06036e-11
4.36482e-10
1.95324e-10
1.7023e-11
-1.899e-10
3.31515e-11
-3.59716e-10
2.04972e-11
-3.62786e-10
-4.33648e-11
-2.32128e-10
-1.76742e-10
5.55353e-12
-3.94546e-10
3.27566e-10
-7.08726e-10
7.14754e-10
-1.12867e-09
1.15106e-09
-1.6615e-09
1.6231e-09
-2.31237e-09
2.11973e-09
-3.08468e-09
2.63172e-09
-3.98031e-09
3.15148e-09
-4.99987e-09
3.67274e-09
-6.14281e-09
4.19041e-09
-7.40766e-09
4.70029e-09
-8.79213e-09
5.19899e-09
-1.02933e-08
5.68378e-09
-1.19076e-08
6.15245e-09
-1.36311e-08
6.60327e-09
-1.54595e-08
7.03486e-09
-1.73881e-08
7.44618e-09
-1.9412e-08
7.83643e-09
-2.15262e-08
8.20504e-09
-2.37256e-08
8.55164e-09
-2.60047e-08
8.87598e-09
-2.83584e-08
9.17796e-09
-3.07811e-08
9.45759e-09
-3.32675e-08
9.71496e-09
-3.58122e-08
9.95021e-09
-3.84099e-08
1.01636e-08
-4.10552e-08
1.03553e-08
-4.3743e-08
1.05258e-08
-4.64679e-08
1.06753e-08
-4.92249e-08
1.08041e-08
-5.2009e-08
1.09128e-08
-5.48151e-08
1.10016e-08
-5.76384e-08
1.10709e-08
-6.04742e-08
1.11212e-08
-6.33176e-08
1.11528e-08
-6.61642e-08
1.11662e-08
-6.90094e-08
1.11617e-08
-7.18487e-08
1.11397e-08
-7.46778e-08
1.11007e-08
-7.74925e-08
1.10449e-08
-8.02886e-08
1.09728e-08
-8.3062e-08
1.08847e-08
-8.58088e-08
1.0781e-08
-8.8525e-08
1.06619e-08
-9.12068e-08
1.05279e-08
-9.38504e-08
1.03792e-08
-9.64523e-08
1.02161e-08
-9.90087e-08
1.0039e-08
-1.01516e-07
9.8481e-09
-1.03971e-07
9.64377e-09
-1.06371e-07
9.42626e-09
-1.08711e-07
9.19586e-09
-1.10989e-07
8.95284e-09
-1.13202e-07
8.69748e-09
-1.15346e-07
8.43007e-09
-1.17419e-07
8.15088e-09
-1.19418e-07
7.86018e-09
-1.21339e-07
7.55828e-09
-1.2318e-07
7.24545e-09
-1.24938e-07
6.922e-09
-1.26611e-07
6.58822e-09
-1.28197e-07
6.24443e-09
-1.29691e-07
5.89096e-09
-1.31094e-07
5.52814e-09
-1.32401e-07
5.15632e-09
-1.33611e-07
4.77585e-09
-1.34722e-07
4.38712e-09
-1.35732e-07
3.99052e-09
-1.36638e-07
3.58646e-09
-1.3744e-07
3.17537e-09
-1.38136e-07
2.75769e-09
-1.38724e-07
2.33388e-09
-1.39202e-07
1.90444e-09
-1.39569e-07
1.46988e-09
-1.39825e-07
1.03071e-09
-1.39969e-07
5.87497e-10
-1.39999e-07
1.40803e-10
-1.39914e-07
-3.08775e-10
-1.39715e-07
-7.60623e-10
-1.39401e-07
-1.21411e-09
-1.38971e-07
-1.66857e-09
-1.38426e-07
-2.12332e-09
-1.37766e-07
-2.57768e-09
-1.36991e-07
-3.03091e-09
-1.36102e-07
-3.48228e-09
-1.35099e-07
-3.93103e-09
-1.33983e-07
-4.37639e-09
-1.32755e-07
-4.81756e-09
-1.31418e-07
-5.25375e-09
-1.29971e-07
-5.68413e-09
-1.28418e-07
-6.10788e-09
-1.26759e-07
-6.52415e-09
-1.24997e-07
-6.9321e-09
-1.23134e-07
-7.33087e-09
-1.21173e-07
-7.7196e-09
-1.19117e-07
-8.09743e-09
-1.16968e-07
-8.4635e-09
-1.14731e-07
-8.81695e-09
-1.12407e-07
-9.15693e-09
-1.10001e-07
-9.48259e-09
-1.07517e-07
-9.79308e-09
-1.04958e-07
-1.00876e-08
-1.0233e-07
-1.03653e-08
-9.96355e-08
-1.06254e-08
-9.68802e-08
-1.08672e-08
-9.40686e-08
-1.10899e-08
-9.12057e-08
-1.12927e-08
-8.82967e-08
-1.1475e-08
-8.53469e-08
-1.16361e-08
-8.23616e-08
-1.17753e-08
-7.93467e-08
-1.18922e-08
-7.63077e-08
-1.1986e-08
-7.32505e-08
-1.20564e-08
-7.01811e-08
-1.21028e-08
-6.71057e-08
-1.21248e-08
-6.40303e-08
-1.21221e-08
-6.09612e-08
-1.20943e-08
-5.79046e-08
-1.20411e-08
-5.4867e-08
-1.19624e-08
-5.18547e-08
-1.1858e-08
-4.8874e-08
-1.17278e-08
-4.59315e-08
-1.15718e-08
-4.30333e-08
-1.13901e-08
-4.01859e-08
-1.11827e-08
-3.73955e-08
-1.09499e-08
-3.46683e-08
-1.06919e-08
-3.20103e-08
-1.04091e-08
-2.94276e-08
-1.0102e-08
-2.69259e-08
-9.771e-09
-2.45108e-08
-9.41683e-09
-2.21878e-08
-9.04022e-09
-1.99622e-08
-8.64203e-09
-1.78387e-08
-8.22324e-09
-1.5822e-08
-7.78497e-09
-1.39165e-08
-7.32853e-09
-1.21261e-08
-6.85535e-09
-1.04541e-08
-6.3671e-09
-8.90366e-09
-5.86566e-09
-7.47717e-09
-5.35317e-09
-6.17646e-09
-4.83207e-09
-5.0027e-09
-4.30515e-09
-3.95625e-09
-3.77561e-09
-3.03663e-09
-3.24712e-09
-2.24238e-09
-2.72394e-09
-1.57095e-09
-2.21098e-09
-1.01855e-09
-1.71395e-09
-5.80045e-10
-1.23949e-09
-2.4878e-10
-7.9534e-10
-1.64083e-11
-3.90497e-10
1.27274e-10
-3.54362e-11
1.94534e-10
2.57714e-10
1.99943e-10
4.74966e-10
1.6072e-10
6.0028e-10
9.72177e-11
6.15467e-10
3.37101e-11
4.99991e-10
2.29036e-10
4.8086e-12
-1.94709e-10
-1.10673e-11
-3.4384e-10
-7.28189e-11
-3.01034e-10
-2.01282e-10
-1.03667e-10
-4.13733e-10
2.18001e-10
-7.24367e-10
6.38203e-10
-1.14467e-09
1.13506e-09
-1.68372e-09
1.69011e-09
-2.34845e-09
2.28783e-09
-3.14387e-09
2.91515e-09
-4.07331e-09
3.56116e-09
-5.13859e-09
4.21676e-09
-6.34022e-09
4.87438e-09
-7.67759e-09
5.52777e-09
-9.14908e-09
6.17177e-09
-1.07522e-08
6.80215e-09
-1.24839e-08
7.41544e-09
-1.43403e-08
8.00885e-09
-1.63172e-08
8.58013e-09
-1.84098e-08
9.12751e-09
-2.06132e-08
9.64959e-09
-2.29221e-08
1.01453e-08
-2.53309e-08
1.06139e-08
-2.78341e-08
1.10548e-08
-3.04257e-08
1.14676e-08
-3.31e-08
1.18522e-08
-3.5851e-08
1.22086e-08
-3.86727e-08
1.25367e-08
-4.15592e-08
1.28368e-08
-4.45046e-08
1.3109e-08
-4.75031e-08
1.33538e-08
-5.05486e-08
1.35714e-08
-5.36355e-08
1.37622e-08
-5.67581e-08
1.39267e-08
-5.99107e-08
1.40654e-08
-6.30878e-08
1.41786e-08
-6.62839e-08
1.4267e-08
-6.94936e-08
1.43309e-08
-7.27117e-08
1.43709e-08
-7.59329e-08
1.43875e-08
-7.91523e-08
1.43811e-08
-8.23648e-08
1.43523e-08
-8.55656e-08
1.43015e-08
-8.87498e-08
1.42292e-08
-9.19128e-08
1.41358e-08
-9.50499e-08
1.40219e-08
-9.81567e-08
1.38878e-08
-1.01229e-07
1.37339e-08
-1.04262e-07