/*--------------------------------*- C++ -*----------------------------------*\
  =========                 |
  \\      /  F ield         | OpenFOAM: The Open Source CFD Toolbox
   \\    /   O peration     | Website:  https://openfoam.org
    \\  /    A nd           | Version:  7
     \\/     M anipulation  |
\*---------------------------------------------------------------------------*/
FoamFile
{
    version     2.0;
    format      ascii;
    class       surfaceScalarField;
    location    "0.475";
    object      phi;
}
// * * * * * * * * * * * * * * * * * * * * * * * * * * * * * * * * * * * * * //

dimensions      [0 3 -1 0 0 0 0];

internalField   nonuniform List<scalar> 
50880
(
1.63006e-11
-1.62845e-11
4.30546e-11
-2.67614e-11
6.25129e-11
-1.94505e-11
6.59131e-11
-3.40015e-12
4.93974e-11
1.65149e-11
1.18568e-11
3.7538e-11
-4.64074e-11
5.8265e-11
-1.24368e-10
7.79579e-11
-2.20614e-10
9.62492e-11
-3.33584e-10
1.12972e-10
-4.61661e-10
1.28078e-10
-6.03268e-10
1.41608e-10
-7.56916e-10
1.53645e-10
-9.21192e-10
1.64276e-10
-1.09479e-09
1.73595e-10
-1.2765e-09
1.81712e-10
-1.46523e-09
1.88738e-10
-1.66e-09
1.94771e-10
-1.85991e-09
1.99907e-10
-2.06415e-09
2.04242e-10
-2.27201e-09
2.0786e-10
-2.48285e-09
2.10841e-10
-2.69611e-09
2.13257e-10
-2.91128e-09
2.15171e-10
-3.12792e-09
2.16641e-10
-3.34565e-09
2.17725e-10
-3.56411e-09
2.18466e-10
-3.78301e-09
2.18902e-10
-4.00208e-09
2.19071e-10
-4.22109e-09
2.19009e-10
-4.43984e-09
2.18743e-10
-4.65813e-09
2.1829e-10
-4.87579e-09
2.17669e-10
-5.09269e-09
2.16897e-10
-5.30868e-09
2.1599e-10
-5.52364e-09
2.14956e-10
-5.73744e-09
2.13802e-10
-5.94998e-09
2.12535e-10
-6.16113e-09
2.11156e-10
-6.37079e-09
2.09663e-10
-6.57885e-09
2.08054e-10
-6.78518e-09
2.06334e-10
-6.98968e-09
2.045e-10
-7.19223e-09
2.02548e-10
-7.3927e-09
2.00468e-10
-7.59095e-09
1.9825e-10
-7.78684e-09
1.9589e-10
-7.98022e-09
1.93384e-10
-8.17094e-09
1.90724e-10
-8.35885e-09
1.87903e-10
-8.54376e-09
1.84908e-10
-8.72548e-09
1.8173e-10
-8.90384e-09
1.78359e-10
-9.07863e-09
1.74788e-10
-9.24964e-09
1.7101e-10
-9.41665e-09
1.67015e-10
-9.57945e-09
1.62794e-10
-9.73778e-09
1.58337e-10
-9.89142e-09
1.53638e-10
-1.00401e-08
1.48687e-10
-1.01836e-08
1.43479e-10
-1.03216e-08
1.38007e-10
-1.04539e-08
1.32267e-10
-1.05801e-08
1.26252e-10
-1.07001e-08
1.19957e-10
-1.08135e-08
1.1338e-10
-1.092e-08
1.06517e-10
-1.10193e-08
9.93681e-11
-1.11113e-08
9.19339e-11
-1.11955e-08
8.42148e-11
-1.12717e-08
7.6213e-11
-1.13396e-08
6.79314e-11
-1.1399e-08
5.93743e-11
-1.14496e-08
5.05484e-11
-1.1491e-08
4.14616e-11
-1.15231e-08
3.21238e-11
-1.15457e-08
2.25465e-11
-1.15584e-08
1.27415e-11
-1.15612e-08
2.72263e-12
-1.15537e-08
-7.49427e-12
-1.15358e-08
-1.78919e-11
-1.15073e-08
-2.84507e-11
-1.14682e-08
-3.91498e-11
-1.14182e-08
-4.99673e-11
-1.13573e-08
-6.08796e-11
-1.12855e-08
-7.18616e-11
-1.12026e-08
-8.28872e-11
-1.11086e-08
-9.3928e-11
-1.10037e-08
-1.04955e-10
-1.08878e-08
-1.15937e-10
-1.07609e-08
-1.26843e-10
-1.06233e-08
-1.37641e-10
-1.0475e-08
-1.48301e-10
-1.03162e-08
-1.58787e-10
-1.01471e-08
-1.69066e-10
-9.96802e-09
-1.79104e-10
-9.77915e-09
-1.88867e-10
-9.58083e-09
-1.98323e-10
-9.37339e-09
-2.07438e-10
-9.15721e-09
-2.16179e-10
-8.9327e-09
-2.24514e-10
-8.70029e-09
-2.32413e-10
-8.46044e-09
-2.39846e-10
-8.21366e-09
-2.46783e-10
-7.96046e-09
-2.53199e-10
-7.70139e-09
-2.59067e-10
-7.43703e-09
-2.64365e-10
-7.16795e-09
-2.69072e-10
-6.89479e-09
-2.73167e-10
-6.61815e-09
-2.76634e-10
-6.3387e-09
-2.79457e-10
-6.05707e-09
-2.81624e-10
-5.77395e-09
-2.83124e-10
-5.49e-09
-2.83951e-10
-5.2059e-09
-2.84098e-10
-4.92233e-09
-2.83564e-10
-4.63999e-09
-2.82349e-10
-4.35953e-09
-2.80453e-10
-4.08165e-09
-2.77883e-10
-3.80701e-09
-2.74644e-10
-3.53626e-09
-2.70746e-10
-3.27006e-09
-2.66201e-10
-3.00903e-09
-2.61023e-10
-2.75381e-09
-2.55226e-10
-2.50498e-09
-2.48827e-10
-2.26314e-09
-2.41845e-10
-2.02884e-09
-2.34302e-10
-1.80262e-09
-2.26219e-10
-1.585e-09
-2.1762e-10
-1.37647e-09
-2.08528e-10
-1.1775e-09
-1.98968e-10
-9.88532e-10
-1.8897e-10
-8.09971e-10
-1.7856e-10
-6.42202e-10
-1.67769e-10
-4.85578e-10
-1.56624e-10
-3.40422e-10
-1.45157e-10
-2.07021e-10
-1.33401e-10
-8.56306e-11
-1.21391e-10
2.35325e-11
-1.09164e-10
1.2029e-10
-9.67579e-11
2.04502e-10
-8.42134e-11
2.76079e-10
-7.15771e-11
3.34979e-10
-5.89009e-11
3.81224e-10
-4.62437e-11
4.14896e-10
-3.36726e-11
4.36161e-10
-2.1265e-11
4.45275e-10
-9.11345e-12
4.42606e-10
2.66923e-12
4.28662e-10
1.39443e-11
4.04121e-10
2.45411e-11
3.69878e-10
3.42432e-11
3.27107e-10
4.27709e-11
2.77345e-10
4.97602e-11
2.22612e-10
5.47323e-11
1.65562e-10
5.70494e-11
1.0969e-10
5.58709e-11
5.95414e-11
5.01481e-11
2.08903e-11
3.86511e-11
4.15111e-13
2.04756e-11
4.15913e-13
2.6446e-11
-4.2737e-11
5.74406e-11
-5.77459e-11
6.55372e-11
-2.75488e-11
3.44955e-11
2.76418e-11
-4.44505e-11
9.54602e-11
-1.75125e-10
1.68215e-10
-3.5805e-10
2.41188e-10
-5.91699e-10
3.11611e-10
-8.73372e-10
3.77919e-10
-1.1997e-09
4.39293e-10
-1.56698e-09
4.95367e-10
-1.97145e-09
5.46079e-10
-2.40937e-09
5.91567e-10
-2.87715e-09
6.32055e-10
-3.37139e-09
6.67831e-10
-3.88891e-09
6.99234e-10
-4.42677e-09
7.26605e-10
-4.98228e-09
7.50283e-10
-5.55298e-09
7.70603e-10
-6.13663e-09
7.87892e-10
-6.73123e-09
8.02454e-10
-7.33496e-09
8.1457e-10
-7.94619e-09
8.24496e-10
-8.56349e-09
8.32472e-10
-9.18557e-09
8.38717e-10
-9.81127e-09
8.43425e-10
-1.04396e-08
8.46771e-10
-1.10696e-08
8.48909e-10
-1.17005e-08
8.49975e-10
-1.23316e-08
8.50091e-10
-1.29622e-08
8.49361e-10
-1.35918e-08
8.4787e-10
-1.42198e-08
8.45693e-10
-1.48458e-08
8.42893e-10
-1.54693e-08
8.3952e-10
-1.609e-08
8.35612e-10
-1.67074e-08
8.31202e-10
-1.73212e-08
8.26313e-10
-1.7931e-08
8.20955e-10
-1.85364e-08
8.15133e-10
-1.91372e-08
8.08846e-10
-1.9733e-08
8.02093e-10
-2.03233e-08
7.94865e-10
-2.09079e-08
7.87146e-10
-2.14864e-08
7.78915e-10
-2.20583e-08
7.7015e-10
-2.26232e-08
7.60825e-10
-2.31808e-08
7.50915e-10
-2.37304e-08
7.40394e-10
-2.42717e-08
7.29231e-10
-2.48042e-08
7.17392e-10
-2.53273e-08
7.04844e-10
-2.58405e-08
6.91553e-10
-2.63432e-08
6.77488e-10
-2.68348e-08
6.62618e-10
-2.73147e-08
6.46909e-10
-2.77823e-08
6.3033e-10
-2.82368e-08
6.12848e-10
-2.86776e-08
5.94436e-10
-2.9104e-08
5.75066e-10
-2.95152e-08
5.54713e-10
-2.99105e-08
5.33355e-10
-3.02892e-08
5.1097e-10
-3.06505e-08
4.8754e-10
-3.09936e-08
4.63049e-10
-3.13177e-08
4.37487e-10
-3.16221e-08
4.10845e-10
-3.19058e-08
3.83122e-10
-3.21682e-08
3.54318e-10
-3.24084e-08
3.24436e-10
-3.26257e-08
2.93487e-10
-3.28192e-08
2.61485e-10
-3.29883e-08
2.28449e-10
-3.31322e-08
1.94404e-10
-3.32501e-08
1.59383e-10
-3.33414e-08
1.23421e-10
-3.34054e-08
8.65609e-11
-3.34415e-08
4.88504e-11
-3.34491e-08
1.03434e-11
-3.34277e-08
-2.8899e-11
-3.33768e-08
-6.88102e-11
-3.3296e-08
-1.09318e-10
-3.31848e-08
-1.50343e-10
-3.30429e-08
-1.91803e-10
-3.28702e-08
-2.33607e-10
-3.26664e-08
-2.75659e-10
-3.24314e-08
-3.1786e-10
-3.21653e-08
-3.60105e-10
-3.18679e-08
-4.02284e-10
-3.15396e-08
-4.44282e-10
-3.11804e-08
-4.85984e-10
-3.07908e-08
-5.2727e-10
-3.03711e-08
-5.68016e-10
-2.99218e-08
-6.08099e-10
-2.94435e-08
-6.47392e-10
-2.89368e-08
-6.85769e-10
-2.84025e-08
-7.23104e-10
-2.78416e-08
-7.59272e-10
-2.72549e-08
-7.94148e-10
-2.66435e-08
-8.2761e-10
-2.60084e-08
-8.59538e-10
-2.5351e-08
-8.89818e-10
-2.46725e-08
-9.18337e-10
-2.39743e-08
-9.4499e-10
-2.32579e-08
-9.69675e-10
-2.25246e-08
-9.92297e-10
-2.17762e-08
-1.01277e-09
-2.10143e-08
-1.03101e-09
-2.02405e-08
-1.04694e-09
-1.94566e-08
-1.0605e-09
-1.86645e-08
-1.07164e-09
-1.78658e-08
-1.0803e-09
-1.70625e-08
-1.08645e-09
-1.62564e-08
-1.09005e-09
-1.54494e-08
-1.09108e-09
-1.46434e-08
-1.08953e-09
-1.38403e-08
-1.08541e-09
-1.30421e-08
-1.07871e-09
-1.22505e-08
-1.06946e-09
-1.14675e-08
-1.05767e-09
-1.06948e-08
-1.04338e-09
-9.93441e-09
-1.02663e-09
-9.18797e-09
-1.00747e-09
-8.45725e-09
-9.85949e-10
-7.74394e-09
-9.62135e-10
-7.04969e-09
-9.36096e-10
-6.37609e-09
-9.07908e-10
-5.72466e-09
-8.77651e-10
-5.09686e-09
-8.45412e-10
-4.49411e-09
-8.11283e-10
-3.91772e-09
-7.75359e-10
-3.36895e-09
-7.37742e-10
-2.84897e-09
-6.98536e-10
-2.35889e-09
-6.57854e-10
-1.8997e-09
-6.15811e-10
-1.47234e-09
-5.72525e-10
-1.07761e-09
-5.28124e-10
-7.16265e-10
-4.82743e-10
-3.88903e-10
-4.36527e-10
-9.60321e-11
-3.89629e-10
1.61972e-10
-3.42219e-10
3.84874e-10
-2.94479e-10
5.72591e-10
-2.4662e-10
7.2522e-10
-1.98874e-10
8.4306e-10
-1.51514e-10
9.26647e-10
-1.0485e-10
9.76788e-10
-5.9254e-11
9.94624e-10
-1.5168e-11
9.81694e-10
2.6873e-11
9.40015e-10
6.62194e-11
8.72195e-10
1.02064e-10
7.81563e-10
1.33402e-10
6.72339e-10
1.58982e-10
5.49836e-10
1.77234e-10
4.20674e-10
1.86211e-10
2.92979e-10
1.83566e-10
1.76436e-10
1.66692e-10
8.19605e-11
1.33128e-10
2.0409e-11
8.20284e-11
2.08257e-11
1.96898e-11
-6.2419e-11
2.77218e-11
-6.57793e-11
-5.53175e-12
5.70261e-12
-9.84552e-11
1.20563e-10
-2.62006e-10
2.59013e-10
-5.01421e-10
4.07627e-10
-8.179e-10
5.57673e-10
-1.20992e-09
7.03633e-10
-1.67417e-09
8.42164e-10
-2.20623e-09
9.71353e-10
-2.80108e-09
1.09022e-09
-3.45344e-09
1.19844e-09
-4.15794e-09
1.29607e-09
-4.90935e-09
1.38346e-09
-5.70262e-09
1.46111e-09
-6.53301e-09
1.52962e-09
-7.39604e-09
1.58964e-09
-8.2876e-09
1.64184e-09
-9.20388e-09
1.68688e-09
-1.01414e-08
1.72542e-09
-1.1097e-08
1.75807e-09
-1.20679e-08
1.78541e-09
-1.30513e-08
1.80798e-09
-1.40451e-08
1.82628e-09
-1.50472e-08
1.84076e-09
-1.60556e-08
1.85184e-09
-1.70687e-08
1.85989e-09
-1.80851e-08
1.86524e-09
-1.91033e-08
1.86818e-09
-2.01221e-08
1.86897e-09
-2.11406e-08
1.86784e-09
-2.21577e-08
1.86497e-09
-2.31726e-08
1.86053e-09
-2.41843e-08
1.85466e-09
-2.51923e-08
1.84747e-09
-2.61957e-08
1.83905e-09
-2.7194e-08
1.82946e-09
-2.81864e-08
1.81876e-09
-2.91725e-08
1.80698e-09
-3.01515e-08
1.79413e-09
-3.11228e-08
1.78022e-09
-3.2086e-08
1.76524e-09
-3.30403e-08
1.74918e-09
-3.39851e-08
1.732e-09
-3.49199e-08
1.71366e-09
-3.58439e-08
1.69413e-09
-3.67564e-08
1.67334e-09
-3.76567e-08
1.65125e-09
-3.85441e-08
1.6278e-09
-3.94178e-08
1.60292e-09
-4.0277e-08
1.57655e-09
-4.11207e-08
1.54862e-09
-4.19482e-08
1.51905e-09
-4.27585e-08
1.48778e-09
-4.35507e-08
1.45475e-09
-4.43236e-08
1.41988e-09
-4.50764e-08
1.38311e-09
-4.58079e-08
1.34437e-09
-4.65171e-08
1.3036e-09
-4.72028e-08
1.26076e-09
-4.78639e-08
1.21577e-09
-4.84991e-08
1.1686e-09
-4.91073e-08
1.1192e-09
-4.96873e-08
1.06755e-09
-5.02379e-08
1.01359e-09
-5.07577e-08
9.57323e-10
-5.12456e-08
8.98724e-10
-5.17003e-08
8.3779e-10
-5.21205e-08
7.74524e-10
-5.2505e-08
7.0894e-10
-5.28525e-08
6.41059e-10
-5.3162e-08
5.70914e-10
-5.34321e-08
4.98551e-10
-5.36617e-08
4.24026e-10
-5.38497e-08
3.47407e-10
-5.39951e-08
2.68777e-10
-5.40967e-08
1.88226e-10
-5.41538e-08
1.05861e-10
-5.41652e-08
2.18002e-11
-5.41303e-08
-6.38249e-11
-5.40482e-08
-1.50869e-10
-5.39184e-08
-2.39176e-10
-5.37401e-08
-3.28575e-10
-5.35131e-08
-4.18884e-10
-5.32368e-08
-5.0991e-10
-5.2911e-08
-6.01447e-10
-5.25356e-08
-6.9328e-10
-5.21105e-08
-7.85182e-10
-5.16358e-08
-8.76917e-10
-5.11119e-08
-9.68241e-10
-5.0539e-08
-1.0589e-09
-4.99176e-08
-1.14865e-09
-4.92484e-08
-1.23721e-09
-4.85322e-08
-1.32433e-09
-4.77698e-08
-1.40973e-09
-4.69625e-08
-1.49314e-09
-4.61113e-08
-1.57429e-09
-4.52176e-08
-1.65292e-09
-4.4283e-08
-1.72876e-09
-4.33091e-08
-1.80154e-09
-4.22976e-08
-1.87102e-09
-4.12505e-08
-1.93694e-09
-4.01698e-08
-1.99907e-09
-3.90576e-08
-2.05717e-09
-3.79162e-08
-2.11104e-09
-3.6748e-08
-2.16047e-09
-3.55555e-08
-2.20528e-09
-3.43412e-08
-2.24527e-09
-3.31079e-08
-2.28031e-09
-3.18581e-08
-2.31024e-09
-3.05948e-08
-2.33495e-09
-2.93208e-08
-2.35434e-09
-2.80389e-08
-2.3683e-09
-2.67522e-08
-2.37679e-09
-2.54635e-08
-2.37975e-09
-2.41759e-08
-2.37715e-09
-2.28923e-08
-2.36899e-09
-2.16158e-08
-2.35528e-09
-2.03492e-08
-2.33605e-09
-1.90955e-08
-2.31135e-09
-1.78576e-08
-2.28124e-09
-1.66385e-08
-2.24581e-09
-1.54408e-08
-2.20515e-09
-1.42673e-08
-2.15939e-09
-1.31208e-08
-2.10866e-09
-1.20038e-08
-2.0531e-09
-1.09188e-08
-1.99288e-09
-9.86834e-09
-1.92815e-09
-8.85464e-09
-1.85911e-09
-7.87998e-09
-1.78595e-09
-6.94646e-09
-1.70888e-09
-6.05609e-09
-1.62811e-09
-5.21074e-09
-1.54388e-09
-4.41218e-09
-1.45642e-09
-3.66201e-09
-1.36598e-09
-2.9617e-09
-1.27283e-09
-2.31257e-09
-1.17725e-09
-1.71578e-09
-1.07954e-09
-1.1723e-09
-9.80007e-10
-6.82924e-10
-8.79006e-10
-2.48231e-10
-7.76911e-10
1.31428e-10
-6.74138e-10
4.5596e-10
-5.71152e-10
7.25561e-10
-4.68476e-10
9.40759e-10
-3.66712e-10
1.10247e-09
-2.66556e-10
1.21203e-09
-1.68822e-10
1.27134e-09
-7.44716e-11
1.28287e-09
1.53425e-11
1.24984e-09
9.92459e-11
1.17635e-09
1.75558e-10
1.0675e-09
2.42249e-10
9.2963e-10
2.96852e-10
7.70476e-10
3.36388e-10
5.99368e-10
3.57318e-10
4.27336e-10
3.55598e-10
2.67063e-10
3.26967e-10
1.32534e-10
2.67658e-10
3.83623e-11
1.76201e-10
5.91889e-11
3.67733e-12
-6.60966e-11
-2.75896e-11
-3.45116e-11
-1.21036e-10
9.91457e-11
-2.94445e-10
2.93974e-10
-5.58603e-10
5.23168e-10
-9.18933e-10
7.67959e-10
-1.37676e-09
1.0155e-09
-1.93045e-09
1.25732e-09
-2.57627e-09
1.48799e-09
-3.30916e-09
1.70424e-09
-4.1232e-09
1.90426e-09
-5.01204e-09
2.08728e-09
-5.96916e-09
2.25319e-09
-6.98807e-09
2.40238e-09
-8.06249e-09
2.53553e-09
-9.1864e-09
2.65353e-09
-1.03541e-08
2.75736e-09
-1.15603e-08
2.84805e-09
-1.28001e-08
2.92666e-09
-1.40689e-08
2.99424e-09
-1.53626e-08
3.05176e-09
-1.66774e-08
3.10019e-09
-1.80098e-08
3.14041e-09
-1.93568e-08
3.17324e-09
-2.07155e-08
3.19945e-09
-2.20833e-08
3.21972e-09
-2.34581e-08
3.23467e-09
-2.48378e-08
3.24487e-09
-2.62204e-08
3.25082e-09
-2.76044e-08
3.25295e-09
-2.89882e-08
3.25166e-09
-3.03705e-08
3.24725e-09
-3.175e-08
3.24003e-09
-3.31255e-08
3.23022e-09
-3.44961e-08
3.21802e-09
-3.58606e-08
3.2036e-09
-3.72182e-08
3.18706e-09
-3.8568e-08
3.16851e-09
-3.9909e-08
3.14799e-09
-4.12404e-08
3.12555e-09
-4.25614e-08
3.1012e-09
-4.38711e-08
3.07492e-09
-4.51686e-08
3.0467e-09
-4.64531e-08
3.01648e-09
-4.77236e-08
2.9842e-09
-4.89793e-08
2.9498e-09
-5.02191e-08
2.91319e-09
-5.14422e-08
2.87427e-09
-5.26473e-08
2.83296e-09
-5.38335e-08
2.78914e-09
-5.49997e-08
2.74271e-09
-5.61446e-08
2.69355e-09
-5.72671e-08
2.64155e-09
-5.83659e-08
2.5866e-09
-5.94398e-08
2.52857e-09
-6.04872e-08
2.46736e-09
-6.1507e-08
2.40285e-09
-6.24976e-08
2.33495e-09
-6.34575e-08
2.26354e-09
-6.43853e-08
2.18854e-09
-6.52794e-08
2.10986e-09
-6.61382e-08
2.02741e-09
-6.69601e-08
1.94114e-09
-6.77436e-08
1.85098e-09
-6.84869e-08
1.75689e-09
-6.91883e-08
1.65882e-09
-6.98464e-08
1.55676e-09
-7.04593e-08
1.4507e-09
-7.10254e-08
1.34066e-09
-7.15431e-08
1.22665e-09
-7.20108e-08
1.10872e-09
-7.24268e-08
9.86931e-10
-7.27896e-08
8.61362e-10
-7.30977e-08
7.32114e-10
-7.33496e-08
5.99306e-10
-7.35439e-08
4.6308e-10
-7.36793e-08
3.23597e-10
-7.37545e-08
1.81041e-10
-7.37683e-08
3.56177e-11
-7.37197e-08
-1.12446e-10
-7.36076e-08
-2.62902e-10
-7.34313e-08
-4.15478e-10
-7.319e-08
-5.69883e-10
-7.28831e-08
-7.25804e-10
-7.25101e-08
-8.82909e-10
-7.20707e-08
-1.04085e-09
-7.15647e-08
-1.19925e-09
-7.09922e-08
-1.35773e-09
-7.03532e-08
-1.51588e-09
-6.96482e-08
-1.6733e-09
-6.88775e-08
-1.82954e-09
-6.8042e-08
-1.98418e-09
-6.71425e-08
-2.13676e-09
-6.618e-08
-2.28684e-09
-6.51557e-08
-2.43395e-09
-6.40712e-08
-2.57764e-09
-6.29281e-08
-2.71744e-09
-6.17281e-08
-2.85291e-09
-6.04733e-08
-2.98358e-09
-5.91658e-08
-3.10902e-09
-5.7808e-08
-3.2288e-09
-5.64025e-08
-3.34249e-09
-5.49518e-08
-3.4497e-09
-5.3459e-08
-3.55002e-09
-5.19269e-08
-3.64311e-09
-5.03588e-08
-3.7286e-09
-4.87579e-08
-3.80619e-09
-4.71276e-08
-3.87557e-09
-4.54714e-08
-3.93648e-09
-4.3793e-08
-3.98867e-09
-4.2096e-08
-4.03193e-09
-4.03843e-08
-4.0661e-09
-3.86616e-08
-4.09101e-09
-3.69318e-08
-4.10656e-09
-3.51989e-08
-4.11266e-09
-3.34668e-08
-4.10926e-09
-3.17394e-08
-4.09635e-09
-3.00208e-08
-4.07394e-09
-2.83147e-08
-4.04208e-09
-2.66252e-08
-4.00085e-09
-2.49561e-08
-3.95036e-09
-2.33111e-08
-3.89075e-09
-2.16941e-08
-3.82218e-09
-2.01087e-08
-3.74484e-09
-1.85584e-08
-3.65896e-09
-1.70467e-08
-3.56479e-09
-1.5577e-08
-3.46258e-09
-1.41525e-08
-3.35263e-09
-1.27764e-08
-3.23525e-09
-1.14516e-08
-3.11077e-09
-1.01809e-08
-2.97954e-09
-8.96708e-09
-2.84193e-09
-7.81263e-09
-2.69834e-09
-6.71988e-09
-2.54917e-09
-5.69101e-09
-2.39486e-09
-4.72798e-09
-2.23586e-09
-3.83255e-09
-2.07268e-09
-3.00627e-09
-1.90582e-09
-2.25044e-09
-1.73584e-09
-1.56609e-09
-1.56335e-09
-9.53981e-10
-1.38902e-09
-4.14551e-10
-1.21357e-09
5.21115e-11
-1.03782e-09
4.46316e-10
-8.6268e-10
7.68815e-10
-6.89212e-10
1.02087e-09
-5.18616e-10
1.20435e-09
-3.52296e-10
1.32177e-09
-1.91891e-10
1.37645e-09
-3.93366e-11
1.37262e-09
1.03073e-10
1.31557e-09
2.32605e-10
1.21181e-09
3.46011e-10
1.06923e-09
4.39432e-10
8.97288e-10
5.08332e-10
7.07129e-10
5.47477e-10
5.11685e-10
5.51043e-10
3.25669e-10
5.12983e-10
1.65527e-10
4.278e-10
4.95709e-11
2.92159e-10
1.0876e-10
-1.64612e-11
-4.96369e-11
-9.65525e-11
4.55785e-11
-2.62215e-10
2.6481e-10
-5.28353e-10
5.60107e-10
-9.04182e-10
8.99001e-10
-1.39426e-09
1.25803e-09
-1.99938e-09
1.62062e-09
-2.71748e-09
1.97542e-09
-3.54441e-09
2.31492e-09
-4.47454e-09
2.63437e-09
-5.50128e-09
2.93101e-09
-6.61752e-09
3.20351e-09
-7.81586e-09
3.45152e-09
-9.0889e-09
3.67541e-09
-1.04294e-08
3.87601e-09
-1.18303e-08
4.05444e-09
-1.3285e-08
4.21204e-09
-1.47871e-08
4.35023e-09
-1.6331e-08
4.47048e-09
-1.7911e-08
4.57426e-09
-1.95222e-08
4.66298e-09
-2.116e-08
4.73801e-09
-2.28202e-08
4.80063e-09
-2.44991e-08
4.85205e-09
-2.6193e-08
4.89337e-09
-2.78989e-08
4.92561e-09
-2.96139e-08
4.94969e-09
-3.13355e-08
4.96644e-09
-3.30612e-08
4.97661e-09
-3.47891e-08
4.98084e-09
-3.65172e-08
4.97972e-09
-3.82437e-08
4.97374e-09
-3.9967e-08
4.96333e-09
-4.16856e-08
4.94885e-09
-4.33982e-08
4.9306e-09
-4.51034e-08
4.90881e-09
-4.68e-08
4.88368e-09
-4.84869e-08
4.85535e-09
-5.01628e-08
4.82392e-09
-5.18267e-08
4.78945e-09
-5.34775e-08
4.75195e-09
-5.5114e-08
4.71142e-09
-5.67351e-08
4.66783e-09
-5.83397e-08
4.62111e-09
-5.99267e-08
4.57117e-09
-6.14948e-08
4.51792e-09
-6.30429e-08
4.46124e-09
-6.45696e-08
4.40099e-09
-6.60737e-08
4.33703e-09
-6.75537e-08
4.26921e-09
-6.90084e-08
4.19737e-09
-7.04362e-08
4.12133e-09
-7.18355e-08
4.04094e-09
-7.3205e-08
3.95602e-09
-7.45428e-08
3.8664e-09
-7.58474e-08
3.77193e-09
-7.71169e-08
3.67243e-09
-7.83498e-08
3.56776e-09
-7.9544e-08
3.45777e-09
-8.06978e-08
3.34231e-09
-8.18092e-08
3.22127e-09
-8.28763e-08
3.09453e-09
-8.38971e-08
2.96198e-09
-8.48697e-08
2.82355e-09
-8.5792e-08
2.67918e-09
-8.6662e-08
2.5288e-09
-8.74776e-08
2.3724e-09
-8.82369e-08
2.20997e-09
-8.89377e-08
2.04153e-09
-8.95782e-08
1.86712e-09
-9.01563e-08
1.68682e-09
-9.06701e-08
1.50072e-09
-9.11177e-08
1.30895e-09
-9.14973e-08
1.11166e-09
-9.1807e-08
9.09033e-10
-9.20452e-08
7.01293e-10
-9.22103e-08
4.88686e-10
-9.23007e-08
2.71492e-10
-9.23151e-08
5.00268e-11
-9.22522e-08
-1.75366e-10
-9.21108e-08
-4.04307e-10
-9.18899e-08
-6.36388e-10
-9.15886e-08
-8.71164e-10
-9.12063e-08
-1.10817e-09
-9.07423e-08
-1.34689e-09
-9.01963e-08
-1.5868e-09
-8.95682e-08
-1.82735e-09
-8.8858e-08
-2.06796e-09
-8.80659e-08
-2.30801e-09
-8.71923e-08
-2.54689e-09
-8.62379e-08
-2.78395e-09
-8.52035e-08
-3.01853e-09
-8.40903e-08
-3.24996e-09
-8.28996e-08
-3.47757e-09
-8.16329e-08
-3.70066e-09
-8.0292e-08
-3.91856e-09
-7.88788e-08
-4.13056e-09
-7.73957e-08
-4.336e-09
-7.58451e-08
-4.53419e-09
-7.42297e-08
-4.72447e-09
-7.25523e-08
-4.90621e-09
-7.0816e-08
-5.07876e-09
-6.90242e-08
-5.24152e-09
-6.71803e-08
-5.39392e-09
-6.5288e-08
-5.53541e-09
-6.33511e-08
-5.66547e-09
-6.13737e-08
-5.78362e-09
-5.93598e-08
-5.88941e-09
-5.73139e-08
-5.98245e-09
-5.52402e-08
-6.06237e-09
-5.31433e-08
-6.12886e-09
-5.10277e-08
-6.18164e-09
-4.88982e-08
-6.22051e-09
-4.67595e-08
-6.24527e-09
-4.46163e-08
-6.25581e-09
-4.24735e-08
-6.25205e-09
-4.03359e-08
-6.23396e-09
-3.82083e-08
-6.20156e-09
-3.60955e-08
-6.15491e-09
-3.40022e-08
-6.09414e-09
-3.19332e-08
-6.01939e-09
-2.98931e-08
-5.93088e-09
-2.78864e-08
-5.82884e-09
-2.59177e-08
-5.71357e-09
-2.39912e-08
-5.58538e-09
-2.21114e-08
-5.44464e-09
-2.02822e-08
-5.29175e-09
-1.85077e-08
-5.12714e-09
-1.67917e-08
-4.95127e-09
-1.51378e-08
-4.76464e-09
-1.35496e-08
-4.56778e-09
-1.20303e-08
-4.36124e-09
-1.0583e-08
-4.14562e-09
-9.21062e-09
-3.92154e-09
-7.91582e-09
-3.68965e-09
-6.70101e-09
-3.45067e-09
-5.56835e-09
-3.20534e-09
-4.51973e-09
-2.95444e-09
-3.55671e-09
-2.69885e-09
-2.68057e-09
-2.4395e-09
-1.8922e-09
-2.17739e-09
-1.19211e-09
-1.91366e-09
-5.80369e-10
-1.64956e-09
-5.6557e-11
-1.38649e-09
3.80292e-10
-1.12606e-09
7.31762e-10
-8.70088e-10
1.00015e-09
-6.20682e-10
1.18854e-09
-3.80283e-10
1.30094e-09
-1.51742e-10
1.34241e-09
6.16057e-11
1.31917e-09
2.5585e-10
1.23876e-09
4.26414e-10
1.11024e-09
5.67959e-10
9.44241e-10
6.74329e-10
7.53177e-10
7.38541e-10
5.51303e-10
7.52917e-10
3.54864e-10
7.09421e-10
1.82334e-10
6.0033e-10
5.51009e-11
4.19394e-10
1.6386e-10
-3.80832e-11
-1.15555e-11
-1.71817e-10
1.79314e-10
-4.16448e-10
5.09439e-10
-7.82724e-10
9.26385e-10
-1.27722e-09
1.3935e-09
-1.90279e-09
1.8836e-09
-2.65911e-09
2.37695e-09
-3.54336e-09
2.85967e-09
-4.55075e-09
3.32231e-09
-5.67507e-09
3.75869e-09
-6.90915e-09
4.1651e-09
-8.24524e-09
4.5396e-09
-9.67527e-09
4.88156e-09
-1.11911e-08
5.19126e-09
-1.27848e-08
5.46965e-09
-1.44484e-08
5.7181e-09
-1.61746e-08
5.93827e-09
-1.79564e-08
6.13197e-09
-1.9787e-08
6.30111e-09
-2.16603e-08
6.44759e-09
-2.35706e-08
6.57328e-09
-2.55126e-08
6.68e-09
-2.74815e-08
6.76945e-09
-2.94727e-08
6.84326e-09
-3.14822e-08
6.90292e-09
-3.35064e-08
6.9498e-09
-3.55419e-08
6.98516e-09
-3.75856e-08
7.01013e-09
-3.96347e-08
7.02573e-09
-4.16867e-08
7.03287e-09
-4.37393e-08
7.03233e-09
-4.57904e-08
7.02481e-09
-4.78379e-08
7.01089e-09
-4.98802e-08
6.99109e-09
-5.19154e-08
6.96582e-09
-5.3942e-08
6.93543e-09
-5.59585e-08
6.90017e-09
-5.79634e-08
6.86026e-09
-5.99553e-08
6.81583e-09
-6.19329e-08
6.76699e-09
-6.38947e-08
6.71375e-09
-6.58394e-08
6.65613e-09
-6.77656e-08
6.59407e-09
-6.9672e-08
6.52751e-09
-7.15572e-08
6.45632e-09
-7.34196e-08
6.38038e-09
-7.52579e-08
6.29952e-09
-7.70705e-08
6.21357e-09
-7.88558e-08
6.12232e-09
-8.06122e-08
6.02559e-09
-8.23379e-08
5.92314e-09
-8.40314e-08
5.81476e-09
-8.56906e-08
5.70021e-09
-8.73139e-08
5.57928e-09
-8.88992e-08
5.45172e-09
-9.04446e-08
5.31732e-09
-9.1948e-08
5.17585e-09
-9.34074e-08
5.02712e-09
-9.48205e-08
4.87091e-09
-9.61853e-08
4.70705e-09
-9.74993e-08
4.53536e-09
-9.87605e-08
4.3557e-09
-9.99665e-08
4.16793e-09
-1.01115e-07
3.97194e-09
-1.02203e-07
3.76764e-09
-1.0323e-07
3.55499e-09
-1.04191e-07
3.33394e-09
-1.05086e-07
3.1045e-09
-1.05911e-07
2.8667e-09
-1.06664e-07
2.62061e-09
-1.07344e-07
2.36633e-09
-1.07947e-07
2.10401e-09
-1.08472e-07
1.83383e-09
-1.08916e-07
1.556e-09
-1.09278e-07
1.27081e-09
-1.09555e-07
9.78544e-10
-1.09746e-07
6.79566e-10
-1.09849e-07
3.74269e-10
-1.09862e-07
6.30944e-11
-1.09784e-07
-2.53471e-10
-1.09613e-07
-5.74898e-10
-1.09349e-07
-9.00613e-10
-1.0899e-07
-1.23e-09
-1.08536e-07
-1.56239e-09
-1.07986e-07
-1.89709e-09
-1.07339e-07
-2.23336e-09
-1.06596e-07
-2.57043e-09
-1.05757e-07
-2.90748e-09
-1.04821e-07
-3.24368e-09
-1.0379e-07
-3.57816e-09
-1.02664e-07
-3.91003e-09
-1.01444e-07
-4.23837e-09
-1.00131e-07
-4.56226e-09
-9.87283e-08
-4.88075e-09
-9.72361e-08
-5.1929e-09
-9.56569e-08
-5.49776e-09
-9.39931e-08
-5.79436e-09
-9.22473e-08
-6.08178e-09
-9.04224e-08
-6.35908e-09
-8.85215e-08
-6.62535e-09
-8.6548e-08
-6.87968e-09
-8.45056e-08
-7.12122e-09
-8.2398e-08
-7.34914e-09
-8.02293e-08
-7.56262e-09
-7.80037e-08
-7.76092e-09
-7.57259e-08
-7.94332e-09
-7.34003e-08
-8.10916e-09
-7.10319e-08
-8.25783e-09
-6.86256e-08
-8.38876e-09
-6.61865e-08
-8.50146e-09
-6.37199e-08
-8.59549e-09
-6.1231e-08
-8.67049e-09
-5.87254e-08
-8.72614e-09
-5.62085e-08
-8.76219e-09
-5.36858e-08
-8.77847e-09
-5.1163e-08
-8.77487e-09
-4.86456e-08
-8.75135e-09
-4.61392e-08
-8.70793e-09
-4.36494e-08
-8.6447e-09
-4.11818e-08
-8.56181e-09
-3.87417e-08
-8.45948e-09
-3.63346e-08
-8.33798e-09
-3.39658e-08
-8.19764e-09
-3.16405e-08
-8.03886e-09
-2.93638e-08
-7.86208e-09
-2.71406e-08
-7.6678e-09
-2.49758e-08
-7.45656e-09
-2.2874e-08
-7.22896e-09
-2.08396e-08
-6.98565e-09
-1.8877e-08
-6.7273e-09
-1.69901e-08
-6.45465e-09
-1.51829e-08
-6.16848e-09
-1.34589e-08
-5.86961e-09
-1.18215e-08
-5.55892e-09
-1.02738e-08
-5.23733e-09
-8.81867e-09
-4.90582e-09
-7.45855e-09
-4.56545e-09
-6.19565e-09
-4.21735e-09
-5.03179e-09
-3.86271e-09
-3.96841e-09
-3.50287e-09
-3.00654e-09
-3.13926e-09
-2.14674e-09
-2.77347e-09
-1.38904e-09
-2.40726e-09
-7.3293e-10
-2.04261e-09
-1.77249e-10
-1.68174e-09
2.79869e-10
-1.32721e-09
6.41088e-10
-9.81902e-10
9.09968e-10
-6.49162e-10
1.09107e-09
-3.32844e-10
1.19008e-09
-3.74081e-11
1.21395e-09
2.31983e-10
1.171e-09
4.69362e-10
1.07109e-09
6.67872e-10
9.25717e-10
8.19703e-10
7.48168e-10
9.1609e-10
5.53666e-10
9.47418e-10
3.59609e-10
9.03477e-10
1.86004e-10
7.73934e-10
5.63569e-11
5.4904e-10
2.20216e-10
-5.98837e-11
4.83291e-11
-2.48995e-10
3.68422e-10
-5.75626e-10
8.36075e-10
-1.04575e-09
1.39651e-09
-1.66261e-09
2.01035e-09
-2.42673e-09
2.64772e-09
-3.33622e-09
3.28644e-09
-4.38711e-09
3.91056e-09
-5.57376e-09
4.50896e-09
-6.88928e-09
5.07421e-09
-8.3259e-09
5.60172e-09
-9.87526e-09
6.08896e-09
-1.15287e-08
6.53502e-09
-1.32776e-08
6.94011e-09
-1.51132e-08
7.30525e-09
-1.70271e-08
7.63205e-09
-1.90113e-08
7.92249e-09
-2.10581e-08
8.17877e-09
-2.31602e-08
8.40322e-09
-2.53109e-08
8.59821e-09
-2.75037e-08
8.76608e-09
-2.97328e-08
8.90909e-09
-3.19927e-08
9.02943e-09
-3.42786e-08
9.12913e-09
-3.65858e-08
9.21011e-09
-3.89101e-08
9.27413e-09
-4.12478e-08
9.3228e-09
-4.35952e-08
9.35758e-09
-4.59493e-08
9.3798e-09
-4.83071e-08
9.39062e-09
-5.06658e-08
9.39108e-09
-5.30231e-08
9.38208e-09
-5.53766e-08
9.36439e-09
-5.77242e-08
9.33869e-09
-6.00639e-08
9.30553e-09
-6.23938e-08
9.26535e-09
-6.47121e-08
9.21851e-09
-6.70172e-08
9.1653e-09
-6.93072e-08
9.1059e-09
-7.15807e-08
9.04044e-09
-7.38359e-08
8.96899e-09
-7.60714e-08
8.89154e-09
-7.82853e-08
8.80804e-09
-8.04762e-08
8.7184e-09
-8.26424e-08
8.62249e-09
-8.47821e-08
8.52013e-09
-8.68937e-08
8.41112e-09
-8.89754e-08
8.29523e-09
-9.10253e-08
8.17223e-09
-9.30415e-08
8.04183e-09
-9.50222e-08
7.90377e-09
-9.69652e-08
7.75776e-09
-9.88685e-08
7.6035e-09
-1.0073e-07
7.44071e-09
-1.02547e-07
7.26909e-09
-1.04318e-07
7.08834e-09
-1.06041e-07
6.8982e-09
-1.07712e-07
6.6984e-09
-1.0933e-07
6.48867e-09
-1.10891e-07
6.26879e-09
-1.12395e-07
6.03854e-09
-1.13837e-07
5.79773e-09
-1.15215e-07
5.54618e-09
-1.16527e-07
5.28378e-09
-1.17769e-07
5.01041e-09
-1.1894e-07
4.726e-09
-1.20037e-07
4.43052e-09
-1.21057e-07
4.12399e-09
-1.21996e-07
3.80646e-09
-1.22854e-07
3.47802e-09
-1.23626e-07
3.13883e-09
-1.24311e-07
2.78907e-09
-1.24906e-07
2.429e-09
-1.25409e-07
2.05892e-09
-1.25818e-07
1.67918e-09
-1.26129e-07
1.2902e-09
-1.26342e-07
8.92454e-10
-1.26455e-07
4.86466e-10
-1.26464e-07
7.28257e-11
-1.2637e-07
-3.47822e-10
-1.2617e-07
-7.74773e-10
-1.25863e-07
-1.20726e-09
-1.25449e-07
-1.64448e-09
-1.24926e-07
-2.08554e-09
-1.24293e-07
-2.52954e-09
-1.23551e-07
-2.97548e-09
-1.22699e-07
-3.42236e-09
-1.21738e-07
-3.8691e-09
-1.20667e-07
-4.31461e-09
-1.19487e-07
-4.75773e-09
-1.182e-07
-5.1973e-09
-1.16806e-07
-5.63213e-09
-1.15307e-07
-6.06098e-09
-1.13706e-07
-6.48263e-09
-1.12003e-07
-6.89584e-09
-1.10201e-07
-7.29936e-09
-1.08303e-07
-7.69194e-09
-1.06313e-07
-8.07235e-09
-1.04233e-07
-8.43937e-09
-1.02066e-07
-8.79181e-09
-9.98173e-08
-9.12849e-09
-9.74902e-08
-9.4483e-09
-9.50892e-08
-9.75012e-09
-9.26189e-08
-1.00329e-08
-9.00841e-08
-1.02957e-08
-8.74898e-08
-1.05376e-08
-8.48414e-08
-1.07576e-08
-8.21441e-08
-1.09551e-08
-7.94037e-08
-1.11292e-08
-7.66259e-08
-1.12793e-08
-7.38165e-08
-1.14048e-08
-7.09816e-08
-1.15054e-08
-6.81274e-08
-1.15804e-08
-6.52599e-08
-1.16297e-08
-6.23854e-08
-1.1653e-08
-5.95102e-08
-1.16501e-08
-5.66406e-08
-1.1621e-08
-5.37828e-08
-1.15657e-08
-5.09432e-08
-1.14843e-08
-4.81279e-08
-1.13771e-08
-4.53432e-08
-1.12442e-08
-4.2595e-08
-1.10861e-08
-3.98894e-08
-1.09032e-08
-3.72323e-08
-1.0696e-08
-3.46293e-08
-1.04651e-08
-3.2086e-08
-1.0211e-08
-2.96079e-08
-9.93466e-09
-2.72002e-08
-9.63668e-09
-2.48679e-08
-9.31795e-09
-2.26158e-08
-8.97937e-09
-2.04486e-08
-8.62192e-09
-1.83704e-08
-8.2466e-09
-1.63855e-08
-7.85452e-09
-1.44976e-08
-7.44683e-09
-1.27102e-08
-7.02475e-09
-1.10264e-08
-6.58959e-09
-9.44914e-09
-6.14275e-09
-7.98074e-09
-5.68574e-09
-6.62329e-09
-5.22016e-09
-5.37837e-09
-4.74778e-09
-4.24712e-09
-4.27051e-09
-3.23012e-09
-3.79047e-09
-2.32739e-09
-3.30999e-09
-1.53831e-09
-2.83169e-09
-8.61557e-10
-2.3585e-09
-2.95031e-10
-1.89374e-09
1.64242e-10
-1.44118e-09
5.20198e-10
-1.00512e-09
7.77838e-10
-5.90486e-10
9.43348e-10
-2.02917e-10
1.0242e-09
1.51129e-10
1.0293e-09
4.64267e-10
9.69073e-10
7.281e-10
8.55623e-10
9.33153e-10
7.02857e-10
1.06886e-09
5.26683e-10
1.12359e-09
3.453e-10
1.08486e-09
1.79703e-10
9.3953e-10
5.45514e-11
6.7419e-10
2.74767e-10
-8.11958e-11
1.29523e-10
-3.2554e-10
6.12769e-10
-7.34703e-10
1.24524e-09
-1.30969e-09
1.97149e-09
-2.05003e-09
2.75069e-09
-2.95357e-09
3.55126e-09
-4.01643e-09
4.3493e-09
-5.23321e-09
5.12734e-09
-6.59721e-09
5.87295e-09
-8.10069e-09
6.5777e-09
-9.7352e-09
7.23623e-09
-1.14918e-08
7.84556e-09
-1.33613e-08
8.40451e-09
-1.53344e-08
8.91323e-09
-1.7402e-08
9.37287e-09
-1.95552e-08
9.78524e-09
-2.17854e-08
1.01526e-08
-2.40843e-08
1.04777e-08
-2.64441e-08
1.07631e-08
-2.88576e-08
1.10117e-08
-3.13179e-08
1.12264e-08
-3.38186e-08
1.14098e-08
-3.63539e-08
1.15647e-08
-3.89182e-08
1.16934e-08
-4.15065e-08
1.17985e-08
-4.41143e-08
1.18819e-08
-4.67372e-08
1.19457e-08
-4.93715e-08
1.19918e-08
-5.20134e-08
1.20217e-08
-5.46598e-08
1.2037e-08
-5.73075e-08
1.20388e-08
-5.99539e-08
1.20284e-08
-6.25962e-08
1.20067e-08
-6.5232e-08
1.19746e-08
-6.78592e-08
1.19327e-08
-7.04754e-08
1.18816e-08
-7.30787e-08
1.18218e-08
-7.56671e-08
1.17536e-08
-7.82385e-08
1.16774e-08
-8.07913e-08
1.15932e-08
-8.33234e-08
1.15011e-08
-8.5833e-08
1.14012e-08
-8.83184e-08
1.12934e-08
-9.07775e-08
1.11776e-08
-9.32086e-08
1.10536e-08
-9.56097e-08
1.09212e-08
-9.79788e-08
1.07802e-08
-1.00314e-07
1.06303e-08
-1.02613e-07
1.04712e-08
-1.04874e-07
1.03026e-08
-1.07094e-07
1.01241e-08
-1.09271e-07