/*--------------------------------*- C++ -*----------------------------------*\
  =========                 |
  \\      /  F ield         | OpenFOAM: The Open Source CFD Toolbox
   \\    /   O peration     | Website:  https://openfoam.org
    \\  /    A nd           | Version:  7
     \\/     M anipulation  |
\*---------------------------------------------------------------------------*/
FoamFile
{
    version     2.0;
    format      ascii;
    class       volVectorField;
    location    "0.475";
    object      U;
}
// * * * * * * * * * * * * * * * * * * * * * * * * * * * * * * * * * * * * * //

dimensions      [0 1 -1 0 0 0 0];

internalField   nonuniform List<vector> 
25600
(
(1.23779e-06 -1.311e-06 0)
(4.82502e-06 -2.25533e-06 0)
(8.81297e-06 -1.92159e-06 0)
(1.09072e-05 -1.03005e-06 0)
(9.95451e-06 7.11763e-08 0)
(5.65393e-06 1.21111e-06 0)
(-2.02536e-06 2.30593e-06 0)
(-1.29618e-05 3.32152e-06 0)
(-2.69472e-05 4.24555e-06 0)
(-4.37386e-05 5.07295e-06 0)
(-6.30774e-05 5.8049e-06 0)
(-8.47066e-05 6.44972e-06 0)
(-0.00010838 7.01622e-06 0)
(-0.000133864 7.51023e-06 0)
(-0.00016094 7.93706e-06 0)
(-0.000189407 8.30368e-06 0)
(-0.000219082 8.6172e-06 0)
(-0.000249798 8.88254e-06 0)
(-0.000281405 9.10435e-06 0)
(-0.000313766 9.2884e-06 0)
(-0.000346761 9.43944e-06 0)
(-0.000380279 9.56161e-06 0)
(-0.000414228 9.65887e-06 0)
(-0.000448521 9.7337e-06 0)
(-0.000483083 9.7882e-06 0)
(-0.000517846 9.82535e-06 0)
(-0.000552754 9.84787e-06 0)
(-0.000587754 9.85786e-06 0)
(-0.000622802 9.85728e-06 0)
(-0.000657858 9.84754e-06 0)
(-0.000692887 9.82917e-06 0)
(-0.000727856 9.80263e-06 0)
(-0.000762739 9.76912e-06 0)
(-0.00079751 9.73013e-06 0)
(-0.000832146 9.68649e-06 0)
(-0.000866627 9.63819e-06 0)
(-0.000900933 9.58511e-06 0)
(-0.000935045 9.52742e-06 0)
(-0.000968945 9.46516e-06 0)
(-0.00100261 9.3982e-06 0)
(-0.00103604 9.32674e-06 0)
(-0.00106919 9.25121e-06 0)
(-0.00110206 9.17153e-06 0)
(-0.00113463 9.08693e-06 0)
(-0.00116688 8.99644e-06 0)
(-0.00119878 8.89965e-06 0)
(-0.00123032 8.79672e-06 0)
(-0.00126147 8.68786e-06 0)
(-0.0012922 8.57282e-06 0)
(-0.0013225 8.45079e-06 0)
(-0.00135233 8.32076e-06 0)
(-0.00138167 8.18203e-06 0)
(-0.00141048 8.03441e-06 0)
(-0.00143874 7.87791e-06 0)
(-0.00146641 7.71239e-06 0)
(-0.00149347 7.53735e-06 0)
(-0.00151986 7.35199e-06 0)
(-0.00154556 7.15552e-06 0)
(-0.00157053 6.94742e-06 0)
(-0.00159472 6.72756e-06 0)
(-0.0016181 6.49598e-06 0)
(-0.00164063 6.2526e-06 0)
(-0.00166227 5.99702e-06 0)
(-0.00168296 5.72857e-06 0)
(-0.00170267 5.44666e-06 0)
(-0.00172134 5.15116e-06 0)
(-0.00173895 4.8422e-06 0)
(-0.00175543 4.52005e-06 0)
(-0.00177074 4.18479e-06 0)
(-0.00178485 3.8362e-06 0)
(-0.00179769 3.47408e-06 0)
(-0.00180923 3.09845e-06 0)
(-0.00181943 2.70955e-06 0)
(-0.00182823 2.30788e-06 0)
(-0.0018356 1.89394e-06 0)
(-0.0018415 1.46819e-06 0)
(-0.00184588 1.03103e-06 0)
(-0.00184871 5.82797e-07 0)
(-0.00184996 1.2404e-07 0)
(-0.00184958 -3.4445e-07 0)
(-0.00184756 -8.21697e-07 0)
(-0.00184386 -1.30661e-06 0)
(-0.00183845 -1.79819e-06 0)
(-0.00183133 -2.29561e-06 0)
(-0.00182246 -2.79794e-06 0)
(-0.00181185 -3.30406e-06 0)
(-0.00179947 -3.81262e-06 0)
(-0.00178532 -4.32204e-06 0)
(-0.00176941 -4.83083e-06 0)
(-0.00175174 -5.33763e-06 0)
(-0.00173231 -5.84116e-06 0)
(-0.00171115 -6.34007e-06 0)
(-0.00168827 -6.83274e-06 0)
(-0.00166369 -7.31735e-06 0)
(-0.00163746 -7.79216e-06 0)
(-0.00160959 -8.25563e-06 0)
(-0.00158014 -8.70628e-06 0)
(-0.00154916 -9.14257e-06 0)
(-0.00151668 -9.5629e-06 0)
(-0.00148278 -9.96569e-06 0)
(-0.00144751 -1.03493e-05 0)
(-0.00141094 -1.07123e-05 0)
(-0.00137314 -1.1053e-05 0)
(-0.00133419 -1.13703e-05 0)
(-0.00129417 -1.1663e-05 0)
(-0.00125317 -1.19301e-05 0)
(-0.00121127 -1.21701e-05 0)
(-0.00116857 -1.23821e-05 0)
(-0.00112517 -1.25649e-05 0)
(-0.00108116 -1.27178e-05 0)
(-0.00103665 -1.28404e-05 0)
(-0.000991736 -1.29322e-05 0)
(-0.000946531 -1.29925e-05 0)
(-0.000901139 -1.3021e-05 0)
(-0.000855669 -1.30173e-05 0)
(-0.00081023 -1.29814e-05 0)
(-0.000764931 -1.29134e-05 0)
(-0.000719881 -1.28136e-05 0)
(-0.000675188 -1.26823e-05 0)
(-0.00063096 -1.25195e-05 0)
(-0.000587304 -1.2326e-05 0)
(-0.000544323 -1.21023e-05 0)
(-0.000502121 -1.18491e-05 0)
(-0.000460798 -1.1567e-05 0)
(-0.000420451 -1.12571e-05 0)
(-0.000381175 -1.09204e-05 0)
(-0.000343062 -1.0558e-05 0)
(-0.0003062 -1.01708e-05 0)
(-0.000270673 -9.75969e-06 0)
(-0.000236563 -9.32595e-06 0)
(-0.000203946 -8.87093e-06 0)
(-0.000172894 -8.39613e-06 0)
(-0.000143476 -7.90288e-06 0)
(-0.000115756 -7.3923e-06 0)
(-8.97912e-05 -6.86555e-06 0)
(-6.56369e-05 -6.32405e-06 0)
(-4.33418e-05 -5.7695e-06 0)
(-2.29492e-05 -5.20359e-06 0)
(-4.49703e-06 -4.62787e-06 0)
(1.19828e-05 -4.04384e-06 0)
(2.64646e-05 -3.45296e-06 0)
(3.89301e-05 -2.85726e-06 0)
(4.93685e-05 -2.25908e-06 0)
(5.77778e-05 -1.66098e-06 0)
(6.4166e-05 -1.06574e-06 0)
(6.85524e-05 -4.76533e-07 0)
(7.097e-05 1.0274e-07 0)
(7.1468e-05 6.67177e-07 0)
(7.01154e-05 1.21067e-06 0)
(6.70056e-05 1.72536e-06 0)
(6.22626e-05 2.20059e-06 0)
(5.60495e-05 2.62188e-06 0)
(4.85802e-05 2.96956e-06 0)
(4.0135e-05 3.21629e-06 0)
(3.10829e-05 3.32235e-06 0)
(2.19129e-05 3.23e-06 0)
(1.32662e-05 2.85981e-06 0)
(5.96075e-06 2.10898e-06 0)
(1.02671e-06 9.04438e-07 0)
(-3.52148e-07 -3.50788e-07 0)
(2.16081e-06 -4.80713e-06 0)
(7.1796e-06 -7.27608e-06 0)
(1.10032e-05 -4.91734e-06 0)
(9.69182e-06 -6.30945e-08 0)
(1.13809e-06 5.96201e-06 0)
(-1.55539e-05 1.23852e-05 0)
(-4.06605e-05 1.8766e-05 0)
(-7.40635e-05 2.48663e-05 0)
(-0.000115404 3.05603e-05 0)
(-0.000164178 3.57882e-05 0)
(-0.000219808 4.05284e-05 0)
(-0.000281692 4.47866e-05 0)
(-0.000349224 4.85839e-05 0)
(-0.000421815 5.19452e-05 0)
(-0.000498904 5.48989e-05 0)
(-0.000579963 5.74777e-05 0)
(-0.000664504 5.97139e-05 0)
(-0.000752074 6.16383e-05 0)
(-0.000842262 6.32805e-05 0)
(-0.000934694 6.46692e-05 0)
(-0.00102903 6.58315e-05 0)
(-0.00112496 6.6792e-05 0)
(-0.00122222 6.75731e-05 0)
(-0.00132056 6.81946e-05 0)
(-0.00141976 6.86749e-05 0)
(-0.00151962 6.9031e-05 0)
(-0.00161998 6.92773e-05 0)
(-0.00172068 6.94266e-05 0)
(-0.00182158 6.94905e-05 0)
(-0.00192257 6.94795e-05 0)
(-0.00202353 6.94021e-05 0)
(-0.00212437 6.92648e-05 0)
(-0.00222499 6.90733e-05 0)
(-0.00232533 6.88332e-05 0)
(-0.00242531 6.85489e-05 0)
(-0.00252486 6.82233e-05 0)
(-0.00262392 6.7859e-05 0)
(-0.00272243 6.74578e-05 0)
(-0.00282033 6.70201e-05 0)
(-0.00291757 6.65458e-05 0)
(-0.00301408 6.60348e-05 0)
(-0.00310982 6.54874e-05 0)
(-0.00320473 6.49033e-05 0)
(-0.00329874 6.42806e-05 0)
(-0.0033918 6.3617e-05 0)
(-0.00348384 6.29101e-05 0)
(-0.00357481 6.21579e-05 0)
(-0.00366462 6.13588e-05 0)
(-0.00375322 6.05107e-05 0)
(-0.00384052 5.96109e-05 0)
(-0.00392644 5.86562e-05 0)
(-0.00401091 5.76433e-05 0)
(-0.00409384 5.65694e-05 0)
(-0.00417513 5.54321e-05 0)
(-0.0042547 5.42289e-05 0)
(-0.00433244 5.29572e-05 0)
(-0.00440826 5.1614e-05 0)
(-0.00448206 5.01964e-05 0)
(-0.00455371 4.87018e-05 0)
(-0.00462311 4.71279e-05 0)
(-0.00469015 4.54726e-05 0)
(-0.0047547 4.37343e-05 0)
(-0.00481666 4.19111e-05 0)
(-0.00487589 4.00014e-05 0)
(-0.00493227 3.80036e-05 0)
(-0.00498568 3.59164e-05 0)
(-0.00503598 3.37393e-05 0)
(-0.00508306 3.14721e-05 0)
(-0.00512678 2.9115e-05 0)
(-0.00516702 2.66682e-05 0)
(-0.00520365 2.41324e-05 0)
(-0.00523655 2.15085e-05 0)
(-0.00526559 1.8798e-05 0)
(-0.00529065 1.6003e-05 0)
(-0.00531162 1.3126e-05 0)
(-0.00532838 1.01703e-05 0)
(-0.00534083 7.1392e-06 0)
(-0.00534887 4.03665e-06 0)
(-0.00535239 8.66944e-07 0)
(-0.0053513 -2.36492e-06 0)
(-0.00534554 -5.65339e-06 0)
(-0.00533501 -8.99234e-06 0)
(-0.00531966 -1.23752e-05 0)
(-0.00529943 -1.57949e-05 0)
(-0.00527427 -1.92443e-05 0)
(-0.00524415 -2.27153e-05 0)
(-0.00520906 -2.61998e-05 0)
(-0.00516896 -2.96887e-05 0)
(-0.00512388 -3.31728e-05 0)
(-0.00507382 -3.66426e-05 0)
(-0.00501881 -4.00884e-05 0)
(-0.00495889 -4.35002e-05 0)
(-0.00489413 -4.68678e-05 0)
(-0.00482458 -5.01807e-05 0)
(-0.00475035 -5.34283e-05 0)
(-0.00467152 -5.65998e-05 0)
(-0.00458822 -5.96848e-05 0)
(-0.00450057 -6.26728e-05 0)
(-0.00440871 -6.55534e-05 0)
(-0.00431282 -6.83163e-05 0)
(-0.00421306 -7.09514e-05 0)
(-0.00410962 -7.34491e-05 0)
(-0.00400269 -7.57999e-05 0)
(-0.0038925 -7.79949e-05 0)
(-0.00377927 -8.00257e-05 0)
(-0.00366323 -8.18844e-05 0)
(-0.00354464 -8.35636e-05 0)
(-0.00342374 -8.50565e-05 0)
(-0.00330082 -8.63569e-05 0)
(-0.00317614 -8.74592e-05 0)
(-0.00304998 -8.8359e-05 0)
(-0.00292264 -8.90522e-05 0)
(-0.00279441 -8.95357e-05 0)
(-0.00266558 -8.98069e-05 0)
(-0.00253646 -8.98642e-05 0)
(-0.00240735 -8.97066e-05 0)
(-0.00227855 -8.93342e-05 0)
(-0.00215037 -8.87476e-05 0)
(-0.00202311 -8.79482e-05 0)
(-0.00189707 -8.69381e-05 0)
(-0.00177255 -8.57201e-05 0)
(-0.00164983 -8.4298e-05 0)
(-0.00152921 -8.26757e-05 0)
(-0.00141097 -8.08582e-05 0)
(-0.00129538 -7.88506e-05 0)
(-0.00118272 -7.6659e-05 0)
(-0.00107323 -7.42899e-05 0)
(-0.000967164 -7.17501e-05 0)
(-0.00086477 -6.90469e-05 0)
(-0.000766272 -6.61878e-05 0)
(-0.00067189 -6.3181e-05 0)
(-0.000581829 -6.00349e-05 0)
(-0.000496284 -5.67587e-05 0)
(-0.000415437 -5.33613e-05 0)
(-0.000339457 -4.98521e-05 0)
(-0.000268499 -4.62408e-05 0)
(-0.000202701 -4.25378e-05 0)
(-0.000142189 -3.87543e-05 0)
(-8.70697e-05 -3.4902e-05 0)
(-3.74335e-05 -3.09932e-05 0)
(6.64881e-06 -2.70412e-05 0)
(4.51276e-05 -2.30607e-05 0)
(7.79768e-05 -1.90685e-05 0)
(0.000105197 -1.50833e-05 0)
(0.000126818 -1.11268e-05 0)
(0.000142906 -7.22414e-06 0)
(0.000153565 -3.40521e-06 0)
(0.000158951 2.9385e-07 0)
(0.000159274 3.82894e-06 0)
(0.000154815 7.14563e-06 0)
(0.000145939 1.01752e-05 0)
(0.000133116 1.28298e-05 0)
(0.000116944 1.49969e-05 0)
(9.81778e-05 1.6531e-05 0)
(7.77644e-05 1.72437e-05 0)
(5.68832e-05 1.68961e-05 0)
(3.69515e-05 1.52056e-05 0)
(1.95908e-05 1.18792e-05 0)
(6.78098e-06 6.79878e-06 0)
(8.97016e-07 1.02584e-06 0)
(1.9225e-06 -8.81519e-06 0)
(4.94053e-06 -1.10589e-05 0)
(3.75442e-06 -3.74634e-06 0)
(-5.73164e-06 9.00205e-06 0)
(-2.59403e-05 2.45944e-05 0)
(-5.80606e-05 4.13573e-05 0)
(-0.000102541 5.8237e-05 0)
(-0.000159315 7.459e-05 0)
(-0.000227968 9.00432e-05 0)
(-0.000307857 0.000104393 0)
(-0.000398213 0.000117541 0)
(-0.000498198 0.000129464 0)
(-0.000606953 0.000140182 0)
(-0.000723628 0.000149741 0)
(-0.000847395 0.000158206 0)
(-0.000977469 0.00016565 0)
(-0.00111311 0.00017215 0)
(-0.00125363 0.000177785 0)
(-0.0013984 0.000182631 0)
(-0.00154684 0.000186762 0)
(-0.00169841 0.000190248 0)
(-0.00185263 0.000193156 0)
(-0.00200908 0.000195545 0)
(-0.00216735 0.000197472 0)
(-0.00232709 0.000198986 0)
(-0.002488 0.000200134 0)
(-0.00264979 0.000200957 0)
(-0.0028122 0.000201491 0)
(-0.00297501 0.000201768 0)
(-0.00313803 0.000201817 0)
(-0.00330106 0.000201663 0)
(-0.00346394 0.000201326 0)
(-0.00362653 0.000200823 0)
(-0.00378869 0.00020017 0)
(-0.0039503 0.000199378 0)
(-0.00411123 0.000198457 0)
(-0.0042714 0.000197414 0)
(-0.00443068 0.000196255 0)
(-0.00458898 0.000194984 0)
(-0.0047462 0.0001936 0)
(-0.00490226 0.000192104 0)
(-0.00505704 0.000190496 0)
(-0.00521047 0.000188773 0)
(-0.00536242 0.000186933 0)
(-0.00551282 0.00018497 0)
(-0.00566154 0.000182879 0)
(-0.00580849 0.000180655 0)
(-0.00595355 0.000178291 0)
(-0.0060966 0.000175781 0)
(-0.00623752 0.000173118 0)
(-0.00637618 0.000170295 0)
(-0.00651245 0.000167303 0)
(-0.00664619 0.000164135 0)
(-0.00677725 0.000160783 0)
(-0.00690548 0.00015724 0)
(-0.00703073 0.000153498 0)
(-0.00715283 0.00014955 0)
(-0.00727162 0.000145389 0)
(-0.00738692 0.000141007 0)
(-0.00749855 0.000136399 0)
(-0.00760634 0.000131559 0)
(-0.00771009 0.00012648 0)
(-0.00780961 0.000121159 0)
(-0.00790472 0.000115592 0)
(-0.00799521 0.000109774 0)
(-0.00808089 0.000103704 0)
(-0.00816156 9.73785e-05 0)
(-0.00823701 9.07979e-05 0)
(-0.00830705 8.39623e-05 0)
(-0.00837148 7.68731e-05 0)
(-0.00843009 6.95324e-05 0)
(-0.0084827 6.19437e-05 0)
(-0.00852911 5.41117e-05 0)
(-0.00856913 4.60423e-05 0)
(-0.00860259 3.77429e-05 0)
(-0.0086293 2.92224e-05 0)
(-0.0086491 2.04906e-05 0)
(-0.00866183 1.15592e-05 0)
(-0.00866734 2.44091e-06 0)
(-0.0086655 -6.85004e-06 0)
(-0.00865616 -1.62979e-05 0)
(-0.00863924 -2.58856e-05 0)
(-0.00861461 -3.55946e-05 0)
(-0.0085822 -4.54048e-05 0)
(-0.00854194 -5.52952e-05 0)
(-0.00849378 -6.52434e-05 0)
(-0.00843769 -7.52257e-05 0)
(-0.00837365 -8.52176e-05 0)
(-0.00830167 -9.51929e-05 0)
(-0.00822177 -0.000105125 0)
(-0.008134 -0.000114986 0)
(-0.00803843 -0.000124749 0)
(-0.00793516 -0.000134383 0)
(-0.00782429 -0.000143861 0)
(-0.00770597 -0.000153152 0)
(-0.00758034 -0.000162226 0)
(-0.00744761 -0.000171055 0)
(-0.00730797 -0.000179608 0)
(-0.00716164 -0.000187856 0)
(-0.00700889 -0.000195771 0)
(-0.00684999 -0.000203324 0)
(-0.00668522 -0.000210488 0)
(-0.00651491 -0.000217238 0)
(-0.00633939 -0.000223548 0)
(-0.00615901 -0.000229394 0)
(-0.00597415 -0.000234754 0)
(-0.0057852 -0.000239607 0)
(-0.00559255 -0.000243934 0)
(-0.00539664 -0.000247719 0)
(-0.00519788 -0.000250944 0)
(-0.00499672 -0.000253598 0)
(-0.00479362 -0.000255668 0)
(-0.00458904 -0.000257145 0)
(-0.00438343 -0.000258023 0)
(-0.00417728 -0.000258296 0)
(-0.00397106 -0.000257961 0)
(-0.00376525 -0.000257017 0)
(-0.00356032 -0.000255467 0)
(-0.00335675 -0.000253314 0)
(-0.00315501 -0.000250562 0)
(-0.00295557 -0.00024722 0)
(-0.0027589 -0.000243298 0)
(-0.00256544 -0.000238805 0)
(-0.00237564 -0.000233756 0)
(-0.00218994 -0.000228165 0)
(-0.00200876 -0.000222048 0)
(-0.0018325 -0.000215423 0)
(-0.00166157 -0.000208308 0)
(-0.00149634 -0.000200725 0)
(-0.00133719 -0.000192693 0)
(-0.00118445 -0.000184237 0)
(-0.00103846 -0.00017538 0)
(-0.000899534 -0.000166146 0)
(-0.000767954 -0.000156562 0)
(-0.000643994 -0.000146656 0)
(-0.0005279 -0.000136455 0)
(-0.000419896 -0.00012599 0)
(-0.00032018 -0.000115293 0)
(-0.000228922 -0.000104398 0)
(-0.000146266 -9.33428e-05 0)
(-7.23219e-05 -8.21669e-05 0)
(-7.16456e-06 -7.09149e-05 0)
(4.9169e-05 -5.96364e-05 0)
(9.66855e-05 -4.83877e-05 0)
(0.000135441 -3.72332e-05 0)
(0.000165549 -2.6248e-05 0)
(0.000187188 -1.55204e-05 0)
(0.000200612 -5.1554e-06 0)
(0.000206167 4.72055e-06 0)
(0.000204304 1.39539e-05 0)
(0.000195602 2.23565e-05 0)
(0.000180791 2.96964e-05 0)
(0.000160778 3.56865e-05 0)
(0.000136683 3.99737e-05 0)
(0.000109866 4.21288e-05 0)
(8.19585e-05 4.16491e-05 0)
(5.48421e-05 3.7995e-05 0)
(3.05819e-05 3.06858e-05 0)
(1.18009e-05 1.95873e-05 0)
(2.08389e-06 5.93378e-06 0)
(1.05584e-06 -1.09063e-05 0)
(1.02998e-07 -9.73365e-06 0)
(-9.04378e-06 5.75959e-06 0)
(-2.98362e-05 2.97108e-05 0)
(-6.45268e-05 5.8335e-05 0)
(-0.000114358 8.90402e-05 0)
(-0.000179823 0.00012009 0)
(-0.000260852 0.000150364 0)
(-0.000356987 0.000179171 0)
(-0.000467502 0.0002061 0)
(-0.0005915 0.000230938 0)
(-0.000727985 0.000253599 0)
(-0.000875917 0.000274085 0)
(-0.00103425 0.000292457 0)
(-0.00120196 0.000308811 0)
(-0.00137806 0.000323265 0)
(-0.00156161 0.000335951 0)
(-0.00175172 0.000347004 0)
(-0.00194759 0.000356558 0)
(-0.00214845 0.000364748 0)
(-0.00235361 0.0003717 0)
(-0.00256243 0.000377535 0)
(-0.00277434 0.000382362 0)
(-0.00298881 0.000386287 0)
(-0.00320536 0.000389404 0)
(-0.00342358 0.0003918 0)
(-0.00364308 0.000393552 0)
(-0.00386351 0.00039473 0)
(-0.00408457 0.000395394 0)
(-0.00430596 0.000395599 0)
(-0.00452744 0.000395392 0)
(-0.00474878 0.000394814 0)
(-0.00496977 0.0003939 0)
(-0.00519022 0.000392678 0)
(-0.00540995 0.000391172 0)
(-0.0056288 0.0003894 0)
(-0.00584661 0.000387378 0)
(-0.00606323 0.000385117 0)
(-0.00627852 0.000382623 0)
(-0.00649235 0.0003799 0)
(-0.00670458 0.00037695 0)
(-0.00691507 0.00037377 0)
(-0.00712368 0.000370357 0)
(-0.00733027 0.000366705 0)
(-0.00753471 0.000362808 0)
(-0.00773685 0.000358654 0)
(-0.00793653 0.000354235 0)
(-0.0081336 0.000349538 0)
(-0.00832789 0.000344551 0)
(-0.00851925 0.00033926 0)
(-0.00870748 0.000333653 0)
(-0.00889242 0.000327716 0)
(-0.00907386 0.000321433 0)
(-0.00925162 0.00031479 0)
(-0.00942548 0.000307773 0)
(-0.00959524 0.000300368 0)
(-0.00976067 0.000292562 0)
(-0.00992156 0.00028434 0)
(-0.0100777 0.000275691 0)
(-0.0102287 0.000266602 0)
(-0.0103745 0.000257063 0)
(-0.0105148 0.000247063 0)
(-0.0106494 0.000236595 0)
(-0.0107779 0.000225649 0)
(-0.0109001 0.000214221 0)
(-0.0110157 0.000202306 0)
(-0.0111245 0.0001899 0)
(-0.0112263 0.000177004 0)
(-0.0113207 0.000163617 0)
(-0.0114074 0.000149742 0)
(-0.0114863 0.000135385 0)
(-0.0115571 0.000120553 0)
(-0.0116195 0.000105256 0)
(-0.0116732 8.95042e-05 0)
(-0.011718 7.33136e-05 0)
(-0.0117538 5.6701e-05 0)
(-0.0117802 3.96858e-05 0)
(-0.0117971 2.22907e-05 0)
(-0.0118043 4.54068e-06 0)
(-0.0118015 -1.35365e-05 0)
(-0.0117887 -3.19104e-05 0)
(-0.0117657 -5.0548e-05 0)
(-0.0117323 -6.94135e-05 0)
(-0.0116885 -8.84686e-05 0)
(-0.0116341 -0.000107672 0)
(-0.0115691 -0.000126982 0)
(-0.0114935 -0.000146351 0)
(-0.0114072 -0.000165733 0)
(-0.0113103 -0.000185079 0)
(-0.0112027 -0.000204336 0)
(-0.0110846 -0.000223453 0)
(-0.0109561 -0.000242375 0)
(-0.0108173 -0.000261047 0)
(-0.0106683 -0.000279414 0)
(-0.0105093 -0.000297418 0)
(-0.0103405 -0.000315004 0)
(-0.0101622 -0.000332113 0)
(-0.00997472 -0.000348692 0)
(-0.00977825 -0.000364682 0)
(-0.00957318 -0.00038003 0)
(-0.00935986 -0.000394683 0)
(-0.00913869 -0.000408588 0)
(-0.00891008 -0.000421696 0)
(-0.00867449 -0.000433959 0)
(-0.00843237 -0.000445332 0)
(-0.00818423 -0.000455771 0)
(-0.00793057 -0.000465237 0)
(-0.00767194 -0.000473694 0)
(-0.00740888 -0.000481109 0)
(-0.00714197 -0.000487452 0)
(-0.00687179 -0.000492697 0)
(-0.00659894 -0.000496822 0)
(-0.00632403 -0.000499809 0)
(-0.00604768 -0.000501645 0)
(-0.00577051 -0.000502318 0)
(-0.00549315 -0.000501824 0)
(-0.00521623 -0.000500161 0)
(-0.0049404 -0.00049733 0)
(-0.00466627 -0.000493338 0)
(-0.00439447 -0.000488195 0)
(-0.00412563 -0.000481915 0)
(-0.00386035 -0.000474514 0)
(-0.00359925 -0.000466015 0)
(-0.00334291 -0.00045644 0)
(-0.00309191 -0.000445818 0)
(-0.00284681 -0.000434179 0)
(-0.00260817 -0.000421555 0)
(-0.00237651 -0.000407984 0)
(-0.00215234 -0.000393502 0)
(-0.00193615 -0.000378152 0)
(-0.0017284 -0.000361976 0)
(-0.00152954 -0.000345021 0)
(-0.00133998 -0.000327333 0)
(-0.00116011 -0.000308964 0)
(-0.0009903 -0.000289966 0)
(-0.000830873 -0.000270396 0)
(-0.00068213 -0.000250313 0)
(-0.000544337 -0.000229779 0)
(-0.000417721 -0.000208863 0)
(-0.00030247 -0.000187638 0)
(-0.000198729 -0.000166184 0)
(-0.000106595 -0.00014459 0)
(-2.61115e-05 -0.000122954 0)
(4.27373e-05 -0.000101388 0)
(0.000100034 -8.00191e-05 0)
(0.000145938 -5.89955e-05 0)
(0.000180694 -3.84888e-05 0)
(0.00020465 -1.87018e-05 0)
(0.00021827 1.24546e-07 0)
(0.000222151 1.77021e-05 0)
(0.000217049 3.3685e-05 0)
(0.000203901 4.76568e-05 0)
(0.000183852 5.91168e-05 0)
(0.000158283 6.74677e-05 0)
(0.000128841 7.20111e-05 0)
(9.74554e-05 7.19615e-05 0)
(6.63099e-05 6.65034e-05 0)
(3.77846e-05 5.49176e-05 0)
(1.50529e-05 3.68678e-05 0)
(2.80965e-06 1.3168e-05 0)
(-4.49952e-08 -1.00012e-05 0)
(-5.99557e-06 -1.10054e-06 0)
(-2.49193e-05 2.613e-05 0)
(-5.90484e-05 6.44921e-05 0)
(-0.00011014 0.000109185 0)
(-0.000179307 0.000156793 0)
(-0.000266953 0.000204942 0)
(-0.000372939 0.000252035 0)
(-0.000496737 0.000297034 0)
(-0.000637545 0.000339296 0)
(-0.000794368 0.000378462 0)
(-0.000966095 0.000414363 0)
(-0.00115155 0.000446968 0)
(-0.00134956 0.000476337 0)
(-0.00155892 0.000502595 0)
(-0.0017785 0.000525902 0)
(-0.00200721 0.000546442 0)
(-0.002244 0.000564415 0)
(-0.0024879 0.000580019 0)
(-0.00273802 0.000593454 0)
(-0.0029935 0.000604913 0)
(-0.0032536 0.000614579 0)
(-0.00351761 0.000622623 0)
(-0.00378487 0.000629206 0)
(-0.00405482 0.000634476 0)
(-0.00432693 0.000638568 0)
(-0.00460071 0.000641604 0)
(-0.00487573 0.000643693 0)
(-0.00515161 0.000644934 0)
(-0.00542799 0.000645412 0)
(-0.00570453 0.000645203 0)
(-0.00598097 0.000644373 0)
(-0.00625701 0.000642976 0)
(-0.00653242 0.00064106 0)
(-0.00680697 0.000638664 0)
(-0.00708045 0.000635819 0)
(-0.00735264 0.000632549 0)
(-0.00762337 0.000628873 0)
(-0.00789243 0.000624801 0)
(-0.00815966 0.000620343 0)
(-0.00842488 0.000615501 0)
(-0.0086879 0.000610272 0)
(-0.00894856 0.000604653 0)
(-0.00920667 0.000598633 0)
(-0.00946204 0.000592202 0)
(-0.0097145 0.000585345 0)
(-0.00996384 0.000578048 0)
(-0.0102099 0.000570293 0)
(-0.0104524 0.000562059 0)
(-0.0106912 0.000553326 0)
(-0.010926 0.000544074 0)
(-0.0111567 0.00053428 0)
(-0.0113829 0.000523922 0)
(-0.0116045 0.000512978 0)
(-0.0118211 0.000501425 0)
(-0.0120326 0.00048924 0)
(-0.0122386 0.000476404 0)
(-0.0124388 0.000462894 0)
(-0.0126331 0.000448693 0)
(-0.012821 0.00043378 0)
(-0.0130023 0.00041814 0)
(-0.0131766 0.000401757 0)
(-0.0133438 0.000384617 0)
(-0.0135033 0.000366709 0)
(-0.013655 0.000348025 0)
(-0.0137984 0.000328557 0)
(-0.0139334 0.000308302 0)
(-0.0140594 0.000287259 0)
(-0.0141763 0.00026543 0)
(-0.0142837 0.00024282 0)
(-0.0143813 0.000219438 0)
(-0.0144687 0.000195296 0)
(-0.0145457 0.00017041 0)
(-0.0146119 0.0001448 0)
(-0.0146672 0.000118491 0)
(-0.0147111 9.15095e-05 0)
(-0.0147434 6.38884e-05 0)
(-0.0147639 3.56637e-05 0)
(-0.0147723 6.87652e-06 0)
(-0.0147685 -2.24283e-05 0)
(-0.0147522 -5.22016e-05 0)
(-0.0147232 -8.23898e-05 0)
(-0.0146815 -0.000112935 0)
(-0.0146268 -0.000143777 0)
(-0.0145591 -0.000174848 0)
(-0.0144784 -0.000206081 0)
(-0.0143844 -0.000237401 0)
(-0.0142774 -0.000268734 0)
(-0.0141572 -0.000299999 0)
(-0.0140239 -0.000331115 0)
(-0.0138776 -0.000361998 0)
(-0.0137185 -0.000392561 0)
(-0.0135466 -0.000422717 0)
(-0.0133622 -0.000452376 0)
(-0.0131656 -0.000481449 0)
(-0.0129569 -0.000509845 0)
(-0.0127365 -0.000537473 0)
(-0.0125047 -0.000564245 0)
(-0.0122619 -0.000590072 0)
(-0.0120085 -0.000614866 0)
(-0.011745 -0.000638543 0)
(-0.0114717 -0.00066102 0)
(-0.0111894 -0.000682218 0)
(-0.0108984 -0.000702061 0)
(-0.0105993 -0.000720476 0)
(-0.0102928 -0.000737397 0)
(-0.00997952 -0.000752759 0)
(-0.00966005 -0.000766504 0)
(-0.00933509 -0.000778579 0)
(-0.00900534 -0.000788939 0)
(-0.00867151 -0.00079754 0)
(-0.00833433 -0.000804347 0)
(-0.00799454 -0.000809333 0)
(-0.00765289 -0.000812473 0)
(-0.00731015 -0.000813752 0)
(-0.00696709 -0.000813159 0)
(-0.00662446 -0.000810691 0)
(-0.00628306 -0.000806352 0)
(-0.00594363 -0.00080015 0)
(-0.00560695 -0.0007921 0)
(-0.00527378 -0.000782223 0)
(-0.00494487 -0.000770547 0)
(-0.00462094 -0.000757104 0)
(-0.00430274 -0.000741932 0)
(-0.00399095 -0.000725074 0)
(-0.00368628 -0.000706577 0)
(-0.0033894 -0.000686494 0)
(-0.00310095 -0.000664881 0)
(-0.00282156 -0.0006418 0)
(-0.00255182 -0.000617316 0)
(-0.00229232 -0.000591498 0)
(-0.00204359 -0.000564419 0)
(-0.00180614 -0.000536156 0)
(-0.00158046 -0.000506791 0)
(-0.00136699 -0.000476408 0)
(-0.00116613 -0.0004451 0)
(-0.000978247 -0.000412963 0)
(-0.000803675 -0.000380101 0)
(-0.000642687 -0.000346624 0)
(-0.000495511 -0.000312653 0)
(-0.000362321 -0.000278319 0)
(-0.000243232 -0.000243768 0)
(-0.000138292 -0.000209163 0)
(-4.74741e-05 -0.000174686 0)
(2.93289e-05 -0.000140545 0)
(9.23184e-05 -0.000106978 0)
(0.000141801 -7.42632e-05 0)
(0.000178203 -4.27214e-05 0)
(0.000202088 -1.27314e-05 0)
(0.000214175 1.52602e-05 0)
(0.000215361 4.07258e-05 0)
(0.000206742 6.30426e-05 0)
(0.000189638 8.14779e-05 0)
(0.000165618 9.51781e-05 0)
(0.000136525 0.000103168 0)
(0.000104496 0.00010437 0)
(7.19285e-05 9.76678e-05 0)
(4.14594e-05 8.20207e-05 0)
(1.67033e-05 5.66912e-05 0)
(3.15634e-06 2.16987e-05 0)
(-1.20456e-06 -5.67994e-06 0)
(-1.26144e-05 1.58833e-05 0)
(-4.22881e-05 5.8769e-05 0)
(-9.09394e-05 0.000114874 0)
(-0.000159626 0.000178603 0)
(-0.000249176 0.000245866 0)
(-0.000359793 0.000313731 0)
(-0.000491195 0.000380164 0)
(-0.000642748 0.000443796 0)
(-0.000813552 0.00050375 0)
(-0.00100252 0.000559505 0)
(-0.00120845 0.0006108 0)
(-0.00143006 0.000657559 0)
(-0.00166606 0.000699834 0)
(-0.00191513 0.000737767 0)
(-0.00217601 0.000771561 0)
(-0.00244749 0.000801452 0)
(-0.0027284 0.000827703 0)
(-0.00301765 0.000850581 0)
(-0.0033142 0.000870356 0)
(-0.00361711 0.00088729 0)
(-0.0039255 0.000901635 0)
(-0.00423855 0.000913632 0)
(-0.00455552 0.000923504 0)
(-0.00487573 0.000931459 0)
(-0.00519857 0.000937685 0)
(-0.00552347 0.000942356 0)
(-0.00584992 0.000945629 0)
(-0.00617745 0.000947643 0)
(-0.00650564 0.000948521 0)
(-0.0068341 0.000948372 0)
(-0.00716248 0.00094729 0)
(-0.00749044 0.000945355 0)
(-0.0078177 0.000942637 0)
(-0.00814396 0.000939192 0)
(-0.00846897 0.000935066 0)
(-0.00879248 0.000930295 0)
(-0.00911425 0.000924907 0)
(-0.00943405 0.000918919 0)
(-0.00975166 0.000912344 0)
(-0.0100669 0.000905187 0)
(-0.0103794 0.000897447 0)
(-0.0106892 0.000889116 0)
(-0.0109958 0.000880185 0)
(-0.0112992 0.000870637 0)
(-0.0115991 0.000860453 0)
(-0.0118952 0.000849611 0)
(-0.0121873 0.000838087 0)
(-0.0124752 0.000825853 0)
(-0.0127586 0.000812881 0)
(-0.0130373 0.000799142 0)
(-0.0133109 0.000784603 0)
(-0.0135792 0.000769234 0)
(-0.0138418 0.000753003 0)
(-0.0140986 0.000735879 0)
(-0.0143491 0.00071783 0)
(-0.0145931 0.000698827 0)
(-0.0148302 0.000678841 0)
(-0.0150601 0.000657843 0)
(-0.0152824 0.000635809 0)
(-0.0154968 0.000612715 0)
(-0.0157029 0.000588539 0)
(-0.0159004 0.000563264 0)
(-0.0160888 0.000536873 0)
(-0.0162679 0.000509355 0)
(-0.0164372 0.0004807 0)
(-0.0165963 0.000450905 0)
(-0.0167448 0.00041997 0)
(-0.0168825 0.000387897 0)
(-0.0170089 0.000354696 0)
(-0.0171236 0.000320381 0)
(-0.0172263 0.000284969 0)
(-0.0173167 0.000248485 0)
(-0.0173943 0.00021096 0)
(-0.0174589 0.000172428 0)
(-0.0175101 0.000132932 0)
(-0.0175476 9.2517e-05 0)
(-0.0175711 5.12383e-05 0)
(-0.0175805 9.15495e-06 0)
(-0.0175753 -3.36674e-05 0)
(-0.0175555 -7.71569e-05 0)
(-0.0175207 -0.000121236 0)
(-0.0174709 -0.00016582 0)
(-0.0174059 -0.00021082 0)
(-0.0173256 -0.000256141 0)
(-0.0172298 -0.000301683 0)
(-0.0171187 -0.00034734 0)
(-0.0169921 -0.000393002 0)
(-0.01685 -0.000438555 0)
(-0.0166926 -0.000483881 0)
(-0.01652 -0.000528858 0)
(-0.0163323 -0.000573362 0)
(-0.0161297 -0.000617266 0)
(-0.0159124 -0.000660442 0)
(-0.0156807 -0.000702761 0)
(-0.0154349 -0.000744092 0)
(-0.0151753 -0.000784307 0)
(-0.0149024 -0.000823275 0)
(-0.0146167 -0.000860871 0)
(-0.0143185 -0.000896968 0)
(-0.0140084 -0.000931447 0)
(-0.013687 -0.000964186 0)
(-0.0133548 -0.000995074 0)
(-0.0130125 -0.001024 0)
(-0.0126608 -0.00105086 0)
(-0.0123004 -0.00107556 0)
(-0.0119319 -0.00109801 0)
(-0.0115562 -0.00111812 0)
(-0.011174 -0.00113581 0)
(-0.0107862 -0.00115103 0)
(-0.0103935 -0.0011637 0)
(-0.00999686 -0.00117379 0)
(-0.00959708 -0.00118124 0)
(-0.00919506 -0.00118603 0)
(-0.00879167 -0.00118812 0)
(-0.00838781 -0.00118751 0)
(-0.00798437 -0.00118419 0)
(-0.00758225 -0.00117816 0)
(-0.00718233 -0.00116944 0)
(-0.00678552 -0.00115804 0)
(-0.00639268 -0.001144 0)
(-0.00600469 -0.00112735 0)
(-0.00562241 -0.00110814 0)
(-0.00524667 -0.00108643 0)
(-0.00487832 -0.00106226 0)
(-0.00451813 -0.00103573 0)
(-0.00416691 -0.00100688 0)
(-0.0038254 -0.000975821 0)
(-0.00349433 -0.000942624 0)
(-0.0031744 -0.000907386 0)
(-0.00286628 -0.000870207 0)
(-0.0025706 -0.000831194 0)
(-0.00228796 -0.000790458 0)
(-0.00201892 -0.000748117 0)
(-0.001764 -0.000704296 0)
(-0.00152367 -0.000659129 0)
(-0.00129835 -0.000612758 0)
(-0.00108843 -0.000565335 0)
(-0.000894224 -0.000517023 0)
(-0.000715995 -0.000467999 0)
(-0.000553944 -0.000418459 0)
(-0.000408197 -0.000368616 0)
(-0.000278805 -0.000318708 0)
(-0.000165733 -0.000269005 0)
(-6.8849e-05 -0.000219808 0)
(1.20859e-05 -0.000171463 0)
(7.74304e-05 -0.000124369 0)
(0.000127678 -7.89846e-05 0)
(0.000163474 -3.58421e-05 0)
(0.000185633 4.43697e-06 0)
(0.000195161 4.1129e-05 0)
(0.000193274 7.3392e-05 0)
(0.000181422 0.000100252 0)
(0.000161306 0.000120592 0)
(0.000134906 0.000133155 0)
(0.000104505 0.00013656 0)
(7.26642e-05 0.000129353 0)
(4.22214e-05 0.000110101 0)
(1.70975e-05 7.75338e-05 0)
(3.23622e-06 3.07377e-05 0)
(-2.34521e-06 2.15321e-06 0)
(-1.93399e-05 4.16766e-05 0)
(-6.01644e-05 0.000104403 0)
(-0.000123908 0.000181697 0)
(-0.000210808 0.000267421 0)
(-0.000321303 0.000356969 0)
(-0.000455311 0.000446957 0)
(-0.000612337 0.000534981 0)
(-0.000791593 0.000619381 0)
(-0.00099206 0.000699061 0)
(-0.00121255 0.000773349 0)
(-0.00145177 0.000841887 0)
(-0.00170834 0.00090455 0)
(-0.00198088 0.000961377 0)
(-0.00226797 0.00101253 0)
(-0.00256826 0.00105824 0)
(-0.00288043 0.0010988 0)
(-0.00320321 0.00113453 0)
(-0.0035354 0.00116578 0)
(-0.00387588 0.00119288 0)
(-0.0042236 0.00121617 0)
(-0.00457758 0.00123597 0)
(-0.00493691 0.0012526 0)
(-0.00530077 0.00126635 0)
(-0.00566839 0.00127748 0)
(-0.00603907 0.00128626 0)
(-0.00641217 0.00129291 0)
(-0.00678711 0.00129762 0)
(-0.00716336 0.0013006 0)
(-0.00754042 0.00130201 0)
(-0.00791784 0.00130199 0)
(-0.00829521 0.00130066 0)
(-0.00867217 0.00129815 0)
(-0.00904834 0.00129453 0)
(-0.0094234 0.00128989 0)
(-0.00979704 0.00128429 0)
(-0.010169 0.00127778 0)
(-0.0105389 0.00127039 0)
(-0.0109066 0.00126217 0)
(-0.0112717 0.00125311 0)
(-0.0116341 0.00124323 0)
(-0.0119934 0.00123253 0)
(-0.0123494 0.00122101 0)
(-0.0127019 0.00120864 0)
(-0.0130505 0.00119541 0)
(-0.013395 0.00118129 0)
(-0.0137352 0.00116625 0)
(-0.0140708 0.00115027 0)
(-0.0144014 0.00113331 0)
(-0.0147267 0.00111533 0)
(-0.0150466 0.00109628 0)
(-0.0153605 0.00107614 0)
(-0.0156683 0.00105485 0)
(-0.0159696 0.00103238 0)
(-0.016264 0.00100869 0)
(-0.0165511 0.000983728 0)
(-0.0168307 0.000957462 0)
(-0.0171023 0.000929854 0)
(-0.0173655 0.000900866 0)
(-0.01762 0.000870464 0)
(-0.0178653 0.000838619 0)
(-0.018101 0.000805302 0)
(-0.0183267 0.000770491 0)
(-0.018542 0.000734165 0)
(-0.0187465 0.000696309 0)
(-0.0189397 0.000656913 0)
(-0.0191212 0.000615972 0)
(-0.0192906 0.000573487 0)
(-0.0194475 0.000529464 0)
(-0.0195913 0.000483917 0)
(-0.0197218 0.000436864 0)
(-0.0198385 0.000388334 0)
(-0.0199411 0.000338359 0)
(-0.020029 0.000286982 0)
(-0.020102 0.000234251 0)
(-0.0201597 0.000180225 0)
(-0.0202017 0.000124967 0)
(-0.0202278 6.85513e-05 0)
(-0.0202376 1.10598e-05 0)
(-0.0202309 -4.74181e-05 0)
(-0.0202074 -0.000106785 0)
(-0.020167 -0.000166933 0)
(-0.0201093 -0.000227751 0)