/*--------------------------------*- C++ -*----------------------------------*\
  =========                 |
  \\      /  F ield         | OpenFOAM: The Open Source CFD Toolbox
   \\    /   O peration     | Website:  https://openfoam.org
    \\  /    A nd           | Version:  7
     \\/     M anipulation  |
\*---------------------------------------------------------------------------*/
FoamFile
{
    version     2.0;
    format      ascii;
    class       surfaceScalarField;
    location    "0.1875";
    object      phi;
}
// * * * * * * * * * * * * * * * * * * * * * * * * * * * * * * * * * * * * * //

dimensions      [0 3 -1 0 0 0 0];

internalField   nonuniform List<scalar> 
50880
(
9.18406e-12
-9.18676e-12
2.77365e-11
-1.85515e-11
4.60513e-11
-1.83157e-11
5.7493e-11
-1.1441e-11
5.86475e-11
-1.15457e-12
4.78899e-11
1.07579e-11
2.46429e-11
2.32471e-11
-1.10492e-11
3.5692e-11
-5.88313e-11
4.77819e-11
-1.1815e-10
5.93184e-11
-1.88317e-10
7.01655e-11
-2.68576e-10
8.02572e-11
-3.58152e-10
8.95767e-11
-4.5628e-10
9.81287e-11
-5.6221e-10
1.05931e-10
-6.7521e-10
1.13e-10
-7.94569e-10
1.19361e-10
-9.19619e-10
1.25052e-10
-1.04973e-09
1.30116e-10
-1.18431e-09
1.34583e-10
-1.3228e-09
1.38491e-10
-1.46468e-09
1.41881e-10
-1.60947e-09
1.44788e-10
-1.75671e-09
1.47242e-10
-1.90599e-09
1.49282e-10
-2.05694e-09
1.50949e-10
-2.20921e-09
1.52269e-10
-2.36248e-09
1.53268e-10
-2.51645e-09
1.53974e-10
-2.67087e-09
1.54411e-10
-2.82547e-09
1.54605e-10
-2.98005e-09
1.54577e-10
-3.1344e-09
1.54348e-10
-3.28834e-09
1.53937e-10
-3.4417e-09
1.53361e-10
-3.59433e-09
1.52634e-10
-3.7461e-09
1.51765e-10
-3.89686e-09
1.50763e-10
-4.04651e-09
1.49644e-10
-4.19493e-09
1.48421e-10
-4.34202e-09
1.47097e-10
-4.4877e-09
1.45678e-10
-4.63186e-09
1.44167e-10
-4.77444e-09
1.42572e-10
-4.91534e-09
1.40896e-10
-5.05448e-09
1.39144e-10
-5.1918e-09
1.37316e-10
-5.32721e-09
1.35414e-10
-5.46064e-09
1.33438e-10
-5.59203e-09
1.3139e-10
-5.7213e-09
1.29269e-10
-5.84838e-09
1.27078e-10
-5.9732e-09
1.24813e-10
-6.09567e-09
1.22473e-10
-6.21573e-09
1.20058e-10
-6.3333e-09
1.1757e-10
-6.44831e-09
1.15008e-10
-6.56068e-09
1.12368e-10
-6.67033e-09
1.09648e-10
-6.77717e-09
1.06844e-10
-6.88112e-09
1.03957e-10
-6.98211e-09
1.00985e-10
-7.08004e-09
9.79298e-11
-7.17483e-09
9.47894e-11
-7.26639e-09
9.15633e-11
-7.35464e-09
8.82492e-11
-7.43948e-09
8.48436e-11
-7.52083e-09
8.13447e-11
-7.59858e-09
7.77535e-11
-7.67265e-09
7.40718e-11
-7.74295e-09
7.02995e-11
-7.80939e-09
6.64352e-11
-7.87187e-09
6.2477e-11
-7.93029e-09
5.84239e-11
-7.98457e-09
5.42766e-11
-8.0346e-09
5.00366e-11
-8.08031e-09
4.57059e-11
-8.1216e-09
4.12853e-11
-8.15837e-09
3.6775e-11
-8.19054e-09
3.21751e-11
-8.21803e-09
2.74868e-11
-8.24074e-09
2.27116e-11
-8.25859e-09
1.78521e-11
-8.2715e-09
1.29121e-11
-8.2794e-09
7.89443e-12
-8.2822e-09
2.80133e-12
-8.27984e-09
-2.36499e-12
-8.27223e-09
-7.60188e-12
-8.25933e-09
-1.29055e-11
-8.24106e-09
-1.82711e-11
-8.21737e-09
-2.36946e-11
-8.18819e-09
-2.91718e-11
-8.15349e-09
-3.46979e-11
-8.11323e-09
-4.02681e-11
-8.06735e-09
-4.58767e-11
-8.01583e-09
-5.15179e-11
-7.95864e-09
-5.71862e-11
-7.89577e-09
-6.28754e-11
-7.82719e-09
-6.85785e-11
-7.7529e-09
-7.42879e-11
-7.67291e-09
-7.99957e-11
-7.58721e-09
-8.56939e-11
-7.49584e-09
-9.13743e-11
-7.39881e-09
-9.70281e-11
-7.29617e-09
-1.02647e-10
-7.18795e-09
-1.0822e-10
-7.07421e-09
-1.13738e-10
-6.95502e-09
-1.19191e-10
-6.83045e-09
-1.24567e-10
-6.70059e-09
-1.29857e-10
-6.56554e-09
-1.35048e-10
-6.42541e-09
-1.40128e-10
-6.28033e-09
-1.45083e-10
-6.13043e-09
-1.499e-10
-5.97586e-09
-1.54567e-10
-5.8168e-09
-1.59067e-10
-5.65341e-09
-1.63388e-10
-5.4859e-09
-1.67513e-10
-5.31447e-09
-1.71427e-10
-5.13936e-09
-1.75113e-10
-4.9608e-09
-1.78553e-10
-4.77907e-09
-1.81732e-10
-4.59444e-09
-1.84629e-10
-4.40721e-09
-1.87228e-10
-4.2177e-09
-1.89509e-10
-4.02625e-09
-1.91451e-10
-3.83322e-09
-1.93035e-10
-3.63898e-09
-1.94239e-10
-3.44394e-09
-1.95042e-10
-3.24851e-09
-1.95423e-10
-3.05316e-09
-1.95358e-10
-2.85833e-09
-1.94825e-10
-2.66453e-09
-1.93801e-10
-2.47227e-09
-1.92262e-10
-2.28208e-09
-1.90186e-10
-2.09453e-09
-1.87549e-10
-1.9102e-09
-1.84325e-10
-1.72971e-09
-1.80492e-10
-1.55368e-09
-1.76026e-10
-1.38278e-09
-1.70903e-10
-1.21768e-09
-1.65101e-10
-1.05908e-09
-1.58596e-10
-9.07715e-10
-1.51369e-10
-7.64315e-10
-1.434e-10
-6.29643e-10
-1.34673e-10
-5.04468e-10
-1.25173e-10
-3.89574e-10
-1.14894e-10
-2.8574e-10
-1.03834e-10
-1.93735e-10
-9.2005e-11
-1.143e-10
-7.94339e-11
-4.81275e-11
-6.61716e-11
4.18084e-12
-5.23084e-11
4.21812e-11
-3.80009e-11
6.56725e-11
-2.34914e-11
7.48773e-11
-9.20447e-12
7.0714e-11
4.16361e-12
5.52712e-11
1.54431e-11
3.26203e-11
2.2651e-11
1.02918e-11
2.23284e-11
1.02919e-11
1.93827e-11
-2.85684e-11
4.85869e-11
-4.77579e-11
7.08766e-11
-4.06044e-11
7.52072e-11
-1.57725e-11
5.42433e-11
1.98092e-11
3.72989e-12
6.12706e-11
-7.83531e-11
1.0533e-10
-1.92573e-10
1.49912e-10
-3.38498e-10
1.93708e-10
-5.15065e-10
2.35888e-10
-7.2082e-10
2.75922e-10
-9.54051e-10
3.13487e-10
-1.2129e-09
3.48421e-10
-1.49544e-09
3.80668e-10
-1.79974e-09
4.10229e-10
-2.12388e-09
4.37146e-10
-2.46602e-09
4.61496e-10
-2.82436e-09
4.83382e-10
-3.19717e-09
5.02921e-10
-3.58282e-09
5.20237e-10
-3.97979e-09
5.35454e-10
-4.38661e-09
5.48706e-10
-4.80195e-09
5.60121e-10
-5.22453e-09
5.69824e-10
-5.65319e-09
5.77944e-10
-6.08685e-09
5.84607e-10
-6.5245e-09
5.89921e-10
-6.96522e-09
5.9399e-10
-7.40816e-09
5.96918e-10
-7.85255e-09
5.98802e-10
-8.29767e-09
5.99729e-10
-8.74287e-09
5.99781e-10
-9.18756e-09
5.99036e-10
-9.63119e-09
5.97564e-10
-1.00733e-08
5.95429e-10
-1.05133e-08
5.92686e-10
-1.09509e-08
5.89381e-10
-1.13857e-08
5.85559e-10
-1.18173e-08
5.81262e-10
-1.22455e-08
5.76529e-10
-1.26698e-08
5.71391e-10
-1.30899e-08
5.6587e-10
-1.35058e-08
5.59989e-10
-1.3917e-08
5.53764e-10
-1.43233e-08
5.47211e-10
-1.47245e-08
5.40342e-10
-1.51203e-08
5.33169e-10
-1.55106e-08
5.257e-10
-1.58951e-08
5.17942e-10
-1.62736e-08
5.09896e-10
-1.66459e-08
5.01563e-10
-1.70118e-08
4.92943e-10
-1.7371e-08
4.84032e-10
-1.77234e-08
4.74831e-10
-1.80686e-08
4.65339e-10
-1.84066e-08
4.55555e-10
-1.87371e-08
4.45472e-10
-1.90598e-08
4.35086e-10
-1.93745e-08
4.24389e-10
-1.96811e-08
4.13379e-10
-1.99792e-08
4.02051e-10
-2.02686e-08
3.90401e-10
-2.05491e-08
3.78425e-10
-2.08204e-08
3.66118e-10
-2.10823e-08
3.53475e-10
-2.13346e-08
3.40493e-10
-2.15769e-08
3.27167e-10
-2.1809e-08
3.13494e-10
-2.20307e-08
2.99471e-10
-2.22418e-08
2.85098e-10
-2.24419e-08
2.70375e-10
-2.26307e-08
2.55299e-10
-2.28081e-08
2.3987e-10
-2.29738e-08
2.24086e-10
-2.31274e-08
2.07949e-10
-2.32689e-08
1.9146e-10
-2.33978e-08
1.74622e-10
-2.35139e-08
1.57439e-10
-2.36171e-08
1.39916e-10
-2.3707e-08
1.22057e-10
-2.37833e-08
1.03868e-10
-2.3846e-08
8.53548e-11
-2.38946e-08
6.65248e-11
-2.39291e-08
4.73878e-11
-2.39492e-08
2.79549e-11
-2.39546e-08
8.23763e-12
-2.39452e-08
-1.17528e-11
-2.39208e-08
-3.20045e-11
-2.38812e-08
-5.25046e-11
-2.38263e-08
-7.32378e-11
-2.37558e-08
-9.41871e-11
-2.36696e-08
-1.15335e-10
-2.35676e-08
-1.36664e-10
-2.34498e-08
-1.58153e-10
-2.33158e-08
-1.79783e-10
-2.31658e-08
-2.01532e-10
-2.29996e-08
-2.23375e-10
-2.28172e-08
-2.45288e-10
-2.26186e-08
-2.67246e-10
-2.24036e-08
-2.89221e-10
-2.21724e-08
-3.11182e-10
-2.1925e-08
-3.33099e-10
-2.16615e-08
-3.54939e-10
-2.13818e-08
-3.7667e-10
-2.10862e-08
-3.98258e-10
-2.07748e-08
-4.19667e-10
-2.04477e-08
-4.40858e-10
-2.01051e-08
-4.61791e-10
-1.97472e-08
-4.82425e-10
-1.93743e-08
-5.02715e-10
-1.89868e-08
-5.22618e-10
-1.85848e-08
-5.42088e-10
-1.81688e-08
-5.61075e-10
-1.77392e-08
-5.7953e-10
-1.72963e-08
-5.97398e-10
-1.68408e-08
-6.14624e-10
-1.6373e-08
-6.31152e-10
-1.58936e-08
-6.46922e-10
-1.54032e-08
-6.61875e-10
-1.49023e-08
-6.75948e-10
-1.43918e-08
-6.89077e-10
-1.38723e-08
-7.01193e-10
-1.33447e-08
-7.12227e-10
-1.28099e-08
-7.22107e-10
-1.22686e-08
-7.30762e-10
-1.1722e-08
-7.38114e-10
-1.11709e-08
-7.44086e-10
-1.06165e-08
-7.486e-10
-1.006e-08
-7.51573e-10
-9.50252e-09
-7.52922e-10
-8.94531e-09
-7.52563e-10
-8.38973e-09
-7.5041e-10
-7.83715e-09
-7.46377e-10
-7.28903e-09
-7.40377e-10
-6.7469e-09
-7.32324e-10
-6.21232e-09
-7.22129e-10
-5.68694e-09
-7.09704e-10
-5.17247e-09
-6.94963e-10
-4.67067e-09
-6.77823e-10
-4.18337e-09
-6.58202e-10
-3.71245e-09
-6.36021e-10
-3.25985e-09
-6.11207e-10
-2.82752e-09
-5.83694e-10
-2.4175e-09
-5.53427e-10
-2.03181e-09
-5.20365e-10
-1.67249e-09
-4.84486e-10
-1.34159e-09
-4.45793e-10
-1.0411e-09
-4.04326e-10
-7.72926e-10
-3.60178e-10
-5.38845e-10
-3.13516e-10
-3.40404e-10
-2.64613e-10
-1.7881e-10
-2.13902e-10
-5.47605e-11
-1.62051e-10
3.18264e-11
-1.10079e-10
8.21712e-11
-5.95503e-11
9.91856e-11
-1.28511e-11
8.82437e-11
2.63852e-11
5.81787e-11
5.2716e-11
2.23048e-11
5.82023e-11
3.25969e-11
1.84977e-11
-4.7067e-11
4.11582e-11
-7.04198e-11
4.78739e-11
-4.732e-11
2.54057e-11
6.69559e-12
-3.53077e-11
8.05217e-11
-1.39926e-10
1.6589e-10
-2.91503e-10
2.56906e-10
-4.91155e-10
3.49562e-10
-7.38609e-10
4.4116e-10
-1.03262e-09
5.29901e-10
-1.3713e-09
6.14596e-10
-1.7523e-09
6.94488e-10
-2.17301e-09
7.69138e-10
-2.63067e-09
8.3833e-10
-3.12244e-09
9.01996e-10
-3.64546e-09
9.60174e-10
-4.19695e-09
1.01298e-09
-4.77417e-09
1.0606e-09
-5.37448e-09
1.10324e-09
-5.99538e-09
1.14113e-09
-6.63446e-09
1.17454e-09
-7.28948e-09
1.20372e-09
-7.9583e-09
1.22894e-09
-8.63892e-09
1.25045e-09
-9.32951e-09
1.26852e-09
-1.00283e-08
1.28341e-09
-1.07337e-08
1.29534e-09
-1.14443e-08
1.30455e-09
-1.21586e-08
1.31125e-09
-1.28755e-08
1.31564e-09
-1.35937e-08
1.31792e-09
-1.43121e-08
1.31826e-09
-1.50299e-08
1.31683e-09
-1.57462e-08
1.31377e-09
-1.646e-08
1.30923e-09
-1.71706e-08
1.30332e-09
-1.78774e-08
1.29616e-09
-1.85796e-08
1.28784e-09
-1.92768e-08
1.27845e-09
-1.99684e-08
1.26807e-09
-2.06537e-08
1.25677e-09
-2.13325e-08
1.2446e-09
-2.20041e-08
1.23162e-09
-2.26682e-08
1.21787e-09
-2.33244e-08
1.20338e-09
-2.39722e-08
1.18819e-09
-2.46114e-08
1.1723e-09
-2.52414e-08
1.15574e-09
-2.5862e-08
1.13853e-09
-2.64728e-08
1.12068e-09
-2.70734e-08
1.10218e-09
-2.76635e-08
1.08305e-09
-2.82427e-08
1.06327e-09
-2.88108e-08
1.04285e-09
-2.93672e-08
1.02178e-09
-2.99117e-08
1.00006e-09
-3.04439e-08
9.77687e-10
-3.09635e-08
9.54641e-10
-3.147e-08
9.30916e-10
-3.19631e-08
9.06502e-10
-3.24425e-08
8.81391e-10
-3.29076e-08
8.55577e-10
-3.33583e-08
8.29049e-10
-3.3794e-08
8.018e-10
-3.42143e-08
7.73819e-10
-3.46189e-08
7.45099e-10
-3.50074e-08
7.15632e-10
-3.53793e-08
6.85412e-10
-3.57342e-08
6.54435e-10
-3.60718e-08
6.22699e-10
-3.63917e-08
5.902e-10
-3.66933e-08
5.56936e-10
-3.69763e-08
5.22907e-10
-3.72404e-08
4.88113e-10
-3.7485e-08
4.52558e-10
-3.77098e-08
4.16245e-10
-3.79143e-08
3.79181e-10
-3.80983e-08
3.41372e-10
-3.82612e-08
3.02828e-10
-3.84027e-08
2.63561e-10
-3.85224e-08
2.23584e-10
-3.86199e-08
1.82912e-10
-3.8695e-08
1.41564e-10
-3.87472e-08
9.95562e-11
-3.87761e-08
5.69123e-11
-3.87815e-08
1.36563e-11
-3.87631e-08
-3.01854e-11
-3.87205e-08
-7.45848e-11
-3.86535e-08
-1.19512e-10
-3.85618e-08
-1.64935e-10
-3.84452e-08
-2.10818e-10
-3.83034e-08
-2.57122e-10
-3.81362e-08
-3.03808e-10
-3.79436e-08
-3.50833e-10
-3.77252e-08
-3.98151e-10
-3.7481e-08
-4.45715e-10
-3.72109e-08
-4.93472e-10
-3.69148e-08
-5.41368e-10
-3.65927e-08
-5.89347e-10
-3.62446e-08
-6.37348e-10
-3.58705e-08
-6.85307e-10
-3.54704e-08
-7.33159e-10
-3.50445e-08
-7.80834e-10
-3.45929e-08
-8.28259e-10
-3.41158e-08
-8.75358e-10
-3.36135e-08
-9.22053e-10
-3.30861e-08
-9.68261e-10
-3.25339e-08
-1.0139e-09
-3.19575e-08
-1.05887e-09
-3.13571e-08
-1.10308e-09
-3.07333e-08
-1.14644e-09
-3.00866e-08
-1.18883e-09
-2.94175e-08
-1.23017e-09
-2.87267e-08
-1.27033e-09
-2.80149e-08
-1.30921e-09
-2.72828e-08
-1.34667e-09
-2.65314e-08
-1.38261e-09
-2.57614e-08
-1.41688e-09
-2.49739e-08
-1.44937e-09
-2.41699e-08
-1.47992e-09
-2.33506e-08
-1.50841e-09
-2.25171e-08
-1.53469e-09
-2.16707e-08
-1.55859e-09
-2.08129e-08
-1.57998e-09
-1.99449e-08
-1.59869e-09
-1.90685e-08
-1.61456e-09
-1.81852e-08
-1.62741e-09
-1.72967e-08
-1.63708e-09
-1.64049e-08
-1.6434e-09
-1.55116e-08
-1.64618e-09
-1.46189e-08
-1.64524e-09
-1.37289e-08
-1.64039e-09
-1.28439e-08
-1.63147e-09
-1.1966e-08
-1.61827e-09
-1.10976e-08
-1.60063e-09
-1.02414e-08
-1.57834e-09
-9.39991e-09
-1.55123e-09
-8.57575e-09
-1.51912e-09
-7.77174e-09
-1.48184e-09
-6.99071e-09
-1.43923e-09
-6.23561e-09
-1.39112e-09
-5.50943e-09
-1.33739e-09
-4.81521e-09
-1.27791e-09
-4.15604e-09
-1.2126e-09
-3.53501e-09
-1.14139e-09
-2.95521e-09
-1.06428e-09
-2.41967e-09
-9.81337e-10
-1.9313e-09
-8.92693e-10
-1.49285e-09
-7.98625e-10
-1.1068e-09
-6.9957e-10
-7.75203e-10
-5.96206e-10
-4.9956e-10
-4.89546e-10
-2.80527e-10
-3.81084e-10
-1.17606e-10
-2.72999e-10
-8.69437e-12
-1.68461e-10
5.05145e-11
-7.20596e-11
6.72845e-11
9.61558e-12
5.26986e-11
6.73027e-11
2.26052e-11
8.82957e-11
5.52025e-11
1.14996e-11
-5.85645e-11
1.59796e-11
-7.49014e-11
-6.50548e-12
-2.48348e-11
-6.96617e-11
6.98536e-11
-1.83052e-10
1.93912e-10
-3.52874e-10
3.35712e-10
-5.82651e-10
4.86686e-10
-8.73817e-10
6.40728e-10
-1.22621e-09
7.93554e-10
-1.63851e-09
9.42197e-10
-2.10855e-09
1.08463e-09
-2.63358e-09
1.21952e-09
-3.21045e-09
1.34601e-09
-3.83577e-09
1.46365e-09
-4.506e-09
1.57223e-09
-5.21757e-09
1.67174e-09
-5.96692e-09
1.76234e-09
-6.75056e-09
1.84424e-09
-7.56508e-09
1.91776e-09
-8.40723e-09
1.98328e-09
-9.27387e-09
2.04118e-09
-1.0162e-08
2.09189e-09
-1.10689e-08
2.13582e-09
-1.19919e-08
2.17342e-09
-1.29284e-08
2.20509e-09
-1.38763e-08
2.23127e-09
-1.48333e-08
2.25233e-09
-1.57974e-08
2.26868e-09
-1.67668e-08
2.28067e-09
-1.77398e-08
2.28864e-09
-1.87148e-08
2.29292e-09
-1.96904e-08
2.29381e-09
-2.06651e-08
2.29159e-09
-2.16379e-08
2.28651e-09
-2.26074e-08
2.2788e-09
-2.35728e-08
2.26869e-09
-2.4533e-08
2.25635e-09
-2.54871e-08
2.24197e-09
-2.64344e-08
2.22569e-09
-2.7374e-08
2.20765e-09
-2.83052e-08
2.18797e-09
-2.92273e-08
2.16676e-09
-3.01398e-08
2.14409e-09
-3.1042e-08
2.12004e-09
-3.19333e-08
2.09469e-09
-3.28132e-08
2.06807e-09
-3.36811e-08
2.04024e-09
-3.45366e-08
2.01122e-09
-3.53791e-08
1.98103e-09
-3.62081e-08
1.9497e-09
-3.70232e-08
1.91724e-09
-3.78238e-08
1.88366e-09
-3.86095e-08
1.84895e-09
-3.93797e-08
1.81311e-09
-4.01341e-08
1.77613e-09
-4.0872e-08
1.73802e-09
-4.15931e-08
1.69875e-09
-4.22968e-08
1.65832e-09
-4.29825e-08
1.6167e-09
-4.36499e-08
1.5739e-09
-4.42984e-08
1.52989e-09
-4.49275e-08
1.48465e-09
-4.55366e-08
1.43818e-09
-4.61253e-08
1.39046e-09
-4.66929e-08
1.34147e-09
-4.72391e-08
1.29121e-09
-4.77631e-08
1.23967e-09
-4.82645e-08
1.18683e-09
-4.87428e-08
1.13269e-09
-4.91973e-08
1.07724e-09
-4.96276e-08
1.02048e-09
-5.00331e-08
9.62409e-10
-5.04132e-08
9.03024e-10
-5.07674e-08
8.42328e-10
-5.10952e-08
7.80327e-10
-5.1396e-08
7.1703e-10
-5.16692e-08
6.52448e-10
-5.19144e-08
5.86594e-10
-5.21311e-08
5.19486e-10
-5.23187e-08
4.51143e-10
-5.24767e-08
3.81588e-10
-5.26046e-08
3.10848e-10
-5.2702e-08
2.38956e-10
-5.27684e-08
1.65944e-10
-5.28033e-08
9.18506e-11
-5.28064e-08
1.67157e-11
-5.27772e-08
-5.94148e-11
-5.27153e-08
-1.36492e-10
-5.26203e-08
-2.14462e-10
-5.2492e-08
-2.93268e-10
-5.23299e-08
-3.7285e-10
-5.21339e-08
-4.53141e-10
-5.19037e-08
-5.34073e-10
-5.16389e-08
-6.15569e-10
-5.13395e-08
-6.97553e-10
-5.10053e-08
-7.79939e-10
-5.06361e-08
-8.6264e-10
-5.02319e-08
-9.45561e-10
-4.97927e-08
-1.0286e-09
-4.93184e-08
-1.11166e-09
-4.8809e-08
-1.19463e-09
-4.82648e-08
-1.2774e-09
-4.76858e-08
-1.35984e-09
-4.70722e-08
-1.44183e-09
-4.64243e-08
-1.52324e-09
-4.57425e-08
-1.60393e-09
-4.5027e-08
-1.68375e-09
-4.42783e-08
-1.76257e-09
-4.34969e-08
-1.84023e-09
-4.26835e-08
-1.91656e-09
-4.18385e-08
-1.99139e-09
-4.09628e-08
-2.06455e-09
-4.00571e-08
-2.13586e-09
-3.91223e-08
-2.20512e-09
-3.81594e-08
-2.27214e-09
-3.71693e-08
-2.33671e-09
-3.61533e-08
-2.39863e-09
-3.51125e-08
-2.45767e-09
-3.40483e-08
-2.5136e-09
-3.2962e-08
-2.56618e-09
-3.18553e-08
-2.61519e-09
-3.07296e-08
-2.66035e-09
-2.95868e-08
-2.70142e-09
-2.84286e-08
-2.73814e-09
-2.72571e-08
-2.77021e-09
-2.60743e-08
-2.79738e-09
-2.48824e-08
-2.81934e-09
-2.36836e-08
-2.8358e-09
-2.24806e-08
-2.84647e-09
-2.12757e-08
-2.85105e-09
-2.00717e-08
-2.84922e-09
-1.88714e-08
-2.84067e-09
-1.76778e-08
-2.82509e-09
-1.64939e-08
-2.80218e-09
-1.53229e-08
-2.77162e-09
-1.41681e-08
-2.7331e-09
-1.3033e-08
-2.68633e-09
-1.19212e-08
-2.63101e-09
-1.08361e-08
-2.56686e-09
-9.78175e-09
-2.49362e-09
-8.76181e-09
-2.41106e-09
-7.78023e-09
-2.31897e-09
-6.84098e-09
-2.21717e-09
-5.94802e-09
-2.10556e-09
-5.10533e-09
-1.98408e-09
-4.31682e-09
-1.85279e-09
-3.5863e-09
-1.71185e-09
-2.9174e-09
-1.56159e-09
-2.31347e-09
-1.40255e-09
-1.77747e-09
-1.23558e-09
-1.31178e-09
-1.0619e-09
-9.18024e-10
-8.83301e-10
-5.96784e-10
-7.02324e-10
-3.47242e-10
-5.22541e-10
-1.66748e-10
-3.48955e-10
-5.02715e-11
-1.88535e-10
1.02487e-11
-5.09038e-11
2.66587e-11
5.08932e-11
1.54521e-11
9.95025e-11
7.06547e-11
1.20525e-12
-5.9769e-11
-1.9771e-11
-5.39255e-11
-8.06854e-11
3.60787e-11
-1.94346e-10
1.83515e-10
-3.69848e-10
3.69413e-10
-6.13221e-10
5.79084e-10
-9.27972e-10
8.01436e-10
-1.31555e-09
1.02831e-09
-1.7758e-09
1.2538e-09
-2.30727e-09
1.47367e-09
-2.9076e-09
1.68496e-09
-3.57372e-09
1.88564e-09
-4.3021e-09
2.07439e-09
-5.08886e-09
2.25041e-09
-5.92994e-09
2.41331e-09
-6.82118e-09
2.56299e-09
-7.75843e-09
2.69958e-09
-8.73755e-09
2.82336e-09
-9.75453e-09
2.93474e-09
-1.08055e-08
3.0342e-09
-1.18866e-08
3.1223e-09
-1.29943e-08
3.19963e-09
-1.41253e-08
3.26678e-09
-1.52762e-08
3.32438e-09
-1.64442e-08
3.37304e-09
-1.76263e-08
3.41336e-09
-1.88198e-08
3.44592e-09
-2.00225e-08
3.47129e-09
-2.12318e-08
3.49002e-09
-2.24458e-08
3.5026e-09
-2.36624e-08
3.50952e-09
-2.48798e-08
3.51124e-09
-2.60964e-08
3.50815e-09
-2.73105e-08
3.50066e-09
-2.85208e-08
3.48912e-09
-2.9726e-08
3.47383e-09
-3.09247e-08
3.4551e-09
-3.2116e-08
3.43319e-09
-3.32986e-08
3.40833e-09
-3.44717e-08
3.38073e-09
-3.56343e-08
3.35057e-09
-3.67855e-08
3.31801e-09
-3.79246e-08
3.28318e-09
-3.90508e-08
3.24621e-09
-4.01633e-08
3.20718e-09
-4.12614e-08
3.16619e-09
-4.23445e-08
3.12331e-09
-4.34118e-08
3.07857e-09
-4.44628e-08
3.03202e-09
-4.54968e-08
2.9837e-09
-4.65132e-08
2.93363e-09
-4.75113e-08
2.8818e-09
-4.84906e-08
2.82825e-09
-4.94505e-08
2.77295e-09
-5.03902e-08
2.7159e-09
-5.13093e-08
2.6571e-09
-5.22071e-08
2.59652e-09
-5.30829e-08
2.53417e-09
-5.39362e-08
2.47e-09
-5.47664e-08
2.40402e-09
-5.55727e-08
2.33619e-09
-5.63545e-08
2.2665e-09
-5.71113e-08
2.19493e-09
-5.78423e-08
2.12145e-09
-5.85469e-08
2.04606e-09
-5.92244e-08
1.96873e-09
-5.98741e-08
1.88945e-09
-6.04955e-08
1.8082e-09
-6.10878e-08
1.72499e-09
-6.16504e-08
1.63979e-09
-6.21825e-08
1.55262e-09
-6.26835e-08
1.46345e-09
-6.31528e-08
1.37231e-09
-6.35897e-08
1.27919e-09
-6.39935e-08
1.1841e-09
-6.43635e-08
1.08705e-09
-6.46991e-08
9.8807e-10
-6.49997e-08
8.87176e-10
-6.52646e-08
7.84395e-10
-6.54932e-08
6.79759e-10
-6.56849e-08
5.73302e-10
-6.58391e-08
4.65068e-10
-6.59553e-08
3.55102e-10
-6.60328e-08
2.43459e-10
-6.60711e-08
1.30196e-10
-6.60698e-08
1.53751e-11
-6.60283e-08
-1.00934e-10
-6.59461e-08
-2.18656e-10
-6.58229e-08
-3.3771e-10
-6.56581e-08
-4.58009e-10
-6.54515e-08
-5.79459e-10
-6.52027e-08
-7.0196e-10
-6.49114e-08
-8.25407e-10
-6.45773e-08
-9.49684e-10
-6.42001e-08
-1.07467e-09
-6.37798e-08
-1.20024e-09
-6.33162e-08
-1.32626e-09
-6.28092e-08
-1.45259e-09
-6.22587e-08
-1.57907e-09
-6.16648e-08
-1.70556e-09
-6.10276e-08
-1.83187e-09
-6.03471e-08
-1.95785e-09
-5.96237e-08
-2.0833e-09
-5.88575e-08
-2.20804e-09
-5.80488e-08
-2.33187e-09
-5.71982e-08
-2.45458e-09
-5.6306e-08
-2.57596e-09
-5.53728e-08
-2.69577e-09
-5.43992e-08
-2.81379e-09
-5.3386e-08
-2.92976e-09
-5.2334e-08
-3.04343e-09
-5.1244e-08
-3.15454e-09
-5.0117e-08
-3.26281e-09
-4.89542e-08
-3.36794e-09
-4.77567e-08
-3.46964e-09
-4.65258e-08
-3.56761e-09
-4.52629e-08
-3.66151e-09
-4.39696e-08
-3.75101e-09
-4.26474e-08
-3.83578e-09
-4.12981e-08
-3.91545e-09
-3.99237e-08
-3.98965e-09
-3.8526e-08
-4.05801e-09
-3.71073e-08
-4.12013e-09
-3.56698e-08
-4.17562e-09
-3.4216e-08
-4.22405e-09
-3.27483e-08
-4.26502e-09
-3.12696e-08
-4.29808e-09
-2.97826e-08
-4.32279e-09
-2.82904e-08
-4.33871e-09
-2.6796e-08
-4.34538e-09
-2.53029e-08
-4.34235e-09
-2.38144e-08
-4.32914e-09
-2.23342e-08
-4.3053e-09
-2.0866e-08
-4.27037e-09
-1.94138e-08
-4.22388e-09
-1.79815e-08
-4.1654e-09
-1.65733e-08
-4.09448e-09
-1.51936e-08
-4.0107e-09
-1.38468e-08
-3.91367e-09
-1.25374e-08
-3.80302e-09
-1.127e-08
-3.67843e-09
-1.00494e-08
-3.53962e-09
-8.88016e-09
-3.38639e-09
-7.76708e-09
-3.21863e-09
-6.71485e-09
-3.03632e-09
-5.72803e-09
-2.83961e-09
-4.81106e-09
-2.62882e-09
-3.9681e-09
-2.40455e-09
-3.20295e-09
-2.1677e-09
-2.51892e-09
-1.91961e-09
-1.91863e-09
-1.66219e-09
-1.4038e-09
-1.39813e-09
-9.74993e-10
-1.13114e-09
-6.31252e-10
-8.66281e-10
-3.69746e-10
-6.1046e-10
-1.85289e-10
-3.72991e-10
-6.98203e-11
-1.66372e-10
-1.18267e-11
-7.09989e-12
4.35741e-12
8.33184e-11
7.50118e-11
-1.07507e-11
-4.90177e-11
-6.14713e-11
-3.2049e-12
-1.66716e-10
1.41323e-10
-3.37427e-10
3.54228e-10
-5.81544e-10
6.1353e-10
-9.04384e-10
9.01923e-10
-1.30902e-09
1.20607e-09
-1.79664e-09
1.51593e-09
-2.36687e-09
1.82403e-09
-3.01811e-09
2.1249e-09
-3.74774e-09
2.41459e-09
-4.55243e-09
2.69034e-09
-5.42833e-09
2.95028e-09
-6.37118e-09
3.19326e-09
-7.3765e-09
3.41863e-09
-8.43968e-09
3.62617e-09
-9.55605e-09
3.81595e-09
-1.0721e-08
3.9883e-09
-1.19299e-08
4.14368e-09
-1.31785e-08
4.28273e-09
-1.44623e-08
4.40613e-09
-1.57773e-08
4.51464e-09
-1.71196e-08
4.60908e-09
-1.84854e-08
4.69024e-09
-1.98714e-08
4.75896e-09
-2.1274e-08
4.81603e-09
-2.26904e-08
4.86226e-09
-2.41175e-08
4.89841e-09
-2.55527e-08
4.92521e-09
-2.69935e-08
4.94336e-09
-2.84375e-08
4.95353e-09
-2.98825e-08
4.95632e-09
-3.13267e-08
4.95232e-09
-3.27681e-08
4.94206e-09
-3.4205e-08
4.92603e-09
-3.56358e-08
4.90467e-09
-3.70591e-08
4.8784e-09
-3.84735e-08
4.84757e-09
-3.98777e-08
4.81253e-09
-4.12705e-08
4.77355e-09
-4.26509e-08
4.73091e-09
-4.40177e-08
4.68482e-09
-4.537e-08
4.63547e-09
-4.67068e-08
4.58304e-09
-4.80273e-08
4.52767e-09
-4.93306e-08
4.46948e-09
-5.06158e-08
4.40855e-09
-5.18822e-08
4.34499e-09
-5.3129e-08
4.27883e-09
-5.43555e-08
4.21014e-09
-5.55608e-08
4.13893e-09
-5.67442e-08
4.06524e-09
-5.79051e-08
3.98908e-09
-5.90426e-08
3.91044e-09
-6.0156e-08
3.82932e-09
-6.12446e-08
3.74572e-09
-6.23077e-08
3.65961e-09
-6.33445e-08
3.57098e-09
-6.43543e-08
3.4798e-09
-6.53363e-08
3.38605e-09
-6.62898e-08
3.28971e-09
-6.72141e-08
3.19074e-09
-6.81083e-08
3.08914e-09
-6.89717e-08
2.98486e-09
-6.98035e-08
2.8779e-09
-7.0603e-08
2.76822e-09
-7.13694e-08
2.65582e-09
-7.21019e-08
2.54067e-09
-7.27996e-08
2.42276e-09
-7.34619e-08
2.30209e-09
-7.4088e-08
2.17865e-09
-7.4677e-08
2.05245e-09
-7.52282e-08
1.92348e-09
-7.57407e-08
1.79176e-09
-7.62139e-08
1.6573e-09
-7.6647e-08
1.52012e-09
-7.70392e-08
1.38025e-09
-7.73897e-08
1.23772e-09
-7.76979e-08
1.09257e-09
-7.7963e-08
9.4485e-10
-7.81843e-08
7.94606e-10
-7.83611e-08
6.41899e-10
-7.84928e-08
4.86796e-10
-7.85787e-08
3.29372e-10
-7.86182e-08
1.69707e-10
-7.86107e-08
7.89318e-12
-7.85557e-08
-1.55974e-10
-7.84526e-08
-3.21787e-10
-7.83008e-08
-4.89433e-10
-7.81001e-08
-6.58789e-10
-7.78498e-08
-8.29723e-10
-7.75497e-08
-1.00209e-09
-7.71993e-08
-1.17575e-09
-7.67985e-08
-1.35054e-09
-7.63469e-08
-1.52628e-09
-7.58443e-08
-1.70281e-09
-7.52906e-08
-1.87992e-09
-7.46858e-08
-2.05743e-09
-7.40298e-08
-2.23511e-09
-7.33226e-08
-2.41276e-09
-7.25643e-08
-2.59013e-09
-7.17551e-08
-2.76699e-09
-7.08954e-08
-2.94308e-09
-6.99853e-08
-3.11814e-09
-6.90253e-08
-3.29188e-09
-6.80158e-08
-3.46401e-09
-6.69575e-08
-3.63424e-09
-6.58511e-08
-3.80224e-09
-6.46972e-08
-3.96768e-09
-6.34967e-08
-4.13022e-09
-6.22507e-08
-4.2895e-09
-6.096e-08
-4.44516e-09
-5.96261e-08
-4.59679e-09
-5.825e-08
-4.744e-09
-5.68333e-08
-4.88638e-09
-5.53774e-08
-5.02348e-09
-5.3884e-08
-5.15485e-09
-5.2355e-08
-5.28004e-09
-5.07922e-08
-5.39855e-09
-4.91978e-08
-5.5099e-09
-4.75739e-08
-5.61357e-09
-4.59228e-08
-5.70903e-09
-4.42472e-08
-5.79574e-09
-4.25497e-08
-5.87313e-09
-4.08331e-08
-5.94063e-09
-3.91005e-08
-5.99766e-09
-3.7355e-08
-6.04361e-09
-3.55999e-08
-6.07788e-09
-3.38387e-08
-6.09985e-09
-3.20752e-08
-6.10888e-09
-3.03132e-08
-6.10434e-09
-2.85568e-08
-6.08561e-09
-2.681e-08
-6.05205e-09
-2.50774e-08
-6.00302e-09
-2.33633e-08
-5.93791e-09
-2.16726e-08
-5.85612e-09
-2.00101e-08
-5.75705e-09
-1.83806e-08
-5.64015e-09
-1.67894e-08
-5.5049e-09
-1.52416e-08
-5.35084e-09
-1.37424e-08
-5.17754e-09
-1.22974e-08
-4.98469e-09
-1.09117e-08
-4.77206e-09
-9.59077e-09
-4.53956e-09
-8.33985e-09
-4.28724e-09
-7.16405e-09
-4.0154e-09
-6.0683e-09
-3.72458e-09
-5.05719e-09
-3.41567e-09
-4.13488e-09
-3.09001e-09
-3.30495e-09
-2.74953e-09
-2.57024e-09
-2.3969e-09
-1.9326e-09
-2.03577e-09
-1.39268e-09
-1.67106e-09
-9.49616e-10
-1.30934e-09
-6.00729e-10
-9.59347e-10
-3.41146e-10
-6.32574e-10
-1.63431e-10
-3.44086e-10
-5.71929e-11
-1.13337e-10
-8.65662e-12
3.47817e-11
6.63545e-11
-2.3354e-11
-2.56636e-11
-1.06079e-10
7.95214e-11
-2.59065e-10
2.94308e-10
-4.90839e-10
5.86002e-10
-8.07693e-10
9.30385e-10
-1.21383e-09
1.30806e-09
-1.71157e-09
1.7038e-09
-2.30155e-09
2.10592e-09
-2.98304e-09
2.50552e-09
-3.75411e-09
2.89597e-09
-4.6119e-09
3.27237e-09
-5.55277e-09
3.63121e-09
-6.57258e-09
3.97009e-09
-7.66674e-09
4.28742e-09
-8.83043e-09
4.58232e-09
-1.00586e-08
4.85438e-09
-1.13463e-08
5.10363e-09
-1.26884e-08
5.33038e-09
-1.40799e-08
5.53519e-09
-1.5516e-08
5.71877e-09
-1.69918e-08
5.88198e-09
-1.85029e-08
6.02575e-09
-2.00449e-08
6.15108e-09
-2.16137e-08
6.259e-09
-2.32052e-08
6.35053e-09
-2.48159e-08
6.42672e-09
-2.64422e-08
6.48856e-09
-2.80809e-08
6.53706e-09
-2.97288e-08
6.57314e-09
-3.13832e-08
6.59773e-09
-3.30413e-08
6.61166e-09
-3.47008e-08
6.61576e-09
-3.63592e-08
6.61076e-09
-3.80145e-08
6.59738e-09
-3.96647e-08
6.57624e-09
-4.1308e-08
6.54794e-09
-4.29426e-08
6.51303e-09
-4.4567e-08
6.47197e-09
-4.61797e-08
6.42521e-09
-4.77793e-08
6.37314e-09
-4.93645e-08
6.31609e-09
-5.0934e-08
6.25438e-09
-5.24868e-08
6.18826e-09
-5.40217e-08
6.11796e-09
-5.55377e-08
6.04368e-09
-5.70338e-08
5.96557e-09
-5.8509e-08
5.88376e-09
-5.99624e-08
5.79837e-09
-6.13931e-08
5.70949e-09
-6.28001e-08
5.61718e-09
-6.41827e-08
5.52149e-09
-6.55399e-08
5.42244e-09
-6.68709e-08
5.32007e-09
-6.81748e-08
5.21437e-09
-6.94509e-08
5.10535e-09
-7.06981e-08
4.993e-09
-7.19158e-08
4.8773e-09
-7.31031e-08
4.75823e-09
-7.42591e-08
4.63576e-09
-7.53829e-08
4.50987e-09
-7.64737e-08
4.38052e-09
-7.75306e-08
4.24769e-09
-7.85528e-08
4.11135e-09
-7.95394e-08
3.97146e-09
-8.04896e-08
3.82801e-09
-8.14023e-08
3.68097e-09
-8.22768e-08
3.53031e-09
-8.31122e-08
3.37602e-09
-8.39075e-08
3.21809e-09
-8.46619e-08
3.05651e-09
-8.53745e-08
2.89128e-09
-8.60445e-08
2.72239e-09
-8.66708e-08
2.54986e-09
-8.72528e-08
2.3737e-09
-8.77894e-08
2.19393e-09
-8.82799e-08
2.01059e-09
-8.87234e-08
1.82371e-09
-8.9119e-08
1.63333e-09
-8.94659e-08
1.43952e-09
-8.97634e-08
1.24232e-09
-9.00106e-08
1.04182e-09
-9.02068e-08
8.38086e-10
-9.03512e-08
6.31216e-10
-9.04431e-08
4.21306e-10
-9.04819e-08
2.08467e-10
-9.04668e-08
-7.18208e-12
-9.03973e-08
-2.2551e-10
-9.02727e-08
-4.46375e-10
-9.00925e-08
-6.69626e-10
-8.98562e-08
-8.95099e-10
-8.95633e-08
-1.12262e-09
-8.92134e-08
-1.352e-09
-8.88061e-08
-1.58304e-09
-8.83411e-08
-1.81552e-09
-8.78182e-08
-2.04923e-09
-8.7237e-08
-2.28393e-09
-8.65976e-08
-2.51936e-09
-8.58998e-08
-2.75525e-09
-8.51436e-08
-2.99134e-09
-8.4329e-08
-3.22733e-09
-8.34562e-08
-3.46291e-09
-8.25254e-08
-3.69776e-09
-8.1537e-08
-3.93154e-09
-8.04912e-08
-4.16389e-09
-7.93886e-08
-4.39446e-09
-7.82298e-08
-4.62285e-09
-7.70154e-08
-4.84866e-09
-7.57462e-08
-5.07147e-09
-7.4423e-08
-5.29085e-09
-7.30469e-08
-5.50633e-09
-7.16189e-08
-5.71745e-09
-7.01404e-08
-5.92372e-09
-6.86125e-08
-6.12461e-09
-6.7037e-08
-6.31959e-09
-6.54152e-08
-6.50812e-09
-6.37491e-08
-6.68962e-09
-6.20404e-08
-6.8635e-09
-6.02913e-08
-7.02914e-09
-5.8504e-08
-7.1859e-09
-5.66807e-08
-7.33314e-09
-5.48241e-08
-7.47016e-09
-5.29369e-08
-7.59628e-09
-5.10218e-08
-7.71078e-09
-4.9082e-08
-7.81292e-09
-4.71207e-08
-7.90195e-09
-4.51413e-08
-7.9771e-09
-4.31473e-08
-8.03758e-09
-4.11426e-08
-8.08259e-09
-3.91311e-08
-8.11132e-09
-3.71171e-08
-8.12295e-09
-3.51047e-08
-8.11667e-09
-3.30987e-08
-8.09164e-09
-3.11037e-08
-8.04705e-09
-2.91246e-08
-7.98209e-09
-2.71666e-08
-7.89595e-09
-2.52348e-08
-7.78788e-09
-2.33348e-08
-7.65712e-09
-2.14719e-08
-7.50298e-09
-1.9652e-08
-7.32482e-09
-1.78808e-08
-7.12206e-09
-1.61641e-08
-6.89422e-09
-1.45079e-08
-6.64093e-09
-1.2918e-08
-6.36196e-09
-1.14003e-08
-6.05727e-09
-9.9605e-09
-5.72702e-09
-8.60424e-09
-5.37166e-09
-7.3368e-09
-4.99202e-09
-6.16314e-09
-4.58933e-09
-5.08772e-09
-4.16543e-09
-4.11439e-09
-3.72286e-09
-3.24621e-09
-3.26509e-09
-2.48525e-09
-2.79673e-09
-1.83238e-09
-2.32393e-09
-1.28703e-09
-1.85468e-09
-8.46983e-10
-1.3994e-09
-5.08045e-10
-9.7151e-10
-2.63873e-10
-5.88258e-10
-1.05741e-10
-2.71469e-10
-2.23995e-11
-4.85607e-11
4.39545e-11
-3.60357e-11
1.03713e-11
-1.51636e-10
1.95125e-10
-3.53951e-10
4.96622e-10
-6.48846e-10
8.80897e-10
-1.04067e-09
1.32221e-09
-1.5322e-09
1.7996e-09
-2.12476e-09
2.29636e-09
-2.81825e-09
2.79941e-09
-3.61137e-09
3.29864e-09
-4.50177e-09
3.78638e-09
-5.48623e-09
4.25683e-09
-6.56083e-09
4.70581e-09
-7.72109e-09
5.13035e-09
-8.96214e-09
5.52847e-09
-1.02788e-08
5.899e-09
-1.16658e-08
6.24138e-09
-1.31177e-08
6.55553e-09
-1.46291e-08
6.84177e-09
-1.61946e-08
7.1007e-09
-1.7809e-08
7.33315e-09
-1.94671e-08
7.54012e-09
-2.11641e-08
7.72272e-09
-2.28952e-08
7.88214e-09
-2.46558e-08
8.01962e-09
-2.64417e-08
8.13641e-09
-2.82487e-08
8.23378e-09
-3.00731e-08
8.31297e-09
-3.19113e-08
8.3752e-09
-3.37598e-08
8.42163e-09
-3.56154e-08
8.45339e-09
-3.74753e-08
8.47155e-09
-3.93367e-08
8.4771e-09
-4.11969e-08
8.47101e-09
-4.30537e-08
8.45413e-09
-4.49047e-08
8.42727e-09
-4.67479e-08
8.39119e-09
-4.85815e-08
8.34656e-09
-5.04035e-08
8.294e-09
-5.22124e-08
8.23406e-09
-5.40065e-08
8.16723e-09
-5.57843e-08
8.09396e-09
-5.75446e-08
8.01463e-09
-5.92859e-08
7.92958e-09
-6.1007e-08
7.8391e-09
-6.27068e-08
7.74344e-09
-6.4384e-08
7.64281e-09
-6.60377e-08
7.53739e-09