0.05 	0.0003125 	0.005 	0.032743
0.05 	0.0009375 	0.005 	0.0327859
0.05 	0.0015625 	0.005 	0.0328207
0.05 	0.0021875 	0.005 	0.0328499
0.05 	0.0028125 	0.005 	0.0328766
0.05 	0.0034375 	0.005 	0.0329006
0.05 	0.0040625 	0.005 	0.0329218
0.05 	0.0046875 	0.005 	0.03294
0.05 	0.0053125 	0.005 	0.0329553
0.05 	0.0059375 	0.005 	0.0329675
0.05 	0.0065625 	0.005 	0.0329764
0.05 	0.0071875 	0.005 	0.032982
0.05 	0.0078125 	0.005 	0.032984
0.05 	0.0084375 	0.005 	0.0329823
0.05 	0.0090625 	0.005 	0.0329766
0.05 	0.0096875 	0.005 	0.0329668
0.05 	0.0103125 	0.005 	0.0329527
0.05 	0.0109375 	0.005 	0.0329338
0.05 	0.0115625 	0.005 	0.0329101
0.05 	0.0121875 	0.005 	0.032881
0.05 	0.0128125 	0.005 	0.0328464
0.05 	0.0134375 	0.005 	0.0328059
0.05 	0.0140625 	0.005 	0.0327591
0.05 	0.0146875 	0.005 	0.0327057
0.05 	0.0153125 	0.005 	0.0326455
0.05 	0.0159375 	0.005 	0.0325782
0.05 	0.0165625 	0.005 	0.0325033
0.05 	0.0171875 	0.005 	0.0324205
0.05 	0.0178125 	0.005 	0.0323294
0.05 	0.0184375 	0.005 	0.0322295
0.05 	0.0190625 	0.005 	0.0321205
0.05 	0.0196875 	0.005 	0.0320018
0.05 	0.0203125 	0.005 	0.031873
0.05 	0.0209375 	0.005 	0.0317336
0.05 	0.0215625 	0.005 	0.0315833
0.05 	0.0221875 	0.005 	0.0314214
0.05 	0.0228125 	0.005 	0.0312474
0.05 	0.0234375 	0.005 	0.0310608
0.05 	0.0240625 	0.005 	0.030861
0.05 	0.0246875 	0.005 	0.0306473
0.05 	0.0253125 	0.005 	0.0304191
0.05 	0.0259375 	0.005 	0.0301758
0.05 	0.0265625 	0.005 	0.0299168
0.05 	0.0271875 	0.005 	0.0296415
0.05 	0.0278125 	0.005 	0.0293493
0.05 	0.0284375 	0.005 	0.0290396
0.05 	0.0290625 	0.005 	0.0287118
0.05 	0.0296875 	0.005 	0.028365
0.05 	0.0303125 	0.005 	0.0279985
0.05 	0.0309375 	0.005 	0.0276115
0.05 	0.0315625 	0.005 	0.0272033
0.05 	0.0321875 	0.005 	0.0267732
0.05 	0.0328125 	0.005 	0.0263204
0.05 	0.0334375 	0.005 	0.0258442
0.05 	0.0340625 	0.005 	0.0253438
0.05 	0.0346875 	0.005 	0.0248185
0.05 	0.0353125 	0.005 	0.0242674
0.05 	0.0359375 	0.005 	0.0236897
0.05 	0.0365625 	0.005 	0.0230846
0.05 	0.0371875 	0.005 	0.0224513
0.05 	0.0378125 	0.005 	0.0217889
0.05 	0.0384375 	0.005 	0.0210967
0.05 	0.0390625 	0.005 	0.0203739
0.05 	0.0396875 	0.005 	0.0196198
0.05 	0.0403125 	0.005 	0.0188337
0.05 	0.0409375 	0.005 	0.0180148
0.05 	0.0415625 	0.005 	0.0171624
0.05 	0.0421875 	0.005 	0.0162756
0.05 	0.0428125 	0.005 	0.0153539
0.05 	0.0434375 	0.005 	0.0143967
0.05 	0.0440625 	0.005 	0.0134036
0.05 	0.0446875 	0.005 	0.012374
0.05 	0.0453125 	0.005 	0.0113075
0.05 	0.0459375 	0.005 	0.0102038
0.05 	0.0465625 	0.005 	0.00906238
0.05 	0.0471875 	0.005 	0.00788301
0.05 	0.0478125 	0.005 	0.00666538
0.05 	0.0484375 	0.005 	0.00540935
0.05 	0.0490625 	0.005 	0.00411492
0.05 	0.0496875 	0.005 	0.00278213
0.05 	0.0503125 	0.005 	0.00141113
0.05 	0.0509375 	0.005 	2.16109e-06
0.05 	0.0515625 	0.005 	-0.0014444
0.05 	0.0521875 	0.005 	-0.00292809
0.05 	0.0528125 	0.005 	-0.00444831
0.05 	0.0534375 	0.005 	-0.00600431
0.05 	0.0540625 	0.005 	-0.00759513
0.05 	0.0546875 	0.005 	-0.00921965
0.05 	0.0553125 	0.005 	-0.0108766
0.05 	0.0559375 	0.005 	-0.0125646
0.05 	0.0565625 	0.005 	-0.014282
0.05 	0.0571875 	0.005 	-0.0160273
0.05 	0.0578125 	0.005 	-0.0177986
0.05 	0.0584375 	0.005 	-0.0195938
0.05 	0.0590625 	0.005 	-0.0214108
0.05 	0.0596875 	0.005 	-0.023247
0.05 	0.0603125 	0.005 	-0.0250997
0.05 	0.0609375 	0.005 	-0.0269662
0.05 	0.0615625 	0.005 	-0.0288432
0.05 	0.0621875 	0.005 	-0.0307275
0.05 	0.0628125 	0.005 	-0.0326156
0.05 	0.0634375 	0.005 	-0.0345039
0.05 	0.0640625 	0.005 	-0.0363885
0.05 	0.0646875 	0.005 	-0.0382652
0.05 	0.0653125 	0.005 	-0.0401299
0.05 	0.0659375 	0.005 	-0.0419783
0.05 	0.0665625 	0.005 	-0.0438058
0.05 	0.0671875 	0.005 	-0.0456079
0.05 	0.0678125 	0.005 	-0.0473797
0.05 	0.0684375 	0.005 	-0.0491164
0.05 	0.0690625 	0.005 	-0.0508131
0.05 	0.0696875 	0.005 	-0.0524646
0.05 	0.0703125 	0.005 	-0.0540659
0.05 	0.0709375 	0.005 	-0.0556117
0.05 	0.0715625 	0.005 	-0.0570971
0.05 	0.0721875 	0.005 	-0.058517
0.05 	0.0728125 	0.005 	-0.0598665
0.05 	0.0734375 	0.005 	-0.0611408
0.05 	0.0740625 	0.005 	-0.0623353
0.05 	0.0746875 	0.005 	-0.0634454
0.05 	0.0753125 	0.005 	-0.0644669
0.05 	0.0759375 	0.005 	-0.0653957
0.05 	0.0765625 	0.005 	-0.066228
0.05 	0.0771875 	0.005 	-0.0669605
0.05 	0.0778125 	0.005 	-0.0675904
0.05 	0.0784375 	0.005 	-0.0681149
0.05 	0.0790625 	0.005 	-0.0685322
0.05 	0.0796875 	0.005 	-0.0688404
0.05 	0.0803125 	0.005 	-0.0690387
0.05 	0.0809375 	0.005 	-0.0691265
0.05 	0.0815625 	0.005 	-0.0691041
0.05 	0.0821875 	0.005 	-0.0689722
0.05 	0.0828125 	0.005 	-0.0687323
0.05 	0.0834375 	0.005 	-0.0683866
0.05 	0.0840625 	0.005 	-0.0679378
0.05 	0.0846875 	0.005 	-0.0673894
0.05 	0.0853125 	0.005 	-0.0667455
0.05 	0.0859375 	0.005 	-0.0660109
0.05 	0.0865625 	0.005 	-0.065191
0.05 	0.0871875 	0.005 	-0.0642921
0.05 	0.0878125 	0.005 	-0.0633209
0.05 	0.0884375 	0.005 	-0.0622847
0.05 	0.0890625 	0.005 	-0.0611915
0.05 	0.0896875 	0.005 	-0.0600497
0.05 	0.0903125 	0.005 	-0.058868
0.05 	0.0909375 	0.005 	-0.0576556
0.05 	0.0915625 	0.005 	-0.0564217
0.05 	0.0921875 	0.005 	-0.0551757
0.05 	0.0928125 	0.005 	-0.0539271
0.05 	0.0934375 	0.005 	-0.0526855
0.05 	0.0940625 	0.005 	-0.0514601
0.05 	0.0946875 	0.005 	-0.0502601
0.05 	0.0953125 	0.005 	-0.0490944
0.05 	0.0959375 	0.005 	-0.0479713
0.05 	0.0965625 	0.005 	-0.0468982
0.05 	0.0971875 	0.005 	-0.0458819
0.05 	0.0978125 	0.005 	-0.0449324
0.05 	0.0984375 	0.005 	-0.0440587
0.05 	0.0990625 	0.005 	-0.0432142
0.05 	0.0996875 	0.005 	-0.0423512
