0.05 	0.0003125 	0.005 	-0.00138055 	5.29416e-07 	0
0.05 	0.0009375 	0.005 	-0.00401935 	3.50004e-06 	0
0.05 	0.0015625 	0.005 	-0.00654062 	9.9091e-06 	0
0.05 	0.0021875 	0.005 	-0.00894897 	1.9122e-05 	0
0.05 	0.0028125 	0.005 	-0.011249 	3.0789e-05 	0
0.05 	0.0034375 	0.005 	-0.0134451 	4.47077e-05 	0
0.05 	0.0040625 	0.005 	-0.0155418 	6.06769e-05 	0
0.05 	0.0046875 	0.005 	-0.0175435 	7.85047e-05 	0
0.05 	0.0053125 	0.005 	-0.0194545 	9.80194e-05 	0
0.05 	0.0059375 	0.005 	-0.0212791 	0.000119069 	0
0.05 	0.0065625 	0.005 	-0.0230215 	0.000141518 	0
0.05 	0.0071875 	0.005 	-0.0246859 	0.00016525 	0
0.05 	0.0078125 	0.005 	-0.0262765 	0.000190164 	0
0.05 	0.0084375 	0.005 	-0.0277972 	0.000216175 	0
0.05 	0.0090625 	0.005 	-0.0292521 	0.000243211 	0
0.05 	0.0096875 	0.005 	-0.0306452 	0.000271214 	0
0.05 	0.0103125 	0.005 	-0.0319804 	0.000300141 	0
0.05 	0.0109375 	0.005 	-0.0332615 	0.000329959 	0
0.05 	0.0115625 	0.005 	-0.0344923 	0.000360649 	0
0.05 	0.0121875 	0.005 	-0.0356765 	0.000392204 	0
0.05 	0.0128125 	0.005 	-0.0368178 	0.000424626 	0
0.05 	0.0134375 	0.005 	-0.0379197 	0.000457931 	0
0.05 	0.0140625 	0.005 	-0.0389858 	0.000492141 	0
0.05 	0.0146875 	0.005 	-0.0400194 	0.000527292 	0
0.05 	0.0153125 	0.005 	-0.0410238 	0.000563424 	0
0.05 	0.0159375 	0.005 	-0.0420024 	0.00060059 	0
0.05 	0.0165625 	0.005 	-0.0429582 	0.000638848 	0
0.05 	0.0171875 	0.005 	-0.0438944 	0.000678264 	0
0.05 	0.0178125 	0.005 	-0.0448138 	0.000718915 	0
0.05 	0.0184375 	0.005 	-0.0457195 	0.000760885 	0
0.05 	0.0190625 	0.005 	-0.0466141 	0.000804265 	0
0.05 	0.0196875 	0.005 	-0.0475003 	0.000849155 	0
0.05 	0.0203125 	0.005 	-0.0483808 	0.00089566 	0
0.05 	0.0209375 	0.005 	-0.049258 	0.000943892 	0
0.05 	0.0215625 	0.005 	-0.0501344 	0.000993967 	0
0.05 	0.0221875 	0.005 	-0.0510122 	0.00104601 	0
0.05 	0.0228125 	0.005 	-0.0518937 	0.00110016 	0
0.05 	0.0234375 	0.005 	-0.0527809 	0.00115655 	0
0.05 	0.0240625 	0.005 	-0.0536759 	0.00121533 	0
0.05 	0.0246875 	0.005 	-0.0545807 	0.00127665 	0
0.05 	0.0253125 	0.005 	-0.0554971 	0.00134068 	0
0.05 	0.0259375 	0.005 	-0.0564268 	0.00140757 	0
0.05 	0.0265625 	0.005 	-0.0573715 	0.00147752 	0
0.05 	0.0271875 	0.005 	-0.0583329 	0.00155068 	0
0.05 	0.0278125 	0.005 	-0.0593124 	0.00162727 	0
0.05 	0.0284375 	0.005 	-0.0603115 	0.00170746 	0
0.05 	0.0290625 	0.005 	-0.0613317 	0.00179148 	0
0.05 	0.0296875 	0.005 	-0.0623741 	0.00187952 	0
0.05 	0.0303125 	0.005 	-0.06344 	0.00197183 	0
0.05 	0.0309375 	0.005 	-0.0645306 	0.00206861 	0
0.05 	0.0315625 	0.005 	-0.0656471 	0.00217012 	0
0.05 	0.0321875 	0.005 	-0.0667904 	0.0022766 	0
0.05 	0.0328125 	0.005 	-0.0679616 	0.0023883 	0
0.05 	0.0334375 	0.005 	-0.0691616 	0.0025055 	0
0.05 	0.0340625 	0.005 	-0.0703912 	0.00262847 	0
0.05 	0.0346875 	0.005 	-0.0716515 	0.0027575 	0
0.05 	0.0353125 	0.005 	-0.072943 	0.00289288 	0
0.05 	0.0359375 	0.005 	-0.0742665 	0.00303492 	0
0.05 	0.0365625 	0.005 	-0.0756228 	0.00318394 	0
0.05 	0.0371875 	0.005 	-0.0770125 	0.00334026 	0
0.05 	0.0378125 	0.005 	-0.078436 	0.00350422 	0
0.05 	0.0384375 	0.005 	-0.0798941 	0.00367618 	0
0.05 	0.0390625 	0.005 	-0.081387 	0.00385648 	0
0.05 	0.0396875 	0.005 	-0.0829154 	0.0040455 	0
0.05 	0.0403125 	0.005 	-0.0844794 	0.0042436 	0
0.05 	0.0409375 	0.005 	-0.0860794 	0.00445119 	0
0.05 	0.0415625 	0.005 	-0.0877157 	0.00466865 	0
0.05 	0.0421875 	0.005 	-0.0893885 	0.00489639 	0
0.05 	0.0428125 	0.005 	-0.0910977 	0.00513482 	0
0.05 	0.0434375 	0.005 	-0.0928434 	0.00538434 	0
0.05 	0.0440625 	0.005 	-0.0946255 	0.00564539 	0
0.05 	0.0446875 	0.005 	-0.0964438 	0.00591838 	0
0.05 	0.0453125 	0.005 	-0.0982981 	0.00620375 	0
0.05 	0.0459375 	0.005 	-0.100188 	0.00650191 	0
0.05 	0.0465625 	0.005 	-0.102113 	0.00681329 	0
0.05 	0.0471875 	0.005 	-0.104072 	0.0071383 	0
0.05 	0.0478125 	0.005 	-0.106064 	0.00747735 	0
0.05 	0.0484375 	0.005 	-0.108089 	0.00783084 	0
0.05 	0.0490625 	0.005 	-0.110145 	0.00819916 	0
0.05 	0.0496875 	0.005 	-0.11223 	0.00858266 	0
0.05 	0.0503125 	0.005 	-0.114344 	0.00898169 	0
0.05 	0.0509375 	0.005 	-0.116484 	0.00939656 	0
0.05 	0.0515625 	0.005 	-0.118647 	0.00982754 	0
0.05 	0.0521875 	0.005 	-0.120832 	0.0102749 	0
0.05 	0.0528125 	0.005 	-0.123035 	0.0107388 	0
0.05 	0.0534375 	0.005 	-0.125254 	0.0112194 	0
0.05 	0.0540625 	0.005 	-0.127484 	0.0117168 	0
0.05 	0.0546875 	0.005 	-0.129722 	0.0122309 	0
0.05 	0.0553125 	0.005 	-0.131962 	0.0127619 	0
0.05 	0.0559375 	0.005 	-0.1342 	0.0133094 	0
0.05 	0.0565625 	0.005 	-0.13643 	0.0138733 	0
0.05 	0.0571875 	0.005 	-0.138646 	0.0144533 	0
0.05 	0.0578125 	0.005 	-0.140841 	0.0150489 	0
0.05 	0.0584375 	0.005 	-0.143007 	0.0156596 	0
0.05 	0.0590625 	0.005 	-0.145135 	0.0162846 	0
0.05 	0.0596875 	0.005 	-0.147218 	0.0169231 	0
0.05 	0.0603125 	0.005 	-0.149244 	0.0175743 	0
0.05 	0.0609375 	0.005 	-0.151202 	0.0182368 	0
0.05 	0.0615625 	0.005 	-0.153082 	0.0189096 	0
0.05 	0.0621875 	0.005 	-0.154869 	0.019591 	0
0.05 	0.0628125 	0.005 	-0.156549 	0.0202794 	0
0.05 	0.0634375 	0.005 	-0.158109 	0.020973 	0
0.05 	0.0640625 	0.005 	-0.15953 	0.0216697 	0
0.05 	0.0646875 	0.005 	-0.160797 	0.0223674 	0
0.05 	0.0653125 	0.005 	-0.161889 	0.0230635 	0
0.05 	0.0659375 	0.005 	-0.162787 	0.0237554 	0
0.05 	0.0665625 	0.005 	-0.163469 	0.0244403 	0
0.05 	0.0671875 	0.005 	-0.163913 	0.0251152 	0
0.05 	0.0678125 	0.005 	-0.164093 	0.0257767 	0
0.05 	0.0684375 	0.005 	-0.163985 	0.0264215 	0
0.05 	0.0690625 	0.005 	-0.16356 	0.0270459 	0
0.05 	0.0696875 	0.005 	-0.16279 	0.0276462 	0
0.05 	0.0703125 	0.005 	-0.161645 	0.0282185 	0
0.05 	0.0709375 	0.005 	-0.160092 	0.0287586 	0
0.05 	0.0715625 	0.005 	-0.158099 	0.0292625 	0
0.05 	0.0721875 	0.005 	-0.15563 	0.0297259 	0
0.05 	0.0728125 	0.005 	-0.152649 	0.0301446 	0
0.05 	0.0734375 	0.005 	-0.149119 	0.0305141 	0
0.05 	0.0740625 	0.005 	-0.145 	0.0308303 	0
0.05 	0.0746875 	0.005 	-0.140253 	0.031089 	0
0.05 	0.0753125 	0.005 	-0.134835 	0.0312859 	0
0.05 	0.0759375 	0.005 	-0.128704 	0.0314173 	0
0.05 	0.0765625 	0.005 	-0.121817 	0.0314792 	0
0.05 	0.0771875 	0.005 	-0.114128 	0.0314682 	0
0.05 	0.0778125 	0.005 	-0.105594 	0.031381 	0
0.05 	0.0784375 	0.005 	-0.0961687 	0.0312149 	0
0.05 	0.0790625 	0.005 	-0.0858055 	0.0309673 	0
0.05 	0.0796875 	0.005 	-0.0744587 	0.0306362 	0
0.05 	0.0803125 	0.005 	-0.0620824 	0.0302202 	0
0.05 	0.0809375 	0.005 	-0.0486308 	0.0297184 	0
0.05 	0.0815625 	0.005 	-0.0340588 	0.0291305 	0
0.05 	0.0821875 	0.005 	-0.0183223 	0.0284569 	0
0.05 	0.0828125 	0.005 	-0.00137816 	0.0276987 	0
0.05 	0.0834375 	0.005 	0.0168152 	0.0268578 	0
0.05 	0.0840625 	0.005 	0.0362975 	0.0259369 	0
0.05 	0.0846875 	0.005 	0.0571063 	0.0249396 	0
0.05 	0.0853125 	0.005 	0.0792766 	0.0238701 	0
0.05 	0.0859375 	0.005 	0.102841 	0.0227338 	0
0.05 	0.0865625 	0.005 	0.127827 	0.0215368 	0
0.05 	0.0871875 	0.005 	0.15426 	0.0202861 	0
0.05 	0.0878125 	0.005 	0.182162 	0.0189896 	0
0.05 	0.0884375 	0.005 	0.211548 	0.017656 	0
0.05 	0.0890625 	0.005 	0.242429 	0.0162949 	0
0.05 	0.0896875 	0.005 	0.274811 	0.0149166 	0
0.05 	0.0903125 	0.005 	0.308693 	0.0135319 	0
0.05 	0.0909375 	0.005 	0.344068 	0.0121525 	0
0.05 	0.0915625 	0.005 	0.380923 	0.0107904 	0
0.05 	0.0921875 	0.005 	0.419236 	0.00945797 	0
0.05 	0.0928125 	0.005 	0.45898 	0.00816782 	0
0.05 	0.0934375 	0.005 	0.500117 	0.00693258 	0
0.05 	0.0940625 	0.005 	0.542603 	0.00576479 	0
0.05 	0.0946875 	0.005 	0.586385 	0.00467661 	0
0.05 	0.0953125 	0.005 	0.631401 	0.00367966 	0
0.05 	0.0959375 	0.005 	0.677582 	0.00278475 	0
0.05 	0.0965625 	0.005 	0.724848 	0.00200167 	0
0.05 	0.0971875 	0.005 	0.773113 	0.00133897 	0
0.05 	0.0978125 	0.005 	0.822283 	0.00080327 	0
0.05 	0.0984375 	0.005 	0.872255 	0.00039863 	0
0.05 	0.0990625 	0.005 	0.92292 	0.000131831 	0
0.05 	0.0996875 	0.005 	0.974158 	1.71465e-05 	0
