0.05 	0.0003125 	0.005 	-0.00219959 	3.50103e-07 	0
0.05 	0.0009375 	0.005 	-0.00646778 	2.38654e-06 	0
0.05 	0.0015625 	0.005 	-0.0106128 	6.85761e-06 	0
0.05 	0.0021875 	0.005 	-0.014642 	1.33639e-05 	0
0.05 	0.0028125 	0.005 	-0.018562 	2.16939e-05 	0
0.05 	0.0034375 	0.005 	-0.0223792 	3.17407e-05 	0
0.05 	0.0040625 	0.005 	-0.0260997 	4.33986e-05 	0
0.05 	0.0046875 	0.005 	-0.0297293 	5.65696e-05 	0
0.05 	0.0053125 	0.005 	-0.0332735 	7.11703e-05 	0
0.05 	0.0059375 	0.005 	-0.0367374 	8.71301e-05 	0
0.05 	0.0065625 	0.005 	-0.0401262 	0.00010439 	0
0.05 	0.0071875 	0.005 	-0.0434445 	0.000122904 	0
0.05 	0.0078125 	0.005 	-0.0466969 	0.000142637 	0
0.05 	0.0084375 	0.005 	-0.0498877 	0.000163563 	0
0.05 	0.0090625 	0.005 	-0.0530208 	0.000185669 	0
0.05 	0.0096875 	0.005 	-0.0561004 	0.000208951 	0
0.05 	0.0103125 	0.005 	-0.0591299 	0.000233415 	0
0.05 	0.0109375 	0.005 	-0.0621129 	0.000259075 	0
0.05 	0.0115625 	0.005 	-0.0650528 	0.000285955 	0
0.05 	0.0121875 	0.005 	-0.0679527 	0.000314091 	0
0.05 	0.0128125 	0.005 	-0.0708155 	0.000343524 	0
0.05 	0.0134375 	0.005 	-0.073644 	0.000374305 	0
0.05 	0.0140625 	0.005 	-0.076441 	0.000406495 	0
0.05 	0.0146875 	0.005 	-0.079209 	0.00044016 	0
0.05 	0.0153125 	0.005 	-0.0819502 	0.000475378 	0
0.05 	0.0159375 	0.005 	-0.0846669 	0.000512231 	0
0.05 	0.0165625 	0.005 	-0.0873612 	0.000550811 	0
0.05 	0.0171875 	0.005 	-0.090035 	0.000591216 	0
0.05 	0.0178125 	0.005 	-0.0926902 	0.000633552 	0
0.05 	0.0184375 	0.005 	-0.0953283 	0.000677932 	0
0.05 	0.0190625 	0.005 	-0.097951 	0.000724476 	0
0.05 	0.0196875 	0.005 	-0.10056 	0.000773309 	0
0.05 	0.0203125 	0.005 	-0.103155 	0.000824566 	0
0.05 	0.0209375 	0.005 	-0.10574 	0.000878385 	0
0.05 	0.0215625 	0.005 	-0.108313 	0.000934911 	0
0.05 	0.0221875 	0.005 	-0.110877 	0.000994295 	0
0.05 	0.0228125 	0.005 	-0.113433 	0.0010567 	0
0.05 	0.0234375 	0.005 	-0.11598 	0.00112227 	0
0.05 	0.0240625 	0.005 	-0.118519 	0.00119119 	0
0.05 	0.0246875 	0.005 	-0.121052 	0.00126363 	0
0.05 	0.0253125 	0.005 	-0.123577 	0.00133976 	0
0.05 	0.0259375 	0.005 	-0.126096 	0.00141977 	0
0.05 	0.0265625 	0.005 	-0.128608 	0.00150383 	0
0.05 	0.0271875 	0.005 	-0.131114 	0.00159214 	0
0.05 	0.0278125 	0.005 	-0.133613 	0.00168488 	0
0.05 	0.0284375 	0.005 	-0.136104 	0.00178225 	0
0.05 	0.0290625 	0.005 	-0.138588 	0.00188446 	0
0.05 	0.0296875 	0.005 	-0.141064 	0.00199169 	0
0.05 	0.0303125 	0.005 	-0.143531 	0.00210414 	0
0.05 	0.0309375 	0.005 	-0.145988 	0.00222202 	0
0.05 	0.0315625 	0.005 	-0.148434 	0.00234552 	0
0.05 	0.0321875 	0.005 	-0.150869 	0.00247485 	0
0.05 	0.0328125 	0.005 	-0.15329 	0.0026102 	0
0.05 	0.0334375 	0.005 	-0.155697 	0.00275177 	0
0.05 	0.0340625 	0.005 	-0.158088 	0.00289976 	0
0.05 	0.0346875 	0.005 	-0.160461 	0.00305434 	0
0.05 	0.0353125 	0.005 	-0.162814 	0.00321571 	0
0.05 	0.0359375 	0.005 	-0.165145 	0.00338405 	0
0.05 	0.0365625 	0.005 	-0.167453 	0.00355952 	0
0.05 	0.0371875 	0.005 	-0.169734 	0.0037423 	0
0.05 	0.0378125 	0.005 	-0.171986 	0.00393254 	0
0.05 	0.0384375 	0.005 	-0.174206 	0.00413039 	0
0.05 	0.0390625 	0.005 	-0.176392 	0.00433598 	0
0.05 	0.0396875 	0.005 	-0.178541 	0.00454945 	0
0.05 	0.0403125 	0.005 	-0.180648 	0.00477089 	0
0.05 	0.0409375 	0.005 	-0.182711 	0.0050004 	0
0.05 	0.0415625 	0.005 	-0.184726 	0.00523806 	0
0.05 	0.0421875 	0.005 	-0.186689 	0.00548394 	0
0.05 	0.0428125 	0.005 	-0.188596 	0.00573806 	0
0.05 	0.0434375 	0.005 	-0.190443 	0.00600046 	0
0.05 	0.0440625 	0.005 	-0.192224 	0.00627112 	0
0.05 	0.0446875 	0.005 	-0.193937 	0.00655001 	0
0.05 	0.0453125 	0.005 	-0.195574 	0.00683709 	0
0.05 	0.0459375 	0.005 	-0.197132 	0.00713226 	0
0.05 	0.0465625 	0.005 	-0.198605 	0.00743541 	0
0.05 	0.0471875 	0.005 	-0.199987 	0.0077464 	0
0.05 	0.0478125 	0.005 	-0.201273 	0.00806504 	0
0.05 	0.0484375 	0.005 	-0.202455 	0.00839113 	0
0.05 	0.0490625 	0.005 	-0.203528 	0.0087244 	0
0.05 	0.0496875 	0.005 	-0.204486 	0.00906457 	0
0.05 	0.0503125 	0.005 	-0.20532 	0.0094113 	0
0.05 	0.0509375 	0.005 	-0.206025 	0.00976422 	0
0.05 	0.0515625 	0.005 	-0.206592 	0.0101229 	0
0.05 	0.0521875 	0.005 	-0.207014 	0.0104869 	0
0.05 	0.0528125 	0.005 	-0.207282 	0.0108556 	0
0.05 	0.0534375 	0.005 	-0.20739 	0.0112286 	0
0.05 	0.0540625 	0.005 	-0.207327 	0.0116052 	0
0.05 	0.0546875 	0.005 	-0.207085 	0.0119846 	0
0.05 	0.0553125 	0.005 	-0.206656 	0.0123663 	0
0.05 	0.0559375 	0.005 	-0.206029 	0.0127495 	0
0.05 	0.0565625 	0.005 	-0.205196 	0.0131332 	0
0.05 	0.0571875 	0.005 	-0.204145 	0.0135166 	0
0.05 	0.0578125 	0.005 	-0.202868 	0.0138988 	0
0.05 	0.0584375 	0.005 	-0.201353 	0.0142787 	0
0.05 	0.0590625 	0.005 	-0.199589 	0.0146554 	0
0.05 	0.0596875 	0.005 	-0.197566 	0.0150276 	0
0.05 	0.0603125 	0.005 	-0.195273 	0.0153943 	0
0.05 	0.0609375 	0.005 	-0.192697 	0.0157542 	0
0.05 	0.0615625 	0.005 	-0.189827 	0.0161061 	0
0.05 	0.0621875 	0.005 	-0.186651 	0.0164487 	0
0.05 	0.0628125 	0.005 	-0.183157 	0.0167805 	0
0.05 	0.0634375 	0.005 	-0.179331 	0.0171002 	0
0.05 	0.0640625 	0.005 	-0.175162 	0.0174064 	0
0.05 	0.0646875 	0.005 	-0.170636 	0.0176977 	0
0.05 	0.0653125 	0.005 	-0.16574 	0.0179724 	0
0.05 	0.0659375 	0.005 	-0.160461 	0.0182291 	0
0.05 	0.0665625 	0.005 	-0.154785 	0.0184664 	0
0.05 	0.0671875 	0.005 	-0.148698 	0.0186826 	0
0.05 	0.0678125 	0.005 	-0.142188 	0.0188762 	0
0.05 	0.0684375 	0.005 	-0.135239 	0.0190457 	0
0.05 	0.0690625 	0.005 	-0.127838 	0.0191896 	0
0.05 	0.0696875 	0.005 	-0.119972 	0.0193065 	0
0.05 	0.0703125 	0.005 	-0.111625 	0.0193949 	0
0.05 	0.0709375 	0.005 	-0.102783 	0.0194534 	0
0.05 	0.0715625 	0.005 	-0.0934341 	0.0194808 	0
0.05 	0.0721875 	0.005 	-0.0835627 	0.0194758 	0
0.05 	0.0728125 	0.005 	-0.0731552 	0.0194372 	0
0.05 	0.0734375 	0.005 	-0.062198 	0.0193641 	0
0.05 	0.0740625 	0.005 	-0.0506776 	0.0192555 	0
0.05 	0.0746875 	0.005 	-0.0385807 	0.0191106 	0
0.05 	0.0753125 	0.005 	-0.0258941 	0.0189288 	0
0.05 	0.0759375 	0.005 	-0.0126053 	0.0187096 	0
0.05 	0.0765625 	0.005 	0.00129807 	0.0184528 	0
0.05 	0.0771875 	0.005 	0.015828 	0.0181582 	0
0.05 	0.0778125 	0.005 	0.030996 	0.0178259 	0
0.05 	0.0784375 	0.005 	0.0468129 	0.0174564 	0
0.05 	0.0790625 	0.005 	0.0632891 	0.01705 	0
0.05 	0.0796875 	0.005 	0.0804341 	0.0166078 	0
0.05 	0.0803125 	0.005 	0.0982571 	0.0161306 	0
0.05 	0.0809375 	0.005 	0.116766 	0.0156198 	0
0.05 	0.0815625 	0.005 	0.135968 	0.0150771 	0
0.05 	0.0821875 	0.005 	0.155871 	0.0145043 	0
0.05 	0.0828125 	0.005 	0.176478 	0.0139035 	0
0.05 	0.0834375 	0.005 	0.197795 	0.0132771 	0
0.05 	0.0840625 	0.005 	0.219825 	0.012628 	0
0.05 	0.0846875 	0.005 	0.242569 	0.011959 	0
0.05 	0.0853125 	0.005 	0.266029 	0.0112735 	0
0.05 	0.0859375 	0.005 	0.290205 	0.0105748 	0
0.05 	0.0865625 	0.005 	0.315093 	0.00986672 	0
0.05 	0.0871875 	0.005 	0.340692 	0.00915319 	0
0.05 	0.0878125 	0.005 	0.366995 	0.00843833 	0
0.05 	0.0884375 	0.005 	0.393996 	0.00772641 	0
0.05 	0.0890625 	0.005 	0.421687 	0.00702183 	0
0.05 	0.0896875 	0.005 	0.450059 	0.00632907 	0
0.05 	0.0903125 	0.005 	0.4791 	0.00565267 	0
0.05 	0.0909375 	0.005 	0.508796 	0.00499713 	0
0.05 	0.0915625 	0.005 	0.539132 	0.00436692 	0
0.05 	0.0921875 	0.005 	0.570091 	0.00376638 	0
0.05 	0.0928125 	0.005 	0.601655 	0.00319968 	0
0.05 	0.0934375 	0.005 	0.633803 	0.00267073 	0
0.05 	0.0940625 	0.005 	0.666513 	0.00218313 	0
0.05 	0.0946875 	0.005 	0.69976 	0.00174012 	0
0.05 	0.0953125 	0.005 	0.733519 	0.00134445 	0
0.05 	0.0959375 	0.005 	0.767762 	0.000998343 	0
0.05 	0.0965625 	0.005 	0.802459 	0.000703418 	0
0.05 	0.0971875 	0.005 	0.83758 	0.000460606 	0
0.05 	0.0978125 	0.005 	0.873092 	0.000269956 	0
0.05 	0.0984375 	0.005 	0.908963 	0.00013043 	0
0.05 	0.0990625 	0.005 	0.945157 	4.15297e-05 	0
0.05 	0.0996875 	0.005 	0.981637 	4.90521e-06 	0
