/*--------------------------------*- C++ -*----------------------------------*\
  =========                 |
  \\      /  F ield         | OpenFOAM: The Open Source CFD Toolbox
   \\    /   O peration     | Website:  https://openfoam.org
    \\  /    A nd           | Version:  7
     \\/     M anipulation  |
\*---------------------------------------------------------------------------*/
FoamFile
{
    version     2.0;
    format      ascii;
    class       surfaceScalarField;
    location    "0.2875";
    object      phi;
}
// * * * * * * * * * * * * * * * * * * * * * * * * * * * * * * * * * * * * * //

dimensions      [0 3 -1 0 0 0 0];

internalField   nonuniform List<scalar> 
50880
(
9.95862e-12
-9.95408e-12
3.08429e-11
-2.08819e-11
5.19893e-11
-2.11482e-11
6.55162e-11
-1.35221e-11
6.77403e-11
-2.22564e-12
5.69844e-11
1.07549e-11
3.262e-11
2.43637e-11
-5.36006e-12
3.79854e-11
-5.66174e-11
5.1254e-11
-1.20567e-10
6.39509e-11
-1.96526e-10
7.59585e-11
-2.8373e-10
8.72072e-11
-3.81412e-10
9.76768e-11
-4.88774e-10
1.07362e-10
-6.05046e-10
1.16272e-10
-7.29478e-10
1.24431e-10
-8.61345e-10
1.31868e-10
-9.99959e-10
1.38615e-10
-1.14467e-09
1.44707e-10
-1.29485e-09
1.50185e-10
-1.44993e-09
1.55083e-10
-1.60937e-09
1.59437e-10
-1.77265e-09
1.63281e-10
-1.9393e-09
1.66651e-10
-2.10888e-09
1.69582e-10
-2.28098e-09
1.721e-10
-2.45522e-09
1.74238e-10
-2.63124e-09
1.76026e-10
-2.80873e-09
1.77485e-10
-2.98737e-09
1.78641e-10
-3.1669e-09
1.7952e-10
-3.34704e-09
1.80138e-10
-3.52755e-09
1.80517e-10
-3.70823e-09
1.80679e-10
-3.88887e-09
1.80634e-10
-4.06926e-09
1.8039e-10
-4.24922e-09
1.79966e-10
-4.4286e-09
1.7938e-10
-4.60724e-09
1.78634e-10
-4.78498e-09
1.77737e-10
-4.96168e-09
1.76702e-10
-5.13721e-09
1.75535e-10
-5.31145e-09
1.74234e-10
-5.48426e-09
1.72806e-10
-5.65551e-09
1.71259e-10
-5.82511e-09
1.69594e-10
-5.99292e-09
1.67809e-10
-6.15882e-09
1.65907e-10
-6.32271e-09
1.63892e-10
-6.48448e-09
1.61762e-10
-6.64399e-09
1.59513e-10
-6.80114e-09
1.57144e-10
-6.95579e-09
1.54656e-10
-7.10784e-09
1.52047e-10
-7.25715e-09
1.49314e-10
-7.4036e-09
1.46451e-10
-7.54705e-09
1.43458e-10
-7.68739e-09
1.40333e-10
-7.82446e-09
1.37072e-10
-7.95814e-09
1.33672e-10
-8.08827e-09
1.3013e-10
-8.21471e-09
1.26444e-10
-8.33732e-09
1.22611e-10
-8.45595e-09
1.18625e-10
-8.57043e-09
1.14482e-10
-8.68061e-09
1.10182e-10
-8.78634e-09
1.05727e-10
-8.88745e-09
1.01112e-10
-8.98378e-09
9.63338e-11
-9.07517e-09
9.13877e-11
-9.16144e-09
8.62756e-11
-9.24244e-09
8.09998e-11
-9.318e-09
7.55592e-11
-9.38795e-09
6.99513e-11
-9.45213e-09
6.41766e-11
-9.51037e-09
5.82381e-11
-9.56251e-09
5.21392e-11
-9.60839e-09
4.58818e-11
-9.64786e-09
3.94675e-11
-9.68076e-09
3.29e-11
-9.70694e-09
2.61845e-11
-9.72626e-09
1.93263e-11
-9.73859e-09
1.23296e-11
-9.74379e-09
5.19948e-12
-9.74174e-09
-2.05474e-12
-9.73232e-09
-9.42098e-12
-9.71543e-09
-1.68901e-11
-9.69098e-09
-2.44555e-11
-9.65886e-09
-3.21088e-11
-9.61902e-09
-3.98392e-11
-9.57139e-09
-4.76335e-11
-9.51591e-09
-5.54772e-11
-9.45256e-09
-6.33557e-11
-9.38131e-09
-7.1255e-11
-9.30215e-09
-7.91613e-11
-9.21509e-09
-8.706e-11
-9.12015e-09
-9.49344e-11
-9.01738e-09
-1.02767e-10
-8.90684e-09
-1.10542e-10
-8.7886e-09
-1.18241e-10
-8.66276e-09
-1.25845e-10
-8.52942e-09
-1.33333e-10
-8.38873e-09
-1.40687e-10
-8.24085e-09
-1.47887e-10
-8.08593e-09
-1.54912e-10
-7.92419e-09
-1.61745e-10
-7.75582e-09
-1.68364e-10
-7.58108e-09
-1.74748e-10
-7.4002e-09
-1.80875e-10
-7.21347e-09
-1.86727e-10
-7.02119e-09
-1.92284e-10
-6.82366e-09
-1.97527e-10
-6.62123e-09
-2.02436e-10
-6.41424e-09
-2.0699e-10
-6.20306e-09
-2.11172e-10
-5.9881e-09
-2.14964e-10
-5.76975e-09
-2.1835e-10
-5.54843e-09
-2.21316e-10
-5.32459e-09
-2.23842e-10
-5.09868e-09
-2.25915e-10
-4.87116e-09
-2.27518e-10
-4.64252e-09
-2.2864e-10
-4.41325e-09
-2.29268e-10
-4.18386e-09
-2.29393e-10
-3.95486e-09
-2.29004e-10
-3.72677e-09
-2.2809e-10
-3.50012e-09
-2.26644e-10
-3.27546e-09
-2.24659e-10
-3.05333e-09
-2.2213e-10
-2.83428e-09
-2.19053e-10
-2.61885e-09
-2.15424e-10
-2.40761e-09
-2.1124e-10
-2.20111e-09
-2.065e-10
-1.99991e-09
-2.01202e-10
-1.80457e-09
-1.95347e-10
-1.61562e-09
-1.8894e-10
-1.43364e-09
-1.81983e-10
-1.25916e-09
-1.7448e-10
-1.09273e-09
-1.66437e-10
-9.34867e-10
-1.5786e-10
-7.8611e-10
-1.48758e-10
-6.46968e-10
-1.39143e-10
-5.17939e-10
-1.29029e-10
-3.99506e-10
-1.18433e-10
-2.9213e-10
-1.07376e-10
-1.96246e-10
-9.5885e-11
-1.12253e-10
-8.3994e-11
-4.05046e-11
-7.17491e-11
1.87076e-11
-5.92124e-11
6.51758e-11
-4.64682e-11
9.88066e-11
-3.36313e-11
1.19669e-10
-2.08638e-11
1.28066e-10
-8.3974e-12
1.24638e-10
3.42864e-12
1.10533e-10
1.41056e-11
8.76656e-11
2.28676e-11
5.91099e-11
2.85555e-11
2.97339e-11
2.93757e-11
7.06836e-12
2.26651e-11
7.06807e-12
2.09168e-11
-3.08682e-11
5.35785e-11
-5.35449e-11
7.96786e-11
-4.72513e-11
8.65659e-11
-2.04085e-11
6.6071e-11
1.82667e-11
1.35028e-11
6.33239e-11
-7.34656e-11
1.11332e-10
-1.95593e-10
1.60107e-10
-3.52557e-10
2.0822e-10
-5.4338e-10
2.54771e-10
-7.66604e-10
2.99186e-10
-1.02053e-09
3.41132e-10
-1.30328e-09
3.80429e-10
-1.6129e-09
4.1699e-10
-1.94745e-09
4.50812e-10
-2.30495e-09
4.81933e-10
-2.68351e-09
5.10427e-10
-3.08129e-09
5.36391e-10
-3.49652e-09
5.59935e-10
-3.92752e-09
5.8118e-10
-4.37269e-09
6.00251e-10
-4.83052e-09
6.17264e-10
-5.29959e-09
6.32346e-10
-5.77857e-09
6.45624e-10
-6.2662e-09
6.57209e-10
-6.76132e-09
6.67216e-10
-7.26284e-09
6.75757e-10
-7.76974e-09
6.8293e-10
-8.28109e-09
6.88829e-10
-8.79599e-09
6.93548e-10
-9.31363e-09
6.97169e-10
-9.83327e-09
6.99768e-10
-1.03542e-08
7.01425e-10
-1.08757e-08
7.02208e-10
-1.13972e-08
7.02166e-10
-1.19182e-08
7.01355e-10
-1.24381e-08
6.99832e-10
-1.29563e-08
6.97639e-10
-1.34725e-08
6.9481e-10
-1.39862e-08
6.91386e-10
-1.44969e-08
6.87398e-10
-1.50042e-08
6.82867e-10
-1.55078e-08
6.77811e-10
-1.60072e-08
6.72251e-10
-1.65022e-08
6.66205e-10
-1.69922e-08
6.59681e-10
-1.74771e-08
6.52686e-10
-1.79564e-08
6.45226e-10
-1.84298e-08
6.37304e-10
-1.8897e-08
6.28919e-10
-1.93576e-08
6.20067e-10
-1.98112e-08
6.10745e-10
-2.02575e-08
6.00951e-10
-2.06961e-08
5.90678e-10
-2.11267e-08
5.79916e-10
-2.15489e-08
5.68655e-10
-2.19623e-08
5.56887e-10
-2.23666e-08
5.44602e-10
-2.27613e-08
5.31788e-10
-2.31461e-08
5.18431e-10
-2.35205e-08
5.04521e-10
-2.38841e-08
4.90052e-10
-2.42365e-08
4.75013e-10
-2.45772e-08
4.59389e-10
-2.49059e-08
4.4317e-10
-2.52221e-08
4.26347e-10
-2.55253e-08
4.08916e-10
-2.5815e-08
3.90868e-10
-2.60909e-08
3.72196e-10
-2.63524e-08
3.52893e-10
-2.65991e-08
3.32959e-10
-2.68305e-08
3.12392e-10
-2.70461e-08
2.91192e-10
-2.72455e-08
2.69358e-10
-2.74282e-08
2.46895e-10
-2.75938e-08
2.23811e-10
-2.77418e-08
2.00113e-10
-2.78717e-08
1.75809e-10
-2.79831e-08
1.50911e-10
-2.80757e-08
1.25436e-10
-2.81489e-08
9.9404e-11
-2.82024e-08
7.28341e-11
-2.82358e-08
4.57467e-11
-2.82488e-08
1.81656e-11
-2.8241e-08
-9.88001e-12
-2.8212e-08
-3.83567e-11
-2.81617e-08
-6.72283e-11
-2.80897e-08
-9.64586e-11
-2.79958e-08
-1.26008e-10
-2.78798e-08
-1.55835e-10
-2.77415e-08
-1.85892e-10
-2.75809e-08
-2.16131e-10
-2.73977e-08
-2.46499e-10
-2.7192e-08
-2.76944e-10
-2.69638e-08
-3.07406e-10
-2.6713e-08
-3.37826e-10
-2.64398e-08
-3.68141e-10
-2.61443e-08
-3.98288e-10
-2.58267e-08
-4.28199e-10
-2.54871e-08
-4.57808e-10
-2.51259e-08
-4.87045e-10
-2.47434e-08
-5.15835e-10
-2.434e-08
-5.44103e-10
-2.39161e-08
-5.71774e-10
-2.34722e-08
-5.98774e-10
-2.30089e-08
-6.25027e-10
-2.25268e-08
-6.50456e-10
-2.20266e-08
-6.74982e-10
-2.15089e-08
-6.98529e-10
-2.09747e-08
-7.2102e-10
-2.04246e-08
-7.4238e-10
-1.98596e-08
-7.62535e-10
-1.92806e-08
-7.81409e-10
-1.86886e-08
-7.9893e-10
-1.80848e-08
-8.15027e-10
-1.74701e-08
-8.29634e-10
-1.68458e-08
-8.42685e-10
-1.6213e-08
-8.54119e-10
-1.55729e-08
-8.63875e-10
-1.4927e-08
-8.71894e-10
-1.42764e-08
-8.78123e-10
-1.36225e-08
-8.8251e-10
-1.29668e-08
-8.85011e-10
-1.23106e-08
-8.85581e-10
-1.16554e-08
-8.84183e-10
-1.10027e-08
-8.80781e-10
-1.0354e-08
-8.75345e-10
-9.7108e-09
-8.67849e-10
-9.07466e-09
-8.58272e-10
-8.44711e-09
-8.46597e-10
-7.82972e-09
-8.32811e-10
-7.22406e-09
-8.16904e-10
-6.63169e-09
-7.98872e-10
-6.05417e-09
-7.78714e-10
-5.49309e-09
-7.56435e-10
-4.94998e-09
-7.32047e-10
-4.4264e-09
-7.05566e-10
-3.92387e-09
-6.77011e-10
-3.44389e-09
-6.46412e-10
-2.98795e-09
-6.138e-10
-2.55749e-09
-5.79219e-10
-2.15391e-09
-5.42723e-10
-1.77856e-09
-5.04376e-10
-1.43274e-09
-4.64259e-10
-1.11764e-09
-4.22472e-10
-8.34387e-10
-3.79141e-10
-5.83956e-10
-3.34427e-10
-3.67168e-10
-2.88537e-10
-1.84636e-10
-2.41746e-10
-3.66927e-11
-1.94413e-10
7.66958e-11
-1.47021e-10
1.56056e-10
-1.00224e-10
2.02578e-10
-5.49186e-11
2.1836e-10
-1.23528e-11
2.06737e-10
2.57289e-11
1.72716e-10
5.68887e-11
1.23517e-10
7.77537e-11
6.91375e-11
8.37547e-11
2.26224e-11
6.91799e-11
2.96903e-11
2.00597e-11
-5.09296e-11
4.58569e-11
-7.93447e-11
5.54081e-11
-5.6805e-11
3.3836e-11
1.16697e-12
-2.90094e-11
8.11093e-11
-1.39552e-10
1.73864e-10
-3.01333e-10
2.7311e-10
-5.15784e-10
3.74565e-10
-7.82866e-10
4.75298e-10
-1.10146e-09
5.73369e-10
-1.46976e-09
6.67473e-10
-1.88544e-09
7.56809e-10
-2.34589e-09
8.40884e-10
-2.84834e-09
9.19434e-10
-3.3899e-09
9.92379e-10
-3.9677e-09
1.05973e-09
-4.57888e-09
1.1216e-09
-5.22064e-09
1.17816e-09
-5.8903e-09
1.22959e-09
-6.58525e-09
1.27613e-09
-7.30301e-09
1.31802e-09
-8.04124e-09
1.35549e-09
-8.7977e-09
1.3888e-09
-9.57028e-09
1.41821e-09
-1.0357e-08
1.44394e-09
-1.1156e-08
1.46623e-09
-1.19656e-08
1.48531e-09
-1.27841e-08
1.5014e-09
-1.36099e-08
1.51469e-09
-1.44418e-08
1.52538e-09
-1.52782e-08
1.53364e-09
-1.61181e-08
1.53965e-09
-1.69603e-08
1.54356e-09
-1.78036e-08
1.54551e-09
-1.8647e-08
1.54563e-09
-1.94897e-08
1.54404e-09
-2.03307e-08
1.54085e-09
-2.11692e-08
1.53615e-09
-2.20045e-08
1.53003e-09
-2.28357e-08
1.52257e-09
-2.36621e-08
1.51384e-09
-2.44831e-08
1.50388e-09
-2.5298e-08
1.49274e-09
-2.61063e-08
1.48047e-09
-2.69072e-08
1.4671e-09
-2.77001e-08
1.45266e-09
-2.84846e-08
1.43716e-09
-2.926e-08
1.42061e-09
-3.00257e-08
1.40303e-09
-3.07812e-08
1.38441e-09
-3.15259e-08
1.36475e-09
-3.22592e-08
1.34404e-09
-3.29805e-08
1.32229e-09
-3.36893e-08
1.29946e-09
-3.43849e-08
1.27555e-09
-3.50668e-08
1.25054e-09
-3.57343e-08
1.2244e-09
-3.63869e-08
1.19713e-09
-3.70238e-08
1.16869e-09
-3.76444e-08
1.13906e-09
-3.82481e-08
1.10822e-09
-3.88342e-08
1.07614e-09
-3.9402e-08
1.04282e-09
-3.99508e-08
1.00821e-09
-4.04799e-08
9.7231e-10
-4.09887e-08
9.35094e-10
-4.14763e-08
8.96548e-10
-4.19421e-08
8.56654e-10
-4.23853e-08
8.154e-10
-4.28052e-08
7.72779e-10
-4.3201e-08
7.28786e-10
-4.3572e-08
6.83419e-10
-4.39175e-08
6.36675e-10
-4.42367e-08
5.8856e-10
-4.45289e-08
5.39084e-10
-4.47934e-08
4.88264e-10
-4.50294e-08
4.36115e-10
-4.52362e-08
3.82658e-10
-4.54132e-08
3.27922e-10
-4.55597e-08
2.71942e-10
-4.56751e-08
2.14757e-10
-4.57587e-08
1.56413e-10
-4.58099e-08
9.69572e-11
-4.58282e-08
3.64475e-11
-4.5813e-08
-2.50535e-11
-4.57639e-08
-8.74768e-11
-4.56804e-08
-1.50747e-10
-4.5562e-08
-2.14784e-10
-4.54085e-08
-2.795e-10
-4.52196e-08
-3.44801e-10
-4.49949e-08
-4.10585e-10
-4.47343e-08
-4.76746e-10
-4.44376e-08
-5.43172e-10
-4.41048e-08
-6.09745e-10
-4.37358e-08
-6.76341e-10
-4.33308e-08
-7.4283e-10
-4.28899e-08
-8.09076e-10
-4.24133e-08
-8.74939e-10
-4.19012e-08
-9.40274e-10
-4.13541e-08
-1.00494e-09
-4.07723e-08
-1.06877e-09
-4.01566e-08
-1.13162e-09
-3.95073e-08
-1.19332e-09
-3.88254e-08
-1.25371e-09
-3.81115e-08
-1.31264e-09
-3.73666e-08
-1.36993e-09
-3.65917e-08
-1.42541e-09
-3.57877e-08
-1.47893e-09
-3.49559e-08
-1.53031e-09
-3.40976e-08
-1.57938e-09
-3.3214e-08
-1.626e-09
-3.23065e-08
-1.66998e-09
-3.13767e-08
-1.71118e-09
-3.04262e-08
-1.74943e-09
-2.94567e-08
-1.78459e-09
-2.84698e-08
-1.8165e-09
-2.74675e-08
-1.84503e-09
-2.64515e-08
-1.87004e-09
-2.5424e-08
-1.8914e-09
-2.43869e-08
-1.90899e-09
-2.33424e-08
-1.92268e-09
-2.22925e-08
-1.93237e-09
-2.12396e-08
-1.93795e-09
-2.01858e-08
-1.93935e-09
-1.91335e-08
-1.93646e-09
-1.80851e-08
-1.92922e-09
-1.70429e-08
-1.91755e-09
-1.60093e-08
-1.90141e-09
-1.49868e-08
-1.88075e-09
-1.39779e-08
-1.85553e-09
-1.2985e-08
-1.82572e-09
-1.20106e-08
-1.79131e-09
-1.10572e-08
-1.75228e-09
-1.01272e-08
-1.70865e-09
-9.22325e-09
-1.66042e-09
-8.34767e-09
-1.60763e-09
-7.50293e-09
-1.55031e-09
-6.69143e-09
-1.48851e-09
-5.91553e-09
-1.42231e-09
-5.17753e-09
-1.3518e-09
-4.47969e-09
-1.27706e-09
-3.82417e-09
-1.19825e-09
-3.21303e-09
-1.11551e-09
-2.64824e-09
-1.02905e-09
-2.1316e-09
-9.39113e-10
-1.66474e-09
-8.46004e-10
-1.24906e-09
-7.50108e-10
-8.85674e-10
-6.51919e-10
-5.75349e-10
-5.52071e-10
-3.1838e-10
-4.51383e-10
-1.1447e-10
-3.50932e-10
3.74405e-11
-2.52135e-10
1.39402e-10
-1.56879e-10
1.9474e-10
-6.76904e-11
2.08429e-10
1.20399e-11
1.87525e-10
7.77927e-11
1.41667e-10
1.23611e-10
8.35311e-11
1.4189e-10
2.92258e-11
1.23484e-10
5.89159e-11
1.30186e-11
-6.39439e-11
1.96511e-11
-8.59762e-11
-2.12215e-12
-3.5028e-11
-6.74787e-11
6.65212e-11
-1.87235e-10
2.00869e-10
-3.68429e-10
3.55057e-10
-6.15178e-10
5.1986e-10
-9.2933e-10
6.88714e-10
-1.31103e-09
8.56998e-10
-1.75914e-09
1.02148e-09
-2.27164e-09
1.17997e-09
-2.84583e-09
1.331e-09
-3.47859e-09
1.47364e-09
-4.16653e-09
1.60738e-09
-4.90611e-09
1.73195e-09
-5.6937e-09
1.84732e-09
-6.5257e-09
1.9536e-09
-7.39854e-09
2.051e-09
-8.30876e-09
2.1398e-09
-9.25298e-09
2.22035e-09
-1.0228e-08
2.29301e-09
-1.12307e-08
2.35817e-09
-1.22581e-08
2.41624e-09
-1.33075e-08
2.4676e-09
-1.43762e-08
2.51266e-09
-1.54618e-08
2.55179e-09
-1.65618e-08
2.58538e-09
-1.76742e-08
2.61377e-09
-1.87968e-08
2.63732e-09
-1.99278e-08
2.65633e-09
-2.10653e-08
2.67111e-09
-2.22076e-08
2.68195e-09
-2.33531e-08
2.68911e-09
-2.45004e-08
2.69282e-09
-2.56481e-08
2.69332e-09
-2.67949e-08
2.6908e-09
-2.79395e-08
2.68546e-09
-2.90808e-08
2.67745e-09
-3.02177e-08
2.66693e-09
-3.13491e-08
2.65402e-09
-3.24741e-08
2.63885e-09
-3.35918e-08
2.62151e-09
-3.47011e-08
2.60208e-09
-3.58013e-08
2.58064e-09
-3.68914e-08
2.55725e-09
-3.79707e-08
2.53194e-09
-3.90383e-08
2.50476e-09
-4.00934e-08
2.47573e-09
-4.11353e-08
2.44487e-09
-4.2163e-08
2.41217e-09
-4.31759e-08
2.37764e-09
-4.41731e-08
2.34127e-09
-4.51539e-08
2.30305e-09
-4.61174e-08
2.26295e-09
-4.70628e-08
2.22094e-09
-4.79892e-08
2.17701e-09
-4.8896e-08
2.13112e-09
-4.97821e-08
2.08323e-09
-5.06467e-08
2.03331e-09
-5.1489e-08
1.98133e-09
-5.2308e-08
1.92723e-09
-5.31028e-08
1.871e-09
-5.38726e-08
1.81259e-09
-5.46164e-08
1.75196e-09
-5.53331e-08
1.68909e-09
-5.6022e-08
1.62395e-09
-5.6682e-08
1.55651e-09
-5.7312e-08
1.48674e-09
-5.79113e-08
1.41462e-09
-5.84786e-08
1.34015e-09
-5.90131e-08
1.26331e-09
-5.95138e-08
1.18411e-09
-5.99797e-08
1.10254e-09
-6.04098e-08
1.01862e-09
-6.0803e-08
9.32358e-10
-6.11586e-08
8.43787e-10
-6.14754e-08
7.52937e-10
-6.17526e-08
6.59849e-10
-6.19892e-08
5.64574e-10
-6.21845e-08
4.67171e-10
-6.23374e-08
3.67709e-10
-6.24473e-08
2.66265e-10
-6.25132e-08
1.62926e-10
-6.25346e-08
5.77925e-11
-6.25106e-08
-4.90267e-11
-6.24407e-08
-1.57411e-10
-6.23242e-08
-2.6723e-10
-6.21606e-08
-3.78344e-10
-6.19495e-08
-4.90604e-10
-6.16905e-08
-6.03845e-10
-6.13832e-08
-7.17895e-10
-6.10273e-08
-8.32567e-10
-6.06228e-08
-9.47668e-10
-6.01696e-08
-1.063e-09
-5.96676e-08
-1.17834e-09
-5.9117e-08
-1.29346e-09
-5.85179e-08
-1.40815e-09
-5.78707e-08
-1.52215e-09
-5.71758e-08
-1.63521e-09
-5.64336e-08
-1.74709e-09
-5.56449e-08
-1.85752e-09
-5.48102e-08
-1.96622e-09
-5.39306e-08
-2.07293e-09
-5.3007e-08
-2.17737e-09
-5.20403e-08
-2.27926e-09
-5.1032e-08
-2.37831e-09
-4.99831e-08
-2.47423e-09
-4.88953e-08
-2.56675e-09
-4.77701e-08
-2.65557e-09
-4.6609e-08
-2.74042e-09
-4.5414e-08
-2.821e-09
-4.41869e-08
-2.89705e-09
-4.29298e-08
-2.96829e-09
-4.16448e-08
-3.03444e-09
-4.03341e-08
-3.09526e-09
-3.90002e-08
-3.15049e-09
-3.76453e-08
-3.19988e-09
-3.62722e-08
-3.2432e-09
-3.48833e-08
-3.28023e-09
-3.34816e-08
-3.31075e-09
-3.20697e-08
-3.33456e-09
-3.06506e-08
-3.35148e-09
-2.92272e-08
-3.36133e-09
-2.78026e-08
-3.36395e-09
-2.63799e-08
-3.35921e-09
-2.49621e-08
-3.34696e-09
-2.35526e-08
-3.3271e-09
-2.21545e-08
-3.29953e-09
-2.0771e-08
-3.26418e-09
-1.94056e-08
-3.22098e-09
-1.80614e-08
-3.16989e-09
-1.67418e-08
-3.11087e-09
-1.54502e-08
-3.04393e-09
-1.41898e-08
-2.96907e-09
-1.29639e-08
-2.88633e-09
-1.17757e-08
-2.79576e-09
-1.06286e-08
-2.69744e-09
-9.52563e-09
-2.59147e-09
-8.46996e-09
-2.47799e-09
-7.4646e-09
-2.35715e-09
-6.5125e-09
-2.22916e-09
-5.61647e-09
-2.09428e-09
-4.77918e-09
-1.9528e-09
-4.00314e-09
-1.8051e-09
-3.29062e-09
-1.65163e-09
-2.64365e-09
-1.49298e-09
-2.06392e-09
-1.32983e-09
-1.55275e-09
-1.16309e-09
-1.11093e-09
-9.93887e-10
-7.38669e-10
-8.23648e-10
-4.3538e-10
-6.54221e-10
-1.99528e-10
-4.87986e-10
-2.83747e-11
-3.28032e-10
8.23074e-11
-1.78373e-10
1.38573e-10
-4.42256e-11
1.48707e-10
6.76576e-11
1.23671e-10
1.48646e-10
7.75746e-11
1.87986e-10
2.83442e-11
1.72714e-10
8.72598e-11
2.22921e-12
-6.61745e-11
-1.84043e-11
-6.53454e-11
-8.16833e-11
2.82483e-11
-2.01863e-10
1.86702e-10
-3.89205e-10
3.8821e-10
-6.50643e-10
6.16495e-10
-9.90336e-10
8.59551e-10
-1.4102e-09
1.10859e-09
-1.91042e-09
1.35722e-09
-2.48981e-09
1.60087e-09
-3.14615e-09
1.83631e-09
-3.87649e-09
2.06134e-09
-4.67734e-09
2.2745e-09
-5.54486e-09
2.4749e-09
-6.47499e-09
2.66207e-09
-7.46354e-09
2.83587e-09
-8.50629e-09
2.99636e-09
-9.59907e-09
3.14378e-09
-1.07378e-08
3.27849e-09
-1.19183e-08
3.40094e-09
-1.3137e-08
3.51163e-09
-1.43899e-08
3.6111e-09
-1.56736e-08
3.69992e-09
-1.69846e-08
3.77865e-09
-1.83198e-08
3.84786e-09
-1.96761e-08
3.9081e-09
-2.10507e-08
3.95991e-09
-2.24407e-08
4.00383e-09
-2.38437e-08
4.04035e-09
-2.52573e-08
4.06993e-09
-2.66793e-08
4.09304e-09
-2.81074e-08
4.1101e-09
-2.95398e-08
4.12148e-09
-3.09746e-08
4.12756e-09
-3.24099e-08
4.12868e-09
-3.38442e-08
4.12513e-09
-3.5276e-08
4.1172e-09
-3.67037e-08
4.10514e-09
-3.81259e-08
4.08917e-09
-3.95414e-08
4.06949e-09
-4.09488e-08
4.04628e-09
-4.2347e-08
4.0197e-09
-4.37348e-08
3.98987e-09
-4.51111e-08
3.9569e-09
-4.64747e-08
3.92089e-09
-4.78247e-08
3.8819e-09
-4.91599e-08
3.83999e-09
-5.04794e-08
3.7952e-09
-5.17821e-08
3.74756e-09
-5.3067e-08
3.69708e-09
-5.43331e-08
3.64376e-09
-5.55794e-08
3.58759e-09
-5.68049e-08
3.52856e-09
-5.80086e-08
3.46662e-09
-5.91894e-08
3.40175e-09
-6.03463e-08
3.33392e-09
-6.14783e-08
3.26307e-09
-6.25842e-08
3.18915e-09
-6.3663e-08
3.11212e-09
-6.47136e-08
3.03192e-09
-6.57349e-08
2.9485e-09
-6.67257e-08
2.86181e-09
-6.76849e-08
2.77179e-09
-6.86113e-08
2.6784e-09
-6.95038e-08
2.58158e-09
-7.03612e-08
2.48131e-09
-7.11822e-08
2.37753e-09
-7.19657e-08
2.27021e-09
-7.27104e-08
2.15934e-09
-7.34151e-08
2.04489e-09
-7.40787e-08
1.92686e-09
-7.46998e-08
1.80523e-09
-7.52773e-08
1.68003e-09
-7.58099e-08
1.55126e-09
-7.62965e-08
1.41896e-09
-7.67359e-08
1.28316e-09
-7.71269e-08
1.14393e-09
-7.74683e-08
1.00132e-09
-7.77592e-08
8.55409e-10
-7.79983e-08
7.06295e-10
-7.81847e-08
5.54083e-10
-7.83173e-08
3.9889e-10
-7.83952e-08
2.40853e-10
-7.84176e-08
8.01237e-11
-7.83835e-08
-8.31314e-11
-7.82921e-08
-2.48728e-10
-7.81429e-08
-4.16468e-10
-7.79351e-08
-5.86138e-10
-7.76682e-08
-7.57505e-10
-7.73417e-08
-9.30324e-10
-7.69553e-08
-1.10433e-09
-7.65086e-08
-1.27924e-09
-7.60015e-08
-1.45477e-09
-7.54339e-08
-1.6306e-09
-7.48058e-08
-1.80641e-09
-7.41174e-08
-1.98186e-09
-7.3369e-08
-2.1566e-09
-7.25609e-08
-2.33026e-09
-7.16936e-08
-2.50247e-09
-7.07679e-08
-2.67284e-09
-6.97844e-08
-2.84098e-09
-6.87441e-08
-3.00647e-09
-6.76482e-08
-3.1689e-09
-6.64977e-08
-3.32786e-09
-6.5294e-08
-3.48291e-09
-6.40387e-08
-3.63364e-09
-6.27333e-08
-3.7796e-09
-6.13797e-08
-3.92037e-09
-5.99798e-08
-4.05551e-09
-5.85356e-08
-4.1846e-09
-5.70494e-08
-4.30722e-09
-5.55235e-08
-4.42293e-09
-5.39605e-08
-4.53133e-09
-5.23629e-08
-4.63202e-09
-5.07335e-08
-4.7246e-09
-4.90754e-08
-4.80868e-09
-4.73913e-08
-4.88392e-09
-4.56846e-08
-4.94993e-09
-4.39584e-08
-5.0064e-09
-4.22162e-08
-5.053e-09
-4.04613e-08
-5.08942e-09
-3.86974e-08
-5.11538e-09
-3.69281e-08
-5.13063e-09
-3.51571e-08
-5.13492e-09
-3.33883e-08
-5.12804e-09
-3.16255e-08
-5.10978e-09
-2.98726e-08
-5.08e-09
-2.81336e-08
-5.03853e-09
-2.64125e-08
-4.98526e-09
-2.47134e-08
-4.92012e-09
-2.30402e-08
-4.84302e-09
-2.13972e-08
-4.75393e-09
-1.97882e-08
-4.65286e-09
-1.82175e-08
-4.53983e-09
-1.66889e-08
-4.41489e-09
-1.52066e-08
-4.27814e-09
-1.37743e-08
-4.12971e-09
-1.2396e-08
-3.96977e-09
-1.10754e-08
-3.79856e-09
-9.81627e-09
-3.61633e-09
-8.62201e-09
-3.42342e-09
-7.49604e-09
-3.22024e-09
-6.44154e-09
-3.0073e-09
-5.46144e-09
-2.7852e-09
-4.55841e-09
-2.55466e-09
-3.73477e-09
-2.31661e-09
-2.99243e-09
-2.07216e-09
-2.33283e-09
-1.8227e-09
-1.75676e-09
-1.56996e-09
-1.2643e-09
-1.3161e-09
-8.54652e-10
-1.06387e-09
-5.25895e-10
-8.16744e-10
-2.74813e-10
-5.79115e-10
-9.66015e-11
-3.56584e-10
1.54272e-11
-1.56255e-10
7.0194e-11
1.28896e-11
7.92526e-11
1.39587e-10
5.72705e-11
2.09967e-10
2.27537e-11
2.0723e-10
1.10013e-10
-1.05898e-11
-5.55856e-11
-6.34667e-11
-1.24677e-11
-1.75021e-10
1.39802e-10
-3.57519e-10
3.69199e-10
-6.20001e-10
6.50692e-10
-9.68675e-10
9.65166e-10
-1.40728e-09
1.29816e-09
-1.9375e-09
1.63881e-09
-2.55933e-09
1.97905e-09
-3.27143e-09
2.31297e-09
-4.07139e-09
2.63627e-09
-4.95602e-09
2.94596e-09
-5.92152e-09
3.24e-09
-6.96371e-09
3.51708e-09
-8.0781e-09
3.77647e-09
-9.26006e-09
4.01784e-09
-1.05049e-08
4.2412e-09
-1.18079e-08
4.4468e-09
-1.31645e-08
4.63505e-09
-1.457e-08
4.80649e-09
-1.60202e-08
4.96177e-09
-1.75106e-08
5.10157e-09
-1.90373e-08
5.22662e-09
-2.05964e-08
5.33766e-09
-2.2184e-08
5.43546e-09
-2.37966e-08
5.52075e-09
-2.5431e-08
5.59426e-09
-2.70838e-08
5.65669e-09
-2.87522e-08
5.70872e-09
-3.04333e-08
5.751e-09
-3.21244e-08
5.78415e-09
-3.3823e-08
5.80872e-09
-3.55268e-08
5.82528e-09
-3.72335e-08
5.8343e-09
-3.89411e-08
5.83627e-09
-4.06476e-08
5.8316e-09
-4.23511e-08
5.82068e-09
-4.40498e-08
5.80386e-09
-4.57421e-08
5.78145e-09
-4.74263e-08
5.75374e-09
-4.9101e-08
5.72098e-09
-5.07647e-08
5.68337e-09
-5.24159e-08
5.64111e-09
-5.40534e-08
5.59435e-09
-5.56757e-08
5.54322e-09
-5.72817e-08
5.48783e-09
-5.88699e-08
5.42825e-09
-6.04393e-08
5.36456e-09
-6.19885e-08
5.29678e-09
-6.35163e-08
5.22494e-09
-6.50216e-08
5.14904e-09
-6.65031e-08
5.06909e-09
-6.79596e-08
4.98504e-09
-6.93898e-08
4.89687e-09
-7.07926e-08
4.80454e-09
-7.21667e-08
4.708e-09
-7.35108e-08
4.60718e-09
-7.48237e-08
4.50202e-09
-7.6104e-08
4.39245e-09
-7.73505e-08
4.27842e-09
-7.85618e-08
4.15983e-09
-7.97367e-08
4.03663e-09
-8.08736e-08
3.90875e-09
-8.19714e-08
3.77612e-09
-8.30284e-08
3.63868e-09
-8.40435e-08
3.49638e-09
-8.50151e-08
3.34916e-09
-8.59419e-08
3.19698e-09
-8.68224e-08
3.03982e-09
-8.76552e-08
2.87765e-09
-8.84388e-08
2.71046e-09
-8.91718e-08
2.53826e-09
-8.98528e-08
2.36105e-09
-9.04804e-08
2.17886e-09
-9.10532e-08
1.99175e-09
-9.15698e-08
1.79977e-09
-9.20289e-08
1.60298e-09
-9.24291e-08
1.4015e-09
-9.27691e-08
1.19543e-09
-9.30477e-08
9.84907e-10
-9.32637e-08
7.70076e-10
-9.34159e-08
5.5111e-10
-9.35033e-08
3.28202e-10
-9.35247e-08
1.01566e-10
-9.34793e-08
-1.28561e-10
-9.33661e-08
-3.61923e-10
-9.31843e-08
-5.9824e-10
-9.29332e-08
-8.37209e-10
-9.26122e-08
-1.07851e-09
-9.22208e-08
-1.32178e-09
-9.17584e-08
-1.56667e-09
-9.12249e-08
-1.81277e-09
-9.062e-08
-2.05968e-09
-8.99436e-08
-2.30697e-09
-8.91959e-08
-2.55417e-09
-8.83769e-08
-2.80082e-09
-8.74871e-08
-3.04641e-09
-8.65269e-08
-3.29045e-09
-8.54969e-08
-3.53241e-09
-8.4398e-08
-3.77175e-09
-8.32311e-08
-4.00791e-09
-8.19973e-08
-4.24032e-09
-8.06978e-08
-4.46841e-09
-7.9334e-08
-4.69159e-09
-7.79077e-08
-4.90927e-09
-7.64205e-08
-5.12085e-09
-7.48743e-08
-5.32573e-09
-7.32714e-08
-5.52331e-09
-7.16139e-08
-5.71299e-09
-6.99043e-08
-5.89417e-09
-6.81453e-08
-6.06625e-09
-6.63396e-08
-6.22866e-09
-6.44901e-08
-6.38081e-09
-6.26e-08
-6.52216e-09
-6.06724e-08
-6.65214e-09
-5.87109e-08
-6.77022e-09
-5.67189e-08
-6.8759e-09
-5.47001e-08
-6.96868e-09
-5.26585e-08
-7.04809e-09
-5.05978e-08
-7.11368e-09
-4.85222e-08
-7.16503e-09
-4.64358e-08
-7.20176e-09
-4.43429e-08
-7.22349e-09
-4.2248e-08
-7.22989e-09
-4.01553e-08
-7.22066e-09
-3.80696e-08
-7.19555e-09
-3.59953e-08
-7.1543e-09
-3.39371e-08
-7.09673e-09
-3.18996e-08
-7.02268e-09
-2.98877e-08
-6.93203e-09
-2.7906e-08
-6.8247e-09
-2.59593e-08
-6.70064e-09
-2.40523e-08
-6.55986e-09
-2.21898e-08
-6.4024e-09
-2.03763e-08
-6.22838e-09
-1.86165e-08
-6.03792e-09
-1.6915e-08
-5.83123e-09
-1.52761e-08
-5.60859e-09
-1.37044e-08
-5.37032e-09
-1.22039e-08
-5.11684e-09
-1.07787e-08
-4.84864e-09
-9.43255e-09
-4.56634e-09
-8.16918e-09
-4.27068e-09
-6.99182e-09
-3.96255e-09
-5.90346e-09
-3.64303e-09
-4.90665e-09
-3.31342e-09
-4.00348e-09
-2.97534e-09
-3.19543e-09
-2.63075e-09
-2.48333e-09
-2.28206e-09
-1.86716e-09
-1.93227e-09
-1.34593e-09
-1.5851e-09
-9.17517e-10
-1.24516e-09
-5.78407e-10
-9.18225e-10
-3.23504e-10
-6.11488e-10
-1.45854e-10
-3.33905e-10
-3.63602e-11
-9.66059e-11
1.65714e-11
8.66539e-11
2.74477e-11
1.9909e-10
1.42958e-11
2.20382e-10
1.24308e-10
-2.42893e-11
-3.12968e-11
-1.12165e-10
7.5408e-11
-2.76065e-10
3.037e-10
-5.25692e-10
6.18827e-10
-8.68345e-10
9.93344e-10
-1.30905e-09
1.40587e-09
-1.85075e-09
1.83986e-09
-2.49461e-09
2.28267e-09
-3.24025e-09
2.72469e-09
-4.08601e-09
3.15873e-09
-5.02925e-09
3.57951e-09
-6.06649e-09
3.98321e-09
-7.19367e-09
4.36718e-09
-8.40629e-09
4.72969e-09
-9.69952e-09
5.0697e-09
-1.10684e-08
5.38668e-09
-1.25077e-08
5.68057e-09
-1.40125e-08
5.95157e-09
-1.55776e-08
6.20013e-09
-1.7198e-08
6.42691e-09
-1.88689e-08
6.63264e-09
-2.05855e-08
6.81818e-09
-2.23433e-08
6.98441e-09
-2.41379e-08
7.13227e-09
-2.59651e-08
7.26269e-09
-2.7821e-08
7.37663e-09
-2.97017e-08
7.475e-09
-3.16037e-08
7.55869e-09
-3.35236e-08
7.62859e-09
-3.54581e-08
7.68552e-09
-3.74043e-08
7.73027e-09
-3.93591e-08
7.76359e-09
-4.132e-08
7.78617e-09
-4.32844e-08
7.79868e-09
-4.52498e-08
7.8017e-09
-4.7214e-08
7.79581e-09
-4.91749e-08
7.7815e-09
-5.11302e-08
7.75924e-09
-5.30782e-08
7.72945e-09
-5.5017e-08
7.69249e-09
-5.69447e-08
7.6487e-09
-5.88597e-08
7.59836e-09
-6.07603e-08
7.54172e-09
-6.26449e-08
7.47899e-09
-6.45121e-08
7.41034e-09
-6.63602e-08
7.33593e-09
-6.81878e-08
7.25585e-09
-6.99934e-08
7.17021e-09
-7.17757e-08
7.07904e-09
-7.35331e-08
6.98239e-09
-7.52644e-08
6.88028e-09
-7.6968e-08
6.77269e-09
-7.86425e-08
6.65959e-09
-8.02866e-08
6.54096e-09
-8.18988e-08
6.41673e-09
-8.34776e-08
6.28684e-09
-8.50217e-08
6.15123e-09
-8.65295e-08
6.00981e-09
-8.79995e-08
5.86251e-09
-8.94304e-08
5.70922e-09
-9.08204e-08
5.54987e-09
-9.21681e-08
5.38436e-09
-9.3472e-08
5.21262e-09
-9.47304e-08
5.03456e-09
-9.59418e-08
4.8501e-09
-9.71046e-08
4.65918e-09
-9.82172e-08
4.46173e-09
-9.92779e-08
4.25771e-09
-1.00285e-07
4.04708e-09
-1.01237e-07
3.82981e-09
-1.02133e-07
3.6059e-09
-1.0297e-07
3.37535e-09
-1.03747e-07
3.13819e-09
-1.04463e-07
2.89445e-09
-1.05115e-07
2.64421e-09
-1.05703e-07
2.38753e-09
-1.06224e-07
2.12453e-09
-1.06678e-07
1.85534e-09
-1.07063e-07
1.58011e-09
-1.07377e-07
1.29902e-09
-1.07619e-07
1.01226e-09
-1.07788e-07
7.20072e-10
-1.07883e-07
4.22713e-10
-1.07902e-07
1.2047e-10
-1.07844e-07
-1.86343e-10
-1.07708e-07
-4.97382e-10
-1.07494e-07
-8.12275e-10
-1.07201e-07
-1.13062e-09
-1.06827e-07
-1.45199e-09
-1.06373e-07
-1.77591e-09
-1.05838e-07
-2.1019e-09
-1.05221e-07
-2.42943e-09
-1.04523e-07
-2.75797e-09
-1.03743e-07
-3.08694e-09
-1.02882e-07
-3.41572e-09
-1.01939e-07
-3.74371e-09
-1.00915e-07
-4.07024e-09
-9.98107e-08
-4.39464e-09
-9.86269e-08
-4.71622e-09
-9.73644e-08
-5.03426e-09
-9.60242e-08
-5.34804e-09
-9.46078e-08
-5.65679e-09
-9.31164e-08
-5.95976e-09
-9.15518e-08
-6.25618e-09
-8.99158e-08
-6.54526e-09
-8.82105e-08
-6.82622e-09
-8.6438e-08
-7.09825e-09
-8.46007e-08
-7.36058e-09
-8.27013e-08
-7.6124e-09
-8.07425e-08
-7.85292e-09
-7.87274e-08
-8.08138e-09
-7.66591e-08
-8.29699e-09
-7.45409e-08
-8.499e-09
-7.23764e-08
-8.68667e-09
-7.01692e-08
-8.85927e-09
-6.79233e-08
-9.01611e-09
-6.56427e-08
-9.15651e-09
-6.33316e-08
-9.27983e-09
-6.09942e-08
-9.38543e-09
-5.86352e-08
-9.47273e-09
-5.6259e-08
-9.54118e-09
-5.38705e-08
-9.59027e-09
-5.14745e-08
-9.61952e-09
-4.90759e-08
-9.62849e-09
-4.66798e-08
-9.61678e-09
-4.42913e-08
-9.58405e-09
-4.19156e-08
-9.53001e-09
-3.95579e-08
-9.45438e-09
-3.72236e-08
-9.35697e-09
-3.4918e-08
-9.23764e-09
-3.26465e-08
-9.09627e-09
-3.04143e-08
-8.93284e-09
-2.82268e-08
-8.74735e-09
-2.60893e-08
-8.53988e-09
-2.40071e-08
-8.31059e-09
-2.19853e-08
-8.05968e-09
-2.00291e-08
-7.78746e-09
-1.81434e-08
-7.4943e-09
-1.6333e-08
-7.18067e-09
-1.46027e-08
-6.84715e-09
-1.29569e-08
-6.49445e-09
-1.13998e-08
-6.12342e-09
-9.93543e-09
-5.73508e-09
-8.56732e-09
-5.33066e-09
-7.29872e-09
-4.91163e-09
-6.13239e-09
-4.47976e-09
-5.07052e-09
-4.0372e-09
-4.11471e-09
-3.58656e-09
-3.26576e-09
-3.13101e-09
-2.52364e-09
-2.67439e-09
-1.88728e-09
-2.22146e-09
-1.35444e-09
-1.77801e-09
-9.21507e-10
-1.35116e-09
-5.8334e-10
-9.49656e-10
-3.33015e-10
-5.84231e-10
-1.61618e-10
-2.68004e-10
-5.79652e-11
-1.69996e-11
-8.28501e-12
1.4941e-10
4.19899e-12
2.07897e-10
1.28507e-10
-3.82292e-11
6.9381e-12
-1.62314e-10
1.99488e-10
-3.8068e-10
5.22073e-10
-7.00175e-10
9.38319e-10
-1.12601e-09
1.41918e-09
-1.6617e-09
1.94156e-09
-2.30913e-09
2.48729e-09
-3.06867e-09
3.04221e-09
-3.93937e-09
3.59539e-09
-4.91917e-09
4.13853e-09
-6.00504e-09
4.66538e-09
-7.19322e-09
5.17138e-09
-8.47933e-09
5.65329e-09
-9.85857e-09
6.10894e-09
-1.13258e-08
6.53695e-09
-1.28758e-08
6.93663e-09
-1.4503e-08
7.30776e-09
-1.62019e-08
7.65053e-09
-1.79672e-08
7.96543e-09
-1.97935e-08
8.25315e-09
-2.16754e-08
8.51457e-09
-2.36079e-08
8.75067e-09
-2.5586e-08
8.96251e-09
-2.76049e-08
9.15122e-09
-2.96602e-08
9.31792e-09
-3.17473e-08
9.46376e-09
-3.38621e-08
9.58985e-09
-3.60008e-08
9.69731e-09
-3.81594e-08
9.7872e-09
-4.03344e-08
9.86055e-09
-4.25225e-08
9.91834e-09
-4.47204e-08
9.96149e-09
-4.69251e-08
9.99088e-09
-4.91337e-08
1.00073e-08
-5.13436e-08
1.00116e-08
-5.35521e-08
1.00043e-08
-5.57568e-08
9.98623e-09
-5.79554e-08
9.95786e-09
-6.01457e-08
9.91975e-09
-6.23256e-08
9.87236e-09
-6.4493e-08
9.81612e-09
-6.66461e-08
9.75139e-09
-6.87828e-08
9.67849e-09
-7.09015e-08
9.59768e-09
-7.30004e-08
9.50921e-09
-7.50777e-08
9.41324e-09
-7.71318e-08
9.30994e-09
-7.9161e-08
9.19941e-09
-8.11637e-08