/*--------------------------------*- C++ -*----------------------------------*\
  =========                 |
  \\      /  F ield         | OpenFOAM: The Open Source CFD Toolbox
   \\    /   O peration     | Website:  https://openfoam.org
    \\  /    A nd           | Version:  7
     \\/     M anipulation  |
\*---------------------------------------------------------------------------*/
FoamFile
{
    version     2.0;
    format      ascii;
    class       volVectorField;
    location    "0.2875";
    object      U;
}
// * * * * * * * * * * * * * * * * * * * * * * * * * * * * * * * * * * * * * //

dimensions      [0 1 -1 0 0 0 0];

internalField   nonuniform List<vector> 
25600
(
(7.70203e-07 -6.5477e-07 0)
(3.18073e-06 -1.54201e-06 0)
(6.7912e-06 -1.71656e-06 0)
(9.71785e-06 -1.31557e-06 0)
(1.10897e-05 -6.82524e-07 0)
(1.04567e-05 2.26961e-08 0)
(7.66504e-06 7.50295e-07 0)
(2.67589e-06 1.4576e-06 0)
(-4.47639e-06 2.13548e-06 0)
(-1.37116e-05 2.77014e-06 0)
(-2.49299e-05 3.36129e-06 0)
(-3.80079e-05 3.90912e-06 0)
(-5.28278e-05 4.41183e-06 0)
(-6.92594e-05 4.87422e-06 0)
(-8.71771e-05 5.29574e-06 0)
(-0.000106462 5.67649e-06 0)
(-0.000126992 6.02205e-06 0)
(-0.000148654 6.33276e-06 0)
(-0.000171345 6.60952e-06 0)
(-0.000194959 6.8578e-06 0)
(-0.0002194 7.0792e-06 0)
(-0.000244583 7.2734e-06 0)
(-0.00027042 7.4436e-06 0)
(-0.000296831 7.59232e-06 0)
(-0.000323746 7.72013e-06 0)
(-0.000351096 7.82924e-06 0)
(-0.000378817 7.92224e-06 0)
(-0.000406851 7.99931e-06 0)
(-0.000435145 8.06047e-06 0)
(-0.000463647 8.10797e-06 0)
(-0.00049231 8.14335e-06 0)
(-0.000521094 8.16684e-06 0)
(-0.000549956 8.18061e-06 0)
(-0.00057886 8.1861e-06 0)
(-0.000607773 8.18161e-06 0)
(-0.000636662 8.16633e-06 0)
(-0.000665498 8.14283e-06 0)
(-0.000694251 8.11357e-06 0)
(-0.000722899 8.07846e-06 0)
(-0.000751415 8.03728e-06 0)
(-0.000779776 7.99071e-06 0)
(-0.00080796 7.93853e-06 0)
(-0.000835946 7.87971e-06 0)
(-0.000863715 7.81452e-06 0)
(-0.000891245 7.74448e-06 0)
(-0.000918517 7.67e-06 0)
(-0.000945514 7.59052e-06 0)
(-0.000972216 7.50601e-06 0)
(-0.000998605 7.41698e-06 0)
(-0.00102466 7.32333e-06 0)
(-0.00105037 7.22406e-06 0)
(-0.00107571 7.11868e-06 0)
(-0.00110065 7.00792e-06 0)
(-0.0011252 6.89246e-06 0)
(-0.00114931 6.7719e-06 0)
(-0.00117298 6.64542e-06 0)
(-0.00119617 6.5127e-06 0)
(-0.00121888 6.374e-06 0)
(-0.00124108 6.22937e-06 0)
(-0.00126274 6.07842e-06 0)
(-0.00128385 5.92092e-06 0)
(-0.00130439 5.75687e-06 0)
(-0.00132432 5.58618e-06 0)
(-0.00134362 5.40848e-06 0)
(-0.00136228 5.22325e-06 0)
(-0.00138025 5.03066e-06 0)
(-0.00139753 4.83119e-06 0)
(-0.00141409 4.62473e-06 0)
(-0.00142989 4.41059e-06 0)
(-0.00144491 4.18824e-06 0)
(-0.00145913 3.95782e-06 0)
(-0.00147252 3.7199e-06 0)
(-0.00148505 3.47467e-06 0)
(-0.0014967 3.22166e-06 0)
(-0.00150743 2.96049e-06 0)
(-0.00151723 2.69133e-06 0)
(-0.00152607 2.41469e-06 0)
(-0.00153392 2.13077e-06 0)
(-0.00154075 1.83955e-06 0)
(-0.00154655 1.541e-06 0)
(-0.00155128 1.23525e-06 0)
(-0.00155493 9.22681e-07 0)
(-0.00155746 6.03552e-07 0)
(-0.00155887 2.77963e-07 0)
(-0.00155913 -5.37392e-08 0)
(-0.00155821 -3.90849e-07 0)
(-0.00155611 -7.32765e-07 0)
(-0.00155281 -1.07921e-06 0)
(-0.00154829 -1.43e-06 0)
(-0.00154253 -1.78479e-06 0)
(-0.00153554 -2.14298e-06 0)
(-0.00152729 -2.50371e-06 0)
(-0.00151778 -2.86609e-06 0)
(-0.00150702 -3.22944e-06 0)
(-0.00149498 -3.5933e-06 0)
(-0.00148168 -3.95712e-06 0)
(-0.00146712 -4.32011e-06 0)
(-0.00145131 -4.6813e-06 0)
(-0.00143424 -5.03982e-06 0)
(-0.00141593 -5.39499e-06 0)
(-0.0013964 -5.74598e-06 0)
(-0.00137566 -6.09186e-06 0)
(-0.00135373 -6.4316e-06 0)
(-0.00133064 -6.76421e-06 0)
(-0.00130641 -7.08879e-06 0)
(-0.00128107 -7.40449e-06 0)
(-0.00125465 -7.71042e-06 0)
(-0.00122719 -8.00552e-06 0)
(-0.00119873 -8.28873e-06 0)
(-0.00116932 -8.5591e-06 0)
(-0.00113898 -8.81578e-06 0)
(-0.00110778 -9.05789e-06 0)
(-0.00107577 -9.28449e-06 0)
(-0.00104301 -9.4946e-06 0)
(-0.00100954 -9.68726e-06 0)
(-0.000975433 -9.86167e-06 0)
(-0.000940751 -1.00172e-05 0)
(-0.000905561 -1.01531e-05 0)
(-0.000869932 -1.02688e-05 0)
(-0.000833933 -1.03633e-05 0)
(-0.000797641 -1.04359e-05 0)
(-0.000761129 -1.04859e-05 0)
(-0.000724477 -1.05129e-05 0)
(-0.000687765 -1.05164e-05 0)
(-0.000651073 -1.0496e-05 0)
(-0.000614485 -1.04512e-05 0)
(-0.000578086 -1.03815e-05 0)
(-0.000541961 -1.02867e-05 0)
(-0.000506196 -1.01665e-05 0)
(-0.00047088 -1.00209e-05 0)
(-0.000436101 -9.84971e-06 0)
(-0.000401946 -9.65271e-06 0)
(-0.000368506 -9.4297e-06 0)
(-0.000335868 -9.1805e-06 0)
(-0.000304123 -8.90511e-06 0)
(-0.000273358 -8.60369e-06 0)
(-0.000243663 -8.27646e-06 0)
(-0.000215126 -7.9236e-06 0)
(-0.000187832 -7.5452e-06 0)
(-0.000161868 -7.1414e-06 0)
(-0.000137319 -6.71237e-06 0)
(-0.000114268 -6.25842e-06 0)
(-9.27958e-05 -5.77996e-06 0)
(-7.29813e-05 -5.2775e-06 0)
(-5.49001e-05 -4.75166e-06 0)
(-3.86243e-05 -4.20314e-06 0)
(-2.42209e-05 -3.63288e-06 0)
(-1.17506e-05 -3.0423e-06 0)
(-1.2658e-06 -2.43348e-06 0)
(7.19236e-06 -1.80945e-06 0)
(1.35982e-05 -1.17468e-06 0)
(1.79479e-05 -5.35864e-07 0)
(2.02679e-05 9.66797e-08 0)
(2.0629e-05 7.0624e-07 0)
(1.91678e-05 1.26499e-06 0)
(1.61203e-05 1.72585e-06 0)
(1.18672e-05 2.0106e-06 0)
(7.01915e-06 1.98826e-06 0)
(2.65383e-06 1.46434e-06 0)
(3.84837e-07 3.75798e-07 0)
(1.59759e-06 -3.18742e-06 0)
(5.99957e-06 -5.91666e-06 0)
(1.11472e-05 -5.76612e-06 0)
(1.42029e-05 -3.47816e-06 0)
(1.33688e-05 -6.69714e-08 0)
(7.65646e-06 3.89755e-06 0)
(-3.44793e-06 8.088e-06 0)
(-2.01659e-05 1.23107e-05 0)
(-4.25147e-05 1.64451e-05 0)
(-7.03853e-05 2.04152e-05 0)
(-0.000103565 2.41826e-05 0)
(-0.000141807 2.77192e-05 0)
(-0.000184813 3.10182e-05 0)
(-0.000232277 3.40756e-05 0)
(-0.000283889 3.68915e-05 0)
(-0.000339326 3.94748e-05 0)
(-0.000398283 4.18328e-05 0)
(-0.000460462 4.39728e-05 0)
(-0.000525569 4.59086e-05 0)
(-0.000593332 4.76511e-05 0)
(-0.000663487 4.92096e-05 0)
(-0.000735784 5.0597e-05 0)
(-0.00080999 5.18241e-05 0)
(-0.000885885 5.29002e-05 0)
(-0.00096326 5.38364e-05 0)
(-0.00104192 5.46433e-05 0)
(-0.0011217 5.53292e-05 0)
(-0.00120241 5.59031e-05 0)
(-0.00128391 5.63734e-05 0)
(-0.00136604 5.6747e-05 0)
(-0.00144868 5.70308e-05 0)
(-0.00153169 5.72317e-05 0)
(-0.00161496 5.7357e-05 0)
(-0.00169838 5.74127e-05 0)
(-0.00178185 5.74016e-05 0)
(-0.00186527 5.73278e-05 0)
(-0.00194856 5.71964e-05 0)
(-0.00203162 5.70116e-05 0)
(-0.0021144 5.67757e-05 0)
(-0.0021968 5.64925e-05 0)
(-0.00227877 5.61651e-05 0)
(-0.00236022 5.57946e-05 0)
(-0.00244111 5.53816e-05 0)
(-0.00252137 5.4928e-05 0)
(-0.00260093 5.44357e-05 0)
(-0.00267975 5.39054e-05 0)
(-0.00275776 5.33369e-05 0)
(-0.00283491 5.27313e-05 0)
(-0.00291114 5.20893e-05 0)
(-0.0029864 5.14103e-05 0)
(-0.00306063 5.06933e-05 0)
(-0.00313378 4.9938e-05 0)
(-0.00320579 4.91445e-05 0)
(-0.00327659 4.83126e-05 0)
(-0.00334615 4.74409e-05 0)
(-0.00341439 4.65285e-05 0)
(-0.00348125 4.55747e-05 0)
(-0.00354669 4.45789e-05 0)
(-0.00361062 4.35399e-05 0)
(-0.00367299 4.24563e-05 0)
(-0.00373374 4.13275e-05 0)
(-0.0037928 4.0153e-05 0)
(-0.0038501 3.89318e-05 0)
(-0.00390557 3.76624e-05 0)
(-0.00395914 3.63436e-05 0)
(-0.00401075 3.4975e-05 0)
(-0.00406031 3.35566e-05 0)
(-0.00410776 3.20876e-05 0)
(-0.00415303 3.05669e-05 0)
(-0.00419604 2.89936e-05 0)
(-0.00423671 2.73679e-05 0)
(-0.00427498 2.569e-05 0)
(-0.00431076 2.39597e-05 0)
(-0.00434398 2.21769e-05 0)
(-0.00437457 2.03416e-05 0)
(-0.00440245 1.84545e-05 0)
(-0.00442755 1.65165e-05 0)
(-0.0044498 1.45282e-05 0)
(-0.00446913 1.24904e-05 0)
(-0.00448546 1.04044e-05 0)
(-0.00449874 8.27189e-06 0)
(-0.00450889 6.09449e-06 0)
(-0.00451586 3.87369e-06 0)
(-0.00451958 1.61128e-06 0)
(-0.00452001 -6.9022e-07 0)
(-0.00451708 -3.02771e-06 0)
(-0.00451075 -5.39813e-06 0)
(-0.00450097 -7.7987e-06 0)
(-0.00448771 -1.02264e-05 0)
(-0.00447092 -1.26779e-05 0)
(-0.00445059 -1.51493e-05 0)
(-0.00442668 -1.76364e-05 0)
(-0.00439918 -2.01346e-05 0)
(-0.00436807 -2.26395e-05 0)
(-0.00433336 -2.51464e-05 0)
(-0.00429503 -2.76505e-05 0)
(-0.00425311 -3.01466e-05 0)
(-0.00420761 -3.26293e-05 0)
(-0.00415855 -3.50931e-05 0)
(-0.00410596 -3.75325e-05 0)
(-0.00404988 -3.99416e-05 0)
(-0.00399037 -4.23144e-05 0)
(-0.00392748 -4.46443e-05 0)
(-0.00386128 -4.69252e-05 0)
(-0.00379184 -4.91509e-05 0)
(-0.00371925 -5.13152e-05 0)
(-0.00364359 -5.34118e-05 0)
(-0.00356498 -5.5434e-05 0)
(-0.00348352 -5.73753e-05 0)
(-0.00339933 -5.92293e-05 0)
(-0.00331254 -6.099e-05 0)
(-0.0032233 -6.26513e-05 0)
(-0.00313174 -6.42067e-05 0)
(-0.00303803 -6.56502e-05 0)
(-0.00294232 -6.69758e-05 0)
(-0.0028448 -6.81781e-05 0)
(-0.00274563 -6.92518e-05 0)
(-0.00264501 -7.01919e-05 0)
(-0.00254314 -7.09933e-05 0)
(-0.0024402 -7.16511e-05 0)
(-0.00233642 -7.21605e-05 0)
(-0.00223201 -7.25176e-05 0)
(-0.00212719 -7.27184e-05 0)
(-0.00202218 -7.27596e-05 0)
(-0.00191721 -7.2638e-05 0)
(-0.00181252 -7.23506e-05 0)
(-0.00170835 -7.18948e-05 0)
(-0.00160494 -7.12685e-05 0)
(-0.00150253 -7.04699e-05 0)
(-0.00140137 -6.94978e-05 0)
(-0.00130172 -6.83511e-05 0)
(-0.00120381 -6.70289e-05 0)
(-0.00110791 -6.55305e-05 0)
(-0.00101425 -6.38559e-05 0)
(-0.000923105 -6.20053e-05 0)
(-0.000834708 -5.99795e-05 0)
(-0.000749312 -5.77798e-05 0)
(-0.000667164 -5.54076e-05 0)
(-0.000588505 -5.28648e-05 0)
(-0.000513575 -5.01538e-05 0)
(-0.000442607 -4.72775e-05 0)
(-0.00037583 -4.42398e-05 0)
(-0.000313464 -4.10453e-05 0)
(-0.000255721 -3.76998e-05 0)
(-0.000202803 -3.42106e-05 0)
(-0.000154894 -3.05868e-05 0)
(-0.000112165 -2.68399e-05 0)
(-7.47604e-05 -2.29855e-05 0)
(-4.27974e-05 -1.90444e-05 0)
(-1.63546e-05 -1.50444e-05 0)
(4.53961e-06 -1.10237e-05 0)
(1.99246e-05 -7.03535e-06 0)
(2.99303e-05 -3.15423e-06 0)
(3.48093e-05 5.11646e-07 0)
(3.49831e-05 3.80466e-06 0)
(3.1103e-05 6.49355e-06 0)
(2.41123e-05 8.24133e-06 0)
(1.53372e-05 8.56214e-06 0)
(6.81655e-06 6.8226e-06 0)
(1.47441e-06 2.64676e-06 0)
(1.59965e-06 -6.64086e-06 0)
(5.58347e-06 -1.11003e-05 0)
(9.01558e-06 -9.23343e-06 0)
(8.58027e-06 -2.95741e-06 0)
(2.15636e-06 5.96305e-06 0)
(-1.15294e-05 1.63639e-05 0)
(-3.32221e-05 2.74815e-05 0)
(-6.32917e-05 3.88183e-05 0)
(-0.000101839 5.00313e-05 0)
(-0.000148749 6.09156e-05 0)
(-0.000203782 7.13217e-05 0)
(-0.000266596 8.1171e-05 0)
(-0.000336791 9.04161e-05 0)
(-0.000413935 9.90279e-05 0)
(-0.000497568 0.000107008 0)
(-0.00058723 0.000114362 0)
(-0.00068246 0.0001211 0)
(-0.000782803 0.000127249 0)
(-0.00088782 0.000132831 0)
(-0.00099709 0.000137871 0)
(-0.0011102 0.0001424 0)
(-0.00122677 0.000146446 0)
(-0.00134643 0.000150035 0)
(-0.00146884 0.000153198 0)
(-0.00159366 0.000155961 0)
(-0.00172059 0.00015835 0)
(-0.00184934 0.00016039 0)
(-0.00197965 0.000162107 0)
(-0.00211125 0.000163521 0)
(-0.00224392 0.000164655 0)
(-0.00237744 0.000165527 0)
(-0.0025116 0.000166156 0)
(-0.0026462 0.00016656 0)
(-0.00278108 0.000166755 0)
(-0.00291606 0.000166755 0)
(-0.00305099 0.000166571 0)
(-0.00318572 0.000166216 0)
(-0.00332011 0.000165701 0)
(-0.00345404 0.000165034 0)
(-0.00358738 0.000164224 0)
(-0.00372002 0.000163278 0)
(-0.00385184 0.000162203 0)
(-0.00398275 0.000161002 0)
(-0.00411262 0.000159681 0)
(-0.00424138 0.000158244 0)
(-0.00436891 0.000156691 0)
(-0.00449513 0.000155026 0)
(-0.00461994 0.00015325 0)
(-0.00474325 0.000151363 0)
(-0.00486497 0.000149366 0)
(-0.00498501 0.000147257 0)
(-0.00510327 0.000145037 0)
(-0.00521966 0.000142703 0)
(-0.0053341 0.000140256 0)
(-0.00544647 0.000137692 0)
(-0.0055567 0.000135009 0)
(-0.00566468 0.000132205 0)
(-0.0057703 0.000129279 0)
(-0.00587348 0.000126227 0)
(-0.00597411 0.000123047 0)
(-0.00607209 0.000119735 0)
(-0.00616729 0.00011629 0)
(-0.00625963 0.000112711 0)
(-0.00634899 0.000108992 0)
(-0.00643526 0.000105133 0)
(-0.00651832 0.000101131 0)
(-0.00659806 9.69844e-05 0)
(-0.00667436 9.26921e-05 0)
(-0.00674711 8.82519e-05 0)
(-0.00681618 8.36628e-05 0)
(-0.00688147 7.89244e-05 0)
(-0.00694285 7.40365e-05 0)
(-0.0070002 6.89989e-05 0)
(-0.0070534 6.38117e-05 0)
(-0.00710234 5.84759e-05 0)
(-0.0071469 5.29935e-05 0)
(-0.00718697 4.73662e-05 0)
(-0.00722242 4.1596e-05 0)
(-0.00725316 3.56858e-05 0)
(-0.00727906 2.96395e-05 0)
(-0.00730004 2.34616e-05 0)
(-0.00731598 1.71569e-05 0)
(-0.00732678 1.07305e-05 0)
(-0.00733236 4.18819e-06 0)
(-0.00733263 -2.46336e-06 0)
(-0.00732751 -9.21631e-06 0)
(-0.00731691 -1.60622e-05 0)
(-0.00730078 -2.29925e-05 0)
(-0.00727905 -2.99977e-05 0)
(-0.00725166 -3.70678e-05 0)
(-0.00721858 -4.41917e-05 0)
(-0.00717976 -5.1358e-05 0)
(-0.00713518 -5.85542e-05 0)
(-0.00708482 -6.57675e-05 0)
(-0.00702868 -7.29846e-05 0)
(-0.00696676 -8.01912e-05 0)
(-0.00689908 -8.73725e-05 0)
(-0.00682567 -9.45131e-05 0)
(-0.00674655 -0.000101598 0)
(-0.0066618 -0.00010861 0)
(-0.00657147 -0.000115533 0)
(-0.00647565 -0.000122351 0)
(-0.00637442 -0.000129045 0)
(-0.0062679 -0.000135597 0)
(-0.0061562 -0.000141989 0)
(-0.00603946 -0.000148205 0)
(-0.00591784 -0.000154226 0)
(-0.00579148 -0.000160033 0)
(-0.00566057 -0.000165608 0)
(-0.00552531 -0.000170933 0)
(-0.0053859 -0.000175991 0)
(-0.00524256 -0.000180763 0)
(-0.00509552 -0.000185232 0)
(-0.00494503 -0.000189382 0)
(-0.00479136 -0.000193194 0)
(-0.00463477 -0.000196655 0)
(-0.00447556 -0.000199747 0)
(-0.00431402 -0.000202456 0)
(-0.00415047 -0.000204769 0)
(-0.00398521 -0.000206671 0)
(-0.0038186 -0.00020815 0)
(-0.00365096 -0.000209193 0)
(-0.00348264 -0.00020979 0)
(-0.00331402 -0.00020993 0)
(-0.00314544 -0.000209605 0)
(-0.00297729 -0.000208806 0)
(-0.00280994 -0.000207527 0)
(-0.00264379 -0.00020576 0)
(-0.00247921 -0.000203501 0)
(-0.00231659 -0.000200746 0)
(-0.00215635 -0.000197492 0)
(-0.00199887 -0.000193736 0)
(-0.00184454 -0.000189478 0)
(-0.00169378 -0.000184718 0)
(-0.00154696 -0.000179456 0)
(-0.0014045 -0.000173697 0)
(-0.00126678 -0.000167443 0)
(-0.00113419 -0.0001607 0)
(-0.0010071 -0.000153475 0)
(-0.0008859 -0.000145776 0)
(-0.000770946 -0.000137614 0)
(-0.000662593 -0.000129001 0)
(-0.00056118 -0.000119955 0)
(-0.000467032 -0.000110495 0)
(-0.00038045 -0.000100646 0)
(-0.000301711 -9.04395e-05 0)
(-0.000231058 -7.99147e-05 0)
(-0.000168696 -6.9123e-05 0)
(-0.000114779 -5.8131e-05 0)
(-6.93955e-05 -4.7026e-05 0)
(-3.2552e-05 -3.59242e-05 0)
(-4.14765e-06 -2.49816e-05 0)
(1.60567e-05 -1.44097e-05 0)
(2.84788e-05 -4.49763e-06 0)
(3.37687e-05 4.35787e-06 0)
(3.28732e-05 1.16137e-05 0)
(2.70878e-05 1.65371e-05 0)
(1.81285e-05 1.81668e-05 0)
(8.53052e-06 1.53389e-05 0)
(1.98295e-06 7.00323e-06 0)
(1.24443e-06 -9.52214e-06 0)
(3.38246e-06 -1.41416e-05 0)
(2.83109e-06 -8.79614e-06 0)
(-3.60149e-06 3.447e-06 0)
(-1.80633e-05 2.00711e-05 0)
(-4.19281e-05 3.9296e-05 0)
(-7.6048e-05 5.98813e-05 0)
(-0.000120884 8.09536e-05 0)
(-0.000176571 0.000101924 0)
(-0.00024302 0.000122375 0)
(-0.000319963 0.000142039 0)
(-0.000407011 0.000160739 0)
(-0.000503697 0.000178361 0)
(-0.000609491 0.000194851 0)
(-0.000723833 0.000210185 0)
(-0.00084615 0.000224358 0)
(-0.000975859 0.000237394 0)
(-0.00111239 0.000249323 0)
(-0.00125517 0.00026018 0)
(-0.00140365 0.000270016 0)
(-0.00155731 0.000278876 0)
(-0.00171565 0.000286809 0)
(-0.00187817 0.000293869 0)
(-0.00204443 0.000300106 0)
(-0.00221398 0.000305569 0)
(-0.00238642 0.000310307 0)
(-0.00256136 0.000314366 0)
(-0.00273843 0.000317792 0)
(-0.00291731 0.000320627 0)
(-0.00309767 0.000322911 0)
(-0.00327922 0.000324682 0)
(-0.00346167 0.000325973 0)
(-0.00364475 0.000326819 0)
(-0.00382824 0.000327247 0)
(-0.00401189 0.000327287 0)
(-0.0041955 0.000326963 0)
(-0.00437886 0.0003263 0)
(-0.00456177 0.000325315 0)
(-0.00474407 0.000324026 0)
(-0.00492558 0.000322452 0)
(-0.00510613 0.000320604 0)
(-0.00528558 0.000318496 0)
(-0.00546378 0.000316138 0)
(-0.00564057 0.000313537 0)
(-0.00581583 0.000310702 0)
(-0.00598942 0.000307638 0)
(-0.0061612 0.000304347 0)
(-0.00633105 0.000300835 0)
(-0.00649884 0.000297101 0)
(-0.00666444 0.000293147 0)
(-0.00682772 0.000288971 0)
(-0.00698856 0.000284574 0)
(-0.00714683 0.000279952 0)
(-0.00730241 0.000275104 0)
(-0.00745515 0.000270025 0)
(-0.00760493 0.000264712 0)
(-0.00775162 0.000259162 0)
(-0.00789508 0.00025337 0)
(-0.00803517 0.000247331 0)
(-0.00817176 0.00024104 0)
(-0.0083047 0.000234493 0)
(-0.00843385 0.000227686 0)
(-0.00855905 0.000220613 0)
(-0.00868017 0.00021327 0)
(-0.00879705 0.000205654 0)
(-0.00890954 0.00019776 0)
(-0.00901749 0.000189585 0)
(-0.00912073 0.000181125 0)
(-0.00921911 0.000172379 0)
(-0.00931248 0.000163345 0)
(-0.00940067 0.000154021 0)
(-0.00948353 0.000144408 0)
(-0.00956089 0.000134505 0)
(-0.0096326 0.000124312 0)
(-0.00969851 0.000113834 0)
(-0.00975845 0.000103072 0)
(-0.00981228 9.20304e-05 0)
(-0.00985983 8.07141e-05 0)
(-0.00990098 6.91287e-05 0)
(-0.00993556 5.72817e-05 0)
(-0.00996345 4.51817e-05 0)
(-0.0099845 3.28378e-05 0)
(-0.0099986 2.02606e-05 0)
(-0.0100056 7.46209e-06 0)
(-0.0100054 -5.54439e-06 0)
(-0.00999794 -1.87442e-05 0)
(-0.00998305 -3.21214e-05 0)
(-0.00996067 -4.56589e-05 0)
(-0.00993071 -5.93385e-05 0)
(-0.00989311 -7.31404e-05 0)
(-0.00984782 -8.70429e-05 0)
(-0.00979477 -0.000101024 0)
(-0.00973395 -0.000115059 0)
(-0.00966534 -0.000129124 0)
(-0.00958891 -0.000143192 0)
(-0.0095047 -0.000157237 0)
(-0.00941271 -0.000171229 0)
(-0.00931299 -0.00018514 0)
(-0.0092056 -0.000198938 0)
(-0.00909061 -0.000212592 0)
(-0.00896812 -0.000226072 0)
(-0.00883822 -0.000239342 0)
(-0.00870104 -0.00025237 0)
(-0.00855674 -0.000265121 0)
(-0.00840547 -0.000277561 0)
(-0.00824742 -0.000289655 0)
(-0.00808279 -0.000301369 0)
(-0.0079118 -0.000312667 0)
(-0.00773469 -0.000323514 0)
(-0.00755171 -0.000333874 0)
(-0.00736316 -0.000343715 0)
(-0.00716931 -0.000353001 0)
(-0.0069705 -0.000361699 0)
(-0.00676704 -0.000369776 0)
(-0.00655929 -0.0003772 0)
(-0.00634762 -0.00038394 0)
(-0.00613242 -0.000389967 0)
(-0.00591408 -0.000395251 0)
(-0.00569301 -0.000399765 0)
(-0.00546965 -0.000403483 0)
(-0.00524445 -0.000406381 0)
(-0.00501785 -0.000408434 0)
(-0.00479034 -0.000409623 0)
(-0.00456238 -0.000409927 0)
(-0.00433446 -0.000409329 0)
(-0.0041071 -0.000407813 0)
(-0.00388079 -0.000405365 0)
(-0.00365605 -0.000401973 0)
(-0.00343339 -0.000397629 0)
(-0.00321335 -0.000392323 0)
(-0.00299645 -0.00038605 0)
(-0.00278322 -0.000378807 0)
(-0.00257419 -0.000370592 0)
(-0.00236989 -0.000361406 0)
(-0.00217086 -0.000351253 0)
(-0.0019776 -0.000340139 0)
(-0.00179065 -0.000328073 0)
(-0.00161052 -0.000315066 0)
(-0.00143771 -0.000301133 0)
(-0.00127271 -0.000286294 0)
(-0.001116 -0.000270571 0)
(-0.000968038 -0.000253993 0)
(-0.00082927 -0.000236597 0)
(-0.000700109 -0.000218425 0)
(-0.000580939 -0.00019953 0)
(-0.000472106 -0.00017998 0)
(-0.000373911 -0.000159859 0)
(-0.000286597 -0.000139272 0)
(-0.000210338 -0.000118356 0)
(-0.000145218 -9.72864e-05 0)
(-9.12154e-05 -7.62896e-05 0)
(-4.8168e-05 -5.56635e-05 0)
(-1.57445e-05 -3.58e-05 0)
(6.59998e-06 -1.72169e-05 0)
(1.96755e-05 -5.98091e-07 0)
(2.46167e-05 1.31578e-05 0)
(2.29232e-05 2.28875e-05 0)
(1.65224e-05 2.71245e-05 0)
(8.19818e-06 2.41023e-05 0)
(1.99018e-06 1.18186e-05 0)
(6.75119e-07 -1.08385e-05 0)
(6.801e-08 -1.32681e-05 0)
(-6.00496e-06 -2.3209e-06 0)
(-2.01988e-05 1.79275e-05 0)
(-4.44612e-05 4.428e-05 0)
(-8.01474e-05 7.43843e-05 0)
(-0.000128124 0.000106525 0)
(-0.000188847 0.000139476 0)
(-0.000262477 0.00017235 0)
(-0.000348915 0.000204527 0)
(-0.000447874 0.000235576 0)
(-0.000558938 0.000265203 0)
(-0.00068158 0.000293225 0)
(-0.000815205 0.00031953 0)
(-0.000959182 0.00034406 0)
(-0.00111284 0.000366805 0)
(-0.00127551 0.00038778 0)
(-0.00144652 0.000407019 0)
(-0.0016252 0.000424579 0)
(-0.0018109 0.000440521 0)
(-0.00200298 0.000454914 0)
(-0.00220085 0.000467833 0)
(-0.00240392 0.000479355 0)
(-0.00261163 0.000489555 0)
(-0.00282345 0.000498512 0)
(-0.00303889 0.000506299 0)
(-0.00325747 0.000512988 0)
(-0.00347874 0.000518649 0)
(-0.00370229 0.000523349 0)
(-0.00392771 0.000527149 0)
(-0.00415464 0.00053011 0)
(-0.00438273 0.000532288 0)
(-0.00461165 0.000533734 0)
(-0.00484109 0.000534494 0)
(-0.00507077 0.000534613 0)
(-0.0053004 0.000534132 0)
(-0.00552975 0.000533086 0)
(-0.00575856 0.000531509 0)
(-0.00598661 0.00052943 0)
(-0.00621368 0.000526876 0)
(-0.00643956 0.000523868 0)
(-0.00666406 0.000520426 0)
(-0.00688698 0.000516568 0)
(-0.00710815 0.000512307 0)
(-0.00732739 0.000507656 0)
(-0.00754452 0.000502622 0)
(-0.00775937 0.000497215 0)
(-0.00797179 0.000491438 0)
(-0.0081816 0.000485294 0)
(-0.00838865 0.000478785 0)
(-0.00859278 0.000471911 0)
(-0.00879381 0.000464669 0)
(-0.0089916 0.000457059 0)
(-0.00918597 0.000449074 0)
(-0.00937678 0.000440712 0)
(-0.00956384 0.000431965 0)
(-0.00974699 0.000422829 0)
(-0.00992606 0.000413297 0)
(-0.0101009 0.000403361 0)
(-0.0102713 0.000393015 0)
(-0.0104371 0.000382252 0)
(-0.0105981 0.000371064 0)
(-0.0107541 0.000359444 0)
(-0.010905 0.000347386 0)
(-0.0110506 0.000334883 0)
(-0.0111906 0.00032193 0)
(-0.0113249 0.000308522 0)
(-0.0114533 0.000294654 0)
(-0.0115757 0.000280322 0)
(-0.0116917 0.000265524 0)
(-0.0118012 0.00025026 0)
(-0.011904 0.000234527 0)
(-0.0119999 0.000218328 0)
(-0.0120888 0.000201663 0)
(-0.0121704 0.000184537 0)
(-0.0122445 0.000166955 0)
(-0.012311 0.000148924 0)
(-0.0123696 0.000130451 0)
(-0.0124202 0.000111547 0)
(-0.0124627 9.22234e-05 0)
(-0.0124968 7.24944e-05 0)
(-0.0125223 5.23751e-05 0)
(-0.0125392 3.18829e-05 0)
(-0.0125473 1.10373e-05 0)
(-0.0125463 -1.01396e-05 0)
(-0.0125363 -3.1624e-05 0)
(-0.0125171 -5.33902e-05 0)
(-0.0124886 -7.54107e-05 0)
(-0.0124506 -9.76554e-05 0)
(-0.0124032 -0.000120092 0)
(-0.0123462 -0.000142686 0)
(-0.0122795 -0.000165402 0)
(-0.0122032 -0.0001882 0)
(-0.0121172 -0.000211041 0)
(-0.0120216 -0.000233882 0)
(-0.0119163 -0.000256679 0)
(-0.0118013 -0.000279387 0)
(-0.0116768 -0.000301957 0)
(-0.0115427 -0.000324341 0)
(-0.0113992 -0.000346488 0)
(-0.0112465 -0.000368347 0)
(-0.0110845 -0.000389863 0)
(-0.0109136 -0.000410984 0)
(-0.0107338 -0.000431654 0)
(-0.0105454 -0.000451818 0)
(-0.0103486 -0.00047142 0)
(-0.0101437 -0.000490404 0)
(-0.00993093 -0.000508712 0)
(-0.00971056 -0.000526289 0)
(-0.00948295 -0.000543079 0)
(-0.00924843 -0.000559026 0)
(-0.00900736 -0.000574076 0)
(-0.00876015 -0.000588174 0)
(-0.00850719 -0.000601268 0)
(-0.00824892 -0.000613306 0)
(-0.0079858 -0.000624238 0)
(-0.0077183 -0.000634017 0)
(-0.00744691 -0.000642596 0)
(-0.00717215 -0.000649931 0)
(-0.00689454 -0.000655979 0)
(-0.00661463 -0.000660702 0)
(-0.00633299 -0.000664062 0)
(-0.00605018 -0.000666026 0)
(-0.00576681 -0.000666561 0)
(-0.00548347 -0.00066564 0)
(-0.00520079 -0.000663237 0)
(-0.00491937 -0.00065933 0)
(-0.00463986 -0.0006539 0)
(-0.0043629 -0.000646932 0)
(-0.00408912 -0.000638414 0)
(-0.00381917 -0.000628336 0)
(-0.00355372 -0.000616695 0)
(-0.0032934 -0.000603488 0)
(-0.00303886 -0.000588719 0)
(-0.00279076 -0.000572394 0)
(-0.00254973 -0.000554526 0)
(-0.0023164 -0.000535129 0)
(-0.00209141 -0.000514225 0)
(-0.00187535 -0.000491842 0)
(-0.00166883 -0.000468012 0)
(-0.00147241 -0.000442779 0)
(-0.00128667 -0.000416192 0)
(-0.00111211 -0.000388315 0)
(-0.000949226 -0.000359223 0)
(-0.000798477 -0.00032901 0)
(-0.000660259 -0.00029779 0)
(-0.000534914 -0.000265707 0)
(-0.000422714 -0.000232938 0)
(-0.000323841 -0.00019971 0)
(-0.000238373 -0.000166306 0)
(-0.000166258 -0.00013309 0)
(-0.000107286 -0.000100525 0)
(-6.10566e-05 -6.92066e-05 0)
(-2.69402e-05 -3.99031e-05 0)
(-4.02853e-06 -1.36e-05 0)
(8.91677e-06 8.44125e-06 0)
(1.34995e-05 2.4626e-05 0)
(1.17457e-05 3.29806e-05 0)
(6.48596e-06 3.11123e-05 0)
(1.70192e-06 1.60379e-05 0)
(-7.49382e-09 -1.02226e-05 0)
(-3.8673e-06 -7.53146e-06 0)
(-1.64421e-05 1.14575e-05 0)
(-3.95825e-05 4.19006e-05 0)
(-7.4878e-05 8.00202e-05 0)
(-0.000123577 0.000122955 0)
(-0.000186453 0.000168584 0)
(-0.000263929 0.000215317 0)
(-0.000356123 0.000261998 0)
(-0.000462912 0.000307785 0)
(-0.00058399 0.000352074 0)
(-0.000718896 0.000394451 0)
(-0.000867065 0.00043464 0)
(-0.00102785 0.000472463 0)
(-0.00120056 0.000507829 0)
(-0.00138445 0.0005407 0)
(-0.00157879 0.000571081 0)
(-0.0017828 0.000599015 0)
(-0.00199575 0.000624565 0)
(-0.0022169 0.000647808 0)
(-0.00244553 0.000668837 0)
(-0.00268094 0.000687751 0)
(-0.00292247 0.000704652 0)
(-0.00316948 0.000719645 0)
(-0.00342136 0.000732835 0)
(-0.00367752 0.000744327 0)
(-0.00393741 0.000754221 0)
(-0.00420051 0.000762614 0)
(-0.00446632 0.0007696 0)
(-0.00473439 0.000775268 0)
(-0.00500426 0.000779703 0)
(-0.00527554 0.000782983 0)
(-0.00554782 0.000785181 0)
(-0.00582075 0.000786368 0)
(-0.00609398 0.000786606 0)
(-0.00636718 0.000785953 0)
(-0.00664005 0.00078446 0)
(-0.00691229 0.000782177 0)
(-0.00718364 0.000779146 0)
(-0.00745383 0.000775405 0)
(-0.0077226 0.000770987 0)
(-0.00798973 0.000765921 0)
(-0.00825498 0.000760234 0)
(-0.00851812 0.000753944 0)
(-0.00877896 0.00074707 0)
(-0.00903727 0.000739626 0)
(-0.00929286 0.000731623 0)
(-0.00954551 0.000723069 0)
(-0.00979505 0.000713968 0)
(-0.0100413 0.000704322 0)
(-0.010284 0.000694134 0)
(-0.010523 0.0006834 0)
(-0.010758 0.000672118 0)
(-0.010989 0.000660282 0)
(-0.0112157 0.000647887 0)
(-0.0114379 0.000634925 0)
(-0.0116554 0.000621389 0)
(-0.011868 0.000607267 0)
(-0.0120755 0.000592552 0)
(-0.0122777 0.000577234 0)
(-0.0124744 0.000561302 0)
(-0.0126654 0.000544748 0)
(-0.0128504 0.000527561 0)
(-0.0130292 0.000509732 0)
(-0.0132016 0.000491253 0)
(-0.0133675 0.000472116 0)
(-0.0135265 0.000452314 0)
(-0.0136784 0.00043184 0)
(-0.013823 0.000410692 0)
(-0.0139601 0.000388865 0)
(-0.0140895 0.000366357 0)
(-0.0142109 0.000343169 0)
(-0.0143241 0.000319302 0)
(-0.0144288 0.00029476 0)
(-0.0145249 0.000269548 0)
(-0.0146121 0.000243675 0)
(-0.0146902 0.00021715 0)
(-0.014759 0.000189986 0)
(-0.0148183 0.000162198 0)
(-0.0148678 0.000133804 0)
(-0.0149074 0.000104823 0)
(-0.0149369 7.52798e-05 0)
(-0.0149561 4.51988e-05 0)
(-0.0149649 1.46092e-05 0)
(-0.014963 -1.64569e-05 0)
(-0.0149503 -4.79646e-05 0)
(-0.0149268 -7.98764e-05 0)
(-0.0148922 -0.000112151 0)
(-0.0148464 -0.000144746 0)
(-0.0147895 -0.000177613 0)
(-0.0147212 -0.000210702 0)
(-0.0146415 -0.00024396 0)
(-0.0145504 -0.000277331 0)
(-0.0144479 -0.000310757 0)
(-0.014334 -0.000344176 0)
(-0.0142087 -0.000377524 0)
(-0.0140719 -0.000410734 0)
(-0.0139239 -0.000443736 0)
(-0.0137647 -0.000476461 0)
(-0.0135943 -0.000508834 0)
(-0.013413 -0.000540779 0)
(-0.0132209 -0.000572221 0)
(-0.0130182 -0.00060308 0)
(-0.0128051 -0.000633277 0)
(-0.0125818 -0.000662732 0)
(-0.0123486 -0.000691363 0)
(-0.0121059 -0.000719088 0)
(-0.0118539 -0.000745827 0)
(-0.0115929 -0.000771496 0)
(-0.0113235 -0.000796016 0)
(-0.0110459 -0.000819305 0)
(-0.0107606 -0.000841284 0)
(-0.0104681 -0.000861875 0)
(-0.0101688 -0.000881002 0)
(-0.00986322 -0.000898589 0)
(-0.00955195 -0.000914566 0)
(-0.00923552 -0.000928861 0)
(-0.00891452 -0.000941408 0)
(-0.00858953 -0.000952143 0)
(-0.00826118 -0.000961005 0)
(-0.00793011 -0.000967938 0)
(-0.00759698 -0.000972886 0)
(-0.00726247 -0.000975802 0)
(-0.00692727 -0.000976639 0)
(-0.00659208 -0.000975358 0)
(-0.00625763 -0.00097192 0)
(-0.00592464 -0.000966294 0)
(-0.00559385 -0.000958455 0)
(-0.00526602 -0.000948378 0)
(-0.00494188 -0.000936049 0)
(-0.00462221 -0.000921454 0)
(-0.00430775 -0.000904589 0)
(-0.00399926 -0.000885452 0)
(-0.00369751 -0.000864049 0)
(-0.00340324 -0.000840392 0)
(-0.00311719 -0.000814501 0)
(-0.00284011 -0.0007864 0)
(-0.00257271 -0.000756125 0)
(-0.00231569 -0.000723718 0)
(-0.00206974 -0.000689232 0)
(-0.00183553 -0.000652735 0)
(-0.00161367 -0.000614306 0)
(-0.00140478 -0.000574041 0)
(-0.0012094 -0.000532059 0)
(-0.00102803 -0.000488503 0)
(-0.000861122 -0.000443547 0)
(-0.000709051 -0.000397408 0)
(-0.000572107 -0.000350349 0)
(-0.000450478 -0.0003027 0)
(-0.000344235 -0.000254872 0)
(-0.000253304 -0.000207378 0)
(-0.000177444 -0.000160866 0)
(-0.000116211 -0.000116146 0)
(-6.89282e-05 -7.42429e-05 0)
(-3.46416e-05 -3.64437e-05 0)
(-1.20767e-05 -4.36307e-06 0)
(3.97495e-07 1.9989e-05 0)
(4.81823e-06 3.41495e-05 0)
(3.89953e-06 3.51285e-05 0)
(1.25063e-06 1.90818e-05 0)
(-7.2233e-07 -7.45737e-06 0)
(-8.10087e-06 3.65082e-06 0)
(-2.77424e-05 3.33715e-05 0)
(-6.05619e-05 7.63244e-05 0)
(-0.000107706 0.000128271 0)
(-0.000170211 0.000185955 0)
(-0.000248726 0.000246873 0)
(-0.000343559 0.000309137 0)
(-0.000454759 0.000371328 0)
(-0.00058216 0.000432387 0)
(-0.000725403 0.000491549 0)
(-0.000883991 0.000548268 0)
(-0.00105732 0.000602167 0)
(-0.00124469 0.000653005 0)
(-0.00144535 0.000700641 0)
(-0.00165852 0.000745008 0)
(-0.00188338 0.0007861 0)
(-0.00211911 0.000823957 0)
(-0.0023649 0.000858647 0)
(-0.00261994 0.000890265 0)
(-0.00288343 0.000918924 0)
(-0.00315462 0.000944746 0)
(-0.00343275 0.000967861 0)
(-0.00371711 0.000988403 0)
(-0.00400702 0.00100651 0)
(-0.00430182 0.00102231 0)
(-0.0046009 0.00103594 0)
(-0.00490366 0.00104752 0)
(-0.00520954 0.00105719 0)
(-0.00551802 0.00106505 0)
(-0.00582859 0.00107122 0)
(-0.00614078 0.00107581 0)
(-0.00645414 0.00107891 0)
(-0.00676826 0.00108061 0)
(-0.00708274 0.001081 0)
(-0.0073972 0.00108016 0)
(-0.00771129 0.00107816 0)
(-0.00802467 0.00107506 0)
(-0.00833701 0.00107092 0)
(-0.00864802 0.0010658 0)
(-0.00895741 0.00105973 0)
(-0.0092649 0.00105276 0)
(-0.00957021 0.00104492 0)
(-0.00987309 0.00103625 0)
(-0.0101733 0.00102676 0)
(-0.0104706 0.00101648 0)
(-0.0107647 0.00100542 0)
(-0.0110554 0.000993593 0)
(-0.0113425 0.000981005 0)
(-0.0116257 0.000967661 0)
(-0.0119049 0.000953564 0)
(-0.0121797 0.000938711 0)
(-0.01245 0.000923098 0)
(-0.0127156 0.00090672 0)
(-0.0129761 0.000889569 0)
(-0.0132315 0.000871637 0)
(-0.0134814 0.000852912 0)
(-0.0137256 0.000833382 0)
(-0.0139639 0.000813037 0)
(-0.014196 0.000791863 0)
(-0.0144217 0.000769848 0)
(-0.0146408 0.000746978 0)
(-0.014853 0.000723243 0)
(-0.015058 0.00069863 0)
(-0.0152557 0.000673128 0)
(-0.0154457 0.000646728 0)
(-0.0156278 0.00061942 0)
(-0.0158017 0.000591197 0)
(-0.0159672 0.000562054 0)
(-0.016124 0.000531988 0)
(-0.0162719 0.000500996 0)
(-0.0164106 0.000469078 0)
(-0.0165398 0.000436238 0)
(-0.0166593 0.000402481 0)
(-0.0167688 0.000367817 0)
(-0.016868 0.000332255 0)
(-0.0169569 0.00029581 0)
(-0.0170349 0.0002585 0)