/*--------------------------------*- C++ -*----------------------------------*\
  =========                 |
  \\      /  F ield         | OpenFOAM: The Open Source CFD Toolbox
   \\    /   O peration     | Website:  https://openfoam.org
    \\  /    A nd           | Version:  7
     \\/     M anipulation  |
\*---------------------------------------------------------------------------*/
FoamFile
{
    version     2.0;
    format      ascii;
    class       surfaceScalarField;
    location    "0.35";
    object      phi;
}
// * * * * * * * * * * * * * * * * * * * * * * * * * * * * * * * * * * * * * //

dimensions      [0 3 -1 0 0 0 0];

internalField   nonuniform List<scalar> 
50880
(
5.93254e-12
-6.29555e-12
3.6187e-11
-3.02413e-11
8.10873e-11
-4.49122e-11
1.30735e-10
-4.96376e-11
1.77981e-10
-4.72355e-11
2.17846e-10
-3.98671e-11
2.46909e-10
-2.90723e-11
2.62863e-10
-1.59594e-11
2.64183e-10
-1.31639e-12
2.49897e-10
1.42908e-11
2.19447e-10
3.04549e-11
1.72568e-10
4.68775e-11
1.09227e-10
6.33394e-11
2.95569e-11
7.96699e-11
-6.61809e-11
9.57372e-11
-1.77619e-10
1.1144e-10
-3.04316e-10
1.26698e-10
-4.4577e-10
1.41453e-10
-6.01432e-10
1.55659e-10
-7.70713e-10
1.6928e-10
-9.52996e-10
1.82285e-10
-1.14765e-09
1.94653e-10
-1.35402e-09
2.06369e-10
-1.57144e-09
2.17423e-10
-1.79925e-09
2.27807e-10
-2.03677e-09
2.37518e-10
-2.28332e-09
2.46553e-10
-2.53823e-09
2.54913e-10
-2.80083e-09
2.626e-10
-3.07045e-09
2.69619e-10
-3.34642e-09
2.75974e-10
-3.62809e-09
2.81674e-10
-3.91482e-09
2.86725e-10
-4.20595e-09
2.91135e-10
-4.50087e-09
2.94913e-10
-4.79894e-09
2.9807e-10
-5.09955e-09
3.00615e-10
-5.40211e-09
3.0256e-10
-5.70602e-09
3.03914e-10
-6.01071e-09
3.0469e-10
-6.31561e-09
3.04899e-10
-6.62017e-09
3.04552e-10
-6.92383e-09
3.03663e-10
-7.22607e-09
3.02243e-10
-7.52638e-09
3.00304e-10
-7.82424e-09
2.9786e-10
-8.11916e-09
2.94923e-10
-8.41067e-09
2.91506e-10
-8.69829e-09
2.87622e-10
-8.98157e-09
2.83282e-10
-9.26007e-09
2.78502e-10
-9.53337e-09
2.73292e-10
-9.80103e-09
2.67667e-10
-1.00627e-08
2.61639e-10
-1.03179e-08
2.55222e-10
-1.05663e-08
2.48429e-10
-1.08076e-08
2.41273e-10
-1.10414e-08
2.33767e-10
-1.12673e-08
2.25925e-10
-1.14851e-08
2.17759e-10
-1.16943e-08
2.09284e-10
-1.18948e-08
2.00511e-10
-1.20863e-08
1.91455e-10
-1.22684e-08
1.82129e-10
-1.2441e-08
1.72547e-10
-1.26037e-08
1.62723e-10
-1.27564e-08
1.5267e-10
-1.28988e-08
1.42401e-10
-1.30307e-08
1.31931e-10
-1.3152e-08
1.21274e-10
-1.32624e-08
1.10443e-10
-1.33619e-08
9.94524e-11
-1.34502e-08
8.83169e-11
-1.35272e-08
7.70504e-11
-1.35929e-08
6.56675e-11
-1.36471e-08
5.4183e-11
-1.36897e-08
4.26117e-11
-1.37207e-08
3.09683e-11
-1.37399e-08
1.92671e-11
-1.37475e-08
7.52343e-12
-1.37432e-08
-4.24718e-12
-1.37272e-08
-1.6029e-11
-1.36994e-08
-2.78064e-11
-1.36598e-08
-3.95641e-11
-1.36085e-08
-5.12866e-11
-1.35456e-08
-6.2958e-11
-1.3471e-08
-7.4562e-11
-1.33849e-08
-8.60821e-11
-1.32874e-08
-9.75019e-11
-1.31786e-08
-1.08805e-10
-1.30586e-08
-1.19976e-10
-1.29276e-08
-1.30997e-10
-1.27858e-08
-1.41851e-10
-1.26333e-08
-1.52521e-10
-1.24703e-08
-1.62992e-10
-1.2297e-08
-1.73245e-10
-1.21138e-08
-1.83263e-10
-1.19207e-08
-1.93031e-10
-1.17182e-08
-2.02529e-10
-1.15065e-08
-2.11742e-10
-1.12858e-08
-2.20652e-10
-1.10566e-08
-2.29243e-10
-1.08191e-08
-2.37497e-10
-1.05737e-08
-2.45397e-10
-1.03208e-08
-2.52927e-10
-1.00607e-08
-2.60069e-10
-9.79388e-09
-2.66808e-10
-9.52075e-09
-2.73127e-10
-9.24174e-09
-2.79009e-10
-8.9573e-09
-2.8444e-10
-8.6679e-09
-2.89403e-10
-8.37402e-09
-2.93882e-10
-8.07616e-09
-2.97863e-10
-7.77483e-09
-3.01331e-10
-7.47055e-09
-3.04272e-10
-7.16388e-09
-3.06671e-10
-6.85537e-09
-3.08515e-10
-6.54557e-09
-3.09791e-10
-6.23509e-09
-3.10486e-10
-5.9245e-09
-3.1059e-10
-5.61441e-09
-3.10089e-10
-5.30543e-09
-3.08974e-10
-4.9982e-09
-3.07234e-10
-4.69334e-09
-3.0486e-10
-4.3915e-09
-3.01842e-10
-4.09333e-09
-2.98174e-10
-3.79948e-09
-2.93847e-10
-3.51062e-09
-2.88857e-10
-3.22742e-09
-2.83199e-10
-2.95055e-09
-2.76869e-10
-2.68069e-09
-2.69864e-10
-2.41851e-09
-2.62182e-10
-2.16468e-09
-2.53826e-10
-1.91988e-09
-2.44796e-10
-1.68478e-09
-2.35098e-10
-1.46005e-09
-2.24735e-10
-1.24633e-09
-2.13717e-10
-1.04427e-09
-2.02057e-10
-8.54502e-10
-1.89769e-10
-6.77632e-10
-1.76872e-10
-5.14245e-10
-1.63388e-10
-3.649e-10
-1.49347e-10
-2.30117e-10
-1.34784e-10
-1.10371e-10
-1.19746e-10
-6.08254e-12
-1.04288e-10
8.23957e-11
-8.8478e-11
1.54798e-10
-7.24015e-11
2.10968e-10
-5.61671e-11
2.50887e-10
-3.99139e-11
2.7471e-10
-2.38192e-11
2.82824e-10
-8.11237e-12
2.75917e-10
6.90404e-12
2.55088e-10
2.08234e-11
2.21993e-10
3.30885e-11
1.7907e-10
4.29203e-11
1.29845e-10
4.92272e-11
7.93341e-11
5.05148e-11
3.46091e-11
4.47317e-11
5.32395e-12
2.92903e-11
5.32223e-12
3.00576e-11
-3.63402e-11
1.01177e-10
-1.01386e-10
1.95433e-10
-1.39162e-10
2.95751e-10
-1.49944e-10
3.87763e-10
-1.39248e-10
4.60237e-10
-1.12347e-10
5.04723e-10
-7.35602e-11
5.15037e-10
-2.62695e-11
4.86782e-10
2.69414e-11
4.16956e-10
8.41159e-11
3.0364e-10
1.43772e-10
1.4575e-10
2.04773e-10
-5.71503e-11
2.66244e-10
-3.04984e-10
3.27504e-10
-5.97275e-10
3.88023e-10
-9.33222e-10
4.47383e-10
-1.31177e-09
5.0525e-10
-1.73168e-09
5.61363e-10
-2.19153e-09
6.15514e-10
-2.6898e-09
6.67542e-10
-3.22484e-09
7.17321e-10
-3.79493e-09
7.64749e-10
-4.39831e-09
8.09749e-10
-5.03315e-09
8.52265e-10
-5.6976e-09
8.92259e-10
-6.38978e-09
9.29704e-10
-7.10781e-09
9.64584e-10
-7.84979e-09
9.96893e-10
-8.61382e-09
1.02663e-09
-9.39801e-09
1.05381e-09
-1.02005e-08
1.07844e-09
-1.10193e-08
1.10055e-09
-1.18528e-08
1.12016e-09
-1.26989e-08
1.13729e-09
-1.3556e-08
1.15198e-09
-1.44222e-08
1.16427e-09
-1.52958e-08
1.17418e-09
-1.6175e-08
1.18177e-09
-1.70581e-08
1.18706e-09
-1.79435e-08
1.1901e-09
-1.88296e-08
1.19093e-09
-1.97146e-08
1.18961e-09
-2.05971e-08
1.18616e-09
-2.14755e-08
1.18065e-09
-2.23483e-08
1.17311e-09
-2.32141e-08
1.1636e-09
-2.40713e-08
1.15216e-09
-2.49187e-08
1.13885e-09
-2.57548e-08
1.12371e-09
-2.65783e-08
1.10679e-09
-2.73879e-08
1.08814e-09
-2.81824e-08
1.06781e-09
-2.89606e-08
1.04586e-09
-2.97213e-08
1.02233e-09
-3.04634e-08
9.97272e-10
-3.11857e-08
9.70743e-10
-3.18872e-08
9.4279e-10
-3.25669e-08
9.13467e-10
-3.32238e-08
8.82825e-10
-3.38569e-08
8.50914e-10
-3.44655e-08
8.17789e-10
-3.50484e-08
7.835e-10
-3.56051e-08
7.48102e-10
-3.61346e-08
7.11646e-10
-3.66362e-08
6.74186e-10
-3.71093e-08
6.35775e-10
-3.75531e-08
5.96468e-10
-3.7967e-08
5.56317e-10
-3.83505e-08
5.15378e-10
-3.87029e-08
4.73705e-10
-3.90238e-08
4.31353e-10
-3.93127e-08
3.88378e-10
-3.95692e-08
3.44836e-10
-3.9793e-08
3.00783e-10
-3.99836e-08
2.56276e-10
-4.01408e-08
2.11373e-10
-4.02643e-08
1.66131e-10
-4.03539e-08
1.20608e-10
-4.04095e-08
7.48632e-11
-4.0431e-08
2.8956e-11
-4.04182e-08
-1.70532e-11
-4.03711e-08
-6.31041e-11
-4.02898e-08
-1.09136e-10
-4.01742e-08
-1.55088e-10
-4.00246e-08
-2.00897e-10
-3.98411e-08
-2.46501e-10
-3.96238e-08
-2.91837e-10
-3.9373e-08
-3.36842e-10
-3.90891e-08
-3.8145e-10
-3.87723e-08
-4.25599e-10
-3.84231e-08
-4.69223e-10
-3.80418e-08
-5.12257e-10
-3.7629e-08
-5.54635e-10
-3.71852e-08
-5.96291e-10
-3.67111e-08
-6.3716e-10
-3.62071e-08
-6.77175e-10
-3.56741e-08
-7.1627e-10
-3.51128e-08
-7.54378e-10
-3.45239e-08
-7.91431e-10
-3.39083e-08
-8.27365e-10
-3.32668e-08
-8.62112e-10
-3.26004e-08
-8.95607e-10
-3.19102e-08
-9.27783e-10
-3.1197e-08
-9.58574e-10
-3.0462e-08
-9.87916e-10
-2.97063e-08
-1.01574e-09
-2.89311e-08
-1.04199e-09
-2.81377e-08
-1.0666e-09
-2.73272e-08
-1.08951e-09
-2.6501e-08
-1.11064e-09
-2.56604e-08
-1.12996e-09
-2.48069e-08
-1.14738e-09
-2.39419e-08
-1.16287e-09
-2.30669e-08
-1.17635e-09
-2.21834e-08
-1.18778e-09
-2.12929e-08
-1.1971e-09
-2.03972e-08
-1.20426e-09
-1.94978e-08
-1.20921e-09
-1.85963e-08
-1.21191e-09
-1.76946e-08
-1.2123e-09
-1.67944e-08
-1.21035e-09
-1.58973e-08
-1.20601e-09
-1.50053e-08
-1.19925e-09
-1.41201e-08
-1.19004e-09
-1.32436e-08
-1.17833e-09
-1.23777e-08
-1.16411e-09
-1.15242e-08
-1.14735e-09
-1.0685e-08
-1.12802e-09
-9.8621e-09
-1.10613e-09
-9.05733e-09
-1.08164e-09
-8.27263e-09
-1.05457e-09
-7.50991e-09
-1.0249e-09
-6.77108e-09
-9.92651e-10
-6.05804e-09
-9.5783e-10
-5.37267e-09
-9.20463e-10
-4.71683e-09
-8.8058e-10
-4.09232e-09
-8.38223e-10
-3.50093e-09
-7.93446e-10
-2.94439e-09
-7.46317e-10
-2.42434e-09
-6.96923e-10
-1.94235e-09
-6.45369e-10
-1.49992e-09
-5.91781e-10
-1.09839e-09
-5.36318e-10
-7.38964e-10
-4.79171e-10
-4.22667e-10
-4.20579e-10
-1.50305e-10
-3.60833e-10
7.75895e-11
-3.00291e-10
2.60821e-10
-2.39398e-10
3.99612e-10
-1.78708e-10
4.94712e-10
-1.18922e-10
5.47526e-10
-6.0929e-11
5.60297e-10
-5.87057e-12
5.36343e-10
4.47757e-11
4.80353e-10
8.90803e-11
3.98766e-10
1.24512e-10
3.00213e-10
1.47787e-10
1.9596e-10
1.54773e-10
1.00153e-10
1.40536e-10
2.92639e-11
1.00172e-10
3.45918e-11
4.48295e-11
-8.11817e-11
1.39118e-10
-1.95652e-10
2.56353e-10
-2.56385e-10
3.74905e-10
-2.68502e-10
4.76502e-10
-2.40861e-10
5.46276e-10
-1.82132e-10
5.72526e-10
-9.98092e-11
5.46298e-10
-3.01491e-14
4.60949e-10
1.12295e-10
3.11742e-10
2.33325e-10
9.54826e-11
3.60032e-10
-1.89777e-10
4.90035e-10
-5.44989e-10
6.21458e-10
-9.70293e-10
7.52811e-10
-1.46518e-09
8.82912e-10
-2.02863e-09
1.01082e-09
-2.65916e-09
1.13578e-09
-3.35498e-09
1.25719e-09
-4.11402e-09
1.37455e-09
-4.93396e-09
1.48749e-09
-5.81233e-09
1.59569e-09
-6.7465e-09
1.69891e-09
-7.73372e-09
1.79697e-09
-8.77117e-09
1.88972e-09
-9.85595e-09
1.97704e-09
-1.09851e-08
2.05888e-09
-1.21557e-08
2.13516e-09
-1.33647e-08
2.20588e-09
-1.46091e-08
2.27102e-09
-1.58859e-08
2.33059e-09
-1.7192e-08
2.38462e-09
-1.85246e-08
2.43313e-09
-1.98806e-08
2.47618e-09
-2.12572e-08
2.51382e-09
-2.26513e-08
2.54611e-09
-2.40601e-08
2.57311e-09
-2.54809e-08
2.59492e-09
-2.69107e-08
2.6116e-09
-2.83469e-08
2.62324e-09
-2.97867e-08
2.62993e-09
-3.12275e-08
2.63176e-09
-3.26668e-08
2.62883e-09
-3.41018e-08
2.62123e-09
-3.55303e-08
2.60907e-09
-3.69496e-08
2.59244e-09
-3.83574e-08
2.57145e-09
-3.97515e-08
2.54621e-09
-4.11295e-08
2.51683e-09
-4.24892e-08
2.4834e-09
-4.38284e-08
2.44604e-09
-4.51451e-08
2.40486e-09
-4.64373e-08
2.35996e-09
-4.77029e-08
2.31147e-09
-4.894e-08
2.25948e-09
-5.01469e-08
2.20412e-09
-5.13217e-08
2.1455e-09
-5.24626e-08
2.08373e-09
-5.35681e-08
2.01892e-09
-5.46364e-08
1.95119e-09
-5.56662e-08
1.88066e-09
-5.66558e-08
1.80743e-09
-5.76039e-08
1.73163e-09
-5.85092e-08
1.65337e-09
-5.93703e-08
1.57276e-09
-6.01861e-08
1.48994e-09
-6.09553e-08
1.40501e-09
-6.16769e-08
1.3181e-09
-6.23499e-08
1.22931e-09
-6.29733e-08
1.13879e-09
-6.35463e-08
1.04664e-09
-6.40679e-08
9.52991e-10
-6.45375e-08
8.57963e-10
-6.49543e-08
7.61683e-10
-6.53178e-08
6.64274e-10
-6.56274e-08
5.65863e-10
-6.58826e-08
4.66578e-10
-6.6083e-08
3.66547e-10
-6.62283e-08
2.65898e-10
-6.63182e-08
1.64764e-10
-6.63525e-08
6.32747e-11
-6.63312e-08
-3.84358e-11
-6.6254e-08
-1.40234e-10
-6.61212e-08
-2.41984e-10
-6.59327e-08
-3.43551e-10
-6.56888e-08
-4.44797e-10
-6.53897e-08
-5.45583e-10
-6.50358e-08
-6.45769e-10
-6.46274e-08
-7.45215e-10
-6.41651e-08
-8.4378e-10
-6.36494e-08
-9.41321e-10
-6.30809e-08
-1.03769e-09
-6.24604e-08
-1.13275e-09
-6.17887e-08
-1.22636e-09
-6.10666e-08
-1.31836e-09
-6.02952e-08
-1.40862e-09
-5.94754e-08
-1.49698e-09
-5.86083e-08
-1.5833e-09
-5.76953e-08
-1.66743e-09
-5.67375e-08
-1.74923e-09
-5.57363e-08
-1.82854e-09
-5.46932e-08
-1.90523e-09
-5.36097e-08
-1.97915e-09
-5.24873e-08
-2.05014e-09
-5.13278e-08
-2.11808e-09
-5.01329e-08
-2.18281e-09
-4.89045e-08
-2.24419e-09
-4.76444e-08
-2.30208e-09
-4.63546e-08
-2.35635e-09
-4.50373e-08
-2.40685e-09
-4.36945e-08
-2.45346e-09
-4.23284e-08
-2.49603e-09
-4.09413e-08
-2.53445e-09
-3.95356e-08
-2.56858e-09
-3.81137e-08
-2.5983e-09
-3.6678e-08
-2.62349e-09
-3.5231e-08
-2.64403e-09
-3.37755e-08
-2.65982e-09
-3.23139e-08
-2.67074e-09
-3.08491e-08
-2.6767e-09
-2.93839e-08
-2.6776e-09
-2.79209e-08
-2.67333e-09
-2.64631e-08
-2.66383e-09
-2.50133e-08
-2.64901e-09
-2.35745e-08
-2.62879e-09
-2.21498e-08
-2.60312e-09
-2.07419e-08
-2.57193e-09
-1.93541e-08
-2.53518e-09
-1.79893e-08
-2.49284e-09
-1.66506e-08
-2.44486e-09
-1.5341e-08
-2.39124e-09
-1.40636e-08
-2.33197e-09
-1.28214e-08
-2.26706e-09
-1.16175e-08
-2.19653e-09
-1.04549e-08
-2.12043e-09
-9.33657e-09
-2.03881e-09
-8.26539e-09
-1.95176e-09
-7.24423e-09
-1.85938e-09
-6.27587e-09
-1.76181e-09
-5.36298e-09
-1.65921e-09
-4.50811e-09
-1.55179e-09
-3.71367e-09
-1.4398e-09
-2.98189e-09
-1.32355e-09
-2.31479e-09
-1.20341e-09
-1.71415e-09
-1.07982e-09
-1.1814e-09
-9.53328e-10
-7.1763e-10
-8.24604e-10
-3.2347e-10
-6.94455e-10
1.00083e-12
-5.63874e-10
2.56378e-10
-4.34088e-10
4.44074e-10
-3.06617e-10
5.66511e-10
-1.8336e-10
6.27351e-10
-6.67019e-11
6.31779e-10
4.03547e-11
5.86839e-10
1.34021e-10
5.01816e-10
2.09528e-10
3.88636e-10
2.6096e-10
2.62204e-10
2.81201e-10
1.40556e-10
2.62183e-10
4.47033e-11
1.96024e-10
7.93031e-11
4.96908e-11
-1.30871e-10
1.5027e-10
-2.96215e-10
2.69109e-10
-3.75226e-10
3.81023e-10
-3.80429e-10
4.65221e-10
-3.25064e-10
5.04631e-10
-2.2155e-10
4.85543e-10
-8.07185e-11
3.97179e-10
8.8338e-11
2.31305e-10
2.78171e-10
-1.81268e-11
4.82762e-10
-3.55351e-10
6.97259e-10
-7.83075e-10
9.17761e-10
-1.30275e-09
1.14113e-09
-1.91479e-09
1.36485e-09
-2.61873e-09
1.58686e-09
-3.41344e-09
1.80553e-09
-4.29718e-09
2.01952e-09
-5.26773e-09
2.22774e-09
-6.32249e-09
2.42931e-09
-7.45854e-09
2.62354e-09
-8.67269e-09
2.80984e-09
-9.96153e-09
2.98776e-09
-1.13215e-08
3.15694e-09
-1.27489e-08
3.31711e-09
-1.42399e-08
3.46804e-09
-1.57906e-08
3.60958e-09
-1.73971e-08
3.74163e-09
-1.90553e-08
3.86412e-09
-2.07613e-08
3.97701e-09
-2.2511e-08
4.0803e-09
-2.43004e-08
4.17402e-09
-2.61255e-08
4.25822e-09
-2.79822e-08
4.33296e-09
-2.98667e-08
4.39832e-09
-3.1775e-08
4.45441e-09
-3.37033e-08
4.50133e-09
-3.56476e-08
4.53921e-09
-3.76041e-08
4.56818e-09
-3.95693e-08
4.58838e-09
-4.15393e-08
4.59996e-09
-4.35106e-08
4.60308e-09
-4.54797e-08
4.59789e-09
-4.7443e-08
4.58457e-09
-4.93973e-08
4.56327e-09
-5.1339e-08
4.53419e-09
-5.3265e-08
4.49749e-09
-5.51722e-08
4.45336e-09
-5.70573e-08
4.40198e-09
-5.89175e-08
4.34353e-09
-6.07496e-08
4.27821e-09
-6.2551e-08
4.2062e-09
-6.43187e-08
4.1277e-09
-6.60502e-08
4.0429e-09
-6.77427e-08
3.95199e-09
-6.93937e-08
3.85517e-09
-7.10009e-08
3.75264e-09
-7.25617e-08
3.64459e-09
-7.4074e-08
3.53123e-09
-7.55356e-08
3.41275e-09
-7.69443e-08
3.28935e-09
-7.82981e-08
3.16124e-09
-7.95951e-08
3.02862e-09
-8.08334e-08
2.8917e-09
-8.20114e-08
2.75067e-09
-8.31272e-08
2.60576e-09
-8.41793e-08
2.45715e-09
-8.51663e-08
2.30507e-09
-8.60867e-08
2.14973e-09
-8.69392e-08
1.99133e-09
-8.77227e-08
1.83009e-09
-8.84359e-08
1.66622e-09
-8.90779e-08
1.49995e-09
-8.96477e-08
1.33148e-09
-9.01445e-08
1.16104e-09
-9.05675e-08
9.88853e-10
-9.0916e-08
8.1514e-10
-9.11896e-08
6.40125e-10
-9.13877e-08
4.64037e-10
-9.15101e-08
2.87104e-10
-9.15564e-08
1.09557e-10
-9.15264e-08
-6.83694e-11
-9.14202e-08
-2.46441e-10
-9.12378e-08
-4.24422e-10
-9.09793e-08
-6.02072e-10
-9.06449e-08
-7.79151e-10
-9.02351e-08
-9.55416e-10
-8.97502e-08
-1.13062e-09
-8.91909e-08
-1.30452e-09
-8.85578e-08
-1.47687e-09
-8.78517e-08
-1.64742e-09
-8.70735e-08
-1.81591e-09
-8.62242e-08
-1.9821e-09
-8.53048e-08
-2.14573e-09
-8.43166e-08
-2.30655e-09
-8.32609e-08
-2.4643e-09
-8.21392e-08
-2.61873e-09
-8.09529e-08
-2.76957e-09
-7.97038e-08
-2.91659e-09
-7.83935e-08
-3.05951e-09
-7.70239e-08
-3.19809e-09
-7.55971e-08
-3.33206e-09
-7.41151e-08
-3.46118e-09
-7.258e-08
-3.58519e-09
-7.09943e-08
-3.70385e-09
-6.93602e-08
-3.81689e-09
-6.76803e-08
-3.92409e-09
-6.59572e-08
-4.02518e-09
-6.41936e-08
-4.11993e-09
-6.23923e-08
-4.20811e-09
-6.05563e-08
-4.28948e-09
-5.86885e-08
-4.36381e-09
-5.67921e-08
-4.43088e-09
-5.48702e-08
-4.49047e-09
-5.29261e-08
-4.54236e-09
-5.09633e-08
-4.58636e-09
-4.89851e-08
-4.62225e-09
-4.6995e-08
-4.64985e-09
-4.49968e-08
-4.66898e-09
-4.2994e-08
-4.67946e-09
-4.09905e-08
-4.68113e-09
-3.899e-08
-4.67382e-09
-3.69964e-08
-4.6574e-09
-3.50137e-08
-4.63174e-09
-3.30458e-08
-4.5967e-09
-3.10967e-08
-4.5522e-09
-2.91705e-08
-4.49812e-09
-2.72713e-08
-4.43441e-09
-2.54031e-08
-4.361e-09
-2.35701e-08
-4.27784e-09
-2.17764e-08
-4.18493e-09
-2.00261e-08
-4.08227e-09
-1.83233e-08
-3.96987e-09
-1.6672e-08
-3.84781e-09
-1.50763e-08
-3.71616e-09
-1.35401e-08
-3.57505e-09
-1.20672e-08
-3.42463e-09
-1.06615e-08
-3.26511e-09
-9.32654e-09
-3.09675e-09
-8.06589e-09
-2.91986e-09
-6.88285e-09
-2.73482e-09
-5.78054e-09
-2.54211e-09
-4.76182e-09
-2.34227e-09
-3.82924e-09
-2.13599e-09
-2.98498e-09
-1.92407e-09
-2.23082e-09
-1.70749e-09
-1.568e-09
-1.48743e-09
-9.97147e-10
-1.26531e-09
-5.1816e-10
-1.04286e-09
-1.3006e-10
-8.22185e-10
1.6919e-10
-6.05861e-10
3.82886e-10
-3.97053e-10
5.15835e-10
-1.9965e-10
5.74642e-10
-1.84505e-11
5.68023e-10
1.40641e-10
5.07155e-10
2.70395e-10
4.06026e-10
3.62086e-10
2.81782e-10
4.05441e-10
1.55057e-10
3.88907e-10
5.05536e-11
3.0053e-10
1.29862e-10
4.7488e-11
-1.78357e-10
1.40191e-10
-3.88923e-10
2.42638e-10
-4.77685e-10
3.27454e-10
-4.65255e-10
3.72277e-10
-3.6989e-10
3.58749e-10
-2.08019e-10
2.71955e-10
6.07581e-12
9.99941e-11
2.60297e-10
-1.66395e-10
5.44565e-10
-5.34181e-10
8.50557e-10
-1.00836e-09
1.17144e-09
-1.59223e-09
1.50163e-09
-2.28765e-09
1.83656e-09
-3.09529e-09
2.17248e-09
-4.01478e-09
2.50635e-09
-5.0449e-09
2.83566e-09
-6.18373e-09
3.15835e-09
-7.42874e-09
3.47275e-09
-8.77691e-09
3.77748e-09
-1.02248e-08
4.07143e-09
-1.17686e-08
4.35367e-09
-1.34043e-08
4.62347e-09
-1.51277e-08
4.88025e-09
-1.69341e-08
5.12354e-09
-1.8819e-08
5.35297e-09
-2.07777e-08
5.56828e-09
-2.28054e-08
5.76927e-09
-2.4897e-08
5.9558e-09
-2.70478e-08
6.12781e-09
-2.92528e-08
6.28526e-09
-3.1507e-08
6.42818e-09
-3.38054e-08
6.55662e-09
-3.61431e-08
6.67066e-09
-3.85151e-08
6.77041e-09
-4.09167e-08
6.85601e-09
-4.3343e-08
6.92762e-09
-4.57892e-08
6.98541e-09
-4.82506e-08
7.02958e-09
-5.07226e-08
7.06032e-09
-5.32005e-08
7.07787e-09
-5.56798e-08
7.08244e-09
-5.81562e-08
7.07429e-09
-6.06253e-08
7.05366e-09
-6.30828e-08
7.0208e-09
-6.55246e-08
6.97597e-09
-6.79466e-08
6.91946e-09
-7.03448e-08
6.85153e-09
-7.27152e-08
6.77245e-09
-7.50542e-08
6.68252e-09
-7.7358e-08
6.58201e-09
-7.9623e-08
6.47122e-09
-8.18458e-08
6.35044e-09
-8.40229e-08
6.21997e-09
-8.6151e-08
6.0801e-09
-8.82269e-08
5.93113e-09
-9.02476e-08
5.77337e-09
-9.22102e-08
5.60711e-09
-9.41116e-08
5.43267e-09
-9.59492e-08
5.25035e-09
-9.77203e-08
5.06047e-09
-9.94224e-08
4.86332e-09
-1.01053e-07
4.65923e-09
-1.0261e-07
4.44851e-09
-1.04091e-07
4.23147e-09
-1.05493e-07
4.00844e-09
-1.06816e-07
3.77974e-09
-1.08056e-07
3.54569e-09
-1.09213e-07
3.3066e-09
-1.10285e-07
3.06282e-09
-1.11269e-07
2.81467e-09
-1.12166e-07
2.56248e-09
-1.12972e-07
2.30658e-09
-1.13688e-07
2.04731e-09
-1.14312e-07
1.78501e-09
-1.14843e-07
1.52003e-09
-1.15281e-07
1.25271e-09
-1.15624e-07
9.83386e-10
-1.15873e-07
7.12422e-10
-1.16026e-07
4.40166e-10
-1.16083e-07
1.66976e-10
-1.16045e-07
-1.06788e-10
-1.1591e-07
-3.80765e-10
-1.1568e-07
-6.54589e-10
-1.15354e-07
-9.27893e-10
-1.14933e-07
-1.2003e-09
-1.14417e-07
-1.47145e-09
-1.13807e-07
-1.74095e-09
-1.13103e-07
-2.00843e-09
-1.12306e-07
-2.27351e-09
-1.11418e-07
-2.5358e-09
-1.10439e-07
-2.79492e-09
-1.0937e-07
-3.05048e-09
-1.08214e-07
-3.30209e-09
-1.06971e-07
-3.54936e-09
-1.05644e-07
-3.7919e-09
-1.04233e-07
-4.02931e-09
-1.02741e-07
-4.26121e-09
-1.01171e-07
-4.48719e-09
-9.95235e-08
-4.70688e-09
-9.78017e-08
-4.91987e-09
-9.6008e-08
-5.12577e-09
-9.41449e-08
-5.32421e-09
-9.22154e-08
-5.51478e-09
-9.02221e-08
-5.6971e-09
-8.81682e-08
-5.8708e-09
-8.60568e-08
-6.0355e-09
-8.38911e-08
-6.19083e-09
-8.16747e-08
-6.33641e-09
-7.94109e-08
-6.47188e-09
-7.71035e-08
-6.5969e-09
-7.47562e-08
-6.71111e-09
-7.23729e-08
-6.81417e-09
-6.99576e-08
-6.90574e-09
-6.75144e-08
-6.98551e-09
-6.50476e-08
-7.05317e-09
-6.25615e-08
-7.1084e-09
-6.00604e-08
-7.15093e-09
-5.75489e-08
-7.18047e-09
-5.50316e-08
-7.19677e-09
-5.25132e-08
-7.19957e-09
-4.99984e-08
-7.18864e-09
-4.7492e-08
-7.16376e-09
-4.4999e-08
-7.12476e-09
-4.25242e-08
-7.07143e-09
-4.00728e-08
-7.00365e-09
-3.76497e-08
-6.92126e-09
-3.52599e-08
-6.82417e-09
-3.29086e-08
-6.71231e-09
-3.06008e-08
-6.58561e-09
-2.83417e-08
-6.44407e-09
-2.61362e-08
-6.28771e-09
-2.39895e-08
-6.11659e-09
-2.19065e-08
-5.93081e-09
-1.98921e-08
-5.73053e-09
-1.79512e-08
-5.51595e-09
-1.60885e-08
-5.28734e-09
-1.43086e-08
-5.04504e-09
-1.26159e-08
-4.78948e-09
-1.10146e-08
-4.52116e-09
-9.5087e-09
-4.2407e-09
-8.10195e-09
-3.94886e-09
-6.79771e-09
-3.64651e-09
-5.59897e-09
-3.33473e-09
-4.50825e-09
-3.01479e-09
-3.52756e-09
-2.68819e-09
-2.65823e-09
-2.35676e-09
-1.90087e-09
-2.02267e-09
-1.25519e-09
-1.68854e-09
-7.19864e-10
-1.35751e-09
-2.92349e-10
-1.03338e-09
3.13412e-11
-7.20743e-10
2.56864e-10
-4.25168e-10
3.91815e-10
-1.53395e-10
4.46027e-10
8.64342e-11
4.31872e-10
2.8455e-10
3.64605e-10
4.29348e-10
2.62761e-10
5.07283e-10
1.48662e-10
5.03001e-10
4.94298e-11
3.9977e-10
1.79292e-10
4.03866e-11
-2.18746e-10
1.14169e-10
-4.62722e-10
1.85613e-10
-5.49141e-10
2.26567e-10
-5.06208e-10
2.13988e-10
-3.57306e-10
1.2892e-10
-1.22942e-10
-4.41456e-11
1.79146e-10
-3.1771e-10
5.33863e-10
-7.01627e-10
9.28486e-10
-1.20343e-09
1.35236e-09
-1.82859e-09
1.79661e-09
-2.58083e-09
2.25387e-09
-3.46229e-09
2.71802e-09
-4.47382e-09
3.18401e-09
-5.61512e-09
3.64764e-09
-6.88492e-09
4.10546e-09
-8.28114e-09
4.55457e-09
-9.80099e-09
4.9926e-09
-1.14411e-08
5.4176e-09
-1.31976e-08
5.82794e-09
-1.50663e-08
6.2223e-09
-1.70424e-08
6.5996e-09
-1.91211e-08
6.95895e-09
-2.12972e-08
7.29967e-09
-2.35654e-08
7.62119e-09
-2.59202e-08
7.9231e-09
-2.83561e-08
8.20508e-09
-3.08672e-08
8.46691e-09
-3.34478e-08
8.70845e-09
-3.60922e-08
8.92964e-09
-3.87945e-08
9.13048e-09
-4.15489e-08
9.31101e-09
-4.43495e-08
9.47132e-09
-4.71907e-08
9.61156e-09
-5.00666e-08
9.73189e-09
-5.29715e-08
9.83253e-09
-5.58997e-08
9.91369e-09
-5.88458e-08
9.97565e-09
-6.18042e-08
1.00187e-08
-6.47694e-08
1.00431e-08
-6.77361e-08
1.00491e-08
-7.0699e-08
1.00372e-08
-7.36531e-08
1.00077e-08
-7.65931e-08
9.96082e-09
-7.95142e-08
9.89704e-09
-8.24114e-08
9.81671e-09
-8.52801e-08
9.72021e-09
-8.81156e-08
9.60792e-09
-9.09133e-08
9.48025e-09
-9.36689e-08
9.3376e-09
-9.6378e-08
9.18037e-09
-9.90366e-08
9.00897e-09
-1.0164e-07
8.82382e-09
-1.04186e-07
8.62535e-09
-1.06668e-07
8.41397e-09
-1.09085e-07
8.1901e-09
-1.11432e-07
7.95419e-09
-1.13706e-07
7.70666e-09
-1.15904e-07
7.44795e-09
-1.18022e-07
7.1785e-09
-1.20057e-07
6.89874e-09
-1.22007e-07
6.60913e-09
-1.23869e-07
6.31011e-09
-1.2564e-07
6.00212e-09
-1.27317e-07
5.68563e-09
-1.28898e-07
5.36109e-09
-1.30381e-07
5.02895e-09
-1.31764e-07
4.68968e-09
-1.33045e-07
4.34373e-09
-1.34222e-07
3.99159e-09
-1.35293e-07
3.63373e-09
-1.36257e-07
3.2706e-09
-1.37113e-07
2.90271e-09
-1.37858e-07
2.53052e-09
-1.38493e-07
2.15453e-09
-1.39015e-07
1.77522e-09
-1.39425e-07
1.39309e-09
-1.39721e-07
1.00864e-09
-1.39904e-07
6.22376e-10
-1.39971e-07
2.34795e-10
-1.39925e-07
-1.53588e-10
-1.39763e-07
-5.42258e-10
-1.39487e-07
-9.30696e-10
-1.39096e-07
-1.31838e-09
-1.38592e-07
-1.70478e-09
-1.37974e-07
-2.08937e-09
-1.37243e-07
-2.47161e-09
-1.36401e-07
-2.85096e-09
-1.35448e-07
-3.22689e-09
-1.34384e-07
-3.59885e-09
-1.33213e-07
-3.96629e-09
-1.31935e-07
-4.32866e-09
-1.30552e-07
-4.68541e-09
-1.29065e-07
-5.03599e-09
-1.27477e-07
-5.37985e-09
-1.2579e-07
-5.71642e-09
-1.24006e-07
-6.04515e-09
-1.22128e-07
-6.36549e-09
-1.20158e-07
-6.67688e-09
-1.18099e-07
-6.97877e-09
-1.15954e-07
-7.2706e-09
-1.13726e-07
-7.55182e-09
-1.11419e-07
-7.8219e-09
-1.09036e-07
-8.08029e-09
-1.0658e-07
-8.32644e-09
-1.04056e-07
-8.55984e-09
-1.01467e-07
-8.77995e-09
-9.88171e-08
-8.98625e-09
-9.61108e-08
-9.17825e-09
-9.33522e-08
-9.35543e-09
-9.0546e-08
-9.51731e-09
-8.76968e-08
-9.66341e-09
-8.48093e-08
-9.79326e-09
-8.18884e-08
-9.90642e-09
-7.89391e-08
-1.00024e-08
-7.59666e-08
-1.00809e-08
-7.29761e-08
-1.01414e-08
-6.9973e-08
-1.01836e-08
-6.69627e-08
-1.0207e-08
-6.39508e-08
-1.02114e-08
-6.0943e-08
-1.01965e-08
-5.79449e-08
-1.01619e-08
-5.49623e-08
-1.01073e-08
-5.20012e-08
-1.00326e-08
-4.90673e-08
-9.93751e-09
-4.61667e-08
-9.82188e-09
-4.33053e-08
-9.68558e-09
-4.04891e-08
-9.52851e-09
-3.77241e-08
-9.35062e-09
-3.50162e-08
-9.15191e-09
-3.23715e-08
-8.93243e-09
-2.97958e-08
-8.69228e-09
-2.7295e-08
-8.43164e-09
-2.48748e-08
-8.15075e-09
-2.25408e-08
-7.84994e-09
-2.02985e-08
-7.52961e-09
-1.81533e-08
-7.19028e-09
-1.61102e-08
-6.83257e-09
-1.41741e-08
-6.45724e-09
-1.23496e-08
-6.06521e-09
-1.06409e-08
-5.65755e-09
-9.05183e-09
-5.23557e-09
-7.58575e-09
-4.8008e-09
-6.24548e-09
-4.35505e-09
-5.03318e-09
-3.90049e-09
-3.95029e-09
-3.43966e-09
-2.99737e-09
-2.9756e-09
-2.17399e-09
-2.51192e-09
-1.47856e-09
-2.05293e-09
-9.08172e-10
-1.60377e-09
-4.5835e-10
-1.17057e-09
-1.22871e-10
-7.60649e-10
1.06497e-10
-3.82763e-10
2.40255e-10
-4.73209e-11
2.91459e-10
2.33351e-10
2.76052e-10
4.44757e-10
2.13294e-10
5.70041e-10
1.2636e-10
5.8993e-10
4.33996e-11
4.82738e-10
2.22688e-10
2.99272e-11
-2.48678e-10
7.64998e-11
-5.09297e-10
1.05444e-10
-5.78081e-10
8.90349e-11
-4.89794e-10
4.3617e-12
-2.72633e-10
-1.67538e-10
4.89586e-11
-4.42272e-10
4.53883e-10
-8.32523e-10
9.24118e-10
-1.34838e-09
1.44435e-09
-1.99762e-09
2.00161e-09
-2.78598e-09
2.58497e-09
-3.71737e-09
3.18525e-09
-4.7941e-09
3.79476e-09
-6.01712e-09
4.40702e-09
-7.38613e-09
5.01665e-09
-8.8998e-09
5.61912e-09
-1.05559e-08
6.21066e-09
-1.23514e-08
6.78811e-09
-1.42826e-08
7.34885e-09
-1.63454e-08
7.89069e-09
-1.85349e-08
8.41182e-09
-2.08461e-08
8.91077e-09
-2.32735e-08
9.38631e-09
-2.58112e-08
9.83747e-09
-2.84535e-08
1.02635e-08
-3.11941e-08
1.06637e-08
-3.40266e-08
1.10376e-08
-3.69448e-08
1.1385e-08
-3.99419e-08
1.17056e-08
-4.30115e-08
1.19993e-08
-4.6147e-08
1.2266e-08
-4.93418e-08
1.25058e-08
-5.25892e-08
1.27187e-08
-5.58826e-08
1.2905e-08
-5.92154e-08
1.30647e-08
-6.25812e-08
1.31983e-08
-6.59734e-08
1.3306e-08
-6.93858e-08
1.3388e-08
-7.28119e-08
1.34448e-08
-7.62455e-08
1.34767e-08
-7.96805e-08
1.34841e-08
-8.31108e-08
1.34676e-08
-8.65305e-08
1.34274e-08
-8.99338e-08
1.33641e-08
-9.3315e-08
1.32782e-08
-9.66684e-08
1.31701e-08
-9.99886e-08
1.30404e-08
-1.0327e-07
1.28895e-08
-1.06508e-07
1.27181e-08
-1.09697e-07
1.25265e-08
-1.12832e-07
1.23154e-08
-1.15908e-07
1.20854e-08
-1.18921e-07
1.18369e-08
-1.21867e-07
1.15705e-08
-1.2474e-07
1.12868e-08
-1.27536e-07
1.09864e-08
-1.30252e-07
1.06699e-08
-1.32883e-07
1.03377e-08
-1.35425e-07
9.99054e-09
-1.37876e-07
9.62897e-09
-1.4023e-07
9.25357e-09
-1.42486e-07
8.86495e-09
-1.4464e-07
8.4637e-09
-1.46688e-07
8.05043e-09
-1.48628e-07
7.62574e-09
-1.50457e-07
7.19025e-09
-1.52173e-07
6.74458e-09
-1.53773e-07
6.28933e-09
-1.55254e-07
5.82515e-09
-1.56615e-07
5.35265e-09
-1.57854e-07
4.87247e-09
-1.58969e-07
4.38525e-09
-1.59957e-07
3.89163e-09
-1.60819e-07
3.39227e-09
-1.61553e-07
2.88781e-09
-1.62156e-07
2.37892e-09
-1.62629e-07
1.86625e-09
-1.62971e-07
1.35049e-09
-1.63181e-07
8.32296e-10
-1.63259e-07
3.12362e-10
-1.63204e-07
-2.0863e-10
-1.63016e-07
-7.29988e-10
-1.62696e-07
-1.25102e-09
-1.62243e-07
-1.77101e-09
-1.61658e-07
-2.28927e-09
-1.60943e-07
-2.80507e-09
-1.60097e-07
-3.3177e-09
-1.59121e-07
-3.82644e-09
-1.58018e-07
-4.33057e-09
-1.56787e-07
-4.82934e-09
-1.55431e-07
-5.32204e-09
-1.53952e-07
-5.80792e-09
-1.52351e-07
-6.28625e-09
-1.50631e-07
-6.75628e-09
-1.48793e-07
-7.21727e-09
-1.46841e-07
-7.66848e-09
-1.44777e-07
-8.10916e-09
-1.42604e-07
-8.53857e-09
-1.40325e-07
-8.95597e-09
-1.37943e-07
-9.36062e-09
-1.35462e-07
-9.75178e-09
-1.32885e-07
-1.01287e-08
-1.30217e-07
-1.04907e-08
-1.2746e-07
-1.0837e-08
-1.24619e-07
-1.11669e-08
-1.21699e-07
-1.14798e-08
-1.18705e-07
-1.17748e-08
-1.1564e-07
-1.20513e-08
-1.12509e-07
-1.23087e-08
-1.09318e-07
-1.25462e-08
-1.06072e-07
-1.27633e-08
-1.02776e-07
-1.29592e-08
-9.94363e-08
-1.31335e-08
-9.60574e-08
-1.32853e-08
-9.26455e-08
-1.34143e-08
-8.92066e-08
-1.35198e-08
-8.57466e-08
-1.36014e-08
-8.22718e-08
-1.36584e-08
-7.87884e-08
-1.36905e-08
-7.53027e-08
-1.36971e-08
-7.18213e-08
-1.36779e-08
-6.83507e-08
-1.36325e-08
-6.48976e-08
-1.35605e-08
-6.14686e-08
-1.34616e-08
-5.80705e-08
-1.33356e-08
-5.471e-08
-1.31823e-08
-5.13941e-08
-1.30015e-08
-4.81294e-08
-1.27931e-08
-4.4923e-08
-1.25571e-08
-4.17815e-08
-1.22934e-08
-3.87116e-08
-1.20022e-08
-3.57203e-08
-1.16837e-08
-3.28139e-08
-1.1338e-08
-2.9999e-08
-1.09656e-08
-2.7282e-08
-1.05669e-08
-2.4669e-08
-1.01426e-08
-2.21661e-08
-9.69322e-09
-1.97789e-08
-9.21977e-09
-1.75129e-08
-8.72328e-09
-1.53731e-08
-8.205e-09
-1.33642e-08
-7.66641e-09
-1.14905e-08
-7.10928e-09
-9.75562e-09
-6.53568e-09
-8.16263e-09
-5.94804e-09
-6.71387e-09
-5.34925e-09
-5.41085e-09
-4.74267e-09
-4.25415e-09
-4.1323e-09
-3.24325e-09
-3.52282e-09
-2.37641e-09
-2.91978e-09
-1.65047e-09
-2.32972e-09
-1.06069e-09
-1.76035e-09
-6.00524e-10
-1.22082e-09
-2.61412e-10
-7.21874e-10
-3.25394e-11
-2.76187e-10
9.94173e-11
1.01397e-10
1.50629e-10
3.93552e-10
1.40503e-10
5.80169e-10
9.2289e-11
6.38146e-10
3.3959e-11
5.4107e-10
2.56642e-10
1.72149e-11
-2.65897e-10
3.05027e-11
-5.2258e-10
8.11584e-12
-5.55683e-10
-7.63238e-11
-4.05347e-10
-2.44919e-10
-1.04042e-10
-5.16118e-10
3.20157e-10
-9.05217e-10
8.42986e-10
-1.42472e-09
1.44363e-09
-2.08465e-09
2.10428e-09
-2.89276e-09
2.80972e-09
-3.85482e-09
3.54702e-09
-4.97477e-09
4.3052e-09
-6.25495e-09
5.07494e-09
-7.69629e-09
5.84836e-09
-9.29844e-09
6.6188e-09
-1.106e-08
7.38065e-09
-1.29785e-08
8.12916e-09
-1.50507e-08
8.86035e-09
-1.72727e-08
9.57086e-09
-1.96399e-08
1.02579e-08
-2.21472e-08
1.09191e-08
-2.4789e-08
1.15526e-08
-2.75593e-08
1.21566e-08
-3.04519e-08
1.27301e-08
-3.34602e-08
1.32718e-08
-3.65774e-08
1.37809e-08
-3.97966e-08
1.42569e-08
-4.31107e-08
1.46991e-08
-4.65125e-08
1.51074e-08
-4.99948e-08
1.54815e-08
-5.35501e-08
1.58213e-08
-5.71711e-08
1.61268e-08
-6.08505e-08
1.63981e-08
-6.45809e-08
1.66354e-08
-6.8355e-08
1.68388e-08
-7.21655e-08
1.70088e-08
-7.60052e-08
1.71457e-08
-7.9867e-08
1.72497e-08
-8.37437e-08
1.73215e-08
-8.76284e-08
1.73614e-08
-9.15141e-08
1.73699e-08
-9.53942e-08
1.73476e-08
-9.92619e-08
1.72951e-08
-1.03111e-07
1.72129e-08
-1.06934e-07
1.71017e-08
-1.10726e-07
1.6962e-08
-1.1448e-07
1.67944e-08
-1.1819e-07
1.65998e-08