/*--------------------------------*- C++ -*----------------------------------*\
  =========                 |
  \\      /  F ield         | OpenFOAM: The Open Source CFD Toolbox
   \\    /   O peration     | Website:  https://openfoam.org
    \\  /    A nd           | Version:  7
     \\/     M anipulation  |
\*---------------------------------------------------------------------------*/
FoamFile
{
    version     2.0;
    format      ascii;
    class       volVectorField;
    location    "0.35";
    object      U;
}
// * * * * * * * * * * * * * * * * * * * * * * * * * * * * * * * * * * * * * //

dimensions      [0 1 -1 0 0 0 0];

internalField   nonuniform List<vector> 
25600
(
(1.76681e-07 -2.07881e-07 0)
(2.83461e-06 -1.79524e-06 0)
(9.07339e-06 -2.8337e-06 0)
(1.69253e-05 -3.20653e-06 0)
(2.48844e-05 -3.12265e-06 0)
(3.2e-05 -2.74523e-06 0)
(3.76198e-05 -2.18098e-06 0)
(4.12948e-05 -1.50065e-06 0)
(4.27265e-05 -7.50583e-07 0)
(4.17212e-05 3.84346e-08 0)
(3.81609e-05 8.45821e-07 0)
(3.1983e-05 1.65744e-06 0)
(2.3166e-05 2.46361e-06 0)
(1.17197e-05 3.25702e-06 0)
(-2.32312e-06 4.03218e-06 0)
(-1.89111e-05 4.78507e-06 0)
(-3.79787e-05 5.51268e-06 0)
(-5.94499e-05 6.21294e-06 0)
(-8.32401e-05 6.88429e-06 0)
(-0.000109258 7.52551e-06 0)
(-0.000137406 8.13561e-06 0)
(-0.000167585 8.71395e-06 0)
(-0.000199692 9.26024e-06 0)
(-0.000233621 9.77431e-06 0)
(-0.000269265 1.02561e-05 0)
(-0.000306517 1.07057e-05 0)
(-0.000345268 1.11231e-05 0)
(-0.000385411 1.15086e-05 0)
(-0.000426838 1.18623e-05 0)
(-0.000469441 1.21848e-05 0)
(-0.000513114 1.24763e-05 0)
(-0.000557751 1.27373e-05 0)
(-0.000603248 1.29682e-05 0)
(-0.000649502 1.31696e-05 0)
(-0.00069641 1.33418e-05 0)
(-0.000743873 1.34855e-05 0)
(-0.000791791 1.36011e-05 0)
(-0.000840068 1.36892e-05 0)
(-0.000888609 1.37504e-05 0)
(-0.00093732 1.37851e-05 0)
(-0.000986109 1.37941e-05 0)
(-0.00103489 1.37778e-05 0)
(-0.00108356 1.37368e-05 0)
(-0.00113206 1.36718e-05 0)
(-0.00118028 1.35833e-05 0)
(-0.00122815 1.34719e-05 0)
(-0.0012756 1.33382e-05 0)
(-0.00132253 1.31828e-05 0)
(-0.00136888 1.30064e-05 0)
(-0.00141457 1.28094e-05 0)
(-0.00145953 1.25926e-05 0)
(-0.00150369 1.23564e-05 0)
(-0.00154698 1.21015e-05 0)
(-0.00158934 1.18285e-05 0)
(-0.0016307 1.1538e-05 0)
(-0.00167101 1.12306e-05 0)
(-0.0017102 1.09069e-05 0)
(-0.00174822 1.05674e-05 0)
(-0.00178501 1.02128e-05 0)
(-0.00182051 9.84373e-06 0)
(-0.00185469 9.4607e-06 0)
(-0.00188748 9.06433e-06 0)
(-0.00191885 8.65521e-06 0)
(-0.00194875 8.23397e-06 0)
(-0.00197713 7.80121e-06 0)
(-0.00200396 7.35755e-06 0)
(-0.0020292 6.9036e-06 0)
(-0.00205282 6.43996e-06 0)
(-0.00207477 5.96725e-06 0)
(-0.00209504 5.48607e-06 0)
(-0.00211358 4.99708e-06 0)
(-0.00213038 4.5009e-06 0)
(-0.0021454 3.99816e-06 0)
(-0.00215864 3.48948e-06 0)
(-0.00217006 2.97552e-06 0)
(-0.00217965 2.45695e-06 0)
(-0.0021874 1.93444e-06 0)
(-0.00219329 1.40863e-06 0)
(-0.00219731 8.8016e-07 0)
(-0.00219945 3.49696e-07 0)
(-0.00219972 -1.82047e-07 0)
(-0.00219809 -7.14357e-07 0)
(-0.00219459 -1.24653e-06 0)
(-0.0021892 -1.77789e-06 0)
(-0.00218193 -2.30775e-06 0)
(-0.00217278 -2.83539e-06 0)
(-0.00216178 -3.36009e-06 0)
(-0.00214892 -3.88109e-06 0)
(-0.00213423 -4.39765e-06 0)
(-0.00211772 -4.90905e-06 0)
(-0.00209942 -5.41456e-06 0)
(-0.00207933 -5.91341e-06 0)
(-0.0020575 -6.40483e-06 0)
(-0.00203394 -6.88806e-06 0)
(-0.00200869 -7.36233e-06 0)
(-0.00198178 -7.82689e-06 0)
(-0.00195325 -8.28096e-06 0)
(-0.00192314 -8.72376e-06 0)
(-0.00189148 -9.15449e-06 0)
(-0.00185833 -9.57239e-06 0)
(-0.00182373 -9.97669e-06 0)
(-0.00178772 -1.03666e-05 0)
(-0.00175037 -1.07414e-05 0)
(-0.00171172 -1.11003e-05 0)
(-0.00167184 -1.14424e-05 0)
(-0.00163079 -1.17671e-05 0)
(-0.00158862 -1.20735e-05 0)
(-0.00154541 -1.2361e-05 0)
(-0.00150122 -1.26287e-05 0)
(-0.00145613 -1.2876e-05 0)
(-0.0014102 -1.31021e-05 0)
(-0.00136352 -1.33063e-05 0)
(-0.00131616 -1.34879e-05 0)
(-0.0012682 -1.36461e-05 0)
(-0.00121973 -1.37804e-05 0)
(-0.00117084 -1.38901e-05 0)
(-0.0011216 -1.39745e-05 0)
(-0.00107211 -1.4033e-05 0)
(-0.00102247 -1.4065e-05 0)
(-0.000972759 -1.407e-05 0)
(-0.00092308 -1.40474e-05 0)
(-0.000873531 -1.39966e-05 0)
(-0.00082421 -1.39172e-05 0)
(-0.000775218 -1.38086e-05 0)
(-0.000726657 -1.36705e-05 0)
(-0.00067863 -1.35024e-05 0)
(-0.000631243 -1.33038e-05 0)
(-0.000584601 -1.30746e-05 0)
(-0.00053881 -1.28144e-05 0)
(-0.000493979 -1.2523e-05 0)
(-0.000450214 -1.22e-05 0)
(-0.000407624 -1.18455e-05 0)
(-0.000366317 -1.14592e-05 0)
(-0.000326401 -1.10412e-05 0)
(-0.000287984 -1.05915e-05 0)
(-0.000251172 -1.01101e-05 0)
(-0.000216071 -9.59728e-06 0)
(-0.000182785 -9.0534e-06 0)
(-0.000151415 -8.47895e-06 0)
(-0.000122061 -7.8745e-06 0)
(-9.48194e-05 -7.24071e-06 0)
(-6.97809e-05 -6.57855e-06 0)
(-4.70324e-05 -5.88933e-06 0)
(-2.66539e-05 -5.17476e-06 0)
(-8.71765e-06 -4.43691e-06 0)
(6.71398e-06 -3.67834e-06 0)
(1.95908e-05 -2.9024e-06 0)
(2.98779e-05 -2.11353e-06 0)
(3.75601e-05 -1.31761e-06 0)
(4.26464e-05 -5.224e-07 0)
(4.51782e-05 2.6166e-07 0)
(4.52381e-05 1.02005e-06 0)
(4.29649e-05 1.73201e-06 0)
(3.8573e-05 2.36697e-06 0)
(3.23827e-05 2.87859e-06 0)
(2.48619e-05 3.19643e-06 0)
(1.66768e-05 3.21568e-06 0)
(8.7789e-06 2.78015e-06 0)
(2.64345e-06 1.69717e-06 0)
(1.22257e-07 1.22323e-07 0)
(1.77626e-06 -2.87972e-06 0)
(9.37927e-06 -9.41458e-06 0)
(2.31341e-05 -1.34182e-05 0)
(3.93733e-05 -1.47266e-05 0)
(5.52528e-05 -1.39618e-05 0)
(6.87795e-05 -1.16946e-05 0)
(7.84151e-05 -8.36488e-06 0)
(8.30033e-05 -4.30115e-06 0)
(8.17119e-05 2.56294e-07 0)
(7.39624e-05 5.13172e-06 0)
(5.93712e-05 1.01965e-05 0)
(3.7706e-05 1.53546e-05 0)
(8.85147e-06 2.05341e-05 0)
(-2.72166e-05 2.56797e-05 0)
(-7.04502e-05 3.07488e-05 0)
(-0.000120744 3.57085e-05 0)
(-0.000177948 4.05327e-05 0)
(-0.000241876 4.52016e-05 0)
(-0.000312314 4.96994e-05 0)
(-0.000389025 5.40143e-05 0)
(-0.000471754 5.81368e-05 0)
(-0.000560233 6.20593e-05 0)
(-0.000654181 6.57767e-05 0)
(-0.000753311 6.92852e-05 0)
(-0.000857327 7.25824e-05 0)
(-0.000965932 7.56667e-05 0)
(-0.00107882 7.85374e-05 0)
(-0.0011957 8.11943e-05 0)
(-0.00131625 8.36381e-05 0)
(-0.00144019 8.58699e-05 0)
(-0.00156719 8.78914e-05 0)
(-0.00169697 8.97047e-05 0)
(-0.00182923 9.13121e-05 0)
(-0.00196367 9.27159e-05 0)
(-0.0021 9.3919e-05 0)
(-0.00223793 9.49245e-05 0)
(-0.00237718 9.57355e-05 0)
(-0.00251747 9.63554e-05 0)
(-0.00265853 9.67876e-05 0)
(-0.00280008 9.70357e-05 0)
(-0.00294186 9.71032e-05 0)
(-0.00308361 9.69941e-05 0)
(-0.00322507 9.67121e-05 0)
(-0.003366 9.6261e-05 0)
(-0.00350616 9.56449e-05 0)
(-0.0036453 9.48677e-05 0)
(-0.0037832 9.39334e-05 0)
(-0.00391962 9.28462e-05 0)
(-0.00405435 9.161e-05 0)
(-0.00418717 9.02289e-05 0)
(-0.00431787 8.87071e-05 0)
(-0.00444625 8.70486e-05 0)
(-0.00457212 8.52577e-05 0)
(-0.00469527 8.33384e-05 0)
(-0.00481554 8.1295e-05 0)
(-0.00493273 7.91317e-05 0)
(-0.00504668 7.68527e-05 0)
(-0.00515721 7.44621e-05 0)
(-0.00526418 7.19643e-05 0)
(-0.00536742 6.93633e-05 0)
(-0.00546679 6.66635e-05 0)
(-0.00556214 6.3869e-05 0)
(-0.00565334 6.09843e-05 0)
(-0.00574027 5.80135e-05 0)
(-0.00582279 5.4961e-05 0)
(-0.00590079 5.18312e-05 0)
(-0.00597417 4.86285e-05 0)
(-0.00604281 4.53571e-05 0)
(-0.00610662 4.20215e-05 0)
(-0.00616551 3.86262e-05 0)
(-0.0062194 3.51755e-05 0)
(-0.0062682 3.16741e-05 0)
(-0.00631185 2.81265e-05 0)
(-0.00635029 2.45371e-05 0)
(-0.00638345 2.09107e-05 0)
(-0.00641128 1.7252e-05 0)
(-0.00643375 1.35655e-05 0)
(-0.00645081 9.85611e-06 0)
(-0.00646243 6.12842e-06 0)
(-0.0064686 2.38731e-06 0)
(-0.00646929 -1.3623e-06 0)
(-0.0064645 -5.11546e-06 0)
(-0.00645423 -8.86724e-06 0)
(-0.00643847 -1.26127e-05 0)
(-0.00641726 -1.63468e-05 0)
(-0.0063906 -2.00645e-05 0)
(-0.00635852 -2.37605e-05 0)
(-0.00632107 -2.74298e-05 0)
(-0.00627828 -3.10671e-05 0)
(-0.00623021 -3.46672e-05 0)
(-0.00617691 -3.82248e-05 0)
(-0.00611845 -4.17346e-05 0)
(-0.0060549 -4.51912e-05 0)
(-0.00598636 -4.85893e-05 0)
(-0.0059129 -5.19235e-05 0)
(-0.00583462 -5.51883e-05 0)
(-0.00575164 -5.83784e-05 0)
(-0.00566406 -6.14883e-05 0)
(-0.00557201 -6.45124e-05 0)
(-0.00547561 -6.74455e-05 0)
(-0.00537501 -7.02821e-05 0)
(-0.00527035 -7.30168e-05 0)
(-0.00516178 -7.56441e-05 0)
(-0.00504946 -7.81588e-05 0)
(-0.00493356 -8.05553e-05 0)
(-0.00481426 -8.28285e-05 0)
(-0.00469175 -8.4973e-05 0)
(-0.0045662 -8.69837e-05 0)
(-0.00443784 -8.88555e-05 0)
(-0.00430685 -9.05833e-05 0)
(-0.00417345 -9.2162e-05 0)
(-0.00403787 -9.35869e-05 0)
(-0.00390033 -9.4853e-05 0)
(-0.00376107 -9.59558e-05 0)
(-0.00362033 -9.68907e-05 0)
(-0.00347835 -9.76532e-05 0)
(-0.00333539 -9.82391e-05 0)
(-0.00319171 -9.86443e-05 0)
(-0.00304757 -9.88649e-05 0)
(-0.00290325 -9.88969e-05 0)
(-0.00275903 -9.87369e-05 0)
(-0.00261517 -9.83813e-05 0)
(-0.00247198 -9.7827e-05 0)
(-0.00232973 -9.70711e-05 0)
(-0.00218872 -9.61109e-05 0)
(-0.00204925 -9.49438e-05 0)
(-0.00191162 -9.35676e-05 0)
(-0.00177613 -9.19808e-05 0)
(-0.00164309 -9.01818e-05 0)
(-0.0015128 -8.81695e-05 0)
(-0.00138557 -8.59432e-05 0)
(-0.0012617 -8.35025e-05 0)
(-0.0011415 -8.08478e-05 0)
(-0.00102527 -7.79798e-05 0)
(-0.000913328 -7.49e-05 0)
(-0.000805958 -7.16106e-05 0)
(-0.00070346 -6.81142e-05 0)
(-0.00060612 -6.4415e-05 0)
(-0.000514219 -6.05178e-05 0)
(-0.000428028 -5.64291e-05 0)
(-0.000347806 -5.21565e-05 0)
(-0.000273798 -4.77094e-05 0)
(-0.000206231 -4.31e-05 0)
(-0.000145312 -3.83429e-05 0)
(-9.1219e-05 -3.34565e-05 0)
(-4.41014e-05 -2.84635e-05 0)
(-4.06799e-06 -2.3392e-05 0)
(2.88201e-05 -1.82773e-05 0)
(5.45614e-05 -1.31642e-05 0)
(7.32291e-05 -8.11002e-06 0)
(8.49896e-05 -3.18863e-06 0)
(9.01272e-05 1.50307e-06 0)
(8.90769e-05 5.83634e-06 0)
(8.24668e-05 9.63759e-06 0)
(7.11737e-05 1.267e-05 0)
(5.63907e-05 1.46123e-05 0)
(3.96766e-05 1.50408e-05 0)
(2.30149e-05 1.34172e-05 0)
(9.18164e-06 9.18524e-06 0)
(1.69448e-06 2.64194e-06 0)
(2.82386e-06 -9.09277e-06 0)
(1.34049e-05 -2.3164e-05 0)
(3.10677e-05 -3.1068e-05 0)
(5.08358e-05 -3.31314e-05 0)
(6.91095e-05 -3.04527e-05 0)
(8.33286e-05 -2.41245e-05 0)
(9.14118e-05 -1.50744e-05 0)
(9.17183e-05 -4.04712e-06 0)
(8.30147e-05 8.37648e-06 0)
(6.44058e-05 2.17486e-05 0)
(3.52698e-05 3.57249e-05 0)
(-4.79416e-06 5.00389e-05 0)
(-5.60097e-05 6.4483e-05 0)
(-0.000118458 7.8895e-05 0)
(-0.000192103 9.31473e-05 0)
(-0.000276818 0.000107139 0)
(-0.0003724 0.000120791 0)
(-0.000478585 0.000134039 0)
(-0.00059506 0.000146831 0)
(-0.000721472 0.000159129 0)
(-0.000857438 0.000170901 0)
(-0.00100255 0.000182123 0)
(-0.00115637 0.000192774 0)
(-0.00131846 0.000202842 0)
(-0.00148835 0.000212316 0)
(-0.00166558 0.000221188 0)
(-0.00184968 0.000229456 0)
(-0.00204016 0.000237116 0)
(-0.00223655 0.000244168 0)
(-0.00243837 0.000250615 0)
(-0.00264512 0.000256459 0)
(-0.00285634 0.000261706 0)
(-0.00307155 0.00026636 0)
(-0.00329027 0.000270428 0)
(-0.00351204 0.000273917 0)
(-0.00373639 0.000276834 0)
(-0.00396286 0.00027919 0)
(-0.00419102 0.000280992 0)
(-0.00442041 0.000282249 0)
(-0.0046506 0.000282973 0)
(-0.00488115 0.000283172 0)
(-0.00511166 0.000282857 0)
(-0.0053417 0.00028204 0)
(-0.00557088 0.000280731 0)
(-0.0057988 0.000278941 0)
(-0.00602507 0.000276682 0)
(-0.00624931 0.000273964 0)
(-0.00647116 0.0002708 0)
(-0.00669026 0.000267202 0)
(-0.00690626 0.00026318 0)
(-0.00711882 0.000258747 0)
(-0.00732761 0.000253915 0)
(-0.00753231 0.000248696 0)
(-0.00773261 0.000243102 0)
(-0.0079282 0.000237145 0)
(-0.0081188 0.000230837 0)
(-0.00830412 0.000224191 0)
(-0.0084839 0.000217219 0)
(-0.00865787 0.000209932 0)
(-0.00882577 0.000202344 0)
(-0.00898738 0.000194466 0)
(-0.00914246 0.000186312 0)
(-0.00929078 0.000177894 0)
(-0.00943214 0.000169224 0)
(-0.00956634 0.000160315 0)
(-0.00969318 0.000151179 0)
(-0.00981249 0.000141831 0)
(-0.0099241 0.000132282 0)
(-0.0100279 0.000122545 0)
(-0.0101236 0.000112634 0)
(-0.0102112 0.000102561 0)
(-0.0102905 9.234e-05 0)
(-0.0103615 8.19841e-05 0)
(-0.0104239 7.15067e-05 0)
(-0.0104778 6.09215e-05 0)
(-0.010523 5.02421e-05 0)
(-0.0105594 3.94822e-05 0)
(-0.0105871 2.86556e-05 0)
(-0.0106059 1.77765e-05 0)
(-0.0106159 6.8589e-06 0)
(-0.0106169 -4.08282e-06 0)
(-0.010609 -1.50343e-05 0)
(-0.0105922 -2.5981e-05 0)
(-0.0105665 -3.69085e-05 0)
(-0.0105319 -4.78018e-05 0)
(-0.0104885 -5.86461e-05 0)
(-0.0104362 -6.94263e-05 0)
(-0.0103752 -8.01274e-05 0)
(-0.0103055 -9.07342e-05 0)
(-0.0102273 -0.000101231 0)
(-0.0101405 -0.000111603 0)
(-0.0100454 -0.000121835 0)
(-0.00994195 -0.00013191 0)
(-0.00983041 -0.000141813 0)
(-0.00971089 -0.000151529 0)
(-0.00958355 -0.000161041 0)
(-0.00944855 -0.000170334 0)
(-0.0093061 -0.000179392 0)
(-0.00915638 -0.0001882 0)
(-0.0089996 -0.000196741 0)
(-0.008836 -0.000204999 0)
(-0.00866581 -0.00021296 0)
(-0.00848927 -0.000220606 0)
(-0.00830665 -0.000227924 0)
(-0.00811823 -0.000234896 0)
(-0.00792429 -0.000241508 0)
(-0.00772513 -0.000247745 0)
(-0.00752106 -0.000253592 0)
(-0.00731241 -0.000259034 0)
(-0.00709951 -0.000264055 0)
(-0.00688271 -0.000268643 0)
(-0.00666237 -0.000272783 0)
(-0.00643885 -0.000276461 0)
(-0.00621254 -0.000279663 0)
(-0.00598383 -0.000282377 0)
(-0.00575311 -0.000284591 0)
(-0.00552081 -0.000286291 0)
(-0.00528734 -0.000287467 0)
(-0.00505312 -0.000288107 0)
(-0.0048186 -0.0002882 0)
(-0.00458423 -0.000287736 0)
(-0.00435045 -0.000286707 0)
(-0.00411773 -0.000285102 0)
(-0.00388653 -0.000282915 0)
(-0.00365733 -0.000280137 0)
(-0.0034306 -0.000276762 0)
(-0.00320683 -0.000272786 0)
(-0.0029865 -0.000268202 0)
(-0.00277009 -0.000263008 0)
(-0.0025581 -0.000257202 0)
(-0.00235102 -0.000250783 0)
(-0.00214934 -0.000243751 0)
(-0.00195353 -0.000236107 0)
(-0.0017641 -0.000227856 0)
(-0.0015815 -0.000219004 0)
(-0.00140623 -0.000209558 0)
(-0.00123873 -0.000199529 0)
(-0.00107946 -0.000188931 0)
(-0.000928856 -0.00017778 0)
(-0.000787337 -0.000166096 0)
(-0.000655301 -0.000153907 0)
(-0.00053312 -0.000141244 0)
(-0.000421136 -0.000128144 0)
(-0.000319654 -0.000114655 0)
(-0.000228932 -0.000100835 0)
(-0.000149178 -8.67525e-05 0)
(-8.05304e-05 -7.24954e-05 0)
(-2.30506e-05 -5.81699e-05 0)
(2.32972e-05 -4.39086e-05 0)
(5.8667e-05 -2.98781e-05 0)
(8.33579e-05 -1.62887e-05 0)
(9.78465e-05 -3.40819e-06 0)
(0.000102829 8.42074e-06 0)
(9.92683e-05 1.87571e-05 0)
(8.8459e-05 2.70336e-05 0)
(7.2088e-05 3.25302e-05 0)
(5.22611e-05 3.43636e-05 0)
(3.15252e-05 3.15161e-05 0)
(1.3415e-05 2.30169e-05 0)
(2.7761e-06 8.77346e-06 0)
(3.20612e-06 -1.69381e-05 0)
(1.47512e-05 -3.94152e-05 0)
(3.32103e-05 -5.08476e-05 0)
(5.27181e-05 -5.26042e-05 0)
(6.91702e-05 -4.64216e-05 0)
(7.96558e-05 -3.39716e-05 0)
(8.17625e-05 -1.67133e-05 0)
(7.35408e-05 4.14034e-06 0)
(5.34829e-05 2.76083e-05 0)
(2.04608e-05 5.29084e-05 0)
(-2.6335e-05 7.94193e-05 0)
(-8.74488e-05 0.000106647 0)
(-0.000163204 0.0001342 0)
(-0.000253742 0.000161764 0)
(-0.000359052 0.000189089 0)
(-0.000479001 0.000215974 0)
(-0.000613355 0.000242258 0)
(-0.000761794 0.000267811 0)
(-0.000923928 0.000292528 0)
(-0.00109931 0.000316324 0)
(-0.00128746 0.000339134 0)
(-0.00148784 0.000360904 0)
(-0.00169989 0.000381593 0)
(-0.00192303 0.000401168 0)
(-0.00215665 0.000419605 0)
(-0.00240014 0.000436888 0)
(-0.00265287 0.000453004 0)
(-0.00291421 0.000467947 0)
(-0.00318351 0.000481715 0)
(-0.00346012 0.000494309 0)
(-0.00374341 0.000505732 0)
(-0.00403273 0.000515992 0)
(-0.00432743 0.000525098 0)
(-0.00462689 0.00053306 0)
(-0.00493047 0.000539892 0)
(-0.00523755 0.000545607 0)
(-0.0055475 0.000550221 0)
(-0.00585972 0.000553751 0)
(-0.00617361 0.000556214 0)
(-0.00648857 0.000557629 0)
(-0.00680402 0.000558016 0)
(-0.00711939 0.000557393 0)
(-0.00743412 0.000555782 0)
(-0.00774765 0.000553204 0)
(-0.00805946 0.00054968 0)
(-0.00836901 0.000545232 0)
(-0.00867579 0.000539882 0)
(-0.0089793 0.000533653 0)
(-0.00927904 0.000526567 0)
(-0.00957454 0.000518647 0)
(-0.00986534 0.000509917 0)
(-0.010151 0.000500399 0)
(-0.010431 0.000490118 0)
(-0.010705 0.000479097 0)
(-0.0109726 0.00046736 0)
(-0.0112334 0.00045493 0)
(-0.0114869 0.000441833 0)
(-0.0117328 0.000428091 0)
(-0.0119708 0.000413729 0)
(-0.0122005 0.000398772 0)
(-0.0124216 0.000383244 0)
(-0.0126338 0.000367169 0)
(-0.0128367 0.000350573 0)
(-0.01303 0.00033348 0)
(-0.0132136 0.000315916 0)
(-0.0133871 0.000297905 0)
(-0.0135503 0.000279473 0)
(-0.0137029 0.000260645 0)
(-0.0138448 0.000241447 0)
(-0.0139757 0.000221905 0)
(-0.0140955 0.000202044 0)
(-0.014204 0.000181891 0)
(-0.0143009 0.000161473 0)
(-0.0143863 0.000140815 0)
(-0.0144599 0.000119946 0)
(-0.0145217 9.88903e-05 0)
(-0.0145714 7.76771e-05 0)
(-0.0146092 5.63333e-05 0)
(-0.0146349 3.48867e-05 0)
(-0.0146484 1.33652e-05 0)
(-0.0146497 -8.20293e-06 0)
(-0.0146388 -2.97892e-05 0)
(-0.0146157 -5.13651e-05 0)
(-0.0145804 -7.29016e-05 0)
(-0.014533 -9.43695e-05 0)
(-0.0144734 -0.000115739 0)
(-0.0144018 -0.000136982 0)
(-0.0143182 -0.000158067 0)
(-0.0142228 -0.000178964 0)
(-0.0141157 -0.000199644 0)
(-0.0139969 -0.000220076 0)
(-0.0138666 -0.000240229 0)
(-0.0137251 -0.000260072 0)
(-0.0135724 -0.000279576 0)
(-0.0134089 -0.000298708 0)
(-0.0132346 -0.000317438 0)
(-0.0130499 -0.000335735 0)
(-0.012855 -0.000353568 0)
(-0.0126502 -0.000370905 0)
(-0.0124357 -0.000387716 0)
(-0.0122119 -0.000403969 0)
(-0.0119791 -0.000419634 0)
(-0.0117377 -0.00043468 0)
(-0.0114879 -0.000449076 0)
(-0.0112302 -0.000462793 0)
(-0.010965 -0.0004758 0)
(-0.0106927 -0.000488067 0)
(-0.0104136 -0.000499566 0)
(-0.0101283 -0.000510266 0)
(-0.00983722 -0.000520141 0)
(-0.00954079 -0.000529161 0)
(-0.00923953 -0.0005373 0)
(-0.00893393 -0.00054453 0)
(-0.00862453 -0.000550827 0)
(-0.00831183 -0.000556163 0)
(-0.00799641 -0.000560516 0)
(-0.00767881 -0.000563862 0)
(-0.0073596 -0.000566178 0)
(-0.00703937 -0.000567442 0)
(-0.00671872 -0.000567634 0)
(-0.00639824 -0.000566735 0)
(-0.00607856 -0.000564727 0)
(-0.0057603 -0.000561594 0)
(-0.00544409 -0.00055732 0)
(-0.00513057 -0.000551892 0)
(-0.00482039 -0.000545298 0)
(-0.00451419 -0.000537529 0)
(-0.00421263 -0.000528577 0)
(-0.00391638 -0.000518436 0)
(-0.00362608 -0.000507103 0)
(-0.0033424 -0.000494579 0)
(-0.00306599 -0.000480864 0)
(-0.0027975 -0.000465966 0)
(-0.00253758 -0.000449893 0)
(-0.00228687 -0.000432659 0)
(-0.00204599 -0.000414282 0)
(-0.00181555 -0.000394785 0)
(-0.00159616 -0.000374199 0)
(-0.00138837 -0.000352559 0)
(-0.00119275 -0.00032991 0)
(-0.0010098 -0.000306307 0)
(-0.000840015 -0.000281817 0)
(-0.000683817 -0.000256519 0)
(-0.000541592 -0.000230509 0)
(-0.000413659 -0.000203906 0)
(-0.000300263 -0.00017685 0)
(-0.000201559 -0.000149515 0)
(-0.000117593 -0.000122111 0)
(-4.82858e-05 -9.48979e-05 0)
(6.597e-06 -6.81955e-05 0)
(4.74728e-05 -4.24003e-05 0)
(7.49798e-05 -1.80057e-05 0)
(9.00186e-05 4.37272e-06 0)
(9.38013e-05 2.39666e-05 0)
(8.79078e-05 3.98226e-05 0)
(7.43439e-05 5.07747e-05 0)
(5.55522e-05 5.54395e-05 0)
(3.44366e-05 5.22636e-05 0)
(1.50603e-05 3.96949e-05 0)
(3.21415e-06 1.66713e-05 0)
(3.13445e-06 -2.4917e-05 0)
(1.40446e-05 -5.53629e-05 0)
(3.06703e-05 -6.92027e-05 0)
(4.67716e-05 -6.90951e-05 0)
(5.79645e-05 -5.75513e-05 0)
(6.11173e-05 -3.68726e-05 0)
(5.3621e-05 -9.0658e-06 0)
(3.33397e-05 2.41753e-05 0)
(-1.40763e-06 6.14504e-05 0)
(-5.19056e-05 0.000101615 0)
(-0.000119099 0.000143739 0)
(-0.000203641 0.000187068 0)
(-0.000305935 0.000230991 0)
(-0.000426175 0.000275013 0)
(-0.000564376 0.000318732 0)
(-0.000720408 0.00036182 0)
(-0.000894012 0.000404011 0)
(-0.00108483 0.000445088 0)
(-0.00129241 0.000484876 0)
(-0.00151624 0.000523231 0)
(-0.00175573 0.000560037 0)
(-0.00201026 0.000595203 0)
(-0.00227916 0.000628654 0)
(-0.00256172 0.000660333 0)
(-0.00285722 0.000690195 0)
(-0.0031649 0.000718208 0)
(-0.003484 0.000744349 0)
(-0.00381374 0.000768602 0)
(-0.00415333 0.000790959 0)
(-0.00450199 0.000811421 0)
(-0.00485892 0.000829989 0)
(-0.00522332 0.000846673 0)
(-0.0055944 0.000861485 0)
(-0.00597138 0.00087444 0)
(-0.00635347 0.000885557 0)
(-0.00673989 0.000894858 0)
(-0.00712988 0.000902366 0)
(-0.00752268 0.000908108 0)
(-0.00791753 0.000912109 0)
(-0.00831369 0.0009144 0)
(-0.00871045 0.000915011 0)
(-0.00910709 0.000913974 0)
(-0.0095029 0.000911321 0)
(-0.0098972 0.000907085 0)
(-0.0102893 0.000901302 0)
(-0.0106786 0.000894007 0)
(-0.0110643 0.000885234 0)
(-0.011446 0.000875021 0)
(-0.0118229 0.000863404 0)
(-0.0121945 0.00085042 0)
(-0.0125601 0.000836108 0)
(-0.0129193 0.000820504 0)
(-0.0132714 0.000803648 0)
(-0.0136159 0.000785578 0)
(-0.0139524 0.000766333 0)
(-0.0142802 0.000745951 0)
(-0.014599 0.000724473 0)
(-0.0149082 0.000701937 0)
(-0.0152075 0.000678384 0)
(-0.0154963 0.000653853 0)
(-0.0157742 0.000628385 0)
(-0.0160409 0.00060202 0)
(-0.016296 0.000574799 0)
(-0.0165391 0.000546763 0)
(-0.0167699 0.000517952 0)
(-0.016988 0.000488408 0)
(-0.0171931 0.000458173 0)
(-0.017385 0.000427289 0)
(-0.0175633 0.000395798 0)
(-0.0177278 0.000363741 0)
(-0.0178784 0.000331163 0)
(-0.0180146 0.000298106 0)
(-0.0181365 0.000264614 0)
(-0.0182437 0.000230729 0)
(-0.0183362 0.000196498 0)
(-0.0184137 0.000161963 0)
(-0.0184762 0.00012717 0)
(-0.0185235 9.21634e-05 0)
(-0.0185557 5.69898e-05 0)
(-0.0185725 2.16947e-05 0)
(-0.018574 -1.36754e-05 0)
(-0.0185602 -4.90739e-05 0)
(-0.018531 -8.44535e-05 0)
(-0.0184866 -0.000119767 0)
(-0.0184268 -0.000154966 0)
(-0.0183518 -0.000190002 0)
(-0.0182617 -0.000224827 0)
(-0.0181565 -0.000259392 0)
(-0.0180364 -0.000293648 0)
(-0.0179016 -0.000327545 0)
(-0.0177521 -0.000361032 0)
(-0.0175883 -0.000394061 0)
(-0.0174102 -0.000426581 0)
(-0.0172182 -0.00045854 0)
(-0.0170125 -0.00048989 0)
(-0.0167934 -0.000520578 0)
(-0.0165612 -0.000550554 0)
(-0.0163161 -0.000579767 0)
(-0.0160586 -0.000608166 0)
(-0.0157889 -0.000635701 0)
(-0.0155076 -0.000662321 0)
(-0.0152149 -0.000687975 0)
(-0.0149114 -0.000712614 0)
(-0.0145975 -0.000736188 0)
(-0.0142736 -0.000758647 0)
(-0.0139402 -0.000779942 0)
(-0.0135979 -0.000800026 0)
(-0.0132472 -0.000818849 0)
(-0.0128887 -0.000836367 0)
(-0.0125228 -0.000852531 0)
(-0.0121503 -0.000867297 0)
(-0.0117717 -0.00088062 0)
(-0.0113876 -0.000892458 0)
(-0.0109988 -0.000902768 0)
(-0.0106058 -0.00091151 0)
(-0.0102094 -0.000918643 0)
(-0.00981026 -0.000924131 0)
(-0.00940907 -0.000927937 0)
(-0.00900658 -0.000930026 0)
(-0.00860353 -0.000930367 0)
(-0.00820068 -0.000928928 0)
(-0.0077988 -0.000925681 0)
(-0.00739865 -0.000920601 0)
(-0.00700103 -0.000913663 0)
(-0.00660674 -0.000904848 0)
(-0.00621657 -0.000894138 0)
(-0.00583133 -0.000881518 0)
(-0.00545184 -0.000866977 0)
(-0.00507891 -0.000850508 0)
(-0.00471336 -0.000832109 0)
(-0.00435599 -0.000811779 0)
(-0.00400762 -0.000789527 0)
(-0.00366905 -0.000765364 0)
(-0.00334106 -0.000739308 0)
(-0.00302445 -0.000711385 0)
(-0.00271998 -0.000681627 0)
(-0.00242839 -0.000650077 0)
(-0.0021504 -0.000616787 0)
(-0.00188672 -0.000581821 0)
(-0.00163799 -0.000545258 0)
(-0.00140484 -0.000507191 0)
(-0.00118783 -0.000467733 0)
(-0.000987483 -0.000427021 0)
(-0.000804236 -0.000385217 0)
(-0.000638457 -0.000342516 0)
(-0.000490416 -0.000299153 0)
(-0.000360275 -0.000255412 0)
(-0.000248063 -0.000211634 0)
(-0.000153659 -0.000168234 0)
(-7.67609e-05 -0.000125716 0)
(-1.68549e-05 -8.46958e-05 0)
(2.68202e-05 -4.59252e-05 0)
(5.53135e-05 -1.0323e-05 0)
(7.00066e-05 2.099e-05 0)
(7.26653e-05 4.6656e-05 0)
(6.54922e-05 6.50501e-05 0)
(5.11378e-05 7.42704e-05 0)
(3.27419e-05 7.21732e-05 0)
(1.46829e-05 5.64748e-05 0)
(3.20298e-06 2.48731e-05 0)
(2.77268e-06 -3.20915e-05 0)
(1.18587e-05 -6.90448e-05 0)
(2.45421e-05 -8.36166e-05 0)
(3.46657e-05 -7.97442e-05 0)
(3.77825e-05 -6.0769e-05 0)
(3.06463e-05 -2.9648e-05 0)
(1.05501e-05 1.10547e-05 0)
(-2.47366e-05 5.91627e-05 0)
(-7.69907e-05 0.000112851 0)
(-0.000147591 0.000170601 0)
(-0.000237567 0.000231158 0)
(-0.000347643 0.000293487 0)
(-0.00047828 0.000356739 0)
(-0.000629709 0.000420211 0)
(-0.000801967 0.00048333 0)
(-0.000994922 0.00054562 0)
(-0.0012083 0.00060669 0)
(-0.00144171 0.000666222 0)
(-0.00169465 0.000723949 0)
(-0.00196654 0.000779657 0)
(-0.00225673 0.00083317 0)
(-0.0025645 0.000884343 0)
(-0.00288909 0.000933063 0)
(-0.00322968 0.000979237 0)
(-0.00358545 0.00102279 0)
(-0.00395551 0.00106368 0)
(-0.00433899 0.00110186 0)
(-0.00473497 0.0011373 0)
(-0.00514254 0.00116998 0)
(-0.00556077 0.00119991 0)
(-0.00598874 0.00122708 0)
(-0.00642551 0.00125149 0)
(-0.00687014 0.00127317 0)
(-0.00732172 0.00129214 0)
(-0.00777931 0.00130842 0)
(-0.008242 0.00132203 0)
(-0.00870888 0.00133302 0)
(-0.00917905 0.00134141 0)
(-0.00965162 0.00134725 0)
(-0.0101257 0.00135057 0)
(-0.0106005 0.00135142 0)
(-0.0110751 0.00134985 0)
(-0.0115486 0.0013459 0)
(-0.0120204 0.00133962 0)
(-0.0124894 0.00133106 0)
(-0.0129551 0.00132027 0)
(-0.0134166 0.00130731 0)
(-0.0138731 0.00129222 0)
(-0.0143239 0.00127505 0)
(-0.0147683 0.00125587 0)
(-0.0152057 0.00123473 0)
(-0.0156353 0.00121169 0)
(-0.0160564 0.00118679 0)
(-0.0164685 0.0011601 0)
(-0.0168709 0.00113168 0)
(-0.017263 0.00110157 0)
(-0.0176443 0.00106985 0)
(-0.0180141 0.00103656 0)
(-0.0183719 0.00100177 0)
(-0.0187173 0.000965536 0)
(-0.0190497 0.000927916 0)
(-0.0193686 0.00088897 0)
(-0.0196737 0.000848759 0)
(-0.0199644 0.000807343 0)
(-0.0202403 0.000764783 0)
(-0.0205011 0.000721139 0)
(-0.0207463 0.000676475 0)
(-0.0209757 0.000630851 0)
(-0.0211889 0.00058433 0)
(-0.0213856 0.000536975 0)
(-0.0215655 0.00048885 0)
(-0.0217284 0.000440017 0)
(-0.021874 0.000390543 0)
(-0.0220021 0.00034049 0)
(-0.0221126 0.000289925 0)
(-0.0222052 0.000238914 0)
(-0.0222798 0.000187522 0)
(-0.0223363 0.000135818 0)
(-0.0223746 8.38676e-05 0)
(-0.0223946 3.17398e-05 0)
(-0.0223963 -2.04968e-05 0)
(-0.0223796 -7.27732e-05 0)
(-0.0223446 -0.000125019 0)
(-0.0222912 -0.000177165 0)
(-0.0222196 -0.00022914 0)
(-0.0221298 -0.000280872 0)
(-0.0220219 -0.00033229 0)
(-0.021896 -0.000383321 0)
(-0.0217523 -0.000433893 0)
(-0.0215909 -0.000483931 0)
(-0.0214121 -0.000533364 0)
(-0.0212161 -0.000582116 0)
(-0.0210031 -0.000630113 0)
(-0.0207734 -0.000677282 0)
(-0.0205274 -0.000723546 0)
(-0.0202653 -0.000768832 0)
(-0.0199875 -0.000813065 0)
(-0.0196944 -0.000856169 0)
(-0.0193864 -0.000898071 0)
(-0.019064 -0.000938694 0)
(-0.0187276 -0.000977965 0)
(-0.0183777 -0.00101581 0)
(-0.0180148 -0.00105216 0)
(-0.0176394 -0.00108693 0)
(-0.0172521 -0.00112005 0)
(-0.0168536 -0.00115146 0)
(-0.0164444 -0.00118108 0)
(-0.0160251 -0.00120885 0)
(-0.0155964 -0.00123468 0)
(-0.015159 -0.00125853 0)
(-0.0147137 -0.00128031 0)
(-0.0142611 -0.00129996 0)
(-0.0138019 -0.00131743 0)
(-0.013337 -0.00133265 0)
(-0.0128672 -0.00134556 0)
(-0.0123933 -0.0013561 0)
(-0.011916 -0.00136422 0)
(-0.0114363 -0.00136987 0)
(-0.010955 -0.00137299 0)
(-0.010473 -0.00137355 0)
(-0.00999123 -0.00137149 0)
(-0.00951053 -0.00136677 0)
(-0.00903184 -0.00135937 0)
(-0.00855611 -0.00134925 0)
(-0.00808427 -0.00133637 0)
(-0.00761727 -0.00132071 0)
(-0.00715607 -0.00130227 0)
(-0.00670163 -0.00128101 0)
(-0.00625489 -0.00125693 0)
(-0.00581683 -0.00123004 0)
(-0.00538839 -0.00120033 0)
(-0.00497052 -0.00116782 0)
(-0.00456417 -0.00113254 0)
(-0.00417026 -0.0010945 0)
(-0.0037897 -0.00105376 0)
(-0.00342338 -0.00101036 0)
(-0.00307217 -0.000964372 0)
(-0.0027369 -0.00091588 0)
(-0.00241838 -0.000864983 0)
(-0.00211736 -0.0008118 0)
(-0.00183454 -0.000756475 0)
(-0.00157058 -0.000699181 0)
(-0.00132605 -0.000640123 0)
(-0.00110144 -0.000579544 0)
(-0.000897163 -0.000517734 0)
(-0.000713507 -0.000455039 0)
(-0.000550639 -0.000391874 0)
(-0.000408574 -0.000328731 0)
(-0.000287158 -0.000266202 0)
(-0.000186039 -0.000205 0)
(-0.000104634 -0.000145978 0)
(-4.20962e-05 -9.01674e-05 0)
(2.72016e-06 -3.88043e-05 0)
(3.13023e-05 6.62736e-06 0)
(4.55247e-05 4.43593e-05 0)
(4.76987e-05 7.23025e-05 0)
(4.05891e-05 8.80247e-05 0)
(2.747e-05 8.87552e-05 0)
(1.28264e-05 7.14131e-05 0)
(2.89981e-06 3.24442e-05 0)
(2.22822e-06 -3.78206e-05 0)
(8.63241e-06 -7.89486e-05 0)
(1.57456e-05 -9.20435e-05 0)
(1.78409e-05 -8.2182e-05 0)
(1.0597e-05 -5.35119e-05 0)
(-9.24815e-06 -9.63945e-06 0)
(-4.44178e-05 4.63221e-05 0)
(-9.71642e-05 0.000111719 0)
(-0.000169298 0.000184305 0)
(-0.000262238 0.00026219 0)
(-0.000377055 0.000343787 0)
(-0.000514512 0.000427774 0)
(-0.000675098 0.000513046 0)
(-0.000859066 0.000598685 0)
(-0.00106646 0.000683926 0)
(-0.00129715 0.000768132 0)
(-0.00155083 0.000850773 0)
(-0.00182709 0.00093141 0)
(-0.00212539 0.00100968 0)
(-0.00244509 0.00108528 0)
(-0.00278547 0.00115796 0)
(-0.00314574 0.00122752 0)
(-0.00352504 0.00129379 0)
(-0.00392249 0.00135664 0)
(-0.00433714 0.00141597 0)
(-0.00476801 0.0014717 0)
(-0.00521412 0.00152375 0)
(-0.00567443 0.0015721 0)
(-0.00614791 0.00161671 0)
(-0.00663352 0.00165756 0)
(-0.00713019 0.00169466 0)
(-0.00763688 0.00172801 0)
(-0.00815251 0.00175763 0)
(-0.00867603 0.00178354 0)
(-0.00920639 0.00180577 0)
(-0.00974254 0.00182436 0)
(-0.0102834 0.00183935 0)
(-0.0108281 0.00185078 0)
(-0.0113754 0.00185871 0)
(-0.0119244 0.00186319 0)
(-0.0124741 0.00186429 0)
(-0.0130236 0.00186204 0)
(-0.0135719 0.00185654 0)
(-0.0141179 0.00184782 0)
(-0.0146609 0.00183597 0)
(-0.0151999 0.00182106 0)
(-0.015734 0.00180314 0)
(-0.0162623 0.0017823 0)
(-0.0167841 0.00175861 0)
(-0.0172984 0.00173214 0)
(-0.0178046 0.00170297 0)
(-0.0183017 0.00167117 0)
(-0.018789 0.00163682 0)
(-0.0192658 0.0016 0)
(-0.0197315 0.00156078 0)
(-0.0201852 0.00151925 0)
(-0.0206263 0.00147548 0)
(-0.0210542 0.00142956 0)
(-0.0214682 0.00138156 0)
(-0.0218678 0.00133157 0)
(-0.0222524 0.00127967 0)
(-0.0226214 0.00122594 0)
(-0.0229742 0.00117047 0)
(-0.0233105 0.00111333 0)
(-0.0236297 0.00105461 0)
(-0.0239313 0.000994401 0)
(-0.024215 0.000932781 0)
(-0.0244803 0.000869838 0)
(-0.0247269 0.000805659 0)
(-0.0249544 0.000740329 0)
(-0.0251624 0.000673937 0)
(-0.0253508 0.000606571 0)
(-0.0255191 0.00053832 0)
(-0.0256672 0.000469273 0)
(-0.0257949 0.000399521 0)
(-0.0259019 0.000329155 0)
(-0.0259881 0.000258266 0)
(-0.0260533 0.000186948 0)
(-0.0260975 0.000115293 0)
(-0.0261205 4.33949e-05 0)
(-0.0261223 -2.86503e-05 0)
(-0.0261029 -0.000100748 0)
(-0.0260622 -0.000172801 0)
(-0.0260004 -0.000244713 0)
(-0.0259174 -0.000316385 0)
(-0.0258133 -0.00038772 0)
(-0.0256883 -0.000458619 0)