/*--------------------------------*- C++ -*----------------------------------*\
  =========                 |
  \\      /  F ield         | OpenFOAM: The Open Source CFD Toolbox
   \\    /   O peration     | Website:  https://openfoam.org
    \\  /    A nd           | Version:  7
     \\/     M anipulation  |
\*---------------------------------------------------------------------------*/
FoamFile
{
    version     2.0;
    format      ascii;
    class       volScalarField;
    location    "0.2";
    object      p;
}
// * * * * * * * * * * * * * * * * * * * * * * * * * * * * * * * * * * * * * //

dimensions      [0 2 -2 0 0 0 0];

internalField   nonuniform List<scalar> 
25600
(
2.70412e-09
-2.22346e-07
-2.69322e-06
-7.24837e-06
-1.32682e-05
-2.01798e-05
-2.75454e-05
-3.50069e-05
-4.22645e-05
-4.90757e-05
-5.52496e-05
-6.06253e-05
-6.50755e-05
-6.85205e-05
-7.09142e-05
-7.2212e-05
-7.23638e-05
-7.13321e-05
-6.9103e-05
-6.56804e-05
-6.10745e-05
-5.52906e-05
-4.83262e-05
-4.01809e-05
-3.08668e-05
-2.0406e-05
-8.81831e-06
3.8855e-06
1.77004e-05
3.26197e-05
4.863e-05
6.5714e-05
8.3858e-05
0.000103055
0.000123304
0.0001446
0.000166932
0.000190291
0.00021467
0.000240066
0.000266479
0.000293905
0.000322338
0.00035177
0.000382198
0.000413621
0.000446037
0.000479443
0.000513832
0.000549198
0.000585536
0.000622845
0.000661121
0.000700357
0.000740546
0.000781679
0.000823749
0.000866751
0.000910675
0.000955513
0.00100125
0.00104788
0.00109539
0.00114377
0.001193
0.00124307
0.00129396
0.00134566
0.00139814
0.0014514
0.00150541
0.00156015
0.00161561
0.00167174
0.00172854
0.00178597
0.00184402
0.00190265
0.00196183
0.00202154
0.00208173
0.00214239
0.00220347
0.00226495
0.00232678
0.00238893
0.00245136
0.00251403
0.0025769
0.00263992
0.00270307
0.00276628
0.00282951
0.00289273
0.00295588
0.00301892
0.00308179
0.00314445
0.00320685
0.00326894
0.00333067
0.00339198
0.00345283
0.00351316
0.00357291
0.00363205
0.00369051
0.00374824
0.00380519
0.00386131
0.00391654
0.00397083
0.00402414
0.00407641
0.00412758
0.00417762
0.00422647
0.00427408
0.0043204
0.0043654
0.00440901
0.0044512
0.00449192
0.00453114
0.0045688
0.00460486
0.0046393
0.00467206
0.00470311
0.00473243
0.00475997
0.00478571
0.00480961
0.00483166
0.00485182
0.00487009
0.00488645
0.00490088
0.00491339
0.00492396
0.00493261
0.00493936
0.00494423
0.00494725
0.00494846
0.00494794
0.00494574
0.00494197
0.00493674
0.00493019
0.0049225
0.00491387
0.00490457
0.00489491
0.00488528
0.00487615
0.00486811
0.00486183
0.00485815
0.00485746
6.69959e-07
4.23903e-07
-1.70093e-06
-5.44779e-06
-1.03796e-05
-1.60447e-05
-2.21132e-05
-2.82868e-05
-3.43056e-05
-3.99544e-05
-4.50639e-05
-4.94889e-05
-5.30997e-05
-5.57976e-05
-5.75218e-05
-5.82305e-05
-5.78823e-05
-5.64376e-05
-5.38686e-05
-5.01627e-05
-4.53197e-05
-3.93445e-05
-3.22386e-05
-2.39996e-05
-1.46288e-05
-4.1356e-06
7.4657e-06
2.01618e-05
3.39442e-05
4.8808e-05
6.47477e-05
8.17534e-05
9.98126e-05
0.000118915
0.000139056
0.000160232
0.000182439
0.00020567
0.000229918
0.000255175
0.00028144
0.000308711
0.000336985
0.000366256
0.000396518
0.000427768
0.000460003
0.000493221
0.000527418
0.000562588
0.000598724
0.000635822
0.00067388
0.000712891
0.000752849
0.000793745
0.000835571
0.000878319
0.000921983
0.000966553
0.00101202
0.00105836
0.00110558
0.00115366
0.00120258
0.00125233
0.0013029
0.00135426
0.00140641
0.00145932
0.00151297
0.00156734
0.00162241
0.00167816
0.00173457
0.0017916
0.00184923
0.00190744
0.00196619
0.00202546
0.00208521
0.00214541
0.00220603
0.00226704
0.00232839
0.00239005
0.00245199
0.00251415
0.00257652
0.00263903
0.00270165
0.00276433
0.00282703
0.00288971
0.00295232
0.00301481
0.00307713
0.00313924
0.00320108
0.00326261
0.00332378
0.00338453
0.00344481
0.00350457
0.00356376
0.00362234
0.00368023
0.0037374
0.0037938
0.00384936
0.00390404
0.00395779
0.00401056
0.0040623
0.00411295
0.00416247
0.00421081
0.00425792
0.00430376
0.00434828
0.00439144
0.00443318
0.00447347
0.00451227
0.00454954
0.00458523
0.00461932
0.00465176
0.00468251
0.00471156
0.00473887
0.0047644
0.00478815
0.00481008
0.00483018
0.00484843
0.00486482
0.00487935
0.00489202
0.00490283
0.0049118
0.00491894
0.0049243
0.0049279
0.0049298
0.00493007
0.00492878
0.00492604
0.00492197
0.0049167
0.00491041
0.0049033
0.00489562
0.00488765
0.00487974
0.00487229
0.00486573
0.00486058
0.00485744
0.00485675
3.75574e-06
3.02341e-06
8.16226e-07
-2.62655e-06
-6.9843e-06
-1.19422e-05
-1.72165e-05
-2.25585e-05
-2.77458e-05
-3.25842e-05
-3.69217e-05
-4.06358e-05
-4.36107e-05
-4.57411e-05
-4.69516e-05
-4.71965e-05
-4.64415e-05
-4.46527e-05
-4.17996e-05
-3.78588e-05
-3.28178e-05
-2.66763e-05
-1.94389e-05
-1.11071e-05
-1.67809e-06
8.84878e-06
2.04673e-05
3.31656e-05
4.69322e-05
6.17599e-05
7.76466e-05
9.4589e-05
0.000112579
0.000131606
0.000151662
0.000172742
0.000194844
0.000217965
0.000242101
0.000267243
0.000293385
0.000320526
0.000348663
0.000377795
0.000407916
0.00043902
0.000471103
0.000504162
0.000538194
0.000573197
0.000609163
0.000646086
0.000683961
0.000722784
0.000762548
0.000803246
0.00084487
0.000887409
0.000930857
0.000975205
0.00102044
0.00106656
0.00111354
0.00116137
0.00121004
0.00125953
0.00130983
0.00136093
0.0014128
0.00146542
0.00151878
0.00157286
0.00162763
0.00168307
0.00173916
0.00179587
0.00185317
0.00191104
0.00196945
0.00202837
0.00208777
0.00214761
0.00220786
0.00226849
0.00232947
0.00239074
0.00245229
0.00251406
0.00257602
0.00263813
0.00270034
0.00276261
0.0028249
0.00288715
0.00294933
0.0030114
0.00307329
0.00313496
0.00319637
0.00325746
0.00331819
0.0033785
0.00343834
0.00349766
0.00355642
0.00361455
0.00367201
0.00372875
0.00378471
0.00383985
0.00389411
0.00394744
0.00399979
0.00405112
0.00410137
0.00415049
0.00419844
0.00424518
0.00429064
0.0043348
0.00437761
0.00441901
0.00445898
0.00449746
0.00453443
0.00456985
0.00460367
0.00463586
0.0046664
0.00469524
0.00472237
0.00474777
0.00477139
0.00479324
0.00481329
0.00483154
0.00484797
0.00486258
0.00487538
0.00488638
0.0048956
0.00490305
0.00490879
0.00491284
0.00491527
0.00491614
0.00491553
0.00491356
0.00491033
0.00490598
0.00490069
0.00489464
0.00488805
0.00488118
0.00487434
0.00486785
0.00486207
0.00485739
0.00485426
0.00485304
8.8673e-06
7.20279e-06
4.56716e-06
1.0751e-06
-3.09256e-06
-7.70189e-06
-1.25162e-05
-1.73321e-05
-2.19665e-05
-2.62459e-05
-3.00248e-05
-3.31945e-05
-3.56624e-05
-3.73374e-05
-3.81398e-05
-3.80131e-05
-3.69194e-05
-3.48305e-05
-3.17222e-05
-2.75713e-05
-2.23582e-05
-1.60723e-05
-8.71386e-06
-2.86847e-07
9.20816e-06
1.97734e-05
3.14096e-05
4.41117e-05
5.78704e-05
7.26764e-05
8.85252e-05
0.000105415
0.000123343
0.000142302
0.000162284
0.000183282
0.000205294
0.000228317
0.000252348
0.000277384
0.000303416
0.000330441
0.000358456
0.00038746
0.00041745
0.000448421
0.000480367
0.000513285
0.00054717
0.00058202
0.000617831
0.000654597
0.000692311
0.000730967
0.000770559
0.00081108
0.000852524
0.00089488
0.00093814
0.000982295
0.00102733
0.00107325
0.00112002
0.00116764
0.00121609
0.00126536
0.00131544
0.0013663
0.00141793
0.00147032
0.00152343
0.00157726
0.00163177
0.00168695
0.00174277
0.0017992
0.00185623
0.00191382
0.00197194
0.00203057
0.00208967
0.00214921
0.00220916
0.00226948
0.00233014
0.0023911
0.00245232
0.00251376
0.00257539
0.00263717
0.00269904
0.00276097
0.00282291
0.00288482
0.00294665
0.00300836
0.0030699
0.00313122
0.00319227
0.003253
0.00331337
0.00337333
0.00343281
0.00349178
0.00355018
0.00360796
0.00366507
0.00372145
0.00377707
0.00383186
0.00388578
0.00393877
0.00399079
0.00404179
0.00409172
0.00414053
0.00418817
0.0042346
0.00427977
0.00432365
0.00436617
0.00440731
0.00444702
0.00448526
0.00452199
0.00455719
0.0045908
0.0046228
0.00465317
0.00468186
0.00470886
0.00473414
0.00475768
0.00477947
0.00479949
0.00481773
0.0048342
0.00484888
0.0048618
0.00487296
0.00488237
0.00489008
0.00489612
0.00490053
0.00490337
0.00490471
0.00490463
0.00490324
0.00490064
0.00489697
0.00489239
0.00488707
0.00488121
0.00487504
0.00486881
0.0048628
0.00485731
0.00485264
0.00484906
0.00484674
1.53369e-05
1.25066e-05
9.20985e-06
5.4492e-06
1.24628e-06
-3.224e-06
-7.77039e-06
-1.22269e-05
-1.64511e-05
-2.03038e-05
-2.36505e-05
-2.63826e-05
-2.842e-05
-2.96927e-05
-3.01325e-05
-2.96797e-05
-2.82897e-05
-2.59315e-05
-2.25832e-05
-1.82275e-05
-1.28466e-05
-6.42554e-06
1.04369e-06
9.56214e-06
1.9128e-05
2.97402e-05
4.13992e-05
5.4105e-05
6.78546e-05
8.26418e-05
9.84604e-05
0.000115306
0.000133176
0.000152067
0.000171976
0.000192896
0.000214822
0.000237751
0.000261681
0.00028661
0.000312532
0.000339444
0.000367341
0.000396221
0.000426082
0.000456921
0.000488732
0.000521512
0.000555255
0.000589958
0.000625619
0.000662231
0.000699788
0.000738284
0.000777711
0.000818064
0.000859335
0.000901516
0.000944597
0.000988569
0.00103342
0.00107914
0.00112572
0.00117314
0.00122139
0.00127045
0.00132032
0.00137097
0.00142238
0.00147454
0.00152743
0.00158102
0.0016353
0.00169023
0.00174581
0.001802
0.00185877
0.00191611
0.00197397
0.00203233
0.00209116
0.00215043
0.0022101
0.00227014
0.00233051
0.00239118
0.00245212
0.00251327
0.0025746
0.00263607
0.00269764
0.00275927
0.0028209
0.0028825
0.00294402
0.00300542
0.00306665
0.00312765
0.00318839
0.00324881
0.00330886
0.0033685
0.00342767
0.00348632
0.00354441
0.00360188
0.00365868
0.00371476
0.00377007
0.00382456
0.00387819
0.00393089
0.00398262
0.00403334
0.00408298
0.00413152
0.0041789
0.00422507
0.00426999
0.00431361
0.0043559
0.00439681
0.0044363
0.00447433
0.00451086
0.00454587
0.00457931
0.00461115
0.00464136
0.00466993
0.00469681
0.004722
0.00474547
0.00476721
0.00478721
0.00480546
0.00482196
0.00483671
0.00484972
0.00486102
0.00487061
0.00487854
0.00488484
0.00488955
0.00489274
0.00489448
0.00489484
0.00489392
0.00489184
0.00488871
0.00488468
0.00487991
0.00487457
0.00486886
0.004863
0.0048572
0.00485171
0.00484678
0.00484245
0.00483869
2.26445e-05
1.85062e-05
1.4433e-05
1.02543e-05
5.84928e-06
1.34876e-06
-3.09664e-06
-7.34894e-06
-1.12928e-05
-1.48257e-05
-1.78414e-05
-2.02374e-05
-2.19336e-05
-2.28697e-05
-2.29918e-05
-2.22498e-05
-2.06006e-05
-1.80095e-05
-1.44502e-05
-9.90543e-06
-4.36284e-06
2.18915e-06
9.76155e-06
1.8362e-05
2.79933e-05
3.8654e-05
5.03419e-05
6.30561e-05
7.67972e-05
9.15642e-05
0.000107354
0.00012416
0.000141979
0.000160807
0.000180643
0.000201485
0.000223329
0.000246169
0.000270003
0.000294828
0.000320642
0.000347441
0.000375224
0.000403985
0.000433722
0.000464432
0.000496111
0.000528756
0.000562362
0.000596926
0.000632442
0.000668906
0.000706312
0.000744655
0.000783926
0.00082412
0.000865227
0.000907242
0.000950155
0.000993955
0.00103863
0.00108417
0.00113057
0.0011778
0.00122587
0.00127474
0.00132441
0.00137487
0.00142608
0.00147804
0.00153072
0.0015841
0.00163816
0.00169288
0.00174824
0.0018042
0.00186075
0.00191785
0.00197548
0.00203361
0.0020922
0.00215123
0.00221065
0.00227044
0.00233057
0.00239099
0.00245166
0.00251255
0.00257363
0.00263484
0.00269614
0.0027575
0.00281887
0.0028802
0.00294146
0.00300258
0.00306354
0.00312427
0.00318473
0.00324488
0.00330467
0.00336403
0.00342293
0.00348132
0.00353914
0.00359635
0.00365289
0.00370871
0.00376376
0.003818
0.00387137
0.00392383
0.00397532
0.0040258
0.00407521
0.00412352
0.00417067
0.00421663
0.00426134
0.00430476
0.00434685
0.00438757
0.00442687
0.00446473
0.0045011
0.00453595
0.00456924
0.00460095
0.00463105
0.0046595
0.0046863
0.00471141
0.00473482
0.00475652
0.0047765
0.00479476
0.00481129
0.0048261
0.0048392
0.00485061
0.00486036
0.00486847
0.00487498
0.00487995
0.00488343
0.00488549
0.0048862
0.00488567
0.00488398
0.00488126
0.00487763
0.00487324
0.00486825
0.00486281
0.0048571
0.00485129
0.0048456
0.0048402
0.00483495
0.00482958
3.03727e-05
2.488e-05
1.99498e-05
1.52488e-05
1.05198e-05
5.86344e-06
1.39017e-06
-2.79296e-06
-6.58459e-06
-9.9027e-06
-1.2672e-05
-1.48126e-05
-1.6249e-05
-1.69211e-05
-1.6782e-05
-1.57917e-05
-1.39153e-05
-1.11208e-05
-7.38002e-06
-2.67224e-06
3.01517e-06
9.69063e-06
1.73625e-05
2.60394e-05
3.57282e-05
4.64312e-05
5.81471e-05
7.08738e-05
8.46107e-05
9.93589e-05
0.000115118
0.000131886
0.000149657
0.000168427
0.000188196
0.000208963
0.000230724
0.000253478
0.00027722
0.000301947
0.000327656
0.000354347
0.000382017
0.000410663
0.000440282
0.000470869
0.000502421
0.000534936
0.00056841
0.00060284
0.00063822
0.000674544
0.000711808
0.000750005
0.000789129
0.000829174
0.00087013
0.00091199
0.000954746
0.000998387
0.0010429
0.00108828
0.00113451
0.00118158
0.00122947
0.00127817
0.00132767
0.00137794
0.00142898
0.00148075
0.00153325
0.00158644
0.00164032
0.00169485
0.00175001
0.00180578
0.00186213
0.00191903
0.00197645
0.00203437
0.00209276
0.00215157
0.00221079
0.00227037
0.00233028
0.00239048
0.00245093
0.00251161
0.00257246
0.00263345
0.00269453
0.00275566
0.00281681
0.00287792
0.00293894
0.00299984
0.00306057
0.00312108
0.00318132
0.00324124
0.0033008
0.00335995
0.00341863
0.00347679
0.0035344
0.00359139
0.00364771
0.00370332
0.00375817
0.00381221
0.00386538
0.00391763
0.00396893
0.00401922
0.00406845
0.00411657
0.00416355
0.00420933
0.00425387
0.00429713
0.00433907
0.00437964
0.0044188
0.00445652
0.00449276
0.00452748
0.00456066
0.00459227
0.00462227
0.00465064
0.00467736
0.00470241
0.00472578
0.00474745
0.00476742
0.00478568
0.00480224
0.0048171
0.00483028
0.00484178
0.00485165
0.00485991
0.0048666
0.00487177
0.00487548
0.00487778
0.00487877
0.00487852
0.00487712
0.00487469
0.00487133
0.00486718
0.00486236
0.00485702
0.00485129
0.00484532
0.00483926
0.00483326
0.00482699
0.00481998
3.81761e-05
3.13314e-05
2.55086e-05
2.02195e-05
1.50768e-05
1.01701e-05
5.5793e-06
1.37095e-06
-2.37218e-06
-5.57524e-06
-8.18001e-06
-1.0131e-05
-1.13688e-05
-1.18382e-05
-1.14947e-05
-1.03029e-05
-8.23362e-06
-5.261e-06
-1.36123e-06
3.48618e-06
9.29666e-06
1.60803e-05
2.38441e-05
3.2594e-05
4.23362e-05
5.30753e-05
6.48135e-05
7.75507e-05
9.12859e-05
0.000106019
0.000121749
0.000138477
0.0001562
0.000174916
0.000194622
0.000215317
0.000237
0.000259668
0.00028332
0.000307952
0.000333562
0.000360148
0.00038771
0.000416244
0.000445748
0.000476217
0.000507649
0.00054004
0.000573389
0.000607691
0.000642941
0.000679134
0.000716263
0.000754324
0.00079331
0.000833215
0.000874031
0.000915748
0.000958359
0.00100185
0.00104622
0.00109145
0.00113753
0.00118445
0.00123219
0.00128073
0.00133007
0.00138019
0.00143107
0.00148268
0.00153501
0.00158804
0.00164175
0.00169611
0.00175111
0.00180671
0.00186288
0.00191961
0.00197687
0.00203461
0.00209282
0.00215146
0.00221049
0.00226989
0.00232962
0.00238964
0.00244992
0.00251041
0.00257108
0.00263189
0.00269279
0.00275374
0.0028147
0.00287562
0.00293647
0.00299719
0.00305773
0.00311806
0.00317812
0.00323787
0.00329725
0.00335622
0.00341472
0.00347272
0.00353015
0.00358698
0.00364314
0.00369858
0.00375327
0.00380715
0.00386017
0.00391227
0.00396342
0.00401357
0.00406266
0.00411065
0.00415749
0.00420314
0.00424756
0.0042907
0.00433251
0.00437297
0.00441202
0.00444964
0.00448578
0.00452042
0.00455351
0.00458503
0.00461496
0.00464327
0.00466994
0.00469495
0.00471828
0.00473993
0.00475989
0.00477816
0.00479474
0.00480964
0.00482288
0.00483446
0.00484443
0.0048528
0.00485963
0.00486496
0.00486883
0.00487133
0.00487251
0.00487245
0.00487126
0.00486901
0.00486581
0.00486177
0.00485701
0.00485163
0.00484576
0.00483948
0.00483295
0.00482628
0.00481895
0.00481034
4.57601e-05
3.76016e-05
3.08842e-05
2.49785e-05
1.93655e-05
1.41327e-05
9.35091e-06
5.05152e-06
1.28633e-06
-1.88153e-06
-4.39919e-06
-6.22434e-06
-7.31536e-06
-7.6298e-06
-7.129e-06
-5.78007e-06
-3.55576e-06
-4.33922e-07
3.60349e-06
8.57246e-06
1.44879e-05
2.13624e-05
2.92047e-05
3.80199e-05
4.78115e-05
5.85832e-05
7.03391e-05
8.30823e-05
9.68134e-05
0.000111531
0.000127235
0.000143925
0.000161601
0.000180261
0.000199906
0.000220533
0.00024214
0.000264726
0.00028829
0.00031283
0.000338344
0.000364831
0.000392289
0.000420715
0.000450108
0.000480465
0.000511782
0.000544056
0.000577286
0.000611466
0.000646594
0.000682662
0.000719666
0.0007576
0.000796458
0.000836233
0.000876918
0.000918505
0.000960984
0.00100435
0.00104858
0.00109367
0.00113962
0.0011864
0.001234
0.00128241
0.00133161
0.00138159
0.00143233
0.0014838
0.00153599
0.00158888
0.00164245
0.00169667
0.00175152
0.00180698
0.00186301
0.00191959
0.0019767
0.0020343
0.00209237
0.00215086
0.00220975
0.00226901
0.00232859
0.00238847
0.0024486
0.00250894
0.00256947
0.00263013
0.00269089
0.0027517
0.00281252
0.0028733
0.00293401
0.00299459
0.003055
0.00311519
0.00317512
0.00323473
0.00329398
0.00335282
0.0034112
0.00346907
0.00352638
0.00358309
0.00363913
0.00369446
0.00374904
0.00380281
0.00385572
0.00390772
0.00395877
0.00400881
0.00405781
0.0041057
0.00415246
0.00419802
0.00424235
0.00428541
0.00432715
0.00436753
0.00440651
0.00444405
0.00448013
0.0045147
0.00454773
0.0045792
0.00460908
0.00463734
0.00466397
0.00468895
0.00471226
0.0047339
0.00475385
0.00477213
0.00478873
0.00480366
0.00481694
0.00482859
0.00483863
0.00484709
0.00485402
0.00485946
0.00486346
0.00486608
0.00486739
0.00486747
0.00486639
0.00486423
0.0048611
0.00485708
0.00485226
0.00484675
0.00484064
0.00483398
0.00482691
0.00481952
0.00481116
0.00480103
5.28814e-05
4.34674e-05
3.5871e-05
2.93456e-05
2.32417e-05
1.76343e-05
1.25989e-05
8.15133e-06
4.31312e-06
1.12536e-06
-1.36661e-06
-3.12551e-06
-4.12077e-06
-4.32303e-06
-3.7029e-06
-2.23257e-06
1.12368e-07
3.35195e-06
7.50168e-06
1.25738e-05
1.858e-05
2.55315e-05
3.34382e-05
4.23065e-05
5.21395e-05
6.29399e-05
7.47111e-05
8.74571e-05
0.00010118
0.000115881
0.000131558
0.000148211
0.000165841
0.000184447
0.000204031
0.000224591
0.000246126
0.000268633
0.000292111
0.000316562
0.000341984
0.000368375
0.000395733
0.000424057
0.000453344
0.000483593
0.0005148
0.000546964
0.000580082
0.000614148
0.00064916
0.000685112
0.000721999
0.000759815
0.000798554
0.000838211
0.000878777
0.000920244
0.000962603
0.00100584
0.00104996
0.00109493
0.00114076
0.00118742
0.0012349
0.00128319
0.00133227
0.00138213
0.00143275
0.0014841
0.00153617
0.00158895
0.00164239
0.0016965
0.00175123
0.00180657
0.00186248
0.00191895
0.00197595
0.00203343
0.00209138
0.00214976
0.00220854
0.00226768
0.00232716
0.00238693
0.00244695
0.00250719
0.00256761
0.00262817
0.00268882
0.00274953
0.00281025
0.00287094
0.00293155
0.00299203
0.00305235
0.00311245
0.00317229
0.00323182
0.00329099
0.00334974
0.00340804
0.00346584
0.00352307
0.0035797
0.00363568
0.00369094
0.00374545
0.00379916
0.003852
0.00390395
0.00395494
0.00400493
0.00405387
0.00410172
0.00414842
0.00419394
0.00423823
0.00428124
0.00432293
0.00436327
0.00440221
0.00443971
0.00447575
0.00451028
0.00454328
0.00457471
0.00460456
0.0046328
0.00465941
0.00468436
0.00470766
0.00472929
0.00474925
0.00476754
0.00478415
0.00479911
0.00481242
0.00482411
0.0048342
0.00484273
0.00484973
0.00485524
0.00485932
0.00486203
0.00486342
0.00486356
0.00486253
0.00486039
0.00485725
0.00485316
0.00484822
0.0048425
0.00483607
0.00482898
0.00482134
0.00481323
0.00480386
0.00479233
5.93472e-05
4.87499e-05
4.02987e-05
3.31555e-05
2.65598e-05
2.05612e-05
1.52318e-05
1.05853e-05
6.62886e-06
3.38103e-06
8.71615e-07
-8.68757e-07
-1.81531e-06
-1.94683e-06
-1.24215e-06
3.19531e-07
2.75699e-06
6.08659e-06
1.03226e-05
1.54766e-05
2.15579e-05
2.85745e-05
3.65343e-05
4.54438e-05
5.53081e-05
6.61302e-05
7.7913e-05
9.06593e-05
0.000104371
0.000119051
0.000134699
0.000151316
0.000168901
0.000187455
0.000206979
0.000227473
0.000248936
0.000271367
0.000294765
0.00031913
0.000344462
0.000370761
0.000398024
0.00042625
0.000455437
0.000485583
0.000516687
0.000548746
0.000581758
0.000615718
0.000650623
0.000686466
0.000723245
0.000760952
0.000799584
0.000839132
0.000879589
0.000920948
0.0009632
0.00100633
0.00105034
0.00109521
0.00114093
0.00118749
0.00123487
0.00128306
0.00133204
0.00138179
0.00143231
0.00148357
0.00153554
0.00158822
0.00164157
0.00169558
0.00175022
0.00180546
0.00186129
0.00191767
0.00197458
0.00203198
0.00208985
0.00214815
0.00220685
0.00226591
0.00232531
0.00238501
0.00244496
0.00250513
0.00256548
0.00262598
0.00268657
0.00274722
0.00280788
0.00286851
0.00292907
0.00298951
0.00304977
0.00310983
0.00316963
0.00322911
0.00328824
0.00334696
0.00340523
0.00346299
0.0035202
0.00357681
0.00363276
0.003688
0.00374249
0.00379618
0.00384901
0.00390094
0.00395192
0.0040019
0.00405083
0.00409867
0.00414536
0.00419087
0.00423515
0.00427815
0.00431983
0.00436016
0.00439909
0.00443658
0.00447261
0.00450713
0.00454011
0.00457154
0.00460137
0.0046296
0.0046562
0.00468115
0.00470444
0.00472607
0.00474604
0.00476433
0.00478096
0.00479593
0.00480927
0.00482099
0.00483112
0.00483969
0.00484673
0.00485229
0.00485641
0.00485915
0.00486057
0.00486072
0.00485968
0.00485751
0.00485429
0.00485008
0.00484495
0.00483896
0.00483218
0.00482462
0.0048164
0.00480757
0.00479726
0.00478445
6.49891e-05
5.32985e-05
4.40331e-05
3.62767e-05
2.91879e-05
2.27968e-05
1.71574e-05
1.22782e-05
8.16416e-06
4.82106e-06
2.26134e-06
5.04126e-07
-4.31291e-07
-5.28417e-07
2.27679e-07
1.85151e-06
4.35618e-06
7.75318e-06
1.20539e-05
1.72691e-05
2.34075e-05
3.04753e-05
3.84773e-05
4.74187e-05
5.73051e-05
6.81408e-05
7.9929e-05
9.26717e-05
0.000106371
0.000121028
0.000136644
0.000153222
0.000170763
0.000189266
0.000208732
0.000229161
0.000250554
0.00027291
0.00029623
0.000320514
0.000345761
0.00037197
0.000399142
0.000427275
0.000456367
0.000486417
0.000517424
0.000549385
0.000582298
0.000616159
0.000650964
0.000686708
0.000723387
0.000760995
0.000799528
0.000838979
0.00087934
0.000920603
0.00096276
0.0010058
0.00104972
0.00109449
0.00114012
0.00118659
0.00123389
0.00128199
0.00133089
0.00138056
0.001431
0.00148217
0.00153407
0.00158668
0.00163996
0.0016939
0.00174847
0.00180365
0.00185942
0.00191574
0.00197259
0.00202993
0.00208775
0.002146
0.00220465
0.00226368
0.00232303
0.00238269
0.00244261
0.00250275
0.00256308
0.00262354
0.00268411
0.00274474
0.00280539
0.00286601
0.00292656
0.00298699
0.00304725
0.00310731
0.00316711
0.0032266
0.00328573
0.00334447
0.00340275
0.00346053
0.00351775
0.00357438
0.00363035
0.00368562
0.00374014
0.00379385
0.00384671
0.00389868
0.00394969
0.0039997
0.00404866
0.00409653
0.00414325
0.00418879
0.00423309
0.00427612
0.00431782
0.00435817
0.00439711
0.00443462
0.00447066
0.00450519
0.00453819
0.00456962
0.00459946
0.0046277
0.0046543
0.00467926
0.00470256
0.00472419
0.00474416
0.00476246
0.00477911
0.0047941
0.00480745
0.00481919
0.00482934
0.00483792
0.00484498
0.00485056
0.00485469
0.00485743
0.00485884
0.00485896
0.00485787
0.00485561
0.00485226
0.00484788
0.00484251
0.00483623
0.00482905
0.00482102
0.00481221
0.0048027
0.00479151
0.00477754
6.96551e-05
5.6972e-05
4.69529e-05
3.8603e-05
3.10202e-05
2.42343e-05
1.82818e-05
1.31552e-05
8.85621e-06
5.38682e-06
2.74791e-06
9.46235e-07
-6.2713e-09
-9.78549e-08
6.80961e-07
2.33924e-06
4.8861e-06
8.32952e-06
1.2677e-05
1.79364e-05
2.41151e-05
3.12186e-05
3.92505e-05
4.82147e-05
5.81157e-05
6.89579e-05
8.07447e-05
9.34783e-05
0.00010716
0.000121792
0.000137376
0.000153915
0.000171409
0.000189861
0.000209269
0.000229636
0.000250961
0.000273245
0.000296489
0.000320694
0.00034586
0.000371986
0.000399071
0.000427115
0.000456118
0.000486078
0.000516994
0.000548864
0.000581685
0.000615454
0.000650168
0.000685821
0.000722409
0.000759929
0.000798374
0.000837738
0.000878014
0.000919193
0.000961267
0.00100423
0.00104806
0.00109277
0.00113832
0.00118472
0.00123194
0.00127998
0.00132881
0.00137842
0.0014288
0.00147992
0.00153176
0.00158431
0.00163754
0.00169144
0.00174597
0.00180111
0.00185684
0.00191313
0.00196995
0.00202727
0.00208507
0.0021433
0.00220194
0.00226096
0.00232031
0.00237997
0.00243989
0.00250004
0.00256037
0.00262085
0.00268144
0.00274209
0.00280277
0.00286342
0.002924
0.00298446
0.00304477
0.00310487
0.00316471
0.00322426
0.00328345
0.00334224
0.00340058
0.00345842
0.00351571
0.0035724
0.00362844
0.00368378
0.00373837
0.00379216
0.0038451
0.00389713
0.00394821
0.0039983
0.00404733
0.00409526
0.00414206
0.00418766
0.00423202
0.0042751
0.00431686
0.00435726
0.00439625
0.0044338
0.00446988
0.00450444
0.00453747
0.00456893
0.0045988
0.00462705
0.00465367
0.00467864
0.00470196
0.00472361
0.00474359
0.0047619
0.00477856
0.00479356
0.00480692
0.00481867
0.00482882
0.00483741
0.00484447
0.00485004
0.00485415
0.00485686
0.00485822
0.00485828
0.00485709
0.00485471
0.0048512
0.0048466
0.00484097
0.00483436
0.00482678
0.00481827
0.00480889
0.00479873
0.00478674
0.00477172
7.32296e-05
5.96455e-05
4.89386e-05
4.00334e-05
3.19683e-05
2.47861e-05
1.85189e-05
1.31408e-05
8.64259e-06
5.02381e-06
2.28096e-06
4.11717e-07
-5.80583e-07
-6.89961e-07
8.81519e-08
1.75775e-06
4.32429e-06
7.7936e-06
1.21705e-05
1.74589e-05
2.36636e-05
3.07888e-05
3.88381e-05
4.78151e-05
5.7723e-05
6.85651e-05
8.03445e-05
9.30634e-05
0.000106724
0.000121328
0.000136878
0.000153376
0.000170824
0.000189224
0.000208575
0.00022888
0.000250139
0.000272354
0.000295526
0.000319655
0.000344743
0.000370789
0.000397792
0.000425754
0.000454673
0.000484549
0.00051538
0.000547166
0.000579902
0.000613587
0.000648217
0.000683789
0.000720297
0.000757737
0.000796104
0.000835392
0.000875594
0.000916702
0.000958707
0.0010016
0.00104537
0.00109001
0.00113551
0.00118185
0.00122902
0.001277
0.00132578
0.00137535
0.00142569
0.00147677
0.00152858
0.0015811
0.00163431
0.00168818
0.0017427
0.00179783
0.00185355
0.00190984
0.00196666
0.00202399
0.00208179
0.00214004
0.0021987
0.00225774
0.00231713
0.00237682
0.00243678
0.00249697
0.00255736
0.00261789
0.00267854
0.00273926
0.0028
0.00286072
0.00292137
0.00298192
0.00304231
0.0031025
0.00316244
0.00322208
0.00328137
0.00334027
0.00339871
0.00345666
0.00351406
0.00357087
0.00362702
0.00368248
0.00373718
0.00379109
0.00384414
0.00389629
0.00394748
0.00399768
0.00404682
0.00409486
0.00414176
0.00418745
0.00423191
0.00427508
0.00431693
0.0043574
0.00439647
0.00443408
0.00447022
0.00450484
0.00453792
0.00456942
0.00459933
0.00462762
0.00465427
0.00467927
0.00470261
0.00472428
0.00474428
0.00476261
0.00477927
0.00479428
0.00480765
0.0048194
0.00482955
0.00483812
0.00484516
0.0048507
0.00485478
0.00485743
0.00485872
0.00485867
0.00485736
0.00485483
0.00485112
0.00484628
0.00484037
0.0048334
0.00482542
0.00481643
0.00480652
0.00479575
0.00478302
0.00476707
7.56384e-05
6.12255e-05
4.98853e-05
4.04694e-05
3.19493e-05
2.43779e-05
1.77949e-05
1.21637e-05
7.46044e-06
3.67878e-06
8.13683e-07
-1.14207e-06
-2.1934e-06
-2.34076e-06
-1.58343e-06
7.87035e-08
2.6469e-06
6.12416e-06
1.05132e-05
1.58156e-05
2.2033e-05
2.91681e-05
3.72241e-05
4.6204e-05
5.61103e-05
6.69455e-05
7.87116e-05
9.1411e-05
0.000105046
0.000119619
0.000135133
0.000151589
0.00016899
0.000187338
0.000206632
0.000226876
0.000248072
0.00027022
0.000293322
0.00031738
0.000342393
0.000368363
0.00039529
0.000423174
0.000452015
0.000481813
0.000512567
0.000544275
0.000576934
0.000610543
0.000645098
0.000680596
0.000717033
0.000754404
0.000792704
0.000831928
0.000872067
0.000913115
0.000955063
0.000997902
0.00104162
0.00108621
0.00113167
0.00117796
0.0012251
0.00127305
0.0013218
0.00137135
0.00142166
0.00147273
0.00152453
0.00157704
0.00163025
0.00168413
0.00173865
0.00179379
0.00184954
0.00190585
0.0019627
0.00202006
0.00207791
0.00213621
0.00219492
0.00225402
0.00231347
0.00237323
0.00243327
0.00249354
0.00255402
0.00261465
0.0026754
0.00273622
0.00279707
0.0028579
0.00291868
0.00297935
0.00303987
0.0031002
0.00316027
0.00322005
0.00327949
0.00333853
0.00339713
0.00345524
0.00351279
0.00356976
0.00362607
0.00368169
0.00373655
0.00379061
0.00384382
0.00389613
0.00394748
0.00399782
0.00404711
0.0040953
0.00414233
0.00418816
0.00423274
0.00427603
0.00431799
0.00435857
0.00439773
0.00443544
0.00447166
0.00450636
0.00453951
0.00457107
0.00460104
0.00462938
0.00465607
0.00468111
0.00470448
0.00472618
0.0047462
0.00476455
0.00478123
0.00479624
0.00480961
0.00482135
0.00483148
0.00484004
0.00484704
0.00485253
0.00485655
0.00485912
0.00486031
0.00486014
0.00485868
0.00485596
0.00485204
0.00484694
0.00484073
0.00483342
0.00482503
0.00481558
0.00480515
0.00479382
0.00478041
0.00476364
7.68237e-05
6.16452e-05
4.9714e-05
3.98257e-05
3.08851e-05
2.29422e-05
1.60462e-05
1.016e-05
5.2498e-06
1.2995e-06
-1.6995e-06
-3.75676e-06
-4.88286e-06
-5.08477e-06
-4.36552e-06
-2.72733e-06
-1.72509e-07
3.29791e-06
7.68403e-06
1.29858e-05
1.92033e-05
2.63376e-05
3.43907e-05
4.33647e-05
5.32614e-05
6.40823e-05
7.58293e-05
8.85045e-05
0.00010211
0.00011665
0.000132125
0.000148538
0.000165891
0.000184186
0.000203425
0.00022361
0.000244743
0.000266827
0.000289862
0.000313852
0.000338795
0.000364694
0.000391549
0.000419361
0.00044813
0.000477856
0.000508539
0.000540176
0.000572766
0.000606307
0.000640796
0.000676229
0.000712604
0.000749916
0.00078816
0.000827329
0.000867418
0.000908418
0.000950322
0.00099312
0.0010368
0.00108136
0.00112678
0.00117306
0.00122017
0.0012681
0.00131685
0.00136638
0.0014167
0.00146777
0.00151958
0.00157211
0.00162534
0.00167924
0.0017338
0.00178899
0.00184478
0.00190114
0.00195805
0.00201549
0.00207341
0.00213178
0.00219059
0.00224978
0.00230933
0.0023692
0.00242935
0.00248975
0.00255035
0.00261111
0.002672
0.00273296
0.00279397
0.00285496
0.0029159
0.00297674
0.00303744
0.00309794
0.0031582
0.00321817
0.00327779
0.00333703
0.00339583
0.00345413
0.00351189
0.00356906
0.00362557
0.00368139
0.00373646
0.00379073
0.00384413
0.00389664
0.00394818
0.00399871
0.00404818
0.00409655
0.00414375
0.00418974
0.00423448
0.00427792
0.00432002
0.00436073
0.00440002
0.00443784
0.00447417
0.00450896
0.0045422
0.00457385
0.00460389
0.00463229
0.00465905
0.00468414
0.00470755
0.00472929
0.00474934
0.0047677
0.00478439
0.00479941
0.00481278
0.0048245
0.00483461
0.00484313
0.00485009
0.00485552
0.00485945
0.00486193
0.00486299
0.00486268
0.00486105
0.00485813
0.00485397
0.00484861
0.00484208
0.00483442
0.00482564
0.00481575
0.00480483
0.00479297
0.00477897
0.00476145
7.67244e-05
6.08481e-05
4.83673e-05
3.80357e-05
2.8705e-05
2.04151e-05
1.32159e-05
7.07525e-06
1.95717e-06
-2.16368e-06
-5.30321e-06
-7.47333e-06
-8.68695e-06
-8.95605e-06
-8.28825e-06
-6.68822e-06
-4.16069e-06
-7.10251e-07
3.66016e-06
8.94894e-06
1.51551e-05
2.22785e-05
3.03198e-05
3.92798e-05
4.91593e-05
5.99594e-05