/*--------------------------------*- C++ -*----------------------------------*\
  =========                 |
  \\      /  F ield         | OpenFOAM: The Open Source CFD Toolbox
   \\    /   O peration     | Website:  https://openfoam.org
    \\  /    A nd           | Version:  7
     \\/     M anipulation  |
\*---------------------------------------------------------------------------*/
FoamFile
{
    version     2.0;
    format      ascii;
    class       volVectorField;
    location    "0.2";
    object      U;
}
// * * * * * * * * * * * * * * * * * * * * * * * * * * * * * * * * * * * * * //

dimensions      [0 1 -1 0 0 0 0];

internalField   nonuniform List<vector> 
25600
(
(9.109e-07 -8.37805e-07 0)
(3.12785e-06 -1.35406e-06 0)
(5.42721e-06 -1.10588e-06 0)
(6.2446e-06 -4.64511e-07 0)
(4.96737e-06 2.96137e-07 0)
(1.3954e-06 1.0601e-06 0)
(-4.46249e-06 1.79277e-06 0)
(-1.25006e-05 2.47331e-06 0)
(-2.25601e-05 3.08792e-06 0)
(-3.44652e-05 3.6336e-06 0)
(-4.80358e-05 4.11208e-06 0)
(-6.30902e-05 4.52674e-06 0)
(-7.94547e-05 4.88582e-06 0)
(-9.69689e-05 5.19904e-06 0)
(-0.000115483 5.47004e-06 0)
(-0.000134854 5.6981e-06 0)
(-0.000154954 5.88565e-06 0)
(-0.000175667 6.03857e-06 0)
(-0.000196889 6.1627e-06 0)
(-0.000218526 6.26274e-06 0)
(-0.000240496 6.3418e-06 0)
(-0.000262724 6.40097e-06 0)
(-0.000285145 6.44105e-06 0)
(-0.000307703 6.46486e-06 0)
(-0.000330349 6.47664e-06 0)
(-0.000353041 6.47954e-06 0)
(-0.000375743 6.47454e-06 0)
(-0.000398422 6.46139e-06 0)
(-0.000421053 6.44035e-06 0)
(-0.000443612 6.41305e-06 0)
(-0.00046608 6.38179e-06 0)
(-0.00048844 6.34808e-06 0)
(-0.00051068 6.31183e-06 0)
(-0.000532785 6.27221e-06 0)
(-0.000554746 6.22905e-06 0)
(-0.000576552 6.18334e-06 0)
(-0.000598196 6.13638e-06 0)
(-0.000619669 6.08855e-06 0)
(-0.000640964 6.03916e-06 0)
(-0.000662074 5.98741e-06 0)
(-0.000682992 5.93323e-06 0)
(-0.000703711 5.87728e-06 0)
(-0.000724224 5.82014e-06 0)
(-0.000744524 5.76167e-06 0)
(-0.000764605 5.70117e-06 0)
(-0.000784458 5.63815e-06 0)
(-0.000804077 5.57265e-06 0)
(-0.000823452 5.50508e-06 0)
(-0.000842577 5.43564e-06 0)
(-0.000861443 5.36405e-06 0)
(-0.000880041 5.28981e-06 0)
(-0.000898363 5.21263e-06 0)
(-0.000916398 5.13261e-06 0)
(-0.000934138 5.04997e-06 0)
(-0.000951573 4.96473e-06 0)
(-0.000968692 4.87666e-06 0)
(-0.000985486 4.7854e-06 0)
(-0.00100194 4.69082e-06 0)
(-0.00101805 4.59299e-06 0)
(-0.00103381 4.49205e-06 0)
(-0.00104919 4.38802e-06 0)
(-0.00106419 4.28066e-06 0)
(-0.0010788 4.16969e-06 0)
(-0.00109301 4.05501e-06 0)
(-0.0011068 3.93675e-06 0)
(-0.00112017 3.8151e-06 0)
(-0.00113309 3.68999e-06 0)
(-0.00114556 3.56117e-06 0)
(-0.00115756 3.42846e-06 0)
(-0.00116909 3.29182e-06 0)
(-0.00118013 3.15137e-06 0)
(-0.00119066 3.00721e-06 0)
(-0.00120068 2.85934e-06 0)
(-0.00121017 2.70767e-06 0)
(-0.00121911 2.55208e-06 0)
(-0.00122751 2.3925e-06 0)
(-0.00123533 2.22904e-06 0)
(-0.00124257 2.06184e-06 0)
(-0.00124922 1.89096e-06 0)
(-0.00125527 1.71632e-06 0)
(-0.0012607 1.53783e-06 0)
(-0.0012655 1.35554e-06 0)
(-0.00126965 1.1696e-06 0)
(-0.00127315 9.80192e-07 0)
(-0.00127598 7.87358e-07 0)
(-0.00127814 5.91082e-07 0)
(-0.00127961 3.91379e-07 0)
(-0.00128038 1.88372e-07 0)
(-0.00128044 -1.77516e-08 0)
(-0.00127977 -2.26833e-07 0)
(-0.00127838 -4.3878e-07 0)
(-0.00127625 -6.53514e-07 0)
(-0.00127337 -8.70904e-07 0)
(-0.00126974 -1.09076e-06 0)
(-0.00126535 -1.31286e-06 0)
(-0.00126018 -1.53705e-06 0)
(-0.00125424 -1.76316e-06 0)
(-0.00124751 -1.99101e-06 0)
(-0.00123999 -2.22038e-06 0)
(-0.00123169 -2.45104e-06 0)
(-0.00122259 -2.68277e-06 0)
(-0.00121269 -2.91536e-06 0)
(-0.00120199 -3.14859e-06 0)
(-0.00119048 -3.3822e-06 0)
(-0.00117818 -3.61594e-06 0)
(-0.00116507 -3.84954e-06 0)
(-0.00115116 -4.08271e-06 0)
(-0.00113645 -4.31517e-06 0)
(-0.00112095 -4.54665e-06 0)
(-0.00110465 -4.77689e-06 0)
(-0.00108757 -5.00559e-06 0)
(-0.00106971 -5.23243e-06 0)
(-0.00105108 -5.45706e-06 0)
(-0.00103168 -5.67915e-06 0)
(-0.00101152 -5.89841e-06 0)
(-0.000990624 -6.1145e-06 0)
(-0.000968993 -6.32706e-06 0)
(-0.000946641 -6.53566e-06 0)
(-0.000923585 -6.7399e-06 0)
(-0.00089984 -6.93936e-06 0)
(-0.000875423 -7.13357e-06 0)
(-0.000850353 -7.32205e-06 0)
(-0.000824652 -7.50423e-06 0)
(-0.000798343 -7.67953e-06 0)
(-0.000771451 -7.8473e-06 0)
(-0.000744002 -8.00685e-06 0)
(-0.000716029 -8.15737e-06 0)
(-0.000687563 -8.29801e-06 0)
(-0.000658642 -8.42783e-06 0)
(-0.000629303 -8.54577e-06 0)
(-0.000599593 -8.65069e-06 0)
(-0.000569557 -8.74128e-06 0)
(-0.000539249 -8.81615e-06 0)
(-0.000508726 -8.87375e-06 0)
(-0.000478051 -8.91237e-06 0)
(-0.000447293 -8.93014e-06 0)
(-0.000416527 -8.92501e-06 0)
(-0.000385837 -8.8948e-06 0)
(-0.000355313 -8.83719e-06 0)
(-0.000325052 -8.74964e-06 0)
(-0.000295162 -8.62941e-06 0)
(-0.000265759 -8.47352e-06 0)
(-0.000236969 -8.27882e-06 0)
(-0.000208926 -8.0419e-06 0)
(-0.000181779 -7.75914e-06 0)
(-0.000155683 -7.42671e-06 0)
(-0.000130807 -7.0405e-06 0)
(-0.000107331 -6.5961e-06 0)
(-8.54454e-05 -6.08889e-06 0)
(-6.53523e-05 -5.51417e-06 0)
(-4.72621e-05 -4.8673e-06 0)
(-3.13925e-05 -4.14366e-06 0)
(-1.79635e-05 -3.33946e-06 0)
(-7.18795e-06 -2.45397e-06 0)
(7.4477e-07 -1.49402e-06 0)
(5.70085e-06 -4.8222e-07 0)
(7.65683e-06 5.22916e-07 0)
(6.82121e-06 1.3794e-06 0)
(4.0208e-06 1.7827e-06 0)
(1.14418e-06 1.14465e-06 0)
(1.45693e-06 -3.14773e-06 0)
(4.37322e-06 -4.26169e-06 0)
(5.92842e-06 -2.38564e-06 0)
(3.72692e-06 1.10317e-06 0)
(-3.51782e-06 5.28199e-06 0)
(-1.63276e-05 9.64497e-06 0)
(-3.4813e-05 1.39286e-05 0)
(-5.88413e-05 1.7992e-05 0)
(-8.81228e-05 2.17561e-05 0)
(-0.000122286 2.51844e-05 0)
(-0.000160918 2.82689e-05 0)
(-0.000203588 3.10147e-05 0)
(-0.000249869 3.34358e-05 0)
(-0.00029935 3.55533e-05 0)
(-0.000351636 3.73897e-05 0)
(-0.000406356 3.89651e-05 0)
(-0.000463165 4.02998e-05 0)
(-0.00052175 4.14165e-05 0)
(-0.000581824 4.23378e-05 0)
(-0.000643127 4.30849e-05 0)
(-0.000705426 4.3678e-05 0)
(-0.000768512 4.41351e-05 0)
(-0.000832201 4.44714e-05 0)
(-0.000896328 4.47015e-05 0)
(-0.000960754 4.48401e-05 0)
(-0.00102535 4.49007e-05 0)
(-0.00109002 4.48946e-05 0)
(-0.00115465 4.48306e-05 0)
(-0.00121917 4.47162e-05 0)
(-0.00128352 4.45587e-05 0)
(-0.00134762 4.43647e-05 0)
(-0.00141144 4.41401e-05 0)
(-0.00147491 4.38892e-05 0)
(-0.00153801 4.36149e-05 0)
(-0.0016007 4.33196e-05 0)
(-0.00166295 4.30053e-05 0)
(-0.00172474 4.26744e-05 0)
(-0.00178602 4.23285e-05 0)
(-0.00184679 4.19681e-05 0)
(-0.00190702 4.15934e-05 0)
(-0.00196668 4.12045e-05 0)
(-0.00202577 4.08016e-05 0)
(-0.00208425 4.03849e-05 0)
(-0.0021421 3.99543e-05 0)
(-0.0021993 3.95093e-05 0)
(-0.00225584 3.90493e-05 0)
(-0.00231168 3.85737e-05 0)
(-0.00236681 3.80823e-05 0)
(-0.0024212 3.75746e-05 0)
(-0.00247483 3.70501e-05 0)
(-0.00252767 3.65082e-05 0)
(-0.0025797 3.59482e-05 0)
(-0.00263089 3.53696e-05 0)
(-0.00268121 3.47718e-05 0)
(-0.00273064 3.41545e-05 0)
(-0.00277915 3.35171e-05 0)
(-0.0028267 3.28593e-05 0)
(-0.00287327 3.21804e-05 0)
(-0.00291884 3.14799e-05 0)
(-0.00296336 3.07576e-05 0)
(-0.00300681 3.00129e-05 0)
(-0.00304915 2.92457e-05 0)
(-0.00309035 2.84555e-05 0)
(-0.00313039 2.76418e-05 0)
(-0.00316922 2.68043e-05 0)
(-0.00320681 2.59429e-05 0)
(-0.00324314 2.50573e-05 0)
(-0.00327815 2.41473e-05 0)
(-0.00331183 2.32125e-05 0)
(-0.00334413 2.22527e-05 0)
(-0.00337503 2.12677e-05 0)
(-0.00340448 2.02577e-05 0)
(-0.00343245 1.92226e-05 0)
(-0.0034589 1.81622e-05 0)
(-0.0034838 1.70766e-05 0)
(-0.00350712 1.59658e-05 0)
(-0.00352881 1.48298e-05 0)
(-0.00354885 1.36687e-05 0)
(-0.0035672 1.24829e-05 0)
(-0.00358383 1.12726e-05 0)
(-0.00359869 1.0038e-05 0)
(-0.00361176 8.77939e-06 0)
(-0.00362301 7.49716e-06 0)
(-0.0036324 6.19182e-06 0)
(-0.0036399 4.86391e-06 0)
(-0.00364548 3.51393e-06 0)
(-0.00364911 2.14245e-06 0)
(-0.00365076 7.50109e-07 0)
(-0.00365041 -6.6233e-07 0)
(-0.00364801 -2.09402e-06 0)
(-0.00364356 -3.5441e-06 0)
(-0.00363702 -5.01166e-06 0)
(-0.00362838 -6.49574e-06 0)
(-0.0036176 -7.99527e-06 0)
(-0.00360467 -9.50909e-06 0)
(-0.00358958 -1.1036e-05 0)
(-0.0035723 -1.25749e-05 0)
(-0.00355281 -1.41243e-05 0)
(-0.00353111 -1.56831e-05 0)
(-0.00350719 -1.72496e-05 0)
(-0.00348103 -1.88226e-05 0)
(-0.00345262 -2.04004e-05 0)
(-0.00342197 -2.19816e-05 0)
(-0.00338907 -2.35644e-05 0)
(-0.00335392 -2.51473e-05 0)
(-0.00331652 -2.67283e-05 0)
(-0.00327687 -2.83059e-05 0)
(-0.00323498 -2.98781e-05 0)
(-0.00319087 -3.14431e-05 0)
(-0.00314453 -3.29988e-05 0)
(-0.003096 -3.45435e-05 0)
(-0.00304528 -3.6075e-05 0)
(-0.0029924 -3.75911e-05 0)
(-0.00293738 -3.90897e-05 0)
(-0.00288025 -4.05684e-05 0)
(-0.00282103 -4.2025e-05 0)
(-0.00275977 -4.34569e-05 0)
(-0.00269649 -4.48615e-05 0)
(-0.00263125 -4.62359e-05 0)
(-0.00256408 -4.75771e-05 0)
(-0.00249504 -4.88819e-05 0)
(-0.00242418 -5.01468e-05 0)
(-0.00235156 -5.13681e-05 0)
(-0.00227725 -5.25415e-05 0)
(-0.00220131 -5.36626e-05 0)
(-0.00212383 -5.47266e-05 0)
(-0.0020449 -5.57278e-05 0)
(-0.00196461 -5.66604e-05 0)
(-0.00188306 -5.75177e-05 0)
(-0.00180036 -5.82925e-05 0)
(-0.00171664 -5.89767e-05 0)
(-0.00163204 -5.95617e-05 0)
(-0.00154671 -6.00378e-05 0)
(-0.0014608 -6.03945e-05 0)
(-0.00137451 -6.06206e-05 0)
(-0.00128801 -6.07035e-05 0)
(-0.00120153 -6.063e-05 0)
(-0.0011153 -6.03858e-05 0)
(-0.00102958 -5.99554e-05 0)
(-0.000944632 -5.93226e-05 0)
(-0.000860761 -5.84701e-05 0)
(-0.000778288 -5.73796e-05 0)
(-0.000697562 -5.60318e-05 0)
(-0.000618955 -5.44069e-05 0)
(-0.000542866 -5.24842e-05 0)
(-0.000469721 -5.02426e-05 0)
(-0.000399972 -4.7661e-05 0)
(-0.000334094 -4.47184e-05 0)
(-0.000272585 -4.13951e-05 0)
(-0.000215961 -3.76737e-05 0)
(-0.000164746 -3.35417e-05 0)
(-0.000119464 -2.8995e-05 0)
(-8.06163e-05 -2.40441e-05 0)
(-4.86541e-05 -1.87267e-05 0)
(-2.39246e-05 -1.3129e-05 0)
(-6.5922e-06 -7.42549e-06 0)
(3.47488e-06 -1.95041e-06 0)
(6.91149e-06 2.67565e-06 0)
(5.3264e-06 5.32902e-06 0)
(1.77918e-06 4.0199e-06 0)
(1.13465e-06 -5.46051e-06 0)
(2.42298e-06 -5.87148e-06 0)
(2.21401e-07 -1.84839e-07 0)
(-7.96328e-06 8.90162e-06 0)
(-2.35637e-05 1.96741e-05 0)
(-4.72637e-05 3.10551e-05 0)
(-7.92704e-05 4.23796e-05 0)
(-0.000119463 5.32528e-05 0)
(-0.000167494 6.34446e-05 0)
(-0.000222883 7.28338e-05 0)
(-0.000285071 8.13677e-05 0)
(-0.000353458 8.90354e-05 0)
(-0.000427428 9.58533e-05 0)
(-0.00050638 0.000101857 0)
(-0.000589734 0.000107094 0)
(-0.000676935 0.000111616 0)
(-0.000767461 0.000115478 0)
(-0.00086083 0.000118736 0)
(-0.0009566 0.000121445 0)
(-0.00105437 0.000123661 0)
(-0.00115377 0.000125435 0)
(-0.00125447 0.000126818 0)
(-0.00135618 0.000127853 0)
(-0.00145865 0.000128584 0)
(-0.00156163 0.000129047 0)
(-0.00166493 0.000129278 0)
(-0.00176837 0.000129308 0)
(-0.0018718 0.000129165 0)
(-0.00197508 0.000128872 0)
(-0.0020781 0.000128449 0)
(-0.00218076 0.000127915 0)
(-0.00228296 0.000127285 0)
(-0.00238463 0.000126572 0)
(-0.00248571 0.000125785 0)
(-0.00258613 0.000124934 0)
(-0.00268585 0.000124025 0)
(-0.0027848 0.000123062 0)
(-0.00288296 0.000122052 0)
(-0.00298028 0.000120995 0)
(-0.00307671 0.000119894 0)
(-0.00317223 0.000118751 0)
(-0.00326679 0.000117565 0)
(-0.00336036 0.000116337 0)
(-0.00345291 0.000115066 0)
(-0.00354439 0.000113752 0)
(-0.00363478 0.000112394 0)
(-0.00372403 0.000110991 0)
(-0.00381212 0.000109541 0)
(-0.00389899 0.000108044 0)
(-0.00398461 0.000106497 0)
(-0.00406895 0.0001049 0)
(-0.00415195 0.000103251 0)
(-0.00423358 0.000101549 0)
(-0.0043138 9.97918e-05 0)
(-0.00439255 9.79786e-05 0)
(-0.0044698 9.6108e-05 0)
(-0.0045455 9.41787e-05 0)
(-0.00461961 9.21896e-05 0)
(-0.00469206 9.01395e-05 0)
(-0.00476283 8.80271e-05 0)
(-0.00483185 8.58515e-05 0)
(-0.00489907 8.36115e-05 0)
(-0.00496446 8.13064e-05 0)
(-0.00502794 7.89353e-05 0)
(-0.00508948 7.64971e-05 0)
(-0.00514902 7.39912e-05 0)
(-0.00520651 7.14168e-05 0)
(-0.00526188 6.87734e-05 0)
(-0.0053151 6.60606e-05 0)
(-0.0053661 6.32777e-05 0)
(-0.00541483 6.04245e-05 0)
(-0.00546123 5.75006e-05 0)
(-0.00550526 5.45061e-05 0)
(-0.00554685 5.14408e-05 0)
(-0.00558595 4.83049e-05 0)
(-0.00562251 4.50985e-05 0)
(-0.00565646 4.18219e-05 0)
(-0.00568777 3.84754e-05 0)
(-0.00571637 3.50597e-05 0)
(-0.00574221 3.15755e-05 0)
(-0.00576524 2.80236e-05 0)
(-0.00578541 2.4405e-05 0)
(-0.00580266 2.07209e-05 0)
(-0.00581694 1.69725e-05 0)
(-0.00582822 1.31613e-05 0)
(-0.00583643 9.28884e-06 0)
(-0.00584154 5.35691e-06 0)
(-0.0058435 1.36741e-06 0)
(-0.00584226 -2.67761e-06 0)
(-0.00583779 -6.77582e-06 0)
(-0.00583004 -1.09247e-05 0)
(-0.00581898 -1.51217e-05 0)
(-0.00580457 -1.9364e-05 0)
(-0.00578679 -2.36485e-05 0)
(-0.00576559 -2.79722e-05 0)
(-0.00574095 -3.23317e-05 0)
(-0.00571284 -3.67235e-05 0)
(-0.00568125 -4.1144e-05 0)
(-0.00564615 -4.55894e-05 0)
(-0.00560753 -5.00558e-05 0)
(-0.00556537 -5.45389e-05 0)
(-0.00551966 -5.90346e-05 0)
(-0.0054704 -6.35383e-05 0)
(-0.00541757 -6.80456e-05 0)
(-0.00536119 -7.25517e-05 0)
(-0.00530126 -7.70517e-05 0)
(-0.00523777 -8.15406e-05 0)
(-0.00517076 -8.60132e-05 0)
(-0.00510022 -9.04642e-05 0)
(-0.00502619 -9.48882e-05 0)
(-0.00494868 -9.92795e-05 0)
(-0.00486772 -0.000103632 0)
(-0.00478336 -0.000107941 0)
(-0.00469562 -0.000112198 0)
(-0.00460455 -0.000116398 0)
(-0.0045102 -0.000120534 0)
(-0.00441262 -0.000124599 0)
(-0.00431188 -0.000128585 0)
(-0.00420803 -0.000132484 0)
(-0.00410116 -0.000136287 0)
(-0.00399134 -0.000139985 0)
(-0.00387866 -0.000143569 0)
(-0.00376322 -0.000147026 0)
(-0.00364512 -0.000150345 0)
(-0.00352448 -0.000153514 0)
(-0.00340142 -0.000156517 0)
(-0.00327608 -0.00015934 0)
(-0.00314862 -0.000161965 0)
(-0.0030192 -0.000164373 0)
(-0.00288799 -0.000166543 0)
(-0.00275521 -0.000168453 0)
(-0.00262106 -0.000170077 0)
(-0.00248578 -0.000171388 0)
(-0.00234964 -0.000172357 0)
(-0.00221292 -0.000172952 0)
(-0.00207592 -0.000173137 0)
(-0.00193899 -0.000172876 0)
(-0.00180249 -0.000172129 0)
(-0.00166682 -0.000170852 0)
(-0.00153241 -0.000169002 0)
(-0.00139974 -0.00016653 0)
(-0.0012693 -0.000163388 0)
(-0.00114162 -0.000159525 0)
(-0.0010173 -0.000154887 0)
(-0.00089694 -0.000149422 0)
(-0.00078119 -0.000143078 0)
(-0.000670736 -0.000135802 0)
(-0.00056629 -0.000127548 0)
(-0.000468593 -0.000118275 0)
(-0.000378396 -0.000107953 0)
(-0.000296453 -9.65723e-05 0)
(-0.000223496 -8.41511e-05 0)
(-0.000160206 -7.07575e-05 0)
(-0.000107162 -5.65376e-05 0)
(-6.47775e-05 -4.17653e-05 0)
(-3.31953e-05 -2.69226e-05 0)
(-1.21559e-05 -1.28307e-05 0)
(-7.98775e-07 -8.32442e-07 0)
(2.68069e-06 6.91167e-06 0)
(1.3739e-06 6.81302e-06 0)
(4.7824e-07 -6.32905e-06 0)
(-1.09014e-06 -3.70084e-06 0)
(-8.90937e-06 7.99122e-06 0)
(-2.49555e-05 2.49154e-05 0)
(-5.05351e-05 4.46064e-05 0)
(-8.63434e-05 6.53949e-05 0)
(-0.000132598 8.61804e-05 0)
(-0.000189165 0.000106267 0)
(-0.000255659 0.000125225 0)
(-0.000331527 0.000142805 0)
(-0.000416113 0.000158883 0)
(-0.000508701 0.000173415 0)
(-0.000608544 0.000186409 0)
(-0.000714896 0.00019791 0)
(-0.00082703 0.000207989 0)
(-0.000944247 0.000216734 0)
(-0.00106589 0.000224238 0)
(-0.00119133 0.000230601 0)
(-0.00132 0.000235923 0)
(-0.00145137 0.000240299 0)
(-0.00158496 0.000243826 0)
(-0.00172035 0.000246595 0)
(-0.00185713 0.00024869 0)
(-0.00199496 0.000250192 0)
(-0.00213354 0.00025117 0)
(-0.00227258 0.00025169 0)
(-0.00241185 0.000251811 0)
(-0.00255114 0.000251586 0)
(-0.00269026 0.000251062 0)
(-0.00282905 0.000250278 0)
(-0.00296737 0.000249268 0)
(-0.0031051 0.000248062 0)
(-0.00324212 0.000246685 0)
(-0.00337835 0.000245158 0)
(-0.00351369 0.000243499 0)
(-0.00364807 0.000241719 0)
(-0.00378142 0.000239831 0)
(-0.00391369 0.000237842 0)
(-0.0040448 0.000235758 0)
(-0.00417471 0.000233584 0)
(-0.00430335 0.000231323 0)
(-0.00443069 0.000228976 0)
(-0.00455667 0.000226544 0)
(-0.00468124 0.000224025 0)
(-0.00480434 0.000221421 0)
(-0.00492594 0.000218729 0)
(-0.00504598 0.000215948 0)
(-0.0051644 0.000213074 0)
(-0.00528116 0.000210107 0)
(-0.0053962 0.000207044 0)
(-0.00550947 0.000203881 0)
(-0.00562091 0.000200618 0)
(-0.00573047 0.000197251 0)
(-0.00583808 0.000193777 0)
(-0.00594369 0.000190194 0)
(-0.00604724 0.000186501 0)
(-0.00614867 0.000182694 0)
(-0.00624791 0.000178771 0)
(-0.0063449 0.000174731 0)
(-0.00643958 0.000170571 0)
(-0.00653188 0.000166289 0)
(-0.00662173 0.000161883 0)
(-0.00670907 0.000157352 0)
(-0.00679382 0.000152693 0)
(-0.00687593 0.000147907 0)
(-0.00695531 0.000142991 0)
(-0.00703191 0.000137943 0)
(-0.00710564 0.000132763 0)
(-0.00717645 0.00012745 0)
(-0.00724425 0.000122004 0)
(-0.00730897 0.000116423 0)
(-0.00737055 0.000110707 0)
(-0.00742891 0.000104857 0)
(-0.00748398 9.88712e-05 0)
(-0.00753568 9.27511e-05 0)
(-0.00758395 8.64967e-05 0)
(-0.00762872 8.01088e-05 0)
(-0.00766991 7.35881e-05 0)
(-0.00770746 6.69358e-05 0)
(-0.00774129 6.01534e-05 0)
(-0.00777134 5.32426e-05 0)
(-0.00779754 4.62054e-05 0)
(-0.00781982 3.9044e-05 0)
(-0.00783812 3.17608e-05 0)
(-0.00785238 2.43587e-05 0)
(-0.00786253 1.68408e-05 0)
(-0.00786852 9.21065e-06 0)
(-0.00787029 1.4719e-06 0)
(-0.00786777 -6.37139e-06 0)
(-0.00786093 -1.43148e-05 0)
(-0.0078497 -2.23537e-05 0)
(-0.00783404 -3.04828e-05 0)
(-0.00781391 -3.86967e-05 0)
(-0.00778926 -4.69898e-05 0)
(-0.00776005 -5.5356e-05 0)
(-0.00772625 -6.3789e-05 0)
(-0.00768782 -7.22821e-05 0)
(-0.00764475 -8.08282e-05 0)
(-0.00759699 -8.94201e-05 0)
(-0.00754453 -9.80503e-05 0)
(-0.00748736 -0.000106711 0)
(-0.00742546 -0.000115393 0)
(-0.00735883 -0.00012409 0)
(-0.00728746 -0.000132791 0)
(-0.00721135 -0.000141488 0)
(-0.00713051 -0.000150171 0)
(-0.00704496 -0.000158831 0)
(-0.0069547 -0.000167458 0)
(-0.00685976 -0.000176042 0)
(-0.00676017 -0.000184573 0)
(-0.00665597 -0.000193039 0)
(-0.00654719 -0.000201429 0)
(-0.00643387 -0.000209731 0)
(-0.00631608 -0.000217935 0)
(-0.00619386 -0.000226026 0)
(-0.00606729 -0.000233992 0)
(-0.00593644 -0.000241819 0)
(-0.00580139 -0.000249492 0)
(-0.00566223 -0.000256995 0)
(-0.00551905 -0.000264312 0)
(-0.00537198 -0.000271424 0)
(-0.00522112 -0.000278312 0)
(-0.0050666 -0.000284955 0)
(-0.00490857 -0.000291329 0)
(-0.00474718 -0.000297409 0)
(-0.0045826 -0.000303167 0)
(-0.00441502 -0.000308574 0)
(-0.00424464 -0.000313595 0)
(-0.00407169 -0.000318194 0)
(-0.0038964 -0.000322331 0)
(-0.00371904 -0.000325961 0)
(-0.00353991 -0.000329038 0)
(-0.00335932 -0.000331507 0)
(-0.00317761 -0.000333314 0)
(-0.00299517 -0.000334395 0)
(-0.00281241 -0.000334686 0)
(-0.00262978 -0.000334115 0)
(-0.00244776 -0.000332608 0)
(-0.00226688 -0.000330083 0)
(-0.00208772 -0.000326458 0)
(-0.00191087 -0.000321643 0)
(-0.001737 -0.000315549 0)
(-0.00156682 -0.000308082 0)
(-0.00140106 -0.000299147 0)
(-0.00124053 -0.000288652 0)
(-0.00108605 -0.000276503 0)
(-0.000938504 -0.000262617 0)
(-0.000798783 -0.000246918 0)
(-0.000667814 -0.000229347 0)
(-0.000546526 -0.000209872 0)
(-0.000435838 -0.000188501 0)
(-0.000336625 -0.000165302 0)
(-0.000249684 -0.000140438 0)
(-0.000175677 -0.000114212 0)
(-0.000115056 -8.71466e-05 0)
(-6.79717e-05 -6.00929e-05 0)
(-3.41335e-05 -3.44055e-05 0)
(-1.26461e-05 -1.21616e-05 0)
(-1.89292e-06 3.51605e-06 0)
(5.23965e-07 7.65319e-06 0)
(-2.91334e-07 -5.04357e-06 0)
(-5.30491e-06 3.56591e-06 0)
(-1.9785e-05 2.36454e-05 0)
(-4.48485e-05 5.05219e-05 0)
(-8.1432e-05 8.11083e-05 0)
(-0.000130136 0.000113221 0)
(-0.000191109 0.000145356 0)
(-0.000264162 0.000176514 0)
(-0.000348858 0.00020605 0)
(-0.000444582 0.000233567 0)
(-0.000550604 0.000258846 0)
(-0.000666121 0.000281794 0)
(-0.000790293 0.000302404 0)
(-0.000922266 0.000320723 0)
(-0.0010612 0.000336844 0)
(-0.00120629 0.000350884 0)
(-0.00135674 0.000362981 0)
(-0.00151185 0.000373279 0)
(-0.00167091 0.000381929 0)
(-0.00183331 0.000389077 0)
(-0.00199847 0.000394869 0)
(-0.00216586 0.000399442 0)
(-0.002335 0.00040293 0)
(-0.00250548 0.000405455 0)
(-0.00267692 0.000407131 0)
(-0.00284897 0.00040806 0)
(-0.00302133 0.000408335 0)
(-0.00319375 0.000408038 0)
(-0.00336598 0.000407246 0)
(-0.00353783 0.000406021 0)
(-0.00370912 0.000404421 0)
(-0.00387968 0.000402492 0)
(-0.00404938 0.000400274 0)
(-0.0042181 0.000397803 0)
(-0.00438572 0.000395106 0)
(-0.00455214 0.000392206 0)
(-0.00471729 0.000389121 0)
(-0.00488106 0.000385865 0)
(-0.00504339 0.000382449 0)
(-0.00520421 0.00037888 0)
(-0.00536344 0.000375163 0)
(-0.00552102 0.000371303 0)
(-0.00567688 0.0003673 0)
(-0.00583097 0.000363155 0)
(-0.00598321 0.000358866 0)
(-0.00613354 0.000354432 0)
(-0.0062819 0.00034985 0)
(-0.00642823 0.000345119 0)
(-0.00657246 0.000340234 0)
(-0.00671452 0.000335192 0)
(-0.00685434 0.000329989 0)
(-0.00699186 0.000324621 0)
(-0.007127 0.000319086 0)
(-0.0072597 0.000313378 0)
(-0.00738988 0.000307495 0)
(-0.00751746 0.000301432 0)
(-0.00764238 0.000295187 0)
(-0.00776455 0.000288756 0)
(-0.0078839 0.000282135 0)
(-0.00800034 0.000275321 0)
(-0.0081138 0.000268312 0)
(-0.0082242 0.000261105 0)
(-0.00833145 0.000253696 0)
(-0.00843547 0.000246084 0)
(-0.00853618 0.000238267 0)
(-0.0086335 0.000230242 0)
(-0.00872733 0.000222008 0)
(-0.0088176 0.000213562 0)
(-0.00890421 0.000204904 0)
(-0.00898708 0.000196033 0)
(-0.00906612 0.000186948 0)
(-0.00914126 0.000177648 0)
(-0.00921239 0.000168134 0)
(-0.00927943 0.000158405 0)
(-0.0093423 0.000148461 0)
(-0.00940092 0.000138305 0)
(-0.00945518 0.000127936 0)
(-0.00950502 0.000117357 0)
(-0.00955035 0.000106569 0)
(-0.00959108 9.55749e-05 0)
(-0.00962713 8.43774e-05 0)
(-0.00965842 7.29798e-05 0)
(-0.00968488 6.13857e-05 0)
(-0.00970642 4.95993e-05 0)
(-0.00972297 3.7625e-05 0)
(-0.00973446 2.54681e-05 0)
(-0.00974081 1.3134e-05 0)
(-0.00974196 6.28895e-07 0)
(-0.00973784 -1.20406e-05 0)
(-0.00972839 -2.48675e-05 0)
(-0.00971355 -3.78442e-05 0)
(-0.00969326 -5.09624e-05 0)
(-0.00966746 -6.42136e-05 0)
(-0.00963612 -7.75884e-05 0)
(-0.00959918 -9.10773e-05 0)
(-0.0095566 -0.00010467 0)
(-0.00950834 -0.000118356 0)
(-0.00945437 -0.000132124 0)
(-0.00939467 -0.000145962 0)
(-0.0093292 -0.000159859 0)
(-0.00925796 -0.000173801 0)
(-0.00918092 -0.000187776 0)
(-0.00909809 -0.000201769 0)
(-0.00900945 -0.000215768 0)
(-0.00891501 -0.000229757 0)
(-0.00881479 -0.000243721 0)
(-0.00870879 -0.000257646 0)
(-0.00859704 -0.000271515 0)
(-0.00847957 -0.000285312 0)
(-0.00835642 -0.000299021 0)
(-0.00822762 -0.000312623 0)
(-0.00809323 -0.000326102 0)
(-0.0079533 -0.000339437 0)
(-0.0078079 -0.000352611 0)
(-0.00765711 -0.000365602 0)
(-0.007501 -0.000378389 0)
(-0.00733967 -0.00039095 0)
(-0.00717321 -0.000403261 0)
(-0.00700175 -0.000415296 0)
(-0.00682539 -0.000427029 0)
(-0.00664428 -0.000438429 0)
(-0.00645857 -0.000449466 0)
(-0.0062684 -0.000460105 0)
(-0.00607397 -0.000470308 0)
(-0.00587545 -0.000480034 0)
(-0.00567307 -0.000489239 0)
(-0.00546705 -0.000497874 0)
(-0.00525763 -0.000505885 0)
(-0.0050451 -0.000513212 0)
(-0.00482976 -0.000519792 0)
(-0.00461193 -0.000525554 0)
(-0.00439196 -0.00053042 0)
(-0.00417026 -0.000534308 0)
(-0.00394723 -0.000537126 0)
(-0.00372336 -0.000538778 0)
(-0.00349913 -0.000539159 0)
(-0.0032751 -0.000538157 0)
(-0.00305185 -0.000535653 0)
(-0.00283003 -0.000531523 0)
(-0.00261031 -0.000525636 0)
(-0.00239345 -0.000517854 0)
(-0.00218022 -0.00050804 0)
(-0.00197147 -0.000496051 0)
(-0.00176809 -0.000481745 0)
(-0.00157101 -0.000464983 0)
(-0.00138123 -0.000445634 0)
(-0.00119975 -0.000423578 0)
(-0.00102763 -0.000398714 0)
(-0.000865927 -0.000370974 0)
(-0.000715708 -0.000340334 0)
(-0.00057801 -0.000306837 0)
(-0.000453812 -0.000270621 0)
(-0.000343996 -0.000231971 0)
(-0.000249289 -0.000191373 0)
(-0.000170199 -0.000149617 0)
(-0.00010693 -0.000107927 0)
(-5.9265e-05 -6.81549e-05 0)
(-2.64271e-05 -3.30122e-05 0)
(-7.25259e-06 -6.39573e-06 0)
(-4.62997e-07 5.74167e-06 0)
(-1.06344e-06 -1.44873e-06 0)
(-9.7342e-06 1.64748e-05 0)
(-3.13684e-05 4.75162e-05 0)
(-6.60253e-05 8.65087e-05 0)
(-0.000114155 0.000129893 0)
(-0.000176165 0.000175077 0)
(-0.000252063 0.000220211 0)
(-0.000341558 0.00026402 0)
(-0.000444141 0.000305654 0)
(-0.000559133 0.000344567 0)
(-0.000685732 0.000380438 0)
(-0.000823064 0.000413113 0)
(-0.000970214 0.000442558 0)
(-0.00112625 0.000468823 0)
(-0.00129024 0.000492015 0)
(-0.00146128 0.000512283 0)
(-0.00163852 0.000529805 0)
(-0.00182113 0.000544772 0)
(-0.00200834 0.000557388 0)
(-0.00219943 0.000567855 0)
(-0.00239376 0.000576372 0)
(-0.00259071 0.000583133 0)
(-0.00278974 0.000588319 0)
(-0.00299037 0.000592105 0)
(-0.00319213 0.00059465 0)
(-0.00339465 0.000596101 0)
(-0.00359757 0.00059659 0)
(-0.00380057 0.000596237 0)
(-0.00400338 0.000595146 0)
(-0.00420576 0.000593411 0)
(-0.00440749 0.000591114 0)
(-0.00460837 0.000588324 0)
(-0.00480825 0.0005851 0)
(-0.00500696 0.000581492 0)
(-0.00520438 0.000577542 0)
(-0.00540039 0.000573284 0)
(-0.00559487 0.000568744 0)
(-0.00578772 0.000563945 0)
(-0.00597885 0.000558903 0)
(-0.00616817 0.000553628 0)
(-0.00635559 0.000548132 0)
(-0.00654104 0.000542418 0)
(-0.00672443 0.00053649 0)
(-0.00690569 0.000530349 0)
(-0.00708474 0.000523995 0)
(-0.0072615 0.000517425 0)
(-0.0074359 0.000510637 0)
(-0.00760786 0.000503627 0)
(-0.0077773 0.000496391 0)
(-0.00794414 0.000488924 0)
(-0.00810831 0.000481222 0)
(-0.00826971 0.000473279 0)
(-0.00842828 0.00046509 0)
(-0.00858391 0.000456651 0)
(-0.00873654 0.000447955 0)
(-0.00888606 0.000439 0)
(-0.0090324 0.000429778 0)
(-0.00917546 0.000420287 0)
(-0.00931516 0.00041052 0)
(-0.00945139 0.000400475 0)
(-0.00958408 0.000390147 0)
(-0.00971311 0.000379532 0)
(-0.00983841 0.000368627 0)
(-0.00995987 0.000357428 0)
(-0.0100774 0.000345932 0)
(-0.0101909 0.000334137 0)
(-0.0103002 0.00032204 0)
(-0.0104054 0.000309639 0)
(-0.0105062 0.000296933 0)
(-0.0106026 0.00028392 0)
(-0.0106944 0.000270599 0)
(-0.0107816 0.00025697 0)
(-0.0108641 0.000243033 0)
(-0.0109418 0.000228788 0)
(-0.0110145 0.000214236 0)
(-0.0110823 0.000199377 0)
(-0.0111449 0.000184216 0)
(-0.0112022 0.000168752 0)
(-0.0112543 0.000152991 0)
(-0.011301 0.000136934 0)
(-0.0113421 0.000120587 0)
(-0.0113777 0.000103954 0)
(-0.0114076 8.70408e-05 0)
(-0.0114317 6.98531e-05 0)
(-0.0114499 5.23979e-05 0)
(-0.0114622 3.46825e-05 0)
(-0.0114685 1.67152e-05 0)
(-0.0114687 -1.49522e-06 0)
(-0.0114627 -1.99392e-05 0)
(-0.0114505 -3.86063e-05 0)
(-0.0114319 -5.74855e-05 0)
(-0.011407 -7.65651e-05 0)
(-0.0113757 -9.58325e-05 0)
(-0.0113378 -0.000115274 0)
(-0.0112935 -0.000134877 0)
(-0.0112425 -0.000154625 0)
(-0.0111849 -0.000174504 0)
(-0.0111206 -0.000194497 0)
(-0.0110496 -0.000214587 0)
(-0.010972 -0.000234757 0)
(-0.0108875 -0.000254989 0)
(-0.0107964 -0.000275264 0)
(-0.0106984 -0.000295562 0)
(-0.0105937 -0.000315863 0)
(-0.0104823 -0.000336147 0)
(-0.0103641 -0.000356392 0)
(-0.0102391 -0.000376575 0)
(-0.0101075 -0.000396674 0)
(-0.00996926 -0.000416665 0)
(-0.00982438 -0.000436524 0)
(-0.00967293 -0.000456226 0)
(-0.00951498 -0.000475745 0)
(-0.0093506 -0.000495054 0)
(-0.00917985 -0.000514124 0)
(-0.00900284 -0.000532927 0)
(-0.00881966 -0.000551431 0)
(-0.00863041 -0.000569603 0)
(-0.00843522 -0.000587409 0)
(-0.00823421 -0.000604812 0)
(-0.00802754 -0.000621772 0)
(-0.00781535 -0.000638246 0)
(-0.00759783 -0.000654189 0)
(-0.00737516 -0.00066955 0)
(-0.00714754 -0.000684275 0)
(-0.00691521 -0.000698304 0)
(-0.00667841 -0.000711572 0)
(-0.00643741 -0.000724008 0)
(-0.0061925 -0.000735534 0)
(-0.005944 -0.000746064 0)
(-0.00569227 -0.000755505 0)
(-0.00543769 -0.000763756 0)
(-0.00518067 -0.000770705 0)
(-0.00492166 -0.000776234 0)
(-0.00466117 -0.000780211 0)
(-0.00439972 -0.000782498 0)
(-0.00413791 -0.000782946 0)
(-0.00387635 -0.000781396 0)
(-0.00361574 -0.000777679 0)
(-0.00335681 -0.000771621 0)
(-0.00310034 -0.000763036 0)
(-0.00284717 -0.000751737 0)
(-0.00259822 -0.000737528 0)
(-0.00235442 -0.000720216 0)
(-0.0021168 -0.000699608 0)
(-0.0018864 -0.000675518 0)
(-0.00166432 -0.000647775 0)
(-0.00145172 -0.000616225 0)
(-0.00124973 -0.00058075 0)
(-0.00105955 -0.000541277 0)
(-0.000882329 -0.0004978 0)
(-0.0007192 -0.000450408 0)
(-0.000571227 -0.000399327 0)
(-0.000439365 -0.000344969 0)
(-0.000324415 -0.000288015 0)
(-0.000226963 -0.000229512 0)
(-0.000147328 -0.000171024 0)
(-8.5447e-05 -0.000114824 0)
(-4.0781e-05 -6.41248e-05 0)
(-1.27693e-05 -2.3374e-05 0)
(-1.44311e-06 9.06538e-07 0)
(-1.80992e-06 4.47262e-06 0)
(-1.41283e-05 3.51851e-05 0)
(-4.30153e-05 7.98974e-05 0)
(-8.74263e-05 0.000133202 0)
(-0.00014726 0.000191242 0)
(-0.000222662 0.000251131 0)
(-0.000313447 0.000310747 0)
(-0.00041918 0.000368586 0)
(-0.000539248 0.000423612 0)
(-0.000672895 0.000475145 0)
(-0.000819251 0.000522769 0)
(-0.000977373 0.000566265 0)
(-0.00114628 0.00060557 0)
(-0.00132497 0.000640727 0)
(-0.00151245 0.000671859 0)
(-0.00170775 0.000699145 0)
(-0.00190993 0.000722801 0)
(-0.00211809 0.000743071 0)
(-0.0023314 0.000760207 0)
(-0.00254907 0.00077447 0)
(-0.00277038 0.000786117 0)
(-0.00299467 0.0007954 0)
(-0.00322131 0.000802558 0)
(-0.00344977 0.000807816 0)
(-0.00367954 0.000811386 0)
(-0.00391018 0.000813462 0)
(-0.00414129 0.00081422 0)
(-0.00437251 0.000813819 0)
(-0.00460353 0.000812402 0)
(-0.00483407 0.000810092 0)
(-0.00506388 0.000807 0)
(-0.00529273 0.00080322 0)
(-0.00552044 0.000798834 0)
(-0.00574682 0.000793908 0)
(-0.00597172 0.000788501 0)
(-0.006195 0.00078266 0)
(-0.00641652 0.000776421 0)
(-0.00663616 0.000769815 0)
(-0.00685382 0.000762867 0)
(-0.00706939 0.000755592 0)
(-0.00728277 0.000748005 0)
(-0.00749387 0.000740113 0)
(-0.00770258 0.000731922 0)
(-0.00790882 0.000723434 0)
(-0.00811251 0.000714649 0)
(-0.00831355 0.000705566 0)
(-0.00851185 0.000696181 0)
(-0.00870732 0.000686491 0)
(-0.00889988 0.000676489 0)
(-0.00908943 0.000666172 0)
(-0.00927588 0.000655532 0)
(-0.00945914 0.000644563 0)
(-0.00963911 0.000633259 0)
(-0.0098157 0.000621613 0)
(-0.00998881 0.00060962 0)
(-0.0101583 0.000597272 0)
(-0.0103242 0.000584564 0)
(-0.0104863 0.000571489 0)
(-0.0106445 0.000558043 0)
(-0.0107987 0.000544219 0)
(-0.0109488 0.000530012 0)
(-0.0110948 0.000515417 0)
(-0.0112364 0.000500431 0)
(-0.0113736 0.000485048 0)
(-0.0115063 0.000469265 0)
(-0.0116344 0.000453078 0)
(-0.0117577 0.000436485 0)
(-0.0118762 0.000419483 0)
(-0.0119898 0.000402071 0)
(-0.0120982 0.000384245 0)
(-0.0122015 0.000366006 0)
(-0.0122995 0.000347354 0)