/*--------------------------------*- C++ -*----------------------------------*\
  =========                 |
  \\      /  F ield         | OpenFOAM: The Open Source CFD Toolbox
   \\    /   O peration     | Website:  https://openfoam.org
    \\  /    A nd           | Version:  7
     \\/     M anipulation  |
\*---------------------------------------------------------------------------*/
FoamFile
{
    version     2.0;
    format      ascii;
    class       surfaceScalarField;
    location    "0.4625";
    object      phi;
}
// * * * * * * * * * * * * * * * * * * * * * * * * * * * * * * * * * * * * * //

dimensions      [0 3 -1 0 0 0 0];

internalField   nonuniform List<scalar> 
50880
(
7.93877e-12
-7.96434e-12
3.79105e-11
-2.99736e-11
7.87149e-11
-4.08011e-11
1.20672e-10
-4.19625e-11
1.57136e-10
-3.64679e-11
1.83779e-10
-2.66398e-11
1.97813e-10
-1.40373e-11
1.97537e-10
2.73346e-13
1.81989e-10
1.55491e-11
1.50709e-10
3.12809e-11
1.03591e-10
4.71172e-11
4.07795e-11
6.28062e-11
-3.73902e-11
7.81733e-11
-1.3047e-10
9.30812e-11
-2.37911e-10
1.07443e-10
-3.59107e-10
1.21197e-10
-4.93407e-10
1.34298e-10
-6.40133e-10
1.46725e-10
-7.98594e-10
1.58462e-10
-9.68092e-10
1.69501e-10
-1.14793e-09
1.79845e-10
-1.33743e-09
1.89502e-10
-1.53592e-09
1.98484e-10
-1.74272e-09
2.06807e-10
-1.95721e-09
2.14488e-10
-2.17875e-09
2.21544e-10
-2.40675e-09
2.27998e-10
-2.64062e-09
2.33869e-10
-2.8798e-09
2.39177e-10
-3.12375e-09
2.43946e-10
-3.37194e-09
2.48192e-10
-3.62388e-09
2.51936e-10
-3.87908e-09
2.55198e-10
-4.13707e-09
2.57996e-10
-4.39741e-09
2.60345e-10
-4.65968e-09
2.62263e-10
-4.92344e-09
2.63766e-10
-5.1883e-09
2.64864e-10
-5.45388e-09
2.65573e-10
-5.71978e-09
2.65905e-10
-5.98565e-09
2.65869e-10
-6.25112e-09
2.65473e-10
-6.51585e-09
2.64728e-10
-6.77949e-09
2.6364e-10
-7.04171e-09
2.62215e-10
-7.30216e-09
2.60457e-10
-7.56054e-09
2.58374e-10
-7.8165e-09
2.55965e-10
-8.06973e-09
2.53233e-10
-8.31991e-09
2.50182e-10
-8.56673e-09
2.46813e-10
-8.80985e-09
2.43126e-10
-9.04897e-09
2.3912e-10
-9.28376e-09
2.34795e-10
-9.51392e-09
2.30152e-10
-9.73911e-09
2.2519e-10
-9.95902e-09
2.19909e-10
-1.01733e-08
2.14309e-10
-1.03817e-08
2.08389e-10
-1.05839e-08
2.02147e-10
-1.07794e-08
1.95581e-10
-1.09681e-08
1.88691e-10
-1.11496e-08
1.8148e-10
-1.13236e-08
1.73947e-10
-1.14896e-08
1.66095e-10
-1.16476e-08
1.57928e-10
-1.1797e-08
1.49447e-10
-1.19377e-08
1.40655e-10
-1.20692e-08
1.31554e-10
-1.21914e-08
1.2215e-10
-1.23038e-08
1.12452e-10
-1.24063e-08
1.02466e-10
-1.24985e-08
9.22022e-11
-1.25802e-08
8.16686e-11
-1.2651e-08
7.08745e-11
-1.27109e-08
5.98337e-11
-1.27594e-08
4.85598e-11
-1.27965e-08
3.70655e-11
-1.28219e-08
2.53677e-11
-1.28354e-08
1.34831e-11
-1.28368e-08
1.42898e-12
-1.2826e-08
-1.07733e-11
-1.28029e-08
-2.31032e-11
-1.27674e-08
-3.55401e-11
-1.27193e-08
-4.80595e-11
-1.26587e-08
-6.06373e-11
-1.25854e-08
-7.325e-11
-1.24995e-08
-8.58692e-11
-1.24011e-08
-9.84654e-11
-1.22901e-08
-1.11012e-10
-1.21666e-08
-1.23479e-10
-1.20308e-08
-1.35836e-10
-1.18827e-08
-1.48054e-10
-1.17226e-08
-1.60102e-10
-1.15507e-08
-1.71943e-10
-1.13671e-08
-1.83548e-10
-1.11722e-08
-1.94885e-10
-1.09663e-08
-2.05919e-10
-1.07497e-08
-2.16618e-10
-1.05227e-08
-2.26951e-10
-1.02858e-08
-2.36885e-10
-1.00395e-08
-2.46386e-10
-9.78404e-09
-2.55424e-10
-9.52007e-09
-2.63968e-10
-9.24808e-09
-2.71988e-10
-8.96863e-09
-2.79454e-10
-8.68228e-09
-2.86342e-10
-8.38966e-09
-2.92624e-10
-8.09139e-09
-2.98273e-10
-7.78812e-09
-3.03265e-10
-7.48054e-09
-3.0758e-10
-7.16934e-09
-3.11198e-10
-6.85524e-09
-3.14099e-10
-6.53897e-09
-3.16269e-10
-6.22128e-09
-3.17694e-10
-5.90292e-09
-3.18361e-10
-5.58466e-09
-3.18259e-10
-5.26728e-09
-3.17383e-10
-4.95155e-09
-3.15728e-10
-4.63826e-09
-3.13292e-10
-4.32818e-09
-3.10074e-10
-4.0221e-09
-3.06079e-10
-3.72079e-09
-3.01313e-10
-3.42501e-09
-2.95782e-10
-3.13552e-09
-2.89496e-10
-2.85304e-09
-2.8247e-10
-2.57832e-09
-2.74722e-10
-2.31205e-09
-2.66269e-10
-2.05492e-09
-2.57132e-10
-1.80758e-09
-2.47335e-10
-1.57068e-09
-2.36908e-10
-1.3448e-09
-2.25877e-10
-1.13053e-09
-2.14274e-10
-9.28389e-10
-2.02135e-10
-7.38888e-10
-1.895e-10
-5.62481e-10
-1.76408e-10
-3.9958e-10
-1.62902e-10
-2.50551e-10
-1.49029e-10
-1.15709e-10
-1.3484e-10
4.68474e-12
-1.20393e-10
1.10431e-10
-1.05748e-10
2.01398e-10
-9.0967e-11
2.77524e-10
-7.61252e-11
3.38828e-10
-6.13033e-11
3.85418e-10
-4.65912e-11
4.17509e-10
-3.20906e-11
4.3543e-10
-1.79201e-11
4.3965e-10
-4.21893e-12
4.308e-10
8.84898e-12
4.09713e-10
2.10862e-11
3.77463e-10
3.22506e-11
3.35426e-10
4.20376e-11
2.85368e-10
5.00588e-11
2.29555e-10
5.58114e-11
1.70918e-10
5.86354e-11
1.13243e-10
5.76762e-11
6.13607e-11
5.18852e-11
2.13066e-11
4.00554e-11
7.11519e-15
2.12982e-11
8.58185e-15
2.94881e-11
-3.74541e-11
9.42155e-11
-9.47049e-11
1.74336e-10
-1.20916e-10
2.52658e-10
-1.20281e-10
3.15706e-10
-9.95156e-11
3.53492e-10
-6.4425e-11
3.58958e-10
-1.94964e-11
3.27329e-10
3.19002e-11
2.55586e-10
8.72906e-11
1.42017e-10
1.44856e-10
-1.41204e-11
2.03255e-10
-2.12825e-10
2.61513e-10
-4.53559e-10
3.189e-10
-7.35364e-10
3.74883e-10
-1.05699e-09
4.29069e-10
-1.41696e-09
4.81169e-10
-1.81365e-09
5.30989e-10
-2.24532e-09
5.78392e-10
-2.71016e-09
6.23295e-10
-3.20631e-09
6.65656e-10
-3.73193e-09
7.05456e-10
-4.28513e-09
7.42703e-10
-4.86408e-09
7.7743e-10
-5.46695e-09
8.09675e-10
-6.09195e-09
8.39493e-10
-6.73735e-09
8.66945e-10
-7.40144e-09
8.92093e-10
-8.08257e-09
9.15007e-10
-8.77915e-09
9.35762e-10
-9.48963e-09
9.54428e-10
-1.02125e-08
9.71075e-10
-1.09464e-08
9.85777e-10
-1.16898e-08
9.98603e-10
-1.24414e-08
1.00961e-09
-1.31999e-08
1.01888e-09
-1.39641e-08
1.02645e-09
-1.47327e-08
1.03239e-09
-1.55046e-08
1.03674e-09
-1.62786e-08
1.03956e-09
-1.70535e-08
1.04088e-09
-1.78284e-08
1.04075e-09
-1.86022e-08
1.0392e-09
-1.93737e-08
1.03627e-09
-2.0142e-08
1.03197e-09
-2.09061e-08
1.02634e-09
-2.16651e-08
1.01939e-09
-2.24178e-08
1.01114e-09
-2.31635e-08
1.00161e-09
-2.39011e-08
9.90803e-10
-2.46296e-08
9.78728e-10
-2.53482e-08
9.65395e-10
-2.60559e-08
9.50805e-10
-2.67517e-08
9.3496e-10
-2.74348e-08
9.17863e-10
-2.81041e-08
8.99511e-10
-2.87588e-08
8.79904e-10
-2.9398e-08
8.59039e-10
-3.00206e-08
8.36919e-10
-3.06257e-08
8.13541e-10
-3.12125e-08
7.88905e-10
-3.17799e-08
7.63013e-10
-3.23271e-08
7.35866e-10
-3.28531e-08
7.07467e-10
-3.33569e-08
6.77818e-10
-3.38378e-08
6.46926e-10
-3.42946e-08
6.14804e-10
-3.47267e-08
5.81466e-10
-3.51329e-08
5.46926e-10
-3.55126e-08
5.11205e-10
-3.58648e-08
4.7432e-10
-3.61886e-08
4.36301e-10
-3.64833e-08
3.97177e-10
-3.67481e-08
3.56981e-10
-3.69822e-08
3.15753e-10
-3.71848e-08
2.73538e-10
-3.73554e-08
2.3038e-10
-3.74932e-08
1.86334e-10
-3.75976e-08
1.41455e-10
-3.7668e-08
9.58033e-11
-3.7704e-08
4.94491e-11
-3.7705e-08
2.46253e-12
-3.76707e-08
-4.50814e-11
-3.76007e-08
-9.30997e-11
-3.74947e-08
-1.41507e-10
-3.73526e-08
-1.90216e-10
-3.71741e-08
-2.39128e-10
-3.69592e-08
-2.88147e-10
-3.67079e-08
-3.3717e-10
-3.64203e-08
-3.8609e-10
-3.60965e-08
-4.34794e-10
-3.57368e-08
-4.83173e-10
-3.53415e-08
-5.31109e-10
-3.49111e-08
-5.78482e-10
-3.4446e-08
-6.25172e-10
-3.39469e-08
-6.71058e-10
-3.34144e-08
-7.16011e-10
-3.28494e-08
-7.59909e-10
-3.22527e-08
-8.02628e-10
-3.16253e-08
-8.44042e-10
-3.09682e-08
-8.84023e-10
-3.02826e-08
-9.22449e-10
-2.95698e-08
-9.59201e-10
-2.88311e-08
-9.94156e-10
-2.80679e-08
-1.0272e-09
-2.72816e-08
-1.05821e-09
-2.6474e-08
-1.08709e-09
-2.56466e-08
-1.11372e-09
-2.48012e-08
-1.13801e-09
-2.39396e-08
-1.15986e-09
-2.30637e-08
-1.17918e-09
-2.21754e-08
-1.19589e-09
-2.12767e-08
-1.20991e-09
-2.03696e-08
-1.22118e-09
-1.94563e-08
-1.22963e-09
-1.85388e-08
-1.2352e-09
-1.76193e-08
-1.23786e-09
-1.66999e-08
-1.23757e-09
-1.5783e-08
-1.2343e-09
-1.48707e-08
-1.22804e-09
-1.39652e-08
-1.21878e-09
-1.30688e-08
-1.20651e-09
-1.21836e-08
-1.19126e-09
-1.13119e-08
-1.17304e-09
-1.04558e-08
-1.15189e-09
-9.61743e-09
-1.12785e-09
-8.79892e-09
-1.10098e-09
-8.00232e-09
-1.07132e-09
-7.22962e-09
-1.03897e-09
-6.48274e-09
-1.00401e-09
-5.76355e-09
-9.66524e-10
-5.07383e-09
-9.26624e-10
-4.41529e-09
-8.84422e-10
-3.78951e-09
-8.40048e-10
-3.19801e-09
-7.93639e-10
-2.64217e-09
-7.45342e-10
-2.12326e-09
-6.95319e-10
-1.64242e-09
-6.43745e-10
-1.20064e-09
-5.90808e-10
-7.98768e-10
-5.36711e-10
-4.37493e-10
-4.81671e-10
-1.17313e-10
-4.25929e-10
1.61466e-10
-3.69747e-10
3.98755e-10
-3.13414e-10
5.947e-10
-2.57248e-10
7.49717e-10
-2.01607e-10
8.64525e-10
-1.46898e-10
9.40186e-10
-9.3582e-11
9.78161e-10
-4.21957e-11
9.80373e-10
6.63456e-12
9.49296e-10
5.21639e-11
8.88051e-10
9.34966e-11
8.00543e-10
1.29546e-10
6.91619e-10
1.58981e-10
5.67264e-10
1.80165e-10
4.34808e-10
1.91092e-10
3.03103e-10
1.89383e-10
1.82556e-10
1.72433e-10
8.47814e-11
1.3783e-10
2.12591e-11
8.48225e-11
2.127e-11
4.08248e-11
-7.82756e-11
1.20807e-10
-1.74688e-10
2.12876e-10
-2.12989e-10
2.95713e-10
-2.03116e-10
3.52188e-10
-1.55994e-10
3.69062e-10
-8.12973e-11
3.36499e-10
1.30687e-11
2.47501e-10
1.20898e-10
9.73639e-11
2.37427e-10
-1.16789e-10
3.59002e-10
-3.96395e-10
4.82867e-10
-7.41796e-10
6.06915e-10
-1.15246e-09
7.29561e-10
-1.62718e-09
8.49609e-10
-2.16427e-09
9.66158e-10
-2.76165e-09
1.07855e-09
-3.41695e-09
1.18629e-09
-4.12761e-09
1.28905e-09
-4.89092e-09
1.38661e-09
-5.70409e-09
1.47882e-09
-6.56426e-09
1.56563e-09
-7.46857e-09
1.64701e-09
-8.41415e-09
1.72301e-09
-9.39817e-09
1.79369e-09
-1.04178e-08
1.85914e-09
-1.14704e-08
1.91948e-09
-1.25531e-08
1.97483e-09
-1.36634e-08
2.02533e-09
-1.47988e-08
2.07112e-09
-1.59567e-08
2.11235e-09
-1.71348e-08
2.14916e-09
-1.83307e-08
2.18169e-09
-1.95422e-08
2.2101e-09
-2.07671e-08
2.2345e-09
-2.20033e-08
2.25505e-09
-2.32487e-08
2.27186e-09
-2.45013e-08
2.28504e-09
-2.57593e-08
2.2947e-09
-2.70207e-08
2.30096e-09
-2.82837e-08
2.3039e-09
-2.95466e-08
2.30359e-09
-3.08075e-08
2.30013e-09
-3.20648e-08
2.29358e-09
-3.33168e-08
2.28399e-09
-3.45619e-08
2.27142e-09
-3.57984e-08
2.25591e-09
-3.70248e-08
2.23751e-09
-3.82394e-08
2.21623e-09
-3.94407e-08
2.19211e-09
-4.06271e-08
2.16517e-09
-4.17972e-08
2.13541e-09
-4.29492e-08
2.10286e-09
-4.40818e-08
2.06751e-09
-4.51933e-08
2.02938e-09
-4.62823e-08
1.98847e-09
-4.73471e-08
1.94477e-09
-4.83864e-08
1.89828e-09
-4.93984e-08
1.84901e-09
-5.03819e-08
1.79696e-09
-5.13351e-08
1.74212e-09
-5.22566e-08
1.6845e-09
-5.31448e-08
1.62412e-09
-5.39983e-08
1.56097e-09
-5.48156e-08
1.49508e-09
-5.55951e-08
1.42647e-09
-5.63355e-08
1.35514e-09
-5.70351e-08
1.28115e-09
-5.76927e-08
1.20452e-09
-5.83068e-08
1.12531e-09
-5.88761e-08
1.04355e-09
-5.93991e-08
9.59317e-10
-5.98746e-08
8.72675e-10
-6.03013e-08
7.83699e-10
-6.0678e-08
6.92478e-10
-6.10036e-08
5.9911e-10
-6.12769e-08
5.037e-10
-6.1497e-08
4.06364e-10
-6.16627e-08
3.07231e-10
-6.17734e-08
2.06435e-10
-6.1828e-08
1.04125e-10
-6.1826e-08
4.60545e-13
-6.17667e-08
-1.04392e-10
-6.16496e-08
-2.10254e-10
-6.14741e-08
-3.16936e-10
-6.12401e-08
-4.24239e-10
-6.09473e-08
-5.31959e-10
-6.05956e-08
-6.39875e-10
-6.0185e-08
-7.47763e-10
-5.97157e-08
-8.55391e-10
-5.91879e-08
-9.62517e-10
-5.86022e-08
-1.06889e-09
-5.79591e-08
-1.17426e-09
-5.72592e-08
-1.27837e-09
-5.65034e-08
-1.38095e-09
-5.56927e-08
-1.48174e-09
-5.48282e-08
-1.58046e-09
-5.39113e-08
-1.67685e-09
-5.29433e-08
-1.77062e-09
-5.19258e-08
-1.86152e-09
-5.08606e-08
-1.94926e-09
-4.97495e-08
-2.03358e-09
-4.85945e-08
-2.11421e-09
-4.73977e-08
-2.19089e-09
-4.61616e-08
-2.26337e-09
-4.48884e-08
-2.33141e-09
-4.35807e-08
-2.39476e-09
-4.22412e-08
-2.45319e-09
-4.08727e-08
-2.50649e-09
-3.94781e-08
-2.55445e-09
-3.80604e-08
-2.59688e-09
-3.66227e-08
-2.6336e-09
-3.51682e-08
-2.66444e-09
-3.37001e-08
-2.68925e-09
-3.22219e-08
-2.7079e-09
-3.07368e-08
-2.72028e-09
-2.92483e-08
-2.7263e-09
-2.776e-08
-2.72587e-09
-2.62754e-08
-2.71894e-09
-2.4798e-08
-2.70548e-09
-2.33313e-08
-2.68546e-09
-2.18789e-08
-2.6589e-09
-2.04443e-08
-2.62583e-09
-1.90311e-08
-2.58629e-09
-1.76426e-08
-2.54036e-09
-1.62823e-08
-2.48813e-09
-1.49536e-08
-2.42971e-09
-1.36597e-08
-2.36526e-09
-1.24037e-08
-2.29494e-09
-1.11888e-08
-2.21892e-09
-1.00179e-08
-2.13742e-09
-8.89383e-09
-2.05068e-09
-7.81931e-09
-1.95894e-09
-6.79685e-09
-1.8625e-09
-5.82884e-09
-1.76165e-09
-4.91746e-09
-1.65672e-09
-4.06469e-09
-1.54809e-09
-3.27232e-09
-1.43612e-09
-2.54189e-09
-1.32124e-09
-1.87469e-09
-1.2039e-09
-1.27176e-09
-1.0846e-09
-7.3383e-10
-9.63861e-10
-2.6131e-10
-8.42267e-10
1.45738e-10
-7.2046e-10
4.87641e-10
-5.99148e-10
7.65157e-10
-4.79123e-10
9.79531e-10
-3.61274e-10
1.13256e-09
-2.46607e-10
1.22665e-09
-1.36283e-10
1.26492e-09
-3.16433e-11
1.25134e-09
6.57438e-11
1.19081e-09
1.5403e-10
1.08933e-09
2.31021e-10
9.5421e-10
2.94105e-10
7.94195e-10
3.4018e-10
6.19668e-10
3.65621e-10
4.42712e-10
3.66339e-10
2.77047e-10
3.38099e-10
1.37638e-10
2.7724e-10
3.99357e-11
1.82529e-10
6.12053e-11
4.21226e-11
-1.204e-10
1.20639e-10
-2.53203e-10
2.03659e-10
-2.96009e-10
2.67091e-10
-2.66548e-10
2.91747e-10
-1.80649e-10
2.62568e-10
-5.21207e-11
1.68083e-10
1.07553e-10
-1.32115e-13
2.8912e-10
-2.47952e-10
4.85242e-10
-5.79139e-10
6.90189e-10
-9.95744e-10
8.99469e-10
-1.49843e-09
1.1096e-09
-2.08677e-09
1.3179e-09
-2.75945e-09
1.52229e-09
-3.5145e-09
1.72121e-09
-4.3494e-09
1.91345e-09
-5.26125e-09
2.09813e-09
-6.24681e-09
2.27462e-09
-7.30268e-09
2.44248e-09
-8.42527e-09
2.60141e-09
-9.61091e-09
2.75127e-09
-1.08559e-08
2.89197e-09
-1.21564e-08
3.02355e-09
-1.35088e-08
3.14609e-09
-1.49094e-08
3.2597e-09
-1.63544e-08
3.36456e-09
-1.78405e-08
3.46086e-09
-1.9364e-08
3.54881e-09
-2.09215e-08
3.62863e-09
-2.25097e-08
3.70057e-09
-2.41254e-08
3.76484e-09
-2.57654e-08
3.8217e-09
-2.74267e-08
3.87137e-09
-2.91062e-08
3.91408e-09
-3.08012e-08
3.95004e-09
-3.25088e-08
3.97946e-09
-3.42263e-08
4.00254e-09
-3.59511e-08
4.01946e-09
-3.76805e-08
4.03039e-09
-3.94121e-08
4.03548e-09
-4.11434e-08
4.03488e-09
-4.2872e-08
4.02872e-09
-4.45955e-08
4.01711e-09
-4.63117e-08
4.00016e-09
-4.80182e-08
3.97795e-09
-4.97129e-08
3.95057e-09
-5.13934e-08
3.91807e-09
-5.30577e-08
3.88051e-09
-5.47035e-08
3.83794e-09
-5.63288e-08
3.7904e-09
-5.79313e-08
3.7379e-09
-5.95089e-08
3.68048e-09
-6.10595e-08
3.61815e-09
-6.25811e-08
3.55092e-09
-6.40714e-08
3.4788e-09
-6.55284e-08
3.40179e-09
-6.695e-08
3.31989e-09
-6.83341e-08
3.23312e-09
-6.96786e-08
3.14147e-09
-7.09815e-08
3.04495e-09
-7.22406e-08
2.94359e-09
-7.34538e-08
2.83738e-09
-7.46192e-08
2.72636e-09
-7.57347e-08
2.61055e-09
-7.67982e-08
2.49e-09
-7.78078e-08
2.36474e-09
-7.87615e-08
2.23485e-09
-7.96573e-08
2.10038e-09
-8.04935e-08
1.96142e-09
-8.1268e-08
1.81806e-09
-8.19791e-08
1.67042e-09
-8.2625e-08
1.51861e-09
-8.32041e-08
1.36278e-09
-8.37147e-08
1.20308e-09
-8.41552e-08
1.03967e-09
-8.45243e-08
8.72759e-10
-8.48205e-08
7.02539e-10
-8.50425e-08
5.29236e-10
-8.51891e-08
3.53094e-10
-8.52594e-08
1.74367e-10
-8.52523e-08
-6.6668e-12
-8.51669e-08
-1.89712e-10
-8.50027e-08
-3.74457e-10
-8.47591e-08
-5.60577e-10
-8.44356e-08
-7.47722e-10
-8.4032e-08
-9.35535e-10
-8.35483e-08
-1.12364e-09
-8.29844e-08
-1.31164e-09
-8.23406e-08
-1.49913e-09
-8.16174e-08
-1.68571e-09
-8.08154e-08
-1.87093e-09
-7.99353e-08
-2.05436e-09
-7.89781e-08
-2.23554e-09
-7.79451e-08
-2.41404e-09
-7.68374e-08
-2.58937e-09
-7.56568e-08
-2.76109e-09
-7.4405e-08
-2.9287e-09
-7.30838e-08
-3.09176e-09
-7.16956e-08
-3.24978e-09
-7.02425e-08
-3.4023e-09
-6.87272e-08
-3.54887e-09
-6.71524e-08
-3.68901e-09
-6.5521e-08
-3.82229e-09
-6.38361e-08
-3.94826e-09
-6.2101e-08
-4.06651e-09
-6.03192e-08
-4.17662e-09
-5.84942e-08
-4.27821e-09
-5.66298e-08
-4.37089e-09
-5.47299e-08
-4.45431e-09
-5.27986e-08
-4.52814e-09
-5.08402e-08
-4.59208e-09
-4.88588e-08
-4.64583e-09
-4.68588e-08
-4.68916e-09
-4.48449e-08
-4.72182e-09
-4.28216e-08
-4.74363e-09
-4.07935e-08
-4.75442e-09
-3.87653e-08
-4.75406e-09
-3.67417e-08
-4.74247e-09
-3.47277e-08
-4.71957e-09
-3.27278e-08
-4.68535e-09
-3.07469e-08
-4.63981e-09
-2.87897e-08
-4.58302e-09
-2.68609e-08
-4.51505e-09
-2.49652e-08
-4.43604e-09
-2.31072e-08
-4.34616e-09
-2.12913e-08
-4.2456e-09
-1.95219e-08
-4.13462e-09
-1.78034e-08
-4.01351e-09
-1.61397e-08
-3.88258e-09
-1.45349e-08
-3.74221e-09
-1.29928e-08
-3.5928e-09
-1.15169e-08
-3.4348e-09
-1.01107e-08
-3.26871e-09
-8.77731e-09
-3.09506e-09
-7.51962e-09
-2.91442e-09
-6.34027e-09
-2.72744e-09
-5.2416e-09
-2.53478e-09
-4.22565e-09
-2.33719e-09
-3.2941e-09
-2.13545e-09
-2.44827e-09
-1.93043e-09
-1.68907e-09
-1.72306e-09
-1.01698e-09
-1.51435e-09
-4.32001e-10
-1.30544e-09
6.63901e-11
-1.09754e-09
4.79298e-10
-8.92033e-10
8.0847e-10
-6.90445e-10
1.05637e-09
-4.94506e-10
1.22627e-09
-3.06181e-10
1.32234e-09
-1.27718e-10
1.3498e-09
3.82893e-11
1.315e-09
1.88831e-10
1.22562e-09
3.20403e-10
1.09079e-09
4.2893e-10
9.21267e-10
5.09703e-10
7.29519e-10
5.5737e-10
5.29802e-10
5.66057e-10
3.38146e-10
5.29756e-10
1.72271e-10
4.43118e-10
5.17149e-11
3.03087e-10
1.12918e-10
3.68592e-11
-1.57262e-10
1.00434e-10
-3.16777e-10
1.5734e-10
-3.52919e-10
1.82168e-10
-2.91375e-10
1.54739e-10
-1.53219e-10
5.91164e-11
4.34999e-11
-1.17013e-10
2.83684e-10
-3.82874e-10
5.54979e-10
-7.4504e-10
8.47414e-10
-1.20786e-09
1.153e-09
-1.77379e-09
1.4654e-09
-2.44377e-09
1.77958e-09
-3.21744e-09
2.09158e-09
-4.09346e-09
2.39831e-09
-5.06963e-09
2.69738e-09
-6.14314e-09
2.98695e-09
-7.31063e-09
3.26562e-09
-8.56839e-09
3.53238e-09
-9.9124e-09
3.78648e-09
-1.13384e-08
4.02744e-09
-1.28421e-08
4.25496e-09
-1.4419e-08
4.46887e-09
-1.60646e-08
4.66916e-09
-1.77744e-08
4.85589e-09
-1.95439e-08
5.02923e-09
-2.13688e-08
5.18938e-09
-2.32445e-08
5.3366e-09
-2.51669e-08
5.47117e-09
-2.71316e-08
5.59341e-09
-2.91347e-08
5.70366e-09
-3.11721e-08
5.80224e-09
-3.32399e-08
5.88949e-09
-3.53343e-08
5.96575e-09
-3.74515e-08
6.03134e-09
-3.95881e-08
6.08659e-09
-4.17404e-08
6.13178e-09
-4.39051e-08
6.16722e-09
-4.60788e-08
6.19316e-09
-4.82583e-08
6.20987e-09
-5.04404e-08
6.21757e-09
-5.2622e-08
6.21648e-09
-5.48e-08
6.20679e-09
-5.69716e-08
6.18867e-09
-5.91337e-08
6.16228e-09
-6.12835e-08
6.12775e-09
-6.34181e-08
6.0852e-09
-6.55348e-08
6.03473e-09
-6.76307e-08
5.97644e-09
-6.97032e-08
5.91037e-09
-7.17494e-08
5.83661e-09
-7.37667e-08
5.75519e-09
-7.57523e-08
5.66615e-09
-7.77037e-08
5.56951e-09
-7.96181e-08
5.4653e-09
-8.14928e-08
5.35354e-09
-8.33252e-08
5.23423e-09
-8.51127e-08
5.1074e-09
-8.68527e-08
4.97304e-09
-8.85424e-08
4.83118e-09
-9.01793e-08
4.68184e-09
-9.17607e-08
4.52504e-09
-9.32842e-08
4.36081e-09
-9.4747e-08
4.18919e-09
-9.61467e-08
4.01023e-09
-9.74807e-08
3.824e-09
-9.87465e-08
3.63058e-09
-9.99417e-08
3.43007e-09
-1.01064e-07
3.22257e-09
-1.02111e-07
3.00822e-09
-1.0308e-07
2.78716e-09
-1.03969e-07
2.55958e-09
-1.04776e-07
2.32566e-09
-1.05499e-07
2.08562e-09
-1.06136e-07
1.83971e-09
-1.06684e-07
1.58819e-09
-1.07143e-07
1.33135e-09
-1.0751e-07
1.06952e-09
-1.07783e-07
8.0303e-10
-1.07963e-07
5.32262e-10
-1.08046e-07
2.57612e-10
-1.08032e-07
-2.0497e-11
-1.0792e-07
-3.01612e-10
-1.07709e-07
-5.85252e-10
-1.07399e-07
-8.70916e-10
-1.06989e-07
-1.15808e-09
-1.06478e-07
-1.44618e-09
-1.05867e-07
-1.73466e-09
-1.05156e-07
-2.0229e-09
-1.04344e-07
-2.3103e-09
-1.03434e-07
-2.59621e-09
-1.02425e-07
-2.87999e-09
-1.01318e-07
-3.16097e-09
-1.00115e-07
-3.43846e-09
-9.88176e-08
-3.71177e-09
-9.74268e-08
-3.9802e-09
-9.59449e-08
-4.24304e-09
-9.4374e-08
-4.49958e-09
-9.27167e-08
-4.7491e-09
-9.09755e-08
-4.99089e-09
-8.91536e-08
-5.22425e-09
-8.7254e-08
-5.44847e-09
-8.52801e-08
-5.66287e-09
-8.32357e-08
-5.86676e-09
-8.11244e-08
-6.05948e-09
-7.89506e-08
-6.2404e-09
-7.67183e-08
-6.40889e-09
-7.44321e-08
-6.56436e-09
-7.20968e-08
-6.70624e-09
-6.97171e-08
-6.83399e-09
-6.72981e-08
-6.94712e-09
-6.48451e-08
-7.04516e-09
-6.23632e-08
-7.12768e-09
-5.98581e-08
-7.19431e-09
-5.73352e-08
-7.2447e-09
-5.48003e-08
-7.27855e-09
-5.2259e-08
-7.29563e-09
-4.97174e-08
-7.29574e-09
-4.71811e-08
-7.27874e-09
-4.46561e-08
-7.24454e-09
-4.21484e-08
-7.1931e-09
-3.96637e-08
-7.12446e-09
-3.72081e-08
-7.03869e-09
-3.47872e-08
-6.93593e-09
-3.24069e-08
-6.81637e-09
-3.00727e-08
-6.68028e-09
-2.77904e-08
-6.52798e-09
-2.55651e-08
-6.35984e-09
-2.34023e-08
-6.1763e-09
-2.13071e-08
-5.97787e-09
-1.92842e-08
-5.76511e-09
-1.73383e-08
-5.53864e-09
-1.54739e-08
-5.29916e-09
-1.36952e-08
-5.04743e-09
-1.2006e-08
-4.78426e-09
-1.04099e-08
-4.51056e-09
-8.91004e-09
-4.22729e-09
-7.50933e-09
-3.9355e-09
-6.2102e-09
-3.63631e-09
-5.0147e-09
-3.33096e-09
-3.92438e-09
-3.02075e-09
-2.94031e-09
-2.70713e-09
-2.06301e-09
-2.39166e-09
-1.2924e-09
-2.07604e-09
-6.27781e-10
-1.76216e-09
-6.77291e-11
-1.45208e-09
3.89954e-10
-1.14813e-09
7.48321e-10
-8.52873e-10
1.01138e-09
-5.69235e-10
1.18417e-09
-3.00514e-10
1.27293e-09
-5.04711e-11
1.28518e-09
1.76589e-10
1.22984e-09
3.7574e-10
1.11742e-09
5.41351e-10
9.60088e-10
6.67035e-10
7.71802e-10
7.45659e-10
5.68388e-10
7.69473e-10
3.67671e-10
7.30474e-10
1.89721e-10
6.21069e-10
5.75752e-11
4.35231e-10
1.70494e-10
2.72466e-11
-1.84507e-10
6.5822e-11
-3.55352e-10
8.32272e-11
-3.70322e-10
5.41257e-11
-2.62274e-10
-4.1723e-11
-5.73707e-11
-2.20407e-10
2.22189e-10
-4.94493e-10
5.57763e-10
-8.73485e-10
9.33971e-10
-1.36427e-09
1.3382e-09
-1.97147e-09
1.76021e-09
-2.69777e-09
2.1917e-09
-3.54424e-09
2.62604e-09
-4.51055e-09
3.05789e-09
-5.59529e-09
3.48305e-09
-6.79611e-09
3.8982e-09
-8.10992e-09
4.30075e-09
-9.53302e-09
4.68873e-09
-1.10613e-08
5.06064e-09
-1.26902e-08
5.4154e-09
-1.4415e-08
5.75225e-09
-1.62307e-08
6.07069e-09
-1.81323e-08
6.37045e-09
-2.01146e-08
6.65144e-09
-2.21724e-08
6.91369e-09
-2.43005e-08
7.15737e-09
-2.64939e-08
7.38272e-09
-2.87473e-08
7.59005e-09
-3.10559e-08
7.77972e-09
-3.34146e-08
7.95215e-09
-3.58187e-08
8.10776e-09
-3.82635e-08
8.24697e-09
-4.07442e-08
8.37025e-09
-4.32565e-08
8.47804e-09
-4.5796e-08
8.57078e-09
-4.83582e-08
8.64887e-09
-5.09392e-08
8.71275e-09
-5.35348e-08
8.7628e-09
-5.6141e-08
8.79937e-09
-5.8754e-08
8.82282e-09
-6.13698e-08
8.83347e-09
-6.3985e-08
8.8316e-09
-6.65957e-08
8.81748e-09
-6.91983e-08
8.79136e-09
-7.17895e-08
8.75344e-09
-7.43657e-08
8.70391e-09
-7.69234e-08
8.64295e-09
-7.94594e-08
8.57068e-09
-8.19702e-08
8.48725e-09
-8.44525e-08
8.39274e-09
-8.69032e-08
8.28724e-09
-8.93188e-08
8.17083e-09
-9.16962e-08
8.04355e-09
-9.40321e-08
7.90545e-09
-9.63234e-08
7.75658e-09
-9.85668e-08
7.59695e-09
-1.00759e-07
7.4266e-09
-1.02897e-07
7.24554e-09
-1.04978e-07
7.0538e-09
-1.06998e-07
6.85142e-09
-1.08955e-07
6.63842e-09
-1.10845e-07
6.41485e-09
-1.12665e-07
6.18076e-09
-1.14412e-07
5.93621e-09
-1.16083e-07
5.6813e-09
-1.17675e-07
5.41612e-09
-1.19185e-07
5.14079e-09
-1.2061e-07
4.85545e-09
-1.21948e-07
4.56027e-09
-1.23195e-07
4.25545e-09
-1.24349e-07
3.9412e-09
-1.25408e-07
3.61778e-09
-1.26367e-07
3.28547e-09
-1.27226e-07
2.94457e-09
-1.27982e-07
2.59545e-09
-1.28632e-07
2.23848e-09
-1.29175e-07
1.87408e-09
-1.29608e-07
1.50271e-09
-1.2993e-07
1.12486e-09
-1.30139e-07
7.41054e-10
-1.30233e-07
3.51859e-10
-1.30212e-07
-4.21176e-11
-1.30073e-07
-4.4024e-10
-1.29816e-07
-8.41831e-10
-1.29441e-07
-1.24618e-09
-1.28947e-07
-1.65254e-09
-1.28333e-07
-2.06013e-09
-1.27599e-07
-2.46814e-09
-1.26746e-07
-2.87574e-09
-1.25775e-07
-3.28205e-09
-1.24685e-07
-3.68617e-09
-1.23477e-07
-4.0872e-09
-1.22154e-07
-4.48419e-09
-1.20717e-07
-4.87618e-09
-1.19166e-07
-5.26221e-09
-1.17505e-07
-5.64128e-09
-1.15736e-07
-6.01241e-09
-1.13861e-07
-6.3746e-09
-1.11883e-07
-6.72684e-09
-1.09806e-07
-7.06815e-09
-1.07632e-07
-7.39753e-09
-1.05367e-07
-7.714e-09
-1.03013e-07
-8.0166e-09
-1.00575e-07
-8.30437e-09
-9.80586e-08
-8.5764e-09
-9.54672e-08
-8.8318e-09
-9.28064e-08
-9.06969e-09
-9.00815e-08
-9.28924e-09
-8.72981e-08
-9.48966e-09
-8.44618e-08
-9.67021e-09
-8.15788e-08
-9.83019e-09
-7.8655e-08
-9.96895e-09
-7.56967e-08
-1.00859e-08
-7.27105e-08
-1.01805e-08
-6.9703e-08
-1.02523e-08
-6.66807e-08
-1.03008e-08
-6.36505e-08
-1.03258e-08
-6.06192e-08
-1.0327e-08
-5.75938e-08
-1.03041e-08
-5.45812e-08
-1.02571e-08
-5.15884e-08
-1.01859e-08
-4.86223e-08
-1.00906e-08
-4.56898e-08
-9.97116e-09
-4.27978e-08
-9.82793e-09
-3.99531e-08
-9.66114e-09
-3.71622e-08
-9.47116e-09
-3.44317e-08
-9.25845e-09
-3.1768e-08
-9.02353e-09
-2.91773e-08
-8.76704e-09
-2.66655e-08
-8.48968e-09
-2.42384e-08
-8.19226e-09
-2.19013e-08
-7.87566e-09
-1.96596e-08
-7.54086e-09
-1.75181e-08
-7.18894e-09
-1.54813e-08
-6.82106e-09
-1.35534e-08
-6.43849e-09
-1.17381e-08
-6.04261e-09
-1.00387e-08
-5.63489e-09
-8.45805e-09
-5.21695e-09
-6.99851e-09
-4.79049e-09
-5.66186e-09
-4.3574e-09
-4.44928e-09
-3.9197e-09
-3.36135e-09
-3.47959e-09
-2.39793e-09
-3.03946e-09
-1.55814e-09
-2.60195e-09
-8.4029e-10
-2.16993e-09
-2.41807e-10
-1.74661e-09
2.40857e-10
-1.33554e-09
6.12304e-10
-9.4068e-10
8.78292e-10
-5.66499e-10
1.04584e-09
-2.18019e-10
1.12335e-09
9.9085e-11
1.12069e-09
3.78396e-10
1.04936e-09
6.1268e-10
9.22567e-10
7.93834e-10
7.55332e-10
9.12894e-10
5.64668e-10
9.60137e-10
3.69808e-10
9.25336e-10
1.92666e-10
7.98212e-10
5.88043e-11
5.69092e-10
2.293e-10
1.47807e-11
-1.99292e-10
2.10901e-11
-3.61657e-10
-1.12104e-11
-3.38023e-10
-1.06257e-10
-1.67231e-10
-2.83568e-10
1.19947e-10
-5.58797e-10
4.97416e-10
-9.44241e-10
9.4321e-10
-1.4493e-09
1.43903e-09
-2.08082e-09
1.96972e-09
-2.84343e-09
2.52282e-09
-3.73982e-09
3.0881e-09
-4.77106e-09
3.65727e-09
-5.93678e-09
4.22361e-09
-7.23543e-09
4.78171e-09
-8.6645e-09
5.32727e-09
-1.02207e-08
5.85691e-09
-1.18999e-08
6.36798e-09
-1.36977e-08
6.85848e-09
-1.56092e-08
7.3269e-09
-1.76292e-08
7.77218e-09
-1.97521e-08
8.19359e-09
-2.19723e-08
8.5907e-09
-2.42842e-08
8.96331e-09
-2.66819e-08
9.31141e-09
-2.91597e-08
9.63514e-09
-3.17117e-08
9.93476e-09
-3.43323e-08
1.02106e-08
-3.70158e-08
1.04632e-08
-3.97567e-08
1.0693e-08
-4.25493e-08
1.09004e-08
-4.53885e-08
1.10861e-08
-4.82688e-08
1.12506e-08
-5.11853e-08
1.13945e-08
-5.41327e-08
1.15182e-08
-5.71063e-08
1.16225e-08
-6.01012e-08
1.17077e-08
-6.31128e-08
1.17743e-08
-6.61364e-08
1.1823e-08
-6.91675e-08
1.1854e-08
-7.22018e-08
1.18677e-08
-7.52349e-08
1.18647e-08
-7.82626e-08
1.18452e-08
-8.12808e-08
1.18095e-08
-8.42853e-08
1.1758e-08
-8.72721e-08
1.16908e-08
-9.02373e-08
1.16081e-08
-9.31769e-08
1.15103e-08
-9.60871e-08
1.13974e-08
-9.89639e-08
1.12696e-08
-1.01804e-07
1.11269e-08
-1.04602e-07
1.09696e-08
-1.07356e-07
1.07976e-08
-1.10062e-07
1.0611e-08
-1.12715e-07
1.041e-08
-1.15313e-07
1.01945e-08
-1.17851e-07
9.96454e-09
-1.20326e-07
9.72023e-09
-1.22733e-07
9.46158e-09
-1.25071e-07
9.18865e-09
-1.27334e-07
8.90148e-09
-1.29519e-07
8.60014e-09
-1.31623e-07
8.28473e-09
-1.33642e-07
7.95533e-09
-1.35573e-07
7.61207e-09
-1.37412e-07
7.25509e-09
-1.39155e-07
6.88456e-09
-1.40801e-07
6.50069e-09
-1.42344e-07
6.10371e-09
-1.43783e-07
5.69389e-09
-1.45113e-07
5.27153e-09
-1.46332e-07
4.83697e-09
-1.47437e-07
4.39061e-09
-1.48426e-07
3.93287e-09
-1.49294e-07
3.46422e-09
-1.50041e-07
2.98518e-09
-1.50663e-07
2.49632e-09
-1.51159e-07
1.99825e-09
-1.51526e-07
1.49164e-09
-1.51762e-07
9.77188e-10
-1.51866e-07
4.55661e-10
-1.51836e-07
-7.21342e-11
-1.5167e-07
-6.05339e-10
-1.51369e-07
-1.14305e-09
-1.50931e-07
-1.68432e-09
-1.50355e-07
-2.22815e-09
-1.49642e-07
-2.77351e-09
-1.48791e-07
-3.3193e-09
-1.47802e-07
-3.86442e-09
-1.46677e-07
-4.40771e-09
-1.45415e-07
-4.94798e-09
-1.44018e-07
-5.484e-09
-1.42488e-07
-6.01454e-09
-1.40825e-07
-6.53832e-09
-1.39034e-07
-7.05404e-09
-1.37114e-07
-7.56042e-09
-1.35071e-07
-8.05613e-09
-1.32905e-07
-8.53984e-09
-1.30622e-07
-9.01023e-09
-1.28224e-07
-9.466e-09
-1.25716e-07
-9.90582e-09
-1.23102e-07
-1.03284e-08
-1.20386e-07
-1.07324e-08
-1.17573e-07
-1.11167e-08
-1.1467e-07
-1.148e-08
-1.1168e-07
-1.18211e-08
-1.08611e-07
-1.21389e-08
-1.05468e-07
-1.24323e-08
-1.02257e-07
-1.27002e-08
-9.89859e-08
-1.29417e-08
-9.56603e-08
-1.31558e-08
-9.22875e-08
-1.33417e-08
-8.88748e-08
-1.34986e-08
-8.54295e-08
-1.36258e-08
-8.19592e-08
-1.37226e-08
-7.84714e-08
-1.37886e-08
-7.4974e-08
-1.38233e-08
-7.14747e-08
-1.38263e-08
-6.79815e-08
-1.37974e-08
-6.45022e-08
-1.37364e-08
-6.10448e-08
-1.36433e-08
-5.76172e-08
-1.35181e-08
-5.42273e-08
-1.33611e-08
-5.08829e-08
-1.31723e-08
-4.75916e-08
-1.29524e-08
-4.43612e-08
-1.27016e-08
-4.11989e-08
-1.24207e-08
-3.81121e-08
-1.21104e-08
-3.51077e-08
-1.17714e-08
-3.21927e-08
-1.14048e-08
-2.93734e-08
-1.10116e-08
-2.66561e-08
-1.0593e-08
-2.40466e-08
-1.01503e-08
-2.15507e-08
-9.68493e-09
-1.91732e-08
-9.19851e-09
-1.6919e-08
-8.69269e-09
-1.47923e-08
-8.16933e-09
-1.27968e-08
-7.6304e-09
-1.09357e-08
-7.07804e-09
-9.21163e-09
-6.51455e-09
-7.6266e-09
-5.94244e-09
-6.18192e-09
-5.36439e-09
-4.8782e-09
-4.78331e-09
-3.71527e-09
-4.20239e-09
-2.69212e-09
-3.62509e-09
-1.80686e-09
-3.0552e-09
-1.05659e-09
-2.49688e-09
-4.37388e-10
-1.95474e-09
5.5818e-11
-1.43389e-09
4.29328e-10
-9.40008e-10
6.90764e-10
-4.79454e-10
8.49173e-10
-5.93241e-11
9.15128e-10
3.12442e-10
9.00827e-10
6.26981e-10
8.20211e-10
8.7445e-10
6.89091e-10
1.04401e-09
5.25343e-10
1.12389e-09
3.49228e-10
1.10145e-09
1.8393e-10
9.6351e-10
5.65164e-11
6.96508e-10
2.85817e-10
4.90326e-13
-1.99784e-10
-3.05996e-11
-3.30566e-10
-1.20188e-10
-2.48437e-10
-2.90425e-10
3.00724e-12
-5.59486e-10
3.89003e-10
-9.42065e-10
8.80001e-10
-1.4498e-09
1.45095e-09
-2.09163e-09
2.08085e-09
-2.87405e-09
2.75215e-09
-3.80148e-09
3.45023e-09
-4.87641e-09
4.16304e-09
-6.09975e-09
4.88062e-09
-7.47098e-09
5.59484e-09
-8.98838e-09
6.2991e-09
-1.06492e-08
6.98811e-09
-1.24499e-08
7.6576e-09
-1.43862e-08
8.30425e-09
-1.64532e-08
8.92549e-09
-1.86456e-08
9.51935e-09
-2.09579e-08
1.00844e-08
-2.3384e-08
1.06197e-08
-2.59179e-08
1.11246e-08
-2.85534e-08
1.15988e-08
-3.12841e-08
1.20421e-08
-3.41037e-08
1.24547e-08
-3.70058e-08
1.28369e-08
-3.99843e-08
1.31891e-08
-4.30327e-08
1.35117e-08
-4.6145e-08
1.38053e-08
-4.93151e-08
1.40705e-08
-5.2537e-08
1.4308e-08
-5.58048e-08
1.45185e-08
-5.91129e-08
1.47025e-08
-6.24555e-08
1.48609e-08
-6.58272e-08
1.49942e-08
-6.92226e-08
1.51031e-08
-7.26365e-08
1.51882e-08
-7.60635e-08
1.525e-08
-7.94988e-08
1.52892e-08
-8.29372e-08
1.53062e-08
-8.6374e-08
1.53015e-08
-8.98043e-08
1.52755e-08
-9.32235e-08
1.52287e-08
-9.66269e-08
1.51614e-08
-1.0001e-07
1.50738e-08
-1.03368e-07
1.49663e-08
-1.06697e-07
1.48391e-08
-1.09992e-07
1.46925e-08
-1.13249e-07
1.45265e-08
-1.16463e-07
1.43414e-08
-1.19631e-07
1.41373e-08