/*--------------------------------*- C++ -*----------------------------------*\
  =========                 |
  \\      /  F ield         | OpenFOAM: The Open Source CFD Toolbox
   \\    /   O peration     | Website:  https://openfoam.org
    \\  /    A nd           | Version:  7
     \\/     M anipulation  |
\*---------------------------------------------------------------------------*/
FoamFile
{
    version     2.0;
    format      ascii;
    class       volVectorField;
    location    "0.4625";
    object      U;
}
// * * * * * * * * * * * * * * * * * * * * * * * * * * * * * * * * * * * * * //

dimensions      [0 1 -1 0 0 0 0];

internalField   nonuniform List<vector> 
25600
(
(3.28156e-07 -4.26305e-07 0)
(3.22473e-06 -1.92753e-06 0)
(9.11752e-06 -2.70042e-06 0)
(1.60509e-05 -2.84689e-06 0)
(2.25105e-05 -2.57767e-06 0)
(2.76837e-05 -2.05877e-06 0)
(3.10212e-05 -1.39414e-06 0)
(3.21742e-05 -6.49119e-07 0)
(3.09387e-05 1.34035e-07 0)
(2.72068e-05 9.28609e-07 0)
(2.09373e-05 1.71794e-06 0)
(1.2137e-05 2.49118e-06 0)
(8.46144e-07 3.24107e-06 0)
(-1.28709e-05 3.96183e-06 0)
(-2.89326e-05 4.65077e-06 0)
(-4.72461e-05 5.30592e-06 0)
(-6.77099e-05 5.92597e-06 0)
(-9.02172e-05 6.51101e-06 0)
(-0.000114658 7.0607e-06 0)
(-0.000140921 7.57489e-06 0)
(-0.000168894 8.05436e-06 0)
(-0.000198467 8.49984e-06 0)
(-0.000229531 8.91239e-06 0)
(-0.000261979 9.29335e-06 0)
(-0.000295706 9.64368e-06 0)
(-0.000330612 9.96439e-06 0)
(-0.000366598 1.02568e-05 0)
(-0.00040357 1.05219e-05 0)
(-0.000441436 1.07608e-05 0)
(-0.000480107 1.09749e-05 0)
(-0.000519498 1.1165e-05 0)
(-0.000559527 1.13321e-05 0)
(-0.000600117 1.14774e-05 0)
(-0.00064119 1.16017e-05 0)
(-0.000682674 1.17057e-05 0)
(-0.000724499 1.17904e-05 0)
(-0.000766598 1.18567e-05 0)
(-0.000808903 1.19049e-05 0)
(-0.000851353 1.19358e-05 0)
(-0.000893887 1.19502e-05 0)
(-0.000936443 1.19482e-05 0)
(-0.000978964 1.19304e-05 0)
(-0.00102139 1.18973e-05 0)
(-0.00106368 1.18492e-05 0)
(-0.00110576 1.17863e-05 0)
(-0.00114759 1.17087e-05 0)
(-0.00118911 1.16169e-05 0)
(-0.00123027 1.15108e-05 0)
(-0.00127101 1.13905e-05 0)
(-0.0013113 1.12562e-05 0)
(-0.00135107 1.11079e-05 0)
(-0.00139028 1.09455e-05 0)
(-0.00142887 1.0769e-05 0)
(-0.0014668 1.05784e-05 0)
(-0.001504 1.03736e-05 0)
(-0.00154044 1.01545e-05 0)
(-0.00157607 9.92126e-06 0)
(-0.00161082 9.67385e-06 0)
(-0.00164464 9.41208e-06 0)
(-0.0016775 9.13574e-06 0)
(-0.00170933 8.84466e-06 0)
(-0.00174008 8.53898e-06 0)
(-0.00176971 8.21874e-06 0)
(-0.00179816 7.88386e-06 0)
(-0.00182537 7.5344e-06 0)
(-0.00185131 7.17047e-06 0)
(-0.00187591 6.79222e-06 0)
(-0.00189913 6.39972e-06 0)
(-0.00192092 5.99288e-06 0)
(-0.00194122 5.5719e-06 0)
(-0.00196 5.13728e-06 0)
(-0.00197721 4.68935e-06 0)
(-0.00199279 4.22849e-06 0)
(-0.00200671 3.75498e-06 0)
(-0.00201893 3.26915e-06 0)
(-0.00202939 2.77166e-06 0)
(-0.00203807 2.26315e-06 0)
(-0.00204493 1.7442e-06 0)
(-0.00204993 1.21557e-06 0)
(-0.00205305 6.77956e-07 0)
(-0.00205425 1.32056e-07 0)
(-0.0020535 -4.21097e-07 0)
(-0.0020508 -9.80518e-07 0)
(-0.00204611 -1.54528e-06 0)
(-0.00203942 -2.11425e-06 0)
(-0.00203073 -2.68638e-06 0)
(-0.00202002 -3.26068e-06 0)
(-0.00200729 -3.83578e-06 0)
(-0.00199254 -4.41023e-06 0)
(-0.00197578 -4.98278e-06 0)
(-0.00195702 -5.55206e-06 0)
(-0.00193627 -6.1167e-06 0)
(-0.00191355 -6.67546e-06 0)
(-0.00188889 -7.22685e-06 0)
(-0.00186232 -7.76913e-06 0)
(-0.00183387 -8.30083e-06 0)
(-0.00180358 -8.82052e-06 0)
(-0.00177151 -9.32657e-06 0)
(-0.00173769 -9.8174e-06 0)
(-0.00170219 -1.02917e-05 0)
(-0.00166506 -1.07479e-05 0)
(-0.00162639 -1.11844e-05 0)
(-0.00158622 -1.15996e-05 0)
(-0.00154465 -1.19923e-05 0)
(-0.00150175 -1.23609e-05 0)
(-0.00145762 -1.27041e-05 0)
(-0.00141233 -1.30206e-05 0)
(-0.00136599 -1.33093e-05 0)
(-0.00131869 -1.35688e-05 0)
(-0.00127054 -1.37979e-05 0)
(-0.00122165 -1.39958e-05 0)
(-0.00117212 -1.41614e-05 0)
(-0.00112207 -1.42939e-05 0)
(-0.00107161 -1.43925e-05 0)
(-0.00102086 -1.44565e-05 0)
(-0.000969947 -1.44855e-05 0)
(-0.000918988 -1.44787e-05 0)
(-0.000868107 -1.44359e-05 0)
(-0.000817427 -1.43571e-05 0)
(-0.000767076 -1.42419e-05 0)
(-0.000717176 -1.40904e-05 0)
(-0.000667854 -1.39027e-05 0)
(-0.000619233 -1.36791e-05 0)
(-0.000571436 -1.34198e-05 0)
(-0.000524585 -1.31254e-05 0)
(-0.0004788 -1.27964e-05 0)
(-0.000434196 -1.24338e-05 0)
(-0.000390891 -1.20382e-05 0)
(-0.000348993 -1.16105e-05 0)
(-0.00030861 -1.1152e-05 0)
(-0.000269847 -1.06638e-05 0)
(-0.000232801 -1.01473e-05 0)
(-0.000197568 -9.60362e-06 0)
(-0.000164235 -9.03456e-06 0)
(-0.000132886 -8.44188e-06 0)
(-0.000103597 -7.82736e-06 0)
(-7.64373e-05 -7.19278e-06 0)
(-5.14701e-05 -6.54017e-06 0)
(-2.87496e-05 -5.87186e-06 0)
(-8.32228e-06 -5.19033e-06 0)
(9.77479e-06 -4.49814e-06 0)
(2.55149e-05 -3.79804e-06 0)
(3.88825e-05 -3.09327e-06 0)
(4.98737e-05 -2.3874e-06 0)
(5.84981e-05 -1.68435e-06 0)
(6.47811e-05 -9.88551e-07 0)
(6.87656e-05 -3.05328e-07 0)
(7.05145e-05 3.58972e-07 0)
(7.01149e-05 9.96678e-07 0)
(6.76823e-05 1.59836e-06 0)
(6.33675e-05 2.15199e-06 0)
(5.73643e-05 2.6417e-06 0)
(4.99208e-05 3.04601e-06 0)
(4.13555e-05 3.33516e-06 0)
(3.208e-05 3.46689e-06 0)
(2.26282e-05 3.38184e-06 0)
(1.36859e-05 3.00043e-06 0)
(6.12309e-06 2.22197e-06 0)
(1.06567e-06 9.76726e-07 0)
(-3.38381e-07 -3.3768e-07 0)
(1.8053e-06 -3.20223e-06 0)
(9.01363e-06 -9.15537e-06 0)
(2.11858e-05 -1.20514e-05 0)
(3.45204e-05 -1.22869e-05 0)
(4.62828e-05 -1.05877e-05 0)
(5.46678e-05 -7.5716e-06 0)
(5.83524e-05 -3.68697e-06 0)
(5.641e-05 7.45528e-07 0)
(4.82331e-05 5.49887e-06 0)
(3.34572e-05 1.04126e-05 0)
(1.18971e-05 1.5373e-05 0)
(-1.6499e-05 2.02993e-05 0)
(-5.16818e-05 2.51328e-05 0)
(-9.35263e-05 2.98309e-05 0)
(-0.000141853 3.43635e-05 0)
(-0.00019644 3.87091e-05 0)
(-0.000257038 4.28533e-05 0)
(-0.000323375 4.67875e-05 0)
(-0.000395166 5.05061e-05 0)
(-0.000472119 5.4007e-05 0)
(-0.000553933 5.72899e-05 0)
(-0.000640311 6.03566e-05 0)
(-0.000730955 6.32111e-05 0)
(-0.000825571 6.58576e-05 0)
(-0.00092387 6.83011e-05 0)
(-0.00102557 7.05477e-05 0)
(-0.00113039 7.26031e-05 0)
(-0.00123808 7.44735e-05 0)
(-0.00134836 7.61658e-05 0)
(-0.00146098 7.7686e-05 0)
(-0.00157571 7.90404e-05 0)
(-0.0016923 8.02354e-05 0)
(-0.00181054 8.12768e-05 0)
(-0.00193019 8.21702e-05 0)
(-0.00205105 8.29211e-05 0)
(-0.00217292 8.35344e-05 0)
(-0.00229559 8.40149e-05 0)
(-0.00241888 8.43669e-05 0)
(-0.00254259 8.45945e-05 0)
(-0.00266655 8.47012e-05 0)
(-0.00279058 8.46904e-05 0)
(-0.00291451 8.4565e-05 0)
(-0.00303817 8.43278e-05 0)
(-0.0031614 8.39809e-05 0)
(-0.00328404 8.3526e-05 0)
(-0.00340592 8.29651e-05 0)
(-0.0035269 8.22995e-05 0)
(-0.00364681 8.15302e-05 0)
(-0.0037655 8.06577e-05 0)
(-0.00388283 7.96832e-05 0)
(-0.00399864 7.8607e-05 0)
(-0.00411278 7.74292e-05 0)
(-0.0042251 7.61498e-05 0)
(-0.00433545 7.47689e-05 0)
(-0.00444368 7.32863e-05 0)
(-0.00454964 7.17019e-05 0)
(-0.00465318 7.00156e-05 0)
(-0.00475416 6.82273e-05 0)
(-0.00485242 6.63367e-05 0)
(-0.00494781 6.43437e-05 0)
(-0.00504018 6.22481e-05 0)
(-0.00512939 6.00499e-05 0)
(-0.00521528 5.77494e-05 0)
(-0.0052977 5.53465e-05 0)
(-0.00537651 5.2842e-05 0)
(-0.00545156 5.02368e-05 0)
(-0.00552271 4.75319e-05 0)
(-0.00558981 4.47283e-05 0)
(-0.00565272 4.18272e-05 0)
(-0.0057113 3.88301e-05 0)
(-0.00576541 3.57396e-05 0)
(-0.00581493 3.25579e-05 0)
(-0.00585972 2.92877e-05 0)
(-0.00589966 2.59322e-05 0)
(-0.00593462 2.24945e-05 0)
(-0.00596451 1.89787e-05 0)
(-0.0059892 1.53891e-05 0)
(-0.00600859 1.173e-05 0)
(-0.0060226 8.00657e-06 0)
(-0.00603113 4.22425e-06 0)
(-0.00603411 3.88723e-07 0)
(-0.00603146 -3.49373e-06 0)
(-0.00602313 -7.41631e-06 0)
(-0.00600906 -1.13722e-05 0)
(-0.00598922 -1.5354e-05 0)
(-0.00596357 -1.93538e-05 0)
(-0.0059321 -2.33639e-05 0)
(-0.00589481 -2.73757e-05 0)
(-0.00585169 -3.13801e-05 0)
(-0.00580277 -3.5368e-05 0)
(-0.00574808 -3.93304e-05 0)
(-0.00568766 -4.32576e-05 0)
(-0.00562159 -4.71399e-05 0)
(-0.00554993 -5.09673e-05 0)
(-0.00547277 -5.47295e-05 0)
(-0.00539021 -5.84161e-05 0)
(-0.00530238 -6.20169e-05 0)
(-0.0052094 -6.55218e-05 0)
(-0.00511143 -6.89199e-05 0)
(-0.00500863 -7.22012e-05 0)
(-0.00490117 -7.53555e-05 0)
(-0.00478925 -7.83725e-05 0)
(-0.00467307 -8.12423e-05 0)
(-0.00455285 -8.39551e-05 0)
(-0.00442884 -8.65015e-05 0)
(-0.00430126 -8.88724e-05 0)
(-0.0041704 -9.1059e-05 0)
(-0.00403651 -9.3053e-05 0)
(-0.00389988 -9.48465e-05 0)
(-0.0037608 -9.64318e-05 0)
(-0.00361958 -9.7802e-05 0)
(-0.00347654 -9.8951e-05 0)
(-0.003332 -9.98729e-05 0)
(-0.00318628 -0.000100563 0)
(-0.00303973 -0.000101016 0)
(-0.00289268 -0.000101228 0)
(-0.00274549 -0.000101198 0)
(-0.0025985 -0.000100922 0)
(-0.00245207 -0.000100399 0)
(-0.00230656 -9.96275e-05 0)
(-0.00216232 -9.8609e-05 0)
(-0.00201971 -9.73439e-05 0)
(-0.00187907 -9.5834e-05 0)
(-0.00174076 -9.40818e-05 0)
(-0.00160512 -9.20909e-05 0)
(-0.00147248 -8.98655e-05 0)
(-0.0013432 -8.74109e-05 0)
(-0.00121757 -8.47329e-05 0)
(-0.00109593 -8.18385e-05 0)
(-0.000978576 -7.87355e-05 0)
(-0.000865795 -7.54323e-05 0)
(-0.000757869 -7.19383e-05 0)
(-0.000655063 -6.82637e-05 0)
(-0.000557624 -6.44197e-05 0)
(-0.000465784 -6.04185e-05 0)
(-0.000379757 -5.6273e-05 0)
(-0.000299735 -5.19973e-05 0)
(-0.000225889 -4.76065e-05 0)
(-0.000158367 -4.3117e-05 0)
(-9.72925e-05 -3.85466e-05 0)
(-4.27606e-05 -3.39145e-05 0)
(5.16353e-06 -2.92417e-05 0)
(4.64473e-05 -2.45517e-05 0)
(8.10942e-05 -1.98701e-05 0)
(0.000109148 -1.52262e-05 0)
(0.000130698 -1.06526e-05 0)
(0.000145886 -6.18758e-06 0)
(0.000154909 -1.87522e-06 0)
(0.000158038 2.23213e-06 0)
(0.000155619 6.07156e-06 0)
(0.000148095 9.56615e-06 0)
(0.000136025 1.26205e-05 0)
(0.000120101 1.51144e-05 0)
(0.000101183 1.68949e-05 0)
(8.03305e-05 1.77669e-05 0)
(5.88372e-05 1.74866e-05 0)
(3.82346e-05 1.57711e-05 0)
(2.02656e-05 1.23327e-05 0)
(7.05724e-06 7.06611e-06 0)
(9.72512e-07 1.06439e-06 0)
(2.67225e-06 -9.08879e-06 0)
(1.20199e-05 -2.12595e-05 0)
(2.65556e-05 -2.6583e-05 0)
(4.14127e-05 -2.60817e-05 0)
(5.31631e-05 -2.11284e-05 0)
(5.94728e-05 -1.29402e-05 0)
(5.85444e-05 -2.48942e-06 0)
(4.90477e-05 9.47693e-06 0)
(3.00648e-05 2.2398e-05 0)
(1.00618e-06 3.5854e-05 0)
(-3.84594e-05 4.95326e-05 0)
(-8.84633e-05 6.3201e-05 0)
(-0.000148981 7.66861e-05 0)
(-0.000219869 8.9859e-05 0)
(-0.000300888 0.000102624 0)
(-0.000391732 0.000114912 0)
(-0.000492043 0.000126673 0)
(-0.000601424 0.000137873 0)
(-0.00071945 0.000148491 0)
(-0.00084568 0.000158516 0)
(-0.00097966 0.00016794 0)
(-0.00112093 0.000176767 0)
(-0.00126904 0.000185 0)
(-0.00142351 0.00019265 0)
(-0.00158392 0.000199727 0)
(-0.0017498 0.000206246 0)
(-0.00192073 0.00021222 0)
(-0.00209628 0.000217667 0)
(-0.00227603 0.000222602 0)
(-0.00245959 0.000227043 0)
(-0.00264656 0.000231004 0)
(-0.00283657 0.000234504 0)
(-0.00302925 0.000237559 0)
(-0.00322425 0.000240181 0)
(-0.00342122 0.000242389 0)
(-0.00361983 0.000244194 0)
(-0.00381975 0.000245609 0)
(-0.00402067 0.000246647 0)
(-0.0042223 0.00024732 0)
(-0.00442432 0.000247636 0)
(-0.00462646 0.000247605 0)
(-0.00482843 0.000247237 0)
(-0.00502996 0.000246537 0)
(-0.00523077 0.000245513 0)
(-0.00543061 0.00024417 0)
(-0.0056292 0.000242512 0)
(-0.00582629 0.000240545 0)
(-0.00602164 0.000238271 0)
(-0.00621497 0.000235693 0)
(-0.00640605 0.000232812 0)
(-0.00659463 0.000229631 0)
(-0.00678046 0.00022615 0)
(-0.00696329 0.000222371 0)
(-0.00714288 0.000218292 0)
(-0.00731898 0.000213915 0)
(-0.00749134 0.000209239 0)
(-0.00765973 0.000204264 0)
(-0.0078239 0.00019899 0)
(-0.0079836 0.000193416 0)
(-0.00813859 0.000187544 0)
(-0.00828863 0.000181372 0)
(-0.00843347 0.000174902 0)
(-0.00857287 0.000168134 0)
(-0.00870659 0.00016107 0)
(-0.00883439 0.000153712 0)
(-0.00895604 0.000146061 0)
(-0.0090713 0.000138122 0)
(-0.00917994 0.000129898 0)
(-0.00928173 0.000121393 0)
(-0.00937645 0.000112613 0)
(-0.00946388 0.000103565 0)
(-0.00954381 9.42545e-05 0)
(-0.00961604 8.4691e-05 0)
(-0.00968036 7.48833e-05 0)
(-0.00973659 6.4842e-05 0)
(-0.00978454 5.45783e-05 0)
(-0.00982405 4.41046e-05 0)
(-0.00985495 3.34346e-05 0)
(-0.0098771 2.25827e-05 0)
(-0.00989035 1.1565e-05 0)
(-0.00989459 3.98524e-07 0)
(-0.00988971 -1.08988e-05 0)
(-0.00987561 -2.23075e-05 0)
(-0.00985222 -3.38072e-05 0)
(-0.00981948 -4.53767e-05 0)
(-0.00977733 -5.69936e-05 0)
(-0.00972577 -6.86342e-05 0)
(-0.00966478 -8.02744e-05 0)
(-0.00959438 -9.18888e-05 0)
(-0.0095146 -0.000103451 0)
(-0.00942551 -0.000114935 0)
(-0.00932717 -0.000126312 0)
(-0.0092197 -0.000137555 0)
(-0.00910321 -0.000148635 0)
(-0.00897785 -0.000159522 0)
(-0.00884379 -0.000170188 0)
(-0.00870122 -0.000180603 0)
(-0.00855037 -0.000190737 0)
(-0.00839147 -0.00020056 0)
(-0.00822478 -0.000210044 0)
(-0.00805059 -0.000219158 0)
(-0.00786922 -0.000227875 0)
(-0.00768099 -0.000236165 0)
(-0.00748626 -0.000244001 0)
(-0.00728542 -0.000251356 0)
(-0.00707884 -0.000258205 0)
(-0.00686696 -0.000264521 0)
(-0.00665021 -0.000270282 0)
(-0.00642905 -0.000275465 0)
(-0.00620394 -0.000280048 0)
(-0.00597539 -0.000284013 0)
(-0.00574388 -0.00028734 0)
(-0.00550994 -0.000290015 0)
(-0.0052741 -0.000292022 0)
(-0.00503689 -0.000293349 0)
(-0.00479888 -0.000293986 0)
(-0.0045606 -0.000293923 0)
(-0.00432262 -0.000293156 0)
(-0.00408551 -0.00029168 0)
(-0.00384984 -0.000289493 0)
(-0.00361618 -0.000286595 0)
(-0.00338508 -0.000282991 0)
(-0.00315712 -0.000278684 0)
(-0.00293284 -0.000273684 0)
(-0.00271281 -0.000267999 0)
(-0.00249756 -0.000261644 0)
(-0.00228762 -0.000254632 0)
(-0.0020835 -0.000246981 0)
(-0.00188571 -0.000238713 0)
(-0.00169473 -0.000229848 0)
(-0.00151103 -0.000220412 0)
(-0.00133504 -0.000210432 0)
(-0.00116718 -0.00019994 0)
(-0.00100785 -0.000188967 0)
(-0.000857419 -0.000177548 0)
(-0.000716212 -0.000165723 0)
(-0.000584535 -0.000153534 0)
(-0.000462654 -0.000141024 0)
(-0.000350798 -0.000128242 0)
(-0.000249153 -0.00011524 0)
(-0.000157862 -0.000102077 0)
(-7.70171e-05 -8.88132e-05 0)
(-6.65723e-06 -7.55189e-05 0)
(5.3237e-05 -6.227e-05 0)
(0.000102751 -4.91517e-05 0)
(0.000142041 -3.62605e-05 0)
(0.00017135 -2.37063e-05 0)
(0.00019101 -1.16159e-05 0)
(0.000201459 -1.37459e-07 0)
(0.000203261 1.05541e-05 0)
(0.000197117 2.02503e-05 0)
(0.000183895 2.86999e-05 0)
(0.000164653 3.5599e-05 0)
(0.000140667 4.05796e-05 0)
(0.000113466 4.32007e-05 0)
(8.48499e-05 4.29537e-05 0)
(5.68654e-05 3.93002e-05 0)
(3.17435e-05 3.17724e-05 0)
(1.23038e-05 2.02663e-05 0)
(2.21017e-06 6.10869e-06 0)
(2.84775e-06 -1.59724e-05 0)
(1.23199e-05 -3.45786e-05 0)
(2.61488e-05 -4.14403e-05 0)
(3.88365e-05 -3.87467e-05 0)
(4.65717e-05 -2.86209e-05 0)
(4.67244e-05 -1.29332e-05 0)
(3.72214e-05 6.7697e-06 0)
(1.64875e-05 2.92567e-05 0)
(-1.66061e-05 5.3567e-05 0)
(-6.28136e-05 7.89578e-05 0)
(-0.000122584 0.000104858 0)
(-0.000196123 0.000130829 0)
(-0.000283439 0.000156537 0)
(-0.000384386 0.000181728 0)
(-0.000498694 0.00020621 0)
(-0.000625997 0.00022984 0)
(-0.000765858 0.000252514 0)
(-0.000917782 0.000274157 0)
(-0.00108124 0.000294718 0)
(-0.00125566 0.000314167 0)
(-0.00144046 0.000332486 0)
(-0.00163506 0.000349672 0)
(-0.00183884 0.00036573 0)
(-0.00205123 0.000380672 0)
(-0.00227161 0.000394515 0)
(-0.0024994 0.000407283 0)
(-0.00273403 0.000419001 0)
(-0.00297493 0.000429696 0)
(-0.00322154 0.000439397 0)
(-0.00347333 0.000448134 0)
(-0.00372977 0.000455939 0)
(-0.00399035 0.000462839 0)
(-0.00425458 0.000468864 0)
(-0.00452196 0.000474044 0)
(-0.00479204 0.000478404 0)
(-0.00506436 0.000481971 0)
(-0.00533847 0.00048477 0)
(-0.00561396 0.000486823 0)
(-0.00589039 0.00048815 0)
(-0.00616737 0.000488772 0)
(-0.0064445 0.000488707 0)
(-0.00672139 0.00048797 0)
(-0.00699765 0.000486574 0)
(-0.00727292 0.000484534 0)
(-0.00754682 0.000481859 0)
(-0.00781901 0.00047856 0)
(-0.00808911 0.000474644 0)
(-0.00835679 0.000470117 0)
(-0.00862168 0.000464986 0)
(-0.00888345 0.000459254 0)
(-0.00914175 0.000452924 0)
(-0.00939625 0.000446 0)
(-0.00964659 0.000438482 0)
(-0.00989245 0.000430372 0)
(-0.0101335 0.00042167 0)
(-0.0103694 0.000412377 0)
(-0.0105997 0.000402493 0)
(-0.0108243 0.000392019 0)
(-0.0110426 0.000380953 0)
(-0.0112545 0.000369298 0)
(-0.0114596 0.000357053 0)
(-0.0116574 0.000344222 0)
(-0.0118478 0.000330806 0)
(-0.0120303 0.000316808 0)
(-0.0122047 0.000302233 0)
(-0.0123707 0.000287087 0)
(-0.0125278 0.000271375 0)
(-0.0126759 0.000255106 0)
(-0.0128145 0.00023829 0)
(-0.0129434 0.000220938 0)
(-0.0130623 0.000203063 0)
(-0.013171 0.000184678 0)
(-0.013269 0.000165802 0)
(-0.0133563 0.000146453 0)
(-0.0134324 0.00012665 0)
(-0.0134972 0.000106418 0)
(-0.0135505 8.578e-05 0)
(-0.013592 6.47637e-05 0)
(-0.0136216 4.33982e-05 0)
(-0.0136389 2.17146e-05 0)
(-0.013644 -2.53389e-07 0)
(-0.0136367 -2.247e-05 0)
(-0.0136167 -4.48977e-05 0)
(-0.0135841 -6.74964e-05 0)
(-0.0135388 -9.02241e-05 0)
(-0.0134806 -0.000113037 0)
(-0.0134096 -0.000135889 0)
(-0.0133258 -0.000158733 0)
(-0.0132292 -0.000181519 0)
(-0.0131198 -0.000204197 0)
(-0.0129978 -0.000226713 0)
(-0.0128631 -0.000249015 0)
(-0.0127161 -0.000271048 0)
(-0.0125569 -0.000292756 0)
(-0.0123855 -0.000314082 0)
(-0.0122024 -0.00033497 0)
(-0.0120077 -0.000355362 0)
(-0.0118018 -0.000375201 0)
(-0.011585 -0.000394428 0)
(-0.0113576 -0.000412988 0)
(-0.01112 -0.000430823 0)
(-0.0108727 -0.000447878 0)
(-0.0106161 -0.000464097 0)
(-0.0103506 -0.000479428 0)
(-0.0100769 -0.000493819 0)
(-0.00979541 -0.000507218 0)
(-0.00950671 -0.000519578 0)
(-0.0092114 -0.000530853 0)
(-0.00891011 -0.000541 0)
(-0.00860345 -0.000549977 0)
(-0.0082921 -0.000557747 0)
(-0.00797674 -0.000564276 0)
(-0.00765806 -0.000569532 0)
(-0.00733677 -0.000573487 0)
(-0.00701361 -0.000576118 0)
(-0.0066893 -0.000577404 0)
(-0.00636461 -0.000577329 0)
(-0.00604028 -0.000575882 0)
(-0.00571708 -0.000573056 0)
(-0.00539577 -0.000568846 0)
(-0.00507712 -0.000563255 0)
(-0.00476189 -0.000556289 0)
(-0.00445082 -0.000547958 0)
(-0.00414468 -0.000538278 0)
(-0.00384421 -0.000527269 0)
(-0.00355012 -0.000514956 0)
(-0.00326312 -0.000501368 0)
(-0.00298392 -0.000486542 0)
(-0.00271318 -0.000470515 0)
(-0.00245155 -0.000453333 0)
(-0.00219965 -0.000435045 0)
(-0.00195808 -0.000415706 0)
(-0.00172738 -0.000395374 0)
(-0.00150809 -0.000374115 0)
(-0.00130069 -0.000351999 0)
(-0.00110563 -0.000329102 0)
(-0.0009233 -0.000305506 0)
(-0.000754057 -0.000281301 0)
(-0.000598198 -0.000256583 0)
(-0.000455963 -0.000231454 0)
(-0.000327533 -0.00020603 0)
(-0.000213021 -0.000180432 0)
(-0.000112465 -0.000154798 0)
(-2.58282e-05 -0.000129277 0)
(4.70192e-05 -0.000104037 0)
(0.000106302 -7.92657e-05 0)
(0.000152354 -5.51755e-05 0)
(0.000185631 -3.20098e-05 0)
(0.000206723 -1.00493e-05 0)
(0.000216376 1.03799e-05 0)
(0.000215511 2.8896e-05 0)
(0.000205245 4.50492e-05 0)
(0.000186916 5.83101e-05 0)
(0.000162109 6.80582e-05 0)
(0.00013268 7.35789e-05 0)
(0.000100774 7.40798e-05 0)
(6.87803e-05 6.87507e-05 0)
(3.92893e-05 5.68946e-05 0)
(1.57338e-05 3.82207e-05 0)
(2.98107e-06 1.36453e-05 0)
(2.60223e-06 -2.24862e-05 0)
(1.06904e-05 -4.63984e-05 0)
(2.13113e-05 -5.32387e-05 0)
(2.88558e-05 -4.64989e-05 0)
(2.93742e-05 -2.91334e-05 0)
(2.00814e-05 -3.69199e-06 0)
(-1.23412e-06 2.76979e-05 0)
(-3.62812e-05 6.3307e-05 0)
(-8.63081e-05 0.000101752 0)
(-0.000152173 0.000141939 0)
(-0.000234407 0.000183004 0)
(-0.000333269 0.000224272 0)
(-0.000448795 0.000265217 0)
(-0.000580841 0.00030543 0)
(-0.000729116 0.000344599 0)
(-0.000893213 0.000382485 0)
(-0.00107263 0.00041891 0)
(-0.00126681 0.000453745 0)
(-0.00147511 0.000486899 0)
(-0.00169689 0.00051831 0)
(-0.00193144 0.000547944 0)
(-0.00217806 0.000575786 0)
(-0.00243604 0.000601835 0)
(-0.00270465 0.000626106 0)
(-0.00298318 0.000648621 0)
(-0.0032709 0.000669409 0)
(-0.00356712 0.000688509 0)
(-0.00387113 0.000705959 0)
(-0.00418227 0.000721803 0)
(-0.00449986 0.000736085 0)
(-0.00482326 0.000748851 0)
(-0.00515183 0.000760147 0)
(-0.00548495 0.000770017 0)
(-0.00582203 0.000778505 0)
(-0.00616247 0.000785653 0)
(-0.00650572 0.000791501 0)
(-0.00685121 0.000796089 0)
(-0.00719841 0.00079945 0)
(-0.0075468 0.00080162 0)
(-0.00789585 0.000802628 0)
(-0.00824507 0.000802502 0)
(-0.00859396 0.000801269 0)
(-0.00894205 0.000798949 0)
(-0.00928886 0.000795565 0)
(-0.00963393 0.000791132 0)
(-0.00997679 0.000785668 0)
(-0.010317 0.000779184 0)
(-0.0106541 0.000771693 0)
(-0.0109877 0.000763202 0)
(-0.0113173 0.000753719 0)
(-0.0116425 0.00074325 0)
(-0.0119628 0.0007318 0)
(-0.0122779 0.000719371 0)
(-0.0125873 0.000705966 0)
(-0.0128905 0.000691587 0)
(-0.0131872 0.000676236 0)
(-0.0134769 0.000659912 0)
(-0.0137592 0.000642618 0)
(-0.0140337 0.000624355 0)
(-0.0142999 0.000605125 0)
(-0.0145575 0.00058493 0)
(-0.014806 0.000563774 0)
(-0.015045 0.000541662 0)
(-0.0152741 0.0005186 0)
(-0.0154929 0.000494596 0)
(-0.0157009 0.00046966 0)
(-0.0158979 0.000443803 0)
(-0.0160834 0.000417041 0)
(-0.016257 0.000389388 0)
(-0.0164184 0.000360865 0)
(-0.0165671 0.000331493 0)
(-0.0167029 0.000301297 0)
(-0.0168254 0.000270305 0)
(-0.0169342 0.000238548 0)
(-0.0170291 0.00020606 0)
(-0.0171098 0.000172878 0)
(-0.0171759 0.000139044 0)
(-0.0172272 0.000104602 0)
(-0.0172635 6.95997e-05 0)
(-0.0172845 3.40891e-05 0)
(-0.0172901 -1.87521e-06 0)
(-0.0172801 -3.82347e-05 0)
(-0.0172543 -7.49273e-05 0)
(-0.0172126 -0.000111888 0)
(-0.017155 -0.000149049 0)
(-0.0170813 -0.000186338 0)
(-0.0169916 -0.00022368 0)
(-0.0168858 -0.000260998 0)
(-0.016764 -0.000298212 0)
(-0.0166262 -0.000335239 0)
(-0.0164726 -0.000371994 0)
(-0.0163033 -0.000408391 0)
(-0.0161185 -0.00044434 0)
(-0.0159184 -0.000479751 0)
(-0.0157032 -0.000514534 0)
(-0.0154733 -0.000548595 0)
(-0.015229 -0.000581843 0)
(-0.0149706 -0.000614183 0)
(-0.0146987 -0.000645523 0)
(-0.0144135 -0.000675772 0)
(-0.0141156 -0.000704837 0)
(-0.0138056 -0.000732629 0)
(-0.013484 -0.000759059 0)
(-0.0131514 -0.000784041 0)
(-0.0128084 -0.000807492 0)
(-0.0124557 -0.000829329 0)
(-0.0120941 -0.000849477 0)
(-0.0117242 -0.00086786 0)
(-0.0113468 -0.000884409 0)
(-0.0109627 -0.000899059 0)
(-0.0105727 -0.000911748 0)
(-0.0101777 -0.000922422 0)
(-0.00977852 -0.000931029 0)
(-0.00937605 -0.000937526 0)
(-0.0089712 -0.000941874 0)
(-0.00856488 -0.000944042 0)
(-0.00815802 -0.000944003 0)
(-0.00775155 -0.000941739 0)
(-0.00734641 -0.000937238 0)
(-0.00694356 -0.000930497 0)
(-0.00654393 -0.000921517 0)
(-0.00614847 -0.000910308 0)
(-0.00575812 -0.00089689 0)
(-0.0053738 -0.000881287 0)
(-0.00499642 -0.000863532 0)
(-0.00462688 -0.000843667 0)
(-0.00426606 -0.000821741 0)
(-0.00391481 -0.000797809 0)
(-0.00357397 -0.000771939 0)
(-0.00324432 -0.000744201 0)
(-0.00292664 -0.000714678 0)
(-0.00262165 -0.000683458 0)
(-0.00233005 -0.000650639 0)
(-0.00205246 -0.000616329 0)
(-0.0017895 -0.000580642 0)
(-0.0015417 -0.000543703 0)
(-0.00130955 -0.000505648 0)
(-0.00109348 -0.000466623 0)
(-0.000893835 -0.000426785 0)
(-0.000710917 -0.000386306 0)
(-0.000544933 -0.000345372 0)
(-0.000396014 -0.000304184 0)
(-0.000264197 -0.000262964 0)
(-0.000149421 -0.000221959 0)
(-5.15193e-05 -0.000181437 0)
(2.97954e-05 -0.000141701 0)
(9.49394e-05 -0.000103092 0)
(0.000144474 -6.59951e-05 0)
(0.000179118 -3.0849e-05 0)
(0.000199771 1.84233e-06 0)
(0.000207525 3.14981e-05 0)
(0.000203692 5.74471e-05 0)
(0.000189822 7.89159e-05 0)
(0.000167723 9.50189e-05 0)
(0.000139483 0.000104759 0)
(0.00010749 0.000107052 0)
(7.439e-05 0.000100787 0)
(4.30731e-05 8.49478e-05 0)
(1.74794e-05 5.88419e-05 0)
(3.36032e-06 2.256e-05 0)
(2.10383e-06 -2.77446e-05 0)
(7.7353e-06 -5.48944e-05 0)
(1.32173e-05 -5.96352e-05 0)
(1.32621e-05 -4.66857e-05 0)
(3.99563e-06 -1.9844e-05 0)
(-1.74046e-05 1.76623e-05 0)
(-5.319e-05 6.3128e-05 0)
(-0.000105111 0.00011433 0)
(-0.000174466 0.000169461 0)
(-0.000262162 0.00022706 0)
(-0.000368769 0.000285959 0)
(-0.000494576 0.000345224 0)
(-0.000639633 0.000404118 0)
(-0.000803794 0.000462059 0)
(-0.000986747 0.000518592 0)
(-0.00118805 0.000573368 0)
(-0.00140716 0.000626118 0)
(-0.00164344 0.000676646 0)
(-0.0018962 0.000724808 0)
(-0.00216469 0.000770505 0)
(-0.00244814 0.000813675 0)
(-0.00274572 0.000854286 0)
(-0.00305664 0.000892331 0)
(-0.00338005 0.000927818 0)
(-0.00371513 0.000960773 0)
(-0.00406105 0.000991233 0)
(-0.004417 0.00101924 0)
(-0.00478216 0.00104486 0)
(-0.00515574 0.00106813 0)
(-0.00553695 0.00108913 0)
(-0.00592505 0.00110791 0)
(-0.00631927 0.00112454 0)
(-0.00671889 0.00113907 0)
(-0.0071232 0.00115158 0)
(-0.00753151 0.00116211 0)
(-0.00794313 0.00117072 0)
(-0.00835742 0.00117747 0)
(-0.00877372 0.00118242 0)
(-0.0091914 0.00118559 0)
(-0.00960986 0.00118705 0)
(-0.0100285 0.00118683 0)
(-0.0104467 0.00118496 0)
(-0.0108639 0.00118148 0)
(-0.0112796 0.00117642 0)
(-0.0116931 0.0011698 0)
(-0.0121039 0.00116165 0)
(-0.0125116 0.00115199 0)
(-0.0129154 0.00114082 0)
(-0.013315 0.00112817 0)
(-0.0137098 0.00111405 0)
(-0.0140992 0.00109846 0)
(-0.0144828 0.00108142 0)
(-0.01486 0.00106292 0)
(-0.0152303 0.00104298 0)
(-0.0155932 0.0010216 0)
(-0.0159482 0.000998768 0)
(-0.0162948 0.000974503 0)
(-0.0166324 0.000948802 0)
(-0.0169606 0.00092167 0)
(-0.0172789 0.000893109 0)
(-0.0175867 0.000863126 0)
(-0.0178836 0.000831726 0)
(-0.0181691 0.000798918 0)
(-0.0184426 0.000764712 0)
(-0.0187038 0.000729122 0)
(-0.0189521 0.000692162 0)
(-0.0191871 0.000653852 0)
(-0.0194082 0.000614214 0)
(-0.0196152 0.000573272 0)
(-0.0198074 0.000531056 0)
(-0.0199844 0.000487599 0)
(-0.020146 0.000442939 0)
(-0.0202916 0.000397117 0)
(-0.0204208 0.000350181 0)
(-0.0205334 0.00030218 0)
(-0.0206289 0.000253172 0)
(-0.0207071 0.000203217 0)
(-0.0207676 0.000152381 0)
(-0.0208101 0.000100735 0)
(-0.0208344 4.83554e-05 0)
(-0.0208402 -4.67694e-06 0)
(-0.0208275 -5.82759e-05 0)
(-0.0207959 -0.00011235 0)
(-0.0207453 -0.000166804 0)
(-0.0206758 -0.000221537 0)
(-0.0205871 -0.000276444 0)
(-0.0204793 -0.000331415 0)
(-0.0203524 -0.000386337 0)
(-0.0202064 -0.000441092 0)
(-0.0200414 -0.00049556 0)
(-0.0198576 -0.000549617 0)
(-0.0196551 -0.000603134 0)
(-0.0194342 -0.000655984 0)
(-0.0191951 -0.000708033 0)
(-0.0189381 -0.00075915 0)
(-0.0186635 -0.000809199 0)
(-0.0183719 -0.000858045 0)
(-0.0180635 -0.000905554 0)
(-0.017739 -0.000951588 0)
(-0.0173988 -0.000996016 0)
(-0.0170435 -0.0010387 0)
(-0.0166738 -0.00107952 0)
(-0.0162903 -0.00111833 0)
(-0.0158938 -0.00115503 0)
(-0.0154849 -0.00118947 0)
(-0.0150645 -0.00122155 0)
(-0.0146335 -0.00125115 0)
(-0.0141926 -0.00127817 0)
(-0.0137428 -0.0013025 0)
(-0.013285 -0.00132406 0)
(-0.0128202 -0.00134274 0)
(-0.0123494 -0.00135848 0)
(-0.0118736 -0.00137119 0)
(-0.0113938 -0.00138082 0)
(-0.0109111 -0.0013873 0)
(-0.0104267 -0.0013906 0)
(-0.00994148 -0.00139068 0)
(-0.00945667 -0.0013875 0)
(-0.00897335 -0.00138105 0)
(-0.00849265 -0.00137134 0)
(-0.00801566 -0.00135835 0)
(-0.0075435 -0.00134211 0)
(-0.00707727 -0.00132265 0)
(-0.00661806 -0.00129999 0)
(-0.00616695 -0.0012742 0)
(-0.00572498 -0.00124532 0)
(-0.0052932 -0.00121345 0)
(-0.0048726 -0.00117864 0)
(-0.00446417 -0.00114102 0)
(-0.00406883 -0.00110067 0)
(-0.00368748 -0.00105772 0)
(-0.00332098 -0.00101231 0)
(-0.00297014 -0.00096457 0)
(-0.0026357 -0.000914667 0)
(-0.00231836 -0.000862768 0)
(-0.00201876 -0.000809059 0)
(-0.00173746 -0.000753739 0)
(-0.00147496 -0.000697024 0)
(-0.00123166 -0.000639147 0)
(-0.00100791 -0.00058036 0)
(-0.000803933 -0.000520935 0)
(-0.000619884 -0.000461171 0)
(-0.000455795 -0.000401393 0)
(-0.000311589 -0.000341956 0)
(-0.000187063 -0.000283253 0)
(-8.18776e-05 -0.000225723 0)
(4.4524e-06 -0.000169851 0)
(7.25756e-05 -0.000116184 0)
(0.000123317 -6.53395e-05 0)
(0.000157693 -1.80177e-05 0)
(0.000176935 2.49858e-05 0)
(0.000182498 6.27656e-05 0)
(0.000176089 9.42942e-05 0)
(0.000159676 0.000118414 0)
(0.000135517 0.000133838 0)
(0.000106177 0.000139175 0)
(7.44996e-05 0.000132973 0)
(4.36232e-05 0.000113815 0)
(1.78523e-05 8.04589e-05 0)
(3.45332e-06 3.20087e-05 0)
(1.45442e-06 -3.11954e-05 0)
(3.8876e-06 -5.87227e-05 0)
(2.79189e-06 -5.87891e-05 0)
(-6.48801e-06 -3.71713e-05 0)
(-2.75726e-05 1.54974e-06 0)
(-6.32241e-05 5.34955e-05 0)
(-0.000115648 0.000115408 0)
(-0.000186566 0.000184585 0)
(-0.000277266 0.000258802 0)
(-0.000388651 0.000336238 0)
(-0.000521298 0.000415412 0)
(-0.000675497 0.000495128 0)
(-0.000851291 0.000574423 0)
(-0.00104852 0.000652529 0)
(-0.00126686 0.000728839 0)
(-0.00150582 0.000802877 0)
(-0.00176482 0.000874276 0)
(-0.00204318 0.000942758 0)
(-0.00234013 0.00100812 0)
(-0.00265486 0.00107021 0)
(-0.00298651 0.00112894 0)
(-0.00333419 0.00118425 0)
(-0.00369699 0.00123612 0)
(-0.00407398 0.00128455 0)
(-0.00446425 0.00132958 0)
(-0.00486687 0.00137123 0)
(-0.00528091 0.00140956 0)
(-0.00570546 0.00144464 0)
(-0.00613962 0.00147654 0)
(-0.00658252 0.00150534 0)
(-0.00703328 0.00153111 0)
(-0.00749104 0.00155393 0)
(-0.00795499 0.00157389 0)
(-0.0084243 0.00159106 0)
(-0.00889818 0.00160553 0)
(-0.00937585 0.00161735 0)
(-0.00985655 0.00162661 0)
(-0.0103395 0.00163338 0)
(-0.0108241 0.0016377 0)
(-0.0113095 0.00163965 0)
(-0.0117951 0.00163928 0)
(-0.0122801 0.00163663 0)
(-0.0127639 0.00163175 0)
(-0.0132459 0.00162467 0)
(-0.0137254 0.00161544 0)
(-0.0142017 0.00160409 0)
(-0.0146742 0.00159063 0)
(-0.0151424 0.00157509 0)
(-0.0156055 0.0015575 0)
(-0.016063 0.00153786 0)
(-0.0165142 0.0015162 0)
(-0.0169586 0.00149251 0)
(-0.0173955 0.00146682 0)
(-0.0178243 0.00143912 0)
(-0.0182446 0.00140943 0)
(-0.0186556 0.00137774 0)
(-0.0190567 0.00134407 0)
(-0.0194475 0.00130841 0)
(-0.0198272 0.00127078 0)
(-0.0201954 0.00123118 0)
(-0.0205514 0.00118962 0)
(-0.0208947 0.00114611 0)
(-0.0212246 0.00110067 0)
(-0.0215408 0.0010533 0)
(-0.0218425 0.00100404 0)
(-0.0221292 0.000952889 0)
(-0.0224005 0.000899891 0)
(-0.0226557 0.000845074 0)
(-0.0228944 0.000788473 0)
(-0.023116 0.00073013 0)
(-0.0233201 0.000670092 0)
(-0.0235062 0.000608412 0)
(-0.0236737 0.000545149 0)
(-0.0238224 0.000480367 0)
(-0.0239518 0.000414138 0)
(-0.0240614 0.000346539 0)
(-0.0241509 0.000277656 0)
(-0.0242199 0.00020758 0)
(-0.0242682 0.000136409 0)
(-0.0242955 6.42473e-05 0)
(-0.0243015 -8.79235e-06 0)
(-0.0242859 -8.25916e-05 0)
(-0.0242486 -0.000157025 0)
(-0.0241895 -0.000231962 0)
(-0.0241084 -0.000307263 0)