0.05 	0.0003125 	0.005 	-0.00133318 	4.09308e-07 	0
0.05 	0.0009375 	0.005 	-0.00386848 	2.7889e-06 	0
0.05 	0.0015625 	0.005 	-0.00627774 	7.97316e-06 	0
0.05 	0.0021875 	0.005 	-0.0085658 	1.54367e-05 	0
0.05 	0.0028125 	0.005 	-0.0107372 	2.48681e-05 	0
0.05 	0.0034375 	0.005 	-0.0127966 	3.60865e-05 	0
0.05 	0.0040625 	0.005 	-0.0147485 	4.8913e-05 	0
0.05 	0.0046875 	0.005 	-0.0165976 	6.31798e-05 	0
0.05 	0.0053125 	0.005 	-0.0183486 	7.87459e-05 	0
0.05 	0.0059375 	0.005 	-0.0200061 	9.54795e-05 	0
0.05 	0.0065625 	0.005 	-0.0215748 	0.000113265 	0
0.05 	0.0071875 	0.005 	-0.0230593 	0.000132006 	0
0.05 	0.0078125 	0.005 	-0.0244642 	0.000151615 	0
0.05 	0.0084375 	0.005 	-0.0257941 	0.00017202 	0
0.05 	0.0090625 	0.005 	-0.0270537 	0.000193158 	0
0.05 	0.0096875 	0.005 	-0.0282473 	0.000214981 	0
0.05 	0.0103125 	0.005 	-0.0293795 	0.00023745 	0
0.05 	0.0109375 	0.005 	-0.0304547 	0.00026054 	0
0.05 	0.0115625 	0.005 	-0.0314772 	0.00028423 	0
0.05 	0.0121875 	0.005 	-0.0324512 	0.000308513 	0
0.05 	0.0128125 	0.005 	-0.0333808 	0.000333385 	0
0.05 	0.0134375 	0.005 	-0.0342702 	0.000358855 	0
0.05 	0.0140625 	0.005 	-0.0351231 	0.000384935 	0
0.05 	0.0146875 	0.005 	-0.0359436 	0.000411649 	0
0.05 	0.0153125 	0.005 	-0.0367351 	0.000439023 	0
0.05 	0.0159375 	0.005 	-0.0375014 	0.000467091 	0
0.05 	0.0165625 	0.005 	-0.0382458 	0.000495892 	0
0.05 	0.0171875 	0.005 	-0.0389716 	0.000525468 	0
0.05 	0.0178125 	0.005 	-0.039682 	0.00055587 	0
0.05 	0.0184375 	0.005 	-0.04038 	0.000587151 	0
0.05 	0.0190625 	0.005 	-0.0410684 	0.000619372 	0
0.05 	0.0196875 	0.005 	-0.0417501 	0.000652595 	0
0.05 	0.0203125 	0.005 	-0.0424275 	0.000686886 	0
0.05 	0.0209375 	0.005 	-0.0431032 	0.000722314 	0
0.05 	0.0215625 	0.005 	-0.0437795 	0.000758955 	0
0.05 	0.0221875 	0.005 	-0.0444586 	0.000796888 	0
0.05 	0.0228125 	0.005 	-0.0451425 	0.000836195 	0
0.05 	0.0234375 	0.005 	-0.0458331 	0.00087696 	0
0.05 	0.0240625 	0.005 	-0.0465324 	0.000919271 	0
0.05 	0.0246875 	0.005 	-0.047242 	0.000963218 	0
0.05 	0.0253125 	0.005 	-0.0479635 	0.0010089 	0
0.05 	0.0259375 	0.005 	-0.0486984 	0.00105641 	0
0.05 	0.0265625 	0.005 	-0.0494481 	0.00110587 	0
0.05 	0.0271875 	0.005 	-0.050214 	0.00115736 	0
0.05 	0.0278125 	0.005 	-0.0509971 	0.00121101 	0
0.05 	0.0284375 	0.005 	-0.0517987 	0.00126693 	0
0.05 	0.0290625 	0.005 	-0.0526199 	0.00132524 	0
0.05 	0.0296875 	0.005 	-0.0534616 	0.00138605 	0
0.05 	0.0303125 	0.005 	-0.0543247 	0.0014495 	0
0.05 	0.0309375 	0.005 	-0.0552101 	0.00151572 	0
0.05 	0.0315625 	0.005 	-0.0561187 	0.00158485 	0
0.05 	0.0321875 	0.005 	-0.0570512 	0.00165702 	0
0.05 	0.0328125 	0.005 	-0.0580083 	0.00173239 	0
0.05 	0.0334375 	0.005 	-0.0589907 	0.00181109 	0
0.05 	0.0340625 	0.005 	-0.059999 	0.00189329 	0
0.05 	0.0346875 	0.005 	-0.0610337 	0.00197915 	0
0.05 	0.0353125 	0.005 	-0.0620956 	0.00206885 	0
0.05 	0.0359375 	0.005 	-0.063185 	0.00216255 	0
0.05 	0.0365625 	0.005 	-0.0643025 	0.00226043 	0
0.05 	0.0371875 	0.005 	-0.0654486 	0.00236267 	0
0.05 	0.0378125 	0.005 	-0.0666237 	0.00246947 	0
0.05 	0.0384375 	0.005 	-0.0678282 	0.00258102 	0
0.05 	0.0390625 	0.005 	-0.0690624 	0.00269753 	0
0.05 	0.0396875 	0.005 	-0.0703269 	0.00281921 	0
0.05 	0.0403125 	0.005 	-0.0716218 	0.00294628 	0
0.05 	0.0409375 	0.005 	-0.0729476 	0.00307895 	0
0.05 	0.0415625 	0.005 	-0.0743045 	0.00321745 	0
0.05 	0.0421875 	0.005 	-0.0756928 	0.00336202 	0
0.05 	0.0428125 	0.005 	-0.0771126 	0.00351289 	0
0.05 	0.0434375 	0.005 	-0.0785643 	0.00367032 	0
0.05 	0.0440625 	0.005 	-0.0800479 	0.00383455 	0
0.05 	0.0446875 	0.005 	-0.0815636 	0.00400583 	0
0.05 	0.0453125 	0.005 	-0.0831115 	0.00418443 	0
0.05 	0.0459375 	0.005 	-0.0846916 	0.00437061 	0
0.05 	0.0465625 	0.005 	-0.0863038 	0.00456462 	0
0.05 	0.0471875 	0.005 	-0.0879482 	0.00476674 	0
0.05 	0.0478125 	0.005 	-0.0896245 	0.00497723 	0
0.05 	0.0484375 	0.005 	-0.0913326 	0.00519637 	0
0.05 	0.0490625 	0.005 	-0.0930721 	0.00542441 	0
0.05 	0.0496875 	0.005 	-0.0948427 	0.00566162 	0
0.05 	0.0503125 	0.005 	-0.0966439 	0.00590824 	0
0.05 	0.0509375 	0.005 	-0.098475 	0.00616454 	0
0.05 	0.0515625 	0.005 	-0.100335 	0.00643075 	0
0.05 	0.0521875 	0.005 	-0.102224 	0.00670709 	0
0.05 	0.0528125 	0.005 	-0.10414 	0.00699379 	0
0.05 	0.0534375 	0.005 	-0.106081 	0.00729102 	0
0.05 	0.0540625 	0.005 	-0.108048 	0.00759897 	0
0.05 	0.0546875 	0.005 	-0.110036 	0.00791779 	0
0.05 	0.0553125 	0.005 	-0.112046 	0.00824758 	0
0.05 	0.0559375 	0.005 	-0.114074 	0.00858843 	0
0.05 	0.0565625 	0.005 	-0.116118 	0.00894039 	0
0.05 	0.0571875 	0.005 	-0.118175 	0.00930345 	0
0.05 	0.0578125 	0.005 	-0.120241 	0.00967757 	0
0.05 	0.0584375 	0.005 	-0.122312 	0.0100626 	0
0.05 	0.0590625 	0.005 	-0.124384 	0.0104585 	0
0.05 	0.0596875 	0.005 	-0.126452 	0.0108648 	0
0.05 	0.0603125 	0.005 	-0.128511 	0.0112814 	0
0.05 	0.0609375 	0.005 	-0.130553 	0.0117077 	0
0.05 	0.0615625 	0.005 	-0.132571 	0.0121434 	0
0.05 	0.0621875 	0.005 	-0.134558 	0.0125877 	0
0.05 	0.0628125 	0.005 	-0.136504 	0.01304 	0
0.05 	0.0634375 	0.005 	-0.138399 	0.0134995 	0
0.05 	0.0640625 	0.005 	-0.140232 	0.0139651 	0
0.05 	0.0646875 	0.005 	-0.141991 	0.0144358 	0
0.05 	0.0653125 	0.005 	-0.143661 	0.0149103 	0
0.05 	0.0659375 	0.005 	-0.145228 	0.0153873 	0
0.05 	0.0665625 	0.005 	-0.146674 	0.0158652 	0
0.05 	0.0671875 	0.005 	-0.147981 	0.0163422 	0
0.05 	0.0678125 	0.005 	-0.149128 	0.0168165 	0
0.05 	0.0684375 	0.005 	-0.150094 	0.0172861 	0
0.05 	0.0690625 	0.005 	-0.150854 	0.0177487 	0
0.05 	0.0696875 	0.005 	-0.151381 	0.0182019 	0
0.05 	0.0703125 	0.005 	-0.151648 	0.0186432 	0
0.05 	0.0709375 	0.005 	-0.151624 	0.0190698 	0
0.05 	0.0715625 	0.005 	-0.151274 	0.0194789 	0
0.05 	0.0721875 	0.005 	-0.150564 	0.0198674 	0
0.05 	0.0728125 	0.005 	-0.149455 	0.0202322 	0
0.05 	0.0734375 	0.005 	-0.147906 	0.02057 	0
0.05 	0.0740625 	0.005 	-0.145874 	0.0208775 	0
0.05 	0.0746875 	0.005 	-0.143313 	0.0211512 	0
0.05 	0.0753125 	0.005 	-0.140174 	0.0213877 	0
0.05 	0.0759375 	0.005 	-0.136407 	0.0215836 	0
0.05 	0.0765625 	0.005 	-0.131957 	0.0217353 	0
0.05 	0.0771875 	0.005 	-0.126769 	0.0218397 	0
0.05 	0.0778125 	0.005 	-0.120786 	0.0218933 	0
0.05 	0.0784375 	0.005 	-0.113946 	0.0218932 	0
0.05 	0.0790625 	0.005 	-0.106188 	0.0218364 	0
0.05 	0.0796875 	0.005 	-0.0974497 	0.0217204 	0
0.05 	0.0803125 	0.005 	-0.0876662 	0.0215429 	0
0.05 	0.0809375 	0.005 	-0.0767724 	0.021302 	0
0.05 	0.0815625 	0.005 	-0.064703 	0.0209962 	0
0.05 	0.0821875 	0.005 	-0.0513923 	0.0206245 	0
0.05 	0.0828125 	0.005 	-0.0367756 	0.0201865 	0
0.05 	0.0834375 	0.005 	-0.0207889 	0.0196823 	0
0.05 	0.0840625 	0.005 	-0.0033699 	0.0191126 	0
0.05 	0.0846875 	0.005 	0.0155414 	0.018479 	0
0.05 	0.0853125 	0.005 	0.0360022 	0.0177836 	0
0.05 	0.0859375 	0.005 	0.0580663 	0.0170293 	0
0.05 	0.0865625 	0.005 	0.0817832 	0.01622 	0
0.05 	0.0871875 	0.005 	0.107198 	0.01536 	0
0.05 	0.0878125 	0.005 	0.134349 	0.0144547 	0
0.05 	0.0884375 	0.005 	0.163271 	0.0135104 	0
0.05 	0.0890625 	0.005 	0.193988 	0.0125338 	0
0.05 	0.0896875 	0.005 	0.22652 	0.0115327 	0
0.05 	0.0903125 	0.005 	0.260876 	0.0105155 	0
0.05 	0.0909375 	0.005 	0.297059 	0.00949111 	0
0.05 	0.0915625 	0.005 	0.33506 	0.00846928 	0
0.05 	0.0921875 	0.005 	0.374861 	0.00746003 	0
0.05 	0.0928125 	0.005 	0.416435 	0.00647381 	0
0.05 	0.0934375 	0.005 	0.459742 	0.00552128 	0
0.05 	0.0940625 	0.005 	0.504731 	0.00461318 	0
0.05 	0.0946875 	0.005 	0.551343 	0.00376015 	0
0.05 	0.0953125 	0.005 	0.599505 	0.00297253 	0
0.05 	0.0959375 	0.005 	0.649132 	0.00226019 	0
0.05 	0.0965625 	0.005 	0.700131 	0.00163228 	0
0.05 	0.0971875 	0.005 	0.752396 	0.00109707 	0
0.05 	0.0978125 	0.005 	0.805811 	0.000661359 	0
0.05 	0.0984375 	0.005 	0.860253 	0.000329901 	0
0.05 	0.0990625 	0.005 	0.915587 	0.000109825 	0
0.05 	0.0996875 	0.005 	0.971665 	1.45021e-05 	0
