/*--------------------------------*- C++ -*----------------------------------*\
  =========                 |
  \\      /  F ield         | OpenFOAM: The Open Source CFD Toolbox
   \\    /   O peration     | Website:  https://openfoam.org
    \\  /    A nd           | Version:  7
     \\/     M anipulation  |
\*---------------------------------------------------------------------------*/
FoamFile
{
    version     2.0;
    format      ascii;
    class       surfaceScalarField;
    location    "0.4625";
    object      phi;
}
// * * * * * * * * * * * * * * * * * * * * * * * * * * * * * * * * * * * * * //

dimensions      [0 3 -1 0 0 0 0];

internalField   nonuniform List<scalar> 
50880
(
1.21766e-11
-1.21299e-11
4.12065e-11
-2.90298e-11
7.16625e-11
-3.04575e-11
9.46494e-11
-2.29838e-11
1.04833e-10
-1.01846e-11
9.94747e-11
5.35869e-12
7.73218e-11
2.21523e-11
3.80189e-11
3.93026e-11
-1.81864e-11
5.62048e-11
-9.07149e-11
7.25289e-11
-1.78788e-10
8.80732e-11
-2.81504e-10
1.02715e-10
-3.97901e-10
1.16398e-10
-5.26992e-10
1.29093e-10
-6.6779e-10
1.40799e-10
-8.19325e-10
1.51535e-10
-9.80667e-10
1.61339e-10
-1.15093e-09
1.70258e-10
-1.32925e-09
1.78328e-10
-1.51484e-09
1.85591e-10
-1.70694e-09
1.92098e-10
-1.90484e-09
1.97901e-10
-2.10789e-09
2.03049e-10
-2.31548e-09
2.07586e-10
-2.52703e-09
2.11553e-10
-2.74203e-09
2.14997e-10
-2.95998e-09
2.17957e-10
-3.18046e-09
2.20469e-10
-3.40303e-09
2.22566e-10
-3.62731e-09
2.24283e-10
-3.85295e-09
2.25646e-10
-4.07964e-09
2.26682e-10
-4.30705e-09
2.27416e-10
-4.53492e-09
2.27866e-10
-4.76297e-09
2.28049e-10
-4.99095e-09
2.27984e-10
-5.21864e-09
2.27688e-10
-5.44581e-09
2.2717e-10
-5.67224e-09
2.26434e-10
-5.89773e-09
2.25489e-10
-6.12208e-09
2.24344e-10
-6.34508e-09
2.23001e-10
-6.56654e-09
2.21463e-10
-6.78627e-09
2.19731e-10
-7.00407e-09
2.17802e-10
-7.21974e-09
2.15673e-10
-7.43309e-09
2.13342e-10
-7.6439e-09
2.10808e-10
-7.85196e-09
2.08064e-10
-8.05707e-09
2.05105e-10
-8.25899e-09
2.01924e-10
-8.4575e-09
1.98514e-10
-8.65236e-09
1.94867e-10
-8.84334e-09
1.90975e-10
-9.03018e-09
1.86833e-10
-9.21261e-09
1.82434e-10
-9.39038e-09
1.77769e-10
-9.56321e-09
1.7283e-10
-9.73082e-09
1.67612e-10
-9.89293e-09
1.62107e-10
-1.00492e-08
1.56309e-10
-1.01994e-08
1.50211e-10
-1.03433e-08
1.43808e-10
-1.04804e-08
1.37099e-10
-1.06104e-08
1.3008e-10
-1.07332e-08
1.22748e-10
-1.08483e-08
1.15103e-10
-1.09554e-08
1.07145e-10
-1.10543e-08
9.88735e-11
-1.11446e-08
9.02921e-11
-1.1226e-08
8.14034e-11
-1.12982e-08
7.22143e-11
-1.13609e-08
6.27337e-11
-1.14139e-08
5.29698e-11
-1.14568e-08
4.29325e-11
-1.14895e-08
3.26336e-11
-1.15116e-08
2.20861e-11
-1.15229e-08
1.13058e-11
-1.15232e-08
3.10014e-13
-1.15123e-08
-1.08833e-11
-1.149e-08
-2.22534e-11
-1.14563e-08
-3.37767e-11
-1.14108e-08
-4.54285e-11
-1.13537e-08
-5.71833e-11
-1.12846e-08
-6.90138e-11
-1.12038e-08
-8.08914e-11
-1.1111e-08
-9.27872e-11
-1.10063e-08
-1.04669e-10
-1.08898e-08
-1.16504e-10
-1.07615e-08
-1.28259e-10
-1.06216e-08
-1.39899e-10
-1.04702e-08
-1.51387e-10
-1.03076e-08
-1.62687e-10
-1.01338e-08
-1.73764e-10
-9.94922e-09
-1.84581e-10
-9.75412e-09
-1.95099e-10
-9.54884e-09
-2.0528e-10
-9.33375e-09
-2.15087e-10
-9.10927e-09
-2.24485e-10
-8.87583e-09
-2.33437e-10
-8.63391e-09
-2.41911e-10
-8.38404e-09
-2.49872e-10
-8.12676e-09
-2.57285e-10
-7.86263e-09
-2.64121e-10
-7.59228e-09
-2.7035e-10
-7.31634e-09
-2.75946e-10
-7.03546e-09
-2.80883e-10
-6.75032e-09
-2.85137e-10
-6.46163e-09
-2.88688e-10
-6.17012e-09
-2.91517e-10
-5.87651e-09
-2.93608e-10
-5.58155e-09
-2.9495e-10
-5.28602e-09
-2.95534e-10
-4.99067e-09
-2.95351e-10
-4.69627e-09
-2.94398e-10
-4.4036e-09
-2.92674e-10
-4.11341e-09
-2.90183e-10
-3.82649e-09
-2.8693e-10
-3.54356e-09
-2.82924e-10
-3.26538e-09
-2.78176e-10
-2.99268e-09
-2.72703e-10
-2.72616e-09
-2.66521e-10
-2.46651e-09
-2.59652e-10
-2.21439e-09
-2.5212e-10
-1.97043e-09
-2.43952e-10
-1.73526e-09
-2.35176e-10
-1.50944e-09
-2.25825e-10
-1.29351e-09
-2.15931e-10
-1.08797e-09
-2.05532e-10
-8.93308e-10
-1.94666e-10
-7.09936e-10
-1.83372e-10
-5.38241e-10
-1.71694e-10
-3.78565e-10
-1.59676e-10
-2.31202e-10
-1.47363e-10
-9.63996e-11
-1.34803e-10
2.56455e-11
-1.22045e-10
1.34787e-10
-1.09141e-10
2.30931e-10
-9.61439e-11
3.14042e-10
-8.31111e-11
3.84142e-10
-7.01004e-11
4.41316e-10
-5.71734e-11
4.85711e-10
-4.43959e-11
5.17549e-10
-3.18386e-11
5.37126e-10
-1.95782e-11
5.44825e-10
-7.69939e-12
5.41122e-10
3.70387e-12
5.26598e-10
1.4525e-11
5.01957e-10
2.46416e-11
4.68047e-10
3.39098e-11
4.25888e-10
4.21589e-11
3.76707e-10
4.91821e-11
3.21983e-10
5.47248e-11
2.63515e-10
5.84687e-11
2.03503e-10
6.00113e-11
1.44663e-10
5.88408e-11
9.03381e-11
5.43268e-11
4.45693e-11
4.57704e-11
1.20356e-11
3.25338e-11
-2.64884e-12
1.46841e-11
-2.64784e-12
2.77162e-11
-3.9846e-11
7.60681e-11
-7.73827e-11
1.20999e-10
-7.53887e-11
1.45341e-10
-4.73258e-11
1.37885e-10
-2.72741e-12
9.16833e-11
5.15597e-11
2.89111e-12
1.10948e-10
-1.301e-10
1.72292e-10
-3.07444e-10
2.3355e-10
-5.28253e-10
2.93339e-10
-7.90956e-10
3.50775e-10
-1.09355e-09
4.05307e-10
-1.43377e-09
4.5661e-10
-1.80918e-09
5.04509e-10
-2.21732e-09
5.48935e-10
-2.65569e-09
5.89907e-10
-3.12185e-09
6.27503e-10
-3.61343e-09
6.6183e-10
-4.12813e-09
6.93024e-10
-4.66377e-09
7.21234e-10
-5.21829e-09
7.46618e-10
-5.78974e-09
7.69345e-10
-6.37627e-09
7.89581e-10
-6.97617e-09
8.07485e-10
-7.58784e-09
8.23214e-10
-8.20976e-09
8.36926e-10
-8.84056e-09
8.4876e-10
-9.47895e-09
8.5885e-10
-1.01237e-08
8.67324e-10
-1.07737e-08
8.74299e-10
-1.1428e-08
8.79881e-10
-1.20854e-08
8.84171e-10
-1.27453e-08
8.87257e-10
-1.34066e-08
8.89212e-10
-1.40687e-08
8.90106e-10
-1.47307e-08
8.90003e-10
-1.5392e-08
8.88955e-10
-1.60518e-08
8.87006e-10
-1.67096e-08
8.84191e-10
-1.73646e-08
8.80538e-10
-1.80163e-08
8.76068e-10
-1.86641e-08
8.70798e-10
-1.93074e-08
8.64737e-10
-1.99456e-08
8.5789e-10
-2.0578e-08
8.50253e-10
-2.12042e-08
8.41821e-10
-2.18234e-08
8.32583e-10
-2.24351e-08
8.22526e-10
-2.30387e-08
8.1163e-10
-2.36335e-08
7.99878e-10
-2.42188e-08
7.87251e-10
-2.4794e-08
7.73722e-10
-2.53584e-08
7.59265e-10
-2.59113e-08
7.43852e-10
-2.64519e-08
7.27456e-10
-2.69795e-08
7.10051e-10
-2.74934e-08
6.91611e-10
-2.79926e-08
6.72109e-10
-2.84765e-08
6.51522e-10
-2.89443e-08
6.29824e-10
-2.93949e-08
6.06993e-10
-2.98277e-08
5.8301e-10
-3.02418e-08
5.57859e-10
-3.06362e-08
5.31527e-10
-3.10101e-08
5.04003e-10
-3.13627e-08
4.75282e-10
-3.16929e-08
4.4536e-10
-3.2e-08
4.14241e-10
-3.22831e-08
3.81931e-10
-3.25412e-08
3.48441e-10
-3.27736e-08
3.13789e-10
-3.29794e-08
2.77998e-10
-3.31578e-08
2.411e-10
-3.33079e-08
2.03128e-10
-3.34291e-08
1.64123e-10
-3.35206e-08
1.24132e-10
-3.35817e-08
8.32084e-11
-3.36118e-08
4.14125e-11
-3.36103e-08
-1.18889e-12
-3.35767e-08
-4.4522e-11
-3.35105e-08
-8.85071e-11
-3.34112e-08
-1.33058e-10
-3.32785e-08
-1.78081e-10
-3.31122e-08
-2.23477e-10
-3.29121e-08
-2.69144e-10
-3.2678e-08
-3.14969e-10
-3.241e-08
-3.60838e-10
-3.2108e-08
-4.06632e-10
-3.17723e-08
-4.52226e-10
-3.1403e-08
-4.97491e-10
-3.10007e-08
-5.42296e-10
-3.05655e-08
-5.86504e-10
-3.00983e-08
-6.29977e-10
-2.95994e-08
-6.72575e-10
-2.90699e-08
-7.1416e-10
-2.85104e-08
-7.5459e-10
-2.79219e-08
-7.93723e-10
-2.73056e-08
-8.31419e-10
-2.66625e-08
-8.67543e-10
-2.5994e-08
-9.01958e-10
-2.53014e-08
-9.34533e-10
-2.45861e-08
-9.65139e-10
-2.38497e-08
-9.93657e-10
-2.30939e-08
-1.01997e-09
-2.23203e-08
-1.04396e-09
-2.15307e-08
-1.06553e-09
-2.0727e-08
-1.08459e-09
-1.99111e-08
-1.10104e-09
-1.9085e-08
-1.1148e-09
-1.82507e-08
-1.12582e-09
-1.74103e-08
-1.13402e-09
-1.65659e-08
-1.13937e-09
-1.57196e-08
-1.14183e-09
-1.48736e-08
-1.14136e-09
-1.403e-08
-1.13796e-09
-1.3191e-08
-1.13163e-09
-1.23588e-08
-1.12237e-09
-1.15356e-08
-1.1102e-09
-1.07233e-08
-1.09516e-09
-9.92423e-09
-1.07729e-09
-9.14027e-09
-1.05666e-09
-8.37348e-09
-1.03332e-09
-7.62578e-09
-1.00735e-09
-6.89904e-09
-9.78856e-10
-6.19507e-09
-9.47926e-10
-5.51557e-09
-9.14672e-10
-4.86218e-09
-8.79217e-10
-4.23642e-09
-8.41688e-10
-3.63973e-09
-8.02223e-10
-3.07342e-09
-7.60968e-10
-2.53872e-09
-7.18078e-10
-2.03669e-09
-6.73715e-10
-1.56832e-09
-6.28048e-10
-1.13443e-09
-5.81253e-10
-7.35721e-10
-5.33514e-10
-3.72742e-10
-4.85023e-10
-4.59028e-11
-4.35979e-10
2.44546e-10
-3.86592e-10
4.98515e-10
-3.37079e-10
7.16086e-10
-2.87671e-10
8.97521e-10
-2.38609e-10
1.04328e-09
-1.9015e-10
1.15401e-09
-1.42571e-10
1.2306e-09
-9.61733e-11
1.27419e-09
-5.12854e-11
1.28617e-09
-8.27283e-12
1.26824e-09
3.2454e-11
1.22246e-09
7.04287e-11
1.15125e-09
1.05113e-10
1.05753e-09
1.35881e-10
9.44728e-10
1.61989e-10
8.16899e-10
1.82555e-10
6.78847e-10
1.96522e-10
5.3623e-10
2.02631e-10
3.95667e-10
1.99405e-10
2.64781e-10
1.85214e-10
1.52035e-10
1.58517e-10
6.61538e-11
1.18414e-10
1.46311e-11
6.62083e-11
1.19843e-11
3.05429e-11
-7.03904e-11
7.50139e-11
-1.21855e-10
1.05229e-10
-1.05606e-10
1.0093e-10
-4.30249e-11
4.79464e-11
5.02532e-11
-6.3098e-11
1.62606e-10
-2.37773e-10
2.85624e-10
-4.78831e-10
4.1335e-10
-7.86906e-10
5.41624e-10
-1.16114e-09
6.67575e-10
-1.59961e-09
7.89248e-10
-2.09966e-09
9.0536e-10
-2.65815e-09
1.0151e-09
-3.27164e-09
1.11799e-09
-3.93651e-09
1.21381e-09
-4.64912e-09
1.30251e-09
-5.4058e-09
1.38418e-09
-6.20296e-09
1.459e-09
-7.03713e-09
1.52719e-09
-7.90494e-09
1.58905e-09
-8.80321e-09
1.64488e-09
-9.72887e-09
1.69501e-09
-1.06791e-08
1.73977e-09
-1.16511e-08
1.77949e-09
-1.26423e-08
1.81448e-09
-1.36505e-08
1.84508e-09
-1.46733e-08
1.87156e-09
-1.57087e-08
1.89422e-09
-1.67547e-08
1.91332e-09
-1.78095e-08
1.9291e-09
-1.88714e-08
1.9418e-09
-1.99388e-08
1.95161e-09
-2.10103e-08
1.95874e-09
-2.20844e-08
1.96334e-09
-2.31599e-08
1.96556e-09
-2.42354e-08
1.96554e-09
-2.53099e-08
1.96339e-09
-2.63821e-08
1.9592e-09
-2.74509e-08
1.95306e-09
-2.85154e-08
1.94502e-09
-2.95745e-08
1.93514e-09
-3.06271e-08
1.92345e-09
-3.16724e-08
1.90996e-09
-3.27092e-08
1.8947e-09
-3.37366e-08
1.87766e-09
-3.47536e-08
1.85883e-09
-3.57592e-08
1.83819e-09
-3.67524e-08
1.81571e-09
-3.77321e-08
1.79136e-09
-3.86973e-08
1.76509e-09
-3.96469e-08
1.73687e-09
-4.05799e-08
1.70664e-09
-4.14949e-08
1.67435e-09
-4.2391e-08
1.63994e-09
-4.32669e-08
1.60336e-09
-4.41214e-08
1.56455e-09
-4.49533e-08
1.52346e-09
-4.57612e-08
1.48003e-09
-4.65439e-08
1.43422e-09
-4.73e-08
1.38597e-09
-4.80283e-08
1.33523e-09
-4.87273e-08
1.28198e-09
-4.93956e-08
1.22617e-09
-5.00318e-08
1.16778e-09
-5.06346e-08
1.1068e-09
-5.12025e-08
1.04321e-09
-5.17342e-08
9.77009e-10
-5.22282e-08
9.08206e-10
-5.2683e-08
8.3682e-10
-5.30975e-08
7.62879e-10
-5.34701e-08
6.86424e-10
-5.37996e-08
6.07511e-10
-5.40847e-08
5.26203e-10
-5.43242e-08
4.4258e-10
-5.45168e-08
3.56733e-10
-5.46614e-08
2.68767e-10
-5.4757e-08
1.78801e-10
-5.48026e-08
8.69695e-11
-5.47972e-08
-6.58231e-12
-5.474e-08
-1.01693e-10
-5.46303e-08
-1.98186e-10
-5.44675e-08
-2.95871e-10
-5.42511e-08
-3.9455e-10
-5.39805e-08
-4.94005e-10
-5.36557e-08
-5.94009e-10
-5.32763e-08
-6.94324e-10
-5.28425e-08
-7.94698e-10
-5.23542e-08
-8.94871e-10
-5.18119e-08
-9.94573e-10
-5.12158e-08
-1.09353e-09
-5.05667e-08
-1.19144e-09
-4.98652e-08
-1.28803e-09
-4.91122e-08
-1.38299e-09
-4.83087e-08
-1.47602e-09
-4.7456e-08
-1.56683e-09
-4.65555e-08
-1.65509e-09
-4.56087e-08
-1.74052e-09
-4.46173e-08
-1.82282e-09
-4.35832e-08
-1.90167e-09
-4.25084e-08
-1.9768e-09
-4.1395e-08
-2.04793e-09
-4.02453e-08
-2.11476e-09
-3.90619e-08
-2.17705e-09
-3.78474e-08
-2.23455e-09
-3.66043e-08
-2.287e-09
-3.53357e-08
-2.3342e-09
-3.40443e-08
-2.37593e-09
-3.27333e-08
-2.412e-09
-3.14059e-08
-2.44226e-09
-3.00652e-08
-2.46655e-09
-2.87144e-08
-2.48474e-09
-2.73571e-08
-2.49673e-09
-2.59965e-08
-2.50245e-09
-2.4636e-08
-2.50184e-09
-2.32791e-08
-2.49486e-09
-2.19292e-08
-2.48151e-09
-2.05898e-08
-2.46182e-09
-1.92641e-08
-2.43582e-09
-1.79557e-08
-2.40359e-09
-1.66678e-08
-2.36523e-09
-1.54036e-08
-2.32085e-09
-1.41663e-08
-2.2706e-09
-1.2959e-08
-2.21466e-09
-1.17846e-08
-2.15321e-09
-1.06461e-08
-2.08648e-09
-9.54606e-09
-2.01469e-09
-8.48716e-09
-1.93812e-09
-7.47182e-09
-1.85703e-09
-6.50231e-09
-1.77173e-09
-5.58074e-09
-1.68254e-09
-4.70903e-09
-1.58979e-09
-3.88891e-09
-1.49383e-09
-3.12193e-09
-1.39503e-09
-2.4094e-09
-1.29378e-09
-1.75243e-09
-1.19048e-09
-1.15191e-09
-1.08555e-09
-6.08454e-10
-9.79429e-10
-1.22471e-10
-8.72575e-10
3.05918e-10
-7.65469e-10
6.76861e-10
-6.58615e-10
9.90798e-10
-5.52547e-10
1.24848e-09
-4.47832e-10
1.45099e-09
-3.45081e-10
1.59977e-09
-2.44951e-10
1.69665e-09
-1.48161e-10
1.74388e-09
-5.55064e-11
1.7442e-09
3.21298e-11
1.70088e-09
1.13752e-10
1.61777e-09
1.88227e-10
1.49939e-09
2.54253e-10
1.35106e-09
3.10324e-10
1.17892e-09
3.54693e-10
9.90105e-10
3.85338e-10
7.92798e-10
3.9994e-10
5.9628e-10
3.95924e-10
4.10871e-10
3.70623e-10
2.47668e-10
3.2172e-10
1.1797e-10
2.48114e-10
3.23148e-11
1.51865e-10
4.42994e-11
2.32319e-11
-9.3618e-11
4.75341e-11
-1.46158e-10
4.3182e-11
-1.01255e-10
-1.09992e-11
1.11582e-11
-1.30197e-10
1.69452e-10
-3.24779e-10
3.57185e-10
-6.01188e-10
5.62034e-10
-9.62805e-10
7.74968e-10
-1.41064e-09
9.89458e-10
-1.9439e-09
1.20084e-09
-2.56048e-09
1.40583e-09
-3.25731e-09
1.60218e-09
-4.03064e-09
1.78843e-09
-4.8763e-09
1.96365e-09
-5.78985e-09
2.12736e-09
-6.76672e-09
2.27938e-09
-7.80229e-09
2.41975e-09
-8.89198e-09
2.54869e-09
-1.00313e-08
2.66654e-09
-1.1216e-08
2.77371e-09
-1.24418e-08
2.87069e-09
-1.37048e-08
2.95798e-09
-1.50011e-08
3.03611e-09
-1.63272e-08
3.1056e-09
-1.76797e-08
3.16698e-09
-1.90554e-08
3.22077e-09
-2.04513e-08
3.26746e-09
-2.18646e-08
3.3075e-09
-2.32926e-08
3.34135e-09
-2.47329e-08
3.36941e-09
-2.61832e-08
3.39207e-09
-2.76413e-08
3.40968e-09
-2.91051e-08
3.42255e-09
-3.05727e-08
3.43096e-09
-3.20423e-08
3.43517e-09
-3.35122e-08
3.43541e-09
-3.49807e-08
3.43186e-09
-3.64462e-08
3.4247e-09
-3.79071e-08
3.41405e-09
-3.93621e-08
3.40002e-09
-4.08097e-08
3.38271e-09
-4.22484e-08
3.36217e-09
-4.36769e-08
3.33844e-09
-4.50938e-08
3.31155e-09
-4.64976e-08
3.2815e-09
-4.7887e-08
3.24826e-09
-4.92607e-08
3.21181e-09
-5.0617e-08
3.17211e-09
-5.19548e-08
3.12909e-09
-5.32724e-08
3.08271e-09
-5.45684e-08
3.03286e-09
-5.58412e-08
2.97949e-09
-5.70894e-08
2.9225e-09
-5.83112e-08
2.8618e-09
-5.95052e-08
2.7973e-09
-6.06695e-08
2.7289e-09
-6.18026e-08
2.65652e-09
-6.29026e-08
2.58007e-09
-6.39678e-08
2.49946e-09
-6.49965e-08
2.41461e-09
-6.59867e-08
2.32546e-09
-6.69367e-08
2.23194e-09
-6.78445e-08
2.134e-09
-6.87083e-08
2.0316e-09
-6.95262e-08
1.92471e-09
-7.02964e-08
1.81333e-09
-7.10168e-08
1.69744e-09
-7.16856e-08
1.57707e-09
-7.23011e-08
1.45226e-09
-7.28613e-08
1.32306e-09
-7.33644e-08
1.18955e-09
-7.38087e-08
1.05182e-09
-7.41925e-08
9.09989e-10
-7.45141e-08
7.642e-10
-7.4772e-08
6.14613e-10
-7.49646e-08
4.61414e-10
-7.50906e-08
3.04811e-10
-7.51487e-08
1.45036e-10
-7.51376e-08
-1.76537e-11
-7.50564e-08
-1.82978e-10
-7.49039e-08
-3.50633e-10
-7.46795e-08
-5.20291e-10
-7.43824e-08
-6.91602e-10
-7.40122e-08
-8.64196e-10
-7.35686e-08
-1.03768e-09
-7.30513e-08
-1.21164e-09
-7.24603e-08
-1.38565e-09
-7.17959e-08
-1.55925e-09
-7.10585e-08
-1.73199e-09
-7.02487e-08
-1.90338e-09
-6.93672e-08
-2.07293e-09
-6.84151e-08
-2.24014e-09
-6.73935e-08
-2.40451e-09
-6.63041e-08
-2.56551e-09
-6.51483e-08
-2.72263e-09
-6.3928e-08
-2.87534e-09
-6.26454e-08
-3.02314e-09
-6.13027e-08
-3.16549e-09
-5.99025e-08
-3.30191e-09
-5.84474e-08
-3.43189e-09
-5.69404e-08
-3.55494e-09
-5.53845e-08
-3.6706e-09
-5.37832e-08
-3.77842e-09
-5.21397e-08
-3.87797e-09
-5.04579e-08
-3.96884e-09
-4.87415e-08
-4.05065e-09
-4.69943e-08
-4.12306e-09
-4.52206e-08
-4.18573e-09
-4.34245e-08
-4.23839e-09
-4.16102e-08
-4.28078e-09
-3.97823e-08
-4.31269e-09
-3.79451e-08
-4.33395e-09
-3.61031e-08
-4.3444e-09
-3.4261e-08
-4.34397e-09
-3.24232e-08
-4.33259e-09
-3.05945e-08
-4.31027e-09
-2.87793e-08
-4.27702e-09
-2.69821e-08
-4.23294e-09
-2.52076e-08
-4.17813e-09
-2.34601e-08
-4.11277e-09
-2.17438e-08
-4.03706e-09
-2.00632e-08
-3.95125e-09
-1.84222e-08
-3.85563e-09
-1.68249e-08
-3.75053e-09
-1.52751e-08
-3.63633e-09
-1.37763e-08
-3.51342e-09
-1.23322e-08
-3.38226e-09
-1.09459e-08
-3.24332e-09
-9.62052e-09
-3.09711e-09
-8.35887e-09
-2.94419e-09
-7.16353e-09
-2.78513e-09
-6.03682e-09
-2.62054e-09
-4.9808e-09
-2.45105e-09
-3.99724e-09
-2.27733e-09
-3.08763e-09
-2.10009e-09
-2.25314e-09
-1.92004e-09
-1.49461e-09
-1.73795e-09
-8.12565e-10
-1.55462e-09
-2.07153e-10
-1.37088e-09
3.21839e-10
-1.18761e-09
7.75023e-10
-1.00573e-09
1.15343e-09
-8.26233e-10
1.45852e-09
-6.50172e-10
1.69225e-09
-4.78686e-10
1.8571e-09
-3.13009e-10
1.95609e-09
-1.54498e-10
1.99287e-09
-4.65054e-12
1.97176e-09
1.34862e-10
1.89783e-09
2.62159e-10
1.77697e-09
3.75114e-10
1.61599e-09
4.71311e-10
1.42267e-09
5.48007e-10
1.20591e-09
6.02103e-10
9.75695e-10
6.30153e-10
7.43168e-10
6.28451e-10
5.2051e-10
5.93281e-10
3.20782e-10
5.21449e-10
1.57661e-10
4.11237e-10
4.53377e-11
2.64189e-10
8.96367e-11
1.0604e-11
-1.04223e-10
3.0836e-12
-1.38635e-10
-5.03993e-11
-4.7776e-11
-1.70235e-10
1.30997e-10
-3.7133e-10
3.70546e-10
-6.64037e-10
6.49893e-10
-1.05496e-09
9.52958e-10
-1.54765e-09
1.26765e-09
-2.1432e-09
1.58501e-09
-2.84081e-09
1.89845e-09
-3.63821e-09
2.20322e-09
-4.53202e-09
2.49599e-09
-5.51805e-09
2.77446e-09
-6.59159e-09
3.03719e-09
-7.74755e-09
3.28332e-09
-8.98064e-09
3.51247e-09
-1.02855e-08
3.7246e-09
-1.16567e-08
3.91993e-09
-1.30891e-08
4.09888e-09
-1.45773e-08
4.26199e-09
-1.61166e-08
4.40992e-09
-1.77019e-08
4.54335e-09
-1.93289e-08
4.66304e-09
-2.0993e-08
4.76973e-09
-2.26902e-08
4.86417e-09
-2.44165e-08
4.9471e-09
-2.61683e-08
5.01923e-09
-2.7942e-08
5.08125e-09
-2.97345e-08
5.1338e-09
-3.15426e-08
5.17748e-09
-3.33633e-08
5.21286e-09
-3.51941e-08
5.24045e-09
-3.70323e-08
5.26072e-09
-3.88754e-08
5.2741e-09
-4.07212e-08
5.28097e-09
-4.25675e-08
5.28165e-09
-4.4412e-08
5.27644e-09
-4.62529e-08
5.2656e-09
-4.80882e-08
5.24931e-09
-4.99159e-08
5.22775e-09
-5.17343e-08
5.20105e-09
-5.35414e-08
5.16931e-09
-5.53356e-08
5.13259e-09
-5.71149e-08
5.09093e-09
-5.88778e-08
5.04433e-09
-6.06223e-08
4.99276e-09
-6.23467e-08
4.9362e-09
-6.40491e-08
4.87457e-09
-6.57278e-08
4.8078e-09
-6.73809e-08
4.7358e-09
-6.90065e-08
4.65845e-09
-7.06027e-08
4.57564e-09
-7.21674e-08
4.48725e-09
-7.36988e-08
4.39313e-09
-7.51946e-08
4.29317e-09
-7.6653e-08
4.18722e-09
-7.80716e-08
4.07515e-09
-7.94484e-08
3.95684e-09
-8.07811e-08
3.83217e-09
-8.20675e-08
3.70102e-09
-8.33053e-08
3.56329e-09
-8.44923e-08
3.41889e-09
-8.5626e-08
3.26776e-09
-8.67043e-08
3.10984e-09
-8.77246e-08
2.9451e-09
-8.86848e-08
2.77351e-09
-8.95825e-08
2.5951e-09
-9.04153e-08
2.4099e-09
-9.1181e-08
2.21796e-09
-9.18774e-08
2.01939e-09
-9.25021e-08
1.8143e-09
-9.30531e-08
1.60284e-09
-9.35283e-08
1.38519e-09
-9.39257e-08
1.16159e-09
-9.42434e-08
9.32269e-10
-9.44795e-08
6.97523e-10
-9.46323e-08
4.57672e-10
-9.47004e-08
2.13074e-10
-9.46821e-08
-3.58787e-11
-9.45764e-08
-2.88756e-10
-9.43819e-08
-5.45094e-10
-9.40978e-08
-8.04396e-10
-9.37233e-08
-1.06613e-09
-9.32578e-08
-1.32972e-09
-9.27008e-08
-1.59459e-09
-9.20524e-08
-1.8601e-09
-9.13124e-08
-2.12559e-09
-9.04813e-08
-2.3904e-09
-8.95595e-08
-2.65381e-09
-8.85477e-08
-2.9151e-09
-8.74471e-08
-3.17354e-09
-8.62589e-08
-3.42835e-09
-8.49847e-08
-3.67878e-09
-8.36261e-08
-3.92404e-09
-8.21854e-08
-4.16336e-09
-8.06648e-08
-4.39594e-09
-7.90669e-08
-4.62101e-09
-7.73946e-08
-4.8378e-09
-7.5651e-08
-5.04554e-09
-7.38394e-08
-5.24348e-09
-7.19634e-08
-5.43091e-09
-7.00269e-08
-5.6071e-09
-6.8034e-08
-5.77138e-09
-6.59888e-08
-5.92312e-09
-6.3896e-08
-6.06169e-09
-6.17601e-08
-6.18653e-09
-5.9586e-08
-6.2971e-09
-5.73788e-08
-6.39294e-09
-5.51436e-08
-6.4736e-09
-5.28857e-08
-6.53871e-09
-5.06105e-08
-6.58794e-09
-4.83234e-08
-6.62103e-09
-4.603e-08
-6.63778e-09
-4.37359e-08
-6.63803e-09
-4.14468e-08
-6.62172e-09
-3.91683e-08
-6.58882e-09
-3.69059e-08
-6.53939e-09
-3.46653e-08
-6.47355e-09
-3.2452e-08
-6.39146e-09
-3.02714e-08
-6.29338e-09
-2.81288e-08
-6.17962e-09
-2.60295e-08
-6.05055e-09
-2.39785e-08
-5.90662e-09
-2.19807e-08
-5.74831e-09
-2.00409e-08
-5.57619e-09
-1.81634e-08
-5.39088e-09
-1.63526e-08
-5.19303e-09
-1.46126e-08
-4.98339e-09
-1.2947e-08
-4.76271e-09
-1.13593e-08
-4.53184e-09
-9.85278e-09
-4.29165e-09
-8.43026e-09
-4.04306e-09
-7.09427e-09
-3.78704e-09
-5.84701e-09
-3.5246e-09
-4.69029e-09
-3.2568e-09
-3.62556e-09
-2.98477e-09
-2.65387e-09
-2.70965e-09
-1.77582e-09
-2.43267e-09
-9.91617e-10
-2.15509e-09
-3.00969e-10
-1.87826e-09
2.96886e-10
-1.60358e-09
8.03224e-10
-1.33257e-09
1.21987e-09
-1.06682e-09
1.54924e-09
-8.08052e-10
1.79436e-09
-5.58128e-10
1.95894e-09
-3.19076e-10
2.04741e-09
-9.31208e-11
2.06499e-09
1.17278e-10
2.01776e-09
3.09386e-10
1.91273e-09
4.80151e-10
1.75788e-09
6.26158e-10
1.5623e-09
7.43596e-10
1.33615e-09
8.28243e-10
1.09081e-09
8.75499e-10
8.3876e-10
8.80501e-10
5.93639e-10
8.38403e-10
3.70187e-10
7.44903e-10
1.84344e-10
5.97081e-10
5.37591e-11
3.94774e-10
1.43396e-10
-4.98236e-12
-9.9241e-11
-5.17919e-11
-9.18254e-11
-1.64482e-10
6.49151e-11
-3.61351e-10
3.27865e-10
-6.55986e-10
6.65184e-10
-1.05797e-09
1.05187e-09
-1.57345e-09
1.46843e-09
-2.2057e-09
1.89991e-09
-2.95566e-09
2.33497e-09
-3.82231e-09
2.76511e-09
-4.80317e-09
3.18408e-09
-5.89455e-09
3.58737e-09
-7.09193e-09
3.97183e-09
-8.39011e-09
4.33538e-09
-9.78352e-09
4.67673e-09
-1.12663e-08
4.99524e-09
-1.28324e-08
5.29074e-09
-1.44759e-08
5.56343e-09
-1.61908e-08
5.81376e-09
-1.79712e-08
6.04242e-09
-1.98115e-08
6.25019e-09
-2.17061e-08
6.43798e-09
-2.36499e-08
6.60674e-09
-2.56376e-08
6.75747e-09
-2.76646e-08
6.89115e-09
-2.97262e-08
7.00876e-09
-3.18183e-08
7.11125e-09
-3.39365e-08
7.19954e-09
-3.60772e-08
7.2745e-09
-3.82367e-08
7.33696e-09
-4.04115e-08
7.38766e-09
-4.25984e-08
7.42733e-09
-4.47943e-08
7.45659e-09
-4.69962e-08
7.47604e-09
-4.92014e-08
7.48619e-09
-5.14073e-08
7.4875e-09
-5.36112e-08
7.48037e-09
-5.58108e-08
7.46516e-09
-5.80036e-08
7.44213e-09
-6.01874e-08
7.41153e-09
-6.23599e-08
7.37354e-09
-6.45189e-08
7.3283e-09
-6.66622e-08
7.2759e-09
-6.87876e-08
7.21639e-09
-7.08931e-08
7.14979e-09
-7.29764e-08
7.07607e-09
-7.50354e-08
6.99518e-09
-7.70678e-08
6.90704e-09
-7.90716e-08
6.81154e-09
-8.10443e-08
6.70856e-09
-8.29838e-08
6.59796e-09
-8.48878e-08
6.47957e-09
-8.67538e-08
6.35324e-09
-8.85794e-08
6.21878e-09
-9.03623e-08
6.07602e-09
-9.20998e-08
5.92477e-09
-9.37895e-08
5.76487e-09
-9.54288e-08
5.59614e-09
-9.70151e-08
5.41843e-09
-9.85457e-08
5.23158e-09
-1.00018e-07
5.03546e-09
-1.01429e-07
4.82996e-09
-1.02776e-07
4.61499e-09
-1.04057e-07
4.39048e-09
-1.05268e-07
4.15639e-09
-1.06407e-07
3.91272e-09
-1.07472e-07
3.65949e-09
-1.08459e-07
3.39675e-09
-1.09365e-07
3.12461e-09
-1.10189e-07
2.8432e-09
-1.10927e-07
2.5527e-09
-1.11578e-07
2.25332e-09
-1.12138e-07
1.94534e-09
-1.12605e-07
1.62907e-09
-1.12978e-07
1.30486e-09
-1.13254e-07
9.73129e-10
-1.1343e-07
6.3433e-10
-1.13506e-07
2.88971e-10
-1.1348e-07
-6.23932e-11
-1.13349e-07
-4.19158e-10
-1.13114e-07
-7.80669e-10
-1.12772e-07
-1.14622e-09
-1.12323e-07
-1.51508e-09
-1.11766e-07
-1.88644e-09
-1.11101e-07
-2.25946e-09
-1.10328e-07
-2.63328e-09
-1.09447e-07
-3.00698e-09
-1.08458e-07
-3.3796e-09
-1.07361e-07
-3.75017e-09
-1.06159e-07
-4.11768e-09
-1.04851e-07
-4.48108e-09
-1.0344e-07
-4.83933e-09
-1.01928e-07
-5.19135e-09
-1.00316e-07
-5.53606e-09
-9.86065e-08
-5.87236e-09
-9.68033e-08
-6.19919e-09
-9.49089e-08
-6.51543e-09
-9.29267e-08
-6.82003e-09
-9.08603e-08
-7.11192e-09
-8.87137e-08
-7.39006e-09
-8.64912e-08
-7.65344e-09
-8.41972e-08
-7.90108e-09
-8.18365e-08
-8.13204e-09
-7.94142e-08
-8.34543e-09
-7.69355e-08
-8.5404e-09
-7.44059e-08
-8.71615e-09
-7.1831e-08
-8.87196e-09
-6.92168e-08
-9.00715e-09
-6.65693e-08
-9.12113e-09
-6.38946e-08
-9.21337e-09
-6.11991e-08
-9.28342e-09
-5.84893e-08
-9.33091e-09
-5.57715e-08
-9.35556e-09
-5.30523e-08
-9.35717e-09
-5.03384e-08
-9.33563e-09
-4.76363e-08
-9.29091e-09
-4.49527e-08
-9.22309e-09
-4.22939e-08
-9.13232e-09
-3.96665e-08
-9.01885e-09
-3.70769e-08
-8.88302e-09
-3.45312e-08
-8.72527e-09
-3.20357e-08
-8.54611e-09
-2.95961e-08
-8.34616e-09
-2.72183e-08
-8.1261e-09
-2.49078e-08
-7.88671e-09
-2.26698e-08
-7.62885e-09
-2.05094e-08
-7.35346e-09
-1.84312e-08
-7.06154e-09
-1.64398e-08
-6.75417e-09
-1.45391e-08
-6.43253e-09
-1.27329e-08
-6.09782e-09
-1.10246e-08
-5.75134e-09
-9.41722e-09
-5.39446e-09
-7.91323e-09
-5.02859e-09
-6.5148e-09
-4.65523e-09
-5.22364e-09
-4.27593e-09
-4.04095e-09
-3.89234e-09
-2.96748e-09
-3.50615e-09
-2.00342e-09
-3.11915e-09
-1.14845e-09
-2.73322e-09
-4.01673e-10
-2.35036e-09
2.38418e-10
-1.97266e-09
7.73953e-10
-1.60235e-09
1.20774e-09
-1.24184e-09
1.5433e-09
-8.9369e-10
1.78492e-09
-5.60698e-10
1.93771e-09
-2.45902e-10
2.00762e-09
4.73679e-11
2.00156e-09
3.15445e-10
1.92743e-09
5.54284e-10
1.79416e-09
7.59422e-10
1.61182e-09
9.25941e-10
1.39159e-09
1.04847e-09
1.14587e-09
1.12123e-09
8.88221e-10
1.13815e-09
6.33494e-10
1.09313e-09
3.97901e-10
9.80497e-10
1.99374e-10
7.95609e-10
5.83518e-11
5.35797e-10
2.0175e-10
-2.20959e-11
-7.71468e-11
-1.12701e-10
-1.21752e-12
-2.91205e-10
2.43418e-10
-5.72936e-10
6.09595e-10
-9.69442e-10
1.06169e-09
-1.48891e-09
1.57134e-09
-2.13655e-09
2.11607e-09
-2.91498e-09
2.67835e-09
-3.82466e-09
3.24465e-09
-4.86422e-09
3.80466e-09
-6.03081e-09
4.35067e-09
-7.32042e-09
4.87699e-09
-8.72816e-09
5.37957e-09
-1.02485e-08
5.85567e-09
-1.18753e-08
6.30355e-09
-1.36023e-08
6.72225e-09
-1.5423e-08
7.11143e-09
-1.73308e-08
7.47124e-09
-1.93192e-08
7.80218e-09
-2.13818e-08
8.10499e-09
-2.35122e-08
8.38065e-09
-2.57045e-08
8.63023e-09
-2.79527e-08
8.85492e-09
-3.02511e-08
9.05593e-09
-3.25945e-08
9.23451e-09
-3.49776e-08
9.39189e-09
-3.73956e-08
9.52927e-09
-3.98439e-08
9.64783e-09
-4.23181e-08
9.74866e-09
-4.48139e-08
9.83282e-09
-4.73276e-08
9.90129e-09
-4.98552e-08
9.95497e-09
-5.23933e-08
9.99471e-09
-5.49385e-08
1.00212e-08
-5.74876e-08
1.00352e-08
-6.00374e-08
1.00373e-08
-6.2585e-08
1.0028e-08
-6.51276e-08
1.00077e-08
-6.76623e-08
9.97687e-09
-7.01866e-08
9.93575e-09
-7.26976e-08
9.8846e-09
-7.51929e-08
9.82361e-09
-7.76699e-08
9.7529e-09
-8.01261e-08
9.67255e-09
-8.25589e-08
9.58258e-09
-8.49658e-08
9.48296e-09
-8.73442e-08
9.37363e-09
-8.96917e-08
9.25449e-09
-9.20055e-08
9.1254e-09
-9.42832e-08
8.98622e-09
-9.6522e-08
8.83677e-09
-9.87193e-08
8.67683e-09
-1.00872e-07
8.5062e-09
-1.02978e-07
8.32466e-09
-1.05034e-07
8.13198e-09
-1.07037e-07
7.92793e-09
-1.08985e-07
7.71229e-09
-1.10873e-07
7.48486e-09
-1.127e-07
7.24541e-09
-1.14463e-07
6.99379e-09
-1.16157e-07
6.72981e-09
-1.1778e-07
6.45334e-09
-1.1933e-07
6.16428e-09
-1.20802e-07
5.86254e-09
-1.22193e-07
5.5481e-09
-1.23502e-07
5.22093e-09
-1.24723e-07
4.8811e-09
-1.25855e-07
4.52869e-09
-1.26894e-07
4.16384e-09
-1.27838e-07
3.78674e-09
-1.28683e-07
3.39765e-09
-1.29426e-07
2.99685e-09
-1.30066e-07
2.58472e-09
-1.30598e-07
2.16167e-09
-1.31022e-07
1.7282e-09
-1.31333e-07
1.28486e-09
-1.31531e-07
8.32252e-10
-1.31613e-07
3.71061e-10
-1.31578e-07
-9.79698e-11
-1.31423e-07
-5.74034e-10
-1.31147e-07
-1.05626e-09
-1.3075e-07
-1.54372e-09
-1.3023e-07
-2.03541e-09
-1.29586e-07
-2.53029e-09
-1.28818e-07
-3.02724e-09
-1.27926e-07
-3.52511e-09
-1.2691e-07
-4.02269e-09
-1.25771e-07
-4.51871e-09
-1.2451e-07
-5.01188e-09
-1.23126e-07
-5.50086e-09
-1.21623e-07
-5.9843e-09
-1.20002e-07
-6.46079e-09
-1.18264e-07
-6.92893e-09
-1.16413e-07
-7.38728e-09
-1.14451e-07
-7.83442e-09
-1.12381e-07
-8.26891e-09
-1.10207e-07
-8.68932e-09
-1.07933e-07
-9.09423e-09
-1.05563e-07
-9.48226e-09
-1.03101e-07
-9.85203e-09
-1.00552e-07
-1.02022e-08
-9.79214e-08
-1.05316e-08
-9.52147e-08
-1.08388e-08
-9.24374e-08
-1.11227e-08
-8.95956e-08
-1.13823e-08
-8.66953e-08
-1.16164e-08
-8.37432e-08
-1.18241e-08
-8.07459e-08
-1.20045e-08
-7.77101e-08
-1.21569e-08
-7.4643e-08
-1.22805e-08
-7.15516e-08
-1.23748e-08
-6.84433e-08
-1.24392e-08
-6.53254e-08
-1.24735e-08
-6.22053e-08
-1.24772e-08
-5.90906e-08
-1.24504e-08
-5.59886e-08
-1.23929e-08
-5.29068e-08
-1.23049e-08
-4.98527e-08
-1.21865e-08
-4.68335e-08
-1.2038e-08
-4.38565e-08
-1.18601e-08
-4.09287e-08
-1.16531e-08
-3.80571e-08
-1.14177e-08
-3.52483e-08
-1.11549e-08
-3.2509e-08
-1.08654e-08
-2.98453e-08
-1.05504e-08
-2.72633e-08
-1.02109e-08
-2.47687e-08
-9.84812e-09
-2.23667e-08
-9.46348e-09
-2.00625e-08
-9.05839e-09
-1.78607e-08
-8.63436e-09
-1.57655e-08
-8.19303e-09
-1.37807e-08
-7.7361e-09
-1.19098e-08
-7.26537e-09
-1.01557e-08
-6.78273e-09
-8.52073e-09
-6.29017e-09
-7.00693e-09
-5.78974e-09
-5.61563e-09
-5.28363e-09
-4.34768e-09
-4.7741e-09
-3.20332e-09
-4.26351e-09
-2.18217e-09
-3.75437e-09
-1.28323e-09
-3.2493e-09
-5.048e-10
-2.75109e-09
1.55511e-10
-2.26267e-09
7.00852e-10
-1.78718e-09
1.13516e-09
-1.328e-09
1.46321e-09
-8.88745e-10
1.69065e-09
-4.73342e-10
1.82407e-09
-8.60534e-11
1.87105e-09
2.6847e-10
1.84018e-09
5.85149e-10
1.74117e-09
8.58433e-10
1.58484e-09
1.08228e-09
1.38317e-09
1.25014e-09
1.14938e-09
1.35502e-09
8.97938e-10
1.38959e-09
6.44695e-10
1.34638e-09
4.07114e-10
1.21808e-09
2.04719e-10
9.98005e-10
5.99403e-11
6.80578e-10
2.61692e-10
-3.98946e-11
-3.72516e-11
-1.76721e-10
1.35609e-10
-4.25088e-10
4.91785e-10
-7.96766e-10
9.81273e-10
-1.30079e-09
1.56571e-09
-1.9435e-09
2.21405e-09
-2.72877e-09
2.90134e-09
-3.65825e-09
3.60782e-09
-4.73164e-09
4.31804e-09
-5.94702e-09
5.02004e-09
-7.30107e-09
5.70471e-09
-8.78936e-09
6.36528e-09
-1.04066e-08
6.99682e-09
-1.21468e-08
7.59591e-09
-1.40036e-08
8.16034e-09
-1.59702e-08
8.68882e-09
-1.80396e-08
9.18086e-09
-2.02049e-08
9.63649e-09
-2.24589e-08
1.00562e-08
-2.47949e-08
1.04409e-08
-2.72059e-08
1.07917e-08
-2.96855e-08
1.11098e-08
-3.22271e-08
1.13966e-08
-3.48247e-08
1.16535e-08
-3.74723e-08
1.18822e-08
-4.01644e-08
1.20839e-08
-4.28955e-08
1.22604e-08
-4.56605e-08
1.24128e-08
-4.84545e-08
1.25427e-08
-5.12729e-08
1.26512e-08
-5.41113e-08
1.27397e-08
-5.69656e-08
1.28092e-08
-5.98316e-08
1.28607e-08
-6.27056e-08
1.28953e-08
-6.5584e-08
1.29136e-08
-6.84633e-08
1.29166e-08
-7.134e-08
1.29047e-08
-7.4211e-08
1.28787e-08
-7.70731e-08
1.28389e-08
-7.99231e-08
1.27858e-08
-8.27582e-08
1.27197e-08
-8.55753e-08
1.26407e-08
-8.83716e-08
1.25491e-08
-9.1144e-08
1.2445e-08
-9.38898e-08
1.23284e-08
-9.66061e-08
1.21992e-08
-9.92899e-08
1.20574e-08
-1.01938e-07
1.19029e-08
-1.04548e-07
1.17355e-08
-1.07117e-07
1.15551e-08
-1.09642e-07
1.13613e-08