/*--------------------------------*- C++ -*----------------------------------*\
  =========                 |
  \\      /  F ield         | OpenFOAM: The Open Source CFD Toolbox
   \\    /   O peration     | Website:  https://openfoam.org
    \\  /    A nd           | Version:  7
     \\/     M anipulation  |
\*---------------------------------------------------------------------------*/
FoamFile
{
    version     2.0;
    format      ascii;
    class       volScalarField;
    location    "0.275";
    object      p;
}
// * * * * * * * * * * * * * * * * * * * * * * * * * * * * * * * * * * * * * //

dimensions      [0 2 -2 0 0 0 0];

internalField   nonuniform List<scalar> 
25600
(
5.90511e-09
-3.9217e-07
-3.23798e-06
-8.26628e-06
-1.48153e-05
-2.23014e-05
-3.02245e-05
-3.81643e-05
-4.57969e-05
-5.28791e-05
-5.92195e-05
-6.46589e-05
-6.9067e-05
-7.2345e-05
-7.44218e-05
-7.52459e-05
-7.47769e-05
-7.29846e-05
-6.98499e-05
-6.53636e-05
-5.95221e-05
-5.23261e-05
-4.37794e-05
-3.38895e-05
-2.26665e-05
-1.0122e-05
3.73252e-06
1.88847e-05
3.53216e-05
5.30298e-05
7.1996e-05
9.22084e-05
0.000113656
0.000136329
0.000160215
0.000185304
0.000211588
0.000239058
0.000267705
0.000297524
0.000328508
0.00036065
0.000393944
0.000428383
0.000463962
0.000500676
0.000538521
0.000577491
0.000617581
0.000658782
0.00070109
0.000744496
0.000788996
0.000834582
0.000881245
0.000928977
0.000977765
0.0010276
0.00107847
0.00113036
0.00118326
0.00123716
0.00129203
0.00134786
0.00140464
0.00146234
0.00152095
0.00158043
0.00164077
0.00170195
0.00176393
0.00182669
0.00189019
0.00195441
0.00201932
0.00208488
0.00215104
0.00221779
0.00228507
0.00235284
0.00242107
0.00248971
0.00255871
0.00262803
0.00269762
0.00276742
0.00283739
0.00290747
0.00297761
0.00304775
0.00311784
0.00318781
0.00325761
0.00332717
0.00339645
0.00346536
0.00353386
0.00360188
0.00366935
0.00373621
0.00380239
0.00386783
0.00393247
0.00399624
0.00405908
0.00412092
0.00418169
0.00424134
0.00429981
0.00435703
0.00441294
0.00446749
0.00452061
0.00457226
0.00462237
0.00467091
0.00471781
0.00476302
0.00480652
0.00484824
0.00488816
0.00492623
0.00496243
0.00499671
0.00502905
0.00505943
0.00508783
0.00511423
0.00513862
0.00516099
0.00518133
0.00519964
0.00521594
0.00523022
0.0052425
0.00525281
0.00526117
0.00526761
0.00527217
0.0052749
0.00527584
0.00527507
0.00527266
0.00526868
0.00526322
0.0052564
0.00524833
0.00523916
0.00522904
0.00521814
0.00520669
0.00519493
0.00518314
0.00517165
0.00516086
0.00515124
0.00514329
0.00513759
0.00513475
0.00513485
7.57457e-07
3.37918e-07
-2.11314e-06
-6.25797e-06
-1.15851e-05
-1.7674e-05
-2.41578e-05
-3.06934e-05
-3.6991e-05
-4.28213e-05
-4.80019e-05
-5.23823e-05
-5.58363e-05
-5.82618e-05
-5.95805e-05
-5.9734e-05
-5.86768e-05
-5.63742e-05
-5.28011e-05
-4.79411e-05
-4.17843e-05
-3.43256e-05
-2.55648e-05
-1.55049e-05
-4.15064e-06
8.49099e-06
2.24115e-05
3.76019e-05
5.40525e-05
7.17528e-05
9.06921e-05
0.000110861
0.00013225
0.000154849
0.00017865
0.000203643
0.00022982
0.000257174
0.000285698
0.000315385
0.000346228
0.000378222
0.00041136
0.000445636
0.000481045
0.000517581
0.00055524
0.000594017
0.000633905
0.000674896
0.000716985
0.000760164
0.000804427
0.000849767
0.000896174
0.00094364
0.000992152
0.0010417
0.00109227
0.00114385
0.00119643
0.00125
0.00130452
0.00136
0.00141641
0.00147373
0.00153194
0.00159102
0.00165094
0.00171167
0.0017732
0.0018355
0.00189853
0.00196227
0.00202667
0.00209171
0.00215735
0.00222355
0.00229027
0.00235748
0.00242512
0.00249316
0.00256156
0.00263026
0.00269921
0.00276837
0.00283769
0.0029071
0.00297657
0.00304603
0.00311542
0.00318469
0.00325379
0.00332264
0.0033912
0.00345939
0.00352716
0.00359445
0.00366118
0.00372731
0.00379276
0.00385747
0.00392138
0.00398442
0.00404654
0.00410766
0.00416773
0.00422668
0.00428445
0.00434099
0.00439623
0.00445013
0.00450261
0.00455363
0.00460314
0.00465109
0.00469743
0.00474211
0.00478509
0.00482632
0.00486578
0.00490342
0.00493922
0.00497314
0.00500516
0.00503525
0.0050634
0.0050896
0.00511384
0.0051361
0.00515638
0.0051747
0.00519105
0.00520545
0.00521791
0.00522847
0.00523714
0.00524397
0.005249
0.00525227
0.00525385
0.0052538
0.00525219
0.0052491
0.00524464
0.00523892
0.00523205
0.00522417
0.00521543
0.00520603
0.00519615
0.00518603
0.00517593
0.00516615
0.00515702
0.00514892
0.00514223
0.00513737
0.00513485
0.00513494
4.09036e-06
3.1597e-06
6.37325e-07
-3.17622e-06
-7.89141e-06
-1.31872e-05
-1.87784e-05
-2.43927e-05
-2.97808e-05
-3.47315e-05
-3.90741e-05
-4.26691e-05
-4.53995e-05
-4.71674e-05
-4.78932e-05
-4.75141e-05
-4.59825e-05
-4.32623e-05
-3.93254e-05
-3.41512e-05
-2.77253e-05
-2.00392e-05
-1.10894e-05
-8.76042e-07
1.05996e-05
2.33343e-05
3.73224e-05
5.25568e-05
6.90297e-05
8.67329e-05
0.000105659
0.000125799
0.000147147
0.000169692
0.000193426
0.000218343
0.000244434
0.000271695
0.000300117
0.000329695
0.000360422
0.000392292
0.000425299
0.000459438
0.000494704
0.000531092
0.000568595
0.000607209
0.000646927
0.000687743
0.000729648
0.000772637
0.000816703
0.000861838
0.000908033
0.000955278
0.00100356
0.00105287
0.0011032
0.00115453
0.00120684
0.00126013
0.00131438
0.00136957
0.00142568
0.00148269
0.00154058
0.00159933
0.00165891
0.0017193
0.00178047
0.00184239
0.00190505
0.00196839
0.00203239
0.00209702
0.00216224
0.00222801
0.00229429
0.00236104
0.00242823
0.0024958
0.00256372
0.00263193
0.00270038
0.00276904
0.00283784
0.00290674
0.00297567
0.00304459
0.00311345
0.00318217
0.00325071
0.00331901
0.003387
0.00345463
0.00352183
0.00358855
0.00365471
0.00372026
0.00378514
0.00384928
0.00391262
0.0039751
0.00403665
0.00409721
0.00415672
0.00421512
0.00427235
0.00432836
0.00438308
0.00443646
0.00448844
0.00453898
0.00458801
0.0046355
0.00468139
0.00472565
0.00476822
0.00480907
0.00484816
0.00488546
0.00492094
0.00495458
0.00498633
0.0050162
0.00504416
0.00507019
0.0050943
0.00511647
0.00513671
0.00515502
0.00517141
0.00518589
0.0051985
0.00520924
0.00521816
0.00522528
0.00523067
0.00523436
0.00523642
0.00523691
0.00523592
0.00523352
0.00522982
0.00522491
0.00521893
0.00521201
0.0052043
0.00519597
0.00518721
0.00517824
0.00516929
0.00516063
0.00515254
0.00514534
0.00513934
0.00513486
0.00513234
0.00513214
9.55946e-06
7.64252e-06
4.68472e-06
8.26422e-07
-3.69908e-06
-8.62161e-06
-1.37039e-05
-1.87305e-05
-2.34984e-05
-2.78239e-05
-3.15508e-05
-3.455e-05
-3.67149e-05
-3.79561e-05
-3.81974e-05
-3.73767e-05
-3.54454e-05
-3.23671e-05
-2.81132e-05
-2.26609e-05
-1.59935e-05
-8.10009e-06
1.02452e-06
1.1383e-05
2.29764e-05
3.58038e-05
4.98617e-05
6.51449e-05
8.16472e-05
9.93623e-05
0.000118284
0.000138406
0.000159722
0.000182225
0.000205906
0.000230758
0.000256776
0.000283955
0.000312289
0.000341771
0.000372395
0.000404154
0.000437045
0.000471062
0.0005062
0.000542454
0.000579818
0.000618287
0.000657853
0.000698511
0.000740253
0.000783074
0.000826965
0.000871919
0.000917926
0.000964977
0.00101306
0.00106216
0.00111228
0.00116338
0.00121547
0.00126853
0.00132253
0.00137747
0.00143333
0.00149007
0.00154769
0.00160616
0.00166545
0.00172554
0.00178641
0.00184803
0.00191036
0.00197337
0.00203704
0.00210132
0.00216619
0.0022316
0.00229751
0.00236389
0.0024307
0.00249788
0.0025654
0.0026332
0.00270125
0.00276949
0.00283787
0.00290633
0.00297483
0.00304332
0.00311172
0.00318
0.00324808
0.00331592
0.00338346
0.00345062
0.00351736
0.00358361
0.0036493
0.00371439
0.0037788
0.00384247
0.00390534
0.00396735
0.00402844
0.00408854
0.0041476
0.00420555
0.00426234
0.00431791
0.0043722
0.00442515
0.00447672
0.00452685
0.0045755
0.0046226
0.00466813
0.00471203
0.00475426
0.00479479
0.00483358
0.00487059
0.00490581
0.0049392
0.00497074
0.00500041
0.0050282
0.00505409
0.00507809
0.00510018
0.00512037
0.00513867
0.00515508
0.00516963
0.00518234
0.00519322
0.00520233
0.00520969
0.00521536
0.00521939
0.00522183
0.00522275
0.00522224
0.00522038
0.00521727
0.005213
0.00520771
0.00520152
0.00519457
0.00518704
0.00517909
0.00517092
0.00516274
0.0051548
0.00514733
0.00514059
0.00513486
0.0051304
0.00512753
0.00512652
1.64618e-05
1.32616e-05
9.61977e-06
5.49718e-06
9.37853e-07
-3.84037e-06
-8.63337e-06
-1.32665e-05
-1.75785e-05
-2.1419e-05
-2.46519e-05
-2.71603e-05
-2.88477e-05
-2.9633e-05
-2.94462e-05
-2.82293e-05
-2.59357e-05
-2.25287e-05
-1.7979e-05
-1.22635e-05
-5.36526e-06
2.72782e-06
1.20233e-05
2.25258e-05
3.42382e-05
4.71608e-05
6.12917e-05
7.66274e-05
9.31639e-05
0.000110896
0.00012982
0.000149929
0.00017122
0.000193684
0.000217316
0.000242109
0.000268059
0.000295162
0.000323411
0.0003528
0.000383324
0.000414977
0.000447756
0.000481655
0.000516669
0.000552794
0.000590023
0.00062835
0.00066777
0.000708276
0.000749862
0.00079252
0.000836244
0.000881024
0.000926853
0.000973719
0.00102161
0.00107052
0.00112043
0.00117133
0.0012232
0.00127604
0.00132982
0.00138453
0.00144014
0.00149664
0.00155401
0.00161222
0.00167124
0.00173107
0.00179166
0.00185299
0.00191502
0.00197774
0.0020411
0.00210508
0.00216962
0.00223471
0.00230029
0.00236633
0.00243279
0.00249962
0.00256678
0.00263423
0.00270191
0.00276977
0.00283777
0.00290586
0.00297397
0.00304206
0.00311007
0.00317794
0.00324563
0.00331306
0.00338018
0.00344694
0.00351326
0.0035791
0.00364438
0.00370905
0.00377304
0.0038363
0.00389875
0.00396035
0.00402103
0.00408072
0.00413937
0.00419692
0.00425332
0.00430849
0.0043624
0.00441497
0.00446617
0.00451594
0.00456423
0.00461099
0.00465618
0.00469976
0.00474169
0.00478193
0.00482044
0.00485719
0.00489217
0.00492533
0.00495667
0.00498616
0.00501379
0.00503955
0.00506343
0.00508545
0.00510559
0.00512386
0.00514029
0.00515489
0.00516768
0.00517868
0.00518795
0.00519551
0.00520142
0.00520573
0.00520849
0.00520979
0.00520969
0.00520829
0.00520567
0.00520194
0.00519722
0.00519163
0.0051853
0.0051784
0.00517108
0.00516353
0.00515592
0.00514846
0.00514136
0.00513484
0.00512913
0.00512444
0.00512093
0.00511871
2.42705e-05
1.9615e-05
1.51165e-05
1.05567e-05
5.79115e-06
9.84099e-07
-3.69425e-06
-8.10203e-06
-1.21091e-05
-1.55939e-05
-1.84447e-05
-2.05615e-05
-2.18573e-05
-2.22586e-05
-2.17033e-05
-2.01392e-05
-1.75234e-05
-1.38202e-05
-9.00039e-06
-3.04164e-06
4.07244e-06
1.23543e-05
2.18129e-05
3.24548e-05
4.42841e-05
5.73017e-05
7.15064e-05
8.68964e-05
0.00010347
0.000121223
0.000140153
0.000160254
0.000181523
0.000203954
0.00022754
0.000252279
0.000278166
0.000305197
0.000333365
0.000362666
0.000393095
0.000424647
0.000457318
0.000491104
0.000525999
0.000561999
0.000599099
0.000637291
0.000676572
0.000716933
0.00075837
0.000800874
0.000844438
0.000889055
0.000934715
0.000981408
0.00102912
0.00107785
0.00112757
0.00117827
0.00122995
0.00128258
0.00133616
0.00139065
0.00144605
0.00150232
0.00155946
0.00161743
0.00167622
0.0017358
0.00179614
0.00185721
0.00191899
0.00198144
0.00204453
0.00210822
0.00217249
0.00223728
0.00230257
0.00236832
0.00243447
0.00250099
0.00256784
0.00263497
0.00270233
0.00276987
0.00283754
0.00290529
0.00297306
0.00304081
0.00310847
0.003176
0.00324334
0.00331042
0.00337719
0.00344358
0.00350955
0.00357502
0.00363995
0.00370425
0.00376789
0.00383078
0.00389288
0.00395412
0.00401444
0.00407378
0.00413208
0.00418928
0.00424532
0.00430016
0.00435372
0.00440597
0.00445684
0.00450629
0.00455427
0.00460073
0.00464562
0.00468892
0.00473057
0.00477054
0.0048088
0.00484532
0.00488007
0.00491303
0.00494418
0.0049735
0.00500099
0.00502662
0.0050504
0.00507234
0.00509242
0.00511067
0.0051271
0.00514172
0.00515457
0.00516567
0.00517506
0.00518279
0.00518889
0.00519343
0.00519646
0.00519806
0.0051983
0.00519727
0.00519505
0.00519176
0.00518749
0.00518238
0.00517654
0.00517012
0.00516327
0.00515615
0.00514891
0.00514174
0.00513482
0.00512831
0.00512241
0.00511729
0.00511295
0.00510928
3.25102e-05
2.63449e-05
2.08896e-05
1.57601e-05
1.06466e-05
5.67128e-06
9.68621e-07
-3.3522e-06
-7.18636e-06
-1.04354e-05
-1.30096e-05
-1.48268e-05
-1.58119e-05
-1.59003e-05
-1.50374e-05
-1.31774e-05
-1.02816e-05
-6.31672e-06
-1.25546e-06
4.92304e-06
1.22344e-05
2.06911e-05
3.03028e-05
4.10767e-05
5.30175e-05
6.61268e-05
8.0404e-05
9.58487e-05
0.00011246
0.000130237
0.000149175
0.000169272
0.000190523
0.000212923
0.00023647
0.000261158
0.000286986
0.000313949
0.000342042
0.00037126
0.000401598
0.000433053
0.000465623
0.000499301
0.000534084
0.000569966
0.000606942
0.000645007
0.000684156
0.000724381
0.000765677
0.000808037
0.000851453
0.000895916
0.000941419
0.000987951
0.0010355
0.00108405
0.0011336
0.00118413
0.00123563
0.00128808
0.00134146
0.00139577
0.00145096
0.00150704
0.00156397
0.00162174
0.00168032
0.00173968
0.0017998
0.00186064
0.00192219
0.00198441
0.00204726
0.00211071
0.00217473
0.00223928
0.00230432
0.0023698
0.0024357
0.00250196
0.00256854
0.0026354
0.00270248
0.00276974
0.00283713
0.0029046
0.00297209
0.00303955
0.00310693
0.00317416
0.0032412
0.00330798
0.00337446
0.00344055
0.00350622
0.0035714
0.00363602
0.00370002
0.00376335
0.00382594
0.00388774
0.00394868
0.00400869
0.00406773
0.00412573
0.00418264
0.00423839
0.00429293
0.00434621
0.00439817
0.00444876
0.00449794
0.00454565
0.00459184
0.00463648
0.00467953
0.00472094
0.00476068
0.00479872
0.00483503
0.00486958
0.00490236
0.00493334
0.00496251
0.00498985
0.00501536
0.00503905
0.0050609
0.00508092
0.00509913
0.00511555
0.00513018
0.00514307
0.00515423
0.00516371
0.00517156
0.00517781
0.00518252
0.00518576
0.0051876
0.0051881
0.00518736
0.00518546
0.00518249
0.00517858
0.00517382
0.00516833
0.00516226
0.00515572
0.00514887
0.00514184
0.00513479
0.00512786
0.00512119
0.00511494
0.00510926
0.00510395
0.00509875
4.07674e-05
3.31115e-05
2.66634e-05
2.08836e-05
1.53191e-05
1.00667e-05
5.23161e-06
8.90985e-07
-2.87554e-06
-5.98974e-06
-8.37939e-06
-9.97794e-06
-1.07241e-05
-1.05635e-05
-9.44955e-06
-7.34221e-06
-4.20691e-06
-1.42136e-08
5.25976e-06
1.16338e-05
1.91228e-05
2.77392e-05
3.74924e-05
4.83895e-05
6.04349e-05
7.36305e-05
8.79772e-05
0.000103475
0.000120126
0.000137926
0.000156874
0.000176968
0.000198203
0.000220577
0.000244087
0.00026873
0.000294502
0.000321402
0.000349423
0.000378562
0.000408814
0.000440179
0.000472651
0.000506228
0.000540904
0.000576675
0.000613535
0.000651479
0.000690504
0.000730601
0.000771766
0.000813991
0.000857269
0.000901591
0.000946948
0.000993331
0.00104073
0.00108913
0.00113852
0.00118889
0.00124023
0.00129251
0.00134573
0.00139986
0.00145488
0.00151078
0.00156753
0.00162512
0.00168351
0.00174268
0.00180261
0.00186326
0.00192461
0.00198663
0.00204928
0.00211253
0.00217634
0.00224067
0.0023055
0.00237077
0.00243645
0.00250249
0.00256885
0.00263548
0.00270234
0.00276938
0.00283654
0.00290377
0.00297103
0.00303825
0.00310539
0.00317239
0.00323919
0.00330573
0.00337196
0.00343782
0.00350324
0.00356817
0.00363255
0.00369631
0.00375939
0.00382174
0.00388329
0.00394398
0.00400375
0.00406254
0.0041203
0.00417696
0.00423247
0.00428677
0.00433981
0.00439153
0.00444189
0.00449083
0.00453831
0.00458428
0.0046287
0.00467153
0.00471273
0.00475227
0.00479012
0.00482625
0.00486062
0.00489323
0.00492406
0.00495308
0.0049803
0.0050057
0.00502928
0.00505105
0.00507101
0.00508917
0.00510555
0.00512018
0.00513308
0.00514428
0.00515382
0.00516174
0.00516809
0.00517294
0.00517633
0.00517833
0.00517903
0.0051785
0.00517682
0.0051741
0.00517043
0.00516591
0.00516067
0.00515481
0.00514845
0.00514174
0.00513478
0.0051277
0.00512063
0.00511368
0.00510697
0.00510062
0.0050943
0.00508754
4.87178e-05
3.96205e-05
3.21799e-05
2.5713e-05
1.96335e-05
1.40246e-05
8.97363e-06
4.52967e-06
7.47481e-07
-2.31336e-06
-4.59552e-06
-6.04619e-06
-6.61704e-06
-6.26479e-06
-4.95073e-06
-2.64036e-06
6.96116e-07
5.08347e-06
1.05418e-05
1.70874e-05
2.47344e-05
3.34945e-05
4.33765e-05
5.43863e-05
6.65279e-05
7.98037e-05
9.42155e-05
0.000109765
0.000126452
0.000144276
0.000163235
0.000183325
0.000204547
0.000226897
0.000250373
0.000274973
0.000300693
0.000327533
0.000355486
0.00038455
0.000414722
0.000446001
0.000478382
0.000511863
0.000546438
0.000582104
0.000618854
0.000656686
0.000695595
0.000735573
0.000776616
0.000818716
0.000861866
0.000906058
0.000951282
0.00099753
0.00104479
0.00109305
0.0011423
0.00119253
0.00124372
0.00129585
0.00134892
0.0014029
0.00145778
0.00151352
0.00157012
0.00162755
0.00168578
0.00174479
0.00180456
0.00186505
0.00192623
0.00198808
0.00205057
0.00211364
0.00217728
0.00224145
0.0023061
0.0023712
0.0024367
0.00250257
0.00256875
0.00263521
0.00270189
0.00276874
0.00283572
0.00290277
0.00296985
0.00303689
0.00310384
0.00317066
0.00323727
0.00330363
0.00336967
0.00343534
0.00350058
0.00356532
0.00362951
0.00369308
0.00375597
0.00381813
0.00387949
0.00393998
0.00399956
0.00405816
0.00411572
0.00417219
0.00422751
0.00428161
0.00433446
0.00438599
0.00443615
0.00448491
0.0045322
0.00457798
0.00462222
0.00466487
0.00470589
0.00474526
0.00478294
0.0048189
0.00485313
0.00488559
0.00491627
0.00494517
0.00497226
0.00499755
0.00502103
0.00504271
0.0050626
0.0050807
0.00509704
0.00511164
0.00512453
0.00513574
0.0051453
0.00515326
0.00515968
0.0051646
0.00516808
0.0051702
0.00517102
0.00517063
0.0051691
0.00516653
0.00516301
0.00515865
0.00515353
0.00514778
0.0051415
0.00513481
0.0051278
0.0051206
0.00511328
0.00510595
0.0050987
0.00509164
0.00508428
0.00507602
5.61096e-05
4.56317e-05
3.72154e-05
3.0049e-05
2.34215e-05
1.74051e-05
1.20763e-05
7.46292e-06
3.59907e-06
5.26822e-07
-1.71104e-06
-3.07437e-06
-3.52639e-06
-3.03351e-06
-1.56456e-06
9.08614e-07
4.41012e-06
8.96006e-06
1.45751e-05
2.12692e-05
2.90548e-05
3.79422e-05
4.79389e-05
5.90498e-05
7.12785e-05
8.46277e-05
9.90996e-05
0.000114696
0.000131418
0.000149263
0.000168231
0.00018832
0.000209529
0.000231856
0.0002553
0.000279859
0.000305531
0.000332313
0.000360203
0.000389197
0.000419293
0.000450491
0.000482787
0.000516177
0.000550657
0.000586224
0.000622873
0.0006606
0.000699401
0.00073927
0.0007802
0.000822185
0.000865218
0.000909291
0.000954395
0.00100052
0.00104766
0.0010958
0.00114492
0.00119502
0.00124608
0.00129809
0.00135103
0.00140488
0.00145963
0.00151524
0.00157171
0.00162901
0.00168711
0.00174599
0.00180562
0.00186598
0.00192703
0.00198875
0.0020511
0.00211404
0.00217755
0.00224158
0.0023061
0.00237106
0.00243643
0.00250217
0.00256822
0.00263454
0.00270109
0.00276781
0.00283466
0.00290158
0.00296852
0.00303543
0.00310226
0.00316894
0.00323542
0.00330165
0.00336756
0.0034331
0.0034982
0.00356281
0.00362686
0.0036903
0.00375306
0.00381508
0.0038763
0.00393666
0.00399609
0.00405455
0.00411197
0.00416829
0.00422346
0.00427742
0.00433012
0.0043815
0.00443152
0.00448012
0.00452726
0.00457289
0.00461698
0.00465948
0.00470036
0.00473958
0.00477712
0.00481294
0.00484703
0.00487936
0.00490992
0.00493869
0.00496567
0.00499085
0.00501424
0.00503583
0.00505563
0.00507367
0.00508995
0.0051045
0.00511735
0.00512854
0.00513809
0.00514606
0.00515249
0.00515744
0.00516097
0.00516314
0.00516403
0.0051637
0.00516225
0.00515976
0.00515631
0.00515201
0.00514694
0.00514121
0.0051349
0.00512814
0.00512099
0.00511356
0.00510593
0.00509815
0.00509032
0.00508253
0.00507416
0.00506448
6.27341e-05
5.09461e-05
4.15817e-05
3.37165e-05
2.65272e-05
2.00743e-05
1.44252e-05
9.59295e-06
5.59581e-06
2.46029e-06
2.15113e-07
-1.11171e-06
-1.49327e-06
-9.04107e-07
6.79529e-07
3.27883e-06
6.91191e-06
1.15945e-05
1.73401e-05
2.41604e-05
3.20656e-05
4.10637e-05
5.11606e-05
6.23602e-05
7.46662e-05
8.80812e-05
0.000102607
0.000118246
0.000134999
0.000152863
0.000171839
0.000191925
0.000213121
0.000235427
0.000258841
0.000283362
0.000308987
0.000335716
0.000363545
0.000392473
0.000422498
0.00045362
0.000485835
0.000519141
0.000553533
0.000589008
0.000625562
0.000663192
0.000701894
0.000741662
0.000782489
0.00082437
0.000867297
0.000911264
0.00095626
0.00100228
0.00104931
0.00109734
0.00114635
0.00119634
0.0012473
0.0012992
0.00135203
0.00140577
0.00146041
0.00151592
0.00157228
0.00162947
0.00168746
0.00174624
0.00180577
0.00186603
0.00192698
0.0019886
0.00205085
0.00211369
0.0021771
0.00224104
0.00230546
0.00237034
0.00243562
0.00250126
0.00256722
0.00263346
0.00269992
0.00276656
0.00283332
0.00290016
0.00296703
0.00303386
0.0031006
0.00316721
0.00323361
0.00329976
0.0033656
0.00343106
0.00349608
0.00356061
0.00362458
0.00368794
0.00375062
0.00381255
0.00387369
0.00393396
0.00399331
0.00405168
0.004109
0.00416523
0.0042203
0.00427416
0.00432676
0.00437803
0.00442794
0.00447643
0.00452346
0.00456898
0.00461295
0.00465533
0.00469609
0.0047352
0.00477261
0.00480832
0.00484229
0.0048745
0.00490494
0.00493361
0.00496048
0.00498555
0.00500884
0.00503033
0.00505005
0.005068
0.00508421
0.00509869
0.00511149
0.00512262
0.00513213
0.00514007
0.00514647
0.00515141
0.00515493
0.00515711
0.005158
0.00515769
0.00515624
0.00515376
0.00515031
0.00514599
0.00514089
0.00513509
0.00512869
0.00512177
0.00511441
0.0051067
0.00509869
0.00509042
0.00508199
0.00507347
0.00506413
0.00505313
6.84091e-05
5.53915e-05
4.5118e-05
3.65653e-05
2.88105e-05
2.19059e-05
1.5911e-05
1.08259e-05
6.65632e-06
3.41604e-06
1.12123e-06
-2.10887e-07
-5.62129e-07
8.53207e-08
1.74783e-06
4.43991e-06
8.17412e-06
1.2962e-05
1.8814e-05
2.57393e-05
3.37453e-05
4.28375e-05
5.30202e-05
6.42964e-05
7.66696e-05
9.01423e-05
0.000104716
0.000120392
0.00013717
0.000155051
0.000174032
0.000194114
0.000215299
0.000237584
0.000260969
0.000285452
0.000311033
0.00033771
0.000365483
0.000394349
0.000424308
0.000455358
0.000487498
0.000520725
0.000555036
0.000590426
0.000626893
0.000664435
0.000703046
0.000742723
0.000783458
0.000825245
0.000868078
0.00091195
0.000956852
0.00100278
0.00104971
0.00109765
0.00114657
0.00119647
0.00124734
0.00129915
0.00135189
0.00140555
0.0014601
0.00151552
0.0015718
0.00162891
0.00168683
0.00174553
0.00180499
0.00186517
0.00192606
0.00198761
0.00204979
0.00211258
0.00217593
0.00223981
0.00230418
0.002369
0.00243423
0.00249983
0.00256575
0.00263194
0.00269836
0.00276497
0.0028317
0.0028985
0.00296534
0.00303214
0.00309886
0.00316544
0.00323182
0.00329794
0.00336375
0.00342919
0.00349419
0.00355869
0.00362264
0.00368597
0.00374862
0.00381052
0.00387163
0.00393187
0.00399118
0.0040495
0.00410679
0.00416297
0.00421798
0.00427179
0.00432432
0.00437554
0.00442538
0.00447379
0.00452074
0.00456618
0.00461007
0.00465237
0.00469304
0.00473205
0.00476937
0.00480497
0.00483884
0.00487095
0.00490129
0.00492985
0.00495662
0.00498159
0.00500477
0.00502617
0.00504579
0.00506364
0.00507976
0.00509416
0.00510687
0.00511792
0.00512736
0.00513523
0.00514157
0.00514645
0.00514992
0.00515205
0.00515289
0.00515253
0.00515104
0.0051485
0.00514499
0.00514059
0.00513538
0.00512945
0.00512289
0.00511576
0.00510813
0.00510008
0.00509166
0.00508288
0.00507385
0.00506462
0.00505437
0.00504216
7.2979e-05
5.88163e-05
4.76823e-05
3.84624e-05
3.01469e-05
2.27851e-05
1.64304e-05
1.10708e-05
6.70062e-06
3.32324e-06
9.44856e-07
-4.26243e-07
-7.80144e-07
-1.0683e-07
1.60306e-06
4.35812e-06
8.16616e-06
1.30348e-05
1.89712e-05
2.59813e-05
3.40697e-05
4.32397e-05
5.3494e-05
6.48351e-05
7.72655e-05
9.07872e-05
0.000105401
0.000121108
0.000137908
0.0001558
0.000174785
0.000194862
0.000216033
0.000238297
0.000261654
0.000286101
0.00031164
0.000338269
0.000365989
0.000394797
0.000424693
0.000455678
0.000487748
0.000520903
0.000555137
0.00059045
0.000626839
0.0006643
0.00070283
0.000742425
0.000783077
0.000824783
0.000867533
0.000911323
0.000956145
0.00100199
0.00104885
0.0010967
0.00114555
0.00119538
0.00124617
0.00129791
0.00135059
0.00140418
0.00145867
0.00151404
0.00157026
0.00162732
0.00168518
0.00174384
0.00180325
0.00186339
0.00192424
0.00198576
0.00204791
0.00211067
0.002174
0.00223786
0.00230222
0.00236703
0.00243225
0.00249785
0.00256377
0.00262996
0.0026964
0.00276301
0.00282975
0.00289658
0.00296343
0.00303025
0.003097
0.0031636
0.00323001
0.00329616
0.003362
0.00342747
0.0034925
0.00355703
0.00362101
0.00368436
0.00374704
0.00380897
0.00387009
0.00393034
0.00398967
0.004048
0.00410529
0.00416147
0.00421648
0.00427027
0.00432279
0.00437398
0.00442379
0.00447217
0.00451908
0.00456448
0.00460831
0.00465055
0.00469115
0.00473009
0.00476734
0.00480286
0.00483665
0.00486867
0.00489892
0.00492738
0.00495404
0.00497891
0.00500199
0.00502328
0.00504279
0.00506054
0.00507655
0.00509084
0.00510344
0.00511439
0.00512372
0.00513149
0.00513774
0.00514252
0.00514589
0.00514792
0.00514867
0.00514821
0.00514662
0.00514396
0.00514033
0.00513579
0.00513042
0.00512431
0.00511753
0.00511014
0.00510221
0.00509379
0.00508492
0.00507564
0.005066
0.0050561
0.00504501
0.0050317
7.63152e-05
6.10897e-05
4.91469e-05
3.92881e-05
3.04258e-05
2.26092e-05
1.58885e-05
1.02409e-05
5.65071e-06
2.11252e-06
-3.75332e-07
-1.81229e-06
-2.19633e-06
-1.52481e-06
2.05262e-07
2.99739e-06
6.85523e-06
1.17826e-05
1.77832e-05
2.48591e-05
3.30124e-05
4.22447e-05
5.25573e-05
6.39516e-05
7.64293e-05
8.99915e-05
0.000104638
0.000120369
0.000137185
0.000155086
0.000174071
0.000194141
0.000215298
0.000237541
0.00026087
0.000285283
0.000310781
0.000337365
0.000365034
0.000393788
0.000423627
0.00045455
0.000486557
0.000519644
0.000553811
0.000589053
0.000625371
0.00066276
0.000701219
0.000740741
0.000781322
0.000822956
0.000865637
0.000909358
0.000954112
0.000999891
0.00104668
0.00109448
0.00114327
0.00119305
0.00124378
0.00129548
0.00134811
0.00140165
0.0014561
0.00151143
0.00156762
0.00162465
0.0016825
0.00174113
0.00180053
0.00186066
0.00192151
0.00198302
0.00204518
0.00210795
0.0021713
0.00223518
0.00229956
0.0023644
0.00242966
0.00249529
0.00256126
0.00262751
0.00269399
0.00276066
0.00282747
0.00289436
0.00296128
0.00302818
0.003095
0.00316168
0.00322817
0.00329441
0.00336033
0.00342588
0.00349099
0.00355561
0.00361966
0.0036831
0.00374585
0.00380785
0.00386904
0.00392936
0.00398875
0.00404714
0.00410448
0.0041607
0.00421576
0.00426958
0.00432212
0.00437333
0.00442315
0.00447154
0.00451844
0.00456382
0.00460763
0.00464984
0.0046904
0.0047293
0.00476649
0.00480195
0.00483566
0.00486761
0.00489777
0.00492614
0.0049527
0.00497747
0.00500044
0.00502161
0.005041
0.00505863
0.00507451
0.00508867
0.00510115
0.00511196
0.00512117
0.0051288
0.00513491
0.00513956
0.00514279
0.00514468
0.00514529
0.00514468
0.00514294
0.00514013
0.00513632
0.00513159
0.00512602
0.00511968
0.00511263
0.00510495
0.00509667
0.00508786
0.00507855
0.00506875
0.00505855
0.005048
0.00503613
0.00502184
7.8313e-05
6.21007e-05
4.94e-05
3.89354e-05
2.9547e-05
2.12848e-05
1.41976e-05
8.25463e-06
3.43201e-06
-2.83045e-07
-2.89933e-06
-4.42351e-06
-4.86057e-06
-4.21417e-06
-2.48686e-06
3.20318e-07
4.20709e-06
9.17344e-06
1.52192e-05
2.23434e-05
3.05456e-05
3.98257e-05
5.01838e-05
6.16203e-05
7.41355e-05
8.77292e-05
0.000102401
0.00011815
0.000134977
0.000152881
0.000171864
0.000191926
0.000213067
0.000235288
0.000258589
0.000282968
0.000308428
0.000334969
0.000362592
0.000391296
0.000421081
0.000451948
0.000483896
0.000516923
0.000551027
0.000586207
0.000622462
0.000659789
0.000698184
0.000737645
0.000778165
0.000819739
0.000862362
0.000906027
0.000950728
0.000996456
0.0010432
0.00109096
0.00113971
0.00118944
0.00124014
0.00129181
0.00134441
0.00139794
0.00145237
0.00150769
0.00156387
0.0016209
0.00167875
0.00173739
0.00179681
0.00185696
0.00191783
0.00197938
0.00204158
0.0021044
0.0021678
0.00223174
0.00229618
0.0023611
0.00242643
0.00249215
0.0025582
0.00262455
0.00269113
0.00275791
0.00282483
0.00289184
0.00295888
0.0030259
0.00309285
0.00315966
0.00322629
0.00329266
0.00335871
0.0034244
0.00348965
0.0035544
0.00361859
0.00368215
0.00374503
0.00380716
0.00386847
0.00392891
0.00398841
0.0040469
0.00410434
0.00416065
0.00421579
0.00426969
0.0043223
0.00437356
0.00442343
0.00447185
0.00451878
0.00456418
0.004608
0.0046502
0.00469075
0.00472962
0.00476677
0.00480219
0.00483584
0.00486772
0.0048978
0.00492608
0.00495256
0.00497722
0.00500007
0.00502112
0.00504038
0.00505787
0.00507361
0.00508762
0.00509994
0.0051106
0.00511964
0.00512711
0.00513305
0.00513752
0.00514058
0.00514229
0.00514272
0.00514193
0.00513999
0.00513697
0.00513295
0.005128
0.00512218
0.00511557
0.00510823
0.00510021
0.00509158
0.00508237
0.0050726
0.0050623
0.00505155
0.0050404
0.00502783
0.00501266
7.88839e-05
6.17566e-05
4.8347e-05
3.73103e-05
2.74196e-05
1.87255e-05
1.12767e-05
5.03651e-06
-2.50988e-08
-3.92741e-06
-6.68602e-06
-8.31416e-06
-8.82279e-06
-8.22076e-06
-6.5152e-06
-3.71145e-06
1.86132e-07
5.17356e-06
1.12472e-05
1.84036e-05
2.664e-05
3.59548e-05
4.63467e-05
5.78146e-05
7.03575e-05
8.3974e-05
9.86629e-05
0.000114424
0.000131256
0.000149161
0.000168139
0.000188189
0.000209314
0.000231512
0.000254784
0.000279131
0.000304555
0.000331055
0.000358634
0.000387292
0.000417028
0.000447844
0.000479739
0.000512712
0.000546761
0.000581886
0.000618086
0.000655359
0.000693702
0.000733111
0.000773581
0.000815107
0.000857684
0.000901307
0.000945969
0.000991661
0.00103837
0.0010861
0.00113483
0.00118454
0.00123523
0.00128688
0.00133948
0.00139301
0.00144745
0.00150278
0.00155898
0.00161604
0.00167392
0.0017326
0.00179206
0.00185227
0.0019132
0.00197482
0.00203709
0.00209999
0.00216348
0.00222752
0.00229207
0.00235709
0.00242255
0.0024884
0.00255458
0.00262107
0.0026878
0.00275473
0.00282181
0.00288899
0.0029562
0.0030234
0.00309052
0.00315752
0.00322433
0.00329088
0.00335713
0.003423
0.00348844
0.00355338
0.00361775
0.0036815
0.00374456
0.00380687
0.00386835
0.00392896
0.00398861
0.00404726
0.00410484
0.00416129
0.00421655
0.00427057
0.00432328
0.00437464
0.0044246
0.00447309
0.00452008
0.00456553
0.00460938
0.0046516
0.00469216
0.00473103
0.00476816
0.00480355
0.00483715
0.00486897
0.00489898
0.00492718
0.00495355
0.00497811
0.00500084
0.00502176
0.00504088
0.00505821
0.00507379
0.00508763
0.00509977
0.00511025
0.0051191
0.00512637
0.00513211
0.00513638
0.00513923
0.00514072
0.00514093
0.00513991
0.00513774
0.00513448
0.00513021
0.00512499
0.00511889
0.00511198
0.00510432
0.00509596
0.00508695
0.00507732
0.00506712
0.00505633
0.00504505
0.00503335
0.00502014
0.0050042
7.79501e-05
5.99773e-05
4.59065e-05
3.43304e-05
2.39619e-05
1.48526e-05
7.05141e-06
5.17259e-07
-4.78539e-06
-8.88147e-06
-1.17925e-05
-1.35373e-05
-1.41319e-05
-1.35895e-05
-1.19213e-05
-9.13665e-06
-5.24424e-06
-2.51678e-07
5.83452e-06
1.30086e-05
2.1266e-05
3.06036e-05
4.10182e-05
5.25073e-05
6.50684e-05
7.86993e-05
9.33982e-05
0.000109164
0.000125998
0.000143899