/*--------------------------------*- C++ -*----------------------------------*\
  =========                 |
  \\      /  F ield         | OpenFOAM: The Open Source CFD Toolbox
   \\    /   O peration     | Website:  https://openfoam.org
    \\  /    A nd           | Version:  7
     \\/     M anipulation  |
\*---------------------------------------------------------------------------*/
FoamFile
{
    version     2.0;
    format      ascii;
    class       volScalarField;
    location    "0.0875";
    object      p;
}
// * * * * * * * * * * * * * * * * * * * * * * * * * * * * * * * * * * * * * //

dimensions      [0 2 -2 0 0 0 0];

internalField   nonuniform List<scalar> 
25600
(
2.19294e-07
0.000110252
0.000144508
3.55349e-05
-0.000229734
-0.000646825
-0.00120272
-0.00188002
-0.00266053
-0.0035264
-0.00446147
-0.00545013
-0.00647856
-0.00753412
-0.00860592
-0.00968393
-0.0107595
-0.0118243
-0.0128712
-0.0138935
-0.0148856
-0.0158425
-0.0167601
-0.0176336
-0.018459
-0.0192328
-0.0199521
-0.0206137
-0.0212152
-0.021754
-0.0222278
-0.0226352
-0.0229745
-0.0232437
-0.0234418
-0.0235685
-0.0236232
-0.0236054
-0.0235152
-0.0233522
-0.0231157
-0.0228052
-0.0224208
-0.0219628
-0.0214318
-0.0208286
-0.0201541
-0.019409
-0.0185939
-0.01771
-0.0167583
-0.0157403
-0.014657
-0.0135099
-0.0123004
-0.0110301
-0.00970036
-0.00831305
-0.00687017
-0.00537383
-0.00382604
-0.00222882
-0.00058442
0.00110478
0.00283652
0.0046086
0.00641877
0.00826461
0.0101437
0.0120538
0.0139925
0.0159574
0.0179459
0.0199555
0.0219839
0.0240289
0.0260877
0.0281576
0.0302357
0.0323195
0.0344064
0.0364938
0.0385786
0.0406582
0.0427297
0.0447906
0.046838
0.0488692
0.050881
0.0528707
0.0548356
0.0567731
0.0586806
0.0605552
0.0623944
0.0641957
0.0659565
0.0676742
0.0693462
0.0709699
0.072543
0.0740634
0.0755291
0.0769377
0.0782872
0.0795756
0.0808009
0.0819617
0.083056
0.0840821
0.0850384
0.0859237
0.0867368
0.0874769
0.0881428
0.0887338
0.0892491
0.089688
0.0900503
0.0903359
0.0905447
0.0906769
0.0907325
0.090712
0.090616
0.0904456
0.0902018
0.0898857
0.0894987
0.0890429
0.0885204
0.0879337
0.0872855
0.0865787
0.0858162
0.0850016
0.0841389
0.0832323
0.0822869
0.0813078
0.0803003
0.0792704
0.0782244
0.0771693
0.0761131
0.0750641
0.0740315
0.0730245
0.0720535
0.0711294
0.0702647
0.0694724
0.0687666
0.0681615
0.0676711
0.0673078
0.0670808
0.0669919
0.0670312
0.0671449
-9.66329e-05
-9.84163e-06
-2.02056e-05
-0.000157107
-0.00041987
-0.000806796
-0.00131088
-0.00192033
-0.00262113
-0.00339999
-0.00424331
-0.00513826
-0.00607223
-0.00703428
-0.00801386
-0.00900217
-0.00999071
-0.0109719
-0.0119391
-0.0128854
-0.0138053
-0.0146941
-0.015547
-0.0163594
-0.0171279
-0.0178482
-0.0185176
-0.0191334
-0.0196928
-0.0201929
-0.0206319
-0.0210079
-0.0213192
-0.0215644
-0.0217424
-0.0218523
-0.0218935
-0.0218654
-0.0217676
-0.0216001
-0.0213623
-0.0210541
-0.0206752
-0.0202257
-0.019706
-0.0191168
-0.018459
-0.0177333
-0.0169406
-0.0160818
-0.015158
-0.0141701
-0.0131193
-0.0120071
-0.0108348
-0.0096039
-0.00831576
-0.00697208
-0.00557485
-0.00412599
-0.00262738
-0.00108106
0.000510765
0.00214592
0.00382229
0.00553779
0.0072902
0.0090771
0.0108962
0.0127452
0.0146221
0.0165242
0.0184492
0.0203946
0.0223582
0.0243378
0.0263307
0.0283343
0.0303458
0.0323627
0.0343825
0.0364025
0.0384199
0.0404322
0.0424368
0.044431
0.0464122
0.0483774
0.0503238
0.0522487
0.0541497
0.0560242
0.0578695
0.0596829
0.0614622
0.0632048
0.0649084
0.0665702
0.0681876
0.0697585
0.0712805
0.0727518
0.0741703
0.0755338
0.0768402
0.0780877
0.0792746
0.0803993
0.0814602
0.0824554
0.0833834
0.0842431
0.0850336
0.085754
0.0864033
0.0869806
0.0874853
0.0879169
0.0882751
0.08856
0.0887715
0.0889098
0.0889749
0.0889675
0.0888883
0.0887383
0.0885187
0.0882304
0.0878751
0.0874546
0.0869713
0.0864277
0.0858264
0.0851702
0.0844619
0.083705
0.0829034
0.0820615
0.0811842
0.0802763
0.0793431
0.0783902
0.0774236
0.0764502
0.0754777
0.0745139
0.0735673
0.0726466
0.071761
0.0709205
0.0701361
0.0694194
0.0687821
0.0682356
0.0677905
0.0674556
0.0672357
0.0671313
0.0671449
0.0672587
-0.000113089
-2.18554e-05
-4.81963e-05
-0.000198146
-0.000458162
-0.000825292
-0.00129489
-0.00185767
-0.00250257
-0.00321851
-0.00399423
-0.00481888
-0.00568144
-0.00657154
-0.00747998
-0.00839785
-0.00931752
-0.0102322
-0.0111352
-0.0120205
-0.0128823
-0.0137154
-0.0145155
-0.0152785
-0.016
-0.0166767
-0.0173053
-0.0178833
-0.018408
-0.0188764
-0.0192865
-0.0196364
-0.0199246
-0.0201496
-0.0203105
-0.0204064
-0.0204364
-0.0203999
-0.0202962
-0.020125
-0.0198861
-0.0195795
-0.0192051
-0.0187628
-0.0182526
-0.0176754
-0.0170317
-0.0163224
-0.0155483
-0.0147106
-0.0138101
-0.0128476
-0.0118242
-0.0107414
-0.00960043
-0.00840259
-0.00714935
-0.00584241
-0.00448358
-0.00307463
-0.00161739
-0.000113891
0.00143365
0.00302323
0.00465296
0.00632074
0.00802434
0.00976148
0.0115299
0.0133275
0.015152
0.0170011
0.0188724
0.0207635
0.0226724
0.0245967
0.0265339
0.0284814
0.0304367
0.0323972
0.0343604
0.0363237
0.0382842
0.0402398
0.042188
0.0441262
0.0460515
0.0479611
0.0498524
0.0517229
0.0535702
0.0553917
0.0571847
0.0589468
0.0606757
0.0623692
0.0640247
0.0656396
0.0672114
0.068738
0.0702173
0.0716475
0.0730265
0.0743523
0.0756227
0.076836
0.0779909
0.0790857
0.0801186
0.0810879
0.0819923
0.0828306
0.0836022
0.0843061
0.0849415
0.0855074
0.0860032
0.0864286
0.0867835
0.0870677
0.0872815
0.0874247
0.0874977
0.0875011
0.0874358
0.0873027
0.0871029
0.0868376
0.0865082
0.0861168
0.0856657
0.0851574
0.0845944
0.0839793
0.083315
0.0826049
0.0818529
0.0810634
0.080241
0.0793905
0.0785167
0.077625
0.0767214
0.0758125
0.0749056
0.0740082
0.0731282
0.0722734
0.0714523
0.0706742
0.0699489
0.0692868
0.068698
0.0681922
0.0677781
0.067463
0.0672509
0.067144
0.0671579
0.0672978
-1.03455e-05
7.98397e-05
4.3819e-05
-0.000114328
-0.000373331
-0.000728091
-0.00117479
-0.00170553
-0.00231064
-0.00298045
-0.00370568
-0.00447626
-0.00528314
-0.00611683
-0.00696867
-0.00783016
-0.00869424
-0.00955419
-0.0104041
-0.0112385
-0.0120515
-0.012838
-0.0135936
-0.0143142
-0.0149959
-0.0156354
-0.0162292
-0.0167748
-0.0172698
-0.0177109
-0.0180961
-0.0184236
-0.0186919
-0.0188995
-0.0190455
-0.019129
-0.0191492
-0.0191054
-0.0189969
-0.018823
-0.0185835
-0.0182783
-0.0179075
-0.0174711
-0.0169694
-0.0164027
-0.0157717
-0.0150769
-0.0143195
-0.0135003
-0.0126202
-0.01168
-0.0106809
-0.00962408
-0.00851074
-0.00734207
-0.00611964
-0.00484518
-0.00352027
-0.00214654
-0.000725874
0.000739692
0.00224813
0.00379752
0.005386
0.00701154
0.00867189
0.0103649
0.0120885
0.0138406
0.0156188
0.0174208
0.0192445
0.0210877
0.0229483
0.0248237
0.0267116
0.0286095
0.030515
0.0324257
0.0343389
0.0362519
0.0381623
0.0400679
0.0419664
0.043855
0.0457309
0.0475915
0.0494343
0.0512569
0.0530568
0.0548316
0.0565786
0.0582955
0.0599802
0.0616305
0.0632437
0.0648174
0.0663491
0.0678369
0.069279
0.0706732
0.0720176
0.0733101
0.0745491
0.0757327
0.0768596
0.0779282
0.0789366
0.0798832
0.0807669
0.0815866
0.0823418
0.0830313
0.0836544
0.0842103
0.0846983
0.0851184
0.0854702
0.0857539
0.0859693
0.0861167
0.0861964
0.0862091
0.0861558
0.0860372
0.0858544
0.0856086
0.0853013
0.0849347
0.084511
0.0840327
0.0835022
0.0829219
0.0822947
0.0816239
0.0809136
0.0801679
0.0793913
0.0785883
0.0777636
0.0769223
0.0760701
0.0752136
0.0743596
0.0735151
0.0726875
0.0718841
0.0711127
0.0703817
0.0697002
0.0690776
0.068523
0.0680448
0.067651
0.0673484
0.0671416
0.0670351
0.0670521
0.0672084
0.000216286
0.000289431
0.000237938
6.95996e-05
-0.000191407
-0.000538988
-0.000969553
-0.0014763
-0.00205069
-0.00268394
-0.00336783
-0.00409376
-0.00485327
-0.00563833
-0.00644087
-0.0072535
-0.00806865
-0.00888019
-0.00968286
-0.0104709
-0.0112395
-0.0119832
-0.012698
-0.0133796
-0.0140247
-0.0146292
-0.0151906
-0.015706
-0.0161728
-0.0165882
-0.01695
-0.0172564
-0.0175061
-0.0176976
-0.0178297
-0.0179015
-0.0179122
-0.0178613
-0.017748
-0.0175715
-0.0173317
-0.0170282
-0.016661
-0.0162303
-0.0157365
-0.0151799
-0.014561
-0.0138803
-0.013139
-0.0123376
-0.0114771
-0.0105583
-0.00958253
-0.0085507
-0.00746384
-0.00632325
-0.00513051
-0.0038872
-0.00259481
-0.00125495
0.00013049
0.00155952
0.00303031
0.00454113
0.00609
0.00767481
0.00929352
0.0109441
0.0126246
0.0143328
0.0160664
0.0178231
0.019601
0.021398
0.0232119
0.0250403
0.0268808
0.028731
0.0305887
0.0324513
0.0343163
0.0361811
0.0380434
0.039901
0.0417516
0.0435924
0.0454209
0.0472345
0.0490308
0.0508074
0.0525619
0.0542917
0.0559946
0.0576683
0.0593107
0.0609195
0.0624923
0.0640264
0.0655197
0.0669706
0.068377
0.0697368
0.0710481
0.072309
0.0735179
0.0746732
0.0757735
0.076817
0.077802
0.078727
0.0795909
0.0803929
0.0811324
0.0818082
0.0824196
0.0829657
0.0834464
0.0838613
0.0842103
0.0844932
0.0847101
0.0848613
0.0849473
0.0849687
0.0849265
0.0848214
0.0846544
0.0844267
0.08414
0.0837964
0.0833982
0.0829477
0.0824471
0.0818988
0.0813057
0.0806711
0.0799989
0.0792933
0.0785584
0.0777985
0.0770181
0.0762219
0.0754158
0.0746057
0.0737984
0.0730002
0.072218
0.0714585
0.0707289
0.0700371
0.0693914
0.0688002
0.0682717
0.0678136
0.0674332
0.0671372
0.0669307
0.0668195
0.0668297
0.0669802
0.00056464
0.000606577
0.000532347
0.000349875
8.21976e-05
-0.000263762
-0.000684743
-0.00117475
-0.00172676
-0.00233225
-0.00298381
-0.00367368
-0.00439411
-0.00513835
-0.00589901
-0.0066691
-0.0074421
-0.00821172
-0.00897249
-0.00971984
-0.0104485
-0.0111537
-0.0118315
-0.0124777
-0.0130893
-0.0136623
-0.0141937
-0.0146811
-0.0151218
-0.0155133
-0.0158532
-0.01614
-0.0163723
-0.0165487
-0.0166681
-0.0167292
-0.0167313
-0.0166737
-0.0165555
-0.0163765
-0.0161364
-0.0158346
-0.0154711
-0.0150461
-0.0145599
-0.0140128
-0.0134054
-0.0127383
-0.0120123
-0.011228
-0.0103863
-0.00948805
-0.00853444
-0.00752635
-0.00646475
-0.00535101
-0.00418668
-0.0029731
-0.0017117
-0.000404201
0.000947513
0.00234165
0.0037765
0.0052504
0.00676137
0.00830728
0.00988618
0.0114962
0.0131354
0.0148016
0.0164925
0.0182059
0.0199401
0.0216929
0.0234622
0.0252455
0.0270407
0.0288454
0.0306573
0.032474
0.0342929
0.0361115
0.0379278
0.0397397
0.0415446
0.0433398
0.0451229
0.0468916
0.0486436
0.0503764
0.0520875
0.0537746
0.0554354
0.0570679
0.05867
0.0602394
0.0617735
0.06327
0.0647269
0.0661426
0.0675151
0.0688422
0.070122
0.0713528
0.0725332
0.0736617
0.0747367
0.0757564
0.0767191
0.0776236
0.0784688
0.0792541
0.0799786
0.0806414
0.0812416
0.0817786
0.0822522
0.0826622
0.0830083
0.0832904
0.0835087
0.0836633
0.083755
0.0837845
0.0837525
0.0836598
0.0835073
0.0832963
0.0830284
0.082706
0.0823311
0.0819061
0.0814328
0.0809137
0.0803516
0.0797498
0.0791122
0.0784427
0.0777454
0.077024
0.0762829
0.0755268
0.0747612
0.0739919
0.073225
0.0724666
0.0717229
0.0710001
0.070305
0.0696448
0.0690272
0.0684598
0.06795
0.0675046
0.0671306
0.0668344
0.0666218
0.066499
0.0664908
0.066615
0.00102756
0.0010266
0.000922388
0.000720569
0.000440637
9.00589e-05
-0.000327865
-0.000808474
-0.00134503
-0.00193066
-0.00255815
-0.00322024
-0.00390998
-0.00462078
-0.00534656
-0.00608105
-0.00681796
-0.00755146
-0.00827642
-0.00898813
-0.00968168
-0.010353
-0.0109977
-0.0116124
-0.0121937
-0.0127385
-0.0132431
-0.0137049
-0.0141219
-0.0144916
-0.0148116
-0.0150805
-0.0152968
-0.0154593
-0.0155667
-0.0156181
-0.0156124
-0.0155487
-0.0154263
-0.015245
-0.0150044
-0.0147042
-0.0143444
-0.0139249
-0.0134461
-0.0129082
-0.0123118
-0.0116575
-0.010946
-0.0101779
-0.00935403
-0.0084754
-0.00754278
-0.0065571
-0.00551947
-0.00443122
-0.00329373
-0.0021083
-0.00087632
0.000400462
0.0017202
0.00308129
0.00448214
0.005921
0.00739591
0.0089049
0.0104462
0.0120178
0.0136178
0.015244
0.0168943
0.0185668
0.0202595
0.0219705
0.0236974
0.0254379
0.0271901
0.0289518
0.0307204
0.0324934
0.0342686
0.0360436
0.0378165
0.0395849
0.0413464
0.0430985
0.0448388
0.0465651
0.0482752
0.0499665
0.0516365
0.0532831
0.0549042
0.0564979
0.0580619
0.0595939
0.0610915
0.0625525
0.0639752
0.0653577
0.0666981
0.0679942
0.0692443
0.0704469
0.0716006
0.0727037
0.0737548
0.074752
0.0756938
0.076579
0.0774067
0.0781763
0.0788867
0.0795371
0.0801268
0.0806552
0.0811222
0.0815275
0.0818709
0.0821521
0.0823714
0.0825292
0.0826261
0.0826629
0.0826402
0.0825586
0.0824192
0.0822232
0.0819726
0.0816693
0.0813155
0.0809134
0.0804647
0.0799718
0.0794375
0.078865
0.0782582
0.0776208
0.0769564
0.0762688
0.0755621
0.0748408
0.0741102
0.0733757
0.0726431
0.0719179
0.0712058
0.0705127
0.0698449
0.0692091
0.0686122
0.0680612
0.0675626
0.0671229
0.0667482
0.0664452
0.0662195
0.0660774
0.0660399
0.0661212
0.00159533
0.00154194
0.00140092
0.00117435
0.000876468
0.000514913
9.31477e-05
-0.000384346
-0.000912481
-0.00148494
-0.00209499
-0.0027365
-0.00340271
-0.00408733
-0.00478513
-0.00549014
-0.00619666
-0.00689951
-0.00759361
-0.00827453
-0.00893792
-0.00957947
-0.0101951
-0.0107818
-0.0113362
-0.0118552
-0.0123358
-0.012775
-0.0131705
-0.0135203
-0.0138224
-0.0140752
-0.0142772
-0.014427
-0.0145235
-0.0145657
-0.0145527
-0.0144835
-0.0143576
-0.0141744
-0.0139336
-0.013635
-0.0132787
-0.0128646
-0.0123928
-0.0118637
-0.0112779
-0.0106359
-0.0099381
-0.00918535
-0.0083785
-0.00751833
-0.00660558
-0.00564116
-0.00462626
-0.00356214
-0.00245002
-0.00129117
-8.71247e-05
0.00116046
0.00244994
0.0037798
0.00514842
0.00655403
0.00799475
0.00946875
0.0109743
0.0125096
0.0140725
0.0156608
0.0172727
0.0189064
0.0205599
0.0222311
0.0239178
0.025618
0.0273295
0.0290503
0.0307779
0.0325097
0.0342435
0.0359774
0.037709
0.0394364
0.0411569
0.0428682
0.0445681
0.0462544
0.0479248
0.0495768
0.0512081
0.0528165
0.0544002
0.0559572
0.0574852
0.0589819
0.060445
0.0618726
0.063263
0.0646142
0.0659243
0.0671912
0.0684133
0.0695892
0.0707177
0.071797
0.0728255
0.0738015
0.0747236
0.0755907
0.0764021
0.0771568
0.077854
0.0784928
0.0790726
0.0795929
0.0800537
0.0804546
0.0807952
0.0810754
0.0812955
0.0814561
0.0815579
0.0816012
0.0815868
0.0815152
0.0813876
0.0812052
0.0809699
0.0806839
0.0803491
0.0799675
0.0795407
0.0790711
0.0785615
0.0780151
0.0774354
0.0768261
0.0761905
0.0755322
0.0748551
0.0741636
0.0734628
0.0727577
0.0720535
0.0713553
0.0706686
0.0699987
0.0693517
0.0687337
0.0681508
0.0676093
0.0671152
0.0666743
0.0662926
0.0659761
0.0657304
0.0655617
0.0654855
0.0655112
0.00225713
0.00214415
0.00196026
0.0017036
0.00138244
0.00100373
0.000572117
9.10439e-05
-0.00043489
-0.00100009
-0.00159927
-0.00222621
-0.00287494
-0.00353982
-0.0042155
-0.00489681
-0.0055786
-0.00625579
-0.00692375
-0.00757842
-0.00821581
-0.0088316
-0.00942228
-0.00998422
-0.0105149
-0.0110111
-0.01147
-0.0118889
-0.0122654
-0.0125974
-0.0128833
-0.0131215
-0.0133105
-0.0134491
-0.0135359
-0.0135699
-0.0135502
-0.013476
-0.0133468
-0.013162
-0.0129213
-0.0126245
-0.0122717
-0.0118627
-0.0113977
-0.0108772
-0.0103015
-0.00967107
-0.0089864
-0.0082483
-0.00745756
-0.00661481
-0.0057208
-0.00477658
-0.00378325
-0.00274193
-0.00165377
-0.000520126
0.00065744
0.00187736
0.0031382
0.00443851
0.0057766
0.00715069
0.00855904
0.00999998
0.0114718
0.0129726
0.0145002
0.0160528
0.0176284
0.0192254
0.0208417
0.0224753
0.024124
0.025786
0.0274592
0.0291413
0.0308299
0.0325227
0.0342176
0.0359125
0.0376054
0.0392938
0.0409756
0.0426484
0.0443102
0.0459588
0.0475918
0.0492067
0.0508013
0.0523738
0.0539223
0.0554446
0.0569386
0.0584019
0.0598326
0.0612287
0.0625886
0.0639103
0.0651917
0.066431
0.0676268
0.0687778
0.0698825
0.0709393
0.0719465
0.0729025
0.0738061
0.0746564
0.0754523
0.0761931
0.0768778
0.0775057
0.0780762
0.078589
0.079044
0.0794406
0.0797785
0.0800576
0.0802785
0.0804415
0.0805475
0.0805967
0.0805897
0.0805271
0.0804099
0.0802397
0.0800183
0.0797477
0.0794298
0.0790663
0.078659
0.07821
0.0777221
0.0771985
0.0766426
0.0760576
0.0754468
0.0748135
0.0741616
0.0734954
0.0728195
0.0721386
0.0714573
0.0707805
0.0701133
0.0694608
0.0688286
0.0682223
0.0676474
0.0671092
0.0666133
0.0661651
0.0657702
0.0654341
0.0651624
0.0649604
0.0648376
0.0647981
0.00300299
0.0028238
0.0025918
0.00230055
0.00195107
0.00155029
0.00110271
0.00061221
8.27596e-05
-0.000481512
-0.00107506
-0.00169315
-0.00233023
-0.00298052
-0.00363948
-0.00430245
-0.00496438
-0.00562057
-0.00626702
-0.00689974
-0.0075149
-0.00810875
-0.00867789
-0.00921873
-0.00972861
-0.0102048
-0.0106445
-0.0110454
-0.0114051
-0.0117215
-0.0119929
-0.0122181
-0.0123955
-0.0125238
-0.0126019
-0.0126287
-0.0126031
-0.0125246
-0.0123925
-0.0122064
-0.011966
-0.0116712
-0.0113218
-0.0109179
-0.0104596
-0.00994719
-0.00938108
-0.00876163
-0.00808946
-0.00736529
-0.00658976
-0.00576344
-0.00488719
-0.0039621
-0.00298916
-0.00196933
-0.000903844
0.000205892
0.00135839
0.00255221
0.00378601
0.00505833
0.00636747
0.00771176
0.00908958
0.0104993
0.0119392
0.0134074
0.0149017
0.0164204
0.0179619
0.0195242
0.0211054
0.0227033
0.0243162
0.0259422
0.0275791
0.0292248
0.0308766
0.0325326
0.0341908
0.035849
0.0375052
0.0391569
0.0408022
0.0424388
0.0440648
0.0456778
0.0472755
0.0488554
0.0504156
0.0519543
0.0534696
0.0549592
0.0564211
0.057853
0.0592532
0.0606198
0.0619509
0.0632447
0.0644991
0.0657125
0.0668835
0.068011
0.0690934
0.070129
0.0711161
0.0720534
0.0729397
0.0737741
0.0745556
0.0752833
0.0759563
0.0765739
0.0771358
0.0776416
0.0780909
0.0784835
0.0788187
0.0790968
0.0793182
0.0794834
0.0795931
0.0796475
0.079647
0.0795922
0.0794844
0.079325
0.079116
0.0788591
0.0785561
0.0782085
0.0778182
0.0773872
0.0769183
0.0764145
0.075879
0.0753148
0.0747249
0.0741127
0.0734819
0.0728366
0.072181
0.0715194
0.070856
0.0701954
0.0695423
0.0689018
0.068279
0.0676789
0.0671063
0.0665659
0.0660626
0.0656015
0.0651878
0.0648267
0.0645233
0.0642825
0.0641069
0.0639951
0.00382215
0.00357222
0.0032873
0.00295687
0.00257482
0.00214726
0.00167891
0.00117373
0.000634904
6.67155e-05
-0.000526882
-0.00114136
-0.00177153
-0.00241245
-0.00305972
-0.00370871
-0.00435526
-0.00499521
-0.00562439
-0.00623898
-0.00683557
-0.0074111
-0.00796164
-0.00848446
-0.00897655
-0.00943543
-0.00985855
-0.0102436
-0.0105885
-0.0108912
-0.0111501
-0.0113637
-0.0115308
-0.0116501
-0.0117204
-0.0117406
-0.01171
-0.0116278
-0.0114933
-0.0113063
-0.0110664
-0.0107736
-0.0104277
-0.0100287
-0.00957685
-0.00907232
-0.00851532
-0.00790632
-0.00724601
-0.00653499
-0.00577377
-0.00496301
-0.0041036
-0.00319658
-0.00224282
-0.00124327
-0.000199217
0.000887885
0.00201671
0.00318596
0.00439428
0.00564015
0.0069219
0.00823806
0.00958716
0.0109675
0.0123773
0.0138145
0.0152775
0.0167645
0.0182737
0.0198033
0.0213512
0.0229156
0.0244948
0.0260868
0.0276896
0.0293007
0.0309179
0.0325393
0.034163
0.0357867
0.0374082
0.0390254
0.0406363
0.042239
0.0438312
0.0454108
0.0469752
0.0485222
0.05005
0.051557
0.0530411
0.0544999
0.0559316
0.0573341
0.0587056
0.0600444
0.0613486
0.0626161
0.0638451
0.0650342
0.0661821
0.0672876
0.068349
0.0693646
0.0703329
0.0712527
0.0721229
0.0729425
0.0737104
0.0744257
0.0750877
0.0756958
0.0762496
0.0767488
0.077193
0.0775815
0.0779142
0.0781912
0.0784129
0.07858
0.0786929
0.0787518
0.0787569
0.0787091
0.0786095
0.0784597
0.0782615
0.0780166
0.0777265
0.0773928
0.0770171
0.0766017
0.0761492
0.0756624
0.0751441
0.0745972
0.0740247
0.0734299
0.0728164
0.0721879
0.0715484
0.0709015
0.0702513
0.069602
0.0689583
0.0683249
0.0677064
0.0671074
0.0665319
0.0659841
0.0654684
0.0649895
0.0645523
0.0641613
0.0638214
0.063537
0.0633038
0.0631148
0.00470493
0.00438022
0.00403878
0.00366537
0.00324662
0.00278812
0.00229479
0.00177007
0.0012172
0.000639767
4.12337e-05
-0.000574302
-0.00120236
-0.00183842
-0.00247821
-0.00311786
-0.00375335
-0.00438087
-0.00499666
-0.0055971
-0.0061788
-0.00673878
-0.00727379
-0.00778124
-0.00825835
-0.00870256
-0.00911142
-0.00948288
-0.00981494
-0.0101058
-0.0103536
-0.0105572
-0.0107154
-0.0108267
-0.0108901
-0.0109047
-0.0108697
-0.0107843
-0.0106479
-0.0104603
-0.0102213
-0.00993061
-0.00958816
-0.00919402
-0.00874835
-0.00825125
-0.00770292
-0.0071039
-0.00645482
-0.00575615
-0.00500839
-0.00421233
-0.00336888
-0.00247887
-0.0015431
-0.000562669
0.000461079
0.00152683
0.00263342
0.00377958
0.00496386
0.00618476
0.00744076
0.00873052
0.0100526
0.0114052
0.0127865
0.0141948
0.0156283
0.0170854
0.0185643
0.020063
0.0215796
0.0231125
0.02466
0.0262201
0.0277905
0.0293692
0.0309539
0.0325429
0.034134
0.0357251
0.037314
0.0388988
0.0404776
0.0420484
0.0436089
0.0451569
0.04669
0.0482062
0.0497038
0.051181
0.0526357
0.0540657
0.055469
0.0568439
0.0581888
0.0595015
0.0607803
0.0620232
0.0632285
0.064395
0.0655214
0.0666062
0.067648
0.0686449
0.0695956
0.0704991
0.0713543
0.0721601
0.0729153
0.073619
0.0742706
0.0748698
0.0754161
0.0759092
0.0763484
0.0767332
0.0770633
0.0773391
0.0775611
0.0777297
0.0778453
0.0779079
0.0779179
0.077876
0.0777837
0.0776423
0.0774536
0.0772189
0.0769398
0.0766178
0.0762548
0.0758527
0.075414
0.0749414
0.0744373
0.0739046
0.0733463
0.0727655
0.0721656
0.0715502
0.0709226
0.0702863
0.0696449
0.0690026
0.0683639
0.067733
0.0671143
0.0665117
0.0659286
0.0653688
0.0648363
0.0643354
0.0638704
0.0634454
0.063065
0.0627332
0.0624388
0.0621691
0.00564155
0.00523939
0.00483828
0.00441839
0.00395959
0.00346686
0.00294457
0.00239625
0.00182503
0.00123372
0.000625937
4.90768e-06
-0.000625253
-0.00126064
-0.00189722
-0.00253145
-0.00315973
-0.00377863
-0.00438472
-0.00497437
-0.00554455
-0.0060921
-0.00661468
-0.00710925
-0.00757373
-0.00800569
-0.00840266
-0.00876266
-0.0090838
-0.0093643
-0.00960263
-0.00979758
-0.00994796
-0.0100525
-0.0101101
-0.0101199
-0.0100812
-0.00999314
-0.00985532
-0.00966755
-0.00942952
-0.00914102
-0.00880206
-0.00841269
-0.0079729
-0.00748282
-0.00694277
-0.00635323
-0.00571468
-0.00502758
-0.00429257
-0.00351044
-0.00268196
-0.00180789
-0.000889086
7.33002e-05
0.00107796
0.00212371
0.00320944
0.00433389
0.00549554
0.00669297
0.00792483
0.00918985
0.0104865
0.0118131
0.0131677
0.0145487
0.0159546
0.0173837
0.018834
0.0203036
0.0217909
0.0232943
0.024812
0.026342
0.0278821
0.0294303
0.0309845
0.032543
0.0341036
0.0356641
0.0372224
0.0387768
0.0403255
0.0418664
0.0433971
0.0449154
0.0464192
0.0479067
0.049376
0.0508253
0.0522525
0.0536554
0.0550323
0.0563816
0.0577014
0.0589899
0.0602449
0.0614648
0.0626482
0.0637937
0.0649
0.0659657
0.0669891
0.0679686
0.068903
0.0697914
0.0706327
0.0714255
0.0721688
0.0728617
0.0735038
0.0740947
0.0746341
0.0751213
0.0755558
0.0759369
0.0762646
0.0765392
0.0767612
0.076931
0.0770487
0.0771143
0.0771284
0.0770917
0.0770056
0.0768715
0.0766907
0.0764647
0.0761948
0.0758827
0.0755302
0.0751393
0.0747121
0.074251
0.0737585
0.073237
0.0726897
0.0721197
0.0715302
0.0709242
0.0703049
0.0696752
0.0690388
0.0683995
0.0677616
0.0671292
0.0665061
0.0658955
0.0653007
0.0647248
0.0641716
0.0636449
0.0631486
0.0626861
0.0622619
0.0618796
0.0615214
0.0611689
0.0066228
0.00614099
0.00567818
0.00520893
0.00470667
0.00417634
0.00362224
0.003047
0.00245346
0.00184478
0.00122364
0.000593057
-4.32077e-05
-0.000681491
-0.00131875
-0.00195146
-0.00257615
-0.00318974
-0.0037893
-0.00437142
-0.00493298
-0.00547122
-0.00598395
-0.00646849
-0.00692275
-0.00734458
-0.00773178
-0.00808229
-0.00839431
-0.00866613
-0.00889643
-0.00908401
-0.00922775
-0.00932649
-0.00937924
-0.00938514
-0.00934339
-0.00925332
-0.00911453
-0.00892685
-0.00869001
-0.00840384
-0.00806839
-0.00768361
-0.00724945
-0.00676607
-0.00623386
-0.00565324
-0.00502459
-0.00434841
-0.00362542
-0.00285637
-0.00204192
-0.0011828
-0.000279946
0.000665454
0.00165222
0.0026793
0.00374555
0.0048496
0.00599001
0.0071655
0.00837483
0.00961672
0.0108896
0.0121916
0.0135212
0.0148769
0.016257
0.0176597
0.0190831
0.0205254
0.0219853
0.023461
0.0249508
0.0264525
0.0279642
0.0294838
0.0310096
0.0325395
0.0340714
0.0356031
0.0371328
0.0386589
0.0401795
0.0416923
0.0431951
0.0446857
0.0461622
0.0476228
0.0490657
0.050489
0.0518904
0.0532682
0.0546205
0.055946
0.0572426
0.0585084
0.0597414
0.0609401
0.0621032
0.0632293
0.0643171
0.0653649
0.0663712
0.0673346
0.0682541
0.0691286
0.0699569
0.0707377
0.0714699
0.0721527
0.072786
0.0733693
0.0739022
0.0743839
0.0748138
0.0751914
0.0755167
0.0757901
0.0760119
0.0761825
0.0763017
0.0763698
0.0763872
0.076355
0.0762742
0.0761461
0.0759719
0.0757528
0.0754906
0.0751866
0.0748428
0.074461
0.0740431
0.0735911
0.0731074
0.0725946
0.0720555
0.0714933
0.0709108
0.070311
0.0696965
0.0690701
0.068435
0.0677951
0.0671543
0.0665166
0.0658851
0.0652628
0.0646524
0.0640569
0.0634796
0.062924
0.0623933
0.0618904
0.0614196
0.0609846
0.0605607
0.0601241
0.00764007
0.00707738
0.00655065
0.0060299
0.00548173
0.00491074
0.00432176
0.00371643
0.00309769
0.00246821
0.00183021
0.00118681
0.000540981
-0.00010404
-0.000745482
-0.00137999
-0.00200445
-0.00261602
-0.00321189
-0.0037892
-0.00434483
-0.00487664
-0.00538202
-0.00585908
-0.00630554
-0.00671937
-0.00709869
-0.0074415
-0.00774601
-0.00801071
-0.00823438
-0.00841589
-0.00855413
-0.00864809
-0.00869693
-0.00869968
-0.00865552
-0.00856399
-0.00842471
-0.00823743
-0.00800195
-0.00771822
-0.00738624
-0.00700587
-0.00657706
-0.0061001
-0.00557533
-0.00500304
-0.00438366
-0.0037178
-0.00300615
-0.00224933
-0.00144795
-0.00060284
0.000285
0.00121451
0.00218464
0.00319432
0.00424234
0.00532727
0.00644786
0.00760295
0.00879131
0.0100115
0.011262
0.0125412
0.0138475
0.0151796
0.0165355
0.0179135
0.0193117
0.0207287
0.0221629
0.0236128
0.0250764
0.0265516
0.0280367
0.0295298
0.031029
0.0325321
0.0340371
0.035542
0.037045
0.0385447
0.040039
0.0415256
0.0430022
0.044467
0.0459182
0.047354
0.0487723
0.0501713
0.0515488
0.0529032
0.054233
0.0555364
0.0568115
0.0580562
0.0592688
0.0604481
0.0615926
0.0627009
0.0637714
0.0648027
0.0657932
0.0667419
0.0676477
0.0685094
0.0693258
0.0700954
0.0708172
0.0714909
0.0721161
0.0726924
0.0732191
0.0736956
0.0741211
0.0744954
0.0748184
0.0750905
0.075312
0.0754828
0.075603
0.075673
0.0756932
0.0756646
0.0755882
0.0754649
0.075296
0.0750825
0.0748263
0.0745289
0.0741921
0.0738174
0.0734066
0.0729614
0.0724842
0.0719774
0.071444
0.0708868
0.0703086
0.0697119
0.069099
0.0684726
0.0678357
0.0671918
0.0665448
0.0658982
0.0652548
0.0646173
0.0639881
0.0633698
0.0627654
0.0621781
0.0616104
0.0610648
0.0605453
0.0600557
0.0595649
0.0590437
0.00868541
0.00804072
0.00744918
0.00687513
0.00627848
0.00566458
0.00503787
0.0043999
0.00375307
0.0030997
0.00244215
0.0017826
0.00112402
0.000469108
-0.000179539
-0.00081905
-0.0014464
-0.00205889
-0.00265394
-0.00322899
-0.00378136
-0.00430899
-0.00480965
-0.00528142
-0.00572223
-0.00613021
-0.0065035
-0.00684019
-0.00713867
-0.00739773
-0.00761611
-0.0077927
-0.00792656
-0.00801684
-0.0080626
-0.00806285
-0.00801696
-0.00792452
-0.00778512
-0.0075985
-0.00736461
-0.0070834
-0.00675477
-0.00637861
-0.00595497
-0.00548412
-0.0049663
-0.0044018
-0.00379117
-0.00313503
-0.00243399
-0.00168855
-0.000899388
-6.74283e-05
0.000806375
0.00172112
0.00267581
0.0036693
0.00470028
0.00576742
0.00686959
0.00800574
0.00917457
0.0103746
0.0116043
0.0128622
0.0141469
0.0154569
0.0167903
0.0181451
0.01952
0.0209134
0.0223238
0.0237495
0.0251886
0.0266392
0.0280996
0.0295681
0.0310424
0.0325205
0.0340004
0.0354803
0.0369587
0.0384339
0.0399036
0.0413658
0.0428182
0.0442591
0.0456869
0.0470996
0.0484951
0.0498715
0.051227
0.05256
0.0538689
0.055152
0.0564071
0.0576324
0.0588264
0.0599879
0.0611154
0.0622073
0.063262
0.064278
0.0652542
0.0661895
0.0670828
0.0679329
0.0687382
0.0694975
0.0702099
0.0708751
0.0714929
0.0720627
0.0725837
0.0730552
0.0734766
0.0738478
0.0741686
0.0744394
0.0746601
0.0748308
0.0749516
0.0750229
0.0750453
0.0750196
0.0749466
0.0748271
0.0746621
0.074453
0.0742014
0.0739091
0.0735776
0.0732082
0.0728025
0.072362
0.071889
0.071386
0.0708558
0.0703011
0.0697244
0.0691279
0.0685137
0.0678844
0.0672427
0.0665921
0.0659358
0.0652771
0.0646187
0.0639629
0.0633118
0.062668
0.0620341
0.0614126
0.0608058
0.0602154
0.0596456
0.0591002
0.0585419
0.0579361
0.00975101
0.0090238
0.0083666
0.00773795
0.00709144
0.00643231
0.00576566
0.00509273
0.00441523
0.00373549
0.00305558
0.00237711
0.00170293
0.00103538
0.000376727
-0.000270541
-0.000903515
-0.00151948
-0.00211638
-0.00269177
-0.0032435
-0.00376918
-0.00426731
-0.00473591
-0.00517314
-0.00557713
-0.005946
-0.00627816
-0.00657222
-0.00682693
-0.00704119
-0.00721406
-0.00734468
-0.00743223
-0.00747565
-0.00747413
-0.00742715
-0.00733427
-0.00719509
-0.00700942
-0.00677731
-0.00649866
-0.00617328
-0.00580119
-0.00538252
-0.00491744
-0.00440612
-0.00384896
-0.00324658
-0.00259956
-0.00190836
-0.00117351
-0.000395787
0.000423879
0.00128466
0.00218577
0.00312614
0.00410455
0.00511968
0.00617035
0.00725555
0.00837417
0.00952478
0.010706
0.0119164
0.0131547
0.0144195
0.0157089
0.0170212
0.0183547
0.0197079
0.0210795
0.0224678
0.023871
0.0252874
0.0267152
0.0281528
0.0295984
0.0310496
0.0325044
0.0339611
0.035418
0.0368736
0.038326
0.039773
0.0412125
0.0426425
0.0440616
0.0454679
0.0468592
0.0482336
0.0495892
0.0509245
0.0522379
0.0535277
0.054792
0.0560288
0.0572364
0.0584135
0.0595589
0.0606709
0.0617477
0.0627879
0.0637901
0.0647533
0.0656765
0.0665585
0.0673978
0.068193
0.0689429
0.0696468
0.0703045
0.0709156
0.0714793
0.071995
0.0724618
0.0728794
0.0732476
0.0735664
0.0738356
0.0740553
0.0742255
0.0743465
0.0744187
0.0744427
0.0744192
0.0743486
0.0742317
0.0740696
0.0738636
0.0736154
0.0733268
0.0729989
0.0726331
0.0722305
0.0717928
0.071322
0.0708207
0.0702915
0.0697369
0.0691592
0.0685603
0.0679423
0.0673074
0.0666583
0.0659982
0.06533
0.0646565
0.0639803
0.0633033
0.0626278
0.061956
0.0612902
0.0606327
0.0599849
0.0593481
0.0587268
0.0581248
0.0574987
0.0568089
0.0108299
0.0100197
0.00929592
0.00861206
0.00791459
0.00720864
0.00650021
0.00579019
0.00508001
0.00437177
0.0036668
0.00296698
0.0022746
0.00159192
0.000920753
0.000263408
-0.00037744
-0.000999357
-0.00160048
-0.00217867
-0.00273188
-0.00325811
-0.00375581
-0.00422318
-0.00465859
-0.00506022
-0.0054263
-0.00575545
-0.00604649
-0.00629816
-0.00650949
-0.00667976
-0.0068082
-0.00689383
-0.00693569
-0.00693313
-0.00688563
-0.00679271
-0.00665409
-0.00646967
-0.00623946
-0.00596335
-0.00564122
-0.00527311
-0.00485915
-0.00439945
-0.00389427
-0.0033441
-0.00274949
-0.00211089
-0.0014288
-0.000703863
6.31424e-05
0.000871419
0.00172027
0.00260881
0.00353589
0.00450024
0.00550074
0.0065363