/*--------------------------------*- C++ -*----------------------------------*\
  =========                 |
  \\      /  F ield         | OpenFOAM: The Open Source CFD Toolbox
   \\    /   O peration     | Website:  https://openfoam.org
    \\  /    A nd           | Version:  7
     \\/     M anipulation  |
\*---------------------------------------------------------------------------*/
FoamFile
{
    version     2.0;
    format      ascii;
    class       surfaceScalarField;
    location    "0.0875";
    object      phi;
}
// * * * * * * * * * * * * * * * * * * * * * * * * * * * * * * * * * * * * * //

dimensions      [0 3 -1 0 0 0 0];

internalField   nonuniform List<scalar> 
50880
(
5.4285e-12
-5.46021e-12
3.58325e-11
-3.03943e-11
8.38397e-11
-4.80101e-11
1.38408e-10
-5.45663e-11
1.91206e-10
-5.28041e-11
2.36572e-10
-4.53631e-11
2.70581e-10
-3.40111e-11
2.90695e-10
-2.01111e-11
2.95277e-10
-4.58208e-12
2.83391e-10
1.18857e-11
2.54524e-10
2.88648e-11
2.08571e-10
4.59563e-11
1.45622e-10
6.29493e-11
6.59996e-11
7.9628e-11
-2.99021e-11
9.58921e-11
-1.41548e-10
1.11649e-10
-2.68399e-10
1.26847e-10
-4.09831e-10
1.41437e-10
-5.65238e-10
1.55407e-10
-7.33932e-10
1.68693e-10
-9.15286e-10
1.81352e-10
-1.10862e-09
1.93338e-10
-1.31331e-09
2.04689e-10
-1.52866e-09
2.15347e-10
-1.75404e-09
2.2538e-10
-1.98875e-09
2.34722e-10
-2.23219e-09
2.43432e-10
-2.48367e-09
2.5148e-10
-2.74255e-09
2.58875e-10
-3.00817e-09
2.65618e-10
-3.2799e-09
2.71734e-10
-3.55711e-09
2.77203e-10
-3.83913e-09
2.82029e-10
-4.12536e-09
2.86226e-10
-4.41516e-09
2.898e-10
-4.70792e-09
2.92762e-10
-5.00307e-09
2.95152e-10
-5.30004e-09
2.96971e-10
-5.59827e-09
2.98228e-10
-5.89722e-09
2.98951e-10
-6.19636e-09
2.99143e-10
-6.49515e-09
2.98798e-10
-6.79308e-09
2.97928e-10
-7.08963e-09
2.96549e-10
-7.38429e-09
2.94665e-10
-7.67657e-09
2.92274e-10
-7.96597e-09
2.89396e-10
-8.25202e-09
2.8605e-10
-8.53426e-09
2.82241e-10
-8.81223e-09
2.77973e-10
-9.0855e-09
2.73267e-10
-9.35363e-09
2.68141e-10
-9.61623e-09
2.62599e-10
-9.87288e-09
2.5665e-10
-1.01232e-08
2.50315e-10
-1.03668e-08
2.43605e-10
-1.06033e-08
2.36527e-10
-1.08324e-08
2.29091e-10
-1.10537e-08
2.21314e-10
-1.1267e-08
2.13218e-10
-1.14718e-08
2.04823e-10
-1.16679e-08
1.96142e-10
-1.18551e-08
1.8719e-10
-1.20331e-08
1.77989e-10
-1.22017e-08
1.68557e-10
-1.23606e-08
1.58908e-10
-1.25096e-08
1.4905e-10
-1.26486e-08
1.38996e-10
-1.27774e-08
1.28764e-10
-1.28957e-08
1.18368e-10
-1.30036e-08
1.07816e-10
-1.31007e-08
9.71211e-11
-1.3187e-08
8.62921e-11
-1.32623e-08
7.53416e-11
-1.33266e-08
6.4282e-11
-1.33797e-08
5.31158e-11
-1.34216e-08
4.18507e-11
-1.34521e-08
3.05106e-11
-1.34712e-08
1.91165e-11
-1.34789e-08
7.6745e-12
-1.3475e-08
-3.80774e-12
-1.34597e-08
-1.53103e-11
-1.34329e-08
-2.68133e-11
-1.33946e-08
-3.83032e-11
-1.33449e-08
-4.9765e-11
-1.32837e-08
-6.11838e-11
-1.32111e-08
-7.25483e-11
-1.31273e-08
-8.38404e-11
-1.30323e-08
-9.50314e-11
-1.29262e-08
-1.061e-10
-1.28091e-08
-1.17036e-10
-1.26813e-08
-1.27832e-10
-1.25428e-08
-1.38471e-10
-1.23939e-08
-1.48935e-10
-1.22347e-08
-1.59208e-10
-1.20654e-08
-1.69277e-10
-1.18863e-08
-1.79122e-10
-1.16976e-08
-1.88722e-10
-1.14995e-08
-1.9806e-10
-1.12924e-08
-2.07119e-10
-1.10765e-08
-2.1588e-10
-1.08522e-08
-2.24329e-10
-1.06197e-08
-2.32453e-10
-1.03795e-08
-2.40234e-10
-1.01318e-08
-2.47648e-10
-9.87715e-09
-2.54674e-10
-9.61584e-09
-2.61301e-10
-9.34833e-09
-2.67517e-10
-9.07502e-09
-2.73305e-10
-8.79638e-09
-2.78644e-10
-8.51286e-09
-2.83517e-10
-8.22494e-09
-2.87913e-10
-7.93312e-09
-2.91821e-10
-7.63789e-09
-2.95229e-10
-7.33977e-09
-2.98124e-10
-7.03928e-09
-3.0049e-10
-6.73696e-09
-3.02317e-10
-6.43337e-09
-3.03589e-10
-6.12908e-09
-3.04295e-10
-5.82465e-09
-3.04426e-10
-5.52068e-09
-3.03974e-10
-5.21775e-09
-3.02928e-10
-4.91648e-09
-3.01274e-10
-4.61747e-09
-2.99002e-10
-4.32137e-09
-2.96102e-10
-4.02881e-09
-2.92564e-10
-3.74043e-09
-2.88378e-10
-3.4569e-09
-2.83534e-10
-3.17887e-09
-2.78028e-10
-2.90701e-09
-2.71854e-10
-2.642e-09
-2.65013e-10
-2.38449e-09
-2.57507e-10
-2.13516e-09
-2.49337e-10
-1.89465e-09
-2.40505e-10
-1.66363e-09
-2.31016e-10
-1.44276e-09
-2.20874e-10
-1.23267e-09
-2.10088e-10
-1.034e-09
-1.98673e-10
-8.47352e-10
-1.86645e-10
-6.73325e-10
-1.74026e-10
-5.12488e-10
-1.60838e-10
-3.65383e-10
-1.47105e-10
-2.32528e-10
-1.32856e-10
-1.14395e-10
-1.18133e-10
-1.14065e-11
-1.02988e-10
7.60854e-11
-8.74925e-11
1.47816e-10
-7.1731e-11
2.03619e-10
-5.58045e-11
2.43463e-10
-3.98438e-11
2.67483e-10
-2.40196e-11
2.76037e-10
-8.55527e-12
2.69794e-10
6.243e-12
2.49825e-10
1.99692e-11
2.17746e-10
3.20777e-11
1.7594e-10
4.18057e-11
1.27844e-10
4.80961e-11
7.83507e-11
4.94932e-11
3.43752e-11
4.39757e-11
5.40618e-12
2.89686e-11
5.40616e-12
2.6533e-11
-3.19943e-11
9.45411e-11
-9.84064e-11
1.89872e-10
-1.43341e-10
2.94235e-10
-1.58923e-10
3.91839e-10
-1.50411e-10
4.70435e-10
-1.23959e-10
5.21005e-10
-8.4576e-11
5.36977e-10
-3.60932e-11
5.13856e-10
1.85466e-11
4.48571e-10
7.71723e-11
3.39334e-10
1.38109e-10
1.85121e-10
2.0016e-10
-1.42776e-11
2.62348e-10
-2.58642e-10
3.23995e-10
-5.4728e-10
3.8454e-10
-8.79262e-10
4.43634e-10
-1.25336e-09
5.00947e-10
-1.66823e-09
5.56295e-10
-2.12233e-09
6.09517e-10
-2.61409e-09
6.6046e-10
-3.14183e-09
7.09083e-10
-3.70377e-09
7.55283e-10
-4.29817e-09
7.99084e-10
-4.92321e-09
8.40392e-10
-5.57707e-09
8.79237e-10
-6.25789e-09
9.15538e-10
-6.96383e-09
9.49377e-10
-7.69303e-09
9.8069e-10
-8.44365e-09
1.0095e-09
-9.21385e-09
1.03581e-09
-1.00018e-08
1.05965e-09
-1.08056e-08
1.08101e-09
-1.16235e-08
1.09992e-09
-1.24536e-08
1.11641e-09
-1.32943e-08
1.1305e-09
-1.41438e-08
1.14225e-09
-1.50004e-08
1.15172e-09
-1.58624e-08
1.15894e-09
-1.67281e-08
1.16395e-09
-1.7596e-08
1.16682e-09
-1.84644e-08
1.16758e-09
-1.93319e-08
1.16625e-09
-2.01968e-08
1.16287e-09
-2.10578e-08
1.15749e-09
-2.19132e-08
1.15012e-09
-2.27618e-08
1.14082e-09
-2.3602e-08
1.12962e-09
-2.44325e-08
1.11657e-09
-2.5252e-08
1.10171e-09
-2.60591e-08
1.08511e-09
-2.68526e-08
1.06679e-09
-2.76313e-08
1.04683e-09
-2.8394e-08
1.02525e-09
-2.91394e-08
1.00211e-09
-2.98666e-08
9.7746e-10
-3.05743e-08
9.51347e-10
-3.12616e-08
9.23815e-10
-3.19274e-08
8.94915e-10
-3.25708e-08
8.64707e-10
-3.31909e-08
8.33254e-10
-3.37867e-08
8.00617e-10
-3.43574e-08
7.66855e-10
-3.49022e-08
7.32029e-10
-3.54204e-08
6.96201e-10
-3.59113e-08
6.59429e-10
-3.63741e-08
6.21767e-10
-3.68084e-08
5.83264e-10
-3.72133e-08
5.43973e-10
-3.75885e-08
5.03954e-10
-3.79334e-08
4.63257e-10
-3.82475e-08
4.21926e-10
-3.85304e-08
3.8001e-10
-3.87817e-08
3.37565e-10
-3.9001e-08
2.94636e-10
-3.9188e-08
2.51264e-10
-3.93423e-08
2.07494e-10
-3.94639e-08
1.63378e-10
-3.95523e-08
1.18973e-10
-3.96075e-08
7.43412e-11
-3.96294e-08
2.95379e-11
-3.96178e-08
-1.53869e-11
-3.95728e-08
-6.03784e-11
-3.94942e-08
-1.0537e-10
-3.93822e-08
-1.50296e-10
-3.92369e-08
-1.95098e-10
-3.90583e-08
-2.39721e-10
-3.88468e-08
-2.841e-10
-3.86025e-08
-3.28167e-10
-3.83256e-08
-3.71852e-10
-3.80167e-08
-4.15087e-10
-3.76759e-08
-4.57812e-10
-3.73037e-08
-4.99968e-10
-3.69007e-08
-5.41493e-10
-3.64673e-08
-5.82326e-10
-3.60041e-08
-6.22403e-10
-3.55118e-08
-6.61659e-10
-3.49909e-08
-7.00029e-10
-3.44421e-08
-7.37446e-10
-3.38664e-08
-7.73837e-10
-3.32643e-08
-8.09131e-10
-3.2637e-08
-8.43267e-10
-3.19851e-08
-8.76184e-10
-3.13097e-08
-9.07818e-10
-3.06119e-08
-9.38099e-10
-2.98926e-08
-9.66955e-10
-2.91529e-08
-9.9432e-10
-2.83941e-08
-1.02013e-09
-2.76173e-08
-1.04434e-09
-2.68237e-08
-1.06687e-09
-2.60147e-08
-1.08766e-09
-2.51915e-08
-1.10666e-09
-2.43556e-08
-1.1238e-09
-2.35084e-08
-1.13904e-09
-2.26513e-08
-1.15233e-09
-2.17858e-08
-1.16361e-09
-2.09135e-08
-1.17283e-09
-2.00359e-08
-1.17995e-09
-1.91546e-08
-1.1849e-09
-1.82712e-08
-1.18766e-09
-1.73875e-08
-1.18817e-09
-1.6505e-08
-1.1864e-09
-1.56256e-08
-1.18231e-09
-1.47511e-08
-1.17585e-09
-1.38831e-08
-1.167e-09
-1.30235e-08
-1.15571e-09
-1.21741e-08
-1.14195e-09
-1.13368e-08
-1.12569e-09
-1.05134e-08
-1.10691e-09
-9.70583e-09
-1.08559e-09
-8.91596e-09
-1.06172e-09
-8.14568e-09
-1.0353e-09
-7.39686e-09
-1.00632e-09
-6.67139e-09
-9.74807e-10
-5.97113e-09
-9.40763e-10
-5.29793e-09
-9.04217e-10
-4.6536e-09
-8.652e-10
-4.03994e-09
-8.23753e-10
-3.45868e-09
-7.79933e-10
-2.91151e-09
-7.3381e-10
-2.40007e-09
-6.85471e-10
-1.92589e-09
-6.35016e-10
-1.49043e-09
-5.82565e-10
-1.09502e-09
-5.28265e-10
-7.40856e-10
-4.72298e-10
-4.28954e-10
-4.1489e-10
-1.60124e-10
-3.56325e-10
6.50965e-11
-2.96952e-10
2.46493e-10
-2.37202e-10
3.8426e-10
-1.77612e-10
4.79105e-10
-1.18865e-10
5.3238e-10
-6.18312e-11
5.46259e-10
-7.63744e-12
5.23969e-10
4.22585e-11
4.70076e-10
8.5969e-11
3.90863e-10
1.21018e-10
2.94759e-10
1.442e-10
1.9278e-10
1.51471e-10
9.87882e-11
1.37967e-10
2.89791e-11
9.87775e-11
3.43855e-11
3.78935e-11
-6.98906e-11
1.24171e-10
-1.84682e-10
2.37607e-10
-2.56777e-10
3.55598e-10
-2.76912e-10
4.58621e-10
-2.53433e-10
5.31118e-10
-1.96455e-10
5.60959e-10
-1.14415e-10
5.38982e-10
-1.41118e-11
4.58461e-10
9.90644e-11
3.14619e-10
2.21007e-10
1.04325e-10
3.48408e-10
-1.74311e-10
4.78804e-10
-5.22167e-10
6.10203e-10
-9.39303e-10
7.41127e-10
-1.42513e-09
8.70361e-10
-1.9785e-09
9.97014e-10
-2.59792e-09
1.12037e-09
-3.28152e-09
1.2399e-09
-4.02716e-09
1.35516e-09
-4.83257e-09
1.46586e-09
-5.69518e-09
1.5717e-09
-6.61245e-09
1.67256e-09
-7.58159e-09
1.76823e-09
-8.59985e-09
1.85865e-09
-9.66433e-09
1.94371e-09
-1.07722e-08
2.0234e-09
-1.19205e-08
2.09763e-09
-1.31062e-08
2.16643e-09
-1.43265e-08
2.22978e-09
-1.55783e-08
2.28768e-09
-1.68588e-08
2.34016e-09
-1.81651e-08
2.38725e-09
-1.94942e-08
2.42899e-09
-2.08432e-08
2.46543e-09
-2.22093e-08
2.49663e-09
-2.35897e-08
2.52269e-09
-2.49817e-08
2.5437e-09
-2.63825e-08
2.55974e-09
-2.77895e-08
2.5709e-09
-2.91999e-08
2.57728e-09
-3.06113e-08
2.57896e-09
-3.20211e-08
2.57602e-09
-3.34268e-08
2.56855e-09
-3.48259e-08
2.55663e-09
-3.62161e-08
2.54035e-09
-3.75951e-08
2.51979e-09
-3.89606e-08
2.49507e-09
-4.03103e-08
2.46628e-09
-4.16421e-08
2.43351e-09
-4.29538e-08
2.39687e-09
-4.42435e-08
2.35648e-09
-4.55091e-08
2.31244e-09
-4.67487e-08
2.26485e-09
-4.79605e-08
2.21383e-09
-4.91425e-08
2.15948e-09
-5.0293e-08
2.10191e-09
-5.14105e-08
2.04123e-09
-5.24931e-08
1.97755e-09
-5.35394e-08
1.911e-09
-5.45478e-08
1.8417e-09
-5.5517e-08
1.76977e-09
-5.64455e-08
1.69534e-09
-5.7332e-08
1.61854e-09
-5.81753e-08
1.53949e-09
-5.89742e-08
1.45831e-09
-5.97275e-08
1.37513e-09
-6.04343e-08
1.29005e-09
-6.10935e-08
1.2032e-09
-6.17043e-08
1.1147e-09
-6.22657e-08
1.02465e-09
-6.27769e-08
9.33183e-10
-6.32373e-08
8.40401e-10
-6.36462e-08
7.46419e-10
-6.40029e-08
6.51352e-10
-6.43069e-08
5.55312e-10
-6.45578e-08
4.58405e-10
-6.47552e-08
3.6075e-10
-6.48987e-08
2.62476e-10
-6.49881e-08
1.63712e-10
-6.50231e-08
6.45755e-11
-6.50037e-08
-3.48062e-11
-6.49298e-08
-1.34302e-10
-6.48014e-08
-2.33779e-10
-6.46186e-08
-3.33105e-10
-6.43815e-08
-4.32142e-10
-6.40905e-08
-5.30757e-10
-6.37458e-08
-6.28811e-10
-6.33478e-08
-7.26162e-10
-6.2897e-08
-8.22662e-10
-6.23939e-08
-9.1817e-10
-6.18391e-08
-1.01255e-09
-6.12334e-08
-1.10566e-09
-6.05776e-08
-1.19737e-09
-5.98724e-08
-1.28754e-09
-5.91188e-08
-1.37601e-09
-5.83178e-08
-1.46265e-09
-5.74705e-08
-1.54732e-09
-5.6578e-08
-1.62987e-09
-5.56417e-08
-1.71015e-09
-5.46629e-08
-1.78801e-09
-5.36428e-08
-1.8633e-09
-5.25831e-08
-1.9359e-09
-5.14853e-08
-2.00565e-09
-5.0351e-08
-2.07241e-09
-4.91819e-08
-2.13603e-09
-4.79798e-08
-2.19637e-09
-4.67467e-08
-2.25329e-09
-4.54844e-08
-2.30666e-09
-4.41949e-08
-2.35634e-09
-4.28804e-08
-2.40219e-09
-4.15429e-08
-2.4441e-09
-4.01848e-08
-2.48193e-09
-3.88083e-08
-2.51556e-09
-3.74157e-08
-2.54489e-09
-3.60095e-08
-2.56979e-09
-3.45922e-08
-2.59014e-09
-3.31663e-08
-2.60586e-09
-3.17344e-08
-2.61681e-09
-3.02991e-08
-2.62292e-09
-2.88632e-08
-2.62408e-09
-2.74294e-08
-2.62021e-09
-2.60005e-08
-2.61122e-09
-2.45793e-08
-2.59703e-09
-2.31687e-08
-2.57757e-09
-2.17717e-08
-2.55276e-09
-2.03911e-08
-2.52254e-09
-1.90299e-08
-2.48686e-09
-1.76912e-08
-2.44568e-09
-1.63778e-08
-2.39896e-09
-1.50928e-08
-2.34668e-09
-1.38393e-08
-2.28885e-09
-1.26201e-08
-2.22547e-09
-1.14384e-08
-2.15657e-09
-1.02969e-08
-2.08219e-09
-9.19876e-09
-2.00239e-09
-8.1467e-09
-1.91725e-09
-7.14357e-09
-1.82688e-09
-6.1921e-09
-1.73141e-09
-5.2949e-09
-1.63101e-09
-4.4545e-09
-1.52587e-09
-3.67327e-09
-1.41625e-09
-2.9534e-09
-1.30243e-09
-2.29689e-09
-1.18477e-09
-1.70549e-09
-1.0637e-09
-1.18063e-09
-9.3975e-10
-7.23396e-10
-8.13559e-10
-3.34429e-10
-6.85921e-10
-1.38277e-11
-5.57803e-10
2.3896e-10
-4.304e-10
4.25291e-10
-3.05197e-10
5.47508e-10
-1.84051e-10
6.09168e-10
-6.92982e-11
6.15312e-10
3.61136e-11
5.72806e-10
1.28474e-10
4.9071e-10
2.03114e-10
3.80671e-10
2.54237e-10
2.57274e-10
2.74868e-10
1.38187e-10
2.57053e-10
4.4055e-11
1.9291e-10
7.84398e-11
4.10116e-11
-1.10899e-10
1.3071e-10
-2.74386e-10
2.42698e-10
-3.68764e-10
3.51098e-10
-3.85308e-10
4.3409e-10
-3.36434e-10
4.74109e-10
-2.36472e-10
4.57177e-10
-9.74864e-11
3.72419e-10
7.0643e-11
2.11585e-10
2.599e-10
-3.13452e-11
4.63942e-10
-3.60625e-10
6.77677e-10
-7.78863e-10
8.97049e-10
-1.28755e-09
1.11889e-09
-1.88698e-09
1.34056e-09
-2.57675e-09
1.56013e-09
-3.35567e-09
1.77593e-09
-4.222e-09
1.98669e-09
-5.17352e-09
2.19142e-09
-6.20765e-09
2.38929e-09
-7.32146e-09
2.57968e-09
-8.51181e-09
2.76205e-09
-9.77533e-09
2.93607e-09
-1.11085e-08
3.10137e-09
-1.25076e-08
3.25781e-09
-1.3969e-08
3.40507e-09
-1.54887e-08
3.54316e-09
-1.7063e-08
3.67191e-09
-1.86879e-08
3.79131e-09
-2.03594e-08
3.90131e-09
-2.20737e-08
4.00192e-09
-2.38267e-08
4.09316e-09
-2.56145e-08
4.17509e-09
-2.74333e-08
4.24777e-09
-2.92792e-08
4.31127e-09
-3.11482e-08
4.36571e-09
-3.30367e-08
4.4112e-09
-3.49409e-08
4.44787e-09
-3.68571e-08
4.47588e-09
-3.87815e-08
4.49537e-09
-4.07107e-08
4.50648e-09
-4.26411e-08
4.50936e-09
-4.45693e-08
4.50417e-09
-4.64918e-08
4.49106e-09
-4.84053e-08
4.47017e-09
-5.03066e-08
4.44166e-09
-5.21925e-08
4.40571e-09
-5.406e-08
4.36247e-09
-5.59058e-08
4.31214e-09
-5.77272e-08
4.25487e-09
-5.95212e-08
4.19086e-09
-6.1285e-08
4.12029e-09
-6.30159e-08
4.04335e-09
-6.47112e-08
3.96021e-09
-6.63685e-08
3.87108e-09
-6.79852e-08
3.77615e-09
-6.95589e-08
3.6756e-09
-7.10873e-08
3.56963e-09
-7.25682e-08
3.45844e-09
-7.39994e-08
3.34223e-09
-7.53789e-08
3.22121e-09
-7.67047e-08
3.09559e-09
-7.79749e-08
2.96558e-09
-7.91878e-08
2.83139e-09
-8.03416e-08
2.69324e-09
-8.14346e-08
2.55134e-09
-8.24653e-08
2.40588e-09
-8.34324e-08
2.25708e-09
-8.43343e-08
2.10514e-09
-8.51699e-08
1.95027e-09
-8.59379e-08
1.79267e-09
-8.66373e-08
1.63255e-09
-8.7267e-08
1.47011e-09
-8.78261e-08
1.30556e-09
-8.83139e-08
1.1391e-09
-8.87295e-08
9.70927e-10
-8.90723e-08
8.01255e-10
-8.93419e-08
6.30296e-10
-8.95377e-08
4.58266e-10
-8.96593e-08
2.85387e-10
-8.97066e-08
1.11881e-10
-8.96794e-08
-6.2032e-11
-8.95776e-08
-2.36123e-10
-8.94012e-08
-4.10158e-10
-8.91504e-08
-5.83904e-10
-8.88254e-08
-7.57127e-10
-8.84266e-08
-9.29591e-10
-8.79543e-08
-1.10106e-09
-8.74092e-08
-1.27127e-09
-8.67919e-08
-1.43999e-09
-8.61031e-08
-1.60696e-09
-8.53437e-08
-1.77196e-09
-8.45146e-08
-1.93473e-09
-8.3617e-08
-2.09502e-09
-8.26519e-08
-2.25259e-09
-8.16207e-08
-2.4072e-09
-8.05248e-08
-2.55858e-09
-7.93656e-08
-2.7065e-09
-7.81448e-08
-2.85069e-09
-7.68641e-08
-2.9909e-09
-7.55252e-08
-3.12688e-09
-7.41301e-08
-3.25837e-09
-7.26809e-08
-3.38514e-09
-7.11796e-08
-3.50692e-09
-6.96286e-08
-3.62347e-09
-6.80301e-08
-3.73454e-09
-6.63865e-08
-3.83988e-09
-6.47006e-08
-3.93926e-09
-6.29748e-08
-4.03243e-09
-6.1212e-08
-4.11917e-09
-5.94149e-08
-4.19925e-09
-5.75866e-08
-4.27243e-09
-5.573e-08
-4.3385e-09
-5.38483e-08
-4.39726e-09
-5.19447e-08
-4.4485e-09
-5.00225e-08
-4.49202e-09
-4.8085e-08
-4.52761e-09
-4.61357e-08
-4.5551e-09
-4.41782e-08
-4.57431e-09
-4.22161e-08
-4.58506e-09
-4.0253e-08
-4.58719e-09
-3.82927e-08
-4.58056e-09
-3.63389e-08
-4.56501e-09
-3.43955e-08
-4.54041e-09
-3.24664e-08
-4.50664e-09
-3.05556e-08
-4.46359e-09
-2.8667e-08
-4.41116e-09
-2.68046e-08
-4.34926e-09
-2.49724e-08
-4.27785e-09
-2.31745e-08
-4.19686e-09
-2.14149e-08
-4.10628e-09
-1.96976e-08
-4.00612e-09
-1.80267e-08
-3.89639e-09
-1.64061e-08
-3.77717e-09
-1.48398e-08
-3.64852e-09
-1.33316e-08
-3.51057e-09
-1.18854e-08
-3.36349e-09
-1.05048e-08
-3.20746e-09
-9.19348e-09
-3.04274e-09
-7.95486e-09
-2.86963e-09
-6.79221e-09
-2.68853e-09
-5.70859e-09
-2.49986e-09
-4.70684e-09
-2.30418e-09
-3.78947e-09
-2.10214e-09
-2.95865e-09
-1.89452e-09
-2.21613e-09
-1.68228e-09
-1.56314e-09
-1.46654e-09
-1.00035e-09
-1.24872e-09
-5.27666e-10
-1.03048e-09
-1.4417e-10
-8.13897e-10
1.52105e-10
-6.01472e-10
3.64355e-10
-3.96302e-10
4.97252e-10
-2.02195e-10
5.57221e-10
-2.38559e-11
5.5276e-10
1.32935e-10
4.94776e-10
2.61096e-10
3.96936e-10
3.52077e-10
2.76008e-10
3.95794e-10
1.52194e-10
3.80867e-10
4.97323e-11
2.95371e-10
1.28172e-10
3.85266e-11
-1.49422e-10
1.19452e-10
-3.55313e-10
2.13871e-10
-4.63182e-10
2.93943e-10
-4.65378e-10
3.36538e-10
-3.79024e-10
3.22936e-10
-2.22873e-10
2.38097e-10
-1.2645e-11
7.01236e-11
2.38626e-10
-1.90258e-10
5.20281e-10
-5.49948e-10
8.2363e-10
-1.01389e-09
1.14162e-09
-1.58535e-09
1.46851e-09
-2.26616e-09
1.79971e-09
-3.05703e-09
2.13144e-09
-3.95757e-09
2.46067e-09
-4.96658e-09
2.78493e-09
-6.08216e-09
3.10229e-09
-7.30183e-09
3.41109e-09
-8.6226e-09
3.71006e-09
-1.00411e-08
3.99815e-09
-1.15536e-08
4.27454e-09
-1.3156e-08
4.53853e-09
-1.48443e-08
4.78963e-09
-1.66139e-08
5.02739e-09
-1.84603e-08
5.25153e-09
-2.03789e-08
5.46177e-09
-2.2365e-08
5.65796e-09
-2.44137e-08
5.83999e-09
-2.65202e-08
6.0078e-09
-2.86796e-08
6.16136e-09
-3.08871e-08
6.30069e-09
-3.31379e-08
6.42585e-09
-3.5427e-08
6.53693e-09
-3.77498e-08
6.63402e-09
-4.01014e-08
6.7173e-09
-4.24771e-08
6.7869e-09
-4.48722e-08
6.84302e-09
-4.72822e-08
6.88585e-09
-4.97025e-08
6.91561e-09
-5.21285e-08
6.93251e-09
-5.45559e-08
6.93677e-09
-5.69804e-08
6.92863e-09
-5.93976e-08
6.90832e-09
-6.18035e-08
6.87608e-09
-6.4194e-08
6.83214e-09
-6.65651e-08
6.77676e-09
-6.89128e-08
6.71021e-09
-7.12334e-08
6.63276e-09
-7.35232e-08
6.54467e-09
-7.57786e-08
6.44622e-09
-7.7996e-08
6.3377e-09
-8.01721e-08
6.21939e-09
-8.23034e-08
6.09157e-09
-8.43869e-08
5.95454e-09
-8.64193e-08
5.80859e-09
-8.83977e-08
5.65401e-09
-9.03192e-08
5.49111e-09
-9.21809e-08
5.32019e-09
-9.39803e-08
5.14156e-09
-9.57146e-08
4.95552e-09
-9.73814e-08
4.7624e-09
-9.89783e-08
4.56252e-09
-1.00503e-07
4.35618e-09
-1.01954e-07
4.14372e-09
-1.03328e-07
3.92545e-09
-1.04624e-07
3.70168e-09
-1.05839e-07
3.47273e-09
-1.06973e-07
3.23893e-09
-1.08023e-07
3.00058e-09
-1.08989e-07
2.75801e-09
-1.09868e-07
2.51153e-09
-1.10659e-07
2.26146e-09
-1.11361e-07
2.00813e-09
-1.11974e-07
1.75185e-09
-1.12496e-07
1.49295e-09
-1.12927e-07
1.23174e-09
-1.13265e-07
9.68568e-10
-1.13511e-07
7.03769e-10
-1.13663e-07
4.37678e-10
-1.13722e-07
1.70637e-10
-1.13687e-07
-9.70038e-11
-1.13558e-07
-3.64892e-10
-1.13335e-07
-6.32672e-10
-1.13019e-07
-8.99984e-10
-1.1261e-07
-1.16647e-09
-1.12108e-07
-1.43176e-09
-1.11513e-07
-1.69549e-09
-1.10827e-07
-1.95728e-09
-1.10051e-07
-2.21675e-09
-1.09184e-07
-2.47354e-09
-1.08229e-07
-2.72726e-09
-1.07186e-07
-2.97753e-09
-1.06057e-07
-3.22399e-09
-1.04843e-07
-3.46623e-09
-1.03547e-07
-3.70389e-09
-1.02169e-07
-3.93659e-09
-1.00711e-07
-4.16392e-09
-9.91763e-08
-4.38552e-09
-9.75662e-08
-4.60098e-09
-9.58831e-08
-4.80992e-09
-9.41296e-08
-5.01196e-09
-9.2308e-08
-5.20672e-09
-9.04211e-08
-5.39382e-09
-8.84717e-08
-5.57287e-09
-8.64627e-08
-5.74349e-09
-8.43973e-08
-5.90532e-09
-8.22786e-08
-6.05798e-09
-8.01099e-08
-6.20112e-09
-7.78947e-08
-6.33438e-09
-7.56365e-08
-6.45742e-09
-7.3339e-08
-6.56987e-09
-7.10061e-08
-6.67143e-09
-6.86416e-08
-6.76175e-09
-6.62496e-08
-6.84054e-09
-6.38341e-08
-6.90748e-09
-6.13995e-08
-6.96227e-09
-5.89499e-08
-7.00464e-09
-5.64899e-08
-7.03431e-09
-5.4024e-08
-7.05102e-09
-5.15566e-08
-7.05453e-09
-4.90926e-08
-7.04461e-09
-4.66365e-08
-7.02105e-09
-4.41933e-08
-6.98364e-09
-4.17677e-08
-6.93222e-09
-3.93647e-08
-6.86661e-09
-3.69892e-08
-6.7867e-09
-3.46461e-08
-6.69237e-09
-3.23404e-08
-6.58352e-09
-3.00771e-08
-6.46012e-09
-2.78613e-08
-6.32214e-09
-2.56978e-08
-6.1696e-09
-2.35916e-08
-6.00255e-09
-2.15477e-08
-5.82111e-09
-1.95708e-08
-5.62542e-09
-1.76657e-08
-5.41568e-09
-1.5837e-08
-5.19215e-09
-1.40893e-08
-4.95517e-09
-1.24269e-08
-4.70515e-09
-1.08539e-08
-4.44258e-09
-9.37437e-09
-4.16808e-09
-7.99188e-09
-3.88236e-09
-6.70977e-09
-3.58629e-09
-5.53101e-09
-3.28091e-09
-4.45809e-09
-2.96744e-09
-3.493e-09
-2.64737e-09
-2.63707e-09
-2.32247e-09
-1.89094e-09
-1.99485e-09
-1.25434e-09
-1.66708e-09
-7.26024e-10
-1.34222e-09
-3.03519e-10
-1.02398e-09
1.70362e-11
-7.16857e-10
2.4114e-10
-4.263e-10
3.76192e-10
-1.58908e-10
4.31776e-10
7.73501e-11
4.19968e-10
2.72904e-10
3.55668e-10
4.16376e-10
2.56991e-10
4.94469e-10
1.45777e-10
4.92079e-10
4.85998e-11
3.92549e-10
1.76771e-10
3.20682e-11
-1.8149e-10
9.46385e-11
-4.17884e-10
1.5813e-10
-5.26681e-10
1.94288e-10
-5.01533e-10
1.79538e-10
-3.64277e-10
9.47321e-11
-1.38064e-10
-7.56877e-11
1.57767e-10
-3.44158e-10
5.07098e-10
-7.20476e-10
8.96593e-10
-1.21206e-09
1.31521e-09
-1.82438e-09
1.75393e-09
-2.56108e-09
2.20522e-09
-3.4243e-09
2.66292e-09
-4.4149e-09
3.12203e-09
-5.53256e-09
3.57834e-09
-6.77612e-09
4.02849e-09
-8.14349e-09
4.46966e-09
-9.63196e-09
4.89955e-09
-1.12382e-08
5.31634e-09
-1.29585e-08
5.71842e-09
-1.47886e-08
6.10461e-09
-1.67239e-08
6.47384e-09
-1.87596e-08
6.82538e-09
-2.08907e-08
7.15849e-09
-2.3112e-08
7.47277e-09
-2.5418e-08
7.76774e-09
-2.78032e-08
8.04318e-09
-3.0262e-08
8.29886e-09
-3.27889e-08
8.53467e-09
-3.53781e-08
8.75056e-09
-3.8024e-08
8.94652e-09
-4.07207e-08
9.1226e-09
-4.34627e-08
9.27891e-09
-4.62443e-08
9.41559e-09
-4.90598e-08
9.5328e-09
-5.19036e-08
9.63077e-09
-5.47703e-08
9.70972e-09
-5.76544e-08
9.76994e-09
-6.05505e-08
9.81167e-09
-6.34532e-08
9.83522e-09
-6.63573e-08
9.84091e-09
-6.92577e-08
9.82904e-09
-7.21494e-08
9.79995e-09
-7.50273e-08
9.75397e-09
-7.78866e-08
9.69145e-09
-8.07226e-08
9.61274e-09
-8.35306e-08
9.51822e-09
-8.63061e-08
9.40825e-09
-8.90446e-08
9.28323e-09
-9.17419e-08
9.14354e-09
-9.43938e-08
8.98959e-09
-9.69962e-08
8.82175e-09
-9.95451e-08
8.64046e-09
-1.02037e-07
8.44612e-09
-1.04467e-07
8.23913e-09
-1.06833e-07
8.01992e-09
-1.09131e-07
7.78892e-09
-1.11357e-07
7.54654e-09
-1.13509e-07
7.29324e-09
-1.15583e-07
7.02943e-09
-1.17576e-07
6.75556e-09
-1.19486e-07
6.47209e-09
-1.21309e-07
6.17945e-09
-1.23043e-07
5.87808e-09
-1.24686e-07
5.56845e-09
-1.26236e-07
5.251e-09
-1.27689e-07
4.92617e-09
-1.29044e-07
4.59442e-09
-1.303e-07
4.25621e-09
-1.31454e-07
3.91197e-09
-1.32505e-07
3.56217e-09
-1.33451e-07
3.20728e-09
-1.3429e-07
2.84773e-09
-1.35022e-07
2.484e-09
-1.35646e-07
2.11655e-09
-1.3616e-07
1.74585e-09
-1.36564e-07
1.37238e-09
-1.36857e-07
9.96605e-10
-1.37038e-07
6.19021e-10
-1.37107e-07
2.40112e-10
-1.37065e-07
-1.39622e-10
-1.3691e-07
-5.19684e-10
-1.36643e-07
-8.99567e-10
-1.36264e-07
-1.27876e-09
-1.35774e-07
-1.65676e-09
-1.35173e-07
-2.03303e-09
-1.34461e-07
-2.40707e-09
-1.3364e-07
-2.77833e-09
-1.32711e-07
-3.14628e-09
-1.31674e-07
-3.51041e-09
-1.30531e-07
-3.87017e-09
-1.29283e-07
-4.22502e-09
-1.27933e-07
-4.57443e-09
-1.26481e-07
-4.91786e-09
-1.2493e-07
-5.25476e-09
-1.23282e-07
-5.58459e-09
-1.2154e-07
-5.90681e-09
-1.19704e-07
-6.22087e-09
-1.17779e-07
-6.52622e-09
-1.15767e-07
-6.82232e-09
-1.1367e-07
-7.10863e-09
-1.11492e-07
-7.3846e-09
-1.09236e-07
-7.6497e-09
-1.06906e-07
-7.9034e-09
-1.04504e-07
-8.14515e-09
-1.02035e-07
-8.37444e-09
-9.95021e-08
-8.59076e-09
-9.69096e-08
-8.79359e-09
-9.42615e-08
-8.98244e-09
-9.15621e-08
-9.15681e-09
-8.88158e-08
-9.31621e-09
-8.6027e-08
-9.46019e-09
-8.32005e-08
-9.58829e-09
-8.0341e-08
-9.70006e-09
-7.74534e-08
-9.79508e-09
-7.45427e-08
-9.87293e-09
-7.16141e-08
-9.93322e-09
-6.86729e-08
-9.97556e-09
-6.57243e-08
-9.9996e-09
-6.27738e-08
-1.0005e-08
-5.9827e-08
-9.99145e-09
-5.68894e-08
-9.95865e-09
-5.39667e-08
-9.90633e-09
-5.10647e-08
-9.83425e-09
-4.81891e-08
-9.74221e-09
-4.53457e-08
-9.63003e-09
-4.25405e-08
-9.49758e-09
-3.97793e-08
-9.34474e-09
-3.7068e-08
-9.17147e-09
-3.44123e-08
-8.97776e-09
-3.18183e-08
-8.76365e-09
-2.92916e-08
-8.52924e-09
-2.6838e-08
-8.27471e-09
-2.44632e-08
-8.00028e-09
-2.21726e-08
-7.70628e-09
-1.99716e-08
-7.39309e-09
-1.78656e-08
-7.06121e-09
-1.58595e-08
-6.71127e-09
-1.39581e-08
-6.344e-09
-1.21658e-08
-5.96029e-09
-1.0487e-08
-5.56119e-09
-8.92535e-09
-5.14796e-09
-7.48415e-09
-4.7221e-09
-6.16621e-09
-4.28538e-09
-4.97367e-09
-3.8399e-09
-3.90799e-09
-3.38815e-09
-2.96973e-09
-2.93311e-09
-2.15852e-09
-2.47829e-09
-1.47285e-09
-2.02789e-09
-9.09878e-10
-1.58695e-09
-4.6528e-10
-1.16145e-09
-1.33001e-10
-7.58581e-10
9.49785e-11
-3.86888e-10
2.28895e-10
-5.6567e-11
2.81488e-10
2.2031e-10
2.68325e-10
4.29537e-10
2.0822e-10
5.54573e-10
1.23822e-10
5.76476e-10
4.26828e-11
4.73687e-10
2.19454e-10
2.28906e-11
-2.04382e-10
5.9717e-11
-4.54707e-10
8.16751e-11
-5.48637e-10
6.12371e-11
-4.81094e-10
-2.47723e-11
-2.78267e-10
-1.95368e-10
3.25306e-11
-4.66112e-10
4.28506e-10
-8.4957e-10
8.9056e-10
-1.35572e-09
1.40275e-09
-1.99228e-09
1.95178e-09
-2.76484e-09
2.5265e-09
-3.67731e-09
3.11769e-09
-4.732e-09
3.7176e-09
-5.92983e-09
4.31986e-09
-7.27057e-09
4.91907e-09
-8.75289e-09
5.51082e-09
-1.03746e-08
6.09141e-09
-1.21329e-08
6.6578e-09
-1.4024e-08
7.20744e-09
-1.60439e-08
7.73829e-09
-1.81878e-08
8.24857e-09
-2.04509e-08
8.73691e-09
-2.28277e-08
9.20215e-09
-2.53126e-08
9.64338e-09
-2.78996e-08
1.00599e-08
-3.05829e-08
1.0451e-08
-3.33562e-08
1.08164e-08
-3.62132e-08
1.11558e-08
-3.91474e-08
1.1469e-08
-4.21526e-08
1.17557e-08
-4.52221e-08
1.20161e-08
-4.83496e-08
1.22501e-08
-5.15286e-08
1.24579e-08
-5.47525e-08
1.26395e-08
-5.8015e-08
1.27953e-08
-6.13097e-08
1.29255e-08
-6.46302e-08
1.30303e-08
-6.79704e-08
1.31101e-08
-7.1324e-08
1.31652e-08
-7.46849e-08
1.31961e-08
-7.80471e-08
1.32031e-08
-8.14046e-08
1.31866e-08
-8.47518e-08
1.31471e-08
-8.80829e-08
1.3085e-08
-9.13922e-08
1.30008e-08
-9.46744e-08
1.28949e-08
-9.79241e-08
1.27679e-08
-1.01136e-07
1.26202e-08
-1.04305e-07
1.24523e-08
-1.07426e-07
1.22648e-08
-1.10495e-07
1.20581e-08
-1.13506e-07
1.18329e-08
-1.16455e-07
1.15897e-08
-1.19338e-07
1.1329e-08
-1.2215e-07
1.10513e-08
-1.24888e-07
1.07573e-08
-1.27546e-07
1.04474e-08
-1.30122e-07
1.01223e-08
-1.32611e-07
9.78256e-09
-1.35011e-07
9.42872e-09
-1.37316e-07
9.06139e-09
-1.39525e-07
8.68115e-09
-1.41635e-07
8.2886e-09
-1.43641e-07
7.88434e-09
-1.45541e-07
7.46896e-09
-1.47333e-07
7.04307e-09
-1.49015e-07
6.60727e-09
-1.50582e-07
6.16217e-09
-1.52034e-07
5.70836e-09
-1.53369e-07
5.24647e-09
-1.54584e-07
4.7771e-09
-1.55677e-07
4.30088e-09
-1.56648e-07
3.81842e-09
-1.57494e-07
3.33034e-09
-1.58215e-07
2.83728e-09
-1.58809e-07
2.33988e-09
-1.59276e-07
1.83876e-09
-1.59614e-07
1.33459e-09
-1.59823e-07
8.27999e-10
-1.59902e-07
3.19661e-10
-1.59852e-07
-1.89762e-10
-1.59672e-07
-6.99593e-10
-1.59362e-07
-1.20916e-09
-1.58923e-07
-1.71777e-09
-1.58355e-07
-2.22475e-09
-1.57659e-07
-2.7294e-09
-1.56835e-07
-3.23101e-09
-1.55885e-07
-3.72887e-09
-1.54809e-07
-4.22228e-09
-1.53608e-07
-4.71053e-09
-1.52286e-07
-5.1929e-09
-1.50842e-07
-5.66867e-09
-1.49279e-07
-6.13712e-09
-1.476e-07
-6.59751e-09
-1.45805e-07
-7.04914e-09
-1.43899e-07
-7.49127e-09
-1.41882e-07
-7.92318e-09
-1.39759e-07
-8.34412e-09
-1.37532e-07
-8.75337e-09
-1.35204e-07
-9.15021e-09
-1.32779e-07
-9.53391e-09
-1.3026e-07
-9.90376e-09
-1.2765e-07
-1.0259e-08
-1.24955e-07
-1.0599e-08
-1.22177e-07
-1.0923e-08
-1.19321e-07
-1.12303e-08
-1.16392e-07
-1.15202e-08
-1.13393e-07
-1.17921e-08
-1.1033e-07
-1.20452e-08
-1.07208e-07
-1.2279e-08
-1.04032e-07
-1.24927e-08
-1.00806e-07
-1.26858e-08
-9.75367e-08
-1.28577e-08
-9.4229e-08
-1.30077e-08
-9.08887e-08
-1.31354e-08
-8.75216e-08
-1.324e-08
-8.41336e-08
-1.33213e-08
-8.07306e-08
-1.33785e-08
-7.73188e-08
-1.34113e-08
-7.39046e-08
-1.34193e-08
-7.04941e-08
-1.34019e-08
-6.70938e-08
-1.33589e-08
-6.37103e-08
-1.32899e-08
-6.03501e-08
-1.31945e-08
-5.70197e-08
-1.30725e-08
-5.3726e-08
-1.29238e-08
-5.04754e-08
-1.27481e-08
-4.72749e-08
-1.25453e-08
-4.41309e-08
-1.23154e-08
-4.10503e-08
-1.20584e-08
-3.80397e-08
-1.17743e-08
-3.51055e-08
-1.14634e-08
-3.22544e-08
-1.11259e-08
-2.94926e-08
-1.0762e-08
-2.68265e-08
-1.03724e-08
-2.42621e-08
-9.9575e-09
-2.18052e-08
-9.51805e-09
-1.94616e-08
-9.0549e-09
-1.72365e-08
-8.56907e-09
-1.5135e-08
-8.06179e-09
-1.31617e-08
-7.53451e-09
-1.13207e-08
-6.98894e-09
-9.61573e-09
-6.4271e-09
-8.04974e-09
-5.85137e-09
-6.62509e-09
-5.26455e-09
-5.34329e-09
-4.66995e-09
-4.20494e-09
-4.07146e-09
-3.20958e-09
-3.47365e-09
-2.35553e-09
-2.88194e-09
-1.63974e-09
-2.30273e-09
-1.05762e-09
-1.74358e-09
-6.0279e-10
-1.21341e-09
-2.66919e-10
-7.22758e-10
-3.94678e-11
-2.8402e-10
9.25664e-11
8.82733e-11
1.44958e-10
3.77143e-10
1.36661e-10
5.62869e-10
9.03682e-11
6.22768e-10
3.34386e-11
5.30617e-10
2.52892e-10
1.17696e-11
-2.16144e-10
1.73967e-11
-4.60342e-10
-1.03962e-11
-5.20843e-10
-9.75299e-11
-3.93962e-10
-2.66087e-10
-1.09711e-10
-5.34413e-10
3.00864e-10
-9.17667e-10
8.11761e-10
-1.42823e-09
1.40112e-09
-2.07596e-09
2.05048e-09
-2.86849e-09
2.74431e-09
-3.81155e-09
3.46955e-09
-4.90898e-09
4.21513e-09
-6.16313e-09
4.97175e-09
-7.57491e-09
5.73164e-09
-9.14403e-09
6.48819e-09
-1.08691e-08
7.23588e-09
-1.27478e-08
7.97008e-09
-1.47769e-08
8.68693e-09
-1.69526e-08
9.38316e-09
-1.92704e-08
1.00561e-08
-2.17253e-08
1.07035e-08
-2.43118e-08
1.13235e-08
-2.70241e-08
1.19145e-08
-2.98561e-08
1.24753e-08
-3.28013e-08
1.3005e-08
-3.5853e-08
1.35028e-08
-3.90046e-08
1.3968e-08
-4.22489e-08
1.44002e-08
-4.5579e-08
1.47991e-08
-4.89878e-08
1.51645e-08
-5.2468e-08
1.54963e-08
-5.60125e-08
1.57946e-08
-5.9614e-08
1.60594e-08
-6.32654e-08
1.62909e-08
-6.69595e-08
1.64894e-08
-7.06892e-08
1.66552e-08
-7.44475e-08
1.67885e-08
-7.82272e-08
1.68898e-08
-8.20216e-08
1.69596e-08
-8.58237e-08
1.69982e-08
-8.96268e-08
1.70062e-08
-9.34243e-08
1.69842e-08
-9.72097e-08
1.69325e-08
-1.00977e-07
1.68519e-08
-1.04719e-07
1.67428e-08
-1.0843e-07
1.6606e-08
-1.12104e-07
1.64419e-08
-1.15735e-07
1.62514e-08
-1.19318e-07