/*--------------------------------*- C++ -*----------------------------------*\
  =========                 |
  \\      /  F ield         | OpenFOAM: The Open Source CFD Toolbox
   \\    /   O peration     | Website:  https://openfoam.org
    \\  /    A nd           | Version:  7
     \\/     M anipulation  |
\*---------------------------------------------------------------------------*/
FoamFile
{
    version     2.0;
    format      ascii;
    class       volVectorField;
    location    "0.0875";
    object      U;
}
// * * * * * * * * * * * * * * * * * * * * * * * * * * * * * * * * * * * * * //

dimensions      [0 1 -1 0 0 0 0];

internalField   nonuniform List<vector> 
25600
(
(8.23129e-08 -1.88032e-07 0)
(2.69561e-06 -1.9611e-06 0)
(9.18951e-06 -3.29082e-06 0)
(1.772e-05 -3.8458e-06 0)
(2.65426e-05 -3.82446e-06 0)
(3.45623e-05 -3.43756e-06 0)
(4.10327e-05 -2.80351e-06 0)
(4.54402e-05 -2.02625e-06 0)
(4.74711e-05 -1.16273e-06 0)
(4.6917e-05 -2.60349e-07 0)
(4.36708e-05 6.57181e-07 0)
(3.76906e-05 1.56447e-06 0)
(2.89734e-05 2.45648e-06 0)
(1.75575e-05 3.30959e-06 0)
(3.49991e-06 4.1369e-06 0)
(-1.31226e-05 4.9235e-06 0)
(-3.2225e-05 5.6696e-06 0)
(-5.37079e-05 6.3805e-06 0)
(-7.74787e-05 7.0469e-06 0)
(-0.000103433 7.67372e-06 0)
(-0.000131457 8.26742e-06 0)
(-0.00016146 8.8232e-06 0)
(-0.000193329 9.34325e-06 0)
(-0.000226954 9.83781e-06 0)
(-0.000262238 1.02908e-05 0)
(-0.000299073 1.07168e-05 0)
(-0.000337348 1.11136e-05 0)
(-0.000376966 1.14778e-05 0)
(-0.000417825 1.18084e-05 0)
(-0.000459804 1.21105e-05 0)
(-0.000502818 1.2386e-05 0)
(-0.000546762 1.26299e-05 0)
(-0.000591523 1.2844e-05 0)
(-0.000637006 1.30279e-05 0)
(-0.000683113 1.31798e-05 0)
(-0.000729741 1.33047e-05 0)
(-0.000776796 1.34087e-05 0)
(-0.000824188 1.34897e-05 0)
(-0.000871827 1.35461e-05 0)
(-0.000919623 1.35789e-05 0)
(-0.000967489 1.35864e-05 0)
(-0.00101534 1.35664e-05 0)
(-0.0010631 1.35213e-05 0)
(-0.00111068 1.34558e-05 0)
(-0.001158 1.33706e-05 0)
(-0.00120497 1.32628e-05 0)
(-0.00125153 1.31316e-05 0)
(-0.00129758 1.29789e-05 0)
(-0.00134306 1.28049e-05 0)
(-0.0013879 1.2608e-05 0)
(-0.00143201 1.23907e-05 0)
(-0.00147534 1.21563e-05 0)
(-0.00151781 1.19032e-05 0)
(-0.00155937 1.16312e-05 0)
(-0.00159994 1.13407e-05 0)
(-0.00163947 1.10325e-05 0)
(-0.0016779 1.07078e-05 0)
(-0.00171516 1.03666e-05 0)
(-0.0017512 1.00087e-05 0)
(-0.00178598 9.63662e-06 0)
(-0.00181943 9.25158e-06 0)
(-0.00185152 8.85344e-06 0)
(-0.0018822 8.44339e-06 0)
(-0.00191142 8.02268e-06 0)
(-0.00193915 7.59283e-06 0)
(-0.00196536 7.15538e-06 0)
(-0.00199 6.70956e-06 0)
(-0.00201306 6.25462e-06 0)
(-0.00203448 5.79245e-06 0)
(-0.00205426 5.32439e-06 0)
(-0.00207236 4.85026e-06 0)
(-0.00208876 4.3704e-06 0)
(-0.00210344 3.88499e-06 0)
(-0.00211637 3.3939e-06 0)
(-0.00212755 2.89776e-06 0)
(-0.00213694 2.39709e-06 0)
(-0.00214454 1.89189e-06 0)
(-0.00215034 1.38297e-06 0)
(-0.00215431 8.71523e-07 0)
(-0.00215645 3.57551e-07 0)
(-0.00215676 -1.59388e-07 0)
(-0.00215523 -6.78324e-07 0)
(-0.00215186 -1.1974e-06 0)
(-0.00214665 -1.71551e-06 0)
(-0.00213961 -2.23228e-06 0)
(-0.00213073 -2.74765e-06 0)
(-0.00212003 -3.26162e-06 0)
(-0.00210751 -3.77327e-06 0)
(-0.0020932 -4.28047e-06 0)
(-0.0020771 -4.78145e-06 0)
(-0.00205925 -5.27595e-06 0)
(-0.00203965 -5.76427e-06 0)
(-0.00201834 -6.24619e-06 0)
(-0.00199534 -6.72085e-06 0)
(-0.00197068 -7.18721e-06 0)
(-0.0019444 -7.64427e-06 0)
(-0.00191651 -8.09117e-06 0)
(-0.00188708 -8.52736e-06 0)
(-0.00185612 -8.95222e-06 0)
(-0.0018237 -9.36467e-06 0)
(-0.00178985 -9.76336e-06 0)
(-0.00175462 -1.01476e-05 0)
(-0.00171806 -1.05171e-05 0)
(-0.00168023 -1.08714e-05 0)
(-0.00164119 -1.12091e-05 0)
(-0.00160099 -1.1529e-05 0)
(-0.00155969 -1.18304e-05 0)
(-0.00151737 -1.21129e-05 0)
(-0.00147408 -1.23756e-05 0)
(-0.00142991 -1.26178e-05 0)
(-0.00138492 -1.28388e-05 0)
(-0.00133919 -1.30382e-05 0)
(-0.00129279 -1.32153e-05 0)
(-0.0012458 -1.33694e-05 0)
(-0.00119832 -1.34999e-05 0)
(-0.00115041 -1.36067e-05 0)
(-0.00110216 -1.36896e-05 0)
(-0.00105367 -1.37475e-05 0)
(-0.00100501 -1.37795e-05 0)
(-0.000956292 -1.37852e-05 0)
(-0.000907597 -1.37646e-05 0)
(-0.000859021 -1.37175e-05 0)
(-0.000810661 -1.36432e-05 0)
(-0.000762615 -1.3541e-05 0)
(-0.000714982 -1.34098e-05 0)
(-0.000667864 -1.3249e-05 0)
(-0.000621363 -1.30578e-05 0)
(-0.000575584 -1.28361e-05 0)
(-0.000530634 -1.25835e-05 0)
(-0.000486618 -1.22996e-05 0)
(-0.000443643 -1.19842e-05 0)
(-0.000401815 -1.16371e-05 0)
(-0.000361241 -1.12585e-05 0)
(-0.000322028 -1.08488e-05 0)
(-0.000284281 -1.04082e-05 0)
(-0.000248106 -9.93693e-06 0)
(-0.000213605 -9.43496e-06 0)
(-0.00018088 -8.90254e-06 0)
(-0.000150031 -8.34023e-06 0)
(-0.000121155 -7.74904e-06 0)
(-9.43452e-05 -7.13001e-06 0)
(-6.96906e-05 -6.48367e-06 0)
(-4.72765e-05 -5.81075e-06 0)
(-2.71815e-05 -5.1123e-06 0)
(-9.47788e-06 -4.38989e-06 0)
(5.77161e-06 -3.64652e-06 0)
(1.85166e-05 -2.88573e-06 0)
(2.87209e-05 -2.11147e-06 0)
(3.63677e-05 -1.32964e-06 0)
(4.14642e-05 -5.47155e-07 0)
(4.40474e-05 2.26188e-07 0)
(4.41972e-05 9.74837e-07 0)
(4.20482e-05 1.67836e-06 0)
(3.78085e-05 2.30647e-06 0)
(3.17916e-05 2.81312e-06 0)
(2.44536e-05 3.13103e-06 0)
(1.64434e-05 3.1581e-06 0)
(8.69199e-06 2.74068e-06 0)
(2.64358e-06 1.68793e-06 0)
(1.36402e-07 1.37935e-07 0)
(1.34873e-06 -2.5606e-06 0)
(8.44524e-06 -9.35344e-06 0)
(2.2034e-05 -1.41583e-05 0)
(3.8719e-05 -1.59884e-05 0)
(5.54232e-05 -1.54303e-05 0)
(6.99108e-05 -1.31667e-05 0)
(8.05366e-05 -9.71052e-06 0)
(8.60761e-05 -5.45225e-06 0)
(8.56531e-05 -6.65809e-07 0)
(7.86749e-05 4.43101e-06 0)
(6.47681e-05 9.70612e-06 0)
(4.37204e-05 1.50338e-05 0)
(1.54331e-05 2.03475e-05 0)
(-2.00841e-05 2.55826e-05 0)
(-6.27501e-05 3.06987e-05 0)
(-0.000112446 3.5664e-05 0)
(-0.000168977 4.04657e-05 0)
(-0.000232152 4.50779e-05 0)
(-0.000301732 4.95e-05 0)
(-0.000377459 5.37157e-05 0)
(-0.000459087 5.77337e-05 0)
(-0.000546335 6.15366e-05 0)
(-0.000638905 6.5147e-05 0)
(-0.000736537 6.85343e-05 0)
(-0.000838924 7.17252e-05 0)
(-0.000945762 7.46988e-05 0)
(-0.00105678 7.74732e-05 0)
(-0.00117167 8.00321e-05 0)
(-0.00129012 8.23906e-05 0)
(-0.00141186 8.45415e-05 0)
(-0.00153658 8.64862e-05 0)
(-0.00166399 8.82303e-05 0)
(-0.0017938 8.9773e-05 0)
(-0.00192572 9.11122e-05 0)
(-0.00205946 9.22535e-05 0)
(-0.00219474 9.32033e-05 0)
(-0.00233129 9.39676e-05 0)
(-0.00246884 9.4549e-05 0)
(-0.00260712 9.49544e-05 0)
(-0.00274588 9.5189e-05 0)
(-0.00288484 9.52511e-05 0)
(-0.00302377 9.51415e-05 0)
(-0.00316243 9.48651e-05 0)
(-0.00330055 9.44254e-05 0)
(-0.00343792 9.3824e-05 0)
(-0.0035743 9.30635e-05 0)
(-0.00370946 9.21499e-05 0)
(-0.00384317 9.10856e-05 0)
(-0.00397522 8.98727e-05 0)
(-0.0041054 8.85154e-05 0)
(-0.0042335 8.70181e-05 0)
(-0.00435933 8.53864e-05 0)
(-0.00448268 8.36233e-05 0)
(-0.00460338 8.17313e-05 0)
(-0.00472123 7.97164e-05 0)
(-0.00483606 7.75817e-05 0)
(-0.0049477 7.53297e-05 0)
(-0.00505599 7.29652e-05 0)
(-0.00516077 7.04931e-05 0)
(-0.00526188 6.7919e-05 0)
(-0.00535918 6.52496e-05 0)
(-0.00545253 6.2489e-05 0)
(-0.00554181 5.96416e-05 0)
(-0.00562688 5.67142e-05 0)
(-0.00570764 5.37123e-05 0)
(-0.00578396 5.06394e-05 0)
(-0.00585575 4.75001e-05 0)
(-0.00592291 4.42981e-05 0)
(-0.00598534 4.10379e-05 0)
(-0.00604297 3.77242e-05 0)
(-0.0060957 3.43608e-05 0)
(-0.00614348 3.09508e-05 0)
(-0.00618623 2.74981e-05 0)
(-0.00622389 2.40066e-05 0)
(-0.0062564 2.04795e-05 0)
(-0.00628372 1.69188e-05 0)
(-0.0063058 1.33285e-05 0)
(-0.00632261 9.71464e-06 0)
(-0.00633411 6.0824e-06 0)
(-0.00634028 2.43537e-06 0)
(-0.00634111 -1.22303e-06 0)
(-0.00633658 -4.88801e-06 0)
(-0.00632669 -8.55382e-06 0)
(-0.00631144 -1.22148e-05 0)
(-0.00629085 -1.58661e-05 0)
(-0.00626493 -1.95032e-05 0)
(-0.00623372 -2.31218e-05 0)
(-0.00619724 -2.67165e-05 0)
(-0.00615553 -3.028e-05 0)
(-0.00610865 -3.3806e-05 0)
(-0.00605666 -3.729e-05 0)
(-0.0059996 -4.07282e-05 0)
(-0.00593757 -4.41159e-05 0)
(-0.00587064 -4.74478e-05 0)
(-0.00579889 -5.07188e-05 0)
(-0.00572242 -5.39237e-05 0)
(-0.00564133 -5.70569e-05 0)
(-0.00555573 -6.01126e-05 0)
(-0.00546574 -6.3085e-05 0)
(-0.00537148 -6.59683e-05 0)
(-0.00527309 -6.87571e-05 0)
(-0.00517072 -7.14466e-05 0)
(-0.0050645 -7.40317e-05 0)
(-0.0049546 -7.65068e-05 0)
(-0.00484118 -7.88656e-05 0)
(-0.00472442 -8.11021e-05 0)
(-0.0046045 -8.32116e-05 0)
(-0.00448159 -8.51895e-05 0)
(-0.00435591 -8.70306e-05 0)
(-0.00422766 -8.87292e-05 0)
(-0.00409703 -9.02806e-05 0)
(-0.00396425 -9.16805e-05 0)
(-0.00382955 -9.29249e-05 0)
(-0.00369314 -9.40097e-05 0)
(-0.00355528 -9.49307e-05 0)
(-0.00341619 -9.56836e-05 0)
(-0.00327613 -9.62644e-05 0)
(-0.00313535 -9.66691e-05 0)
(-0.00299411 -9.68938e-05 0)
(-0.00285267 -9.69353e-05 0)
(-0.00271131 -9.67904e-05 0)
(-0.0025703 -9.64557e-05 0)
(-0.00242991 -9.59281e-05 0)
(-0.00229044 -9.5204e-05 0)
(-0.00215216 -9.42801e-05 0)
(-0.00201536 -9.31533e-05 0)
(-0.00188035 -9.18206e-05 0)
(-0.00174743 -9.02795e-05 0)
(-0.00161688 -8.85284e-05 0)
(-0.00148901 -8.65664e-05 0)
(-0.00136412 -8.4393e-05 0)
(-0.00124252 -8.20083e-05 0)
(-0.0011245 -7.94127e-05 0)
(-0.00101037 -7.66074e-05 0)
(-0.00090042 -7.35942e-05 0)
(-0.000794948 -7.0375e-05 0)
(-0.00069424 -6.6953e-05 0)
(-0.000598578 -6.33321e-05 0)
(-0.000508238 -5.95178e-05 0)
(-0.000423487 -5.55166e-05 0)
(-0.000344579 -5.13363e-05 0)
(-0.000271754 -4.69855e-05 0)
(-0.000205237 -4.24744e-05 0)
(-0.000145229 -3.78167e-05 0)
(-9.19079e-05 -3.30298e-05 0)
(-4.54229e-05 -2.81358e-05 0)
(-5.88456e-06 -2.31624e-05 0)
(2.66432e-05 -1.81435e-05 0)
(5.21558e-05 -1.31219e-05 0)
(7.0722e-05 -8.15355e-06 0)
(8.25011e-05 -3.31051e-06 0)
(8.77683e-05 1.31104e-06 0)
(8.69455e-05 5.58291e-06 0)
(8.06423e-05 9.33559e-06 0)
(6.97136e-05 1.23373e-05 0)
(5.53239e-05 1.42748e-05 0)
(3.89961e-05 1.47351e-05 0)
(2.26736e-05 1.31876e-05 0)
(9.07813e-06 9.07526e-06 0)
(1.68556e-06 2.64363e-06 0)
(2.07923e-06 -7.92253e-06 0)
(1.15419e-05 -2.21838e-05 0)
(2.82364e-05 -3.15834e-05 0)
(4.76915e-05 -3.46613e-05 0)
(6.60768e-05 -3.24799e-05 0)
(8.06454e-05 -2.63014e-05 0)
(8.92399e-05 -1.71992e-05 0)
(9.01807e-05 -5.99391e-06 0)
(8.22072e-05 6.64473e-06 0)
(6.44127e-05 2.02515e-05 0)
(3.61806e-05 3.4421e-05 0)
(-2.88217e-06 4.88942e-05 0)
(-5.29783e-05 6.34238e-05 0)
(-0.000114187 7.78687e-05 0)
(-0.00018646 9.2076e-05 0)
(-0.000269641 0.00010598 0)
(-0.000363533 0.000119481 0)
(-0.000467853 0.000132539 0)
(-0.00058228 0.000145114 0)
(-0.00070646 0.000157161 0)
(-0.00084 0.000168666 0)
(-0.000982493 0.000179619 0)
(-0.00113352 0.000189997 0)
(-0.00129262 0.000199792 0)
(-0.00145935 0.000209011 0)
(-0.00163326 0.000217627 0)
(-0.00181386 0.000225656 0)
(-0.0020007 0.000233097 0)
(-0.0021933 0.000239937 0)
(-0.00239119 0.000246188 0)
(-0.00259389 0.000251855 0)
(-0.00280095 0.000256934 0)
(-0.00301189 0.000261433 0)
(-0.00322625 0.000265361 0)
(-0.00344357 0.000268721 0)
(-0.00366341 0.000271523 0)
(-0.00388531 0.00027378 0)
(-0.00410884 0.000275501 0)
(-0.00433357 0.000276697 0)
(-0.00455906 0.000277381 0)
(-0.00478491 0.000277564 0)
(-0.00501071 0.00027725 0)
(-0.00523604 0.000276449 0)
(-0.00546052 0.000275169 0)
(-0.00568376 0.000273417 0)
(-0.00590539 0.000271204 0)
(-0.00612504 0.000268542 0)
(-0.00634234 0.000265442 0)
(-0.00655694 0.000261913 0)
(-0.00676851 0.000257968 0)
(-0.00697671 0.000253618 0)
(-0.00718121 0.000248874 0)
(-0.0073817 0.000243747 0)
(-0.00757788 0.000238251 0)
(-0.00776945 0.000232395 0)
(-0.00795613 0.000226193 0)
(-0.00813763 0.000219655 0)
(-0.0083137 0.000212792 0)
(-0.00848408 0.000205619 0)
(-0.00864851 0.00019815 0)
(-0.00880678 0.000190399 0)
(-0.00895864 0.000182381 0)
(-0.00910389 0.000174108 0)
(-0.00924233 0.000165595 0)
(-0.00937374 0.000156856 0)
(-0.00949797 0.000147903 0)
(-0.00961482 0.000138748 0)
(-0.00972414 0.000129405 0)
(-0.00982577 0.000119886 0)
(-0.00991958 0.000110204 0)
(-0.0100054 0.00010037 0)
(-0.0100832 9.03961e-05 0)
(-0.0101527 8.02946e-05 0)
(-0.010214 7.00771e-05 0)
(-0.0102669 5.9755e-05 0)
(-0.0103113 4.93391e-05 0)
(-0.0103472 3.88409e-05 0)
(-0.0103745 2.82748e-05 0)
(-0.0103931 1.76559e-05 0)
(-0.0104031 6.99672e-06 0)
(-0.0104043 -3.69029e-06 0)
(-0.0103968 -1.43915e-05 0)
(-0.0103807 -2.50923e-05 0)
(-0.0103558 -3.57775e-05 0)
(-0.0103222 -4.64325e-05 0)
(-0.0102799 -5.7043e-05 0)
(-0.010229 -6.75946e-05 0)
(-0.0101696 -7.80717e-05 0)
(-0.0101017 -8.84578e-05 0)
(-0.0100253 -9.87369e-05 0)
(-0.00994068 -0.000108895 0)
(-0.00984782 -0.000118917 0)
(-0.00974686 -0.000128789 0)
(-0.00963794 -0.000138496 0)
(-0.0095212 -0.000148022 0)
(-0.00939679 -0.000157352 0)
(-0.00926488 -0.00016647 0)
(-0.00912565 -0.000175361 0)
(-0.0089793 -0.000184008 0)
(-0.00882603 -0.000192395 0)
(-0.00866606 -0.000200506 0)
(-0.00849962 -0.000208327 0)
(-0.00832695 -0.000215843 0)
(-0.00814832 -0.000223036 0)
(-0.00796398 -0.000229892 0)
(-0.00777421 -0.000236393 0)
(-0.00757932 -0.000242526 0)
(-0.0073796 -0.000248276 0)
(-0.00717538 -0.000253629 0)
(-0.00696697 -0.000258569 0)
(-0.00675473 -0.000263083 0)
(-0.00653899 -0.000267158 0)
(-0.00632013 -0.00027078 0)
(-0.00609851 -0.000273938 0)
(-0.00587451 -0.000276619 0)
(-0.00564853 -0.000278811 0)
(-0.00542097 -0.000280501 0)
(-0.00519224 -0.00028168 0)
(-0.00496276 -0.000282335 0)
(-0.00473296 -0.000282457 0)
(-0.00450327 -0.000282036 0)
(-0.00427414 -0.000281063 0)
(-0.00404602 -0.000279529 0)
(-0.00381936 -0.000277426 0)
(-0.00359464 -0.000274744 0)
(-0.00337231 -0.000271477 0)
(-0.00315285 -0.000267618 0)
(-0.00293674 -0.000263162 0)
(-0.00272445 -0.000258105 0)
(-0.00251646 -0.000252445 0)
(-0.00231326 -0.000246181 0)
(-0.00211533 -0.000239313 0)
(-0.00192313 -0.000231844 0)
(-0.00173716 -0.000223779 0)
(-0.00155788 -0.000215122 0)
(-0.00138575 -0.000205883 0)
(-0.00122123 -0.00019607 0)
(-0.00106475 -0.000185699 0)
(-0.000916756 -0.000174786 0)
(-0.000777651 -0.000163351 0)
(-0.000647831 -0.000151421 0)
(-0.000527661 -0.000139024 0)
(-0.000417479 -0.000126198 0)
(-0.000317583 -0.000112985 0)
(-0.000228232 -9.94428e-05 0)
(-0.00014963 -8.56382e-05 0)
(-8.19192e-05 -7.16559e-05 0)
(-2.5164e-05 -5.75994e-05 0)
(2.06673e-05 -4.3598e-05 0)
(5.57225e-05 -2.98141e-05 0)
(8.029e-05 -1.64533e-05 0)
(9.48326e-05 -3.77875e-06 0)
(0.000100026 7.87274e-06 0)
(9.68062e-05 1.80691e-05 0)
(8.64351e-05 2.62549e-05 0)
(7.05596e-05 3.1726e-05 0)
(5.12384e-05 3.36164e-05 0)
(3.09679e-05 3.09236e-05 0)
(1.32109e-05 2.26752e-05 0)
(2.7422e-06 8.6962e-06 0)
(2.29177e-06 -1.44723e-05 0)
(1.23908e-05 -3.68696e-05 0)
(2.94012e-05 -5.0446e-05 0)
(4.80955e-05 -5.37577e-05 0)
(6.42161e-05 -4.84158e-05 0)
(7.46627e-05 -3.63787e-05 0)
(7.69906e-05 -1.92656e-05 0)
(6.92307e-05 1.57499e-06 0)
(4.98681e-05 2.50979e-05 0)
(1.77667e-05 5.04563e-05 0)
(-2.78758e-05 7.69933e-05 0)
(-8.75947e-05 0.000104193 0)
(-0.000161716 0.000131654 0)
(-0.000250368 0.000159044 0)
(-0.000353531 0.000186135 0)
(-0.000471083 0.000212708 0)
(-0.000602785 0.000238629 0)
(-0.000748302 0.000263779 0)
(-0.000907268 0.000288044 0)
(-0.00107922 0.000311379 0)
(-0.00126368 0.000333703 0)
(-0.00146013 0.000354987 0)
(-0.00166801 0.000375185 0)
(-0.00188673 0.000394297 0)
(-0.00211573 0.000412266 0)
(-0.00235437 0.000429116 0)
(-0.00260205 0.000444814 0)
(-0.00285814 0.000459366 0)
(-0.00312201 0.000472769 0)
(-0.00339303 0.000485023 0)
(-0.00367056 0.00049613 0)
(-0.00395399 0.000506101 0)
(-0.00424267 0.000514942 0)
(-0.004536 0.000522663 0)
(-0.00483334 0.00052928 0)
(-0.0051341 0.000534812 0)
(-0.00543766 0.000539271 0)
(-0.00574344 0.000542673 0)
(-0.00605083 0.00054504 0)
(-0.00635926 0.000546392 0)
(-0.00666817 0.000546746 0)
(-0.00697699 0.000546122 0)
(-0.00728518 0.000544539 0)
(-0.00759219 0.000542012 0)
(-0.00789751 0.000538559 0)
(-0.00820061 0.000534201 0)
(-0.008501 0.00052896 0)
(-0.00879818 0.000522856 0)
(-0.00909167 0.000515911 0)
(-0.00938102 0.000508148 0)
(-0.00966575 0.000499589 0)
(-0.00994543 0.000490256 0)
(-0.0102196 0.000480171 0)
(-0.0104879 0.000469359 0)
(-0.01075 0.000457842 0)
(-0.0110053 0.000445644 0)
(-0.0112535 0.000432788 0)
(-0.0114944 0.000419298 0)
(-0.0117274 0.000405198 0)
(-0.0119524 0.000390516 0)
(-0.0121689 0.000375276 0)
(-0.0123766 0.000359505 0)
(-0.0125753 0.000343229 0)
(-0.0127647 0.000326476 0)
(-0.0129445 0.000309268 0)
(-0.0131145 0.000291632 0)
(-0.0132744 0.000273593 0)
(-0.013424 0.000255176 0)
(-0.013563 0.000236406 0)
(-0.0136913 0.000217308 0)
(-0.0138088 0.000197905 0)
(-0.0139151 0.000178222 0)
(-0.0140103 0.000158283 0)
(-0.0140941 0.000138115 0)
(-0.0141664 0.00011774 0)
(-0.0142271 9.71817e-05 0)
(-0.0142761 7.64662e-05 0)
(-0.0143133 5.56198e-05 0)
(-0.0143387 3.46693e-05 0)
(-0.0143522 1.3642e-05 0)
(-0.0143539 -7.43568e-06 0)
(-0.0143435 -2.85366e-05 0)
(-0.0143213 -4.96324e-05 0)
(-0.0142871 -7.06945e-05 0)
(-0.014241 -9.16945e-05 0)
(-0.0141831 -0.000112604 0)
(-0.0141134 -0.000133394 0)
(-0.014032 -0.000154033 0)
(-0.013939 -0.000174492 0)
(-0.0138344 -0.00019474 0)
(-0.0137185 -0.000214748 0)
(-0.0135914 -0.000234488 0)
(-0.0134532 -0.000253928 0)
(-0.0133042 -0.00027304 0)
(-0.0131444 -0.000291793 0)
(-0.0129742 -0.000310157 0)
(-0.0127937 -0.000328101 0)
(-0.0126033 -0.000345595 0)
(-0.0124031 -0.000362607 0)
(-0.0121934 -0.000379105 0)
(-0.0119746 -0.00039506 0)
(-0.011747 -0.000410442 0)
(-0.0115109 -0.000425221 0)
(-0.0112666 -0.000439366 0)
(-0.0110145 -0.000452845 0)
(-0.0107551 -0.000465629 0)
(-0.0104886 -0.000477689 0)
(-0.0102156 -0.000488996 0)
(-0.00993636 -0.000499522 0)
(-0.00965146 -0.000509239 0)
(-0.00936131 -0.000518119 0)
(-0.00906639 -0.000526136 0)
(-0.0087672 -0.000533264 0)
(-0.00846425 -0.000539478 0)
(-0.00815805 -0.000544756 0)
(-0.00784914 -0.000549071 0)
(-0.00753806 -0.000552402 0)
(-0.00722538 -0.000554726 0)
(-0.00691166 -0.000556022 0)
(-0.00659749 -0.000556272 0)
(-0.00628347 -0.000555455 0)
(-0.00597018 -0.000553555 0)
(-0.00565826 -0.000550553 0)
(-0.00534831 -0.000546435 0)
(-0.00504096 -0.000541187 0)
(-0.00473684 -0.000534796 0)
(-0.0044366 -0.000527251 0)
(-0.00414088 -0.000518544 0)
(-0.00385031 -0.000508668 0)
(-0.00356555 -0.00049762 0)
(-0.00328724 -0.000485399 0)
(-0.00301602 -0.000472009 0)
(-0.00275255 -0.000457456 0)
(-0.00249744 -0.000441748 0)
(-0.00225132 -0.0004249 0)
(-0.00201482 -0.000406928 0)
(-0.00178853 -0.000387857 0)
(-0.00157304 -0.000367714 0)
(-0.00136891 -0.000346537 0)
(-0.00117668 -0.00032437 0)
(-0.000996864 -0.000301264 0)
(-0.000829931 -0.000277285 0)
(-0.000676309 -0.000252508 0)
(-0.000536376 -0.000227027 0)
(-0.000410448 -0.000200956 0)
(-0.000298769 -0.000174432 0)
(-0.000201495 -0.000147625 0)
(-0.000118677 -0.000120739 0)
(-5.0242e-05 -9.40277e-05 0)
(4.03706e-06 -6.78034e-05 0)
(4.4564e-05 -4.24535e-05 0)
(7.19583e-05 -1.84614e-05 0)
(8.70956e-05 3.56884e-06 0)
(9.11542e-05 2.28854e-05 0)
(8.5675e-05 3.85542e-05 0)
(7.2617e-05 4.94329e-05 0)
(5.43679e-05 5.41637e-05 0)
(3.37726e-05 5.12157e-05 0)
(1.48068e-05 3.90386e-05 0)
(3.16916e-06 1.64693e-05 0)
(2.18895e-06 -2.10014e-05 0)
(1.15809e-05 -5.09309e-05 0)
(2.65799e-05 -6.75439e-05 0)
(4.16697e-05 -6.9511e-05 0)
(5.23446e-05 -5.92006e-05 0)
(5.53189e-05 -3.92471e-05 0)
(4.79672e-05 -1.18864e-05 0)
(2.81572e-05 2.10684e-05 0)
(-5.78628e-06 5.81018e-05 0)
(-5.51606e-05 9.80313e-05 0)
(-0.00012089 0.000139888 0)
(-0.00020362 0.000182881 0)
(-0.000303754 0.000226409 0)
(-0.000421481 0.000269954 0)
(-0.000556828 0.000313126 0)
(-0.000709654 0.000355599 0)
(-0.000879699 0.000397124 0)
(-0.00106663 0.000437488 0)
(-0.00127 0.000476537 0)
(-0.00148928 0.000514133 0)
(-0.00172391 0.00055017 0)
(-0.00197327 0.000584576 0)
(-0.00223669 0.000617274 0)
(-0.0025135 0.000648225 0)
(-0.00280297 0.00067738 0)
(-0.00310436 0.000704727 0)
(-0.00341693 0.00073023 0)
(-0.00373989 0.000753884 0)
(-0.0040725 0.000775686 0)
(-0.00441397 0.00079563 0)
(-0.00476352 0.000813722 0)
(-0.00512037 0.00082997 0)
(-0.00548376 0.000844384 0)
(-0.0058529 0.000856981 0)
(-0.00622704 0.000867783 0)
(-0.00660541 0.000876812 0)
(-0.00698727 0.000884094 0)
(-0.00737186 0.000889656 0)
(-0.00775846 0.000893525 0)
(-0.00814634 0.000895727 0)
(-0.00853479 0.000896293 0)
(-0.00892311 0.000895255 0)
(-0.00931061 0.000892643 0)
(-0.00969663 0.000888487 0)
(-0.0100805 0.000882818 0)
(-0.0104616 0.00087567 0)
(-0.0108392 0.000867077 0)
(-0.0112129 0.000857072 0)
(-0.0115818 0.00084569 0)
(-0.0119456 0.00083297 0)
(-0.0123036 0.000818947 0)
(-0.0126552 0.000803658 0)
(-0.0129999 0.000787139 0)
(-0.0133372 0.000769428 0)
(-0.0136666 0.000750565 0)
(-0.0139876 0.000730587 0)
(-0.0142997 0.000709531 0)
(-0.0146024 0.000687439 0)
(-0.0148954 0.00066435 0)
(-0.0151782 0.000640305 0)
(-0.0154504 0.000615345 0)
(-0.0157116 0.000589511 0)
(-0.0159614 0.000562845 0)
(-0.0161995 0.000535391 0)
(-0.0164256 0.000507187 0)
(-0.0166393 0.000478275 0)
(-0.0168402 0.000448695 0)
(-0.0170283 0.00041849 0)
(-0.0172031 0.000387701 0)
(-0.0173644 0.000356366 0)
(-0.017512 0.000324529 0)
(-0.0176456 0.00029223 0)
(-0.0177652 0.000259509 0)
(-0.0178705 0.000226407 0)
(-0.0179613 0.000192967 0)
(-0.0180375 0.000159228 0)
(-0.018099 0.000125235 0)
(-0.0181458 9.10304e-05 0)
(-0.0181776 5.66578e-05 0)
(-0.0181945 2.21608e-05 0)
(-0.0181964 -1.24157e-05 0)
(-0.0181833 -4.70255e-05 0)
(-0.0181552 -8.16223e-05 0)
(-0.0181121 -0.00011616 0)
(-0.018054 -0.000150593 0)
(-0.0179811 -0.000184874 0)
(-0.0178933 -0.000218955 0)
(-0.0177909 -0.000252786 0)
(-0.0176738 -0.000286319 0)
(-0.0175423 -0.000319505 0)
(-0.0173965 -0.000352296 0)
(-0.0172366 -0.000384644 0)
(-0.0170628 -0.000416499 0)
(-0.0168754 -0.000447812 0)
(-0.0166745 -0.000478533 0)
(-0.0164604 -0.000508614 0)
(-0.0162335 -0.000538004 0)
(-0.015994 -0.000566653 0)
(-0.0157424 -0.000594509 0)
(-0.0154788 -0.000621524 0)
(-0.0152038 -0.000647648 0)
(-0.0149177 -0.000672831 0)
(-0.0146209 -0.000697024 0)
(-0.0143139 -0.000720176 0)
(-0.0139971 -0.00074224 0)
(-0.013671 -0.000763166 0)
(-0.0133361 -0.000782906 0)
(-0.012993 -0.000801416 0)
(-0.0126421 -0.000818647 0)
(-0.0122841 -0.000834555 0)
(-0.0119195 -0.000849094 0)
(-0.011549 -0.000862222 0)
(-0.011173 -0.000873897 0)
(-0.0107923 -0.000884078 0)
(-0.0104075 -0.000892726 0)
(-0.0100194 -0.000899802 0)
(-0.00962846 -0.000905269 0)
(-0.00923552 -0.000909091 0)
(-0.00884126 -0.000911234 0)
(-0.00844641 -0.000911667 0)
(-0.00805171 -0.000910361 0)
(-0.00765792 -0.000907285 0)
(-0.00726578 -0.000902415 0)
(-0.00687608 -0.000895726 0)
(-0.0064896 -0.000887196 0)
(-0.00610711 -0.000876809 0)
(-0.00572942 -0.000864548 0)
(-0.00535733 -0.000850401 0)
(-0.00499161 -0.000834361 0)
(-0.00463308 -0.000816424 0)
(-0.00428254 -0.00079659 0)
(-0.00394077 -0.000774867 0)
(-0.00360857 -0.000751267 0)
(-0.00328671 -0.000725807 0)
(-0.00297596 -0.000698512 0)
(-0.00267708 -0.000669415 0)
(-0.00239079 -0.000638556 0)
(-0.00211781 -0.000605986 0)
(-0.00185882 -0.00057177 0)
(-0.00161447 -0.000535982 0)
(-0.00138537 -0.000498714 0)
(-0.00117208 -0.000460077 0)
(-0.000975098 -0.0004202 0)
(-0.000794874 -0.000379243 0)
(-0.000631766 -0.000337395 0)
(-0.000486045 -0.000294886 0)
(-0.000357872 -0.000251991 0)
(-0.000247285 -0.000209044 0)
(-0.000154167 -0.00016645 0)
(-7.82261e-05 -0.000124702 0)
(-1.89657e-05 -8.44005e-05 0)
(2.43533e-05 -4.62823e-05 0)
(5.27514e-05 -1.12475e-05 0)
(6.75735e-05 1.96067e-05 0)
(7.05418e-05 4.49501e-05 0)
(6.38077e-05 6.31903e-05 0)
(4.99606e-05 7.24603e-05 0)
(3.20739e-05 7.06488e-05 0)
(1.44268e-05 5.54802e-05 0)
(3.15772e-06 2.45343e-05 0)
(1.88384e-06 -2.67682e-05 0)
(9.5579e-06 -6.27321e-05 0)
(2.0662e-05 -8.06377e-05 0)
(2.97593e-05 -7.93635e-05 0)
(3.23589e-05 -6.2034e-05 0)
(2.50672e-05 -3.20139e-05 0)
(5.20001e-06 7.89817e-06 0)
(-2.94752e-05 5.53506e-05 0)
(-8.07215e-05 0.000108436 0)
(-0.000149889 0.000165571 0)
(-0.000238029 0.000225466 0)
(-0.000345832 0.000287075 0)
(-0.000473766 0.000349531 0)
(-0.000622068 0.000412136 0)
(-0.000790754 0.000474316 0)
(-0.000979716 0.000535611 0)
(-0.00118869 0.000595634 0)
(-0.00141727 0.000654081 0)
(-0.00166499 0.000710708 0)
(-0.00193128 0.000765298 0)
(-0.00221548 0.000817708 0)
(-0.0025169 0.000867781 0)
(-0.00283478 0.000915436 0)
(-0.00316833 0.00096057 0)
(-0.00351673 0.00100314 0)
(-0.00387912 0.00104307 0)
(-0.00425464 0.00108035 0)
(-0.00464239 0.00111495 0)
(-0.00504148 0.00114685 0)
(-0.00545099 0.00117605 0)
(-0.00587002 0.00120254 0)
(-0.00629766 0.00122635 0)
(-0.00673298 0.00124748 0)
(-0.00717509 0.00126596 0)
(-0.00762308 0.0012818 0)
(-0.00807605 0.00129504 0)
(-0.00853312 0.00130572 0)
(-0.0089934 0.00131387 0)
(-0.00945602 0.00131952 0)
(-0.00992014 0.00132273 0)
(-0.0103849 0.00132353 0)
(-0.0108495 0.00132196 0)
(-0.011313 0.00131807 0)
(-0.0117748 0.00131191 0)
(-0.0122339 0.00130352 0)
(-0.0126898 0.00129295 0)
(-0.0131415 0.00128025 0)
(-0.0135883 0.00126546 0)
(-0.0140296 0.00124865 0)
(-0.0144647 0.00122987 0)
(-0.0148928 0.00120917 0)
(-0.0153133 0.0011866 0)
(-0.0157255 0.00116221 0)
(-0.0161289 0.00113607 0)
(-0.0165228 0.00110823 0)
(-0.0169067 0.00107874 0)
(-0.0172799 0.00104767 0)
(-0.017642 0.00101506 0)
(-0.0179923 0.00098099 0)
(-0.0183305 0.000945503 0)
(-0.018656 0.000908663 0)
(-0.0189683 0.000870531 0)
(-0.0192671 0.000831169 0)
(-0.0195518 0.000790634 0)
(-0.019822 0.000748989 0)
(-0.0200775 0.000706293 0)
(-0.0203178 0.000662608 0)
(-0.0205426 0.000617993 0)
(-0.0207516 0.00057251 0)
(-0.0209444 0.000526219 0)
(-0.0211209 0.000479181 0)
(-0.0212806 0.000431457 0)
(-0.0214235 0.00038311 0)
(-0.0215493 0.0003342 0)
(-0.0216578 0.000284788 0)
(-0.0217489 0.000234938 0)
(-0.0218223 0.000184715 0)
(-0.0218781 0.000134182 0)
(-0.021916 8.34035e-05 0)
(-0.0219361 3.24453e-05 0)
(-0.0219383 -1.86261e-05 0)
(-0.0219225 -6.97434e-05 0)
(-0.0218887 -0.000120838 0)
(-0.0218371 -0.000171841 0)
(-0.0217675 -0.000222686 0)
(-0.0216802 -0.000273301 0)
(-0.0215751 -0.000323616 0)
(-0.0214525 -0.00037356 0)
(-0.0213124 -0.00042306 0)
(-0.021155 -0.000472047 0)
(-0.0209806 -0.000520448 0)
(-0.0207893 -0.000568191 0)
(-0.0205814 -0.000615202 0)
(-0.0203571 -0.00066141 0)
(-0.0201169 -0.000706742 0)
(-0.0198609 -0.000751125 0)
(-0.0195895 -0.000794484 0)
(-0.0193031 -0.000836747 0)
(-0.0190022 -0.000877839 0)
(-0.0186871 -0.000917687 0)
(-0.0183582 -0.000956218 0)
(-0.0180161 -0.000993359 0)
(-0.0176613 -0.00102904 0)
(-0.0172943 -0.00106318 0)
(-0.0169155 -0.00109572 0)
(-0.0165257 -0.00112658 0)
(-0.0161254 -0.00115569 0)
(-0.0157152 -0.00118299 0)
(-0.0152958 -0.0012084 0)
(-0.0148679 -0.00123186 0)
(-0.014432 -0.00125331 0)
(-0.013989 -0.00127268 0)
(-0.0135396 -0.00128991 0)
(-0.0130845 -0.00130494 0)
(-0.0126246 -0.00131772 0)
(-0.0121605 -0.00132818 0)
(-0.0116932 -0.00133627 0)
(-0.0112234 -0.00134194 0)
(-0.010752 -0.00134514 0)
(-0.0102798 -0.00134583 0)
(-0.00980781 -0.00134397 0)
(-0.00933683 -0.0013395 0)
(-0.00886778 -0.0013324 0)
(-0.00840157 -0.00132263 0)
(-0.00793913 -0.00131017 0)
(-0.00748138 -0.00129498 0)
(-0.00702927 -0.00127706 0)
(-0.00658372 -0.00125637 0)
(-0.00614568 -0.00123292 0)
(-0.00571609 -0.00120671 0)
(-0.00529588 -0.00117772 0)
(-0.00488599 -0.00114599 0)
(-0.00448734 -0.00111153 0)
(-0.00410084 -0.00107437 0)
(-0.00372739 -0.00103454 0)
(-0.00336786 -0.000992112 0)
(-0.00302309 -0.000947136 0)
(-0.00269392 -0.000899696 0)
(-0.00238114 -0.00084989 0)
(-0.00208547 -0.000797836 0)
(-0.00180763 -0.000743672 0)
(-0.00154825 -0.000687567 0)
(-0.0013079 -0.000629719 0)
(-0.00108707 -0.000570366 0)
(-0.000886161 -0.000509791 0)
(-0.000705462 -0.000448332 0)
(-0.000545143 -0.000386391 0)
(-0.000405224 -0.000324452 0)
(-0.000285561 -0.000263091 0)
(-0.000185811 -0.000203005 0)
(-0.00010541 -0.000145029 0)
(-4.35372e-05 -9.01709e-05 0)
(9.22505e-07 -3.96418e-05 0)
(2.94176e-05 5.10548e-06 0)
(4.37766e-05 4.2339e-05 0)
(4.62567e-05 7.00115e-05 0)
(3.95574e-05 8.57355e-05 0)
(2.68804e-05 8.67864e-05 0)
(1.26031e-05 7.00991e-05 0)
(2.86201e-06 3.19786e-05 0)
(1.46239e-06 -3.12471e-05 0)
(6.67241e-06 -7.09311e-05 0)
(1.2391e-05 -8.78441e-05 0)
(1.35926e-05 -8.10697e-05 0)
(5.94514e-06 -5.44766e-05 0)
(-1.38986e-05 -1.21077e-05 0)
(-4.86561e-05 4.2649e-05 0)
(-0.000100552 0.000106974 0)
(-0.000171364 0.000178528 0)
(-0.000262524 0.000255342 0)
(-0.000375063 0.000335824 0)
(-0.000509741 0.000418618 0)
(-0.000667051 0.000502619 0)
(-0.000847238 0.000586926 0)
(-0.00105036 0.000670764 0)
(-0.00127627 0.000753511 0)
(-0.0015247 0.00083466 0)
(-0.00179523 0.000913777 0)
(-0.00208733 0.000990512 0)
(-0.00240038 0.00106459 0)
(-0.00273369 0.00113576 0)
(-0.00308646 0.00120383 0)
(-0.00345786 0.00126868 0)
(-0.00384702 0.00133013 0)
(-0.00425302 0.00138813 0)
(-0.00467489 0.00144259 0)
(-0.00511166 0.00149345 0)
(-0.00556234 0.00154067 0)
(-0.00602589 0.00158423 0)
(-0.0065013 0.00162411 0)
(-0.00698754 0.00166032 0)
(-0.00748356 0.00169286 0)
(-0.00798833 0.00172175 0)
(-0.00850082 0.00174701 0)
(-0.00901999 0.00176868 0)
(-0.00954482 0.00178678 0)
(-0.0100743 0.00180137 0)
(-0.0106074 0.00181249 0)
(-0.0111431 0.00182019 0)
(-0.0116805 0.00182452 0)
(-0.0122186 0.00182554 0)
(-0.0127564 0.00182332 0)
(-0.013293 0.00181789 0)
(-0.0138275 0.00180934 0)
(-0.014359 0.00179773 0)
(-0.0148865 0.00178311 0)
(-0.0154093 0.00176557 0)
(-0.0159264 0.00174516 0)
(-0.0164371 0.00172196 0)
(-0.0169405 0.00169605 0)
(-0.0174359 0.00166748 0)
(-0.0179224 0.00163635 0)
(-0.0183995 0.00160272 0)
(-0.0188662 0.00156667 0)
(-0.019322 0.00152828 0)
(-0.0197661 0.00148762 0)
(-0.0201979 0.00144477 0)
(-0.0206168 0.00139982 0)
(-0.0210222 0.00135283 0)
(-0.0214134 0.0013039 0)
(-0.0217899 0.00125311 0)
(-0.0221513 0.00120053 0)
(-0.0224968 0.00114624 0)
(-0.0228262 0.00109034 0)
(-0.0231388 0.00103291 0)
(-0.0234344 0.000974017 0)
(-0.0237123 0.000913759 0)
(-0.0239723 0.000852216 0)
(-0.024214 0.00078947 0)
(-0.024437 0.000725606 0)
(-0.024641 0.000660709 0)
(-0.0248258 0.000594866 0)
(-0.024991 0.000528161 0)
(-0.0251364 0.000460679 0)
(-0.0252618 0.000392506 0)
(-0.025367 0.000323732 0)
(-0.0254519 0.000254443 0)
(-0.0255163 0.00018473 0)
(-0.0255601 0.000114683 0)
(-0.0255831 4.43908e-05 0)
(-0.0255855 -2.60528e-05 0)
(-0.0255671 -9.65549e-05 0)
(-0.0255279 -0.000167022 0)
(-0.025468 -0.00023736 0)
(-0.0253874 -0.000307474 0)
(-0.0252863 -0.000377267 0)