/*--------------------------------*- C++ -*----------------------------------*\
  =========                 |
  \\      /  F ield         | OpenFOAM: The Open Source CFD Toolbox
   \\    /   O peration     | Website:  https://openfoam.org
    \\  /    A nd           | Version:  7
     \\/     M anipulation  |
\*---------------------------------------------------------------------------*/
FoamFile
{
    version     2.0;
    format      ascii;
    class       volScalarField;
    location    "0.375";
    object      p;
}
// * * * * * * * * * * * * * * * * * * * * * * * * * * * * * * * * * * * * * //

dimensions      [0 2 -2 0 0 0 0];

internalField   nonuniform List<scalar> 
6400
(
1.24844e-05
3.38069e-05
-0.000471244
-0.001504
-0.00294642
-0.0046882
-0.00662903
-0.00867933
-0.0107619
-0.0128112
-0.0147723
-0.016599
-0.0182527
-0.0197019
-0.0209206
-0.0218882
-0.0225885
-0.0230093
-0.0231421
-0.0229816
-0.0225252
-0.0217731
-0.0207276
-0.0193934
-0.0177769
-0.0158863
-0.0137315
-0.0113237
-0.0086757
-0.00580125
-0.00271538
0.000565876
0.00402552
0.00764569
0.0114077
0.0152922
0.0192792
0.023348
0.0274776
0.0316465
0.0358329
0.0400146
0.0441695
0.0482753
0.0523097
0.0562506
0.0600762
0.0637652
0.0672966
0.0706501
0.0738063
0.0767468
0.0794542
0.0819124
0.0841067
0.0860242
0.0876537
0.0889859
0.0900138
0.090733
0.0911414
0.09124
0.0910328
0.0905271
0.089734
0.0886686
0.0873501
0.0858028
0.084056
0.082145
0.0801114
0.0780045
0.0758817
0.0738101
0.0718673
0.0701417
0.0687303
0.0677373
0.0672693
0.0673068
9.66645e-06
2.41108e-05
-0.000429256
-0.00131256
-0.00252643
-0.00399167
-0.00563239
-0.00737621
-0.00915787
-0.0109201
-0.0126132
-0.0141948
-0.0156286
-0.0168844
-0.0179372
-0.0187665
-0.0193561
-0.0196936
-0.0197697
-0.0195786
-0.0191168
-0.0183837
-0.0173805
-0.016111
-0.0145805
-0.0127961
-0.0107666
-0.00850206
-0.00601397
-0.00331503
-0.000419029
0.00265919
0.00590388
0.00929841
0.0128254
0.0164667
0.0202037
0.0240169
0.0278868
0.0317932
0.0357155
0.0396332
0.0435255
0.0473714
0.0511503
0.0548415
0.0584247
0.0618801
0.0651881
0.0683301
0.0712882
0.0740454
0.0765858
0.0788947
0.080959
0.082767
0.0843087
0.0855764
0.086564
0.0872681
0.0876876
0.0878244
0.087683
0.0872713
0.0866005
0.0856856
0.0845457
0.0832041
0.0816889
0.0800334
0.0782764
0.0764629
0.0746444
0.0728792
0.0712329
0.0697767
0.0685838
0.0677291
0.0673058
0.0673443
0.000517632
0.000479564
2.5699e-05
-0.000790213
-0.00188094
-0.00318318
-0.00463575
-0.00617858
-0.00775604
-0.00931808
-0.0108204
-0.0122243
-0.0134965
-0.0146086
-0.0155368
-0.0162615
-0.0167668
-0.0170404
-0.0170731
-0.0168585
-0.016393
-0.0156751
-0.0147057
-0.0134877
-0.0120257
-0.0103259
-0.00839637
-0.0062462
-0.003886
-0.00132751
0.00141642
0.00433196
0.00740433
0.0106179
0.0139564
0.0174027
0.0209391
0.0245475
0.0282092
0.0319052
0.0356162
0.0393226
0.0430049
0.0466433
0.0502182
0.0537103
0.0571004
0.0603698
0.0635003
0.0664744
0.0692754
0.0718874
0.0742957
0.0764867
0.0784484
0.0801701
0.0816428
0.0828595
0.0838152
0.084507
0.0849345
0.0851
0.0850083
0.0846675
0.0840887
0.0832865
0.0822793
0.0810893
0.079743
0.0782715
0.0767105
0.0751009
0.0734885
0.0719244
0.0704644
0.0691679
0.0680941
0.0673034
0.066881
0.0668784
0.0015507
0.00136562
0.000841906
2.26664e-05
-0.00102545
-0.00224887
-0.00359584
-0.00501563
-0.00646064
-0.00788727
-0.00925635
-0.0105331
-0.0116873
-0.0126928
-0.0135273
-0.0141726
-0.0146135
-0.0148381
-0.0148375
-0.0146054
-0.0141379
-0.0134333
-0.0124923
-0.0113171
-0.0099118
-0.00828217
-0.00643537
-0.00437998
-0.00212582
0.000316144
0.00293386
0.00571429
0.00864351
0.0117068
0.0148886
0.0181728
0.0215427
0.024981
0.0284699
0.0319915
0.0355272
0.0390587
0.0425671
0.0460339
0.0494404
0.0527682
0.0559992
0.0591156
0.0621002
0.0649366
0.0676088
0.070102
0.0724023
0.0744971
0.0763751
0.0780263
0.0794426
0.0806175
0.0815466
0.0822275
0.0826601
0.0828468
0.0827926
0.0825053
0.0819957
0.0812779
0.0803691
0.0792903
0.0780662
0.0767252
0.0753002
0.0738277
0.0723487
0.0709077
0.0695528
0.0683344
0.067303
0.0665102
0.0660242
0.0658886
0.00299957
0.00258802
0.00193645
0.00106429
8.72829e-06
-0.00118539
-0.00247417
-0.00381533
-0.00516859
-0.00649648
-0.00776479
-0.00894283
-0.0100035
-0.010923
-0.0116813
-0.0122613
-0.012649
-0.0128332
-0.0128054
-0.0125595
-0.0120918
-0.0114006
-0.010486
-0.00935016
-0.00799674
-0.00643099
-0.00465955
-0.00269038
-0.000532671
0.00180329
0.00430616
0.00696367
0.00976265
0.0126891
0.0157285
0.0188653
0.0220837
0.0253674
0.0286993
0.0320624
0.0354392
0.0388119
0.0421629
0.0454743
0.0487285
0.0519079
0.0549952
0.0579737
0.060827
0.0635393
0.0660958
0.0684823
0.0706857
0.0726942
0.0744971
0.0760851
0.0774506
0.0785876
0.0794921
0.0801621
0.0805975
0.0808008
0.0807769
0.0805333
0.0800802
0.0794308
0.0786013
0.0776111
0.0764828
0.0752424
0.0739193
0.0725462
0.0711591
0.0697967
0.0684998
0.0673111
0.0662735
0.065431
0.0648248
0.0644772
0.00476215
0.00407377
0.0032512
0.00228584
0.00118147
-2.48592e-05
-0.00129589
-0.00259691
-0.00389435
-0.0051564
-0.00635358
-0.00745915
-0.00844919
-0.00930264
-0.0100013
-0.0105298
-0.0108753
-0.0110275
-0.0109787
-0.0107231
-0.0102571
-0.0095792
-0.00868943
-0.0075897
-0.00628341
-0.00477543
-0.00307197
-0.00118051
0.00089034
0.00313087
0.00553037
0.00807724
0.010759
0.0135624
0.0164736
0.0194779
0.0225602
0.0257048
0.0288958
0.0321167
0.0353509
0.0385815
0.0417915
0.0449639
0.048082
0.0511289
0.0540882
0.0569439
0.0596803
0.0622825
0.0647363
0.0670282
0.0691458
0.0710778
0.0728141
0.074346
0.0756662
0.0767691
0.077651
0.0783098
0.0787459
0.0789613
0.0789607
0.0787512
0.0783423
0.0777461
0.0769777
0.0760547
0.0749977
0.0738301
0.0725781
0.0712705
0.0699387
0.0686158
0.0673367
0.0661365
0.0650522
0.0641205
0.0633513
0.0627405
0.00674773
0.00575431
0.00473095
0.00364079
0.00245368
0.00120017
-8.79618e-05
-0.00138268
-0.00265642
-0.00388248
-0.00503582
-0.00609344
-0.00703455
-0.00784071
-0.00849582
-0.00898617
-0.00930032
-0.00942907
-0.00936528
-0.00910387
-0.00864161
-0.00797704
-0.0071104
-0.00604347
-0.00477949
-0.00332307
-0.00168007
0.000142431
0.00213627
0.00429224
0.0066002
0.00904912
0.0116271
0.0143217
0.0171194
0.0200065
0.0229685
0.0259905
0.029057
0.0321526
0.0352611
0.0383665
0.0414526
0.0445031
0.0475018
0.0504326
0.0532799
0.0560283
0.0586628
0.061169
0.0635334
0.065743
0.0677861
0.0696517
0.0713301
0.0728131
0.0740937
0.0751664
0.0760277
0.0766755
0.07711
0.0773332
0.0773493
0.0771646
0.0767879
0.0762305
0.0755057
0.0746297
0.073621
0.0725004
0.071291
0.0700181
0.0687086
0.0673911
0.0660944
0.0648477
0.063683
0.0626307
0.0616684
0.0607652
0.00887705
0.00756513
0.0063219
0.00508377
0.00378788
0.00245946
0.00112596
-0.00019042
-0.00146742
-0.00268295
-0.00381599
-0.00484706
-0.00575837
-0.00653399
-0.00715995
-0.00762428
-0.00791694
-0.00802983
-0.00795673
-0.00769318
-0.00723642
-0.00658531
-0.00574024
-0.00470301
-0.00347681
-0.00206608
-0.00047644
0.00128535
0.0032115
0.00529323
0.00752087
0.00988388
0.012371
0.0149701
0.0176685
0.0204531
0.0233098
0.0262245
0.0291825
0.0321686
0.0351677
0.0381642
0.0411425
0.0440871
0.0469823
0.0498128
0.0525633
0.0552192
0.0577659
0.0601896
0.0624773
0.0646165
0.0665956
0.0684044
0.0700333
0.0714744
0.0727207
0.0737671
0.0746097
0.0752468
0.075678
0.0759051
0.0759317
0.0757636
0.0754087
0.0748769
0.0741804
0.0733335
0.0723528
0.0712566
0.0700652
0.0688004
0.0674856
0.0661448
0.0648019
0.0634806
0.062209
0.0610126
0.0598378
0.0586276
0.0110831
0.00944873
0.00797455
0.00657228
0.00514815
0.00372335
0.00232193
0.000961114
-0.000341492
-0.00156787
-0.00270067
-0.00372362
-0.00462173
-0.00538151
-0.00599105
-0.00644008
-0.00672003
-0.00682396
-0.00674656
-0.00648412
-0.00603444
-0.00539675
-0.00457168
-0.00356118
-0.00236843
-0.000997805
0.000545235
0.00225417
0.00412151
0.00613881
0.00829681
0.0105854
0.0129937
0.0155103
0.0181229
0.0208188
0.0235847
0.0264069
0.0292713
0.0321633
0.0350683
0.0379714
0.0408575
0.0437115
0.0465185
0.0492634
0.0519318
0.0545091
0.0569815
0.0593357
0.0615587
0.0636387
0.0655643
0.0673254
0.0689128
0.0703186
0.071536
0.0725598
0.0733861
0.0740129
0.0744395
0.0746673
0.0746993
0.0745406
0.074198
0.0736804
0.0729986
0.0721653
0.071195
0.0701038
0.0689093
0.0676305
0.0662871
0.0648993
0.063487
0.0620691
0.0606705
0.0593133
0.057914
0.0563919
0.0133099
0.011355
0.00964444
0.0080672
0.00650067
0.00496307
0.00347592
0.00205225
0.00070565
-0.000549451
-0.00169896
-0.00272953
-0.00362878
-0.00438548
-0.00498971
-0.00543287
-0.00570782
-0.0058088
-0.0057315
-0.00547295
-0.00503158
-0.00440706
-0.00360035
-0.00261359
-0.00145006
-0.000114099
0.00138889
0.00305257
0.00486965
0.00683199
0.00893064
0.0111559
0.0134972
0.0159436
0.0184833
0.021104
0.0237929
0.0265368
0.0293221
0.0321348
0.0349606
0.0377852
0.0405939
0.0433722
0.0461055
0.0487793
0.0513795
0.0538919
0.0563032
0.0586001
0.0607703
0.0628019
0.0646839
0.0664064
0.0679601
0.0693373
0.0705311
0.0715363
0.0723487
0.072966
0.0733873
0.0736132
0.0736463
0.0734907
0.0731525
0.0726393
0.0719606
0.0711273
0.0701522
0.0690494
0.067834
0.0665222
0.0651309
0.063677
0.0621765
0.0606447
0.0591043
0.0575747
0.0559447
0.0541116
0.0155108
0.0132405
0.0112919
0.00953291
0.00781395
0.00615122
0.00456449
0.00306326
0.00165769
0.000359111
-0.000821275
-0.00187276
-0.00278534
-0.0035499
-0.00415836
-0.00460377
-0.00488035
-0.00498355
-0.00491001
-0.0046576
-0.00422537
-0.00361351
-0.00282335
-0.00185727
-0.000718696
0.000587949
0.00205731
0.00368312
0.00545828
0.00737484
0.00942412
0.0115967
0.0138824
0.0162706
0.0187499
0.0213084
0.0239338
0.0266132
0.0293334
0.0320809
0.0348419
0.0376024
0.0403482
0.0430651
0.0457389
0.0483556
0.0509011
0.0533619
0.0557246
0.0579765
0.0601052
0.0620991
0.0639474
0.06564
0.0671679
0.0685232
0.0696989
0.0706895
0.0714909
0.0721
0.0725157
0.072738
0.0727687
0.0726113
0.0722707
0.0717535
0.0710677
0.070223
0.0692304
0.0681018
0.0668504
0.06549
0.0640348
0.0624991
0.0608957
0.0592368
0.0575436
0.0558339
0.0539705
0.0518307
0.0176463
0.0150676
0.0128818
0.0109371
0.00905886
0.00726196
0.00556503
0.00397465
0.00249809
0.00114399
-7.89607e-05
-0.00116242
-0.00209854
-0.00288016
-0.00350092
-0.00395541
-0.00423919
-0.00434886
-0.00428205
-0.00403743
-0.00361473
-0.00301468
-0.00223901
-0.00129041
-0.000172503
0.00111018
0.00255224
0.00414747
0.00588884
0.0077686
0.00977823
0.0119086
0.0141498
0.0164914
0.0189224
0.0214314
0.0240062
0.0266344
0.0293032
0.0319993
0.0347094
0.0374198
0.0401167
0.0427862
0.0454143
0.0479873
0.0504915
0.0529135
0.0552402
0.0574588
0.0595572
0.061524
0.0633482
0.0650198
0.0665298
0.0678699
0.0690331
0.0700137
0.0708071
0.07141
0.0718204
0.0720381
0.072064
0.0719007
0.0715523
0.0710241
0.070323
0.0694573
0.0684362
0.0672701
0.0659703
0.0645483
0.0630163
0.061386
0.0596681
0.057872
0.0560182
0.0541233
0.0520265
0.0495859
0.019683
0.0168036
0.0143828
0.0122505
0.0102085
0.00827097
0.00645584
0.00476732
0.00321024
0.00179095
0.000515916
-0.000608592
-0.00157667
-0.00238294
-0.00302266
-0.00349184
-0.00378734
-0.00390686
-0.00384898
-0.00361321
-0.00319994
-0.00261046
-0.00184695
-0.000912432
0.00018922
0.00145333
0.00287442
0.00444626
0.0061619
0.00801364
0.00999316
0.0120915
0.0142989
0.0166054
0.019
0.0214717
0.0240086
0.0265986
0.0292292
0.0318875
0.0345603
0.0372343
0.0398959
0.0425316
0.0451275
0.0476701
0.050146
0.0525417
0.0548445
0.0570416
0.0591209
0.0610709
0.0628807
0.0645402
0.0660401
0.0673721
0.0685289
0.0695043
0.0702933
0.0708922
0.0712986
0.0715115
0.071531
0.0713589
0.0709984
0.0704537
0.0697305
0.0688358
0.0677774
0.0665642
0.0652055
0.0637114
0.062092
0.0603573
0.0585156
0.0565746
0.0545545
0.0524717
0.0501426
0.0474076
0.0215922
0.0184195
0.0157669
0.0134466
0.0112382
0.0091554
0.00721615
0.00542263
0.0037776
0.00228545
0.000950747
-0.000222107
-0.00122894
-0.00206599
-0.00273001
-0.00321835
-0.00352907
-0.00366093
-0.00361346
-0.00338696
-0.00298251
-0.00240197
-0.00164797
-0.000723901
0.000366082
0.00161711
0.00302359
0.00457924
0.0062771
0.00810954
0.0100683
0.0121446
0.0143289
0.0166113
0.0189812
0.0214276
0.0239391
0.0265036
0.029109
0.0317426
0.0343914
0.0370424
0.0396822
0.0422973
0.0448742
0.0473995
0.0498598
0.0522419
0.0545328
0.0567199
0.0587912
0.0607349
0.0625401
0.0641964
0.0656944
0.0670255
0.068182
0.0691575
0.0699463
0.0705443
0.0709484
0.071157
0.0711696
0.0709869
0.0706111
0.0700457
0.0692952
0.0683652
0.0672623
0.065994
0.0645683
0.0629935
0.0612782
0.059431
0.0574585
0.0553669
0.0531766
0.050904
0.0483445
0.0453215
0.0233489
0.0198902
0.017009
0.0145012
0.0121247
0.00989373
0.00782611
0.00592246
0.0041838
0.00261285
0.00121252
-1.44215e-05
-0.00106536
-0.00193799
-0.00263043
-0.0031413
-0.00346978
-0.00361564
-0.00357932
-0.0033619
-0.00296513
-0.00239144
-0.00164395
-0.00072643
0.00035667
0.00160025
0.00299857
0.00454524
0.00623328
0.00805508
0.0100024
0.0120666
0.0142383
0.0165075
0.0188641
0.0212971
0.0237953
0.0263469
0.0289398
0.0315616
0.0341995
0.0368407
0.0394718
0.0420795
0.0446505
0.0471714
0.0496287
0.0520095
0.0543005
0.0564893
0.0585636
0.0605115
0.0623219
0.0639843
0.0654888
0.0668265
0.0679895
0.0689706
0.069764
0.0703647
0.0707692
0.0709749
0.0709807
0.0707866
0.0703938
0.0698047
0.0690228
0.0680527
0.0668997
0.0655701
0.0640706
0.0624083
0.0605906
0.0586246
0.0565158
0.0542691
0.0519057
0.0494425
0.0466545
0.0433492
0.0249311
0.0211926
0.0180864
0.0153918
0.0128468
0.0104656
0.00826667
0.00624914
0.00441262
0.00275838
0.00128789
2.50398e-06
-0.00109658
-0.00200838
-0.00273227
-0.00326803
-0.00361589
-0.0037766
-0.00375145
-0.00354228
-0.00315152
-0.00258217
-0.00183781
-0.000922626
0.000158613
0.00140056
0.00279728
0.00434228
0.00602849
0.00784827
0.00979346
0.0118553
0.0140247
0.0162917
0.0186462
0.0210775
0.0235744
0.0261253
0.0287184
0.0313412
0.0339811
0.0366254
0.0392609
0.0418743
0.0444523
0.0469815
0.0494486
0.0518403
0.0541436
0.0563456
0.0584341
0.0603969
0.0622226
0.0639004
0.0654201
0.0667725
0.067949
0.068942
0.0697452
0.0703529
0.070761
0.0709662
0.0709665
0.0707612
0.0703505
0.0697359
0.06892
0.0679062
0.0666989
0.0653032
0.0637248
0.0619697
0.0600442
0.0579545
0.055705
0.0533
0.0507614
0.048107
0.0450924
0.0415093
0.0263187
0.0223061
0.0189779
0.0160979
0.0133842
0.0108518
0.00851947
0.00638545
0.00444801
0.00270722
0.00116328
-0.000183725
-0.00133385
-0.00228732
-0.00304466
-0.00360672
-0.00397473
-0.00415036
-0.00413571
-0.00393337
-0.00354641
-0.0029784
-0.00223341
-0.00131603
-0.000231359
0.00101497
0.00241684
0.00396757
0.00566
0.00748645
0.00943872
0.0115081
0.0136854
0.015961
0.0183246
0.0207657
0.0232733
0.0258358
0.0284413
0.0310778
0.0337326
0.0363929
0.0390457
0.0416777
0.0442756
0.046826
0.0493154
0.0517304
0.054058
0.0562851
0.058399
0.0603875
0.0622389
0.0639419
0.0654859
0.0668612
0.0680588
0.0690706
0.0698895
0.0705093
0.070925
0.0711328
0.0711298
0.0709144
0.070486
0.0698453
0.0689938
0.0679341
0.0666695
0.0652043
0.0635431
0.0616911
0.0596537
0.0574364
0.055043
0.052477
0.0497614
0.0469155
0.0436755
0.0398183
0.0274937
0.0232116
0.0196642
0.0166
0.0137179
0.0110337
0.00856677
0.0063145
0.00427407
0.00244449
0.000824861
-0.000585891
-0.00178893
-0.00278559
-0.00357745
-0.00416636
-0.00455449
-0.00474436
-0.00473888
-0.00454133
-0.00415543
-0.0035853
-0.0028355
-0.00191104
-0.000817365
0.000439614
0.00185353
0.00341755
0.00512437
0.00696622
0.00893486
0.0110216
0.0132171
0.015512
0.0178959
0.0203583
0.0228883
0.0254745
0.028105
0.0307677
0.03345
0.0361392
0.0388222
0.0414858
0.0441164
0.0467007
0.0492251
0.051676
0.0540401
0.0563041
0.0584551
0.0604805
0.0623681
0.0641064
0.0656843
0.0670914
0.0683182
0.0693561
0.0701972
0.0708348
0.0712631
0.0714774
0.0714741
0.0712508
0.0708061
0.0701396
0.0692521
0.0681453
0.0668216
0.0652845
0.0635377
0.0615858
0.0594334
0.0570856
0.0545455
0.0518163
0.0489225
0.0458843
0.0424198
0.0382907
0.0284392
0.0238911
0.0201268
0.0168796
0.0138296
0.0109934
0.00839125
0.00601969
0.00387499
0.00195525
0.000258566
-0.00121714
-0.00247406
-0.00351455
-0.00434115
-0.00495664
-0.00536409
-0.00556683
-0.00556853
-0.00537315
-0.00498504
-0.00440886
-0.00364967
-0.00271289
-0.00160432
-0.000330177
0.00110293
0.00268796
0.00441748
0.00628358
0.00827794
0.0103918
0.012616
0.0149407
0.017356
0.0198513
0.0224156
0.0250375
0.0277053
0.0304067
0.0331293
0.0358602
0.0385864
0.0412944
0.0439708
0.0466019
0.049174
0.0516734
0.0540864
0.0563995
0.0585993
0.060673
0.062608
0.064392
0.0660137
0.067462
0.0687268
0.0697988
0.0706695
0.0713313
0.0717778
0.0720035
0.0720039
0.0717758
0.0713169
0.0706261
0.0697032
0.0685492
0.0671657
0.0655553
0.0637212
0.0616672
0.0593976
0.0569168
0.0542279
0.0513337
0.0482602
0.045029
0.0413399
0.03694
0.0291388
0.0243277
0.0203483
0.016919
0.0137017
0.0107135
0.00797591
0.00548456
0.00323498
0.00122441
-0.000549901
-0.00209098
-0.00340194
-0.00448609
-0.00534686
-0.00598793
-0.00641319
-0.00662676
-0.00663302
-0.00643663
-0.00604251
-0.00545589
-0.00468229
-0.00372757
-0.00259789
-0.00129978
0.000159887
0.00177387
0.00353453
0.00543386
0.00746342
0.00961437
0.0118775
0.014243
0.0167008
0.0192404
0.0218508
0.0245205
0.0272379
0.0299906
0.0327662
0.0355517
0.0383339
0.0410995
0.0438346
0.0465256
0.0491583
0.051719
0.0541935
0.0565681
0.058829
0.0609628
0.0629564
0.0647973
0.0664732
0.0679727
0.0692849
0.0703997
0.0713079
0.0720013
0.0724725
0.0727152
0.0727242
0.0724953
0.0720254
0.0713127
0.070356
0.0691556
0.0677125
0.0660284
0.0641061
0.0619487
0.0595602
0.0569448
0.0541052
0.0510443
0.0477895
0.0443641
0.0404498
0.0357787
0.0295772
0.0245048
0.0203115
0.016701
0.0133168
0.010177
0.00730393
0.00469275
0.00233818
0.000236754
-0.00161511
-0.00322126
-0.00458571
-0.00571262
-0.00660629
-0.00727123
-0.00771212
-0.00793383
-0.00794145
-0.00774028
-0.00733584
-0.0067339
-0.00594045
-0.00496179
-0.00380444
-0.00247526
-0.000981399
0.000669674
0.00247014
0.00441182
0.00648617
0.00868424
0.0109967
0.0134138
0.0159254
0.0185208
0.0211891
0.0239188
0.0266981
0.0295147
0.032356
0.0352091
0.0380605
0.0408966
0.0437037
0.0464677
0.0491743
0.0518092
0.0543582
0.056807
0.0591415
0.0613477
0.0634119
0.0653211
0.0670623
0.0686235
0.0699931
0.0711601
0.0721147
0.0728476
0.0733509
0.0736172
0.0736405
0.0734159
0.0729392
0.0722079
0.0712201
0.0699751
0.0684734
0.0667161
0.0647054
0.062444
0.0599355
0.0571841
0.0541922
0.0509629
0.0475251
0.043904
0.0397628
0.0348189
0.0297391
0.0244063
0.0199998
0.0162086
0.0126579
0.00936676
0.00635854
0.00362781
0.00116862
-0.00102318
-0.00295192
-0.00462224
-0.00603896
-0.00720707
-0.0081317
-0.00881813
-0.00927183
-0.00949838
-0.00950356
-0.00929331
-0.00887372
-0.0082511
-0.00743194
-0.00642293
-0.005231
-0.00386333
-0.00232736
-0.000630793
0.00121834
0.00321169
0.00534057
0.00759591
0.0099683
0.0124479
0.0150245
0.0176874
0.0204255
0.0232274
0.0260811
0.0289742
0.0318942
0.0348277
0.0377614
0.0406815
0.0435739
0.0464243
0.0492181
0.0519407
0.0545774
0.0571135
0.0595345
0.0618257
0.063973
0.0659625
0.0677808
0.0694149
0.0708525
0.072082
0.0730925
0.073874
0.0744175
0.0747149
0.0747593
0.0745448
0.0740665
0.0733209
0.0723054
0.0710186
0.0694602
0.0676309
0.0655323
0.0631668
0.0605379
0.0576494
0.0545038
0.0511043
0.0474817
0.0436626
0.0392922
0.0340728
0.0296091
0.0240161
0.0193966
0.0154249
0.011708
0.00826587
0.00512291
0.00227319
-0.000289897
-0.00257114
-0.00457556
-0.00630856
-0.00777575
-0.00898289
-0.0099359
-0.0106408
-0.0111039
-0.0113314
-0.0113298
-0.0111056
-0.0106655
-0.0100164
-0.00916516
-0.00811901
-0.00688521
-0.0054713
-0.00388499
-0.00213427
-0.000227379
0.00182716
0.00402049
0.00634342
0.00878643
0.0113396
0.0139925
0.0167345
0.0195545
0.0224408
0.0253814
0.0283639
0.0313755
0.0344028
0.0374321
0.0404496
0.0434408
0.0463912
0.0492859
0.0521098
0.0548479
0.0574849
0.0600056
0.0623951
0.0646385
0.066721
0.0686287
0.0703477
0.0718649
0.0731678
0.0742446
0.0750845
0.0756774
0.0760143
0.0760874
0.0758899
0.075416
0.0746614
0.0736226
0.0722975
0.0706853
0.068786
0.0666007
0.0641317
0.061382
0.0583557
0.0550551
0.0514837
0.047674
0.0436545
0.0390516
0.0335525
0.029172
0.0233181
0.0184853
0.014333
0.0104499
0.00685718
0.00358003
0.000612101
-0.00205384
-0.00442319
-0.00650164
-0.00829533
-0.00981061
-0.011054
-0.0120323
-0.0127521
-0.0132205
-0.0134445
-0.0134311
-0.0131875
-0.0127211
-0.0120392
-0.0111491
-0.0100586
-0.00877528
-0.00730701
-0.00566184
-0.00384802
-0.00187401
0.000251452
0.00251936
0.00492037
0.00744482
0.0100827
0.0128235
0.0156565
0.0185704
0.0215535
0.0245937
0.0276785
0.0307948
0.0339291
0.0370676
0.0401961
0.0433
0.0463643
0.0493739
0.0523131
0.0551665
0.0579184
0.0605529
0.0630544
0.0654073
0.0675963
0.0696064
0.071423
0.073032
0.0744202
0.0755746
0.0764835
0.0771359
0.0775218
0.0776323
0.0774596
0.0769972
0.0762397
0.075183
0.0738242
0.0721616
0.070195
0.0679249
0.0653533
0.0624833
0.0593186
0.0558618
0.0521165
0.0481172
0.0438941
0.0390546
0.0332706
0.0284122
0.0222959
0.017249
0.0129157
0.00886647
0.00512332
0.00171259
-0.00137259
-0.00414006
-0.00659582
-0.00874622
-0.0105981
-0.0121586
-0.013435
-0.0144347
-0.0151653
-0.0156344
-0.0158497
-0.0158191
-0.0155503
-0.0150511
-0.0143295
-0.0133934
-0.0122509
-0.0109099
-0.00937882
-0.00766593
-0.00577975
-0.003729
-0.00152263
0.000830192
0.00331996
0.00593689
0.0086708
0.0115112
0.0144471
0.0174672
0.0205596
0.0237122
0.0269122
0.0301465
0.0334014
0.0366628
0.0399163
0.0431469
0.0463393
0.049478
0.052547
0.0555302
0.0584114
0.061174
0.0638019
0.0662786
0.068588
0.0707144
0.0726421
0.0743562
0.0758423
0.0770866
0.0780762
0.0787992
0.0792444
0.079402
0.0792631
0.0788202
0.078067
0.0769986
0.0756113
0.0739029
0.0718723
0.06952
0.0668474
0.0638574
0.0605541
0.0569399
0.0530187
0.0488269
0.0443966
0.0393159
0.0332404
0.0273135
0.0209328
0.0156703
0.0111554
0.00693981
0.00304649
-0.000497142
-0.00369845
-0.00656587
-0.00910601
-0.0113259
-0.013233
-0.0148353
-0.0161408
-0.0171577
-0.0178942
-0.0183589
-0.01856
-0.018506
-0.0182054
-0.0176666
-0.016898
-0.0159081
-0.0147054
-0.0132983
-0.0116955
-0.0099057
-0.00793759
-0.00580019
-0.00350265
-0.00105434
0.00153508
0.00425567
0.00709715
0.0100489
0.0130998
0.0162385
0.0194529
0.0227308
0.0260593
0.029425
0.0328142
0.0362124
0.039605
0.0429767
0.0463118
0.0495943
0.0528079
0.0559358
0.0589612
0.061867
0.0646362
0.0672516
0.0696963
0.0719535
0.0740066
0.0758398
0.0774375
0.078785
0.0798681
0.0806737
0.0811898
0.0814051
0.0813099
0.0808956
0.080155
0.0790821
0.0776726
0.0759235
0.0738332
0.0714017
0.0686301
0.0655213
0.0620792
0.0583065
0.0542072
0.0498198
0.0451782
0.0398505
0.0334759
0.0258593
0.0192115
0.0137317
0.00903416
0.00465175
0.000608413
-0.0030674
-0.00638355
-0.0093491
-0.0119713
-0.0142577
-0.0162167
-0.0178569
-0.0191871
-0.0202163
-0.0209535
-0.0214078
-0.0215884
-0.0215044
-0.0211649
-0.020579
-0.0197556
-0.0187037
-0.0174322
-0.0159501
-0.0142664
-0.01239
-0.01033
-0.00809575
-0.00569651
-0.00314189
-0.000441695
0.00239398
0.00535472
0.00842977
0.011608
0.0148777
0.018227
0.0216434
0.0251137
0.0286245
0.0321618
0.0357111
0.0392572
0.0427846
0.0462772
0.0497186
0.053092
0.05638
0.0595652
0.0626298
0.065556
0.0683257
0.0709211
0.0733246
0.0755185
0.0774857
0.0792097
0.0806745
0.0818649
0.0827664
0.0833659
0.0836509
0.0836105
0.083235
0.0825162
0.0814471
0.0800226
0.0782389
0.0760938
0.0735869
0.0707189
0.0674926
0.0639119
0.0599795
0.0556998
0.0511133
0.0462558
0.0406747
0.0339924
0.0240325
0.0171139
0.0114146
0.00653324
0.00198346
-0.00220981
-0.00601703
-0.0094466
-0.0125082
-0.0152097
-0.0175595
-0.0195665
-0.0212402
-0.0225902
-0.0236261
-0.024358
-0.0247956
-0.0249489
-0.0248276
-0.0244416
-0.0238004
-0.0229138
-0.0217911
-0.0204418
-0.0188752
-0.0171008
-0.0151279
-0.0129658
-0.0106241
-0.00811235
-0.00544032
-0.00261799
0.000344388
0.00343629
0.00664682
0.00996472
0.0133783
0.0168754
0.0204434
0.0240692
0.027739
0.0314386
0.0351532
0.0388675
0.0425655
0.0462309
0.0498468
0.0533956
0.0568596
0.0602207
0.0634603
0.0665597
0.0695002
0.0722628
0.0748288
0.0771796
0.0792969
0.0811629
0.0827605
0.084073
0.0850849
0.0857814
0.0861492
0.0861758
0.0858505
0.0851638
0.0841079
0.0826766
0.0808653
0.0786712
0.0760932
0.073132
0.0697899
0.066071
0.061978
0.0575155
0.0527261
0.0476477
0.041806
0.0348062
0.0218148
0.0146216
0.00870009
0.00363328
-0.00108463
-0.0054278
-0.00936562
-0.012907
-0.0160624
-0.0188402
-0.0212496
-0.0233003
-0.0250026
-0.0263668
-0.0274035
-0.0281234
-0.0285373
-0.0286557
-0.0284892
-0.0280483
-0.0273433
-0.0263844
-0.0251816
-0.0237448
-0.0220839
-0.0202087
-0.0181288
-0.0158539
-0.0133939
-0.0107585
-0.00795766
-0.00500159
-0.00190065
0.00133451
0.00469288
0.00816309
0.0117334
0.0153914
0.0191246
0.0229194
0.0267622
0.0306384
0.0345331
0.0384305
0.0423145
0.0461683
0.0499743
0.0537148
0.0573713
0.0609249
0.0643563
0.0676461
0.0707744
0.0737214
0.0764672
0.0789921
0.0812765
0.0833015
0.0850483
0.0864991
0.0876369
0.0884456
0.0889104
0.0890176
0.088755
0.0881121
0.0870798
0.0856509
0.08382
0.0815835
0.0789398
0.075889
0.0724334
0.0685769
0.0643224
0.0596746
0.0546782
0.0493733
0.0432633
0.0359351
0.0191874
0.0117148
0.00556806
0.000314038
-0.00457292
-0.009066
-0.0131335
-0.0167851
-0.0200316
-0.0228824
-0.0253473
-0.0274368
-0.0291621
-0.0305344
-0.0315652
-0.032266
-0.0326483
-0.0327237
-0.0325034
-0.0319987
-0.0312204
-0.0301796
-0.0288868
-0.0273523
-0.0255867
-0.0235999
-0.0214022
-0.0190035
-0.0164138
-0.0136433
-0.010702
-0.00760032
-0.00434873
-0.00095801
0.00256074
0.00619606
0.00993606
0.0137684
0.0176802
0.0216581
0.0256881
0.0297555
0.033845
0.0379408
0.0420264
0.0460844
0.050097
0.0540457
0.0579116
0.061675
0.0653158
0.0688137
0.0721478
0.0752974
0.0782412
0.0809584
0.0834281
0.0856299
0.0875437
0.0891502
0.0904309
0.0913682
0.0919456
0.0921482
0.0919624
0.091376
0.090379
0.088963
0.0871215
0.0848502
0.0821467
0.0790108
0.0754444
0.0714514
0.0670345
0.0621989
0.0569913
0.0514539
0.0450669
0.0373985
0.0161304
0.00837319
0.00199762
-0.00344569
-0.00850277
-0.0131458
-0.0173421
-0.0211018
-0.0244367
-0.0273567
-0.0298725
-0.0319955
-0.0337377
-0.0351113
-0.0361287
-0.0368023
-0.0371447
-0.0371681
-0.0368846
-0.0363063
-0.0354449
-0.0343118
-0.0329184
-0.0312755
-0.0293941
-0.0272847
-0.0249577
-0.0224237
-0.0196927
-0.0167752
-0.0136815
-0.010422
-0.00700741
-0.0034486
0.000243257
0.00405663
0.00797958
0.0119997
0.0161039
0.0202789
0.0245104
0.0287837
0.0330833
0.037393
0.0416959
0.0459744
0.0502103
0.0543844
0.0584771
0.0624681
0.0663365
0.070061
0.0736199
0.076991
0.0801521
0.0830809
0.0857552
0.0881531
0.090253
0.0920339
0.0934758
0.0945594
0.0952667
0.0955809
0.0954871
0.0949716
0.0940229
0.0926314
0.0907895
0.088492
0.0857357
0.0825198
0.0788459
0.0747177
0.070138
0.0651119
0.0596887
0.0539124
0.0472392
0.0392176
0.0126228
0.00457509
-0.00203324
-0.00766819
-0.0128966
-0.0176897
-0.0220138
-0.0258795
-0.0292995
-0.0322845
-0.034846
-0.0369965
-0.0387488
-0.0401163
-0.0411121
-0.0417499
-0.042043
-0.0420046
-0.0416479
-0.0409855
-0.04003
-0.0387937
-0.0372883
-0.0355256
-0.0335168
-0.0312729
-0.0288049
-0.0261235
-0.0232391
-0.0201625
-0.016904
-0.0134743
-0.00988411
-0.00614446
-0.00226657
0.00173799
0.00585723
0.0100787
0.0143893
0.0187756
0.0232232
0.0277173
0.0322421
0.0367814
0.0413179
0.0458335
0.0503097
0.0547267
0.0590643
0.0633014
0.0674163
0.0713868
0.07519
0.0788026
0.0822012
0.0853621
0.0882616
0.0908761
0.0931825
0.0951581
0.096781
0.0980302
0.0988859
0.0993297
0.0993447
0.0989158
0.0980299
0.096676
0.0948452
0.0925312
0.08973
0.08644
0.0826626
0.0784011
0.0736582
0.0684392
0.0627956
0.0567737
0.0498043
0.0414157
0.00864263
0.00029777
-0.00654774
-0.012377
-0.0177781
-0.0227214
-0.027172
-0.0311413
-0.0346429
-0.0376882
-0.0402898
-0.0424611
-0.0442161
-0.045569
-0.0465343
-0.0471266
-0.0473602
-0.0472494
-0.0468083
-0.0460505
-0.0449894
-0.0436379
-0.0420086
-0.0401138
-0.0379653
-0.0355747
-0.0329532
-0.0301119
-0.0270616
-0.0238131
-0.0203772
-0.0167645
-0.0129859
-0.0090525
-0.00497546
-0.000766433
0.00356259
0.00799911
0.0125301
0.017142
0.0218204
0.0265503
0.031316
0.0361008
0.0408872
0.0456569
0.0503908
0.0550687
0.0596696
0.0641719
0.068553
0.0727895
0.0768575
0.0807327
0.0843902
0.0878048
0.0909512
0.0938042
0.0963389
0.0985309
0.100356
0.101792
0.102817
0.103409
0.103552
0.103227
0.10242
0.101118
0.099311
0.0969916
0.0941545
0.0907974
0.0869211
0.0825287
0.0776226
0.0722083
0.0663395
0.0600648
0.0527886
0.044018
0.00416639
-0.00448283
-0.0115704
-0.0175968
-0.0231721
-0.0282657
-0.0328415
-0.0369118
-0.040491
-0.0435914
-0.0462268
-0.0484115
-0.0501607
-0.0514899
-0.0524147
-0.0529508
-0.0531137
-0.052919
-0.0523814
-0.0515159
-0.0503365
-0.0488571
-0.047091
-0.0450512
-0.04275
-0.0401996
-0.0374115
-0.0343973
-0.0311681
-0.0277349
-0.0241084
-0.0202997
-0.0163196
-0.0121792
-0.00788975
-0.00346283
0.00108959
0.00575504
0.0105205
0.0153724
0.0202964
0.0252774
0.0302994
0.0353458
0.0403989
0.0454399
0.0504492
0.0554064
0.0602897
0.0650768
0.0697442
0.0742676
0.078622
0.0827817
0.0867205
0.0904115
0.093828
0.0969429
0.0997294
0.102161
0.104212
0.105857
0.107072
0.107836
0.108126
0.107924
0.107213
0.10598
0.104211
0.101899
0.0990361
0.0956199
0.0916503
0.0871299
0.0820611
0.0764491
0.0703503
0.0638153
0.056221
0.0470523
-0.000830582
-0.00979222
-0.0171273
-0.0233541
-0.0291053
-0.0343492
-0.0390487
-0.0432169
-0.0468691
-0.0500189
-0.0526808
-0.0548707
-0.0566048
-0.0579001
-0.0587733
-0.0592416
-0.0593216
-0.05903
-0.058383
-0.0573963
-0.0560851
-0.054464
-0.0525474
-0.0503487
-0.047881
-0.045157
-0.0421887
-0.038988
-0.0355663
-0.0319348
-0.0281045
-0.0240863
-0.0198913
-0.0155306
-0.0110152
-0.00635682
-0.0015673
0.00334098
0.00835511
0.0134615
0.0186459
0.0238932
0.0291874
0.0345116
0.0398481
0.0451778
0.0504807
0.0557359
0.0609211
0.0660132
0.0709879
0.0758198
0.0804829
0.0849501
0.0891936
0.0931853
0.0968964
0.100298
0.103361
0.106058
0.108359
0.110238
0.111668
0.112625
0.113085
0.113028
0.112433
0.111286
0.109572
0.10728
0.104404
0.100938
0.0968811
0.0922367
0.0870059
0.0811942
0.0748603
0.0680573
0.0601328
0.0505491
-0.00637453
-0.0156575
-0.023246
-0.0296767
-0.0356056
-0.0409999
-0.0458214
-0.0500841
-0.0538043