/*--------------------------------*- C++ -*----------------------------------*\
  =========                 |
  \\      /  F ield         | OpenFOAM: The Open Source CFD Toolbox
   \\    /   O peration     | Website:  https://openfoam.org
    \\  /    A nd           | Version:  7
     \\/     M anipulation  |
\*---------------------------------------------------------------------------*/
FoamFile
{
    version     2.0;
    format      ascii;
    class       volVectorField;
    location    "0.375";
    object      U;
}
// * * * * * * * * * * * * * * * * * * * * * * * * * * * * * * * * * * * * * //

dimensions      [0 1 -1 0 0 0 0];

internalField   nonuniform List<vector> 
6400
(
(7.10197e-06 -7.39544e-06 0)
(2.95794e-05 -1.45259e-05 0)
(5.9182e-05 -1.42068e-05 0)
(8.0544e-05 -9.74649e-06 0)
(8.54084e-05 -3.43199e-06 0)
(7.05514e-05 3.54117e-06 0)
(3.48549e-05 1.05609e-05 0)
(-2.16481e-05 1.731e-05 0)
(-9.8202e-05 2.36266e-05 0)
(-0.000193617 2.94292e-05 0)
(-0.000306448 3.46796e-05 0)
(-0.000435097 3.9363e-05 0)
(-0.000577886 4.34781e-05 0)
(-0.000733094 4.70318e-05 0)
(-0.000898994 5.0036e-05 0)
(-0.00107387 5.25057e-05 0)
(-0.00125603 5.4458e-05 0)
(-0.00144383 5.59116e-05 0)
(-0.00163566 5.68859e-05 0)
(-0.00182996 5.74011e-05 0)
(-0.00202526 5.74775e-05 0)
(-0.0022201 5.71357e-05 0)
(-0.00241311 5.63962e-05 0)
(-0.00260299 5.52798e-05 0)
(-0.00278849 5.38068e-05 0)
(-0.00296843 5.19976e-05 0)
(-0.0031417 4.98724e-05 0)
(-0.00330725 4.74514e-05 0)
(-0.0034641 4.47545e-05 0)
(-0.00361134 4.18017e-05 0)
(-0.00374813 3.8613e-05 0)
(-0.00387369 3.52082e-05 0)
(-0.00398731 3.16072e-05 0)
(-0.00408836 2.78302e-05 0)
(-0.00417626 2.38973e-05 0)
(-0.00425053 1.98291e-05 0)
(-0.00431072 1.56462e-05 0)
(-0.0043565 1.13698e-05 0)
(-0.00438758 7.0213e-06 0)
(-0.00440375 2.6225e-06 0)
(-0.00440489 -1.80431e-06 0)
(-0.00439095 -6.23641e-06 0)
(-0.00436196 -1.06506e-05 0)
(-0.00431802 -1.50231e-05 0)
(-0.00425933 -1.93297e-05 0)
(-0.00418616 -2.35458e-05 0)
(-0.00409888 -2.76464e-05 0)
(-0.00399793 -3.16059e-05 0)
(-0.00388384 -3.53987e-05 0)
(-0.00375724 -3.8999e-05 0)
(-0.00361883 -4.23804e-05 0)
(-0.0034694 -4.55168e-05 0)
(-0.00330984 -4.83822e-05 0)
(-0.00314112 -5.09505e-05 0)
(-0.00296429 -5.31963e-05 0)
(-0.00278049 -5.50946e-05 0)
(-0.00259092 -5.66209e-05 0)
(-0.00239689 -5.77513e-05 0)
(-0.00219977 -5.8463e-05 0)
(-0.00200099 -5.87342e-05 0)
(-0.00180206 -5.85447e-05 0)
(-0.00160453 -5.78755e-05 0)
(-0.00141002 -5.67093e-05 0)
(-0.00122018 -5.50306e-05 0)
(-0.00103672 -5.28256e-05 0)
(-0.000861341 -5.00833e-05 0)
(-0.000695785 -4.67954e-05 0)
(-0.000541778 -4.29574e-05 0)
(-0.000401027 -3.85691e-05 0)
(-0.000275197 -3.36365e-05 0)
(-0.000165873 -2.81746e-05 0)
(-7.45136e-05 -2.22128e-05 0)
(-2.38842e-06 -1.58047e-05 0)
(4.95339e-05 -9.04768e-06 0)
(8.07595e-05 -2.12135e-06 0)
(9.15537e-05 4.63977e-06 0)
(8.33625e-05 1.06103e-05 0)
(5.97503e-05 1.45945e-05 0)
(2.92261e-05 1.43492e-05 0)
(6.87089e-06 6.86764e-06 0)
(1.43662e-05 -3.0022e-05 0)
(5.13816e-05 -5.16328e-05 0)
(8.96754e-05 -4.41372e-05 0)
(0.000103433 -1.91285e-05 0)
(7.69345e-05 1.52945e-05 0)
(2.33136e-06 5.41103e-05 0)
(-0.000124074 9.42434e-05 0)
(-0.000303196 0.000133808 0)
(-0.00053399 0.000171644 0)
(-0.000814091 0.000207038 0)
(-0.00114026 0.000239551 0)
(-0.00150868 0.000268922 0)
(-0.00191517 0.000295006 0)
(-0.00235534 0.000317738 0)
(-0.00282466 0.000337107 0)
(-0.00331857 0.000353141 0)
(-0.00383253 0.000365897 0)
(-0.00436206 0.000375452 0)
(-0.00490277 0.000381897 0)
(-0.00545036 0.000385336 0)
(-0.0060007 0.000385881 0)
(-0.00654978 0.000383649 0)
(-0.00709375 0.000378763 0)
(-0.00762895 0.000371348 0)
(-0.00815186 0.000361533 0)
(-0.00865915 0.000349447 0)
(-0.00914768 0.000335222 0)
(-0.00961448 0.000318989 0)
(-0.0100568 0.000300882 0)
(-0.010472 0.000281034 0)
(-0.0108577 0.00025958 0)
(-0.0112117 0.000236656 0)
(-0.011532 0.000212399 0)
(-0.0118169 0.000186945 0)
(-0.0120645 0.000160436 0)
(-0.0122737 0.000133011 0)
(-0.0124431 0.000104815 0)
(-0.0125718 7.59922e-05 0)
(-0.012659 4.66914e-05 0)
(-0.0127041 1.70629e-05 0)
(-0.0127068 -1.27402e-05 0)
(-0.0126669 -4.25619e-05 0)
(-0.0125845 -7.22434e-05 0)
(-0.0124601 -0.000101623 0)
(-0.012294 -0.000130537 0)
(-0.0120872 -0.000158817 0)
(-0.0118407 -0.000186296 0)
(-0.0115557 -0.000212802 0)
(-0.0112338 -0.000238164 0)
(-0.0108767 -0.000262209 0)
(-0.0104865 -0.000284764 0)
(-0.0100654 -0.000305658 0)
(-0.00961587 -0.000324717 0)
(-0.00914072 -0.000341776 0)
(-0.00864288 -0.000356667 0)
(-0.00812555 -0.000369231 0)
(-0.00759214 -0.000379312 0)
(-0.00704629 -0.000386763 0)
(-0.00649179 -0.000391442 0)
(-0.00593267 -0.000393218 0)
(-0.00537309 -0.000391971 0)
(-0.00481736 -0.000387595 0)
(-0.00426994 -0.000379998 0)
(-0.00373535 -0.000369104 0)
(-0.00321822 -0.000354858 0)
(-0.0027232 -0.000337229 0)
(-0.00225492 -0.000316212 0)
(-0.00181796 -0.000291841 0)
(-0.00141678 -0.000264194 0)
(-0.00105563 -0.00023341 0)
(-0.000738433 -0.00019971 0)
(-0.000468662 -0.000163433 0)
(-0.000249108 -0.000125098 0)
(-8.15998e-05 -8.54931e-05 0)
(3.34347e-05 -4.58478e-05 0)
(9.75844e-05 -8.09897e-06 0)
(0.000115234 2.46662e-05 0)
(9.48516e-05 4.74977e-05 0)
(5.26096e-05 5.25584e-05 0)
(1.43482e-05 2.91985e-05 0)
(1.42514e-05 -5.95089e-05 0)
(4.44749e-05 -8.99852e-05 0)
(6.11659e-05 -6.05213e-05 0)
(3.55065e-05 6.68701e-06 0)
(-5.08786e-05 9.62215e-05 0)
(-0.000208209 0.000197428 0)
(-0.000441819 0.000303077 0)
(-0.000753414 0.000408333 0)
(-0.00114196 0.000509975 0)
(-0.00160445 0.000605859 0)
(-0.00213647 0.000694571 0)
(-0.00273263 0.000775195 0)
(-0.00338687 0.000847164 0)
(-0.00409268 0.000910153 0)
(-0.0048433 0.00096402 0)
(-0.00563183 0.00100875 0)
(-0.00645132 0.00104442 0)
(-0.00729487 0.00107119 0)
(-0.00815568 0.00108926 0)
(-0.00902707 0.0010989 0)
(-0.00990256 0.00110037 0)
(-0.0107759 0.00109398 0)
(-0.011641 0.00108007 0)
(-0.012492 0.00105897 0)
(-0.0133235 0.00103103 0)
(-0.0141301 0.000996604 0)
(-0.0149068 0.00095607 0)
(-0.015649 0.000909795 0)
(-0.0163522 0.000858155 0)
(-0.0170122 0.000801529 0)
(-0.0176254 0.000740304 0)
(-0.0181881 0.000674866 0)
(-0.0186972 0.000605609 0)
(-0.0191498 0.00053293 0)
(-0.0195432 0.00045723 0)
(-0.0198754 0.000378917 0)
(-0.0201443 0.000298404 0)
(-0.0203485 0.00021611 0)
(-0.0204865 0.000132462 0)
(-0.0205577 4.78949e-05 0)
(-0.0205613 -3.71517e-05 0)
(-0.0204973 -0.000122229 0)
(-0.0203658 -0.00020688 0)
(-0.0201673 -0.000290642 0)
(-0.0199028 -0.000373045 0)
(-0.0195736 -0.000453612 0)
(-0.0191813 -0.000531863 0)
(-0.0187279 -0.00060731 0)
(-0.018216 -0.000679466 0)
(-0.0176483 -0.000747842 0)
(-0.0170281 -0.000811948 0)
(-0.0163589 -0.0008713 0)
(-0.0156448 -0.000925416 0)
(-0.01489 -0.000973826 0)
(-0.0140992 -0.00101607 0)
(-0.0132776 -0.00105169 0)
(-0.0124305 -0.00108027 0)
(-0.0115636 -0.0011014 0)
(-0.0106829 -0.0011147 0)
(-0.00979479 -0.00111981 0)
(-0.00890568 -0.00111642 0)
(-0.00802235 -0.00110426 0)
(-0.00715173 -0.00108308 0)
(-0.00630084 -0.00105273 0)
(-0.00547683 -0.00101308 0)
(-0.00468681 -0.000964119 0)
(-0.00393788 -0.000905894 0)
(-0.00323695 -0.000838583 0)
(-0.0025907 -0.000762509 0)
(-0.0020054 -0.000678182 0)
(-0.00148673 -0.000586369 0)
(-0.0010396 -0.000488184 0)
(-0.00066776 -0.000385233 0)
(-0.000373473 -0.000279836 0)
(-0.000156911 -0.000175357 0)
(-1.54498e-05 -7.67118e-05 0)
(5.71564e-05 8.90105e-06 0)
(7.1934e-05 7.1053e-05 0)
(4.79713e-05 9.49168e-05 0)
(1.46765e-05 5.97858e-05 0)
(1.00374e-05 -8.1222e-05 0)
(2.03566e-05 -0.000104433 0)
(-4.35188e-06 -3.52025e-05 0)
(-9.08568e-05 9.36281e-05 0)
(-0.000257306 0.000259289 0)
(-0.000514648 0.000445233 0)
(-0.000868792 0.000639596 0)
(-0.00132169 0.000834022 0)
(-0.0018722 0.00102266 0)
(-0.00251678 0.00120143 0)
(-0.00325015 0.00136752 0)
(-0.0040657 0.00151902 0)
(-0.0049559 0.00165469 0)
(-0.00591259 0.00177374 0)
(-0.00692717 0.00187577 0)
(-0.00799078 0.00196063 0)
(-0.00909446 0.00202837 0)
(-0.0102293 0.0020792 0)
(-0.0113863 0.00211347 0)
(-0.0125568 0.00213158 0)
(-0.0137322 0.00213404 0)
(-0.0149043 0.0021214 0)
(-0.016065 0.00209425 0)
(-0.0172066 0.00205322 0)
(-0.0183217 0.00199897 0)
(-0.0194034 0.00193218 0)
(-0.0204449 0.00185355 0)
(-0.02144 0.00176379 0)
(-0.0223826 0.00166362 0)
(-0.0232674 0.00155378 0)
(-0.0240893 0.001435 0)
(-0.0248434 0.00130805 0)
(-0.0255255 0.00117368 0)
(-0.0261318 0.00103267 0)
(-0.0266589 0.000885803 0)
(-0.0271037 0.000733872 0)
(-0.0274636 0.000577682 0)
(-0.0277366 0.000418053 0)
(-0.0279211 0.000255817 0)
(-0.0280158 9.18181e-05 0)
(-0.0280201 -7.30829e-05 0)
(-0.0279336 -0.000238013 0)
(-0.0277567 -0.000402085 0)
(-0.0274902 -0.0005644 0)
(-0.0271351 -0.000724043 0)
(-0.0266934 -0.000880094 0)
(-0.0261672 -0.00103162 0)
(-0.0255594 -0.00117768 0)
(-0.0248731 -0.00131733 0)
(-0.0241123 -0.00144964 0)
(-0.0232811 -0.00157365 0)
(-0.0223845 -0.00168845 0)
(-0.0214276 -0.0017931 0)
(-0.0204164 -0.00188671 0)
(-0.019357 -0.0019684 0)
(-0.0182563 -0.00203732 0)
(-0.0171213 -0.00209266 0)
(-0.0159596 -0.00213365 0)
(-0.0147792 -0.00215959 0)
(-0.0135885 -0.00216981 0)
(-0.0123959 -0.00216375 0)
(-0.0112105 -0.00214091 0)
(-0.0100412 -0.00210089 0)
(-0.00889727 -0.00204342 0)
(-0.00778801 -0.00196835 0)
(-0.00672265 -0.00187568 0)
(-0.00571032 -0.00176564 0)
(-0.0047599 -0.00163865 0)
(-0.00387987 -0.00149546 0)
(-0.00307811 -0.00133717 0)
(-0.00236171 -0.00116539 0)
(-0.00173663 -0.000982382 0)
(-0.0012074 -0.000791286 0)
(-0.000776623 -0.000596479 0)
(-0.000444431 -0.000404039 0)
(-0.000207767 -0.000222435 0)
(-5.96276e-05 -6.34531e-05 0)
(1.19299e-05 5.67252e-05 0)
(2.6104e-05 0.000116172 0)
(1.09027e-05 8.38303e-05 0)
(4.01123e-06 -8.70472e-05 0)
(-1.30329e-05 -7.95439e-05 0)
(-9.20059e-05 4.99371e-05 0)
(-0.000253984 0.000259644 0)
(-0.00051481 0.00052018 0)
(-0.000884932 0.000809486 0)
(-0.00136993 0.00111117 0)
(-0.00197141 0.00141323 0)
(-0.0026878 0.00170697 0)
(-0.003515 0.00198609 0)
(-0.0044469 0.00224612 0)
(-0.00547589 0.0024839 0)
(-0.00659323 0.00269728 0)
(-0.00778935 0.00288487 0)
(-0.00905413 0.00304585 0)
(-0.0103771 0.00317985 0)
(-0.0117476 0.00328683 0)
(-0.0131548 0.00336702 0)
(-0.0145881 0.00342086 0)
(-0.016037 0.00344894 0)
(-0.017491 0.00345199 0)
(-0.0189402 0.00343086 0)
(-0.0203747 0.00338643 0)
(-0.0217852 0.00331971 0)
(-0.0231627 0.00323171 0)
(-0.0244984 0.0031235 0)
(-0.0257844 0.0029962 0)
(-0.0270128 0.00285093 0)
(-0.0281763 0.00268885 0)
(-0.0292683 0.00251115 0)
(-0.0302824 0.00231901 0)
(-0.0312128 0.00211366 0)
(-0.0320543 0.00189633 0)
(-0.0328021 0.00166827 0)
(-0.033452 0.00143075 0)
(-0.0340003 0.00118506 0)
(-0.0344439 0.000932508 0)
(-0.0347802 0.000674416 0)
(-0.0350072 0.000412137 0)
(-0.0351234 0.000147043 0)
(-0.035128 -0.000119475 0)
(-0.0350208 -0.000386001 0)
(-0.034802 -0.000651099 0)
(-0.0344726 -0.000913315 0)
(-0.0340341 -0.00117117 0)
(-0.0334887 -0.00142319 0)
(-0.0328393 -0.00166785 0)
(-0.0320891 -0.00190366 0)
(-0.0312424 -0.00212909 0)
(-0.0303036 -0.00234263 0)
(-0.0292782 -0.00254278 0)
(-0.0281721 -0.00272805 0)
(-0.0269916 -0.00289696 0)
(-0.0257441 -0.00304807 0)
(-0.0244371 -0.00318 0)
(-0.0230788 -0.0032914 0)
(-0.021678 -0.00338099 0)
(-0.020244 -0.00344756 0)
(-0.0187864 -0.00349001 0)
(-0.0173154 -0.00350732 0)
(-0.0158413 -0.00349862 0)
(-0.014375 -0.00346316 0)
(-0.0129273 -0.00340037 0)
(-0.0115095 -0.00330988 0)
(-0.0101325 -0.00319154 0)
(-0.00880752 -0.00304545 0)
(-0.00754539 -0.00287206 0)
(-0.00635664 -0.00267221 0)
(-0.00525125 -0.00244718 0)
(-0.00423846 -0.00219891 0)
(-0.00332651 -0.00193005 0)
(-0.00252232 -0.00164429 0)
(-0.0018311 -0.00134661 0)
(-0.00125594 -0.00104373 0)
(-0.000797254 -0.000744669 0)
(-0.000452167 -0.00046159 0)
(-0.000213839 -0.000210794 0)
(-7.06184e-05 -1.38863e-05 0)
(-5.2413e-06 0.000100708 0)
(5.25889e-06 9.31184e-05 0)
(-2.66982e-06 -7.37555e-05 0)
(-5.09376e-05 -7.37476e-06 0)
(-0.000191887 0.000205429 0)
(-0.000438745 0.00051628 0)
(-0.000803621 0.000890237 0)
(-0.00129552 0.00130038 0)
(-0.00191893 0.00172613 0)
(-0.00267457 0.00215199 0)
(-0.00356011 0.00256637 0)
(-0.00457067 0.00296066 0)
(-0.00569929 0.00332855 0)
(-0.0069374 0.00366549 0)
(-0.00827517 0.00396829 0)
(-0.00970184 0.00423479 0)
(-0.011206 0.00446366 0)
(-0.0127757 0.00465419 0)
(-0.0143988 0.0048062 0)
(-0.016063 0.00491989 0)
(-0.0177561 0.00499576 0)
(-0.0194661 0.0050346 0)
(-0.0211808 0.00503738 0)
(-0.0228888 0.00500522 0)
(-0.0245787 0.00493939 0)
(-0.0262396 0.00484126 0)
(-0.027861 0.00471229 0)
(-0.0294328 0.004554 0)
(-0.0309457 0.00436796 0)
(-0.0323905 0.00415581 0)
(-0.0337589 0.00391923 0)
(-0.0350428 0.0036599 0)
(-0.0362349 0.00337958 0)
(-0.0373285 0.00308002 0)
(-0.0383174 0.00276303 0)
(-0.0391961 0.00243043 0)
(-0.0399595 0.00208407 0)
(-0.0406036 0.00172582 0)
(-0.0411244 0.00135761 0)
(-0.0415191 0.000981362 0)
(-0.0417854 0.000599054 0)
(-0.0419214 0.000212686 0)
(-0.0419264 -0.000175711 0)
(-0.0417998 -0.000564074 0)
(-0.0415422 -0.00095031 0)
(-0.0411547 -0.0013323 0)
(-0.0406391 -0.0017079 0)
(-0.039998 -0.00207495 0)
(-0.0392345 -0.00243125 0)
(-0.0383529 -0.00277464 0)
(-0.0373577 -0.00310289 0)
(-0.0362544 -0.00341384 0)
(-0.0350493 -0.00370529 0)
(-0.0337492 -0.0039751 0)
(-0.0323618 -0.00422116 0)
(-0.0308953 -0.00444139 0)
(-0.0293586 -0.0046338 0)
(-0.0277613 -0.00479646 0)
(-0.0261136 -0.00492755 0)
(-0.0244263 -0.00502536 0)
(-0.0227105 -0.00508832 0)
(-0.0209779 -0.00511504 0)
(-0.0192405 -0.00510427 0)
(-0.0175109 -0.00505503 0)
(-0.0158016 -0.00496656 0)
(-0.0141252 -0.0048384 0)
(-0.0124947 -0.00467043 0)
(-0.0109226 -0.00446293 0)
(-0.00942135 -0.00421666 0)
(-0.00800282 -0.00393293 0)
(-0.00667836 -0.00361377 0)
(-0.00545839 -0.00326204 0)
(-0.0043522 -0.00288165 0)
(-0.00336762 -0.00247789 0)
(-0.00251064 -0.00205774 0)
(-0.00178502 -0.00163037 0)
(-0.00119183 -0.00120782 0)
(-0.000728952 -0.000805834 0)
(-0.00039044 -0.000444924 0)
(-0.000165869 -0.000151543 0)
(-4.13307e-05 4.03727e-05 0)
(-1.09782e-06 8.42958e-05 0)
(-9.44605e-06 -4.00971e-05 0)
(-9.05937e-05 0.000116261 0)
(-0.000297601 0.00043753 0)
(-0.000634841 0.000870841 0)
(-0.00110982 0.00137693 0)
(-0.00172941 0.0019248 0)
(-0.00249641 0.00249019 0)
(-0.00341018 0.00305437 0)
(-0.00446726 0.00360301 0)
(-0.00566178 0.0041252 0)
(-0.00698582 0.00461276 0)
(-0.00842982 0.00505967 0)
(-0.0099829 0.00546159 0)
(-0.0116332 0.00581551 0)
(-0.0133681 0.0061195 0)
(-0.0151744 0.00637246 0)
(-0.0170386 0.00657398 0)
(-0.0189473 0.00672421 0)
(-0.0208867 0.0068237 0)
(-0.0228433 0.00687339 0)
(-0.0248039 0.0068745 0)
(-0.0267553 0.00682848 0)
(-0.0286849 0.00673697 0)
(-0.0305805 0.00660175 0)
(-0.0324302 0.00642477 0)
(-0.0342229 0.00620804 0)
(-0.0359477 0.00595368 0)
(-0.0375945 0.00566387 0)
(-0.0391537 0.00534088 0)
(-0.0406164 0.00498699 0)
(-0.0419743 0.00460458 0)
(-0.0432198 0.00419602 0)
(-0.0443458 0.00376377 0)
(-0.0453462 0.00331031 0)
(-0.0462153 0.00283815 0)
(-0.0469482 0.00234986 0)
(-0.0475409 0.00184804 0)
(-0.0479899 0.00133533 0)
(-0.0482927 0.000814412 0)
(-0.0484472 0.000288022 0)
(-0.0484525 -0.000241078 0)
(-0.0483081 -0.000770079 0)
(-0.0480146 -0.00129613 0)
(-0.0475733 -0.00181636 0)
(-0.0469862 -0.00232785 0)
(-0.0462561 -0.00282766 0)
(-0.045387 -0.00331283 0)
(-0.0443832 -0.0037804 0)
(-0.0432501 -0.00422738 0)
(-0.041994 -0.00465083 0)
(-0.0406218 -0.00504779 0)
(-0.0391412 -0.00541537 0)
(-0.037561 -0.00575072 0)
(-0.0358904 -0.00605106 0)
(-0.0341395 -0.00631371 0)
(-0.032319 -0.0065361 0)
(-0.0304404 -0.00671579 0)
(-0.0285157 -0.00685051 0)
(-0.0265575 -0.0069382 0)
(-0.0245789 -0.006977 0)
(-0.0225935 -0.00696534 0)
(-0.020615 -0.00690192 0)
(-0.0186575 -0.00678583 0)
(-0.0167353 -0.00661653 0)
(-0.0148625 -0.00639398 0)
(-0.0130532 -0.00611866 0)
(-0.011321 -0.00579172 0)
(-0.00967928 -0.00541506 0)
(-0.00814045 -0.0049915 0)
(-0.00671608 -0.00452497 0)
(-0.00541647 -0.00402075 0)
(-0.00425041 -0.0034858 0)
(-0.00322482 -0.00292916 0)
(-0.00234435 -0.00236249 0)
(-0.0016111 -0.00180073 0)
(-0.00102416 -0.00126295 0)
(-0.0005791 -0.000773438 0)
(-0.000267395 -0.000362764 0)
(-7.93683e-05 -6.92449e-05 0)
(-7.59322e-06 5.59909e-05 0)
(-1.60549e-05 1.41882e-05 0)
(-0.000130436 0.000293191 0)
(-0.000405173 0.000749505 0)
(-0.000835515 0.00132751 0)
(-0.00142393 0.00198476 0)
(-0.00217469 0.00268702 0)
(-0.00308848 0.00340692 0)
(-0.00416288 0.00412287 0)
(-0.00539301 0.00481802 0)
(-0.00677178 0.00547928 0)
(-0.00829015 0.00609666 0)
(-0.00993749 0.00666265 0)
(-0.0117019 0.00717174 0)
(-0.0135703 0.00762002 0)
(-0.0155291 0.0080049 0)
(-0.0175639 0.00832485 0)
(-0.0196601 0.00857921 0)
(-0.0218029 0.008768 0)
(-0.0239774 0.00889185 0)
(-0.0261689 0.00895182 0)
(-0.0283628 0.00894938 0)
(-0.0305448 0.00888631 0)
(-0.0327011 0.00876464 0)
(-0.0348181 0.00858664 0)
(-0.036883 0.00835472 0)
(-0.0388834 0.00807147 0)
(-0.0408074 0.00773959 0)
(-0.0426438 0.00736186 0)
(-0.044382 0.0069412 0)
(-0.0460124 0.00648056 0)
(-0.0475256 0.00598298 0)
(-0.0489132 0.00545156 0)
(-0.0501676 0.00488946 0)
(-0.0512818 0.00429989 0)
(-0.0522496 0.00368613 0)
(-0.0530658 0.00305149 0)
(-0.0537257 0.00239935 0)
(-0.0542256 0.00173314 0)
(-0.0545626 0.00105635 0)
(-0.0547346 0.000372506 0)
(-0.0547404 -0.000314793 0)
(-0.0545796 -0.00100191 0)
(-0.0542528 -0.00168515 0)
(-0.0537614 -0.0023608 0)
(-0.0531078 -0.00302506 0)
(-0.052295 -0.00367416 0)
(-0.0513273 -0.00430425 0)
(-0.0502096 -0.00491151 0)
(-0.0489479 -0.0054921 0)
(-0.047549 -0.0060422 0)
(-0.0460206 -0.00655803 0)
(-0.0443713 -0.00703586 0)
(-0.0426105 -0.00747203 0)
(-0.0407485 -0.00786298 0)
(-0.0387964 -0.00820526 0)
(-0.036766 -0.0084956 0)
(-0.0346699 -0.00873091 0)
(-0.0325213 -0.00890829 0)
(-0.0303339 -0.00902513 0)
(-0.0281223 -0.00907912 0)
(-0.0259011 -0.00906828 0)
(-0.0236856 -0.00899104 0)
(-0.021491 -0.0088463 0)
(-0.0193329 -0.00863349 0)
(-0.0172268 -0.00835263 0)
(-0.015188 -0.00800448 0)
(-0.0132314 -0.00759062 0)
(-0.0113715 -0.00711357 0)
(-0.00962181 -0.00657704 0)
(-0.00799508 -0.00598608 0)
(-0.00650266 -0.00534737 0)
(-0.00515436 -0.00466958 0)
(-0.00395818 -0.00396381 0)
(-0.00291995 -0.00324409 0)
(-0.00204305 -0.00252805 0)
(-0.00132823 -0.00183778 0)
(-0.000772986 -0.00120081 0)
(-0.000371155 -0.000651073 0)
(-0.000117747 -0.000230176 0)
(-1.39511e-05 7.84768e-06 0)
(-2.23863e-05 8.88048e-05 0)
(-0.000169617 0.000523711 0)
(-0.000512216 0.00114252 0)
(-0.00103647 0.00188817 0)
(-0.00173968 0.00271604 0)
(-0.00262325 0.00358941 0)
(-0.00368542 0.00447838 0)
(-0.00492174 0.00535893 0)
(-0.00632562 0.00621195 0)
(-0.00788853 0.00702239 0)
(-0.00960017 0.00777854 0)
(-0.0114487 0.00847147 0)
(-0.0134211 0.00909449 0)
(-0.0155034 0.0096428 0)
(-0.0176806 0.0101132 0)
(-0.0199374 0.0105036 0)
(-0.022258 0.0108131 0)
(-0.0246266 0.0110416 0)
(-0.0270271 0.0111898 0)
(-0.0294437 0.0112588 0)
(-0.0318607 0.0112505 0)
(-0.0342626 0.0111668 0)
(-0.0366346 0.0110104 0)
(-0.0389621 0.0107838 0)
(-0.0412311 0.0104901 0)
(-0.0434281 0.0101324 0)
(-0.0455405 0.00971411 0)
(-0.047556 0.00923862 0)
(-0.0494633 0.00870953 0)
(-0.0512517 0.00813055 0)
(-0.0529112 0.00750544 0)
(-0.0544328 0.00683807 0)
(-0.055808 0.00613239 0)
(-0.0570294 0.00539241 0)
(-0.0580903 0.00462221 0)
(-0.0589848 0.00382595 0)
(-0.059708 0.00300785 0)
(-0.0602559 0.00217222 0)
(-0.0606253 0.00132339 0)
(-0.060814 0.000465811 0)
(-0.0608206 -0.000396042 0)
(-0.0606448 -0.00125761 0)
(-0.0602872 -0.00211429 0)
(-0.0597492 -0.00296142 0)
(-0.0590335 -0.00379429 0)
(-0.0581434 -0.00460816 0)
(-0.0570835 -0.00539825 0)
(-0.0558592 -0.0061598 0)
(-0.0544768 -0.00688803 0)
(-0.0529439 -0.00757818 0)
(-0.0512687 -0.00822556 0)
(-0.0494605 -0.00882553 0)
(-0.0475296 -0.00937355 0)
(-0.045487 -0.00986522 0)
(-0.0433448 -0.0102963 0)
(-0.0411158 -0.0106627 0)
(-0.0388134 -0.0109606 0)
(-0.036452 -0.0111865 0)
(-0.0340465 -0.0113372 0)
(-0.0316124 -0.0114099 0)
(-0.0291656 -0.0114022 0)
(-0.0267225 -0.0113121 0)
(-0.0242996 -0.0111386 0)
(-0.0219137 -0.0108808 0)
(-0.0195813 -0.010539 0)
(-0.0173191 -0.0101141 0)
(-0.015143 -0.00960832 0)
(-0.0130687 -0.00902473 0)
(-0.0111109 -0.00836795 0)
(-0.0092834 -0.00764418 0)
(-0.00759869 -0.00686151 0)
(-0.00606774 -0.0060303 0)
(-0.0046998 -0.00516358 0)
(-0.00350207 -0.00427762 0)
(-0.00247953 -0.0033925 0)
(-0.00163483 -0.00253295 0)
(-0.000967733 -0.00172922 0)
(-0.000474702 -0.00101788 0)
(-0.000155583 -0.000442885 0)
(-2.00512e-05 -5.9908e-05 0)
(-2.84065e-05 0.000183178 0)
(-0.000207709 0.000807197 0)
(-0.000617366 0.00161637 0)
(-0.00123509 0.00255312 0)
(-0.00205307 0.00357146 0)
(-0.00306972 0.00463285 0)
(-0.00428068 0.0057054 0)
(-0.00567921 0.00676307 0)
(-0.00725684 0.00778483 0)
(-0.0090034 0.00875386 0)
(-0.0109072 0.0096569 0)
(-0.0129551 0.0104837 0)
(-0.0151329 0.0112264 0)
(-0.0174253 0.0118795 0)
(-0.0198166 0.012439 0)
(-0.0222901 0.0129024 0)
(-0.0248292 0.0132685 0)
(-0.0274167 0.0135372 0)
(-0.0300358 0.013709 0)
(-0.0326695 0.0137854 0)
(-0.0353011 0.0137683 0)
(-0.0379142 0.0136603 0)
(-0.0404928 0.0134641 0)
(-0.0430214 0.0131831 0)
(-0.0454852 0.0128208 0)
(-0.0478697 0.0123809 0)
(-0.0501614 0.0118675 0)
(-0.0523472 0.0112847 0)
(-0.0544151 0.0106369 0)
(-0.0563534 0.00992851 0)
(-0.0581518 0.00916409 0)
(-0.0598003 0.00834836 0)
(-0.06129 0.00748609 0)
(-0.062613 0.00658216 0)
(-0.063762 0.00564154 0)
(-0.0647309 0.00466928 0)
(-0.0655143 0.00367052 0)
(-0.0661079 0.00265047 0)
(-0.0665083 0.00161444 0)
(-0.0667132 0.000567806 0)
(-0.066721 -0.000483969 0)
(-0.0665315 -0.00153536 0)
(-0.0661452 -0.00258076 0)
(-0.0655638 -0.0036145 0)
(-0.06479 -0.00463089 0)
(-0.0638274 -0.00562415 0)
(-0.0626809 -0.00658852 0)
(-0.0613562 -0.00751819 0)
(-0.0598602 -0.00840739 0)
(-0.0582008 -0.00925036 0)
(-0.0563869 -0.0100414 0)
(-0.0544284 -0.010775 0)
(-0.0523363 -0.0114455 0)
(-0.0501223 -0.0120478 0)
(-0.0477993 -0.0125766 0)
(-0.045381 -0.0130271 0)
(-0.0428817 -0.0133947 0)
(-0.0403168 -0.0136752 0)
(-0.0377021 -0.0138648 0)
(-0.0350542 -0.0139601 0)
(-0.03239 -0.0139582 0)
(-0.029727 -0.0138571 0)
(-0.0270828 -0.0136552 0)
(-0.0244752 -0.0133518 0)
(-0.0219222 -0.0129473 0)
(-0.0194411 -0.0124429 0)
(-0.0170494 -0.011841 0)
(-0.0147636 -0.0111457 0)
(-0.0125997 -0.0103624 0)
(-0.0105727 -0.00949834 0)
(-0.00869615 -0.00856305 0)
(-0.00698247 -0.00756848 0)
(-0.00544223 -0.00652948 0)
(-0.0040842 -0.00546434 0)
(-0.00291517 -0.00439535 0)
(-0.00193994 -0.0033495 0)
(-0.00116068 -0.00235924 0)
(-0.000576638 -0.00146319 0)
(-0.000192427 -0.000706898 0)
(-2.58531e-05 -0.000146755 0)
(-3.41189e-05 0.000296618 0)
(-0.000244532 0.00114252 0)
(-0.000719916 0.00217001 0)
(-0.00142988 0.00332162 0)
(-0.0023617 0.00455058 0)
(-0.00351077 0.00581713 0)
(-0.00487003 0.00708785 0)
(-0.00643033 0.00833507 0)
(-0.00818115 0.00953615 0)
(-0.0101106 0.0106728 0)
(-0.0122053 0.0117303 0)
(-0.0144508 0.0126972 0)
(-0.0168316 0.0135648 0)
(-0.0193314 0.0143265 0)
(-0.0219331 0.014978 0)
(-0.0246191 0.0155162 0)
(-0.0273717 0.0159398 0)
(-0.0301728 0.0162483 0)
(-0.0330044 0.0164426 0)
(-0.0358487 0.0165241 0)
(-0.038688 0.0164952 0)
(-0.0415049 0.0163586 0)
(-0.0442826 0.0161177 0)
(-0.0470048 0.0157762 0)
(-0.0496556 0.0153384 0)
(-0.0522199 0.0148087 0)
(-0.0546833 0.0141916 0)
(-0.057032 0.0134923 0)
(-0.0592533 0.0127158 0)
(-0.0613349 0.0118673 0)
(-0.0632657 0.0109523 0)
(-0.0650353 0.00997635 0)
(-0.0666343 0.00894512 0)
(-0.0680542 0.0078644 0)
(-0.0692873 0.0067401 0)
(-0.0703272 0.00557822 0)
(-0.0711681 0.00438488 0)
(-0.0718056 0.00316626 0)
(-0.072236 0.00192869 0)
(-0.0724568 0.000678545 0)
(-0.0724665 -0.000577675 0)
(-0.0722646 -0.0018334 0)
(-0.0718518 -0.00308197 0)
(-0.0712298 -0.00431667 0)
(-0.0704014 -0.00553072 0)
(-0.0693706 -0.00671728 0)
(-0.0681423 -0.00786949 0)
(-0.0667228 -0.0089805 0)
(-0.0651192 -0.0100434 0)
(-0.0633399 -0.0110515 0)
(-0.0613943 -0.011998 0)
(-0.0592928 -0.0128762 0)
(-0.057047 -0.0136797 0)
(-0.0546694 -0.0144022 0)
(-0.0521735 -0.0150377 0)
(-0.0495737 -0.0155803 0)
(-0.0468853 -0.0160248 0)
(-0.0441245 -0.0163662 0)
(-0.0413079 -0.0165999 0)
(-0.0384531 -0.0167221 0)
(-0.0355781 -0.0167294 0)
(-0.0327012 -0.0166194 0)
(-0.0298412 -0.0163903 0)
(-0.027017 -0.0160415 0)
(-0.0242474 -0.0155732 0)
(-0.0215511 -0.014987 0)
(-0.0189465 -0.0142859 0)
(-0.0164515 -0.0134744 0)
(-0.014083 -0.0125589 0)
(-0.0118574 -0.0115478 0)
(-0.00978959 -0.0104517 0)
(-0.0078933 -0.00928423 0)
(-0.00618069 -0.00806183 0)
(-0.00466224 -0.00680464 0)
(-0.00334673 -0.00553684 0)
(-0.00224119 -0.00428735 0)
(-0.00135036 -0.00309043 0)
(-0.000676244 -0.0019862 0)
(-0.00022809 -0.00102123 0)
(-3.13571e-05 -0.000252046 0)
(-3.95448e-05 0.000428408 0)
(-0.000280055 0.00152833 0)
(-0.000819581 0.00280193 0)
(-0.00162013 0.00419227 0)
(-0.00266429 0.00565226 0)
(-0.00394451 0.00714132 0)
(-0.00545098 0.00862493 0)
(-0.00717208 0.0100742 0)
(-0.00909513 0.0114651 0)
(-0.0112063 0.012778 0)
(-0.0134907 0.0139972 0)
(-0.0159322 0.0151101 0)
(-0.0185141 0.0161071 0)
(-0.0212188 0.016981 0)
(-0.0240279 0.0177267 0)
(-0.026923 0.018341 0)
(-0.0298851 0.0188222 0)
(-0.0328953 0.0191699 0)
(-0.0359346 0.019385 0)
(-0.0389841 0.019469 0)
(-0.0420254 0.0194246 0)
(-0.0450403 0.019255 0)
(-0.0480109 0.0189641 0)
(-0.0509203 0.0185561 0)
(-0.0537517 0.0180359 0)
(-0.0564894 0.0174086 0)
(-0.0591182 0.0166797 0)
(-0.0616237 0.0158548 0)
(-0.0639924 0.0149398 0)
(-0.0662117 0.013941 0)
(-0.0682696 0.0128645 0)
(-0.0701555 0.011717 0)
(-0.0718593 0.0105049 0)
(-0.0733722 0.00923519 0)
(-0.0746862 0.00791458 0)
(-0.0757944 0.00655014 0)
(-0.0766909 0.00514898 0)
(-0.0773709 0.00371836 0)
(-0.0778305 0.00226562 0)
(-0.0780672 0.000798247 0)
(-0.0780792 -0.000676206 0)
(-0.0778663 -0.00215006 0)
(-0.0774289 -0.00361556 0)
(-0.0767689 -0.00506487 0)
(-0.0758893 -0.00649007 0)
(-0.0747941 -0.0078832 0)
(-0.0734885 -0.00923628 0)
(-0.0719791 -0.0105413 0)
(-0.0702732 -0.0117903 0)
(-0.0683797 -0.0129753 0)
(-0.0663083 -0.0140886 0)
(-0.0640701 -0.0151223 0)
(-0.0616771 -0.016069 0)
(-0.0591423 -0.0169213 0)
(-0.0564801 -0.0176723 0)
(-0.0537054 -0.0183153 0)
(-0.0508343 -0.018844 0)
(-0.0478837 -0.0192527 0)
(-0.0448712 -0.0195362 0)
(-0.0418151 -0.0196899 0)
(-0.0387345 -0.0197102 0)
(-0.0356485 -0.019594 0)
(-0.032577 -0.0193394 0)
(-0.0295398 -0.0189457 0)
(-0.0265568 -0.0184132 0)
(-0.0236479 -0.0177438 0)
(-0.0208326 -0.0169407 0)
(-0.0181298 -0.0160092 0)
(-0.0155579 -0.0149565 0)
(-0.0131345 -0.0137918 0)
(-0.0108758 -0.0125272 0)
(-0.00879722 -0.0111774 0)
(-0.00691248 -0.00976051 0)
(-0.00523394 -0.00829827 0)
(-0.00377244 -0.00681652 0)
(-0.00253738 -0.00534577 0)
(-0.00153607 -0.00392172 0)
(-0.000773248 -0.00258561 0)
(-0.000262539 -0.00138464 0)
(-3.65836e-05 -0.000375107 0)
(-4.47135e-05 0.000577856 0)
(-0.000314328 0.00196317 0)
(-0.000916339 0.0035104 0)
(-0.00180563 0.00516333 0)
(-0.00296033 0.00687487 0)
(-0.00437007 0.00860399 0)
(-0.0060223 0.0103154 0)
(-0.00790289 0.0119792 0)
(-0.00999693 0.0135704 0)
(-0.0122886 0.0150683 0)
(-0.0147613 0.0164562 0)
(-0.0173974 0.0177207 0)
(-0.0201786 0.0188513 0)
(-0.023086 0.0198404 0)
(-0.0261003 0.0206823 0)
(-0.0292016 0.0213735 0)
(-0.03237 0.0219121 0)
(-0.0355857 0.0222978 0)
(-0.0388286 0.0225315 0)
(-0.0420791 0.022615 0)
(-0.0453178 0.0225513 0)
(-0.0485257 0.0223441 0)
(-0.0516842 0.0219977 0)
(-0.0547756 0.0215171 0)
(-0.0577824 0.0209076 0)
(-0.0606882 0.0201752 0)
(-0.0634772 0.019326 0)
(-0.0661343 0.0183666 0)
(-0.0686456 0.0173037 0)
(-0.0709978 0.0161445 0)
(-0.0731786 0.0148962 0)
(-0.0751766 0.0135661 0)
(-0.0769817 0.0121619 0)
(-0.0785845 0.0106913 0)
(-0.0799767 0.0091623 0)
(-0.081151 0.00758291 0)
(-0.0821014 0.00596133 0)
(-0.0828228 0.00430587 0)
(-0.0833113 0.002625 0)
(-0.083564 0.00092729 0)
(-0.0835792 -0.000778553 0)
(-0.0833565 -0.00248372 0)
(-0.0828965 -0.0041793 0)
(-0.0822011 -0.00585627 0)
(-0.0812731 -0.00750557 0)
(-0.080117 -0.00911806 0)
(-0.078738 -0.0106845 0)
(-0.0771429 -0.0121959 0)
(-0.0753394 -0.0136428 0)
(-0.0733366 -0.0150164 0)
(-0.0711447 -0.0163076 0)
(-0.0687751 -0.0175074 0)
(-0.0662404 -0.0186074 0)
(-0.0635541 -0.0195992 0)
(-0.060731 -0.0204746 0)
(-0.0577868 -0.0212262 0)
(-0.0547383 -0.0218466 0)
(-0.051603 -0.0223293 0)
(-0.0483993 -0.0226685 0)
(-0.0451465 -0.0228588 0)
(-0.0418643 -0.0228961 0)
(-0.0385729 -0.0227769 0)
(-0.0352931 -0.0224991 0)
(-0.0320457 -0.0220617 0)
(-0.0288517 -0.0214651 0)
(-0.025732 -0.0207113 0)
(-0.0227073 -0.0198041 0)
(-0.0197979 -0.0187491 0)
(-0.0170233 -0.0175543 0)
(-0.0144026 -0.0162299 0)
(-0.0119535 -0.014789 0)
(-0.00969289 -0.0132476 0)
(-0.00763642 -0.0116251 0)
(-0.00579833 -0.00994465 0)
(-0.00419164 -0.00823355 0)
(-0.00282814 -0.00652362 0)
(-0.00171768 -0.00485174 0)
(-0.000867664 -0.00325997 0)
(-0.000295838 -0.00179586 0)
(-4.15632e-05 -0.000515288 0)
(-4.96569e-05 0.000744322 0)
(-0.000347453 0.00244564 0)
(-0.00101033 0.00429363 0)
(-0.00198648 0.00623291 0)
(-0.00324984 0.00821661 0)
(-0.0047873 0.0102035 0)
(-0.00658365 0.0121577 0)
(-0.00862224 0.0140488 0)
(-0.0108859 0.0158508 0)
(-0.0133569 0.0175424 0)
(-0.0160165 0.019106 0)
(-0.0188457 0.0205274 0)
(-0.0218247 0.0217957 0)
(-0.0249331 0.0229026 0)
(-0.0281503 0.0238422 0)
(-0.0314555 0.0246108 0)
(-0.0348277 0.0252064 0)
(-0.0382459 0.0256286 0)
(-0.0416893 0.0258784 0)
(-0.0451373 0.0259582 0)
(-0.0485696 0.0258712 0)
(-0.0519666 0.0256215 0)
(-0.0553089 0.025214 0)
(-0.0585779 0.0246543 0)
(-0.0617558 0.0239486 0)
(-0.0648253 0.0231034 0)
(-0.0677702 0.0221258 0)
(-0.0705748 0.0210232 0)
(-0.0732245 0.0198033 0)
(-0.0757057 0.0184739 0)
(-0.0780057 0.0170434 0)
(-0.0801127 0.0155202 0)
(-0.0820161 0.0139128 0)
(-0.0837062 0.0122301 0)
(-0.0851745 0.0104811 0)
(-0.0864133 0.00867492 0)
(-0.0874165 0.00682081 0)
(-0.0881787 0.00492823 0)
(-0.0886957 0.00300678 0)
(-0.0889648 0.0010662 0)
(-0.0889841 -0.000883645 0)
(-0.088753 -0.00283276 0)
(-0.0882722 -0.00477105 0)
(-0.0875435 -0.00668828 0)
(-0.0865701 -0.00857416 0)
(-0.0853561 -0.0104183 0)
(-0.0839073 -0.0122104 0)
(-0.0822304 -0.0139399 0)
(-0.0803334 -0.0155966 0)
(-0.0782257 -0.01717 0)
(-0.0759179 -0.01865 0)
(-0.0734216 -0.0200266 0)
(-0.0707498 -0.02129 0)