/*--------------------------------*- C++ -*----------------------------------*\
  =========                 |
  \\      /  F ield         | OpenFOAM: The Open Source CFD Toolbox
   \\    /   O peration     | Website:  https://openfoam.org
    \\  /    A nd           | Version:  7
     \\/     M anipulation  |
\*---------------------------------------------------------------------------*/
FoamFile
{
    version     2.0;
    format      ascii;
    class       surfaceScalarField;
    location    "0.5";
    object      phi;
}
// * * * * * * * * * * * * * * * * * * * * * * * * * * * * * * * * * * * * * //

dimensions      [0 3 -1 0 0 0 0];

internalField   nonuniform List<scalar> 
50880
(
6.02415e-12
-6.2048e-12
3.62251e-11
-3.0204e-11
8.11264e-11
-4.48906e-11
1.30792e-10
-4.96385e-11
1.78067e-10
-4.72634e-11
2.17959e-10
-3.99085e-11
2.47045e-10
-2.91081e-11
2.63026e-10
-1.59834e-11
2.64378e-10
-1.33803e-12
2.50125e-10
1.42637e-11
2.19697e-10
3.0424e-11
1.72836e-10
4.68514e-11
1.09511e-10
6.3321e-11
2.98584e-11
7.96569e-11
-6.58628e-11
9.57259e-11
-1.77292e-10
1.11429e-10
-3.03988e-10
1.26693e-10
-4.45445e-10
1.41455e-10
-6.01111e-10
1.55667e-10
-7.70401e-10
1.69292e-10
-9.527e-10
1.823e-10
-1.14737e-09
1.94672e-10
-1.35377e-09
2.06393e-10
-1.57122e-09
2.17452e-10
-1.79906e-09
2.2784e-10
-2.03661e-09
2.37553e-10
-2.2832e-09
2.46591e-10
-2.53816e-09
2.54954e-10
-2.8008e-09
2.62645e-10
-3.07047e-09
2.69667e-10
-3.34649e-09
2.76025e-10
-3.62822e-09
2.81726e-10
-3.915e-09
2.86779e-10
-4.20619e-09
2.91191e-10
-4.50117e-09
2.94972e-10
-4.7993e-09
2.9813e-10
-5.09997e-09
3.00676e-10
-5.40259e-09
3.02621e-10
-5.70657e-09
3.03976e-10
-6.01133e-09
3.04753e-10
-6.31629e-09
3.04962e-10
-6.6209e-09
3.04617e-10
-6.92463e-09
3.03727e-10
-7.22694e-09
3.02307e-10
-7.52731e-09
3.00369e-10
-7.82523e-09
2.97925e-10
-8.12022e-09
2.94988e-10
-8.41179e-09
2.9157e-10
-8.69947e-09
2.87685e-10
-8.98282e-09
2.83345e-10
-9.26138e-09
2.78563e-10
-9.53473e-09
2.73353e-10
-9.80246e-09
2.67727e-10
-1.00642e-08
2.61699e-10
-1.03194e-08
2.5528e-10
-1.05679e-08
2.48485e-10
-1.08093e-08
2.41328e-10
-1.10431e-08
2.3382e-10
-1.1269e-08
2.25976e-10
-1.14869e-08
2.17808e-10
-1.16962e-08
2.09331e-10
-1.18967e-08
2.00556e-10
-1.20882e-08
1.91498e-10
-1.22704e-08
1.82171e-10
-1.2443e-08
1.72587e-10
-1.26058e-08
1.6276e-10
-1.27585e-08
1.52705e-10
-1.29009e-08
1.42434e-10
-1.30329e-08
1.31962e-10
-1.31542e-08
1.21302e-10
-1.32646e-08
1.10468e-10
-1.33641e-08
9.94754e-11
-1.34524e-08
8.83374e-11
-1.35295e-08
7.70686e-11
-1.35952e-08
6.56833e-11
-1.36494e-08
5.41961e-11
-1.3692e-08
4.26218e-11
-1.3723e-08
3.09751e-11
-1.37423e-08
1.92713e-11
-1.37498e-08
7.52521e-12
-1.37455e-08
-4.24781e-12
-1.37295e-08
-1.60324e-11
-1.37017e-08
-2.7813e-11
-1.36621e-08
-3.95738e-11
-1.36108e-08
-5.12991e-11
-1.35479e-08
-6.2973e-11
-1.34733e-08
-7.45795e-11
-1.33872e-08
-8.61024e-11
-1.32896e-08
-9.75252e-11
-1.31808e-08
-1.08831e-10
-1.30608e-08
-1.20004e-10
-1.29298e-08
-1.31027e-10
-1.27879e-08
-1.41884e-10
-1.26353e-08
-1.52557e-10
-1.24723e-08
-1.6303e-10
-1.2299e-08
-1.73285e-10
-1.21157e-08
-1.83306e-10
-1.19226e-08
-1.93076e-10
-1.17201e-08
-2.02576e-10
-1.15083e-08
-2.11792e-10
-1.12876e-08
-2.20704e-10
-1.10583e-08
-2.29296e-10
-1.08207e-08
-2.37552e-10
-1.05753e-08
-2.45454e-10
-1.03223e-08
-2.52985e-10
-1.00622e-08
-2.60129e-10
-9.79528e-09
-2.66869e-10
-9.52209e-09
-2.7319e-10
-9.24302e-09
-2.79073e-10
-8.95852e-09
-2.84505e-10
-8.66905e-09
-2.89469e-10
-8.3751e-09
-2.93949e-10
-8.07717e-09
-2.97931e-10
-7.77577e-09
-3.014e-10
-7.47143e-09
-3.0434e-10
-7.16469e-09
-3.0674e-10
-6.8561e-09
-3.08584e-10
-6.54624e-09
-3.09861e-10
-6.23569e-09
-3.10556e-10
-5.92503e-09
-3.10658e-10
-5.61487e-09
-3.10156e-10
-5.30583e-09
-3.0904e-10
-4.99853e-09
-3.07298e-10
-4.69361e-09
-3.04922e-10
-4.39171e-09
-3.01903e-10
-4.09348e-09
-2.98232e-10
-3.79957e-09
-2.93904e-10
-3.51066e-09
-2.88912e-10
-3.22741e-09
-2.83252e-10
-2.95049e-09
-2.76919e-10
-2.68058e-09
-2.69911e-10
-2.41835e-09
-2.62226e-10
-2.16449e-09
-2.53866e-10
-1.91965e-09
-2.44834e-10
-1.68452e-09
-2.35131e-10
-1.45976e-09
-2.24764e-10
-1.24602e-09
-2.13742e-10
-1.04394e-09
-2.02076e-10
-8.54155e-10
-1.89784e-10
-6.77272e-10
-1.76883e-10
-5.1388e-10
-1.63395e-10
-3.64534e-10
-1.49348e-10
-2.29755e-10
-1.3478e-10
-1.10015e-10
-1.19736e-10
-5.73609e-12
-1.04275e-10
8.27277e-11
-8.84636e-11
1.55109e-10
-7.23857e-11
2.11254e-10
-5.61476e-11
2.51144e-10
-3.9889e-11
2.74938e-10
-2.37899e-11
2.83022e-10
-8.08093e-12
2.76083e-10
6.9374e-12
2.5522e-10
2.08599e-11
2.22093e-10
3.31279e-11
1.79139e-10
4.29592e-11
1.29888e-10
4.92592e-11
7.93614e-11
5.05295e-11
3.46275e-11
4.47212e-11
5.33478e-12
2.92603e-11
5.30386e-12
3.01119e-11
-3.63119e-11
1.01264e-10
-1.01378e-10
1.95531e-10
-1.39196e-10
2.95887e-10
-1.50004e-10
3.87978e-10
-1.39327e-10
4.60542e-10
-1.12448e-10
5.05103e-10
-7.36739e-11
5.15478e-10
-2.63818e-11
4.87289e-10
2.68383e-11
4.17536e-10
8.40228e-11
3.04288e-10
1.43683e-10
1.4645e-10
2.0469e-10
-5.64104e-11
2.66174e-10
-3.04212e-10
3.27452e-10
-5.96474e-10
3.87989e-10
-9.32404e-10
4.47364e-10
-1.31095e-09
5.05246e-10
-1.73087e-09
5.61375e-10
-2.19075e-09
6.15546e-10
-2.68905e-09
6.67592e-10
-3.22414e-09
7.17387e-10
-3.79429e-09
7.64829e-10
-4.39775e-09
8.09845e-10
-5.03267e-09
8.52377e-10
-5.69722e-09
8.92386e-10
-6.38951e-09
9.29844e-10
-7.10766e-09
9.64736e-10
-7.84976e-09
9.97055e-10
-8.61392e-09
1.02681e-09
-9.39825e-09
1.05399e-09
-1.02009e-08
1.07864e-09
-1.10199e-08
1.10075e-09
-1.18535e-08
1.12037e-09
-1.26998e-08
1.13751e-09
-1.35571e-08
1.15221e-09
-1.44234e-08
1.1645e-09
-1.52972e-08
1.17442e-09
-1.61766e-08
1.18201e-09
-1.70599e-08
1.1873e-09
-1.79455e-08
1.19035e-09
-1.88317e-08
1.19118e-09
-1.9717e-08
1.18986e-09
-2.05996e-08
1.18642e-09
-2.14782e-08
1.1809e-09
-2.23512e-08
1.17337e-09
-2.32172e-08
1.16386e-09
-2.40746e-08
1.15242e-09
-2.49221e-08
1.1391e-09
-2.57584e-08
1.12396e-09
-2.65821e-08
1.10703e-09
-2.73919e-08
1.08838e-09
-2.81866e-08
1.06805e-09
-2.8965e-08
1.04609e-09
-2.97258e-08
1.02256e-09
-3.04681e-08
9.97498e-10
-3.11905e-08
9.70963e-10
-3.18922e-08
9.43004e-10
-3.25721e-08
9.13674e-10
-3.32291e-08
8.83024e-10
-3.38624e-08
8.51107e-10
-3.44711e-08
8.17974e-10
-3.50542e-08
7.83679e-10
-3.5611e-08
7.48272e-10
-3.61406e-08
7.11808e-10
-3.66424e-08
6.7434e-10
-3.71155e-08
6.35921e-10
-3.75594e-08
5.96605e-10
-3.79734e-08
5.56445e-10
-3.8357e-08
5.15497e-10
-3.87095e-08
4.73815e-10
-3.90305e-08
4.31453e-10
-3.93194e-08
3.88469e-10
-3.9576e-08
3.44917e-10
-3.97998e-08
3.00854e-10
-3.99905e-08
2.56337e-10
-4.01477e-08
2.11423e-10
-4.02712e-08
1.6617e-10
-4.03609e-08
1.20636e-10
-4.04165e-08
7.48811e-11
-4.0438e-08
2.89636e-11
-4.04251e-08
-1.70563e-11
-4.03781e-08
-6.31182e-11
-4.02967e-08
-1.09161e-10
-4.01812e-08
-1.55124e-10
-4.00315e-08
-2.00944e-10
-3.98479e-08
-2.46558e-10
-3.96306e-08
-2.91905e-10
-3.93798e-08
-3.3692e-10
-3.90958e-08
-3.81539e-10
-3.87789e-08
-4.25698e-10
-3.84296e-08
-4.69332e-10
-3.80482e-08
-5.12376e-10
-3.76354e-08
-5.54764e-10
-3.71915e-08
-5.9643e-10
-3.67172e-08
-6.37309e-10
-3.62132e-08
-6.77333e-10
-3.568e-08
-7.16436e-10
-3.51185e-08
-7.54553e-10
-3.45295e-08
-7.91615e-10
-3.39137e-08
-8.27557e-10
-3.32721e-08
-8.62313e-10
-3.26056e-08
-8.95815e-10
-3.19152e-08
-9.27998e-10
-3.12018e-08
-9.58797e-10
-3.04667e-08
-9.88145e-10
-2.97108e-08
-1.01598e-09
-2.89354e-08
-1.04223e-09
-2.81418e-08
-1.06685e-09
-2.73311e-08
-1.08976e-09
-2.65047e-08
-1.1109e-09
-2.5664e-08
-1.13022e-09
-2.48103e-08
-1.14765e-09
-2.39451e-08
-1.16313e-09
-2.30698e-08
-1.17662e-09
-2.21861e-08
-1.18805e-09
-2.12955e-08
-1.19737e-09
-2.03995e-08
-1.20453e-09
-1.94999e-08
-1.20948e-09
-1.85983e-08
-1.21218e-09
-1.76964e-08
-1.21257e-09
-1.67959e-08
-1.21061e-09
-1.58987e-08
-1.20627e-09
-1.50065e-08
-1.19951e-09
-1.41211e-08
-1.19028e-09
-1.32445e-08
-1.17857e-09
-1.23784e-08
-1.16434e-09
-1.15247e-08
-1.14757e-09
-1.06854e-08
-1.12824e-09
-9.86227e-09
-1.10633e-09
-9.05735e-09
-1.08184e-09
-8.27251e-09
-1.05475e-09
-7.50966e-09
-1.02508e-09
-6.77072e-09
-9.92811e-10
-6.05757e-09
-9.57977e-10
-5.37211e-09
-9.20596e-10
-4.71618e-09
-8.80698e-10
-4.0916e-09
-8.38324e-10
-3.50015e-09
-7.93529e-10
-2.94355e-09
-7.46382e-10
-2.42346e-09
-6.9697e-10
-1.94145e-09
-6.45398e-10
-1.49901e-09
-5.91795e-10
-1.09748e-09
-5.36316e-10
-7.38064e-10
-4.79153e-10
-4.21792e-10
-4.20545e-10
-1.49464e-10
-3.60785e-10
7.83857e-11
-3.00231e-10
2.6156e-10
-2.39325e-10
4.00285e-10
-1.78619e-10
4.9531e-10
-1.18817e-10
5.48047e-10
-6.08126e-11
5.60739e-10
-5.74969e-12
5.36702e-10
4.48947e-11
4.80629e-10
8.91929e-11
3.98961e-10
1.24618e-10
3.00331e-10
1.47886e-10
1.96019e-10
1.54862e-10
1.00186e-10
1.40602e-10
2.93012e-11
1.00199e-10
3.45809e-11
4.48717e-11
-8.11691e-11
1.39217e-10
-1.95702e-10
2.56506e-10
-2.56505e-10
3.75126e-10
-2.6866e-10
4.76823e-10
-2.41034e-10
5.46721e-10
-1.82323e-10
5.73091e-10
-1.00023e-10
5.46962e-10
-2.57138e-13
4.61706e-10
1.12076e-10
3.12592e-10
2.33128e-10
9.64229e-11
3.59857e-10
-1.8876e-10
4.89881e-10
-5.43913e-10
6.21327e-10
-9.69177e-10
7.52711e-10
-1.46404e-09
8.8285e-10
-2.02747e-09
1.0108e-09
-2.65801e-09
1.13579e-09
-3.35387e-09
1.25723e-09
-4.11295e-09
1.37463e-09
-4.93297e-09
1.48761e-09
-5.81142e-09
1.59584e-09
-6.7457e-09
1.6991e-09
-7.73304e-09
1.79719e-09
-8.77064e-09
1.88997e-09
-9.85558e-09
1.97733e-09
-1.09849e-08
2.05919e-09
-1.21557e-08
2.13551e-09
-1.33649e-08
2.20625e-09
-1.46095e-08
2.27142e-09
-1.58865e-08
2.33101e-09
-1.7193e-08
2.38506e-09
-1.85258e-08
2.43359e-09
-1.98821e-08
2.47666e-09
-2.12589e-08
2.51431e-09
-2.26533e-08
2.54661e-09
-2.40624e-08
2.57363e-09
-2.54834e-08
2.59545e-09
-2.69136e-08
2.61214e-09
-2.83501e-08
2.62379e-09
-2.97902e-08
2.63048e-09
-3.12313e-08
2.63232e-09
-3.26709e-08
2.62939e-09
-3.41062e-08
2.6218e-09
-3.5535e-08
2.60964e-09
-3.69546e-08
2.59301e-09
-3.83628e-08
2.57202e-09
-3.97571e-08
2.54678e-09
-4.11354e-08
2.51738e-09
-4.24954e-08
2.48395e-09
-4.3835e-08
2.44658e-09
-4.5152e-08
2.40539e-09
-4.64444e-08
2.36049e-09
-4.77103e-08
2.31199e-09
-4.89477e-08
2.25999e-09
-5.01549e-08
2.20462e-09
-5.13299e-08
2.14599e-09
-5.24711e-08
2.0842e-09
-5.35768e-08
2.01938e-09
-5.46454e-08
1.95164e-09
-5.56754e-08
1.88108e-09
-5.66653e-08
1.80784e-09
-5.76136e-08
1.73202e-09
-5.85191e-08
1.65374e-09
-5.93804e-08
1.57312e-09
-6.01963e-08
1.49028e-09
-6.09657e-08
1.40533e-09
-6.16875e-08
1.3184e-09
-6.23607e-08
1.2296e-09
-6.29842e-08
1.13905e-09
-6.35573e-08
1.04688e-09
-6.40791e-08
9.53212e-10
-6.45488e-08
8.58163e-10
-6.49657e-08
7.6186e-10
-6.53293e-08
6.64429e-10
-6.56389e-08
5.65996e-10
-6.58942e-08
4.66688e-10
-6.60947e-08
3.66633e-10
-6.624e-08
2.65962e-10
-6.63299e-08
1.64804e-10
-6.63642e-08
6.32911e-11
-6.63429e-08
-3.84432e-11
-6.62657e-08
-1.40265e-10
-6.61328e-08
-2.4204e-10
-6.59443e-08
-3.4363e-10
-6.57004e-08
-4.449e-10
-6.54012e-08
-5.45709e-10
-6.50472e-08
-6.45919e-10
-6.46387e-08
-7.45388e-10
-6.41763e-08
-8.43976e-10
-6.36605e-08
-9.4154e-10
-6.30919e-08
-1.03794e-09
-6.24712e-08
-1.13302e-09
-6.17993e-08
-1.22665e-09
-6.10771e-08
-1.31867e-09
-6.03055e-08
-1.40895e-09
-5.94855e-08
-1.49733e-09
-5.86182e-08
-1.58367e-09
-5.7705e-08
-1.66782e-09
-5.67469e-08
-1.74963e-09
-5.57455e-08
-1.82897e-09
-5.47022e-08
-1.90567e-09
-5.36184e-08
-1.97961e-09
-5.24958e-08
-2.05062e-09
-5.1336e-08
-2.11857e-09
-5.01408e-08
-2.18332e-09
-4.89121e-08
-2.24471e-09
-4.76517e-08
-2.30262e-09
-4.63616e-08
-2.3569e-09
-4.5044e-08
-2.40741e-09
-4.37009e-08
-2.45403e-09
-4.23345e-08
-2.49661e-09
-4.09471e-08
-2.53503e-09
-3.95411e-08
-2.56917e-09
-3.81188e-08
-2.59889e-09
-3.66827e-08
-2.62408e-09
-3.52355e-08
-2.64463e-09
-3.37796e-08
-2.66042e-09
-3.23177e-08
-2.67134e-09
-3.08526e-08
-2.67729e-09
-2.9387e-08
-2.67818e-09
-2.79237e-08
-2.67391e-09
-2.64656e-08
-2.6644e-09
-2.50155e-08
-2.64957e-09
-2.35765e-08
-2.62934e-09
-2.21514e-08
-2.60365e-09
-2.07433e-08
-2.57245e-09
-1.93552e-08
-2.53569e-09
-1.79901e-08
-2.49332e-09
-1.66511e-08
-2.44532e-09
-1.53413e-08
-2.39168e-09
-1.40636e-08
-2.33238e-09
-1.28213e-08
-2.26745e-09
-1.16172e-08
-2.19689e-09
-1.04544e-08
-2.12076e-09
-9.3359e-09
-2.03911e-09
-8.26457e-09
-1.95202e-09
-7.24328e-09
-1.85961e-09
-6.27481e-09
-1.762e-09
-5.36183e-09
-1.65937e-09
-4.50689e-09
-1.55191e-09
-3.7124e-09
-1.43988e-09
-2.98059e-09
-1.3236e-09
-2.31349e-09
-1.20342e-09
-1.71285e-09
-1.07979e-09
-1.18013e-09
-9.53268e-10
-7.16407e-10
-8.24508e-10
-3.22305e-10
-6.94326e-10
2.0923e-12
-5.63717e-10
2.57378e-10
-4.33906e-10
4.44967e-10
-3.06412e-10
5.6729e-10
-1.83136e-10
6.28011e-10
-6.64657e-11
6.3232e-10
4.05939e-11
5.87264e-10
1.34252e-10
5.02131e-10
2.09742e-10
3.88844e-10
2.61149e-10
2.62316e-10
2.81364e-10
1.40604e-10
2.62312e-10
4.47383e-11
1.96102e-10
7.93136e-11
4.97132e-11
-1.30891e-10
1.50368e-10
-2.96321e-10
2.69308e-10
-3.75424e-10
3.81327e-10
-3.80697e-10
4.65635e-10
-3.25371e-10
5.05179e-10
-2.21874e-10
4.86233e-10
-8.1059e-11
3.98003e-10
8.79871e-11
2.32248e-10
2.77828e-10
-1.70809e-11
4.82444e-10
-3.54209e-10
6.96979e-10
-7.81849e-10
9.17524e-10
-1.30146e-09
1.14094e-09
-1.91345e-09
1.36471e-09
-2.61739e-09
1.58678e-09
-3.4121e-09
1.80551e-09
-4.29587e-09
2.01956e-09
-5.26647e-09
2.22784e-09
-6.32132e-09
2.42948e-09
-7.45747e-09
2.62376e-09
-8.67175e-09
2.81012e-09
-9.96075e-09
2.9881e-09
-1.13209e-08
3.15735e-09
-1.27485e-08
3.31757e-09
-1.42397e-08
3.46855e-09
-1.57907e-08
3.61015e-09
-1.73974e-08
3.74224e-09
-1.90559e-08
3.86478e-09
-2.07622e-08
3.97771e-09
-2.25123e-08
4.08104e-09
-2.4302e-08
4.1748e-09
-2.61275e-08
4.25903e-09
-2.79846e-08
4.3338e-09
-2.98695e-08
4.39919e-09
-3.17782e-08
4.4553e-09
-3.37068e-08
4.50225e-09
-3.56515e-08
4.54015e-09
-3.76085e-08
4.56913e-09
-3.95741e-08
4.58935e-09
-4.15445e-08
4.60094e-09
-4.35163e-08
4.60407e-09
-4.54857e-08
4.59889e-09
-4.74495e-08
4.58556e-09
-4.94042e-08
4.56427e-09
-5.13463e-08
4.53519e-09
-5.32728e-08
4.49849e-09
-5.51804e-08
4.45435e-09
-5.70659e-08
4.40296e-09
-5.89265e-08
4.3445e-09
-6.07591e-08
4.27917e-09
-6.25608e-08
4.20715e-09
-6.4329e-08
4.12863e-09
-6.60608e-08
4.04382e-09
-6.77537e-08
3.95289e-09
-6.94051e-08
3.85605e-09
-7.10126e-08
3.7535e-09
-7.25739e-08
3.64543e-09
-7.40865e-08
3.53204e-09
-7.55484e-08
3.41353e-09
-7.69574e-08
3.29011e-09
-7.83116e-08
3.16197e-09
-7.96089e-08
3.02932e-09
-8.08475e-08
2.89236e-09
-8.20257e-08
2.75131e-09
-8.31417e-08
2.60636e-09
-8.41941e-08
2.45772e-09
-8.51813e-08
2.30561e-09
-8.6102e-08
2.15022e-09
-8.69547e-08
1.99179e-09
-8.77383e-08
1.83051e-09
-8.84517e-08
1.66661e-09
-8.90938e-08
1.50029e-09
-8.96638e-08
1.33179e-09
-9.01607e-08
1.16131e-09
-9.05838e-08
9.89085e-10
-9.09324e-08
8.15332e-10
-9.1206e-08
6.40276e-10
-9.14042e-08
4.64147e-10
-9.15266e-08
2.87173e-10
-9.15729e-08
1.09585e-10
-9.1543e-08
-6.8383e-11
-9.14367e-08
-2.46497e-10
-9.12542e-08
-4.24519e-10
-9.09957e-08
-6.02211e-10
-9.06612e-08
-7.79331e-10
-9.02513e-08
-9.55637e-10
-8.97663e-08
-1.13088e-09
-8.92069e-08
-1.30483e-09
-8.85737e-08
-1.47722e-09
-8.78674e-08
-1.6478e-09
-8.7089e-08
-1.81634e-09
-8.62395e-08
-1.98256e-09
-8.53199e-08
-2.14623e-09
-8.43315e-08
-2.30709e-09
-8.32755e-08
-2.46488e-09
-8.21535e-08
-2.61934e-09
-8.09669e-08
-2.77022e-09
-7.97175e-08
-2.91727e-09
-7.84069e-08
-3.06023e-09
-7.7037e-08
-3.19884e-09
-7.56099e-08
-3.33284e-09
-7.41275e-08
-3.46199e-09
-7.25921e-08
-3.58604e-09
-7.10059e-08
-3.70472e-09
-6.93714e-08
-3.81779e-09
-6.76911e-08
-3.925e-09
-6.59676e-08
-4.02612e-09
-6.42036e-08
-4.1209e-09
-6.2402e-08
-4.20909e-09
-6.05655e-08
-4.29048e-09
-5.86973e-08
-4.36482e-09
-5.68004e-08
-4.4319e-09
-5.48781e-08
-4.4915e-09
-5.29336e-08
-4.5434e-09
-5.09703e-08
-4.5874e-09
-4.89916e-08
-4.6233e-09
-4.70011e-08
-4.6509e-09
-4.50024e-08
-4.67003e-09
-4.29992e-08
-4.6805e-09
-4.09952e-08
-4.68216e-09
-3.89943e-08
-4.67484e-09
-3.70003e-08
-4.65841e-09
-3.50171e-08
-4.63272e-09
-3.30488e-08
-4.59767e-09
-3.10993e-08
-4.55314e-09
-2.91727e-08
-4.49904e-09
-2.72731e-08
-4.43529e-09
-2.54046e-08
-4.36185e-09
-2.35713e-08
-4.27866e-09
-2.17772e-08
-4.18571e-09
-2.00266e-08
-4.083e-09
-1.83235e-08
-3.97056e-09
-1.6672e-08
-3.84845e-09
-1.5076e-08
-3.71675e-09
-1.35395e-08
-3.57558e-09
-1.20664e-08
-3.4251e-09
-1.06605e-08
-3.26553e-09
-9.3254e-09
-3.09711e-09
-8.06461e-09
-2.92015e-09
-6.88147e-09
-2.73506e-09
-5.77908e-09
-2.54228e-09
-4.7603e-09
-2.34237e-09
-3.82769e-09
-2.13603e-09
-2.98343e-09
-1.92405e-09
-2.22929e-09
-1.70741e-09
-1.56651e-09
-1.48729e-09
-9.95725e-10
-1.26511e-09
-5.16821e-10
-1.04261e-09
-1.28824e-10
-8.21899e-10
1.70303e-10
-6.05542e-10
3.83863e-10
-3.96702e-10
5.16668e-10
-1.99275e-10
5.75328e-10
-1.80617e-11
5.68565e-10
1.41026e-10
5.07564e-10
2.70757e-10
4.0631e-10
3.62405e-10
2.8195e-10
4.05707e-10
1.55129e-10
3.89111e-10
5.05814e-11
3.00661e-10
1.29898e-10
4.75059e-11
-1.78422e-10
1.40288e-10
-3.89097e-10
2.42862e-10
-4.77966e-10
3.27814e-10
-4.65632e-10
3.72767e-10
-3.70339e-10
3.59372e-10
-2.08502e-10
2.72726e-10
5.58344e-12
1.00915e-10
2.59809e-10
-1.6534e-10
5.44093e-10
-5.33017e-10
8.50117e-10
-1.0071e-09
1.17106e-09
-1.59089e-09
1.50131e-09
-2.28626e-09
1.83631e-09
-3.09387e-09
2.17232e-09
-4.01336e-09
2.50627e-09
-5.04351e-09
2.83566e-09
-6.1824e-09
3.15845e-09
-7.4275e-09
3.47294e-09
-8.77579e-09
3.77777e-09
-1.02238e-08
4.07181e-09
-1.17679e-08
4.35414e-09
-1.34038e-08
4.62404e-09
-1.51273e-08
4.8809e-09
-1.69341e-08
5.12427e-09
-1.88193e-08
5.35379e-09
-2.07783e-08
5.56917e-09
-2.28063e-08
5.77023e-09
-2.48984e-08
5.95683e-09
-2.70496e-08
6.1289e-09
-2.92549e-08
6.28642e-09
-3.15095e-08
6.4294e-09
-3.38084e-08
6.55789e-09
-3.61466e-08
6.67197e-09
-3.85191e-08
6.77177e-09
-4.09212e-08
6.8574e-09
-4.3348e-08
6.92905e-09
-4.57948e-08
6.98686e-09
-4.82567e-08
7.03105e-09
-5.07291e-08
7.06182e-09
-5.32076e-08
7.07938e-09
-5.56875e-08
7.08397e-09
-5.81644e-08
7.07583e-09
-6.06341e-08
7.0552e-09
-6.30921e-08
7.02234e-09
-6.55345e-08
6.97752e-09
-6.7957e-08
6.921e-09
-7.03557e-08
6.85306e-09
-7.27267e-08
6.77397e-09
-7.50662e-08
6.68402e-09
-7.73705e-08
6.58349e-09
-7.96361e-08
6.47269e-09
-8.18593e-08
6.35188e-09
-8.40369e-08
6.22138e-09
-8.61655e-08
6.08148e-09
-8.82419e-08
5.93249e-09
-9.02631e-08
5.77469e-09
-9.22261e-08
5.6084e-09
-9.4128e-08
5.43392e-09
-9.5966e-08
5.25156e-09
-9.77375e-08
5.06163e-09
-9.944e-08
4.86444e-09
-1.01071e-07
4.6603e-09
-1.02628e-07
4.44953e-09
-1.04109e-07
4.23245e-09
-1.05512e-07
4.00937e-09
-1.06835e-07
3.78062e-09
-1.08076e-07
3.54651e-09
-1.09233e-07
3.30737e-09
-1.10305e-07
3.06353e-09
-1.1129e-07
2.81532e-09
-1.12186e-07
2.56307e-09
-1.12993e-07
2.30711e-09
-1.13709e-07
2.04779e-09
-1.14333e-07
1.78543e-09
-1.14865e-07
1.52039e-09
-1.15302e-07
1.253e-09
-1.15646e-07
9.83618e-10
-1.15894e-07
7.1259e-10
-1.16047e-07
4.40271e-10
-1.16105e-07
1.67018e-10
-1.16066e-07
-1.06811e-10
-1.15932e-07
-3.80852e-10
-1.15702e-07
-6.54741e-10
-1.15376e-07
-9.28108e-10
-1.14954e-07
-1.20058e-09
-1.14438e-07
-1.47179e-09
-1.13828e-07
-1.74136e-09
-1.13124e-07
-2.0089e-09
-1.12327e-07
-2.27405e-09
-1.11438e-07
-2.5364e-09
-1.10459e-07
-2.79558e-09
-1.0939e-07
-3.0512e-09
-1.08234e-07
-3.30287e-09
-1.06991e-07
-3.5502e-09
-1.05663e-07
-3.79279e-09
-1.04252e-07
-4.03026e-09
-1.0276e-07
-4.26221e-09
-1.01189e-07
-4.48826e-09
-9.9541e-08
-4.70799e-09
-9.78188e-08
-4.92103e-09
-9.60247e-08
-5.12699e-09
-9.41612e-08
-5.32546e-09
-9.22312e-08
-5.51608e-09
-9.02374e-08
-5.69845e-09
-8.8183e-08
-5.87219e-09
-8.60711e-08
-6.03692e-09
-8.39049e-08
-6.19228e-09
-8.16879e-08
-6.3379e-09
-7.94236e-08
-6.4734e-09
-7.71157e-08
-6.59844e-09
-7.47678e-08
-6.71267e-09
-7.2384e-08
-6.81575e-09
-6.99681e-08
-6.90734e-09
-6.75244e-08
-6.98712e-09
-6.5057e-08
-7.05479e-09
-6.25703e-08
-7.11003e-09
-6.00687e-08
-7.15255e-09
-5.75566e-08
-7.18209e-09
-5.50387e-08
-7.19838e-09
-5.25197e-08
-7.20116e-09
-5.00043e-08
-7.19021e-09
-4.74974e-08
-7.16532e-09
-4.50039e-08
-7.12629e-09
-4.25286e-08
-7.07293e-09
-4.00766e-08
-7.00511e-09
-3.7653e-08
-6.92268e-09
-3.52627e-08
-6.82555e-09
-3.2911e-08
-6.71363e-09
-3.06027e-08
-6.58688e-09
-2.83432e-08
-6.44528e-09
-2.61373e-08
-6.28885e-09
-2.39902e-08
-6.11766e-09
-2.19069e-08
-5.93181e-09
-1.98922e-08
-5.73145e-09
-1.7951e-08
-5.51678e-09
-1.6088e-08
-5.28809e-09
-1.43078e-08
-5.0457e-09
-1.26148e-08
-4.79005e-09
-1.10134e-08
-4.52164e-09
-9.50733e-09
-4.24109e-09
-8.10046e-09
-3.94915e-09
-6.79613e-09
-3.64671e-09
-5.59733e-09
-3.33483e-09
-4.50658e-09
-3.01479e-09
-3.52589e-09
-2.6881e-09
-2.6566e-09
-2.35659e-09
-1.8993e-09
-2.02242e-09
-1.2537e-09
-1.68821e-09
-7.1848e-10
-1.35711e-09
-2.91088e-10
-1.03293e-09
3.24589e-11
-7.2025e-10
2.57824e-10
-4.24645e-10
3.9261e-10
-1.52854e-10
4.46656e-10
8.69776e-11
4.32346e-10
2.85074e-10
3.64941e-10
4.29823e-10
2.62969e-10
5.07681e-10
1.4876e-10
5.03304e-10
4.94547e-11
3.99962e-10
1.79356e-10
4.04199e-11
-2.18853e-10
1.14277e-10
-4.62981e-10
1.85845e-10
-5.49528e-10
2.26947e-10
-5.0671e-10
2.14519e-10
-3.579e-10
1.29594e-10
-1.23588e-10
-4.33287e-11
1.7849e-10
-3.16748e-10
5.33226e-10
-7.00533e-10
9.27886e-10
-1.20222e-09
1.35181e-09
-1.8273e-09
1.79613e-09
-2.57948e-09
2.25348e-09
-3.4609e-09
2.71774e-09
-4.47243e-09
3.18384e-09
-5.61375e-09
3.6476e-09
-6.88362e-09
4.10553e-09
-8.27994e-09
4.55477e-09
-9.79993e-09
4.99293e-09
-1.14402e-08
5.41806e-09
-1.31969e-08
5.82853e-09
-1.50658e-08
6.22302e-09
-1.70422e-08
6.60044e-09
-1.91212e-08
6.95992e-09
-2.12977e-08
7.30075e-09
-2.35663e-08
7.62239e-09
-2.59215e-08
7.9244e-09
-2.83578e-08
8.20648e-09
-3.08694e-08
8.46841e-09
-3.34505e-08
8.71004e-09
-3.60954e-08
8.93132e-09
-3.87982e-08
9.13223e-09
-4.15532e-08
9.31283e-09
-4.43544e-08
9.47321e-09
-4.71962e-08
9.6135e-09
-5.00727e-08
9.73389e-09
-5.29782e-08
9.83457e-09
-5.59071e-08
9.91578e-09
-5.88538e-08
9.97777e-09
-6.18128e-08
1.00208e-08
-6.47787e-08
1.00452e-08
-6.77461e-08
1.00513e-08
-7.07097e-08
1.00394e-08
-7.36644e-08
1.00099e-08
-7.66051e-08
9.96303e-09
-7.95268e-08
9.89925e-09
-8.24247e-08
9.81891e-09
-8.5294e-08
9.72239e-09
-8.81302e-08
9.61009e-09
-9.09285e-08
9.4824e-09
-9.36848e-08
9.33972e-09
-9.63945e-08
9.18246e-09
-9.90537e-08
9.01103e-09
-1.01658e-07
8.82584e-09
-1.04204e-07
8.62732e-09
-1.06687e-07
8.4159e-09
-1.09105e-07
8.19199e-09
-1.11452e-07
7.95602e-09
-1.13727e-07
7.70844e-09
-1.15925e-07
7.44967e-09
-1.18043e-07
7.18016e-09
-1.20079e-07
6.90034e-09
-1.2203e-07
6.61066e-09
-1.23892e-07
6.31157e-09
-1.25663e-07
6.00352e-09
-1.2734e-07
5.68695e-09
-1.28922e-07
5.36233e-09
-1.30406e-07
5.03012e-09
-1.31789e-07
4.69077e-09
-1.3307e-07
4.34475e-09
-1.34248e-07
3.99253e-09
-1.35319e-07
3.63457e-09
-1.36283e-07
3.27137e-09
-1.37139e-07
2.90339e-09
-1.37885e-07
2.53111e-09
-1.38519e-07
2.15503e-09
-1.39042e-07
1.77564e-09
-1.39452e-07
1.39342e-09
-1.39748e-07
1.00888e-09
-1.3993e-07
6.22523e-10
-1.39998e-07
2.34851e-10
-1.39951e-07
-1.53623e-10
-1.3979e-07
-5.42385e-10
-1.39514e-07
-9.30915e-10
-1.39123e-07
-1.31869e-09
-1.38618e-07
-1.70518e-09
-1.38e-07
-2.08986e-09
-1.37269e-07
-2.47219e-09
-1.36427e-07
-2.85164e-09
-1.35473e-07
-3.22765e-09
-1.3441e-07
-3.5997e-09
-1.33238e-07
-3.96723e-09
-1.3196e-07
-4.32969e-09
-1.30576e-07
-4.68652e-09
-1.29089e-07
-5.03719e-09
-1.27501e-07
-5.38113e-09
-1.25813e-07
-5.71778e-09
-1.24029e-07
-6.04659e-09
-1.2215e-07
-6.367e-09
-1.2018e-07
-6.67847e-09
-1.1812e-07
-6.98043e-09
-1.15975e-07
-7.27233e-09
-1.13747e-07
-7.55362e-09
-1.11439e-07
-7.82376e-09
-1.09055e-07
-8.08221e-09
-1.06599e-07
-8.32842e-09
-1.04074e-07
-8.56187e-09
-1.01484e-07
-8.78203e-09
-9.88339e-08
-8.98838e-09
-9.61269e-08
-9.18041e-09
-9.33677e-08
-9.35763e-09
-9.05608e-08
-9.51954e-09
-8.77109e-08
-9.66567e-09
-8.48227e-08
-9.79554e-09
-8.19011e-08
-9.90872e-09
-7.89511e-08
-1.00048e-08
-7.59779e-08
-1.00832e-08
-7.29868e-08
-1.01437e-08
-6.9983e-08
-1.01859e-08
-6.6972e-08
-1.02093e-08
-6.39594e-08
-1.02137e-08
-6.09509e-08
-1.01987e-08
-5.79521e-08
-1.01641e-08
-5.49689e-08
-1.01095e-08
-5.20071e-08
-1.00347e-08
-4.90726e-08
-9.9396e-09
-4.61714e-08
-9.82392e-09
-4.33094e-08
-9.68755e-09
-4.04926e-08
-9.53041e-09
-3.7727e-08
-9.35244e-09
-3.50187e-08
-9.15364e-09
-3.23735e-08
-8.93407e-09
-2.97973e-08
-8.69383e-09
-2.7296e-08
-8.43309e-09
-2.48754e-08
-8.15209e-09
-2.2541e-08
-7.85116e-09
-2.02984e-08
-7.53072e-09
-1.81528e-08
-7.19126e-09
-1.61094e-08
-6.83342e-09
-1.41731e-08
-6.45796e-09
-1.23484e-08
-6.0658e-09
-1.06395e-08
-5.65801e-09
-9.05033e-09
-5.2359e-09
-7.58417e-09
-4.801e-09
-6.24384e-09
-4.35512e-09
-5.03151e-09
-3.90042e-09
-3.94863e-09
-3.43947e-09
-2.99575e-09
-2.9753e-09
-2.17244e-09
-2.51152e-09
-1.47711e-09
-2.05244e-09
-9.06841e-10
-1.6032e-09
-4.57159e-10
-1.16993e-09
-1.21836e-10
-7.59967e-10
1.07363e-10
-3.82057e-10
2.40947e-10
-4.66123e-11
2.9198e-10
2.34036e-10
2.76419e-10
4.4539e-10
2.13526e-10
5.70584e-10
1.26475e-10
5.90351e-10
4.34266e-11
4.83006e-10
2.22782e-10
2.99768e-11
-2.48814e-10
7.66233e-11
-5.09652e-10
1.05676e-10
-5.78601e-10
8.94091e-11
-4.90439e-10
4.89617e-12
-2.7337e-10
-1.6685e-10
4.81661e-11
-4.41445e-10
4.53077e-10
-8.31568e-10
9.23339e-10
-1.34731e-09
1.44362e-09
-1.99645e-09
2.00096e-09
-2.78474e-09
2.58443e-09
-3.71609e-09
3.18483e-09
-4.79283e-09
3.79447e-09
-6.01587e-09
4.40689e-09
-7.38495e-09
5.01667e-09
-8.89873e-09
5.61931e-09
-1.0555e-08
6.21101e-09
-1.23507e-08
6.78864e-09
-1.42822e-08
7.34954e-09
-1.63452e-08
7.89155e-09
-1.8535e-08
8.41286e-09
-2.08465e-08
8.91197e-09
-2.32743e-08
9.38767e-09
-2.58125e-08
9.83898e-09
-2.84553e-08
1.02651e-08
-3.11963e-08
1.06655e-08
-3.40294e-08
1.10396e-08
-3.69481e-08
1.13871e-08
-3.99458e-08
1.17078e-08
-4.30161e-08
1.20016e-08
-4.61522e-08
1.22684e-08
-4.93477e-08
1.25082e-08
-5.25957e-08
1.27213e-08
-5.58898e-08
1.29076e-08
-5.92234e-08
1.30675e-08
-6.25899e-08
1.32011e-08
-6.59829e-08
1.33088e-08
-6.9396e-08
1.33909e-08
-7.28229e-08
1.34477e-08
-7.62573e-08
1.34796e-08
-7.9693e-08
1.34871e-08
-8.31241e-08
1.34706e-08
-8.65447e-08
1.34304e-08
-8.99487e-08
1.33671e-08
-9.33307e-08
1.32812e-08
-9.66848e-08
1.31731e-08
-1.00006e-07
1.30433e-08
-1.03288e-07
1.28925e-08
-1.06527e-07
1.2721e-08
-1.09716e-07
1.25294e-08
-1.12852e-07
1.23183e-08
-1.15929e-07
1.20882e-08
-1.18943e-07
1.18396e-08
-1.21889e-07
1.15732e-08
-1.24763e-07
1.12895e-08
-1.2756e-07
1.0989e-08
-1.30276e-07
1.06723e-08
-1.32907e-07
1.03401e-08
-1.35451e-07
9.99286e-09
-1.37902e-07
9.6312e-09
-1.40257e-07
9.25572e-09
-1.42513e-07
8.86701e-09
-1.44668e-07
8.46567e-09
-1.46716e-07
8.05231e-09
-1.48657e-07
7.62753e-09
-1.50487e-07
7.19194e-09
-1.52203e-07
6.74616e-09
-1.53803e-07
6.29081e-09
-1.55284e-07
5.82651e-09
-1.56646e-07
5.3539e-09
-1.57885e-07
4.87361e-09
-1.59e-07
4.38628e-09
-1.59989e-07
3.89255e-09
-1.60851e-07
3.39306e-09
-1.61584e-07
2.88849e-09
-1.62188e-07
2.37947e-09
-1.62661e-07
1.86669e-09
-1.63003e-07
1.3508e-09
-1.63213e-07
8.32492e-10
-1.63291e-07
3.12435e-10
-1.63236e-07
-2.08681e-10
-1.63048e-07
-7.30164e-10
-1.62728e-07
-1.25132e-09
-1.62275e-07
-1.77143e-09
-1.6169e-07
-2.28981e-09
-1.60974e-07
-2.80574e-09
-1.60128e-07
-3.31849e-09
-1.59152e-07
-3.82736e-09
-1.58048e-07
-4.3316e-09
-1.56818e-07
-4.8305e-09
-1.55461e-07
-5.32332e-09
-1.53982e-07
-5.80931e-09
-1.52381e-07
-6.28775e-09
-1.5066e-07
-6.7579e-09
-1.48822e-07
-7.219e-09
-1.4687e-07
-7.67031e-09
-1.44805e-07
-8.1111e-09
-1.42631e-07
-8.54062e-09
-1.40352e-07
-8.95812e-09
-1.37969e-07
-9.36286e-09
-1.35488e-07
-9.75411e-09
-1.3291e-07
-1.01311e-08
-1.30241e-07
-1.04932e-08
-1.27483e-07
-1.08396e-08
-1.24642e-07
-1.11696e-08
-1.21721e-07
-1.14825e-08
-1.18726e-07
-1.17776e-08
-1.1566e-07
-1.20542e-08
-1.12529e-07
-1.23116e-08
-1.09337e-07
-1.25492e-08
-1.0609e-07
-1.27663e-08
-1.02794e-07
-1.29623e-08
-9.94529e-08
-1.31365e-08
-9.60731e-08
-1.32884e-08
-9.26604e-08
-1.34174e-08
-8.92207e-08
-1.3523e-08
-8.57599e-08
-1.36045e-08
-8.22843e-08
-1.36615e-08
-7.88001e-08
-1.36936e-08
-7.53136e-08
-1.37002e-08
-7.18314e-08
-1.36809e-08
-6.836e-08
-1.36355e-08
-6.49061e-08
-1.35634e-08
-6.14763e-08
-1.34645e-08
-5.80775e-08
-1.33385e-08
-5.47163e-08
-1.31851e-08
-5.13996e-08
-1.30042e-08
-4.81343e-08
-1.27957e-08
-4.49272e-08
-1.25596e-08
-4.17851e-08
-1.22958e-08
-3.87147e-08
-1.20045e-08
-3.57227e-08
-1.16858e-08
-3.28158e-08
-1.134e-08
-3.00004e-08
-1.09675e-08
-2.72829e-08
-1.05686e-08
-2.46695e-08
-1.01441e-08
-2.21662e-08
-9.6946e-09
-1.97786e-08
-9.22098e-09
-1.75123e-08
-8.72432e-09
-1.53722e-08
-8.20586e-09
-1.33631e-08
-7.6671e-09
-1.14893e-08
-7.10979e-09
-9.75423e-09
-6.53602e-09
-8.16114e-09
-5.94821e-09
-6.71232e-09
-5.34925e-09
-5.40927e-09
-4.74251e-09
-4.25258e-09
-4.13199e-09
-3.24173e-09
-3.52237e-09
-2.37497e-09
-2.9192e-09
-1.64914e-09
-2.32903e-09
-1.05949e-09
-1.75958e-09
-5.99468e-10
-1.21998e-09
-2.60517e-10
-7.21005e-10
-3.18174e-11
-2.75314e-10
9.99674e-11
1.02245e-10
1.51013e-10
3.94341e-10
1.40745e-10
5.80858e-10
9.24085e-11
6.38689e-10
3.39891e-11
5.41423e-10
2.56771e-10
1.72622e-11
-2.66057e-10
3.06332e-11
-5.23021e-10
8.34979e-12
-5.56335e-10
-7.59624e-11
-4.06141e-10
-2.44407e-10
-1.04923e-10
-5.15457e-10
3.19228e-10
-9.04425e-10
8.4205e-10
-1.42382e-09
1.44273e-09
-2.08366e-09
2.10345e-09
-2.8917e-09
2.80901e-09
-3.85372e-09
3.54645e-09
-4.97367e-09
4.30478e-09
-6.25389e-09
5.07469e-09
-7.6953e-09
5.8483e-09
-9.29757e-09
6.61894e-09
-1.10593e-08
7.381e-09
-1.2978e-08
8.12972e-09
-1.50505e-08
8.86112e-09
-1.72728e-08
9.57185e-09
-1.96403e-08
1.02591e-08
-2.2148e-08
1.09205e-08
-2.47902e-08
1.15542e-08
-2.7561e-08
1.21585e-08
-3.04541e-08
1.27321e-08
-3.3463e-08
1.3274e-08
-3.65808e-08
1.37833e-08
-3.98007e-08
1.42594e-08
-4.31154e-08
1.47019e-08
-4.65179e-08
1.51103e-08
-5.00009e-08
1.54845e-08
-5.3557e-08
1.58244e-08
-5.71788e-08
1.61301e-08
-6.0859e-08
1.64015e-08
-6.45902e-08
1.66388e-08
-6.83652e-08
1.68424e-08
-7.21765e-08
1.70125e-08
-7.60171e-08
1.71494e-08
-7.98797e-08
1.72535e-08
-8.37573e-08
1.73253e-08
-8.76429e-08
1.73652e-08
-9.15295e-08
1.73738e-08
-9.54105e-08
1.73515e-08
-9.92791e-08
1.7299e-08
-1.03129e-07
1.72168e-08
-1.06953e-07
1.71055e-08
-1.10746e-07
1.69658e-08
-1.14501e-07
1.67983e-08
-1.18212e-07
1.66036e-08
-1.21873e-07
1.63824e-08
-1.25479e-07
1.61354e-08