/*--------------------------------*- C++ -*----------------------------------*\
  =========                 |
  \\      /  F ield         | OpenFOAM: The Open Source CFD Toolbox
   \\    /   O peration     | Website:  https://openfoam.org
    \\  /    A nd           | Version:  7
     \\/     M anipulation  |
\*---------------------------------------------------------------------------*/
FoamFile
{
    version     2.0;
    format      ascii;
    class       volVectorField;
    location    "0.5";
    object      U;
}
// * * * * * * * * * * * * * * * * * * * * * * * * * * * * * * * * * * * * * //

dimensions      [0 1 -1 0 0 0 0];

internalField   nonuniform List<vector> 
25600
(
(1.84295e-07 -2.00004e-07 0)
(2.84564e-06 -1.79111e-06 0)
(9.07976e-06 -2.8316e-06 0)
(1.69326e-05 -3.20628e-06 0)
(2.48955e-05 -3.12421e-06 0)
(3.20157e-05 -2.74742e-06 0)
(3.76395e-05 -2.18279e-06 0)
(4.13189e-05 -1.50186e-06 0)
(4.27554e-05 -7.51788e-07 0)
(4.17552e-05 3.68857e-08 0)
(3.81992e-05 8.44098e-07 0)
(3.20245e-05 1.65603e-06 0)
(2.32104e-05 2.46258e-06 0)
(1.17668e-05 3.2562e-06 0)
(-2.27336e-06 4.0314e-06 0)
(-1.88593e-05 4.78436e-06 0)
(-3.79262e-05 5.51226e-06 0)
(-5.93975e-05 6.21289e-06 0)
(-8.31882e-05 6.88453e-06 0)
(-0.000109207 7.5259e-06 0)
(-0.000137357 8.13616e-06 0)
(-0.000167539 8.71475e-06 0)
(-0.00019965 9.26131e-06 0)
(-0.000233583 9.77561e-06 0)
(-0.000269232 1.02576e-05 0)
(-0.000306489 1.07072e-05 0)
(-0.000345247 1.11247e-05 0)
(-0.000385396 1.15103e-05 0)
(-0.00042683 1.18643e-05 0)
(-0.000469441 1.21869e-05 0)
(-0.000513122 1.24785e-05 0)
(-0.000557767 1.27396e-05 0)
(-0.000603273 1.29707e-05 0)
(-0.000649535 1.31721e-05 0)
(-0.000696453 1.33444e-05 0)
(-0.000743925 1.34882e-05 0)
(-0.000791854 1.36038e-05 0)
(-0.000840141 1.36919e-05 0)
(-0.000888691 1.37531e-05 0)
(-0.000937412 1.37879e-05 0)
(-0.000986212 1.37969e-05 0)
(-0.001035 1.37806e-05 0)
(-0.00108369 1.37397e-05 0)
(-0.00113219 1.36746e-05 0)
(-0.00118043 1.35861e-05 0)
(-0.00122831 1.34748e-05 0)
(-0.00127576 1.33411e-05 0)
(-0.0013227 1.31857e-05 0)
(-0.00136906 1.30092e-05 0)
(-0.00141476 1.28122e-05 0)
(-0.00145973 1.25953e-05 0)
(-0.0015039 1.23592e-05 0)
(-0.0015472 1.21042e-05 0)
(-0.00158957 1.18312e-05 0)
(-0.00163095 1.15406e-05 0)
(-0.00167126 1.12331e-05 0)
(-0.00171046 1.09093e-05 0)
(-0.00174849 1.05698e-05 0)
(-0.00178528 1.02151e-05 0)
(-0.0018208 9.84594e-06 0)
(-0.00185498 9.46281e-06 0)
(-0.00188778 9.06635e-06 0)
(-0.00191916 8.65715e-06 0)
(-0.00194906 8.23583e-06 0)
(-0.00197745 7.80299e-06 0)
(-0.00200429 7.35924e-06 0)
(-0.00202954 6.90518e-06 0)
(-0.00205316 6.44143e-06 0)
(-0.00207512 5.96861e-06 0)
(-0.00209538 5.48733e-06 0)
(-0.00211393 4.99823e-06 0)
(-0.00213073 4.50194e-06 0)
(-0.00214576 3.99909e-06 0)
(-0.002159 3.49031e-06 0)
(-0.00217043 2.97625e-06 0)
(-0.00218002 2.45756e-06 0)
(-0.00218777 1.9349e-06 0)
(-0.00219366 1.40894e-06 0)
(-0.00219768 8.80334e-07 0)
(-0.00219983 3.49772e-07 0)
(-0.00220009 -1.8207e-07 0)
(-0.00219847 -7.14503e-07 0)
(-0.00219496 -1.24683e-06 0)
(-0.00218957 -1.77834e-06 0)
(-0.00218229 -2.30833e-06 0)
(-0.00217315 -2.83609e-06 0)
(-0.00216214 -3.3609e-06 0)
(-0.00214929 -3.88202e-06 0)
(-0.00213459 -4.39872e-06 0)
(-0.00211808 -4.91025e-06 0)
(-0.00209977 -5.41586e-06 0)
(-0.00207968 -5.91481e-06 0)
(-0.00205784 -6.40633e-06 0)
(-0.00203427 -6.88967e-06 0)
(-0.00200902 -7.36406e-06 0)
(-0.0019821 -7.82872e-06 0)
(-0.00195357 -8.28288e-06 0)
(-0.00192345 -8.72576e-06 0)
(-0.00189178 -9.1566e-06 0)
(-0.00185862 -9.57462e-06 0)
(-0.00182401 -9.97902e-06 0)
(-0.001788 -1.0369e-05 0)
(-0.00175064 -1.07439e-05 0)
(-0.00171198 -1.11028e-05 0)
(-0.00167209 -1.1445e-05 0)
(-0.00163103 -1.17698e-05 0)
(-0.00158885 -1.20763e-05 0)
(-0.00154563 -1.23638e-05 0)
(-0.00150143 -1.26316e-05 0)
(-0.00145633 -1.28789e-05 0)
(-0.00141039 -1.31051e-05 0)
(-0.0013637 -1.33093e-05 0)
(-0.00131633 -1.34909e-05 0)
(-0.00126836 -1.36492e-05 0)
(-0.00121988 -1.37835e-05 0)
(-0.00117097 -1.38932e-05 0)
(-0.00112172 -1.39776e-05 0)
(-0.00107223 -1.40362e-05 0)
(-0.00102257 -1.40682e-05 0)
(-0.00097285 -1.40731e-05 0)
(-0.000923161 -1.40504e-05 0)
(-0.000873601 -1.39996e-05 0)
(-0.000824269 -1.39201e-05 0)
(-0.000775266 -1.38114e-05 0)
(-0.000726695 -1.36732e-05 0)
(-0.000678659 -1.3505e-05 0)
(-0.000631262 -1.33064e-05 0)
(-0.000584611 -1.30771e-05 0)
(-0.000538812 -1.28168e-05 0)
(-0.000493972 -1.25252e-05 0)
(-0.0004502 -1.22021e-05 0)
(-0.000407603 -1.18474e-05 0)
(-0.000366289 -1.1461e-05 0)
(-0.000326367 -1.10428e-05 0)
(-0.000287945 -1.05929e-05 0)
(-0.000251128 -1.01114e-05 0)
(-0.000216023 -9.59836e-06 0)
(-0.000182733 -9.05426e-06 0)
(-0.000151361 -8.47956e-06 0)
(-0.000122005 -7.87486e-06 0)
(-9.47612e-05 -7.24085e-06 0)
(-6.97222e-05 -6.57845e-06 0)
(-4.6974e-05 -5.88897e-06 0)
(-2.65963e-05 -5.17414e-06 0)
(-8.66128e-06 -4.43612e-06 0)
(6.7684e-06 -3.67751e-06 0)
(1.96423e-05 -2.90153e-06 0)
(2.99258e-05 -2.11251e-06 0)
(3.76036e-05 -1.31632e-06 0)
(4.26855e-05 -5.20868e-07 0)
(4.52124e-05 2.63361e-07 0)
(4.52673e-05 1.02191e-06 0)
(4.29887e-05 1.73407e-06 0)
(3.85915e-05 2.36917e-06 0)
(3.23961e-05 2.88071e-06 0)
(2.48708e-05 3.19811e-06 0)
(1.66823e-05 3.21639e-06 0)
(8.78234e-06 2.77945e-06 0)
(2.64537e-06 1.69541e-06 0)
(1.22576e-07 1.21219e-07 0)
(1.78092e-06 -2.86891e-06 0)
(9.39102e-06 -9.40912e-06 0)
(2.31485e-05 -1.34175e-05 0)
(3.93916e-05 -1.47302e-05 0)
(5.52805e-05 -1.3969e-05 0)
(6.88207e-05 -1.17045e-05 0)
(7.84697e-05 -8.37519e-06 0)
(8.3069e-05 -4.31036e-06 0)
(8.17881e-05 2.47832e-07 0)
(7.40497e-05 5.12339e-06 0)
(5.94697e-05 1.0188e-05 0)
(3.78142e-05 1.53469e-05 0)
(8.96707e-06 2.05278e-05 0)
(-2.70951e-05 2.5675e-05 0)
(-7.03238e-05 3.07454e-05 0)
(-0.000120614 3.57061e-05 0)
(-0.000177816 4.05317e-05 0)
(-0.000241745 4.52022e-05 0)
(-0.000312186 4.97018e-05 0)
(-0.000388902 5.40181e-05 0)
(-0.000471639 5.81417e-05 0)
(-0.000560126 6.20655e-05 0)
(-0.000654085 6.57843e-05 0)
(-0.000753227 6.92943e-05 0)
(-0.000857258 7.25927e-05 0)
(-0.000965879 7.5678e-05 0)
(-0.00107879 7.85495e-05 0)
(-0.00119568 8.12073e-05 0)
(-0.00131626 8.36521e-05 0)
(-0.00144021 8.5885e-05 0)
(-0.00156724 8.79074e-05 0)
(-0.00169705 8.97214e-05 0)
(-0.00182933 9.13294e-05 0)
(-0.0019638 9.27338e-05 0)
(-0.00210015 9.39375e-05 0)
(-0.00223811 9.49435e-05 0)
(-0.00237739 9.57549e-05 0)
(-0.00251771 9.63751e-05 0)
(-0.00265879 9.68075e-05 0)
(-0.00280037 9.70557e-05 0)
(-0.00294218 9.71235e-05 0)
(-0.00308396 9.70146e-05 0)
(-0.00322546 9.67327e-05 0)
(-0.00336642 9.62817e-05 0)
(-0.00350661 9.56656e-05 0)
(-0.00364578 9.48883e-05 0)
(-0.00378371 9.3954e-05 0)
(-0.00392016 9.28666e-05 0)
(-0.00405492 9.16302e-05 0)
(-0.00418777 9.02489e-05 0)
(-0.0043185 8.87268e-05 0)
(-0.00444691 8.7068e-05 0)
(-0.0045728 8.52768e-05 0)
(-0.00469598 8.33572e-05 0)
(-0.00481627 8.13134e-05 0)
(-0.00493349 7.91497e-05 0)
(-0.00504747 7.68701e-05 0)
(-0.00515803 7.4479e-05 0)
(-0.00526502 7.19805e-05 0)
(-0.00536828 6.9379e-05 0)
(-0.00546768 6.66785e-05 0)
(-0.00556305 6.38835e-05 0)
(-0.00565427 6.09981e-05 0)
(-0.00574122 5.80267e-05 0)
(-0.00582376 5.49736e-05 0)
(-0.00590178 5.18431e-05 0)
(-0.00597517 4.86396e-05 0)
(-0.00604383 4.53675e-05 0)
(-0.00610765 4.20312e-05 0)
(-0.00616656 3.86351e-05 0)
(-0.00622046 3.51837e-05 0)
(-0.00626927 3.16815e-05 0)
(-0.00631293 2.8133e-05 0)
(-0.00635138 2.45429e-05 0)
(-0.00638454 2.09157e-05 0)
(-0.00641239 1.72561e-05 0)
(-0.00643486 1.35687e-05 0)
(-0.00645192 9.85837e-06 0)
(-0.00646355 6.12983e-06 0)
(-0.00646972 2.38791e-06 0)
(-0.00647041 -1.36253e-06 0)
(-0.00646562 -5.11659e-06 0)
(-0.00645534 -8.86931e-06 0)
(-0.00643959 -1.26157e-05 0)
(-0.00641837 -1.63507e-05 0)
(-0.0063917 -2.00692e-05 0)
(-0.00635962 -2.37661e-05 0)
(-0.00632216 -2.74362e-05 0)
(-0.00627936 -3.10744e-05 0)
(-0.00623127 -3.46754e-05 0)
(-0.00617796 -3.82338e-05 0)
(-0.00611949 -4.17444e-05 0)
(-0.00605593 -4.52018e-05 0)
(-0.00598737 -4.86006e-05 0)
(-0.00591389 -5.19356e-05 0)
(-0.0058356 -5.52011e-05 0)
(-0.00575259 -5.83919e-05 0)
(-0.00566499 -6.15025e-05 0)
(-0.00557292 -6.45274e-05 0)
(-0.0054765 -6.74612e-05 0)
(-0.00537588 -7.02984e-05 0)
(-0.00527119 -7.30337e-05 0)
(-0.00516259 -7.56616e-05 0)
(-0.00505025 -7.81768e-05 0)
(-0.00493432 -8.05739e-05 0)
(-0.00481499 -8.28475e-05 0)
(-0.00469245 -8.49926e-05 0)
(-0.00456688 -8.70037e-05 0)
(-0.00443848 -8.88759e-05 0)
(-0.00430746 -9.0604e-05 0)
(-0.00417404 -9.2183e-05 0)
(-0.00403842 -9.36082e-05 0)
(-0.00390085 -9.48746e-05 0)
(-0.00376156 -9.59776e-05 0)
(-0.00362078 -9.69127e-05 0)
(-0.00347877 -9.76753e-05 0)
(-0.00333578 -9.82613e-05 0)
(-0.00319207 -9.86665e-05 0)
(-0.0030479 -9.88869e-05 0)
(-0.00290355 -9.89186e-05 0)
(-0.00275929 -9.87582e-05 0)
(-0.00261541 -9.84022e-05 0)
(-0.00247218 -9.78475e-05 0)
(-0.0023299 -9.70911e-05 0)
(-0.00218887 -9.61303e-05 0)
(-0.00204937 -9.49625e-05 0)
(-0.00191171 -9.35858e-05 0)
(-0.0017762 -9.19984e-05 0)
(-0.00164313 -9.01987e-05 0)
(-0.00151281 -8.81855e-05 0)
(-0.00138556 -8.59582e-05 0)
(-0.00126167 -8.35165e-05 0)
(-0.00114145 -8.08607e-05 0)
(-0.00102521 -7.79917e-05 0)
(-0.000913245 -7.49108e-05 0)
(-0.000805861 -7.162e-05 0)
(-0.000703349 -6.81223e-05 0)
(-0.000605998 -6.44215e-05 0)
(-0.000514088 -6.05228e-05 0)
(-0.00042789 -5.64325e-05 0)
(-0.000347663 -5.21585e-05 0)
(-0.000273652 -4.77101e-05 0)
(-0.000206084 -4.30992e-05 0)
(-0.000145166 -3.83406e-05 0)
(-9.10766e-05 -3.34531e-05 0)
(-4.39637e-05 -2.84592e-05 0)
(-3.93664e-06 -2.33868e-05 0)
(2.89433e-05 -1.8271e-05 0)
(5.46746e-05 -1.31564e-05 0)
(7.33311e-05 -8.10073e-06 0)
(8.50794e-05 -3.17839e-06 0)
(9.02043e-05 1.51377e-06 0)
(8.9141e-05 5.84714e-06 0)
(8.25175e-05 9.64813e-06 0)
(7.12111e-05 1.26799e-05 0)
(5.64154e-05 1.46213e-05 0)
(3.96905e-05 1.50478e-05 0)
(2.30215e-05 1.34206e-05 0)
(9.18672e-06 9.18414e-06 0)
(1.69629e-06 2.63943e-06 0)
(2.827e-06 -9.08868e-06 0)
(1.34157e-05 -2.31662e-05 0)
(3.1087e-05 -3.1079e-05 0)
(5.08651e-05 -3.31477e-05 0)
(6.91526e-05 -3.04718e-05 0)
(8.33898e-05 -2.41466e-05 0)
(9.14925e-05 -1.50993e-05 0)
(9.18166e-05 -4.07301e-06 0)
(8.31287e-05 8.35181e-06 0)
(6.45348e-05 2.17262e-05 0)
(3.54136e-05 3.57046e-05 0)
(-4.63703e-06 5.00205e-05 0)
(-5.58417e-05 6.44673e-05 0)
(-0.000118282 7.8883e-05 0)
(-0.000191921 9.31396e-05 0)
(-0.000276634 0.000107136 0)
(-0.000372215 0.000120791 0)
(-0.000478403 0.000134042 0)
(-0.000594885 0.000146839 0)
(-0.000721307 0.000159141 0)
(-0.000857285 0.000170917 0)
(-0.00100241 0.000182142 0)
(-0.00115625 0.000192798 0)
(-0.00131836 0.000202869 0)
(-0.00148828 0.000212346 0)
(-0.00166554 0.000221222 0)
(-0.00184966 0.000229492 0)
(-0.00204018 0.000237155 0)
(-0.00223661 0.00024421 0)
(-0.00243846 0.000250659 0)
(-0.00264525 0.000256506 0)
(-0.00285651 0.000261755 0)
(-0.00307176 0.000266411 0)
(-0.00329052 0.00027048 0)
(-0.00351233 0.000273971 0)
(-0.00373673 0.00027689 0)
(-0.00396325 0.000279247 0)
(-0.00419146 0.000281049 0)
(-0.00442089 0.000282308 0)
(-0.00465113 0.000283032 0)
(-0.00488174 0.000283232 0)
(-0.00511229 0.000282918 0)
(-0.00534238 0.000282101 0)
(-0.00557161 0.000280792 0)
(-0.00579958 0.000279002 0)
(-0.0060259 0.000276742 0)
(-0.00625019 0.000274024 0)
(-0.00647209 0.00027086 0)
(-0.00669124 0.000267261 0)
(-0.00690729 0.000263239 0)
(-0.00711989 0.000258805 0)
(-0.00732873 0.000253972 0)
(-0.00753347 0.000248752 0)
(-0.00773381 0.000243157 0)
(-0.00792945 0.000237199 0)
(-0.00812009 0.00023089 0)
(-0.00830546 0.000224242 0)
(-0.00848528 0.000217268 0)
(-0.00865929 0.000209979 0)
(-0.00882723 0.00020239 0)
(-0.00898888 0.00019451 0)
(-0.00914399 0.000186354 0)
(-0.00929235 0.000177934 0)
(-0.00943374 0.000169262 0)
(-0.00956797 0.000160351 0)
(-0.00969484 0.000151214 0)
(-0.00981418 0.000141864 0)
(-0.00992581 0.000132312 0)
(-0.0100296 0.000122573 0)
(-0.0101254 0.00011266 0)
(-0.010213 0.000102585 0)
(-0.0102923 9.23614e-05 0)
(-0.0103633 8.20032e-05 0)
(-0.0104257 7.15235e-05 0)
(-0.0104796 6.09358e-05 0)
(-0.0105248 5.02539e-05 0)
(-0.0105613 3.94915e-05 0)
(-0.010589 2.86624e-05 0)
(-0.0106078 1.77808e-05 0)
(-0.0106177 6.86069e-06 0)
(-0.0106188 -4.08358e-06 0)
(-0.0106109 -1.50376e-05 0)
(-0.0105941 -2.5987e-05 0)
(-0.0105684 -3.6917e-05 0)
(-0.0105338 -4.78128e-05 0)
(-0.0104903 -5.86596e-05 0)
(-0.0104381 -6.94424e-05 0)
(-0.010377 -8.0146e-05 0)
(-0.0103073 -9.07552e-05 0)
(-0.0102291 -0.000101255 0)
(-0.0101423 -0.000111629 0)
(-0.0100471 -0.000121863 0)
(-0.00994367 -0.00013194 0)
(-0.0098321 -0.000141846 0)
(-0.00971255 -0.000151564 0)
(-0.00958518 -0.000161078 0)
(-0.00945015 -0.000170374 0)
(-0.00930766 -0.000179434 0)
(-0.00915791 -0.000188244 0)
(-0.0090011 -0.000196786 0)
(-0.00883746 -0.000205047 0)
(-0.00866722 -0.000213009 0)
(-0.00849064 -0.000220658 0)
(-0.00830798 -0.000227976 0)
(-0.00811952 -0.000234951 0)
(-0.00792553 -0.000241564 0)
(-0.00772632 -0.000247803 0)
(-0.00752221 -0.000253651 0)
(-0.00731351 -0.000259093 0)
(-0.00710056 -0.000264116 0)
(-0.00688371 -0.000268705 0)
(-0.00666331 -0.000272845 0)
(-0.00643975 -0.000276524 0)
(-0.00621338 -0.000279727 0)
(-0.00598462 -0.000282442 0)
(-0.00575385 -0.000284655 0)
(-0.0055215 -0.000286356 0)
(-0.00528797 -0.000287531 0)
(-0.00505371 -0.000288171 0)
(-0.00481914 -0.000288263 0)
(-0.00458471 -0.000287799 0)
(-0.00435088 -0.000286768 0)
(-0.00411811 -0.000285162 0)
(-0.00388686 -0.000282973 0)
(-0.00365761 -0.000280194 0)
(-0.00343084 -0.000276818 0)
(-0.00320702 -0.000272839 0)
(-0.00298664 -0.000268254 0)
(-0.0027702 -0.000263058 0)
(-0.00255817 -0.000257249 0)
(-0.00235105 -0.000250827 0)
(-0.00214933 -0.000243792 0)
(-0.0019535 -0.000236146 0)
(-0.00176403 -0.000227891 0)
(-0.00158141 -0.000219036 0)
(-0.00140611 -0.000209586 0)
(-0.00123859 -0.000199554 0)
(-0.0010793 -0.000188951 0)
(-0.000928679 -0.000177795 0)
(-0.000787147 -0.000166108 0)
(-0.000655102 -0.000153915 0)
(-0.000532914 -0.000141248 0)
(-0.000420927 -0.000128144 0)
(-0.000319445 -0.000114652 0)
(-0.000228727 -0.000100827 0)
(-0.000148978 -8.67413e-05 0)
(-8.03387e-05 -7.24807e-05 0)
(-2.28696e-05 -5.81521e-05 0)
(2.34649e-05 -4.38877e-05 0)
(5.88189e-05 -2.98544e-05 0)
(8.3492e-05 -1.62627e-05 0)
(9.79619e-05 -3.38093e-06 0)
(0.000102925 8.44809e-06 0)
(9.93455e-05 1.87834e-05 0)
(8.85178e-05 2.70579e-05 0)
(7.21293e-05 3.2552e-05 0)
(5.22861e-05 3.43825e-05 0)
(3.15374e-05 3.15305e-05 0)
(1.34207e-05 2.30247e-05 0)
(2.77796e-06 8.77308e-06 0)
(3.20772e-06 -1.69388e-05 0)
(1.47597e-05 -3.94273e-05 0)
(3.32331e-05 -5.08721e-05 0)
(5.27574e-05 -5.26374e-05 0)
(6.92272e-05 -4.64592e-05 0)
(7.97327e-05 -3.40122e-05 0)
(8.18617e-05 -1.6757e-05 0)
(7.36621e-05 4.09477e-06 0)
(5.36245e-05 2.7564e-05 0)
(2.06204e-05 5.28676e-05 0)
(-2.61593e-05 7.93831e-05 0)
(-8.72587e-05 0.000106616 0)
(-0.000163002 0.000134174 0)
(-0.000253531 0.000161744 0)
(-0.000358836 0.000189077 0)
(-0.000478785 0.00021597 0)
(-0.000613142 0.000242261 0)
(-0.000761587 0.000267822 0)
(-0.000923732 0.000292546 0)
(-0.00109913 0.00031635 0)
(-0.0012873 0.000339168 0)
(-0.0014877 0.000360945 0)
(-0.00169978 0.00038164 0)
(-0.00192295 0.000401222 0)
(-0.0021566 0.000419666 0)
(-0.00240013 0.000436955 0)
(-0.00265291 0.000453077 0)
(-0.00291429 0.000468026 0)
(-0.00318363 0.000481799 0)
(-0.0034603 0.000494398 0)
(-0.00374364 0.000505826 0)
(-0.00403302 0.00051609 0)
(-0.00432778 0.000525199 0)
(-0.0046273 0.000533165 0)
(-0.00493094 0.000539999 0)
(-0.00523808 0.000545717 0)
(-0.0055481 0.000550334 0)
(-0.00586038 0.000553866 0)
(-0.00617434 0.000556331 0)
(-0.00648936 0.000557747 0)
(-0.00680488 0.000558135 0)
(-0.00712032 0.000557513 0)
(-0.00743512 0.000555903 0)
(-0.00774872 0.000553325 0)
(-0.0080606 0.0005498 0)
(-0.00837022 0.000545352 0)
(-0.00867707 0.000540001 0)
(-0.00898064 0.000533771 0)
(-0.00928045 0.000526684 0)
(-0.00957602 0.000518763 0)
(-0.00986688 0.000510031 0)
(-0.0101526 0.000500512 0)
(-0.0104327 0.000490229 0)
(-0.0107068 0.000479206 0)
(-0.0109744 0.000467466 0)
(-0.0112352 0.000455034 0)
(-0.0114888 0.000441933 0)
(-0.0117348 0.000428188 0)
(-0.0119729 0.000413823 0)
(-0.0122026 0.000398863 0)
(-0.0124237 0.000383331 0)
(-0.0126359 0.000367253 0)
(-0.0128389 0.000350653 0)
(-0.0130323 0.000333557 0)
(-0.0132159 0.000315988 0)
(-0.0133894 0.000297973 0)
(-0.0135527 0.000279537 0)
(-0.0137053 0.000260705 0)
(-0.0138473 0.000241503 0)
(-0.0139782 0.000221956 0)
(-0.014098 0.000202091 0)
(-0.0142065 0.000181934 0)
(-0.0143035 0.000161511 0)
(-0.0143889 0.000140848 0)
(-0.0144625 0.000119974 0)
(-0.0145243 9.89136e-05 0)
(-0.0145741 7.76955e-05 0)
(-0.0146118 5.63467e-05 0)
(-0.0146375 3.48951e-05 0)
(-0.014651 1.33687e-05 0)
(-0.0146523 -8.20451e-06 0)
(-0.0146414 -2.97959e-05 0)
(-0.0146183 -5.13768e-05 0)
(-0.014583 -7.29183e-05 0)
(-0.0145356 -9.43912e-05 0)
(-0.014476 -0.000115766 0)
(-0.0144044 -0.000137014 0)
(-0.0143208 -0.000158103 0)
(-0.0142254 -0.000179006 0)
(-0.0141182 -0.00019969 0)
(-0.0139994 -0.000220127 0)
(-0.0138691 -0.000240285 0)
(-0.0137275 -0.000260133 0)
(-0.0135748 -0.000279641 0)
(-0.0134112 -0.000298778 0)
(-0.0132369 -0.000317512 0)
(-0.0130522 -0.000335814 0)
(-0.0128572 -0.00035365 0)
(-0.0126524 -0.000370992 0)
(-0.0124378 -0.000387806 0)
(-0.012214 -0.000404063 0)
(-0.0119811 -0.000419732 0)
(-0.0117396 -0.000434782 0)
(-0.0114898 -0.000449181 0)
(-0.0112321 -0.000462901 0)
(-0.0109668 -0.000475911 0)
(-0.0106944 -0.000488181 0)
(-0.0104153 -0.000499682 0)
(-0.0101299 -0.000510385 0)
(-0.00983873 -0.000520261 0)
(-0.00954223 -0.000529283 0)
(-0.0092409 -0.000537424 0)
(-0.00893523 -0.000544655 0)
(-0.00862575 -0.000550953 0)
(-0.00831299 -0.00055629 0)
(-0.00799749 -0.000560643 0)
(-0.00767982 -0.000563989 0)
(-0.00736054 -0.000566304 0)
(-0.00704024 -0.000567567 0)
(-0.00671951 -0.000567758 0)
(-0.00639897 -0.000566858 0)
(-0.00607922 -0.000564848 0)
(-0.00576089 -0.000561713 0)
(-0.00544461 -0.000557436 0)
(-0.00513102 -0.000552005 0)
(-0.00482077 -0.000545408 0)
(-0.00451451 -0.000537636 0)
(-0.0042129 -0.000528679 0)
(-0.00391659 -0.000518534 0)
(-0.00362623 -0.000507197 0)
(-0.0033425 -0.000494667 0)
(-0.00306604 -0.000480947 0)
(-0.00279751 -0.000466042 0)
(-0.00253754 -0.000449963 0)
(-0.00228679 -0.000432722 0)
(-0.00204588 -0.000414338 0)
(-0.00181541 -0.000394834 0)
(-0.00159599 -0.00037424 0)
(-0.00138818 -0.000352593 0)
(-0.00119254 -0.000329936 0)
(-0.00100958 -0.000306326 0)
(-0.000839776 -0.000281828 0)
(-0.00068357 -0.000256522 0)
(-0.000541343 -0.000230505 0)
(-0.000413411 -0.000203894 0)
(-0.000300021 -0.000176831 0)
(-0.000201325 -0.000149488 0)
(-0.000117371 -0.000122079 0)
(-4.80791e-05 -9.48608e-05 0)
(6.78545e-06 -6.81541e-05 0)
(4.76405e-05 -4.2355e-05 0)
(7.51249e-05 -1.79575e-05 0)
(9.01402e-05 4.42211e-06 0)
(9.38994e-05 2.40151e-05 0)
(8.79835e-05 3.98679e-05 0)
(7.43987e-05 5.08147e-05 0)
(5.55874e-05 5.5473e-05 0)
(3.44549e-05 5.22894e-05 0)
(1.50672e-05 3.97108e-05 0)
(3.21565e-06 1.66748e-05 0)
(3.13554e-06 -2.49242e-05 0)
(1.40525e-05 -5.53853e-05 0)
(3.06949e-05 -6.92408e-05 0)
(4.68174e-05 -6.91461e-05 0)
(5.8032e-05 -5.76111e-05 0)
(6.12064e-05 -3.69367e-05 0)
(5.37328e-05 -9.13223e-06 0)
(3.34754e-05 2.41084e-05 0)
(-1.2491e-06 6.13852e-05 0)
(-5.17274e-05 0.000101554 0)
(-0.000118905 0.000143685 0)
(-0.000203433 0.000187023 0)
(-0.000305716 0.000230956 0)
(-0.000425948 0.000274988 0)
(-0.000564147 0.000318718 0)
(-0.000720181 0.000361817 0)
(-0.000893793 0.000404021 0)
(-0.00108462 0.00044511 0)
(-0.00129222 0.00048491 0)
(-0.00151607 0.000523277 0)
(-0.00175559 0.000560096 0)
(-0.00201016 0.000595273 0)
(-0.00227909 0.000628736 0)
(-0.00256169 0.000660426 0)
(-0.00285723 0.000690298 0)
(-0.00316496 0.000718321 0)
(-0.00348412 0.000744471 0)
(-0.00381392 0.000768733 0)
(-0.00415358 0.0007911 0)
(-0.0045023 0.000811569 0)
(-0.0048593 0.000830145 0)
(-0.00522377 0.000846835 0)
(-0.00559493 0.000861653 0)
(-0.00597198 0.000874614 0)
(-0.00635415 0.000885736 0)
(-0.00674065 0.000895041 0)
(-0.00713072 0.000902553 0)
(-0.0075236 0.000908297 0)
(-0.00791854 0.000912302 0)
(-0.00831479 0.000914595 0)
(-0.00871164 0.000915208 0)
(-0.00910836 0.000914172 0)
(-0.00950426 0.000911519 0)
(-0.00989864 0.000907284 0)
(-0.0102908 0.000901501 0)
(-0.0106802 0.000894205 0)
(-0.011066 0.000885431 0)
(-0.0114478 0.000875216 0)
(-0.0118248 0.000863597 0)
(-0.0121964 0.000850611 0)
(-0.0125621 0.000836296 0)
(-0.0129214 0.00082069 0)
(-0.0132736 0.00080383 0)
(-0.0136182 0.000785756 0)
(-0.0139547 0.000766507 0)
(-0.0142827 0.000746121 0)
(-0.0146015 0.000724638 0)
(-0.0149108 0.000702097 0)
(-0.0152101 0.000678539 0)
(-0.015499 0.000654003 0)
(-0.015777 0.000628529 0)
(-0.0160438 0.000602158 0)
(-0.0162989 0.000574931 0)
(-0.0165421 0.000546888 0)
(-0.0167729 0.000518071 0)
(-0.016991 0.000488521 0)
(-0.0171962 0.000458279 0)
(-0.0173881 0.000427388 0)
(-0.0175665 0.000395889 0)
(-0.0177311 0.000363826 0)
(-0.0178816 0.00033124 0)
(-0.018018 0.000298176 0)
(-0.0181398 0.000264675 0)
(-0.0182471 0.000230783 0)
(-0.0183395 0.000196544 0)
(-0.0184171 0.000162001 0)
(-0.0184796 0.0001272 0)
(-0.018527 9.21853e-05 0)
(-0.0185591 5.70035e-05 0)
(-0.0185759 2.17002e-05 0)
(-0.0185775 -1.36782e-05 0)
(-0.0185637 -4.9085e-05 0)
(-0.0185345 -8.44729e-05 0)
(-0.01849 -0.000119794 0)
(-0.0184302 -0.000155002 0)
(-0.0183552 -0.000190046 0)
(-0.018265 -0.00022488 0)
(-0.0181598 -0.000259453 0)
(-0.0180397 -0.000293717 0)
(-0.0179048 -0.000327621 0)
(-0.0177554 -0.000361117 0)
(-0.0175915 -0.000394154 0)
(-0.0174134 -0.000426681 0)
(-0.0172214 -0.000458648 0)
(-0.0170156 -0.000490005 0)
(-0.0167964 -0.0005207 0)
(-0.0165641 -0.000550683 0)
(-0.016319 -0.000579903 0)
(-0.0160614 -0.000608309 0)
(-0.0157917 -0.000635851 0)
(-0.0155103 -0.000662477 0)
(-0.0152176 -0.000688137 0)
(-0.014914 -0.000712782 0)
(-0.0146 -0.000736361 0)
(-0.014276 -0.000758825 0)
(-0.0139426 -0.000780125 0)
(-0.0136002 -0.000800213 0)
(-0.0132494 -0.000819041 0)
(-0.0128907 -0.000836562 0)
(-0.0125248 -0.000852729 0)
(-0.0121522 -0.000867498 0)
(-0.0117735 -0.000880824 0)
(-0.0113894 -0.000892664 0)
(-0.0110004 -0.000902975 0)
(-0.0106074 -0.000911718 0)
(-0.0102109 -0.000918852 0)
(-0.00981162 -0.00092434 0)
(-0.00941034 -0.000928145 0)
(-0.00900777 -0.000930233 0)
(-0.00860463 -0.000930572 0)
(-0.00820169 -0.000929131 0)
(-0.00779971 -0.000925881 0)
(-0.00739948 -0.000920797 0)
(-0.00700177 -0.000913856 0)
(-0.00660739 -0.000905036 0)
(-0.00621714 -0.00089432 0)
(-0.00583183 -0.000881694 0)
(-0.00545226 -0.000867147 0)
(-0.00507926 -0.000850671 0)
(-0.00471363 -0.000832263 0)
(-0.0043562 -0.000811925 0)
(-0.00400776 -0.000789664 0)
(-0.00366913 -0.000765491 0)
(-0.00334109 -0.000739425 0)
(-0.00302443 -0.000711491 0)
(-0.00271991 -0.000681722 0)
(-0.00242827 -0.00065016 0)
(-0.00215025 -0.000616859 0)
(-0.00188653 -0.000581881 0)
(-0.00163778 -0.000545305 0)
(-0.00140461 -0.000507226 0)
(-0.00118758 -0.000467755 0)
(-0.000987223 -0.00042703 0)
(-0.00080397 -0.000385214 0)
(-0.000638189 -0.000342501 0)
(-0.000490151 -0.000299127 0)
(-0.000360017 -0.000255375 0)
(-0.000247817 -0.000211587 0)
(-0.000153428 -0.000168179 0)
(-7.65487e-05 -0.000125654 0)
(-1.66642e-05 -8.46285e-05 0)
(2.69868e-05 -4.58536e-05 0)
(5.54541e-05 -1.02491e-05 0)
(7.01205e-05 2.10637e-05 0)
(7.27533e-05 4.67262e-05 0)
(6.55564e-05 6.51131e-05 0)
(5.11805e-05 7.43231e-05 0)
(3.27653e-05 7.22133e-05 0)
(1.46914e-05 5.65002e-05 0)
(3.20431e-06 2.48809e-05 0)
(2.77451e-06 -3.21053e-05 0)
(1.18686e-05 -6.90795e-05 0)
(2.45682e-05 -8.36701e-05 0)
(3.4714e-05 -7.98144e-05 0)
(3.78549e-05 -6.0852e-05 0)
(3.07425e-05 -2.97381e-05 0)
(1.06696e-05 1.09629e-05 0)
(-2.45937e-05 5.90725e-05 0)
(-7.68256e-05 0.000112764 0)
(-0.000147406 0.000170521 0)
(-0.000237366 0.000231088 0)
(-0.00034743 0.00029343 0)
(-0.00047806 0.000356696 0)
(-0.000629485 0.000420184 0)
(-0.000801745 0.000483318 0)
(-0.000994707 0.000545625 0)
(-0.0012081 0.000606713 0)
(-0.00144153 0.000666262 0)
(-0.00169449 0.000724007 0)
(-0.00196642 0.000779733 0)
(-0.00225664 0.000833262 0)
(-0.00256445 0.000884453 0)
(-0.00288909 0.000933189 0)
(-0.00322974 0.000979379 0)
(-0.00358556 0.00102295 0)
(-0.00395569 0.00106385 0)
(-0.00433923 0.00110204 0)
(-0.00473529 0.0011375 0)
(-0.00514293 0.00117019 0)
(-0.00556125 0.00120013 0)
(-0.0059893 0.00122731 0)
(-0.00642615 0.00125174 0)
(-0.00687088 0.00127343 0)
(-0.00732255 0.0012924 0)
(-0.00778024 0.00130868 0)
(-0.00824302 0.0013223 0)
(-0.00871 0.0013333 0)
(-0.00918028 0.00134169 0)
(-0.00965295 0.00134753 0)
(-0.0101272 0.00135086 0)
(-0.010602 0.00135172 0)
(-0.0110767 0.00135015 0)
(-0.0115504 0.0013462 0)
(-0.0120222 0.00133992 0)
(-0.0124914 0.00133136 0)
(-0.0129572 0.00132057 0)
(-0.0134187 0.0013076 0)
(-0.0138754 0.00129251 0)
(-0.0143263 0.00127534 0)
(-0.0147708 0.00125616 0)
(-0.0152083 0.00123501 0)
(-0.015638 0.00121196 0)
(-0.0160592 0.00118706 0)
(-0.0164714 0.00116037 0)
(-0.0168739 0.00113194 0)
(-0.0172661 0.00110182 0)
(-0.0176474 0.00107009 0)
(-0.0180173 0.0010368 0)
(-0.0183753 0.001002 0)
(-0.0187207 0.000965758 0)
(-0.0190532 0.00092813 0)
(-0.0193722 0.000889175 0)
(-0.0196773 0.000848955 0)
(-0.0199681 0.00080753 0)
(-0.020244 0.00076496 0)
(-0.0205049 0.000721307 0)
(-0.0207502 0.000676632 0)
(-0.0209796 0.000630997 0)
(-0.0211929 0.000584466 0)
(-0.0213896 0.0005371 0)
(-0.0215696 0.000488964 0)
(-0.0217325 0.00044012 0)
(-0.0218781 0.000390634 0)
(-0.0220063 0.00034057 0)
(-0.0221168 0.000289993 0)
(-0.0222094 0.00023897 0)
(-0.022284 0.000187567 0)
(-0.0223405 0.00013585 0)
(-0.0223788 8.38876e-05 0)
(-0.0223988 3.17476e-05 0)
(-0.0224005 -2.05013e-05 0)
(-0.0223839 -7.27899e-05 0)
(-0.0223488 -0.000125049 0)
(-0.0222955 -0.000177207 0)
(-0.0222238 -0.000229194 0)
(-0.022134 -0.000280938 0)
(-0.0220261 -0.000332368 0)
(-0.0219001 -0.000383411 0)
(-0.0217564 -0.000433995 0)
(-0.021595 -0.000484046 0)
(-0.0214161 -0.00053349 0)
(-0.0212201 -0.000582253 0)
(-0.021007 -0.000630262 0)
(-0.0207773 -0.000677442 0)
(-0.0205312 -0.000723718 0)
(-0.020269 -0.000769014 0)
(-0.0199912 -0.000813258 0)
(-0.019698 -0.000856372 0)
(-0.01939 -0.000898283 0)
(-0.0190675 -0.000938916 0)
(-0.018731 -0.000978197 0)
(-0.018381 -0.00101605 0)
(-0.018018 -0.0010524 0)
(-0.0176425 -0.00108718 0)
(-0.0172552 -0.00112032 0)
(-0.0168565 -0.00115174 0)
(-0.0164472 -0.00118136 0)
(-0.0160278 -0.00120913 0)
(-0.015599 -0.00123497 0)
(-0.0151616 -0.00125882 0)
(-0.0147161 -0.00128061 0)
(-0.0142634 -0.00130027 0)
(-0.0138041 -0.00131774 0)
(-0.0133391 -0.00133296 0)
(-0.0128692 -0.00134586 0)
(-0.0123951 -0.00135641 0)
(-0.0119178 -0.00136453 0)
(-0.011438 -0.00137018 0)
(-0.0109566 -0.0013733 0)
(-0.0104745 -0.00137385 0)
(-0.00999255 -0.00137179 0)
(-0.00951174 -0.00136707 0)
(-0.00903295 -0.00135966 0)
(-0.00855711 -0.00134953 0)
(-0.00808517 -0.00133665 0)
(-0.00761807 -0.00132099 0)
(-0.00715678 -0.00130253 0)
(-0.00670223 -0.00128126 0)
(-0.00625541 -0.00125718 0)
(-0.00581726 -0.00123027 0)
(-0.00538873 -0.00120055 0)
(-0.00497079 -0.00116803 0)
(-0.00456436 -0.00113273 0)
(-0.00417038 -0.00109468 0)
(-0.00378976 -0.00105392 0)
(-0.00342338 -0.0010105 0)
(-0.00307212 -0.000964501 0)
(-0.00273681 -0.000915992 0)
(-0.00241824 -0.000865077 0)
(-0.00211719 -0.000811876 0)
(-0.00183434 -0.000756533 0)
(-0.00157035 -0.000699221 0)
(-0.0013258 -0.000640144 0)
(-0.00110118 -0.000579547 0)
(-0.000896896 -0.00051772 0)
(-0.000713239 -0.00045501 0)
(-0.000550375 -0.000391829 0)
(-0.000408319 -0.000328671 0)
(-0.000286918 -0.00026613 0)
(-0.000185816 -0.000204917 0)
(-0.000104432 -0.000145888 0)
(-4.19176e-05 -9.00709e-05 0)
(2.87252e-06 -3.87045e-05 0)
(3.1427e-05 6.72733e-06 0)
(4.56216e-05 4.44556e-05 0)
(4.77692e-05 7.23908e-05 0)
(4.0636e-05 8.80997e-05 0)
(2.74964e-05 8.88128e-05 0)
(1.28362e-05 7.14497e-05 0)
(2.90122e-06 3.24567e-05 0)
(2.23095e-06 -3.78399e-05 0)
(8.64473e-06 -7.89976e-05 0)
(1.5773e-05 -9.21161e-05 0)
(1.7889e-05 -8.22738e-05 0)
(1.06694e-05 -5.36185e-05 0)
(-9.15048e-06 -9.75465e-06 0)
(-4.42963e-05 4.62049e-05 0)
(-9.7021e-05 0.000111605 0)
(-0.000169135 0.000184199 0)
(-0.000262058 0.000262093 0)
(-0.000376862 0.000343704 0)
(-0.00051431 0.000427708 0)
(-0.000674892 0.000512999 0)
(-0.000858863 0.00059866 0)
(-0.00106627 0.000683922 0)
(-0.00129697 0.00076815 0)
(-0.00155067 0.000850815 0)
(-0.00182696 0.000931476 0)
(-0.00212529 0.00100977 0)
(-0.00244503 0.00108539 0)
(-0.00278546 0.0011581 0)
(-0.00314578 0.00122768 0)
(-0.00352514 0.00129397 0)
(-0.00392266 0.00135685 0)
(-0.00433738 0.0014162 0)
(-0.00476833 0.00147194 0)
(-0.00521452 0.00152402 0)
(-0.00567492 0.00157238 0)
(-0.00614849 0.001617 0)
(-0.00663419 0.00165787 0)
(-0.00713097 0.00169499 0)
(-0.00763776 0.00172835 0)
(-0.0081535 0.00175798 0)
(-0.00867714 0.0017839 0)
(-0.00920761 0.00180614 0)
(-0.00974388 0.00182474 0)
(-0.0102849 0.00183974 0)
(-0.0108296 0.00185118 0)
(-0.0113771 0.00185911 0)
(-0.0119262 0.0018636 0)
(-0.0124761 0.00186469 0)
(-0.0130257 0.00186245 0)
(-0.013574 0.00185695 0)
(-0.0141202 0.00184823 0)
(-0.0146633 0.00183638 0)
(-0.0152025 0.00182147 0)
(-0.0157367 0.00180355 0)
(-0.0162652 0.00178271 0)
(-0.016787 0.00175901 0)
(-0.0173015 0.00173254 0)
(-0.0178077 0.00170336 0)
(-0.018305 0.00167155 0)
(-0.0187924 0.00163719 0)
(-0.0192694 0.00160036 0)
(-0.0197351 0.00156114 0)
(-0.0201889 0.0015196 0)
(-0.0206301 0.00147582 0)
(-0.0210581 0.00142989 0)
(-0.0214723 0.00138188 0)
(-0.0218719 0.00133188 0)
(-0.0222566 0.00127997 0)
(-0.0226257 0.00122623 0)
(-0.0229786 0.00117074 0)
(-0.023315 0.00111359 0)
(-0.0236342 0.00105486 0)
(-0.023936 0.000994632 0)
(-0.0242197 0.000932998 0)
(-0.0244851 0.000870041 0)
(-0.0247317 0.000805847 0)
(-0.0249593 0.000740502 0)
(-0.0251674 0.000674095 0)
(-0.0253557 0.000606713 0)
(-0.0255241 0.000538446 0)
(-0.0256723 0.000469383 0)
(-0.0258 0.000399615 0)
(-0.025907 0.000329232 0)
(-0.0259932 0.000258327 0)
(-0.0260584 0.000186992 0)
(-0.0261026 0.00011532 0)
(-0.0261256 4.34052e-05 0)
(-0.0261274 -2.86571e-05 0)
(-0.026108 -0.000100772 0)
(-0.0260673 -0.000172842 0)
(-0.0260055 -0.000244771 0)
(-0.0259225 -0.00031646 0)
(-0.0258184 -0.000387812 0)