/*--------------------------------*- C++ -*----------------------------------*\
  =========                 |
  \\      /  F ield         | OpenFOAM: The Open Source CFD Toolbox
   \\    /   O peration     | Website:  https://openfoam.org
    \\  /    A nd           | Version:  7
     \\/     M anipulation  |
\*---------------------------------------------------------------------------*/
FoamFile
{
    version     2.0;
    format      ascii;
    class       volScalarField;
    location    "0.325";
    object      p;
}
// * * * * * * * * * * * * * * * * * * * * * * * * * * * * * * * * * * * * * //

dimensions      [0 2 -2 0 0 0 0];

internalField   nonuniform List<scalar> 
6400
(
1.22045e-05
3.33288e-05
-0.000471706
-0.00150436
-0.00294665
-0.00468828
-0.00662889
-0.0086789
-0.0107611
-0.0128101
-0.0147708
-0.0165971
-0.0182506
-0.0196994
-0.0209179
-0.0218852
-0.0225853
-0.0230059
-0.0231386
-0.022978
-0.0225215
-0.0217694
-0.0207239
-0.0193896
-0.0177731
-0.0158826
-0.0137279
-0.0113202
-0.00867223
-0.00579788
-0.00271211
0.000569019
0.00402853
0.00764855
0.0114104
0.0152948
0.0192815
0.0233502
0.0274796
0.0316484
0.0358346
0.0400161
0.0441708
0.0482764
0.0523106
0.0562514
0.0600769
0.0637657
0.067297
0.0706504
0.0738065
0.0767469
0.0794543
0.0819124
0.0841067
0.0860242
0.0876536
0.0889858
0.0900139
0.0907331
0.0911417
0.0912404
0.0910333
0.0905278
0.089735
0.0886698
0.0873517
0.0858047
0.0840582
0.0821474
0.0801142
0.0780076
0.0758852
0.0738139
0.0718712
0.0701458
0.0687345
0.0677417
0.0672738
0.0673112
9.23371e-06
2.36474e-05
-0.000429675
-0.0013129
-0.00252667
-0.00399179
-0.00563232
-0.00737588
-0.00915722
-0.0109191
-0.0126119
-0.0141931
-0.0156267
-0.0168823
-0.0179348
-0.0187639
-0.0193533
-0.0196906
-0.0197666
-0.0195753
-0.0191135
-0.0183803
-0.0173772
-0.0161077
-0.0145772
-0.0127928
-0.0107633
-0.00849881
-0.00601079
-0.00331192
-0.000416019
0.0026621
0.00590668
0.0093011
0.0128279
0.0164691
0.0202059
0.0240191
0.0278888
0.031795
0.0357172
0.0396348
0.0435269
0.0473727
0.0511514
0.0548425
0.0584256
0.0618808
0.0651888
0.0683307
0.0712887
0.0740458
0.0765861
0.078895
0.0809593
0.0827673
0.084309
0.0855767
0.0865644
0.0872686
0.0876882
0.0878251
0.0876839
0.0872723
0.0866017
0.0856871
0.0845475
0.0832062
0.0816913
0.0800361
0.0782794
0.0764661
0.0746478
0.072883
0.071237
0.0697809
0.0685881
0.0677334
0.0673102
0.0673487
0.000517163
0.000479091
2.52617e-05
-0.000790604
-0.00188125
-0.00318336
-0.00463576
-0.00617833
-0.00775548
-0.0093172
-0.0108192
-0.0122229
-0.0134949
-0.0146068
-0.0155347
-0.0162592
-0.0167643
-0.0170377
-0.0170702
-0.0168555
-0.0163899
-0.015672
-0.0147026
-0.0134846
-0.0120226
-0.0103229
-0.00839331
-0.00624318
-0.00388303
-0.00132461
0.00141925
0.0043347
0.00740697
0.0106205
0.0139588
0.017405
0.0209413
0.0245496
0.0282112
0.0319071
0.0356179
0.0393242
0.0430063
0.0466446
0.0502194
0.0537114
0.0571014
0.0603707
0.0635011
0.0664752
0.0692761
0.071888
0.0742963
0.0764873
0.078449
0.0801706
0.0816434
0.0828601
0.0838158
0.0845077
0.0849354
0.085101
0.0850095
0.0846689
0.0840903
0.0832883
0.0822813
0.0810916
0.0797456
0.0782744
0.0767137
0.0751042
0.073492
0.0719282
0.0704685
0.0691722
0.0680985
0.0673077
0.0668854
0.0668828
0.00155015
0.00136505
0.000841368
2.21664e-05
-0.00102587
-0.00224915
-0.00359592
-0.00501545
-0.00646017
-0.00788652
-0.00925533
-0.0105319
-0.0116858
-0.0126911
-0.0135254
-0.0141705
-0.0146111
-0.0148356
-0.0148349
-0.0146026
-0.0141351
-0.0134305
-0.0124894
-0.0113142
-0.00990892
-0.00827929
-0.00643251
-0.00437715
-0.00212303
0.000318874
0.00293652
0.00571688
0.00864603
0.0117092
0.014891
0.0181751
0.0215449
0.024983
0.0284719
0.0319933
0.035529
0.0390603
0.0425686
0.0460353
0.0494417
0.0527694
0.0560003
0.0591166
0.0621012
0.0649375
0.0676096
0.0701028
0.0724031
0.0744979
0.0763758
0.0780271
0.0794434
0.0806184
0.0815475
0.0822285
0.0826612
0.0828481
0.082794
0.0825069
0.0819975
0.0812799
0.0803714
0.0792928
0.0780689
0.0767283
0.0753035
0.0738313
0.0723524
0.0709115
0.0695569
0.0683387
0.0673075
0.0665147
0.0660287
0.0658931
0.00299883
0.00258728
0.00193574
0.00106363
8.17547e-06
-0.00118578
-0.00247434
-0.00381523
-0.00516822
-0.00649585
-0.00776394
-0.00894177
-0.0100022
-0.0109215
-0.0116796
-0.0122594
-0.0126468
-0.0128309
-0.0128029
-0.012557
-0.0120892
-0.0113979
-0.0104834
-0.00934749
-0.00799406
-0.0064283
-0.00465687
-0.00268773
-0.00053005
0.00180586
0.00430869
0.00696613
0.00976505
0.0126915
0.0157307
0.0188675
0.0220858
0.0253694
0.0287012
0.0320642
0.0354409
0.0388136
0.0421644
0.0454758
0.0487299
0.0519092
0.0549964
0.0579749
0.0608281
0.0635404
0.0660968
0.0684833
0.0706867
0.0726952
0.0744981
0.0760861
0.0774516
0.0785887
0.0794933
0.0801633
0.0805988
0.0808023
0.0807786
0.0805351
0.0800822
0.079433
0.0786038
0.0776138
0.0764857
0.0752455
0.0739227
0.07255
0.0711631
0.0698007
0.068504
0.0673154
0.0662781
0.0654358
0.0648295
0.0644818
0.00476116
0.00407279
0.00325029
0.00228502
0.00118078
-2.53444e-05
-0.00129613
-0.0025969
-0.0038941
-0.00515592
-0.0063529
-0.00745827
-0.00844809
-0.00930132
-0.00999977
-0.010528
-0.0108733
-0.0110255
-0.0109765
-0.0107208
-0.0102548
-0.00957679
-0.00868699
-0.00758722
-0.0062809
-0.00477291
-0.00306946
-0.00117801
0.000892814
0.00313331
0.00553278
0.00807961
0.0107613
0.0135647
0.0164758
0.01948
0.0225622
0.0257068
0.0288977
0.0321185
0.0353526
0.0385831
0.0417931
0.0449655
0.0480835
0.0511303
0.0540896
0.0569452
0.0596816
0.0622837
0.0647374
0.0670293
0.0691469
0.0710789
0.0728153
0.0743472
0.0756674
0.0767704
0.0776523
0.0783113
0.0787474
0.078963
0.0789626
0.0787532
0.0783445
0.0777485
0.0769804
0.0760576
0.0750008
0.0738334
0.0725816
0.0712743
0.0699427
0.0686201
0.067341
0.0661409
0.0650568
0.0641253
0.0633562
0.0627454
0.00674644
0.00575308
0.00472983
0.00363981
0.00245288
0.00119958
-8.83134e-05
-0.00138279
-0.00265631
-0.00388216
-0.00503531
-0.00609273
-0.00703362
-0.00783955
-0.00849444
-0.00898459
-0.00929856
-0.00942714
-0.00936324
-0.00910175
-0.00863943
-0.00797483
-0.00710814
-0.00604117
-0.00477715
-0.0033207
-0.0016777
0.000144795
0.00213861
0.00429456
0.0066025
0.00905139
0.0116294
0.0143239
0.0171216
0.0200086
0.0229706
0.0259924
0.0290589
0.0321544
0.0352629
0.0383682
0.0414542
0.0445047
0.0475033
0.0504341
0.0532814
0.0560297
0.0586641
0.0611703
0.0635347
0.0657443
0.0677874
0.069653
0.0713315
0.0728145
0.0740951
0.0751679
0.0760292
0.0766772
0.0771118
0.0773351
0.0773513
0.0771668
0.0767903
0.0762331
0.0755086
0.0746328
0.0736243
0.0725039
0.0712947
0.0700219
0.0687127
0.0673955
0.066099
0.0648525
0.0636878
0.0626357
0.0616735
0.0607704
0.00887545
0.00756366
0.00632058
0.00508265
0.00378695
0.00245875
0.00112547
-0.00019069
-0.00146748
-0.0026828
-0.00381565
-0.00484651
-0.0057576
-0.00653299
-0.00715873
-0.00762285
-0.00791534
-0.00802809
-0.00795488
-0.00769124
-0.00723443
-0.00658327
-0.00573814
-0.00470086
-0.00347461
-0.00206384
-0.000474189
0.0012876
0.00321373
0.00529545
0.00752308
0.00988608
0.0123732
0.0149722
0.0176707
0.0204551
0.0233118
0.0262265
0.0291844
0.0321705
0.0351695
0.0381659
0.0411442
0.0440888
0.0469839
0.0498143
0.0525649
0.0552206
0.0577673
0.0601911
0.0624787
0.0646179
0.0665971
0.0684059
0.0700348
0.0714759
0.0727223
0.0737687
0.0746115
0.0752487
0.07568
0.0759072
0.075934
0.075766
0.0754112
0.0748796
0.0741834
0.0733368
0.0723563
0.0712603
0.0700691
0.0688046
0.0674899
0.0661493
0.0648067
0.0634856
0.0622141
0.0610178
0.0598431
0.0586331
0.0110812
0.00944702
0.00797304
0.00657099
0.00514708
0.00372249
0.00232127
0.000960657
-0.000341738
-0.0015679
-0.00270049
-0.00372322
-0.0046211
-0.00538065
-0.00598997
-0.00643881
-0.00671859
-0.00682238
-0.00674488
-0.00648236
-0.00603262
-0.00539487
-0.00456973
-0.00355917
-0.00236636
-0.000995689
0.000547374
0.00225632
0.00412364
0.00614095
0.00829894
0.0105875
0.0129959
0.0155124
0.018125
0.0208208
0.0235867
0.0264089
0.0292732
0.0321652
0.0350702
0.0379732
0.0408592
0.0437132
0.0465201
0.0492651
0.0519334
0.0545107
0.0569831
0.0593372
0.0615603
0.0636402
0.0655659
0.067327
0.0689145
0.0703203
0.0715377
0.0725616
0.073388
0.0740149
0.0744417
0.0746696
0.0747017
0.0745431
0.0742007
0.0736833
0.0730018
0.0721687
0.0711986
0.0701077
0.0689135
0.0676349
0.0662916
0.064904
0.0634919
0.0620743
0.0606759
0.0593188
0.0579197
0.0563977
0.0133077
0.0113531
0.00964272
0.00806571
0.0064994
0.00496201
0.00347507
0.0020516
0.000705213
-0.00054966
-0.00169894
-0.00272927
-0.00362828
-0.00438476
-0.00498877
-0.00543175
-0.00570653
-0.00580739
-0.00572998
-0.00547135
-0.0050299
-0.00440531
-0.00359853
-0.00261169
-0.00144809
-0.000112086
0.00139094
0.00305462
0.00487171
0.00683406
0.00893272
0.011158
0.0134993
0.0159457
0.0184854
0.021106
0.0237949
0.0265388
0.029324
0.0321367
0.0349625
0.037787
0.0405957
0.043374
0.0461072
0.048781
0.0513811
0.0538936
0.0563048
0.0586018
0.060772
0.0628036
0.0646856
0.0664081
0.0679619
0.0693391
0.070533
0.0715382
0.0723508
0.0729682
0.0733896
0.0736156
0.0736489
0.0734935
0.0731554
0.0726424
0.0719639
0.0711309
0.070156
0.0690534
0.0678383
0.0665268
0.0651356
0.0636819
0.0621816
0.0606501
0.05911
0.0575805
0.0559507
0.0541178
0.0155082
0.0132383
0.01129
0.00953117
0.00781244
0.00614994
0.00456343
0.00306241
0.00165708
0.000358743
-0.000821394
-0.00187263
-0.00278496
-0.00354929
-0.00415755
-0.00460278
-0.00487921
-0.00498228
-0.00490864
-0.00465614
-0.00422382
-0.00361188
-0.00282163
-0.00185546
-0.000716818
0.000589877
0.00205927
0.0036851
0.00546027
0.00737686
0.00942616
0.0115987
0.0138845
0.0162727
0.018752
0.0213105
0.0239358
0.0266152
0.0293353
0.0320828
0.0348438
0.0376043
0.04035
0.0430669
0.0457407
0.0483573
0.0509028
0.0533636
0.0557264
0.0579782
0.060107
0.0621009
0.0639492
0.0656418
0.0671698
0.0685251
0.0697009
0.0706916
0.071493
0.0721023
0.0725181
0.0727406
0.0727715
0.0726142
0.0722737
0.0717567
0.0710711
0.0702267
0.0692343
0.068106
0.0668548
0.0654947
0.0640398
0.0625043
0.0609011
0.0592424
0.0575495
0.05584
0.0539769
0.0518373
0.0176433
0.0150651
0.0128795
0.0109351
0.0090571
0.00726044
0.00556375
0.00397362
0.00249732
0.00114348
-7.92093e-05
-0.00116241
-0.00209829
-0.00287967
-0.00350023
-0.00395455
-0.00423819
-0.00434774
-0.00428081
-0.00403609
-0.00361329
-0.00301314
-0.00223737
-0.00128868
-0.000170697
0.00111204
0.00255413
0.00414939
0.00589079
0.00777057
0.00978025
0.0119106
0.0141518
0.0164935
0.0189245
0.0214335
0.0240082
0.0266364
0.0293052
0.0320013
0.0347114
0.0374218
0.0401187
0.0427881
0.0454162
0.0479892
0.0504933
0.0529153
0.055242
0.0574606
0.0595591
0.0615259
0.0633501
0.0650218
0.0665317
0.0678719
0.0690353
0.070016
0.0708094
0.0714124
0.071823
0.0720409
0.0720669
0.0719038
0.0715555
0.0710274
0.0703266
0.0694611
0.0684403
0.0672745
0.0659749
0.0645532
0.0630214
0.0613915
0.0596738
0.0578778
0.0560243
0.0541297
0.0520332
0.0495929
0.0196797
0.0168006
0.0143802
0.0122482
0.0102065
0.00826922
0.00645436
0.00476612
0.00320933
0.00179031
0.000515549
-0.000608701
-0.00157654
-0.00238257
-0.0030221
-0.00349112
-0.00378647
-0.00390585
-0.00384786
-0.00361197
-0.00319859
-0.00260901
-0.00184539
-0.00091077
0.000190965
0.00145513
0.00287627
0.00444814
0.00616381
0.0080156
0.00999517
0.0120935
0.014301
0.0166075
0.0190021
0.0214738
0.0240107
0.0266007
0.0292313
0.0318895
0.0345624
0.0372364
0.039898
0.0425335
0.0451294
0.047672
0.0501478
0.0525436
0.0548464
0.0570435
0.0591229
0.0610729
0.0628828
0.0645423
0.0660422
0.0673743
0.0685311
0.0695066
0.0702957
0.0708948
0.0713014
0.0715143
0.071534
0.0713621
0.0710017
0.0704572
0.0697343
0.0688398
0.0677816
0.0665687
0.0652103
0.0637164
0.0620973
0.0603629
0.0585215
0.0565807
0.0545609
0.0524784
0.0501496
0.047415
0.0215885
0.0184163
0.015764
0.0134441
0.0112359
0.00915345
0.0072145
0.00542129
0.00377656
0.0022847
0.000950267
-0.000222331
-0.00122893
-0.00206575
-0.00272957
-0.00321775
-0.00352832
-0.00366004
-0.00361243
-0.00338581
-0.00298123
-0.00240058
-0.00164646
-0.000722296
0.000367776
0.00161887
0.00302541
0.0045811
0.006279
0.0081115
0.0100703
0.0121467
0.0143311
0.0166135
0.0189834
0.0214298
0.0239412
0.0265057
0.0291111
0.0317447
0.0343936
0.0370445
0.0396843
0.0422994
0.0448763
0.0474015
0.0498618
0.0522438
0.0545348
0.056722
0.0587932
0.060737
0.0625422
0.0641986
0.0656966
0.0670278
0.0681844
0.0691599
0.0699488
0.070547
0.0709513
0.07116
0.0711727
0.0709902
0.0706146
0.0700494
0.0692991
0.0683693
0.0672667
0.0659986
0.0645731
0.0629986
0.0612837
0.0594367
0.0574646
0.0553732
0.0531832
0.050911
0.0483518
0.0453292
0.0233448
0.0198866
0.0170059
0.0144984
0.0121223
0.00989161
0.00782432
0.00592099
0.00418264
0.00261199
0.00121193
-1.4755e-05
-0.00106545
-0.00193787
-0.00263011
-0.00314081
-0.00346913
-0.00361484
-0.00357837
-0.00336081
-0.00296391
-0.0023901
-0.00164249
-0.000724868
0.000358325
0.00160198
0.00300037
0.0045471
0.0062352
0.00805705
0.0100045
0.0120687
0.0142404
0.0165097
0.0188663
0.0212993
0.0237974
0.026349
0.0289419
0.0315638
0.0342017
0.0368429
0.0394739
0.0420817
0.0446526
0.0471735
0.0496308
0.0520115
0.0543026
0.0564914
0.0585657
0.0605137
0.0623241
0.0639865
0.0654911
0.0668289
0.067992
0.0689732
0.0697666
0.0703675
0.0707721
0.070978
0.070984
0.0707901
0.0703975
0.0698085
0.0690269
0.0680569
0.0669042
0.0655748
0.0640756
0.0624136
0.0605962
0.0586305
0.056522
0.0542757
0.0519125
0.0494497
0.0466621
0.0433572
0.0249266
0.0211887
0.018083
0.0153888
0.0128442
0.0104634
0.00826475
0.00624756
0.00441135
0.00275742
0.00128721
2.06856e-06
-0.00109678
-0.00200836
-0.00273205
-0.00326763
-0.00361531
-0.00377586
-0.00375055
-0.00354124
-0.00315035
-0.00258087
-0.00183639
-0.000921093
0.000160246
0.00140228
0.00279908
0.00434415
0.00603043
0.00785028
0.00979554
0.0118575
0.0140269
0.0162939
0.0186485
0.0210797
0.0235766
0.0261275
0.0287206
0.0313434
0.0339834
0.0366277
0.0392631
0.0418765
0.0444545
0.0469837
0.0494508
0.0518425
0.0541457
0.0563478
0.0584363
0.0603991
0.0622249
0.0639027
0.0654225
0.0667749
0.0679515
0.0689447
0.0697479
0.0703558
0.070764
0.0709694
0.0709699
0.0707648
0.0703543
0.0697399
0.0689241
0.0679106
0.0667035
0.0653081
0.0637299
0.0619751
0.0600499
0.0579605
0.0557114
0.0533067
0.0507685
0.0481145
0.0451003
0.0415177
0.026314
0.022302
0.0189743
0.0160947
0.0133815
0.0108494
0.00851746
0.00638377
0.00444665
0.00270617
0.0011625
-0.000184254
-0.00133414
-0.00228739
-0.00304452
-0.00360639
-0.00397422
-0.00414967
-0.00413486
-0.00393237
-0.00354527
-0.00297713
-0.00223201
-0.00131451
-0.000229732
0.0010167
0.00241864
0.00396946
0.00566197
0.0074885
0.00944084
0.0115103
0.0136877
0.0159632
0.0183269
0.020768
0.0232756
0.0258381
0.0284436
0.0310801
0.0337349
0.0363953
0.039048
0.04168
0.0442779
0.0468282
0.0493176
0.0517327
0.0540603
0.0562873
0.0584013
0.0603899
0.0622413
0.0639443
0.0654884
0.0668638
0.0680615
0.0690734
0.0698923
0.0705122
0.0709281
0.0711361
0.0711333
0.0709181
0.0704899
0.0698494
0.0689981
0.0679386
0.0666743
0.0652093
0.0635483
0.0616966
0.0596595
0.0574426
0.0550495
0.0524839
0.0497687
0.0469232
0.0436837
0.039827
0.0274888
0.0232073
0.0196604
0.0165967
0.0137151
0.0110312
0.00856467
0.00631274
0.00427263
0.00244336
0.000823996
-0.000586501
-0.0017893
-0.00278573
-0.00357737
-0.00416607
-0.00455401
-0.0047437
-0.00473805
-0.00454035
-0.00415431
-0.00358404
-0.00283411
-0.00190952
-0.000815725
0.000441362
0.00185537
0.00341948
0.00512639
0.00696833
0.00893704
0.0110238
0.0132194
0.0155143
0.0178982
0.0203607
0.0228907
0.0254769
0.0281074
0.0307701
0.0334524
0.0361417
0.0388247
0.0414882
0.0441189
0.0467031
0.0492275
0.0516784
0.0540425
0.0563065
0.0584575
0.0604829
0.0623706
0.0641089
0.0656868
0.067094
0.068321
0.069359
0.0702002
0.0708379
0.0712663
0.0714808
0.0714777
0.0712545
0.07081
0.0701437
0.0692565
0.0681499
0.0668265
0.0652896
0.0635431
0.0615914
0.0594394
0.0570919
0.0545521
0.0518234
0.04893
0.0458922
0.0424282
0.0382997
0.0284339
0.0238866
0.0201229
0.0168762
0.0138267
0.0109908
0.00838906
0.00601785
0.00387348
0.00195404
0.000257633
-0.00121781
-0.00247448
-0.00351472
-0.00434109
-0.00495638
-0.00536363
-0.00556619
-0.00556771
-0.00537219
-0.00498393
-0.00440761
-0.00364828
-0.00271135
-0.00160265
-0.000328385
0.00110482
0.00268995
0.00441955
0.00628574
0.00828019
0.0103941
0.0126183
0.0149432
0.0173585
0.0198538
0.0224181
0.02504
0.0277078
0.0304092
0.0331318
0.0358628
0.0385889
0.0412969
0.0439733
0.0466044
0.0491765
0.0516759
0.0540889
0.056402
0.0586018
0.0606756
0.0626105
0.0643946
0.0660163
0.0674647
0.0687296
0.0698018
0.0706726
0.0713345
0.0717811
0.0720069
0.0720075
0.0717796
0.0713209
0.0706303
0.0697077
0.0685538
0.0671706
0.0655605
0.0637266
0.061673
0.0594037
0.0569233
0.0542347
0.0513409
0.0482678
0.0450371
0.0413485
0.0369492
0.0291335
0.0243231
0.0203442
0.0169155
0.0136986
0.0107109
0.00797365
0.00548267
0.00323341
0.00122316
-0.000550873
-0.00209168
-0.00340238
-0.00448627
-0.00534681
-0.00598767
-0.00641273
-0.00662612
-0.00663222
-0.00643567
-0.0060414
-0.00545462
-0.00468088
-0.003726
-0.00259617
-0.00129793
0.000161851
0.00177593
0.00353668
0.00543609
0.00746574
0.00961677
0.0118799
0.0142455
0.0167034
0.019243
0.0218534
0.0245231
0.0272405
0.0299932
0.0327688
0.0355543
0.0383366
0.0411021
0.0438372
0.0465282
0.0491609
0.0517216
0.0541961
0.0565707
0.0588316
0.0609654
0.0629591
0.0648
0.0664759
0.0679755
0.0692878
0.0704027
0.0713111
0.0720046
0.0724759
0.0727187
0.0727278
0.0724991
0.0720295
0.0713169
0.0703605
0.0691604
0.0677175
0.0660337
0.0641116
0.0619546
0.0595664
0.0569513
0.0541121
0.0510516
0.0477972
0.0443723
0.0404585
0.0357881
0.0295717
0.0245001
0.0203074
0.0166974
0.0133137
0.0101743
0.00730163
0.00469081
0.00233659
0.000235484
-0.00161608
-0.00322196
-0.00458615
-0.00571279
-0.00660623
-0.00727096
-0.00771165
-0.00793319
-0.00794064
-0.00773931
-0.00733471
-0.0067326
-0.005939
-0.00496016
-0.00380266
-0.00247334
-0.000979358
0.000671818
0.00247238
0.00441414
0.00648858
0.00868673
0.0109993
0.0134164
0.015928
0.0185235
0.0211918
0.0239215
0.0267008
0.0295175
0.0323588
0.0352119
0.0380633
0.0408994
0.0437065
0.0464704
0.049177
0.051812
0.054361
0.0568098
0.0591442
0.0613504
0.0634147
0.0653239
0.0670652
0.0686264
0.069996
0.0711632
0.0721179
0.0728511
0.0733544
0.0736209
0.0736443
0.0734198
0.0729433
0.0722122
0.0712246
0.0699799
0.0684784
0.0667214
0.064711
0.0624499
0.0599418
0.0571907
0.0541992
0.0509702
0.0475329
0.0439123
0.0397716
0.0348285
0.0297335
0.0244015
0.0199957
0.016205
0.0126547
0.00936407
0.00635623
0.00362588
0.00116704
-0.00102444
-0.00295287
-0.00462291
-0.00603937
-0.00720722
-0.00813161
-0.00881784
-0.00927135
-0.00949773
-0.00950274
-0.00929232
-0.00887256
-0.00824977
-0.00743042
-0.00642124
-0.00522915
-0.00386133
-0.00232523
-0.000628561
0.00122067
0.00321411
0.00534308
0.00759851
0.00997098
0.0124506
0.0150272
0.0176901
0.0204283
0.0232302
0.0260839
0.0289771
0.0318971
0.0348307
0.0377644
0.0406845
0.0435768
0.0464271
0.0492209
0.0519435
0.0545803
0.0571164
0.0595373
0.0618286
0.0639759
0.0659654
0.0677838
0.0694179
0.0708556
0.0720852
0.0730959
0.0738775
0.0744211
0.0747187
0.0747632
0.0745488
0.0740707
0.0733252
0.0723099
0.0710234
0.0694653
0.0676363
0.0655379
0.0631728
0.0605442
0.057656
0.0545108
0.0511118
0.0474896
0.043671
0.0393012
0.0340824
0.0296035
0.0240113
0.0193925
0.0154213
0.0117048
0.0082632
0.00512065
0.0022713
-0.000291432
-0.00257235
-0.00457646
-0.00630918
-0.0077761
-0.00898299
-0.00993578
-0.0106405
-0.0111034
-0.0113307
-0.0113289
-0.0111045
-0.0106643
-0.010015
-0.00916358
-0.00811723
-0.00688327
-0.0054692
-0.00388277
-0.00213195
-0.000224954
0.00182968
0.00402311
0.00634614
0.00878923
0.0113424
0.0139954
0.0167375
0.0195575
0.0224438
0.0253844
0.028367
0.0313785
0.0344059
0.0374353
0.0404527
0.0434439
0.0463943
0.0492889
0.0521128
0.0548509
0.0574879
0.0600086
0.0623981
0.0646415
0.0667241
0.0686318
0.0703508
0.0718681
0.0731711
0.074248
0.075088
0.0756811
0.0760182
0.0760914
0.075894
0.0754203
0.0746658
0.0736272
0.0723024
0.0706904
0.0687913
0.0666064
0.0641377
0.0613884
0.0583624
0.0550622
0.0514912
0.0476819
0.0436629
0.0390606
0.0335622
0.0291665
0.0233134
0.0184812
0.0143295
0.0104469
0.00685459
0.00357785
0.000610294
-0.00205529
-0.00442432
-0.00650247
-0.00829588
-0.00981091
-0.0110541
-0.0120321
-0.0127517
-0.01322
-0.0134437
-0.0134302
-0.0131865
-0.0127198
-0.0120377
-0.0111475
-0.0100567
-0.00877323
-0.00730481
-0.00565952
-0.00384559
-0.00187148
0.000254089
0.0025221
0.00492321
0.00744776
0.0100857
0.0128266
0.0156596
0.0185735
0.0215567
0.0245969
0.0276817
0.030798
0.0339323
0.0370709
0.0401994
0.0433033
0.0463675
0.049377
0.0523163
0.0551696
0.0579215
0.060556
0.0630575
0.0654104
0.0675995
0.0696096
0.0714262
0.0730354
0.0744236
0.0755781
0.0764872
0.0771397
0.0775257
0.0776364
0.0774638
0.0770016
0.0762442
0.0751877
0.0738291
0.0721667
0.0702003
0.0679306
0.0653593
0.0624896
0.0593252
0.0558689
0.052124
0.0481251
0.0439025
0.0390636
0.0332803
0.0284067
0.0222913
0.017245
0.0129123
0.00886354
0.00512084
0.00171052
-0.00137428
-0.0041414
-0.00659684
-0.00874696
-0.0105986
-0.0121588
-0.013435
-0.0144345
-0.0151648
-0.0156338
-0.0158489
-0.0158181
-0.0155491
-0.0150498
-0.014328
-0.0133917
-0.0122489
-0.0109078
-0.00937651
-0.00766348
-0.00577719
-0.00372634
-0.00151986
0.000833068
0.00332295
0.00593997
0.00867396
0.0115144
0.0144503
0.0174704
0.0205629
0.0237155
0.0269156
0.0301499
0.0334048
0.0366663
0.0399197
0.0431503
0.0463427
0.0494814
0.0525503
0.0555335
0.0584146
0.0611773
0.0638052
0.0662819
0.0685914
0.0707177
0.0726455
0.0743596
0.0758458
0.0770902
0.07808
0.078803
0.0792484
0.0794061
0.0792673
0.0788246
0.0780716
0.0770033
0.0756162
0.073908
0.0718777
0.0695256
0.0668534
0.0638638
0.0605608
0.056947
0.0530262
0.0488348
0.044405
0.0393248
0.03325
0.0273083
0.0209284
0.0156665
0.0111522
0.00693705
0.00304417
-0.000499056
-0.00369998
-0.00656707
-0.0091069
-0.0113265
-0.0132334
-0.0148354
-0.0161407
-0.0171573
-0.0178937
-0.0183582
-0.0185591
-0.0185049
-0.0182041
-0.0176651
-0.0168963
-0.0159062
-0.0147033
-0.013296
-0.0116931
-0.00990311
-0.00793489
-0.00579738
-0.00349973
-0.00105131
0.00153821
0.00425891
0.00710047
0.0100523
0.0131032
0.0162419
0.0194564
0.0227343
0.0260629
0.0294286
0.0328178
0.0362161
0.0396086
0.0429803
0.0463154
0.0495979
0.0528114
0.0559392
0.0589646
0.0618704
0.0646396
0.0672551
0.0696997
0.0719569
0.0740102
0.0758434
0.0774412
0.0787887
0.0798719
0.0806776
0.0811938
0.0814093
0.0813142
0.0809001
0.0801596
0.0790869
0.0776776
0.0759287
0.0738386
0.0714073
0.0686361
0.0655276
0.0620859
0.0583135
0.0542146
0.0498276
0.0451866
0.0398594
0.0334855
0.0258544
0.0192073
0.0137281
0.00903114
0.00464921
0.000606299
-0.00306912
-0.00638491
-0.00935014
-0.011972
-0.0142582
-0.016217
-0.0178569
-0.0191869
-0.0202158
-0.0209528
-0.021407
-0.0215874
-0.0215032
-0.0211635
-0.0205774
-0.0197537
-0.0187016
-0.01743
-0.0159477
-0.0142638
-0.0123872
-0.0103272
-0.00809276
-0.00569342
-0.00313869
-0.000438392
0.00239738
0.0053582
0.00843332
0.0116116
0.0148814
0.0182307
0.0216471
0.0251174
0.0286283
0.0321657
0.0357149
0.039261
0.0427883
0.046281
0.0497224
0.0530957
0.0563837
0.0595688
0.0626334
0.0655595
0.0683292
0.0709247
0.0733282
0.0755221
0.0774894
0.0792135
0.0806784
0.0818688
0.0827704
0.0833699
0.0836551
0.0836148
0.0832395
0.0825208
0.0814519
0.0800275
0.078244
0.0760992
0.0735925
0.0707248
0.0674988
0.0639185
0.0599865
0.0557072
0.0511211
0.0462641
0.0406835
0.0340019
0.0240278
0.0171101
0.0114114
0.00653049
0.00198117
-0.00221169
-0.00601854
-0.00944776
-0.0125091
-0.0152103
-0.0175598
-0.0195666
-0.02124
-0.0225898
-0.0236255
-0.0243572
-0.0247946
-0.0249477
-0.0248263
-0.02444
-0.0237987
-0.0229118
-0.0217889
-0.0204394
-0.0188726
-0.0170981
-0.015125
-0.0129628
-0.0106209
-0.00810906
-0.00543692
-0.0026145
0.000347966
0.00343994
0.00665054
0.0099685
0.0133821
0.0168793
0.0204473
0.0240731
0.027743
0.0314426
0.0351572
0.0388715
0.0425695
0.0462349
0.0498507
0.0533995
0.0568635
0.0602245
0.063464
0.0665634
0.0695038
0.0722664
0.0748325
0.0771833
0.0793007
0.0811668
0.0827644
0.084077
0.0850889
0.0857856
0.0861534
0.0861802
0.085855
0.0851684
0.0841127
0.0826815
0.0808704
0.0786765
0.0760988
0.0731379
0.0697961
0.0660775
0.0619849
0.0575228
0.0527338
0.0476558
0.0418147
0.0348155
0.0218105
0.0146181
0.00869715
0.00363084
-0.00108664
-0.0054294
-0.00936687
-0.012908
-0.016063
-0.0188406
-0.0212497
-0.0233002
-0.0250022
-0.0263662
-0.0274027
-0.0281225
-0.0285361
-0.0286544
-0.0284877
-0.0280466
-0.0273414
-0.0263822
-0.0251792
-0.0237422
-0.0220812
-0.0202058
-0.0181257
-0.0158507
-0.0133905
-0.010755
-0.00795406
-0.00499789
-0.00189687
0.00133835
0.00469678
0.00816705
0.0117374
0.0153955
0.0191287
0.0229236
0.0267664
0.0306427
0.0345373
0.0384347
0.0423187
0.0461724
0.0499784
0.0537189
0.0573753
0.0609289
0.0643603
0.06765
0.0707782
0.0737252
0.076471
0.0789959
0.0812804
0.0833054
0.0850523
0.0865032
0.087641
0.0884498
0.0889147
0.089022
0.0887595
0.0881167
0.0870845
0.0856558
0.083825
0.0815888
0.0789453
0.0758948
0.0724395
0.0685833
0.0643291
0.0596817
0.0546858
0.0493813
0.0432717
0.0359442
0.0191836
0.0117117
0.00556549
0.000311932
-0.00457461
-0.00906731
-0.0131345
-0.0167857
-0.020032
-0.0228825
-0.0253472
-0.0274365
-0.0291615
-0.0305336
-0.0315642
-0.0322648
-0.032647
-0.0327222
-0.0325017
-0.0319967
-0.0312183
-0.0301773
-0.0288842
-0.0273496
-0.0255838
-0.0235968
-0.0213989
-0.0190001
-0.0164103
-0.0136396
-0.0106982
-0.00759641
-0.00434474
-0.000953965
0.00256484
0.00620021
0.00994027
0.0137727
0.0176846
0.0216625
0.0256925
0.0297599
0.0338495
0.0379453
0.0420308
0.0460887
0.0501012
0.05405
0.0579158
0.0616792
0.0653199
0.0688177
0.0721518
0.0753013
0.0782451
0.0809623
0.0834321
0.0856339
0.0875478
0.0891544
0.0904351
0.0913724
0.09195
0.0921526
0.0919668
0.0913806
0.0903837
0.0889678
0.0871265
0.0848554
0.0821522
0.0790165
0.0754504
0.0714577
0.0670411
0.0622058
0.0569987
0.0514617
0.0450752
0.0374074
0.0161271
0.00837051
0.00199545
-0.00344742
-0.0085041
-0.0131468
-0.0173428
-0.0211022
-0.0244368
-0.0273566
-0.0298721
-0.0319949
-0.0337369
-0.0351103
-0.0361275
-0.036801
-0.0371432
-0.0371664
-0.0368827
-0.0363042
-0.0354426
-0.0343093
-0.0329156
-0.0312726
-0.029391
-0.0272814
-0.0249543
-0.02242
-0.019689
-0.0167713
-0.0136774
-0.0104179
-0.0070032
-0.00344434
0.00024757
0.00406099
0.00798399
0.0120041
0.0161085
0.0202835
0.0245151
0.0287884
0.033088
0.0373976
0.0417005
0.045979
0.0502147
0.0543888
0.0584815
0.0624725
0.0663409
0.0700653
0.0736241
0.0769951
0.0801561
0.083085
0.0857593
0.0881572
0.0902572
0.0920382
0.0934801
0.0945637
0.095271
0.0955854
0.0954916
0.0949762
0.0940276
0.0926362
0.0907945
0.0884972
0.0857411
0.0825254
0.0788518
0.0747239
0.0701445
0.0651187
0.0596959
0.05392
0.0472472
0.0392262
0.0126201
0.0045729
-0.00203496
-0.0076695
-0.0128975
-0.0176903
-0.0220141
-0.0258795
-0.0292993
-0.0322841
-0.0348454
-0.0369957
-0.0387478
-0.040115
-0.0411107
-0.0417483
-0.0420412
-0.0420027
-0.0416458
-0.0409832
-0.0400275
-0.038791
-0.0372854
-0.0355225
-0.0335135
-0.0312694
-0.0288013
-0.0261197
-0.0232352
-0.0201584
-0.0168997
-0.0134699
-0.00987968
-0.00613996
-0.00226202
0.00174258
0.00586186
0.0100833
0.014394
0.0187804
0.023228
0.0277221
0.032247
0.0367863
0.0413227
0.0458383
0.0503144
0.0547313
0.0590688
0.0633059
0.0674208
0.0713912
0.0751944
0.0788069
0.0822055
0.0853663
0.0882658
0.0908803
0.0931867
0.0951624
0.0967853
0.0980345
0.0988903
0.0993342
0.0993492
0.0989204
0.0980346
0.0966808
0.0948501
0.0925363
0.0897353
0.0864456
0.0826683
0.0784071
0.0736645
0.0684458
0.0628026
0.056781
0.049812
0.041424
0.00864043
0.000296127
-0.00654896
-0.0123778
-0.0177786
-0.0227216
-0.0271719
-0.031141
-0.0346423
-0.0376875
-0.0402889
-0.04246
-0.0442148
-0.0455675
-0.0465326
-0.0471247
-0.0473582
-0.0472473
-0.046806
-0.046048
-0.0449867
-0.043635
-0.0420055
-0.0401105
-0.0379618
-0.035571
-0.0329493
-0.0301078
-0.0270574
-0.0238089
-0.0203728
-0.01676
-0.0129813
-0.00904777
-0.00497067
-0.000761592
0.00356746
0.00800402
0.0125351
0.017147
0.0218254
0.0265554
0.0313211
0.0361058
0.0408922
0.0456619
0.0503957
0.0550735
0.0596744
0.0641766
0.0685576
0.0727941
0.0768621
0.0807372
0.0843946
0.0878091
0.0909555
0.0938086
0.0963433
0.0985353
0.100361
0.101796
0.102821
0.103414
0.103556
0.103231
0.102424
0.101123
0.0993159
0.0969966
0.0941597
0.0908028
0.0869267
0.0825346
0.0776288
0.0722147
0.0663462
0.0600719
0.052796
0.0440259
0.00416485
-0.00448388
-0.0115711
-0.0175971
-0.0231722
-0.0282655
-0.032841
-0.0369111
-0.04049
-0.0435903
-0.0462255
-0.04841
-0.0501591
-0.0514881
-0.0524127
-0.0529487
-0.0531115
-0.0529166
-0.0523789
-0.0515132
-0.0503336
-0.048854
-0.0470877
-0.0450477
-0.0427463
-0.0401957
-0.0374075
-0.0343931
-0.0311638
-0.0277304
-0.0241038
-0.020295
-0.0163148
-0.0121743
-0.00788472
-0.00345773
0.00109473
0.0057602
0.0105257
0.0153776
0.0203016
0.0252826
0.0303047
0.0353511
0.0404041
0.045445
0.0504543
0.0554114
0.0602947
0.0650817
0.069749
0.0742724
0.0786267
0.0827864
0.086725
0.0904161
0.0938325
0.0969474
0.0997339
0.102165
0.104216
0.105861
0.107077
0.10784
0.10813
0.107929
0.107218
0.105985
0.104216
0.101904
0.0990412
0.0956252
0.0916557
0.0871356
0.082067
0.0764553
0.0703567
0.0638221
0.0562281
0.0470599
-0.000831422
-0.00979263
-0.0171274
-0.0233539
-0.0291048
-0.0343485
-0.0390478
-0.0432158
-0.0468678
-0.0500174
-0.0526792
-0.0548689
-0.0566029
-0.057898
-0.0587711
-0.0592392
-0.0593191
-0.0590274
-0.0583802
-0.0573933
-0.0560819
-0.0544607
-0.0525438
-0.0503449
-0.0478771
-0.0451529
-0.0421844
-0.0389836
-0.0355617
-0.0319301
-0.0280997
-0.0240814
-0.0198863
-0.0155254
-0.01101
-0.00635149
-0.00156191
0.00334641
0.00836055
0.0134669
0.0186513
0.0238986
0.0291928
0.0345171
0.0398535
0.0451831
0.050486
0.0557411
0.0609263
0.0660183
0.0709928
0.0758247
0.0804877
0.0849549
0.0891984
0.09319
0.096901
0.100303
0.103366
0.106062
0.108363
0.110242
0.111672
0.112629
0.11309
0.113032
0.112438
0.111291
0.109577
0.107285
0.104409
0.100943
0.0968865
0.0922422
0.0870116
0.0812001
0.0748665
0.0680637
0.0601396
0.0505562
-0.00637462
-0.0156572
-0.0232454
-0.0296759
-0.0356046
-0.0409987