/*--------------------------------*- C++ -*----------------------------------*\
  =========                 |
  \\      /  F ield         | OpenFOAM: The Open Source CFD Toolbox
   \\    /   O peration     | Website:  https://openfoam.org
    \\  /    A nd           | Version:  7
     \\/     M anipulation  |
\*---------------------------------------------------------------------------*/
FoamFile
{
    version     2.0;
    format      ascii;
    class       volVectorField;
    location    "0.325";
    object      U;
}
// * * * * * * * * * * * * * * * * * * * * * * * * * * * * * * * * * * * * * //

dimensions      [0 1 -1 0 0 0 0];

internalField   nonuniform List<vector> 
6400
(
(7.10497e-06 -7.39127e-06 0)
(2.95811e-05 -1.45218e-05 0)
(5.91759e-05 -1.42039e-05 0)
(8.05316e-05 -9.74439e-06 0)
(8.53919e-05 -3.43066e-06 0)
(7.0533e-05 3.54177e-06 0)
(3.48362e-05 1.05609e-05 0)
(-2.16648e-05 1.73092e-05 0)
(-9.82143e-05 2.3625e-05 0)
(-0.000193622 2.94268e-05 0)
(-0.000306444 3.46764e-05 0)
(-0.000435082 3.93591e-05 0)
(-0.000577858 4.34737e-05 0)
(-0.000733052 4.7027e-05 0)
(-0.000898935 5.00308e-05 0)
(-0.00107379 5.25002e-05 0)
(-0.00125594 5.44523e-05 0)
(-0.00144371 5.59057e-05 0)
(-0.00163552 5.688e-05 0)
(-0.00182981 5.73951e-05 0)
(-0.00202508 5.74715e-05 0)
(-0.0022199 5.71297e-05 0)
(-0.0024129 5.63903e-05 0)
(-0.00260276 5.52741e-05 0)
(-0.00278824 5.38012e-05 0)
(-0.00296817 5.19922e-05 0)
(-0.00314142 4.98672e-05 0)
(-0.00330695 4.74464e-05 0)
(-0.00346379 4.47498e-05 0)
(-0.00361101 4.17973e-05 0)
(-0.00374779 3.86089e-05 0)
(-0.00387333 3.52044e-05 0)
(-0.00398695 3.16038e-05 0)
(-0.00408798 2.78272e-05 0)
(-0.00417588 2.38947e-05 0)
(-0.00425014 1.98269e-05 0)
(-0.00431033 1.56444e-05 0)
(-0.0043561 1.13685e-05 0)
(-0.00438717 7.02044e-06 0)
(-0.00440335 2.62206e-06 0)
(-0.00440449 -1.80436e-06 0)
(-0.00439055 -6.23606e-06 0)
(-0.00436155 -1.06498e-05 0)
(-0.00431762 -1.50218e-05 0)
(-0.00425894 -1.93279e-05 0)
(-0.00418578 -2.35435e-05 0)
(-0.0040985 -2.76436e-05 0)
(-0.00399756 -3.16028e-05 0)
(-0.00388349 -3.53953e-05 0)
(-0.0037569 -3.89951e-05 0)
(-0.0036185 -4.23762e-05 0)
(-0.00346909 -4.55122e-05 0)
(-0.00330955 -4.83772e-05 0)
(-0.00314084 -5.09454e-05 0)
(-0.00296403 -5.31911e-05 0)
(-0.00278024 -5.50892e-05 0)
(-0.0025907 -5.66152e-05 0)
(-0.00239669 -5.77454e-05 0)
(-0.00219959 -5.84569e-05 0)
(-0.00200083 -5.87282e-05 0)
(-0.00180191 -5.85388e-05 0)
(-0.0016044 -5.78699e-05 0)
(-0.00140991 -5.6704e-05 0)
(-0.00122009 -5.50254e-05 0)
(-0.00103665 -5.28205e-05 0)
(-0.000861287 -5.00784e-05 0)
(-0.000695746 -4.67909e-05 0)
(-0.000541753 -4.29536e-05 0)
(-0.000401015 -3.85662e-05 0)
(-0.000275196 -3.36343e-05 0)
(-0.00016588 -2.81727e-05 0)
(-7.4528e-05 -2.2211e-05 0)
(-2.40633e-06 -1.58035e-05 0)
(4.95157e-05 -9.04801e-06 0)
(8.07427e-05 -2.12335e-06 0)
(9.15384e-05 4.63715e-06 0)
(8.33494e-05 1.06082e-05 0)
(5.97418e-05 1.45927e-05 0)
(2.92233e-05 1.43473e-05 0)
(6.87073e-06 6.867e-06 0)
(1.43668e-05 -3.00138e-05 0)
(5.13773e-05 -5.16219e-05 0)
(8.96611e-05 -4.41274e-05 0)
(0.000103409 -1.9121e-05 0)
(7.69055e-05 1.52988e-05 0)
(2.30188e-06 5.41105e-05 0)
(-0.000124099 9.42392e-05 0)
(-0.000303211 0.000133799 0)
(-0.000533989 0.000171631 0)
(-0.000814068 0.00020702 0)
(-0.00114021 0.000239529 0)
(-0.0015086 0.000268896 0)
(-0.00191505 0.000294977 0)
(-0.00235518 0.000317706 0)
(-0.00282445 0.000337072 0)
(-0.00331831 0.000353105 0)
(-0.00383222 0.000365859 0)
(-0.0043617 0.000375413 0)
(-0.00490234 0.000381857 0)
(-0.00544988 0.000385296 0)
(-0.00600017 0.00038584 0)
(-0.00654919 0.000383609 0)
(-0.00709311 0.000378723 0)
(-0.00762825 0.000371309 0)
(-0.00815111 0.000361495 0)
(-0.00865835 0.00034941 0)
(-0.00914683 0.000335187 0)
(-0.00961358 0.000318955 0)
(-0.0100558 0.00030085 0)
(-0.010471 0.000281004 0)
(-0.0108567 0.000259553 0)
(-0.0112107 0.000236631 0)
(-0.011531 0.000212376 0)
(-0.0118157 0.000186925 0)
(-0.0120634 0.000160418 0)
(-0.0122725 0.000132997 0)
(-0.012442 0.000104803 0)
(-0.0125706 7.59839e-05 0)
(-0.0126578 4.66862e-05 0)
(-0.0127029 1.70607e-05 0)
(-0.0127056 -1.27393e-05 0)
(-0.0126657 -4.2558e-05 0)
(-0.0125834 -7.22364e-05 0)
(-0.0124589 -0.000101613 0)
(-0.0122929 -0.000130523 0)
(-0.0120861 -0.000158801 0)
(-0.0118396 -0.000186277 0)
(-0.0115546 -0.00021278 0)
(-0.0112327 -0.00023814 0)
(-0.0108757 -0.000262182 0)
(-0.0104855 -0.000284735 0)
(-0.0100644 -0.000305626 0)
(-0.00961498 -0.000324684 0)
(-0.00913988 -0.00034174 0)
(-0.00864209 -0.00035663 0)
(-0.00812481 -0.000369193 0)
(-0.00759146 -0.000379274 0)
(-0.00704566 -0.000386723 0)
(-0.00649122 -0.000391401 0)
(-0.00593216 -0.000393177 0)
(-0.00537263 -0.000391931 0)
(-0.00481696 -0.000387556 0)
(-0.00426959 -0.000379961 0)
(-0.00373506 -0.000369068 0)
(-0.00321798 -0.000354824 0)
(-0.002723 -0.000337196 0)
(-0.00225477 -0.000316182 0)
(-0.00181785 -0.000291814 0)
(-0.00141671 -0.000264172 0)
(-0.00105558 -0.000233392 0)
(-0.000738416 -0.000199695 0)
(-0.000468666 -0.000163422 0)
(-0.000249129 -0.000125089 0)
(-8.16292e-05 -8.54899e-05 0)
(3.34042e-05 -4.5851e-05 0)
(9.75575e-05 -8.1073e-06 0)
(0.000115211 2.46566e-05 0)
(9.48351e-05 4.74892e-05 0)
(5.26019e-05 5.25513e-05 0)
(1.43469e-05 2.91955e-05 0)
(1.42499e-05 -5.94992e-05 0)
(4.44671e-05 -8.99674e-05 0)
(6.11492e-05 -6.05036e-05 0)
(3.54829e-05 6.70017e-06 0)
(-5.09042e-05 9.62266e-05 0)
(-0.00020823 0.000197423 0)
(-0.000441827 0.00030306 0)
(-0.000753401 0.000408303 0)
(-0.00114192 0.000509933 0)
(-0.00160437 0.000605805 0)
(-0.00213634 0.000694506 0)
(-0.00273245 0.000775121 0)
(-0.00338662 0.00084708 0)
(-0.00409236 0.000910062 0)
(-0.00484291 0.000963921 0)
(-0.00563136 0.00100864 0)
(-0.00645077 0.00104431 0)
(-0.00729423 0.00107108 0)
(-0.00815495 0.00108915 0)
(-0.00902625 0.00109878 0)
(-0.00990165 0.00110025 0)
(-0.0107749 0.00109387 0)
(-0.0116399 0.00107996 0)
(-0.0124908 0.00105886 0)
(-0.0133222 0.00103092 0)
(-0.0141287 0.0009965 0)
(-0.0149054 0.00095597 0)
(-0.0156475 0.000909699 0)
(-0.0163506 0.000858064 0)
(-0.0170106 0.000801445 0)
(-0.0176237 0.000740226 0)
(-0.0181864 0.000674795 0)
(-0.0186954 0.000605546 0)
(-0.0191479 0.000532874 0)
(-0.0195414 0.000457182 0)
(-0.0198735 0.000378877 0)
(-0.0201424 0.000298372 0)
(-0.0203465 0.000216087 0)
(-0.0204845 0.000132448 0)
(-0.0205557 4.78895e-05 0)
(-0.0205593 -3.71481e-05 0)
(-0.0204953 -0.000122216 0)
(-0.0203638 -0.000206859 0)
(-0.0201654 -0.000290612 0)
(-0.0199009 -0.000373007 0)
(-0.0195717 -0.000453566 0)
(-0.0191794 -0.000531808 0)
(-0.0187261 -0.000607247 0)
(-0.0182143 -0.000679396 0)
(-0.0176466 -0.000747764 0)
(-0.0170265 -0.000811864 0)
(-0.0163574 -0.00087121 0)
(-0.0156433 -0.000925321 0)
(-0.0148886 -0.000973725 0)
(-0.0140979 -0.00101596 0)
(-0.0132764 -0.00105158 0)
(-0.0124294 -0.00108016 0)
(-0.0115625 -0.00110129 0)
(-0.010682 -0.00111459 0)
(-0.00979391 -0.0011197 0)
(-0.00890489 -0.00111631 0)
(-0.00802166 -0.00110415 0)
(-0.00715112 -0.00108297 0)
(-0.00630032 -0.00105262 0)
(-0.00547638 -0.00101299 0)
(-0.00468645 -0.000964027 0)
(-0.00393758 -0.000905808 0)
(-0.00323672 -0.000838505 0)
(-0.00259054 -0.00076244 0)
(-0.00200528 -0.000678125 0)
(-0.00148666 -0.000586324 0)
(-0.00103956 -0.00048815 0)
(-0.000667755 -0.00038521 0)
(-0.000373489 -0.000279823 0)
(-0.000156938 -0.000175354 0)
(-1.54768e-05 -7.67208e-05 0)
(5.71341e-05 8.88329e-06 0)
(7.19175e-05 7.1033e-05 0)
(4.79624e-05 9.49001e-05 0)
(1.46744e-05 5.9778e-05 0)
(1.00353e-05 -8.12088e-05 0)
(2.03489e-05 -0.000104408 0)
(-4.36522e-06 -3.51786e-05 0)
(-9.08718e-05 9.36427e-05 0)
(-0.000257316 0.000259289 0)
(-0.000514643 0.000445213 0)
(-0.000868764 0.000639554 0)
(-0.00132163 0.000833957 0)
(-0.00187209 0.00102257 0)
(-0.00251661 0.00120132 0)
(-0.00324991 0.00136739 0)
(-0.00406538 0.00151888 0)
(-0.0049555 0.00165452 0)
(-0.00591209 0.00177356 0)
(-0.00692656 0.00187558 0)
(-0.00799006 0.00196042 0)
(-0.00909363 0.00202816 0)
(-0.0102283 0.00207899 0)
(-0.0113852 0.00211325 0)
(-0.0125556 0.00213136 0)
(-0.0137309 0.00213382 0)
(-0.0149028 0.00212117 0)
(-0.0160634 0.00209403 0)
(-0.0172049 0.002053 0)
(-0.0183199 0.00199876 0)
(-0.0194015 0.00193198 0)
(-0.0204429 0.00185336 0)
(-0.0214378 0.00176361 0)
(-0.0223804 0.00166345 0)
(-0.0232651 0.00155361 0)
(-0.0240869 0.00143485 0)
(-0.0248409 0.00130791 0)
(-0.025523 0.00117356 0)
(-0.0261293 0.00103256 0)
(-0.0266562 0.000885711 0)
(-0.027101 0.000733795 0)
(-0.0274609 0.000577622 0)
(-0.0277339 0.00041801 0)
(-0.0279183 0.00025579 0)
(-0.028013 9.18086e-05 0)
(-0.0280173 -7.30752e-05 0)
(-0.0279309 -0.000237988 0)
(-0.027754 -0.000402043 0)
(-0.0274874 -0.000564341 0)
(-0.0271325 -0.000723968 0)
(-0.0266908 -0.000880002 0)
(-0.0261647 -0.00103151 0)
(-0.0255569 -0.00117756 0)
(-0.0248707 -0.0013172 0)
(-0.0241099 -0.00144949 0)
(-0.0232789 -0.00157349 0)
(-0.0223823 -0.00168827 0)
(-0.0214256 -0.00179291 0)
(-0.0204144 -0.00188651 0)
(-0.0193552 -0.00196819 0)
(-0.0182545 -0.00203711 0)
(-0.0171196 -0.00209244 0)
(-0.0159581 -0.00213343 0)
(-0.0147778 -0.00215936 0)
(-0.0135872 -0.00216959 0)
(-0.0123948 -0.00216353 0)
(-0.0112095 -0.00214069 0)
(-0.0100403 -0.00210068 0)
(-0.00889649 -0.00204322 0)
(-0.00778734 -0.00196815 0)
(-0.00672208 -0.0018755 0)
(-0.00570986 -0.00176547 0)
(-0.00475953 -0.0016385 0)
(-0.00387959 -0.00149532 0)
(-0.0030779 -0.00133705 0)
(-0.00236156 -0.0011653 0)
(-0.00173653 -0.000982308 0)
(-0.00120735 -0.000791235 0)
(-0.000776605 -0.000596447 0)
(-0.000444436 -0.000404025 0)
(-0.000207783 -0.000222438 0)
(-5.96445e-05 -6.34731e-05 0)
(1.19172e-05 5.66964e-05 0)
(2.60973e-05 0.000116144 0)
(1.09009e-05 8.38165e-05 0)
(4.00947e-06 -8.70304e-05 0)
(-1.3038e-05 -7.95151e-05 0)
(-9.20116e-05 4.99619e-05 0)
(-0.000253984 0.000259653 0)
(-0.000514795 0.000520164 0)
(-0.00088489 0.00080944 0)
(-0.00136985 0.00111109 0)
(-0.00197128 0.00141312 0)
(-0.00268761 0.00170682 0)
(-0.00351472 0.00198591 0)
(-0.00444653 0.0022459 0)
(-0.00547542 0.00248365 0)
(-0.00659264 0.002697 0)
(-0.00778864 0.00288457 0)
(-0.00905329 0.00304554 0)
(-0.0103761 0.00317952 0)
(-0.0117464 0.00328649 0)
(-0.0131535 0.00336667 0)
(-0.0145867 0.0034205 0)
(-0.0160354 0.00344858 0)
(-0.0174893 0.00345163 0)
(-0.0189383 0.00343049 0)
(-0.0203727 0.00338608 0)
(-0.021783 0.00331936 0)
(-0.0231603 0.00323137 0)
(-0.024496 0.00312317 0)
(-0.0257818 0.00299588 0)
(-0.02701 0.00285063 0)
(-0.0281735 0.00268857 0)
(-0.0292653 0.00251088 0)
(-0.0302793 0.00231877 0)
(-0.0312096 0.00211344 0)
(-0.032051 0.00189614 0)
(-0.0327987 0.0016681 0)
(-0.0334486 0.00143061 0)
(-0.0339968 0.00118494 0)
(-0.0344404 0.000932411 0)
(-0.0347767 0.000674347 0)
(-0.0350036 0.000412096 0)
(-0.0351199 0.000147029 0)
(-0.0351245 -0.000119461 0)
(-0.0350172 -0.000385959 0)
(-0.0347985 -0.00065103 0)
(-0.0344691 -0.000913218 0)
(-0.0340307 -0.00117105 0)
(-0.0334854 -0.00142304 0)
(-0.032836 -0.00166768 0)
(-0.0320859 -0.00190346 0)
(-0.0312392 -0.00212887 0)
(-0.0303006 -0.00234239 0)
(-0.0292753 -0.00254252 0)
(-0.0281692 -0.00272776 0)
(-0.026989 -0.00289665 0)
(-0.0257415 -0.00304775 0)
(-0.0244346 -0.00317967 0)
(-0.0230765 -0.00329106 0)
(-0.0216759 -0.00338064 0)
(-0.020242 -0.0034472 0)
(-0.0187846 -0.00348965 0)
(-0.0173137 -0.00350696 0)
(-0.0158398 -0.00349826 0)
(-0.0143736 -0.0034628 0)
(-0.0129261 -0.00340003 0)
(-0.0115084 -0.00330955 0)
(-0.0101316 -0.00319122 0)
(-0.00880673 -0.00304515 0)
(-0.00754474 -0.00287179 0)
(-0.0063561 -0.00267195 0)
(-0.00525082 -0.00244696 0)
(-0.00423813 -0.00219871 0)
(-0.00332627 -0.00192988 0)
(-0.00252215 -0.00164416 0)
(-0.00183099 -0.00134652 0)
(-0.00125588 -0.00104366 0)
(-0.000797223 -0.000744636 0)
(-0.000452161 -0.000461583 0)
(-0.000213844 -0.000210809 0)
(-7.06253e-05 -1.3917e-05 0)
(-5.24513e-06 0.000100674 0)
(5.25783e-06 9.30993e-05 0)
(-2.67087e-06 -7.37367e-05 0)
(-5.09385e-05 -7.34638e-06 0)
(-0.000191881 0.000205448 0)
(-0.000438723 0.000516272 0)
(-0.000803572 0.000890193 0)
(-0.00129543 0.00130029 0)
(-0.00191878 0.001726 0)
(-0.00267436 0.00215181 0)
(-0.00355981 0.00256613 0)
(-0.00457026 0.00296038 0)
(-0.00569876 0.00332822 0)
(-0.00693675 0.00366513 0)
(-0.00827438 0.00396789 0)
(-0.0097009 0.00423435 0)
(-0.0112049 0.00446319 0)
(-0.0127744 0.0046537 0)
(-0.0143973 0.00480569 0)
(-0.0160614 0.00491936 0)
(-0.0177543 0.00499523 0)
(-0.0194641 0.00503407 0)
(-0.0211786 0.00503684 0)
(-0.0228864 0.00500469 0)
(-0.0245761 0.00493887 0)
(-0.0262368 0.00484075 0)
(-0.027858 0.00471179 0)
(-0.0294298 0.00455352 0)
(-0.0309425 0.0043675 0)
(-0.0323871 0.00415538 0)
(-0.0337553 0.00391881 0)
(-0.0350391 0.00365952 0)
(-0.0362311 0.00337922 0)
(-0.0373246 0.0030797 0)
(-0.0383134 0.00276274 0)
(-0.039192 0.00243018 0)
(-0.0399554 0.00208385 0)
(-0.0405993 0.00172564 0)
(-0.0411201 0.00135747 0)
(-0.0415148 0.000981262 0)
(-0.041781 0.000598995 0)
(-0.0419171 0.000212667 0)
(-0.041922 -0.000175689 0)
(-0.0417955 -0.000564011 0)
(-0.0415379 -0.000950207 0)
(-0.0411505 -0.00133216 0)
(-0.0406349 -0.00170772 0)
(-0.0399938 -0.00207472 0)
(-0.0392305 -0.002431 0)
(-0.0383489 -0.00277434 0)
(-0.0373538 -0.00310256 0)
(-0.0362507 -0.00341348 0)
(-0.0350457 -0.0037049 0)
(-0.0337458 -0.00397468 0)
(-0.0323585 -0.00422071 0)
(-0.0308921 -0.00444092 0)
(-0.0293556 -0.00463331 0)
(-0.0277585 -0.00479595 0)
(-0.026111 -0.00492703 0)
(-0.0244238 -0.00502483 0)
(-0.0227082 -0.00508779 0)
(-0.0209758 -0.0051145 0)
(-0.0192386 -0.00510374 0)
(-0.0175092 -0.00505451 0)
(-0.0158 -0.00496605 0)
(-0.0141239 -0.0048379 0)
(-0.0124935 -0.00466996 0)
(-0.0109216 -0.00446248 0)
(-0.00942047 -0.00421624 0)
(-0.00800209 -0.00393255 0)
(-0.00667776 -0.00361343 0)
(-0.00545792 -0.00326174 0)
(-0.00435184 -0.0028814 0)
(-0.00336735 -0.00247768 0)
(-0.00251045 -0.00205757 0)
(-0.0017849 -0.00163025 0)
(-0.00119176 -0.00120775 0)
(-0.000728913 -0.000805806 0)
(-0.000390426 -0.000444927 0)
(-0.000165867 -0.000151569 0)
(-4.1332e-05 4.03387e-05 0)
(-1.09854e-06 8.4274e-05 0)
(-9.44627e-06 -4.00788e-05 0)
(-9.05897e-05 0.000116283 0)
(-0.000297582 0.000437531 0)
(-0.000634794 0.000870805 0)
(-0.00110973 0.00137684 0)
(-0.00172926 0.00192465 0)
(-0.00249619 0.00248998 0)
(-0.00340986 0.0030541 0)
(-0.00446683 0.00360267 0)
(-0.00566122 0.00412479 0)
(-0.00698512 0.0046123 0)
(-0.00842897 0.00505916 0)
(-0.00998188 0.00546102 0)
(-0.011632 0.0058149 0)
(-0.0133667 0.00611885 0)
(-0.0151728 0.00637178 0)
(-0.0170368 0.00657328 0)
(-0.0189453 0.00672349 0)
(-0.0208845 0.00682297 0)
(-0.0228409 0.00687266 0)
(-0.0248012 0.00687377 0)
(-0.0267524 0.00682775 0)
(-0.0286818 0.00673625 0)
(-0.0305772 0.00660105 0)
(-0.0324267 0.00642408 0)
(-0.0342192 0.00620738 0)
(-0.0359438 0.00595304 0)
(-0.0375904 0.00566327 0)
(-0.0391495 0.00534031 0)
(-0.040612 0.00498647 0)
(-0.0419698 0.00460409 0)
(-0.0432151 0.00419558 0)
(-0.044341 0.00376338 0)
(-0.0453413 0.00330996 0)
(-0.0462103 0.00283786 0)
(-0.0469432 0.00234962 0)
(-0.0475358 0.00184785 0)
(-0.0479848 0.00133519 0)
(-0.0482875 0.000814332 0)
(-0.048442 0.000287997 0)
(-0.0484473 -0.000241046 0)
(-0.048303 -0.000769991 0)
(-0.0480095 -0.00129599 0)
(-0.0475682 -0.00181616 0)
(-0.0469812 -0.0023276 0)
(-0.0462512 -0.00282736 0)
(-0.0453821 -0.00331248 0)
(-0.0443784 -0.00377999 0)
(-0.0432455 -0.00422693 0)
(-0.0419895 -0.00465033 0)
(-0.0406175 -0.00504725 0)
(-0.0391371 -0.00541479 0)
(-0.0375571 -0.00575011 0)
(-0.0358866 -0.00605042 0)
(-0.0341359 -0.00631304 0)
(-0.0323156 -0.00653541 0)
(-0.0304372 -0.00671508 0)
(-0.0285127 -0.00684979 0)
(-0.0265547 -0.00693747 0)
(-0.0245764 -0.00697627 0)
(-0.0225911 -0.00696461 0)
(-0.0206129 -0.0069012 0)
(-0.0186556 -0.00678512 0)
(-0.0167336 -0.00661585 0)
(-0.014861 -0.00639332 0)
(-0.0130519 -0.00611804 0)
(-0.0113199 -0.00579114 0)
(-0.00967834 -0.00541452 0)
(-0.00813967 -0.00499102 0)
(-0.00671544 -0.00452454 0)
(-0.00541597 -0.00402038 0)
(-0.00425003 -0.00348549 0)
(-0.00322454 -0.00292892 0)
(-0.00234416 -0.00236231 0)
(-0.00161097 -0.00180061 0)
(-0.00102408 -0.00126289 0)
(-0.000579062 -0.00077342 0)
(-0.000267381 -0.000362778 0)
(-7.93662e-05 -6.92744e-05 0)
(-7.59374e-06 5.59693e-05 0)
(-1.60542e-05 1.42032e-05 0)
(-0.000130427 0.0002932 0)
(-0.00040514 0.000749479 0)
(-0.00083544 0.00132743 0)
(-0.0014238 0.00198461 0)
(-0.00217448 0.0026868 0)
(-0.00308817 0.00340661 0)
(-0.00416245 0.00412248 0)
(-0.00539245 0.00481754 0)
(-0.00677106 0.00547872 0)
(-0.00828926 0.00609603 0)
(-0.00993642 0.00666196 0)
(-0.0117006 0.00717098 0)
(-0.0135688 0.0076192 0)
(-0.0155274 0.00800404 0)
(-0.0175619 0.00832395 0)
(-0.0196579 0.00857828 0)
(-0.0218005 0.00876705 0)
(-0.0239747 0.00889088 0)
(-0.026166 0.00895085 0)
(-0.0283596 0.00894841 0)
(-0.0305414 0.00888535 0)
(-0.0326974 0.0087637 0)
(-0.0348142 0.00858572 0)
(-0.0368789 0.00835383 0)
(-0.0388791 0.00807061 0)
(-0.0408028 0.00773876 0)
(-0.042639 0.00736108 0)
(-0.0443771 0.00694046 0)
(-0.0460073 0.00647987 0)
(-0.0475203 0.00598234 0)
(-0.0489078 0.00545098 0)
(-0.050162 0.00488895 0)
(-0.0512761 0.00429944 0)
(-0.0522439 0.00368575 0)
(-0.05306 0.00305117 0)
(-0.0537198 0.0023991 0)
(-0.0542196 0.00173297 0)
(-0.0545566 0.00105625 0)
(-0.0547286 0.000372477 0)
(-0.0547344 -0.000314749 0)
(-0.0545736 -0.00100179 0)
(-0.0542469 -0.00168497 0)
(-0.0537556 -0.00236054 0)
(-0.053102 -0.00302473 0)
(-0.0522893 -0.00367376 0)
(-0.0513217 -0.00430378 0)
(-0.0502041 -0.00491098 0)
(-0.0489426 -0.0054915 0)
(-0.0475438 -0.00604155 0)
(-0.0460156 -0.00655733 0)
(-0.0443665 -0.00703511 0)
(-0.0426059 -0.00747123 0)
(-0.0407441 -0.00786213 0)
(-0.0387922 -0.00820438 0)
(-0.036762 -0.00849469 0)
(-0.0346661 -0.00872997 0)
(-0.0325177 -0.00890734 0)
(-0.0303307 -0.00902417 0)
(-0.0281193 -0.00907815 0)
(-0.0258984 -0.00906732 0)
(-0.023683 -0.00899009 0)
(-0.0214887 -0.00884537 0)
(-0.0193309 -0.00863258 0)
(-0.017225 -0.00835176 0)
(-0.0151864 -0.00800366 0)
(-0.01323 -0.00758984 0)
(-0.0113703 -0.00711286 0)
(-0.00962083 -0.00657639 0)
(-0.00799428 -0.00598549 0)
(-0.00650201 -0.00534686 0)
(-0.00515386 -0.00466916 0)
(-0.00395781 -0.00396347 0)
(-0.00291968 -0.00324382 0)
(-0.00204287 -0.00252786 0)
(-0.00132812 -0.00183767 0)
(-0.000772921 -0.00120076 0)
(-0.000371126 -0.000651067 0)
(-0.00011774 -0.000230196 0)
(-1.39511e-05 7.8286e-06 0)
(-2.23846e-05 8.88135e-05 0)
(-0.000169602 0.000523697 0)
(-0.000512166 0.00114245 0)
(-0.00103636 0.00188803 0)
(-0.0017395 0.00271581 0)
(-0.00262296 0.00358909 0)
(-0.00368502 0.00447795 0)
(-0.00492119 0.0053584 0)
(-0.00632491 0.00621132 0)
(-0.00788764 0.00702166 0)
(-0.00959908 0.00777772 0)
(-0.0114474 0.00847056 0)
(-0.0134196 0.0090935 0)
(-0.0155016 0.00964176 0)
(-0.0176785 0.0101121 0)
(-0.0199351 0.0105024 0)
(-0.0222555 0.0108119 0)
(-0.0246238 0.0110404 0)
(-0.027024 0.0111885 0)
(-0.0294403 0.0112576 0)
(-0.031857 0.0112493 0)
(-0.0342587 0.0111656 0)
(-0.0366304 0.0110092 0)
(-0.0389576 0.0107826 0)
(-0.0412263 0.010489 0)
(-0.0434231 0.0101313 0)
(-0.0455353 0.00971306 0)
(-0.0475506 0.00923763 0)
(-0.0494577 0.0087086 0)
(-0.0512459 0.00812968 0)
(-0.0529052 0.00750464 0)
(-0.0544266 0.00683735 0)
(-0.0558017 0.00613174 0)
(-0.0570229 0.00539184 0)
(-0.0580837 0.00462172 0)
(-0.0589781 0.00382555 0)
(-0.0597013 0.00300755 0)
(-0.0602491 0.002172 0)
(-0.0606185 0.00132327 0)
(-0.0608072 0.000465777 0)
(-0.0608138 -0.000395983 0)
(-0.060638 -0.00125746 0)
(-0.0602804 -0.00211405 0)
(-0.0597425 -0.00296109 0)
(-0.0590269 -0.00379387 0)
(-0.0581369 -0.00460765 0)
(-0.0570771 -0.00539766 0)
(-0.0558529 -0.00615913 0)
(-0.0544707 -0.00688727 0)
(-0.052938 -0.00757736 0)
(-0.051263 -0.00822467 0)
(-0.049455 -0.00882457 0)
(-0.0475243 -0.00937254 0)
(-0.045482 -0.00986415 0)
(-0.04334 -0.0102952 0)
(-0.0411112 -0.0106615 0)
(-0.0388091 -0.0109594 0)
(-0.0364479 -0.0111853 0)
(-0.0340427 -0.011336 0)
(-0.0316089 -0.0114087 0)
(-0.0291624 -0.0114009 0)
(-0.0267195 -0.0113109 0)
(-0.0242969 -0.0111374 0)
(-0.0219113 -0.0108796 0)
(-0.0195792 -0.0105379 0)
(-0.0173172 -0.0101131 0)
(-0.0151414 -0.00960732 0)
(-0.0130673 -0.0090238 0)
(-0.0111097 -0.0083671 0)
(-0.00928242 -0.00764341 0)
(-0.00759788 -0.00686084 0)
(-0.00606711 -0.00602973 0)
(-0.00469932 -0.00516311 0)
(-0.00350171 -0.00427724 0)
(-0.00247928 -0.00339222 0)
(-0.00163467 -0.00253277 0)
(-0.00096764 -0.00172911 0)
(-0.000474658 -0.00101784 0)
(-0.00015557 -0.000442888 0)
(-2.00501e-05 -5.99225e-05 0)
(-2.84038e-05 0.000183178 0)
(-0.000207687 0.000807153 0)
(-0.000617298 0.00161625 0)
(-0.00123495 0.00255291 0)
(-0.00205283 0.00357113 0)
(-0.00306937 0.0046324 0)
(-0.00428018 0.00570482 0)
(-0.00567854 0.00676237 0)
(-0.00725597 0.00778401 0)
(-0.00900233 0.00875292 0)
(-0.0109059 0.00965585 0)
(-0.0129535 0.0104825 0)
(-0.015131 0.0112252 0)
(-0.0174232 0.0118782 0)
(-0.0198142 0.0124376 0)
(-0.0222874 0.0129009 0)
(-0.0248262 0.013267 0)
(-0.0274135 0.0135357 0)
(-0.0300323 0.0137075 0)
(-0.0326656 0.0137839 0)
(-0.0352969 0.0137668 0)
(-0.0379097 0.0136588 0)
(-0.040488 0.0134627 0)
(-0.0430164 0.0131817 0)
(-0.0454798 0.0128194 0)
(-0.0478641 0.0123796 0)
(-0.0501555 0.0118662 0)
(-0.0523411 0.0112835 0)
(-0.0544087 0.0106358 0)
(-0.0563469 0.00992744 0)
(-0.058145 0.00916311 0)
(-0.0597933 0.00834747 0)
(-0.0612829 0.0074853 0)
(-0.0626057 0.00658147 0)
(-0.0637546 0.00564095 0)
(-0.0647234 0.0046688 0)
(-0.0655067 0.00367014 0)
(-0.0661003 0.00265021 0)
(-0.0665007 0.00161429 0)
(-0.0667055 0.000567769 0)
(-0.0667134 -0.000483894 0)
(-0.0665239 -0.00153517 0)
(-0.0661377 -0.00258045 0)
(-0.0655563 -0.00361409 0)
(-0.0647826 -0.00463037 0)
(-0.0638201 -0.00562353 0)
(-0.0626737 -0.00658779 0)
(-0.0613492 -0.00751736 0)
(-0.0598534 -0.00840646 0)
(-0.0581942 -0.00924935 0)
(-0.0563805 -0.0100403 0)
(-0.0544222 -0.0107738 0)
(-0.0523303 -0.0114443 0)
(-0.0501166 -0.0120465 0)
(-0.0477939 -0.0125752 0)
(-0.0453758 -0.0130257 0)
(-0.0428768 -0.0133933 0)
(-0.0403122 -0.0136737 0)
(-0.0376978 -0.0138633 0)
(-0.0350502 -0.0139585 0)
(-0.0323863 -0.0139567 0)
(-0.0297236 -0.0138556 0)
(-0.0270797 -0.0136537 0)
(-0.0244725 -0.0133504 0)
(-0.0219197 -0.0129459 0)
(-0.0194389 -0.0124415 0)
(-0.0170474 -0.0118398 0)
(-0.0147619 -0.0111445 0)
(-0.0125983 -0.0103613 0)
(-0.0105715 -0.00949737 0)
(-0.00869519 -0.00856219 0)
(-0.00698169 -0.00756773 0)
(-0.00544163 -0.00652885 0)
(-0.00408375 -0.00546384 0)
(-0.00291486 -0.00439497 0)
(-0.00193974 -0.00334922 0)
(-0.00116056 -0.00235907 0)
(-0.000576579 -0.00146311 0)
(-0.000192408 -0.000706876 0)
(-2.58509e-05 -0.000146762 0)
(-3.41152e-05 0.000296605 0)
(-0.000244504 0.00114244 0)
(-0.00071983 0.00216983 0)
(-0.00142971 0.00332131 0)
(-0.00236141 0.00455014 0)
(-0.00351034 0.00581654 0)
(-0.00486943 0.0070871 0)
(-0.00642953 0.00833418 0)
(-0.00818013 0.00953511 0)
(-0.0101093 0.0106716 0)
(-0.0122037 0.011729 0)
(-0.014449 0.0126958 0)
(-0.0168295 0.0135632 0)
(-0.019329 0.0143249 0)
(-0.0219303 0.0149763 0)
(-0.0246161 0.0155145 0)
(-0.0273683 0.015938 0)
(-0.0301691 0.0162465 0)
(-0.0330004 0.0164408 0)
(-0.0358443 0.0165223 0)
(-0.0386832 0.0164933 0)
(-0.0414998 0.0163567 0)
(-0.0442772 0.0161159 0)
(-0.0469991 0.0157745 0)
(-0.0496496 0.0153367 0)
(-0.0522136 0.014807 0)
(-0.0546767 0.0141901 0)
(-0.0570252 0.0134909 0)
(-0.0592462 0.0127144 0)
(-0.0613276 0.011866 0)
(-0.0632582 0.0109511 0)
(-0.0650276 0.00997528 0)
(-0.0666264 0.00894417 0)
(-0.0680461 0.00786357 0)
(-0.0692791 0.0067394 0)
(-0.0703189 0.00557765 0)
(-0.0711598 0.00438443 0)
(-0.0717972 0.00316595 0)
(-0.0722275 0.00192851 0)
(-0.0724483 0.000678504 0)
(-0.072458 -0.000577579 0)
(-0.0722561 -0.00183317 0)
(-0.0718434 -0.00308161 0)
(-0.0712214 -0.00431617 0)
(-0.0703932 -0.00553009 0)
(-0.0693625 -0.00671652 0)
(-0.0681344 -0.00786861 0)
(-0.0667151 -0.00897949 0)
(-0.0651117 -0.0100423 0)
(-0.0633326 -0.0110503 0)
(-0.0613872 -0.0119966 0)
(-0.0592859 -0.0128748 0)
(-0.0570404 -0.0136782 0)
(-0.054663 -0.0144006 0)
(-0.0521674 -0.015036 0)
(-0.0495679 -0.0155786 0)
(-0.0468799 -0.0160231 0)
(-0.0441193 -0.0163644 0)
(-0.0413031 -0.0165981 0)
(-0.0384486 -0.0167202 0)
(-0.0355739 -0.0167276 0)
(-0.0326974 -0.0166176 0)
(-0.0298377 -0.0163885 0)
(-0.0270138 -0.0160397 0)
(-0.0242446 -0.0155715 0)
(-0.0215486 -0.0149854 0)
(-0.0189443 -0.0142843 0)
(-0.0164495 -0.013473 0)
(-0.0140814 -0.0125576 0)
(-0.011856 -0.0115466 0)
(-0.00978845 -0.0104506 0)
(-0.00789238 -0.00928329 0)
(-0.00617997 -0.00806103 0)
(-0.00466171 -0.00680398 0)
(-0.00334634 -0.00553633 0)
(-0.00224093 -0.00428698 0)
(-0.00135021 -0.00309018 0)
(-0.000676169 -0.00198605 0)
(-0.000228065 -0.00102117 0)
(-3.13538e-05 -0.000252043 0)
(-3.95401e-05 0.000428379 0)
(-0.00028002 0.0015282 0)
(-0.000819476 0.00280167 0)
(-0.00161992 0.00419185 0)
(-0.00266394 0.00565167 0)
(-0.003944 0.00714056 0)
(-0.00545027 0.00862399 0)
(-0.00717115 0.010073 0)
(-0.00909394 0.0114638 0)
(-0.0112048 0.0127765 0)
(-0.0134889 0.0139956 0)
(-0.0159302 0.0151084 0)
(-0.0185117 0.0161052 0)
(-0.021216 0.016979 0)
(-0.0240248 0.0177247 0)
(-0.0269196 0.0183389 0)
(-0.0298813 0.0188201 0)
(-0.0328911 0.0191678 0)
(-0.03593 0.0193828 0)
(-0.0389792 0.0194668 0)
(-0.0420201 0.0194224 0)
(-0.0450346 0.0192528 0)
(-0.0480049 0.0189619 0)
(-0.050914 0.0185541 0)
(-0.0537451 0.0180339 0)
(-0.0564825 0.0174067 0)
(-0.0591109 0.0166779 0)
(-0.0616162 0.015853 0)
(-0.0639846 0.0149382 0)
(-0.0662036 0.0139394 0)
(-0.0682614 0.0128631 0)
(-0.070147 0.0117157 0)
(-0.0718507 0.0105038 0)
(-0.0733634 0.00923421 0)
(-0.0746772 0.00791375 0)
(-0.0757853 0.00654946 0)
(-0.0766817 0.00514846 0)
(-0.0773616 0.00371799 0)
(-0.0778212 0.00226542 0)
(-0.0780578 0.000798203 0)
(-0.0780699 -0.000676088 0)
(-0.077857 -0.00214978 0)
(-0.0774197 -0.00361513 0)
(-0.0767598 -0.00506427 0)
(-0.0758803 -0.00648932 0)
(-0.0747852 -0.0078823 0)
(-0.0734798 -0.00923524 0)
(-0.0719705 -0.0105401 0)
(-0.0702649 -0.011789 0)
(-0.0683716 -0.0129739 0)
(-0.0663005 -0.014087 0)
(-0.0640625 -0.0151206 0)
(-0.0616697 -0.0160672 0)
(-0.0591353 -0.0169194 0)
(-0.0564734 -0.0176704 0)
(-0.053699 -0.0183133 0)
(-0.0508282 -0.0188419 0)
(-0.047878 -0.0192506 0)
(-0.0448658 -0.019534 0)
(-0.0418102 -0.0196877 0)
(-0.0387298 -0.019708 0)
(-0.0356443 -0.0195918 0)
(-0.0325731 -0.0193373 0)
(-0.0295363 -0.0189436 0)
(-0.0265537 -0.0184112 0)
(-0.0236451 -0.0177418 0)
(-0.0208301 -0.0169389 0)
(-0.0181276 -0.0160075 0)
(-0.0155561 -0.0149549 0)
(-0.0131329 -0.0137903 0)
(-0.0108745 -0.0125258 0)
(-0.00879616 -0.0111762 0)
(-0.00691164 -0.0097595 0)
(-0.00523331 -0.00829743 0)
(-0.00377198 -0.00681586 0)
(-0.00253708 -0.00534527 0)
(-0.00153589 -0.00392137 0)
(-0.000773157 -0.0025854 0)
(-0.000262508 -0.00138455 0)
(-3.65794e-05 -0.000375089 0)
(-4.47078e-05 0.000577808 0)
(-0.000314286 0.00196298 0)
(-0.000916215 0.00351004 0)
(-0.00180538 0.00516278 0)
(-0.00295993 0.00687412 0)
(-0.00436948 0.00860303 0)
(-0.00602149 0.0103142 0)
(-0.00790182 0.0119778 0)
(-0.00999559 0.0135688 0)
(-0.012287 0.0150666 0)
(-0.0147594 0.0164543 0)
(-0.0173951 0.0177186 0)
(-0.020176 0.0188491 0)
(-0.023083 0.019838 0)
(-0.0260968 0.0206799 0)
(-0.0291977 0.021371 0)
(-0.0323658 0.0219096 0)
(-0.035581 0.0222953 0)
(-0.0388236 0.0225289 0)
(-0.0420737 0.0226124 0)
(-0.045312 0.0225488 0)
(-0.0485195 0.0223416 0)
(-0.0516777 0.0219952 0)
(-0.0547687 0.0215147 0)
(-0.0577751 0.0209053 0)
(-0.0606806 0.0201729 0)
(-0.0634692 0.0193238 0)
(-0.0661261 0.0183646 0)
(-0.0686371 0.0173019 0)
(-0.070989 0.0161428 0)
(-0.0731695 0.0148945 0)
(-0.0751674 0.0135646 0)
(-0.0769723 0.0121606 0)
(-0.0785749 0.0106902 0)
(-0.0799669 0.00916134 0)
(-0.0811412 0.00758213 0)
(-0.0820915 0.00596072 0)
(-0.0828128 0.00430545 0)
(-0.0833012 0.00262477 0)
(-0.0835539 0.000927246 0)
(-0.0835692 -0.00077841 0)
(-0.0833465 -0.00248339 0)
(-0.0828866 -0.00417878 0)
(-0.0821912 -0.00585558 0)
(-0.0812634 -0.0075047 0)
(-0.0801074 -0.009117 0)
(-0.0787286 -0.0106833 0)
(-0.0771336 -0.0121945 0)
(-0.0753303 -0.0136413 0)
(-0.0733278 -0.0150147 0)
(-0.0711362 -0.0163057 0)
(-0.0687669 -0.0175055 0)
(-0.0662324 -0.0186054 0)
(-0.0635464 -0.019597 0)
(-0.0607237 -0.0204724 0)
(-0.0577798 -0.0212238 0)
(-0.0547317 -0.0218441 0)
(-0.0515967 -0.0223268 0)
(-0.0483935 -0.0226659 0)
(-0.045141 -0.0228563 0)
(-0.0418592 -0.0228935 0)
(-0.0385682 -0.0227744 0)
(-0.0352888 -0.0224966 0)
(-0.0320417 -0.0220592 0)
(-0.0288481 -0.0214627 0)
(-0.0257288 -0.020709 0)
(-0.0227045 -0.0198019 0)
(-0.0197954 -0.018747 0)
(-0.0170212 -0.0175523 0)
(-0.0144008 -0.0162281 0)
(-0.011952 -0.0147874 0)
(-0.00969168 -0.0132461 0)
(-0.00763547 -0.0116238 0)
(-0.00579761 -0.00994361 0)
(-0.00419112 -0.00823271 0)
(-0.00282779 -0.00652298 0)
(-0.00171747 -0.00485128 0)
(-0.000867557 -0.00325968 0)
(-0.000295801 -0.00179571 0)
(-4.15581e-05 -0.000515254 0)
(-4.96501e-05 0.000744251 0)
(-0.000347404 0.00244539 0)
(-0.00101019 0.00429316 0)
(-0.0019862 0.00623222 0)
(-0.00324939 0.00821568 0)
(-0.00478663 0.0102023 0)
(-0.00658273 0.0121563 0)
(-0.00862105 0.0140471 0)
(-0.0108844 0.0158489 0)
(-0.013355 0.0175403 0)
(-0.0160143 0.0191037 0)
(-0.0188432 0.020525 0)
(-0.0218217 0.0217931 0)
(-0.0249297 0.0228999 0)
(-0.0281465 0.0238394 0)
(-0.0314513 0.0246079 0)
(-0.0348231 0.0252034 0)
(-0.0382409 0.0256256 0)
(-0.0416838 0.0258754 0)
(-0.0451314 0.0259552 0)
(-0.0485633 0.0258682 0)
(-0.0519598 0.0256186 0)
(-0.0553017 0.0252111 0)
(-0.0585704 0.0246515 0)
(-0.0617479 0.0239459 0)
(-0.0648171 0.0231009 0)
(-0.0677616 0.0221234 0)
(-0.0705658 0.0210209 0)
(-0.0732153 0.0198011 0)
(-0.0756962 0.0184719 0)
(-0.077996 0.0170416 0)
(-0.0801028 0.0155185 0)
(-0.082006 0.0139113 0)
(-0.0836959 0.0122289 0)
(-0.085164 0.01048 0)
(-0.0864027 0.00867403 0)
(-0.0874058 0.00682012 0)
(-0.0881679 0.00492776 0)
(-0.0886849 0.00300652 0)
(-0.088954 0.00106616 0)
(-0.0889733 -0.000883474 0)
(-0.0887422 -0.00283238 0)
(-0.0882615 -0.00477045 0)
(-0.0875329 -0.00668747 0)
(-0.0865596 -0.00857315 0)
(-0.0853458 -0.0104171 0)
(-0.0838971 -0.012209 0)
(-0.0822204 -0.0139383 0)
(-0.0803237 -0.0155948 0)
(-0.0782163 -0.0171681 0)
(-0.0759087 -0.0186479 0)
(-0.0734127 -0.0200244 0)