/*--------------------------------*- C++ -*----------------------------------*\
  =========                 |
  \\      /  F ield         | OpenFOAM: The Open Source CFD Toolbox
   \\    /   O peration     | Website:  https://openfoam.org
    \\  /    A nd           | Version:  7
     \\/     M anipulation  |
\*---------------------------------------------------------------------------*/
FoamFile
{
    version     2.0;
    format      ascii;
    class       volScalarField;
    location    "0.275";
    object      p;
}
// * * * * * * * * * * * * * * * * * * * * * * * * * * * * * * * * * * * * * //

dimensions      [0 2 -2 0 0 0 0];

internalField   nonuniform List<scalar> 
25600
(
1.21938e-08
0.000111634
0.000140111
3.16458e-05
-0.000221952
-0.000616589
-0.00114125
-0.00178142
-0.00252164
-0.00334667
-0.00424201
-0.00519406
-0.0061902
-0.0072188
-0.00826915
-0.00933141
-0.0103966
-0.0114564
-0.0125032
-0.0135302
-0.014531
-0.0154998
-0.0164314
-0.0173209
-0.018164
-0.0189568
-0.0196956
-0.0203772
-0.0209988
-0.0215578
-0.0220518
-0.022479
-0.0228376
-0.023126
-0.023343
-0.0234875
-0.0235587
-0.023556
-0.0234788
-0.0233269
-0.0231001
-0.0227986
-0.0224224
-0.0219719
-0.0214475
-0.0208499
-0.0201797
-0.0194378
-0.0186252
-0.0177428
-0.0167918
-0.0157735
-0.0146892
-0.0135404
-0.0123285
-0.0110552
-0.00972218
-0.00833113
-0.00688389
-0.00538238
-0.00382855
-0.00222443
-0.000572099
0.00112628
0.00286852
0.00465236
0.00647549
0.00833557
0.0102302
0.0121569
0.0141132
0.0160966
0.0181045
0.0201343
0.0221835
0.0242492
0.0263289
0.0284199
0.0305193
0.0326245
0.0347327
0.036841
0.0389468
0.0410472
0.0431394
0.0452205
0.0472878
0.0493385
0.0513698
0.0533788
0.0553629
0.0573192
0.0592451
0.0611378
0.0629947
0.0648131
0.0665904
0.0683242
0.0700117
0.0716508
0.0732388
0.0747735
0.0762527
0.0776741
0.0790356
0.0803352
0.0815709
0.082741
0.0838436
0.0848771
0.08584
0.0867308
0.0875483
0.0882913
0.0889587
0.0895497
0.0900635
0.0904996
0.0908575
0.0911369
0.0913379
0.0914604
0.0915047
0.0914715
0.0913612
0.091175
0.0909138
0.0905792
0.0901726
0.089696
0.0891514
0.0885414
0.0878686
0.087136
0.086347
0.0855051
0.0846146
0.0836797
0.0827052
0.0816965
0.0806591
0.0795992
0.0785236
0.0774394
0.0763545
0.0752774
0.0742171
0.0731837
0.0721877
0.0712408
0.0703551
0.069544
0.0688214
0.0682017
0.0676993
0.0673273
0.0670951
0.0670047
0.0670453
0.0671611
-0.000111582
1.18898e-07
4.12875e-06
-0.000117009
-0.000359325
-0.000721057
-0.00119559
-0.0017725
-0.00243983
-0.00318523
-0.00399644
-0.00486167
-0.00576969
-0.00670995
-0.00767263
-0.00864856
-0.00962928
-0.010607
-0.0115744
-0.0125249
-0.0134524
-0.0143512
-0.0152163
-0.0160429
-0.0168268
-0.017564
-0.018251
-0.0188846
-0.0194619
-0.0199805
-0.0204378
-0.020832
-0.0211613
-0.0214241
-0.0216191
-0.0217453
-0.0218016
-0.0217875
-0.0217023
-0.0215458
-0.0213178
-0.0210181
-0.020647
-0.0202047
-0.0196915
-0.0191081
-0.0184549
-0.0177329
-0.0169429
-0.0160857
-0.0151626
-0.0141747
-0.0131233
-0.0120096
-0.0108353
-0.00960165
-0.00831042
-0.00696325
-0.0055619
-0.00410816
-0.00260394
-0.00105117
0.000548129
0.0021919
0.00387802
0.00560432
0.00736856
0.00916848
0.0110018
0.012866
0.0147589
0.0166779
0.0186205
0.0205844
0.0225668
0.0245653
0.0265772
0.0285999
0.0306309
0.0326673
0.0347065
0.0367459
0.0387827
0.0408143
0.0428379
0.0448507
0.0468502
0.0488335
0.050798
0.0527409
0.0546597
0.0565516
0.0584141
0.0602445
0.0620402
0.0637988
0.0655176
0.0671944
0.0688266
0.0704119
0.071948
0.0734326
0.0748637
0.0762391
0.0775568
0.0788149
0.0800114
0.0811448
0.0822132
0.0832152
0.0841493
0.0850141
0.0858085
0.0865314
0.0871819
0.087759
0.0882622
0.0886909
0.0890449
0.0893238
0.0895277
0.0896567
0.0897112
0.0896917
0.0895989
0.0894339
0.0891977
0.0888918
0.0885178
0.0880776
0.0875733
0.0870073
0.0863824
0.0857014
0.0849677
0.0841849
0.083357
0.0824882
0.0815833
0.0806473
0.0796858
0.0787046
0.0777103
0.0767096
0.0757101
0.0747198
0.0737472
0.0728016
0.0718926
0.0710307
0.0702268
0.0694924
0.0688391
0.0682786
0.067822
0.0674784
0.0672529
0.067146
0.0671598
0.0672758
-0.000140259
-3.80323e-06
3.62887e-07
-0.000121977
-0.00035431
-0.000693528
-0.00113414
-0.00166741
-0.00228328
-0.00297126
-0.00372071
-0.00452116
-0.00536255
-0.00623524
-0.00713018
-0.00803885
-0.00895328
-0.00986607
-0.0107704
-0.0116597
-0.0125284
-0.0133709
-0.0141822
-0.0149577
-0.0156933
-0.0163852
-0.0170298
-0.0176241
-0.018165
-0.0186502
-0.0190773
-0.0194442
-0.0197493
-0.0199908
-0.0201676
-0.0202784
-0.0203224
-0.0202987
-0.0202069
-0.0200465
-0.0198173
-0.0195192
-0.0191523
-0.0187168
-0.018213
-0.0176414
-0.0170026
-0.0162972
-0.0155261
-0.0146902
-0.0137905
-0.0128281
-0.0118042
-0.0107202
-0.00957735
-0.00837716
-0.00712115
-0.00581096
-0.00444824
-0.00303477
-0.00157236
-6.2878e-05
0.00149172
0.00308944
0.00472824
0.00640599
0.00812056
0.00986973
0.0116513
0.0134628
0.0153022
0.0171668
0.0190545
0.0209626
0.0228888
0.0248305
0.0267853
0.0287505
0.0307236
0.0327021
0.0346832
0.0366644
0.0386432
0.0406167
0.0425825
0.0445378
0.0464801
0.0484067
0.050315
0.0522023
0.0540662
0.0559039
0.0577131
0.0594911
0.0612354
0.0629437
0.0646134
0.0662423
0.067828
0.0693682
0.0708608
0.0723035
0.0736943
0.0750311
0.0763121
0.0775354
0.0786992
0.0798018
0.0808416
0.0818173
0.0827273
0.0835705
0.0843456
0.0850518
0.085688
0.0862536
0.086748
0.0871706
0.0875212
0.0877997
0.088006
0.0881404
0.0882033
0.0881952
0.0881169
0.0879693
0.0877538
0.0874716
0.0871244
0.0867141
0.0862428
0.085713
0.0851271
0.0844883
0.0837998
0.083065
0.0822878
0.0814726
0.0806237
0.0797462
0.0788453
0.0779269
0.076997
0.0760623
0.0751298
0.0742071
0.0733022
0.0724236
0.0715804
0.070782
0.0700383
0.0693593
0.0687551
0.0682357
0.0678103
0.0674868
0.0672694
0.0671597
0.0671734
0.0673158
-3.22748e-05
0.000117351
0.000123069
8.32615e-07
-0.000225537
-0.000550954
-0.000969687
-0.00147352
-0.00205343
-0.00270004
-0.00340383
-0.0041554
-0.0049456
-0.00576561
-0.00660706
-0.00746201
-0.008323
-0.00918305
-0.0100356
-0.0108747
-0.0116945
-0.01249
-0.0132563
-0.0139889
-0.0146838
-0.0153373
-0.0159459
-0.0165066
-0.0170165
-0.0174731
-0.0178741
-0.0182176
-0.0185018
-0.018725
-0.018886
-0.0189835
-0.0190167
-0.0189848
-0.0188872
-0.0187235
-0.0184933
-0.0181966
-0.0178335
-0.0174039
-0.0169084
-0.0163472
-0.0157209
-0.0150301
-0.0142757
-0.0134584
-0.0125794
-0.0116395
-0.0106399
-0.00958195
-0.00846692
-0.0072962
-0.00607129
-0.00479372
-0.00346514
-0.00208724
-0.000661759
0.000809467
0.00232456
0.00388158
0.00547853
0.00711337
0.00878401
0.0104883
0.0122241
0.0139891
0.015781
0.0175977
0.0194366
0.0212955
0.023172
0.0250635
0.0269677
0.0288821
0.0308042
0.0327314
0.0346612
0.0365911
0.0385184
0.0404408
0.0423556
0.0442601
0.0461519
0.0480285
0.0498872
0.0517255
0.0535409
0.0553309
0.0570931
0.058825
0.0605241
0.0621881
0.0638146
0.0654014
0.0669462
0.0684469
0.0699011
0.071307
0.0726624
0.0739654
0.0752142
0.076407
0.0775421
0.0786178
0.0796326
0.0805852
0.0814741
0.0822983
0.0830567
0.0837482
0.084372
0.0849275
0.0854141
0.0858314
0.0861791
0.0864571
0.0866655
0.0868045
0.0868746
0.0868762
0.0868103
0.0866778
0.0864799
0.086218
0.0858938
0.0855091
0.0850659
0.0845668
0.0840142
0.0834111
0.0827606
0.0820663
0.0813318
0.0805613
0.0797592
0.0789303
0.0780796
0.0772128
0.0763356
0.0754543
0.0745758
0.073707
0.0728555
0.0720293
0.0712367
0.0704864
0.0697872
0.0691482
0.0685786
0.0680871
0.0676821
0.0673712
0.0671593
0.0670501
0.0670669
0.0672258
0.000220536
0.000359665
0.000355835
0.000227752
1.32818e-06
-0.000317119
-0.000721582
-0.00120422
-0.00175672
-0.00237061
-0.00303732
-0.00374834
-0.00449533
-0.00527025
-0.00606536
-0.0068733
-0.00768711
-0.00850023
-0.0093065
-0.0101002
-0.0108758
-0.0116286
-0.0123537
-0.0130469
-0.0137044
-0.0143224
-0.0148977
-0.0154272
-0.0159082
-0.0163382
-0.0167149
-0.0170365
-0.017301
-0.0175071
-0.0176532
-0.0177383
-0.0177615
-0.0177218
-0.0176188
-0.0174519
-0.0172209
-0.0169256
-0.016566
-0.0161423
-0.0156546
-0.0151034
-0.0144891
-0.0138124
-0.013074
-0.0122747
-0.0114154
-0.0104971
-0.00952089
-0.00848801
-0.0073997
-0.00625732
-0.00506229
-0.00381611
-0.00252035
-0.00117665
0.000213291
0.00164771
0.00312478
0.00464262
0.00619931
0.00779284
0.0094212
0.0110823
0.012774
0.0144942
0.0162406
0.0180109
0.0198031
0.0216146
0.0234431
0.0252864
0.027142
0.0290074
0.0308803
0.0327582
0.0346387
0.0365192
0.0383972
0.0402703
0.0421361
0.0439918
0.0458352
0.0476636
0.0494747
0.051266
0.0530349
0.0547791
0.0564962
0.0581838
0.0598395
0.0614611
0.0630463
0.0645928
0.0660984
0.0675611
0.0689787
0.0703493
0.0716709
0.0729416
0.0741596
0.0753232
0.0764308
0.0774808
0.0784717
0.0794023
0.0802711
0.0810772
0.0818195
0.082497
0.083109
0.0836548
0.084134
0.0845461
0.084891
0.0851685
0.0853787
0.085522
0.0855987
0.0856095
0.0855552
0.0854367
0.0852553
0.0850123
0.0847094
0.0843484
0.0839314
0.0834608
0.082939
0.0823688
0.0817535
0.0810964
0.080401
0.0796715
0.078912
0.0781271
0.0773218
0.0765012
0.0756711
0.0748374
0.0740064
0.0731849
0.0723797
0.0715984
0.0708485
0.070138
0.0694751
0.068868
0.0683249
0.0678537
0.0674623
0.067158
0.0669461
0.0668322
0.0668421
0.0669948
0.000614314
0.000721622
0.000695791
0.00055393
0.000320198
1.40636e-06
-0.000396335
-0.000865604
-0.00139874
-0.00198802
-0.00262569
-0.00330402
-0.00401543
-0.00475255
-0.00550826
-0.00627576
-0.00704857
-0.00782056
-0.00858593
-0.00933926
-0.0100754
-0.0107897
-0.0114777
-0.0121352
-0.0127586
-0.0133442
-0.013889
-0.0143899
-0.0148443
-0.0152497
-0.0156041
-0.0159053
-0.0161517
-0.0163418
-0.0164742
-0.0165478
-0.0165615
-0.0165147
-0.0164067
-0.016237
-0.0160053
-0.0157114
-0.0153553
-0.0149371
-0.014457
-0.0139154
-0.0133127
-0.0126494
-0.0119263
-0.0111441
-0.0103036
-0.00940596
-0.00845209
-0.00744316
-0.0063804
-0.00526509
-0.00409863
-0.00288245
-0.00161807
-0.00030708
0.00104888
0.00244809
0.00388879
0.00536916
0.00688732
0.00844134
0.0100292
0.011649
0.0132986
0.0149758
0.0166786
0.0184047
0.020152
0.0219182
0.023701
0.0254981
0.0273071
0.0291258
0.0309517
0.0327825
0.0346158
0.036449
0.0382799
0.040106
0.0419249
0.0437341
0.0455312
0.0473137
0.0490794
0.0508257
0.0525503
0.0542508
0.0559249
0.0575703
0.0591847
0.0607659
0.0623116
0.0638197
0.065288
0.0667146
0.0680974
0.0694344
0.0707238
0.0719638
0.0731526
0.0742885
0.07537
0.0763955
0.0773638
0.0782734
0.0791232
0.0799121
0.0806391
0.0813033
0.081904
0.0824407
0.0829127
0.0833199
0.0836619
0.0839388
0.0841507
0.0842978
0.0843807
0.0843998
0.0843561
0.0842506
0.0840843
0.0838588
0.0835756
0.0832364
0.0828435
0.0823989
0.0819053
0.0813653
0.080782
0.0801587
0.0794988
0.0788062
0.078085
0.0773396
0.0765747
0.0757953
0.0750067
0.0742146
0.0734249
0.0726439
0.0718781
0.0711344
0.0704198
0.0697415
0.0691071
0.0685241
0.0679998
0.0675417
0.067157
0.0668526
0.0666341
0.0665079
0.0664988
0.0666246
0.00113851
0.00119704
0.00113784
0.000974004
0.000725418
0.000398863
3.6937e-07
-0.000463145
-0.000984651
-0.00155711
-0.00217347
-0.00282672
-0.00350995
-0.00421641
-0.00493959
-0.00567319
-0.0064112
-0.0071479
-0.00787788
-0.00859603
-0.00929752
-0.00997786
-0.0106328
-0.0112586
-0.0118514
-0.0124079
-0.0129251
-0.0134002
-0.0138304
-0.0142136
-0.0145474
-0.0148302
-0.01506
-0.0152355
-0.0153554
-0.0154184
-0.0154236
-0.0153702
-0.0152577
-0.0150855
-0.0148533
-0.0145609
-0.0142082
-0.0137954
-0.0133225
-0.01279
-0.0121982
-0.0115477
-0.0108391
-0.0100731
-0.00925058
-0.00837246
-0.00743975
-0.00645353
-0.00541498
-0.00432535
-0.00318598
-0.00199825
-0.000763646
0.000516313
0.00184003
0.00320584
0.00461203
0.00605684
0.00753844
0.00905495
0.0106045
0.012185
0.0137946
0.0154311
0.0170925
0.0187767
0.0204814
0.0222046
0.0239439
0.0256972
0.0274621
0.0292364
0.0310178
0.0328039
0.0345924
0.0363809
0.0381672
0.0399487
0.0417232
0.0434882
0.0452415
0.0469806
0.0487032
0.050407
0.0520897
0.0537489
0.0553824
0.0569879
0.0585632
0.0601062
0.0616146
0.0630865
0.0645197
0.0659122
0.0672621
0.0685675
0.0698266
0.0710375
0.0721987
0.0733085
0.0743655
0.075368
0.0763149
0.0772048
0.0780366
0.0788093
0.0795219
0.0801736
0.0807637
0.0812916
0.0817569
0.0821593
0.0824986
0.0827747
0.082988
0.0831385
0.0832268
0.0832536
0.0832195
0.0831257
0.0829733
0.0827636
0.0824982
0.0821789
0.0818076
0.0813867
0.0809185
0.0804056
0.0798511
0.0792579
0.0786297
0.0779699
0.0772826
0.076572
0.0758425
0.0750988
0.0743461
0.0735896
0.0728349
0.0720879
0.0713546
0.0706413
0.0699547
0.0693013
0.0686879
0.0681214
0.0676086
0.0671563
0.0667712
0.0664598
0.0662278
0.0660815
0.0660422
0.0661242
0.00177931
0.00177609
0.00167379
0.00148027
0.00120962
0.000868286
0.000462081
-2.67867e-06
-0.000519604
-0.0010823
-0.00168438
-0.00231946
-0.00298126
-0.00366363
-0.00436058
-0.00506632
-0.0057753
-0.00648219
-0.00718193
-0.00786975
-0.00854111
-0.00919176
-0.00981772
-0.0104153
-0.0109809
-0.0115115
-0.0120041
-0.0124559
-0.0128644
-0.0132274
-0.0135428
-0.0138088
-0.0140236
-0.0141859
-0.0142943
-0.0143477
-0.0143452
-0.014286
-0.0141695
-0.0139951
-0.0137626
-0.0134717
-0.0131224
-0.0127147
-0.0122488
-0.011725
-0.0111436
-0.0105052
-0.00981035
-0.00905977
-0.00825425
-0.00739468
-0.00648201
-0.00551732
-0.00450172
-0.00343643
-0.00232273
-0.00116198
4.44153e-05
0.00129496
0.00258811
0.00392225
0.00529573
0.00670682
0.00815376
0.00963471
0.0111478
0.0126912
0.0142628
0.0158607
0.0174829
0.0191273
0.0207917
0.0224741
0.0241723
0.025884
0.0276071
0.0293394
0.0310786
0.0328224
0.0345685
0.0363147
0.0380586
0.039798
0.0415304
0.0432537
0.0449656
0.0466636
0.0483456
0.0500092
0.0516522
0.0532724
0.0548675
0.0564353
0.0579738
0.0594807
0.060954
0.0623917
0.0637917
0.0651521
0.066471
0.0677466
0.0689771
0.0701608
0.071296
0.0723813
0.073415
0.074396
0.0753227
0.0761941
0.077009
0.0777664
0.0784655
0.0791053
0.0796853
0.080205
0.0806638
0.0810616
0.0813982
0.0816735
0.0818878
0.0820413
0.0821345
0.082168
0.0821427
0.0820594
0.0819194
0.081724
0.0814746
0.0811732
0.0808215
0.0804217
0.0799762
0.0794876
0.0789587
0.0783924
0.0777921
0.0771612
0.0765036
0.0758233
0.0751244
0.0744115
0.0736893
0.0729628
0.0722373
0.0715181
0.070811
0.0701218
0.0694564
0.068821
0.0682219
0.0676651
0.067157
0.0667038
0.0663116
0.0659866
0.0657341
0.0655603
0.0654811
0.0655061
0.00252214
0.00244758
0.00229428
0.0020643
0.00176507
0.00140256
0.000982297
0.00050994
-8.78081e-06
-0.0005681
-0.00116223
-0.00178542
-0.00243193
-0.00309619
-0.0037727
-0.00445615
-0.00514142
-0.00582357
-0.0064979
-0.00715994
-0.00780544
-0.00843041
-0.0090311
-0.00960398
-0.0101458
-0.0106534
-0.0111241
-0.0115551
-0.0119443
-0.0122892
-0.012588
-0.0128389
-0.0130402
-0.0131905
-0.0132887
-0.0133335
-0.0133241
-0.0132597
-0.0131396
-0.0129635
-0.0127309
-0.0124417
-0.0120957
-0.011693
-0.0112338
-0.0107182
-0.0101468
-0.00951987
-0.0088381
-0.00810213
-0.00731271
-0.00647071
-0.00557705
-0.00463274
-0.00363889
-0.00259665
-0.00150727
-0.000372062
0.000807604
0.00203028
0.00329448
0.00459862
0.00594111
0.00732026
0.00873436
0.0101816
0.0116603
0.0131684
0.0147041
0.0162654
0.0178505
0.0194571
0.0210834
0.0227272
0.0243863
0.0260588
0.0277423
0.0294348
0.0311341
0.0328378
0.0345439
0.03625
0.0379539
0.0396534
0.0413462
0.04303
0.0447027
0.0463619
0.0480055
0.0496312
0.0512367
0.0528201
0.054379
0.0559113
0.057415
0.058888
0.0603282
0.0617337
0.0631024
0.0644326
0.0657223
0.0669699
0.0681735
0.0693315
0.0704423
0.0715045
0.0725165
0.0734771
0.0743849
0.0752389
0.0760379
0.0767809
0.0774672
0.0780959
0.0786664
0.0791782
0.0796309
0.0800242
0.080358
0.0806324
0.0808474
0.0810035
0.0811009
0.0811405
0.0811228
0.081049
0.0809201
0.0807375
0.0805025
0.080217
0.0798828
0.0795019
0.0790766
0.0786094
0.078103
0.0775604
0.0769845
0.0763789
0.075747
0.0750927
0.07442
0.0737331
0.0730365
0.0723348
0.071633
0.0709362
0.0702494
0.0695782
0.068928
0.0683045
0.0677133
0.0671601
0.0666506
0.0661903
0.065785
0.06544
0.0651607
0.0649527
0.0648258
0.064784
0.00335278
0.00320005
0.00298958
0.00271743
0.00238395
0.00199458
0.00155457
0.00106889
0.000542624
-1.90796e-05
-0.000611022
-0.001228
-0.00186485
-0.00251647
-0.00317786
-0.00384417
-0.00451067
-0.00517281
-0.00582622
-0.00646675
-0.00709043
-0.00769353
-0.0082725
-0.00882403
-0.00934502
-0.00983257
-0.010284
-0.0106968
-0.0110687
-0.0113976
-0.0116817
-0.0119191
-0.0121083
-0.0122481
-0.012337
-0.0123742
-0.0123587
-0.0122897
-0.0121667
-0.0119891
-0.0117567
-0.0114692
-0.0111265
-0.0107287
-0.0102759
-0.00976831
-0.00920632
-0.00859036
-0.00792101
-0.00719889
-0.00642474
-0.00559937
-0.00472369
-0.00379868
-0.0028254
-0.00180497
-0.000738602
0.000372445
0.00152683
0.00272316
0.00395997
0.00523574
0.00654891
0.00789785
0.00928089
0.0106963
0.0121423
0.0136171
0.0151189
0.0166456
0.0181955
0.0197665
0.0213567
0.022964
0.0245863
0.0262216
0.0278678
0.0295227
0.0311842
0.0328501
0.0345183
0.0361866
0.0378528
0.0395146
0.04117
0.0428166
0.0444523
0.046075
0.0476824
0.0492723
0.0508426
0.0523913
0.0539161
0.055415
0.056886
0.058327
0.0597361
0.0611113
0.0624507
0.0637524
0.0650148
0.066236
0.0674143
0.0685483
0.0696362
0.0706767
0.0716683
0.0726098
0.0734999
0.0743375
0.0751215
0.075851
0.0765253
0.0771434
0.0777049
0.0782093
0.0786561
0.0790451
0.0793762
0.0796495
0.079865
0.0800231
0.0801243
0.0801691
0.0801582
0.0800928
0.0799737
0.0798024
0.0795802
0.0793088
0.0789899
0.0786256
0.0782181
0.0777697
0.0772831
0.0767609
0.0762063
0.0756223
0.0750124
0.0743802
0.0737294
0.0730641
0.0723884
0.0717068
0.0710237
0.0703439
0.0696722
0.0690135
0.068373
0.0677557
0.0671668
0.0666115
0.0660949
0.065622
0.065198
0.0648276
0.0645158
0.064268
0.0640871
0.0639714
0.00425787
0.00402222
0.00374991
0.00343096
0.00305841
0.00263726
0.00217249
0.0016684
0.00112943
0.000560153
-3.47851e-05
-0.000650723
-0.001283
-0.001927
-0.00257817
-0.00323207
-0.00388437
-0.00453088
-0.00516758
-0.0057906
-0.00639625
-0.00698104
-0.00754167
-0.00807501
-0.00857814
-0.00904834
-0.00948305
-0.00987992
-0.0102368
-0.0105516
-0.0108227
-0.0110482
-0.0112269
-0.0113572
-0.0114381
-0.0114686
-0.0114477
-0.0113749
-0.0112493
-0.0110707
-0.0108387
-0.0105531
-0.0102137
-0.00982062
-0.00937397
-0.008874
-0.00832102
-0.00771547
-0.0070579
-0.0063489
-0.0055892
-0.00477957
-0.0039209
-0.00301412
-0.00206027
-0.00106045
-1.58046e-05
0.00107242
0.00220293
0.00337437
0.00458533
0.00583431
0.0071198
0.00844022
0.00979394
0.0111793
0.0125945
0.0140379
0.0155075
0.0170017
0.0185184
0.0200558
0.0216119
0.0231847
0.0247723
0.0263726
0.0279835
0.0296029
0.0312289
0.0328592
0.0344917
0.0361243
0.0377549
0.0393813
0.0410014
0.042613
0.044214
0.0458022
0.0473756
0.0489319
0.0504692
0.0519852
0.053478
0.0549455
0.0563858
0.0577968
0.0591767
0.0605235
0.0618353
0.0631105
0.0643471
0.0655436
0.0666984
0.0678097
0.0688762
0.0698964
0.0708689
0.0717925
0.072666
0.0734882
0.0742583
0.0749751
0.0756381
0.0762463
0.0767993
0.0772966
0.0777378
0.0781227
0.0784511
0.0787231
0.0789388
0.0790986
0.0792028
0.0792521
0.0792472
0.079189
0.0790786
0.0789172
0.0787061
0.078447
0.0781416
0.0777918
0.0773997
0.0769676
0.0764979
0.0759934
0.0754568
0.0748911
0.0742996
0.0736857
0.073053
0.0724051
0.0717461
0.0710799
0.0704109
0.0697433
0.0690817
0.0684306
0.0677946
0.0671784
0.0665867
0.0660242
0.0654954
0.065005
0.0645573
0.0641566
0.0638076
0.0635153
0.0632756
0.0630811
0.00522503
0.00490334
0.00456575
0.0041963
0.00378071
0.00332359
0.00282971
0.00230274
0.00174649
0.001165
0.000562402
-5.71527e-05
-0.000689481
-0.00133041
-0.00197583
-0.00262168
-0.003264
-0.00389895
-0.00452283
-0.00513206
-0.00572323
-0.00629309
-0.00683854
-0.00735667
-0.00784474
-0.00830018
-0.0087206
-0.00910376
-0.00944762
-0.00975028
-0.01001
-0.0102253
-0.0103946
-0.0105168
-0.0105907
-0.0106154
-0.01059
-0.0105138
-0.0103863
-0.010207
-0.00997564
-0.00969196
-0.0093559
-0.00896746
-0.00852678
-0.00803409
-0.00748971
-0.00689406
-0.00624764
-0.00555107
-0.00480503
-0.00401027
-0.00316765
-0.00227808
-0.00134257
-0.000362164
0.000661992
0.0017287
0.00283671
0.00398469
0.00517127
0.00639502
0.00765443
0.00894797
0.0102741
0.011631
0.0130173
0.014431
0.0158704
0.0173338
0.0188193
0.020325
0.0218491
0.0233895
0.0249444
0.0265117
0.0280894
0.0296755
0.031268
0.0328648
0.0344638
0.0360629
0.0376601
0.0392532
0.0408402
0.0424189
0.0439872
0.0455431
0.0470845
0.0486094
0.0501155
0.051601
0.0530638
0.054502
0.0559135
0.0572964
0.0586489
0.0599691
0.0612552
0.0625055
0.0637181
0.0648916
0.0660242
0.0671145
0.0681609
0.0691622
0.0701169
0.0710238
0.0718817
0.0726896
0.0734466
0.0741516
0.0748039
0.0754029
0.0759479
0.0764385
0.0768744
0.0772552
0.0775809
0.0778515
0.0780671
0.0782282
0.0783349
0.078388
0.0783882
0.0783363
0.0782333
0.0780805
0.0778791
0.0776306
0.0773368
0.0769994
0.0766205
0.0762023
0.075747
0.0752572
0.0747357
0.0741852
0.0736088
0.0730097
0.0723912
0.071757
0.0711105
0.0704557
0.0697964
0.0691367
0.0684806
0.0678324
0.0671964
0.0665766
0.0659775
0.0654031
0.0648576
0.0643452
0.0638695
0.0634344
0.0630442
0.0627036
0.0624016
0.062125
0.00624296
0.00583332
0.00542802
0.0050052
0.00454333
0.00404672
0.00352002
0.00296627
0.00238872
0.00179091
0.00117647
0.000549105
-8.74525e-05
-0.00072946
-0.00137319
-0.00201497
-0.0026512
-0.00327835
-0.00389302
-0.00449194
-0.00507193
-0.00562999
-0.00616324
-0.00666897
-0.00714462
-0.00758777
-0.00799618
-0.00836776
-0.00870057
-0.00899282
-0.00924289
-0.00944929
-0.00961069
-0.00972588
-0.00979382
-0.00981358
-0.00978437
-0.00970552
-0.0095765
-0.00939689
-0.00916639
-0.0088848
-0.00855205
-0.00816815
-0.00773323
-0.00724752
-0.00671133
-0.00612507
-0.00548923
-0.0048044
-0.00407125
-0.00329052
-0.00246302
-0.00158967
-0.000671413
0.000290704
0.00129558
0.00234205
0.00342889
0.00455481
0.00571847
0.00691847
0.00815335
0.00942163
0.0107217
0.0120521
0.013411
0.0147969
0.016208
0.0176425
0.0190986
0.0205746
0.0220685
0.0235785
0.0251026
0.0266389
0.0281855
0.0297403
0.0313014
0.0328668
0.0344343
0.036002
0.0375679
0.0391298
0.0406857
0.0422336
0.0437714
0.0452971
0.0468086
0.048304
0.0497811
0.051238
0.0526728
0.0540834
0.0554681
0.0568248
0.0581518
0.0594472
0.0607093
0.0619364
0.0631267
0.0642786
0.0653907
0.0664613
0.0674891
0.0684727
0.0694108
0.0703022
0.0711457
0.0719402
0.072685
0.0733789
0.0740214
0.0746116
0.0751491
0.0756334
0.0760641
0.076441
0.076764
0.0770331
0.0772485
0.0774104
0.0775191
0.0775754
0.0775798
0.0775332
0.0774365
0.077291
0.0770978
0.0768584
0.0765743
0.0762475
0.0758797
0.075473
0.0750297
0.0745521
0.0740428
0.0735045
0.07294
0.0723524
0.0717449
0.0711206
0.070483
0.0698356
0.0691821
0.0685262
0.0678716
0.0672221
0.0665817
0.0659542
0.0653434
0.0647531
0.064187
0.0636486
0.0631412
0.0626681
0.0622335
0.0618417
0.0614748
0.0611138
0.00730134
0.00680276
0.00632812
0.00584977
0.00533904
0.00480005
0.00423735
0.00365347
0.00305111
0.00243334
0.00180336
0.00116443
0.000519883
-0.000126943
-0.000772694
-0.00141405
-0.00204773
-0.00267054
-0.00327936
-0.00387117
-0.00444306
-0.00499226
-0.0055161
-0.00601206
-0.00647775
-0.00691094
-0.00730952
-0.00767152
-0.00799513
-0.00827868
-0.00852064
-0.0087196
-0.00887431
-0.00898363
-0.00904657
-0.00906226
-0.00902995
-0.00894902
-0.00881895
-0.00863937
-0.00840997
-0.00813059
-0.00780116
-0.00742171
-0.00699235
-0.00651332
-0.00598493
-0.00540757
-0.00478173
-0.00410799
-0.00338699
-0.00261945
-0.00180619
-0.00094807
-4.60341e-05
0.000898908
0.00188568
0.00291316
0.00398013
0.00508535
0.0062275
0.00740523
0.00861711
0.00986168
0.0111374
0.0124428
0.0137762
0.0151359
0.0165204
0.0179278
0.0193565
0.0208045
0.0222702
0.0237517
0.025247
0.0267544
0.0282718
0.0297973
0.031329
0.032865
0.0344031
0.0359414
0.037478
0.0390107
0.0405377
0.0420568
0.0435661
0.0450636
0.0465472
0.048015
0.0494651
0.0508954
0.0523041
0.0536891
0.0550488
0.0563812
0.0576844
0.0589568
0.0601966
0.061402
0.0625716
0.0637036
0.0647966
0.065849
0.0668595
0.0678267
0.0687494
0.0696263
0.0704564
0.0712386
0.071972
0.0726557
0.0732889
0.0738711
0.0744015
0.0748799
0.0753057
0.0756788
0.0759992
0.0762667
0.0764814
0.0766438
0.0767541
0.0768129
0.0768207
0.0767785
0.0766871
0.0765476
0.0763612
0.0761294
0.0758535
0.0755353
0.0751766
0.0747793
0.0743456
0.0738777
0.0733781
0.0728492
0.0722937
0.0717146
0.0711147
0.070497
0.0698648
0.0692213
0.0685699
0.0679141
0.0672571
0.0666026
0.0659541
0.065315
0.0646889
0.064079
0.0634886
0.0629209
0.0623787
0.0618646
0.0613829
0.0609377
0.0605041
0.0600577
0.00839079
0.00780298
0.00725801
0.00672254
0.00616094
0.0055772
0.00497587
0.00435898
0.00372877
0.00308787
0.00243906
0.00178523
0.0011293
0.00047428
-0.000176848
-0.00082109
-0.00145549
-0.00207712
-0.00268316
-0.00327083
-0.00383749
-0.00438055
-0.00489758
-0.00538624
-0.00584431
-0.00626971
-0.00666049
-0.00701482
-0.00733099
-0.00760746
-0.00784277
-0.00803563
-0.00818485
-0.00828936
-0.00834825
-0.00836068
-0.00832596
-0.0082435
-0.00811284
-0.0079336
-0.00770553
-0.00742847
-0.00710237
-0.00672726
-0.00630327
-0.00583063
-0.00530964
-0.00474072
-0.00412432
-0.00346102
-0.00275145
-0.00199631
-0.0011964
-0.000352565
0.000534273
0.00146313
0.00243295
0.00344264
0.00449102
0.00557687
0.0066989
0.00785579
0.00904615
0.0102686
0.0115215
0.0128035
0.014113
0.0154484
0.0168079
0.0181901
0.019593
0.021015
0.0224544
0.0239092
0.0253777
0.0268579
0.0283481
0.0298463
0.0313507
0.0328591
0.0343698
0.0358808
0.0373901
0.0388957
0.0403957
0.041888
0.0433708
0.044842
0.0462997
0.047742
0.0491669
0.0505725
0.0519569
0.0533183
0.0546547
0.0559645
0.0572458
0.0584968
0.0597159
0.0609015
0.0620518
0.0631654
0.0642407
0.0652763
0.0662708
0.067223
0.0681314
0.0689951
0.0698128
0.0705835
0.0713064
0.0719806
0.0726053
0.0731799
0.0737037
0.0741765
0.0745977
0.0749672
0.0752849
0.0755507
0.0757647
0.0759273
0.0760386
0.0760993
0.0761099
0.0760712
0.075984
0.0758495
0.0756686
0.0754428
0.0751735
0.0748622
0.0745107
0.0741209
0.0736946
0.0732341
0.0727416
0.0722196
0.0716704
0.0710968
0.0705016
0.0698875
0.0692575
0.0686146
0.067962
0.0673027
0.06664
0.065977
0.065317
0.0646629
0.0640181
0.0633853
0.0627677
0.0621678
0.061588
0.0610305
0.0604996
0.0599992
0.0594979
0.0589655
0.00950283
0.00882599
0.00821016
0.00761649
0.00700249
0.00637211
0.00572995
0.00507762
0.00441693
0.00375013
0.00307962
0.00240791
0.00173759
0.00107133
0.000411791
-0.000238348
-0.000876418
-0.00149979
-0.00210587
-0.00269215
-0.00325621
-0.00379568
-0.00430831
-0.00479196
-0.00524458
-0.00566425
-0.00604914
-0.00639758
-0.00670798
-0.00697888
-0.00720895
-0.00739696
-0.00754183
-0.00764255
-0.00769826
-0.0077082
-0.00767172
-0.00758828
-0.00745744
-0.00727886
-0.00705232
-0.00677768
-0.0064549
-0.00608404
-0.00566522
-0.00519868
-0.00468473
-0.00412377
-0.00351627
-0.00286278
-0.00216393
-0.00142041
-0.000632988
0.000197491
0.00107013
0.00198396
0.00293797
0.00393105
0.00496208
0.00602986
0.00713313
0.00827059
0.00944089
0.0106426
0.0118744
0.0131346
0.0144218
0.0157344
0.0170708
0.0184294
0.0198084
0.0212062
0.0226209
0.024051
0.0254945
0.0269496
0.0284144
0.0298872
0.0313661
0.0328491
0.0343343
0.0358199
0.0373038
0.0387842
0.0402592
0.0417267
0.0431849
0.0446318
0.0460655
0.0474842
0.0488858
0.0502686
0.0516306
0.05297
0.0542851
0.055574
0.056835
0.0580664
0.0592665
0.0604337
0.0615663
0.0626629
0.063722
0.0647422
0.065722
0.0666603
0.0675557
0.0684071
0.0692134
0.0699737
0.0706869
0.0713523
0.0719692
0.0725367
0.0730545
0.0735221
0.073939
0.074305
0.0746201
0.0748841
0.0750972
0.0752596
0.0753716
0.0754336
0.0754463
0.0754103
0.0753264
0.0751957
0.0750192
0.0747981
0.0745339
0.0742279
0.0738819
0.0734975
0.0730766
0.0726214
0.0721338
0.0716161
0.0710707
0.0705
0.0699066
0.0692932
0.0686625
0.0680172
0.0673603
0.0666945
0.0660229
0.0653483
0.0646736
0.0640016
0.063335
0.0626767
0.062029
0.0613944
0.0607748
0.0601719
0.0595902
0.0590335
0.0584637
0.0578455
0.0106297
0.00986442
0.00917763
0.00852504
0.0078575
0.00717899
0.00649421
0.0058044
0.00511099
0.00441588
0.00372114
0.00302894
0.00234155
0.00166133
0.000990638
0.000331878
-0.000312562
-0.000940311
-0.00154903
-0.00213645
-0.00270033
-0.00323855
-0.00374903
-0.00422981
-0.00467901
-0.00509484
-0.00547566
-0.00581988
-0.00612605
-0.00639282
-0.00661895
-0.00680332
-0.00694491
-0.00704279
-0.00709617
-0.00710435
-0.00706672
-0.00698279
-0.00685216
-0.00667454
-0.00644971
-0.00617758
-0.00585811
-0.00549138
-0.00507754
-0.00461682
-0.00410953
-0.00355608
-0.00295693
-0.00231263
-0.0016238
-0.000891121
-0.000115358
0.000702674
0.00156209
0.00246194
0.00340123
0.00437888
0.00539378
0.00644476
0.00753059
0.00865
0.00980167
0.0109842
0.0121962
0.0134362
0.0147028
0.0159943
0.0173092
0.0186459
0.0200027
0.021378
0.02277
0.0241771
0.0255974
0.0270292
0.0284706
0.0299199
0.0313752
0.0328346
0.0342963
0.0357583
0.0372189
0.038676
0.0401278
0.0415725
0.043008
0.0444325
0.0458441
0.047241
0.0486212
0.0499829
0.0513244
0.0526437
0.0539391
0.0552089
0.0564513
0.0576647
0.0588473
0.0599977
0.0611142
0.0621953
0.0632395
0.0642456
0.065212
0.0661376
0.0670211
0.0678613
0.0686573
0.0694079
0.0701124
0.0707698
0.0713794
0.0719406
0.0724527
0.0729154
0.0733283
0.0736911
0.0740036
0.0742658
0.0744778
0.0746398
0.074752
0.0748149
0.074829
0.0747949
0.0747135
0.0745856
0.0744123
0.0741947
0.0739342
0.073632
0.0732897
0.0729091
0.0724917
0.0720396
0.0715548
0.0710392
0.0704952
0.069925
0.0693309
0.0687156
0.0680814
0.067431
0.0667669
0.0660919
0.0654085
0.0647195
0.0640273
0.0633346
0.0626438
0.0619573
0.0612773
0.0606058
0.0599445
0.0592948
0.058661
0.0580472
0.0574088
0.0567051
0.0117644
0.0109115
0.0101539
0.00944202
0.00872014
0.00799236
0.00726353
0.00653455
0.00580651
0.00508102
0.00435984
0.00364484
0.00293801
0.00224139
0.0015571
0.000887254
0.000233999
-0.000400544
-0.00101427
-0.00160512
-0.00217108
-0.0027102
-0.0032206
-0.00370049
-0.00414814
-0.00456194
-0.00494033
-0.0052819
-0.0055853
-0.00584928
-0.00607271
-0.00625455
-0.00639387
-0.00648981
-0.00654164
-0.00654873
-0.00651053
-0.00642658
-0.00629653
-0.00612012
-0.00589718
-0.00562763
-0.00531145
-0.00494874
-0.00453967
-0.00408447
-0.00358348
-0.00303707
-0.00244574
-0.00181002
-0.00113052
-0.000407933
0.000357006
0.00116348
0.00201064
0.00289753
0.00382318
0.00478654
0.00578651
0.00682195