/*--------------------------------*- C++ -*----------------------------------*\
  =========                 |
  \\      /  F ield         | OpenFOAM: The Open Source CFD Toolbox
   \\    /   O peration     | Website:  https://openfoam.org
    \\  /    A nd           | Version:  7
     \\/     M anipulation  |
\*---------------------------------------------------------------------------*/
FoamFile
{
    version     2.0;
    format      ascii;
    class       surfaceScalarField;
    location    "0.275";
    object      phi;
}
// * * * * * * * * * * * * * * * * * * * * * * * * * * * * * * * * * * * * * //

dimensions      [0 3 -1 0 0 0 0];

internalField   nonuniform List<scalar> 
50880
(
6.1213e-12
-6.12235e-12
3.6286e-11
-3.01632e-11
8.11523e-11
-4.48687e-11
1.30759e-10
-4.96081e-11
1.77963e-10
-4.72064e-11
2.1779e-10
-3.98277e-11
2.46813e-10
-2.90212e-11
2.62716e-10
-1.59017e-11
2.63974e-10
-1.25808e-12
2.49625e-10
1.43498e-11
2.1911e-10
3.05162e-11
1.72167e-10
4.69427e-11
1.08762e-10
6.34054e-11
2.90276e-11
7.97346e-11
-6.67723e-11
9.58e-11
-1.78273e-10
1.11501e-10
-3.05032e-10
1.26759e-10
-4.46547e-10
1.41515e-10
-6.02265e-10
1.55719e-10
-7.71602e-10
1.69336e-10
-9.53941e-10
1.82339e-10
-1.14865e-09
1.94706e-10
-1.35507e-09
2.06421e-10
-1.57254e-09
2.17473e-10
-1.80039e-09
2.27855e-10
-2.03796e-09
2.37563e-10
-2.28455e-09
2.46595e-10
-2.5395e-09
2.54952e-10
-2.80214e-09
2.62638e-10
-3.0718e-09
2.69655e-10
-3.3478e-09
2.76009e-10
-3.62951e-09
2.81706e-10
-3.91627e-09
2.86755e-10
-4.20743e-09
2.91163e-10
-4.50237e-09
2.94941e-10
-4.80047e-09
2.98096e-10
-5.10111e-09
3.0064e-10
-5.40369e-09
3.02583e-10
-5.70763e-09
3.03936e-10
-6.01234e-09
3.0471e-10
-6.31725e-09
3.04917e-10
-6.62183e-09
3.0457e-10
-6.92551e-09
3.03679e-10
-7.22776e-09
3.02259e-10
-7.52808e-09
3.0032e-10
-7.82596e-09
2.97875e-10
-8.1209e-09
2.94937e-10
-8.41242e-09
2.91519e-10
-8.70005e-09
2.87634e-10
-8.98334e-09
2.83294e-10
-9.26186e-09
2.78512e-10
-9.53516e-09
2.73302e-10
-9.80283e-09
2.67677e-10
-1.00645e-08
2.61649e-10
-1.03197e-08
2.55231e-10
-1.05682e-08
2.48438e-10
-1.08094e-08
2.41281e-10
-1.10432e-08
2.33774e-10
-1.12691e-08
2.25931e-10
-1.14869e-08
2.17765e-10
-1.16962e-08
2.09288e-10
-1.18967e-08
2.00516e-10
-1.20882e-08
1.9146e-10
-1.22703e-08
1.82134e-10
-1.24429e-08
1.72552e-10
-1.26056e-08
1.62727e-10
-1.27583e-08
1.52673e-10
-1.29007e-08
1.42404e-10
-1.30326e-08
1.31933e-10
-1.31539e-08
1.21275e-10
-1.32643e-08
1.10444e-10
-1.33638e-08
9.94534e-11
-1.34521e-08
8.83178e-11
-1.35291e-08
7.70511e-11
-1.35948e-08
6.56678e-11
-1.3649e-08
5.41828e-11
-1.36916e-08
4.2611e-11
-1.37226e-08
3.09671e-11
-1.37418e-08
1.92657e-11
-1.37493e-08
7.52212e-12
-1.37451e-08
-4.24817e-12
-1.37291e-08
-1.60299e-11
-1.37012e-08
-2.78081e-11
-1.36617e-08
-3.95669e-11
-1.36104e-08
-5.12898e-11
-1.35474e-08
-6.29608e-11
-1.34729e-08
-7.45646e-11
-1.33868e-08
-8.60852e-11
-1.32893e-08
-9.75053e-11
-1.31805e-08
-1.08808e-10
-1.30605e-08
-1.19979e-10
-1.29295e-08
-1.31e-10
-1.27876e-08
-1.41855e-10
-1.26351e-08
-1.52525e-10
-1.24721e-08
-1.62995e-10
-1.22989e-08
-1.73248e-10
-1.21156e-08
-1.83267e-10
-1.19226e-08
-1.93035e-10
-1.172e-08
-2.02533e-10
-1.15083e-08
-2.11747e-10
-1.12876e-08
-2.20657e-10
-1.10584e-08
-2.29248e-10
-1.08209e-08
-2.37502e-10
-1.05755e-08
-2.45402e-10
-1.03225e-08
-2.52932e-10
-1.00625e-08
-2.60075e-10
-9.79564e-09
-2.66814e-10
-9.5225e-09
-2.73133e-10
-9.24349e-09
-2.79016e-10
-8.95904e-09
-2.84447e-10
-8.66963e-09
-2.8941e-10
-8.37574e-09
-2.9389e-10
-8.07787e-09
-2.97871e-10
-7.77653e-09
-3.0134e-10
-7.47225e-09
-3.04282e-10
-7.16557e-09
-3.06682e-10
-6.85704e-09
-3.08527e-10
-6.54724e-09
-3.09804e-10
-6.23674e-09
-3.105e-10
-5.92613e-09
-3.10604e-10
-5.61603e-09
-3.10105e-10
-5.30704e-09
-3.0899e-10
-4.99978e-09
-3.07251e-10
-4.69491e-09
-3.04878e-10
-4.39305e-09
-3.01861e-10
-4.09485e-09
-2.98195e-10
-3.80098e-09
-2.9387e-10
-3.5121e-09
-2.88882e-10
-3.22887e-09
-2.83226e-10
-2.95197e-09
-2.76898e-10
-2.68208e-09
-2.69895e-10
-2.41986e-09
-2.62216e-10
-2.166e-09
-2.53862e-10
-1.92117e-09
-2.44835e-10
-1.68603e-09
-2.35138e-10
-1.46125e-09
-2.24778e-10
-1.24749e-09
-2.13764e-10
-1.04538e-09
-2.02106e-10
-8.5556e-10
-1.8982e-10
-6.78635e-10
-1.76925e-10
-5.15191e-10
-1.63444e-10
-3.65786e-10
-1.49405e-10
-2.3094e-10
-1.34846e-10
-1.11129e-10
-1.19811e-10
-6.77395e-12
-1.04355e-10
8.17736e-11
-8.85476e-11
1.54247e-10
-7.24736e-11
2.10488e-10
-5.62415e-11
2.50477e-10
-3.99888e-11
2.7437e-10
-2.38925e-11
2.82552e-10
-8.18144e-12
2.7571e-10
6.84171e-12
2.54944e-10
2.07681e-11
2.21908e-10
3.30369e-11
1.79034e-10
4.28694e-11
1.29838e-10
4.91833e-11
7.93337e-11
5.04961e-11
3.45977e-11
4.4754e-11
5.30506e-12
2.93505e-11
5.36728e-12
3.01474e-11
-3.62709e-11
1.01274e-10
-1.01284e-10
1.95477e-10
-1.39068e-10
2.95717e-10
-1.49845e-10
3.8764e-10
-1.39127e-10
4.60009e-10
-1.12198e-10
5.04369e-10
-7.33826e-11
5.14537e-10
-2.60707e-11
4.86124e-10
2.71538e-11
4.16133e-10
8.43393e-11
3.02646e-10
1.44002e-10
1.44579e-10
2.05008e-10
-5.84986e-11
2.66482e-10
-3.0651e-10
3.27744e-10
-5.98974e-10
3.88262e-10
-9.35093e-10
4.47618e-10
-1.31382e-09
5.05481e-10
-1.73389e-09
5.61589e-10
-2.19391e-09
6.15735e-10
-2.69233e-09
6.67757e-10
-3.22752e-09
7.17527e-10
-3.79777e-09
7.64945e-10
-4.40129e-09
8.09937e-10
-5.03627e-09
8.52447e-10
-5.70085e-09
8.92433e-10
-6.39316e-09
9.29869e-10
-7.11131e-09
9.6474e-10
-7.8534e-09
9.9704e-10
-8.61754e-09
1.02677e-09
-9.40183e-09
1.05394e-09
-1.02044e-08
1.07857e-09
-1.10234e-08
1.10067e-09
-1.18569e-08
1.12027e-09
-1.27031e-08
1.1374e-09
-1.35603e-08
1.15208e-09
-1.44265e-08
1.16436e-09
-1.53002e-08
1.17427e-09
-1.61795e-08
1.18185e-09
-1.70627e-08
1.18714e-09
-1.79481e-08
1.19017e-09
-1.88342e-08
1.191e-09
-1.97193e-08
1.18967e-09
-2.06019e-08
1.18623e-09
-2.14803e-08
1.18071e-09
-2.23532e-08
1.17317e-09
-2.3219e-08
1.16366e-09
-2.40762e-08
1.15222e-09
-2.49236e-08
1.1389e-09
-2.57597e-08
1.12375e-09
-2.65833e-08
1.10683e-09
-2.7393e-08
1.08818e-09
-2.81875e-08
1.06785e-09
-2.89657e-08
1.04589e-09
-2.97264e-08
1.02236e-09
-3.04685e-08
9.97304e-10
-3.11909e-08
9.70773e-10
-3.18924e-08
9.42818e-10
-3.25721e-08
9.13492e-10
-3.3229e-08
8.82848e-10
-3.38622e-08
8.50935e-10
-3.44707e-08
8.17808e-10
-3.50537e-08
7.83518e-10
-3.56104e-08
7.48117e-10
-3.61399e-08
7.1166e-10
-3.66416e-08
6.74199e-10
-3.71146e-08
6.35787e-10
-3.75584e-08
5.96478e-10
-3.79723e-08
5.56326e-10
-3.83558e-08
5.15385e-10
-3.87082e-08
4.73711e-10
-3.90291e-08
4.31358e-10
-3.93181e-08
3.88382e-10
-3.95746e-08
3.44838e-10
-3.97983e-08
3.00785e-10
-3.99889e-08
2.56277e-10
-4.01461e-08
2.11372e-10
-4.02696e-08
1.66128e-10
-4.03593e-08
1.20605e-10
-4.04149e-08
7.48592e-11
-4.04363e-08
2.89513e-11
-4.04235e-08
-1.70588e-11
-4.03764e-08
-6.31103e-11
-4.02951e-08
-1.09143e-10
-4.01795e-08
-1.55095e-10
-4.00299e-08
-2.00906e-10
-3.98464e-08
-2.4651e-10
-3.96291e-08
-2.91846e-10
-3.93783e-08
-3.36851e-10
-3.90943e-08
-3.81461e-10
-3.87775e-08
-4.2561e-10
-3.84283e-08
-4.69234e-10
-3.8047e-08
-5.12268e-10
-3.76342e-08
-5.54646e-10
-3.71904e-08
-5.96304e-10
-3.67163e-08
-6.37173e-10
-3.62123e-08
-6.77188e-10
-3.56793e-08
-7.16283e-10
-3.51179e-08
-7.5439e-10
-3.4529e-08
-7.91445e-10
-3.39134e-08
-8.27379e-10
-3.32719e-08
-8.62127e-10
-3.26055e-08
-8.95622e-10
-3.19152e-08
-9.27798e-10
-3.1202e-08
-9.5859e-10
-3.0467e-08
-9.87933e-10
-2.97114e-08
-1.01576e-09
-2.89362e-08
-1.04201e-09
-2.81427e-08
-1.06662e-09
-2.73321e-08
-1.08953e-09
-2.65059e-08
-1.11067e-09
-2.56653e-08
-1.12998e-09
-2.48118e-08
-1.14741e-09
-2.39468e-08
-1.1629e-09
-2.30717e-08
-1.17638e-09
-2.21882e-08
-1.18781e-09
-2.12977e-08
-1.19714e-09
-2.0402e-08
-1.2043e-09
-1.95025e-08
-1.20926e-09
-1.8601e-08
-1.21196e-09
-1.76993e-08
-1.21235e-09
-1.6799e-08
-1.21041e-09
-1.59019e-08
-1.20607e-09
-1.50098e-08
-1.19932e-09
-1.41246e-08
-1.1901e-09
-1.32481e-08
-1.1784e-09
-1.23821e-08
-1.16419e-09
-1.15285e-08
-1.14743e-09
-1.06893e-08
-1.12812e-09
-9.86625e-09
-1.10623e-09
-9.06139e-09
-1.08175e-09
-8.2766e-09
-1.05468e-09
-7.51379e-09
-1.02503e-09
-6.77486e-09
-9.92785e-10
-6.06172e-09
-9.57975e-10
-5.37624e-09
-9.20617e-10
-4.72027e-09
-8.80743e-10
-4.09563e-09
-8.38396e-10
-3.50411e-09
-7.93628e-10
-2.94742e-09
-7.4651e-10
-2.42721e-09
-6.97127e-10
-1.94507e-09
-6.45582e-10
-1.50247e-09
-5.92005e-10
-1.10076e-09
-5.36552e-10
-7.41154e-10
-4.79418e-10
-4.24671e-10
-4.20837e-10
-1.52117e-10
-3.61099e-10
7.59732e-11
-3.00562e-10
2.59403e-10
-2.3967e-10
3.98392e-10
-1.78977e-10
4.93686e-10
-1.19185e-10
5.46688e-10
-6.11822e-11
5.59636e-10
-6.10885e-12
5.35846e-10
4.45581e-11
4.80005e-10
8.8886e-11
3.98553e-10
1.2434e-10
3.00114e-10
1.47633e-10
1.95934e-10
1.54644e-10
1.00143e-10
1.40456e-10
2.9222e-11
1.00164e-10
3.46313e-11
4.48694e-11
-8.11455e-11
1.39143e-10
-1.95557e-10
2.56311e-10
-2.56238e-10
3.74761e-10
-2.68295e-10
4.76225e-10
-2.4059e-10
5.45833e-10
-1.81805e-10
5.71884e-10
-9.9434e-11
5.45431e-10
3.83418e-13
4.59841e-10
1.12743e-10
3.10381e-10
2.33799e-10
9.38592e-11
3.60523e-10
-1.9167e-10
4.90537e-10
-5.47154e-10
6.21965e-10
-9.72731e-10
7.53321e-10
-1.46789e-09
8.83423e-10
-2.0316e-09
1.01133e-09
-2.6624e-09
1.13628e-09
-3.35849e-09
1.25767e-09
-4.11778e-09
1.37502e-09
-4.93797e-09
1.48795e-09
-5.81658e-09
1.59613e-09
-6.75097e-09
1.69934e-09
-7.73842e-09
1.79738e-09
-8.77608e-09
1.89011e-09
-9.86106e-09
1.97742e-09
-1.09904e-08
2.05923e-09
-1.21612e-08
2.1355e-09
-1.33704e-08
2.2062e-09
-1.46149e-08
2.27133e-09
-1.58919e-08
2.33088e-09
-1.71982e-08
2.38489e-09
-1.85309e-08
2.43339e-09
-1.98871e-08
2.47643e-09
-2.12637e-08
2.51405e-09
-2.2658e-08
2.54632e-09
-2.40669e-08
2.57332e-09
-2.54878e-08
2.59511e-09
-2.69177e-08
2.61178e-09
-2.8354e-08
2.62341e-09
-2.97939e-08
2.63009e-09
-3.12348e-08
2.63191e-09
-3.26741e-08
2.62897e-09
-3.41093e-08
2.62137e-09
-3.55377e-08
2.6092e-09
-3.69571e-08
2.59256e-09
-3.83651e-08
2.57157e-09
-3.97592e-08
2.54632e-09
-4.11372e-08
2.51693e-09
-4.24969e-08
2.48349e-09
-4.38362e-08
2.44613e-09
-4.5153e-08
2.40494e-09
-4.64452e-08
2.36004e-09
-4.77108e-08
2.31154e-09
-4.8948e-08
2.25955e-09
-5.01549e-08
2.20419e-09
-5.13297e-08
2.14556e-09
-5.24707e-08
2.08379e-09
-5.35762e-08
2.01897e-09
-5.46446e-08
1.95124e-09
-5.56743e-08
1.8807e-09
-5.6664e-08
1.80747e-09
-5.76121e-08
1.73166e-09
-5.85174e-08
1.6534e-09
-5.93785e-08
1.57279e-09
-6.01943e-08
1.48996e-09
-6.09635e-08
1.40503e-09
-6.16852e-08
1.31811e-09
-6.23582e-08
1.22933e-09
-6.29816e-08
1.1388e-09
-6.35545e-08
1.04665e-09
-6.40762e-08
9.52999e-10
-6.45458e-08
8.57969e-10
-6.49626e-08
7.61686e-10
-6.53261e-08
6.64275e-10
-6.56357e-08
5.65862e-10
-6.58909e-08
4.66575e-10
-6.60913e-08
3.66541e-10
-6.62366e-08
2.65891e-10
-6.63265e-08
1.64755e-10
-6.63608e-08
6.3264e-11
-6.63394e-08
-3.84485e-11
-6.62623e-08
-1.40248e-10
-6.61294e-08
-2.42e-10
-6.59409e-08
-3.43567e-10
-6.5697e-08
-4.44814e-10
-6.53979e-08
-5.45601e-10
-6.5044e-08
-6.45788e-10
-6.46356e-08
-7.45235e-10
-6.41732e-08
-8.43801e-10
-6.36575e-08
-9.41343e-10
-6.3089e-08
-1.03772e-09
-6.24685e-08
-1.13278e-09
-6.17968e-08
-1.22638e-09
-6.10747e-08
-1.31839e-09
-6.03032e-08
-1.40864e-09
-5.94834e-08
-1.497e-09
-5.86164e-08
-1.58332e-09
-5.77033e-08
-1.66746e-09
-5.67455e-08
-1.74925e-09
-5.57443e-08
-1.82857e-09
-5.47012e-08
-1.90526e-09
-5.36176e-08
-1.97918e-09
-5.24952e-08
-2.05018e-09
-5.13357e-08
-2.11811e-09
-5.01408e-08
-2.18284e-09
-4.89123e-08
-2.24423e-09
-4.76522e-08
-2.30212e-09
-4.63624e-08
-2.35639e-09
-4.50451e-08
-2.4069e-09
-4.37022e-08
-2.45351e-09
-4.23361e-08
-2.49609e-09
-4.0949e-08
-2.53451e-09
-3.95433e-08
-2.56864e-09
-3.81213e-08
-2.59836e-09
-3.66855e-08
-2.62356e-09
-3.52386e-08
-2.64411e-09
-3.3783e-08
-2.6599e-09
-3.23214e-08
-2.67084e-09
-3.08565e-08
-2.6768e-09
-2.93912e-08
-2.6777e-09
-2.79281e-08
-2.67345e-09
-2.64703e-08
-2.66395e-09
-2.50204e-08
-2.64914e-09
-2.35816e-08
-2.62894e-09
-2.21567e-08
-2.60328e-09
-2.07488e-08
-2.5721e-09
-1.93609e-08
-2.53537e-09
-1.79959e-08
-2.49304e-09
-1.66571e-08
-2.44508e-09
-1.53474e-08
-2.39147e-09
-1.40698e-08
-2.33222e-09
-1.28275e-08
-2.26733e-09
-1.16235e-08
-2.19682e-09
-1.04607e-08
-2.12074e-09
-9.3422e-09
-2.03914e-09
-8.27083e-09
-1.95211e-09
-7.24947e-09
-1.85975e-09
-6.28089e-09
-1.7622e-09
-5.36777e-09
-1.65963e-09
-4.51266e-09
-1.55223e-09
-3.71797e-09
-1.44027e-09
-2.98594e-09
-1.32404e-09
-2.31857e-09
-1.20392e-09
-1.71764e-09
-1.08035e-09
-1.1846e-09
-9.53876e-10
-7.20533e-10
-8.25165e-10
-3.26068e-10
-6.95025e-10
-1.28948e-12
-5.64448e-10
2.54393e-10
-4.34659e-10
4.42388e-10
-3.07179e-10
5.65117e-10
-1.83908e-10
6.26233e-10
-6.72257e-11
6.30914e-10
3.98688e-11
5.86201e-10
1.3359e-10
5.0138e-10
2.09168e-10
3.88379e-10
2.60674e-10
2.62095e-10
2.80983e-10
1.40534e-10
2.62032e-10
4.46751e-11
1.95955e-10
7.93139e-11
4.96945e-11
-1.30842e-10
1.50229e-10
-2.9609e-10
2.68976e-10
-3.74986e-10
3.80755e-10
-3.80075e-10
4.64769e-10
-3.24603e-10
5.03957e-10
-2.20994e-10
4.84609e-10
-8.0085e-11
3.95956e-10
8.90365e-11
2.29774e-10
2.78926e-10
-1.99865e-11
4.83558e-10
-3.57549e-10
6.98085e-10
-7.85619e-10
9.18607e-10
-1.30564e-09
1.14199e-09
-1.91803e-09
1.36571e-09
-2.62233e-09
1.58772e-09
-3.41738e-09
1.80638e-09
-4.30146e-09
2.02036e-09
-5.27235e-09
2.22856e-09
-6.32744e-09
2.43011e-09
-7.4638e-09
2.62431e-09
-8.67826e-09
2.81059e-09
-9.9674e-09
2.98848e-09
-1.13276e-08
3.15763e-09
-1.27553e-08
3.31777e-09
-1.42466e-08
3.46867e-09
-1.57975e-08
3.61019e-09
-1.74042e-08
3.7422e-09
-1.90627e-08
3.86466e-09
-2.07689e-08
3.97752e-09
-2.25188e-08
4.08079e-09
-2.43084e-08
4.17448e-09
-2.61336e-08
4.25865e-09
-2.79906e-08
4.33337e-09
-2.98752e-08
4.39871e-09
-3.17837e-08
4.45477e-09
-3.37121e-08
4.50168e-09
-3.56565e-08
4.53954e-09
-3.76132e-08
4.56849e-09
-3.95784e-08
4.58867e-09
-4.15486e-08
4.60023e-09
-4.352e-08
4.60333e-09
-4.54892e-08
4.59813e-09
-4.74526e-08
4.58479e-09
-4.94069e-08
4.56349e-09
-5.13487e-08
4.53439e-09
-5.32748e-08
4.49768e-09
-5.5182e-08
4.45353e-09
-5.70673e-08
4.40214e-09
-5.89275e-08
4.34369e-09
-6.07597e-08
4.27836e-09
-6.25611e-08
4.20634e-09
-6.43289e-08
4.12783e-09
-6.60604e-08
4.04302e-09
-6.77529e-08
3.9521e-09
-6.9404e-08
3.85528e-09
-7.10112e-08
3.75274e-09
-7.25721e-08
3.64468e-09
-7.40844e-08
3.53131e-09
-7.5546e-08
3.41282e-09
-7.69547e-08
3.28942e-09
-7.83085e-08
3.1613e-09
-7.96056e-08
3.02868e-09
-8.08439e-08
2.89175e-09
-8.20218e-08
2.75072e-09
-8.31377e-08
2.60579e-09
-8.41898e-08
2.45719e-09
-8.51768e-08
2.3051e-09
-8.60972e-08
2.14975e-09
-8.69498e-08
1.99135e-09
-8.77332e-08
1.8301e-09
-8.84464e-08
1.66623e-09
-8.90884e-08
1.49995e-09
-8.96582e-08
1.33148e-09
-9.0155e-08
1.16104e-09
-9.0578e-08
9.88848e-10
-9.09265e-08
8.15131e-10
-9.12001e-08
6.40113e-10
-9.13982e-08
4.64022e-10
-9.15206e-08
2.87087e-10
-9.15668e-08
1.09538e-10
-9.15369e-08
-6.83904e-11
-9.14307e-08
-2.46465e-10
-9.12482e-08
-4.24447e-10
-9.09897e-08
-6.02098e-10
-9.06553e-08
-7.79178e-10
-9.02455e-08
-9.55444e-10
-8.97606e-08
-1.13065e-09
-8.92013e-08
-1.30455e-09
-8.85682e-08
-1.4769e-09
-8.78621e-08
-1.64745e-09
-8.70839e-08
-1.81594e-09
-8.62345e-08
-1.98213e-09
-8.53151e-08
-2.14576e-09
-8.43269e-08
-2.30658e-09
-8.32712e-08
-2.46433e-09
-8.21495e-08
-2.61876e-09
-8.09632e-08
-2.76961e-09
-7.9714e-08
-2.91663e-09
-7.84037e-08
-3.05955e-09
-7.70341e-08
-3.19813e-09
-7.56073e-08
-3.33211e-09
-7.41252e-08
-3.46123e-09
-7.25902e-08
-3.58524e-09
-7.10044e-08
-3.7039e-09
-6.93703e-08
-3.81695e-09
-6.76904e-08
-3.92414e-09
-6.59672e-08
-4.02524e-09
-6.42036e-08
-4.12e-09
-6.24023e-08
-4.20818e-09
-6.05663e-08
-4.28955e-09
-5.86985e-08
-4.36389e-09
-5.6802e-08
-4.43097e-09
-5.48801e-08
-4.49056e-09
-5.2936e-08
-4.54246e-09
-5.09731e-08
-4.58647e-09
-4.89948e-08
-4.62237e-09
-4.70047e-08
-4.64999e-09
-4.50064e-08
-4.66913e-09
-4.30036e-08
-4.67962e-09
-4.1e-08
-4.6813e-09
-3.89994e-08
-4.67401e-09
-3.70058e-08
-4.65761e-09
-3.5023e-08
-4.63196e-09
-3.3055e-08
-4.59694e-09
-3.11058e-08
-4.55246e-09
-2.91795e-08
-4.49841e-09
-2.72801e-08
-4.43472e-09
-2.54118e-08
-4.36133e-09
-2.35787e-08
-4.27821e-09
-2.17848e-08
-4.18532e-09
-2.00344e-08
-4.08269e-09
-1.83314e-08
-3.97033e-09
-1.66799e-08
-3.8483e-09
-1.50839e-08
-3.71668e-09
-1.35475e-08
-3.5756e-09
-1.20744e-08
-3.42522e-09
-1.06684e-08
-3.26574e-09
-9.33315e-09
-3.09742e-09
-8.0722e-09
-2.92057e-09
-6.88886e-09
-2.73558e-09
-5.78623e-09
-2.5429e-09
-4.76717e-09
-2.3431e-09
-3.83423e-09
-2.13685e-09
-2.98961e-09
-1.92497e-09
-2.23507e-09
-1.70841e-09
-1.57186e-09
-1.48838e-09
-1.00062e-09
-1.26627e-09
-5.21232e-10
-1.04383e-09
-1.32737e-10
-8.23154e-10
1.66899e-10
-6.06817e-10
3.80972e-10
-3.97978e-10
5.14285e-10
-2.00532e-10
5.73431e-10
-1.92754e-11
5.67117e-10
1.39891e-10
5.06512e-10
2.69747e-10
4.05608e-10
3.61563e-10
2.8156e-10
4.05054e-10
1.54988e-10
3.88649e-10
5.05307e-11
3.00395e-10
1.29838e-10
4.74653e-11
-1.78307e-10
1.40099e-10
-3.88721e-10
2.42423e-10
-4.7731e-10
3.2706e-10
-4.64712e-10
3.71653e-10
-3.69196e-10
3.5785e-10
-2.0719e-10
2.70746e-10
7.01921e-12
9.84456e-11
2.61337e-10
-1.6831e-10
5.45681e-10
-5.36483e-10
8.51732e-10
-1.01106e-09
1.17266e-09
-1.59533e-09
1.50288e-09
-2.29117e-09
1.83782e-09
-3.09921e-09
2.17375e-09
-4.01911e-09
2.50762e-09
-5.04964e-09
2.83691e-09
-6.18887e-09
3.15958e-09
-7.43427e-09
3.47396e-09
-8.78282e-09
3.77866e-09
-1.02311e-08
4.07257e-09
-1.17753e-08
4.35477e-09
-1.34113e-08
4.62454e-09
-1.5135e-08
4.88127e-09
-1.69417e-08
5.12451e-09
-1.88269e-08
5.3539e-09
-2.07859e-08
5.56916e-09
-2.28138e-08
5.7701e-09
-2.49058e-08
5.95659e-09
-2.70568e-08
6.12856e-09
-2.9262e-08
6.28597e-09
-3.15164e-08
6.42885e-09
-3.3815e-08
6.55725e-09
-3.61529e-08
6.67125e-09
-3.85251e-08
6.77097e-09
-4.09269e-08
6.85654e-09
-4.33533e-08
6.92812e-09
-4.57997e-08
6.98588e-09
-4.82612e-08
7.03001e-09
-5.07333e-08
7.06073e-09
-5.32113e-08
7.07825e-09
-5.56908e-08
7.0828e-09
-5.81673e-08
7.07463e-09
-6.06364e-08
7.05397e-09
-6.3094e-08
7.02109e-09
-6.55359e-08
6.97625e-09
-6.7958e-08
6.91972e-09
-7.03562e-08
6.85177e-09
-7.27267e-08
6.77268e-09
-7.50658e-08
6.68273e-09
-7.73696e-08
6.58221e-09
-7.96347e-08
6.47141e-09
-8.18575e-08
6.35061e-09
-8.40346e-08
6.22013e-09
-8.61627e-08
6.08025e-09
-8.82387e-08
5.93127e-09
-9.02595e-08
5.77349e-09
-9.2222e-08
5.60723e-09
-9.41235e-08
5.43278e-09
-9.59611e-08
5.25045e-09
-9.77322e-08
5.06055e-09
-9.94343e-08
4.86339e-09
-1.01065e-07
4.6593e-09
-1.02622e-07
4.44857e-09
-1.04103e-07
4.23152e-09
-1.05505e-07
4.00849e-09
-1.06828e-07
3.77978e-09
-1.08068e-07
3.54572e-09
-1.09225e-07
3.30663e-09
-1.10297e-07
3.06284e-09
-1.11281e-07
2.81468e-09
-1.12178e-07
2.56248e-09
-1.12984e-07
2.30658e-09
-1.137e-07
2.04731e-09
-1.14324e-07
1.78501e-09
-1.14855e-07
1.52002e-09
-1.15293e-07
1.25269e-09
-1.15636e-07
9.83365e-10
-1.15884e-07
7.12397e-10
-1.16037e-07
4.40139e-10
-1.16095e-07
1.66947e-10
-1.16056e-07
-1.06819e-10
-1.15922e-07
-3.80798e-10
-1.15692e-07
-6.54624e-10
-1.15366e-07
-9.27928e-10
-1.14945e-07
-1.20034e-09
-1.14429e-07
-1.47149e-09
-1.13819e-07
-1.74099e-09
-1.13115e-07
-2.00847e-09
-1.12318e-07
-2.27355e-09
-1.1143e-07
-2.53584e-09
-1.10451e-07
-2.79496e-09
-1.09382e-07
-3.05052e-09
-1.08226e-07
-3.30213e-09
-1.06983e-07
-3.5494e-09
-1.05655e-07
-3.79194e-09
-1.04245e-07
-4.02936e-09
-1.02753e-07
-4.26125e-09
-1.01183e-07
-4.48724e-09
-9.95352e-08
-4.70693e-09
-9.78134e-08
-4.91992e-09
-9.60196e-08
-5.12582e-09
-9.41566e-08
-5.32426e-09
-9.2227e-08
-5.51483e-09
-9.02338e-08
-5.69716e-09
-8.81798e-08
-5.87087e-09
-8.60684e-08
-6.03557e-09
-8.39027e-08
-6.1909e-09
-8.16863e-08
-6.33648e-09
-7.94225e-08
-6.47197e-09
-7.7115e-08
-6.59699e-09
-7.47677e-08
-6.71121e-09
-7.23844e-08
-6.81427e-09
-6.99691e-08
-6.90586e-09
-6.75259e-08
-6.98565e-09
-6.50591e-08
-7.05331e-09
-6.25729e-08
-7.10856e-09
-6.00718e-08
-7.15111e-09
-5.75602e-08
-7.18067e-09
-5.50428e-08
-7.19698e-09
-5.25243e-08
-7.1998e-09
-5.00095e-08
-7.1889e-09
-4.7503e-08
-7.16405e-09
-4.50099e-08
-7.12507e-09
-4.25351e-08
-7.07178e-09
-4.00835e-08
-7.00402e-09
-3.76602e-08
-6.92167e-09
-3.52703e-08
-6.82462e-09
-3.29189e-08
-6.71279e-09
-3.06109e-08
-6.58614e-09
-2.83516e-08
-6.44464e-09
-2.6146e-08
-6.28833e-09
-2.3999e-08
-6.11725e-09
-2.19158e-08
-5.93152e-09
-1.99012e-08
-5.73129e-09
-1.796e-08
-5.51676e-09
-1.60971e-08
-5.28821e-09
-1.43168e-08
-5.04597e-09
-1.26238e-08
-4.79047e-09
-1.10221e-08
-4.52221e-09
-9.5159e-09
-4.24182e-09
-8.10876e-09
-3.95003e-09
-6.80413e-09
-3.64774e-09
-5.60497e-09
-3.33601e-09
-4.51383e-09
-3.01611e-09
-3.53268e-09
-2.68955e-09
-2.6629e-09
-2.35816e-09
-1.90508e-09
-2.0241e-09
-1.25893e-09
-1.68998e-09
-7.23137e-10
-1.35894e-09
-2.95162e-10
-1.03479e-09
2.89747e-11
-7.22118e-10
2.54925e-10
-4.26479e-10
3.90283e-10
-1.54621e-10
4.4487e-10
8.53168e-11
4.31045e-10
2.83566e-10
3.64054e-10
4.2853e-10
2.62437e-10
5.06657e-10
1.48534e-10
5.02578e-10
4.93978e-11
3.99538e-10
1.79232e-10
4.03488e-11
-2.18657e-10
1.14039e-10
-4.62408e-10
1.85325e-10
-5.48595e-10
2.26058e-10
-5.05445e-10
2.13208e-10
-3.56346e-10
1.27823e-10
-1.21805e-10
-4.55956e-11
1.80437e-10
-3.19542e-10
5.35283e-10
-7.03869e-10
9.30008e-10
-1.2061e-09
1.35396e-09
-1.8317e-09
1.79827e-09
-2.58439e-09
2.25556e-09
-3.4663e-09
2.71974e-09
-4.47828e-09
3.18573e-09
-5.62003e-09
3.64936e-09
-6.89027e-09
4.10716e-09
-8.28693e-09
4.55624e-09
-9.80721e-09
4.99424e-09
-1.14477e-08
5.41919e-09
-1.32047e-08
5.82948e-09
-1.50737e-08
6.22379e-09
-1.70502e-08
6.60103e-09
-1.91292e-08
6.96033e-09
-2.13057e-08
7.30098e-09
-2.35742e-08
7.62244e-09
-2.59293e-08
7.92428e-09
-2.83654e-08
8.2062e-09
-3.08768e-08
8.46797e-09
-3.34577e-08
8.70946e-09
-3.61023e-08
8.93059e-09
-3.88049e-08
9.13137e-09
-4.15595e-08
9.31184e-09
-4.43603e-08
9.4721e-09
-4.72016e-08
9.61229e-09
-5.00777e-08
9.73258e-09
-5.29827e-08
9.83317e-09
-5.59112e-08
9.9143e-09
-5.88574e-08
9.97622e-09
-6.18158e-08
1.00192e-08
-6.47812e-08
1.00436e-08
-6.7748e-08
1.00496e-08
-7.0711e-08
1.00377e-08
-7.36651e-08
1.00081e-08
-7.66052e-08
9.9612e-09
-7.95264e-08
9.89739e-09
-8.24237e-08
9.81703e-09
-8.52924e-08
9.72051e-09
-8.81279e-08
9.6082e-09
-9.09257e-08
9.48051e-09
-9.36813e-08
9.33784e-09
-9.63905e-08
9.18059e-09
-9.90491e-08
9.00917e-09
-1.01653e-07
8.82401e-09
-1.04198e-07
8.62552e-09
-1.06681e-07
8.41412e-09
-1.09098e-07
8.19024e-09
-1.11445e-07
7.95432e-09
-1.13719e-07
7.70678e-09
-1.15917e-07
7.44805e-09
-1.18035e-07
7.17859e-09
-1.2007e-07
6.89882e-09
-1.2202e-07
6.6092e-09
-1.23881e-07
6.31017e-09
-1.25652e-07
6.00217e-09
-1.27329e-07
5.68567e-09
-1.28911e-07
5.36112e-09
-1.30394e-07
5.02897e-09
-1.31777e-07
4.68969e-09
-1.33058e-07
4.34374e-09
-1.34235e-07
3.99159e-09
-1.35306e-07
3.63372e-09
-1.3627e-07
3.27059e-09
-1.37125e-07
2.90269e-09
-1.37871e-07
2.5305e-09
-1.38505e-07
2.1545e-09
-1.39028e-07
1.77519e-09
-1.39438e-07
1.39306e-09
-1.39734e-07
1.00861e-09
-1.39916e-07
6.22338e-10
-1.39984e-07
2.34755e-10
-1.39937e-07
-1.53629e-10
-1.39775e-07
-5.423e-10
-1.39499e-07
-9.30739e-10
-1.39109e-07
-1.31842e-09
-1.38604e-07
-1.70482e-09
-1.37986e-07
-2.08941e-09
-1.37256e-07
-2.47165e-09
-1.36413e-07
-2.851e-09
-1.3546e-07
-3.22693e-09
-1.34397e-07
-3.59889e-09
-1.33225e-07
-3.96633e-09
-1.31947e-07
-4.3287e-09
-1.30564e-07
-4.68545e-09
-1.29077e-07
-5.03603e-09
-1.27489e-07
-5.37988e-09
-1.25802e-07
-5.71645e-09
-1.24018e-07
-6.04519e-09
-1.2214e-07
-6.36553e-09
-1.2017e-07
-6.67692e-09
-1.18111e-07
-6.9788e-09
-1.15966e-07
-7.27064e-09
-1.13739e-07
-7.55187e-09
-1.11432e-07
-7.82195e-09
-1.09049e-07
-8.08033e-09
-1.06593e-07
-8.32649e-09
-1.04069e-07
-8.55989e-09
-1.01479e-07
-8.78001e-09
-9.88296e-08
-8.98632e-09
-9.61232e-08
-9.17832e-09
-9.33647e-08
-9.35552e-09
-9.05585e-08
-9.51741e-09
-8.77093e-08
-9.66352e-09
-8.48217e-08
-9.79339e-09
-8.19008e-08
-9.90656e-09
-7.89515e-08
-1.00026e-08
-7.5979e-08
-1.00811e-08
-7.29885e-08
-1.01416e-08
-6.99853e-08
-1.01838e-08
-6.6975e-08
-1.02073e-08
-6.39631e-08
-1.02117e-08
-6.09551e-08
-1.01968e-08
-5.7957e-08
-1.01622e-08
-5.49743e-08
-1.01077e-08
-5.20131e-08
-1.0033e-08
-4.90791e-08
-9.93799e-09
-4.61784e-08
-9.82241e-09
-4.33168e-08
-9.68616e-09
-4.05005e-08
-9.52914e-09
-3.77353e-08
-9.35131e-09
-3.50273e-08
-9.15266e-09
-3.23824e-08
-8.93324e-09
-2.98065e-08
-8.69316e-09
-2.73054e-08
-8.43259e-09
-2.48849e-08
-8.15178e-09
-2.25506e-08
-7.85104e-09
-2.0308e-08
-7.53079e-09
-1.81625e-08
-7.19154e-09
-1.6119e-08
-6.83391e-09
-1.41826e-08
-6.45867e-09
-1.23577e-08
-6.06671e-09
-1.06486e-08
-5.65914e-09
-9.05906e-09
-5.23724e-09
-7.59253e-09
-4.80254e-09
-6.25179e-09
-4.35685e-09
-5.039e-09
-3.90234e-09
-3.9556e-09
-3.44156e-09
-3.00216e-09
-2.97753e-09
-2.17827e-09
-2.51387e-09
-1.48232e-09
-2.05489e-09
-9.11414e-10
-1.6057e-09
-4.6109e-10
-1.17245e-09
-1.25131e-10
-7.62447e-10
1.04693e-10
-3.84446e-10
2.38877e-10
-4.88572e-11
2.90468e-10
2.31989e-10
2.75391e-10
4.43604e-10
2.12897e-10
5.69132e-10
1.26181e-10
5.89295e-10
4.33507e-11
4.82374e-10
2.22583e-10
2.98832e-11
-2.48541e-10
7.63377e-11
-5.08859e-10
1.05089e-10
-5.77345e-10
8.84263e-11
-4.88782e-10
3.45102e-12
-2.71371e-10
-1.68796e-10
5.04421e-11
-4.43916e-10
4.55557e-10
-8.34582e-10
9.2595e-10
-1.35088e-09
1.4463e-09
-2.00058e-09
2.00366e-09
-2.7894e-09
2.58709e-09
-3.72126e-09
3.18742e-09
-4.79847e-09
3.79695e-09
-6.02196e-09
4.40922e-09
-7.39145e-09
5.01884e-09
-8.90558e-09
5.62129e-09
-1.05621e-08
6.21279e-09
-1.23581e-08
6.79019e-09
-1.42898e-08
7.35087e-09
-1.63529e-08
7.89264e-09
-1.85428e-08
8.41371e-09
-2.08544e-08
8.91258e-09
-2.32821e-08
9.38804e-09
-2.58202e-08
9.83912e-09
-2.84628e-08
1.0265e-08
-3.12037e-08
1.06652e-08
-3.40365e-08
1.1039e-08
-3.69549e-08
1.13863e-08
-3.99523e-08
1.17069e-08
-4.30222e-08
1.20005e-08
-4.61579e-08
1.22671e-08
-4.93528e-08
1.25068e-08
-5.26004e-08
1.27197e-08
-5.5894e-08
1.29058e-08
-5.9227e-08
1.30656e-08
-6.25929e-08
1.31991e-08
-6.59853e-08
1.33067e-08
-6.93977e-08
1.33887e-08
-7.28239e-08
1.34454e-08
-7.62576e-08
1.34773e-08
-7.96927e-08
1.34847e-08
-8.31231e-08
1.34681e-08
-8.65429e-08
1.34279e-08
-8.99462e-08
1.33645e-08
-9.33274e-08
1.32786e-08
-9.66808e-08
1.31705e-08
-1.00001e-07
1.30407e-08
-1.03283e-07
1.28898e-08
-1.06521e-07
1.27183e-08
-1.09709e-07
1.25268e-08
-1.12845e-07
1.23157e-08
-1.15921e-07
1.20856e-08
-1.18934e-07
1.18371e-08
-1.21879e-07
1.15707e-08
-1.24752e-07
1.1287e-08
-1.27548e-07
1.09866e-08
-1.30264e-07
1.067e-08
-1.32895e-07
1.03378e-08
-1.35438e-07
9.99063e-09
-1.37888e-07
9.62904e-09
-1.40243e-07
9.25363e-09
-1.42499e-07
8.865e-09
-1.44652e-07
8.46374e-09
-1.46701e-07
8.05046e-09
-1.48641e-07
7.62576e-09
-1.5047e-07
7.19026e-09
-1.52185e-07
6.74458e-09
-1.53785e-07
6.28932e-09
-1.55266e-07
5.82513e-09
-1.56627e-07
5.35262e-09
-1.57866e-07
4.87244e-09
-1.58981e-07
4.38521e-09
-1.5997e-07
3.89159e-09
-1.60831e-07
3.39222e-09
-1.61565e-07
2.88776e-09
-1.62168e-07
2.37887e-09
-1.62641e-07
1.8662e-09
-1.62983e-07
1.35043e-09
-1.63193e-07
8.32245e-10
-1.63271e-07
3.12311e-10
-1.63216e-07
-2.08681e-10
-1.63028e-07
-7.30038e-10
-1.62708e-07
-1.25106e-09
-1.62255e-07
-1.77106e-09
-1.61671e-07
-2.28931e-09
-1.60955e-07
-2.80511e-09
-1.60109e-07
-3.31774e-09
-1.59133e-07
-3.82648e-09
-1.5803e-07
-4.3306e-09
-1.56799e-07
-4.82937e-09
-1.55443e-07
-5.32207e-09
-1.53964e-07
-5.80795e-09
-1.52363e-07
-6.28627e-09
-1.50643e-07
-6.75629e-09
-1.48806e-07
-7.21728e-09
-1.46854e-07
-7.66849e-09
-1.4479e-07
-8.10917e-09
-1.42617e-07
-8.53858e-09
-1.40338e-07
-8.95597e-09
-1.37956e-07
-9.36062e-09
-1.35475e-07
-9.75178e-09
-1.32898e-07
-1.01287e-08
-1.30229e-07
-1.04907e-08
-1.27472e-07
-1.0837e-08
-1.24632e-07
-1.11669e-08
-1.21712e-07
-1.14798e-08
-1.18717e-07
-1.17748e-08
-1.15652e-07
-1.20513e-08
-1.12522e-07
-1.23087e-08
-1.09331e-07
-1.25463e-08
-1.06085e-07
-1.27634e-08
-1.02789e-07
-1.29593e-08
-9.9449e-08
-1.31336e-08
-9.60701e-08
-1.32855e-08
-9.26582e-08
-1.34145e-08
-8.92193e-08
-1.352e-08
-8.57593e-08
-1.36016e-08
-8.22845e-08
-1.36586e-08
-7.88011e-08
-1.36907e-08
-7.53154e-08
-1.36974e-08
-7.1834e-08
-1.36782e-08
-6.83633e-08
-1.36329e-08
-6.49101e-08
-1.35609e-08
-6.1481e-08
-1.34621e-08
-5.80828e-08
-1.33362e-08
-5.47223e-08
-1.3183e-08
-5.14062e-08
-1.30022e-08
-4.81414e-08
-1.27939e-08
-4.49348e-08
-1.25579e-08
-4.17931e-08
-1.22943e-08
-3.87231e-08
-1.20032e-08
-3.57315e-08
-1.16848e-08
-3.28249e-08
-1.13392e-08
-3.00098e-08
-1.09669e-08
-2.72925e-08
-1.05683e-08
-2.46792e-08
-1.01441e-08
-2.21759e-08
-9.69481e-09
-1.97884e-08
-9.22147e-09
-1.75219e-08
-8.72509e-09
-1.53817e-08
-8.20691e-09
-1.33725e-08
-7.66843e-09
-1.14983e-08
-7.1114e-09
-9.76294e-09
-6.53789e-09
-8.16945e-09
-5.95034e-09
-6.72017e-09
-5.35162e-09
-5.41662e-09
-4.74511e-09
-4.25937e-09
-4.13478e-09
-3.24792e-09
-3.52532e-09
-2.38053e-09
-2.92228e-09
-1.65404e-09
-2.33218e-09
-1.06372e-09
-1.76276e-09
-6.03028e-10
-1.22314e-09
-2.63424e-10
-7.24059e-10
-3.4093e-11
-2.78193e-10
9.82902e-11
9.96137e-11
1.49873e-10
3.92031e-10
1.4005e-10
5.78949e-10
9.20728e-11
6.37267e-10
3.3897e-11
5.40551e-10
2.56481e-10
1.71646e-11
-2.65708e-10
3.03143e-11
-5.22007e-10
7.71093e-12
-5.54741e-10
-7.70073e-11
-4.04063e-10
-2.45926e-10
-1.02451e-10
-5.17495e-10
3.22011e-10
-9.07002e-10
8.45063e-10
-1.42694e-09
1.44589e-09
-2.08732e-09
2.10668e-09
-2.89591e-09
2.81224e-09
-3.85844e-09
3.54963e-09
-4.97888e-09
4.30786e-09
-6.25954e-09
5.07762e-09
-7.70136e-09
5.85104e-09
-9.30398e-09
6.62147e-09
-1.1066e-08
7.38328e-09
-1.29849e-08
8.13174e-09
-1.50576e-08
8.86286e-09
-1.728e-08
9.5733e-09
-1.96476e-08
1.02602e-08
-2.21553e-08
1.09214e-08
-2.47974e-08
1.15547e-08
-2.75681e-08
1.21587e-08
-3.0461e-08
1.2732e-08
-3.34696e-08
1.32736e-08
-3.65871e-08
1.37827e-08
-3.98066e-08
1.42585e-08
-4.3121e-08
1.47007e-08
-4.6523e-08
1.51089e-08
-5.00054e-08
1.54829e-08
-5.35609e-08
1.58226e-08
-5.71821e-08
1.6128e-08
-6.08617e-08
1.63992e-08
-6.45922e-08
1.66364e-08
-6.83664e-08
1.68398e-08
-7.21771e-08
1.70097e-08
-7.60169e-08
1.71465e-08
-7.98787e-08
1.72505e-08
-8.37554e-08
1.73222e-08
-8.76402e-08
1.7362e-08
-9.1526e-08
1.73705e-08
-9.54061e-08
1.73482e-08
-9.92738e-08
1.72956e-08
-1.03123e-07
1.72134e-08
-1.06946e-07
1.71021e-08
-1.10738e-07
1.69623e-08
-1.14492e-07
1.67948e-08
-1.18202e-07
1.66001e-08
-1.21863e-07
1.63789e-08