/*--------------------------------*- C++ -*----------------------------------*\
  =========                 |
  \\      /  F ield         | OpenFOAM: The Open Source CFD Toolbox
   \\    /   O peration     | Website:  https://openfoam.org
    \\  /    A nd           | Version:  7
     \\/     M anipulation  |
\*---------------------------------------------------------------------------*/
FoamFile
{
    version     2.0;
    format      ascii;
    class       volVectorField;
    location    "0.275";
    object      U;
}
// * * * * * * * * * * * * * * * * * * * * * * * * * * * * * * * * * * * * * //

dimensions      [0 1 -1 0 0 0 0];

internalField   nonuniform List<vector> 
25600
(
(1.92935e-07 -1.93157e-07 0)
(2.85995e-06 -1.7874e-06 0)
(9.08768e-06 -2.82987e-06 0)
(1.69322e-05 -3.20455e-06 0)
(2.48849e-05 -3.12124e-06 0)
(3.19944e-05 -2.74332e-06 0)
(3.76079e-05 -2.17839e-06 0)
(4.12755e-05 -1.4977e-06 0)
(4.26982e-05 -7.47664e-07 0)
(4.16829e-05 4.13066e-08 0)
(3.81123e-05 8.48793e-07 0)
(3.1924e-05 1.66066e-06 0)
(2.30968e-05 2.46685e-06 0)
(1.16402e-05 3.26014e-06 0)
(-2.41278e-06 4.03516e-06 0)
(-1.90107e-05 4.78797e-06 0)
(-3.80884e-05 5.51563e-06 0)
(-5.95693e-05 6.21589e-06 0)
(-8.33689e-05 6.88713e-06 0)
(-0.000109396 7.52815e-06 0)
(-0.000137553 8.13811e-06 0)
(-0.000167741 8.71643e-06 0)
(-0.000199856 9.2627e-06 0)
(-0.000233793 9.77673e-06 0)
(-0.000269445 1.02584e-05 0)
(-0.000306704 1.07078e-05 0)
(-0.000345462 1.1125e-05 0)
(-0.000385612 1.15103e-05 0)
(-0.000427045 1.1864e-05 0)
(-0.000469654 1.21864e-05 0)
(-0.000513333 1.24779e-05 0)
(-0.000557975 1.27388e-05 0)
(-0.000603477 1.29696e-05 0)
(-0.000649736 1.31709e-05 0)
(-0.000696649 1.33431e-05 0)
(-0.000744116 1.34867e-05 0)
(-0.000792038 1.36022e-05 0)
(-0.000840319 1.36903e-05 0)
(-0.000888864 1.37513e-05 0)
(-0.000937578 1.3786e-05 0)
(-0.00098637 1.37949e-05 0)
(-0.00103515 1.37785e-05 0)
(-0.00108383 1.37375e-05 0)
(-0.00113233 1.36725e-05 0)
(-0.00118055 1.3584e-05 0)
(-0.00122843 1.34725e-05 0)
(-0.00127587 1.33388e-05 0)
(-0.00132281 1.31834e-05 0)
(-0.00136916 1.3007e-05 0)
(-0.00141485 1.281e-05 0)
(-0.00145981 1.25931e-05 0)
(-0.00150397 1.23569e-05 0)
(-0.00154727 1.2102e-05 0)
(-0.00158963 1.1829e-05 0)
(-0.001631 1.15385e-05 0)
(-0.0016713 1.1231e-05 0)
(-0.00171049 1.09072e-05 0)
(-0.00174851 1.05677e-05 0)
(-0.0017853 1.02131e-05 0)
(-0.00182081 9.84399e-06 0)
(-0.00185499 9.46092e-06 0)
(-0.00188778 9.06454e-06 0)
(-0.00191915 8.65543e-06 0)
(-0.00194905 8.23419e-06 0)
(-0.00197743 7.80142e-06 0)
(-0.00200426 7.35774e-06 0)
(-0.00202951 6.90375e-06 0)
(-0.00205312 6.44008e-06 0)
(-0.00207507 5.96734e-06 0)
(-0.00209534 5.48615e-06 0)
(-0.00211388 4.99715e-06 0)
(-0.00213068 4.50096e-06 0)
(-0.00214571 3.9982e-06 0)
(-0.00215894 3.48952e-06 0)
(-0.00217036 2.97555e-06 0)
(-0.00217995 2.45696e-06 0)
(-0.0021877 1.93442e-06 0)
(-0.00219359 1.40857e-06 0)
(-0.00219761 8.80086e-07 0)
(-0.00219975 3.49635e-07 0)
(-0.00220002 -1.82081e-07 0)
(-0.00219839 -7.14382e-07 0)
(-0.00219489 -1.2466e-06 0)
(-0.0021895 -1.77803e-06 0)
(-0.00218222 -2.30791e-06 0)
(-0.00217308 -2.83553e-06 0)
(-0.00216208 -3.36022e-06 0)
(-0.00214922 -3.88124e-06 0)
(-0.00213453 -4.39782e-06 0)
(-0.00211802 -4.90921e-06 0)
(-0.00209971 -5.41471e-06 0)
(-0.00207963 -5.91358e-06 0)
(-0.00205779 -6.40502e-06 0)
(-0.00203423 -6.88824e-06 0)
(-0.00200898 -7.3625e-06 0)
(-0.00198207 -7.82706e-06 0)
(-0.00195354 -8.28113e-06 0)
(-0.00192343 -8.72393e-06 0)
(-0.00189177 -9.15467e-06 0)
(-0.00185862 -9.5726e-06 0)
(-0.00182401 -9.97693e-06 0)
(-0.00178801 -1.03669e-05 0)
(-0.00175065 -1.07416e-05 0)
(-0.00171201 -1.11005e-05 0)
(-0.00167213 -1.14426e-05 0)
(-0.00163107 -1.17673e-05 0)
(-0.0015889 -1.20738e-05 0)
(-0.00154569 -1.23613e-05 0)
(-0.0015015 -1.2629e-05 0)
(-0.00145641 -1.28763e-05 0)
(-0.00141048 -1.31024e-05 0)
(-0.0013638 -1.33066e-05 0)
(-0.00131643 -1.34882e-05 0)
(-0.00126848 -1.36465e-05 0)
(-0.00122001 -1.37809e-05 0)
(-0.00117111 -1.38906e-05 0)
(-0.00112187 -1.39751e-05 0)
(-0.00107238 -1.40336e-05 0)
(-0.00102273 -1.40657e-05 0)
(-0.000973022 -1.40707e-05 0)
(-0.000923341 -1.40481e-05 0)
(-0.000873789 -1.39973e-05 0)
(-0.000824465 -1.3918e-05 0)
(-0.00077547 -1.38094e-05 0)
(-0.000726906 -1.36714e-05 0)
(-0.000678876 -1.35033e-05 0)
(-0.000631485 -1.33049e-05 0)
(-0.000584839 -1.30758e-05 0)
(-0.000539044 -1.28156e-05 0)
(-0.000494208 -1.25243e-05 0)
(-0.000450439 -1.22015e-05 0)
(-0.000407844 -1.1847e-05 0)
(-0.000366531 -1.14609e-05 0)
(-0.00032661 -1.1043e-05 0)
(-0.000288186 -1.05933e-05 0)
(-0.000251368 -1.01121e-05 0)
(-0.00021626 -9.59947e-06 0)
(-0.000182966 -9.05575e-06 0)
(-0.000151588 -8.48139e-06 0)
(-0.000122226 -7.87698e-06 0)
(-9.49754e-05 -7.24327e-06 0)
(-6.99276e-05 -6.58128e-06 0)
(-4.71692e-05 -5.89228e-06 0)
(-2.67806e-05 -5.17787e-06 0)
(-8.83372e-06 -4.44013e-06 0)
(6.60884e-06 -3.68169e-06 0)
(1.94969e-05 -2.90592e-06 0)
(2.97954e-05 -2.11721e-06 0)
(3.74889e-05 -1.32133e-06 0)
(4.25866e-05 -5.26023e-07 0)
(4.51294e-05 2.58294e-07 0)
(4.52e-05 1.01708e-06 0)
(4.29371e-05 1.72944e-06 0)
(3.85551e-05 2.36457e-06 0)
(3.23734e-05 2.87615e-06 0)
(2.48589e-05 3.19431e-06 0)
(1.66766e-05 3.21503e-06 0)
(8.77829e-06 2.78196e-06 0)
(2.64148e-06 1.70122e-06 0)
(1.21413e-07 1.25474e-07 0)
(1.78567e-06 -2.85854e-06 0)
(9.39731e-06 -9.39871e-06 0)
(2.31469e-05 -1.34072e-05 0)
(3.93749e-05 -1.47177e-05 0)
(5.52409e-05 -1.39518e-05 0)
(6.87521e-05 -1.1682e-05 0)
(7.83692e-05 -8.34955e-06 0)
(8.29356e-05 -4.2839e-06 0)
(8.16198e-05 2.74366e-07 0)
(7.38442e-05 5.15051e-06 0)
(5.9226e-05 1.02158e-05 0)
(3.7533e-05 1.53745e-05 0)
(8.65002e-06 2.05543e-05 0)
(-2.74465e-05 2.56999e-05 0)
(-7.07081e-05 3.07688e-05 0)
(-0.00012103 3.57281e-05 0)
(-0.000178261 4.0552e-05 0)
(-0.000242216 4.52206e-05 0)
(-0.000312681 4.9718e-05 0)
(-0.000389418 5.40322e-05 0)
(-0.000472172 5.81538e-05 0)
(-0.000560675 6.20757e-05 0)
(-0.000654647 6.57925e-05 0)
(-0.000753799 6.93005e-05 0)
(-0.000857837 7.25971e-05 0)
(-0.000966462 7.56806e-05 0)
(-0.00107937 7.85504e-05 0)
(-0.00119627 8.12065e-05 0)
(-0.00131684 8.36497e-05 0)
(-0.00144079 8.5881e-05 0)
(-0.00156781 8.79021e-05 0)
(-0.00169761 8.97148e-05 0)
(-0.00182988 9.13215e-05 0)
(-0.00196433 9.27247e-05 0)
(-0.00210067 9.39274e-05 0)
(-0.00223862 9.49324e-05 0)
(-0.00237788 9.5743e-05 0)
(-0.00251818 9.63625e-05 0)
(-0.00265925 9.67942e-05 0)
(-0.00280081 9.70419e-05 0)
(-0.00294259 9.71091e-05 0)
(-0.00308435 9.69996e-05 0)
(-0.00322583 9.67173e-05 0)
(-0.00336677 9.6266e-05 0)
(-0.00350693 9.56496e-05 0)
(-0.00364608 9.48722e-05 0)
(-0.00378398 9.39377e-05 0)
(-0.00392041 9.28502e-05 0)
(-0.00405514 9.16138e-05 0)
(-0.00418797 9.02325e-05 0)
(-0.00431867 8.87104e-05 0)
(-0.00444706 8.70518e-05 0)
(-0.00457293 8.52607e-05 0)
(-0.00469609 8.33413e-05 0)
(-0.00481636 8.12978e-05 0)
(-0.00493355 7.91343e-05 0)
(-0.00504751 7.68551e-05 0)
(-0.00515805 7.44643e-05 0)
(-0.00526502 7.19662e-05 0)
(-0.00536826 6.9365e-05 0)
(-0.00546763 6.6665e-05 0)
(-0.00556298 6.38705e-05 0)
(-0.00565419 6.09856e-05 0)
(-0.00574112 5.80148e-05 0)
(-0.00582364 5.49622e-05 0)
(-0.00590164 5.18323e-05 0)
(-0.00597502 4.86294e-05 0)
(-0.00604366 4.53579e-05 0)
(-0.00610747 4.20222e-05 0)
(-0.00616636 3.86267e-05 0)
(-0.00622025 3.51759e-05 0)
(-0.00626906 3.16744e-05 0)
(-0.00631271 2.81267e-05 0)
(-0.00635114 2.45373e-05 0)
(-0.0063843 2.09108e-05 0)
(-0.00641214 1.72519e-05 0)
(-0.0064346 1.35653e-05 0)
(-0.00645166 9.85581e-06 0)
(-0.00646328 6.12807e-06 0)
(-0.00646945 2.38693e-06 0)
(-0.00647014 -1.36271e-06 0)
(-0.00646535 -5.1159e-06 0)
(-0.00645507 -8.86779e-06 0)
(-0.00643932 -1.26134e-05 0)
(-0.0064181 -1.63476e-05 0)
(-0.00639144 -2.00653e-05 0)
(-0.00635937 -2.37613e-05 0)
(-0.00632191 -2.74307e-05 0)
(-0.00627912 -3.10681e-05 0)
(-0.00623105 -3.46682e-05 0)
(-0.00617775 -3.82257e-05 0)
(-0.00611928 -4.17356e-05 0)
(-0.00605574 -4.51923e-05 0)
(-0.00598719 -4.85904e-05 0)
(-0.00591373 -5.19245e-05 0)
(-0.00583545 -5.51894e-05 0)
(-0.00575247 -5.83795e-05 0)
(-0.00566489 -6.14894e-05 0)
(-0.00557283 -6.45136e-05 0)
(-0.00547644 -6.74467e-05 0)
(-0.00537583 -7.02834e-05 0)
(-0.00527117 -7.30181e-05 0)
(-0.00516259 -7.56455e-05 0)
(-0.00505027 -7.81601e-05 0)
(-0.00493437 -8.05567e-05 0)
(-0.00481507 -8.283e-05 0)
(-0.00469255 -8.49746e-05 0)
(-0.00456701 -8.69854e-05 0)
(-0.00443863 -8.88573e-05 0)
(-0.00430764 -9.05852e-05 0)
(-0.00417424 -9.2164e-05 0)
(-0.00403866 -9.35891e-05 0)
(-0.00390112 -9.48554e-05 0)
(-0.00376185 -9.59584e-05 0)
(-0.0036211 -9.68936e-05 0)
(-0.00347912 -9.76564e-05 0)
(-0.00333616 -9.82427e-05 0)
(-0.00319247 -9.86482e-05 0)
(-0.00304833 -9.88689e-05 0)
(-0.002904 -9.89012e-05 0)
(-0.00275977 -9.87414e-05 0)
(-0.00261591 -9.83861e-05 0)
(-0.0024727 -9.78322e-05 0)
(-0.00233045 -9.70766e-05 0)
(-0.00218943 -9.61167e-05 0)
(-0.00204995 -9.49501e-05 0)
(-0.00191232 -9.35747e-05 0)
(-0.00177682 -9.19885e-05 0)
(-0.00164376 -9.01901e-05 0)
(-0.00151346 -8.81785e-05 0)
(-0.00138621 -8.59528e-05 0)
(-0.00126232 -8.35129e-05 0)
(-0.00114211 -8.0859e-05 0)
(-0.00102587 -7.79918e-05 0)
(-0.000913907 -7.49128e-05 0)
(-0.000806519 -7.16241e-05 0)
(-0.000704 -6.81286e-05 0)
(-0.000606639 -6.44303e-05 0)
(-0.000514715 -6.05339e-05 0)
(-0.000428501 -5.6446e-05 0)
(-0.000348254 -5.21741e-05 0)
(-0.000274219 -4.7728e-05 0)
(-0.000206625 -4.31195e-05 0)
(-0.000145677 -3.83635e-05 0)
(-9.15547e-05 -3.34781e-05 0)
(-4.44068e-05 -2.84859e-05 0)
(-4.34236e-06 -2.34149e-05 0)
(2.85773e-05 -1.83004e-05 0)
(5.43504e-05 -1.31872e-05 0)
(7.30496e-05 -8.13237e-06 0)
(8.48408e-05 -3.20999e-06 0)
(9.00077e-05 1.48325e-06 0)
(8.89849e-05 5.81847e-06 0)
(8.23999e-05 9.62152e-06 0)
(7.11297e-05 1.26553e-05 0)
(5.63668e-05 1.45991e-05 0)
(3.96674e-05 1.50312e-05 0)
(2.30132e-05 1.34143e-05 0)
(9.17804e-06 9.19083e-06 0)
(1.69261e-06 2.64908e-06 0)
(2.82838e-06 -9.0839e-06 0)
(1.34124e-05 -2.31487e-05 0)
(3.10681e-05 -3.10498e-05 0)
(5.08223e-05 -3.31085e-05 0)
(6.9077e-05 -3.04234e-05 0)
(8.32721e-05 -2.40888e-05 0)
(9.13261e-05 -1.50329e-05 0)
(9.15984e-05 -4.00109e-06 0)
(8.28574e-05 8.42604e-06 0)
(6.42087e-05 2.18009e-05 0)
(3.50314e-05 3.57791e-05 0)
(-5.07524e-06 5.00942e-05 0)
(-5.63343e-05 6.45389e-05 0)
(-0.000118826 7.89513e-05 0)
(-0.000192515 9.32036e-05 0)
(-0.000277273 0.000107195 0)
(-0.000372898 0.000120846 0)
(-0.000479125 0.000134092 0)
(-0.000595641 0.000146883 0)
(-0.000722094 0.00015918 0)
(-0.000858098 0.00017095 0)
(-0.00100324 0.00018217 0)
(-0.0011571 0.000192819 0)
(-0.00131922 0.000202885 0)
(-0.00148915 0.000212357 0)
(-0.00166642 0.000221228 0)
(-0.00185055 0.000229493 0)
(-0.00204106 0.000237151 0)
(-0.00223748 0.000244201 0)
(-0.00243932 0.000250647 0)
(-0.0026461 0.000256489 0)
(-0.00285734 0.000261734 0)
(-0.00307257 0.000266387 0)
(-0.00329131 0.000270453 0)
(-0.00351309 0.000273941 0)
(-0.00373746 0.000276857 0)
(-0.00396396 0.000279211 0)
(-0.00419213 0.000281012 0)
(-0.00442154 0.000282268 0)
(-0.00465174 0.00028299 0)
(-0.00488231 0.000283189 0)
(-0.00511283 0.000282873 0)
(-0.00534289 0.000282055 0)
(-0.00557207 0.000280745 0)
(-0.0058 0.000278954 0)
(-0.00602628 0.000276694 0)
(-0.00625053 0.000273976 0)
(-0.00647239 0.000270812 0)
(-0.0066915 0.000267212 0)
(-0.00690751 0.00026319 0)
(-0.00712008 0.000258757 0)
(-0.00732887 0.000253924 0)
(-0.00753358 0.000248705 0)
(-0.00773388 0.00024311 0)
(-0.00792948 0.000237153 0)
(-0.00812008 0.000230844 0)
(-0.00830541 0.000224198 0)
(-0.00848519 0.000217224 0)
(-0.00865916 0.000209937 0)
(-0.00882708 0.000202349 0)
(-0.00898869 0.000194471 0)
(-0.00914377 0.000186316 0)
(-0.00929209 0.000177897 0)
(-0.00943346 0.000169227 0)
(-0.00956766 0.000160318 0)
(-0.0096945 0.000151182 0)
(-0.00981381 0.000141833 0)
(-0.00992543 0.000132284 0)
(-0.0100292 0.000122547 0)
(-0.0101249 0.000112635 0)
(-0.0102125 0.000102562 0)
(-0.0102918 9.23407e-05 0)
(-0.0103628 8.19845e-05 0)
(-0.0104252 7.1507e-05 0)
(-0.0104791 6.09215e-05 0)
(-0.0105243 5.02418e-05 0)
(-0.0105608 3.94816e-05 0)
(-0.0105884 2.86548e-05 0)
(-0.0106073 1.77755e-05 0)
(-0.0106172 6.85776e-06 0)
(-0.0106182 -4.08418e-06 0)
(-0.0106104 -1.50358e-05 0)
(-0.0105935 -2.59827e-05 0)
(-0.0105678 -3.69103e-05 0)
(-0.0105332 -4.78037e-05 0)
(-0.0104898 -5.86481e-05 0)
(-0.0104375 -6.94285e-05 0)
(-0.0103765 -8.01297e-05 0)
(-0.0103068 -9.07366e-05 0)
(-0.0102286 -0.000101234 0)
(-0.0101418 -0.000111606 0)
(-0.0100467 -0.000121837 0)
(-0.00994325 -0.000131912 0)
(-0.0098317 -0.000141816 0)
(-0.00971218 -0.000151532 0)
(-0.00958483 -0.000161044 0)
(-0.00944984 -0.000170337 0)
(-0.00930738 -0.000179396 0)
(-0.00915766 -0.000188203 0)
(-0.00900088 -0.000196744 0)
(-0.00883728 -0.000205003 0)
(-0.00866708 -0.000212963 0)
(-0.00849054 -0.00022061 0)
(-0.00830792 -0.000227927 0)
(-0.00811949 -0.0002349 0)
(-0.00792555 -0.000241513 0)
(-0.00772638 -0.00024775 0)
(-0.00752231 -0.000253597 0)
(-0.00731366 -0.000259039 0)
(-0.00710075 -0.000264061 0)
(-0.00688395 -0.000268649 0)
(-0.0066636 -0.000272789 0)
(-0.00644008 -0.000276467 0)
(-0.00621376 -0.000279671 0)
(-0.00598504 -0.000282385 0)
(-0.00575432 -0.0002846 0)
(-0.00552201 -0.000286301 0)
(-0.00528853 -0.000287477 0)
(-0.00505431 -0.000288118 0)
(-0.00481978 -0.000288212 0)
(-0.0045854 -0.000287749 0)
(-0.00435161 -0.00028672 0)
(-0.00411888 -0.000285117 0)
(-0.00388767 -0.00028293 0)
(-0.00365845 -0.000280154 0)
(-0.00343171 -0.000276781 0)
(-0.00320792 -0.000272806 0)
(-0.00298757 -0.000268224 0)
(-0.00277115 -0.000263032 0)
(-0.00255914 -0.000257228 0)
(-0.00235204 -0.000250811 0)
(-0.00215033 -0.00024378 0)
(-0.0019545 -0.000236139 0)
(-0.00176504 -0.000227891 0)
(-0.00158242 -0.00021904 0)
(-0.00140711 -0.000209597 0)
(-0.00123958 -0.00019957 0)
(-0.00108028 -0.000188974 0)
(-0.000929643 -0.000177825 0)
(-0.000788086 -0.000166145 0)
(-0.000656011 -0.000153958 0)
(-0.000533789 -0.000141297 0)
(-0.000421762 -0.0001282 0)
(-0.000320236 -0.000114714 0)
(-0.000229468 -0.000100895 0)
(-0.000149666 -8.68147e-05 0)
(-8.09705e-05 -7.25585e-05 0)
(-2.34417e-05 -5.82333e-05 0)
(2.29553e-05 -4.39716e-05 0)
(5.83737e-05 -2.994e-05 0)
(8.31119e-05 -1.63488e-05 0)
(9.76461e-05 -3.4653e-06 0)
(0.000102671 8.36807e-06 0)
(9.91492e-05 1.87105e-05 0)
(8.83744e-05 2.6994e-05 0)
(7.20341e-05 3.24978e-05 0)
(5.22332e-05 3.43383e-05 0)
(3.15161e-05 3.14996e-05 0)
(1.34126e-05 2.3012e-05 0)
(2.77499e-06 8.7781e-06 0)
(3.20733e-06 -1.69337e-05 0)
(1.47503e-05 -3.9399e-05 0)
(3.31984e-05 -5.08181e-05 0)
(5.26878e-05 -5.2561e-05 0)
(6.91141e-05 -4.6365e-05 0)
(7.95671e-05 -3.3903e-05 0)
(8.16351e-05 -1.66348e-05 0)
(7.33693e-05 4.22699e-06 0)
(5.32632e-05 2.77019e-05 0)
(2.01901e-05 5.30074e-05 0)
(-2.66592e-05 7.9522e-05 0)
(-8.7828e-05 0.000106752 0)
(-0.000163639 0.000134306 0)
(-0.000254233 0.000161871 0)
(-0.000359599 0.000189196 0)
(-0.000479604 0.00021608 0)
(-0.000614013 0.000242362 0)
(-0.000762506 0.000267913 0)
(-0.000924693 0.000292627 0)
(-0.00110013 0.000316421 0)
(-0.00128833 0.000339227 0)
(-0.00148875 0.000360994 0)
(-0.00170085 0.000381679 0)
(-0.00192403 0.00040125 0)
(-0.0021577 0.000419684 0)
(-0.00240123 0.000436962 0)
(-0.002654 0.000453075 0)
(-0.00291537 0.000468015 0)
(-0.00318471 0.000481779 0)
(-0.00346135 0.00049437 0)
(-0.00374467 0.00050579 0)
(-0.00403402 0.000516047 0)
(-0.00432876 0.000525149 0)
(-0.00462824 0.000533109 0)
(-0.00493185 0.000539937 0)
(-0.00523894 0.00054565 0)
(-0.00554892 0.000550261 0)
(-0.00586116 0.000553789 0)
(-0.00617506 0.00055625 0)
(-0.00649004 0.000557663 0)
(-0.00680551 0.000558048 0)
(-0.0071209 0.000557423 0)
(-0.00743564 0.000555811 0)
(-0.00774919 0.000553231 0)
(-0.00806101 0.000549705 0)
(-0.00837058 0.000545256 0)
(-0.00867737 0.000539904 0)
(-0.00898088 0.000533674 0)
(-0.00928063 0.000526587 0)
(-0.00957614 0.000518666 0)
(-0.00986695 0.000509934 0)
(-0.0101526 0.000500416 0)
(-0.0104326 0.000490134 0)
(-0.0107067 0.000479112 0)
(-0.0109743 0.000467373 0)
(-0.011235 0.000454943 0)
(-0.0114886 0.000441844 0)
(-0.0117345 0.000428101 0)
(-0.0119725 0.000413739 0)
(-0.0122022 0.000398781 0)
(-0.0124233 0.000383252 0)
(-0.0126354 0.000367176 0)
(-0.0128383 0.00035058 0)
(-0.0130317 0.000333486 0)
(-0.0132153 0.000315921 0)
(-0.0133888 0.000297909 0)
(-0.013552 0.000279477 0)
(-0.0137046 0.000260648 0)
(-0.0138465 0.00024145 0)
(-0.0139774 0.000221907 0)
(-0.0140972 0.000202046 0)
(-0.0142057 0.000181892 0)
(-0.0143026 0.000161473 0)
(-0.014388 0.000140815 0)
(-0.0144616 0.000119945 0)
(-0.0145233 9.88894e-05 0)
(-0.0145731 7.76758e-05 0)
(-0.0146109 5.63316e-05 0)
(-0.0146365 3.48847e-05 0)
(-0.01465 1.33629e-05 0)
(-0.0146513 -8.20557e-06 0)
(-0.0146404 -2.97922e-05 0)
(-0.0146173 -5.13683e-05 0)
(-0.0145821 -7.29049e-05 0)
(-0.0145346 -9.43731e-05 0)
(-0.0144751 -0.000115743 0)
(-0.0144035 -0.000136986 0)
(-0.0143199 -0.000158071 0)
(-0.0142245 -0.000178968 0)
(-0.0141173 -0.000199648 0)
(-0.0139985 -0.00022008 0)
(-0.0138683 -0.000240233 0)
(-0.0137267 -0.000260077 0)
(-0.0135741 -0.000279581 0)
(-0.0134105 -0.000298713 0)
(-0.0132363 -0.000317443 0)
(-0.0130516 -0.00033574 0)
(-0.0128566 -0.000353573 0)
(-0.0126518 -0.000370911 0)
(-0.0124373 -0.000387721 0)
(-0.0122136 -0.000403975 0)
(-0.0119808 -0.00041964 0)
(-0.0117393 -0.000434687 0)
(-0.0114895 -0.000449083 0)
(-0.0112318 -0.0004628 0)
(-0.0109666 -0.000475808 0)
(-0.0106943 -0.000488075 0)
(-0.0104152 -0.000499574 0)
(-0.0101299 -0.000510276 0)
(-0.00983882 -0.000520151 0)
(-0.00954239 -0.000529172 0)
(-0.00924112 -0.000537311 0)
(-0.00893552 -0.000544543 0)
(-0.0086261 -0.00055084 0)
(-0.00831341 -0.000556178 0)
(-0.00799797 -0.000560532 0)
(-0.00768036 -0.000563879 0)
(-0.00736115 -0.000566196 0)
(-0.00704091 -0.000567462 0)
(-0.00672025 -0.000567656 0)
(-0.00639976 -0.000566759 0)
(-0.00608007 -0.000564753 0)
(-0.00576179 -0.000561622 0)
(-0.00544557 -0.00055735 0)
(-0.00513203 -0.000551924 0)
(-0.00482183 -0.000545334 0)
(-0.00451561 -0.000537568 0)
(-0.00421404 -0.000528619 0)
(-0.00391776 -0.000518481 0)
(-0.00362744 -0.000507152 0)
(-0.00334373 -0.000494631 0)
(-0.00306729 -0.000480921 0)
(-0.00279877 -0.000466026 0)
(-0.00253882 -0.000449958 0)
(-0.00228807 -0.000432728 0)
(-0.00204715 -0.000414355 0)
(-0.00181668 -0.000394864 0)
(-0.00159724 -0.000374282 0)
(-0.00138941 -0.000352647 0)
(-0.00119374 -0.000330003 0)
(-0.00101074 -0.000306405 0)
(-0.000840898 -0.00028192 0)
(-0.000684645 -0.000256626 0)
(-0.000542362 -0.00023062 0)
(-0.00041437 -0.00020402 0)
(-0.000300913 -0.000176967 0)
(-0.000202146 -0.000149634 0)
(-0.000118116 -0.000122231 0)
(-4.87456e-05 -9.50179e-05 0)
(6.19981e-06 -6.83137e-05 0)
(4.7137e-05 -4.2515e-05 0)
(7.47035e-05 -1.8115e-05 0)
(8.97987e-05 4.27085e-06 0)
(9.36332e-05 2.3875e-05 0)
(8.77854e-05 3.97445e-05 0)
(7.4261e-05 5.07122e-05 0)
(5.5503e-05 5.53932e-05 0)
(3.44153e-05 5.22328e-05 0)
(1.5055e-05 3.96801e-05 0)
(3.21337e-06 1.66709e-05 0)
(3.13364e-06 -2.49115e-05 0)
(1.40377e-05 -5.53379e-05 0)
(3.06481e-05 -6.91551e-05 0)
(4.67248e-05 -6.90249e-05 0)
(5.7885e-05 -5.74606e-05 0)
(6.0997e-05 -3.67636e-05 0)
(5.34537e-05 -8.94151e-06 0)
(3.31201e-05 2.43124e-05 0)
(-1.68375e-06 6.1598e-05 0)
(-5.22422e-05 0.000101771 0)
(-0.000119499 0.0001439 0)
(-0.000204105 0.000187234 0)
(-0.000306464 0.000231159 0)
(-0.000426769 0.000275182 0)
(-0.000565037 0.0003189 0)
(-0.000721133 0.000361986 0)
(-0.000894803 0.000404175 0)
(-0.00108568 0.000445249 0)
(-0.00129333 0.000485032 0)
(-0.00151722 0.000523382 0)
(-0.00175677 0.000560184 0)
(-0.00201135 0.000595344 0)
(-0.0022803 0.00062879 0)
(-0.00256292 0.000660463 0)
(-0.00285846 0.000690319 0)
(-0.00316619 0.000718326 0)
(-0.00348533 0.00074446 0)
(-0.00381511 0.000768708 0)
(-0.00415475 0.00079106 0)
(-0.00450345 0.000811516 0)
(-0.00486041 0.000830079 0)
(-0.00522484 0.000846758 0)
(-0.00559596 0.000861565 0)
(-0.00597297 0.000874515 0)
(-0.00635508 0.000885628 0)
(-0.00674153 0.000894925 0)
(-0.00713154 0.000902429 0)
(-0.00752436 0.000908167 0)
(-0.00791923 0.000912165 0)
(-0.00831542 0.000914452 0)
(-0.00871219 0.00091506 0)
(-0.00910885 0.00091402 0)
(-0.00950467 0.000911364 0)
(-0.00989898 0.000907126 0)
(-0.0102911 0.000901341 0)
(-0.0106804 0.000894043 0)
(-0.0110662 0.000885268 0)
(-0.0114478 0.000875052 0)
(-0.0118247 0.000863433 0)
(-0.0121963 0.000850448 0)
(-0.012562 0.000836134 0)
(-0.0129211 0.000820528 0)
(-0.0132733 0.000803671 0)
(-0.0136178 0.000785599 0)
(-0.0139543 0.000766352 0)
(-0.0142821 0.000745969 0)
(-0.0146009 0.000724489 0)
(-0.0149101 0.000701952 0)
(-0.0152094 0.000678397 0)
(-0.0154982 0.000653865 0)
(-0.0157761 0.000628396 0)
(-0.0160428 0.00060203 0)
(-0.0162979 0.000574808 0)
(-0.016541 0.00054677 0)
(-0.0167718 0.000517959 0)
(-0.0169899 0.000488414 0)
(-0.017195 0.000458178 0)
(-0.0173869 0.000427293 0)
(-0.0175652 0.000395801 0)
(-0.0177298 0.000363744 0)
(-0.0178803 0.000331165 0)
(-0.0180166 0.000298107 0)
(-0.0181384 0.000264614 0)
(-0.0182456 0.000230729 0)
(-0.0183381 0.000196496 0)
(-0.0184156 0.000161961 0)
(-0.0184781 0.000127167 0)
(-0.0185254 9.21604e-05 0)
(-0.0185576 5.69863e-05 0)
(-0.0185744 2.16909e-05 0)
(-0.0185759 -1.36796e-05 0)
(-0.0185621 -4.90784e-05 0)
(-0.0185329 -8.44583e-05 0)
(-0.0184885 -0.000119772 0)
(-0.0184287 -0.000154971 0)
(-0.0183537 -0.000190008 0)
(-0.0182635 -0.000224833 0)
(-0.0181584 -0.000259398 0)
(-0.0180383 -0.000293654 0)
(-0.0179034 -0.000327551 0)
(-0.017754 -0.000361039 0)
(-0.0175902 -0.000394068 0)
(-0.0174121 -0.000426587 0)
(-0.0172201 -0.000458547 0)
(-0.0170144 -0.000489896 0)
(-0.0167953 -0.000520585 0)
(-0.016563 -0.000550561 0)
(-0.016318 -0.000579774 0)
(-0.0160604 -0.000608174 0)
(-0.0157908 -0.000635709 0)
(-0.0155095 -0.000662329 0)
(-0.0152168 -0.000687984 0)
(-0.0149133 -0.000712623 0)
(-0.0145993 -0.000736197 0)
(-0.0142754 -0.000758657 0)
(-0.0139421 -0.000779953 0)
(-0.0135998 -0.000800037 0)
(-0.0132491 -0.000818861 0)
(-0.0128905 -0.000836379 0)
(-0.0125247 -0.000852544 0)
(-0.0121521 -0.000867312 0)
(-0.0117735 -0.000880636 0)
(-0.0113895 -0.000892476 0)
(-0.0110006 -0.000902787 0)
(-0.0106077 -0.000911531 0)
(-0.0102112 -0.000918666 0)
(-0.00981208 -0.000924156 0)
(-0.00941088 -0.000927964 0)
(-0.00900838 -0.000930056 0)
(-0.00860533 -0.0009304 0)
(-0.00820246 -0.000928964 0)
(-0.00780056 -0.00092572 0)
(-0.0074004 -0.000920644 0)
(-0.00700277 -0.00091371 0)
(-0.00660846 -0.000904899 0)
(-0.00621827 -0.000894193 0)
(-0.00583301 -0.000881578 0)
(-0.0054535 -0.000867042 0)
(-0.00508055 -0.000850579 0)
(-0.00471497 -0.000832185 0)
(-0.00435757 -0.000811861 0)
(-0.00400916 -0.000789615 0)
(-0.00367055 -0.000765459 0)
(-0.00334253 -0.00073941 0)
(-0.00302588 -0.000711494 0)
(-0.00272136 -0.000681743 0)
(-0.00242973 -0.000650201 0)
(-0.00215169 -0.000616919 0)
(-0.00188795 -0.000581961 0)
(-0.00163917 -0.000545405 0)
(-0.00140596 -0.000507346 0)
(-0.00118889 -0.000467896 0)
(-0.000988477 -0.00042719 0)
(-0.000805163 -0.000385392 0)
(-0.000639314 -0.000342697 0)
(-0.000491201 -0.000299338 0)
(-0.000360985 -0.0002556 0)
(-0.000248699 -0.000211824 0)
(-0.00015422 -0.000168423 0)
(-7.72475e-05 -0.000125903 0)
(-1.72687e-05 -8.48774e-05 0)
(2.64767e-05 -4.60982e-05 0)
(5.5037e-05 -1.04846e-05 0)
(6.97929e-05 2.08431e-05 0)
(7.25082e-05 4.65277e-05 0)
(6.5384e-05 6.49448e-05 0)
(5.10704e-05 7.41912e-05 0)
(3.27083e-05 7.21201e-05 0)
(1.46728e-05 5.64466e-05 0)
(3.20159e-06 2.48669e-05 0)
(2.77082e-06 -3.20809e-05 0)
(1.18479e-05 -6.90045e-05 0)
(2.45111e-05 -8.35443e-05 0)
(3.46041e-05 -7.96411e-05 0)
(3.76812e-05 -6.06381e-05 0)
(3.04977e-05 -2.94923e-05 0)
(1.03476e-05 1.1232e-05 0)
(-2.4998e-05 5.9358e-05 0)
(-7.73158e-05 0.00011306 0)
(-0.000147983 0.000170821 0)
(-0.000238029 0.000231386 0)
(-0.000348176 0.000293721 0)
(-0.000478885 0.000356976 0)
(-0.000630387 0.00042045 0)
(-0.000802717 0.000483568 0)
(-0.000995743 0.000545855 0)
(-0.00120919 0.000606922 0)
(-0.00144267 0.000666448 0)
(-0.00169568 0.00072417 0)
(-0.00196764 0.000779871 0)
(-0.00225789 0.000833376 0)
(-0.00256572 0.000884542 0)
(-0.00289036 0.000933253 0)
(-0.00323102 0.000979419 0)
(-0.00358683 0.00102297 0)
(-0.00395695 0.00106385 0)
(-0.00434047 0.00110201 0)
(-0.00473649 0.00113745 0)
(-0.00514411 0.00117012 0)
(-0.00556238 0.00120004 0)
(-0.00599038 0.0012272 0)
(-0.00642718 0.00125161 0)
(-0.00687185 0.00127328 0)
(-0.00732346 0.00129224 0)
(-0.00778107 0.00130851 0)
(-0.00824379 0.00132212 0)
(-0.00871069 0.0013331 0)
(-0.00918088 0.00134149 0)
(-0.00965348 0.00134732 0)
(-0.0101276 0.00135064 0)
(-0.0106024 0.00135149 0)
(-0.011077 0.00134991 0)
(-0.0115505 0.00134596 0)
(-0.0120223 0.00133968 0)
(-0.0124914 0.00133111 0)
(-0.012957 0.00132032 0)
(-0.0134185 0.00130735 0)
(-0.013875 0.00129226 0)
(-0.0143259 0.00127509 0)
(-0.0147703 0.00125591 0)
(-0.0152077 0.00123477 0)
(-0.0156373 0.00121172 0)
(-0.0160584 0.00118682 0)
(-0.0164705 0.00116013 0)
(-0.0168729 0.0011317 0)
(-0.017265 0.00110159 0)
(-0.0176463 0.00106987 0)
(-0.0180161 0.00103658 0)
(-0.018374 0.00100179 0)
(-0.0187193 0.000965551 0)
(-0.0190517 0.000927929 0)
(-0.0193707 0.000888982 0)
(-0.0196757 0.000848769 0)
(-0.0199664 0.000807351 0)
(-0.0202423 0.00076479 0)
(-0.0205031 0.000721145 0)
(-0.0207483 0.000676479 0)
(-0.0209777 0.000630854 0)
(-0.0211909 0.000584332 0)
(-0.0213876 0.000536976 0)
(-0.0215675 0.00048885 0)
(-0.0217304 0.000440017 0)
(-0.021876 0.000390541 0)
(-0.0220041 0.000340488 0)
(-0.0221146 0.000289922 0)
(-0.0222072 0.00023891 0)
(-0.0222818 0.000187518 0)
(-0.0223383 0.000135813 0)
(-0.0223765 8.38624e-05 0)
(-0.0223966 3.17343e-05 0)
(-0.0223982 -2.05026e-05 0)
(-0.0223816 -7.27792e-05 0)
(-0.0223466 -0.000125026 0)
(-0.0222932 -0.000177172 0)
(-0.0222216 -0.000229147 0)
(-0.0221318 -0.000280879 0)
(-0.0220239 -0.000332297 0)
(-0.021898 -0.000383328 0)
(-0.0217543 -0.0004339 0)
(-0.0215929 -0.000483938 0)
(-0.0214141 -0.000533371 0)
(-0.0212181 -0.000582123 0)
(-0.0210051 -0.00063012 0)
(-0.0207754 -0.000677288 0)
(-0.0205293 -0.000723553 0)
(-0.0202673 -0.000768839 0)
(-0.0199895 -0.000813072 0)
(-0.0196964 -0.000856177 0)
(-0.0193884 -0.000898078 0)
(-0.019066 -0.000938702 0)
(-0.0187296 -0.000977973 0)
(-0.0183797 -0.00101582 0)
(-0.0180167 -0.00105216 0)
(-0.0176414 -0.00108694 0)
(-0.0172541 -0.00112006 0)
(-0.0168556 -0.00115147 0)
(-0.0164463 -0.0011811 0)
(-0.0160271 -0.00120886 0)
(-0.0155984 -0.0012347 0)
(-0.015161 -0.00125854 0)
(-0.0147157 -0.00128032 0)
(-0.014263 -0.00129998 0)
(-0.0138039 -0.00131745 0)
(-0.013339 -0.00133267 0)
(-0.0128692 -0.00134558 0)
(-0.0123953 -0.00135613 0)
(-0.011918 -0.00136425 0)
(-0.0114383 -0.0013699 0)
(-0.010957 -0.00137303 0)
(-0.010475 -0.00137359 0)
(-0.00999318 -0.00137153 0)
(-0.00951247 -0.00136683 0)
(-0.00903377 -0.00135943 0)
(-0.00855802 -0.00134931 0)
(-0.00808617 -0.00133644 0)
(-0.00761915 -0.00132079 0)
(-0.00715793 -0.00130235 0)
(-0.00670346 -0.0012811 0)
(-0.0062567 -0.00125703 0)
(-0.00581861 -0.00123015 0)
(-0.00539014 -0.00120045 0)
(-0.00497224 -0.00116795 0)
(-0.00456585 -0.00113267 0)
(-0.0041719 -0.00109464 0)
(-0.00379129 -0.00105391 0)
(-0.00342493 -0.00101052 0)
(-0.00307367 -0.000964547 0)
(-0.00273835 -0.000916067 0)
(-0.00241977 -0.00086518 0)
(-0.00211869 -0.000812008 0)
(-0.00183581 -0.000756695 0)
(-0.00157177 -0.000699411 0)
(-0.00132717 -0.000640362 0)
(-0.00110249 -0.000579792 0)
(-0.000898133 -0.00051799 0)
(-0.000714398 -0.000455302 0)
(-0.000551447 -0.000392141 0)
(-0.0004093 -0.000329 0)
(-0.000287802 -0.000266471 0)
(-0.000186599 -0.000205265 0)
(-0.000105112 -0.000146237 0)
(-4.24953e-05 -9.04144e-05 0)
(2.39623e-06 -3.90352e-05 0)
(3.10492e-05 6.41683e-06 0)
(4.5337e-05 4.41734e-05 0)
(4.75686e-05 7.21466e-05 0)
(4.05069e-05 8.79036e-05 0)
(2.74269e-05 8.86718e-05 0)
(1.28113e-05 7.13664e-05 0)
(2.89738e-06 3.24313e-05 0)
(2.22608e-06 -3.78029e-05 0)
(8.61879e-06 -7.88892e-05 0)
(1.57071e-05 -9.1942e-05 0)
(1.77661e-05 -8.20411e-05 0)
(1.04774e-05 -5.33352e-05 0)
(-9.42012e-06 -9.43092e-06 0)
(-4.46486e-05 4.65583e-05 0)
(-9.74593e-05 0.000111978 0)
(-0.000169662 0.000184583 0)
(-0.000262674 0.000262481 0)
(-0.000377565 0.000344089 0)
(-0.000515097 0.000428082 0)
(-0.000675759 0.000513359 0)
(-0.000859804 0.000598999 0)
(-0.00106727 0.000684238 0)
(-0.00129804 0.000768441 0)
(-0.0015518 0.000851076 0)
(-0.00182813 0.000931707 0)
(-0.0021265 0.00100997 0)
(-0.00244626 0.00108556 0)
(-0.00278671 0.00115823 0)
(-0.00314703 0.00122778 0)
(-0.0035264 0.00129404 0)
(-0.0039239 0.00135688 0)
(-0.0043386 0.0014162 0)
(-0.00476953 0.00147191 0)
(-0.00521568 0.00152395 0)
(-0.00567603 0.00157229 0)
(-0.00614956 0.00161689 0)
(-0.0066352 0.00165773 0)
(-0.00713191 0.00169482 0)
(-0.00763863 0.00172816 0)
(-0.00815429 0.00175777 0)
(-0.00867784 0.00178367 0)
(-0.00920823 0.00180589 0)
(-0.0097444 0.00182447 0)
(-0.0102853 0.00183945 0)
(-0.01083 0.00185088 0)
(-0.0113773 0.00185881 0)
(-0.0119263 0.00186328 0)
(-0.0124761 0.00186437 0)
(-0.0130256 0.00186212 0)
(-0.0135738 0.00185661 0)
(-0.0141199 0.00184789 0)
(-0.0146629 0.00183603 0)
(-0.0152019 0.00182111 0)
(-0.015736 0.00180319 0)
(-0.0162643 0.00178235 0)
(-0.0167861 0.00175866 0)
(-0.0173004 0.00173218 0)
(-0.0178066 0.00170301 0)
(-0.0183037 0.0016712 0)
(-0.018791 0.00163685 0)
(-0.0192679 0.00160002 0)
(-0.0197335 0.0015608 0)
(-0.0201872 0.00151927 0)
(-0.0206283 0.0014755 0)
(-0.0210562 0.00142958 0)
(-0.0214702 0.00138158 0)
(-0.0218698 0.00133159 0)
(-0.0222544 0.00127968 0)
(-0.0226234 0.00122595 0)
(-0.0229762 0.00117047 0)
(-0.0233125 0.00111333 0)
(-0.0236317 0.00105462 0)
(-0.0239333 0.000994404 0)
(-0.024217 0.000932783 0)
(-0.0244823 0.000869839 0)
(-0.0247289 0.000805658 0)
(-0.0249564 0.000740328 0)
(-0.0251644 0.000673935 0)
(-0.0253527 0.000606568 0)
(-0.0255211 0.000538316 0)
(-0.0256692 0.000469268 0)
(-0.0257968 0.000399516 0)
(-0.0259038 0.000329149 0)
(-0.02599 0.00025826 0)
(-0.0260552 0.000186941 0)
(-0.0260994 0.000115285 0)
(-0.0261224 4.33876e-05 0)
(-0.0261242 -2.86577e-05 0)
(-0.0261048 -0.000100755 0)
(-0.0260641 -0.000172808 0)
(-0.0260023 -0.00024472 0)
(-0.0259193 -0.000316393 0)
(-0.0258153 -0.000387727 0)