/*--------------------------------*- C++ -*----------------------------------*\
  =========                 |
  \\      /  F ield         | OpenFOAM: The Open Source CFD Toolbox
   \\    /   O peration     | Website:  https://openfoam.org
    \\  /    A nd           | Version:  7
     \\/     M anipulation  |
\*---------------------------------------------------------------------------*/
FoamFile
{
    version     2.0;
    format      ascii;
    class       volScalarField;
    location    "0.3125";
    object      p;
}
// * * * * * * * * * * * * * * * * * * * * * * * * * * * * * * * * * * * * * //

dimensions      [0 2 -2 0 0 0 0];

internalField   nonuniform List<scalar> 
25600
(
3.13771e-06
0.000116945
0.000146086
3.80602e-05
-0.000215272
-0.000609499
-0.00113375
-0.00177374
-0.0025139
-0.00333882
-0.00423396
-0.00518582
-0.00618186
-0.00721039
-0.00826067
-0.00932287
-0.010388
-0.0114478
-0.0124948
-0.0135218
-0.0145228
-0.0154917
-0.0164234
-0.0173131
-0.0181564
-0.0189493
-0.0196883
-0.0203702
-0.020992
-0.0215512
-0.0220456
-0.022473
-0.0228318
-0.0231205
-0.0233378
-0.0234826
-0.0235541
-0.0235516
-0.0234747
-0.0233231
-0.0230966
-0.0227953
-0.0224194
-0.0219692
-0.0214451
-0.0208477
-0.0201779
-0.0194363
-0.0186239
-0.0177418
-0.0167912
-0.0157732
-0.0146892
-0.0135407
-0.0123292
-0.0110562
-0.00972349
-0.00833279
-0.00688593
-0.00538479
-0.00383135
-0.00222763
-0.000575713
0.00112225
0.00286406
0.00464748
0.00647019
0.00832987
0.0102241
0.0121504
0.0141064
0.0160894
0.0180969
0.0201264
0.0221751
0.0242405
0.0263199
0.0284104
0.0305095
0.0326143
0.0347221
0.0368301
0.0389355
0.0410355
0.0431273
0.045208
0.047275
0.0493253
0.0513561
0.0533648
0.0553485
0.0573044
0.0592298
0.0611221
0.0629786
0.0647966
0.0665735
0.0683069
0.0699941
0.0716327
0.0732204
0.0747547
0.0762335
0.0776545
0.0790157
0.0803149
0.0815503
0.08272
0.0838222
0.0848553
0.0858178
0.0867082
0.0875253
0.0882679
0.0889349
0.0895255
0.0900389
0.0904745
0.0908319
0.0911109
0.0913114
0.0914334
0.0914773
0.0914435
0.0913328
0.0911461
0.0908846
0.0905495
0.0901425
0.0896654
0.0891205
0.0885101
0.0878369
0.087104
0.0863146
0.0854725
0.0845816
0.0836464
0.0826716
0.0816626
0.0806249
0.0795648
0.0784889
0.0774045
0.0763194
0.0752421
0.0741817
0.0731482
0.0721521
0.071205
0.0703193
0.0695083
0.0687858
0.0681662
0.0676639
0.0672921
0.06706
0.0669696
0.0670099
0.0671252
-0.000106326
5.69913e-06
1.02278e-05
-0.000110763
-0.000352773
-0.000714047
-0.00118827
-0.00176507
-0.00243232
-0.00317756
-0.00398858
-0.00485367
-0.0057616
-0.00670178
-0.00766437
-0.00864025
-0.00962096
-0.0105987
-0.0115661
-0.0125167
-0.0134443
-0.0143433
-0.0152085
-0.0160353
-0.0168193
-0.0175567
-0.0182439
-0.0188778
-0.0194554
-0.0199741
-0.0204317
-0.0208262
-0.0211557
-0.0214188
-0.0216141
-0.0217405
-0.0217972
-0.0217833
-0.0216984
-0.0215422
-0.0213144
-0.021015
-0.0206441
-0.0202021
-0.0196892
-0.019106
-0.0184532
-0.0177314
-0.0169417
-0.0160849
-0.0151621
-0.0141745
-0.0131233
-0.01201
-0.0108359
-0.00960268
-0.0083118
-0.00696499
-0.005564
-0.00411064
-0.0026068
-0.00105443
0.000544468
0.00218782
0.00387352
0.00559939
0.00736322
0.00916274
0.0109956
0.0128595
0.014752
0.0166707
0.018613
0.0205764
0.0225585
0.0245566
0.0265681
0.0285905
0.030621
0.0326571
0.034696
0.036735
0.0387714
0.0408026
0.0428258
0.0448383
0.0468373
0.0488202
0.0507843
0.0527269
0.0546453
0.0565368
0.0583989
0.0602288
0.0620241
0.0637823
0.0655008
0.0671771
0.0688089
0.0703938
0.0719296
0.0734139
0.0748446
0.0762196
0.0775369
0.0787946
0.0799908
0.0811238
0.0821919
0.0831935
0.0841272
0.0849916
0.0857856
0.0865081
0.0871581
0.0877349
0.0882376
0.0886659
0.0890194
0.0892978
0.0895012
0.0896298
0.0896838
0.0896638
0.0895706
0.0894051
0.0891686
0.0888622
0.0884878
0.0880472
0.0875425
0.0869762
0.0863509
0.0856696
0.0849356
0.0841525
0.0833242
0.0824552
0.0815499
0.0806137
0.0796518
0.0786704
0.0776758
0.076675
0.0756753
0.0746848
0.0737121
0.0727663
0.0718572
0.0709952
0.0701913
0.0694569
0.0688037
0.0682433
0.0677867
0.0674432
0.0672181
0.0671114
0.0671253
0.0672406
-0.000134533
2.05418e-06
6.33892e-06
-0.000115719
-0.000347644
-0.000686562
-0.00112703
-0.00166021
-0.00227594
-0.00296372
-0.00371301
-0.00451337
-0.00535465
-0.00622725
-0.00712211
-0.00803073
-0.00894516
-0.00985798
-0.0107623
-0.0116518
-0.0125206
-0.0133632
-0.0141746
-0.0149503
-0.0156861
-0.0163781
-0.017023
-0.0176174
-0.0181586
-0.018644
-0.0190713
-0.0194385
-0.0197438
-0.0199857
-0.0201627
-0.0202738
-0.020318
-0.0202947
-0.0202031
-0.020043
-0.019814
-0.0195162
-0.0191496
-0.0187143
-0.0182108
-0.0176395
-0.0170009
-0.0162958
-0.015525
-0.0146894
-0.01379
-0.0128279
-0.0118044
-0.0107206
-0.00957812
-0.00837826
-0.0071226
-0.00581276
-0.00445041
-0.00303732
-0.00157528
-6.61926e-05
0.001488
0.00308531
0.00472368
0.00640101
0.00811517
0.00986395
0.0116451
0.0134563
0.0152953
0.0171596
0.0190469
0.0209546
0.0228804
0.0248218
0.0267762
0.028741
0.0307138
0.0326919
0.0346726
0.0366535
0.0386319
0.0406051
0.0425704
0.0445254
0.0464673
0.0483935
0.0503014
0.0521884
0.0540518
0.0558891
0.0576979
0.0594754
0.0612194
0.0629272
0.0645966
0.0662251
0.0678104
0.0693503
0.0708424
0.0722848
0.0736752
0.0750117
0.0762923
0.0775152
0.0786787
0.0797809
0.0808204
0.0817956
0.0827053
0.083548
0.0843228
0.0850285
0.0856644
0.0862296
0.0867235
0.0871457
0.0874958
0.0877738
0.0879797
0.0881136
0.088176
0.0881674
0.0880887
0.0879407
0.0877248
0.0874422
0.0870946
0.0866839
0.0862122
0.085682
0.0850958
0.0844567
0.0837678
0.0830327
0.0822553
0.0814397
0.0805905
0.0797127
0.0788116
0.0778929
0.0769628
0.0760278
0.0750952
0.0741723
0.0732672
0.0723886
0.0715453
0.0707468
0.070003
0.069324
0.0687199
0.0682005
0.0677752
0.0674516
0.0672342
0.0671249
0.067139
0.067281
-2.63237e-05
0.000123183
0.000129063
7.23085e-06
-0.000218819
-0.000544098
-0.000962765
-0.00146648
-0.00204619
-0.00269261
-0.00339628
-0.00414776
-0.00493784
-0.00575775
-0.00659914
-0.00745406
-0.00831506
-0.00917514
-0.0100278
-0.0108669
-0.0116869
-0.0124825
-0.0132489
-0.0139817
-0.0146767
-0.0153304
-0.0159392
-0.0165001
-0.0170102
-0.0174671
-0.0178684
-0.0182121
-0.0184965
-0.01872
-0.0188812
-0.0189791
-0.0190126
-0.0189809
-0.0188836
-0.0187201
-0.0184902
-0.0181937
-0.0178308
-0.0174015
-0.0169062
-0.0163453
-0.0157193
-0.0150288
-0.0142747
-0.0134577
-0.0125789
-0.0116393
-0.0106401
-0.00958248
-0.00846777
-0.00729738
-0.00607281
-0.0047956
-0.00346738
-0.00208984
-0.000664736
0.000806099
0.00232078
0.00387738
0.00547391
0.00710834
0.00877857
0.0104825
0.0122179
0.0139825
0.0157741
0.0175904
0.019429
0.0212875
0.0231636
0.0250548
0.0269587
0.0288727
0.0307943
0.0327212
0.0346506
0.0365802
0.0385072
0.0404292
0.0423435
0.0442477
0.0461392
0.0480153
0.0498736
0.0517116
0.0535266
0.0553162
0.0570779
0.0588093
0.0605081
0.0621717
0.0637978
0.0653843
0.0669287
0.0684289
0.0698828
0.0712883
0.0726434
0.0739461
0.0751945
0.0763869
0.0775216
0.0785969
0.0796114
0.0805636
0.0814522
0.082276
0.0830339
0.083725
0.0843484
0.0849035
0.0853897
0.0858065
0.0861538
0.0864313
0.0866393
0.0867778
0.0868474
0.0868486
0.0867823
0.0866494
0.0864511
0.0861888
0.0858641
0.085479
0.0850355
0.0845359
0.083983
0.0833796
0.0827288
0.0820342
0.0812994
0.0805286
0.0797262
0.078897
0.0780461
0.0771789
0.0763015
0.0754201
0.0745413
0.0736724
0.0728208
0.0719945
0.0712018
0.0704513
0.0697521
0.0691131
0.0685436
0.0680521
0.0676473
0.0673364
0.0671243
0.0670152
0.0670324
0.0671913
0.000226392
0.000365619
0.000362037
0.00023422
7.95139e-06
-0.000310413
-0.000714774
-0.00119724
-0.00174956
-0.00236331
-0.0030299
-0.0037408
-0.00448768
-0.00526251
-0.00605757
-0.0068655
-0.00767934
-0.00849251
-0.00929885
-0.0100926
-0.0108684
-0.0116212
-0.0123465
-0.0130398
-0.0136975
-0.0143157
-0.0148911
-0.0154209
-0.0159021
-0.0163323
-0.0167093
-0.0170311
-0.0172959
-0.0175022
-0.0176486
-0.017734
-0.0177574
-0.017718
-0.0176152
-0.0174486
-0.0172178
-0.0169228
-0.0165635
-0.01614
-0.0156525
-0.0151016
-0.0144876
-0.0138112
-0.0130731
-0.0122741
-0.011415
-0.010497
-0.00952117
-0.00848861
-0.00740062
-0.00625857
-0.00506388
-0.00381805
-0.00252265
-0.00117931
0.000210253
0.00164428
0.00312095
0.00463837
0.00619463
0.00778775
0.00941571
0.0110764
0.0127678
0.0144876
0.0162336
0.0180036
0.0197954
0.0216065
0.0234347
0.0252777
0.0271329
0.028998
0.0308705
0.0327481
0.0346282
0.0365083
0.038386
0.0402587
0.042124
0.0439794
0.0458224
0.0476505
0.0494612
0.051252
0.0530206
0.0547644
0.056481
0.0581682
0.0598235
0.0614447
0.0630295
0.0645756
0.0660809
0.0675432
0.0689605
0.0703307
0.0716519
0.0729223
0.0741399
0.0753032
0.0764104
0.07746
0.0784506
0.0793808
0.0802493
0.0810549
0.0817968
0.0824739
0.0830855
0.0836309
0.0841097
0.0845213
0.0848657
0.0851428
0.0853526
0.0854954
0.0855717
0.085582
0.0855272
0.0854084
0.0852265
0.0849831
0.0846798
0.0843185
0.0839011
0.0834301
0.0829079
0.0823375
0.0817219
0.0810644
0.0803688
0.0796389
0.0788791
0.0780939
0.0772884
0.0764676
0.0756373
0.0748034
0.0739722
0.0731505
0.0723452
0.0715637
0.0708137
0.0701032
0.0694402
0.0688331
0.0682899
0.0678188
0.0674275
0.0671234
0.0669115
0.0667975
0.0668076
0.0669605
0.000620169
0.000727763
0.000702113
0.00056033
0.000326669
7.99833e-06
-0.000389577
-0.000858669
-0.00139167
-0.00198083
-0.00261838
-0.00329658
-0.00400788
-0.00474493
-0.00550061
-0.00626811
-0.00704096
-0.00781301
-0.00857846
-0.00933187
-0.0100681
-0.0107825
-0.0114706
-0.0121283
-0.0127518
-0.0133377
-0.0138826
-0.0143837
-0.0148383
-0.015244
-0.0155986
-0.0159001
-0.0161468
-0.0163371
-0.0164698
-0.0165436
-0.0165576
-0.016511
-0.0164033
-0.0162338
-0.0160023
-0.0157087
-0.0153529
-0.0149349
-0.0144551
-0.0139137
-0.0133112
-0.0126483
-0.0119254
-0.0111435
-0.0103034
-0.00940601
-0.00845245
-0.00744383
-0.00638139
-0.00526642
-0.00410029
-0.00288446
-0.00162044
-0.000309812
0.00104577
0.0024446
0.00388489
0.00536484
0.00688258
0.00843619
0.0100237
0.0116431
0.0132923
0.0149692
0.0166716
0.0183974
0.0201443
0.0219101
0.0236926
0.0254893
0.027298
0.0291164
0.0309419
0.0327724
0.0346052
0.0364382
0.0382687
0.0400944
0.0419129
0.0437217
0.0455184
0.0473006
0.0490659
0.0508118
0.052536
0.0542361
0.0559098
0.0575547
0.0591687
0.0607495
0.0622948
0.0638026
0.0652706
0.0666968
0.0680792
0.0694159
0.0707049
0.0719445
0.0731329
0.0742685
0.0753497
0.0763749
0.0773428
0.078252
0.0791014
0.0798899
0.0806165
0.0812803
0.0818806
0.0824168
0.0828885
0.0832952
0.0836368
0.0839132
0.0841246
0.0842713
0.0843537
0.0843724
0.0843283
0.0842224
0.0840557
0.0838298
0.0835462
0.0832066
0.0828133
0.0823684
0.0818744
0.0813341
0.0807505
0.0801269
0.0794667
0.0787738
0.0780523
0.0773066
0.0765415
0.0757618
0.074973
0.0741807
0.0733909
0.0726097
0.0718438
0.0710999
0.0703852
0.0697068
0.0690724
0.0684894
0.0679651
0.067507
0.0671222
0.066818
0.0665997
0.0664735
0.0664646
0.0665906
0.00114445
0.00120319
0.00114409
0.000980299
0.000731813
0.000405426
7.10916e-06
-0.000456258
-0.000977646
-0.00154998
-0.00216622
-0.00281935
-0.00350249
-0.00420891
-0.00493207
-0.00566569
-0.00640375
-0.00714052
-0.00787058
-0.00858881
-0.0092904
-0.00997084
-0.0106259
-0.0112518
-0.0118448
-0.0124015
-0.0129189
-0.0133942
-0.0138246
-0.014208
-0.0145421
-0.0148251
-0.0150552
-0.015231
-0.0153511
-0.0154143
-0.0154198
-0.0153667
-0.0152544
-0.0150824
-0.0148504
-0.0145583
-0.0142058
-0.0137932
-0.0133206
-0.0127884
-0.0121969
-0.0115466
-0.0108383
-0.0100726
-0.0092504
-0.00837259
-0.00744018
-0.00645427
-0.00541605
-0.00432676
-0.00318772
-0.00200035
-0.000766086
0.000513515
0.00183686
0.00320228
0.00460806
0.00605245
0.00753364
0.00904975
0.0105989
0.012179
0.0137882
0.0154244
0.0170855
0.0187693
0.0204737
0.0221965
0.0239355
0.0256884
0.027453
0.029227
0.031008
0.0327938
0.0345819
0.0363701
0.0381559
0.0399371
0.0417112
0.0434759
0.0452288
0.0469675
0.0486898
0.0503932
0.0520754
0.0537342
0.0553673
0.0569724
0.0585473
0.0600899
0.0615979
0.0630694
0.0645022
0.0658944
0.0672439
0.068549
0.0698077
0.0710183
0.0721792
0.0732887
0.0743452
0.0753474
0.0762939
0.0771835
0.0780149
0.0787872
0.0794994
0.0801507
0.0807403
0.0812678
0.0817327
0.0821346
0.0824735
0.0827492
0.082962
0.0831121
0.0832
0.0832263
0.0831919
0.0830976
0.0829448
0.0827347
0.0824689
0.0821492
0.0817776
0.0813563
0.0808878
0.0803746
0.0798197
0.0792263
0.0785977
0.0779377
0.0772501
0.0765392
0.0758094
0.0750656
0.0743126
0.0735559
0.0728011
0.0720539
0.0713205
0.0706071
0.0699203
0.0692668
0.0686534
0.0680868
0.0675741
0.0671217
0.0667366
0.0664253
0.0661934
0.0660473
0.0660081
0.0660903
0.00178524
0.00178211
0.00167991
0.00148651
0.00121603
0.000874854
0.00046879
4.15995e-06
-0.000512637
-0.00107521
-0.00167716
-0.00231215
-0.00297388
-0.00365622
-0.00435318
-0.00505896
-0.00576799
-0.00647495
-0.00717478
-0.00786269
-0.00853414
-0.00918489
-0.00981097
-0.0104087
-0.0109745
-0.0115053
-0.011998
-0.01245
-0.0128588
-0.013222
-0.0135376
-0.0138038
-0.0140189
-0.0141815
-0.0142901
-0.0143438
-0.0143415
-0.0142826
-0.0141662
-0.0139921
-0.0137598
-0.0134692
-0.0131201
-0.0127127
-0.012247
-0.0117235
-0.0111423
-0.0105042
-0.00980966
-0.00905937
-0.00825415
-0.00739488
-0.00648252
-0.00551814
-0.00450287
-0.00343791
-0.00232455
-0.00116414
4.1906e-05
0.00129209
0.00258487
0.00391862
0.00529168
0.00670236
0.00814889
0.00962945
0.0111422
0.0126852
0.0142564
0.015854
0.0174758
0.0191198
0.0207839
0.022466
0.0241638
0.0258752
0.027598
0.0293299
0.0310688
0.0328122
0.034558
0.0363038
0.0380474
0.0397864
0.0415185
0.0432414
0.0449529
0.0466505
0.0483321
0.0499953
0.0516379
0.0532577
0.0548524
0.0564198
0.0579579
0.0594644
0.0609374
0.0623747
0.0637743
0.0651343
0.0664529
0.0677281
0.0689583
0.0701416
0.0712765
0.0723614
0.0733949
0.0743755
0.0753018
0.0761728
0.0769874
0.0777444
0.078443
0.0790825
0.0796621
0.0801813
0.0806397
0.0810371
0.0813732
0.0816481
0.0818619
0.082015
0.0821077
0.0821409
0.0821151
0.0820315
0.0818911
0.0816953
0.0814456
0.0811437
0.0807916
0.0803915
0.0799457
0.0794568
0.0789275
0.0783609
0.0777603
0.0771291
0.0764712
0.0757906
0.0750915
0.0743784
0.073656
0.0729293
0.0722036
0.0714843
0.070777
0.0700877
0.0694222
0.0687867
0.0681874
0.0676306
0.0671225
0.0666693
0.0662772
0.0659522
0.0656998
0.0655261
0.0654471
0.0654723
0.00252795
0.00245351
0.00230037
0.00207058
0.00177151
0.00140913
0.000988986
0.000516762
-1.82247e-06
-0.000561019
-0.00115505
-0.00177816
-0.00242464
-0.00308889
-0.00376543
-0.00444893
-0.00513425
-0.00581648
-0.00649089
-0.00715301
-0.0077986
-0.00842368
-0.0090245
-0.00959753
-0.0101395
-0.0106473
-0.0111182
-0.0115494
-0.0119388
-0.0122839
-0.012583
-0.0128341
-0.0130356
-0.0131862
-0.0132846
-0.0133297
-0.0133205
-0.0132563
-0.0131365
-0.0129606
-0.0127282
-0.0124392
-0.0120935
-0.011691
-0.011232
-0.0107168
-0.0101456
-0.00951896
-0.00883748
-0.0081018
-0.00731269
-0.00647099
-0.00557763
-0.00463364
-0.00364011
-0.00259821
-0.00150917
-0.000374297
0.000805022
0.00202734
0.00329116
0.00459491
0.00593699
0.00731573
0.00872943
0.0101763
0.0116546
0.0131623
0.0146977
0.0162587
0.0178433
0.0194497
0.0210756
0.022719
0.0243779
0.02605
0.0277332
0.0294254
0.0311242
0.0328277
0.0345334
0.0362391
0.0379427
0.0396418
0.0413342
0.0430177
0.04469
0.0463489
0.047992
0.0496173
0.0512225
0.0528054
0.0543639
0.0558959
0.0573992
0.0588717
0.0603116
0.0617167
0.0630851
0.0644149
0.0657043
0.0669515
0.0681547
0.0693124
0.0704229
0.0714847
0.0724964
0.0734566
0.0743641
0.0752177
0.0760163
0.0767589
0.0774448
0.0780731
0.0786432
0.0791545
0.0796068
0.0799997
0.0803331
0.0806071
0.0808217
0.0809773
0.0810743
0.0811134
0.0810954
0.0810212
0.0808919
0.0807089
0.0804736
0.0801877
0.0798531
0.0794718
0.0790462
0.0785787
0.078072
0.077529
0.0769528
0.0763469
0.0757147
0.0750602
0.0743872
0.0737001
0.0730033
0.0723015
0.0715995
0.0709025
0.0702156
0.0695443
0.068894
0.0682704
0.0676791
0.0671258
0.0666162
0.066156
0.0657507
0.0654057
0.0651265
0.0649186
0.0647919
0.0647503
0.00335855
0.00320602
0.00299573
0.00272376
0.00239041
0.00200116
0.00156128
0.00107574
0.000549595
-1.20075e-05
-0.000603871
-0.0012208
-0.00185763
-0.00250927
-0.0031707
-0.00383707
-0.00450363
-0.00516584
-0.00581933
-0.00645994
-0.00708372
-0.00768693
-0.00826603
-0.00881772
-0.00933887
-0.0098266
-0.0102782
-0.0106912
-0.0110633
-0.0113925
-0.0116768
-0.0119144
-0.0121039
-0.0122439
-0.0123331
-0.0123705
-0.0123552
-0.0122865
-0.0121637
-0.0119863
-0.0117541
-0.0114668
-0.0111244
-0.0107268
-0.0102742
-0.00976691
-0.00920519
-0.00858953
-0.00792047
-0.00719864
-0.00642479
-0.00559972
-0.00472435
-0.00379966
-0.00282671
-0.00180661
-0.000740573
0.000370136
0.00152417
0.00272014
0.00395657
0.00523195
0.00654471
0.00789326
0.0092759
0.0106909
0.0121366
0.013611
0.0151124
0.0166388
0.0181884
0.0197591
0.0213489
0.0229558
0.0245778
0.0262128
0.0278586
0.0295132
0.0311744
0.03284
0.0345078
0.0361757
0.0378415
0.039503
0.041158
0.0428043
0.0444397
0.0460619
0.0476689
0.0492585
0.0508284
0.0523766
0.0539011
0.0553996
0.0568702
0.0583108
0.0597195
0.0610943
0.0624333
0.0637348
0.0649968
0.0662176
0.0673956
0.0685292
0.0696168
0.070657
0.0716483
0.0725894
0.0734791
0.0743163
0.0751
0.0758291
0.076503
0.0771207
0.0776818
0.0781857
0.0786321
0.0790207
0.0793514
0.0796243
0.0798394
0.079997
0.0800978
0.0801421
0.0801309
0.0800651
0.0799457
0.079774
0.0795514
0.0792796
0.0789603
0.0785957
0.0781879
0.0777391
0.0772522
0.0767297
0.0761747
0.0755904
0.0749803
0.0743478
0.0736968
0.0730313
0.0723554
0.0716736
0.0709904
0.0703104
0.0696385
0.0689797
0.068339
0.0677217
0.0671327
0.0665773
0.0660606
0.0655878
0.0651637
0.0647934
0.0644817
0.064234
0.0640533
0.0639378
0.00426372
0.00402831
0.00375615
0.00343733
0.00306491
0.00264389
0.00217926
0.0016753
0.00113643
0.000567227
-2.76627e-05
-0.000643576
-0.00127586
-0.00191988
-0.0025711
-0.00322507
-0.00387744
-0.00452402
-0.00516079
-0.00578389
-0.00638964
-0.00697456
-0.00753532
-0.00806881
-0.00857212
-0.00904249
-0.0094774
-0.00987447
-0.0102315
-0.0105466
-0.0108179
-0.0110437
-0.0112226
-0.0113531
-0.0114343
-0.011465
-0.0114444
-0.0113717
-0.0112464
-0.011068
-0.0108362
-0.0105507
-0.0102116
-0.00981877
-0.00937238
-0.00887267
-0.00831997
-0.00771472
-0.00705744
-0.00634874
-0.00558933
-0.00478
-0.00392164
-0.00301518
-0.00206166
-0.00106216
-1.7854e-05
0.00107004
0.0022002
0.00337128
0.00458185
0.00583044
0.00711553
0.00843555
0.00978889
0.0111738
0.0125887
0.0140317
0.015501
0.0169948
0.0185112
0.0200483
0.021604
0.0231765
0.0247638
0.0263637
0.0279743
0.0295934
0.031219
0.032849
0.0344812
0.0361134
0.0377437
0.0393698
0.0409895
0.0426007
0.0442014
0.0457892
0.0473622
0.0489181
0.0504549
0.0519706
0.053463
0.0549301
0.05637
0.0577806
0.0591601
0.0605065
0.061818
0.0630928
0.0643292
0.0655253
0.0666797
0.0677907
0.0688569
0.0698767
0.0708489
0.0717722
0.0726453
0.0734672
0.0742368
0.0749533
0.0756158
0.0762237
0.0767763
0.0772732
0.0777139
0.0780984
0.0784264
0.0786979
0.0789132
0.0790726
0.0791764
0.0792253
0.07922
0.0791615
0.0790507
0.0788889
0.0786775
0.078418
0.0781122
0.0777621
0.0773696
0.0769372
0.0764672
0.0759623
0.0754254
0.0748594
0.0742676
0.0736535
0.0730205
0.0723724
0.0717132
0.0710469
0.0703777
0.06971
0.0690482
0.0683969
0.0677608
0.0671445
0.0665527
0.0659901
0.0654612
0.0649708
0.0645231
0.0641224
0.0637736
0.0634814
0.0632419
0.0630476
0.00523101
0.00490953
0.00457208
0.00420275
0.00378729
0.00333031
0.00283656
0.00230969
0.00175352
0.00117208
0.000569503
-5.00541e-05
-0.000682404
-0.00132338
-0.00196885
-0.00261476
-0.00325715
-0.00389218
-0.00451613
-0.00512545
-0.00571673
-0.00628671
-0.0068323
-0.00735059
-0.00783883
-0.00829445
-0.00871506
-0.00909843
-0.0094425
-0.00974538
-0.0100054
-0.0102208
-0.0103904
-0.0105129
-0.010587
-0.0106119
-0.0105867
-0.0105107
-0.0103834
-0.0102043
-0.00997317
-0.00968971
-0.00935388
-0.00896569
-0.00852527
-0.00803284
-0.00748874
-0.00689338
-0.00624726
-0.00555099
-0.00480523
-0.00401078
-0.00316847
-0.00227922
-0.00134404
-0.000363963
0.000659862
0.00172624
0.0028339
0.00398151
0.00516771
0.00639105
0.00765007
0.00894322
0.0102689
0.0116256
0.0130114
0.0144248
0.0158639
0.017327
0.0188121
0.0203175
0.0218412
0.0233813
0.0249358
0.0265028
0.0280802
0.029666
0.0312581
0.0328546
0.0344532
0.036052
0.0376488
0.0392416
0.0408282
0.0424066
0.0439746
0.0455301
0.0470711
0.0485955
0.0501013
0.0515864
0.0530488
0.0544865
0.0558977
0.0572802
0.0586324
0.0599522
0.061238
0.0624879
0.0637002
0.0648733
0.0660056
0.0670956
0.0681417
0.0691426
0.0700969
0.0710035
0.0718611
0.0726686
0.0734252
0.0741298
0.0747818
0.0753804
0.075925
0.0764152
0.0768506
0.077231
0.0775562
0.0778264
0.0780417
0.0782023
0.0783086
0.0783614
0.0783612
0.0783089
0.0782055
0.0780523
0.0778505
0.0776017
0.0773075
0.0769698
0.0765905
0.076172
0.0757164
0.0752263
0.0747044
0.0741536
0.0735769
0.0729776
0.0723589
0.0717244
0.0710778
0.0704228
0.0697633
0.0691034
0.0684472
0.0677989
0.0671626
0.0665428
0.0659435
0.0653691
0.0648236
0.0643111
0.0638354
0.0634003
0.0630102
0.0626698
0.0623679
0.0620915
0.00624907
0.00583962
0.00543447
0.00501179
0.00455005
0.00405356
0.00352695
0.00297328
0.00239578
0.00179799
0.00118355
0.000556168
-8.04283e-05
-0.000722488
-0.00136628
-0.00200813
-0.00264442
-0.00327164
-0.0038864
-0.00448542
-0.00506553
-0.00562371
-0.00615711
-0.00666299
-0.00713881
-0.00758214
-0.00799075
-0.00836253
-0.00869556
-0.00898805
-0.00923835
-0.00944499
-0.00960662
-0.00972204
-0.0097902
-0.00981017
-0.00978116
-0.00970251
-0.00957368
-0.00939428
-0.00916399
-0.00888262
-0.0085501
-0.00816645
-0.00773179
-0.00724635
-0.00671045
-0.00612447
-0.00548893
-0.00480439
-0.00407154
-0.00329111
-0.00246393
-0.00159089
-0.000672964
0.000288825
0.00129337
0.0023395
0.00342599
0.00455154
0.00571481
0.00691442
0.00814891
0.0094168
0.0107165
0.0120465
0.0134051
0.0147907
0.0162014
0.0176356
0.0190914
0.020567
0.0220606
0.0235702
0.025094
0.02663
0.0281763
0.0297308
0.0312915
0.0328565
0.0344237
0.0359911
0.0375566
0.0391182
0.0406737
0.0422213
0.0437588
0.0452841
0.0467952
0.0482901
0.0497668
0.0512234
0.0526578
0.054068
0.0554523
0.0568087
0.0581353
0.0594304
0.0606921
0.0619188
0.0631088
0.0642604
0.0653721
0.0664425
0.0674699
0.0684532
0.0693909
0.0702819
0.0711251
0.0719193
0.0726637
0.0733573
0.0739993
0.0745892
0.0751263
0.0756101
0.0760404
0.0764169
0.0767395
0.0770082
0.0772231
0.0773846
0.077493
0.0775488
0.0775529
0.0775059
0.0774089
0.0772629
0.0770693
0.0768295
0.0765452
0.076218
0.0758498
0.0754428
0.0749992
0.0745213
0.0740116
0.073473
0.0729083
0.0723205
0.0717127
0.0710881
0.0704503
0.0698028
0.0691491
0.068493
0.0678382
0.0671886
0.0665481
0.0659204
0.0653095
0.0647192
0.064153
0.0636146
0.0631072
0.0626341
0.0621995
0.0618078
0.0614411
0.0610803
0.00730763
0.00680923
0.00633475
0.00585652
0.0053459
0.004807
0.00424437
0.00366053
0.0030582
0.00244043
0.00181044
0.00117147
0.000526868
-0.000120021
-0.000765837
-0.00140725
-0.002041
-0.00266389
-0.0032728
-0.00386472
-0.00443674
-0.00498607
-0.00551006
-0.00600618
-0.00647205
-0.00690542
-0.00730419
-0.0076664
-0.00799025
-0.00827403
-0.00851622
-0.00871541
-0.00887034
-0.00897988
-0.00904304
-0.00905893
-0.00902682
-0.00894608
-0.00881621
-0.00863682
-0.00840764
-0.00812849
-0.00779929
-0.00742008
-0.00699099
-0.00651223
-0.00598412
-0.00540706
-0.00478151
-0.00410806
-0.00338736
-0.00262013
-0.00180719
-0.000949385
-4.76701e-05
0.000896949
0.00188339
0.00291052
0.00397713
0.00508198
0.00622374
0.00740108
0.00861258
0.00985677
0.0111322
0.0124372
0.0137702
0.0151296
0.0165138
0.0179209
0.0193492
0.0207969
0.0222623
0.0237434
0.0252384
0.0267454
0.0282625
0.0297877
0.0313191
0.0328547
0.0343925
0.0359304
0.0374667
0.0389991
0.0405257
0.0420445
0.0435534
0.0450505
0.0465338
0.0480012
0.0494509
0.0508808
0.052289
0.0536738
0.055033
0.056365
0.0576679
0.05894
0.0601794
0.0613845
0.0625537
0.0636854
0.064778
0.0658302
0.0668403
0.0678072
0.0687296
0.0696062
0.0704359
0.0712178
0.0719508
0.0726341
0.073267
0.0738487
0.0743787
0.0748567
0.0752821
0.0756548
0.0759747
0.0762418
0.0764562
0.0766181
0.076728
0.0767864
0.0767939
0.0767513
0.0766596
0.0765197
0.0763329
0.0761007
0.0758244
0.0755059
0.0751468
0.0747492
0.0743152
0.073847
0.0733471
0.0728179
0.0722622
0.0716827
0.0710826
0.0704647
0.0698323
0.0691886
0.0685371
0.067881
0.0672239
0.0665692
0.0659206
0.0652814
0.0646551
0.0640451
0.0634546
0.0628869
0.0623447
0.0618306
0.061349
0.0609038
0.0604703
0.0600241
0.00839733
0.00780969
0.00726483
0.00672947
0.00616795
0.00558427
0.00498298
0.0043661
0.00373589
0.00309497
0.00244614
0.00179225
0.00113627
0.000481177
-0.000170017
-0.000814326
-0.0014488
-0.00207053
-0.00267667
-0.00326446
-0.00383124
-0.00437445
-0.00489163
-0.00538045
-0.0058387
-0.00626429
-0.00665527
-0.00700981
-0.00732622
-0.00760292
-0.00783846
-0.00803154
-0.00818098
-0.00828571
-0.0083448
-0.00835743
-0.0083229
-0.00824063
-0.00811016
-0.00793113
-0.00770328
-0.00742644
-0.00710057
-0.00672571
-0.00630199
-0.00582962
-0.00530893
-0.00474029
-0.00412418
-0.00346118
-0.0027519
-0.00199708
-0.00119749
-0.00035397
0.000532549
0.00146108
0.00243057
0.00343991
0.00448792
0.00557339
0.00669504
0.00785154
0.00904152
0.0102636
0.0115162
0.0127978
0.014107
0.015442
0.0168013
0.018183
0.0195857
0.0210074
0.0224464
0.0239009
0.025369
0.026849
0.0283388
0.0298367
0.0313407
0.0328488
0.0343592
0.0358698
0.0373787
0.038884
0.0403836
0.0418756
0.043358
0.0448289
0.0462862
0.0477281
0.0491526
0.0505579
0.0519419
0.0533029
0.054639
0.0559484
0.0572293
0.05848
0.0596988
0.060884
0.062034
0.0631472
0.0642222
0.0652575
0.0662517
0.0672035
0.0681117
0.0689749
0.0697923
0.0705627
0.0712853
0.0719591
0.0725834
0.0731576
0.0736811
0.0741534
0.0745742
0.0749433
0.0752606
0.075526
0.0757396
0.0759017
0.0760127
0.0760729
0.0760832
0.0760441
0.0759566
0.0758216
0.0756404
0.0754143
0.0751446
0.0748329
0.0744811
0.0740909
0.0736644
0.0732035
0.0727108
0.0721884
0.071639
0.0710651
0.0704696
0.0698553
0.069225
0.068582
0.0679292
0.0672698
0.0666069
0.0659437
0.0652835
0.0646293
0.0639843
0.0633515
0.0627337
0.0621337
0.061554
0.0609965
0.0604656
0.0599653
0.0594641
0.0589318
0.00950964
0.00883294
0.0082172
0.0076236
0.00700965
0.0063793
0.00573715
0.00508482
0.0044241
0.00375726
0.0030867
0.00241494
0.00174456
0.00107823
0.000418616
-0.000231604
-0.000869766
-0.00149324
-0.00209944
-0.00268585
-0.00325004
-0.00378966
-0.00430245
-0.00478626
-0.00523906
-0.00565892
-0.00604403
-0.00639269
-0.00670332
-0.00697445
-0.00720474
-0.00739298
-0.00753806
-0.00763899
-0.0076949
-0.00770503
-0.00766873
-0.00758548
-0.00745483
-0.00727647
-0.00705014
-0.00677573
-0.00645319
-0.00608257
-0.00566402
-0.00519776
-0.0046841
-0.00412343
-0.00351622
-0.00286302
-0.00216447
-0.00142126
-0.000634162
0.000195998
0.00106832
0.00198182
0.00293549
0.00392822
0.00495888
0.00602627
0.00712915
0.00826623
0.00943616
0.0106375
0.0118689
0.0131288
0.0144157
0.015728
0.0170641
0.0184223
0.019801
0.0211984
0.0226129
0.0240426
0.0254858
0.0269405
0.0284051
0.0298776
0.0313561
0.0328387
0.0343236
0.0358088
0.0372924
0.0387725
0.0402471
0.0417143
0.0431721
0.0446187
0.046052
0.0474703
0.0488715
0.0502539
0.0516156
0.0529547
0.0542694
0.055558
0.0568186
0.0580497
0.0592494
0.0604162
0.0615486
0.0626448
0.0637036
0.0647234
0.065703
0.0666409
0.067536
0.068387
0.069193
0.0699529
0.0706658
0.0713309
0.0719474
0.0725145
0.0730319
0.0734991
0.0739156
0.0742812
0.0745959
0.0748595
0.0750722
0.0752342
0.0753457
0.0754074
0.0754197
0.0753833
0.0752991
0.075168
0.0749911
0.0747697
0.0745051
0.0741987
0.0738524
0.0734677
0.0730465
0.0725909
0.072103
0.071585
0.0710393
0.0704684
0.0698748
0.0692612
0.0686302
0.0679847
0.0673275
0.0666616
0.0659898
0.065315
0.0646401
0.063968
0.0633013
0.0626428
0.0619951
0.0613604
0.0607407
0.0601379
0.0595562
0.0589996
0.0584299
0.0578117
0.0106368
0.00987163
0.00918489
0.00853234
0.00786482
0.00718631
0.00650152
0.00581169
0.00511823
0.00442306
0.00372825
0.00303599
0.00234854
0.00166825
0.00099747
0.000338611
-0.000305938
-0.000933803
-0.00154265
-0.0021302
-0.00269423
-0.0032326
-0.00374325
-0.00422419
-0.00467357
-0.00508962
-0.00547065
-0.0058151
-0.0061215
-0.00638849
-0.00661485
-0.00679943
-0.00694123
-0.00703931
-0.00709288
-0.00710124
-0.00706379
-0.00698006
-0.00684963
-0.00667221
-0.00644761
-0.00617571
-0.00585649
-0.00549001
-0.00507644
-0.00461599
-0.00410899
-0.00355582
-0.00295696
-0.00231296
-0.00162444
-0.000892074
-0.000116623
0.000701092
0.00156019
0.00245971
0.00339864
0.00437593
0.00539046
0.00644106
0.00752651
0.00864554
0.00979684
0.010979
0.0121907
0.0134304
0.0146966
0.0159878
0.0173024
0.0186387
0.0199952
0.0213702
0.0227619
0.0241686
0.0255886
0.0270201
0.0284612
0.0299101
0.0313651
0.0328241
0.0342855
0.0357472
0.0372074
0.0386642
0.0401157
0.04156
0.0429951
0.0444193
0.0458305
0.047227
0.0486069
0.0499683
0.0513094
0.0526283
0.0539234
0.0551928
0.0564349
0.0576479
0.0588303
0.0599803
0.0610964
0.0621772
0.0632212
0.0642269
0.065193
0.0661182
0.0670014
0.0678413
0.0686369
0.0693873
0.0700914
0.0707484
0.0713577
0.0719185
0.0724302
0.0728925
0.073305
0.0736674
0.0739795
0.0742413
0.0744529
0.0746145
0.0747263
0.0747888
0.0748025
0.0747681
0.0746863
0.0745581
0.0743844
0.0741664
0.0739055
0.0736029
0.0732604
0.0728794
0.0724618
0.0720094
0.0715242
0.0710083
0.070464
0.0698935
0.0692993
0.0686837
0.0680492
0.0673986
0.0667343
0.066059
0.0653755
0.0646863
0.0639939
0.0633011
0.0626101
0.0619235
0.0612434
0.0605718
0.0599105
0.0592607
0.058627
0.0580132
0.0573748
0.0566712
0.0117718
0.010919
0.0101614
0.00944952
0.00872764
0.00799983
0.00727096
0.00654193
0.00581383
0.00508827
0.00436701
0.00365194
0.00294503
0.00224833
0.00156394
0.000893983
0.000240604
-0.000394068
-0.00100793
-0.00159893
-0.00216504
-0.00270432
-0.00321489
-0.00369496
-0.00414281
-0.00455681
-0.00493544
-0.00527723
-0.00558085
-0.00584506
-0.0060687
-0.00625075
-0.00639026
-0.00648639
-0.00653841
-0.00654569
-0.00650767
-0.00642392
-0.00629407
-0.00611787
-0.00589516
-0.00562584
-0.00530991
-0.00494747
-0.00453866
-0.00408374
-0.00358302
-0.00303691
-0.00244587
-0.00181045
-0.00113126
-0.000408983
0.000355644
0.00116181
0.00200863
0.00289519