/*--------------------------------*- C++ -*----------------------------------*\
  =========                 |
  \\      /  F ield         | OpenFOAM: The Open Source CFD Toolbox
   \\    /   O peration     | Website:  https://openfoam.org
    \\  /    A nd           | Version:  7
     \\/     M anipulation  |
\*---------------------------------------------------------------------------*/
FoamFile
{
    version     2.0;
    format      ascii;
    class       surfaceScalarField;
    location    "0.3125";
    object      phi;
}
// * * * * * * * * * * * * * * * * * * * * * * * * * * * * * * * * * * * * * //

dimensions      [0 3 -1 0 0 0 0];

internalField   nonuniform List<scalar> 
50880
(
5.92345e-12
-6.3096e-12
3.61831e-11
-3.02467e-11
8.10826e-11
-4.49279e-11
1.30727e-10
-4.96378e-11
1.77944e-10
-4.72386e-11
2.17799e-10
-3.98638e-11
2.46869e-10
-2.90534e-11
2.62815e-10
-1.59335e-11
2.64107e-10
-1.2955e-12
2.4979e-10
1.43058e-11
2.19316e-10
3.04713e-11
1.72421e-10
4.68998e-11
1.09061e-10
6.33625e-11
2.93684e-11
7.96894e-11
-6.6388e-11
9.57537e-11
-1.77843e-10
1.11456e-10
-3.04557e-10
1.26715e-10
-4.46028e-10
1.41471e-10
-6.01704e-10
1.55676e-10
-7.70998e-10
1.69295e-10
-9.53297e-10
1.82298e-10
-1.14796e-09
1.94665e-10
-1.35434e-09
2.06381e-10
-1.57178e-09
2.17434e-10
-1.79959e-09
2.27818e-10
-2.03712e-09
2.37527e-10
-2.28368e-09
2.4656e-10
-2.5386e-09
2.54919e-10
-2.8012e-09
2.62605e-10
-3.07083e-09
2.69623e-10
-3.34681e-09
2.75978e-10
-3.62848e-09
2.81677e-10
-3.91521e-09
2.86727e-10
-4.20635e-09
2.91136e-10
-4.50126e-09
2.94914e-10
-4.79933e-09
2.98071e-10
-5.09995e-09
3.00615e-10
-5.40251e-09
3.02559e-10
-5.70642e-09
3.03912e-10
-6.01111e-09
3.04687e-10
-6.316e-09
3.04896e-10
-6.62055e-09
3.04549e-10
-6.92421e-09
3.03659e-10
-7.22645e-09
3.02239e-10
-7.52675e-09
3.003e-10
-7.82461e-09
2.97856e-10
-8.11952e-09
2.94919e-10
-8.41103e-09
2.91502e-10
-8.69864e-09
2.87617e-10
-8.98192e-09
2.83278e-10
-9.26042e-09
2.78496e-10
-9.5337e-09
2.73287e-10
-9.80136e-09
2.67662e-10
-1.0063e-08
2.61635e-10
-1.03182e-08
2.55218e-10
-1.05666e-08
2.48425e-10
-1.08079e-08
2.41269e-10
-1.10417e-08
2.33763e-10
-1.12676e-08
2.25921e-10
-1.14853e-08
2.17755e-10
-1.16946e-08
2.09279e-10
-1.18951e-08
2.00507e-10
-1.20866e-08
1.91451e-10
-1.22687e-08
1.82126e-10
-1.24413e-08
1.72544e-10
-1.2604e-08
1.6272e-10
-1.27566e-08
1.52667e-10
-1.2899e-08
1.42398e-10
-1.3031e-08
1.31928e-10
-1.31522e-08
1.21271e-10
-1.32627e-08
1.1044e-10
-1.33621e-08
9.945e-11
-1.34504e-08
8.83147e-11
-1.35275e-08
7.70486e-11
-1.35932e-08
6.5666e-11
-1.36473e-08
5.41816e-11
-1.36899e-08
4.26101e-11
-1.37209e-08
3.09665e-11
-1.37402e-08
1.92656e-11
-1.37477e-08
7.52248e-12
-1.37435e-08
-4.24766e-12
-1.37274e-08
-1.60293e-11
-1.36996e-08
-2.78068e-11
-1.36601e-08
-3.95646e-11
-1.36088e-08
-5.12869e-11
-1.35458e-08
-6.29577e-11
-1.34712e-08
-7.45613e-11
-1.33852e-08
-8.60812e-11
-1.32877e-08
-9.7501e-11
-1.31789e-08
-1.08804e-10
-1.30589e-08
-1.19974e-10
-1.29279e-08
-1.30994e-10
-1.2786e-08
-1.41848e-10
-1.26335e-08
-1.52518e-10
-1.24705e-08
-1.62988e-10
-1.22973e-08
-1.73241e-10
-1.2114e-08
-1.83259e-10
-1.1921e-08
-1.93026e-10
-1.17185e-08
-2.02525e-10
-1.15067e-08
-2.11737e-10
-1.12861e-08
-2.20647e-10
-1.10569e-08
-2.29238e-10
-1.08194e-08
-2.37491e-10
-1.0574e-08
-2.45391e-10
-1.03211e-08
-2.52921e-10
-1.0061e-08
-2.60063e-10
-9.79419e-09
-2.66802e-10
-9.52107e-09
-2.73121e-10
-9.24207e-09
-2.79003e-10
-8.95763e-09
-2.84434e-10
-8.66824e-09
-2.89396e-10
-8.37436e-09
-2.93876e-10
-8.0765e-09
-2.97857e-10
-7.77518e-09
-3.01325e-10
-7.47091e-09
-3.04266e-10
-7.16425e-09
-3.06666e-10
-6.85574e-09
-3.0851e-10
-6.54595e-09
-3.09787e-10
-6.23547e-09
-3.10483e-10
-5.92488e-09
-3.10586e-10
-5.61479e-09
-3.10085e-10
-5.30582e-09
-3.0897e-10
-4.99859e-09
-3.07231e-10
-4.69374e-09
-3.04857e-10
-4.3919e-09
-3.0184e-10
-4.09372e-09
-2.98172e-10
-3.79988e-09
-2.93846e-10
-3.51102e-09
-2.88858e-10
-3.22782e-09
-2.83201e-10
-2.95095e-09
-2.76871e-10
-2.68108e-09
-2.69867e-10
-2.41889e-09
-2.62187e-10
-2.16506e-09
-2.53832e-10
-1.92026e-09
-2.44804e-10
-1.68515e-09
-2.35106e-10
-1.4604e-09
-2.24745e-10
-1.24667e-09
-2.13729e-10
-1.0446e-09
-2.0207e-10
-8.54821e-10
-1.89782e-10
-6.77935e-10
-1.76884e-10
-5.14532e-10
-1.63401e-10
-3.65169e-10
-1.49361e-10
-2.30367e-10
-1.34802e-10
-1.10602e-10
-1.19767e-10
-6.29479e-12
-1.0431e-10
8.22043e-11
-8.85002e-11
1.5463e-10
-7.24237e-11
2.10825e-10
-5.61906e-11
2.50766e-10
-3.99391e-11
2.7461e-10
-2.38452e-11
2.82741e-10
-8.1363e-12
2.75853e-10
6.8845e-12
2.55045e-10
2.08087e-11
2.21974e-10
3.30772e-11
1.7907e-10
4.29093e-11
1.29853e-10
4.9215e-11
7.93426e-11
5.05012e-11
3.46145e-11
4.47172e-11
5.32782e-12
2.92792e-11
5.32382e-12
3.00545e-11
-3.63518e-11
1.01151e-10
-1.01392e-10
1.95422e-10
-1.39145e-10
2.95696e-10
-1.49945e-10
3.87666e-10
-1.39247e-10
4.60124e-10
-1.12313e-10
5.0459e-10
-7.34954e-11
5.14858e-10
-2.61956e-11
4.8654e-10
2.70092e-11
4.16656e-10
8.41826e-11
3.03288e-10
1.43843e-10
1.45343e-10
2.04848e-10
-5.76161e-11
2.66317e-10
-3.05506e-10
3.27576e-10
-5.97847e-10
3.88094e-10
-9.33841e-10
4.47451e-10
-1.31244e-09
5.05315e-10
-1.7324e-09
5.61425e-10
-2.19229e-09
6.15574e-10
-2.6906e-09
6.67599e-10
-3.22568e-09
7.17372e-10
-3.79581e-09
7.64795e-10
-4.39922e-09
8.09792e-10
-5.03409e-09
8.52305e-10
-5.69856e-09
8.92295e-10
-6.39077e-09
9.29736e-10
-7.10882e-09
9.64612e-10
-7.85082e-09
9.96916e-10
-8.61487e-09
1.02665e-09
-9.39907e-09
1.05382e-09
-1.02015e-08
1.07846e-09
-1.10204e-08
1.10056e-09
-1.18539e-08
1.12017e-09
-1.27e-08
1.1373e-09
-1.35571e-08
1.15199e-09
-1.44233e-08
1.16427e-09
-1.52969e-08
1.17418e-09
-1.61761e-08
1.18176e-09
-1.70592e-08
1.18705e-09
-1.79446e-08
1.19009e-09
-1.88306e-08
1.19092e-09
-1.97157e-08
1.18959e-09
-2.05982e-08
1.18615e-09
-2.14766e-08
1.18064e-09
-2.23494e-08
1.1731e-09
-2.32151e-08
1.16359e-09
-2.40723e-08
1.15215e-09
-2.49197e-08
1.13883e-09
-2.57557e-08
1.12369e-09
-2.65792e-08
1.10677e-09
-2.73889e-08
1.08812e-09
-2.81834e-08
1.0678e-09
-2.89616e-08
1.04584e-09
-2.97222e-08
1.02231e-09
-3.04643e-08
9.97256e-10
-3.11866e-08
9.70727e-10
-3.18881e-08
9.42774e-10
-3.25678e-08
9.13451e-10
-3.32246e-08
8.82808e-10
-3.38578e-08
8.50898e-10
-3.44663e-08
8.17772e-10
-3.50493e-08
7.83484e-10
-3.56059e-08
7.48086e-10
-3.61354e-08
7.11631e-10
-3.6637e-08
6.74172e-10
-3.71101e-08
6.35762e-10
-3.75539e-08
5.96454e-10
-3.79678e-08
5.56304e-10
-3.83512e-08
5.15366e-10
-3.87036e-08
4.73694e-10
-3.90245e-08
4.31343e-10
-3.93134e-08
3.88369e-10
-3.957e-08
3.44828e-10
-3.97937e-08
3.00776e-10
-3.99843e-08
2.56269e-10
-4.01415e-08
2.11367e-10
-4.0265e-08
1.66125e-10
-4.03546e-08
1.20603e-10
-4.04102e-08
7.48592e-11
-4.04316e-08
2.89532e-11
-4.04188e-08
-1.70551e-11
-4.03718e-08
-6.31053e-11
-4.02904e-08
-1.09136e-10
-4.01749e-08
-1.55087e-10
-4.00253e-08
-2.00895e-10
-3.98418e-08
-2.46498e-10
-3.96245e-08
-2.91833e-10
-3.93737e-08
-3.36836e-10
-3.90898e-08
-3.81444e-10
-3.8773e-08
-4.25591e-10
-3.84238e-08
-4.69213e-10
-3.80425e-08
-5.12246e-10
-3.76297e-08
-5.54622e-10
-3.7186e-08
-5.96278e-10
-3.67118e-08
-6.37145e-10
-3.62079e-08
-6.77159e-10
-3.56749e-08
-7.16253e-10
-3.51136e-08
-7.5436e-10
-3.45247e-08
-7.91413e-10
-3.39091e-08
-8.27346e-10
-3.32676e-08
-8.62092e-10
-3.26013e-08
-8.95585e-10
-3.1911e-08
-9.2776e-10
-3.11978e-08
-9.58551e-10
-3.04629e-08
-9.87893e-10
-2.97072e-08
-1.01572e-09
-2.8932e-08
-1.04197e-09
-2.81386e-08
-1.06658e-09
-2.73281e-08
-1.08948e-09
-2.65019e-08
-1.11062e-09
-2.56614e-08
-1.12993e-09
-2.48079e-08
-1.14736e-09
-2.39429e-08
-1.16284e-09
-2.30679e-08
-1.17633e-09
-2.21844e-08
-1.18776e-09
-2.1294e-08
-1.19708e-09
-2.03983e-08
-1.20424e-09
-1.94989e-08
-1.2092e-09
-1.85974e-08
-1.21189e-09
-1.76957e-08
-1.21229e-09
-1.67955e-08
-1.21034e-09
-1.58985e-08
-1.206e-09
-1.50064e-08
-1.19924e-09
-1.41213e-08
-1.19003e-09
-1.32448e-08
-1.17832e-09
-1.23789e-08
-1.16411e-09
-1.15254e-08
-1.14735e-09
-1.06862e-08
-1.12803e-09
-9.86325e-09
-1.10613e-09
-9.05847e-09
-1.08165e-09
-8.27375e-09
-1.05458e-09
-7.51102e-09
-1.02492e-09
-6.77218e-09
-9.92675e-10
-6.05912e-09
-9.57859e-10
-5.37373e-09
-9.20497e-10
-4.71786e-09
-8.80618e-10
-4.09332e-09
-8.38264e-10
-3.5019e-09
-7.9349e-10
-2.94531e-09
-7.46367e-10
-2.42522e-09
-6.96978e-10
-1.94319e-09
-6.45428e-10
-1.50071e-09
-5.91845e-10
-1.09913e-09
-5.36387e-10
-7.39644e-10
-4.79246e-10
-4.23291e-10
-4.20661e-10
-1.5087e-10
-3.6092e-10
7.70864e-11
-3.00381e-10
2.60382e-10
-2.39488e-10
3.99238e-10
-1.78795e-10
4.94399e-10
-1.19005e-10
5.47269e-10
-6.10075e-11
5.60094e-10
-5.94448e-12
5.36193e-10
4.47079e-11
4.80254e-10
8.90196e-11
3.9871e-10
1.24458e-10
3.00185e-10
1.47741e-10
1.95946e-10
1.54741e-10
1.00151e-10
1.40524e-10
2.92779e-11
1.00177e-10
3.45976e-11
4.48221e-11
-8.1203e-11
1.39093e-10
-1.95646e-10
2.56283e-10
-2.56373e-10
3.74792e-10
-2.68478e-10
4.76363e-10
-2.40798e-10
5.46101e-10
-1.82031e-10
5.72291e-10
-9.96834e-11
5.45979e-10
1.04348e-13
4.60547e-10
1.12436e-10
3.11261e-10
2.33475e-10
9.49209e-11
3.60188e-10
-1.90428e-10
4.90191e-10
-5.45726e-10
6.21611e-10
-9.71114e-10
7.52964e-10
-1.46608e-09
8.83065e-10
-2.0296e-09
1.01097e-09
-2.66021e-09
1.13592e-09
-3.35611e-09
1.25732e-09
-4.11521e-09
1.37468e-09
-4.93522e-09
1.48761e-09
-5.81365e-09
1.5958e-09
-6.74787e-09
1.69902e-09
-7.73514e-09
1.79706e-09
-8.77264e-09
1.8898e-09
-9.85746e-09
1.97712e-09
-1.09867e-08
2.05894e-09
-1.21573e-08
2.13522e-09
-1.33663e-08
2.20593e-09
-1.46107e-08
2.27107e-09
-1.58875e-08
2.33063e-09
-1.71937e-08
2.38465e-09
-1.85263e-08
2.43316e-09
-1.98823e-08
2.4762e-09
-2.12589e-08
2.51383e-09
-2.2653e-08
2.54611e-09
-2.40618e-08
2.57312e-09
-2.54826e-08
2.59491e-09
-2.69124e-08
2.61159e-09
-2.83486e-08
2.62323e-09
-2.97884e-08
2.62991e-09
-3.12292e-08
2.63174e-09
-3.26684e-08
2.6288e-09
-3.41035e-08
2.6212e-09
-3.55319e-08
2.60904e-09
-3.69512e-08
2.59241e-09
-3.8359e-08
2.57142e-09
-3.97531e-08
2.54618e-09
-4.1131e-08
2.51679e-09
-4.24907e-08
2.48336e-09
-4.38299e-08
2.446e-09
-4.51466e-08
2.40482e-09
-4.64387e-08
2.35992e-09
-4.77043e-08
2.31143e-09
-4.89414e-08
2.25945e-09
-5.01483e-08
2.20409e-09
-5.1323e-08
2.14546e-09
-5.24639e-08
2.08369e-09
-5.35694e-08
2.01888e-09
-5.46377e-08
1.95115e-09
-5.56674e-08
1.88062e-09
-5.6657e-08
1.80739e-09
-5.76052e-08
1.73159e-09
-5.85104e-08
1.65333e-09
-5.93715e-08
1.57273e-09
-6.01872e-08
1.48991e-09
-6.09564e-08
1.40498e-09
-6.16781e-08
1.31806e-09
-6.2351e-08
1.22929e-09
-6.29744e-08
1.13876e-09
-6.35474e-08
1.04662e-09
-6.4069e-08
9.52967e-10
-6.45386e-08
8.57942e-10
-6.49554e-08
7.61663e-10
-6.53189e-08
6.64256e-10
-6.56284e-08
5.65847e-10
-6.58836e-08
4.66564e-10
-6.60841e-08
3.66534e-10
-6.62293e-08
2.65888e-10
-6.63192e-08
1.64755e-10
-6.63536e-08
6.32684e-11
-6.63322e-08
-3.84399e-11
-6.6255e-08
-1.40236e-10
-6.61222e-08
-2.41984e-10
-6.59337e-08
-3.43548e-10
-6.56898e-08
-4.44791e-10
-6.53908e-08
-5.45574e-10
-6.50368e-08
-6.45758e-10
-6.46285e-08
-7.45202e-10
-6.41661e-08
-8.43763e-10
-6.36504e-08
-9.41301e-10
-6.3082e-08
-1.03767e-09
-6.24615e-08
-1.13273e-09
-6.17898e-08
-1.22633e-09
-6.10677e-08
-1.31833e-09
-6.02963e-08
-1.40858e-09
-5.94765e-08
-1.49694e-09
-5.86095e-08
-1.58326e-09
-5.76965e-08
-1.66739e-09
-5.67387e-08
-1.74918e-09
-5.57375e-08
-1.8285e-09
-5.46944e-08
-1.90518e-09
-5.36109e-08
-1.9791e-09
-5.24886e-08
-2.05009e-09
-5.13291e-08
-2.11803e-09
-5.01343e-08
-2.18276e-09
-4.89058e-08
-2.24414e-09
-4.76458e-08
-2.30203e-09
-4.63561e-08
-2.3563e-09
-4.50387e-08
-2.4068e-09
-4.36959e-08
-2.45341e-09
-4.23299e-08
-2.49598e-09
-4.09429e-08
-2.5344e-09
-3.95372e-08
-2.56853e-09
-3.81153e-08
-2.59825e-09
-3.66796e-08
-2.62344e-09
-3.52327e-08
-2.64399e-09
-3.37771e-08
-2.65977e-09
-3.23156e-08
-2.6707e-09
-3.08509e-08
-2.67666e-09
-2.93856e-08
-2.67756e-09
-2.79226e-08
-2.6733e-09
-2.64648e-08
-2.6638e-09
-2.50151e-08
-2.64898e-09
-2.35764e-08
-2.62877e-09
-2.21516e-08
-2.6031e-09
-2.07438e-08
-2.57192e-09
-1.93559e-08
-2.53518e-09
-1.79911e-08
-2.49284e-09
-1.66524e-08
-2.44487e-09
-1.53428e-08
-2.39126e-09
-1.40653e-08
-2.332e-09
-1.28232e-08
-2.2671e-09
-1.16193e-08
-2.19658e-09
-1.04566e-08
-2.12049e-09
-9.33824e-09
-2.03888e-09
-8.26702e-09
-1.95184e-09
-7.24581e-09
-1.85947e-09
-6.27739e-09
-1.76191e-09
-5.36444e-09
-1.65932e-09
-4.5095e-09
-1.55191e-09
-3.71499e-09
-1.43993e-09
-2.98314e-09
-1.32369e-09
-2.31597e-09
-1.20356e-09
-1.71524e-09
-1.07998e-09
-1.1824e-09
-9.53501e-10
-7.18535e-10
-8.24784e-10
-3.24279e-10
-6.94638e-10
2.9073e-13
-5.64057e-10
2.55767e-10
-4.3427e-10
4.43557e-10
-3.06796e-10
5.66081e-10
-1.83535e-10
6.27005e-10
-6.68692e-11
6.31514e-10
4.02003e-11
5.8665e-10
1.33882e-10
5.01695e-10
2.09409e-10
3.88566e-10
2.60862e-10
2.6217e-10
2.81129e-10
1.40544e-10
2.62142e-10
4.47104e-11
1.96014e-10
7.93038e-11
4.96974e-11
-1.30872e-10
1.50223e-10
-2.96219e-10
2.69002e-10
-3.75202e-10
3.80883e-10
-3.80344e-10
4.6504e-10
-3.24921e-10
5.04387e-10
-2.21367e-10
4.85206e-10
-8.05154e-11
3.96737e-10
8.85571e-11
2.30764e-10
2.78411e-10
-1.8771e-11
4.83017e-10
-3.56104e-10
6.9752e-10
-7.83941e-10
9.18023e-10
-1.30372e-09
1.14139e-09
-1.91587e-09
1.36511e-09
-2.61992e-09
1.58712e-09
-3.41473e-09
1.80578e-09
-4.29856e-09
2.01976e-09
-5.26921e-09
2.22797e-09
-6.32406e-09
2.42953e-09
-7.46019e-09
2.62374e-09
-8.67441e-09
2.81002e-09
-9.96332e-09
2.98793e-09
-1.13234e-08
3.1571e-09
-1.27508e-08
3.31725e-09
-1.42418e-08
3.46817e-09
-1.57926e-08
3.6097e-09
-1.73991e-08
3.74173e-09
-1.90574e-08
3.8642e-09
-2.07634e-08
3.97708e-09
-2.25131e-08
4.08036e-09
-2.43025e-08
4.17407e-09
-2.61276e-08
4.25826e-09
-2.79844e-08
4.33298e-09
-2.98689e-08
4.39834e-09
-3.17772e-08
4.45441e-09
-3.37054e-08
4.50133e-09
-3.56497e-08
4.5392e-09
-3.76063e-08
4.56816e-09
-3.95714e-08
4.58836e-09
-4.15415e-08
4.59993e-09
-4.35128e-08
4.60304e-09
-4.54818e-08
4.59785e-09
-4.74451e-08
4.58452e-09
-4.93993e-08
4.56322e-09
-5.1341e-08
4.53413e-09
-5.3267e-08
4.49743e-09
-5.51742e-08
4.4533e-09
-5.70593e-08
4.40191e-09
-5.89194e-08
4.34346e-09
-6.07515e-08
4.27814e-09
-6.25528e-08
4.20613e-09
-6.43205e-08
4.12763e-09
-6.60519e-08
4.04283e-09
-6.77444e-08
3.95192e-09
-6.93954e-08
3.8551e-09
-7.10025e-08
3.75257e-09
-7.25634e-08
3.64452e-09
-7.40757e-08
3.53116e-09
-7.55372e-08
3.41268e-09
-7.69458e-08
3.28929e-09
-7.82996e-08
3.16118e-09
-7.95966e-08
3.02856e-09
-8.08349e-08
2.89164e-09
-8.20128e-08
2.75061e-09
-8.31286e-08
2.6057e-09
-8.41807e-08
2.4571e-09
-8.51677e-08
2.30502e-09
-8.6088e-08
2.14968e-09
-8.69406e-08
1.99128e-09
-8.7724e-08
1.83004e-09
-8.84372e-08
1.66618e-09
-8.90792e-08
1.49991e-09
-8.9649e-08
1.33144e-09
-9.01457e-08
1.16101e-09
-9.05687e-08
9.88825e-10
-9.09172e-08
8.15114e-10
-9.11908e-08
6.40103e-10
-9.13889e-08
4.64019e-10
-9.15113e-08
2.8709e-10
-9.15575e-08
1.09547e-10
-9.15276e-08
-6.83751e-11
-9.14214e-08
-2.46443e-10
-9.1239e-08
-4.24419e-10
-9.09804e-08
-6.02064e-10
-9.06461e-08
-7.79138e-10
-9.02363e-08
-9.55398e-10
-8.97514e-08
-1.1306e-09
-8.91921e-08
-1.3045e-09
-8.85591e-08
-1.47684e-09
-8.7853e-08
-1.64738e-09
-8.70748e-08
-1.81587e-09
-8.62255e-08
-1.98205e-09
-8.53061e-08
-2.14568e-09
-8.43179e-08
-2.30649e-09
-8.32623e-08
-2.46424e-09
-8.21406e-08
-2.61866e-09
-8.09543e-08
-2.76951e-09
-7.97052e-08
-2.91652e-09
-7.83949e-08
-3.05944e-09
-7.70254e-08
-3.19801e-09
-7.55986e-08
-3.33198e-09
-7.41166e-08
-3.4611e-09
-7.25816e-08
-3.58511e-09
-7.09959e-08
-3.70376e-09
-6.93618e-08
-3.8168e-09
-6.7682e-08
-3.92399e-09
-6.59589e-08
-4.02509e-09
-6.41954e-08
-4.11984e-09
-6.23942e-08
-4.20802e-09
-6.05582e-08
-4.28939e-09
-5.86904e-08
-4.36372e-09
-5.67941e-08
-4.43079e-09
-5.48722e-08
-4.49037e-09
-5.29282e-08
-4.54227e-09
-5.09654e-08
-4.58627e-09
-4.89872e-08
-4.62216e-09
-4.69972e-08
-4.64977e-09
-4.4999e-08
-4.66891e-09
-4.29962e-08
-4.67939e-09
-4.09927e-08
-4.68106e-09
-3.89923e-08
-4.67376e-09
-3.69987e-08
-4.65735e-09
-3.5016e-08
-4.63169e-09
-3.30481e-08
-4.59667e-09
-3.10991e-08
-4.55217e-09
-2.91729e-08
-4.49811e-09
-2.72736e-08
-4.4344e-09
-2.54055e-08
-4.361e-09
-2.35725e-08
-4.27787e-09
-2.17788e-08
-4.18497e-09
-2.00285e-08
-4.08232e-09
-1.83256e-08
-3.96994e-09
-1.66743e-08
-3.84789e-09
-1.50785e-08
-3.71626e-09
-1.35423e-08
-3.57516e-09
-1.20693e-08
-3.42476e-09
-1.06636e-08
-3.26526e-09
-9.32854e-09
-3.09692e-09
-8.06781e-09
-2.92005e-09
-6.88469e-09
-2.73503e-09
-5.7823e-09
-2.54233e-09
-4.76348e-09
-2.34251e-09
-3.83079e-09
-2.13625e-09
-2.98643e-09
-1.92434e-09
-2.23215e-09
-1.70778e-09
-1.5692e-09
-1.48773e-09
-9.98225e-10
-1.26561e-09
-5.19111e-10
-1.04317e-09
-1.30886e-10
-8.22497e-10
1.68483e-10
-6.06173e-10
3.82295e-10
-3.97355e-10
5.15356e-10
-1.99932e-10
5.74268e-10
-1.87041e-11
5.67747e-10
1.40418e-10
5.06967e-10
2.70202e-10
4.0591e-10
3.61923e-10
2.81725e-10
4.05318e-10
1.55037e-10
3.88823e-10
5.05516e-11
3.00488e-10
1.29849e-10
4.7472e-11
-1.78354e-10
1.40133e-10
-3.889e-10
2.42533e-10
-4.77598e-10
3.27298e-10
-4.65089e-10
3.72051e-10
-3.69662e-10
3.58428e-10
-2.07748e-10
2.71525e-10
6.37743e-12
9.94514e-11
2.60628e-10
-1.67056e-10
5.44922e-10
-5.34969e-10
8.50931e-10
-1.00928e-09
1.17182e-09
-1.59328e-09
1.50202e-09
-2.28883e-09
1.83695e-09
-3.09659e-09
2.17287e-09
-4.01619e-09
2.50673e-09
-5.04643e-09
2.83602e-09
-6.18538e-09
3.1587e-09
-7.4305e-09
3.47308e-09
-8.77877e-09
3.7778e-09
-1.02268e-08
4.07172e-09
-1.17707e-08
4.35394e-09
-1.34065e-08
4.62373e-09
-1.51299e-08
4.88048e-09
-1.69363e-08
5.12375e-09
-1.88213e-08
5.35316e-09
-2.07801e-08
5.56844e-09
-2.28078e-08
5.76941e-09
-2.48995e-08
5.95592e-09
-2.70503e-08
6.12791e-09
-2.92553e-08
6.28534e-09
-3.15095e-08
6.42825e-09
-3.38079e-08
6.55667e-09
-3.61456e-08
6.67069e-09
-3.85177e-08
6.77043e-09
-4.09193e-08
6.85601e-09
-4.33456e-08
6.92761e-09
-4.57917e-08
6.98538e-09
-4.82531e-08
7.02954e-09
-5.0725e-08
7.06027e-09
-5.32029e-08
7.07781e-09
-5.56822e-08
7.08238e-09
-5.81586e-08
7.07422e-09
-6.06277e-08
7.05357e-09
-6.30852e-08
7.02071e-09
-6.55269e-08
6.97588e-09
-6.79488e-08
6.91936e-09
-7.0347e-08
6.85142e-09
-7.27174e-08
6.77234e-09
-7.50563e-08
6.68241e-09
-7.73601e-08
6.5819e-09
-7.96251e-08
6.47111e-09
-8.18478e-08
6.35033e-09
-8.40248e-08
6.21986e-09
-8.61529e-08
6.07999e-09
-8.82288e-08
5.93102e-09
-9.02495e-08
5.77326e-09
-9.22119e-08
5.607e-09
-9.41133e-08
5.43256e-09
-9.59509e-08
5.25024e-09
-9.7722e-08
5.06036e-09
-9.9424e-08
4.86321e-09
-1.01055e-07
4.65913e-09
-1.02611e-07
4.44841e-09
-1.04092e-07
4.23138e-09
-1.05495e-07
4.00835e-09
-1.06817e-07
3.77965e-09
-1.08058e-07
3.5456e-09
-1.09215e-07
3.30652e-09
-1.10286e-07
3.06274e-09
-1.11271e-07
2.8146e-09
-1.12167e-07
2.56241e-09
-1.12974e-07
2.30652e-09
-1.13689e-07
2.04725e-09
-1.14313e-07
1.78496e-09
-1.14845e-07
1.51999e-09
-1.15282e-07
1.25267e-09
-1.15625e-07
9.83352e-10
-1.15874e-07
7.12394e-10
-1.16027e-07
4.40145e-10
-1.16084e-07
1.66962e-10
-1.16046e-07
-1.06796e-10
-1.15911e-07
-3.80766e-10
-1.15681e-07
-6.54583e-10
-1.15355e-07
-9.27879e-10
-1.14934e-07
-1.20028e-09
-1.14418e-07
-1.47142e-09
-1.13808e-07
-1.74092e-09
-1.13104e-07
-2.00839e-09
-1.12307e-07
-2.27346e-09
-1.11419e-07
-2.53575e-09
-1.1044e-07
-2.79486e-09
-1.09372e-07
-3.05041e-09
-1.08215e-07
-3.30201e-09
-1.06973e-07
-3.54927e-09
-1.05645e-07
-3.79181e-09
-1.04234e-07
-4.02921e-09
-1.02743e-07
-4.2611e-09
-1.01172e-07
-4.48708e-09
-9.9525e-08
-4.70676e-09
-9.78033e-08
-4.91975e-09
-9.60096e-08
-5.12565e-09
-9.41466e-08
-5.32407e-09
-9.22171e-08
-5.51464e-09
-9.02239e-08
-5.69696e-09
-8.817e-08
-5.87066e-09
-8.60586e-08
-6.03536e-09
-8.38931e-08
-6.19068e-09
-8.16766e-08
-6.33626e-09
-7.94129e-08
-6.47173e-09
-7.71055e-08
-6.59675e-09
-7.47583e-08
-6.71096e-09
-7.23751e-08
-6.81402e-09
-6.99599e-08
-6.90559e-09
-6.75168e-08
-6.98537e-09
-6.505e-08
-7.05303e-09
-6.25639e-08
-7.10827e-09
-6.00629e-08
-7.1508e-09
-5.75514e-08
-7.18035e-09
-5.50342e-08
-7.19665e-09
-5.25158e-08
-7.19946e-09
-5.0001e-08
-7.18854e-09
-4.74947e-08
-7.16368e-09
-4.50017e-08
-7.12468e-09
-4.2527e-08
-7.07137e-09
-4.00755e-08
-7.0036e-09
-3.76524e-08
-6.92123e-09
-3.52627e-08
-6.82416e-09
-3.29114e-08
-6.71231e-09
-3.06036e-08
-6.58563e-09
-2.83444e-08
-6.44412e-09
-2.6139e-08
-6.28778e-09
-2.39922e-08
-6.11668e-09
-2.19092e-08
-5.93092e-09
-1.98948e-08
-5.73067e-09
-1.79538e-08
-5.51611e-09
-1.60911e-08
-5.28753e-09
-1.43111e-08
-5.04526e-09
-1.26183e-08
-4.78972e-09
-1.10169e-08
-4.52143e-09
-9.5109e-09
-4.24101e-09
-8.10405e-09
-3.94919e-09
-6.79969e-09
-3.64687e-09
-5.60083e-09
-3.33511e-09
-4.50999e-09
-3.01518e-09
-3.52916e-09
-2.68861e-09
-2.65969e-09
-2.3572e-09
-1.90218e-09
-2.02313e-09
-1.25635e-09
-1.689e-09
-7.20881e-10
-1.35797e-09
-2.93219e-10
-1.03383e-09
3.06137e-11
-7.21182e-10
2.56271e-10
-4.25591e-10
3.91346e-10
-1.53792e-10
4.45669e-10
8.60808e-11
4.31616e-10
2.84251e-10
3.64445e-10
4.29105e-10
2.62672e-10
5.07092e-10
1.48629e-10
5.02869e-10
4.94212e-11
3.99691e-10
1.79265e-10
4.03552e-11
-2.1873e-10
1.14116e-10
-4.62629e-10
1.85514e-10
-5.48967e-10
2.2639e-10
-5.05962e-10
2.13713e-10
-3.56998e-10
1.28533e-10
-1.22578e-10
-4.4651e-11
1.7956e-10
-3.18338e-10
5.34321e-10
-7.0239e-10
9.28976e-10
-1.20433e-09
1.35287e-09
-1.82964e-09
1.79713e-09
-2.58202e-09
2.25439e-09
-3.46362e-09
2.71855e-09
-4.47528e-09
3.18453e-09
-5.61671e-09
3.64816e-09
-6.88664e-09
4.10595e-09
-8.28298e-09
4.55504e-09
-9.80295e-09
4.99305e-09
-1.14432e-08
5.41802e-09
-1.31998e-08
5.82834e-09
-1.50685e-08
6.22267e-09
-1.70447e-08
6.59993e-09
-1.91235e-08
6.95926e-09
-2.12997e-08
7.29994e-09
-2.3568e-08
7.62144e-09
-2.59228e-08
7.92331e-09
-2.83587e-08
8.20526e-09
-3.08698e-08
8.46706e-09
-3.34505e-08
8.70858e-09
-3.60949e-08
8.92974e-09
-3.87972e-08
9.13055e-09
-4.15516e-08
9.31106e-09
-4.43523e-08
9.47135e-09
-4.71934e-08
9.61156e-09
-5.00693e-08
9.73188e-09
-5.29742e-08
9.83249e-09
-5.59024e-08
9.91364e-09
-5.88485e-08
9.97559e-09
-6.18068e-08
1.00186e-08
-6.4772e-08
1.0043e-08
-6.77386e-08
1.0049e-08
-7.07015e-08
1.00371e-08
-7.36555e-08
1.00075e-08
-7.65955e-08
9.96069e-09
-7.95165e-08
9.8969e-09
-8.24137e-08
9.81656e-09
-8.52823e-08
9.72005e-09
-8.81178e-08
9.60776e-09
-9.09154e-08
9.48009e-09
-9.3671e-08
9.33743e-09
-9.63801e-08
9.1802e-09
-9.90385e-08
9.0088e-09
-1.01642e-07
8.82365e-09
-1.04188e-07
8.62518e-09
-1.0667e-07
8.4138e-09
-1.09087e-07
8.18993e-09
-1.11434e-07
7.95402e-09
-1.13708e-07
7.7065e-09
-1.15905e-07
7.44779e-09
-1.18023e-07
7.17834e-09
-1.20059e-07
6.89859e-09
-1.22009e-07
6.60898e-09
-1.2387e-07
6.30996e-09
-1.25641e-07
6.00198e-09
-1.27318e-07
5.6855e-09
-1.28899e-07
5.36096e-09
-1.30383e-07
5.02882e-09
-1.31766e-07
4.68956e-09
-1.33046e-07
4.34362e-09
-1.34223e-07
3.99149e-09
-1.35295e-07
3.63363e-09
-1.36259e-07
3.27051e-09
-1.37114e-07
2.90263e-09
-1.37859e-07
2.53045e-09
-1.38494e-07
2.15446e-09
-1.39016e-07
1.77516e-09
-1.39426e-07
1.39305e-09
-1.39722e-07
1.00861e-09
-1.39904e-07
6.22347e-10
-1.39972e-07
2.34775e-10
-1.39925e-07
-1.53597e-10
-1.39764e-07
-5.42257e-10
-1.39488e-07
-9.30684e-10
-1.39097e-07
-1.31836e-09
-1.38593e-07
-1.70475e-09
-1.37975e-07
-2.08932e-09
-1.37244e-07
-2.47155e-09
-1.36402e-07
-2.8509e-09
-1.35449e-07
-3.22681e-09
-1.34386e-07
-3.59876e-09
-1.33214e-07
-3.96619e-09
-1.31936e-07
-4.32855e-09
-1.30553e-07
-4.68529e-09
-1.29066e-07
-5.03587e-09
-1.27478e-07
-5.37971e-09
-1.25791e-07
-5.71627e-09
-1.24007e-07
-6.045e-09
-1.22129e-07
-6.36533e-09
-1.20159e-07
-6.67671e-09
-1.181e-07
-6.97859e-09
-1.15956e-07
-7.27041e-09
-1.13728e-07
-7.55163e-09
-1.11421e-07
-7.8217e-09
-1.09038e-07
-8.08008e-09
-1.06582e-07
-8.32623e-09
-1.04058e-07
-8.55963e-09
-1.01469e-07
-8.77973e-09
-9.88191e-08
-8.98603e-09
-9.61128e-08
-9.17803e-09
-9.33544e-08
-9.35521e-09
-9.05482e-08
-9.51709e-09
-8.7699e-08
-9.66319e-09
-8.48116e-08
-9.79304e-09
-8.18908e-08
-9.90621e-09
-7.89416e-08
-1.00022e-08
-7.59691e-08
-1.00807e-08
-7.29787e-08
-1.01412e-08
-6.99756e-08
-1.01834e-08
-6.69654e-08
-1.02069e-08
-6.39536e-08
-1.02113e-08
-6.09458e-08
-1.01963e-08
-5.79478e-08
-1.01617e-08
-5.49652e-08
-1.01072e-08
-5.20041e-08
-1.00325e-08
-4.90703e-08
-9.93743e-09
-4.61697e-08
-9.82182e-09
-4.33083e-08
-9.68554e-09
-4.04921e-08
-9.5285e-09
-3.77271e-08
-9.35064e-09
-3.50193e-08
-9.15195e-09
-3.23745e-08
-8.9325e-09
-2.97988e-08
-8.69239e-09
-2.7298e-08
-8.43179e-09
-2.48777e-08
-8.15093e-09
-2.25437e-08
-7.85016e-09
-2.03013e-08
-7.52987e-09
-1.8156e-08
-7.19057e-09
-1.61128e-08
-6.8329e-09
-1.41767e-08
-6.45761e-09
-1.23521e-08
-6.06561e-09
-1.06432e-08
-5.658e-09
-9.05406e-09
-5.23606e-09
-7.58786e-09
-4.80132e-09
-6.24745e-09
-4.3556e-09
-5.035e-09
-3.90106e-09
-3.95195e-09
-3.44025e-09
-2.99886e-09
-2.9762e-09
-2.17532e-09
-2.51254e-09
-1.47973e-09
-2.05356e-09
-9.09181e-10
-1.60439e-09
-4.59201e-10
-1.17117e-09
-1.23568e-10
-7.61217e-10
1.05947e-10
-3.83294e-10
2.39836e-10
-4.78052e-11
2.91154e-10
2.32924e-10
2.75848e-10
4.44405e-10
2.13177e-10
5.69765e-10
1.26308e-10
5.89739e-10
4.33842e-11
4.82623e-10
2.2265e-10
2.99067e-11
-2.48635e-10
7.64478e-11
-5.09146e-10
1.05329e-10
-5.77835e-10
8.88262e-11
-4.89468e-10
4.04482e-12
-2.7223e-10
-1.67971e-10
4.94365e-11
-4.42832e-10
4.54427e-10
-8.33219e-10
9.24712e-10
-1.34922e-09
1.44498e-09
-1.99861e-09
2.00226e-09
-2.78712e-09
2.58564e-09
-3.71865e-09
3.18593e-09
-4.79553e-09
3.79543e-09
-6.01869e-09
4.40769e-09
-7.38784e-09
5.01731e-09
-8.90164e-09
5.61975e-09
-1.05579e-08
6.21126e-09
-1.23535e-08
6.78868e-09
-1.42849e-08
7.34938e-09
-1.63477e-08
7.89118e-09
-1.85373e-08
8.41228e-09
-2.08486e-08
8.91119e-09
-2.3276e-08
9.38669e-09
-2.58139e-08
9.83781e-09
-2.84562e-08
1.02638e-08
-3.11968e-08
1.06639e-08
-3.40294e-08
1.10379e-08
-3.69475e-08
1.13852e-08
-3.99447e-08
1.17058e-08
-4.30143e-08
1.19994e-08
-4.61498e-08
1.22661e-08
-4.93446e-08
1.25058e-08
-5.25919e-08
1.27187e-08
-5.58853e-08
1.29049e-08
-5.92181e-08
1.30647e-08
-6.25839e-08
1.31982e-08
-6.59761e-08
1.33059e-08
-6.93884e-08
1.33879e-08
-7.28145e-08
1.34446e-08
-7.6248e-08
1.34765e-08
-7.9683e-08
1.3484e-08
-8.31132e-08
1.34674e-08
-8.65329e-08
1.34272e-08
-8.99361e-08
1.33639e-08
-9.33172e-08
1.3278e-08
-9.66705e-08
1.31699e-08
-9.99906e-08
1.30402e-08
-1.03272e-07
1.28893e-08
-1.0651e-07
1.27178e-08
-1.09699e-07
1.25263e-08
-1.12834e-07
1.23152e-08
-1.1591e-07
1.20851e-08
-1.18923e-07
1.18366e-08
-1.21868e-07
1.15703e-08
-1.24741e-07
1.12866e-08
-1.27537e-07
1.09862e-08
-1.30253e-07
1.06696e-08
-1.32884e-07
1.03375e-08
-1.35426e-07
9.99031e-09
-1.37877e-07
9.62874e-09
-1.40232e-07
9.25335e-09
-1.42487e-07
8.86474e-09
-1.44641e-07
8.46349e-09
-1.46689e-07
8.05023e-09
-1.48629e-07
7.62555e-09
-1.50458e-07
7.19007e-09
-1.52174e-07
6.7444e-09
-1.53773e-07
6.28917e-09
-1.55255e-07
5.82499e-09
-1.56616e-07
5.3525e-09
-1.57855e-07
4.87233e-09
-1.58969e-07
4.38512e-09
-1.59958e-07
3.89152e-09
-1.6082e-07
3.39216e-09
-1.61553e-07
2.88772e-09
-1.62157e-07
2.37884e-09
-1.6263e-07
1.86619e-09
-1.62972e-07
1.35043e-09
-1.63182e-07
8.32259e-10
-1.63259e-07
3.12338e-10
-1.63204e-07
-2.0864e-10
-1.63016e-07
-7.29985e-10
-1.62696e-07
-1.251e-09
-1.62243e-07
-1.77098e-09
-1.61659e-07
-2.28922e-09
-1.60943e-07
-2.80501e-09
-1.60097e-07
-3.31763e-09
-1.59122e-07
-3.82635e-09
-1.58018e-07
-4.33046e-09
-1.56788e-07
-4.82922e-09
-1.55432e-07
-5.32191e-09
-1.53953e-07
-5.80777e-09
-1.52352e-07
-6.28609e-09
-1.50632e-07
-6.7561e-09
-1.48794e-07
-7.21708e-09
-1.46842e-07
-7.66827e-09
-1.44778e-07
-8.10894e-09
-1.42605e-07
-8.53834e-09
-1.40326e-07
-8.95573e-09
-1.37944e-07
-9.36037e-09
-1.35463e-07
-9.75152e-09
-1.32887e-07
-1.01284e-08
-1.30218e-07
-1.04904e-08
-1.27461e-07
-1.08367e-08
-1.24621e-07
-1.11666e-08
-1.21701e-07
-1.14795e-08
-1.18706e-07
-1.17745e-08
-1.15641e-07
-1.2051e-08
-1.12511e-07
-1.23084e-08
-1.0932e-07
-1.25459e-08
-1.06074e-07
-1.2763e-08
-1.02779e-07
-1.29589e-08
-9.94385e-08
-1.31331e-08
-9.60597e-08
-1.3285e-08
-9.26479e-08
-1.3414e-08
-8.9209e-08
-1.35196e-08
-8.57491e-08
-1.36011e-08
-8.22744e-08
-1.36581e-08
-7.8791e-08
-1.36902e-08
-7.53055e-08
-1.36969e-08
-7.18242e-08
-1.36777e-08
-6.83536e-08
-1.36323e-08
-6.49005e-08
-1.35603e-08
-6.14716e-08
-1.34615e-08
-5.80735e-08
-1.33355e-08
-5.47131e-08
-1.31822e-08
-5.13972e-08
-1.30015e-08
-4.81326e-08
-1.27931e-08
-4.49261e-08
-1.25571e-08
-4.17846e-08
-1.22935e-08
-3.87148e-08
-1.20023e-08
-3.57234e-08
-1.16838e-08
-3.2817e-08
-1.13382e-08
-3.00021e-08
-1.09658e-08
-2.7285e-08
-1.05672e-08
-2.4672e-08
-1.01429e-08
-2.2169e-08
-9.69358e-09
-1.97817e-08
-9.22019e-09
-1.75156e-08
-8.72374e-09
-1.53757e-08
-8.20551e-09
-1.33667e-08
-7.66697e-09
-1.14929e-08
-7.10989e-09
-9.75788e-09
-6.53633e-09
-8.16475e-09
-5.94874e-09
-6.71583e-09
-5.34998e-09
-5.41265e-09
-4.74343e-09
-4.25578e-09
-4.13307e-09
-3.24471e-09
-3.52361e-09
-2.37769e-09
-2.92057e-09
-1.65158e-09
-2.3305e-09
-1.06163e-09
-1.76112e-09
-6.01301e-10
-1.22155e-09
-2.62032e-10
-7.22561e-10
-3.30159e-11
-2.76818e-10
9.90756e-11
1.00837e-10
1.50392e-10
3.93082e-10
1.40368e-10
5.79796e-10
9.22205e-11
6.3788e-10
3.39372e-11
5.40913e-10
2.56591e-10
1.72056e-11
-2.65828e-10
3.04439e-11
-5.22388e-10
7.97821e-12
-5.5538e-10
-7.65597e-11
-4.04937e-10
-2.45261e-10
-1.03528e-10
-5.16581e-10
3.2076e-10
-9.05815e-10
8.43662e-10
-1.42547e-09
1.44436e-09
-2.08554e-09
2.10505e-09
-2.89381e-09
2.81052e-09
-3.85601e-09
3.54785e-09
-4.97611e-09
4.30603e-09
-6.25644e-09
5.07576e-09
-7.69792e-09
5.84917e-09
-9.3002e-09
6.61959e-09
-1.10619e-08
7.38141e-09
-1.29805e-08
8.12988e-09
-1.50528e-08
8.86103e-09
-1.72749e-08
9.57149e-09
-1.96422e-08
1.02585e-08
-2.21496e-08
1.09196e-08
-2.47914e-08
1.1553e-08
-2.75618e-08
1.21571e-08
-3.04545e-08
1.27305e-08
-3.34628e-08
1.32721e-08
-3.65801e-08
1.37812e-08
-3.97993e-08
1.42571e-08
-4.31135e-08
1.46993e-08
-4.65153e-08
1.51076e-08
-4.99975e-08
1.54816e-08
-5.35528e-08
1.58213e-08
-5.71738e-08
1.61268e-08
-6.08532e-08
1.63981e-08
-6.45835e-08
1.66353e-08
-6.83576e-08
1.68388e-08
-7.21681e-08
1.70087e-08
-7.60077e-08
1.71455e-08
-7.98694e-08
1.72496e-08
-8.3746e-08
1.73213e-08
-8.76306e-08
1.73611e-08
-9.15163e-08
1.73697e-08
-9.53963e-08
1.73474e-08
-9.92639e-08
1.72948e-08
-1.03113e-07
1.72126e-08
-1.06936e-07
1.71014e-08
-1.10728e-07
1.69616e-08
-1.14482e-07
1.67941e-08
-1.18192e-07
1.65994e-08