/*--------------------------------*- C++ -*----------------------------------*\
  =========                 |
  \\      /  F ield         | OpenFOAM: The Open Source CFD Toolbox
   \\    /   O peration     | Website:  https://openfoam.org
    \\  /    A nd           | Version:  7
     \\/     M anipulation  |
\*---------------------------------------------------------------------------*/
FoamFile
{
    version     2.0;
    format      ascii;
    class       volVectorField;
    location    "0.3125";
    object      U;
}
// * * * * * * * * * * * * * * * * * * * * * * * * * * * * * * * * * * * * * //

dimensions      [0 1 -1 0 0 0 0];

internalField   nonuniform List<vector> 
25600
(
(1.76246e-07 -2.0882e-07 0)
(2.83368e-06 -1.79561e-06 0)
(9.07289e-06 -2.83495e-06 0)
(1.69244e-05 -3.20685e-06 0)
(2.48809e-05 -3.12329e-06 0)
(3.19934e-05 -2.7452e-06 0)
(3.76129e-05 -2.17984e-06 0)
(4.12879e-05 -1.49916e-06 0)
(4.27167e-05 -7.49564e-07 0)
(4.17067e-05 3.90726e-08 0)
(3.81419e-05 8.466e-07 0)
(3.19608e-05 1.65862e-06 0)
(2.3141e-05 2.46481e-06 0)
(1.16913e-05 3.25794e-06 0)
(-2.35477e-06 4.03291e-06 0)
(-1.89456e-05 4.78579e-06 0)
(-3.80159e-05 5.51349e-06 0)
(-5.94898e-05 6.21381e-06 0)
(-8.32824e-05 6.88513e-06 0)
(-0.000109302 7.52619e-06 0)
(-0.000137453 8.13615e-06 0)
(-0.000167635 8.71447e-06 0)
(-0.000199743 9.26081e-06 0)
(-0.000233674 9.77491e-06 0)
(-0.000269319 1.02567e-05 0)
(-0.000306573 1.07061e-05 0)
(-0.000345326 1.11234e-05 0)
(-0.00038547 1.15088e-05 0)
(-0.000426898 1.18625e-05 0)
(-0.000469502 1.21849e-05 0)
(-0.000513176 1.24764e-05 0)
(-0.000557813 1.27374e-05 0)
(-0.000603311 1.29684e-05 0)
(-0.000649564 1.31697e-05 0)
(-0.000696473 1.33419e-05 0)
(-0.000743936 1.34855e-05 0)
(-0.000791854 1.36011e-05 0)
(-0.000840131 1.36892e-05 0)
(-0.000888672 1.37503e-05 0)
(-0.000937383 1.3785e-05 0)
(-0.000986171 1.37939e-05 0)
(-0.00103495 1.37776e-05 0)
(-0.00108363 1.37366e-05 0)
(-0.00113212 1.36716e-05 0)
(-0.00118034 1.3583e-05 0)
(-0.00122821 1.34716e-05 0)
(-0.00127565 1.3338e-05 0)
(-0.00132259 1.31827e-05 0)
(-0.00136893 1.30062e-05 0)
(-0.00141462 1.28092e-05 0)
(-0.00145958 1.25923e-05 0)
(-0.00150374 1.23562e-05 0)
(-0.00154703 1.21013e-05 0)
(-0.00158939 1.18284e-05 0)
(-0.00163076 1.15379e-05 0)
(-0.00167106 1.12304e-05 0)
(-0.00171025 1.09067e-05 0)
(-0.00174827 1.05672e-05 0)
(-0.00178506 1.02126e-05 0)
(-0.00182056 9.84354e-06 0)
(-0.00185474 9.4605e-06 0)
(-0.00188753 9.06413e-06 0)
(-0.0019189 8.65504e-06 0)
(-0.00194879 8.23382e-06 0)
(-0.00197718 7.80108e-06 0)
(-0.00200401 7.35743e-06 0)
(-0.00202925 6.90347e-06 0)
(-0.00205286 6.43982e-06 0)
(-0.00207482 5.96711e-06 0)
(-0.00209508 5.48595e-06 0)
(-0.00211362 4.99697e-06 0)
(-0.00213042 4.5008e-06 0)
(-0.00214545 3.99807e-06 0)
(-0.00215868 3.48941e-06 0)
(-0.0021701 2.97547e-06 0)
(-0.00217969 2.4569e-06 0)
(-0.00218744 1.93437e-06 0)
(-0.00219333 1.40855e-06 0)
(-0.00219735 8.8008e-07 0)
(-0.00219949 3.49646e-07 0)
(-0.00219976 -1.82072e-07 0)
(-0.00219813 -7.14377e-07 0)
(-0.00219463 -1.24657e-06 0)
(-0.00218924 -1.77794e-06 0)
(-0.00218197 -2.30779e-06 0)
(-0.00217282 -2.83541e-06 0)
(-0.00216182 -3.36008e-06 0)
(-0.00214896 -3.88107e-06 0)
(-0.00213427 -4.39765e-06 0)
(-0.00211776 -4.90904e-06 0)
(-0.00209946 -5.41451e-06 0)
(-0.00207937 -5.91331e-06 0)
(-0.00205754 -6.40469e-06 0)
(-0.00203398 -6.88789e-06 0)
(-0.00200873 -7.36216e-06 0)
(-0.00198182 -7.8267e-06 0)
(-0.00195329 -8.28076e-06 0)
(-0.00192318 -8.72354e-06 0)
(-0.00189153 -9.15428e-06 0)
(-0.00185837 -9.57218e-06 0)
(-0.00182377 -9.97648e-06 0)
(-0.00178777 -1.03664e-05 0)
(-0.00175041 -1.07412e-05 0)
(-0.00171177 -1.11e-05 0)
(-0.00167189 -1.14421e-05 0)
(-0.00163084 -1.17668e-05 0)
(-0.00158867 -1.20732e-05 0)
(-0.00154546 -1.23607e-05 0)
(-0.00150127 -1.26284e-05 0)
(-0.00145618 -1.28757e-05 0)
(-0.00141025 -1.31018e-05 0)
(-0.00136357 -1.3306e-05 0)
(-0.00131621 -1.34875e-05 0)
(-0.00126826 -1.36458e-05 0)
(-0.00121979 -1.37802e-05 0)
(-0.0011709 -1.38899e-05 0)
(-0.00112166 -1.39743e-05 0)
(-0.00107217 -1.40328e-05 0)
(-0.00102253 -1.40649e-05 0)
(-0.00097282 -1.40698e-05 0)
(-0.000923142 -1.40472e-05 0)
(-0.000873593 -1.39964e-05 0)
(-0.000824273 -1.39171e-05 0)
(-0.000775281 -1.38085e-05 0)
(-0.00072672 -1.36704e-05 0)
(-0.000678694 -1.35022e-05 0)
(-0.000631307 -1.33038e-05 0)
(-0.000584664 -1.30746e-05 0)
(-0.000538873 -1.28145e-05 0)
(-0.000494041 -1.25231e-05 0)
(-0.000450276 -1.22002e-05 0)
(-0.000407686 -1.18457e-05 0)
(-0.000366378 -1.14595e-05 0)
(-0.000326461 -1.10415e-05 0)
(-0.000288043 -1.05919e-05 0)
(-0.00025123 -1.01106e-05 0)
(-0.000216127 -9.59791e-06 0)
(-0.000182839 -9.05408e-06 0)
(-0.000151467 -8.47959e-06 0)
(-0.000122111 -7.87503e-06 0)
(-9.48667e-05 -7.24122e-06 0)
(-6.98254e-05 -6.57918e-06 0)
(-4.7074e-05 -5.8902e-06 0)
(-2.66925e-05 -5.17583e-06 0)
(-8.75319e-06 -4.43804e-06 0)
(6.68166e-06 -3.67943e-06 0)
(1.9562e-05 -2.90347e-06 0)
(2.9853e-05 -2.11469e-06 0)
(3.7539e-05 -1.31889e-06 0)
(4.26288e-05 -5.23779e-07 0)
(4.51636e-05 2.60396e-07 0)
(4.52264e-05 1.0191e-06 0)
(4.29564e-05 1.73141e-06 0)
(3.85682e-05 2.36657e-06 0)
(3.23813e-05 2.87816e-06 0)
(2.48627e-05 3.19583e-06 0)
(1.66782e-05 3.215e-06 0)
(8.78014e-06 2.77937e-06 0)
(2.64426e-06 1.69669e-06 0)
(1.22495e-07 1.22626e-07 0)
(1.77635e-06 -2.88182e-06 0)
(9.37741e-06 -9.41563e-06 0)
(2.31317e-05 -1.34184e-05 0)
(3.93683e-05 -1.47273e-05 0)
(5.52408e-05 -1.39627e-05 0)
(6.87629e-05 -1.16925e-05 0)
(7.83956e-05 -8.35908e-06 0)
(8.29785e-05 -4.29414e-06 0)
(8.16785e-05 2.6226e-07 0)
(7.39192e-05 5.13699e-06 0)
(5.93191e-05 1.02022e-05 0)
(3.76453e-05 1.53611e-05 0)
(8.78159e-06 2.05405e-05 0)
(-2.72956e-05 2.56857e-05 0)
(-7.05376e-05 3.07545e-05 0)
(-0.000120839 3.5714e-05 0)
(-0.000178051 4.05381e-05 0)
(-0.000241987 4.52069e-05 0)
(-0.000312432 4.97046e-05 0)
(-0.00038915 5.4019e-05 0)
(-0.000471886 5.81409e-05 0)
(-0.000560371 6.20631e-05 0)
(-0.000654324 6.57803e-05 0)
(-0.000753459 6.92887e-05 0)
(-0.00085748 7.25855e-05 0)
(-0.000966088 7.56694e-05 0)
(-0.00107898 7.85397e-05 0)
(-0.00119586 8.11962e-05 0)
(-0.00131642 8.36396e-05 0)
(-0.00144036 8.58712e-05 0)
(-0.00156736 8.78926e-05 0)
(-0.00169715 8.97057e-05 0)
(-0.0018294 9.13128e-05 0)
(-0.00196384 9.27164e-05 0)
(-0.00210017 9.39193e-05 0)
(-0.00223811 9.49246e-05 0)
(-0.00237736 9.57355e-05 0)
(-0.00251765 9.63551e-05 0)
(-0.0026587 9.67871e-05 0)
(-0.00280025 9.70349e-05 0)
(-0.00294203 9.71024e-05 0)
(-0.00308378 9.69931e-05 0)
(-0.00322524 9.6711e-05 0)
(-0.00336617 9.62598e-05 0)
(-0.00350633 9.56437e-05 0)
(-0.00364547 9.48665e-05 0)
(-0.00378336 9.39322e-05 0)
(-0.00391978 9.28449e-05 0)
(-0.00405451 9.16087e-05 0)
(-0.00418732 9.02275e-05 0)
(-0.00431802 8.87057e-05 0)
(-0.0044464 8.70472e-05 0)
(-0.00457227 8.52564e-05 0)
(-0.00469542 8.33371e-05 0)
(-0.00481568 8.12938e-05 0)
(-0.00493287 7.91305e-05 0)
(-0.00504682 7.68514e-05 0)
(-0.00515735 7.44608e-05 0)
(-0.00526432 7.19629e-05 0)
(-0.00536755 6.93619e-05 0)
(-0.00546692 6.66621e-05 0)
(-0.00556227 6.38677e-05 0)
(-0.00565347 6.0983e-05 0)
(-0.00574039 5.80123e-05 0)
(-0.00582291 5.49599e-05 0)
(-0.00590092 5.18302e-05 0)
(-0.00597429 4.86274e-05 0)
(-0.00604293 4.53561e-05 0)
(-0.00610674 4.20206e-05 0)
(-0.00616563 3.86253e-05 0)
(-0.00621951 3.51747e-05 0)
(-0.00626832 3.16734e-05 0)
(-0.00631197 2.81258e-05 0)
(-0.0063504 2.45365e-05 0)
(-0.00638356 2.09102e-05 0)
(-0.00641139 1.72515e-05 0)
(-0.00643386 1.35651e-05 0)
(-0.00645092 9.85566e-06 0)
(-0.00646254 6.12805e-06 0)
(-0.00646871 2.38705e-06 0)
(-0.0064694 -1.36246e-06 0)
(-0.00646461 -5.11558e-06 0)
(-0.00645433 -8.86732e-06 0)
(-0.00643858 -1.26127e-05 0)
(-0.00641737 -1.63467e-05 0)
(-0.00639071 -2.00643e-05 0)
(-0.00635863 -2.37602e-05 0)
(-0.00632118 -2.74295e-05 0)
(-0.00627839 -3.10667e-05 0)
(-0.00623032 -3.46667e-05 0)
(-0.00617702 -3.82241e-05 0)
(-0.00611856 -4.17337e-05 0)
(-0.00605502 -4.51902e-05 0)
(-0.00598647 -4.85882e-05 0)
(-0.00591302 -5.19223e-05 0)
(-0.00583474 -5.5187e-05 0)
(-0.00575176 -5.8377e-05 0)
(-0.00566419 -6.14868e-05 0)
(-0.00557214 -6.45109e-05 0)
(-0.00547574 -6.7444e-05 0)
(-0.00537514 -7.02805e-05 0)
(-0.00527048 -7.3015e-05 0)
(-0.00516191 -7.56423e-05 0)
(-0.00504959 -7.81568e-05 0)
(-0.0049337 -8.05534e-05 0)
(-0.0048144 -8.28265e-05 0)
(-0.00469189 -8.4971e-05 0)
(-0.00456635 -8.69817e-05 0)
(-0.00443798 -8.88535e-05 0)
(-0.004307 -9.05812e-05 0)
(-0.00417361 -9.216e-05 0)
(-0.00403803 -9.35848e-05 0)
(-0.00390049 -9.4851e-05 0)
(-0.00376123 -9.59539e-05 0)
(-0.00362049 -9.68889e-05 0)
(-0.00347852 -9.76516e-05 0)
(-0.00333556 -9.82376e-05 0)
(-0.00319188 -9.86429e-05 0)
(-0.00304775 -9.88636e-05 0)
(-0.00290343 -9.88957e-05 0)
(-0.00275921 -9.87357e-05 0)
(-0.00261535 -9.83802e-05 0)
(-0.00247216 -9.7826e-05 0)
(-0.00232991 -9.70703e-05 0)
(-0.0021889 -9.61102e-05 0)
(-0.00204944 -9.49433e-05 0)
(-0.00191181 -9.35675e-05 0)
(-0.00177632 -9.1981e-05 0)
(-0.00164327 -9.01823e-05 0)
(-0.00151298 -8.81704e-05 0)
(-0.00138575 -8.59445e-05 0)
(-0.00126188 -8.35041e-05 0)
(-0.00114167 -8.08498e-05 0)
(-0.00102545 -7.79822e-05 0)
(-0.000913499 -7.49029e-05 0)
(-0.000806126 -7.16138e-05 0)
(-0.000703622 -6.81178e-05 0)
(-0.000606277 -6.44188e-05 0)
(-0.00051437 -6.0522e-05 0)
(-0.000428172 -5.64334e-05 0)
(-0.000347944 -5.21611e-05 0)
(-0.000273928 -4.77145e-05 0)
(-0.000206353 -4.31057e-05 0)
(-0.000145425 -3.83493e-05 0)
(-9.13235e-05 -3.34636e-05 0)
(-4.41966e-05 -2.84709e-05 0)
(-4.15348e-06 -2.33996e-05 0)
(2.87447e-05 -1.8285e-05 0)
(5.44963e-05 -1.31717e-05 0)
(7.31741e-05 -8.11732e-06 0)
(8.49441e-05 -3.19546e-06 0)
(9.00905e-05 1.4969e-06 0)
(8.90488e-05 5.83099e-06 0)
(8.24471e-05 9.633e-06 0)
(7.11617e-05 1.26658e-05 0)
(5.63844e-05 1.46085e-05 0)
(3.96736e-05 1.50377e-05 0)
(2.30139e-05 1.34155e-05 0)
(9.18292e-06 9.18487e-06 0)
(1.69546e-06 2.64268e-06 0)
(2.82367e-06 -9.09543e-06 0)
(1.34029e-05 -2.31641e-05 0)
(3.10605e-05 -3.10661e-05 0)
(5.08213e-05 -3.31303e-05 0)
(6.90897e-05 -3.04484e-05 0)
(8.3304e-05 -2.41146e-05 0)
(9.13794e-05 -1.50601e-05 0)
(9.16742e-05 -4.03145e-06 0)
(8.29573e-05 8.39208e-06 0)
(6.43354e-05 2.17648e-05 0)
(3.51866e-05 3.5742e-05 0)
(-4.8911e-06 5.00562e-05 0)
(-5.61208e-05 6.45e-05 0)
(-0.000118582 7.89118e-05 0)
(-0.000192241 9.31641e-05 0)
(-0.000276968 0.000107156 0)
(-0.000372562 0.000120807 0)
(-0.000478759 0.000134053 0)
(-0.000595245 0.000146845 0)
(-0.000721669 0.000159143 0)
(-0.000857645 0.000170914 0)
(-0.00100276 0.000182134 0)
(-0.00115659 0.000192785 0)
(-0.00131869 0.000202852 0)
(-0.00148859 0.000212324 0)
(-0.00166583 0.000221196 0)
(-0.00184993 0.000229462 0)
(-0.00204042 0.000237121 0)
(-0.00223681 0.000244173 0)
(-0.00243863 0.000250619 0)
(-0.00264539 0.000256463 0)
(-0.00285661 0.000261708 0)
(-0.00307182 0.000266362 0)
(-0.00329054 0.000270429 0)
(-0.00351231 0.000273917 0)
(-0.00373666 0.000276835 0)
(-0.00396314 0.000279189 0)
(-0.00419129 0.000280991 0)
(-0.00442068 0.000282248 0)
(-0.00465087 0.000282971 0)
(-0.00488142 0.00028317 0)
(-0.00511193 0.000282855 0)
(-0.00534197 0.000282037 0)
(-0.00557114 0.000280728 0)
(-0.00579906 0.000278938 0)
(-0.00602532 0.000276678 0)
(-0.00624956 0.00027396 0)
(-0.00647141 0.000270796 0)
(-0.00669051 0.000267198 0)
(-0.0069065 0.000263176 0)
(-0.00711906 0.000258743 0)
(-0.00732784 0.000253911 0)
(-0.00753254 0.000248692 0)
(-0.00773283 0.000243098 0)
(-0.00792842 0.000237141 0)
(-0.00811902 0.000230834 0)
(-0.00830434 0.000224187 0)
(-0.00848411 0.000217214 0)
(-0.00865807 0.000209928 0)
(-0.00882598 0.00020234 0)
(-0.00898758 0.000194462 0)
(-0.00914266 0.000186308 0)
(-0.00929098 0.00017789 0)
(-0.00943233 0.00016922 0)
(-0.00956653 0.000160311 0)
(-0.00969337 0.000151176 0)
(-0.00981268 0.000141828 0)
(-0.00992428 0.000132279 0)
(-0.010028 0.000122542 0)
(-0.0101238 0.000112631 0)
(-0.0102114 0.000102559 0)
(-0.0102907 9.23377e-05 0)
(-0.0103616 8.1982e-05 0)
(-0.0104241 7.15049e-05 0)
(-0.0104779 6.09198e-05 0)
(-0.0105231 5.02406e-05 0)
(-0.0105596 3.94808e-05 0)
(-0.0105873 2.86545e-05 0)
(-0.0106061 1.77755e-05 0)
(-0.010616 6.85821e-06 0)
(-0.0106171 -4.08328e-06 0)
(-0.0106092 -1.50345e-05 0)
(-0.0105924 -2.5981e-05 0)
(-0.0105667 -3.69082e-05 0)
(-0.0105321 -4.78012e-05 0)
(-0.0104886 -5.86452e-05 0)
(-0.0104364 -6.94252e-05 0)
(-0.0103754 -8.0126e-05 0)
(-0.0103057 -9.07325e-05 0)
(-0.0102274 -0.000101229 0)
(-0.0101407 -0.000111601 0)
(-0.0100455 -0.000121832 0)
(-0.00994212 -0.000131907 0)
(-0.00983058 -0.00014181 0)
(-0.00971107 -0.000151525 0)
(-0.00958372 -0.000161037 0)
(-0.00944874 -0.00017033 0)
(-0.00930628 -0.000179388 0)
(-0.00915657 -0.000188195 0)
(-0.0089998 -0.000196736 0)
(-0.0088362 -0.000204994 0)
(-0.00866601 -0.000212954 0)
(-0.00848947 -0.000220601 0)
(-0.00830686 -0.000227918 0)
(-0.00811844 -0.00023489 0)
(-0.00792451 -0.000241503 0)
(-0.00772535 -0.00024774 0)
(-0.00752129 -0.000253586 0)
(-0.00731264 -0.000259028 0)
(-0.00709975 -0.00026405 0)
(-0.00688295 -0.000268637 0)
(-0.00666261 -0.000272777 0)
(-0.0064391 -0.000276455 0)
(-0.00621279 -0.000279658 0)
(-0.00598409 -0.000282372 0)
(-0.00575338 -0.000284586 0)
(-0.00552108 -0.000286287 0)
(-0.00528761 -0.000287463 0)
(-0.0050534 -0.000288103 0)
(-0.00481888 -0.000288196 0)
(-0.00458451 -0.000287733 0)
(-0.00435074 -0.000286704 0)
(-0.00411802 -0.000285099 0)
(-0.00388682 -0.000282912 0)
(-0.00365762 -0.000280135 0)
(-0.00343089 -0.000276761 0)
(-0.00320712 -0.000272785 0)
(-0.00298679 -0.000268203 0)
(-0.00277038 -0.00026301 0)
(-0.00255839 -0.000257205 0)
(-0.00235131 -0.000250787 0)
(-0.00214962 -0.000243755 0)
(-0.00195381 -0.000236113 0)
(-0.00176437 -0.000227863 0)
(-0.00158177 -0.000219012 0)
(-0.00140649 -0.000209567 0)
(-0.00123899 -0.000199539 0)
(-0.00107971 -0.000188942 0)
(-0.000929096 -0.000177791 0)
(-0.000787567 -0.000166109 0)
(-0.000655519 -0.000153921 0)
(-0.000533327 -0.000141259 0)
(-0.00042133 -0.000128161 0)
(-0.000319835 -0.000114673 0)
(-0.0002291 -0.000100854 0)
(-0.00014933 -8.67727e-05 0)
(-8.06675e-05 -7.25159e-05 0)
(-2.31719e-05 -5.81904e-05 0)
(2.31917e-05 -4.39288e-05 0)
(5.85769e-05 -2.98977e-05 0)
(8.32823e-05 -1.63077e-05 0)
(9.77847e-05 -3.42627e-06 0)
(0.00010278 8.4041e-06 0)
(9.92324e-05 1.87422e-05 0)
(8.84346e-05 2.70207e-05 0)
(7.20732e-05 3.25196e-05 0)
(5.22533e-05 3.4356e-05 0)
(3.15222e-05 3.15123e-05 0)
(1.34151e-05 2.30169e-05 0)
(2.77672e-06 8.77413e-06 0)
(3.20689e-06 -1.69401e-05 0)
(1.47488e-05 -3.94156e-05 0)
(3.31984e-05 -5.08455e-05 0)
(5.26987e-05 -5.25962e-05 0)
(6.9145e-05 -4.64058e-05 0)
(7.96223e-05 -3.39497e-05 0)
(8.17164e-05 -1.66878e-05 0)
(7.34788e-05 4.16777e-06 0)
(5.34045e-05 2.76379e-05 0)
(2.03662e-05 5.294e-05 0)
(-2.64467e-05 7.94518e-05 0)
(-8.75784e-05 0.00010668 0)
(-0.000163351 0.000134232 0)
(-0.000253906 0.000161796 0)
(-0.000359233 0.000189121 0)
(-0.000479199 0.000216005 0)
(-0.000613568 0.000242288 0)
(-0.000762022 0.000267839 0)
(-0.000924171 0.000292554 0)
(-0.00109957 0.000316349 0)
(-0.00128773 0.000339158 0)
(-0.00148812 0.000360926 0)
(-0.00170018 0.000381612 0)
(-0.00192333 0.000401185 0)
(-0.00215696 0.000419621 0)
(-0.00240046 0.000436902 0)
(-0.0026532 0.000453016 0)
(-0.00291454 0.000467958 0)
(-0.00318384 0.000481724 0)
(-0.00346046 0.000494316 0)
(-0.00374375 0.000505738 0)
(-0.00403307 0.000515997 0)
(-0.00432778 0.000525101 0)
(-0.00462724 0.000533062 0)
(-0.00493082 0.000539893 0)
(-0.0052379 0.000545607 0)
(-0.00554785 0.00055022 0)
(-0.00586007 0.000553749 0)
(-0.00617395 0.000556211 0)
(-0.00648891 0.000557625 0)
(-0.00680436 0.000558011 0)
(-0.00711973 0.000557388 0)
(-0.00743445 0.000555776 0)
(-0.00774799 0.000553198 0)
(-0.00805979 0.000549673 0)
(-0.00836934 0.000545225 0)
(-0.00867611 0.000539875 0)
(-0.00897961 0.000533645 0)
(-0.00927935 0.000526559 0)
(-0.00957484 0.000518639 0)
(-0.00986563 0.000509909 0)
(-0.0101513 0.000500391 0)
(-0.0104313 0.00049011 0)
(-0.0107053 0.000479089 0)
(-0.0109729 0.000467352 0)
(-0.0112336 0.000454922 0)
(-0.0114872 0.000441824 0)
(-0.0117331 0.000428083 0)
(-0.0119711 0.000413721 0)
(-0.0122008 0.000398764 0)
(-0.0124219 0.000383236 0)
(-0.012634 0.000367161 0)
(-0.0128369 0.000350566 0)
(-0.0130303 0.000333473 0)
(-0.0132138 0.000315909 0)
(-0.0133873 0.000297898 0)
(-0.0135505 0.000279466 0)
(-0.0137031 0.000260639 0)
(-0.013845 0.000241441 0)
(-0.0139759 0.000221899 0)
(-0.0140957 0.000202039 0)
(-0.0142042 0.000181887 0)
(-0.0143011 0.000161469 0)
(-0.0143865 0.000140812 0)
(-0.0144601 0.000119942 0)
(-0.0145219 9.88873e-05 0)
(-0.0145716 7.76745e-05 0)
(-0.0146094 5.63311e-05 0)
(-0.014635 3.48849e-05 0)
(-0.0146485 1.33639e-05 0)
(-0.0146499 -8.20371e-06 0)
(-0.014639 -2.97895e-05 0)
(-0.0146159 -5.13648e-05 0)
(-0.0145806 -7.29007e-05 0)
(-0.0145331 -9.43681e-05 0)
(-0.0144736 -0.000115737 0)
(-0.014402 -0.000136979 0)
(-0.0143184 -0.000158064 0)
(-0.014223 -0.00017896 0)
(-0.0141159 -0.00019964 0)
(-0.0139971 -0.000220071 0)
(-0.0138668 -0.000240223 0)
(-0.0137253 -0.000260066 0)
(-0.0135726 -0.000279569 0)
(-0.0134091 -0.000298701 0)
(-0.0132348 -0.000317431 0)
(-0.0130501 -0.000335727 0)
(-0.0128552 -0.000353559 0)
(-0.0126504 -0.000370896 0)
(-0.012436 -0.000387706 0)
(-0.0122122 -0.000403959 0)
(-0.0119794 -0.000419624 0)
(-0.0117379 -0.00043467 0)
(-0.0114882 -0.000449066 0)
(-0.0112305 -0.000462782 0)
(-0.0109653 -0.000475789 0)
(-0.0106929 -0.000488056 0)
(-0.0104139 -0.000499554 0)
(-0.0101286 -0.000510255 0)
(-0.00983751 -0.000520129 0)
(-0.00954109 -0.00052915 0)
(-0.00923984 -0.000537288 0)
(-0.00893425 -0.000544519 0)
(-0.00862485 -0.000550816 0)
(-0.00831216 -0.000556153 0)
(-0.00799674 -0.000560506 0)
(-0.00767915 -0.000563852 0)
(-0.00735995 -0.000566168 0)
(-0.00703972 -0.000567433 0)
(-0.00671907 -0.000567626 0)
(-0.0063986 -0.000566728 0)
(-0.00607893 -0.000564721 0)
(-0.00576067 -0.000561588 0)
(-0.00544446 -0.000557315 0)
(-0.00513094 -0.000551888 0)
(-0.00482076 -0.000545296 0)
(-0.00451457 -0.000537529 0)
(-0.00421301 -0.000528578 0)
(-0.00391676 -0.000518439 0)
(-0.00362646 -0.000507108 0)
(-0.00334277 -0.000494585 0)
(-0.00306636 -0.000480872 0)
(-0.00279787 -0.000465976 0)
(-0.00253794 -0.000449905 0)
(-0.00228722 -0.000432673 0)
(-0.00204633 -0.000414298 0)
(-0.00181589 -0.000394804 0)
(-0.00159648 -0.00037422 0)
(-0.00138869 -0.000352582 0)
(-0.00119305 -0.000329936 0)
(-0.00101009 -0.000306335 0)
(-0.000840288 -0.000281847 0)
(-0.000684074 -0.000256551 0)
(-0.000541832 -0.000230543 0)
(-0.000413881 -0.000203941 0)
(-0.000300466 -0.000176887 0)
(-0.000201742 -0.000149552 0)
(-0.000117755 -0.000122149 0)
(-4.84279e-05 -9.49364e-05 0)
(6.47444e-06 -6.82338e-05 0)
(4.73692e-05 -4.24375e-05 0)
(7.48944e-05 -1.80406e-05 0)
(8.99507e-05 4.341e-06 0)
(9.37498e-05 2.39386e-05 0)
(8.78712e-05 3.97984e-05 0)
(7.43202e-05 5.07546e-05 0)
(5.55389e-05 5.54245e-05 0)
(3.44311e-05 5.22541e-05 0)
(1.50593e-05 3.96911e-05 0)
(3.21416e-06 1.66706e-05 0)
(3.13349e-06 -2.49172e-05 0)
(1.40394e-05 -5.5362e-05 0)
(3.06579e-05 -6.91945e-05 0)
(4.67513e-05 -6.90756e-05 0)
(5.79345e-05 -5.75221e-05 0)
(6.10741e-05 -3.6837e-05 0)
(5.35613e-05 -9.02615e-06 0)
(3.32622e-05 2.42187e-05 0)
(-1.50358e-06 6.14975e-05 0)
(-5.20213e-05 0.000101665 0)
(-0.000119236 0.00014379 0)
(-0.000203798 0.000187119 0)
(-0.000306113 0.000231043 0)
(-0.000426372 0.000275064 0)
(-0.000564593 0.000318782 0)
(-0.000720643 0.000361868 0)
(-0.000894267 0.000404058 0)
(-0.0010851 0.000445133 0)
(-0.0012927 0.000484918 0)
(-0.00151655 0.00052327 0)
(-0.00175605 0.000560074 0)
(-0.0020106 0.000595237 0)
(-0.00227951 0.000628685 0)
(-0.00256208 0.000660361 0)
(-0.00285758 0.00069022 0)
(-0.00316527 0.00071823 0)
(-0.00348438 0.000744368 0)
(-0.00381413 0.000768618 0)
(-0.00415373 0.000790973 0)
(-0.00450239 0.000811432 0)
(-0.00485932 0.000829998 0)
(-0.00522372 0.00084668 0)
(-0.00559481 0.00086149 0)
(-0.00597179 0.000874443 0)
(-0.00635388 0.000885558 0)
(-0.0067403 0.000894857 0)
(-0.00713028 0.000902364 0)
(-0.00752308 0.000908103 0)
(-0.00791792 0.000912103 0)
(-0.00831409 0.000914393 0)
(-0.00871084 0.000915003 0)
(-0.00910747 0.000913965 0)
(-0.00950328 0.000911311 0)
(-0.00989757 0.000907074 0)
(-0.0102897 0.000901291 0)
(-0.0106789 0.000893994 0)
(-0.0110647 0.000885221 0)
(-0.0114463 0.000875008 0)
(-0.0118232 0.00086339 0)
(-0.0121948 0.000850406 0)
(-0.0125604 0.000836094 0)
(-0.0129196 0.00082049 0)
(-0.0132717 0.000803634 0)
(-0.0136162 0.000785564 0)
(-0.0139527 0.000766318 0)
(-0.0142805 0.000745937 0)
(-0.0145993 0.000724458 0)
(-0.0149085 0.000701923 0)
(-0.0152077 0.00067837 0)
(-0.0154965 0.000653839 0)
(-0.0157745 0.000628372 0)
(-0.0160412 0.000602007 0)
(-0.0162963 0.000574786 0)
(-0.0165394 0.00054675 0)
(-0.0167701 0.00051794 0)
(-0.0169882 0.000488397 0)
(-0.0171933 0.000458162 0)
(-0.0173852 0.000427279 0)
(-0.0175635 0.000395788 0)
(-0.0177281 0.000363732 0)
(-0.0178786 0.000331155 0)
(-0.0180148 0.000298098 0)
(-0.0181367 0.000264606 0)
(-0.0182439 0.000230723 0)
(-0.0183363 0.000196492 0)
(-0.0184139 0.000161958 0)
(-0.0184764 0.000127165 0)
(-0.0185237 9.21598e-05 0)
(-0.0185558 5.6987e-05 0)
(-0.0185727 2.16928e-05 0)
(-0.0185742 -1.36765e-05 0)
(-0.0185604 -4.90741e-05 0)
(-0.0185312 -8.44528e-05 0)
(-0.0184867 -0.000119765 0)
(-0.018427 -0.000154963 0)
(-0.018352 -0.000189999 0)
(-0.0182618 -0.000224823 0)
(-0.0181567 -0.000259387 0)
(-0.0180366 -0.000293642 0)
(-0.0179018 -0.000327537 0)
(-0.0177523 -0.000361024 0)
(-0.0175885 -0.000394052 0)
(-0.0174104 -0.000426571 0)
(-0.0172185 -0.00045853 0)
(-0.0170128 -0.000489878 0)
(-0.0167936 -0.000520565 0)
(-0.0165614 -0.00055054 0)
(-0.0163163 -0.000579753 0)
(-0.0160588 -0.000608151 0)
(-0.0157892 -0.000635686 0)
(-0.0155078 -0.000662305 0)
(-0.0152152 -0.000687959 0)
(-0.0149117 -0.000712597 0)
(-0.0145978 -0.00073617 0)
(-0.0142739 -0.000758629 0)
(-0.0139405 -0.000779924 0)
(-0.0135982 -0.000800007 0)
(-0.0132475 -0.000818831 0)
(-0.012889 -0.000836348 0)
(-0.0125231 -0.000852512 0)
(-0.0121506 -0.000867278 0)
(-0.011772 -0.000880601 0)
(-0.011388 -0.00089244 0)
(-0.0109992 -0.00090275 0)
(-0.0106062 -0.000911492 0)
(-0.0102098 -0.000918626 0)
(-0.00981065 -0.000924114 0)
(-0.00940947 -0.000927921 0)
(-0.00900699 -0.000930011 0)
(-0.00860395 -0.000930353 0)
(-0.0082011 -0.000928915 0)
(-0.00779922 -0.00092567 0)
(-0.00739908 -0.000920591 0)
(-0.00700146 -0.000913656 0)
(-0.00660717 -0.000904843 0)
(-0.00621701 -0.000894134 0)
(-0.00583178 -0.000881516 0)
(-0.00545229 -0.000866978 0)
(-0.00507936 -0.000850512 0)
(-0.0047138 -0.000832115 0)
(-0.00435643 -0.000811788 0)
(-0.00400806 -0.000789539 0)
(-0.00366948 -0.000765379 0)
(-0.00334149 -0.000739327 0)
(-0.00302487 -0.000711407 0)
(-0.00272039 -0.000681653 0)
(-0.00242879 -0.000650106 0)
(-0.00215079 -0.00061682 0)
(-0.00188709 -0.000581858 0)
(-0.00163835 -0.000545298 0)
(-0.00140518 -0.000507235 0)
(-0.00118816 -0.000467781 0)
(-0.000987791 -0.000427071 0)
(-0.000804524 -0.00038527 0)
(-0.000638724 -0.000342572 0)
(-0.000490661 -0.000299211 0)
(-0.000360496 -0.000255471 0)
(-0.000248261 -0.000211694 0)
(-0.000153833 -0.000168294 0)
(-7.69118e-05 -0.000125776 0)
(-1.69826e-05 -8.47543e-05 0)
(2.67149e-05 -4.59808e-05 0)
(5.52289e-05 -1.03743e-05 0)
(6.99409e-05 2.09447e-05 0)
(7.26168e-05 4.66172e-05 0)
(6.54595e-05 6.50182e-05 0)
(5.11186e-05 7.42459e-05 0)
(3.2733e-05 7.21564e-05 0)
(1.46804e-05 5.64655e-05 0)
(3.20263e-06 2.48701e-05 0)
(2.77064e-06 -3.20902e-05 0)
(1.18527e-05 -6.90357e-05 0)
(2.45308e-05 -8.35963e-05 0)
(3.46443e-05 -7.97117e-05 0)
(3.77468e-05 -6.07265e-05 0)
(3.05936e-05 -2.95978e-05 0)
(1.0479e-05 1.11116e-05 0)
(-2.48268e-05 5.92254e-05 0)
(-7.71017e-05 0.000112918 0)
(-0.000147724 0.000170671 0)
(-0.000237723 0.000231229 0)
(-0.000347822 0.00029356 0)
(-0.000478481 0.000356812 0)
(-0.000629932 0.000420284 0)
(-0.000802211 0.000483401 0)
(-0.000995187 0.000545688 0)
(-0.00120859 0.000606756 0)
(-0.00144201 0.000666284 0)
(-0.00169497 0.000724008 0)
(-0.00196688 0.000779713 0)
(-0.00225709 0.000833221 0)
(-0.00256487 0.00088439 0)
(-0.00288947 0.000933105 0)
(-0.00323008 0.000979276 0)
(-0.00358585 0.00102283 0)
(-0.00395592 0.00106371 0)
(-0.00433941 0.00110188 0)
(-0.0047354 0.00113732 0)
(-0.00514297 0.00117 0)
(-0.00556121 0.00119992 0)
(-0.00598918 0.00122709 0)
(-0.00642595 0.0012515 0)
(-0.00687058 0.00127318 0)
(-0.00732216 0.00129214 0)
(-0.00777974 0.00130842 0)
(-0.00824243 0.00132203 0)
(-0.00870931 0.00133301 0)
(-0.00917947 0.0013414 0)
(-0.00965204 0.00134724 0)
(-0.0101261 0.00135056 0)
(-0.0106009 0.00135141 0)
(-0.0110755 0.00134984 0)
(-0.011549 0.00134589 0)
(-0.0120207 0.00133961 0)
(-0.0124898 0.00133104 0)
(-0.0129555 0.00132025 0)
(-0.0134169 0.00130729 0)
(-0.0138734 0.0012922 0)
(-0.0143243 0.00127503 0)
(-0.0147687 0.00125585 0)
(-0.015206 0.00123471 0)
(-0.0156356 0.00121167 0)
(-0.0160567 0.00118677 0)
(-0.0164688 0.00116008 0)
(-0.0168712 0.00113165 0)
(-0.0172633 0.00110155 0)
(-0.0176445 0.00106983 0)
(-0.0180143 0.00103654 0)
(-0.0183722 0.00100175 0)
(-0.0187176 0.000965515 0)
(-0.0190499 0.000927895 0)
(-0.0193689 0.00088895 0)
(-0.0196739 0.00084874 0)
(-0.0199646 0.000807324 0)
(-0.0202405 0.000764765 0)
(-0.0205013 0.000721122 0)
(-0.0207465 0.000676458 0)
(-0.0209759 0.000630835 0)
(-0.0211891 0.000584315 0)
(-0.0213858 0.000536961 0)
(-0.0215657 0.000488837 0)
(-0.0217286 0.000440005 0)
(-0.0218742 0.000390532 0)
(-0.0220023 0.00034048 0)
(-0.0221127 0.000289916 0)
(-0.0222053 0.000238906 0)
(-0.0222799 0.000187516 0)
(-0.0223364 0.000135813 0)
(-0.0223747 8.38636e-05 0)
(-0.0223947 3.17371e-05 0)
(-0.0223964 -2.04982e-05 0)
(-0.0223797 -7.27732e-05 0)
(-0.0223447 -0.000125018 0)
(-0.0222914 -0.000177163 0)
(-0.0222198 -0.000229136 0)
(-0.02213 -0.000280867 0)
(-0.022022 -0.000332283 0)
(-0.0218961 -0.000383313 0)
(-0.0217524 -0.000433883 0)
(-0.0215911 -0.00048392 0)
(-0.0214123 -0.000533351 0)
(-0.0212162 -0.000582102 0)
(-0.0210033 -0.000630098 0)
(-0.0207736 -0.000677265 0)
(-0.0205276 -0.000723528 0)
(-0.0202655 -0.000768813 0)
(-0.0199877 -0.000813045 0)
(-0.0196946 -0.000856148 0)
(-0.0193867 -0.000898048 0)
(-0.0190642 -0.000938671 0)
(-0.0187278 -0.000977941 0)
(-0.0183779 -0.00101579 0)
(-0.018015 -0.00105213 0)
(-0.0176397 -0.0010869 0)
(-0.0172524 -0.00112003 0)
(-0.0168539 -0.00115144 0)
(-0.0164447 -0.00118106 0)
(-0.0160254 -0.00120882 0)
(-0.0155967 -0.00123466 0)
(-0.0151594 -0.0012585 0)
(-0.014714 -0.00128028 0)
(-0.0142614 -0.00129993 0)
(-0.0138023 -0.0013174 0)
(-0.0133374 -0.00133262 0)
(-0.0128676 -0.00134553 0)
(-0.0123937 -0.00135607 0)
(-0.0119164 -0.00136419 0)
(-0.0114367 -0.00136984 0)
(-0.0109555 -0.00137297 0)
(-0.0104735 -0.00137352 0)
(-0.00999168 -0.00137147 0)
(-0.00951098 -0.00136676 0)
(-0.0090323 -0.00135936 0)
(-0.00855658 -0.00134923 0)
(-0.00808475 -0.00133636 0)
(-0.00761775 -0.00132071 0)
(-0.00715656 -0.00130226 0)
(-0.00670211 -0.00128101 0)
(-0.00625538 -0.00125694 0)
(-0.00581731 -0.00123005 0)
(-0.00538887 -0.00120034 0)
(-0.004971 -0.00116784 0)
(-0.00456465 -0.00113256 0)
(-0.00417073 -0.00109453 0)
(-0.00379016 -0.00105379 0)
(-0.00342384 -0.00101039 0)
(-0.00307262 -0.000964413 0)
(-0.00273734 -0.000915927 0)
(-0.0024188 -0.000865034 0)
(-0.00211776 -0.000811857 0)
(-0.00183493 -0.000756537 0)
(-0.00157095 -0.000699248 0)
(-0.00132639 -0.000640194 0)
(-0.00110177 -0.000579619 0)
(-0.000897465 -0.000517812 0)
(-0.000713785 -0.000455121 0)
(-0.000550891 -0.000391958 0)
(-0.0004088 -0.000328816 0)
(-0.000287359 -0.000266288 0)
(-0.000186214 -0.000205085 0)
(-0.000104783 -0.000146061 0)
(-4.22198e-05 -9.02462e-05 0)
(2.62078e-06 -3.88778e-05 0)
(3.12253e-05 6.56093e-06 0)
(4.54674e-05 4.43017e-05 0)
(4.76587e-05 7.22555e-05 0)
(4.05642e-05 8.79879e-05 0)
(2.74574e-05 8.87297e-05 0)
(1.2822e-05 7.13979e-05 0)
(2.89904e-06 3.2439e-05 0)
(2.227e-06 -3.78159e-05 0)
(8.62749e-06 -7.89292e-05 0)
(1.57332e-05 -9.20102e-05 0)
(1.78158e-05 -8.21365e-05 0)
(1.05555e-05 -5.34553e-05 0)
(-9.30777e-06 -9.57243e-06 0)
(-4.44969e-05 4.63985e-05 0)
(-9.72643e-05 0.000111803 0)
(-0.000169421 0.000184395 0)
(-0.000262385 0.000262282 0)
(-0.000377226 0.000343882 0)
(-0.000514706 0.00042787 0)
(-0.000675315 0.000513143 0)
(-0.000859306 0.000598781 0)
(-0.00106672 0.000684019 0)
(-0.00129743 0.000768222 0)
(-0.00155114 0.000850859 0)
(-0.00182742 0.000931492 0)
(-0.00212574 0.00100976 0)
(-0.00244545 0.00108535 0)
(-0.00278585 0.00115803 0)
(-0.00314613 0.00122758 0)
(-0.00352544 0.00129385 0)
(-0.0039229 0.00135669 0)
(-0.00433756 0.00141602 0)
(-0.00476844 0.00147173 0)
(-0.00521455 0.00152378 0)
(-0.00567487 0.00157212 0)
(-0.00614836 0.00161673 0)
(-0.00663396 0.00165758 0)
(-0.00713064 0.00169467 0)
(-0.00763732 0.00172802 0)
(-0.00815296 0.00175763 0)
(-0.00867648 0.00178354 0)
(-0.00920683 0.00180577 0)
(-0.00974298 0.00182435 0)
(-0.0102839 0.00183934 0)
(-0.0108285 0.00185077 0)
(-0.0113758 0.0018587 0)
(-0.0119248 0.00186318 0)
(-0.0124745 0.00186426 0)
(-0.013024 0.00186202 0)
(-0.0135722 0.00185651 0)
(-0.0141183 0.0018478 0)
(-0.0146613 0.00183595 0)
(-0.0152002 0.00182103 0)
(-0.0157343 0.00180311 0)
(-0.0162627 0.00178227 0)
(-0.0167844 0.00175858 0)
(-0.0172987 0.00173211 0)
(-0.0178048 0.00170294 0)
(-0.0183019 0.00167114 0)
(-0.0187893 0.00163679 0)
(-0.0192661 0.00159996 0)
(-0.0197317 0.00156075 0)
(-0.0201854 0.00151922 0)
(-0.0206265 0.00147545 0)
(-0.0210544 0.00142953 0)
(-0.0214684 0.00138153 0)
(-0.021868 0.00133154 0)
(-0.0222525 0.00127964 0)
(-0.0226215 0.00122591 0)
(-0.0229744 0.00117044 0)
(-0.0233107 0.0011133 0)
(-0.0236298 0.00105459 0)
(-0.0239315 0.000994376 0)
(-0.0242151 0.000932757 0)
(-0.0244805 0.000869816 0)
(-0.024727 0.000805637 0)
(-0.0249545 0.000740309 0)
(-0.0251625 0.000673919 0)
(-0.0253509 0.000606554 0)
(-0.0255192 0.000538305 0)
(-0.0256673 0.000469259 0)
(-0.025795 0.000399509 0)
(-0.025902 0.000329144 0)
(-0.0259881 0.000258257 0)
(-0.0260534 0.000186941 0)
(-0.0260975 0.000115287 0)
(-0.0261205 4.33915e-05 0)
(-0.0261224 -2.86519e-05 0)
(-0.0261029 -0.000100747 0)
(-0.0260623 -0.000172799 0)
(-0.0260004 -0.000244708 0)
(-0.0259174 -0.000316379 0)