/*--------------------------------*- C++ -*----------------------------------*\
  =========                 |
  \\      /  F ield         | OpenFOAM: The Open Source CFD Toolbox
   \\    /   O peration     | Website:  https://openfoam.org
    \\  /    A nd           | Version:  7
     \\/     M anipulation  |
\*---------------------------------------------------------------------------*/
FoamFile
{
    version     2.0;
    format      ascii;
    class       surfaceScalarField;
    location    "0.2625";
    object      phi;
}
// * * * * * * * * * * * * * * * * * * * * * * * * * * * * * * * * * * * * * //

dimensions      [0 3 -1 0 0 0 0];

internalField   nonuniform List<scalar> 
50880
(
7.48784e-12
-7.48529e-12
2.98703e-11
-2.23846e-11
6.06235e-11
-3.07512e-11
9.04247e-11
-2.97954e-11
1.14246e-10
-2.38192e-11
1.28753e-10
-1.4508e-11
1.3194e-10
-3.18569e-12
1.22668e-10
9.27205e-12
1.00374e-10
2.22943e-11
6.48734e-11
3.55001e-11
1.6245e-11
4.86319e-11
-4.52566e-11
6.15023e-11
-1.19251e-10
7.3994e-11
-2.05273e-10
8.60197e-11
-3.02801e-10
9.75236e-11
-4.11273e-10
1.08475e-10
-5.30113e-10
1.18842e-10
-6.58725e-10
1.28614e-10
-7.96516e-10
1.37791e-10
-9.42891e-10
1.46371e-10
-1.09726e-09
1.54366e-10
-1.25905e-09
1.61788e-10
-1.4277e-09
1.68647e-10
-1.60265e-09
1.74957e-10
-1.78339e-09
1.80734e-10
-1.96939e-09
1.85999e-10
-2.16015e-09
1.9077e-10
-2.35521e-09
1.95061e-10
-2.5541e-09
1.9889e-10
-2.75638e-09
2.0228e-10
-2.96163e-09
2.05245e-10
-3.16943e-09
2.07801e-10
-3.37939e-09
2.09965e-10
-3.59115e-09
2.11754e-10
-3.80433e-09
2.1318e-10
-4.01858e-09
2.14256e-10
-4.23358e-09
2.14999e-10
-4.44901e-09
2.15422e-10
-4.66454e-09
2.15536e-10
-4.8799e-09
2.15353e-10
-5.09478e-09
2.1488e-10
-5.3089e-09
2.14125e-10
-5.52201e-09
2.13101e-10
-5.73382e-09
2.11813e-10
-5.94408e-09
2.10268e-10
-6.15256e-09
2.08471e-10
-6.35898e-09
2.06429e-10
-6.56313e-09
2.04147e-10
-6.76476e-09
2.0163e-10
-6.96364e-09
1.9888e-10
-7.15954e-09
1.95901e-10
-7.35224e-09
1.92698e-10
-7.54152e-09
1.89272e-10
-7.72714e-09
1.85621e-10
-7.90889e-09
1.81749e-10
-8.08655e-09
1.7766e-10
-8.2599e-09
1.73354e-10
-8.42874e-09
1.68832e-10
-8.59283e-09
1.64095e-10
-8.75197e-09
1.59143e-10
-8.90594e-09
1.53974e-10
-9.05453e-09
1.48591e-10
-9.19753e-09
1.42997e-10
-9.33473e-09
1.37195e-10
-9.46591e-09
1.31184e-10
-9.59088e-09
1.24964e-10
-9.70941e-09
1.18537e-10
-9.82132e-09
1.11908e-10
-9.9264e-09
1.05079e-10
-1.00245e-08
9.80525e-11
-1.01153e-08
9.08329e-11
-1.01987e-08
8.3424e-11
-1.02745e-08
7.58297e-11
-1.03426e-08
6.80536e-11
-1.04027e-08
6.01042e-11
-1.04547e-08
5.19902e-11
-1.04984e-08
4.37179e-11
-1.05337e-08
3.52936e-11
-1.05604e-08
2.67244e-11
-1.05784e-08
1.80201e-11
-1.05876e-08
9.19357e-12
-1.05879e-08
2.56383e-13
-1.05791e-08
-8.78058e-12
-1.05612e-08
-1.79049e-11
-1.05341e-08
-2.71042e-11
-1.04977e-08
-3.63646e-11
-1.04521e-08
-4.56689e-11
-1.03971e-08
-5.50009e-11
-1.03327e-08
-6.43451e-11
-1.0259e-08
-7.36849e-11
-1.0176e-08
-8.30035e-11
-1.00838e-08
-9.22819e-11
-9.98226e-09
-1.01499e-10
-9.87162e-09
-1.10633e-10
-9.75196e-09
-1.19667e-10
-9.62337e-09
-1.2858e-10
-9.48602e-09
-1.37351e-10
-9.34006e-09
-1.45959e-10
-9.18568e-09
-1.54381e-10
-9.02308e-09
-1.62597e-10
-8.8525e-09
-1.70583e-10
-8.67418e-09
-1.78317e-10
-8.48841e-09
-1.85775e-10
-8.29547e-09
-1.92936e-10
-8.09569e-09
-1.99781e-10
-7.8894e-09
-2.06288e-10
-7.67697e-09
-2.12436e-10
-7.45877e-09
-2.18202e-10
-7.2352e-09
-2.23567e-10
-7.00669e-09
-2.28509e-10
-6.77368e-09
-2.3301e-10
-6.53663e-09
-2.37056e-10
-6.296e-09
-2.40628e-10
-6.05228e-09
-2.43711e-10
-5.80599e-09
-2.46289e-10
-5.55765e-09
-2.48348e-10
-5.30777e-09
-2.49874e-10
-5.05692e-09
-2.50856e-10
-4.80563e-09
-2.51286e-10
-4.55448e-09
-2.51154e-10
-4.30403e-09
-2.50452e-10
-4.05485e-09
-2.49176e-10
-3.80753e-09
-2.4732e-10
-3.56265e-09
-2.44881e-10
-3.32079e-09
-2.41858e-10
-3.08254e-09
-2.38253e-10
-2.84847e-09
-2.34068e-10
-2.61916e-09
-2.29307e-10
-2.39519e-09
-2.23972e-10
-2.17712e-09
-2.18073e-10
-1.9655e-09
-2.11619e-10
-1.76088e-09
-2.0462e-10
-1.56379e-09
-1.97088e-10
-1.37475e-09
-1.89038e-10
-1.19427e-09
-1.80487e-10
-1.02281e-09
-1.71453e-10
-8.60858e-10
-1.61956e-10
-7.0884e-10
-1.52017e-10
-5.67177e-10
-1.41662e-10
-4.36261e-10
-1.30917e-10
-3.16445e-10
-1.19815e-10
-2.08053e-10
-1.08391e-10
-1.11367e-10
-9.66847e-11
-2.66224e-11
-8.47441e-11
4.59986e-11
-7.26214e-11
1.06375e-10
-6.03768e-11
1.54458e-10
-4.80824e-11
1.90284e-10
-3.58267e-11
2.14e-10
-2.37181e-11
2.25892e-10
-1.18919e-11
2.26415e-10
-5.2101e-13
2.16247e-10
1.01698e-11
1.96364e-10
1.98828e-11
1.68148e-10
2.82157e-11
1.33538e-10
3.46107e-11
9.52476e-11
3.82918e-11
5.70406e-11
3.82082e-11
2.40956e-11
3.29455e-11
3.27948e-12
2.0816e-11
3.27903e-12
2.57395e-11
-3.3227e-11
7.50182e-11
-7.16617e-11
1.31538e-10
-8.72785e-11
1.82625e-10
-8.08856e-11
2.17471e-10
-5.86681e-11
2.28529e-10
-2.55667e-11
2.10648e-10
1.46912e-11
1.6054e-10
5.93822e-11
7.6267e-11
1.06563e-10
-4.30862e-11
1.54854e-10
-1.97706e-10
2.03248e-10
-3.87236e-10
2.51035e-10
-6.10927e-10
2.97693e-10
-8.67753e-10
3.42847e-10
-1.15648e-09
3.86249e-10
-1.47572e-09
4.27714e-10
-1.82401e-09
4.67125e-10
-2.1998e-09
5.0441e-10
-2.60153e-09
5.39524e-10
-3.02761e-09
5.72456e-10
-3.47646e-09
6.03219e-10
-3.94651e-09
6.31835e-10
-4.4362e-09
6.58343e-10
-4.94403e-09
6.82787e-10
-5.46852e-09
7.05219e-10
-6.00822e-09
7.257e-10
-6.56175e-09
7.4429e-10
-7.12774e-09
7.61047e-10
-7.70489e-09
7.7604e-10
-8.29194e-09
7.89329e-10
-8.88767e-09
8.00973e-10
-9.4909e-09
8.11036e-10
-1.01005e-08
8.19578e-10
-1.07154e-08
8.26653e-10
-1.13345e-08
8.32315e-10
-1.19569e-08
8.36618e-10
-1.25815e-08
8.39612e-10
-1.32074e-08
8.41344e-10
-1.38338e-08
8.4186e-10
-1.44596e-08
8.412e-10
-1.50841e-08
8.39398e-10
-1.57065e-08
8.36491e-10
-1.63259e-08
8.32515e-10
-1.69416e-08
8.27496e-10
-1.75528e-08
8.21459e-10
-1.81588e-08
8.14433e-10
-1.87588e-08
8.0644e-10
-1.93521e-08
7.97495e-10
-1.99381e-08
7.87616e-10
-2.0516e-08
7.7682e-10
-2.10853e-08
7.6512e-10
-2.16451e-08
7.52526e-10
-2.21949e-08
7.39049e-10
-2.27339e-08
7.24699e-10
-2.32617e-08
7.09482e-10
-2.37774e-08
6.93402e-10
-2.42805e-08
6.76467e-10
-2.47704e-08
6.58685e-10
-2.52463e-08
6.40059e-10
-2.57078e-08
6.2059e-10
-2.61541e-08
6.00284e-10
-2.65847e-08
5.79148e-10
-2.69989e-08
5.57188e-10
-2.73961e-08
5.34407e-10
-2.77757e-08
5.10812e-10
-2.81371e-08
4.86411e-10
-2.84798e-08
4.61213e-10
-2.88031e-08
4.35228e-10
-2.91065e-08
4.08467e-10
-2.93894e-08
3.80945e-10
-2.96513e-08
3.52678e-10
-2.98915e-08
3.23681e-10
-3.01097e-08
2.93973e-10
-3.03052e-08
2.63576e-10
-3.04776e-08
2.32513e-10
-3.06264e-08
2.00813e-10
-3.07512e-08
1.68504e-10
-3.08515e-08
1.35616e-10
-3.0927e-08
1.02184e-10
-3.09772e-08
6.82471e-11
-3.10019e-08
3.38458e-11
-3.10006e-08
-9.75502e-13
-3.09732e-08
-3.61719e-11
-3.09195e-08
-7.16953e-11
-3.08391e-08
-1.07493e-10
-3.07319e-08
-1.43509e-10
-3.05979e-08
-1.79685e-10
-3.0437e-08
-2.15957e-10
-3.0249e-08
-2.52262e-10
-3.00342e-08
-2.88536e-10
-2.97925e-08
-3.24708e-10
-2.95241e-08
-3.60708e-10
-2.92291e-08
-3.96462e-10
-2.89078e-08
-4.31892e-10
-2.85606e-08
-4.66919e-10
-2.81877e-08
-5.01465e-10
-2.77896e-08
-5.3545e-10
-2.73668e-08
-5.68789e-10
-2.69197e-08
-6.01401e-10
-2.64491e-08
-6.33203e-10
-2.59556e-08
-6.64108e-10
-2.54399e-08
-6.94032e-10
-2.49028e-08
-7.22889e-10
-2.43451e-08
-7.50595e-10
-2.37678e-08
-7.77067e-10
-2.31719e-08
-8.02226e-10
-2.25583e-08
-8.25989e-10
-2.19283e-08
-8.48277e-10
-2.12828e-08
-8.69014e-10
-2.06232e-08
-8.88124e-10
-1.99507e-08
-9.05535e-10
-1.92666e-08
-9.21179e-10
-1.85722e-08
-9.34993e-10
-1.7869e-08
-9.46918e-10
-1.71584e-08
-9.56894e-10
-1.64419e-08
-9.64869e-10
-1.57209e-08
-9.70795e-10
-1.49972e-08
-9.74629e-10
-1.42721e-08
-9.76332e-10
-1.35474e-08
-9.75872e-10
-1.28246e-08
-9.7322e-10
-1.21055e-08
-9.68356e-10
-1.13915e-08
-9.61262e-10
-1.06845e-08
-9.51931e-10
-9.98596e-09
-9.40361e-10
-9.29766e-09
-9.26554e-10
-8.62121e-09
-9.10518e-10
-7.95825e-09
-8.92269e-10
-7.3104e-09
-8.71828e-10
-6.67924e-09
-8.49225e-10
-6.06637e-09
-8.24496e-10
-5.4733e-09
-7.97684e-10
-4.90155e-09
-7.68841e-10
-4.35257e-09
-7.38024e-10
-3.82776e-09
-7.05298e-10
-3.32847e-09
-6.70737e-10
-2.856e-09
-6.34425e-10
-2.41157e-09
-5.96452e-10
-1.99631e-09
-5.5692e-10
-1.61128e-09
-5.15942e-10
-1.25744e-09
-4.7365e-10
-9.3564e-10
-4.30191e-10
-6.46599e-10
-3.85727e-10
-3.90899e-10
-3.40446e-10
-1.68954e-10
-2.94566e-10
1.90093e-11
-2.48338e-10
1.72988e-10
-2.02061e-10
2.93249e-10
-1.56089e-10
3.80383e-10
-1.10853e-10
4.35375e-10
-6.68846e-11
4.597e-10
-2.48459e-11
4.55445e-10
1.44259e-11
4.25468e-10
4.98618e-11
3.73605e-10
8.00808e-11
3.04926e-10
1.03291e-10
2.2602e-10
1.17195e-10
1.45279e-10
1.18948e-10
7.29851e-11
1.05239e-10
2.07788e-11
7.30217e-11
2.40572e-11
3.13806e-11
-6.46056e-11
8.97303e-11
-1.30015e-10
1.50891e-10
-1.48436e-10
1.98376e-10
-1.28371e-10
2.18929e-10
-7.92209e-11
2.02577e-10
-9.21865e-12
1.42172e-10
7.50974e-11
3.28376e-11
1.68715e-10
-1.28482e-10
2.67888e-10
-3.43442e-10
3.69813e-10
-6.12602e-10
4.72406e-10
-9.35694e-10
5.74125e-10
-1.31183e-09
6.7382e-10
-1.73963e-09
7.70651e-10
-2.21738e-09
8.64002e-10
-2.7431e-09
9.53442e-10
-3.31465e-09
1.03867e-09
-3.92972e-09
1.11948e-09
-4.58596e-09
1.19576e-09
-5.28096e-09
1.26745e-09
-6.01228e-09
1.33454e-09
-6.77751e-09
1.39706e-09
-7.57423e-09
1.45507e-09
-8.4001e-09
1.50865e-09
-9.25278e-09
1.5579e-09
-1.013e-08
1.60293e-09
-1.10296e-08
1.64385e-09
-1.19493e-08
1.68079e-09
-1.28871e-08
1.71389e-09
-1.38411e-08
1.74326e-09
-1.48091e-08
1.76903e-09
-1.57894e-08
1.79133e-09
-1.67801e-08
1.81029e-09
-1.77795e-08
1.82602e-09
-1.87858e-08
1.83864e-09
-1.97975e-08
1.84825e-09
-2.08128e-08
1.85497e-09
-2.18304e-08
1.8589e-09
-2.28486e-08
1.86013e-09
-2.38662e-08
1.85874e-09
-2.48816e-08
1.85482e-09
-2.58936e-08
1.84845e-09
-2.69007e-08
1.83969e-09
-2.79018e-08
1.82861e-09
-2.88956e-08
1.81526e-09
-2.98809e-08
1.79971e-09
-3.08565e-08
1.782e-09
-3.18212e-08
1.76217e-09
-3.27738e-08
1.74027e-09
-3.37133e-08
1.71631e-09
-3.46385e-08
1.69035e-09
-3.55484e-08
1.66239e-09
-3.64418e-08
1.63248e-09
-3.73177e-08
1.60061e-09
-3.81751e-08
1.56682e-09
-3.90128e-08
1.53112e-09
-3.98299e-08
1.49353e-09
-4.06252e-08
1.45405e-09
-4.13979e-08
1.4127e-09
-4.21468e-08
1.36949e-09
-4.28709e-08
1.32443e-09
-4.35693e-08
1.27754e-09
-4.4241e-08
1.22883e-09
-4.48849e-08
1.17831e-09
-4.55001e-08
1.126e-09
-4.60856e-08
1.07192e-09
-4.66404e-08
1.01608e-09
-4.71637e-08
9.58523e-10
-4.76545e-08
8.99264e-10
-4.81119e-08
8.38336e-10
-4.8535e-08
7.75774e-10
-4.89229e-08
7.11617e-10
-4.92749e-08
6.45908e-10
-4.959e-08
5.78699e-10
-4.98675e-08
5.10043e-10
-5.01067e-08
4.39998e-10
-5.03068e-08
3.6863e-10
-5.04672e-08
2.9601e-10
-5.05873e-08
2.22213e-10
-5.06663e-08
1.47324e-10
-5.07039e-08
7.14345e-11
-5.06996e-08
-5.35851e-12
-5.06528e-08
-8.29524e-11
-5.05632e-08
-1.61242e-10
-5.04306e-08
-2.40111e-10
-5.02547e-08
-3.19437e-10
-5.00353e-08
-3.9909e-10
-4.97723e-08
-4.78936e-10
-4.94657e-08
-5.58834e-10
-4.91156e-08
-6.38639e-10
-4.87221e-08
-7.18199e-10
-4.82855e-08
-7.97358e-10
-4.7806e-08
-8.75953e-10
-4.72841e-08
-9.5382e-10
-4.67202e-08
-1.03079e-09
-4.6115e-08
-1.10668e-09
-4.54691e-08
-1.18132e-09
-4.47834e-08
-1.25453e-09
-4.40586e-08
-1.32613e-09
-4.32959e-08
-1.39593e-09
-4.24963e-08
-1.46376e-09
-4.16609e-08
-1.52942e-09
-4.0791e-08
-1.59273e-09
-3.98881e-08
-1.65351e-09
-3.89536e-08
-1.71158e-09
-3.79891e-08
-1.76676e-09
-3.69962e-08
-1.81887e-09
-3.59767e-08
-1.86775e-09
-3.49325e-08
-1.91323e-09
-3.38655e-08
-1.95514e-09
-3.27777e-08
-1.99333e-09
-3.16712e-08
-2.02765e-09
-3.05483e-08
-2.05797e-09
-2.9411e-08
-2.08414e-09
-2.82619e-08
-2.10606e-09
-2.71031e-08
-2.1236e-09
-2.59373e-08
-2.13665e-09
-2.47668e-08
-2.14513e-09
-2.35942e-08
-2.14896e-09
-2.2422e-08
-2.14806e-09
-2.12528e-08
-2.14238e-09
-2.00893e-08
-2.13186e-09
-1.89341e-08
-2.11648e-09
-1.77898e-08
-2.09622e-09
-1.66591e-08
-2.07107e-09
-1.55446e-08
-2.04104e-09
-1.44489e-08
-2.00616e-09
-1.33748e-08
-1.96645e-09
-1.23246e-08
-1.92197e-09
-1.13011e-08
-1.87278e-09
-1.03066e-08
-1.81898e-09
-9.34363e-09
-1.76064e-09
-8.41457e-09
-1.6979e-09
-7.52171e-09
-1.63088e-09
-6.66728e-09
-1.55973e-09
-5.8534e-09
-1.48462e-09
-5.08209e-09
-1.40573e-09
-4.35527e-09
-1.32328e-09
-3.6747e-09
-1.23749e-09
-3.04201e-09
-1.14863e-09
-2.45867e-09
-1.05699e-09
-1.92595e-09
-9.62909e-10
-1.44492e-09
-8.66757e-10
-1.01641e-09
-7.68959e-10
-6.40969e-10
-6.70006e-10
-3.18843e-10
-5.70466e-10
-4.98997e-11
-4.71004e-10
1.66423e-10
-3.72411e-10
3.31205e-10
-2.75633e-10
4.46138e-10
-1.81818e-10
5.13659e-10
-9.23676e-11
5.37103e-10
-9.01848e-12
5.20893e-10
6.60731e-11
4.70763e-10
1.30212e-10
3.94009e-10
1.80047e-10
2.99732e-10
2.11472e-10
1.99041e-10
2.19639e-10
1.05082e-10
1.99198e-10
3.28431e-11
1.45259e-10
5.68995e-11
3.03768e-11
-9.49788e-11
8.27944e-11
-1.82435e-10
1.30865e-10
-1.96505e-10
1.55633e-10
-1.53139e-10
1.42321e-10
-6.59108e-11
7.96206e-11
5.34843e-11
-4.08282e-11
1.95541e-10
-2.24906e-10
3.52795e-10
-4.76478e-10
5.19459e-10
-7.97757e-10
6.91094e-10
-1.18965e-09
8.64306e-10
-1.65204e-09
1.03651e-09
-2.18398e-09
1.20576e-09
-2.78391e-09
1.37057e-09
-3.44977e-09
1.52986e-09
-4.17914e-09
1.68282e-09
-4.96935e-09
1.82888e-09
-5.81752e-09
1.96765e-09
-6.72063e-09
2.09887e-09
-7.67559e-09
2.22241e-09
-8.67926e-09
2.33821e-09
-9.72849e-09
2.44629e-09
-1.08201e-08
2.54671e-09
-1.19511e-08
2.63959e-09
-1.31183e-08
2.72508e-09
-1.43187e-08
2.80333e-09
-1.55494e-08
2.87453e-09
-1.68075e-08
2.93889e-09
-1.80902e-08
2.9966e-09
-1.93948e-08
3.04787e-09
-2.07187e-08
3.09291e-09
-2.20593e-08
3.13193e-09
-2.34141e-08
3.16514e-09
-2.47808e-08
3.19272e-09
-2.61571e-08
3.21488e-09
-2.75406e-08
3.2318e-09
-2.89293e-08
3.24366e-09
-3.0321e-08
3.25062e-09
-3.17138e-08
3.25286e-09
-3.31055e-08
3.25051e-09
-3.44944e-08
3.24371e-09
-3.58786e-08
3.23261e-09
-3.72562e-08
3.21731e-09
-3.86255e-08
3.19792e-09
-3.99848e-08
3.17456e-09
-4.13324e-08
3.14731e-09
-4.26667e-08
3.11626e-09
-4.3986e-08
3.08147e-09
-4.52887e-08
3.04303e-09
-4.65734e-08
3.00099e-09
-4.78385e-08
2.95541e-09
-4.90824e-08
2.90632e-09
-5.03037e-08
2.85379e-09
-5.15009e-08
2.79783e-09
-5.26726e-08
2.73849e-09
-5.38173e-08
2.6758e-09
-5.49335e-08
2.60978e-09
-5.602e-08
2.54046e-09
-5.70751e-08
2.46787e-09
-5.80977e-08
2.39202e-09
-5.90862e-08
2.31294e-09
-6.00393e-08
2.23065e-09
-6.09556e-08
2.14518e-09
-6.18339e-08
2.05656e-09
-6.26727e-08
1.96482e-09
-6.34708e-08
1.87e-09
-6.42268e-08
1.77213e-09
-6.49396e-08
1.67126e-09
-6.56077e-08
1.56743e-09
-6.62301e-08
1.46071e-09
-6.68055e-08
1.35116e-09
-6.73327e-08
1.23885e-09
-6.78107e-08
1.12386e-09
-6.82383e-08
1.00627e-09
-6.86144e-08
8.86184e-10
-6.89381e-08
7.63705e-10
-6.92084e-08
6.38948e-10
-6.94245e-08
5.12041e-10
-6.95854e-08
3.83115e-10
-6.96903e-08
2.52318e-10
-6.97387e-08
1.19811e-10
-6.97298e-08
-1.4239e-11
-6.96631e-08
-1.49651e-10
-6.95381e-08
-2.86237e-10
-6.93545e-08
-4.23797e-10
-6.91118e-08
-5.62116e-10
-6.88099e-08
-7.0097e-10
-6.84487e-08
-8.40125e-10
-6.80282e-08
-9.79339e-10
-6.75485e-08
-1.11836e-09
-6.70098e-08
-1.25692e-09
-6.64124e-08
-1.39475e-09
-6.57568e-08
-1.53156e-09
-6.50435e-08
-1.66708e-09
-6.42733e-08
-1.80101e-09
-6.34469e-08
-1.93304e-09
-6.25654e-08
-2.06287e-09
-6.16297e-08
-2.1902e-09
-6.06411e-08
-2.3147e-09
-5.9601e-08
-2.43605e-09
-5.85108e-08
-2.55395e-09
-5.73721e-08
-2.66808e-09
-5.61868e-08
-2.77811e-09
-5.49565e-08
-2.88373e-09
-5.36835e-08
-2.98463e-09
-5.23697e-08
-3.08051e-09
-5.10176e-08
-3.17105e-09
-4.96293e-08
-3.25597e-09
-4.82076e-08
-3.33499e-09
-4.67549e-08
-3.40781e-09
-4.5274e-08
-3.47418e-09
-4.37678e-08
-3.53385e-09
-4.22393e-08
-3.58656e-09
-4.06913e-08
-3.6321e-09
-3.91271e-08
-3.67026e-09
-3.75499e-08
-3.70082e-09
-3.59629e-08
-3.72363e-09
-3.43695e-08
-3.73852e-09
-3.27731e-08
-3.74535e-09
-3.11772e-08
-3.744e-09
-2.95852e-08
-3.73437e-09
-2.80007e-08
-3.71638e-09
-2.64272e-08
-3.68999e-09
-2.48682e-08
-3.65515e-09
-2.33274e-08
-3.61186e-09
-2.18083e-08
-3.56014e-09
-2.03145e-08
-3.50003e-09
-1.88493e-08
-3.4316e-09
-1.74163e-08
-3.35494e-09
-1.60189e-08
-3.27017e-09
-1.46605e-08
-3.17743e-09
-1.33442e-08
-3.0769e-09
-1.20734e-08
-2.96878e-09
-1.08509e-08
-2.85331e-09
-9.67991e-09
-2.73076e-09
-8.5631e-09
-2.60142e-09
-7.50321e-09
-2.46563e-09
-6.50272e-09
-2.32376e-09
-5.56398e-09
-2.17623e-09
-4.68909e-09
-2.02351e-09
-3.87995e-09
-1.86613e-09
-3.13819e-09
-1.70467e-09
-2.46514e-09
-1.5398e-09
-1.86181e-09
-1.37228e-09
-1.32884e-09
-1.20298e-09
-8.66425e-10
-1.03288e-09
-4.7427e-10
-8.63161e-10
-1.51503e-10
-6.9518e-10
1.0342e-10
-5.30556e-10
2.92828e-10
-3.71224e-10
4.19976e-10
-2.19514e-10
4.89207e-10
-7.82496e-11
5.06141e-10
4.91386e-11
4.77879e-10
1.58473e-10
4.13224e-10
2.44702e-10
3.22893e-10
3.01805e-10
2.19719e-10
3.22813e-10
1.18842e-10
3.00074e-10
3.80758e-11
2.26025e-10
9.4975e-11
2.41407e-11
-1.19118e-10
6.03038e-11
-2.18602e-10
8.17974e-11
-2.17998e-10
6.88927e-11
-1.40238e-10
6.2256e-12
-3.2418e-12
-1.18079e-10
1.77787e-10
-3.12945e-10
3.9041e-10
-5.84809e-10
6.24657e-10
-9.38002e-10
8.7265e-10
-1.37511e-09
1.1282e-09
-1.89729e-09
1.38648e-09
-2.50451e-09
1.64374e-09
-3.19583e-09
1.89708e-09
-3.96955e-09
2.14429e-09
-4.82337e-09
2.38368e-09
-5.75454e-09
2.614e-09
-6.75998e-09
2.83432e-09
-7.83633e-09
3.044e-09
-8.98005e-09
3.2426e-09
-1.01875e-08
3.42984e-09
-1.14549e-08
3.60562e-09
-1.27785e-08
3.76988e-09
-1.41545e-08
3.92271e-09
-1.55791e-08
4.06424e-09
-1.70487e-08
4.19464e-09
-1.85595e-08
4.31414e-09
-2.0108e-08
4.423e-09
-2.16906e-08
4.52148e-09
-2.33038e-08
4.60987e-09
-2.49444e-08
4.68847e-09
-2.66091e-08
4.75759e-09
-2.82947e-08
4.81752e-09
-2.99981e-08
4.86856e-09
-3.17164e-08
4.91101e-09
-3.34467e-08
4.94513e-09
-3.51861e-08
4.97122e-09
-3.6932e-08
4.98954e-09
-3.86817e-08
5.00033e-09
-4.04326e-08
5.00383e-09
-4.21824e-08
5.00026e-09
-4.39285e-08
4.98985e-09
-4.56687e-08
4.97277e-09
-4.74006e-08
4.94922e-09
-4.91221e-08
4.91937e-09
-5.08309e-08
4.88336e-09
-5.25249e-08
4.84134e-09
-5.42021e-08
4.79343e-09
-5.58603e-08
4.73976e-09
-5.74977e-08
4.68043e-09
-5.91123e-08
4.61553e-09
-6.0702e-08
4.54515e-09
-6.22651e-08
4.46936e-09
-6.37995e-08
4.38824e-09
-6.53035e-08
4.30183e-09
-6.67752e-08
4.2102e-09
-6.82128e-08
4.11339e-09
-6.96145e-08
4.01146e-09
-7.09785e-08
3.90443e-09
-7.2303e-08
3.79236e-09
-7.35862e-08
3.67529e-09
-7.48265e-08
3.55324e-09
-7.60221e-08
3.42626e-09
-7.71714e-08
3.29441e-09
-7.82725e-08
3.15771e-09
-7.93239e-08
3.01624e-09
-8.0324e-08
2.87003e-09
-8.1271e-08
2.71916e-09
-8.21634e-08
2.5637e-09
-8.29998e-08
2.40374e-09
-8.37784e-08
2.23935e-09
-8.44979e-08
2.07064e-09
-8.51567e-08
1.89773e-09
-8.57536e-08
1.72073e-09
-8.62871e-08
1.53979e-09
-8.6756e-08
1.35505e-09
-8.7159e-08
1.16668e-09
-8.74949e-08
9.74851e-10
-8.77626e-08
7.7977e-10
-8.79611e-08
5.81642e-10
-8.80895e-08
3.80692e-10
-8.81469e-08
1.77166e-10
-8.81324e-08
-2.86776e-11
-8.80455e-08
-2.36564e-10
-8.78855e-08
-4.46199e-10
-8.76521e-08
-6.57274e-10
-8.73447e-08
-8.69464e-10
-8.69633e-08
-1.08243e-09
-8.65076e-08
-1.2958e-09
-8.59777e-08
-1.50922e-09
-8.53738e-08
-1.72229e-09
-8.46961e-08
-1.93461e-09
-8.39451e-08
-2.14577e-09
-8.31213e-08
-2.35534e-09
-8.22255e-08
-2.56289e-09
-8.12585e-08
-2.76795e-09
-8.02215e-08
-2.97008e-09
-7.91155e-08
-3.16882e-09
-7.79421e-08
-3.36367e-09
-7.67026e-08
-3.55419e-09
-7.53988e-08
-3.73987e-09
-7.40325e-08
-3.92024e-09
-7.26058e-08
-4.09481e-09
-7.11208e-08
-4.2631e-09
-6.95798e-08
-4.42465e-09
-6.79855e-08
-4.57896e-09
-6.63404e-08
-4.72558e-09
-6.46474e-08
-4.86405e-09
-6.29095e-08
-4.99393e-09
-6.11297e-08
-5.11477e-09
-5.93113e-08
-5.22617e-09
-5.74578e-08
-5.32771e-09
-5.55727e-08
-5.41901e-09
-5.36595e-08
-5.49971e-09
-5.17221e-08
-5.56947e-09
-4.97644e-08
-5.62795e-09
-4.77904e-08
-5.67488e-09
-4.5804e-08
-5.70998e-09
-4.38095e-08
-5.73301e-09
-4.18111e-08
-5.74376e-09
-3.98131e-08
-5.74206e-09
-3.78197e-08
-5.72774e-09
-3.58354e-08
-5.70071e-09
-3.38645e-08
-5.66087e-09
-3.19115e-08
-5.60819e-09
-2.99807e-08
-5.54266e-09
-2.80765e-08
-5.46431e-09
-2.62033e-08
-5.37321e-09
-2.43655e-08
-5.26946e-09
-2.25672e-08
-5.1532e-09
-2.08127e-08
-5.02464e-09
-1.91061e-08
-4.884e-09
-1.74515e-08
-4.73155e-09
-1.58527e-08
-4.56762e-09
-1.43134e-08
-4.39256e-09
-1.28374e-08
-4.2068e-09
-1.1428e-08
-4.0108e-09
-1.00885e-08
-3.8051e-09
-8.82202e-09
-3.59027e-09
-7.63128e-09
-3.36697e-09
-6.51886e-09
-3.13594e-09
-5.487e-09
-2.89799e-09
-4.53763e-09
-2.65404e-09
-3.67231e-09
-2.40513e-09
-2.89218e-09
-2.15242e-09
-2.1979e-09
-1.89725e-09
-1.58962e-09
-1.64116e-09
-1.06688e-09
-1.3859e-09
-6.2852e-10
-1.13354e-09
-2.72597e-10
-8.86479e-10
3.75028e-12
-6.47571e-10
2.04431e-10
-4.20194e-10
3.34555e-10
-2.08372e-10
4.00609e-10
-1.69131e-11
4.10637e-10
1.48444e-10
3.74444e-10
2.80896e-10
3.03788e-10
3.7246e-10
2.12642e-10
4.13959e-10
1.17532e-10
3.95184e-10
3.82332e-11
3.05323e-10
1.33208e-10
1.47847e-11
-1.33904e-10
2.7112e-11
-2.30931e-10
1.18452e-11
-2.02734e-10
-5.02977e-11
-7.80933e-11
-1.745e-10
1.20954e-10
-3.72587e-10
3.75877e-10
-6.53568e-10
6.71392e-10
-1.02402e-09
9.95114e-10
-1.48846e-09
1.33709e-09
-2.04963e-09
1.68937e-09
-2.70879e-09
2.04564e-09
-3.46596e-09
2.40091e-09
-4.32015e-09
2.75127e-09
-5.26954e-09
3.09368e-09
-6.31165e-09
3.42579e-09
-7.44346e-09
3.7458e-09
-8.66155e-09
4.05241e-09
-9.96217e-09
4.34462e-09
-1.13414e-08
4.62178e-09
-1.2795e-08
4.88345e-09
-1.43187e-08
5.12939e-09
-1.59084e-08
5.35952e-09
-1.75595e-08
5.57387e-09
-1.92679e-08
5.77258e-09
-2.10291e-08
5.95586e-09
-2.28389e-08
6.12398e-09
-2.46932e-08
6.27727e-09
-2.65878e-08
6.41607e-09
-2.85187e-08
6.54075e-09
-3.04819e-08
6.65172e-09
-3.24737e-08
6.74937e-09
-3.44903e-08
6.8341e-09
-3.6528e-08
6.90631e-09
-3.85834e-08
6.9664e-09
-4.0653e-08
7.01474e-09
-4.27335e-08
7.05172e-09
-4.48217e-08
7.0777e-09
-4.69144e-08
7.09301e-09
-4.90085e-08
7.09798e-09
-5.11012e-08
7.09292e-09
-5.31895e-08
7.07813e-09
-5.52705e-08
7.05387e-09
-5.73417e-08
7.0204e-09
-5.94003e-08
6.97795e-09
-6.14437e-08
6.92673e-09
-6.34693e-08
6.86696e-09
-6.54747e-08
6.7988e-09
-6.74573e-08
6.72243e-09
-6.94149e-08
6.63799e-09
-7.1345e-08
6.54561e-09
-7.32453e-08
6.44543e-09
-7.51134e-08
6.33754e-09
-7.69472e-08
6.22205e-09
-7.87445e-08
6.09904e-09
-8.05029e-08
5.96861e-09
-8.22203e-08
5.83081e-09
-8.38945e-08
5.68572e-09
-8.55235e-08
5.5334e-09
-8.71051e-08
5.37391e-09
-8.86371e-08
5.20732e-09
-9.01175e-08
5.03369e-09
-9.15443e-08
4.85307e-09
-9.29155e-08
4.66554e-09
-9.42289e-08
4.47116e-09
-9.54827e-08
4.27003e-09
-9.66749e-08
4.06221e-09
-9.78035e-08
3.84781e-09
-9.88668e-08
3.62694e-09
-9.98627e-08
3.39971e-09
-1.0079e-07
3.16625e-09
-1.01646e-07
2.92672e-09
-1.02429e-07
2.68127e-09
-1.03139e-07
2.43009e-09
-1.03772e-07
2.17337e-09
-1.04328e-07
1.91133e-09
-1.04806e-07
1.6442e-09
-1.05203e-07
1.37225e-09
-1.05519e-07
1.09574e-09
-1.05753e-07
8.1498e-10
-1.05902e-07
5.30295e-10
-1.05967e-07
2.42028e-10
-1.05946e-07
-4.94521e-11
-1.05839e-07
-3.43755e-10
-1.05645e-07
-6.40468e-10
-1.05363e-07
-9.39151e-10
-1.04993e-07
-1.23934e-09
-1.04535e-07
-1.54056e-09
-1.03989e-07
-1.84231e-09
-1.03354e-07
-2.14404e-09
-1.02631e-07
-2.44523e-09
-1.0182e-07
-2.74531e-09
-1.00922e-07
-3.04369e-09
-9.99377e-08
-3.33977e-09
-9.88677e-08
-3.63293e-09
-9.77131e-08
-3.92255e-09
-9.64752e-08
-4.20798e-09
-9.51554e-08
-4.48857e-09
-9.37555e-08
-4.76365e-09
-9.22771e-08
-5.03256e-09
-9.07223e-08
-5.29463e-09
-8.90934e-08
-5.54917e-09
-8.73927e-08
-5.79551e-09
-8.56228e-08
-6.03298e-09
-8.37866e-08
-6.2609e-09
-8.18869e-08
-6.47863e-09
-7.9927e-08
-6.68549e-09
-7.79102e-08
-6.88086e-09
-7.584e-08
-7.06412e-09
-7.37201e-08
-7.23464e-09
-7.15544e-08
-7.39186e-09
-6.93469e-08
-7.5352e-09
-6.71018e-08
-7.66412e-09
-6.48234e-08
-7.77813e-09
-6.25162e-08
-7.87673e-09
-6.01846e-08
-7.95949e-09
-5.78335e-08
-8.02599e-09
-5.54676e-08
-8.07586e-09
-5.30919e-08
-8.10877e-09
-5.07112e-08
-8.12442e-09
-4.83307e-08
-8.12257e-09
-4.59554e-08
-8.10301e-09
-4.35905e-08
-8.06559e-09
-4.12412e-08
-8.0102e-09
-3.89126e-08
-7.93678e-09
-3.661e-08
-7.84533e-09
-3.43384e-08
-7.7359e-09
-3.2103e-08
-7.60858e-09
-2.99089e-08
-7.46354e-09
-2.77611e-08
-7.30099e-09
-2.56646e-08
-7.1212e-09
-2.36241e-08
-6.9245e-09
-2.16443e-08
-6.7113e-09
-1.97299e-08
-6.48204e-09
-1.78852e-08
-6.23727e-09
-1.61144e-08
-5.97758e-09
-1.44216e-08
-5.70364e-09
-1.28105e-08
-5.4162e-09
-1.12846e-08
-5.11613e-09
-9.84723e-09
-4.80435e-09
-8.50126e-09
-4.48191e-09
-7.24926e-09
-4.14999e-09
-6.0934e-09
-3.8099e-09
-5.03542e-09
-3.4631e-09
-4.07658e-09
-3.11127e-09
-3.21755e-09
-2.75628e-09
-2.45844e-09
-2.40027e-09
-1.79863e-09
-2.04571e-09
-1.23673e-09
-1.69543e-09
-7.70477e-10
-1.35274e-09
-3.9659e-10
-1.02146e-09
-1.10678e-10
-7.06105e-10
9.29203e-11
-4.11969e-10
2.21286e-10
-1.45279e-10
2.83086e-10
8.66431e-11
2.88752e-10
2.7523e-10
2.50685e-10
4.10528e-10
1.83541e-10
4.81102e-10
1.04655e-10
4.7407e-10
3.47885e-11
3.75189e-10
1.67998e-10
3.49591e-12
-1.37397e-10
-1.32246e-11
-2.14216e-10
-7.26887e-11
-1.43267e-10
-1.92835e-10
4.20512e-11
-3.87992e-10
3.16112e-10
-6.69467e-10
6.5735e-10
-1.04594e-09
1.04786e-09
-1.52381e-09
1.47299e-09
-2.1075e-09
1.92078e-09
-2.79971e-09
2.38158e-09
-3.60165e-09
2.84758e-09
-4.51331e-09
3.31256e-09
-5.53359e-09
3.77156e-09
-6.66055e-09
4.22064e-09
-7.89151e-09
4.65675e-09
-9.22323e-09
5.07753e-09
-1.0652e-08
5.48117e-09
-1.21737e-08
5.86636e-09
-1.37841e-08
6.23215e-09
-1.54786e-08
6.5779e-09
-1.72524e-08
6.90324e-09
-1.91009e-08
7.20798e-09
-2.10191e-08
7.49213e-09
-2.30024e-08
7.75579e-09
-2.50457e-08
7.99921e-09
-2.71444e-08
8.2227e-09
-2.92938e-08
8.42663e-09
-3.14891e-08
8.61143e-09
-3.3726e-08
8.77757e-09
-3.59998e-08
8.92552e-09
-3.83062e-08
9.0558e-09
-4.0641e-08
9.1689e-09
-4.3e-08
9.26534e-09
-4.53792e-08
9.34562e-09
-4.77747e-08
9.41024e-09
-5.01827e-08
9.45967e-09
-5.25993e-08
9.49437e-09
-5.50211e-08
9.5148e-09
-5.74445e-08
9.52137e-09
-5.98661e-08
9.51449e-09
-6.22825e-08
9.49454e-09
-6.46905e-08
9.46187e-09
-6.7087e-08
9.41682e-09
-6.94687e-08
9.3597e-09
-7.18328e-08
9.29079e-09
-7.41762e-08
9.21036e-09
-7.6496e-08
9.11864e-09
-7.87894e-08
9.01586e-09
-8.10537e-08
8.90221e-09
-8.32859e-08
8.77789e-09
-8.54836e-08
8.64305e-09
-8.76439e-08
8.49784e-09
-8.97642e-08
8.3424e-09
-9.1842e-08
8.17685e-09
-9.38747e-08
8.0013e-09
-9.58598e-08
7.81586e-09
-9.77947e-08
7.62063e-09
-9.9677e-08
7.41568e-09
-1.01504e-07
7.20112e-09
-1.03274e-07
6.97702e-09
-1.04984e-07
6.74348e-09
-1.06631e-07
6.50059e-09
-1.08214e-07
6.24844e-09
-1.0973e-07
5.98714e-09
-1.11177e-07
5.71679e-09
-1.12552e-07
5.43752e-09
-1.13854e-07
5.14947e-09
-1.1508e-07
4.85277e-09
-1.16228e-07
4.5476e-09
-1.17295e-07
4.23414e-09
-1.18281e-07
3.91259e-09
-1.19183e-07
3.58318e-09
-1.19999e-07
3.24614e-09
-1.20728e-07
2.90175e-09
-1.21367e-07
2.5503e-09
-1.21915e-07
2.19211e-09
-1.2237e-07
1.82753e-09
-1.22731e-07
1.45694e-09
-1.22997e-07
1.08073e-09
-1.23166e-07
6.99348e-10
-1.23237e-07
3.13254e-10
-1.23209e-07
-7.70596e-11
-1.23082e-07
-4.71068e-10
-1.22854e-07
-8.68216e-10
-1.22526e-07
-1.26792e-09
-1.22095e-07
-1.66956e-09
-1.21563e-07
-2.07249e-09
-1.2093e-07
-2.47605e-09
-1.20194e-07
-2.87952e-09
-1.19357e-07
-3.28219e-09
-1.18419e-07
-3.6833e-09
-1.17381e-07
-4.08207e-09
-1.16243e-07
-4.4777e-09
-1.15006e-07
-4.86938e-09
-1.13673e-07
-5.25627e-09
-1.12243e-07
-5.63751e-09
-1.1072e-07
-6.01223e-09
-1.09104e-07
-6.37956e-09
-1.07398e-07
-6.73861e-09
-1.05604e-07
-7.08848e-09
-1.03725e-07
-7.42829e-09
-1.01763e-07
-7.75712e-09
-9.97219e-08
-8.0741e-09
-9.76045e-08
-8.37832e-09
-9.54142e-08
-8.66893e-09
-9.31546e-08
-8.94505e-09
-9.08297e-08
-9.20584e-09
-8.84433e-08
-9.45047e-09
-8.59998e-08
-9.67813e-09
-8.35036e-08
-9.88807e-09
-8.09593e-08
-1.00795e-08
-7.83716e-08
-1.02518e-08
-7.57455e-08
-1.04042e-08
-7.30862e-08
-1.05361e-08
-7.03987e-08
-1.06469e-08
-6.76886e-08
-1.07361e-08
-6.49612e-08
-1.08032e-08
-6.22222e-08
-1.08478e-08
-5.94772e-08
-1.08694e-08
-5.6732e-08
-1.08677e-08
-5.39925e-08
-1.08426e-08
-5.12645e-08
-1.07936e-08
-4.85538e-08
-1.07209e-08
-4.58664e-08
-1.06242e-08
-4.32082e-08
-1.05035e-08
-4.05851e-08
-1.0359e-08
-3.80028e-08
-1.01908e-08
-3.54673e-08
-9.99909e-09
-3.29841e-08
-9.78416e-09
-3.05589e-08
-9.5464e-09
-2.81972e-08
-9.28626e-09
-2.59042e-08
-9.00428e-09
-2.36851e-08
-8.70108e-09
-2.1545e-08
-8.37739e-09
-1.94886e-08
-8.03402e-09
-1.75203e-08
-7.67188e-09
-1.56445e-08
-7.292e-09
-1.38651e-08
-6.89553e-09
-1.21857e-08
-6.48372e-09
-1.06096e-08
-6.05801e-09
-9.13966e-09
-5.61997e-09
-7.77819e-09
-5.17136e-09
-6.52713e-09
-4.71416e-09
-5.38782e-09
-4.25058e-09
-4.36099e-09
-3.7831e-09
-3.44669e-09
-3.31457e-09
-2.64419e-09
-2.84821e-09
-1.95194e-09
-2.38769e-09
-1.36741e-09
-1.93726e-09
-8.87049e-10
-1.50182e-09
-5.06127e-10
-1.08703e-09
-2.18621e-10
-6.99477e-10
-1.70743e-11
-3.46828e-10
1.07545e-10
-3.79763e-11
1.66008e-10
2.16768e-10
1.71034e-10
4.05502e-10
1.37571e-10
5.14566e-10
8.32081e-11
5.28433e-10
2.8836e-11
4.2956e-10
1.96834e-10
-8.94307e-12
-1.28454e-10
-5.81729e-11
-1.64988e-10
-1.67096e-10
-3.43478e-11
-3.51682e-10
2.26642e-10
-6.24934e-10
5.89364e-10
-9.97221e-10
1.02964e-09
-1.47657e-09
1.52721e-09
-2.06892e-09
2.06534e-09
-2.77837e-09
2.63024e-09
-3.60739e-09
3.2106e-09
-4.55702e-09
3.79721e-09
-5.62706e-09
4.38261e-09
-6.81628e-09
4.96078e-09
-8.12255e-09
5.52691e-09
-9.54301e-09
6.07721e-09
-1.10742e-08
6.60869e-09
-1.27121e-08
7.11907e-09
-1.44523e-08
7.60663e-09
-1.62903e-08
8.07011e-09
-1.82211e-08
8.50866e-09
-2.02395e-08
8.92171e-09
-2.23405e-08
9.309e-09
-2.45188e-08
9.67043e-09
-2.67692e-08
1.00061e-08
-2.90862e-08
1.03163e-08
-3.14647e-08
1.06012e-08
-3.38996e-08
1.08615e-08
-3.63856e-08
1.10975e-08
-3.89178e-08
1.13097e-08
-4.14912e-08
1.14989e-08
-4.41009e-08
1.16655e-08
-4.67423e-08
1.18103e-08
-4.94107e-08
1.19337e-08
-5.21015e-08
1.20365e-08
-5.48106e-08
1.21192e-08
-5.75334e-08
1.21825e-08
-6.02659e-08
1.22269e-08
-6.3004e-08
1.22529e-08
-6.57437e-08
1.22611e-08
-6.84813e-08
1.2252e-08
-7.12128e-08
1.22261e-08
-7.39347e-08
1.21838e-08
-7.66434e-08
1.21255e-08
-7.93354e-08
1.20517e-08
-8.20072e-08
1.19626e-08
-8.46556e-08
1.18587e-08
-8.72771e-08
1.17402e-08
-8.98686e-08
1.16074e-08
-9.2427e-08
1.14606e-08