/*--------------------------------*- C++ -*----------------------------------*\
  =========                 |
  \\      /  F ield         | OpenFOAM: The Open Source CFD Toolbox
   \\    /   O peration     | Website:  https://openfoam.org
    \\  /    A nd           | Version:  7
     \\/     M anipulation  |
\*---------------------------------------------------------------------------*/
FoamFile
{
    version     2.0;
    format      ascii;
    class       volVectorField;
    location    "0.3375";
    object      U;
}
// * * * * * * * * * * * * * * * * * * * * * * * * * * * * * * * * * * * * * //

dimensions      [0 1 -1 0 0 0 0];

internalField   nonuniform List<vector> 
25600
(
(5.00305e-07 -3.00918e-07 0)
(2.94949e-06 -1.53997e-06 0)
(8.02477e-06 -2.26991e-06 0)
(1.37436e-05 -2.36973e-06 0)
(1.89882e-05 -2.0995e-06 0)
(2.29582e-05 -1.60781e-06 0)
(2.51862e-05 -9.89642e-07 0)
(2.53861e-05 -3.04348e-07 0)
(2.33956e-05 4.09172e-07 0)
(1.91362e-05 1.12715e-06 0)
(1.25906e-05 1.8359e-06 0)
(3.77697e-06 2.52616e-06 0)
(-7.25759e-06 3.19216e-06 0)
(-2.04448e-05 3.83084e-06 0)
(-3.57054e-05 4.43952e-06 0)
(-5.29503e-05 5.01549e-06 0)
(-7.20832e-05 5.55841e-06 0)
(-9.3005e-05 6.06912e-06 0)
(-0.000115615 6.5479e-06 0)
(-0.000139811 6.99477e-06 0)
(-0.000165492 7.41042e-06 0)
(-0.000192558 7.79574e-06 0)
(-0.000220911 8.15162e-06 0)
(-0.000250455 8.47891e-06 0)
(-0.000281097 8.77882e-06 0)
(-0.000312745 9.05254e-06 0)
(-0.000345313 9.30059e-06 0)
(-0.000378715 9.52403e-06 0)
(-0.00041287 9.7243e-06 0)
(-0.0004477 9.90263e-06 0)
(-0.000483128 1.00601e-05 0)
(-0.000519081 1.01971e-05 0)
(-0.000555491 1.03141e-05 0)
(-0.000592289 1.04124e-05 0)
(-0.000629412 1.04931e-05 0)
(-0.000666795 1.05564e-05 0)
(-0.00070438 1.06031e-05 0)
(-0.000742109 1.06341e-05 0)
(-0.000779925 1.06497e-05 0)
(-0.000817775 1.06507e-05 0)
(-0.000855605 1.06376e-05 0)
(-0.000893367 1.06105e-05 0)
(-0.000931009 1.05699e-05 0)
(-0.000968484 1.05161e-05 0)
(-0.00100574 1.04497e-05 0)
(-0.00104274 1.03707e-05 0)
(-0.00107944 1.02793e-05 0)
(-0.00111578 1.01756e-05 0)
(-0.00115173 1.00597e-05 0)
(-0.00118723 9.93183e-06 0)
(-0.00122226 9.79227e-06 0)
(-0.00125677 9.64119e-06 0)
(-0.0012907 9.47849e-06 0)
(-0.00132403 9.30394e-06 0)
(-0.00135671 9.11752e-06 0)
(-0.00138869 8.91942e-06 0)
(-0.00141994 8.7097e-06 0)
(-0.00145041 8.48818e-06 0)
(-0.00148007 8.25477e-06 0)
(-0.00150886 8.00965e-06 0)
(-0.00153675 7.75298e-06 0)
(-0.00156369 7.48466e-06 0)
(-0.00158965 7.20451e-06 0)
(-0.00161458 6.91235e-06 0)
(-0.00163845 6.60831e-06 0)
(-0.0016612 6.29258e-06 0)
(-0.0016828 5.96521e-06 0)
(-0.00170321 5.62639e-06 0)
(-0.00172239 5.27628e-06 0)
(-0.0017403 4.9151e-06 0)
(-0.0017569 4.54304e-06 0)
(-0.00177215 4.16005e-06 0)
(-0.00178603 3.76635e-06 0)
(-0.00179848 3.36232e-06 0)
(-0.00180948 2.94827e-06 0)
(-0.00181899 2.52477e-06 0)
(-0.00182698 2.0924e-06 0)
(-0.00183343 1.65157e-06 0)
(-0.0018383 1.20273e-06 0)
(-0.00184157 7.46241e-07 0)
(-0.00184321 2.82632e-07 0)
(-0.0018432 -1.87162e-07 0)
(-0.00184153 -6.62329e-07 0)
(-0.00183817 -1.14221e-06 0)
(-0.00183312 -1.62597e-06 0)
(-0.00182635 -2.11283e-06 0)
(-0.00181787 -2.60195e-06 0)
(-0.00180767 -3.09228e-06 0)
(-0.00179574 -3.58283e-06 0)
(-0.0017821 -4.0726e-06 0)
(-0.00176674 -4.56037e-06 0)
(-0.00174967 -5.0451e-06 0)
(-0.00173091 -5.52592e-06 0)
(-0.00171048 -6.00167e-06 0)
(-0.0016884 -6.47094e-06 0)
(-0.00166468 -6.93245e-06 0)
(-0.00163937 -7.38494e-06 0)
(-0.0016125 -7.82718e-06 0)
(-0.0015841 -8.25808e-06 0)
(-0.00155422 -8.67642e-06 0)
(-0.00152291 -9.08085e-06 0)
(-0.00149021 -9.47019e-06 0)
(-0.00145618 -9.84327e-06 0)
(-0.00142088 -1.01987e-05 0)
(-0.00138438 -1.0535e-05 0)
(-0.00134674 -1.08513e-05 0)
(-0.00130803 -1.11466e-05 0)
(-0.00126833 -1.14197e-05 0)
(-0.00122773 -1.16695e-05 0)
(-0.00118629 -1.18951e-05 0)
(-0.00114411 -1.20954e-05 0)
(-0.00110128 -1.22695e-05 0)
(-0.00105789 -1.24166e-05 0)
(-0.00101403 -1.25358e-05 0)
(-0.000969804 -1.26266e-05 0)
(-0.000925307 -1.26884e-05 0)
(-0.000880642 -1.27207e-05 0)
(-0.000835912 -1.27229e-05 0)
(-0.000791222 -1.26946e-05 0)
(-0.000746676 -1.26355e-05 0)
(-0.000702381 -1.25457e-05 0)
(-0.000658443 -1.24249e-05 0)
(-0.00061497 -1.22731e-05 0)
(-0.000572067 -1.20904e-05 0)
(-0.00052984 -1.18771e-05 0)
(-0.000488395 -1.16335e-05 0)
(-0.000447836 -1.13597e-05 0)
(-0.000408263 -1.10563e-05 0)
(-0.000369778 -1.07241e-05 0)
(-0.000332479 -1.03637e-05 0)
(-0.00029646 -9.97574e-06 0)
(-0.000261814 -9.56102e-06 0)
(-0.00022863 -9.12073e-06 0)
(-0.000196993 -8.65601e-06 0)
(-0.000166985 -8.16785e-06 0)
(-0.000138682 -7.65733e-06 0)
(-0.000112156 -7.12587e-06 0)
(-8.74734e-05 -6.57512e-06 0)
(-6.46956e-05 -6.00677e-06 0)
(-4.38768e-05 -5.42251e-06 0)
(-2.50649e-05 -4.82422e-06 0)
(-8.30001e-06 -4.21401e-06 0)
(6.38608e-06 -3.59417e-06 0)
(1.89711e-05 -2.96725e-06 0)
(2.94432e-05 -2.33631e-06 0)
(3.78023e-05 -1.70494e-06 0)
(4.40625e-05 -1.07725e-06 0)
(4.82542e-05 -4.5806e-07 0)
(5.0427e-05 1.46556e-07 0)
(5.06539e-05 7.28896e-07 0)
(4.90372e-05 1.27914e-06 0)
(4.57158e-05 1.78433e-06 0)
(4.08752e-05 2.22654e-06 0)
(3.47621e-05 2.58e-06 0)
(2.77067e-05 2.8072e-06 0)
(2.01512e-05 2.85404e-06 0)
(1.26819e-05 2.64491e-06 0)
(6.07241e-06 2.07657e-06 0)
(1.39051e-06 1.05191e-06 0)
(-1.56294e-07 -1.55569e-07 0)
(1.84955e-06 -3.02042e-06 0)
(8.18029e-06 -7.81529e-06 0)
(1.83592e-05 -1.01314e-05 0)
(2.9162e-05 -1.00447e-05 0)
(3.82072e-05 -8.27565e-06 0)
(4.39205e-05 -5.37154e-06 0)
(4.5183e-05 -1.73215e-06 0)
(4.12201e-05 2.35531e-06 0)
(3.1543e-05 6.69103e-06 0)
(1.58765e-05 1.1137e-05 0)
(-5.90523e-06 1.55953e-05 0)
(-3.38117e-05 1.99977e-05 0)
(-6.7767e-05 2.42969e-05 0)
(-0.000107636 2.8459e-05 0)
(-0.000153236 3.24599e-05 0)
(-0.000204353 3.62827e-05 0)
(-0.000260747 3.9917e-05 0)
(-0.000322168 4.33566e-05 0)
(-0.000388351 4.65986e-05 0)
(-0.000459027 4.9642e-05 0)
(-0.000533924 5.24882e-05 0)
(-0.000612772 5.51397e-05 0)
(-0.000695302 5.75998e-05 0)
(-0.000781251 5.98733e-05 0)
(-0.000870359 6.19654e-05 0)
(-0.000962373 6.38816e-05 0)
(-0.00105705 6.5627e-05 0)
(-0.00115414 6.72069e-05 0)
(-0.00125342 6.86282e-05 0)
(-0.00135467 6.98969e-05 0)
(-0.00145767 7.10183e-05 0)
(-0.00156221 7.19976e-05 0)
(-0.00166808 7.28405e-05 0)
(-0.0017751 7.35518e-05 0)
(-0.00188307 7.41368e-05 0)
(-0.00199182 7.46e-05 0)
(-0.00210116 7.49455e-05 0)
(-0.00221093 7.51774e-05 0)
(-0.00232097 7.52997e-05 0)
(-0.00243112 7.5316e-05 0)
(-0.00254121 7.52292e-05 0)
(-0.00265111 7.5042e-05 0)
(-0.00276067 7.47571e-05 0)
(-0.00286973 7.4377e-05 0)
(-0.00297818 7.3904e-05 0)
(-0.00308585 7.33395e-05 0)
(-0.00319264 7.2685e-05 0)
(-0.00329839 7.19419e-05 0)
(-0.00340298 7.11114e-05 0)
(-0.00350629 7.01944e-05 0)
(-0.00360818 6.91917e-05 0)
(-0.00370853 6.8104e-05 0)
(-0.00380721 6.69319e-05 0)
(-0.0039041 6.56756e-05 0)
(-0.00399908 6.43352e-05 0)
(-0.00409202 6.2911e-05 0)
(-0.0041828 6.14033e-05 0)
(-0.00427129 5.98119e-05 0)
(-0.00435737 5.81369e-05 0)
(-0.00444093 5.63787e-05 0)
(-0.00452184 5.45375e-05 0)
(-0.00459998 5.26134e-05 0)
(-0.00467522 5.06065e-05 0)
(-0.00474745 4.85172e-05 0)
(-0.00481655 4.63458e-05 0)
(-0.0048824 4.40932e-05 0)
(-0.00494488 4.176e-05 0)
(-0.00500388 3.93471e-05 0)
(-0.00505928 3.6856e-05 0)
(-0.00511097 3.42878e-05 0)
(-0.00515884 3.16443e-05 0)
(-0.00520279 2.89269e-05 0)
(-0.0052427 2.61375e-05 0)
(-0.00527848 2.32787e-05 0)
(-0.00531003 2.0353e-05 0)
(-0.00533726 1.73633e-05 0)
(-0.00536008 1.43129e-05 0)
(-0.0053784 1.12051e-05 0)
(-0.00539214 8.04376e-06 0)
(-0.00540123 4.83287e-06 0)
(-0.00540562 1.57667e-06 0)
(-0.00540522 -1.71994e-06 0)
(-0.0054 -5.05169e-06 0)
(-0.00538991 -8.41346e-06 0)
(-0.0053749 -1.17997e-05 0)
(-0.00535496 -1.52042e-05 0)
(-0.00533005 -1.8621e-05 0)
(-0.00530018 -2.20434e-05 0)
(-0.00526534 -2.54645e-05 0)
(-0.00522554 -2.88772e-05 0)
(-0.00518079 -3.22742e-05 0)
(-0.00513113 -3.56478e-05 0)
(-0.0050766 -3.89905e-05 0)
(-0.00501725 -4.22945e-05 0)
(-0.00495315 -4.55516e-05 0)
(-0.00488437 -4.87532e-05 0)
(-0.00481099 -5.18911e-05 0)
(-0.00473313 -5.49567e-05 0)
(-0.00465088 -5.79417e-05 0)
(-0.00456438 -6.08376e-05 0)
(-0.00447376 -6.36359e-05 0)
(-0.00437917 -6.63283e-05 0)
(-0.00428076 -6.89065e-05 0)
(-0.00417872 -7.13621e-05 0)
(-0.00407322 -7.3687e-05 0)
(-0.00396445 -7.58732e-05 0)
(-0.00385264 -7.79131e-05 0)
(-0.00373798 -7.97996e-05 0)
(-0.00362071 -8.15254e-05 0)
(-0.00350106 -8.30838e-05 0)
(-0.00337929 -8.44683e-05 0)
(-0.00325564 -8.56731e-05 0)
(-0.00313038 -8.66925e-05 0)
(-0.00300378 -8.75214e-05 0)
(-0.00287612 -8.81552e-05 0)
(-0.00274768 -8.859e-05 0)
(-0.00261875 -8.88222e-05 0)
(-0.00248961 -8.88488e-05 0)
(-0.00236058 -8.86675e-05 0)
(-0.00223195 -8.82764e-05 0)
(-0.00210402 -8.76745e-05 0)
(-0.0019771 -8.68616e-05 0)
(-0.00185148 -8.58375e-05 0)
(-0.00172748 -8.4603e-05 0)
(-0.00160538 -8.31596e-05 0)
(-0.00148549 -8.15095e-05 0)
(-0.00136811 -7.96556e-05 0)
(-0.00125352 -7.76012e-05 0)
(-0.00114201 -7.53507e-05 0)
(-0.00103384 -7.29091e-05 0)
(-0.000929305 -7.0282e-05 0)
(-0.000828647 -6.74755e-05 0)
(-0.000732123 -6.44966e-05 0)
(-0.000639971 -6.13533e-05 0)
(-0.000552419 -5.80542e-05 0)
(-0.000469681 -5.46083e-05 0)
(-0.000391956 -5.10257e-05 0)
(-0.000319428 -4.73176e-05 0)
(-0.000252264 -4.34962e-05 0)
(-0.000190611 -3.95748e-05 0)
(-0.000134595 -3.55678e-05 0)
(-8.43217e-05 -3.14911e-05 0)
(-3.9868e-05 -2.73627e-05 0)
(-1.28466e-06 -2.32025e-05 0)
(3.14099e-05 -1.90332e-05 0)
(5.82336e-05 -1.4881e-05 0)
(7.92458e-05 -1.0776e-05 0)
(9.45541e-05 -6.75431e-06 0)
(0.000104322 -2.85894e-06 0)
(0.000108782 8.57818e-07 0)
(0.000108246 4.3312e-06 0)
(0.000103125 7.4793e-06 0)
(9.39504e-05 1.01971e-05 0)
(8.14037e-05 1.2348e-05 0)
(6.63506e-05 1.37535e-05 0)
(4.98816e-05 1.41822e-05 0)
(3.33273e-05 1.33498e-05 0)
(1.82608e-05 1.09346e-05 0)
(6.70397e-06 6.71187e-06 0)
(1.04795e-06 1.38914e-06 0)
(2.43241e-06 -8.21334e-06 0)
(1.04166e-05 -1.819e-05 0)
(2.23613e-05 -2.20074e-05 0)
(3.39328e-05 -2.07405e-05 0)
(4.21854e-05 -1.56252e-05 0)
(4.5122e-05 -7.73791e-06 0)
(4.12186e-05 2.05204e-06 0)
(2.93714e-05 1.30841e-05 0)
(8.83995e-06 2.48681e-05 0)
(-2.08341e-05 3.70395e-05 0)
(-5.98838e-05 4.93307e-05 0)
(-0.000108372 6.15463e-05 0)
(-0.000166231 7.35411e-05 0)
(-0.000233292 8.521e-05 0)
(-0.000309311 9.64771e-05 0)
(-0.000393987 0.000107287 0)
(-0.000486977 0.000117601 0)
(-0.000587907 0.000127394 0)
(-0.000696386 0.000136653 0)
(-0.000812008 0.000145368 0)
(-0.000934359 0.00015354 0)
(-0.00106302 0.00016117 0)
(-0.00119758 0.000168267 0)
(-0.00133763 0.000174838 0)
(-0.00148276 0.000180898 0)
(-0.00163257 0.000186458 0)
(-0.00178668 0.000191532 0)
(-0.0019447 0.000196135 0)
(-0.00210627 0.000200283 0)
(-0.00227103 0.00020399 0)
(-0.00243863 0.000207272 0)
(-0.00260873 0.000210143 0)
(-0.00278102 0.000212618 0)
(-0.00295517 0.000214711 0)
(-0.00313088 0.000216435 0)
(-0.00330786 0.000217804 0)
(-0.00348583 0.000218828 0)
(-0.00366449 0.00021952 0)
(-0.0038436 0.000219889 0)
(-0.00402289 0.000219946 0)
(-0.0042021 0.0002197 0)
(-0.00438099 0.000219158 0)
(-0.00455932 0.000218327 0)
(-0.00473686 0.000217216 0)
(-0.00491337 0.000215829 0)
(-0.00508864 0.000214172 0)
(-0.00526243 0.000212249 0)
(-0.00543454 0.000210065 0)
(-0.00560475 0.000207623 0)
(-0.00577285 0.000204926 0)
(-0.00593862 0.000201975 0)
(-0.00610187 0.000198774 0)
(-0.00626238 0.000195323 0)
(-0.00641995 0.000191625 0)
(-0.00657438 0.000187679 0)
(-0.00672547 0.000183488 0)
(-0.00687302 0.000179052 0)
(-0.00701681 0.000174371 0)
(-0.00715667 0.000169445 0)
(-0.00729238 0.000164276 0)
(-0.00742375 0.000158865 0)
(-0.00755058 0.000153212 0)
(-0.00767267 0.000147318 0)
(-0.00778984 0.000141185 0)
(-0.00790188 0.000134814 0)
(-0.00800861 0.000128208 0)
(-0.00810984 0.000121369 0)
(-0.00820538 0.000114299 0)
(-0.00829505 0.000107004 0)
(-0.00837866 9.94868e-05 0)
(-0.00845605 9.1752e-05 0)
(-0.00852703 8.38055e-05 0)
(-0.00859145 7.56532e-05 0)
(-0.00864913 6.73022e-05 0)
(-0.00869994 5.87603e-05 0)
(-0.00874371 5.00358e-05 0)
(-0.0087803 4.11382e-05 0)
(-0.00880959 3.20778e-05 0)
(-0.00883145 2.28655e-05 0)
(-0.00884576 1.35133e-05 0)
(-0.00885242 4.03428e-06 0)
(-0.00885134 -5.55797e-06 0)
(-0.00884243 -1.52486e-05 0)
(-0.00882562 -2.50219e-05 0)
(-0.00880086 -3.48618e-05 0)
(-0.00876811 -4.47509e-05 0)
(-0.00872733 -5.46711e-05 0)
(-0.00867851 -6.46035e-05 0)
(-0.00862165 -7.45283e-05 0)
(-0.00855678 -8.44249e-05 0)
(-0.00848391 -9.42724e-05 0)
(-0.00840312 -0.000104049 0)
(-0.00831446 -0.000113732 0)
(-0.00821802 -0.0001233 0)
(-0.00811391 -0.000132728 0)
(-0.00800226 -0.000141993 0)
(-0.0078832 -0.000151071 0)
(-0.0077569 -0.000159938 0)
(-0.00762354 -0.00016857 0)
(-0.00748332 -0.000176942 0)
(-0.00733647 -0.000185031 0)
(-0.00718321 -0.000192811 0)
(-0.00702382 -0.00020026 0)
(-0.00685857 -0.000207354 0)
(-0.00668775 -0.00021407 0)
(-0.00651168 -0.000220385 0)
(-0.00633069 -0.000226277 0)
(-0.00614513 -0.000231726 0)
(-0.00595537 -0.000236712 0)
(-0.00576177 -0.000241215 0)
(-0.00556475 -0.000245217 0)
(-0.0053647 -0.000248701 0)
(-0.00516205 -0.000251652 0)
(-0.00495724 -0.000254054 0)
(-0.0047507 -0.000255896 0)
(-0.00454289 -0.000257165 0)
(-0.00433428 -0.000257852 0)
(-0.00412534 -0.000257948 0)
(-0.00391653 -0.000257447 0)
(-0.00370834 -0.000256344 0)
(-0.00350125 -0.000254636 0)
(-0.00329575 -0.000252321 0)
(-0.00309232 -0.000249401 0)
(-0.00289145 -0.000245878 0)
(-0.0026936 -0.000241756 0)
(-0.00249927 -0.000237042 0)
(-0.00230891 -0.000231745 0)
(-0.00212299 -0.000225874 0)
(-0.00194197 -0.000219442 0)
(-0.00176627 -0.000212463 0)
(-0.00159633 -0.000204956 0)
(-0.00143257 -0.000196937 0)
(-0.00127538 -0.000188427 0)
(-0.00112513 -0.000179451 0)
(-0.000982194 -0.000170032 0)
(-0.000846902 -0.000160199 0)
(-0.000719568 -0.000149981 0)
(-0.000600479 -0.000139413 0)
(-0.000489894 -0.00012853 0)
(-0.000388039 -0.000117372 0)
(-0.000295106 -0.000105981 0)
(-0.000211251 -9.44069e-05 0)
(-0.000136586 -8.27022e-05 0)
(-7.11762e-05 -7.0927e-05 0)
(-1.50361e-05 -5.91489e-05 0)
(3.18799e-05 -4.74449e-05 0)
(6.9684e-05 -3.59046e-05 0)
(9.85654e-05 -2.46323e-05 0)
(0.000118803 -1.37514e-05 0)
(0.000130779 -3.4095e-06 0)
(0.000134999 6.21428e-06 0)
(0.000132113 1.49005e-05 0)
(0.00012294 2.23784e-05 0)
(0.000108502 2.83133e-05 0)
(9.00591e-05 3.2292e-05 0)
(6.91369e-05 3.38173e-05 0)
(4.7522e-05 3.23268e-05 0)
(2.72334e-05 2.72571e-05 0)
(1.09099e-05 1.82615e-05 0)
(2.06627e-06 6.05918e-06 0)
(2.47545e-06 -1.41853e-05 0)
(1.02748e-05 -2.92006e-05 0)
(2.11167e-05 -3.36469e-05 0)
(3.01624e-05 -2.97555e-05 0)
(3.41373e-05 -1.94424e-05 0)
(3.07892e-05 -4.38243e-06 0)
(1.83671e-05 1.4048e-05 0)
(-4.43501e-06 3.47636e-05 0)
(-3.85321e-05 5.6921e-05 0)
(-8.45114e-05 7.98774e-05 0)
(-0.000142699 0.000103144 0)
(-0.000213211 0.00012635 0)
(-0.000295996 0.000149214 0)
(-0.000390872 0.000171528 0)
(-0.000497558 0.000193135 0)
(-0.000615692 0.000213922 0)
(-0.000744851 0.000233806 0)
(-0.000884573 0.00025273 0)
(-0.00103436 0.000270657 0)
(-0.00119369 0.000287567 0)
(-0.00136204 0.00030345 0)
(-0.00153887 0.000318309 0)
(-0.00172363 0.000332149 0)
(-0.00191578 0.000344987 0)
(-0.0021148 0.00035684 0)
(-0.00232015 0.00036773 0)
(-0.00253133 0.000377683 0)
(-0.00274781 0.000386723 0)
(-0.00296912 0.000394878 0)
(-0.00319476 0.000402176 0)
(-0.00342427 0.000408643 0)
(-0.00365721 0.000414307 0)
(-0.00389312 0.000419196 0)
(-0.00413158 0.000423334 0)
(-0.00437219 0.000426747 0)
(-0.00461452 0.000429459 0)
(-0.00485821 0.000431493 0)
(-0.00510286 0.000432869 0)
(-0.00534812 0.000433608 0)
(-0.00559362 0.000433728 0)
(-0.00583901 0.000433247 0)
(-0.00608397 0.00043218 0)
(-0.00632816 0.000430541 0)
(-0.00657125 0.000428343 0)
(-0.00681293 0.000425598 0)
(-0.0070529 0.000422317 0)
(-0.00729083 0.000418507 0)
(-0.00752645 0.000414178 0)
(-0.00775944 0.000409335 0)
(-0.00798952 0.000403986 0)
(-0.00821639 0.000398135 0)
(-0.00843978 0.000391785 0)
(-0.0086594 0.000384941 0)
(-0.00887497 0.000377606 0)
(-0.0090862 0.000369782 0)
(-0.00929283 0.000361471 0)
(-0.00949456 0.000352675 0)
(-0.00969114 0.000343395 0)
(-0.00988228 0.000333634 0)
(-0.0100677 0.000323393 0)
(-0.0102472 0.000312673 0)
(-0.0104204 0.000301478 0)
(-0.0105871 0.00028981 0)
(-0.010747 0.000277671 0)
(-0.0108999 0.000265067 0)
(-0.0110455 0.000252001 0)
(-0.0111835 0.000238479 0)
(-0.0113137 0.000224507 0)
(-0.0114358 0.000210094 0)
(-0.0115496 0.000195247 0)
(-0.0116549 0.000179976 0)
(-0.0117515 0.000164293 0)
(-0.011839 0.000148209 0)
(-0.0119173 0.00013174 0)
(-0.0119862 0.000114901 0)
(-0.0120455 9.77075e-05 0)
(-0.0120949 8.01797e-05 0)
(-0.0121344 6.23373e-05 0)
(-0.0121637 4.42024e-05 0)
(-0.0121827 2.57987e-05 0)
(-0.0121912 7.15178e-06 0)
(-0.0121892 -1.17111e-05 0)
(-0.0121765 -3.07614e-05 0)
(-0.0121531 -4.99683e-05 0)
(-0.0121188 -6.92995e-05 0)
(-0.0120736 -8.87212e-05 0)
(-0.0120175 -0.000108198 0)
(-0.0119505 -0.000127693 0)
(-0.0118725 -0.000147167 0)
(-0.0117836 -0.000166581 0)
(-0.0116838 -0.000185893 0)
(-0.0115733 -0.000205061 0)
(-0.011452 -0.000224041 0)
(-0.0113202 -0.00024279 0)
(-0.011178 -0.000261261 0)
(-0.0110255 -0.000279409 0)
(-0.010863 -0.000297188 0)
(-0.0106906 -0.00031455 0)
(-0.0105087 -0.000331448 0)
(-0.0103175 -0.000347836 0)
(-0.0101172 -0.000363665 0)
(-0.00990831 -0.000378891 0)
(-0.00969106 -0.000393466 0)
(-0.00946587 -0.000407345 0)
(-0.00923313 -0.000420484 0)
(-0.00899326 -0.000432839 0)
(-0.00874672 -0.000444368 0)
(-0.00849398 -0.00045503 0)
(-0.00823554 -0.000464787 0)
(-0.0079719 -0.000473601 0)
(-0.00770359 -0.000481438 0)
(-0.00743119 -0.000488264 0)
(-0.00715524 -0.00049405 0)
(-0.00687634 -0.000498767 0)
(-0.00659509 -0.000502391 0)
(-0.00631209 -0.000504899 0)
(-0.00602798 -0.000506273 0)
(-0.00574338 -0.000506496 0)
(-0.00545894 -0.000505557 0)
(-0.0051753 -0.000503445 0)
(-0.00489311 -0.000500156 0)
(-0.00461303 -0.000495688 0)
(-0.0043357 -0.000490041 0)
(-0.00406177 -0.000483222 0)
(-0.0037919 -0.000475239 0)
(-0.00352671 -0.000466105 0)
(-0.00326684 -0.000455837 0)
(-0.0030129 -0.000444456 0)
(-0.00276551 -0.000431987 0)
(-0.00252525 -0.000418458 0)
(-0.0022927 -0.000403903 0)
(-0.00206841 -0.000388358 0)
(-0.00185291 -0.000371865 0)
(-0.00164671 -0.00035447 0)
(-0.00145028 -0.000336223 0)
(-0.00126407 -0.000317178 0)
(-0.0010885 -0.000297398 0)
(-0.000923938 -0.000276947 0)
(-0.000770733 -0.000255897 0)
(-0.000629176 -0.000234329 0)
(-0.000499514 -0.000212328 0)
(-0.000381943 -0.000189991 0)
(-0.000276602 -0.000167423 0)
(-0.000183563 -0.000144744 0)
(-0.000102831 -0.000122087 0)
(-3.43274e-05 -9.96054e-05 0)
(2.2112e-05 -7.74724e-05 0)
(6.67554e-05 -5.58903e-05 0)
(9.99863e-05 -3.50949e-05 0)
(0.000122321 -1.53647e-05 0)
(0.000134427 2.96887e-06 0)
(0.00013715 1.95088e-05 0)
(0.000131534 3.37784e-05 0)
(0.000118854 4.52056e-05 0)
(0.000100644 5.31109e-05 0)
(7.87213e-05 5.67082e-05 0)
(5.51715e-05 5.51367e-05 0)
(3.23239e-05 4.75471e-05 0)
(1.33197e-05 3.33168e-05 0)
(2.62848e-06 1.2646e-05 0)
(2.16689e-06 -1.95186e-05 0)
(8.45889e-06 -3.84315e-05 0)
(1.59839e-05 -4.20303e-05 0)
(1.98998e-05 -3.37751e-05 0)
(1.68232e-05 -1.63521e-05 0)
(4.37833e-06 7.95324e-06 0)
(-1.92951e-05 3.7249e-05 0)
(-5.5613e-05 7.00057e-05 0)
(-0.000105586 0.000105014 0)
(-0.000169884 0.000141324 0)
(-0.000248895 0.000178196 0)
(-0.000342776 0.000215056 0)
(-0.00045149 0.000251463 0)
(-0.000574851 0.000287077 0)
(-0.000712548 0.000321641 0)
(-0.000864176 0.000354964 0)
(-0.00102926 0.000386904 0)
(-0.00120725 0.000417361 0)
(-0.00139758 0.000446265 0)
(-0.00159962 0.000473575 0)
(-0.00181277 0.000499267 0)
(-0.00203636 0.000523336 0)
(-0.00226975 0.000545789 0)
(-0.00251229 0.000566642 0)
(-0.00276333 0.000585919 0)
(-0.00302223 0.000603652 0)
(-0.00328836 0.000619876 0)
(-0.00356111 0.000634628 0)
(-0.00383986 0.000647949 0)
(-0.00412402 0.000659881 0)
(-0.00441302 0.000670465 0)
(-0.00470629 0.000679743 0)
(-0.00500328 0.000687756 0)
(-0.00530348 0.000694546 0)
(-0.00560634 0.00070015 0)
(-0.00591139 0.000704606 0)
(-0.00621812 0.000707949 0)
(-0.00652607 0.000710214 0)
(-0.00683476 0.000711432 0)
(-0.00714376 0.000711632 0)
(-0.00745263 0.000710842 0)
(-0.00776093 0.000709086 0)
(-0.00806825 0.000706388 0)
(-0.00837419 0.000702769 0)
(-0.00867833 0.000698247 0)
(-0.0089803 0.000692838 0)
(-0.0092797 0.000686559 0)
(-0.00957615 0.000679421 0)
(-0.00986928 0.000671436 0)
(-0.0101587 0.000662614 0)
(-0.0104441 0.000652965 0)
(-0.0107251 0.000642494 0)
(-0.0110012 0.000631208 0)
(-0.0112723 0.000619112 0)
(-0.0115379 0.000606212 0)
(-0.0117976 0.00059251 0)
(-0.0120511 0.000578011 0)
(-0.0122981 0.000562717 0)
(-0.0125383 0.000546632 0)
(-0.0127712 0.000529761 0)
(-0.0129965 0.000512105 0)
(-0.013214 0.000493671 0)
(-0.0134232 0.000474463 0)
(-0.0136238 0.000454486 0)
(-0.0138156 0.000433748 0)
(-0.0139981 0.000412257 0)
(-0.0141711 0.000390023 0)
(-0.0143343 0.000367057 0)
(-0.0144873 0.000343372 0)
(-0.0146298 0.000318982 0)
(-0.0147615 0.000293904 0)
(-0.0148822 0.000268157 0)
(-0.0149916 0.000241762 0)
(-0.0150894 0.000214743 0)
(-0.0151753 0.000187124 0)
(-0.0152491 0.000158935 0)
(-0.0153106 0.000130206 0)
(-0.0153595 0.000100971 0)
(-0.0153957 7.12662e-05 0)
(-0.015419 4.11304e-05 0)
(-0.0154291 1.06055e-05 0)
(-0.015426 -2.02638e-05 0)
(-0.0154095 -5.14304e-05 0)
(-0.0153796 -8.28444e-05 0)
(-0.015336 -0.000114453 0)
(-0.0152788 -0.000146201 0)
(-0.0152079 -0.00017803 0)
(-0.0151233 -0.00020988 0)
(-0.015025 -0.000241688 0)
(-0.0149131 -0.000273391 0)
(-0.0147876 -0.000304919 0)
(-0.0146486 -0.000336206 0)
(-0.0144963 -0.00036718 0)
(-0.0143307 -0.000397769 0)
(-0.0141522 -0.0004279 0)
(-0.0139608 -0.000457499 0)
(-0.0137569 -0.00048649 0)
(-0.0135407 -0.000514797 0)
(-0.0133126 -0.000542345 0)
(-0.0130728 -0.000569056 0)
(-0.0128219 -0.000594856 0)
(-0.01256 -0.000619669 0)
(-0.0122878 -0.000643421 0)
(-0.0120057 -0.000666037 0)
(-0.0117142 -0.000687447 0)
(-0.0114138 -0.00070758 0)
(-0.011105 -0.000726369 0)
(-0.0107885 -0.000743747 0)
(-0.0104649 -0.000759653 0)
(-0.0101348 -0.000774026 0)
(-0.00979887 -0.00078681 0)
(-0.0094578 -0.000797953 0)
(-0.00911229 -0.000807405 0)
(-0.00876308 -0.000815123 0)
(-0.0084109 -0.000821066 0)
(-0.00805653 -0.000825199 0)
(-0.00770072 -0.000827491 0)
(-0.00734426 -0.000827917 0)
(-0.00698795 -0.000826457 0)
(-0.00663258 -0.000823097 0)
(-0.00627897 -0.000817828 0)
(-0.00592791 -0.000810647 0)
(-0.00558022 -0.000801557 0)
(-0.0052367 -0.000790567 0)
(-0.00489813 -0.000777693 0)
(-0.00456533 -0.000762956 0)
(-0.00423905 -0.000746384 0)
(-0.00392007 -0.000728011 0)
(-0.00360914 -0.000707879 0)
(-0.00330697 -0.000686035 0)
(-0.00301429 -0.000662533 0)
(-0.00273176 -0.000637434 0)
(-0.00246005 -0.000610807 0)
(-0.00219977 -0.000582727 0)
(-0.0019515 -0.000553278 0)
(-0.0017158 -0.000522551 0)
(-0.00149317 -0.000490646 0)
(-0.00128407 -0.000457672 0)
(-0.00108891 -0.000423747 0)
(-0.000908049 -0.000389004 0)
(-0.000741771 -0.000353585 0)
(-0.000590312 -0.000317648 0)
(-0.000453828 -0.000281367 0)
(-0.000332397 -0.000244939 0)
(-0.00022601 -0.000208581 0)
(-0.00013456 -0.00017254 0)
(-5.78319e-05 -0.000137096 0)
(4.51237e-06 -0.000102572 0)
(5.29459e-05 -6.93393e-05 0)
(8.80961e-05 -3.78322e-05 0)
(0.000110764 -8.55814e-06 0)
(0.000121944 1.78861e-05 0)
(0.000122851 4.07981e-05 0)
(0.000114941 5.93542e-05 0)
(9.99379e-05 7.25991e-05 0)
(7.98608e-05 7.94496e-05 0)
(5.70037e-05 7.87258e-05 0)
(3.3937e-05 6.92277e-05 0)
(1.41818e-05 4.98926e-05 0)
(2.83623e-06 2.00929e-05 0)
(1.65847e-06 -2.35625e-05 0)
(5.53505e-06 -4.43283e-05 0)
(8.08627e-06 -4.51182e-05 0)
(4.8415e-06 -3.05045e-05 0)
(-7.48053e-06 -3.92909e-06 0)
(-3.12727e-05 3.17195e-05 0)
(-6.84227e-05 7.4034e-05 0)
(-0.000120374 0.000121053 0)
(-0.000188171 0.000171194 0)
(-0.000272523 0.000223192 0)
(-0.000373847 0.000276042 0)
(-0.000492316 0.000328951 0)
(-0.000627905 0.000381297 0)
(-0.000780415 0.000432595 0)
(-0.000949517 0.000482471 0)
(-0.00113477 0.00053064 0)
(-0.00133564 0.000576888 0)
(-0.00155154 0.000621059 0)
(-0.00178181 0.000663043 0)
(-0.00202577 0.000702769 0)
(-0.0022827 0.000740193 0)
(-0.00255188 0.000775299 0)
(-0.00283256 0.000808088 0)
(-0.00312399 0.000838576 0)
(-0.00342542 0.000866793 0)
(-0.00373612 0.000892775 0)
(-0.00405535 0.00091657 0)
(-0.00438239 0.000938226 0)
(-0.00471653 0.000957799 0)
(-0.00505708 0.000975345 0)
(-0.00540335 0.00099092 0)
(-0.0057547 0.00100458 0)
(-0.00611046 0.00101639 0)
(-0.00647001 0.0010264 0)
(-0.00683275 0.00103467 0)
(-0.00719806 0.00104124 0)
(-0.00756538 0.00104618 0)
(-0.00793413 0.00104952 0)
(-0.00830377 0.00105131 0)
(-0.00867376 0.0010516 0)
(-0.00904357 0.00105042 0)
(-0.00941269 0.00104781 0)
(-0.00978062 0.00104381 0)
(-0.0101469 0.00103843 0)
(-0.010511 0.00103172 0)
(-0.0108724 0.00102369 0)
(-0.0112308 0.00101436 0)
(-0.0115856 0.00100377 0)
(-0.0119364 0.00099191 0)
(-0.0122828 0.000978812 0)
(-0.0126242 0.000964484 0)
(-0.0129604 0.000948938 0)
(-0.0132907 0.000932183 0)
(-0.0136149 0.000914228 0)
(-0.0139325 0.000895079 0)
(-0.0142431 0.000874745 0)
(-0.0145462 0.000853229 0)
(-0.0148415 0.000830539 0)
(-0.0151285 0.00080668 0)
(-0.0154068 0.000781658 0)
(-0.015676 0.00075548 0)
(-0.0159357 0.000728152 0)
(-0.0161855 0.000699685 0)
(-0.016425 0.000670086 0)
(-0.0166539 0.000639368 0)
(-0.0168717 0.000607543 0)
(-0.017078 0.000574627 0)
(-0.0172725 0.000540636 0)
(-0.0174548 0.000505591 0)
(-0.0176246 0.000469514 0)
(-0.0177815 0.00043243 0)
(-0.0179252 0.000394369 0)
(-0.0180552 0.000355361 0)
(-0.0181715 0.000315441 0)
(-0.0182735 0.000274649 0)
(-0.018361 0.000233026 0)
(-0.0184339 0.000190618 0)
(-0.0184917 0.000147476 0)
(-0.0185343 0.000103653 0)
(-0.0185614 5.92069e-05 0)
(-0.0185729 1.41993e-05 0)
(-0.0185686 -3.1304e-05 0)
(-0.0185483 -7.72332e-05 0)
(-0.018512 -0.000123515 0)
(-0.0184594 -0.000170071 0)
(-0.0183906 -0.000216821 0)
(-0.0183055 -0.000263679 0)
(-0.018204 -0.000310558 0)
(-0.0180863 -0.000357364 0)
(-0.0179523 -0.000404004 0)
(-0.0178022 -0.000450379 0)
(-0.0176361 -0.000496389 0)
(-0.017454 -0.000541931 0)
(-0.0172563 -0.000586898 0)
(-0.017043 -0.000631185 0)
(-0.0168146 -0.000674683 0)
(-0.0165713 -0.000717281 0)
(-0.0163133 -0.00075887 0)
(-0.0160412 -0.000799338 0)
(-0.0157553 -0.000838574 0)
(-0.015456 -0.000876467 0)
(-0.0151439 -0.00091291 0)
(-0.0148194 -0.000947791 0)
(-0.0144831 -0.000981006 0)
(-0.0141357 -0.00101245 0)
(-0.0137777 -0.00104202 0)
(-0.0134098 -0.00106962 0)
(-0.0130327 -0.00109515 0)
(-0.0126471 -0.00111852 0)
(-0.0122538 -0.00113965 0)
(-0.0118536 -0.00115845 0)
(-0.0114472 -0.00117485 0)
(-0.0110356 -0.00118878 0)
(-0.0106195 -0.00120016 0)
(-0.0101999 -0.00120895 0)
(-0.00977756 -0.0012151 0)
(-0.0093535 -0.00121855 0)
(-0.00892862 -0.00121927 0)
(-0.00850385 -0.00121724 0)
(-0.00808013 -0.00121243 0)
(-0.00765841 -0.00120484 0)
(-0.00723965 -0.00119445 0)
(-0.00682478 -0.00118127 0)
(-0.00641476 -0.00116532 0)
(-0.00601052 -0.00114662 0)
(-0.00561299 -0.0011252 0)
(-0.0052231 -0.0011011 0)
(-0.00484172 -0.00107438 0)
(-0.00446976 -0.00104509 0)
(-0.00410805 -0.00101331 0)
(-0.00375743 -0.000979122 0)
(-0.00341869 -0.000942606 0)
(-0.00309261 -0.00090387 0)
(-0.0027799 -0.000863024 0)
(-0.00248124 -0.000820194 0)
(-0.00219728 -0.000775514 0)
(-0.00192861 -0.000729133 0)
(-0.00167575 -0.000681212 0)
(-0.00143919 -0.000631929 0)
(-0.00121931 -0.000581478 0)
(-0.00101647 -0.000530069 0)
(-0.000830926 -0.000477938 0)
(-0.000662843 -0.000425341 0)
(-0.000512306 -0.000372564 0)
(-0.000379293 -0.000319926 0)
(-0.000263671 -0.000267784 0)
(-0.000165182 -0.000216544 0)
(-8.3432e-05 -0.000166666 0)
(-1.78729e-05 -0.000118675 0)
(3.22108e-05 -7.31771e-05 0)
(6.77212e-05 -3.0872e-05 0)
(8.97675e-05 7.43038e-06 0)
(9.96855e-05 4.07922e-05 0)
(9.90589e-05 6.81314e-05 0)
(8.97442e-05 8.8212e-05 0)
(7.38972e-05 9.96438e-05 0)
(5.39615e-05 0.000100903 0)
(3.26892e-05 9.03824e-05 0)
(1.38392e-05 6.64802e-05 0)
(2.79706e-06 2.76498e-05 0)
(1.0359e-06 -2.58672e-05 0)
(1.89044e-06 -4.57604e-05 0)
(-1.7375e-06 -4.13558e-05 0)
(-1.36771e-05 -1.81349e-05 0)
(-3.69475e-05 1.97694e-05 0)
(-7.38755e-05 6.88946e-05 0)
(-0.000126294 0.000126349 0)
(-0.000195611 0.000189753 0)
(-0.000282857 0.000257161 0)
(-0.000388735 0.000326996 0)
(-0.000513658 0.000397984 0)
(-0.000657798 0.000469106 0)
(-0.000821121 0.00053955 0)
(-0.00100341 0.000608674 0)
(-0.00120432 0.000675976 0)
(-0.00142337 0.000741066 0)
(-0.00165999 0.000803649 0)
(-0.00191353 0.000863503 0)
(-0.00218329 0.00092047 0)
(-0.00246851 0.00097444 0)
(-0.00276841 0.00102535 0)
(-0.00308218 0.00107315 0)
(-0.00340899 0.00111785 0)
(-0.00374801 0.00115946 0)
(-0.00409841 0.00119801 0)
(-0.00445936 0.00123354 0)
(-0.00483003 0.0012661 0)
(-0.00520961 0.00129576 0)
(-0.0055973 0.00132259 0)
(-0.00599232 0.00134666 0)
(-0.00639388 0.00136803 0)
(-0.00680125 0.0013868 0)
(-0.00721367 0.00140302 0)
(-0.00763043 0.00141678 0)
(-0.00805083 0.00142815 0)
(-0.00847418 0.00143718 0)
(-0.00889982 0.00144397 0)
(-0.0093271 0.00144855 0)
(-0.00975537 0.001451 0)
(-0.010184 0.00145137 0)
(-0.0106124 0.00144972 0)
(-0.01104 0.00144609 0)
(-0.0114662 0.00144052 0)
(-0.0118905 0.00143306 0)
(-0.0123122 0.00142374 0)
(-0.0127308 0.00141261 0)
(-0.0131458 0.00139968 0)
(-0.0135567 0.00138498 0)
(-0.0139629 0.00136854 0)
(-0.0143639 0.00135038 0)
(-0.0147592 0.00133052 0)
(-0.0151483 0.00130897 0)
(-0.0155306 0.00128575 0)
(-0.0159058 0.00126086 0)
(-0.0162733 0.00123433 0)
(-0.0166326 0.00120615 0)
(-0.0169833 0.00117634 0)
(-0.0173248 0.00114491 0)
(-0.0176566 0.00111187 0)
(-0.0179784 0.00107723 0)
(-0.0182896 0.00104099 0)
(-0.0185898 0.00100317 0)
(-0.0188784 0.000963776 0)
(-0.0191551 0.000922831 0)
(-0.0194194 0.000880346 0)
(-0.0196709 0.000836343 0)
(-0.0199091 0.000790842 0)
(-0.0201335 0.000743869 0)
(-0.0203438 0.000695451 0)
(-0.0205396 0.000645622 0)
(-0.0207204 0.000594415 0)
(-0.0208859 0.000541873 0)
(-0.0210357 0.000488039 0)
(-0.0211695 0.000432962 0)
(-0.0212868 0.000376697 0)
(-0.0213874 0.000319301 0)
(-0.0214709 0.000260839 0)
(-0.0215371 0.00020138 0)
(-0.0215857 0.000140999 0)
(-0.0216164 7.97744e-05 0)
(-0.0216291 1.77928e-05 0)
(-0.0216235 -4.48557e-05 0)
(-0.0215995 -0.000108075 0)