0.05 	0.0003125 	0.005 	0.00736841
0.05 	0.0009375 	0.005 	0.00738441
0.05 	0.0015625 	0.005 	0.00739714
0.05 	0.0021875 	0.005 	0.00740758
0.05 	0.0028125 	0.005 	0.00741687
0.05 	0.0034375 	0.005 	0.00742494
0.05 	0.0040625 	0.005 	0.00743167
0.05 	0.0046875 	0.005 	0.00743703
0.05 	0.0053125 	0.005 	0.00744098
0.05 	0.0059375 	0.005 	0.00744347
0.05 	0.0065625 	0.005 	0.00744444
0.05 	0.0071875 	0.005 	0.00744378
0.05 	0.0078125 	0.005 	0.0074414
0.05 	0.0084375 	0.005 	0.00743717
0.05 	0.0090625 	0.005 	0.00743098
0.05 	0.0096875 	0.005 	0.00742272
0.05 	0.0103125 	0.005 	0.00741231
0.05 	0.0109375 	0.005 	0.00739964
0.05 	0.0115625 	0.005 	0.00738462
0.05 	0.0121875 	0.005 	0.00736711
0.05 	0.0128125 	0.005 	0.00734699
0.05 	0.0134375 	0.005 	0.00732407
0.05 	0.0140625 	0.005 	0.00729818
0.05 	0.0146875 	0.005 	0.0072691
0.05 	0.0153125 	0.005 	0.00723662
0.05 	0.0159375 	0.005 	0.00720055
0.05 	0.0165625 	0.005 	0.0071607
0.05 	0.0171875 	0.005 	0.00711686
0.05 	0.0178125 	0.005 	0.00706885
0.05 	0.0184375 	0.005 	0.00701642
0.05 	0.0190625 	0.005 	0.00695932
0.05 	0.0196875 	0.005 	0.00689727
0.05 	0.0203125 	0.005 	0.00682998
0.05 	0.0209375 	0.005 	0.00675714
0.05 	0.0215625 	0.005 	0.00667845
0.05 	0.0221875 	0.005 	0.00659364
0.05 	0.0228125 	0.005 	0.00650239
0.05 	0.0234375 	0.005 	0.00640439
0.05 	0.0240625 	0.005 	0.00629927
0.05 	0.0246875 	0.005 	0.00618664
0.05 	0.0253125 	0.005 	0.00606606
0.05 	0.0259375 	0.005 	0.00593711
0.05 	0.0265625 	0.005 	0.00579933
0.05 	0.0271875 	0.005 	0.00565227
0.05 	0.0278125 	0.005 	0.00549548
0.05 	0.0284375 	0.005 	0.00532846
0.05 	0.0290625 	0.005 	0.00515067
0.05 	0.0296875 	0.005 	0.00496155
0.05 	0.0303125 	0.005 	0.00476047
0.05 	0.0309375 	0.005 	0.00454683
0.05 	0.0315625 	0.005 	0.00432
0.05 	0.0321875 	0.005 	0.00407937
0.05 	0.0328125 	0.005 	0.0038243
0.05 	0.0334375 	0.005 	0.00355409
0.05 	0.0340625 	0.005 	0.00326802
0.05 	0.0346875 	0.005 	0.00296533
0.05 	0.0353125 	0.005 	0.00264524
0.05 	0.0359375 	0.005 	0.00230699
0.05 	0.0365625 	0.005 	0.00194977
0.05 	0.0371875 	0.005 	0.00157277
0.05 	0.0378125 	0.005 	0.00117516
0.05 	0.0384375 	0.005 	0.000756057
0.05 	0.0390625 	0.005 	0.000314597
0.05 	0.0396875 	0.005 	-0.000150081
0.05 	0.0403125 	0.005 	-0.000638831
0.05 	0.0409375 	0.005 	-0.00115251
0.05 	0.0415625 	0.005 	-0.001692
0.05 	0.0421875 	0.005 	-0.0022582
0.05 	0.0428125 	0.005 	-0.002852
0.05 	0.0434375 	0.005 	-0.00347425
0.05 	0.0440625 	0.005 	-0.0041258
0.05 	0.0446875 	0.005 	-0.00480742
0.05 	0.0453125 	0.005 	-0.00551991
0.05 	0.0459375 	0.005 	-0.00626402
0.05 	0.0465625 	0.005 	-0.00704049
0.05 	0.0471875 	0.005 	-0.00784999
0.05 	0.0478125 	0.005 	-0.00869311
0.05 	0.0484375 	0.005 	-0.00957039
0.05 	0.0490625 	0.005 	-0.0104823
0.05 	0.0496875 	0.005 	-0.0114293
0.05 	0.0503125 	0.005 	-0.0124118
0.05 	0.0509375 	0.005 	-0.0134298
0.05 	0.0515625 	0.005 	-0.0144836
0.05 	0.0521875 	0.005 	-0.0155732
0.05 	0.0528125 	0.005 	-0.0166985
0.05 	0.0534375 	0.005 	-0.0178593
0.05 	0.0540625 	0.005 	-0.0190553
0.05 	0.0546875 	0.005 	-0.020286
0.05 	0.0553125 	0.005 	-0.0215507
0.05 	0.0559375 	0.005 	-0.0228487
0.05 	0.0565625 	0.005 	-0.0241791
0.05 	0.0571875 	0.005 	-0.0255407
0.05 	0.0578125 	0.005 	-0.0269322
0.05 	0.0584375 	0.005 	-0.0283522
0.05 	0.0590625 	0.005 	-0.029799
0.05 	0.0596875 	0.005 	-0.0312708
0.05 	0.0603125 	0.005 	-0.0327656
0.05 	0.0609375 	0.005 	-0.0342812
0.05 	0.0615625 	0.005 	-0.0358152
0.05 	0.0621875 	0.005 	-0.037365
0.05 	0.0628125 	0.005 	-0.0389277
0.05 	0.0634375 	0.005 	-0.0405005
0.05 	0.0640625 	0.005 	-0.0420802
0.05 	0.0646875 	0.005 	-0.0436635
0.05 	0.0653125 	0.005 	-0.0452469
0.05 	0.0659375 	0.005 	-0.0468268
0.05 	0.0665625 	0.005 	-0.0483995
0.05 	0.0671875 	0.005 	-0.049961
0.05 	0.0678125 	0.005 	-0.0515075
0.05 	0.0684375 	0.005 	-0.0530347
0.05 	0.0690625 	0.005 	-0.0545386
0.05 	0.0696875 	0.005 	-0.0560149
0.05 	0.0703125 	0.005 	-0.0574594
0.05 	0.0709375 	0.005 	-0.0588678
0.05 	0.0715625 	0.005 	-0.0602357
0.05 	0.0721875 	0.005 	-0.0615589
0.05 	0.0728125 	0.005 	-0.0628333
0.05 	0.0734375 	0.005 	-0.0640547
0.05 	0.0740625 	0.005 	-0.065219
0.05 	0.0746875 	0.005 	-0.0663224
0.05 	0.0753125 	0.005 	-0.0673611
0.05 	0.0759375 	0.005 	-0.0683315
0.05 	0.0765625 	0.005 	-0.0692304
0.05 	0.0771875 	0.005 	-0.0700547
0.05 	0.0778125 	0.005 	-0.0708014
0.05 	0.0784375 	0.005 	-0.071468
0.05 	0.0790625 	0.005 	-0.0720523
0.05 	0.0796875 	0.005 	-0.0725523
0.05 	0.0803125 	0.005 	-0.0729667
0.05 	0.0809375 	0.005 	-0.0732941
0.05 	0.0815625 	0.005 	-0.073534
0.05 	0.0821875 	0.005 	-0.073686
0.05 	0.0828125 	0.005 	-0.0737502
0.05 	0.0834375 	0.005 	-0.0737274
0.05 	0.0840625 	0.005 	-0.0736185
0.05 	0.0846875 	0.005 	-0.0734253
0.05 	0.0853125 	0.005 	-0.0731498
0.05 	0.0859375 	0.005 	-0.0727948
0.05 	0.0865625 	0.005 	-0.0723633
0.05 	0.0871875 	0.005 	-0.071859
0.05 	0.0878125 	0.005 	-0.0712862
0.05 	0.0884375 	0.005 	-0.0706496
0.05 	0.0890625 	0.005 	-0.0699543
0.05 	0.0896875 	0.005 	-0.0692059
0.05 	0.0903125 	0.005 	-0.0684107
0.05 	0.0909375 	0.005 	-0.0675749
0.05 	0.0915625 	0.005 	-0.0667055
0.05 	0.0921875 	0.005 	-0.0658093
0.05 	0.0928125 	0.005 	-0.0648937
0.05 	0.0934375 	0.005 	-0.063966
0.05 	0.0940625 	0.005 	-0.0630336
0.05 	0.0946875 	0.005 	-0.0621039
0.05 	0.0953125 	0.005 	-0.0611841
0.05 	0.0959375 	0.005 	-0.0602811
0.05 	0.0965625 	0.005 	-0.0594012
0.05 	0.0971875 	0.005 	-0.05855
0.05 	0.0978125 	0.005 	-0.0577364
0.05 	0.0984375 	0.005 	-0.0569686
0.05 	0.0990625 	0.005 	-0.0562
0.05 	0.0996875 	0.005 	-0.0553841
