/*--------------------------------*- C++ -*----------------------------------*\
  =========                 |
  \\      /  F ield         | OpenFOAM: The Open Source CFD Toolbox
   \\    /   O peration     | Website:  https://openfoam.org
    \\  /    A nd           | Version:  7
     \\/     M anipulation  |
\*---------------------------------------------------------------------------*/
FoamFile
{
    version     2.0;
    format      ascii;
    class       surfaceScalarField;
    location    "0.15";
    object      phi;
}
// * * * * * * * * * * * * * * * * * * * * * * * * * * * * * * * * * * * * * //

dimensions      [0 3 -1 0 0 0 0];

internalField   nonuniform List<scalar> 
50880
(
6.43616e-12
-6.44732e-12
3.66636e-11
-3.02302e-11
8.12458e-11
-4.45851e-11
1.30366e-10
-4.91199e-11
1.77023e-10
-4.66619e-11
2.16331e-10
-3.92999e-11
2.44894e-10
-2.85641e-11
2.60427e-10
-1.55237e-11
2.614e-10
-9.76193e-13
2.46853e-10
1.45474e-11
2.1621e-10
3.06411e-11
1.69202e-10
4.7006e-11
1.05782e-10
6.34196e-11
2.6071e-11
7.9711e-11
-6.96684e-11
9.57394e-11
-1.8108e-10
1.11411e-10
-3.07735e-10
1.26652e-10
-4.49126e-10
1.4139e-10
-6.04704e-10
1.55579e-10
-7.7388e-10
1.69176e-10
-9.56043e-10
1.82164e-10
-1.15055e-09
1.94513e-10
-1.35677e-09
2.06216e-10
-1.57402e-09
2.17249e-10
-1.80165e-09
2.27625e-10
-2.03896e-09
2.37317e-10
-2.2853e-09
2.46339e-10
-2.53999e-09
2.54693e-10
-2.80236e-09
2.62374e-10
-3.07174e-09
2.6938e-10
-3.34746e-09
2.75729e-10
-3.62888e-09
2.81417e-10
-3.91534e-09
2.86454e-10
-4.2062e-09
2.9086e-10
-4.50084e-09
2.94639e-10
-4.79863e-09
2.97789e-10
-5.09896e-09
3.00331e-10
-5.40123e-09
3.02274e-10
-5.70486e-09
3.03621e-10
-6.00926e-09
3.04389e-10
-6.31386e-09
3.04602e-10
-6.61812e-09
3.04262e-10
-6.9215e-09
3.03375e-10
-7.22345e-09
3.01958e-10
-7.52347e-09
3.00025e-10
-7.82106e-09
2.97584e-10
-8.11571e-09
2.94649e-10
-8.40695e-09
2.91236e-10
-8.69431e-09
2.87359e-10
-8.97734e-09
2.83028e-10
-9.25559e-09
2.78252e-10
-9.52864e-09
2.73049e-10
-9.79607e-09
2.67432e-10
-1.00575e-08
2.61412e-10
-1.03125e-08
2.55002e-10
-1.05607e-08
2.48216e-10
-1.08018e-08
2.41066e-10
-1.10353e-08
2.33568e-10
-1.12611e-08
2.25735e-10
-1.14787e-08
2.17577e-10
-1.16878e-08
2.09107e-10
-1.18881e-08
2.00342e-10
-1.20794e-08
1.91297e-10
-1.22614e-08
1.81984e-10
-1.24338e-08
1.72413e-10
-1.25964e-08
1.62602e-10
-1.2749e-08
1.52562e-10
-1.28913e-08
1.42305e-10
-1.30231e-08
1.31845e-10
-1.31443e-08
1.21195e-10
-1.32547e-08
1.10374e-10
-1.33541e-08
9.93953e-11
-1.34423e-08
8.82707e-11
-1.35194e-08
7.70135e-11
-1.3585e-08
6.56406e-11
-1.36392e-08
5.41685e-11
-1.36818e-08
4.26106e-11
-1.37128e-08
3.09779e-11
-1.3732e-08
1.92844e-11
-1.37396e-08
7.54783e-12
-1.37354e-08
-4.21505e-12
-1.37194e-08
-1.59878e-11
-1.36916e-08
-2.77542e-11
-1.36521e-08
-3.95e-11
-1.36009e-08
-5.12116e-11
-1.3538e-08
-6.28732e-11
-1.34636e-08
-7.44682e-11
-1.33776e-08
-8.59803e-11
-1.32802e-08
-9.73924e-11
-1.31715e-08
-1.08687e-10
-1.30517e-08
-1.19847e-10
-1.29208e-08
-1.30856e-10
-1.27791e-08
-1.41697e-10
-1.26268e-08
-1.52356e-10
-1.24639e-08
-1.62815e-10
-1.22909e-08
-1.73058e-10
-1.21078e-08
-1.83067e-10
-1.1915e-08
-1.92823e-10
-1.17127e-08
-2.0231e-10
-1.15012e-08
-2.11509e-10
-1.12808e-08
-2.20408e-10
-1.10518e-08
-2.28989e-10
-1.08145e-08
-2.37232e-10
-1.05694e-08
-2.4512e-10
-1.03168e-08
-2.52639e-10
-1.0057e-08
-2.59774e-10
-9.7905e-09
-2.66506e-10
-9.51768e-09
-2.7282e-10
-9.23898e-09
-2.78698e-10
-8.95486e-09
-2.84122e-10
-8.66578e-09
-2.89079e-10
-8.37222e-09
-2.93554e-10
-8.07469e-09
-2.97533e-10
-7.77369e-09
-3.01e-10
-7.46975e-09
-3.03939e-10
-7.16341e-09
-3.06338e-10
-6.85523e-09
-3.08182e-10
-6.54577e-09
-3.09461e-10
-6.23561e-09
-3.10161e-10
-5.92534e-09
-3.1027e-10
-5.61557e-09
-3.09774e-10
-5.30691e-09
-3.08663e-10
-4.99998e-09
-3.06927e-10
-4.69542e-09
-3.0456e-10
-4.39387e-09
-3.01551e-10
-4.09598e-09
-2.97894e-10
-3.8024e-09
-2.9358e-10
-3.51379e-09
-2.88604e-10
-3.23083e-09
-2.82962e-10
-2.95418e-09
-2.7665e-10
-2.68451e-09
-2.69666e-10
-2.4225e-09
-2.62008e-10
-2.16883e-09
-2.53673e-10
-1.92416e-09
-2.44665e-10
-1.68918e-09
-2.34986e-10
-1.46453e-09
-2.24646e-10
-1.25087e-09
-2.13654e-10
-1.04885e-09
-2.0202e-10
-8.59093e-10
-1.89758e-10
-6.82205e-10
-1.76887e-10
-5.18774e-10
-1.6343e-10
-3.69359e-10
-1.49416e-10
-2.34476e-10
-1.34882e-10
-1.14603e-10
-1.19873e-10
-1.01582e-11
-1.04445e-10
7.8505e-11
-8.86638e-11
1.51121e-10
-7.26164e-11
2.07532e-10
-5.64107e-11
2.47718e-10
-4.01849e-11
2.71834e-10
-2.41159e-11
2.80264e-10
-8.43118e-12
2.73693e-10
6.56906e-12
2.53213e-10
2.04794e-11
2.20471e-10
3.27428e-11
1.77892e-10
4.25796e-11
1.2899e-10
4.89016e-11
7.8775e-11
5.02154e-11
3.43142e-11
4.44621e-11
5.2505e-12
2.90649e-11
5.2498e-12
3.03641e-11
-3.68098e-11
1.01352e-10
-1.01218e-10
1.94939e-10
-1.38163e-10
2.94317e-10
-1.48495e-10
3.85326e-10
-1.37664e-10
4.56824e-10
-1.10802e-10
5.00422e-10
-7.21595e-11
5.09961e-10
-2.50667e-11
4.81065e-10
2.79234e-11
4.10729e-10
8.48857e-11
2.97026e-10
1.44347e-10
1.3886e-10
2.05174e-10
-6.42111e-11
2.66493e-10
-3.12124e-10
3.27621e-10
-6.04409e-10
3.88023e-10
-9.4027e-10
4.4728e-10
-1.31867e-09
5.05047e-10
-1.73835e-09
5.61079e-10
-2.19792e-09
6.15147e-10
-2.69584e-09
6.6709e-10
-3.23046e-09
7.16795e-10
-3.80009e-09
7.6414e-10
-4.40294e-09
8.09069e-10
-5.03721e-09
8.51516e-10
-5.70103e-09
8.91451e-10
-6.39255e-09
9.28833e-10
-7.10988e-09
9.63665e-10
-7.85111e-09
9.95923e-10
-8.61436e-09
1.02562e-09
-9.39774e-09
1.05276e-09
-1.01994e-08
1.07735e-09
-1.10174e-08
1.09942e-09
-1.18499e-08
1.119e-09
-1.26951e-08
1.13611e-09
-1.35513e-08
1.15078e-09
-1.44165e-08
1.16305e-09
-1.52892e-08
1.17295e-09
-1.61674e-08
1.18052e-09
-1.70496e-08
1.1858e-09
-1.7934e-08
1.18883e-09
-1.88191e-08
1.18966e-09
-1.97031e-08
1.18834e-09
-2.05847e-08
1.1849e-09
-2.14621e-08
1.17939e-09
-2.2334e-08
1.17187e-09
-2.31987e-08
1.16238e-09
-2.4055e-08
1.15096e-09
-2.49015e-08
1.13766e-09
-2.57367e-08
1.12254e-09
-2.65593e-08
1.10564e-09
-2.7368e-08
1.08702e-09
-2.81617e-08
1.06672e-09
-2.89391e-08
1.04479e-09
-2.96989e-08
1.02129e-09
-3.04402e-08
9.96266e-10
-3.11617e-08
9.69764e-10
-3.18625e-08
9.41842e-10
-3.25415e-08
9.12552e-10
-3.31977e-08
8.81942e-10
-3.38302e-08
8.50064e-10
-3.44381e-08
8.16975e-10
-3.50204e-08
7.82728e-10
-3.55765e-08
7.47371e-10
-3.61055e-08
7.10958e-10
-3.66066e-08
6.73542e-10
-3.70792e-08
6.35181e-10
-3.75226e-08
5.95926e-10
-3.79361e-08
5.55826e-10
-3.83192e-08
5.14936e-10
-3.86713e-08
4.7331e-10
-3.89919e-08
4.31006e-10
-3.92806e-08
3.88081e-10
-3.95369e-08
3.44587e-10
-3.97605e-08
3.00581e-10
-3.9951e-08
2.56121e-10
-4.01081e-08
2.11267e-10
-4.02315e-08
1.66074e-10
-4.03212e-08
1.206e-10
-4.03768e-08
7.49042e-11
-4.03983e-08
2.90455e-11
-4.03856e-08
-1.69173e-11
-4.03386e-08
-6.29237e-11
-4.02575e-08
-1.08911e-10
-4.01421e-08
-1.54816e-10
-3.99928e-08
-2.00579e-10
-3.98095e-08
-2.46137e-10
-3.95926e-08
-2.91426e-10
-3.93422e-08
-3.36384e-10
-3.90586e-08
-3.80947e-10
-3.87422e-08
-4.25052e-10
-3.83934e-08
-4.68631e-10
-3.80127e-08
-5.11619e-10
-3.76004e-08
-5.53949e-10
-3.71572e-08
-5.95555e-10
-3.66837e-08
-6.36374e-10
-3.61804e-08
-6.76343e-10
-3.56481e-08
-7.15393e-10
-3.50874e-08
-7.53454e-10
-3.44993e-08
-7.9046e-10
-3.38845e-08
-8.26347e-10
-3.32438e-08
-8.61049e-10
-3.25783e-08
-8.945e-10
-3.18889e-08
-9.26633e-10
-3.11766e-08
-9.57383e-10
-3.04426e-08
-9.86686e-10
-2.96879e-08
-1.01448e-09
-2.89137e-08
-1.0407e-09
-2.81212e-08
-1.06528e-09
-2.73118e-08
-1.08816e-09
-2.64866e-08
-1.10928e-09
-2.56471e-08
-1.12857e-09
-2.47947e-08
-1.14598e-09
-2.39308e-08
-1.16145e-09
-2.30568e-08
-1.17493e-09
-2.21744e-08
-1.18635e-09
-2.12851e-08
-1.19567e-09
-2.03904e-08
-1.20284e-09
-1.94921e-08
-1.2078e-09
-1.85918e-08
-1.2105e-09
-1.76911e-08
-1.21091e-09
-1.67919e-08
-1.20898e-09
-1.58959e-08
-1.20466e-09
-1.50049e-08
-1.19793e-09
-1.41208e-08
-1.18874e-09
-1.32452e-08
-1.17707e-09
-1.23803e-08
-1.16289e-09
-1.15277e-08
-1.14617e-09
-1.06894e-08
-1.1269e-09
-9.86727e-09
-1.10506e-09
-9.06328e-09
-1.08065e-09
-8.2793e-09
-1.05365e-09
-7.51724e-09
-1.02406e-09
-6.77903e-09
-9.91889e-10
-6.06654e-09
-9.5715e-10
-5.38166e-09
-9.19866e-10
-4.72624e-09
-8.80071e-10
-4.10208e-09
-8.37807e-10
-3.51097e-09
-7.93129e-10
-2.95463e-09
-7.46102e-10
-2.4347e-09
-6.96811e-10
-1.95277e-09
-6.45361e-10
-1.51031e-09
-5.91881e-10
-1.10866e-09
-5.36531e-10
-7.49029e-10
-4.79501e-10
-4.32448e-10
-4.21026e-10
-1.59718e-10
-3.61394e-10
6.86305e-11
-3.00965e-10
2.524e-10
-2.4018e-10
3.91811e-10
-1.79595e-10
4.87601e-10
-1.19907e-10
5.4117e-10
-6.19986e-11
5.54748e-10
-7.00742e-12
5.31634e-10
4.35939e-11
4.76499e-10
8.78797e-11
3.95754e-10
1.23324e-10
2.98007e-10
1.4665e-10
1.94495e-10
1.53729e-10
9.93458e-11
1.39613e-10
2.90014e-11
9.94089e-11
3.42533e-11
4.47657e-11
-8.15713e-11
1.38557e-10
-1.9501e-10
2.54883e-10
-2.54491e-10
3.72342e-10
-2.65969e-10
4.72802e-10
-2.38129e-10
5.41484e-10
-1.79493e-10
5.66738e-10
-9.74164e-11
5.39644e-10
2.02409e-12
4.53577e-10
1.13989e-10
3.03804e-10
2.34655e-10
8.71238e-11
3.61017e-10
-1.98409e-10
4.90709e-10
-5.53756e-10
6.21839e-10
-9.7907e-10
7.5293e-10
-1.47383e-09
8.8279e-10
-2.03703e-09
1.01048e-09
-2.6672e-09
1.13523e-09
-3.36256e-09
1.25643e-09
-4.12101e-09
1.37359e-09
-4.94026e-09
1.48635e-09
-5.81783e-09
1.59436e-09
-6.7511e-09
1.69741e-09
-7.73733e-09
1.7953e-09
-8.7737e-09
1.88789e-09
-9.85731e-09
1.97506e-09
-1.09852e-08
2.05677e-09
-1.21545e-08
2.13293e-09
-1.33621e-08
2.20354e-09
-1.46051e-08
2.26857e-09
-1.58804e-08
2.32804e-09
-1.7185e-08
2.38197e-09
-1.8516e-08
2.4304e-09
-1.98703e-08
2.47338e-09
-2.12452e-08
2.51096e-09
-2.26376e-08
2.5432e-09
-2.40447e-08
2.57016e-09
-2.54637e-08
2.59193e-09
-2.68918e-08
2.60858e-09
-2.83262e-08
2.6202e-09
-2.97642e-08
2.62687e-09
-3.12033e-08
2.6287e-09
-3.26407e-08
2.62577e-09
-3.4074e-08
2.61818e-09
-3.55006e-08
2.60604e-09
-3.69182e-08
2.58944e-09
-3.83243e-08
2.56849e-09
-3.97166e-08
2.54328e-09
-4.10929e-08
2.51393e-09
-4.24509e-08
2.48055e-09
-4.37885e-08
2.44324e-09
-4.51036e-08
2.40211e-09
-4.63942e-08
2.35728e-09
-4.76583e-08
2.30885e-09
-4.88939e-08
2.25693e-09
-5.00993e-08
2.20164e-09
-5.12726e-08
2.14309e-09
-5.24121e-08
2.08139e-09
-5.35162e-08
2.01666e-09
-5.45833e-08
1.94901e-09
-5.56118e-08
1.87855e-09
-5.66003e-08
1.80541e-09
-5.75472e-08
1.72971e-09
-5.84514e-08
1.65155e-09
-5.93115e-08
1.57105e-09
-6.01263e-08
1.48834e-09
-6.08946e-08
1.40352e-09
-6.16154e-08
1.31672e-09
-6.22877e-08
1.22806e-09
-6.29104e-08
1.13765e-09
-6.34827e-08
1.04562e-09
-6.40038e-08
9.52086e-10
-6.44729e-08
8.57177e-10
-6.48893e-08
7.61016e-10
-6.52524e-08
6.63729e-10
-6.55618e-08
5.65442e-10
-6.58168e-08
4.6628e-10
-6.6017e-08
3.66368e-10
-6.61623e-08
2.65838e-10
-6.62522e-08
1.64822e-10
-6.62866e-08
6.345e-11
-6.62654e-08
-3.81433e-11
-6.61885e-08
-1.39823e-10
-6.60559e-08
-2.41455e-10
-6.58679e-08
-3.42905e-10
-6.56244e-08
-4.44035e-10
-6.53258e-08
-5.44708e-10
-6.49725e-08
-6.44781e-10
-6.45647e-08
-7.44114e-10
-6.41031e-08
-8.42564e-10
-6.35882e-08
-9.39992e-10
-6.30206e-08
-1.03625e-09
-6.2401e-08
-1.1312e-09
-6.17302e-08
-1.22469e-09
-6.10092e-08
-1.31658e-09
-6.02388e-08
-1.40672e-09
-5.94202e-08
-1.49497e-09
-5.85544e-08
-1.58119e-09
-5.76427e-08
-1.66521e-09
-5.66862e-08
-1.7469e-09
-5.56865e-08
-1.82611e-09
-5.46448e-08
-1.9027e-09
-5.35628e-08
-1.97651e-09
-5.2442e-08
-2.04742e-09
-5.12841e-08
-2.11526e-09
-5.00909e-08
-2.1799e-09
-4.88642e-08
-2.2412e-09
-4.76059e-08
-2.29903e-09
-4.63179e-08
-2.35323e-09
-4.50024e-08
-2.40368e-09
-4.36614e-08
-2.45023e-09
-4.22973e-08
-2.49276e-09
-4.09121e-08
-2.53114e-09
-3.95083e-08
-2.56524e-09
-3.80883e-08
-2.59493e-09
-3.66546e-08
-2.62011e-09
-3.52096e-08
-2.64064e-09
-3.3756e-08
-2.65643e-09
-3.22964e-08
-2.66737e-09
-3.08336e-08
-2.67335e-09
-2.93702e-08
-2.67428e-09
-2.79091e-08
-2.67005e-09
-2.64532e-08
-2.6606e-09
-2.50053e-08
-2.64583e-09
-2.35684e-08
-2.62568e-09
-2.21453e-08
-2.60008e-09
-2.07392e-08
-2.56899e-09
-1.93531e-08
-2.53234e-09
-1.79899e-08
-2.49011e-09
-1.66527e-08
-2.44226e-09
-1.53445e-08
-2.38878e-09
-1.40685e-08
-2.32966e-09
-1.28277e-08
-2.26492e-09
-1.1625e-08
-2.19456e-09
-1.04635e-08
-2.11863e-09
-9.34617e-09
-2.0372e-09
-8.2759e-09
-1.95035e-09
-7.25553e-09
-1.85817e-09
-6.28784e-09
-1.76082e-09
-5.3755e-09
-1.65844e-09
-4.52106e-09
-1.55125e-09
-3.72692e-09
-1.4395e-09
-2.99531e-09
-1.32349e-09
-2.32825e-09
-1.20359e-09
-1.7275e-09
-1.08025e-09
-1.1945e-09
-9.54018e-10
-7.30347e-10
-8.25546e-10
-3.35664e-10
-6.95646e-10
-1.05331e-11
-5.6531e-10
2.45632e-10
-4.35759e-10
4.34233e-10
-3.08507e-10
5.57677e-10
-1.85443e-10
6.1961e-10
-6.89378e-11
6.2519e-10
3.80155e-11
5.81435e-10
1.31637e-10
4.97594e-10
2.07167e-10
3.85551e-10
2.58696e-10
2.60168e-10
2.79114e-10
1.39442e-10
2.6034e-10
4.43373e-11
1.94517e-10
7.85926e-11
4.93587e-11
-1.3094e-10
1.49153e-10
-2.94794e-10
2.66892e-10
-3.72235e-10
3.77582e-10
-3.76641e-10
4.60533e-10
-3.21076e-10
4.98768e-10
-2.17725e-10
4.78623e-10
-7.72702e-11
3.89359e-10
9.12899e-11
2.22762e-10
2.80587e-10
-2.7219e-11
4.84636e-10
-3.64803e-10
6.98609e-10
-7.92707e-10
9.18611e-10
-1.31239e-09
1.14152e-09
-1.92424e-09
1.36479e-09
-2.62786e-09
1.5864e-09
-3.42206e-09
1.80468e-09
-4.30512e-09
2.01829e-09
-5.27484e-09
2.22615e-09
-6.32862e-09
2.42738e-09
-7.46352e-09
2.62126e-09
-8.67639e-09
2.80722e-09
-9.96381e-09
2.98483e-09
-1.13222e-08
3.15371e-09
-1.27479e-08
3.3136e-09
-1.42371e-08
3.46427e-09
-1.57859e-08
3.60557e-09
-1.73904e-08
3.73739e-09
-1.90465e-08
3.85967e-09
-2.07503e-08
3.97237e-09
-2.24978e-08
4.07548e-09
-2.42848e-08
4.16903e-09
-2.61075e-08
4.25308e-09
-2.79618e-08
4.32769e-09
-2.98438e-08
4.39294e-09
-3.17495e-08
4.44894e-09
-3.36751e-08
4.49579e-09
-3.56168e-08
4.5336e-09
-3.75708e-08
4.56252e-09
-3.95332e-08
4.58268e-09
-4.15006e-08
4.59424e-09
-4.34693e-08
4.59734e-09
-4.54356e-08
4.59216e-09
-4.73963e-08
4.57885e-09
-4.93479e-08
4.55759e-09
-5.1287e-08
4.52855e-09
-5.32104e-08
4.49191e-09
-5.5115e-08
4.44785e-09
-5.69976e-08
4.39654e-09
-5.88552e-08
4.33818e-09
-6.06849e-08
4.27294e-09
-6.24838e-08
4.20104e-09
-6.42492e-08
4.12264e-09
-6.59783e-08
4.03796e-09
-6.76685e-08
3.94717e-09
-6.93174e-08
3.85048e-09
-7.09224e-08
3.74808e-09
-7.24811e-08
3.64017e-09
-7.39914e-08
3.52695e-09
-7.5451e-08
3.40861e-09
-7.68578e-08
3.28537e-09
-7.82099e-08
3.15743e-09
-7.95051e-08
3.02499e-09
-8.07418e-08
2.88825e-09
-8.19182e-08
2.74742e-09
-8.30326e-08
2.6027e-09
-8.40834e-08
2.45431e-09
-8.50691e-08
2.30244e-09
-8.59883e-08
2.14731e-09
-8.68398e-08
1.98913e-09
-8.76223e-08
1.82811e-09
-8.83347e-08
1.66446e-09
-8.89759e-08
1.49841e-09
-8.95451e-08
1.33017e-09
-9.00413e-08
1.15996e-09
-9.04639e-08
9.88004e-10
-9.08121e-08
8.14522e-10
-9.10855e-08
6.39739e-10
-9.12835e-08
4.63878e-10
-9.14059e-08
2.87169e-10
-9.14523e-08
1.09845e-10
-9.14226e-08
-6.78592e-11
-9.13167e-08
-2.45707e-10
-9.11347e-08
-4.23462e-10
-9.08767e-08
-6.00887e-10
-9.0543e-08
-7.77744e-10
-9.01339e-08
-9.53791e-10
-8.96499e-08
-1.12878e-09
-8.90915e-08
-1.30247e-09
-8.84595e-08
-1.4746e-09
-8.77545e-08
-1.64494e-09
-8.69776e-08
-1.81322e-09
-8.61296e-08
-1.9792e-09
-8.52117e-08
-2.14262e-09
-8.4225e-08
-2.30323e-09
-8.3171e-08
-2.46077e-09
-8.20509e-08
-2.615e-09
-8.08665e-08
-2.76565e-09
-7.96192e-08
-2.91247e-09
-7.83109e-08
-3.0552e-09
-7.69435e-08
-3.19359e-09
-7.55188e-08
-3.32738e-09
-7.4039e-08
-3.45632e-09
-7.25062e-08
-3.58016e-09
-7.09228e-08
-3.69865e-09
-6.92912e-08
-3.81155e-09
-6.76138e-08
-3.9186e-09
-6.58932e-08
-4.01956e-09
-6.41323e-08
-4.1142e-09
-6.23337e-08
-4.20227e-09
-6.05004e-08
-4.28354e-09
-5.86353e-08
-4.35779e-09
-5.67417e-08
-4.42478e-09
-5.48226e-08
-4.48431e-09
-5.28814e-08
-4.53616e-09
-5.09214e-08
-4.58012e-09
-4.8946e-08
-4.616e-09
-4.69589e-08
-4.6436e-09
-4.49635e-08
-4.66275e-09
-4.29636e-08
-4.67326e-09
-4.09629e-08
-4.67498e-09
-3.89652e-08
-4.66774e-09
-3.69744e-08
-4.65139e-09
-3.49944e-08
-4.62582e-09
-3.30292e-08
-4.59091e-09
-3.10827e-08
-4.54653e-09
-2.91591e-08
-4.49261e-09
-2.72624e-08
-4.42907e-09
-2.53966e-08
-4.35585e-09
-2.35659e-08
-4.27292e-09
-2.17745e-08
-4.18024e-09
-2.00263e-08
-4.07784e-09
-1.83255e-08
-3.96572e-09
-1.66761e-08
-3.84395e-09
-1.50821e-08
-3.71261e-09
-1.35475e-08
-3.57182e-09
-1.20761e-08
-3.42174e-09
-1.06717e-08
-3.26258e-09
-9.33791e-09
-3.0946e-09
-8.07826e-09
-2.91809e-09
-6.89606e-09
-2.73345e-09
-5.7944e-09
-2.54115e-09
-4.77616e-09
-2.34174e-09
-3.84386e-09
-2.13589e-09
-2.9997e-09
-1.92441e-09
-2.24545e-09
-1.70827e-09
-1.58235e-09
-1.48865e-09
-1.01103e-09
-1.26696e-09
-5.31394e-10
-1.04494e-09
-1.42472e-10
-8.24677e-10
1.57756e-10
-6.08734e-10
3.72572e-10
-4.00257e-10
5.06759e-10
-2.03123e-10
5.66891e-10
-2.21138e-11
5.61649e-10
1.36881e-10
5.02169e-10
2.6665e-10
4.02387e-10
3.5848e-10
2.79395e-10
4.02107e-10
1.53769e-10
3.85967e-10
5.01349e-11
2.98153e-10
1.28727e-10
4.69936e-11
-1.77936e-10
1.38723e-10
-3.86516e-10
2.39975e-10
-4.73492e-10
3.23513e-10
-4.60178e-10
3.67056e-10
-3.64619e-10
3.52335e-10
-2.02998e-10
2.64484e-10
1.05739e-11
9.1654e-11
2.64125e-10
-1.75416e-10
5.47649e-10
-5.43662e-10
8.52883e-10
-1.01808e-09
1.17302e-09
-1.60197e-09
1.5025e-09
-2.29719e-09
1.83674e-09
-3.1044e-09
2.172e-09
-4.02325e-09
2.50525e-09
-5.05252e-09
2.83395e-09
-6.1903e-09
3.15606e-09
-7.43404e-09
3.46989e-09
-8.78074e-09
3.77408e-09
-1.0227e-08
4.06748e-09
-1.1769e-08
4.34921e-09
-1.34026e-08
4.61852e-09
-1.51238e-08
4.87483e-09
-1.69279e-08
5.11768e-09
-1.88103e-08
5.34671e-09
-2.07664e-08
5.56163e-09
-2.27912e-08
5.76226e-09
-2.488e-08
5.94846e-09
-2.70278e-08
6.12016e-09
-2.92297e-08
6.27734e-09
-3.14806e-08
6.42e-09
-3.37758e-08
6.54821e-09
-3.61101e-08
6.66204e-09
-3.84788e-08
6.76162e-09
-4.08769e-08
6.84708e-09
-4.32997e-08
6.91856e-09
-4.57423e-08
6.97625e-09
-4.82002e-08
7.02034e-09
-5.06685e-08
7.05102e-09
-5.31428e-08
7.06853e-09
-5.56185e-08
7.07309e-09
-5.80913e-08
7.06495e-09
-6.05568e-08
7.04434e-09
-6.30108e-08
7.01153e-09
-6.5449e-08
6.96679e-09
-6.78675e-08
6.91036e-09
-7.02621e-08
6.84253e-09
-7.26292e-08
6.76358e-09
-7.49648e-08
6.67377e-09
-7.72652e-08
6.57341e-09
-7.9527e-08
6.46278e-09
-8.17465e-08
6.34218e-09
-8.39205e-08
6.21189e-09
-8.60455e-08
6.07222e-09
-8.81185e-08
5.92345e-09
-9.01363e-08
5.76591e-09
-9.2096e-08
5.59988e-09
-9.39947e-08
5.42567e-09
-9.58297e-08
5.24359e-09
-9.75983e-08
5.05396e-09
-9.9298e-08
4.85709e-09
-1.00926e-07
4.65328e-09
-1.02481e-07
4.44286e-09
-1.0396e-07
4.22614e-09
-1.0536e-07
4.00344e-09
-1.06681e-07
3.77507e-09
-1.0792e-07
3.54136e-09
-1.09075e-07
3.30262e-09
-1.10145e-07
3.05919e-09
-1.11129e-07
2.81139e-09
-1.12024e-07
2.55956e-09
-1.12829e-07
2.30402e-09
-1.13544e-07
2.04512e-09
-1.14168e-07
1.7832e-09
-1.14698e-07
1.51859e-09
-1.15135e-07
1.25164e-09
-1.15478e-07
9.82695e-10
-1.15726e-07
7.12105e-10
-1.1588e-07
4.4022e-10
-1.15937e-07
1.67398e-10
-1.15899e-07
-1.05999e-10
-1.15765e-07
-3.79608e-10
-1.15535e-07
-6.53065e-10
-1.1521e-07
-9.26001e-10
-1.1479e-07
-1.19805e-09
-1.14275e-07
-1.46884e-09
-1.13666e-07
-1.73798e-09
-1.12963e-07
-2.00511e-09
-1.12168e-07
-2.26984e-09
-1.11281e-07
-2.53179e-09
-1.10304e-07
-2.79056e-09
-1.09237e-07
-3.04578e-09
-1.08083e-07
-3.29705e-09
-1.06842e-07
-3.54398e-09
-1.05516e-07
-3.78619e-09
-1.04108e-07
-4.02329e-09
-1.02619e-07
-4.25487e-09
-1.01051e-07
-4.48054e-09
-9.94062e-08
-4.69992e-09
-9.76871e-08
-4.91262e-09
-9.58963e-08
-5.11824e-09
-9.40362e-08
-5.31639e-09
-9.21097e-08
-5.50669e-09
-9.01196e-08
-5.68876e-09
-8.80689e-08
-5.86223e-09
-8.59608e-08
-6.0267e-09
-8.37985e-08
-6.18182e-09
-8.15855e-08
-6.32722e-09
-7.93253e-08
-6.46252e-09
-7.70214e-08
-6.58738e-09
-7.46778e-08
-6.70145e-09
-7.22982e-08
-6.80439e-09
-6.98866e-08
-6.89587e-09
-6.74472e-08
-6.97557e-09
-6.49841e-08
-7.04316e-09
-6.25018e-08
-7.09836e-09
-6.00045e-08
-7.14088e-09
-5.74968e-08
-7.17045e-09
-5.49833e-08
-7.18678e-09
-5.24686e-08
-7.18965e-09
-4.99575e-08
-7.17881e-09
-4.74549e-08
-7.15405e-09
-4.49655e-08
-7.11519e-09
-4.24944e-08
-7.06204e-09
-4.00465e-08
-6.99446e-09
-3.76268e-08
-6.9123e-09
-3.52404e-08
-6.81547e-09
-3.28923e-08
-6.7039e-09
-3.05877e-08
-6.57752e-09
-2.83316e-08
-6.43634e-09
-2.61291e-08
-6.28037e-09
-2.39851e-08
-6.10967e-09
-2.19048e-08
-5.92433e-09
-1.98929e-08
-5.72452e-09
-1.79542e-08
-5.51043e-09
-1.60936e-08
-5.28235e-09
-1.43156e-08
-5.0406e-09
-1.26246e-08
-4.7856e-09
-1.10248e-08
-4.51788e-09
-9.52025e-09
-4.23803e-09
-8.11458e-09
-3.94682e-09
-6.8112e-09
-3.64512e-09
-5.61308e-09
-3.334e-09
-4.52276e-09
-3.01473e-09
-3.54223e-09
-2.68881e-09
-2.67282e-09
-2.35805e-09
-1.91515e-09
-2.02463e-09
-1.26894e-09
-1.69115e-09
-7.32875e-10
-1.36074e-09
-3.04419e-10
-1.03719e-09
2.03862e-11
-7.25063e-10
2.47172e-10
-4.29907e-10
3.83502e-10
-1.58443e-10
4.39167e-10
8.1216e-11
4.26496e-10
2.79322e-10
3.60683e-10
4.24292e-10
2.60198e-10
5.02592e-10
1.47299e-10
4.98868e-10
4.89933e-11
3.9646e-10
1.77719e-10
3.98157e-11
-2.17753e-10
1.12572e-10
-4.59274e-10
1.82829e-10
-5.43757e-10
2.22537e-10
-4.99888e-10
2.08735e-10
-3.50818e-10
1.22533e-10
-1.16801e-10
-5.15067e-11
1.84612e-10
-3.25852e-10
5.38467e-10
-7.10324e-10
9.32123e-10
-1.21243e-09
1.355e-09
-1.83765e-09
1.79824e-09
-2.58967e-09
2.25452e-09
-3.47065e-09
2.71772e-09
-4.48143e-09
3.18279e-09
-5.62172e-09
3.64554e-09
-6.89026e-09
4.10248e-09
-8.28496e-09
4.55076e-09
-9.80304e-09
4.98798e-09
-1.14411e-08
5.41218e-09
-1.31954e-08
5.82176e-09
-1.50616e-08
6.21538e-09
-1.7035e-08
6.59196e-09
-1.91108e-08
6.95065e-09
-2.12839e-08
7.29073e-09
-2.35489e-08
7.61167e-09
-2.59003e-08
7.91303e-09
-2.83325e-08
8.1945e-09
-3.08399e-08
8.45585e-09
-3.34167e-08
8.69695e-09
-3.60571e-08
8.91774e-09
-3.87553e-08
9.11821e-09
-4.15055e-08
9.2984e-09
-4.43019e-08
9.45843e-09
-4.71387e-08
9.59842e-09
-5.00101e-08
9.71854e-09
-5.29106e-08
9.819e-09
-5.58343e-08
9.90003e-09
-5.87759e-08
9.96187e-09
-6.17297e-08
1.00048e-08
-6.46903e-08
1.00292e-08
-6.76524e-08
1.00352e-08
-7.06108e-08
1.00233e-08
-7.35603e-08
9.9938e-09
-7.64958e-08
9.94703e-09
-7.94123e-08
9.88335e-09
-8.23051e-08
9.80315e-09
-8.51694e-08
9.7068e-09
-8.80005e-08
9.5947e-09
-9.0794e-08
9.46722e-09
-9.35453e-08
9.32478e-09
-9.62503e-08
9.16779e-09
-9.89048e-08
8.99665e-09
-1.01505e-07
8.81178e-09
-1.04046e-07
8.61359e-09
-1.06525e-07
8.40252e-09
-1.08938e-07
8.17898e-09
-1.11282e-07
7.9434e-09
-1.13552e-07
7.69622e-09
-1.15747e-07
7.43788e-09
-1.17861e-07
7.16882e-09
-1.19894e-07
6.88947e-09
-1.21841e-07
6.60028e-09
-1.237e-07
6.3017e-09
-1.25468e-07
5.99418e-09
-1.27142e-07
5.67816e-09
-1.28721e-07
5.35411e-09
-1.30203e-07
5.02247e-09
-1.31584e-07
4.68371e-09
-1.32863e-07
4.33829e-09
-1.34038e-07
3.98668e-09
-1.35108e-07
3.62934e-09
-1.36071e-07
3.26675e-09
-1.36925e-07
2.8994e-09
-1.37669e-07
2.52777e-09
-1.38303e-07
2.15233e-09
-1.38825e-07
1.77358e-09
-1.39234e-07
1.39201e-09
-1.3953e-07
1.00811e-09
-1.39713e-07
6.22396e-10
-1.39781e-07
2.35366e-10
-1.39734e-07
-1.52465e-10
-1.39573e-07
-5.40583e-10
-1.39298e-07
-9.28471e-10
-1.38908e-07
-1.31561e-09
-1.38405e-07
-1.70147e-09
-1.37788e-07
-2.08551e-09
-1.37059e-07
-2.46722e-09
-1.36218e-07
-2.84605e-09
-1.35266e-07
-3.22146e-09
-1.34205e-07
-3.5929e-09
-1.33036e-07
-3.95983e-09
-1.3176e-07
-4.32169e-09
-1.30379e-07
-4.67794e-09
-1.28895e-07
-5.02803e-09
-1.2731e-07
-5.3714e-09
-1.25626e-07
-5.7075e-09
-1.23845e-07
-6.03577e-09
-1.2197e-07
-6.35566e-09
-1.20003e-07
-6.66661e-09
-1.17947e-07
-6.96807e-09
-1.15806e-07
-7.25948e-09
-1.13582e-07
-7.54031e-09
-1.11279e-07
-7.81e-09
-1.089e-07
-8.06802e-09
-1.06448e-07
-8.31383e-09
-1.03928e-07
-8.54691e-09
-1.01343e-07
-8.76672e-09
-9.86975e-08
-8.97275e-09
-9.59955e-08
-9.16449e-09
-9.32414e-08
-9.34144e-09
-9.04398e-08
-9.50312e-09
-8.75951e-08
-9.64905e-09
-8.47122e-08
-9.77876e-09
-8.1796e-08
-9.89179e-09
-7.88514e-08
-9.98773e-09
-7.58837e-08
-1.00661e-08
-7.28979e-08
-1.01266e-08
-6.98995e-08
-1.01688e-08
-6.6894e-08
-1.01923e-08
-6.38869e-08
-1.01968e-08
-6.08837e-08
-1.0182e-08
-5.78902e-08
-1.01475e-08
-5.49123e-08
-1.00931e-08
-5.19557e-08
-1.00187e-08
-4.90262e-08
-9.92387e-09
-4.613e-08
-9.80856e-09
-4.32729e-08
-9.67261e-09
-4.04608e-08
-9.51594e-09
-3.76998e-08
-9.3385e-09
-3.49959e-08
-9.14029e-09
-3.23549e-08
-8.92135e-09
-2.97828e-08
-8.68178e-09
-2.72854e-08
-8.42177e-09
-2.48683e-08
-8.14154e-09
-2.25373e-08
-7.84143e-09
-2.02979e-08
-7.52183e-09
-1.81552e-08
-7.18327e-09
-1.61144e-08
-6.82636e-09
-1.41804e-08
-6.45187e-09
-1.23578e-08
-6.06069e-09
-1.06507e-08
-5.65393e-09
-9.06291e-09
-5.23287e-09
-7.59788e-09
-4.79903e-09
-6.25838e-09
-4.35423e-09
-5.04657e-09
-3.90062e-09
-3.96389e-09
-3.44073e-09
-3.01091e-09
-2.97761e-09
-2.18722e-09
-2.51485e-09
-1.49123e-09
-2.05673e-09
-9.20041e-10
-1.60838e-09
-4.69213e-10
-1.17589e-09
-1.32548e-10
-7.66572e-10
9.81509e-11
-3.8914e-10
2.3334e-10
-5.39723e-11
2.86024e-10
2.26637e-10
2.72085e-10
4.38228e-10
2.10712e-10
5.63964e-10
1.24999e-10
5.84582e-10
4.297e-11
4.78489e-10
2.20689e-10
2.93698e-11
-2.47122e-10
7.49338e-11
-5.04844e-10
1.02784e-10
-5.71607e-10
8.52577e-11
-4.82359e-10
-5.01168e-13
-2.65066e-10
-1.7338e-10
5.60826e-11
-4.48938e-10
4.60169e-10
-8.39797e-10
9.29323e-10
-1.35601e-09
1.44833e-09
-2.00533e-09
2.00431e-09
-2.79346e-09
2.58638e-09
-3.72433e-09
3.18538e-09
-4.80024e-09
3.79362e-09
-6.0221e-09
4.40466e-09
-7.38967e-09
5.0131e-09
-8.90159e-09
5.61441e-09
-1.05556e-08
6.20481e-09
-1.23488e-08
6.78115e-09
-1.42774e-08
7.34081e-09
-1.63373e-08
7.88161e-09
-1.85237e-08
8.40175e-09
-2.08314e-08
8.89975e-09
-2.32552e-08
9.37439e-09
-2.57891e-08
9.8247e-09
-2.84274e-08
1.02499e-08
-3.11637e-08
1.06494e-08
-3.39918e-08
1.10226e-08
-3.69053e-08
1.13694e-08
-3.98977e-08
1.16894e-08
-4.29625e-08
1.19825e-08
-4.6093e-08
1.22487e-08
-4.92826e-08
1.2488e-08
-5.25247e-08
1.27006e-08
-5.58128e-08
1.28865e-08
-5.91403e-08
1.3046e-08
-6.25006e-08
1.31793e-08
-6.58874e-08
1.32868e-08
-6.92942e-08
1.33687e-08
-7.27147e-08
1.34254e-08
-7.61428e-08
1.34572e-08
-7.95722e-08
1.34646e-08
-8.2997e-08
1.34481e-08
-8.64112e-08
1.3408e-08
-8.9809e-08
1.33448e-08
-9.31846e-08
1.3259e-08
-9.65326e-08
1.31511e-08
-9.98475e-08
1.30216e-08
-1.03124e-07
1.2871e-08
-1.06356e-07
1.26998e-08
-1.0954e-07
1.25086e-08
-1.1267e-07
1.22979e-08
-1.15742e-07
1.20682e-08
-1.1875e-07
1.182e-08
-1.2169e-07
1.15541e-08
-1.24559e-07
1.12708e-08
-1.27351e-07
1.09709e-08
-1.30062e-07
1.06548e-08
-1.32689e-07
1.03231e-08
-1.35228e-07
9.97647e-09
-1.37674e-07
9.61544e-09
-1.40025e-07
9.24061e-09
-1.42278e-07
8.85258e-09
-1.44428e-07
8.45195e-09
-1.46473e-07
8.03933e-09
-1.4841e-07
7.6153e-09
-1.50237e-07
7.18049e-09
-1.5195e-07
6.73551e-09
-1.53547e-07
6.28098e-09
-1.55026e-07
5.81751e-09
-1.56385e-07
5.34574e-09
-1.57622e-07
4.8663e-09
-1.58735e-07
4.37983e-09
-1.59723e-07
3.88697e-09
-1.60583e-07
3.38837e-09
-1.61316e-07
2.88468e-09
-1.61919e-07
2.37656e-09
-1.62391e-07
1.86467e-09
-1.62733e-07
1.34968e-09
-1.62943e-07
8.32263e-10
-1.63021e-07
3.13103e-10
-1.62966e-07
-2.07115e-10
-1.62779e-07
-7.277e-10
-1.62459e-07
-1.24796e-09
-1.62008e-07
-1.76719e-09
-1.61424e-07
-2.28468e-09
-1.6071e-07
-2.79973e-09
-1.59866e-07
-3.31161e-09
-1.58892e-07
-3.81962e-09
-1.57791e-07
-4.32301e-09
-1.56563e-07
-4.82107e-09
-1.55209e-07
-5.31305e-09
-1.53733e-07
-5.79822e-09
-1.52135e-07
-6.27585e-09
-1.50418e-07
-6.74519e-09
-1.48584e-07
-7.20552e-09
-1.46635e-07
-7.65607e-09
-1.44575e-07
-8.09611e-09
-1.42405e-07
-8.5249e-09
-1.4013e-07
-8.9417e-09
-1.37753e-07
-9.34576e-09
-1.35276e-07
-9.73635e-09
-1.32703e-07
-1.01127e-08
-1.30039e-07
-1.04742e-08
-1.27287e-07
-1.082e-08
-1.24452e-07
-1.11495e-08
-1.21537e-07
-1.14618e-08
-1.18547e-07
-1.17565e-08
-1.15487e-07
-1.20326e-08
-1.12362e-07
-1.22896e-08
-1.09176e-07
-1.25269e-08
-1.05936e-07
-1.27437e-08
-1.02646e-07
-1.29394e-08
-9.9311e-08
-1.31134e-08
-9.59377e-08
-1.32651e-08
-9.25315e-08
-1.3394e-08
-8.90982e-08
-1.34994e-08
-8.56439e-08
-1.35809e-08
-8.21748e-08
-1.36379e-08
-7.86971e-08
-1.367e-08
-7.52172e-08
-1.36768e-08
-7.17414e-08
-1.36577e-08
-6.82765e-08
-1.36125e-08
-6.48289e-08
-1.35407e-08
-6.14054e-08
-1.34422e-08
-5.80126e-08
-1.33166e-08
-5.46575e-08
-1.31637e-08
-5.13467e-08
-1.29834e-08
-4.80872e-08
-1.27755e-08
-4.48856e-08
-1.25401e-08
-4.17489e-08
-1.2277e-08
-3.86837e-08
-1.19866e-08
-3.56967e-08
-1.16688e-08
-3.27945e-08
-1.13239e-08
-2.99836e-08
-1.09524e-08
-2.72704e-08
-1.05547e-08
-2.46609e-08
-1.01313e-08
-2.21612e-08
-9.68295e-09
-1.9777e-08
-9.21057e-09
-1.75137e-08
-8.71518e-09
-1.53764e-08
-8.19805e-09
-1.33696e-08
-7.66065e-09
-1.14978e-08
-7.10474e-09
-9.76442e-09
-6.53238e-09
-8.17265e-09
-5.94601e-09
-6.72479e-09
-5.34847e-09
-5.42236e-09
-4.74316e-09
-4.26594e-09
-4.13403e-09
-3.25503e-09
-3.52576e-09
-2.38789e-09
-2.92387e-09
-1.6614e-09
-2.33488e-09
-1.07081e-09
-1.76647e-09
-6.09633e-10
-1.22775e-09
-2.69332e-10
-7.29439e-10
-3.91431e-11
-2.84159e-10
9.42079e-11
9.32867e-11
1.4682e-10
3.85617e-10
1.38031e-10
5.72755e-10
9.09946e-11
6.31619e-10
3.35574e-11
5.35926e-10
2.54248e-10
1.66951e-11
-2.63812e-10
2.90892e-11
-5.17235e-10
5.74973e-12
-5.48274e-10
-7.96206e-11
-3.96985e-10
-2.4909e-10
-9.55976e-11
-5.21047e-10
3.28038e-10
-9.10727e-10
8.49847e-10
-1.43058e-09
1.44917e-09
-2.09058e-09
2.10833e-09
-2.89845e-09
2.81218e-09
-3.85995e-09
3.54786e-09
-4.97898e-09
4.30442e-09
-6.2579e-09
5.07255e-09
-7.69763e-09
5.84439e-09
-9.29783e-09
6.61329e-09
-1.1057e-08
7.37363e-09
-1.29729e-08
8.12067e-09
-1.50422e-08
8.85042e-09
-1.72609e-08
9.55954e-09
-1.96245e-08
1.02452e-08
-2.21279e-08
1.09051e-08
-2.47655e-08
1.15374e-08
-2.75315e-08
1.21403e-08
-3.04194e-08
1.27126e-08
-3.34228e-08
1.32533e-08
-3.6535e-08
1.37615e-08
-3.97489e-08
1.42365e-08
-4.30575e-08
1.4678e-08
-4.64536e-08
1.50855e-08
-4.993e-08
1.54589e-08
-5.34794e-08
1.5798e-08
-5.70943e-08
1.6103e-08
-6.07675e-08
1.63738e-08
-6.44916e-08
1.66106e-08
-6.82594e-08
1.68137e-08
-7.20634e-08
1.69834e-08
-7.58967e-08
1.712e-08
-7.97519e-08
1.72239e-08
-8.3622e-08
1.72955e-08
-8.75001e-08
1.73353e-08
-9.13793e-08
1.73438e-08
-9.52528e-08
1.73216e-08
-9.9114e-08
1.72692e-08
-1.02956e-07
1.71871e-08
-1.06773e-07
1.70761e-08
-1.10559e-07
1.69366e-08
-1.14307e-07
1.67694e-08
-1.18011e-07
1.6575e-08
-1.21665e-07
1.63543e-08
-1.25264e-07