/*--------------------------------*- C++ -*----------------------------------*\
  =========                 |
  \\      /  F ield         | OpenFOAM: The Open Source CFD Toolbox
   \\    /   O peration     | Website:  https://openfoam.org
    \\  /    A nd           | Version:  7
     \\/     M anipulation  |
\*---------------------------------------------------------------------------*/
FoamFile
{
    version     2.0;
    format      ascii;
    class       volVectorField;
    location    "0.15";
    object      U;
}
// * * * * * * * * * * * * * * * * * * * * * * * * * * * * * * * * * * * * * //

dimensions      [0 1 -1 0 0 0 0];

internalField   nonuniform List<vector> 
25600
(
(2.32225e-07 -2.17332e-07 0)
(2.92534e-06 -1.78768e-06 0)
(9.13565e-06 -2.79873e-06 0)
(1.69116e-05 -3.15576e-06 0)
(2.47786e-05 -3.06584e-06 0)
(3.18011e-05 -2.6895e-06 0)
(3.73354e-05 -2.13053e-06 0)
(4.09355e-05 -1.45755e-06 0)
(4.23065e-05 -7.18191e-07 0)
(4.12528e-05 6.31061e-08 0)
(3.76561e-05 8.62424e-07 0)
(3.14523e-05 1.66831e-06 0)
(2.262e-05 2.47008e-06 0)
(1.11636e-05 3.25846e-06 0)
(-2.88239e-06 4.03158e-06 0)
(-1.94674e-05 4.78175e-06 0)
(-3.85305e-05 5.50819e-06 0)
(-5.9993e-05 6.20915e-06 0)
(-8.37703e-05 6.87914e-06 0)
(-0.000109774 7.51847e-06 0)
(-0.000137903 8.12824e-06 0)
(-0.000168062 8.70667e-06 0)
(-0.000200146 9.25153e-06 0)
(-0.000234048 9.76613e-06 0)
(-0.000269664 1.0247e-05 0)
(-0.000306885 1.06949e-05 0)
(-0.000345603 1.11119e-05 0)
(-0.000385711 1.14985e-05 0)
(-0.000427103 1.18524e-05 0)
(-0.000469669 1.21741e-05 0)
(-0.000513301 1.24662e-05 0)
(-0.000557898 1.27268e-05 0)
(-0.000603353 1.29574e-05 0)
(-0.000649563 1.31606e-05 0)
(-0.000696427 1.33346e-05 0)
(-0.000743847 1.34773e-05 0)
(-0.00079172 1.35911e-05 0)
(-0.000839951 1.36781e-05 0)
(-0.000888445 1.3738e-05 0)
(-0.00093711 1.37722e-05 0)
(-0.000985852 1.37826e-05 0)
(-0.00103458 1.37685e-05 0)
(-0.00108321 1.37283e-05 0)
(-0.00113166 1.36628e-05 0)
(-0.00117984 1.3574e-05 0)
(-0.00122767 1.34628e-05 0)
(-0.00127507 1.33292e-05 0)
(-0.00132196 1.31738e-05 0)
(-0.00136826 1.29978e-05 0)
(-0.00141391 1.28018e-05 0)
(-0.00145883 1.25854e-05 0)
(-0.00150295 1.23494e-05 0)
(-0.00154621 1.20947e-05 0)
(-0.00158853 1.18222e-05 0)
(-0.00162986 1.15322e-05 0)
(-0.00167013 1.1225e-05 0)
(-0.00170929 1.09013e-05 0)
(-0.00174727 1.05622e-05 0)
(-0.00178403 1.02082e-05 0)
(-0.0018195 9.83935e-06 0)
(-0.00185365 9.45623e-06 0)
(-0.00188642 9.06002e-06 0)
(-0.00191776 8.65152e-06 0)
(-0.00194763 8.23095e-06 0)
(-0.001976 7.7986e-06 0)
(-0.00200281 7.35528e-06 0)
(-0.00202803 6.90183e-06 0)
(-0.00205162 6.43877e-06 0)
(-0.00207356 5.96643e-06 0)
(-0.00209381 5.48532e-06 0)
(-0.00211235 4.99638e-06 0)
(-0.00212913 4.50051e-06 0)
(-0.00214415 3.99816e-06 0)
(-0.00215738 3.48973e-06 0)
(-0.0021688 2.97591e-06 0)
(-0.00217839 2.45755e-06 0)
(-0.00218613 1.93535e-06 0)
(-0.00219202 1.40977e-06 0)
(-0.00219604 8.81363e-07 0)
(-0.00219819 3.50852e-07 0)
(-0.00219846 -1.80997e-07 0)
(-0.00219684 -7.1332e-07 0)
(-0.00219334 -1.24526e-06 0)
(-0.00218796 -1.77626e-06 0)
(-0.0021807 -2.30589e-06 0)
(-0.00217157 -2.83347e-06 0)
(-0.00216058 -3.35811e-06 0)
(-0.00214774 -3.87899e-06 0)
(-0.00213307 -4.39541e-06 0)
(-0.00211658 -4.90667e-06 0)
(-0.00209829 -5.41202e-06 0)
(-0.00207823 -5.91056e-06 0)
(-0.00205642 -6.40149e-06 0)
(-0.00203288 -6.88412e-06 0)
(-0.00200766 -7.35786e-06 0)
(-0.00198078 -7.82201e-06 0)
(-0.00195228 -8.27578e-06 0)
(-0.0019222 -8.71817e-06 0)
(-0.00189058 -9.14825e-06 0)
(-0.00185746 -9.56537e-06 0)
(-0.0018229 -9.96907e-06 0)
(-0.00178693 -1.03586e-05 0)
(-0.00174962 -1.07329e-05 0)
(-0.00171102 -1.1091e-05 0)
(-0.00167118 -1.14325e-05 0)
(-0.00163018 -1.17566e-05 0)
(-0.00158806 -1.20627e-05 0)
(-0.00154489 -1.235e-05 0)
(-0.00150075 -1.26176e-05 0)
(-0.00145571 -1.28646e-05 0)
(-0.00140984 -1.30903e-05 0)
(-0.00136321 -1.32942e-05 0)
(-0.0013159 -1.34756e-05 0)
(-0.001268 -1.36339e-05 0)
(-0.00121958 -1.37683e-05 0)
(-0.00117074 -1.38779e-05 0)
(-0.00112155 -1.39623e-05 0)
(-0.00107212 -1.40209e-05 0)
(-0.00102253 -1.40533e-05 0)
(-0.000972869 -1.40588e-05 0)
(-0.000923241 -1.40365e-05 0)
(-0.000873742 -1.39859e-05 0)
(-0.000824471 -1.39066e-05 0)
(-0.000775527 -1.37983e-05 0)
(-0.000727013 -1.36605e-05 0)
(-0.000679032 -1.3493e-05 0)
(-0.000631689 -1.32951e-05 0)
(-0.000585088 -1.30667e-05 0)
(-0.000539337 -1.28074e-05 0)
(-0.000494542 -1.25169e-05 0)
(-0.000450811 -1.21952e-05 0)
(-0.00040825 -1.18419e-05 0)
(-0.00036697 -1.14568e-05 0)
(-0.000327077 -1.10398e-05 0)
(-0.000288679 -1.0591e-05 0)
(-0.000251883 -1.01105e-05 0)
(-0.000216794 -9.59873e-06 0)
(-0.000183515 -9.05596e-06 0)
(-0.00015215 -8.48258e-06 0)
(-0.000122795 -7.87918e-06 0)
(-9.55487e-05 -7.24647e-06 0)
(-7.0501e-05 -6.58536e-06 0)
(-4.77389e-05 -5.89722e-06 0)
(-2.73422e-05 -5.18379e-06 0)
(-9.38325e-06 -4.44711e-06 0)
(6.07556e-06 -3.6898e-06 0)
(1.89842e-05 -2.91515e-06 0)
(2.93077e-05 -2.12745e-06 0)
(3.70306e-05 -1.33266e-06 0)
(4.2162e-05 -5.38555e-07 0)
(4.47426e-05 2.44503e-07 0)
(4.48549e-05 1.00208e-06 0)
(4.26368e-05 1.71368e-06 0)
(3.83014e-05 2.34876e-06 0)
(3.21671e-05 2.8608e-06 0)
(2.47e-05 3.17941e-06 0)
(1.65645e-05 3.19967e-06 0)
(8.7117e-06 2.76479e-06 0)
(2.61718e-06 1.68263e-06 0)
(1.16977e-07 1.16545e-07 0)
(1.81604e-06 -2.93359e-06 0)
(9.44035e-06 -9.40599e-06 0)
(2.31246e-05 -1.33217e-05 0)
(3.92215e-05 -1.45781e-05 0)
(5.49447e-05 -1.37981e-05 0)
(6.83094e-05 -1.15323e-05 0)
(7.77937e-05 -8.21928e-06 0)
(8.22479e-05 -4.17668e-06 0)
(8.08445e-05 3.56577e-07 0)
(7.30025e-05 5.20805e-06 0)
(5.83386e-05 1.02526e-05 0)
(3.6623e-05 1.53938e-05 0)
(7.73024e-06 2.05583e-05 0)
(-2.83557e-05 2.56922e-05 0)
(-7.15941e-05 3.07505e-05 0)
(-0.000121883 3.57009e-05 0)
(-0.000179066 4.05187e-05 0)
(-0.000242964 4.51812e-05 0)
(-0.000313362 4.9673e-05 0)
(-0.000390021 5.39811e-05 0)
(-0.00047269 5.80988e-05 0)
(-0.000561099 6.2013e-05 0)
(-0.000654966 6.57275e-05 0)
(-0.000754008 6.92297e-05 0)
(-0.00085793 7.25229e-05 0)
(-0.000966429 7.56016e-05 0)
(-0.00107921 7.84694e-05 0)
(-0.00119597 8.11222e-05 0)
(-0.0013164 8.35629e-05 0)
(-0.00144021 8.57926e-05 0)
(-0.00156708 8.78111e-05 0)
(-0.00169673 8.96202e-05 0)
(-0.00182884 9.12252e-05 0)
(-0.00196314 9.2628e-05 0)
(-0.00209932 9.38303e-05 0)
(-0.0022371 9.48348e-05 0)
(-0.0023762 9.56452e-05 0)
(-0.00251634 9.62637e-05 0)
(-0.00265723 9.66933e-05 0)
(-0.00279863 9.69398e-05 0)
(-0.00294025 9.70079e-05 0)
(-0.00308185 9.68999e-05 0)
(-0.00322316 9.66189e-05 0)
(-0.00336393 9.6169e-05 0)
(-0.00350394 9.55542e-05 0)
(-0.00364292 9.4778e-05 0)
(-0.00378067 9.38446e-05 0)
(-0.00391694 9.27585e-05 0)
(-0.00405152 9.15243e-05 0)
(-0.0041842 9.01455e-05 0)
(-0.00431476 8.86257e-05 0)
(-0.004443 8.69692e-05 0)
(-0.00456873 8.51805e-05 0)
(-0.00469176 8.32638e-05 0)
(-0.00481189 8.12226e-05 0)
(-0.00492896 7.90613e-05 0)
(-0.00504279 7.67844e-05 0)
(-0.00515321 7.43964e-05 0)
(-0.00526006 7.19012e-05 0)
(-0.00536319 6.93025e-05 0)
(-0.00546246 6.66051e-05 0)
(-0.00555771 6.38136e-05 0)
(-0.00564882 6.09323e-05 0)
(-0.00573565 5.79649e-05 0)
(-0.00581809 5.49158e-05 0)
(-0.00589601 5.17899e-05 0)
(-0.00596931 4.85913e-05 0)
(-0.00603789 4.53239e-05 0)
(-0.00610164 4.19918e-05 0)
(-0.00616048 3.85997e-05 0)
(-0.00621432 3.51524e-05 0)
(-0.00626308 3.16547e-05 0)
(-0.00630669 2.81106e-05 0)
(-0.0063451 2.45246e-05 0)
(-0.00637823 2.09016e-05 0)
(-0.00640605 1.72465e-05 0)
(-0.00642851 1.35638e-05 0)
(-0.00644556 9.85786e-06 0)
(-0.00645719 6.13349e-06 0)
(-0.00646336 2.39554e-06 0)
(-0.00646406 -1.35103e-06 0)
(-0.00645929 -5.10117e-06 0)
(-0.00644904 -8.84968e-06 0)
(-0.00643332 -1.25917e-05 0)
(-0.00641214 -1.63224e-05 0)
(-0.00638553 -2.00369e-05 0)
(-0.0063535 -2.37297e-05 0)
(-0.0063161 -2.73958e-05 0)
(-0.00627337 -3.103e-05 0)
(-0.00622536 -3.4627e-05 0)
(-0.00617213 -3.81814e-05 0)
(-0.00611375 -4.16879e-05 0)
(-0.00605029 -4.51408e-05 0)
(-0.00598183 -4.8535e-05 0)
(-0.00590847 -5.18653e-05 0)
(-0.00583029 -5.51267e-05 0)
(-0.00574742 -5.83135e-05 0)
(-0.00565995 -6.14199e-05 0)
(-0.00556801 -6.44403e-05 0)
(-0.00547174 -6.73696e-05 0)
(-0.00537127 -7.02026e-05 0)
(-0.00526674 -7.2934e-05 0)
(-0.0051583 -7.5558e-05 0)
(-0.00504613 -7.80693e-05 0)
(-0.00493038 -8.04626e-05 0)
(-0.00481123 -8.2733e-05 0)
(-0.00468888 -8.48755e-05 0)
(-0.00456349 -8.68845e-05 0)
(-0.00443529 -8.87546e-05 0)
(-0.00430447 -9.04806e-05 0)
(-0.00417124 -9.20577e-05 0)
(-0.00403583 -9.34812e-05 0)
(-0.00389846 -9.47466e-05 0)
(-0.00375938 -9.5849e-05 0)
(-0.00361881 -9.67836e-05 0)
(-0.003477 -9.7546e-05 0)
(-0.00333422 -9.81322e-05 0)
(-0.00319072 -9.85381e-05 0)
(-0.00304676 -9.87599e-05 0)
(-0.00290261 -9.87935e-05 0)
(-0.00275855 -9.86349e-05 0)
(-0.00261487 -9.82808e-05 0)
(-0.00247184 -9.77283e-05 0)
(-0.00232975 -9.69746e-05 0)
(-0.0021889 -9.60171e-05 0)
(-0.00204959 -9.48535e-05 0)
(-0.00191211 -9.34814e-05 0)
(-0.00177676 -9.1899e-05 0)
(-0.00164385 -9.0105e-05 0)
(-0.00151369 -8.80984e-05 0)
(-0.00138658 -8.58785e-05 0)
(-0.00126282 -8.34447e-05 0)
(-0.00114272 -8.07968e-05 0)
(-0.00102659 -7.79356e-05 0)
(-0.00091473 -7.48626e-05 0)
(-0.000807433 -7.15802e-05 0)
(-0.000704996 -6.80916e-05 0)
(-0.000607707 -6.44005e-05 0)
(-0.000515844 -6.05117e-05 0)
(-0.00042968 -5.64313e-05 0)
(-0.000349472 -5.21671e-05 0)
(-0.000275465 -4.77288e-05 0)
(-0.000207886 -4.31284e-05 0)
(-0.000146941 -3.83808e-05 0)
(-9.28099e-05 -3.35041e-05 0)
(-4.56402e-05 -2.85204e-05 0)
(-5.54119e-06 -2.3458e-05 0)
(2.74263e-05 -1.83522e-05 0)
(5.32606e-05 -1.32476e-05 0)
(7.20335e-05 -8.20145e-06 0)
(8.39101e-05 -3.28705e-06 0)
(8.91732e-05 1.3993e-06 0)
(8.82553e-05 5.72919e-06 0)
(8.17815e-05 9.52938e-06 0)
(7.06252e-05 1.25633e-05 0)
(5.59751e-05 1.45105e-05 0)
(3.93855e-05 1.49472e-05 0)
(2.28372e-05 1.33333e-05 0)
(9.10265e-06 9.1149e-06 0)
(1.67667e-06 2.61313e-06 0)
(2.82879e-06 -9.16561e-06 0)
(1.33749e-05 -2.31091e-05 0)
(3.09152e-05 -3.08436e-05 0)
(5.05168e-05 -3.28181e-05 0)
(6.86082e-05 -3.01114e-05 0)
(8.26475e-05 -2.37938e-05 0)
(9.05596e-05 -1.4774e-05 0)
(9.07182e-05 -3.78867e-06 0)
(8.18867e-05 8.5885e-06 0)
(6.31752e-05 2.19157e-05 0)
(3.39614e-05 3.58509e-05 0)
(-6.16025e-06 5.01258e-05 0)
(-5.74057e-05 6.45365e-05 0)
(-0.000119866 7.89194e-05 0)
(-0.000193503 9.31431e-05 0)
(-0.000278186 0.000107112 0)
(-0.000373721 0.000120741 0)
(-0.00047984 0.000133967 0)
(-0.000596228 0.00014674 0)
(-0.00072254 0.000159018 0)
(-0.000858387 0.00017077 0)
(-0.00100336 0.000181974 0)
(-0.00115703 0.000192608 0)
(-0.00131895 0.000202658 0)
(-0.00148866 0.000212118 0)
(-0.0016657 0.000220977 0)
(-0.0018496 0.00022923 0)
(-0.00203987 0.000236879 0)
(-0.00223603 0.000243921 0)
(-0.00243761 0.000250357 0)
(-0.00264412 0.000256192 0)
(-0.00285509 0.000261429 0)
(-0.00307003 0.000266075 0)
(-0.00328849 0.000270136 0)
(-0.00350998 0.00027362 0)
(-0.00373406 0.000276534 0)
(-0.00396026 0.000278886 0)
(-0.00418814 0.000280686 0)
(-0.00441724 0.000281941 0)
(-0.00464714 0.000282662 0)
(-0.00487741 0.00028286 0)
(-0.00510763 0.000282546 0)
(-0.00533739 0.00028173 0)
(-0.00556628 0.000280423 0)
(-0.00579392 0.000278637 0)
(-0.0060199 0.000276381 0)
(-0.00624387 0.000273667 0)
(-0.00646545 0.000270507 0)
(-0.00668428 0.000266914 0)
(-0.00690001 0.000262898 0)
(-0.00711231 0.000258471 0)
(-0.00732084 0.000253645 0)
(-0.00752529 0.000248433 0)
(-0.00772534 0.000242846 0)
(-0.00792069 0.000236896 0)
(-0.00811106 0.000230595 0)
(-0.00829616 0.000223956 0)
(-0.00847571 0.000216991 0)
(-0.00864947 0.000209713 0)
(-0.00881718 0.000202132 0)
(-0.00897859 0.000194264 0)
(-0.00913348 0.000186119 0)
(-0.00928162 0.000177712 0)
(-0.00942281 0.000169052 0)
(-0.00955685 0.000160154 0)
(-0.00968355 0.000151031 0)
(-0.00980272 0.000141695 0)
(-0.0099142 0.000132158 0)
(-0.0100178 0.000122433 0)
(-0.0101135 0.000112533 0)
(-0.010201 0.000102472 0)
(-0.0102802 9.22635e-05 0)
(-0.0103511 8.19197e-05 0)
(-0.0104135 7.14544e-05 0)
(-0.0104673 6.08814e-05 0)
(-0.0105125 5.02142e-05 0)
(-0.0105489 3.94664e-05 0)
(-0.0105765 2.86519e-05 0)
(-0.0105954 1.77846e-05 0)
(-0.0106053 6.87876e-06 0)
(-0.0106064 -4.05139e-06 0)
(-0.0105985 -1.49913e-05 0)
(-0.0105818 -2.59263e-05 0)
(-0.0105561 -3.6842e-05 0)
(-0.0105216 -4.77238e-05 0)
(-0.0104782 -5.85568e-05 0)
(-0.010426 -6.93257e-05 0)
(-0.0103651 -8.00152e-05 0)
(-0.0102956 -9.06105e-05 0)
(-0.0102174 -0.000101096 0)
(-0.0101308 -0.000111457 0)
(-0.0100358 -0.000121677 0)
(-0.00993252 -0.000131741 0)
(-0.00982114 -0.000141632 0)
(-0.00970179 -0.000151336 0)
(-0.00957463 -0.000160837 0)
(-0.00943983 -0.000170119 0)
(-0.00929757 -0.000179166 0)
(-0.00914806 -0.000187962 0)
(-0.00899151 -0.000196492 0)
(-0.00882814 -0.000204739 0)
(-0.00865819 -0.000212689 0)
(-0.0084819 -0.000220326 0)
(-0.00829953 -0.000227633 0)
(-0.00811138 -0.000234596 0)
(-0.00791771 -0.000241201 0)
(-0.00771882 -0.00024743 0)
(-0.00751504 -0.000253271 0)
(-0.00730668 -0.000258707 0)
(-0.00709408 -0.000263723 0)
(-0.00687758 -0.000268306 0)
(-0.00665754 -0.000272441 0)
(-0.00643433 -0.000276116 0)
(-0.00620833 -0.000279317 0)
(-0.00597993 -0.00028203 0)
(-0.00574953 -0.000284242 0)
(-0.00551754 -0.000285943 0)
(-0.00528438 -0.000287121 0)
(-0.00505048 -0.000287763 0)
(-0.00481627 -0.00028786 0)
(-0.0045822 -0.000287401 0)
(-0.00434873 -0.000286376 0)
(-0.0041163 -0.000284777 0)
(-0.0038854 -0.000282597 0)
(-0.00365648 -0.000279827 0)
(-0.00343004 -0.000276463 0)
(-0.00320653 -0.000272497 0)
(-0.00298646 -0.000267926 0)
(-0.00277031 -0.000262747 0)
(-0.00255856 -0.000256956 0)
(-0.00235171 -0.000250554 0)
(-0.00215024 -0.00024354 0)
(-0.00195464 -0.000235915 0)
(-0.00176539 -0.000227684 0)
(-0.00158296 -0.000218851 0)
(-0.00140784 -0.000209426 0)
(-0.00124048 -0.00019942 0)
(-0.00108133 -0.000188844 0)
(-0.000930821 -0.000177717 0)
(-0.000789381 -0.000166059 0)
(-0.000657403 -0.000153895 0)
(-0.000535259 -0.000141257 0)
(-0.000423292 -0.000128184 0)
(-0.000321803 -0.000114723 0)
(-0.000231054 -0.00010093 0)
(-0.000151249 -8.68748e-05 0)
(-8.25288e-05 -7.26443e-05 0)
(-2.49543e-05 -5.83448e-05 0)
(2.15098e-05 -4.41088e-05 0)
(5.70158e-05 -3.01019e-05 0)
(8.18603e-05 -1.65332e-05 0)
(9.65176e-05 -3.66898e-06 0)
(0.00010168 8.1492e-06 0)
(9.83083e-05 1.84813e-05 0)
(8.76898e-05 2.6761e-05 0)
(7.15061e-05 3.22696e-05 0)
(5.18555e-05 3.41242e-05 0)
(3.12795e-05 3.13043e-05 0)
(1.33063e-05 2.28419e-05 0)
(2.75153e-06 8.69231e-06 0)
(3.18725e-06 -1.69811e-05 0)
(1.46507e-05 -3.92574e-05 0)
(3.29536e-05 -5.04589e-05 0)
(5.22664e-05 -5.20998e-05 0)
(6.85195e-05 -4.58842e-05 0)
(7.88076e-05 -3.34547e-05 0)
(8.07348e-05 -1.62449e-05 0)
(7.23543e-05 4.54211e-06 0)
(5.21669e-05 2.79396e-05 0)
(1.90441e-05 5.31691e-05 0)
(-2.78269e-05 7.96103e-05 0)
(-8.89821e-05 0.000106776 0)
(-0.000164752 0.000134269 0)
(-0.000255277 0.000161777 0)
(-0.000360544 0.000189054 0)
(-0.000480427 0.000215891 0)
(-0.000614686 0.000242128 0)
(-0.000763003 0.00026764 0)
(-0.000924993 0.000292313 0)
(-0.00110021 0.000316069 0)
(-0.00128816 0.00033884 0)
(-0.00148832 0.000360573 0)
(-0.00170013 0.000381222 0)
(-0.00192301 0.000400766 0)
(-0.00215636 0.000419171 0)
(-0.00239955 0.000436425 0)
(-0.00265197 0.000452515 0)
(-0.00291298 0.000467434 0)
(-0.00318193 0.000481179 0)
(-0.00345819 0.000493751 0)
(-0.00374111 0.000505155 0)
(-0.00403005 0.000515397 0)
(-0.00432436 0.000524487 0)
(-0.00462342 0.000532436 0)
(-0.0049266 0.000539256 0)
(-0.00523326 0.000544961 0)
(-0.00554279 0.000549568 0)
(-0.00585459 0.000553092 0)
(-0.00616805 0.000555551 0)
(-0.00648259 0.000556963 0)
(-0.00679761 0.000557348 0)
(-0.00711255 0.000556726 0)
(-0.00742685 0.000555117 0)
(-0.00773996 0.000552543 0)
(-0.00805135 0.000549025 0)
(-0.00836048 0.000544584 0)
(-0.00866684 0.000539241 0)
(-0.00896994 0.000533021 0)
(-0.00926928 0.000525945 0)
(-0.00956438 0.000518036 0)
(-0.00985478 0.000509317 0)
(-0.01014 0.000499813 0)
(-0.0104197 0.000489546 0)
(-0.0106933 0.000478539 0)
(-0.0109606 0.000466816 0)
(-0.011221 0.000454402 0)
(-0.0114742 0.00044132 0)
(-0.0117198 0.000427595 0)
(-0.0119575 0.00041325 0)
(-0.0121869 0.000398311 0)
(-0.0124076 0.000382802 0)
(-0.0126195 0.000366748 0)
(-0.0128221 0.000350174 0)
(-0.0130152 0.000333104 0)
(-0.0131986 0.000315563 0)
(-0.0133718 0.000297577 0)
(-0.0135348 0.00027917 0)
(-0.0136873 0.000260367 0)
(-0.013829 0.000241195 0)
(-0.0139597 0.000221678 0)
(-0.0140794 0.000201843 0)
(-0.0141877 0.000181716 0)
(-0.0142846 0.000161324 0)
(-0.0143698 0.000140693 0)
(-0.0144434 0.00011985 0)
(-0.0145051 9.88217e-05 0)
(-0.0145548 7.76351e-05 0)
(-0.0145925 5.63175e-05 0)
(-0.0146182 3.48967e-05 0)
(-0.0146317 1.34008e-05 0)
(-0.014633 -8.14172e-06 0)
(-0.0146222 -2.97021e-05 0)
(-0.0145991 -5.12518e-05 0)
(-0.0145639 -7.27624e-05 0)
(-0.0145166 -9.42049e-05 0)
(-0.0144571 -0.00011555 0)
(-0.0143857 -0.000136767 0)
(-0.0143023 -0.000157827 0)
(-0.014207 -0.0001787 0)
(-0.0141 -0.000199355 0)
(-0.0139814 -0.000219762 0)
(-0.0138514 -0.000239891 0)
(-0.0137101 -0.00025971 0)
(-0.0135576 -0.000279188 0)
(-0.0133943 -0.000298296 0)
(-0.0132204 -0.000317003 0)
(-0.0130359 -0.000335276 0)
(-0.0128413 -0.000353085 0)
(-0.0126368 -0.0003704 0)
(-0.0124227 -0.000387188 0)
(-0.0121992 -0.000403419 0)
(-0.0119668 -0.000419063 0)
(-0.0117257 -0.000434089 0)
(-0.0114763 -0.000448465 0)
(-0.011219 -0.000462164 0)
(-0.0109542 -0.000475154 0)
(-0.0106822 -0.000487406 0)
(-0.0104036 -0.000498891 0)
(-0.0101187 -0.000509579 0)
(-0.00982805 -0.000519441 0)
(-0.00953206 -0.000528451 0)
(-0.00923124 -0.000536582 0)
(-0.0089261 -0.000543806 0)
(-0.00861714 -0.000550097 0)
(-0.0083049 -0.00055543 0)
(-0.00798993 -0.000559781 0)
(-0.00767279 -0.000563127 0)
(-0.00735404 -0.000565445 0)
(-0.00703427 -0.000566714 0)
(-0.00671407 -0.000566913 0)
(-0.00639405 -0.000566022 0)
(-0.00607481 -0.000564023 0)
(-0.00575699 -0.000560902 0)
(-0.00544122 -0.000556642 0)
(-0.00512812 -0.000551231 0)
(-0.00481836 -0.000544656 0)
(-0.00451256 -0.000536908 0)
(-0.0042114 -0.00052798 0)
(-0.00391553 -0.000517866 0)
(-0.00362559 -0.000506563 0)
(-0.00334226 -0.00049407 0)
(-0.00306618 -0.00048039 0)
(-0.002798 -0.000465528 0)
(-0.00253837 -0.000449492 0)
(-0.00228793 -0.000432297 0)
(-0.0020473 -0.000413961 0)
(-0.00181709 -0.000394508 0)
(-0.00159789 -0.000373967 0)
(-0.00139028 -0.000352375 0)
(-0.0011948 -0.000329774 0)
(-0.00101198 -0.000306222 0)
(-0.000842278 -0.000281783 0)
(-0.00068614 -0.000256537 0)
(-0.000543946 -0.000230581 0)
(-0.000416014 -0.000204031 0)
(-0.000302589 -0.000177028 0)
(-0.000203825 -0.000149746 0)
(-0.00011977 -0.000122394 0)
(-5.03442e-05 -9.52314e-05 0)
(4.68335e-06 -6.85755e-05 0)
(4.57279e-05 -4.28208e-05 0)
(7.34245e-05 -1.84586e-05 0)
(8.86695e-05 3.89747e-06 0)
(9.26698e-05 2.3481e-05 0)
(8.69994e-05 3.93404e-05 0)
(7.36568e-05 5.03116e-05 0)
(5.50753e-05 5.50123e-05 0)
(3.41507e-05 5.18869e-05 0)
(1.49356e-05 3.93886e-05 0)
(3.18623e-06 1.65252e-05 0)
(3.10246e-06 -2.48937e-05 0)
(1.3902e-05 -5.50607e-05 0)
(3.03452e-05 -6.86302e-05 0)
(4.62449e-05 -6.83854e-05 0)
(5.72293e-05 -5.68108e-05 0)
(6.01832e-05 -3.61636e-05 0)
(5.25028e-05 -8.42933e-06 0)
(3.20671e-05 2.47197e-05 0)
(-2.80369e-06 6.18945e-05 0)
(-5.33956e-05 0.000101956 0)
(-0.000120643 0.000143981 0)
(-0.000205207 0.000187214 0)
(-0.000307487 0.000231046 0)
(-0.000427674 0.000274983 0)
(-0.000565791 0.00031862 0)
(-0.000721704 0.00036163 0)
(-0.000895154 0.000403748 0)
(-0.00108579 0.000444752 0)
(-0.00129315 0.000484469 0)
(-0.00151673 0.000522756 0)
(-0.00175594 0.000559496 0)
(-0.00201016 0.000594598 0)
(-0.00227872 0.000627989 0)
(-0.00256092 0.000659612 0)
(-0.00285603 0.000689421 0)
(-0.00316329 0.000717385 0)
(-0.00348196 0.000743481 0)
(-0.00381125 0.000767691 0)
(-0.00415037 0.00079001 0)
(-0.00449854 0.000810435 0)
(-0.00485497 0.00082897 0)
(-0.00521885 0.000845625 0)
(-0.0055894 0.000860411 0)
(-0.00596584 0.000873344 0)
(-0.00634738 0.000884443 0)
(-0.00673324 0.000893728 0)
(-0.00712267 0.000901223 0)
(-0.00751489 0.000906953 0)
(-0.00790917 0.000910946 0)
(-0.00830476 0.000913233 0)
(-0.00870094 0.000913843 0)
(-0.009097 0.000912806 0)
(-0.00949223 0.000910156 0)
(-0.00988595 0.000905928 0)
(-0.0102775 0.000900154 0)
(-0.0106662 0.000892869 0)
(-0.0110514 0.00088411 0)
(-0.0114325 0.000873912 0)
(-0.0118088 0.000862312 0)
(-0.0121799 0.000849346 0)
(-0.012545 0.000835054 0)
(-0.0129036 0.000819472 0)
(-0.0132552 0.00080264 0)
(-0.0135993 0.000784594 0)
(-0.0139353 0.000765374 0)
(-0.0142626 0.000745019 0)
(-0.014581 0.000723569 0)
(-0.0148898 0.000701063 0)
(-0.0151886 0.00067754 0)
(-0.0154769 0.000653041 0)
(-0.0157545 0.000627607 0)
(-0.0160208 0.000601278 0)
(-0.0162756 0.000574094 0)
(-0.0165183 0.000546097 0)
(-0.0167487 0.000517327 0)
(-0.0169665 0.000487826 0)
(-0.0171714 0.000457635 0)
(-0.017363 0.000426794 0)
(-0.0175411 0.000395347 0)
(-0.0177054 0.000363335 0)
(-0.0178557 0.000330802 0)
(-0.0179918 0.00029779 0)
(-0.0181135 0.000264343 0)
(-0.0182206 0.000230506 0)
(-0.018313 0.000196321 0)
(-0.0183904 0.000161833 0)
(-0.0184528 0.000127087 0)
(-0.0185002 9.21273e-05 0)
(-0.0185323 5.69997e-05 0)
(-0.0185491 2.17503e-05 0)
(-0.0185507 -1.35742e-05 0)
(-0.0185369 -4.89268e-05 0)
(-0.0185078 -8.42604e-05 0)
(-0.0184635 -0.000119528 0)
(-0.0184038 -0.000154682 0)
(-0.018329 -0.000189673 0)
(-0.018239 -0.000224454 0)
(-0.018134 -0.000258975 0)
(-0.0180142 -0.000293187 0)
(-0.0178795 -0.000327041 0)
(-0.0177304 -0.000360486 0)
(-0.0175668 -0.000393472 0)
(-0.0173891 -0.000425948 0)
(-0.0171974 -0.000457866 0)
(-0.016992 -0.000489173 0)
(-0.0167732 -0.000519821 0)
(-0.0165414 -0.000549757 0)
(-0.0162967 -0.00057893 0)
(-0.0160396 -0.000607291 0)
(-0.0157704 -0.000634788 0)
(-0.0154895 -0.000661372 0)
(-0.0151973 -0.000686991 0)
(-0.0148943 -0.000711595 0)
(-0.0145808 -0.000735136 0)
(-0.0142574 -0.000757564 0)
(-0.0139246 -0.000778831 0)
(-0.0135828 -0.000798889 0)
(-0.0132327 -0.000817689 0)
(-0.0128747 -0.000835184 0)
(-0.0125094 -0.000851328 0)
(-0.0121374 -0.000866077 0)
(-0.0117594 -0.000879386 0)
(-0.011376 -0.000891212 0)
(-0.0109877 -0.000901513 0)
(-0.0105954 -0.000910247 0)
(-0.0101996 -0.000917377 0)
(-0.00980101 -0.000922864 0)
(-0.00940043 -0.000926673 0)
(-0.00899855 -0.000928769 0)
(-0.0085961 -0.000929119 0)
(-0.00819386 -0.000927692 0)
(-0.00779256 -0.00092446 0)
(-0.00739301 -0.000919399 0)
(-0.00699597 -0.000912485 0)
(-0.00660224 -0.000903696 0)
(-0.00621263 -0.000893016 0)
(-0.00582794 -0.00088043 0)
(-0.00544899 -0.000865927 0)
(-0.00507657 -0.000849501 0)
(-0.00471151 -0.000831148 0)
(-0.00435462 -0.00081087 0)
(-0.00400671 -0.000788672 0)
(-0.00366856 -0.000764567 0)
(-0.00334099 -0.000738572 0)
(-0.00302475 -0.000710713 0)
(-0.00272063 -0.000681023 0)
(-0.00242936 -0.000649544 0)
(-0.00215167 -0.000616328 0)
(-0.00188824 -0.000581439 0)
(-0.00163974 -0.000544954 0)
(-0.00140678 -0.000506969 0)
(-0.00118993 -0.000467596 0)
(-0.0009897 -0.000426969 0)
(-0.000806536 -0.000385252 0)
(-0.000640801 -0.000342639 0)
(-0.000492766 -0.000299364 0)
(-0.000362594 -0.000255709 0)
(-0.000250315 -0.000212015 0)
(-0.000155808 -0.000168697 0)
(-7.87748e-05 -0.000126254 0)
(-1.87033e-05 -8.53e-05 0)
(2.51632e-05 -4.65831e-05 0)
(5.38692e-05 -1.10196e-05 0)
(6.87905e-05 2.02732e-05 0)
(7.16861e-05 4.59403e-05 0)
(6.47507e-05 6.43597e-05 0)
(5.06248e-05 7.3631e-05 0)
(3.24373e-05 7.16095e-05 0)
(1.45524e-05 5.60212e-05 0)
(3.17442e-06 2.46567e-05 0)
(2.733e-06 -3.19803e-05 0)
(1.16962e-05 -6.85777e-05 0)
(2.41976e-05 -8.28483e-05 0)
(3.41197e-05 -7.88298e-05 0)
(3.70378e-05 -5.98238e-05 0)
(2.97103e-05 -2.8752e-05 0)
(9.44301e-06 1.18566e-05 0)
(-2.59849e-05 5.98428e-05 0)
(-7.83481e-05 0.000113393 0)
(-0.000149016 0.000171005 0)
(-0.000239022 0.000231424 0)
(-0.000349086 0.000293619 0)
(-0.000479665 0.000356743 0)
(-0.000630998 0.000420091 0)
(-0.000803115 0.00048309 0)
(-0.000995886 0.000545264 0)
(-0.00120904 0.000606223 0)
(-0.00144219 0.000665646 0)
(-0.00169483 0.000723268 0)
(-0.00196638 0.000778872 0)
(-0.00225619 0.000832286 0)
(-0.00256355 0.000883364 0)
(-0.00288769 0.000931995 0)
(-0.00322781 0.000978083 0)
(-0.00358306 0.00102156 0)
(-0.0039526 0.00106238 0)
(-0.00433551 0.00110048 0)
(-0.00473091 0.00113586 0)
(-0.00513787 0.00116849 0)
(-0.00555548 0.00119836 0)
(-0.0059828 0.00122548 0)
(-0.0064189 0.00124985 0)
(-0.00686286 0.00127149 0)
(-0.00731375 0.00129042 0)
(-0.00777064 0.00130667 0)
(-0.00823261 0.00132026 0)
(-0.00869878 0.00133123 0)
(-0.00916822 0.00133961 0)
(-0.00964006 0.00134543 0)
(-0.0101134 0.00134875 0)
(-0.0105875 0.0013496 0)
(-0.0110613 0.00134803 0)
(-0.0115341 0.00134409 0)
(-0.0120051 0.00133782 0)
(-0.0124735 0.00132927 0)
(-0.0129384 0.0013185 0)
(-0.0133992 0.00130555 0)
(-0.013855 0.00129048 0)
(-0.0143052 0.00127335 0)
(-0.0147489 0.0012542 0)
(-0.0151856 0.00123309 0)
(-0.0156145 0.00121008 0)
(-0.016035 0.00118522 0)
(-0.0164465 0.00115856 0)
(-0.0168483 0.00113018 0)
(-0.0172398 0.00110012 0)
(-0.0176204 0.00106844 0)
(-0.0179897 0.00103519 0)
(-0.018347 0.00100045 0)
(-0.0186919 0.000964268 0)
(-0.0190238 0.000926701 0)
(-0.0193422 0.000887811 0)
(-0.0196468 0.000847658 0)
(-0.0199371 0.000806302 0)
(-0.0202126 0.000763805 0)
(-0.020473 0.000720227 0)
(-0.0207179 0.000675629 0)
(-0.0209469 0.000630072 0)
(-0.0211598 0.000583619 0)
(-0.0213562 0.000536334 0)
(-0.0215359 0.000488278 0)
(-0.0216986 0.000439516 0)
(-0.021844 0.000390113 0)
(-0.0219719 0.000340133 0)
(-0.0220822 0.000289641 0)
(-0.0221747 0.000238702 0)
(-0.0222493 0.000187384 0)
(-0.0223057 0.000135752 0)
(-0.022344 8.3874e-05 0)
(-0.022364 3.18182e-05 0)
(-0.0223657 -2.03464e-05 0)
(-0.0223491 -7.25506e-05 0)
(-0.0223142 -0.000124725 0)
(-0.022261 -0.0001768 0)
(-0.0221896 -0.000228704 0)
(-0.0220999 -0.000280365 0)
(-0.0219922 -0.000331713 0)
(-0.0218666 -0.000382676 0)
(-0.0217231 -0.000433179 0)
(-0.021562 -0.00048315 0)
(-0.0213836 -0.000532516 0)
(-0.0211879 -0.000581201 0)
(-0.0209753 -0.000629132 0)
(-0.020746 -0.000676236 0)
(-0.0205004 -0.000722437 0)
(-0.0202387 -0.000767661 0)
(-0.0199614 -0.000811832 0)
(-0.0196688 -0.000854877 0)
(-0.0193614 -0.000896719 0)
(-0.0190395 -0.000937286 0)
(-0.0187036 -0.000976502 0)
(-0.0183543 -0.00101429 0)
(-0.017992 -0.00105059 0)
(-0.0176172 -0.00108531 0)
(-0.0172306 -0.00111839 0)
(-0.0168327 -0.00114976 0)
(-0.0164242 -0.00117934 0)
(-0.0160056 -0.00120707 0)
(-0.0155776 -0.00123287 0)
(-0.0151409 -0.00125668 0)
(-0.0146963 -0.00127844 0)
(-0.0142444 -0.00129807 0)
(-0.013786 -0.00131552 0)
(-0.0133219 -0.00133072 0)
(-0.0128528 -0.00134362 0)
(-0.0123796 -0.00135415 0)
(-0.0119031 -0.00136227 0)
(-0.0114242 -0.00136792 0)
(-0.0109437 -0.00137105 0)
(-0.0104624 -0.00137162 0)
(-0.00998137 -0.00136958 0)
(-0.00950141 -0.00136489 0)
(-0.00902347 -0.00135751 0)
(-0.00854847 -0.00134742 0)
(-0.00807735 -0.00133458 0)
(-0.00761106 -0.00131897 0)
(-0.00715055 -0.00130057 0)
(-0.00669678 -0.00127937 0)
(-0.0062507 -0.00125535 0)
(-0.00581326 -0.00122853 0)
(-0.00538544 -0.00119889 0)
(-0.00496816 -0.00116646 0)
(-0.00456236 -0.00113126 0)
(-0.00416898 -0.00109331 0)
(-0.00378892 -0.00105266 0)
(-0.00342306 -0.00100937 0)
(-0.00307228 -0.000963483 0)
(-0.00273741 -0.0009151 0)
(-0.00241924 -0.000864315 0)
(-0.00211853 -0.000811248 0)
(-0.00183599 -0.000756043 0)
(-0.00157226 -0.000698873 0)
(-0.00132792 -0.000639941 0)
(-0.00110345 -0.00057949 0)
(-0.000899277 -0.000517808 0)
(-0.000715677 -0.000455242 0)
(-0.000552822 -0.000392203 0)
(-0.000410727 -0.000329184 0)
(-0.00028924 -0.000266774 0)
(-0.000188011 -0.000205681 0)
(-0.00010646 -0.000146756 0)
(-4.37459e-05 -9.10254e-05 0)
(1.27328e-06 -3.97219e-05 0)
(3.00782e-05 5.67519e-06 0)
(4.45357e-05 4.34024e-05 0)
(4.69483e-05 7.1375e-05 0)
(4.00705e-05 8.7163e-05 0)
(2.71647e-05 8.79963e-05 0)
(1.26975e-05 7.08076e-05 0)
(2.8724e-06 3.21577e-05 0)
(2.18931e-06 -3.76165e-05 0)
(8.47241e-06 -7.83145e-05 0)
(1.54096e-05 -9.10904e-05 0)
(1.73262e-05 -8.10757e-05 0)
(9.90259e-06 -5.23813e-05 0)
(-1.01096e-05 -8.57059e-06 0)
(-4.54249e-05 4.72696e-05 0)
(-9.82902e-05 0.000112512 0)
(-0.0001705 0.000184925 0)
(-0.000263477 0.000262627 0)
(-0.000378283 0.000344041 0)
(-0.000515678 0.000427851 0)
(-0.000676159 0.000512947 0)
(-0.000859968 0.000598417 0)
(-0.00106715 0.000683493 0)
(-0.00129759 0.000767538 0)
(-0.00155097 0.000850022 0)
(-0.00182688 0.000930509 0)
(-0.00212478 0.00100863 0)
(-0.00244404 0.00108408 0)
(-0.00278393 0.00115663 0)
(-0.00314367 0.00122606 0)
(-0.00352242 0.0012922 0)
(-0.00391927 0.00135494 0)
(-0.00433328 0.00141416 0)
(-0.0047635 0.00146978 0)
(-0.00520891 0.00152174 0)
(-0.00566849 0.00157 0)
(-0.00614123 0.00161452 0)
(-0.00662607 0.0016553 0)
(-0.00712195 0.00169233 0)
(-0.00762782 0.00172562 0)
(-0.00814262 0.00175519 0)
(-0.0086653 0.00178105 0)
(-0.00919481 0.00180324 0)
(-0.00973009 0.0018218 0)
(-0.0102701 0.00183676 0)
(-0.0108139 0.00184817 0)
(-0.0113603 0.00185609 0)
(-0.0119084 0.00186056 0)
(-0.0124573 0.00186165 0)
(-0.0130058 0.00185941 0)
(-0.0135532 0.00185391 0)
(-0.0140984 0.00184521 0)
(-0.0146405 0.00183338 0)
(-0.0151786 0.00181849 0)
(-0.0157118 0.00180061 0)
(-0.0162393 0.0017798 0)
(-0.0167603 0.00175615 0)
(-0.0172738 0.00172972 0)
(-0.0177791 0.00170059 0)
(-0.0182754 0.00166884 0)
(-0.018762 0.00163454 0)
(-0.019238 0.00159777 0)
(-0.0197029 0.00155861 0)
(-0.0201559 0.00151714 0)
(-0.0205963 0.00147344 0)
(-0.0210235 0.00142758 0)
(-0.0214369 0.00137966 0)
(-0.0218359 0.00132974 0)
(-0.0222198 0.00127792 0)
(-0.0225882 0.00122427 0)
(-0.0229406 0.00116888 0)
(-0.0232763 0.00111183 0)
(-0.023595 0.0010532 0)
(-0.0238962 0.000993081 0)
(-0.0241795 0.000931556 0)
(-0.0244444 0.000868709 0)
(-0.0246906 0.000804628 0)
(-0.0249177 0.000739397 0)
(-0.0251255 0.000673105 0)
(-0.0253136 0.000605841 0)
(-0.0254817 0.000537692 0)
(-0.0256296 0.000468749 0)
(-0.0257571 0.000399102 0)
(-0.0258639 0.00032884 0)
(-0.02595 0.000258057 0)
(-0.0260152 0.000186843 0)
(-0.0260593 0.000115292 0)
(-0.0260823 4.34989e-05 0)
(-0.0260842 -2.84418e-05 0)
(-0.0260649 -0.000100435 0)
(-0.0260243 -0.000172384 0)
(-0.0259626 -0.000244192 0)
(-0.0258798 -0.000315762 0)
(-0.025776 -0.000386995 0)