0.05 	0.0003125 	0.005 	0.0325925
0.05 	0.0009375 	0.005 	0.0326353
0.05 	0.0015625 	0.005 	0.0326701
0.05 	0.0021875 	0.005 	0.0326994
0.05 	0.0028125 	0.005 	0.0327263
0.05 	0.0034375 	0.005 	0.0327506
0.05 	0.0040625 	0.005 	0.032772
0.05 	0.0046875 	0.005 	0.0327905
0.05 	0.0053125 	0.005 	0.032806
0.05 	0.0059375 	0.005 	0.0328183
0.05 	0.0065625 	0.005 	0.0328273
0.05 	0.0071875 	0.005 	0.032833
0.05 	0.0078125 	0.005 	0.032835
0.05 	0.0084375 	0.005 	0.0328332
0.05 	0.0090625 	0.005 	0.0328273
0.05 	0.0096875 	0.005 	0.0328173
0.05 	0.0103125 	0.005 	0.0328027
0.05 	0.0109375 	0.005 	0.0327835
0.05 	0.0115625 	0.005 	0.0327592
0.05 	0.0121875 	0.005 	0.0327297
0.05 	0.0128125 	0.005 	0.0326946
0.05 	0.0134375 	0.005 	0.0326536
0.05 	0.0140625 	0.005 	0.0326065
0.05 	0.0146875 	0.005 	0.0325528
0.05 	0.0153125 	0.005 	0.0324923
0.05 	0.0159375 	0.005 	0.0324246
0.05 	0.0165625 	0.005 	0.0323492
0.05 	0.0171875 	0.005 	0.0322659
0.05 	0.0178125 	0.005 	0.0321741
0.05 	0.0184375 	0.005 	0.0320736
0.05 	0.0190625 	0.005 	0.0319638
0.05 	0.0196875 	0.005 	0.0318444
0.05 	0.0203125 	0.005 	0.0317147
0.05 	0.0209375 	0.005 	0.0315745
0.05 	0.0215625 	0.005 	0.0314231
0.05 	0.0221875 	0.005 	0.0312601
0.05 	0.0228125 	0.005 	0.031085
0.05 	0.0234375 	0.005 	0.0308971
0.05 	0.0240625 	0.005 	0.030696
0.05 	0.0246875 	0.005 	0.0304811
0.05 	0.0253125 	0.005 	0.0302517
0.05 	0.0259375 	0.005 	0.0300073
0.05 	0.0265625 	0.005 	0.0297473
0.05 	0.0271875 	0.005 	0.0294709
0.05 	0.0278125 	0.005 	0.0291776
0.05 	0.0284375 	0.005 	0.0288666
0.05 	0.0290625 	0.005 	0.0285373
0.05 	0.0296875 	0.005 	0.028189
0.05 	0.0303125 	0.005 	0.0278209
0.05 	0.0309375 	0.005 	0.0274323
0.05 	0.0315625 	0.005 	0.0270225
0.05 	0.0321875 	0.005 	0.0265908
0.05 	0.0328125 	0.005 	0.0261363
0.05 	0.0334375 	0.005 	0.0256582
0.05 	0.0340625 	0.005 	0.0251559
0.05 	0.0346875 	0.005 	0.0246285
0.05 	0.0353125 	0.005 	0.0240753
0.05 	0.0359375 	0.005 	0.0234954
0.05 	0.0365625 	0.005 	0.022888
0.05 	0.0371875 	0.005 	0.0222524
0.05 	0.0378125 	0.005 	0.0215877
0.05 	0.0384375 	0.005 	0.0208932
0.05 	0.0390625 	0.005 	0.0201681
0.05 	0.0396875 	0.005 	0.0194116
0.05 	0.0403125 	0.005 	0.018623
0.05 	0.0409375 	0.005 	0.0178017
0.05 	0.0415625 	0.005 	0.0169467
0.05 	0.0421875 	0.005 	0.0160576
0.05 	0.0428125 	0.005 	0.0151337
0.05 	0.0434375 	0.005 	0.0141742
0.05 	0.0440625 	0.005 	0.0131788
0.05 	0.0446875 	0.005 	0.0121469
0.05 	0.0453125 	0.005 	0.011078
0.05 	0.0459375 	0.005 	0.00997164
0.05 	0.0465625 	0.005 	0.00882757
0.05 	0.0471875 	0.005 	0.00764548
0.05 	0.0478125 	0.005 	0.00642513
0.05 	0.0484375 	0.005 	0.0051664
0.05 	0.0490625 	0.005 	0.00386924
0.05 	0.0496875 	0.005 	0.00253372
0.05 	0.0503125 	0.005 	0.00116001
0.05 	0.0509375 	0.005 	-0.000251592
0.05 	0.0515625 	0.005 	-0.00170072
0.05 	0.0521875 	0.005 	-0.00318687
0.05 	0.0528125 	0.005 	-0.00470942
0.05 	0.0534375 	0.005 	-0.00626761
0.05 	0.0540625 	0.005 	-0.0078605
0.05 	0.0546875 	0.005 	-0.00948703
0.05 	0.0553125 	0.005 	-0.011146
0.05 	0.0559375 	0.005 	-0.0128359
0.05 	0.0565625 	0.005 	-0.0145554
0.05 	0.0571875 	0.005 	-0.0163025
0.05 	0.0578125 	0.005 	-0.0180755
0.05 	0.0584375 	0.005 	-0.0198722
0.05 	0.0590625 	0.005 	-0.0216903
0.05 	0.0596875 	0.005 	-0.0235274
0.05 	0.0603125 	0.005 	-0.0253808
0.05 	0.0609375 	0.005 	-0.0272476
0.05 	0.0615625 	0.005 	-0.0291247
0.05 	0.0621875 	0.005 	-0.0310089
0.05 	0.0628125 	0.005 	-0.0328967
0.05 	0.0634375 	0.005 	-0.0347844
0.05 	0.0640625 	0.005 	-0.0366682
0.05 	0.0646875 	0.005 	-0.0385441
0.05 	0.0653125 	0.005 	-0.0404079
0.05 	0.0659375 	0.005 	-0.0422552
0.05 	0.0665625 	0.005 	-0.0440815
0.05 	0.0671875 	0.005 	-0.0458822
0.05 	0.0678125 	0.005 	-0.0476524
0.05 	0.0684375 	0.005 	-0.0493874
0.05 	0.0690625 	0.005 	-0.0510821
0.05 	0.0696875 	0.005 	-0.0527315
0.05 	0.0703125 	0.005 	-0.0543306
0.05 	0.0709375 	0.005 	-0.0558742
0.05 	0.0715625 	0.005 	-0.0573574
0.05 	0.0721875 	0.005 	-0.058775
0.05 	0.0728125 	0.005 	-0.0601222
0.05 	0.0734375 	0.005 	-0.0613942
0.05 	0.0740625 	0.005 	-0.0625861
0.05 	0.0746875 	0.005 	-0.0636937
0.05 	0.0753125 	0.005 	-0.0647125
0.05 	0.0759375 	0.005 	-0.0656386
0.05 	0.0765625 	0.005 	-0.0664683
0.05 	0.0771875 	0.005 	-0.0671982
0.05 	0.0778125 	0.005 	-0.0678254
0.05 	0.0784375 	0.005 	-0.0683474
0.05 	0.0790625 	0.005 	-0.068762
0.05 	0.0796875 	0.005 	-0.0690678
0.05 	0.0803125 	0.005 	-0.0692637
0.05 	0.0809375 	0.005 	-0.0693492
0.05 	0.0815625 	0.005 	-0.0693246
0.05 	0.0821875 	0.005 	-0.0691906
0.05 	0.0828125 	0.005 	-0.0689486
0.05 	0.0834375 	0.005 	-0.0686008
0.05 	0.0840625 	0.005 	-0.0681501
0.05 	0.0846875 	0.005 	-0.0675997
0.05 	0.0853125 	0.005 	-0.066954
0.05 	0.0859375 	0.005 	-0.0662178
0.05 	0.0865625 	0.005 	-0.0653966
0.05 	0.0871875 	0.005 	-0.0644965
0.05 	0.0878125 	0.005 	-0.0635243
0.05 	0.0884375 	0.005 	-0.0624874
0.05 	0.0890625 	0.005 	-0.0613936
0.05 	0.0896875 	0.005 	-0.0602512
0.05 	0.0903125 	0.005 	-0.059069
0.05 	0.0909375 	0.005 	-0.0578561
0.05 	0.0915625 	0.005 	-0.0566217
0.05 	0.0921875 	0.005 	-0.0553752
0.05 	0.0928125 	0.005 	-0.0541264
0.05 	0.0934375 	0.005 	-0.0528845
0.05 	0.0940625 	0.005 	-0.0516591
0.05 	0.0946875 	0.005 	-0.0504592
0.05 	0.0953125 	0.005 	-0.0492936
0.05 	0.0959375 	0.005 	-0.0481706
0.05 	0.0965625 	0.005 	-0.0470976
0.05 	0.0971875 	0.005 	-0.0460815
0.05 	0.0978125 	0.005 	-0.0451321
0.05 	0.0984375 	0.005 	-0.0442584
0.05 	0.0990625 	0.005 	-0.043414
0.05 	0.0996875 	0.005 	-0.0425512
