/*--------------------------------*- C++ -*----------------------------------*\
  =========                 |
  \\      /  F ield         | OpenFOAM: The Open Source CFD Toolbox
   \\    /   O peration     | Website:  https://openfoam.org
    \\  /    A nd           | Version:  7
     \\/     M anipulation  |
\*---------------------------------------------------------------------------*/
FoamFile
{
    version     2.0;
    format      ascii;
    class       volScalarField;
    location    "0.225";
    object      p;
}
// * * * * * * * * * * * * * * * * * * * * * * * * * * * * * * * * * * * * * //

dimensions      [0 2 -2 0 0 0 0];

internalField   nonuniform List<scalar> 
25600
(
-3.48673e-08
0.00011134
0.000139269
2.98506e-05
-0.000224577
-0.000619773
-0.00114473
-0.00178501
-0.0025253
-0.00335029
-0.00424561
-0.00519756
-0.00619358
-0.00722201
-0.00827215
-0.00933421
-0.0103991
-0.0114587
-0.0125053
-0.013532
-0.0145325
-0.015501
-0.0164323
-0.0173215
-0.0181642
-0.0189566
-0.019695
-0.0203762
-0.0209973
-0.0215559
-0.0220495
-0.0224762
-0.0228342
-0.0231221
-0.0233385
-0.0234825
-0.0235531
-0.0235498
-0.023472
-0.0233195
-0.0230921
-0.0227899
-0.022413
-0.0219618
-0.0214368
-0.0208385
-0.0201676
-0.0194251
-0.0186117
-0.0177286
-0.0167769
-0.0157578
-0.0146728
-0.0135233
-0.0123107
-0.0110366
-0.00970283
-0.00831103
-0.00686307
-0.00536084
-0.00380629
-0.00220146
-0.00054844
0.00115062
0.00289354
0.00467807
0.00650188
0.0083626
0.0102579
0.0121852
0.0141422
0.0161262
0.0181348
0.0201653
0.022215
0.0242814
0.0263618
0.0284534
0.0305535
0.0326594
0.0347682
0.0368772
0.0389836
0.0410847
0.0431775
0.0452593
0.0473273
0.0493786
0.0514106
0.0534203
0.055405
0.057362
0.0592885
0.0611818
0.0630393
0.0648584
0.0666363
0.0683707
0.0700589
0.0716985
0.0732872
0.0748226
0.0763023
0.0777244
0.0790865
0.0803868
0.0816232
0.0827938
0.0838971
0.0849312
0.0858947
0.0867862
0.0876043
0.0883479
0.089016
0.0896076
0.090122
0.0905587
0.0909171
0.0911971
0.0913986
0.0915216
0.0915665
0.0915337
0.091424
0.0912382
0.0909775
0.0906433
0.0902372
0.089761
0.0892169
0.0886073
0.0879348
0.0872026
0.086414
0.0855725
0.0846824
0.0837478
0.0827737
0.0817653
0.0807282
0.0796686
0.0785933
0.0775093
0.0764246
0.0753477
0.0742875
0.0732542
0.0722582
0.0713112
0.0704255
0.0696142
0.0688913
0.0682712
0.0677683
0.0673959
0.0671631
0.067072
0.0671116
0.0672265
-0.000111543
-2.64436e-07
3.34959e-06
-0.000118404
-0.000361349
-0.000723553
-0.00119834
-0.0017754
-0.00244274
-0.00318815
-0.00399928
-0.00486445
-0.00577235
-0.00671247
-0.007675
-0.00865072
-0.00963122
-0.0106087
-0.0115758
-0.0125261
-0.0134533
-0.0143518
-0.0152166
-0.0160429
-0.0168264
-0.0175633
-0.0182499
-0.0188831
-0.0194601
-0.0199782
-0.0204351
-0.0208288
-0.0211576
-0.0214199
-0.0216143
-0.0217399
-0.0217957
-0.0217809
-0.0216952
-0.021538
-0.0213093
-0.0210091
-0.0206373
-0.0201943
-0.0196805
-0.0190963
-0.0184426
-0.0177199
-0.0169291
-0.0160713
-0.0151474
-0.0141588
-0.0131066
-0.0119923
-0.0108171
-0.00958281
-0.00829085
-0.00694296
-0.0055409
-0.00408646
-0.00258152
-0.00102805
0.000571936
0.00221637
0.00390316
0.00563012
0.00739502
0.00919559
0.0110295
0.0128944
0.0147879
0.0167075
0.0186508
0.0206153
0.0225984
0.0245975
0.0266101
0.0286334
0.030665
0.0327021
0.034742
0.036782
0.0388195
0.0408517
0.0428759
0.0448894
0.0468895
0.0488735
0.0508386
0.0527822
0.0547017
0.0565942
0.0584573
0.0602883
0.0620847
0.0638439
0.0655634
0.0672407
0.0688735
0.0704594
0.0719961
0.0734814
0.0749131
0.0762892
0.0776075
0.0788662
0.0800634
0.0811973
0.0822664
0.083269
0.0842037
0.0850692
0.0858642
0.0865877
0.0872387
0.0878165
0.0883203
0.0887496
0.0891041
0.0893836
0.089588
0.0897175
0.0897725
0.0897535
0.0896613
0.0894967
0.089261
0.0889555
0.0885819
0.0881422
0.0876383
0.0870727
0.0864481
0.0857675
0.0850342
0.0842518
0.0834242
0.0825558
0.0816512
0.0807155
0.0797543
0.0787734
0.0777792
0.0767788
0.0757795
0.0747894
0.0738169
0.0728713
0.0719623
0.0711003
0.0702963
0.0695617
0.0689082
0.0683474
0.0678903
0.0675462
0.0673205
0.0672132
0.0672265
0.0673414
-0.000140184
-4.19833e-06
-4.53795e-07
-0.000123245
-0.000356018
-0.000695556
-0.0011364
-0.00166975
-0.00228567
-0.00297359
-0.00372301
-0.00452337
-0.00536462
-0.00623722
-0.00713197
-0.00804048
-0.00895474
-0.00986729
-0.0107714
-0.0116605
-0.0125289
-0.0133711
-0.0141821
-0.0149573
-0.0156926
-0.0163842
-0.0170284
-0.0176223
-0.0181628
-0.0186476
-0.0190742
-0.0194407
-0.0197452
-0.0199862
-0.0201624
-0.0202727
-0.0203161
-0.0202918
-0.0201994
-0.0200384
-0.0198086
-0.0195099
-0.0191424
-0.0187062
-0.0182017
-0.0176295
-0.0169899
-0.0162839
-0.0155121
-0.0146755
-0.0137751
-0.012812
-0.0117874
-0.0107026
-0.00955907
-0.00835816
-0.00710143
-0.00579052
-0.00442711
-0.00301293
-0.00154982
-3.96509e-05
0.00151563
0.00311402
0.00475348
0.00643188
0.00814708
0.00989689
0.0116791
0.0134913
0.0153312
0.0171965
0.0190848
0.0209936
0.0229204
0.0248628
0.0268181
0.028784
0.0307578
0.0327368
0.0347186
0.0367005
0.0386799
0.0406541
0.0426205
0.0445765
0.0465194
0.0484467
0.0503556
0.0522436
0.054108
0.0559464
0.0577562
0.0595348
0.0612798
0.0629886
0.064659
0.0662885
0.0678748
0.0694157
0.0709088
0.0723521
0.0737435
0.075081
0.0763626
0.0775865
0.0787509
0.0798541
0.0808946
0.0818708
0.0827815
0.0836252
0.084401
0.0851078
0.0857446
0.0863108
0.0868057
0.0872289
0.0875801
0.0878591
0.088066
0.0882009
0.0882643
0.0882567
0.0881788
0.0880318
0.0878167
0.0875349
0.0871882
0.0867783
0.0863074
0.085778
0.0851925
0.0845541
0.0838659
0.0831314
0.0823546
0.0815397
0.0806911
0.0798139
0.0789133
0.0779951
0.0770655
0.0761309
0.0751986
0.074276
0.0733712
0.0724927
0.0716495
0.0708511
0.0701072
0.069428
0.0688236
0.0683038
0.067878
0.067554
0.0673361
0.0672262
0.0672396
0.0673811
-3.19876e-05
0.000116975
0.000122213
-3.40911e-07
-0.000227062
-0.000552665
-0.00097154
-0.00147546
-0.00205536
-0.00270195
-0.00340566
-0.00415716
-0.00494727
-0.00576712
-0.00660842
-0.00746321
-0.00832401
-0.00918387
-0.0100362
-0.010875
-0.0116946
-0.0124899
-0.0132558
-0.0139882
-0.0146828
-0.0153359
-0.0159442
-0.0165044
-0.0170139
-0.0174701
-0.0178707
-0.0182138
-0.0184974
-0.0187201
-0.0188805
-0.0189775
-0.0190102
-0.0189777
-0.0188795
-0.0187151
-0.0184844
-0.0181871
-0.0178232
-0.0173931
-0.0168968
-0.016335
-0.015708
-0.0150166
-0.0142615
-0.0134435
-0.0125637
-0.0116231
-0.0106229
-0.00956422
-0.00844848
-0.00727704
-0.00605143
-0.00477317
-0.00344388
-0.00206528
-0.000639116
0.000832779
0.00234854
0.00390622
0.00550383
0.00713932
0.00881059
0.0105155
0.0122519
0.0140175
0.0158101
0.0176274
0.019467
0.0213265
0.0232036
0.0250958
0.0270006
0.0289156
0.0308383
0.0327661
0.0346966
0.0366271
0.0385552
0.0404782
0.0423936
0.0442988
0.0461913
0.0480684
0.0499278
0.0517667
0.0535827
0.0553734
0.0571362
0.0588686
0.0605684
0.062233
0.0638601
0.0654475
0.066993
0.0684942
0.069949
0.0713555
0.0727115
0.0740151
0.0752645
0.0764579
0.0775935
0.0786698
0.0796853
0.0806384
0.081528
0.0823528
0.0831117
0.0838038
0.0844283
0.0849843
0.0854715
0.0858893
0.0862376
0.0865162
0.0867251
0.0868646
0.0869352
0.0869374
0.0868719
0.0867399
0.0865425
0.086281
0.0859572
0.0855729
0.0851302
0.0846314
0.0840792
0.0834765
0.0828264
0.0821324
0.0813983
0.0806281
0.0798263
0.0789976
0.0781472
0.0772806
0.0764036
0.0755225
0.0746441
0.0737755
0.0729241
0.0720979
0.0713053
0.0705549
0.0698555
0.0692164
0.0686465
0.0681548
0.0677495
0.0674381
0.0672255
0.0671159
0.0671324
0.0672905
0.000221219
0.000359546
0.00035522
0.000226828
1.38989e-07
-0.000318464
-0.000723087
-0.00120579
-0.00175832
-0.00237217
-0.0030388
-0.00374975
-0.00449662
-0.0052714
-0.00606638
-0.00687413
-0.00768777
-0.00850071
-0.00930675
-0.0101002
-0.0108756
-0.0116281
-0.0123529
-0.0130459
-0.013703
-0.0143207
-0.0148956
-0.0154247
-0.0159053
-0.0163349
-0.0167112
-0.0170323
-0.0172964
-0.0175019
-0.0176475
-0.017732
-0.0177546
-0.0177144
-0.0176108
-0.0174433
-0.0172117
-0.0169158
-0.0165555
-0.0161312
-0.0156428
-0.015091
-0.0144761
-0.0137987
-0.0130596
-0.0122596
-0.0113996
-0.0104806
-0.0095037
-0.00847012
-0.00738111
-0.00623802
-0.0050423
-0.00379543
-0.00249897
-0.00115458
0.000236028
0.00167111
0.00314884
0.00466734
0.00622466
0.00781883
0.00944782
0.0111095
0.0128019
0.0145227
0.0162697
0.0180407
0.0198334
0.0216455
0.0234747
0.0253186
0.0271748
0.0290409
0.0309145
0.032793
0.0346741
0.0365553
0.038434
0.0403077
0.0421741
0.0440305
0.0458745
0.0477036
0.0495153
0.0513072
0.0530767
0.0548216
0.0565393
0.0582275
0.0598838
0.061506
0.0630917
0.0646388
0.066145
0.0676083
0.0690265
0.0703976
0.0717198
0.0729911
0.0742097
0.0753739
0.076482
0.0775326
0.0785241
0.0794553
0.0803247
0.0811314
0.0818742
0.0825523
0.0831649
0.0837113
0.084191
0.0846037
0.0849491
0.0852271
0.0854379
0.0855817
0.085659
0.0856703
0.0856164
0.0854984
0.0853174
0.0850749
0.0847724
0.0844119
0.0839953
0.0835251
0.0830036
0.0824339
0.0818189
0.0811621
0.0804671
0.0797379
0.0789786
0.078194
0.0773889
0.0765687
0.0757388
0.0749052
0.0740744
0.0732529
0.0724478
0.0716665
0.0709166
0.070206
0.069543
0.0689357
0.0683923
0.0679209
0.0675292
0.0672245
0.067012
0.0668975
0.0669069
0.0670589
0.000615509
0.000721935
0.00069554
0.000553377
0.000319423
4.33807e-07
-0.00039741
-0.000866787
-0.00139998
-0.00198924
-0.00262685
-0.0033051
-0.00401641
-0.0047534
-0.00550896
-0.00627628
-0.00704893
-0.0078207
-0.00858588
-0.00933898
-0.0100749
-0.0107889
-0.0114766
-0.0121339
-0.0127569
-0.0133422
-0.0138866
-0.0143871
-0.0148411
-0.0152462
-0.0156
-0.0159008
-0.0161468
-0.0163363
-0.0164682
-0.0165412
-0.0165544
-0.016507
-0.0163984
-0.0162281
-0.0159958
-0.0157013
-0.0153446
-0.0149258
-0.0144451
-0.0139028
-0.0132994
-0.0126355
-0.0119117
-0.0111288
-0.0102876
-0.00938929
-0.00843474
-0.00742511
-0.00636165
-0.00524566
-0.00407851
-0.00286165
-0.00159659
-0.00028492
0.0010717
0.00247157
0.00391293
0.00539394
0.00691273
0.00846738
0.0100559
0.0116763
0.0133265
0.0150043
0.0167077
0.0184345
0.0201824
0.0219492
0.0237326
0.0255303
0.02734
0.0291593
0.0309859
0.0328173
0.0346512
0.0364852
0.0383167
0.0401434
0.0419629
0.0437728
0.0455705
0.0473537
0.0491199
0.0508669
0.0525921
0.0542932
0.0559679
0.0576139
0.0592289
0.0608107
0.062357
0.0638656
0.0653346
0.0667617
0.068145
0.0694826
0.0707726
0.0720131
0.0732025
0.0743389
0.075421
0.0764471
0.0774159
0.0783261
0.0791765
0.0799659
0.0806935
0.0813583
0.0819596
0.0824968
0.0829694
0.0833771
0.0837197
0.0839971
0.0842095
0.0843572
0.0844405
0.0844602
0.084417
0.0843119
0.0841461
0.083921
0.0836382
0.0832996
0.082907
0.0824629
0.0819696
0.08143
0.0808471
0.0802241
0.0795645
0.0788723
0.0781513
0.0774062
0.0766415
0.0758624
0.075074
0.074282
0.0734925
0.0727115
0.0719458
0.0712021
0.0704874
0.0698091
0.0691746
0.0685913
0.0680668
0.0676084
0.0672233
0.0669186
0.0666997
0.0665729
0.0665632
0.0666882
0.00114017
0.00119777
0.00113799
0.00097381
0.000725
0.000398283
-3.56665e-07
-0.000463978
-0.000985531
-0.00155804
-0.00217433
-0.0028275
-0.00351064
-0.00421697
-0.00494001
-0.00567346
-0.00641127
-0.00714778
-0.00787757
-0.00859547
-0.00929672
-0.00997681
-0.0106315
-0.0112569
-0.0118494
-0.0124056
-0.0129225
-0.0133971
-0.013827
-0.0142097
-0.0145431
-0.0148254
-0.0150548
-0.0152298
-0.0153491
-0.0154115
-0.0154162
-0.0153623
-0.0152492
-0.0150764
-0.0148436
-0.0145506
-0.0141973
-0.0137838
-0.0133103
-0.0127771
-0.0121847
-0.0115335
-0.0108242
-0.0100576
-0.00923441
-0.00835562
-0.00742223
-0.00643532
-0.00539609
-0.00430579
-0.00316573
-0.00197733
-0.000742049
0.000538572
0.00186294
0.00322941
0.00463626
0.0060817
0.00756392
0.00908106
0.0106312
0.0122124
0.0138225
0.0154597
0.0171217
0.0188065
0.0205118
0.0222356
0.0239756
0.0257295
0.0274951
0.02927
0.031052
0.0328388
0.0346279
0.0364171
0.038204
0.0399861
0.0417613
0.0435269
0.0452808
0.0470206
0.0487438
0.0504482
0.0521315
0.0537913
0.0554254
0.0570315
0.0586074
0.0601509
0.06166
0.0631324
0.0645661
0.0659592
0.0673096
0.0686156
0.0698752
0.0710867
0.0722484
0.0733588
0.0744162
0.0754194
0.0763668
0.0772572
0.0780896
0.0788628
0.079576
0.0802282
0.0808189
0.0813473
0.0818132
0.0822161
0.0825559
0.0828326
0.0830464
0.0831974
0.0832863
0.0833135
0.08328
0.0831866
0.0830347
0.0828254
0.0825605
0.0822416
0.0818708
0.0814503
0.0809824
0.08047
0.0799158
0.079323
0.0786951
0.0780357
0.0773487
0.0766383
0.075909
0.0751656
0.074413
0.0736567
0.0729021
0.0721551
0.0714219
0.0707087
0.070022
0.0693685
0.068755
0.0681883
0.0676753
0.0672227
0.0668372
0.0665254
0.066293
0.0661462
0.0661062
0.0661873
0.00178125
0.00177715
0.00167422
0.00148037
0.00120949
0.000867975
0.000461628
-3.21284e-06
-0.000520216
-0.00108292
-0.00168497
-0.00231999
-0.00298169
-0.00366394
-0.00436076
-0.00506634
-0.00577513
-0.00648183
-0.00718136
-0.00786894
-0.00854006
-0.00919045
-0.00981612
-0.0104134
-0.0109787
-0.011509
-0.0120012
-0.0124526
-0.0128607
-0.0132233
-0.0135383
-0.0138037
-0.0140181
-0.0141798
-0.0142877
-0.0143406
-0.0143376
-0.0142778
-0.0141607
-0.0139858
-0.0137527
-0.0134612
-0.0131113
-0.012703
-0.0122364
-0.0117119
-0.0111299
-0.0104908
-0.00979533
-0.00904409
-0.00823791
-0.00737766
-0.00646432
-0.00549894
-0.00448268
-0.00341673
-0.00230235
-0.00114092
6.61349e-05
0.00131733
0.00261113
0.00394593
0.00532004
0.00673177
0.00817933
0.0096609
0.0111746
0.0127186
0.0142908
0.0158894
0.0175122
0.0191571
0.0208222
0.0225052
0.024204
0.0259164
0.0276401
0.029373
0.0311128
0.0328573
0.0346041
0.0363509
0.0380954
0.0398354
0.0415685
0.0432925
0.0450049
0.0467036
0.0483862
0.0500504
0.051694
0.0533148
0.0549105
0.0564789
0.0580179
0.0595254
0.0609993
0.0624375
0.063838
0.065199
0.0665184
0.0677945
0.0690255
0.0702097
0.0713455
0.0724313
0.0734656
0.0744471
0.0753744
0.0762463
0.0770617
0.0778196
0.0785192
0.0791596
0.0797402
0.0802603
0.0807197
0.081118
0.0814551
0.081731
0.0819458
0.0820998
0.0821935
0.0822276
0.0822027
0.0821199
0.0819804
0.0817854
0.0815366
0.0812356
0.0808843
0.080485
0.0800399
0.0795516
0.079023
0.0784571
0.0778572
0.0772266
0.0765693
0.0758892
0.0751906
0.0744779
0.0737559
0.0730295
0.0723041
0.071585
0.070878
0.0701887
0.0695233
0.0688879
0.0682886
0.0677317
0.0672234
0.0667699
0.0663773
0.0660519
0.0657989
0.0656246
0.0655448
0.0655689
0.00252425
0.00244878
0.00229491
0.00206457
0.00176512
0.00140245
0.000982056
0.000509589
-9.16589e-06
-0.000568509
-0.00116262
-0.00178572
-0.00243216
-0.00309631
-0.00377267
-0.00445596
-0.00514106
-0.005823
-0.00649711
-0.00715893
-0.00780417
-0.00842888
-0.00902928
-0.00960186
-0.0101433
-0.0106506
-0.0111209
-0.0115516
-0.0119403
-0.0122848
-0.0125832
-0.0128336
-0.0130344
-0.0131843
-0.0132819
-0.0133261
-0.0133162
-0.0132512
-0.0131306
-0.0129539
-0.0127207
-0.0124309
-0.0120843
-0.011681
-0.0112211
-0.010705
-0.0101329
-0.0095053
-0.00882287
-0.00808625
-0.00729619
-0.00645351
-0.00555918
-0.00461421
-0.00361969
-0.00257678
-0.00148674
-0.000350872
0.000829451
0.00205279
0.00331763
0.00462242
0.00596553
0.00734531
0.00876003
0.0102079
0.0116872
0.0131959
0.0147322
0.0162942
0.0178798
0.0194871
0.0211139
0.0227583
0.0244181
0.0260912
0.0277754
0.0294685
0.0311684
0.0328728
0.0345795
0.0362862
0.0379908
0.0396909
0.0413843
0.0430688
0.0447421
0.0464019
0.0480461
0.0496724
0.0512786
0.0528625
0.0544219
0.0559549
0.0574591
0.0589326
0.0603734
0.0617794
0.0631486
0.0644793
0.0657696
0.0670177
0.0682218
0.0693803
0.0704916
0.0715543
0.0725669
0.0735279
0.0744363
0.0752908
0.0760903
0.0768338
0.0775206
0.0781498
0.0787209
0.0792332
0.0796864
0.0800803
0.0804146
0.0806895
0.080905
0.0810616
0.0811596
0.0811996
0.0811825
0.0811091
0.0809807
0.0807985
0.0805641
0.080279
0.0799452
0.0795647
0.0791398
0.078673
0.0781671
0.0776247
0.0770493
0.0764439
0.0758124
0.0751583
0.0744858
0.0737991
0.0731027
0.0724012
0.0716996
0.0710028
0.0703161
0.0696449
0.0689947
0.0683711
0.0677798
0.0672264
0.0667166
0.0662561
0.0658505
0.0655052
0.0652254
0.0650169
0.0648894
0.0648468
0.00335481
0.00320129
0.00299026
0.00271777
0.00238408
0.00199457
0.00155444
0.00106869
0.000542369
-1.93385e-05
-0.000611241
-0.00122816
-0.00186491
-0.00251641
-0.00317767
-0.00384381
-0.00451013
-0.00517205
-0.00582524
-0.00646554
-0.00708895
-0.00769178
-0.00827046
-0.00882168
-0.00934234
-0.00982955
-0.0102806
-0.010693
-0.0110645
-0.011393
-0.0116766
-0.0119135
-0.0121023
-0.0122415
-0.01233
-0.0123666
-0.0123506
-0.012281
-0.0121574
-0.0119793
-0.0117463
-0.0114582
-0.0111149
-0.0107165
-0.010263
-0.00975482
-0.00919219
-0.00857559
-0.00790558
-0.00718282
-0.006408
-0.00558198
-0.00470565
-0.00377998
-0.00280603
-0.00178494
-0.000717903
0.000393787
0.00154882
0.0027458
0.00398325
0.00525966
0.00657346
0.00792302
0.00930668
0.0107227
0.0121693
0.0136447
0.0151471
0.0166745
0.0182249
0.0197966
0.0213874
0.0229952
0.0246182
0.0262541
0.0279009
0.0295565
0.0312186
0.0328852
0.034554
0.0362229
0.0378897
0.0395522
0.0412081
0.0428554
0.0444917
0.046115
0.047723
0.0493135
0.0508844
0.0524336
0.053959
0.0554585
0.05693
0.0583716
0.0597812
0.0611569
0.0624968
0.0637991
0.0650619
0.0662836
0.0674625
0.0685969
0.0696853
0.0707263
0.0717184
0.0726604
0.073551
0.0743891
0.0751736
0.0759037
0.0765784
0.0771971
0.0777591
0.078264
0.0787113
0.0791008
0.0794325
0.0797062
0.0799223
0.0800809
0.0801825
0.0802278
0.0802175
0.0801525
0.0800339
0.079863
0.0796413
0.0793703
0.0790519
0.0786881
0.078281
0.077833
0.0773467
0.0768249
0.0762706
0.075687
0.0750774
0.0744454
0.0737949
0.0731298
0.0724544
0.0717729
0.0710899
0.0704102
0.0697385
0.0690799
0.0684393
0.067822
0.067233
0.0666775
0.0661607
0.0656877
0.0652633
0.0648926
0.0645804
0.0643322
0.0641507
0.0640342
0.00425967
0.00402331
0.00375052
0.00343127
0.00305851
0.00263726
0.00217241
0.00166826
0.00112927
0.000559997
-3.48974e-05
-0.000650763
-0.00128293
-0.0019268
-0.00257783
-0.00323155
-0.00388366
-0.00452996
-0.00516643
-0.0057892
-0.00639459
-0.00697911
-0.00753943
-0.00807244
-0.00857525
-0.0090451
-0.00947943
-0.0098759
-0.0102324
-0.0105468
-0.0108174
-0.0110425
-0.0112206
-0.0113504
-0.0114308
-0.0114608
-0.0114394
-0.0113659
-0.0112398
-0.0110607
-0.0108281
-0.0105418
-0.0102018
-0.00980815
-0.00936089
-0.00886028
-0.00830666
-0.00770048
-0.00704227
-0.00633262
-0.00557226
-0.00476198
-0.00390266
-0.00299523
-0.00204072
-0.00104024
5.06113e-06
0.00109393
0.00222509
0.00339717
0.00460876
0.00585837
0.00714448
0.00846552
0.00981986
0.0112058
0.0126216
0.0140656
0.0155359
0.0170306
0.0185479
0.0200859
0.0216426
0.0232161
0.0248043
0.0264052
0.0280167
0.0296368
0.0312633
0.0328943
0.0345274
0.0361607
0.0377919
0.0394189
0.0410396
0.0426519
0.0442534
0.0458423
0.0474162
0.0489731
0.0505109
0.0520275
0.0535209
0.0549889
0.0564297
0.0578413
0.0592216
0.0605689
0.0618813
0.0631569
0.0643941
0.0655911
0.0667463
0.0678582
0.0689251
0.0699458
0.0709188
0.0718429
0.0727169
0.0735396
0.0743101
0.0750275
0.0756909
0.0762997
0.0768532
0.077351
0.0777927
0.0781781
0.078507
0.0787795
0.0789957
0.0791559
0.0792607
0.0793105
0.079306
0.0792483
0.0791384
0.0789774
0.0787668
0.0785082
0.0782032
0.0778539
0.0774622
0.0770305
0.0765612
0.076057
0.0755208
0.0749554
0.0743643
0.0737506
0.0731181
0.0724705
0.0718117
0.0711457
0.0704768
0.0698094
0.0691478
0.0684967
0.0678607
0.0672445
0.0666527
0.0660901
0.0655611
0.0650705
0.0646225
0.0642215
0.0638723
0.0635795
0.0633393
0.0631441
0.00522647
0.00490419
0.00456619
0.00419646
0.00378072
0.0033235
0.00282958
0.00230258
0.00174635
0.00116488
0.000562337
-5.71293e-05
-0.000689332
-0.00133013
-0.00197539
-0.00262104
-0.00326317
-0.0038979
-0.00452153
-0.00513051
-0.0057214
-0.00629096
-0.00683611
-0.0073539
-0.00784165
-0.00829672
-0.00871676
-0.00909953
-0.00944297
-0.00974519
-0.0100045
-0.0102193
-0.0103881
-0.0105098
-0.0105832
-0.0106073
-0.0105814
-0.0105047
-0.0103766
-0.0101967
-0.00996475
-0.00968047
-0.0093438
-0.00895476
-0.00851347
-0.00802014
-0.00747512
-0.00687884
-0.00623179
-0.00553457
-0.00478788
-0.00399247
-0.00314921
-0.00225899
-0.00132282
-0.000341772
0.000683031
0.00175038
0.00285903
0.00400766
0.00519486
0.00641922
0.00767925
0.00897341
0.0103001
0.0116577
0.0130445
0.0144588
0.0158989
0.0173629
0.018849
0.0203553
0.0218799
0.023421
0.0249764
0.0265443
0.0281227
0.0297094
0.0313025
0.0328999
0.0344996
0.0360993
0.0376971
0.0392908
0.0408784
0.0424577
0.0440266
0.0455831
0.0471251
0.0486505
0.0501572
0.0516433
0.0531066
0.0545453
0.0559573
0.0573408
0.0586938
0.0600145
0.0613011
0.0625518
0.063765
0.0649389
0.066072
0.0671628
0.0682097
0.0692114
0.0701666
0.071074
0.0719324
0.0727408
0.0734982
0.0742037
0.0748566
0.075456
0.0760015
0.0764926
0.0769289
0.0773102
0.0776364
0.0779075
0.0781237
0.0782851
0.0783924
0.078446
0.0784466
0.0783952
0.0782927
0.0781403
0.0779393
0.0776914
0.077398
0.077061
0.0766826
0.0762647
0.0758099
0.0753205
0.0747993
0.0742491
0.073673
0.0730742
0.0724561
0.071822
0.0711758
0.0705212
0.069862
0.0692024
0.0685465
0.0678984
0.0672623
0.0666425
0.0660433
0.0654689
0.0649233
0.0644107
0.0639348
0.0634994
0.063109
0.062768
0.0624655
0.0621882
0.00624397
0.00583381
0.00542818
0.00500516
0.00454315
0.0040465
0.00351977
0.00296604
0.00238854
0.00179078
0.00117642
0.000549156
-8.72628e-05
-0.000729118
-0.00137267
-0.00201425
-0.00265026
-0.00327717
-0.00389159
-0.00449023
-0.00506994
-0.00562769
-0.00616062
-0.00666602
-0.00714131
-0.00758409
-0.00799212
-0.00836331
-0.00869569
-0.00898751
-0.00923712
-0.00944306
-0.00960396
-0.00971865
-0.00978607
-0.0098053
-0.00977553
-0.00969612
-0.00956654
-0.00938635
-0.00915526
-0.00887307
-0.00853972
-0.00815521
-0.00771968
-0.00723334
-0.00669652
-0.00610963
-0.00547315
-0.00478768
-0.00405389
-0.00327251
-0.00244437
-0.00157037
-0.00065147
0.000311283
0.0013168
0.00236391
0.00345139
0.00457793
0.00574221
0.00694282
0.00817832
0.0094472
0.0107479
0.0120789
0.0134384
0.0148249
0.0162365
0.0176716
0.0191284
0.0206049
0.0220994
0.02361
0.0251348
0.0266717
0.0282189
0.0297743
0.031336
0.032902
0.0344701
0.0360385
0.0376049
0.0391674
0.040724
0.0422724
0.0438108
0.0453371
0.0468492
0.0483451
0.0498227
0.0512802
0.0527155
0.0541267
0.0555118
0.0568691
0.0581966
0.0594925
0.060755
0.0619826
0.0631733
0.0643258
0.0654383
0.0665094
0.0675377
0.0685218
0.0694603
0.0703521
0.0711961
0.0719912
0.0727364
0.0734308
0.0740737
0.0746645
0.0752024
0.0756872
0.0761184
0.0764958
0.0768192
0.0770888
0.0773046
0.077467
0.0775762
0.077633
0.0776378
0.0775917
0.0774955
0.0773504
0.0771576
0.0769187
0.0766351
0.0763087
0.0759413
0.075535
0.0750921
0.0746149
0.074106
0.073568
0.0730039
0.0724166
0.0718093
0.0711853
0.0705479
0.0699008
0.0692474
0.0685916
0.0679372
0.0672878
0.0666475
0.06602
0.0654092
0.0648188
0.0642526
0.0637141
0.0632066
0.0627332
0.0622984
0.0619063
0.061539
0.0611775
0.00730182
0.00680281
0.00632792
0.00584943
0.00533863
0.00479962
0.00423694
0.0036531
0.00305083
0.00243316
0.00180329
0.0011645
0.000520094
-0.000126556
-0.000772104
-0.00141325
-0.0020467
-0.00266925
-0.0032778
-0.00386932
-0.00444091
-0.00498979
-0.0055133
-0.00600892
-0.00647424
-0.00690706
-0.00730525
-0.00766685
-0.00799004
-0.00827316
-0.00851465
-0.00871313
-0.00886735
-0.00897617
-0.00903859
-0.00905374
-0.00902088
-0.00893939
-0.00880876
-0.00862859
-0.0083986
-0.00811863
-0.0077886
-0.00740852
-0.00697855
-0.0064989
-0.00596988
-0.00539189
-0.00476542
-0.00409104
-0.00336941
-0.00260124
-0.00178733
-0.000928567
-2.58949e-05
0.000919678
0.00190709
0.0029352
0.00400279
0.00510863
0.00625139
0.00742973
0.00864222
0.00988738
0.0111637
0.0124697
0.0138037
0.015164
0.016549
0.0179571
0.0193863
0.020835
0.0223012
0.0237833
0.0252792
0.0267872
0.0283052
0.0298314
0.0313637
0.0329002
0.0344389
0.0359779
0.0375151
0.0390484
0.0405759
0.0420956
0.0436055
0.0451035
0.0465877
0.0480561
0.0495067
0.0509375
0.0523467
0.0537323
0.0550925
0.0564253
0.057729
0.0590019
0.0602422
0.0614481
0.0626181
0.0637506
0.064844
0.0658969
0.0669079
0.0678756
0.0687987
0.0696761
0.0705067
0.0712893
0.0720232
0.0727073
0.073341
0.0739236
0.0744545
0.0749333
0.0753596
0.0757332
0.076054
0.076322
0.0765372
0.0767001
0.0768108
0.07687
0.0768784
0.0768366
0.0767456
0.0766066
0.0764207
0.0761892
0.0759138
0.075596
0.0752378
0.0748409
0.0744076
0.0739401
0.0734408
0.0729123
0.0723572
0.0717784
0.0711788
0.0705614
0.0699294
0.0692862
0.068635
0.0679793
0.0673225
0.0666681
0.0660197
0.0653807
0.0647546
0.0641447
0.0635543
0.0629865
0.0624442
0.0619299
0.0614481
0.0610026
0.0605687
0.0601218
0.00839067
0.00780257
0.00725739
0.00672187
0.00616024
0.00557654
0.00497527
0.00435846
0.00372835
0.00308759
0.00243893
0.00178526
0.00112951
0.000474686
-0.000176223
-0.000820231
-0.00145436
-0.00207573
-0.00268148
-0.00326885
-0.00383518
-0.00437793
-0.00489461
-0.00538291
-0.00584061
-0.00626564
-0.00665602
-0.00700994
-0.00732569
-0.00760172
-0.00783657
-0.00802894
-0.00817767
-0.00828168
-0.00834003
-0.00835192
-0.00831665
-0.00823364
-0.0081024
-0.00792258
-0.00769392
-0.00741627
-0.00708956
-0.00671382
-0.00628922
-0.00581597
-0.00529436
-0.0047248
-0.00410778
-0.00344385
-0.00273364
-0.00197788
-0.00117733
-0.000332868
0.0005546
0.00148408
0.00245454
0.00346485
0.00451384
0.0056003
0.00672294
0.00788043
0.00907139
0.0102944
0.0115479
0.0128305
0.0141406
0.0154765
0.0168367
0.0182194
0.0196229
0.0210455
0.0224854
0.0239409
0.0254099
0.0268908
0.0283816
0.0298804
0.0313853
0.0328944
0.0344057
0.0359173
0.0374272
0.0389333
0.0404339
0.0419268
0.0434102
0.0448819
0.0463402
0.047783
0.0492084
0.0506146
0.0519995
0.0533614
0.0546983
0.0560086
0.0572903
0.0585418
0.0597614
0.0609474
0.0620982
0.0632122
0.064288
0.0653241
0.066319
0.0672716
0.0681805
0.0690446
0.0698628
0.070634
0.0713573
0.0720319
0.0726571
0.0732321
0.0737564
0.0742296
0.0746514
0.0750213
0.0753394
0.0756057
0.0758202
0.0759832
0.076095
0.0761561
0.0761671
0.0761289
0.0760422
0.075908
0.0757277
0.0755023
0.0752334
0.0749226
0.0745715
0.0741821
0.0737562
0.0732961
0.072804
0.0722823
0.0717335
0.0711602
0.0705653
0.0699515
0.0693218
0.0686792
0.0680268
0.0673677
0.0667052
0.0660423
0.0653824
0.0647285
0.0640837
0.063451
0.0628334
0.0622334
0.0616536
0.061096
0.0605651
0.0600645
0.0595629
0.0590302
0.00950203
0.00882502
0.0082091
0.00761543
0.00700145
0.00637116
0.00572911
0.0050769
0.00441635
0.00374973
0.00307939
0.00240789
0.00173779
0.00107175
0.000412445
-0.000237429
-0.000875221
-0.0014983
-0.00210408
-0.00269004
-0.00325376
-0.00379289
-0.00430518
-0.00478845
-0.00524071
-0.00565998
-0.00604447
-0.0063925
-0.00670247
-0.00697293
-0.00720253
-0.00739006
-0.00753443
-0.00763464
-0.00768982
-0.00769922
-0.00766219
-0.00757818
-0.00744676
-0.0072676
-0.00704047
-0.00676523
-0.00644185
-0.00607036
-0.00565093
-0.00518378
-0.00466921
-0.00410762
-0.0034995
-0.00284538
-0.0021459
-0.00140175
-0.00061371
0.000217389
0.00109065
0.0020051
0.00295973
0.00395343
0.00498506
0.00605344
0.00715731
0.00829536
0.00946624
0.0106686
0.0119009
0.0131617
0.0144495
0.0157626
0.0170996
0.0184587
0.0198383
0.0212367
0.0226521
0.0240827
0.0255268
0.0269825
0.0284479
0.0299213
0.0314008
0.0328844
0.0343702
0.0358564
0.0373409
0.0388219
0.0402974
0.0417655
0.0432242
0.0446717
0.046106
0.0475251
0.0489273
0.0503106
0.0516731
0.053013
0.0543286
0.055618
0.0568795
0.0581113
0.0593119
0.0604795
0.0616126
0.0627096
0.0637692
0.0647898
0.06577
0.0667087
0.0676046
0.0684564
0.0692632
0.0700239
0.0707376
0.0714034
0.0720207
0.0725887
0.0731069
0.0735749
0.0739923
0.0743588
0.0746743
0.0749388
0.0751523
0.0753151
0.0754276
0.07549
0.0755031
0.0754676
0.0753842
0.0752539
0.0750778
0.0748572
0.0745934
0.0742878
0.0739422
0.0735583
0.0731378
0.0726829
0.0721957
0.0716784
0.0711334
0.070563
0.06997
0.0693569
0.0687265
0.0680815
0.0674248
0.0667593
0.0660879
0.0654135
0.0647389
0.0640671
0.0634007
0.0627424
0.0620948
0.0614602
0.0608406
0.0602378
0.059656
0.0590993
0.0585293
0.0579109
0.0106282
0.00986289
0.00917607
0.00852354
0.0078561
0.00717772
0.00649311
0.00580347
0.00511025
0.00441534
0.00372081
0.00302886
0.00234171
0.00166174
0.000991324
0.000332847
-0.000311293
-0.00093873
-0.00154713
-0.00213421
-0.00269775
-0.00323561
-0.00374573
-0.00422614
-0.00467496
-0.0050904
-0.0054708
-0.00581461
-0.00612034
-0.00638666
-0.00661233
-0.00679621
-0.0069373
-0.00703466
-0.00708751
-0.00709514
-0.00705695
-0.00697245
-0.00684125
-0.00666304
-0.00643763
-0.00616489
-0.00584482
-0.00547748
-0.00506302
-0.00460168
-0.00409377
-0.0035397
-0.00293993
-0.00229502
-0.00160556
-0.000872266
-9.58888e-05
0.000722758
0.00158279
0.00248326
0.00342315
0.0044014
0.0054169
0.00646848
0.0075549
0.00867489
0.00982713
0.0110102
0.0122228
0.0134634
0.0147305
0.0160226
0.017338
0.0186753
0.0200327
0.0214085
0.0228012
0.0242088
0.0256297
0.0270621
0.0285041
0.029954
0.0314099
0.0328699
0.0343321
0.0357948
0.0372559
0.0387136
0.040166
0.0416112
0.0430473
0.0444723
0.0458845
0.0472819
0.0486626
0.0500249
0.0513668
0.0526866
0.0539825
0.0552528
0.0564956
0.0577095
0.0588926
0.0600433
0.0611603
0.0622418
0.0632865
0.064293
0.0652598
0.0661858
0.0670697
0.0679104
0.0687068
0.0694579
0.0701628
0.0708206
0.0714306
0.0719922
0.0725048
0.072968
0.0733813
0.0737445
0.0740574
0.0743201
0.0745326
0.074695
0.0748076
0.0748709
0.0748855
0.0748519
0.0747709
0.0746434
0.0744706
0.0742534
0.0739933
0.0736915
0.0733497
0.0729695
0.0725525
0.0721008
0.0716164
0.0711012
0.0705575
0.0699877
0.069394
0.068779
0.0681451
0.067495
0.0668312
0.0661564
0.0654733
0.0647845
0.0640926
0.0634001
0.0627095
0.0620231
0.0613432
0.0606719
0.0600107
0.0593609
0.0587273
0.0581134
0.0574749
0.0567712
0.0117621
0.0109094
0.0101518
0.00944008
0.00871834
0.00799076
0.00726215
0.00653338
0.00580558
0.00508033
0.00435941
0.00364468
0.00293812
0.0022418
0.0015578
0.000888257
0.000235328
-0.000398873
-0.00101227
-0.00160277
-0.00216836
-0.00270711
-0.00321715
-0.00369667
-0.00414392
-0.00455732
-0.00493531
-0.00527645
-0.0055794
-0.00584293
-0.00606589
-0.00624724
-0.00638604
-0.00648146
-0.00653277
-0.00653931
-0.00650054
-0.00641602
-0.00628539
-0.0061084
-0.00588487
-0.00561471
-0.00529793
-0.00493462
-0.00452493
-0.00406911
-0.0035675
-0.00302048
-0.00242854
-0.0017922
-0.00111209
-0.000388886
0.00037666
0.00118375
0.00203151
0.00291901
0.00384526