/*--------------------------------*- C++ -*----------------------------------*\
  =========                 |
  \\      /  F ield         | OpenFOAM: The Open Source CFD Toolbox
   \\    /   O peration     | Website:  https://openfoam.org
    \\  /    A nd           | Version:  7
     \\/     M anipulation  |
\*---------------------------------------------------------------------------*/
FoamFile
{
    version     2.0;
    format      ascii;
    class       volVectorField;
    location    "0.225";
    object      U;
}
// * * * * * * * * * * * * * * * * * * * * * * * * * * * * * * * * * * * * * //

dimensions      [0 1 -1 0 0 0 0];

internalField   nonuniform List<vector> 
25600
(
(1.91481e-07 -1.91973e-07 0)
(2.85158e-06 -1.78859e-06 0)
(9.05864e-06 -2.82844e-06 0)
(1.68721e-05 -3.19674e-06 0)
(2.47854e-05 -3.11052e-06 0)
(3.18568e-05 -2.73315e-06 0)
(3.74374e-05 -2.17009e-06 0)
(4.10772e-05 -1.49026e-06 0)
(4.24751e-05 -7.41284e-07 0)
(4.14377e-05 4.76988e-08 0)
(3.78459e-05 8.54663e-07 0)
(3.16377e-05 1.66633e-06 0)
(2.2791e-05 2.47241e-06 0)
(1.13157e-05 3.26552e-06 0)
(-2.7547e-06 4.04063e-06 0)
(-1.93696e-05 4.79319e-06 0)
(-3.84631e-05 5.52056e-06 0)
(-5.99593e-05 6.22048e-06 0)
(-8.37738e-05 6.89135e-06 0)
(-0.000109814 7.53238e-06 0)
(-0.000137985 8.14209e-06 0)
(-0.000168186 8.7202e-06 0)
(-0.000200313 9.26639e-06 0)
(-0.000234262 9.78007e-06 0)
(-0.000269926 1.02617e-05 0)
(-0.000307196 1.07111e-05 0)
(-0.000345965 1.11282e-05 0)
(-0.000386125 1.15134e-05 0)
(-0.000427568 1.18672e-05 0)
(-0.000470187 1.21894e-05 0)
(-0.000513876 1.24807e-05 0)
(-0.000558528 1.27418e-05 0)
(-0.000604039 1.29726e-05 0)
(-0.000650306 1.31738e-05 0)
(-0.000697228 1.33461e-05 0)
(-0.000744704 1.34897e-05 0)
(-0.000792635 1.3605e-05 0)
(-0.000840925 1.36929e-05 0)
(-0.000889477 1.3754e-05 0)
(-0.000938199 1.37886e-05 0)
(-0.000987 1.37973e-05 0)
(-0.00103579 1.37809e-05 0)
(-0.00108448 1.37399e-05 0)
(-0.00113298 1.36747e-05 0)
(-0.00118121 1.35862e-05 0)
(-0.0012291 1.34749e-05 0)
(-0.00127655 1.33413e-05 0)
(-0.00132349 1.31858e-05 0)
(-0.00136985 1.30091e-05 0)
(-0.00141554 1.2812e-05 0)
(-0.00146051 1.2595e-05 0)
(-0.00150468 1.23587e-05 0)
(-0.00154798 1.21038e-05 0)
(-0.00159035 1.18309e-05 0)
(-0.00163172 1.15403e-05 0)
(-0.00167203 1.12327e-05 0)
(-0.00171123 1.09088e-05 0)
(-0.00174925 1.05692e-05 0)
(-0.00178604 1.02146e-05 0)
(-0.00182156 9.84538e-06 0)
(-0.00185574 9.4622e-06 0)
(-0.00188854 9.06576e-06 0)
(-0.00191991 8.6566e-06 0)
(-0.00194981 8.23527e-06 0)
(-0.0019782 7.80242e-06 0)
(-0.00200503 7.35872e-06 0)
(-0.00203027 6.90472e-06 0)
(-0.00205389 6.44092e-06 0)
(-0.00207585 5.96801e-06 0)
(-0.00209611 5.48673e-06 0)
(-0.00211466 4.99766e-06 0)
(-0.00213146 4.50139e-06 0)
(-0.00214649 3.99854e-06 0)
(-0.00215972 3.48974e-06 0)
(-0.00217114 2.97573e-06 0)
(-0.00218074 2.45718e-06 0)
(-0.00218848 1.93463e-06 0)
(-0.00219437 1.40865e-06 0)
(-0.00219839 8.79989e-07 0)
(-0.00220053 3.49382e-07 0)
(-0.00220079 -1.82507e-07 0)
(-0.00219917 -7.1497e-07 0)
(-0.00219566 -1.24726e-06 0)
(-0.00219027 -1.77866e-06 0)
(-0.002183 -2.30849e-06 0)
(-0.00217385 -2.83612e-06 0)
(-0.00216284 -3.36097e-06 0)
(-0.00214998 -3.88224e-06 0)
(-0.00213529 -4.39902e-06 0)
(-0.00211878 -4.91049e-06 0)
(-0.00210046 -5.41598e-06 0)
(-0.00208038 -5.91482e-06 0)
(-0.00205854 -6.40626e-06 0)
(-0.00203497 -6.88958e-06 0)
(-0.00200972 -7.364e-06 0)
(-0.00198281 -7.82868e-06 0)
(-0.00195427 -8.28282e-06 0)
(-0.00192415 -8.72567e-06 0)
(-0.00189249 -9.15646e-06 0)
(-0.00185933 -9.57438e-06 0)
(-0.00182472 -9.97871e-06 0)
(-0.00178871 -1.03687e-05 0)
(-0.00175135 -1.07437e-05 0)
(-0.0017127 -1.11026e-05 0)
(-0.00167281 -1.14447e-05 0)
(-0.00163175 -1.17694e-05 0)
(-0.00158958 -1.2076e-05 0)
(-0.00154636 -1.23635e-05 0)
(-0.00150216 -1.26314e-05 0)
(-0.00145706 -1.28787e-05 0)
(-0.00141112 -1.31048e-05 0)
(-0.00136443 -1.33091e-05 0)
(-0.00131707 -1.34907e-05 0)
(-0.0012691 -1.36491e-05 0)
(-0.00122062 -1.37836e-05 0)
(-0.00117172 -1.38933e-05 0)
(-0.00112247 -1.39778e-05 0)
(-0.00107297 -1.40364e-05 0)
(-0.00102332 -1.40685e-05 0)
(-0.000973598 -1.40736e-05 0)
(-0.000923908 -1.40511e-05 0)
(-0.000874348 -1.40003e-05 0)
(-0.000825015 -1.39209e-05 0)
(-0.00077601 -1.38124e-05 0)
(-0.000727437 -1.36745e-05 0)
(-0.000679397 -1.35065e-05 0)
(-0.000631997 -1.33081e-05 0)
(-0.00058534 -1.30791e-05 0)
(-0.000539536 -1.2819e-05 0)
(-0.000494689 -1.25277e-05 0)
(-0.000450908 -1.22049e-05 0)
(-0.000408302 -1.18506e-05 0)
(-0.000366978 -1.14646e-05 0)
(-0.000327044 -1.10468e-05 0)
(-0.000288608 -1.05973e-05 0)
(-0.000251777 -1.01162e-05 0)
(-0.000216655 -9.60376e-06 0)
(-0.000183347 -9.06022e-06 0)
(-0.000151955 -8.48606e-06 0)
(-0.000122577 -7.88186e-06 0)
(-9.53102e-05 -7.24838e-06 0)
(-7.02455e-05 -6.5866e-06 0)
(-4.74696e-05 -5.89781e-06 0)
(-2.70625e-05 -5.18363e-06 0)
(-9.09655e-06 -4.44612e-06 0)
(6.36586e-06 -3.68792e-06 0)
(1.92744e-05 -2.91236e-06 0)
(2.95941e-05 -2.12383e-06 0)
(3.73094e-05 -1.32812e-06 0)
(4.24292e-05 -5.32926e-07 0)
(4.49944e-05 2.51319e-07 0)
(4.50876e-05 1.01007e-06 0)
(4.28468e-05 1.72257e-06 0)
(3.84859e-05 2.35821e-06 0)
(3.23238e-05 2.87066e-06 0)
(2.48274e-05 3.18973e-06 0)
(1.66616e-05 3.21095e-06 0)
(8.77668e-06 2.77797e-06 0)
(2.64744e-06 1.69784e-06 0)
(1.24595e-07 1.25029e-07 0)
(1.78212e-06 -2.84673e-06 0)
(9.36587e-06 -9.36989e-06 0)
(2.30591e-05 -1.33592e-05 0)
(3.9206e-05 -1.46489e-05 0)
(5.49794e-05 -1.38768e-05 0)
(6.84002e-05 -1.16137e-05 0)
(7.79351e-05 -8.29023e-06 0)
(8.24285e-05 -4.23252e-06 0)
(8.10468e-05 3.20632e-07 0)
(7.32093e-05 5.19366e-06 0)
(5.85334e-05 1.02566e-05 0)
(3.67844e-05 1.54137e-05 0)
(7.84861e-06 2.05914e-05 0)
(-2.82988e-05 2.57357e-05 0)
(-7.16097e-05 3.08032e-05 0)
(-0.000121978 3.57611e-05 0)
(-0.000179254 4.05838e-05 0)
(-0.000243251 4.52505e-05 0)
(-0.000313756 4.97466e-05 0)
(-0.000390531 5.40597e-05 0)
(-0.000473322 5.818e-05 0)
(-0.00056186 6.21009e-05 0)
(-0.000655864 6.58169e-05 0)
(-0.000755048 6.93236e-05 0)
(-0.000859117 7.26193e-05 0)
(-0.000967771 7.57023e-05 0)
(-0.00108071 7.85711e-05 0)
(-0.00119763 8.12268e-05 0)
(-0.00131823 8.36696e-05 0)
(-0.00144221 8.59001e-05 0)
(-0.00156925 8.79207e-05 0)
(-0.00169907 8.97332e-05 0)
(-0.00183137 9.13395e-05 0)
(-0.00196584 9.27425e-05 0)
(-0.00210221 9.39451e-05 0)
(-0.00224017 9.49498e-05 0)
(-0.00237946 9.57598e-05 0)
(-0.00251978 9.6379e-05 0)
(-0.00266086 9.68105e-05 0)
(-0.00280244 9.70576e-05 0)
(-0.00294425 9.71243e-05 0)
(-0.00308603 9.70148e-05 0)
(-0.00322752 9.67322e-05 0)
(-0.00336848 9.62804e-05 0)
(-0.00350867 9.56637e-05 0)
(-0.00364783 9.48863e-05 0)
(-0.00378575 9.39515e-05 0)
(-0.0039222 9.28635e-05 0)
(-0.00405695 9.16268e-05 0)
(-0.00418979 9.02451e-05 0)
(-0.00432051 8.87225e-05 0)
(-0.00444891 8.70633e-05 0)
(-0.00457479 8.52718e-05 0)
(-0.00469797 8.33523e-05 0)
(-0.00481825 8.13084e-05 0)
(-0.00493546 7.91443e-05 0)
(-0.00504942 7.68646e-05 0)
(-0.00515997 7.44734e-05 0)
(-0.00526695 7.19749e-05 0)
(-0.00537021 6.93732e-05 0)
(-0.00546959 6.66727e-05 0)
(-0.00556495 6.38778e-05 0)
(-0.00565617 6.09924e-05 0)
(-0.0057431 5.80209e-05 0)
(-0.00582563 5.49678e-05 0)
(-0.00590364 5.18376e-05 0)
(-0.00597702 4.86343e-05 0)
(-0.00604567 4.53622e-05 0)
(-0.00610949 4.20258e-05 0)
(-0.00616838 3.86299e-05 0)
(-0.00622227 3.51787e-05 0)
(-0.00627108 3.16767e-05 0)
(-0.00631473 2.81284e-05 0)
(-0.00635317 2.45383e-05 0)
(-0.00638633 2.09113e-05 0)
(-0.00641417 1.7252e-05 0)
(-0.00643663 1.3565e-05 0)
(-0.00645369 9.85493e-06 0)
(-0.00646531 6.12663e-06 0)
(-0.00647147 2.38496e-06 0)
(-0.00647216 -1.36533e-06 0)
(-0.00646737 -5.11931e-06 0)
(-0.00645709 -8.87185e-06 0)
(-0.00644133 -1.26179e-05 0)
(-0.00642011 -1.63524e-05 0)
(-0.00639344 -2.00704e-05 0)
(-0.00636136 -2.37669e-05 0)
(-0.0063239 -2.74368e-05 0)
(-0.0062811 -3.10748e-05 0)
(-0.00623301 -3.46754e-05 0)
(-0.0061797 -3.82334e-05 0)
(-0.00612123 -4.17435e-05 0)
(-0.00605768 -4.52005e-05 0)
(-0.00598912 -4.85989e-05 0)
(-0.00591565 -5.19334e-05 0)
(-0.00583736 -5.51987e-05 0)
(-0.00575436 -5.83892e-05 0)
(-0.00566677 -6.14995e-05 0)
(-0.00557471 -6.4524e-05 0)
(-0.0054783 -6.74574e-05 0)
(-0.00537768 -7.02942e-05 0)
(-0.005273 -7.30292e-05 0)
(-0.00516441 -7.5657e-05 0)
(-0.00505208 -7.8172e-05 0)
(-0.00493616 -8.05689e-05 0)
(-0.00481685 -8.28423e-05 0)
(-0.00469431 -8.49872e-05 0)
(-0.00456875 -8.69984e-05 0)
(-0.00444037 -8.88706e-05 0)
(-0.00430936 -9.05988e-05 0)
(-0.00417594 -9.21779e-05 0)
(-0.00404034 -9.36032e-05 0)
(-0.00390278 -9.48699e-05 0)
(-0.0037635 -9.59733e-05 0)
(-0.00362273 -9.69088e-05 0)
(-0.00348073 -9.76719e-05 0)
(-0.00333775 -9.82583e-05 0)
(-0.00319405 -9.86641e-05 0)
(-0.00304989 -9.88852e-05 0)
(-0.00290554 -9.89179e-05 0)
(-0.00276129 -9.87585e-05 0)
(-0.0026174 -9.84036e-05 0)
(-0.00247418 -9.78499e-05 0)
(-0.0023319 -9.70947e-05 0)
(-0.00219086 -9.61353e-05 0)
(-0.00205136 -9.49692e-05 0)
(-0.00191369 -9.35943e-05 0)
(-0.00177817 -9.20086e-05 0)
(-0.00164509 -9.02108e-05 0)
(-0.00151476 -8.81998e-05 0)
(-0.00138748 -8.59748e-05 0)
(-0.00126357 -8.35357e-05 0)
(-0.00114332 -8.08826e-05 0)
(-0.00102705 -7.80164e-05 0)
(-0.000915056 -7.49384e-05 0)
(-0.000807633 -7.16508e-05 0)
(-0.000705079 -6.81564e-05 0)
(-0.00060768 -6.44593e-05 0)
(-0.000515717 -6.05642e-05 0)
(-0.00042946 -5.64775e-05 0)
(-0.00034917 -5.2207e-05 0)
(-0.000275091 -4.77623e-05 0)
(-0.000207449 -4.31554e-05 0)
(-0.000146452 -3.84008e-05 0)
(-9.22782e-05 -3.35168e-05 0)
(-4.5077e-05 -2.85259e-05 0)
(-4.95752e-06 -2.34561e-05 0)
(2.80188e-05 -1.83428e-05 0)
(5.38499e-05 -1.32305e-05 0)
(7.26082e-05 -8.17625e-06 0)
(8.44589e-05 -3.25397e-06 0)
(8.96854e-05 1.43957e-06 0)
(8.87213e-05 5.77564e-06 0)
(8.2193e-05 9.58078e-06 0)
(7.09752e-05 1.26185e-05 0)
(5.62586e-05 1.45683e-05 0)
(3.95995e-05 1.5007e-05 0)
(2.29795e-05 1.3396e-05 0)
(9.17301e-06 9.17774e-06 0)
(1.69471e-06 2.64589e-06 0)
(2.82346e-06 -9.05025e-06 0)
(1.33732e-05 -2.30655e-05 0)
(3.09528e-05 -3.0918e-05 0)
(5.06011e-05 -3.29343e-05 0)
(6.87359e-05 -3.02373e-05 0)
(8.28096e-05 -2.39146e-05 0)
(9.07495e-05 -1.48772e-05 0)
(9.0914e-05 -3.86148e-06 0)
(8.20716e-05 8.55422e-06 0)
(6.33283e-05 2.1921e-05 0)
(3.40597e-05 3.58937e-05 0)
(-6.13345e-06 5.02039e-05 0)
(-5.74754e-05 6.46441e-05 0)
(-0.000120046 7.90517e-05 0)
(-0.00019381 9.32994e-05 0)
(-0.00027864 0.000107287 0)
(-0.000374333 0.000120933 0)
(-0.000480624 0.000134175 0)
(-0.000597201 0.000146963 0)
(-0.000723711 0.000159255 0)
(-0.000859771 0.000171022 0)
(-0.00100497 0.000182239 0)
(-0.00115887 0.000192885 0)
(-0.00132104 0.000202948 0)
(-0.00149101 0.000212418 0)
(-0.00166832 0.000221286 0)
(-0.00185249 0.000229549 0)
(-0.00204304 0.000237205 0)
(-0.0022395 0.000244254 0)
(-0.00244137 0.000250697 0)
(-0.00264819 0.000256539 0)
(-0.00285946 0.000261783 0)
(-0.00307472 0.000266433 0)
(-0.0032935 0.000270499 0)
(-0.00351531 0.000273986 0)
(-0.00373971 0.000276901 0)
(-0.00396624 0.000279254 0)
(-0.00419444 0.000281054 0)
(-0.00442387 0.00028231 0)
(-0.0046541 0.000283031 0)
(-0.0048847 0.000283229 0)
(-0.00511524 0.000282913 0)
(-0.00534532 0.000282093 0)
(-0.00557454 0.000280782 0)
(-0.00580249 0.000278991 0)
(-0.00602879 0.00027673 0)
(-0.00625307 0.000274011 0)
(-0.00647495 0.000270845 0)
(-0.00669408 0.000267245 0)
(-0.00691011 0.000263222 0)
(-0.00712269 0.000258788 0)
(-0.00733151 0.000253954 0)
(-0.00753623 0.000248734 0)
(-0.00773655 0.000243138 0)
(-0.00793217 0.000237179 0)
(-0.00812279 0.00023087 0)
(-0.00830813 0.000224222 0)
(-0.00848793 0.000217248 0)
(-0.00866191 0.000209959 0)
(-0.00882984 0.000202369 0)
(-0.00899146 0.00019449 0)
(-0.00914655 0.000186334 0)
(-0.00929489 0.000177914 0)
(-0.00943626 0.000169242 0)
(-0.00957047 0.000160332 0)
(-0.00969733 0.000151195 0)
(-0.00981665 0.000141845 0)
(-0.00992826 0.000132294 0)
(-0.010032 0.000122556 0)
(-0.0101278 0.000112643 0)
(-0.0102154 0.000102568 0)
(-0.0102947 9.23457e-05 0)
(-0.0103656 8.19882e-05 0)
(-0.0104281 7.15093e-05 0)
(-0.010482 6.09225e-05 0)
(-0.0105272 5.02413e-05 0)
(-0.0105636 3.94796e-05 0)
(-0.0105913 2.86515e-05 0)
(-0.0106101 1.77709e-05 0)
(-0.01062 6.85198e-06 0)
(-0.0106211 -4.09122e-06 0)
(-0.0106132 -1.50443e-05 0)
(-0.0105964 -2.59927e-05 0)
(-0.0105707 -3.69216e-05 0)
(-0.0105361 -4.78163e-05 0)
(-0.0104926 -5.86618e-05 0)
(-0.0104403 -6.94432e-05 0)
(-0.0103793 -8.01455e-05 0)
(-0.0103096 -9.07533e-05 0)
(-0.0102313 -0.000101252 0)
(-0.0101446 -0.000111625 0)
(-0.0100494 -0.000121857 0)
(-0.00994598 -0.000131933 0)
(-0.00983442 -0.000141837 0)
(-0.00971489 -0.000151554 0)
(-0.00958753 -0.000161067 0)
(-0.00945252 -0.000170361 0)
(-0.00931005 -0.00017942 0)
(-0.00916031 -0.000188228 0)
(-0.00900352 -0.00019677 0)
(-0.0088399 -0.000205029 0)
(-0.00866968 -0.00021299 0)
(-0.00849313 -0.000220638 0)
(-0.00831049 -0.000227956 0)
(-0.00812205 -0.00023493 0)
(-0.00792808 -0.000241543 0)
(-0.0077289 -0.000247781 0)
(-0.00752481 -0.000253629 0)
(-0.00731614 -0.000259071 0)
(-0.00710322 -0.000264094 0)
(-0.00688639 -0.000268683 0)
(-0.00666602 -0.000272824 0)
(-0.00644248 -0.000276503 0)
(-0.00621614 -0.000279707 0)
(-0.0059874 -0.000282423 0)
(-0.00575666 -0.000284638 0)
(-0.00552433 -0.00028634 0)
(-0.00529082 -0.000287517 0)
(-0.00505657 -0.000288158 0)
(-0.00482202 -0.000288253 0)
(-0.00458761 -0.000287792 0)
(-0.0043538 -0.000286764 0)
(-0.00412104 -0.000285162 0)
(-0.0038898 -0.000282977 0)
(-0.00366055 -0.000280201 0)
(-0.00343378 -0.00027683 0)
(-0.00320996 -0.000272856 0)
(-0.00298957 -0.000268276 0)
(-0.00277311 -0.000263086 0)
(-0.00256107 -0.000257284 0)
(-0.00235393 -0.000250868 0)
(-0.00215218 -0.00024384 0)
(-0.00195631 -0.000236202 0)
(-0.0017668 -0.000227956 0)
(-0.00158414 -0.000219109 0)
(-0.00140878 -0.000209668 0)
(-0.0012412 -0.000199645 0)
(-0.00108184 -0.000189052 0)
(-0.000931147 -0.000177907 0)
(-0.00078953 -0.00016623 0)
(-0.000657392 -0.000154047 0)
(-0.000535103 -0.00014139 0)
(-0.000423007 -0.000128297 0)
(-0.000321407 -0.000114815 0)
(-0.000230564 -0.000101 0)
(-0.000150683 -8.69237e-05 0)
(-8.19055e-05 -7.26709e-05 0)
(-2.42925e-05 -5.83486e-05 0)
(2.21907e-05 -4.40894e-05 0)
(5.7697e-05 -3.00593e-05 0)
(8.25238e-05 -1.64683e-05 0)
(9.71461e-05 -3.58348e-06 0)
(0.000102258 8.25277e-06 0)
(9.88211e-05 1.86e-05 0)
(8.81263e-05 2.68915e-05 0)
(7.18581e-05 3.24078e-05 0)
(5.21184e-05 3.42662e-05 0)
(3.14518e-05 3.14485e-05 0)
(1.33903e-05 2.29818e-05 0)
(2.77265e-06 8.76891e-06 0)
(3.20262e-06 -1.68793e-05 0)
(1.47087e-05 -3.9254e-05 0)
(3.30753e-05 -5.0589e-05 0)
(5.24538e-05 -5.22663e-05 0)
(6.87494e-05 -4.60483e-05 0)
(7.90668e-05 -3.35977e-05 0)
(8.09979e-05 -1.63529e-05 0)
(7.25988e-05 4.48691e-06 0)
(5.23649e-05 2.79442e-05 0)
(1.91686e-05 5.32366e-05 0)
(-2.77976e-05 7.97403e-05 0)
(-8.90787e-05 0.000106961 0)
(-0.000164996 0.000134506 0)
(-0.000255691 0.000162061 0)
(-0.000361154 0.000189377 0)
(-0.00048125 0.000216253 0)
(-0.000615744 0.000242526 0)
(-0.000764317 0.000268068 0)
(-0.000926581 0.000292774 0)
(-0.00110209 0.00031656 0)
(-0.00129035 0.00033936 0)
(-0.00149084 0.00036112 0)
(-0.001703 0.000381799 0)
(-0.00192623 0.000401365 0)
(-0.00215995 0.000419793 0)
(-0.00240353 0.000437067 0)
(-0.00265635 0.000453176 0)
(-0.00291777 0.000468111 0)
(-0.00318714 0.000481872 0)
(-0.00346383 0.00049446 0)
(-0.00374719 0.000505877 0)
(-0.00403657 0.000516131 0)
(-0.00433135 0.000525231 0)
(-0.00463086 0.000533189 0)
(-0.0049345 0.000540015 0)
(-0.00524163 0.000545726 0)
(-0.00555164 0.000550336 0)
(-0.00586391 0.000553862 0)
(-0.00617784 0.000556321 0)
(-0.00649285 0.000557733 0)
(-0.00680834 0.000558116 0)
(-0.00712376 0.00055749 0)
(-0.00743853 0.000555876 0)
(-0.0077521 0.000553294 0)
(-0.00806395 0.000549767 0)
(-0.00837353 0.000545316 0)
(-0.00868035 0.000539963 0)
(-0.00898389 0.000533731 0)
(-0.00928366 0.000526642 0)
(-0.00957919 0.000518719 0)
(-0.00987001 0.000509986 0)
(-0.0101557 0.000500466 0)
(-0.0104357 0.000490182 0)
(-0.0107098 0.000479158 0)
(-0.0109774 0.000467418 0)
(-0.0112382 0.000454985 0)
(-0.0114917 0.000441884 0)
(-0.0117377 0.00042814 0)
(-0.0119757 0.000413775 0)
(-0.0122054 0.000398814 0)
(-0.0124265 0.000383283 0)
(-0.0126387 0.000367206 0)
(-0.0128416 0.000350607 0)
(-0.013035 0.000333511 0)
(-0.0132185 0.000315944 0)
(-0.013392 0.00029793 0)
(-0.0135552 0.000279495 0)
(-0.0137079 0.000260664 0)
(-0.0138498 0.000241463 0)
(-0.0139807 0.000221918 0)
(-0.0141005 0.000202055 0)
(-0.0142089 0.000181899 0)
(-0.0143059 0.000161478 0)
(-0.0143913 0.000140818 0)
(-0.0144649 0.000119945 0)
(-0.0145266 9.88876e-05 0)
(-0.0145764 7.76715e-05 0)
(-0.0146142 5.63249e-05 0)
(-0.0146398 3.48757e-05 0)
(-0.0146533 1.33517e-05 0)
(-0.0146546 -8.2189e-06 0)
(-0.0146437 -2.98077e-05 0)
(-0.0146206 -5.13858e-05 0)
(-0.0145853 -7.29244e-05 0)
(-0.0145379 -9.43945e-05 0)
(-0.0144783 -0.000115767 0)
(-0.0144067 -0.000137011 0)
(-0.0143231 -0.000158098 0)
(-0.0142277 -0.000178997 0)
(-0.0141205 -0.000199678 0)
(-0.0140017 -0.000220111 0)
(-0.0138714 -0.000240266 0)
(-0.0137299 -0.000260111 0)
(-0.0135772 -0.000279616 0)
(-0.0134136 -0.000298749 0)
(-0.0132394 -0.000317481 0)
(-0.0130547 -0.000335779 0)
(-0.0128597 -0.000353613 0)
(-0.0126549 -0.000370951 0)
(-0.0124404 -0.000387763 0)
(-0.0122166 -0.000404018 0)
(-0.0119838 -0.000419684 0)
(-0.0117423 -0.000434732 0)
(-0.0114925 -0.00044913 0)
(-0.0112348 -0.000462848 0)
(-0.0109696 -0.000475856 0)
(-0.0106972 -0.000488125 0)
(-0.0104182 -0.000499625 0)
(-0.0101328 -0.000510328 0)
(-0.00984172 -0.000520204 0)
(-0.00954527 -0.000529227 0)
(-0.00924399 -0.000537368 0)
(-0.00893837 -0.0005446 0)
(-0.00862893 -0.000550899 0)
(-0.00831622 -0.000556239 0)
(-0.00800076 -0.000560594 0)
(-0.00768313 -0.000563943 0)
(-0.00736389 -0.000566261 0)
(-0.00704363 -0.000567529 0)
(-0.00672294 -0.000567724 0)
(-0.00640243 -0.000566829 0)
(-0.00608271 -0.000564826 0)
(-0.0057644 -0.000561697 0)
(-0.00544815 -0.000557428 0)
(-0.00513458 -0.000552005 0)
(-0.00482435 -0.000545417 0)
(-0.0045181 -0.000537654 0)
(-0.00421649 -0.000528708 0)
(-0.00392017 -0.000518574 0)
(-0.00362981 -0.000507249 0)
(-0.00334606 -0.000494733 0)
(-0.00306957 -0.000481027 0)
(-0.002801 -0.000466137 0)
(-0.002541 -0.000450074 0)
(-0.0022902 -0.00043285 0)
(-0.00204922 -0.000414484 0)
(-0.00181869 -0.000394998 0)
(-0.00159918 -0.000374423 0)
(-0.00139128 -0.000352795 0)
(-0.00119554 -0.000330159 0)
(-0.00101247 -0.000306569 0)
(-0.000842545 -0.000282091 0)
(-0.000686206 -0.000256805 0)
(-0.000543834 -0.000230807 0)
(-0.000415749 -0.000204214 0)
(-0.000302194 -0.000177168 0)
(-0.000203326 -0.000149841 0)
(-0.000119193 -0.000122444 0)
(-4.97154e-05 -9.52353e-05 0)
(5.3391e-06 -6.85341e-05 0)
(4.63865e-05 -4.27361e-05 0)
(7.40626e-05 -1.83337e-05 0)
(8.92658e-05 4.05795e-06 0)
(9.32055e-05 2.36717e-05 0)
(8.74584e-05 3.95549e-05 0)
(7.40271e-05 5.05422e-05 0)
(5.53503e-05 5.52503e-05 0)
(3.43289e-05 5.21255e-05 0)
(1.50209e-05 3.96137e-05 0)
(3.20752e-06 1.66496e-05 0)
(3.12793e-06 -2.48355e-05 0)
(1.39939e-05 -5.51297e-05 0)
(3.05235e-05 -6.88274e-05 0)
(4.64874e-05 -6.86071e-05 0)
(5.75172e-05 -5.70071e-05 0)
(6.04846e-05 -3.63145e-05 0)
(5.27926e-05 -8.51477e-06 0)
(3.23094e-05 2.47142e-05 0)
(-2.64135e-06 6.19779e-05 0)
(-5.33415e-05 0.000102132 0)
(-0.000120734 0.000144245 0)
(-0.00020547 0.000187563 0)
(-0.000307952 0.000231473 0)
(-0.000428374 0.000275481 0)
(-0.000566751 0.000319184 0)
(-0.000722951 0.000362255 0)
(-0.000896717 0.000404429 0)
(-0.00108769 0.000445489 0)
(-0.00129542 0.000485259 0)
(-0.00151938 0.000523597 0)
(-0.00175901 0.000560386 0)
(-0.00201366 0.000595536 0)
(-0.00228267 0.000628971 0)
(-0.00256535 0.000660634 0)
(-0.00286095 0.000690482 0)
(-0.00316872 0.000718481 0)
(-0.00348792 0.000744608 0)
(-0.00381774 0.000768849 0)
(-0.00415742 0.000791195 0)
(-0.00450615 0.000811646 0)
(-0.00486315 0.000830205 0)
(-0.00522762 0.000846879 0)
(-0.00559877 0.000861682 0)
(-0.00597581 0.000874629 0)
(-0.00635796 0.000885739 0)
(-0.00674444 0.000895033 0)
(-0.00713447 0.000902534 0)
(-0.00752732 0.000908269 0)
(-0.00792221 0.000912264 0)
(-0.00831843 0.00091455 0)
(-0.00871523 0.000915155 0)
(-0.0091119 0.000914112 0)
(-0.00950775 0.000911454 0)
(-0.00990208 0.000907214 0)
(-0.0102942 0.000901426 0)
(-0.0106835 0.000894125 0)
(-0.0110693 0.000885348 0)
(-0.011451 0.000875131 0)
(-0.0118279 0.000863509 0)
(-0.0121995 0.000850521 0)
(-0.0125652 0.000836204 0)
(-0.0129244 0.000820596 0)
(-0.0132765 0.000803736 0)
(-0.0136211 0.000785661 0)
(-0.0139575 0.000766411 0)
(-0.0142854 0.000746025 0)
(-0.0146042 0.000724543 0)
(-0.0149134 0.000702003 0)
(-0.0152127 0.000678445 0)
(-0.0155015 0.00065391 0)
(-0.0157795 0.000628438 0)
(-0.0160462 0.000602069 0)
(-0.0163013 0.000574844 0)
(-0.0165444 0.000546803 0)
(-0.0167751 0.000517988 0)
(-0.0169932 0.00048844 0)
(-0.0171984 0.000458201 0)
(-0.0173902 0.000427313 0)
(-0.0175686 0.000395817 0)
(-0.0177331 0.000363757 0)
(-0.0178836 0.000331175 0)
(-0.0180199 0.000298114 0)
(-0.0181418 0.000264618 0)
(-0.018249 0.00023073 0)
(-0.0183414 0.000196494 0)
(-0.018419 0.000161956 0)
(-0.0184814 0.000127159 0)
(-0.0185288 9.21493e-05 0)
(-0.0185609 5.69722e-05 0)
(-0.0185777 2.16737e-05 0)
(-0.0185793 -1.36998e-05 0)
(-0.0185654 -4.91014e-05 0)
(-0.0185363 -8.4484e-05 0)
(-0.0184918 -0.0001198 0)
(-0.018432 -0.000155001 0)
(-0.018357 -0.00019004 0)
(-0.0182668 -0.000224868 0)
(-0.0181617 -0.000259435 0)
(-0.0180416 -0.000293693 0)
(-0.0179067 -0.000327592 0)
(-0.0177573 -0.000361081 0)
(-0.0175934 -0.000394112 0)
(-0.0174154 -0.000426633 0)
(-0.0172233 -0.000458594 0)
(-0.0170176 -0.000489945 0)
(-0.0167985 -0.000520634 0)
(-0.0165662 -0.000550612 0)
(-0.0163211 -0.000579826 0)
(-0.0160636 -0.000608227 0)
(-0.015794 -0.000635763 0)
(-0.0155126 -0.000662385 0)
(-0.01522 -0.000688041 0)
(-0.0149164 -0.000712682 0)
(-0.0146025 -0.000736257 0)
(-0.0142786 -0.000758718 0)
(-0.0139452 -0.000780015 0)
(-0.0136029 -0.000800101 0)
(-0.0132522 -0.000818927 0)
(-0.0128936 -0.000836447 0)
(-0.0125277 -0.000852614 0)
(-0.0121552 -0.000867383 0)
(-0.0117766 -0.00088071 0)
(-0.0113925 -0.000892551 0)
(-0.0110036 -0.000902865 0)
(-0.0106107 -0.00091161 0)
(-0.0102142 -0.000918748 0)
(-0.00981505 -0.00092424 0)
(-0.00941384 -0.000928051 0)
(-0.00901132 -0.000930146 0)
(-0.00860825 -0.000930492 0)
(-0.00820536 -0.000929059 0)
(-0.00780344 -0.000925819 0)
(-0.00740326 -0.000920747 0)
(-0.0070056 -0.000913817 0)
(-0.00661126 -0.000905011 0)
(-0.00622105 -0.00089431 0)
(-0.00583576 -0.000881699 0)
(-0.00545621 -0.000867169 0)
(-0.00508322 -0.000850712 0)
(-0.0047176 -0.000832324 0)
(-0.00436016 -0.000812008 0)
(-0.00401171 -0.00078977 0)
(-0.00367306 -0.000765622 0)
(-0.00334498 -0.000739581 0)
(-0.00302827 -0.000711675 0)
(-0.0027237 -0.000681934 0)
(-0.00243199 -0.000650402 0)
(-0.00215389 -0.000617131 0)
(-0.00189008 -0.000582185 0)
(-0.00164122 -0.000545641 0)
(-0.00140792 -0.000507593 0)
(-0.00119076 -0.000468156 0)
(-0.000990257 -0.000427462 0)
(-0.000806844 -0.000385677 0)
(-0.000640891 -0.000342993 0)
(-0.000492669 -0.000299646 0)
(-0.000362341 -0.000255918 0)
(-0.000249938 -0.000212151 0)
(-0.000155339 -0.000168757 0)
(-7.82428e-05 -0.000126241 0)
(-1.81391e-05 -8.52175e-05 0)
(2.57314e-05 -4.64357e-05 0)
(5.44149e-05 -1.08139e-05 0)
(6.92904e-05 2.05286e-05 0)
(7.21203e-05 4.62349e-05 0)
(6.51038e-05 6.46811e-05 0)
(5.08872e-05 7.39655e-05 0)
(3.26059e-05 7.1944e-05 0)
(1.46317e-05 5.6332e-05 0)
(3.19379e-06 2.48272e-05 0)
(2.76397e-06 -3.19833e-05 0)
(1.18034e-05 -6.87329e-05 0)
(2.43852e-05 -8.31199e-05 0)
(3.43701e-05 -7.91026e-05 0)
(3.7317e-05 -6.00459e-05 0)
(2.9989e-05 -2.88938e-05 0)
(9.68515e-06 1.18131e-05 0)
(-2.58172e-05 5.9914e-05 0)
(-7.82912e-05 0.000113591 0)
(-0.00014911 0.000171328 0)
(-0.000239302 0.000231871 0)
(-0.000349589 0.000294183 0)
(-0.000480431 0.000357416 0)
(-0.000632057 0.000420867 0)
(-0.000804504 0.000483963 0)
(-0.000997639 0.000546228 0)
(-0.00121119 0.000607273 0)
(-0.00144476 0.000666779 0)
(-0.00169786 0.000724481 0)
(-0.0019699 0.000780163 0)
(-0.00226022 0.000833651 0)
(-0.00256812 0.0008848 0)
(-0.00289283 0.000933496 0)
(-0.00323353 0.000979647 0)
(-0.0035894 0.00102318 0)
(-0.00395956 0.00106405 0)
(-0.00434313 0.00110221 0)
(-0.0047392 0.00113763 0)
(-0.00514684 0.0011703 0)
(-0.00556515 0.00120021 0)
(-0.00599319 0.00122736 0)
(-0.00643001 0.00125176 0)
(-0.00687471 0.00127343 0)
(-0.00732634 0.00129239 0)
(-0.00778398 0.00130865 0)
(-0.00824671 0.00132226 0)
(-0.00871363 0.00133323 0)
(-0.00918384 0.00134161 0)
(-0.00965645 0.00134744 0)
(-0.0101306 0.00135076 0)
(-0.0106054 0.00135161 0)
(-0.01108 0.00135003 0)
(-0.0115536 0.00134607 0)
(-0.0120253 0.00133978 0)
(-0.0124944 0.00133122 0)
(-0.0129601 0.00132042 0)
(-0.0134216 0.00130745 0)
(-0.0138781 0.00129235 0)
(-0.014329 0.00127518 0)
(-0.0147734 0.001256 0)
(-0.0152108 0.00123485 0)
(-0.0156404 0.0012118 0)
(-0.0160616 0.00118689 0)
(-0.0164736 0.0011602 0)
(-0.016876 0.00113177 0)
(-0.0172682 0.00110166 0)
(-0.0176494 0.00106993 0)
(-0.0180192 0.00103664 0)
(-0.0183771 0.00100184 0)
(-0.0187225 0.000965601 0)
(-0.0190549 0.000927976 0)
(-0.0193738 0.000889024 0)
(-0.0196788 0.000848808 0)
(-0.0199695 0.000807387 0)
(-0.0202454 0.000764821 0)
(-0.0205062 0.000721173 0)
(-0.0207515 0.000676503 0)
(-0.0209809 0.000630874 0)
(-0.021194 0.000584348 0)
(-0.0213907 0.000536989 0)
(-0.0215707 0.000488858 0)
(-0.0217335 0.000440021 0)
(-0.0218791 0.000390542 0)
(-0.0220072 0.000340485 0)
(-0.0221177 0.000289916 0)
(-0.0222103 0.0002389 0)
(-0.0222849 0.000187504 0)
(-0.0223414 0.000135796 0)
(-0.0223796 8.38419e-05 0)
(-0.0223996 3.17104e-05 0)
(-0.0224013 -2.05298e-05 0)
(-0.0223847 -7.28096e-05 0)
(-0.0223496 -0.000125059 0)
(-0.0222963 -0.000177208 0)
(-0.0222247 -0.000229185 0)
(-0.0221348 -0.00028092 0)
(-0.0220269 -0.00033234 0)
(-0.021901 -0.000383373 0)
(-0.0217573 -0.000433947 0)
(-0.0215959 -0.000483987 0)
(-0.0214171 -0.000533421 0)
(-0.0212211 -0.000582174 0)
(-0.0210081 -0.000630173 0)
(-0.0207784 -0.000677343 0)
(-0.0205323 -0.000723609 0)
(-0.0202703 -0.000768896 0)
(-0.0199925 -0.00081313 0)
(-0.0196994 -0.000856236 0)
(-0.0193914 -0.000898138 0)
(-0.019069 -0.000938763 0)
(-0.0187326 -0.000978035 0)
(-0.0183826 -0.00101588 0)
(-0.0180197 -0.00105223 0)
(-0.0176444 -0.001087 0)
(-0.0172571 -0.00112013 0)
(-0.0168586 -0.00115154 0)
(-0.0164493 -0.00118117 0)
(-0.01603 -0.00120893 0)
(-0.0156014 -0.00123477 0)
(-0.015164 -0.00125862 0)
(-0.0147186 -0.0012804 0)
(-0.014266 -0.00130006 0)
(-0.0138069 -0.00131753 0)
(-0.013342 -0.00133276 0)
(-0.0128722 -0.00134567 0)
(-0.0123982 -0.00135622 0)
(-0.011921 -0.00136435 0)
(-0.0114413 -0.00137 0)
(-0.0109599 -0.00137313 0)
(-0.0104779 -0.0013737 0)
(-0.00999611 -0.00137165 0)
(-0.00951538 -0.00136694 0)
(-0.00903667 -0.00135955 0)
(-0.00856091 -0.00134944 0)
(-0.00808904 -0.00133657 0)
(-0.007622 -0.00132093 0)
(-0.00716076 -0.0013025 0)
(-0.00670626 -0.00128126 0)
(-0.00625948 -0.0012572 0)
(-0.00582135 -0.00123032 0)
(-0.00539284 -0.00120064 0)
(-0.0049749 -0.00116815 0)
(-0.00456847 -0.00113288 0)
(-0.00417447 -0.00109487 0)
(-0.00379382 -0.00105415 0)
(-0.00342739 -0.00101078 0)
(-0.00307607 -0.000964816 0)
(-0.00274068 -0.000916351 0)
(-0.00242203 -0.000865482 0)
(-0.00212087 -0.000812327 0)
(-0.0018379 -0.000757031 0)
(-0.00157378 -0.000699765 0)
(-0.00132908 -0.000640734 0)
(-0.00110429 -0.000580181 0)
(-0.000899829 -0.000518396 0)
(-0.00071598 -0.000455725 0)
(-0.000552911 -0.000392578 0)
(-0.00041064 -0.000329451 0)
(-0.000289014 -0.000266932 0)
(-0.000187681 -0.000205733 0)
(-0.000106061 -0.000146707 0)
(-4.33103e-05 -9.08818e-05 0)
(1.71424e-06 -3.94928e-05 0)
(3.04969e-05 5.97784e-06 0)
(4.49085e-05 4.37634e-05 0)
(4.72565e-05 7.17766e-05 0)
(4.03014e-05 8.75849e-05 0)
(2.73126e-05 8.84185e-05 0)
(1.27663e-05 7.11963e-05 0)
(2.88881e-06 3.2369e-05 0)
(2.21871e-06 -3.76825e-05 0)
(8.57311e-06 -7.85555e-05 0)
(1.5584e-05 -9.14238e-05 0)
(1.75382e-05 -8.13854e-05 0)
(1.01256e-05 -5.26075e-05 0)
(-9.91264e-06 -8.68354e-06 0)
(-4.52927e-05 4.72961e-05 0)
(-9.826e-05 0.000112693 0)
(-0.00017062 0.000185271 0)
(-0.000263787 0.000263141 0)
(-0.000378827 0.000344719 0)
(-0.000516501 0.000428683 0)
(-0.000677297 0.00051393 0)
(-0.000861468 0.000599539 0)
(-0.00106906 0.000684748 0)
(-0.00129993 0.00076892 0)
(-0.00155379 0.000851526 0)
(-0.00183021 0.000932128 0)
(-0.00212866 0.00101036 0)
(-0.00244851 0.00108593 0)
(-0.00278902 0.00115857 0)
(-0.00314941 0.0012281 0)
(-0.00352883 0.00129434 0)
(-0.00392638 0.00135716 0)
(-0.00434113 0.00141646 0)
(-0.00477209 0.00147216 0)
(-0.00521828 0.00152419 0)
(-0.00567866 0.00157251 0)
(-0.00615221 0.00161709 0)
(-0.00663788 0.00165793 0)
(-0.00713461 0.00169501 0)
(-0.00764135 0.00172834 0)
(-0.00815702 0.00175794 0)
(-0.00868059 0.00178383 0)
(-0.00921098 0.00180605 0)
(-0.00974717 0.00182462 0)
(-0.0102881 0.0018396 0)
(-0.0108327 0.00185102 0)
(-0.0113801 0.00185894 0)
(-0.0119291 0.00186341 0)
(-0.0124789 0.00186449 0)
(-0.0130284 0.00186224 0)
(-0.0135766 0.00185672 0)
(-0.0141227 0.001848 0)
(-0.0146657 0.00183614 0)
(-0.0152047 0.00182122 0)
(-0.0157388 0.00180329 0)
(-0.0162671 0.00178245 0)
(-0.0167889 0.00175875 0)
(-0.0173032 0.00173227 0)
(-0.0178093 0.00170309 0)
(-0.0183064 0.00167128 0)
(-0.0187938 0.00163693 0)
(-0.0192706 0.0016001 0)
(-0.0197362 0.00156087 0)
(-0.0201899 0.00151934 0)
(-0.020631 0.00147556 0)
(-0.0210589 0.00142963 0)
(-0.0214729 0.00138163 0)
(-0.0218725 0.00133163 0)
(-0.0222571 0.00127973 0)
(-0.022626 0.00122599 0)
(-0.0229789 0.00117051 0)
(-0.0233152 0.00111337 0)
(-0.0236343 0.00105464 0)
(-0.023936 0.000994427 0)
(-0.0242197 0.000932802 0)
(-0.024485 0.000869854 0)
(-0.0247315 0.000805669 0)
(-0.024959 0.000740334 0)
(-0.025167 0.000673937 0)
(-0.0253554 0.000606566 0)
(-0.0255237 0.00053831 0)
(-0.0256718 0.000469259 0)
(-0.0257994 0.000399502 0)
(-0.0259064 0.000329131 0)
(-0.0259926 0.000258239 0)
(-0.0260578 0.000186916 0)
(-0.026102 0.000115258 0)
(-0.026125 4.33565e-05 0)
(-0.0261268 -2.8692e-05 0)
(-0.0261073 -0.000100792 0)
(-0.0260667 -0.000172848 0)
(-0.0260048 -0.000244762 0)
(-0.0259218 -0.000316437 0)