/*--------------------------------*- C++ -*----------------------------------*\
  =========                 |
  \\      /  F ield         | OpenFOAM: The Open Source CFD Toolbox
   \\    /   O peration     | Website:  https://openfoam.org
    \\  /    A nd           | Version:  7
     \\/     M anipulation  |
\*---------------------------------------------------------------------------*/
FoamFile
{
    version     2.0;
    format      ascii;
    class       volScalarField;
    location    "0.5";
    object      p;
}
// * * * * * * * * * * * * * * * * * * * * * * * * * * * * * * * * * * * * * //

dimensions      [0 2 -2 0 0 0 0];

internalField   nonuniform List<scalar> 
6400
(
9.97993e-06
2.95004e-05
-0.000476035
-0.00150909
-0.00295191
-0.00469418
-0.00663554
-0.0086864
-0.0107696
-0.0128196
-0.0147813
-0.0166086
-0.0182629
-0.0197126
-0.0209319
-0.0218999
-0.0226006
-0.0230219
-0.023155
-0.0229947
-0.0225386
-0.0217865
-0.0207412
-0.019407
-0.0177904
-0.0158998
-0.0137448
-0.0113369
-0.00868865
-0.00581393
-0.00272775
0.000553852
0.00401387
0.00763444
0.0113969
0.0152819
0.0192693
0.0233386
0.0274687
0.0316382
0.035825
0.0400073
0.0441627
0.048269
0.0523038
0.0562452
0.0600713
0.0637607
0.0672925
0.0706464
0.073803
0.0767438
0.0794514
0.0819098
0.0841042
0.0860218
0.0876513
0.0889835
0.0900113
0.0907304
0.0911386
0.0912369
0.0910293
0.0905232
0.0897297
0.0886638
0.0873448
0.0857969
0.0840495
0.0821378
0.0801036
0.077996
0.0758727
0.0738005
0.0718571
0.070131
0.0687193
0.0677261
0.0672581
0.0672957
5.28054e-06
1.94689e-05
-0.00043407
-0.00131761
-0.00253183
-0.00399751
-0.00563871
-0.00738305
-0.00916523
-0.010928
-0.0126217
-0.0142038
-0.0156382
-0.0168945
-0.0179478
-0.0187775
-0.0193675
-0.0197053
-0.0197818
-0.0195909
-0.0191293
-0.0183963
-0.0173933
-0.0161238
-0.0145933
-0.0128089
-0.0107793
-0.00851457
-0.00602629
-0.00332713
-0.000430871
0.00264765
0.00589266
0.00928755
0.0128149
0.0164566
0.020194
0.0240077
0.027878
0.0317848
0.0357076
0.0396258
0.0435185
0.0473649
0.0511442
0.0548358
0.0584194
0.0618751
0.0651835
0.0683259
0.0712842
0.0740417
0.0765823
0.0788914
0.0809557
0.0827638
0.0843056
0.0855731
0.0865607
0.0872646
0.087684
0.0878205
0.0876787
0.0872666
0.0865954
0.0856801
0.0845397
0.0831976
0.0816819
0.0800258
0.0782682
0.0764541
0.0746351
0.0728694
0.0712227
0.0697661
0.0685729
0.0677178
0.0672945
0.0673332
0.00051295
0.000474912
2.09452e-05
-0.00079517
-0.00188619
-0.0031888
-0.00464183
-0.00618515
-0.00776309
-0.00932562
-0.0108284
-0.0122329
-0.0135056
-0.0146182
-0.0155469
-0.0162719
-0.0167776
-0.0170515
-0.0170845
-0.0168702
-0.0164048
-0.0156871
-0.0147178
-0.0134999
-0.0120379
-0.0103381
-0.00840844
-0.00625816
-0.00389781
-0.00133914
0.00140502
0.00432081
0.00739346
0.0106074
0.0139462
0.0173928
0.0209296
0.0245384
0.0282005
0.0318969
0.0356083
0.0393151
0.0429977
0.0466365
0.0502118
0.0537043
0.0570947
0.0603645
0.0634953
0.0664697
0.0692709
0.0718831
0.0742916
0.0764828
0.0784445
0.0801662
0.0816389
0.0828556
0.0838112
0.0845028
0.0849302
0.0850954
0.0850034
0.0846623
0.0840831
0.0832805
0.0822728
0.0810823
0.0797355
0.0782635
0.076702
0.0750918
0.0734789
0.0719144
0.070454
0.0691572
0.0680832
0.0672921
0.0668696
0.0668671
0.00154623
0.00136116
0.000837323
1.7875e-05
-0.00103051
-0.00225426
-0.00360163
-0.00502189
-0.00646738
-0.00789449
-0.00926402
-0.0105413
-0.0116959
-0.0127018
-0.0135368
-0.0141825
-0.0146237
-0.0148486
-0.0148483
-0.0146164
-0.0141491
-0.0134448
-0.0125039
-0.0113287
-0.00992345
-0.0082938
-0.00644696
-0.00439148
-0.00213719
0.000304924
0.00292282
0.00570347
0.00863293
0.0116965
0.0148786
0.0181631
0.0215334
0.024972
0.0284612
0.0319831
0.0355192
0.039051
0.0425598
0.046027
0.0494338
0.0527619
0.0559932
0.0591099
0.0620949
0.0649314
0.0676038
0.0700972
0.0723977
0.0744926
0.0763706
0.0780219
0.0794382
0.080613
0.081542
0.0822227
0.0826552
0.0828416
0.0827871
0.0824995
0.0819896
0.0812713
0.0803621
0.0792829
0.0780583
0.0767169
0.0752913
0.0738184
0.0723389
0.0708974
0.0695421
0.0683235
0.0672918
0.0664989
0.0660127
0.0658771
0.00299545
0.00258388
0.00193215
0.00105975
3.91175e-06
-0.00119053
-0.00247967
-0.00382125
-0.00517497
-0.00650333
-0.0077721
-0.00895057
-0.0100116
-0.0109316
-0.0116903
-0.0122707
-0.0126587
-0.0128432
-0.0128157
-0.0125701
-0.0121026
-0.0114115
-0.010497
-0.00936127
-0.0080079
-0.00644215
-0.00467068
-0.00270146
-0.000543649
0.00179244
0.00429547
0.00695316
0.00975234
0.0126791
0.0157187
0.0188558
0.0220745
0.0253584
0.0286907
0.0320541
0.0354311
0.0388042
0.0421555
0.0454672
0.0487217
0.0519013
0.054989
0.0579677
0.0608212
0.0635338
0.0660904
0.0684771
0.0706807
0.0726892
0.0744921
0.0760802
0.0774456
0.0785826
0.079487
0.0801568
0.080592
0.0807951
0.0807709
0.080527
0.0800736
0.0794238
0.0785938
0.0776032
0.0764744
0.0752336
0.0739101
0.0725366
0.071149
0.0697861
0.0684889
0.0672998
0.0662621
0.0654194
0.064813
0.0644653
0.00475848
0.00407002
0.00324728
0.00228165
0.00117696
-2.97022e-05
-0.00130108
-0.00260249
-0.00390037
-0.00516287
-0.00636051
-0.00746651
-0.00845695
-0.00931079
-0.0100098
-0.0105387
-0.0108845
-0.0110371
-0.0109885
-0.0107332
-0.0102674
-0.00958962
-0.00869999
-0.00760035
-0.00629412
-0.00478616
-0.0030827
-0.00119119
0.000879724
0.00312035
0.00551999
0.00806701
0.010749
0.0135526
0.0164639
0.0194685
0.022551
0.0256959
0.0288872
0.0321084
0.0353428
0.0385736
0.0417839
0.0449567
0.048075
0.0511222
0.0540817
0.0569376
0.0596742
0.0622766
0.0647305
0.0670226
0.0691403
0.0710723
0.0728087
0.0743405
0.0756607
0.0767636
0.0776453
0.078304
0.0787398
0.078955
0.0789542
0.0787444
0.0783351
0.0777386
0.0769698
0.0760464
0.0749889
0.0738209
0.0725685
0.0712605
0.0699283
0.068605
0.0673255
0.0661249
0.0650404
0.0641085
0.0633391
0.0627282
0.0067446
0.00575102
0.00472745
0.003637
0.00244955
0.00119566
-9.28409e-05
-0.00138794
-0.00266208
-0.00388857
-0.00504236
-0.00610041
-0.00704193
-0.00784846
-0.00850394
-0.00899464
-0.00930913
-0.00943818
-0.00937467
-0.00911348
-0.00865142
-0.00798702
-0.00712052
-0.0060537
-0.00478979
-0.00333341
-0.00169042
0.000132097
0.00212598
0.00428203
0.00659009
0.00903913
0.0116173
0.014312
0.0171099
0.0199972
0.0229594
0.0259816
0.0290484
0.0321442
0.0352529
0.0383586
0.0414449
0.0444956
0.0474945
0.0504256
0.0532732
0.0560217
0.0586564
0.0611628
0.0635273
0.065737
0.0677802
0.0696458
0.0713243
0.0728072
0.0740877
0.0751604
0.0760216
0.0766693
0.0771036
0.0773265
0.0773423
0.0771573
0.0767804
0.0762225
0.0754974
0.074621
0.0736119
0.0724908
0.071281
0.0700077
0.0686978
0.0673799
0.0660829
0.0648358
0.0636707
0.0626182
0.0616558
0.0607524
0.00887454
0.00756235
0.00631885
0.00508042
0.00378416
0.00245535
0.00112143
-0.000195349
-0.00147275
-0.00268868
-0.00382215
-0.00485365
-0.00576537
-0.00654137
-0.00716769
-0.00763235
-0.00792533
-0.00803853
-0.0079657
-0.00770238
-0.00724583
-0.00659489
-0.00574996
-0.00471286
-0.00348674
-0.00207606
-0.000486454
0.00127534
0.00320151
0.00528329
0.007511
0.00987411
0.0123613
0.0149606
0.0176592
0.0204439
0.0233008
0.0262157
0.0291738
0.0321602
0.0351595
0.0381562
0.0411347
0.0440795
0.0469749
0.0498056
0.0525563
0.0552123
0.0577591
0.060183
0.0624708
0.0646101
0.0665893
0.0683981
0.0700271
0.071468
0.0727143
0.0737606
0.0746032
0.0752401
0.0756711
0.0758979
0.0759243
0.0757559
0.0754007
0.0748685
0.0741717
0.0733244
0.0723433
0.0712466
0.0700548
0.0687897
0.0674745
0.0661332
0.06479
0.0634684
0.0621964
0.0609997
0.0598246
0.0586142
0.0110813
0.00944651
0.00797198
0.00656937
0.00514486
0.00371965
0.00231779
0.000956535
-0.000346486
-0.00157327
-0.00270647
-0.00372983
-0.00462836
-0.00538853
-0.00599843
-0.00644779
-0.00672805
-0.00683227
-0.00675514
-0.00649295
-0.00604348
-0.00540597
-0.00458105
-0.00357068
-0.00237803
-0.00100748
0.000535521
0.00224444
0.00411178
0.00612911
0.00828715
0.0105758
0.0129842
0.0155009
0.0181136
0.0208097
0.0235757
0.0263981
0.0292626
0.0321548
0.03506
0.0379633
0.0408496
0.0437038
0.0465109
0.049256
0.0519245
0.054502
0.0569745
0.0593288
0.0615519
0.0636319
0.0655576
0.0673187
0.0689062
0.0703119
0.0715292
0.0725529
0.0733791
0.0740057
0.0744322
0.0746597
0.0746915
0.0745324
0.0741895
0.0736716
0.0729895
0.0721559
0.0711851
0.0700935
0.0688986
0.0676193
0.0662755
0.0648874
0.0634747
0.0620564
0.0606575
0.0592999
0.0579003
0.0563779
0.0133088
0.0113534
0.00964237
0.00806473
0.00649779
0.00495977
0.00347218
0.00204804
0.000700993
-0.000554529
-0.00170444
-0.00273541
-0.00363506
-0.00439215
-0.00499674
-0.00544025
-0.0057155
-0.00581677
-0.00573973
-0.00548144
-0.00504028
-0.00441595
-0.00360941
-0.00262278
-0.00145936
-0.000123487
0.00137944
0.00304308
0.00486015
0.0068225
0.00892117
0.0111464
0.0134878
0.0159343
0.0184741
0.0210949
0.023784
0.026528
0.0293134
0.0321262
0.0349522
0.0377769
0.0405858
0.0433643
0.0460977
0.0487717
0.051372
0.0538846
0.0562959
0.0585929
0.0607632
0.0627948
0.0646769
0.0663993
0.0679531
0.0693302
0.070524
0.071529
0.0723413
0.0729584
0.0733795
0.0736052
0.0736381
0.0734822
0.0731437
0.0726302
0.071951
0.0711174
0.070142
0.0690387
0.0678229
0.0665107
0.0651189
0.0636646
0.0621638
0.0606316
0.0590908
0.0575608
0.0559304
0.0540969
0.0155104
0.0132395
0.0112904
0.00953089
0.00781148
0.00614831
0.00456112
0.00305942
0.00165338
0.000354353
-0.000826452
-0.00187833
-0.0027913
-0.00355624
-0.00416507
-0.00461083
-0.00488773
-0.00499121
-0.00491794
-0.00466578
-0.00423377
-0.00362211
-0.00283212
-0.00186618
-0.000727734
0.00057881
0.00204809
0.00367385
0.00544897
0.00736552
0.0094148
0.0115874
0.0138732
0.0162614
0.0187408
0.0212994
0.0239248
0.0266043
0.0293247
0.0320723
0.0348334
0.037594
0.0403399
0.043057
0.0457309
0.0483477
0.0508933
0.0533542
0.0557171
0.057969
0.0600977
0.0620917
0.06394
0.0656326
0.0671605
0.0685157
0.0696914
0.0706819
0.0714831
0.0720921
0.0725075
0.0727296
0.0727601
0.0726024
0.0722615
0.0717439
0.0710578
0.0702128
0.0692197
0.0680908
0.066839
0.0654781
0.0640225
0.0624863
0.0608825
0.0592232
0.0575296
0.0558194
0.0539556
0.0518153
0.0176465
0.0150672
0.0128808
0.0109356
0.0090568
0.00725941
0.00556201
0.00397115
0.00249412
0.00113955
-8.3844e-05
-0.00116772
-0.00210423
-0.00288621
-0.00350734
-0.00396218
-0.00424629
-0.00435625
-0.00428971
-0.00404534
-0.00362287
-0.00302302
-0.00224753
-0.00129908
-0.000181314
0.00110125
0.00254322
0.00413838
0.0058797
0.00775942
0.00976904
0.0118994
0.0141406
0.0164823
0.0189134
0.0214223
0.0239972
0.0266255
0.0292944
0.0319906
0.0347009
0.0374114
0.0401083
0.0427779
0.0454062
0.0479793
0.0504835
0.0529056
0.0552323
0.057451
0.0595495
0.0615163
0.0633405
0.0650121
0.066522
0.067862
0.0690253
0.0700058
0.070799
0.0714016
0.0718119
0.0720294
0.0720551
0.0718915
0.0715427
0.0710142
0.0703128
0.0694467
0.0684252
0.0672587
0.0659584
0.064536
0.0630036
0.0613729
0.0596545
0.0578579
0.0560036
0.0541083
0.052011
0.0495698
0.0196839
0.0168037
0.0143823
0.0122495
0.0102069
0.00826878
0.00645313
0.00476413
0.00320657
0.00178681
0.000511318
-0.000613623
-0.0015821
-0.00238875
-0.00302882
-0.00349836
-0.00379418
-0.003914
-0.0038564
-0.00362088
-0.00320784
-0.00261858
-0.00185525
-0.000920905
0.000180602
0.00144458
0.00286557
0.00443732
0.00615288
0.00800458
0.00998407
0.0120823
0.0142898
0.0165963
0.0189909
0.0214626
0.0239996
0.0265897
0.0292204
0.0318787
0.0345516
0.0372257
0.0398874
0.0425231
0.0451191
0.0476618
0.0501377
0.0525336
0.0548364
0.0570335
0.0591129
0.0610629
0.0628727
0.0645322
0.066032
0.0673639
0.0685206
0.0694959
0.0702848
0.0708836
0.0712898
0.0715024
0.0715217
0.0713493
0.0709885
0.0704435
0.06972
0.0688249
0.0677661
0.0665524
0.0651933
0.0636988
0.0620789
0.0603437
0.0585016
0.0565601
0.0545395
0.0524561
0.0501265
0.0473909
0.0215937
0.0184202
0.0157669
0.013446
0.0112369
0.00915355
0.00721375
0.00541972
0.00377421
0.00228158
0.00094641
-0.00022689
-0.00123414
-0.00207158
-0.00273596
-0.00322465
-0.00353569
-0.00366786
-0.00362068
-0.00339443
-0.00299022
-0.00240989
-0.00165609
-0.000732205
0.000357621
0.00160851
0.00301487
0.00457042
0.00626819
0.00810057
0.0100593
0.0121355
0.0143199
0.0166022
0.0189721
0.0214186
0.02393
0.0264946
0.0291001
0.0317337
0.0343826
0.0370337
0.0396735
0.0422887
0.0448657
0.047391
0.0498514
0.0522335
0.0545244
0.0567116
0.0587829
0.0607266
0.0625318
0.0641881
0.065686
0.067017
0.0681735
0.0691488
0.0699375
0.0705353
0.0709393
0.0711476
0.0711599
0.0709769
0.0706009
0.0700352
0.0692843
0.0683539
0.0672507
0.0659819
0.0645557
0.0629805
0.0612648
0.0594171
0.0574441
0.0553519
0.053161
0.0508879
0.0483278
0.0453041
0.023351
0.0198913
0.0170094
0.0145009
0.0121238
0.00989221
0.007824
0.0059198
0.00418063
0.0026092
0.0012084
-1.89844e-05
-0.00107035
-0.00194338
-0.0026362
-0.00314741
-0.00347622
-0.00362239
-0.00358636
-0.0033692
-0.00297268
-0.00239921
-0.00165193
-0.000734598
0.000348333
0.00159176
0.00298995
0.00453651
0.00622444
0.00804615
0.00999345
0.0120576
0.0142292
0.0164984
0.018855
0.021288
0.0237862
0.0263378
0.0289307
0.0315526
0.0341906
0.0368317
0.0394629
0.0420707
0.0446417
0.0471626
0.0496201
0.0520008
0.0542919
0.0564807
0.058555
0.0605029
0.0623133
0.0639756
0.0654801
0.0668178
0.0679806
0.0689616
0.0697548
0.0703554
0.0707597
0.0709652
0.0709708
0.0707764
0.0703833
0.0697939
0.0690116
0.0680411
0.0668878
0.0655577
0.0640577
0.062395
0.0605768
0.0586102
0.0565009
0.0542537
0.0518897
0.0494259
0.0466373
0.0433311
0.0249337
0.0211942
0.0180871
0.0153919
0.0128462
0.0104644
0.00826482
0.00624671
0.00440965
0.00275491
0.00128396
-1.87886e-06
-0.00110139
-0.0020136
-0.00273788
-0.00327399
-0.00362218
-0.0037832
-0.00375835
-0.00354945
-0.00315894
-0.00258982
-0.00184568
-0.000930692
0.000150367
0.00139215
0.00278873
0.0043336
0.00601969
0.00783938
0.00978448
0.0118463
0.0140156
0.0162826
0.018637
0.0210683
0.0235652
0.0261161
0.0287092
0.031332
0.033972
0.0366163
0.0392518
0.0418653
0.0444433
0.0469726
0.0494397
0.0518314
0.0541347
0.0563368
0.0584252
0.060388
0.0622137
0.0638915
0.0654112
0.0667634
0.0679398
0.0689327
0.0697357
0.0703433
0.0707512
0.0709562
0.0709563
0.0707507
0.0703397
0.0697248
0.0689085
0.0678943
0.0666866
0.0652905
0.0637116
0.061956
0.06003
0.0579398
0.0556898
0.0532842
0.0507449
0.04809
0.0450746
0.0414907
0.0263218
0.0223081
0.018979
0.0160983
0.0133839
0.0108508
0.00851784
0.00638322
0.00444521
0.00270391
0.00115949
-0.000187972
-0.00133853
-0.00229241
-0.00305014
-0.00361256
-0.00398092
-0.00415686
-0.00414251
-0.00394045
-0.00355374
-0.00298597
-0.0022412
-0.00132403
-0.000239548
0.00100661
0.00240831
0.0039589
0.00565121
0.00747754
0.00942971
0.011499
0.0136763
0.0159518
0.0183154
0.0207564
0.0232639
0.0258264
0.028432
0.0310685
0.0337233
0.0363836
0.0390364
0.0416685
0.0442664
0.0468168
0.0493062
0.0517213
0.0540489
0.0562759
0.0583899
0.0603784
0.0622297
0.0639327
0.0654767
0.0668519
0.0680494
0.069061
0.0698797
0.0704994
0.0709149
0.0711225
0.0711193
0.0709036
0.0704749
0.0698339
0.068982
0.0679219
0.066657
0.0651913
0.0635296
0.0616771
0.0596392
0.0574213
0.0550274
0.0524608
0.0497446
0.046898
0.0436572
0.0397991
0.0274972
0.0232139
0.0196656
0.0166006
0.0137178
0.0110328
0.0085653
0.00631242
0.00427142
0.0024413
0.000821171
-0.000590044
-0.00179352
-0.00279059
-0.00358284
-0.00417212
-0.00456059
-0.00475079
-0.0047456
-0.00454834
-0.0041627
-0.00359282
-0.00284325
-0.001919
-0.000825531
0.000431263
0.00184501
0.00340887
0.00511555
0.00695728
0.00892581
0.0110124
0.0132079
0.0155026
0.0178865
0.0203489
0.0228789
0.025465
0.0280955
0.0307581
0.0334405
0.0361297
0.0388127
0.0414763
0.044107
0.0466913
0.0492157
0.0516666
0.0540307
0.0562947
0.0584457
0.0604711
0.0623587
0.0640969
0.0656747
0.0670817
0.0683085
0.0693463
0.0701872
0.0708246
0.0712527
0.0714668
0.0714633
0.0712398
0.0707947
0.0701279
0.0692401
0.0681328
0.0668088
0.0652712
0.063524
0.0615715
0.0594186
0.0570702
0.0545295
0.0517998
0.0489053
0.0458664
0.0424011
0.038271
0.0284429
0.0238937
0.0201284
0.0168804
0.0138296
0.0109927
0.00838988
0.0060177
0.00387243
0.00195214
0.000254946
-0.00122124
-0.0024786
-0.0035195
-0.00434649
-0.00496236
-0.00537015
-0.00557322
-0.00557522
-0.00538014
-0.0049923
-0.00441637
-0.00365742
-0.00272086
-0.0016125
-0.000338549
0.00109437
0.00267924
0.0044086
0.00627456
0.00826881
0.0103826
0.0126066
0.0149313
0.0173465
0.0198418
0.022406
0.0250279
0.0276956
0.030397
0.0331196
0.0358505
0.0385766
0.0412847
0.0439611
0.0465922
0.0491643
0.0516637
0.0540767
0.0563898
0.0585896
0.0606633
0.0625982
0.0643822
0.0660038
0.0674521
0.0687168
0.0697887
0.0706592
0.0713209
0.0717672
0.0719927
0.0719929
0.0717645
0.0713053
0.0706142
0.0696909
0.0685365
0.0671526
0.0655417
0.0637072
0.0616527
0.0593825
0.0569012
0.0542116
0.0513168
0.0482426
0.0450107
0.0413208
0.0369198
0.0291428
0.0243304
0.02035
0.0169199
0.0137018
0.0107129
0.00797459
0.00548262
0.00323245
0.00122134
-0.000553491
-0.00209505
-0.00340647
-0.00449103
-0.00535219
-0.00599364
-0.00641925
-0.00663315
-0.00663973
-0.00644363
-0.00604978
-0.00546342
-0.00469007
-0.00373558
-0.00260611
-0.00130821
0.000151269
0.00176507
0.00352557
0.00542474
0.00745416
0.00960499
0.011868
0.0142334
0.0166911
0.0192307
0.021841
0.0245107
0.027228
0.0299807
0.0327562
0.0355417
0.0383239
0.0410895
0.0438247
0.0465156
0.0491484
0.051709
0.0541836
0.0565581
0.058819
0.0609528
0.0629464
0.0647873
0.0664631
0.0679625
0.0692746
0.0703893
0.0712974
0.0719906
0.0724616
0.0727041
0.0727129
0.0724837
0.0720136
0.0713005
0.0703435
0.0691428
0.0676992
0.0660147
0.0640918
0.061934
0.0595449
0.0569289
0.0540887
0.0510271
0.0477716
0.0443455
0.0404303
0.0357581
0.0295813
0.0245076
0.0203133
0.0167019
0.0133169
0.0101764
0.00730261
0.00469079
0.00233563
0.00023366
-0.00161871
-0.00322535
-0.00459026
-0.00571759
-0.00661166
-0.00727697
-0.00771821
-0.00794026
-0.00794819
-0.00774732
-0.00734317
-0.00674149
-0.0059483
-0.00496987
-0.00381275
-0.00248378
-0.000990116
0.00066077
0.00246106
0.00440258
0.00647677
0.00867471
0.010987
0.013404
0.0159155
0.0185109
0.0211791
0.0239087
0.026688
0.0295046
0.0323459
0.0351989
0.0380502
0.0408864
0.0436935
0.0464574
0.0491641
0.051799
0.054348
0.0567968
0.0591312
0.0613374
0.0634016
0.0653108
0.067052
0.0686131
0.0699825
0.0711494
0.0721039
0.0728367
0.0733398
0.0736059
0.073629
0.0734041
0.0729272
0.0721955
0.0712074
0.0699621
0.0684599
0.0667021
0.0646909
0.062429
0.05992
0.057168
0.0541755
0.0509454
0.047507
0.0438851
0.039743
0.0347981
0.0297432
0.0244091
0.0200016
0.0162095
0.012658
0.00936609
0.00635716
0.00362579
0.001166
-0.00102635
-0.0029556
-0.0046264
-0.00604358
-0.00721211
-0.00813714
-0.00882395
-0.009278
-0.00950489
-0.00951039
-0.00930043
-0.00888114
-0.00825879
-0.00743988
-0.00643112
-0.00523943
-0.00387198
-0.00233621
-0.000639837
0.00120911
0.00320229
0.005331
0.0075862
0.00995845
0.0124379
0.0150144
0.0176772
0.0204152
0.023217
0.0260707
0.0289638
0.0318837
0.0348172
0.037751
0.040671
0.0435634
0.0464137
0.0492075
0.0519302
0.0545669
0.057103
0.0595239
0.0618151
0.0639624
0.0659519
0.0677702
0.0694042
0.0708417
0.0720711
0.0730815
0.0738629
0.0744062
0.0747034
0.0747476
0.0745328
0.0740542
0.0733083
0.0722925
0.0710053
0.0694465
0.0676168
0.0655177
0.0631517
0.0605222
0.0576331
0.0544869
0.0510867
0.0474634
0.0436435
0.0392722
0.0340517
0.0296132
0.0240188
0.0193983
0.0154257
0.0117079
0.00826508
0.00512142
0.00227105
-0.000292634
-0.00257443
-0.00457936
-0.00631284
-0.00778048
-0.00898804
-0.00994145
-0.0106468
-0.0111102
-0.011338
-0.0113367
-0.0111128
-0.010673
-0.0100242
-0.00917324
-0.00812733
-0.00689378
-0.0054801
-0.00389401
-0.00214349
-0.00023679
0.00181757
0.00401072
0.0063335
0.00877636
0.0113294
0.0139822
0.0167241
0.019544
0.0224302
0.0253708
0.0283532
0.0313647
0.034392
0.0374214
0.0404388
0.04343
0.0463804
0.0492751
0.052099
0.0548371
0.0574741
0.0599948
0.0623843
0.0646276
0.0667101
0.0686178
0.0703367
0.0718539
0.0731566
0.0742333
0.075073
0.0756658
0.0760026
0.0760755
0.0758777
0.0754036
0.0746486
0.0736095
0.0722841
0.0706715
0.0687717
0.066586
0.0641164
0.0613662
0.0583393
0.0550381
0.051466
0.0476555
0.0436352
0.0390314
0.0335312
0.0291759
0.0233207
0.0184868
0.0143336
0.0104497
0.00685621
0.00357836
0.000609788
-0.00205675
-0.00442665
-0.00650561
-0.00829977
-0.0098155
-0.0110593
-0.012038
-0.0127582
-0.0132269
-0.0134512
-0.0134382
-0.013195
-0.0127288
-0.0120471
-0.0111574
-0.0100671
-0.00878402
-0.00731599
-0.00567105
-0.00385744
-0.00188364
0.000241641
0.00250937
0.00491022
0.00743452
0.0100722
0.012813
0.0156458
0.0185596
0.0215427
0.0245828
0.0276675
0.0307837
0.033918
0.0370565
0.040185
0.0432889
0.0463532
0.0493627
0.052302
0.0551554
0.0579072
0.0605417
0.0630432
0.0653961
0.0675851
0.0695951
0.0714117
0.0730207
0.0744088
0.0755631
0.0764719
0.0771241
0.0775099
0.0776202
0.0774473
0.0769846
0.0762268
0.0751697
0.0738106
0.0721476
0.0701806
0.06791
0.065338
0.0624673
0.059302
0.0558446
0.0520986
0.0480986
0.0438747
0.0390344
0.0332492
0.0284157
0.0222982
0.0172502
0.012916
0.00886598
0.00512209
0.00171067
-0.00137514
-0.0041432
-0.0065995
-0.00875041
-0.0106028
-0.0121637
-0.0134405
-0.0144406
-0.0151715
-0.015641
-0.0158567
-0.0158264
-0.0155579
-0.015059
-0.0143377
-0.0134019
-0.0122596
-0.0109189
-0.00938802
-0.00767536
-0.00578941
-0.00373887
-0.00153268
0.000819951
0.00330955
0.00592631
0.00866008
0.0115003
0.0144361
0.0174561
0.0205485
0.023701
0.0269009
0.0301351
0.03339
0.0366514
0.0399049
0.0431355
0.0463279
0.0494666
0.0525356
0.0555188
0.0583999
0.0611626
0.0637904
0.0662671
0.0685766
0.0707029
0.0726305
0.0743446
0.0758306
0.0770749
0.0780644
0.0787872
0.0792323
0.0793897
0.0792506
0.0788074
0.078054
0.0769852
0.0755976
0.0738888
0.0718578
0.069505
0.0668319
0.0638414
0.0605375
0.0569227
0.0530008
0.0488083
0.0443772
0.0392956
0.033219
0.0273167
0.0209347
0.0156712
0.0111554
0.00693899
0.00304493
-0.000499373
-0.00370129
-0.00656929
-0.00910996
-0.0113303
-0.0132379
-0.0148407
-0.0161466
-0.0171638
-0.0179007
-0.0183657
-0.0185672
-0.0185135
-0.0182132
-0.0176747
-0.0169064
-0.0159168
-0.0147143
-0.0133075
-0.011705
-0.00991538
-0.0079475
-0.00581032
-0.00351298
-0.00106487
0.00152438
0.00424481
0.00708614
0.0100377
0.0130885
0.0162271
0.0194414
0.0227193
0.0260477
0.0294134
0.0328025
0.0362007
0.0395932
0.0429649
0.0463
0.0495825
0.0527961
0.055924
0.0589494
0.0618553
0.0646245
0.0672399
0.0696846
0.0719417
0.0739948
0.075828
0.0774256
0.078773
0.079856
0.0806615
0.0811774
0.0813926
0.0812972
0.0808827
0.0801418
0.0790687
0.0776588
0.0759093
0.0738186
0.0713867
0.0686146
0.0655053
0.0620626
0.0582893
0.0541893
0.0498012
0.0451588
0.0398302
0.0334546
0.025862
0.0192129
0.0137321
0.00903371
0.00465053
0.000606468
-0.00307
-0.00638675
-0.00935287
-0.0119755
-0.0142625
-0.016222
-0.0178626
-0.0191932
-0.0202227
-0.0209602
-0.0214149
-0.0215959
-0.0215122
-0.021173
-0.0205874
-0.0197642
-0.0187126
-0.0174414
-0.0159596
-0.0142761
-0.0123999
-0.0103402
-0.00810616
-0.00570714
-0.00315272
-0.00045271
0.0023828
0.00534339
0.00841829
0.0115964
0.014866
0.0182152
0.0216314
0.0251017
0.0286125
0.0321498
0.035699
0.039245
0.0427724
0.0462651
0.0497065
0.0530799
0.0563679
0.0595531
0.0626177
0.0655439
0.0683137
0.0709091
0.0733125
0.0755064
0.0774736
0.0791976
0.0806623
0.0818526
0.0827541
0.0833534
0.0836382
0.0835976
0.083222
0.0825029
0.0814335
0.0800087
0.0782246
0.0760792
0.0735718
0.0707034
0.0674765
0.0638953
0.0599623
0.055682
0.0510947
0.0462365
0.0406545
0.0339712
0.0240345
0.0171148
0.0114145
0.00653229
0.00198175
-0.00221221
-0.00602007
-0.00945022
-0.0125124
-0.0152144
-0.0175646
-0.0195721
-0.0212462
-0.0225965
-0.0236329
-0.0243651
-0.0248031
-0.0249566
-0.0248357
-0.02445
-0.0238091
-0.0229227
-0.0218003
-0.0204513
-0.018885
-0.0171108
-0.0151381
-0.0129763
-0.0106348
-0.00812329
-0.00545147
-0.00262934
0.000332865
0.00342461
0.006635
0.00995277
0.0133662
0.0168632
0.0204312
0.0240568
0.0277266
0.0314261
0.0351407
0.038855
0.042553
0.0462185
0.0498343
0.0533832
0.0568472
0.0602083
0.0634479
0.0665473
0.0694878
0.0722504
0.0748164
0.0771672
0.0792845
0.0811505
0.082748
0.0840605
0.0850723
0.0857687
0.0861363
0.0861628
0.0858373
0.0851504
0.0840942
0.0826626
0.080851
0.0786565
0.0760781
0.0731165
0.0697739
0.0660545
0.0619609
0.0574978
0.0527077
0.0476285
0.041786
0.0347851
0.0218162
0.0146218
0.00869934
0.00363175
-0.00108689
-0.00543072
-0.00936915
-0.0129111
-0.016067
-0.0188453
-0.0212551
-0.0233063
-0.0250089
-0.0263735
-0.0274106
-0.0281309
-0.0285451
-0.0286638
-0.0284976
-0.028057
-0.0273523
-0.0263937
-0.0251911
-0.0237546
-0.022094
-0.020219
-0.0181394
-0.0158648
-0.013405
-0.0107698
-0.00796915
-0.00501328
-0.00191253
0.00132246
0.00468069
0.00815078
0.0117209
0.0153789
0.0191119
0.0229067
0.0267494
0.0306256
0.0345203
0.0384177
0.0423017
0.0461554
0.0499615
0.053702
0.0573585
0.0609121
0.0643436
0.0676334
0.0707617
0.0737088
0.0764546
0.0789795
0.0812639
0.0832888
0.0850356
0.0864864
0.0876241
0.0884328
0.0888974
0.0890045
0.0887417
0.0880986
0.087066
0.0856368
0.0838056
0.0815688
0.0789247
0.0758735
0.0724174
0.0685605
0.0643054
0.059657
0.05466
0.0493543
0.0432435
0.0359143
0.019188
0.0117143
0.00556661
0.000311848
-0.00457579
-0.0090695
-0.0131376
-0.0167897
-0.0200367
-0.022888
-0.0253533
-0.0274432
-0.0291689
-0.0305415
-0.0315726
-0.0322738
-0.0326565
-0.0327321
-0.0325122
-0.0320077
-0.0312298
-0.0301892
-0.0288967
-0.0273625
-0.0255971
-0.0236107
-0.0214132
-0.0190147
-0.0164253
-0.0136549
-0.0107139
-0.00761237
-0.00436097
-0.000970429
0.00254817
0.00618336
0.00992325
0.0137555
0.0176672
0.021645
0.0256749
0.0297423
0.0338318
0.0379276
0.0420132
0.0460712
0.0500838
0.0540326
0.0578985
0.0616619
0.0653028
0.0688007
0.0721348
0.0752844
0.0782283
0.0809455
0.0834153
0.085617
0.0875308
0.0891373
0.0904179
0.0913551
0.0919325
0.092135
0.0919489
0.0913624
0.0903652
0.0889489
0.0871071
0.0848355
0.0821317
0.0789954
0.0754285
0.071435
0.0670177
0.0621814
0.0569733
0.0514352
0.0450474
0.0373781
0.0161301
0.0083718
0.0019954
-0.00344861
-0.00850632
-0.01315
-0.0173468
-0.021107
-0.0244423
-0.0273628
-0.0298789
-0.0320023
-0.0337449
-0.0351188
-0.0361366
-0.0368106
-0.0371532
-0.0371769
-0.0368938
-0.0363158
-0.0354546
-0.0343218
-0.0329286
-0.0312861
-0.0294049
-0.0272957
-0.0249691
-0.0224352
-0.0197045
-0.0167872
-0.0136937
-0.0104344
-0.00702003
-0.0034614
0.000230295
0.00404353
0.00796637
0.0119864
0.0160906
0.0202655
0.0244969
0.0287701
0.0330697
0.0373794
0.0416823
0.0459608
0.0501967
0.0543708
0.0584636
0.0624547
0.0663232
0.0700477
0.0736066
0.0769777
0.0801389
0.0830677
0.0857421
0.08814
0.0902399
0.0920208
0.0934627
0.0945462
0.0952534
0.0955676
0.0954736
0.0949579
0.094009
0.0926173
0.0907751
0.0884773
0.0857207
0.0825044
0.0788301
0.0747015
0.0701213
0.0650947
0.0596709
0.053894
0.04722
0.0391976
0.0126215
0.00457279
-0.00203631
-0.0076719
-0.0129009
-0.0176946
-0.0220191
-0.0258853
-0.0293057
-0.0322911
-0.034853
-0.0370039
-0.0387565
-0.0401243
-0.0411205
-0.0417586
-0.0420519
-0.0420139
-0.0416574
-0.0409953
-0.0400401
-0.0388041
-0.037299
-0.0355365
-0.033528
-0.0312844
-0.0288167
-0.0261354
-0.0232513
-0.0201749
-0.0169166
-0.0134871
-0.00989711
-0.00615765
-0.00227992
0.00172449
0.00584361
0.0100649
0.0143755
0.0187617
0.0232093
0.0277033
0.0322281
0.0367674
0.0413039
0.0458196
0.0502958
0.0547128
0.0590504
0.0632876
0.0674026
0.0713731
0.0751764
0.0787891
0.0821878
0.0853487
0.0882482
0.0908628
0.0931692
0.0951448
0.0967676
0.0980168
0.0988725
0.0993162
0.0993311
0.0989021
0.098016
0.0966618
0.0948308
0.0925166
0.0897151
0.0864248
0.082647
0.0783851
0.0736417
0.0684222
0.0627781
0.0567556
0.0497855
0.0413961
0.00864021
0.000294492
-0.00655171
-0.0123815
-0.0177832
-0.0227269
-0.027178
-0.0311477
-0.0346497
-0.0376954
-0.0402974
-0.042469
-0.0442243
-0.0455775
-0.0465431
-0.0471357
-0.0473696
-0.0472591
-0.0468183
-0.0460607
-0.0449999
-0.0436487
-0.0420197
-0.0401251
-0.0379769
-0.0355865
-0.0329653
-0.0301242
-0.0270742
-0.023826
-0.0203902
-0.0167777
-0.0129994
-0.00906608
-0.00498921
-0.000780327
0.00354856
0.00798498
0.0125159
0.0171277
0.0218061
0.026536
0.0313016
0.0360864
0.0408728
0.0456426
0.0503765
0.0550544
0.0596555
0.0641578
0.0685389
0.0727755
0.0768437
0.0807189
0.0843764
0.0877911
0.0909375
0.0937906
0.0963254
0.0985174
0.100343
0.101779
0.102803
0.103396
0.103538
0.103213
0.102406
0.101104
0.0992967
0.096977
0.0941397
0.0907824
0.0869057
0.0825129
0.0776064
0.0721916
0.0663224
0.0600472
0.0527703
0.0439989
0.00416283
-0.00448716
-0.0115754
-0.0176023
-0.0231781
-0.0282721
-0.0328483
-0.0369189
-0.0404984
-0.0435993
-0.0462349
-0.0484199
-0.0501694
-0.0514989
-0.052424
-0.0529604
-0.0531236
-0.0529291
-0.0523919
-0.0515266
-0.0503475
-0.0488683
-0.0471025
-0.045063
-0.042762
-0.0402118
-0.0374241
-0.0344101
-0.0311811
-0.0277481
-0.0241219
-0.0203134
-0.0163335
-0.0121932
-0.0079039
-0.00347711
0.00107517
0.0057405
0.0105059
0.0153577
0.0202817
0.0252626
0.0302847
0.0353311
0.0403841
0.0454251
0.0504346
0.0553918
0.0602752
0.0650624
0.0697298
0.0742533
0.0786078
0.0827676
0.0867065
0.0903976
0.0938142
0.0969291
0.0997157
0.102147
0.104198
0.105843
0.107059
0.107822
0.108112
0.10791
0.1072
0.105966
0.104197
0.101884
0.0990214
0.095605
0.091635
0.0871144
0.0820452
0.0764328
0.0703335
0.0637981
0.0562032
0.0470338
-0.000835348
-0.00979764
-0.0171332
-0.0233605
-0.0291121
-0.0343564
-0.0390563
-0.0432248
-0.0468773
-0.0500274
-0.0526896
-0.0548797
-0.0566141
-0.0579096
-0.0587831
-0.0592516
-0.059332
-0.0590407
-0.0583939
-0.0574074
-0.0560965
-0.0544757
-0.0525593
-0.0503608
-0.0478934
-0.0451697
-0.0422016
-0.0390012
-0.0355797
-0.0319484
-0.0281183
-0.0241004
-0.0199056
-0.015545
-0.0110298
-0.00637151
-0.00158211
0.00332606
0.00834009
0.0134464
0.0186308
0.023878
0.0291722
0.0344965
0.039833
0.0451627
0.0504657
0.055721
0.0609063
0.0659984
0.0709732
0.0758052
0.0804684
0.0849357
0.0891794
0.0931711
0.0968823
0.100284
0.103347
0.106044
0.108345
0.110224
0.111654
0.112611
0.113071
0.113014
0.112419
0.111272
0.109558
0.107266
0.104389
0.100923
0.0968661
0.0922214
0.0869903
0.0811783
0.074844
0.0680406
0.0601156
0.0505312
-0.00638055
-0.015664
-0.023253
-0.0296841
-0.0356134
-0.041008
-0.0458298
-0.0500927
-0.0538132