/*--------------------------------*- C++ -*----------------------------------*\
  =========                 |
  \\      /  F ield         | OpenFOAM: The Open Source CFD Toolbox
   \\    /   O peration     | Website:  https://openfoam.org
    \\  /    A nd           | Version:  7
     \\/     M anipulation  |
\*---------------------------------------------------------------------------*/
FoamFile
{
    version     2.0;
    format      ascii;
    class       surfaceScalarField;
    location    "0.5";
    object      phi;
}
// * * * * * * * * * * * * * * * * * * * * * * * * * * * * * * * * * * * * * //

dimensions      [0 3 -1 0 0 0 0];

internalField   nonuniform List<scalar> 
12640
(
1.87794e-10
-1.93382e-10
5.55146e-10
-3.67352e-10
8.82961e-10
-3.27814e-10
1.04628e-09
-1.63325e-10
9.83045e-10
6.32261e-11
6.66192e-10
3.16841e-10
8.88694e-11
5.77319e-10
-7.4381e-10
8.32684e-10
-1.81964e-09
1.07583e-09
-3.12215e-09
1.30251e-09
-4.63235e-09
1.51019e-09
-6.32975e-09
1.69739e-09
-8.19313e-09
1.86337e-09
-1.02009e-08
2.0078e-09
-1.23316e-08
2.1307e-09
-1.45639e-08
2.23232e-09
-1.6877e-08
2.31306e-09
-1.92505e-08
2.37347e-09
-2.16646e-08
2.41415e-09
-2.41004e-08
2.43579e-09
-2.65395e-08
2.4391e-09
-2.89644e-08
2.42485e-09
-3.13582e-08
2.39382e-09
-3.3705e-08
2.34682e-09
-3.59897e-08
2.28467e-09
-3.81978e-08
2.20819e-09
-4.03161e-08
2.11821e-09
-4.23316e-08
2.01557e-09
-4.42327e-08
1.90111e-09
-4.60084e-08
1.77568e-09
-4.76485e-08
1.64012e-09
-4.91438e-08
1.49529e-09
-5.04859e-08
1.34205e-09
-5.16672e-08
1.18127e-09
-5.2681e-08
1.01383e-09
-5.35216e-08
8.40612e-10
-5.41841e-08
6.62522e-10
-5.46646e-08
4.80474e-10
-5.496e-08
2.95399e-10
-5.50682e-08
1.08244e-10
-5.49882e-08
-8.00262e-11
-5.47198e-08
-2.68428e-10
-5.42638e-08
-4.55961e-10
-5.36222e-08
-6.41606e-10
-5.27979e-08
-8.24329e-10
-5.17948e-08
-1.00308e-09
-5.06181e-08
-1.17678e-09
-4.92737e-08
-1.34437e-09
-4.7769e-08
-1.50475e-09
-4.61121e-08
-1.65683e-09
-4.43126e-08
-1.79951e-09
-4.23809e-08
-1.93172e-09
-4.03286e-08
-2.05235e-09
-3.81682e-08
-2.16035e-09
-3.59136e-08
-2.25467e-09
-3.35793e-08
-2.33427e-09
-3.11811e-08
-2.39819e-09
-2.87357e-08
-2.44546e-09
-2.62605e-08
-2.47519e-09
-2.3774e-08
-2.48654e-09
-2.12952e-08
-2.47874e-09
-1.88441e-08
-2.4511e-09
-1.64411e-08
-2.40301e-09
-1.41072e-08
-2.33397e-09
-1.18636e-08
-2.24361e-09
-9.73187e-09
-2.13169e-09
-7.73374e-09
-1.99814e-09
-5.89065e-09
-1.8431e-09
-4.22366e-09
-1.667e-09
-2.75306e-09
-1.4706e-09
-1.49789e-09
-1.25517e-09
-4.75184e-10
-1.02271e-09
3.01073e-10
-7.76261e-10
8.21667e-10
-5.20599e-10
1.08497e-09
-2.63312e-10
1.10174e-09
-1.6767e-11
9.03046e-10
1.98688e-10
5.54707e-10
3.48339e-10
1.83988e-10
3.70718e-10
1.83985e-10
3.64887e-10
-5.58272e-10
8.85954e-10
-8.88432e-10
1.21736e-09
-6.59226e-10
1.13578e-09
-8.17426e-11
5.03487e-10
6.95521e-10
-7.5338e-10
1.5737e-09
-2.664e-09
2.48792e-09
-5.2273e-09
3.39596e-09
-8.42183e-09
4.27036e-09
-1.22125e-08
5.09323e-09
-1.65553e-08
5.85299e-09
-2.14003e-08
6.54231e-09
-2.66936e-08
7.15673e-09
-3.23797e-08
7.69386e-09
-3.84017e-08
8.15272e-09
-4.47028e-08
8.53341e-09
-5.12266e-08
8.8368e-09
-5.79174e-08
9.06433e-09
-6.47212e-08
9.21791e-09
-7.15852e-08
9.29976e-09
-7.84584e-08
9.31233e-09
-8.52919e-08
9.25829e-09
-9.20385e-08
9.14045e-09
-9.86534e-08
8.96173e-09
-1.05094e-07
8.72512e-09
-1.11319e-07
8.43369e-09
-1.17292e-07
8.09056e-09
-1.22975e-07
7.69889e-09
-1.28336e-07
7.26186e-09
-1.33343e-07
6.7827e-09
-1.37967e-07
6.26466e-09
-1.42183e-07
5.71102e-09
-1.45966e-07
5.1251e-09
-1.49295e-07
4.51024e-09
-1.52151e-07
3.86985e-09
-1.54518e-07
3.20735e-09
-1.56382e-07
2.52623e-09
-1.57731e-07
1.83004e-09
-1.58558e-07
1.12237e-09
-1.58857e-07
4.06876e-10
-1.58624e-07
-3.12712e-10
-1.5786e-07
-1.03261e-09
-1.56567e-07
-1.74896e-09
-1.54751e-07
-2.45785e-09
-1.5242e-07
-3.1553e-09
-1.49586e-07
-3.83729e-09
-1.46263e-07
-4.49975e-09
-1.42468e-07
-5.13855e-09
-1.38224e-07
-5.74957e-09
-1.33552e-07
-6.32865e-09
-1.2848e-07
-6.87165e-09
-1.23037e-07
-7.37444e-09
-1.17256e-07
-7.83296e-09
-1.11173e-07
-8.24317e-09
-1.04827e-07
-8.60117e-09
-9.82582e-08
-8.90314e-09
-9.15109e-08
-9.14542e-09
-8.46319e-08
-9.32453e-09
-7.76699e-08
-9.43719e-09
-7.0676e-08
-9.48039e-09
-6.37034e-08
-9.45137e-09
-5.68068e-08
-9.34775e-09
-5.00423e-08
-9.16751e-09
-4.34672e-08
-8.90908e-09
-3.71394e-08
-8.57143e-09
-3.11169e-08
-8.15417e-09
-2.54574e-08
-7.65764e-09
-2.02174e-08
-7.08314e-09
-1.54512e-08
-6.43317e-09
-1.12101e-08
-5.71177e-09
-7.54013e-09
-4.92511e-09
-4.48059e-09
-4.08226e-09
-2.06033e-09
-3.19652e-09
-2.93583e-10
-2.28735e-09
8.26647e-10
-1.38355e-09
1.33804e-09
-5.28165e-10
1.32266e-09
2.1405e-10
9.24895e-10
7.461e-10
3.70744e-10
9.24863e-10
5.54728e-10
3.2994e-10
-8.88212e-10
6.66029e-10
-1.22454e-09
6.13352e-10
-6.06562e-10
-8.93253e-11
6.20929e-10
-1.61299e-09
2.21919e-09
-4.05693e-09
4.01765e-09
-7.46561e-09
5.89659e-09
-1.1843e-08
7.77335e-09
-1.71638e-08
9.59109e-09
-2.33814e-08
1.13109e-08
-3.04347e-08
1.29063e-08
-3.8252e-08
1.43596e-08
-4.67548e-08
1.56595e-08
-5.58601e-08
1.67992e-08
-6.54825e-08
1.77751e-08
-7.55354e-08
1.85863e-08
-8.59322e-08
1.92336e-08
-9.65873e-08
1.97194e-08
-1.07416e-07
2.0047e-08
-1.18337e-07
2.02207e-08
-1.2927e-07
2.02452e-08
-1.40138e-07
2.01261e-08
-1.50867e-07
1.9869e-08
-1.61385e-07
1.94801e-08
-1.71625e-07
1.89656e-08
-1.81524e-07
1.83321e-08
-1.91019e-07
1.75862e-08
-2.00055e-07
1.67346e-08
-2.08578e-07
1.57844e-08
-2.16537e-07
1.47424e-08
-2.23888e-07
1.36157e-08
-2.30589e-07
1.24114e-08
-2.36601e-07
1.11369e-08
-2.4189e-07
9.79935e-09
-2.46426e-07
8.40623e-09
-2.50184e-07
6.96506e-09
-2.53141e-07
5.48347e-09
-2.5528e-07
3.96922e-09
-2.56588e-07
2.43016e-09
-2.57056e-07
8.74323e-10
-2.56678e-07
-6.90168e-10
-2.55456e-07
-2.25503e-09
-2.53393e-07
-3.81187e-09
-2.50498e-07
-5.35213e-09
-2.46787e-07
-6.86718e-09
-2.42276e-07
-8.34824e-09
-2.36989e-07
-9.78648e-09
-2.30955e-07
-1.1173e-08
-2.24205e-07
-1.24988e-08
-2.16779e-07
-1.37549e-08
-2.08718e-07
-1.49324e-08
-2.0007e-07
-1.60225e-08
-1.90887e-07
-1.70163e-08
-1.81225e-07
-1.79053e-08
-1.71145e-07
-1.8681e-08
-1.60713e-07
-1.93354e-08
-1.49997e-07
-1.98607e-08
-1.39072e-07
-2.02496e-08
-1.28014e-07
-2.04952e-08
-1.16903e-07
-2.05912e-08
-1.05823e-07
-2.0532e-08
-9.48577e-08
-2.03129e-08
-8.40954e-08
-1.99298e-08
-7.36245e-08
-1.938e-08
-6.3534e-08
-1.86619e-08
-5.3913e-08
-1.77752e-08
-4.48489e-08
-1.67218e-08
-3.64267e-08
-1.55053e-08
-2.87273e-08
-1.41326e-08
-2.18255e-08
-1.26136e-08
-1.57875e-08
-1.09631e-08
-1.06674e-08
-9.2024e-09
-6.5028e-09
-7.36108e-09
-3.30909e-09
-5.48107e-09
-1.07112e-09
-3.62152e-09
2.67046e-10
-1.86633e-09
8.15643e-10
-3.34553e-10
7.54755e-10
8.0698e-10
3.5112e-10
1.32849e-09
9.05848e-10
1.71724e-10
-1.05993e-09
1.04565e-10
-1.15739e-09
-5.88214e-10
8.62003e-11
-2.17067e-09
2.20337e-09
-4.82003e-09
4.86853e-09
-8.6427e-09
7.84032e-09
-1.36881e-08
1.0942e-08
-1.99612e-08
1.40464e-08
-2.74327e-08
1.70625e-08
-3.60473e-08
1.99255e-08
-4.57307e-08
2.25897e-08
-5.63947e-08
2.50236e-08
-6.7941e-08
2.72058e-08
-8.02647e-08
2.91229e-08
-9.32569e-08
3.07672e-08
-1.06806e-07
3.21355e-08
-1.208e-07
3.32278e-08
-1.35128e-07
3.40469e-08
-1.49678e-07
3.45977e-08
-1.64344e-07
3.48865e-08
-1.7902e-07
3.49209e-08
-1.93603e-07
3.47097e-08
-2.07997e-07
3.42622e-08
-2.22105e-07
3.35885e-08
-2.35839e-07
3.26992e-08
-2.49112e-07
3.16052e-08
-2.61844e-07
3.03178e-08
-2.73957e-07
2.88485e-08
-2.85382e-07
2.7209e-08
-2.96051e-07
2.54114e-08
-3.05903e-07
2.34677e-08
-3.14882e-07
2.13904e-08
-3.22937e-07
1.91917e-08
-3.30022e-07
1.68845e-08
-3.36097e-07
1.44815e-08
-3.41128e-07
1.19958e-08
-3.45085e-07
9.44054e-09
-3.47945e-07
6.82918e-09
-3.4969e-07
4.17534e-09
-3.50309e-07
1.49289e-09
-3.49795e-07
-1.20409e-09
-3.48149e-07
-3.90132e-09
-3.45376e-07
-6.58425e-09
-3.4149e-07
-9.23818e-09
-3.36509e-07
-1.18482e-08
-3.30458e-07
-1.43992e-08
-3.23369e-07
-1.68759e-08
-3.15279e-07
-1.92632e-08
-3.06232e-07
-2.15455e-08
-2.96279e-07
-2.37075e-08
-2.85478e-07
-2.5734e-08
-2.7389e-07
-2.76098e-08
-2.61587e-07
-2.932e-08
-2.48642e-07
-3.08499e-08
-2.35138e-07
-3.21853e-08
-2.21161e-07
-3.33126e-08
-2.06803e-07
-3.42186e-08
-1.92161e-07
-3.48911e-08
-1.77338e-07
-3.53185e-08
-1.62439e-07
-3.54907e-08
-1.47572e-07
-3.53983e-08
-1.32851e-07
-3.50338e-08
-1.1839e-07
-3.43911e-08
-1.04304e-07
-3.34661e-08
-9.07092e-08
-3.22568e-08
-7.77203e-08
-3.07642e-08
-6.54499e-08
-2.89921e-08
-5.40066e-08
-2.69487e-08
-4.34927e-08
-2.46465e-08
-3.40016e-08
-2.21046e-08
-2.56151e-08
-1.93497e-08
-1.83988e-08
-1.64187e-08
-1.23972e-08
-1.33627e-08
-7.62752e-09
-1.02508e-08
-4.07155e-09
-7.1775e-09
-1.66605e-09
-4.27183e-09
-2.91199e-10
-1.70941e-09
2.42233e-10
2.73542e-10
2.0797e-10
1.36275e-09
1.11382e-09
-4.74743e-11
-1.01246e-09
-6.54497e-10
-5.50367e-10
-2.15889e-09
1.59059e-09
-4.80114e-09
4.84561e-09
-8.74545e-09
8.81283e-09
-1.40912e-08
1.31861e-08
-2.08834e-08
1.77342e-08
-2.91223e-08
2.22854e-08
-3.87724e-08
2.67126e-08
-4.97697e-08
3.09228e-08
-6.20286e-08
3.48486e-08
-7.54467e-08
3.84417e-08
-8.99097e-08
4.16688e-08
-1.05294e-07
4.45077e-08
-1.21472e-07
4.69449e-08
-1.3831e-07
4.89738e-08
-1.55676e-07
5.0593e-08
-1.73434e-07
5.1805e-08
-1.91452e-07
5.26159e-08
-2.096e-07
5.30342e-08
-2.27749e-07
5.30707e-08
-2.45777e-07
5.27374e-08
-2.63563e-07
5.20482e-08
-2.80992e-07
5.10176e-08
-2.97954e-07
4.96611e-08
-3.14344e-07
4.79951e-08
-3.30062e-07
4.60362e-08
-3.45016e-07
4.38018e-08
-3.59116e-07
4.13095e-08
-3.72282e-07
3.85775e-08
-3.84438e-07
3.56239e-08
-3.95516e-07
3.24675e-08
-4.05451e-07
2.91272e-08
-4.14189e-07
2.56223e-08
-4.21679e-07
2.19722e-08
-4.2788e-07
1.81967e-08
-4.32756e-07
1.4316e-08
-4.36277e-07
1.03505e-08
-4.38423e-07
6.3209e-09
-4.39178e-07
2.24833e-09
-4.38536e-07
-1.84581e-09
-4.36498e-07
-5.93978e-09
-4.33071e-07
-1.00115e-08
-4.2827e-07
-1.40387e-08
-4.2212e-07
-1.79988e-08
-4.1465e-07
-2.18687e-08
-4.059e-07
-2.56257e-08
-3.95917e-07
-2.92464e-08
-3.84755e-07
-3.27078e-08
-3.72476e-07
-3.59865e-08
-3.5915e-07
-3.90598e-08
-3.44855e-07
-4.19046e-08
-3.29676e-07
-4.44987e-08
-3.13706e-07
-4.68202e-08
-2.97044e-07
-4.88477e-08
-2.79795e-07
-5.0561e-08
-2.62074e-07
-5.19405e-08
-2.43997e-07
-5.29681e-08
-2.25688e-07
-5.36271e-08
-2.07276e-07
-5.39022e-08
-1.88894e-07
-5.37805e-08
-1.70677e-07
-5.32509e-08
-1.52763e-07
-5.23053e-08
-1.35291e-07
-5.09383e-08
-1.18399e-07
-4.91483e-08
-1.02226e-07
-4.69377e-08
-8.6904e-08
-4.4314e-08
-7.2562e-08
-4.12907e-08
-5.932e-08
-3.78885e-08
-4.72873e-08
-3.41373e-08
-3.65587e-08
-3.00783e-08
-2.72101e-08
-2.57674e-08
-1.92934e-08
-2.12794e-08
-1.28304e-08
-1.67138e-08
-7.80573e-09
-1.22021e-08
-4.15868e-09
-7.91887e-09
-1.7739e-09
-4.09419e-09
-4.71857e-10
-1.02851e-09
2.1967e-12
8.88686e-10
1.11601e-09
-2.94339e-10
-7.18129e-10
-1.51866e-09
6.73953e-10
-3.94166e-09
4.01359e-09
-7.76251e-09
8.66645e-09
-1.31185e-08
1.41688e-08
-2.0091e-08
2.01586e-08
-2.87122e-08
2.63554e-08
-3.89722e-08
3.25454e-08
-5.08259e-08
3.85662e-08
-6.41992e-08
4.42962e-08
-7.89952e-08
4.96445e-08
-9.50988e-08
5.45452e-08
-1.12381e-07
5.89511e-08
-1.30703e-07
6.28299e-08
-1.4992e-07
6.61613e-08
-1.6988e-07
6.8934e-08
-1.90431e-07
7.11442e-08
-2.1142e-07
7.27941e-08
-2.32695e-07
7.38905e-08
-2.54105e-07
7.4444e-08
-2.75502e-07
7.44682e-08
-2.96744e-07
7.39794e-08
-3.17692e-07
7.29958e-08
-3.38211e-07
7.1537e-08
-3.58174e-07
6.96242e-08
-3.77459e-07
6.72796e-08
-3.95949e-07
6.45264e-08
-4.13535e-07
6.13883e-08
-4.30116e-07
5.789e-08
-4.45595e-07
5.40564e-08
-4.59884e-07
4.99132e-08
-4.72903e-07
4.54863e-08
-4.84578e-07
4.08024e-08
-4.94844e-07
3.58882e-08
-5.03643e-07
3.07711e-08
-5.10925e-07
2.54789e-08
-5.16649e-07
2.00397e-08
-5.20781e-07
1.44823e-08
-5.23295e-07
8.83577e-09
-5.24177e-07
3.12957e-09
-5.23416e-07
-2.60624e-09
-5.21015e-07
-8.34121e-09
-5.16982e-07
-1.40445e-08
-5.11336e-07
-1.96848e-08
-5.04104e-07
-2.52305e-08
-4.95323e-07
-3.06497e-08
-4.85039e-07
-3.59103e-08
-4.73305e-07
-4.098e-08
-4.60186e-07
-4.58264e-08
-4.45756e-07
-5.04175e-08
-4.30094e-07
-5.47212e-08
-4.13293e-07
-5.87059e-08
-3.95451e-07
-6.23406e-08
-3.76676e-07
-6.5595e-08
-3.57084e-07
-6.84398e-08
-3.36798e-07
-7.08469e-08
-3.15949e-07
-7.27898e-08
-2.94674e-07
-7.42434e-08
-2.73115e-07
-7.51852e-08
-2.51423e-07
-7.55947e-08
-2.29749e-07
-7.54544e-08
-2.0825e-07
-7.475e-08
-1.87084e-07
-7.3471e-08
-1.66411e-07
-7.16113e-08
-1.4639e-07
-6.91697e-08
-1.27176e-07
-6.61511e-08
-1.08923e-07
-6.25674e-08
-9.1775e-08
-5.84387e-08
-7.58683e-08
-5.37952e-08
-6.13262e-08
-4.86794e-08
-4.82557e-08
-4.31488e-08
-3.67432e-08
-3.72799e-08
-2.68497e-08
-3.11729e-08
-1.86053e-08
-2.49581e-08
-1.20034e-08
-1.88041e-08
-6.99371e-09
-1.29285e-08
-3.47644e-09
-7.61146e-09
-1.29551e-09
-3.20944e-09
-2.32856e-10
-1.73975e-10
8.83152e-10
-5.50694e-10
-1.67448e-10
-2.43026e-09
2.55351e-09
-5.83183e-09
7.41516e-09
-1.09034e-08
1.3738e-08
-1.77458e-08
2.10112e-08
-2.64144e-08
2.88271e-08
-3.69218e-08
3.68628e-08
-4.92427e-08
4.48663e-08
-6.33188e-08
5.26423e-08
-7.90639e-08
6.00412e-08
-9.63687e-08
6.69493e-08
-1.15105e-07
7.32819e-08
-1.35132e-07
7.89774e-08
-1.56294e-07
8.39927e-08
-1.78433e-07
8.82994e-08
-2.0138e-07
9.18811e-08
-2.24967e-07
9.47312e-08
-2.49023e-07
9.68507e-08
-2.7338e-07
9.82469e-08
-2.97868e-07
9.89325e-08
-3.22324e-07
9.89241e-08
-3.46587e-07
9.82421e-08
-3.705e-07
9.69093e-08
-3.93914e-07
9.49512e-08
-4.16685e-07
9.23948e-08
-4.38675e-07
8.92691e-08
-4.59752e-07
8.5604e-08
-4.79795e-07
8.14309e-08
-4.98687e-07
7.67817e-08
-5.1632e-07
7.16896e-08
-5.32595e-07
6.61882e-08
-5.4742e-07
6.03118e-08
-5.60713e-07
5.40956e-08
-5.724e-07
4.75749e-08
-5.82415e-07
4.07862e-08
-5.90703e-07
3.37661e-08
-5.97215e-07
2.6552e-08
-6.01914e-07
1.91819e-08
-6.04773e-07
1.16943e-08
-6.05772e-07
4.12848e-09
-6.04902e-07
-3.47591e-09
-6.02165e-07
-1.10785e-08
-5.97571e-07
-1.86386e-08
-5.91141e-07
-2.61146e-08
-5.82907e-07
-3.34649e-08
-5.72909e-07
-4.06473e-08
-5.612e-07
-4.76195e-08
-5.47841e-07
-5.43388e-08
-5.32905e-07
-6.07627e-08
-5.16473e-07
-6.68489e-08
-4.98639e-07
-7.25553e-08
-4.79505e-07
-7.78404e-08
-4.59182e-07
-8.26635e-08
-4.37792e-07
-8.69851e-08
-4.15465e-07
-9.07669e-08
-3.9234e-07
-9.39722e-08
-3.68563e-07
-9.65665e-08
-3.44289e-07
-9.85176e-08
-3.19678e-07
-9.97961e-08
-2.94896e-07
-1.00376e-07
-2.70115e-07
-1.00235e-07
-2.4551e-07
-9.93559e-08
-2.21255e-07
-9.77251e-08
-1.97531e-07
-9.53361e-08
-1.74512e-07
-9.21888e-08
-1.52372e-07
-8.8291e-08
-1.3128e-07
-8.36595e-08
-1.11396e-07
-7.83222e-08
-9.28715e-08
-7.23198e-08
-7.58425e-08
-6.57084e-08
-6.04283e-08
-5.85629e-08
-4.67273e-08
-5.0981e-08
-3.48117e-08
-4.30885e-08
-2.47237e-08
-3.50461e-08
-1.64704e-08
-2.70574e-08
-1.00192e-08
-1.93797e-08
-5.2937e-09
-1.2337e-08
-2.17065e-09
-6.3325e-09
-4.78785e-10
-1.86584e-09
4.04364e-10
-8.06659e-10
6.392e-10
-3.35449e-09
5.10133e-09
-7.76214e-09
1.18228e-08
-1.41222e-08
2.00981e-08
-2.24939e-08
2.93829e-08
-3.29003e-08
3.92336e-08
-4.53295e-08
4.9292e-08
-5.97365e-08
5.92732e-08
-7.60463e-08
6.89521e-08
-9.4158e-08
7.8153e-08
-1.13949e-07
8.67402e-08
-1.35278e-07
9.46107e-08
-1.57989e-07
1.01688e-07
-1.81915e-07
1.07919e-07
-2.06881e-07
1.13266e-07
-2.32707e-07
1.17707e-07
-2.59208e-07
1.21232e-07
-2.86198e-07
1.23841e-07
-3.13492e-07
1.25541e-07
-3.40908e-07
1.26348e-07
-3.68264e-07
1.2628e-07
-3.95385e-07
1.25363e-07
-4.221e-07
1.23624e-07
-4.48244e-07
1.21095e-07
-4.73659e-07
1.17809e-07
-4.98192e-07
1.13802e-07
-5.217e-07
1.09112e-07
-5.44047e-07
1.03778e-07
-5.65106e-07
9.78407e-08
-5.84758e-07
9.13413e-08
-6.02892e-07
8.43227e-08
-6.19409e-07
7.68284e-08
-6.34216e-07
6.89027e-08
-6.47232e-07
6.05909e-08
-6.58385e-07
5.1939e-08
-6.67612e-07
4.29936e-08
-6.74863e-07
3.38023e-08
-6.80094e-07
2.44135e-08
-6.83276e-07
1.4876e-08
-6.84387e-07
5.23969e-09
-6.83418e-07
-4.4449e-09
-6.8037e-07
-1.41266e-08
-6.75255e-07
-2.37535e-08
-6.68097e-07
-3.32731e-08
-6.58929e-07
-4.26325e-08
-6.47798e-07
-5.17782e-08
-6.34761e-07
-6.06566e-08
-6.19886e-07
-6.92137e-08
-6.03253e-07
-7.73958e-08
-5.84953e-07
-8.51493e-08
-5.65087e-07
-9.24211e-08
-5.43768e-07
-9.9159e-08
-5.2112e-07
-1.05312e-07
-4.97276e-07
-1.10829e-07
-4.72379e-07
-1.15664e-07
-4.46582e-07
-1.19769e-07
-4.20045e-07
-1.23103e-07
-3.92939e-07
-1.25624e-07
-3.65438e-07
-1.27297e-07
-3.37726e-07
-1.28088e-07
-3.0999e-07
-1.27972e-07
-2.82419e-07
-1.26926e-07
-2.55208e-07
-1.24936e-07
-2.28551e-07
-1.21994e-07
-2.02638e-07
-1.18101e-07
-1.77661e-07
-1.13268e-07
-1.53802e-07
-1.07519e-07
-1.31236e-07
-1.00888e-07
-1.10128e-07
-9.34274e-08
-9.0629e-08
-8.52079e-08
-7.28703e-08
-7.63217e-08
-5.69636e-08
-6.68877e-08
-4.29953e-08
-5.70568e-08
-3.1023e-08
-4.70184e-08
-2.10722e-08
-3.70083e-08
-1.31327e-08
-2.73192e-08
-7.15753e-09
-1.83122e-08
-3.06176e-09
-1.04283e-08
-7.25346e-10
-4.20225e-09
-3.20983e-10
-1.05713e-09
1.69633e-09
-4.27107e-09
8.31524e-09
-9.69073e-09
1.72425e-08
-1.7353e-08
2.77604e-08
-2.72725e-08
3.93024e-08
-3.94371e-08
5.13981e-08
-5.38062e-08
6.36611e-08
-7.03116e-08
7.57785e-08
-8.88588e-08
8.74993e-08
-1.0933e-07
9.86242e-08
-1.31587e-07
1.08997e-07
-1.55474e-07
1.18498e-07
-1.80822e-07
1.27037e-07
-2.07451e-07
1.34547e-07
-2.35171e-07
1.40985e-07
-2.63787e-07
1.46323e-07
-2.93102e-07
1.50547e-07
-3.22917e-07
1.53655e-07
-3.53032e-07
1.55656e-07
-3.83249e-07
1.56565e-07
-4.13375e-07
1.56406e-07
-4.4322e-07
1.55208e-07
-4.72599e-07
1.53003e-07
-5.01334e-07
1.4983e-07
-5.29253e-07
1.45729e-07
-5.56194e-07
1.40743e-07
-5.81999e-07
1.34918e-07
-6.06523e-07
1.28302e-07
-6.29627e-07
1.20944e-07
-6.51182e-07
1.12896e-07
-6.71068e-07
1.04209e-07
-6.89177e-07
9.49375e-08
-7.0541e-07
8.51353e-08
-7.19677e-07
7.48583e-08
-7.31901e-07
6.4163e-08
-7.42015e-07
5.3107e-08
-7.49961e-07
4.17488e-08
-7.55696e-07
3.01479e-08
-7.59184e-07
1.83646e-08
-7.60405e-07
6.46035e-09
-7.59347e-07
-5.50277e-09
-7.56012e-07
-1.74617e-08
-7.50413e-07
-2.93526e-08
-7.42575e-07
-4.11109e-08
-7.32536e-07
-5.26716e-08
-7.20345e-07
-6.39689e-08
-7.06065e-07
-7.49369e-08
-6.89769e-07
-8.55096e-08
-6.71544e-07
-9.5621e-08
-6.51488e-07
-1.05205e-07
-6.29711e-07
-1.14198e-07
-6.06336e-07
-1.22534e-07
-5.81496e-07
-1.30152e-07
-5.55334e-07
-1.36991e-07
-5.28007e-07
-1.42991e-07
-4.99678e-07
-1.48098e-07
-4.70522e-07
-1.52259e-07
-4.40722e-07
-1.55425e-07
-4.10466e-07
-1.57552e-07
-3.79953e-07
-1.58601e-07
-3.49384e-07
-1.58541e-07
-3.18964e-07
-1.57346e-07
-2.88901e-07
-1.54999e-07
-2.59404e-07
-1.51491e-07
-2.30681e-07
-1.46825e-07
-2.02934e-07
-1.41015e-07
-1.76363e-07
-1.3409e-07
-1.51156e-07
-1.26095e-07
-1.27492e-07
-1.17091e-07
-1.05535e-07
-1.07165e-07
-8.54327e-08
-9.64244e-08
-6.73104e-08
-8.501e-08
-5.12712e-08
-7.3096e-08
-3.73914e-08
-6.08982e-08
-2.57179e-08
-4.86817e-08
-1.62674e-08
-3.67697e-08
-9.02526e-09
-2.55543e-08
-3.94797e-09
-1.55056e-08
-9.67179e-10
-7.18304e-09
-1.28816e-09
-1.29972e-09
2.99606e-09
-5.16882e-09
1.21843e-08
-1.15927e-08
2.36663e-08
-2.05543e-08
3.6722e-08
-3.20233e-08
5.07714e-08
-4.59502e-08
6.5325e-08
-6.22636e-08
7.99745e-08
-8.08693e-08
9.43842e-08
-1.01651e-07
1.08281e-07
-1.24471e-07
1.21445e-07
-1.49176e-07
1.33702e-07
-1.75593e-07
1.44915e-07
-2.0354e-07
1.54983e-07
-2.3282e-07
1.63828e-07
-2.63233e-07
1.71398e-07
-2.9457e-07
1.7766e-07
-3.2662e-07
1.82597e-07
-3.5917e-07
1.86206e-07
-3.92008e-07
1.88494e-07
-4.24925e-07
1.89482e-07
-4.57712e-07
1.89194e-07
-4.90168e-07
1.87664e-07
-5.22097e-07
1.84932e-07
-5.53307e-07
1.8104e-07
-5.83616e-07
1.76038e-07
-6.1285e-07
1.69976e-07
-6.40841e-07
1.62909e-07
-6.67433e-07
1.54894e-07
-6.92478e-07
1.45989e-07
-7.15838e-07
1.36256e-07
-7.37386e-07
1.25757e-07
-7.57004e-07
1.14556e-07
-7.74588e-07
1.02719e-07
-7.90041e-07
9.03117e-08
-8.03281e-07
7.74028e-08
-8.14235e-07
6.40611e-08
-8.22844e-07
5.0357e-08
-8.29058e-07
3.63619e-08
-8.32841e-07
2.21483e-08
-8.34171e-07
7.78995e-09
-8.33035e-07
-6.63855e-09
-8.29435e-07
-2.10615e-08
-8.23385e-07
-3.54023e-08
-8.14913e-07
-4.95836e-08
-8.04057e-07
-6.35272e-08
-7.90872e-07
-7.71544e-08
-7.75423e-07
-9.03862e-08
-7.57789e-07
-1.03143e-07
-7.38062e-07
-1.15347e-07
-7.16349e-07
-1.26919e-07
-6.92765e-07
-1.37781e-07
-6.67443e-07
-1.47857e-07
-6.40523e-07
-1.57072e-07
-6.1216e-07
-1.65354e-07
-5.82519e-07
-1.72632e-07
-5.51776e-07
-1.78841e-07
-5.20117e-07
-1.83918e-07
-4.87736e-07
-1.87805e-07
-4.54836e-07
-1.90451e-07
-4.21627e-07
-1.91811e-07
-3.88324e-07
-1.91845e-07
-3.55145e-07
-1.90525e-07
-3.22314e-07
-1.8783e-07
-2.90052e-07
-1.83753e-07
-2.58581e-07
-1.78296e-07
-2.28119e-07
-1.71477e-07
-1.98877e-07
-1.63332e-07
-1.7106e-07
-1.53912e-07
-1.4486e-07
-1.43291e-07
-1.20457e-07
-1.31568e-07
-9.80125e-08
-1.18869e-07
-7.76706e-08
-1.05352e-07
-5.95522e-08
-9.12144e-08
-4.37546e-08
-7.66959e-08
-3.03491e-08
-6.20872e-08
-1.93813e-08
-4.77375e-08
-1.08715e-08
-3.40641e-08
-4.81772e-09
-2.15594e-08
-1.20171e-09
-1.07991e-08
-2.48988e-09
-1.53353e-09
4.52959e-09
-6.04223e-09
1.6693e-08
-1.34543e-08
3.10783e-08
-2.37018e-08
4.69695e-08
-3.67104e-08
6.37799e-08
-5.23925e-08
8.10072e-08
-7.06444e-08
9.82264e-08
-9.13441e-08
1.15084e-07
-1.14351e-07
1.31288e-07
-1.39509e-07
1.46602e-07
-1.66642e-07
1.60835e-07
-1.95565e-07
1.73838e-07
-2.26077e-07
1.85495e-07
-2.57969e-07
1.9572e-07
-2.91026e-07
2.04455e-07
-3.25026e-07
2.1166e-07
-3.59745e-07
2.17316e-07
-3.94959e-07
2.21419e-07
-4.30442e-07
2.23978e-07
-4.65973e-07
2.25013e-07
-5.01334e-07
2.24554e-07
-5.36309e-07
2.2264e-07
-5.70692e-07
2.19315e-07
-6.04281e-07
2.1463e-07
-6.36884e-07
2.08641e-07
-6.68315e-07
2.01407e-07
-6.98398e-07
1.92992e-07
-7.26967e-07
1.83463e-07
-7.53867e-07
1.72889e-07
-7.7895e-07
1.6134e-07
-8.02083e-07
1.4889e-07
-8.23142e-07
1.35615e-07
-8.42014e-07
1.21591e-07
-8.58599e-07
1.06897e-07
-8.72809e-07
9.16124e-08
-8.84567e-07
7.58189e-08
-8.93809e-07
5.95992e-08
-9.00485e-07
4.30374e-08
-9.04555e-07
2.62189e-08
-9.05995e-07
9.2302e-09
-9.04793e-07
-7.84067e-09
-9.0095e-07
-2.49047e-08
-8.94481e-07
-4.18718e-08
-8.85413e-07
-5.86509e-08
-8.7379e-07
-7.51502e-08
-8.59668e-07
-9.12771e-08
-8.43115e-07
-1.06939e-07
-8.24216e-07
-1.22043e-07
-8.03067e-07
-1.36496e-07
-7.7978e-07
-1.50206e-07
-7.54479e-07
-1.63082e-07
-7.27302e-07
-1.75034e-07
-6.98398e-07
-1.85976e-07
-6.67931e-07
-1.95821e-07
-6.36075e-07
-2.04488e-07
-6.03016e-07
-2.119e-07
-5.68949e-07
-2.17984e-07
-5.34082e-07
-2.22673e-07
-4.98627e-07
-2.25906e-07
-4.62806e-07
-2.27631e-07
-4.26848e-07
-2.27803e-07
-3.90984e-07
-2.26389e-07
-3.55449e-07
-2.23365e-07
-3.20479e-07
-2.18723e-07
-2.86308e-07
-2.12466e-07
-2.5317e-07
-2.04616e-07
-2.21289e-07
-1.95213e-07
-1.90885e-07
-1.84316e-07
-1.62165e-07
-1.72011e-07
-1.35324e-07
-1.58408e-07
-1.10543e-07
-1.4365e-07
-8.79817e-08
-1.27913e-07
-6.77829e-08
-1.11413e-07
-5.00666e-08
-9.44123e-08
-3.49305e-08
-7.72232e-08
-2.24506e-08
-6.02174e-08
-1.26825e-08
-4.38322e-08
-5.66537e-09
-2.85765e-08
-1.428e-09
-1.50364e-08
-3.91788e-09
-1.75857e-09
6.28815e-09
-6.88933e-09
2.18238e-08
-1.52692e-08
3.94582e-08
-2.67832e-08
5.84835e-08
-4.13139e-08
7.83107e-08
-5.87365e-08
9.84297e-08
-7.8914e-08
1.18404e-07
-1.01696e-07
1.37866e-07
-1.26916e-07
1.56509e-07
-1.54395e-07
1.74081e-07
-1.8394e-07
1.9038e-07
-2.15345e-07
2.05243e-07
-2.48395e-07
2.18544e-07
-2.82865e-07
2.3019e-07
-3.18525e-07
2.40116e-07
-3.55142e-07
2.48277e-07
-3.92479e-07
2.54653e-07
-4.30297e-07
2.59238e-07
-4.68362e-07
2.62043e-07
-5.0644e-07
2.6309e-07
-5.443e-07
2.62414e-07
-5.81719e-07
2.60058e-07
-6.18478e-07
2.56074e-07
-6.54367e-07
2.50519e-07
-6.89183e-07
2.43456e-07
-7.22731e-07
2.34956e-07
-7.54829e-07
2.2509e-07
-7.853e-07
2.13935e-07
-8.13981e-07
2.0157e-07
-8.4072e-07
1.88079e-07
-8.65375e-07
1.73545e-07
-8.87816e-07
1.58056e-07
-9.07925e-07
1.417e-07
-9.25597e-07
1.24569e-07
-9.40739e-07
1.06754e-07
-9.53271e-07
8.83509e-08
-9.63126e-07
6.9454e-08
-9.7025e-07
5.01613e-08
-9.74602e-07
3.05715e-08
-9.76157e-07
1.07848e-08
-9.74901e-07
-9.09685e-09
-9.70835e-07
-2.89706e-08
-9.63975e-07
-4.87321e-08
-9.5435e-07
-6.82761e-08
-9.42003e-07
-8.74963e-08
-9.26995e-07
-1.06286e-07
-9.09396e-07
-1.24538e-07
-8.89295e-07
-1.42144e-07
-8.66793e-07
-1.58998e-07
-8.42006e-07
-1.74993e-07
-8.15064e-07
-1.90024e-07
-7.86112e-07
-2.03987e-07
-7.55306e-07
-2.16782e-07
-7.22816e-07
-2.2831e-07
-6.88827e-07
-2.38478e-07
-6.53532e-07
-2.47195e-07
-6.17137e-07
-2.54379e-07
-5.79858e-07
-2.59952e-07
-5.41921e-07
-2.63844e-07
-5.03557e-07
-2.65995e-07
-4.65006e-07
-2.66354e-07
-4.26512e-07
-2.64882e-07
-3.88323e-07
-2.61554e-07
-3.50688e-07
-2.56358e-07
-3.13855e-07
-2.49299e-07
-2.78069e-07
-2.40402e-07
-2.43572e-07
-2.29709e-07
-2.10598e-07
-2.17291e-07
-1.79369e-07
-2.03239e-07
-1.50099e-07
-1.87679e-07
-1.22985e-07
-1.70765e-07
-9.82078e-08
-1.5269e-07
-7.59321e-08
-1.33689e-07
-5.63022e-08
-1.14042e-07
-3.94437e-08
-9.40818e-08
-2.54634e-08
-7.41976e-08
-1.44523e-08
-5.48433e-08
-6.48903e-09
-3.65399e-08
-1.64602e-09
-1.98794e-08
-5.5639e-09
-1.97528e-09
8.26342e-09
-7.71033e-09
2.75588e-08
-1.70362e-08
4.8784e-08
-2.97937e-08
7.1241e-08
-4.58253e-08
9.43423e-08
-6.4969e-08
1.17573e-07
-8.70549e-08
1.4049e-07
-1.11903e-07
1.62713e-07
-1.39321e-07
1.83927e-07
-1.69106e-07
2.03867e-07
-2.01044e-07
2.22318e-07
-2.34911e-07
2.3911e-07
-2.70474e-07
2.54107e-07
-3.07494e-07
2.6721e-07
-3.45726e-07
2.78347e-07
-3.84922e-07
2.87473e-07
-4.24833e-07
2.94564e-07
-4.65209e-07
2.99614e-07
-5.05803e-07
3.02637e-07
-5.46371e-07
3.03658e-07
-5.86672e-07
3.02715e-07
-6.26472e-07
2.99859e-07
-6.65544e-07
2.95145e-07
-7.03667e-07
2.88642e-07
-7.4063e-07
2.80419e-07
-7.76231e-07
2.70557e-07
-8.10277e-07
2.59136e-07
-8.42588e-07
2.46245e-07
-8.72991e-07
2.31974e-07
-9.01329e-07
2.16416e-07
-9.27453e-07
1.99669e-07
-9.51228e-07
1.81831e-07
-9.72532e-07
1.63004e-07
-9.91255e-07
1.43292e-07
-1.0073e-06
1.22799e-07
-1.02058e-06
1.01634e-07
-1.03103e-06
7.9905e-08
-1.0386e-06
5.77244e-08
-1.04323e-06
3.52044e-08
-1.0449e-06
1.24595e-08
-1.04361e-06
-1.03941e-08
-1.03934e-06
-3.32389e-08
-1.03211e-06
-5.5956e-08
-1.02196e-06
-7.84252e-08
-1.00894e-06
-1.00525e-07
-9.93087e-07
-1.22135e-07
-9.74494e-07
-1.43131e-07
-9.53247e-07
-1.63391e-07
-9.29452e-07
-1.82793e-07
-9.03229e-07
-2.01216e-07
-8.74712e-07
-2.1854e-07
-8.44052e-07
-2.34647e-07
-8.11413e-07
-2.49422e-07
-7.7697e-07
-2.62752e-07
-7.40916e-07
-2.74532e-07
-7.03452e-07
-2.84659e-07
-6.64794e-07
-2.93038e-07
-6.25166e-07
-2.9958e-07
-5.84803e-07
-3.04207e-07
-5.43949e-07
-3.06849e-07
-5.02854e-07
-3.07449e-07
-4.61773e-07
-3.05963e-07
-4.20968e-07
-3.0236e-07
-3.80699e-07
-2.96627e-07
-3.41229e-07
-2.88769e-07
-3.02818e-07
-2.78813e-07
-2.65721e-07
-2.66807e-07
-2.30187e-07
-2.52824e-07
-1.96458e-07
-2.36968e-07
-1.64764e-07
-2.19373e-07
-1.35321e-07
-2.00207e-07
-1.08333e-07
-1.79678e-07
-8.39864e-08
-1.58036e-07
-6.24515e-08
-1.35577e-07
-4.38821e-08
-1.12651e-07
-2.84166e-08
-8.96632e-08
-1.61802e-08
-6.70797e-08
-7.2892e-09
-4.54309e-08
-1.85634e-09
-2.53123e-08
-7.42024e-09
-2.18443e-09
1.04478e-08
-8.50678e-09
3.38812e-08
-1.87566e-08
5.90339e-08
-3.27344e-08
8.52188e-08
-5.02438e-08
1.11852e-07
-7.10871e-08
1.38417e-07
-9.50618e-08
1.64464e-07
-1.21958e-07
1.89609e-07
-1.51557e-07
2.13526e-07
-1.83631e-07
2.35941e-07
-2.17946e-07
2.56633e-07
-2.54256e-07
2.7542e-07
-2.92312e-07
2.92163e-07
-3.31857e-07
3.06756e-07
-3.72633e-07
3.19123e-07
-4.14378e-07
3.29218e-07
-4.56828e-07
3.37014e-07
-4.99724e-07
3.4251e-07
-5.42805e-07
3.45719e-07
-5.85818e-07
3.46671e-07
-6.28512e-07
3.45409e-07
-6.70642e-07
3.41989e-07
-7.11974e-07
3.36477e-07
-7.52277e-07
3.28945e-07
-7.91333e-07
3.19475e-07
-8.28931e-07
3.08155e-07
-8.64874e-07
2.95079e-07
-8.98971e-07
2.80343e-07
-9.31048e-07
2.6405e-07
-9.60937e-07
2.46306e-07
-9.88487e-07
2.27219e-07
-1.01356e-06
2.06902e-07
-1.03602e-06
1.85468e-07
-1.05577e-06
1.63035e-07
-1.07269e-06
1.39722e-07
-1.08671e-06
1.15649e-07
-1.09774e-06
9.09405e-08
-1.10574e-06
6.57212e-08
-1.11065e-06
4.01186e-08
-1.11245e-06
1.42617e-08
-1.11113e-06
-1.17186e-08
-1.10668e-06
-3.76897e-08
-1.09912e-06
-6.35175e-08
-1.08848e-06
-8.90666e-08
-1.0748e-06
-1.142e-07
-1.05815e-06
-1.38781e-07
-1.03861e-06
-1.62672e-07
-1.01627e-06
-1.85733e-07
-9.91235e-07
-2.07828e-07
-9.63631e-07
-2.2882e-07
-9.33598e-07
-2.48573e-07
-9.01289e-07
-2.66955e-07
-8.66875e-07
-2.83836e-07
-8.30538e-07
-2.99089e-07
-7.92476e-07
-3.12594e-07
-7.52899e-07
-3.24236e-07
-7.1203e-07
-3.33907e-07
-6.70102e-07
-3.41508e-07
-6.2736e-07
-3.46949e-07
-5.84057e-07
-3.50152e-07
-5.40455e-07
-3.51051e-07
-4.96821e-07
-3.49597e-07
-4.53426e-07
-3.45754e-07
-4.10547e-07
-3.39506e-07
-3.68457e-07
-3.30859e-07
-3.27433e-07
-3.19837e-07
-2.87745e-07
-3.06495e-07
-2.49659e-07
-2.9091e-07
-2.13435e-07
-2.73193e-07
-1.79319e-07
-2.53488e-07
-1.47552e-07
-2.31975e-07
-1.18357e-07
-2.08873e-07
-9.19461e-08
-1.84447e-07
-6.85155e-08
-1.59008e-07
-4.82478e-08
-1.32919e-07
-3.13127e-08
-1.06598e-07
-1.78688e-08
-8.05236e-08
-8.06788e-09
-5.52317e-08
-2.0598e-09
-3.13204e-08
-9.48003e-09
-2.38689e-09
1.28347e-08
-9.28099e-09
4.07752e-08
-2.04343e-08
7.01872e-08
-3.56094e-08
1.00394e-07
-5.45737e-08
1.30816e-07
-7.70949e-08
1.60938e-07
-1.02938e-07
1.90308e-07
-1.31864e-07
2.18535e-07
-1.63626e-07
2.45288e-07
-1.97974e-07
2.70289e-07
-2.34648e-07
2.93307e-07
-2.73385e-07
3.14157e-07
-3.13915e-07
3.32693e-07
-3.55967e-07
3.48807e-07
-3.99264e-07
3.6242e-07
-4.43531e-07
3.73485e-07
-4.88493e-07
3.81977e-07
-5.33877e-07
3.87894e-07
-5.79412e-07
3.91254e-07
-6.24832e-07
3.92091e-07
-6.69879e-07
3.90456e-07
-7.14299e-07
3.86409e-07
-7.57846e-07
3.80024e-07
-8.00285e-07
3.71384e-07
-8.41389e-07
3.60579e-07
-8.80941e-07
3.47707e-07
-9.18735e-07
3.32873e-07
-9.54577e-07
3.16185e-07
-9.88285e-07
2.97758e-07
-1.01969e-06
2.77709e-07
-1.04863e-06
2.5616e-07
-1.07496e-06
2.33237e-07
-1.09856e-06
2.09066e-07
-1.1193e-06
1.83777e-07
-1.13709e-06
1.57505e-07
-1.15182e-06
1.30385e-07
-1.16343e-06
1.02553e-07
-1.17186e-06
7.41497e-08
-1.17706e-06
4.53176e-08
-1.179e-06
1.62004e-08
-1.17766e-06
-1.30557e-08
-1.17305e-06
-4.23028e-08
-1.16518e-06
-7.13914e-08
-1.15407e-06
-1.0017e-07
-1.13979e-06
-1.28487e-07
-1.12238e-06
-1.56187e-07
-1.10193e-06
-1.83119e-07
-1.07854e-06
-2.09126e-07