/*--------------------------------*- C++ -*----------------------------------*\
  =========                 |
  \\      /  F ield         | OpenFOAM: The Open Source CFD Toolbox
   \\    /   O peration     | Website:  https://openfoam.org
    \\  /    A nd           | Version:  7
     \\/     M anipulation  |
\*---------------------------------------------------------------------------*/
FoamFile
{
    version     2.0;
    format      ascii;
    class       volVectorField;
    location    "0.5";
    object      U;
}
// * * * * * * * * * * * * * * * * * * * * * * * * * * * * * * * * * * * * * //

dimensions      [0 1 -1 0 0 0 0];

internalField   nonuniform List<vector> 
6400
(
(7.13362e-06 -7.36696e-06 0)
(2.96326e-05 -1.45117e-05 0)
(5.92216e-05 -1.42036e-05 0)
(8.05806e-05 -9.74707e-06 0)
(8.54457e-05 -3.43323e-06 0)
(7.0587e-05 3.5408e-06 0)
(3.48844e-05 1.05621e-05 0)
(-2.16291e-05 1.73129e-05 0)
(-9.81981e-05 2.3631e-05 0)
(-0.000193633 2.94349e-05 0)
(-0.000306488 3.46866e-05 0)
(-0.000435167 3.93713e-05 0)
(-0.000577989 4.34877e-05 0)
(-0.000733234 4.70425e-05 0)
(-0.000899172 5.00474e-05 0)
(-0.00107409 5.25176e-05 0)
(-0.00125629 5.44703e-05 0)
(-0.00144413 5.59243e-05 0)
(-0.00163601 5.68989e-05 0)
(-0.00183036 5.74143e-05 0)
(-0.0020257 5.74907e-05 0)
(-0.00222059 5.71488e-05 0)
(-0.00241365 5.64091e-05 0)
(-0.00260358 5.52924e-05 0)
(-0.00278912 5.3819e-05 0)
(-0.0029691 5.20093e-05 0)
(-0.00314241 4.98836e-05 0)
(-0.003308 4.7462e-05 0)
(-0.00346489 4.47645e-05 0)
(-0.00361216 4.1811e-05 0)
(-0.00374898 3.86215e-05 0)
(-0.00387457 3.52159e-05 0)
(-0.00398822 3.1614e-05 0)
(-0.00408929 2.78361e-05 0)
(-0.00417721 2.39024e-05 0)
(-0.00425149 1.98332e-05 0)
(-0.0043117 1.56494e-05 0)
(-0.00435749 1.13721e-05 0)
(-0.00438858 7.02252e-06 0)
(-0.00440475 2.62268e-06 0)
(-0.00440589 -1.80518e-06 0)
(-0.00439195 -6.23829e-06 0)
(-0.00436294 -1.06534e-05 0)
(-0.00431899 -1.50269e-05 0)
(-0.00426029 -1.93345e-05 0)
(-0.0041871 -2.35516e-05 0)
(-0.0040998 -2.76531e-05 0)
(-0.00399883 -3.16135e-05 0)
(-0.00388471 -3.54073e-05 0)
(-0.00375808 -3.90082e-05 0)
(-0.00361963 -4.23904e-05 0)
(-0.00347017 -4.55275e-05 0)
(-0.00331057 -4.83935e-05 0)
(-0.00314181 -5.09626e-05 0)
(-0.00296494 -5.32089e-05 0)
(-0.00278109 -5.51076e-05 0)
(-0.00259148 -5.66341e-05 0)
(-0.00239741 -5.77646e-05 0)
(-0.00220024 -5.84764e-05 0)
(-0.00200141 -5.87479e-05 0)
(-0.00180243 -5.85584e-05 0)
(-0.00160485 -5.7889e-05 0)
(-0.0014103 -5.67224e-05 0)
(-0.00122042 -5.5043e-05 0)
(-0.00103691 -5.28373e-05 0)
(-0.000861497 -5.00943e-05 0)
(-0.000695904 -4.68058e-05 0)
(-0.000541862 -4.29669e-05 0)
(-0.000401082 -3.85775e-05 0)
(-0.000275226 -3.36434e-05 0)
(-0.000165879 -2.81798e-05 0)
(-7.45026e-05 -2.22162e-05 0)
(-2.36437e-06 -1.58065e-05 0)
(4.95663e-05 -9.0482e-06 0)
(8.07951e-05 -2.12074e-06 0)
(9.1587e-05 4.64165e-06 0)
(8.33885e-05 1.06137e-05 0)
(5.97659e-05 1.45993e-05 0)
(2.92319e-05 1.43538e-05 0)
(6.87184e-06 6.8696e-06 0)
(1.43884e-05 -2.99843e-05 0)
(5.14308e-05 -5.16154e-05 0)
(8.97324e-05 -4.41362e-05 0)
(0.000103494 -1.91317e-05 0)
(7.69935e-05 1.52941e-05 0)
(2.37861e-06 5.41167e-05 0)
(-0.00012405 9.4259e-05 0)
(-0.000303209 0.000133833 0)
(-0.000534053 0.000171679 0)
(-0.000814215 0.000207082 0)
(-0.00114046 0.000239603 0)
(-0.00150896 0.000268981 0)
(-0.00191555 0.000295073 0)
(-0.00235582 0.000317811 0)
(-0.00282525 0.000337185 0)
(-0.00331928 0.000353224 0)
(-0.00383337 0.000365983 0)
(-0.00436303 0.00037554 0)
(-0.00490386 0.000381986 0)
(-0.00545158 0.000385427 0)
(-0.00600206 0.000385971 0)
(-0.00655127 0.000383739 0)
(-0.00709537 0.000378851 0)
(-0.0076307 0.000371435 0)
(-0.00815373 0.000361617 0)
(-0.00866115 0.000349528 0)
(-0.00914979 0.000335299 0)
(-0.0096167 0.000319062 0)
(-0.0100591 0.000300951 0)
(-0.0104744 0.000281098 0)
(-0.0108602 0.000259639 0)
(-0.0112143 0.00023671 0)
(-0.0115347 0.000212446 0)
(-0.0118196 0.000186987 0)
(-0.0120673 0.000160471 0)
(-0.0122765 0.00013304 0)
(-0.012446 0.000104837 0)
(-0.0125747 7.60076e-05 0)
(-0.0126619 4.67e-05 0)
(-0.012707 1.70644e-05 0)
(-0.0127097 -1.27457e-05 0)
(-0.0126698 -4.25744e-05 0)
(-0.0125874 -7.22627e-05 0)
(-0.0124629 -0.000101649 0)
(-0.0122969 -0.000130569 0)
(-0.01209 -0.000158856 0)
(-0.0118434 -0.000186342 0)
(-0.0115583 -0.000212854 0)
(-0.0112363 -0.000238222 0)
(-0.0108792 -0.000262273 0)
(-0.0104888 -0.000284833 0)
(-0.0100676 -0.000305731 0)
(-0.00961803 -0.000324795 0)
(-0.00914277 -0.000341857 0)
(-0.00864481 -0.000356752 0)
(-0.00812736 -0.000369319 0)
(-0.00759382 -0.000379403 0)
(-0.00704783 -0.000386854 0)
(-0.00649321 -0.000391534 0)
(-0.00593395 -0.00039331 0)
(-0.00537424 -0.000392063 0)
(-0.00481838 -0.000387686 0)
(-0.00427083 -0.000380087 0)
(-0.00373612 -0.000369189 0)
(-0.00321887 -0.000354939 0)
(-0.00272373 -0.000337305 0)
(-0.00225534 -0.000316283 0)
(-0.00181828 -0.000291906 0)
(-0.00141702 -0.000264252 0)
(-0.00105579 -0.00023346 0)
(-0.000738525 -0.00019975 0)
(-0.000468701 -0.000163464 0)
(-0.000249106 -0.000125118 0)
(-8.1569e-05 -8.55042e-05 0)
(3.34822e-05 -4.58505e-05 0)
(9.76372e-05 -8.09432e-06 0)
(0.000115281 2.46775e-05 0)
(9.48845e-05 4.7514e-05 0)
(5.26238e-05 5.25752e-05 0)
(1.43512e-05 2.92072e-05 0)
(1.4264e-05 -5.95046e-05 0)
(4.45096e-05 -8.99919e-05 0)
(6.12149e-05 -6.05325e-05 0)
(3.55586e-05 6.68251e-06 0)
(-5.08376e-05 9.6232e-05 0)
(-0.000208196 0.000197459 0)
(-0.000441853 0.000303133 0)
(-0.000753515 0.000408415 0)
(-0.00114215 0.000510083 0)
(-0.00160474 0.000605992 0)
(-0.00213689 0.000694727 0)
(-0.00273319 0.000775373 0)
(-0.00338758 0.00084736 0)
(-0.00409356 0.000910366 0)
(-0.00484436 0.000964247 0)
(-0.00563308 0.00100899 0)
(-0.00645277 0.00104467 0)
(-0.00729653 0.00107144 0)
(-0.00815754 0.00108952 0)
(-0.00902914 0.00109916 0)
(-0.00990485 0.00110063 0)
(-0.0107784 0.00109424 0)
(-0.0116437 0.00108033 0)
(-0.0124949 0.00105922 0)
(-0.0133266 0.00103127 0)
(-0.0141334 0.000996838 0)
(-0.0149103 0.000956294 0)
(-0.0156526 0.000910007 0)
(-0.016356 0.000858354 0)
(-0.0170162 0.000801714 0)
(-0.0176295 0.000740474 0)
(-0.0181924 0.00067502 0)
(-0.0187016 0.000605747 0)
(-0.0191543 0.00053305 0)
(-0.0195478 0.000457332 0)
(-0.0198801 0.000379 0)
(-0.0201491 0.000298467 0)
(-0.0203532 0.000216154 0)
(-0.0204913 0.000132487 0)
(-0.0205625 4.78996e-05 0)
(-0.0205661 -3.71671e-05 0)
(-0.0205021 -0.000122264 0)
(-0.0203705 -0.000206935 0)
(-0.020172 -0.000290717 0)
(-0.0199074 -0.000373139 0)
(-0.0195781 -0.000453725 0)
(-0.0191857 -0.000531994 0)
(-0.0187322 -0.000607459 0)
(-0.0182202 -0.000679632 0)
(-0.0176524 -0.000748024 0)
(-0.017032 -0.000812145 0)
(-0.0163627 -0.000871511 0)
(-0.0156483 -0.00092564 0)
(-0.0148934 -0.00097406 0)
(-0.0141024 -0.00101631 0)
(-0.0132806 -0.00105194 0)
(-0.0124333 -0.00108053 0)
(-0.0115662 -0.00110167 0)
(-0.0106853 -0.00111497 0)
(-0.00979695 -0.00112008 0)
(-0.00890763 -0.00111669 0)
(-0.00802409 -0.00110452 0)
(-0.00715326 -0.00108334 0)
(-0.00630218 -0.00105297 0)
(-0.00547797 -0.00101332 0)
(-0.00468777 -0.00096434 0)
(-0.00393866 -0.000906098 0)
(-0.00323757 -0.00083877 0)
(-0.00259118 -0.000762676 0)
(-0.00200575 -0.000678328 0)
(-0.00148697 -0.000586492 0)
(-0.00103974 -0.000488281 0)
(-0.000667831 -0.000385304 0)
(-0.00037349 -0.00027988 0)
(-0.000156892 -0.000175376 0)
(-1.54117e-05 -7.67095e-05 0)
(5.71988e-05 8.91993e-06 0)
(7.19679e-05 7.10823e-05 0)
(4.79887e-05 9.4947e-05 0)
(1.46807e-05 5.98033e-05 0)
(1.00448e-05 -8.12388e-05 0)
(2.03788e-05 -0.000104461 0)
(-4.32165e-06 -3.52224e-05 0)
(-9.08341e-05 9.36311e-05 0)
(-0.000257311 0.000259326 0)
(-0.000514702 0.000445312 0)
(-0.000868921 0.000639721 0)
(-0.00132192 0.000834196 0)
(-0.00187255 0.00102288 0)
(-0.00251729 0.0012017 0)
(-0.00325082 0.00136783 0)
(-0.00406657 0.00151938 0)
(-0.00495699 0.00165508 0)
(-0.00591391 0.00177416 0)
(-0.00692873 0.00187622 0)
(-0.0079926 0.00196109 0)
(-0.00909656 0.00202885 0)
(-0.0102316 0.0020797 0)
(-0.0113889 0.00211398 0)
(-0.0125597 0.00213209 0)
(-0.0137354 0.00213455 0)
(-0.0149078 0.0021219 0)
(-0.0160688 0.00209475 0)
(-0.0172106 0.00205371 0)
(-0.0183261 0.00199944 0)
(-0.019408 0.00193264 0)
(-0.0204498 0.00185399 0)
(-0.021445 0.00176421 0)
(-0.022388 0.00166401 0)
(-0.023273 0.00155414 0)
(-0.024095 0.00143533 0)
(-0.0248493 0.00130835 0)
(-0.0255316 0.00117395 0)
(-0.0261381 0.00103291 0)
(-0.0266652 0.000886002 0)
(-0.0271101 0.000734034 0)
(-0.0274701 0.000577807 0)
(-0.0277432 0.000418139 0)
(-0.0279277 0.000255864 0)
(-0.0280224 9.18271e-05 0)
(-0.0280267 -7.3113e-05 0)
(-0.0279402 -0.000238082 0)
(-0.0277633 -0.000402193 0)
(-0.0274966 -0.000564546 0)
(-0.0271415 -0.000724228 0)
(-0.0266997 -0.000880315 0)
(-0.0261734 -0.00103187 0)
(-0.0255654 -0.00117797 0)
(-0.024879 -0.00131766 0)
(-0.0241179 -0.00144999 0)
(-0.0232866 -0.00157404 0)
(-0.0223897 -0.00168886 0)
(-0.0214326 -0.00179353 0)
(-0.0204211 -0.00188717 0)
(-0.0193615 -0.00196887 0)
(-0.0182604 -0.00203781 0)
(-0.0171252 -0.00209316 0)
(-0.0159632 -0.00213416 0)
(-0.0147826 -0.0021601 0)
(-0.0135915 -0.00217033 0)
(-0.0123987 -0.00216427 0)
(-0.011213 -0.00214142 0)
(-0.0100434 -0.00210139 0)
(-0.0088992 -0.0020439 0)
(-0.00778968 -0.00196881 0)
(-0.00672407 -0.00187612 0)
(-0.00571151 -0.00176604 0)
(-0.00476087 -0.00163902 0)
(-0.00388064 -0.00149579 0)
(-0.0030787 -0.00133746 0)
(-0.00236213 -0.00116564 0)
(-0.00173692 -0.000982582 0)
(-0.00120758 -0.000791438 0)
(-0.000776722 -0.000596583 0)
(-0.000444469 -0.000404096 0)
(-0.000207766 -0.00022245 0)
(-5.9608e-05 -6.34358e-05 0)
(1.1953e-05 5.67634e-05 0)
(2.6119e-05 0.000116215 0)
(1.09069e-05 8.38558e-05 0)
(4.01523e-06 -8.70741e-05 0)
(-1.30231e-05 -7.95806e-05 0)
(-9.20007e-05 4.99212e-05 0)
(-0.000254004 0.000259671 0)
(-0.00051488 0.000520266 0)
(-0.000885079 0.000809641 0)
(-0.00137018 0.0011114 0)
(-0.0019718 0.00141354 0)
(-0.00268836 0.00170735 0)
(-0.00351576 0.00198655 0)
(-0.00444788 0.00224664 0)
(-0.00547712 0.00248448 0)
(-0.00659473 0.00269792 0)
(-0.00779114 0.00288556 0)
(-0.00905624 0.00304658 0)
(-0.0103795 0.00318062 0)
(-0.0117503 0.00328763 0)
(-0.0131579 0.00336784 0)
(-0.0145916 0.00342169 0)
(-0.0160408 0.00344977 0)
(-0.0174952 0.00345283 0)
(-0.0189447 0.00343168 0)
(-0.0203796 0.00338725 0)
(-0.0217905 0.0033205 0)
(-0.0231682 0.00323248 0)
(-0.0245043 0.00312424 0)
(-0.0257906 0.00299691 0)
(-0.0270193 0.0028516 0)
(-0.0281831 0.00268948 0)
(-0.0292753 0.00251173 0)
(-0.0302896 0.00231955 0)
(-0.0312203 0.00211415 0)
(-0.032062 0.00189677 0)
(-0.03281 0.00166865 0)
(-0.03346 0.00143108 0)
(-0.0340085 0.00118533 0)
(-0.0344522 0.00093271 0)
(-0.0347885 0.000674556 0)
(-0.0350156 0.000412215 0)
(-0.0351318 0.000147057 0)
(-0.0351364 -0.000119524 0)
(-0.0350291 -0.000386114 0)
(-0.0348103 -0.000651275 0)
(-0.0344808 -0.000913554 0)
(-0.0340422 -0.00117147 0)
(-0.0334967 -0.00142355 0)
(-0.0328471 -0.00166827 0)
(-0.0320967 -0.00190413 0)
(-0.0312497 -0.00212962 0)
(-0.0303108 -0.00234321 0)
(-0.0292851 -0.00254341 0)
(-0.0281787 -0.00272871 0)
(-0.026998 -0.00289766 0)
(-0.0257501 -0.00304881 0)
(-0.0244428 -0.00318077 0)
(-0.0230841 -0.0032922 0)
(-0.021683 -0.00338181 0)
(-0.0202487 -0.00344839 0)
(-0.0187907 -0.00349085 0)
(-0.0173193 -0.00350816 0)
(-0.0158449 -0.00349945 0)
(-0.0143782 -0.00346398 0)
(-0.0129302 -0.00340118 0)
(-0.011512 -0.00331066 0)
(-0.0101347 -0.00319228 0)
(-0.00880944 -0.00304616 0)
(-0.00754701 -0.00287273 0)
(-0.00635799 -0.00267281 0)
(-0.00525234 -0.00244773 0)
(-0.00423932 -0.00219939 0)
(-0.00332717 -0.00193047 0)
(-0.00252279 -0.00164464 0)
(-0.00183143 -0.00134688 0)
(-0.00125615 -0.00104392 0)
(-0.00079737 -0.000744791 0)
(-0.00045222 -0.000461646 0)
(-0.000213853 -0.000210795 0)
(-7.0614e-05 -1.38504e-05 0)
(-5.23304e-06 0.000100757 0)
(5.26216e-06 9.31495e-05 0)
(-2.66858e-06 -7.37856e-05 0)
(-5.09403e-05 -7.40705e-06 0)
(-0.00019191 0.000205436 0)
(-0.000438815 0.000516353 0)
(-0.000803767 0.000890398 0)
(-0.00129577 0.00130064 0)
(-0.00191933 0.0017265 0)
(-0.00267515 0.00215247 0)
(-0.0035609 0.00256695 0)
(-0.0045717 0.00296134 0)
(-0.00570059 0.00332933 0)
(-0.00693901 0.00366637 0)
(-0.00827712 0.00396924 0)
(-0.00970414 0.00423581 0)
(-0.0112086 0.00446474 0)
(-0.0127787 0.00465532 0)
(-0.0144022 0.00480737 0)
(-0.0160669 0.00492108 0)
(-0.0177604 0.00499698 0)
(-0.0194708 0.00503583 0)
(-0.021186 0.0050386 0)
(-0.0228944 0.00500643 0)
(-0.0245847 0.00494058 0)
(-0.026246 0.00484243 0)
(-0.0278677 0.00471342 0)
(-0.02944 0.00455509 0)
(-0.0309533 0.004369 0)
(-0.0323984 0.0041568 0)
(-0.0337671 0.00392015 0)
(-0.0350513 0.00366076 0)
(-0.0362437 0.00338037 0)
(-0.0373376 0.00308074 0)
(-0.0383267 0.00276367 0)
(-0.0392056 0.00243099 0)
(-0.0399692 0.00208454 0)
(-0.0406134 0.00172621 0)
(-0.0411344 0.0013579 0)
(-0.0415292 0.000981567 0)
(-0.0417955 0.000599167 0)
(-0.0419316 0.000212705 0)
(-0.0419365 -0.000175785 0)
(-0.0418099 -0.00056424 0)
(-0.0415522 -0.000950568 0)
(-0.0411646 -0.00133265 0)
(-0.0406489 -0.00170834 0)
(-0.0400075 -0.00207547 0)
(-0.0392439 -0.00243187 0)
(-0.038362 -0.00277533 0)
(-0.0373666 -0.00310366 0)
(-0.036263 -0.00341468 0)
(-0.0350576 -0.0037062 0)
(-0.0337572 -0.00397608 0)
(-0.0323694 -0.00422219 0)
(-0.0309025 -0.00444247 0)
(-0.0293655 -0.00463493 0)
(-0.0277678 -0.00479762 0)
(-0.0261198 -0.00492874 0)
(-0.024432 -0.00502658 0)
(-0.0227157 -0.00508955 0)
(-0.0209827 -0.00511627 0)
(-0.019245 -0.0051055 0)
(-0.0175149 -0.00505624 0)
(-0.0158052 -0.00496774 0)
(-0.0141285 -0.00483955 0)
(-0.0124975 -0.00467153 0)
(-0.0109251 -0.00446398 0)
(-0.00942343 -0.00421764 0)
(-0.00800457 -0.00393384 0)
(-0.0066798 -0.00361459 0)
(-0.00545955 -0.00326276 0)
(-0.0043531 -0.00288228 0)
(-0.0033683 -0.00247842 0)
(-0.00251113 -0.00205816 0)
(-0.00178536 -0.00163068 0)
(-0.00119205 -0.00120804 0)
(-0.00072907 -0.000805955 0)
(-0.000390496 -0.000444965 0)
(-0.000165888 -0.000151526 0)
(-4.13318e-05 4.04186e-05 0)
(-1.09618e-06 8.43292e-05 0)
(-9.4471e-06 -4.01244e-05 0)
(-9.06088e-05 0.000116248 0)
(-0.000297656 0.000437579 0)
(-0.000634966 0.000870988 0)
(-0.00111005 0.00137719 0)
(-0.00172978 0.0019252 0)
(-0.00249697 0.00249074 0)
(-0.00341096 0.00305507 0)
(-0.0044683 0.00360384 0)
(-0.00566311 0.00412617 0)
(-0.00698748 0.00461386 0)
(-0.00843184 0.00506089 0)
(-0.00998531 0.00546291 0)
(-0.011636 0.00581693 0)
(-0.0133713 0.00612099 0)
(-0.0151781 0.00637402 0)
(-0.0170428 0.00657559 0)
(-0.018952 0.00672585 0)
(-0.0208918 0.00682537 0)
(-0.022849 0.00687507 0)
(-0.02481 0.00687618 0)
(-0.0267619 0.00683014 0)
(-0.028692 0.0067386 0)
(-0.030588 0.00660335 0)
(-0.0324382 0.00642632 0)
(-0.0342313 0.00620953 0)
(-0.0359565 0.0059551 0)
(-0.0376037 0.00566522 0)
(-0.0391633 0.00534214 0)
(-0.0406264 0.00498817 0)
(-0.0419846 0.00460566 0)
(-0.0432304 0.004197 0)
(-0.0443567 0.00376465 0)
(-0.0453573 0.00331107 0)
(-0.0462266 0.00283879 0)
(-0.0469597 0.00235038 0)
(-0.0475525 0.00184844 0)
(-0.0480016 0.0013356 0)
(-0.0483044 0.000814564 0)
(-0.048459 0.000288046 0)
(-0.0484643 -0.000241181 0)
(-0.0483199 -0.000770308 0)
(-0.0480263 -0.00129649 0)
(-0.0475848 -0.00181684 0)
(-0.0469975 -0.00232845 0)
(-0.0462673 -0.00282838 0)
(-0.0453979 -0.00331367 0)
(-0.0443938 -0.00378134 0)
(-0.0432605 -0.00422844 0)
(-0.042004 -0.00465198 0)
(-0.0406315 -0.00504904 0)
(-0.0391506 -0.00541671 0)
(-0.03757 -0.00575214 0)
(-0.035899 -0.00605255 0)
(-0.0341476 -0.00631526 0)
(-0.0323267 -0.0065377 0)
(-0.0304476 -0.00671742 0)
(-0.0285224 -0.00685218 0)
(-0.0265637 -0.00693988 0)
(-0.0245847 -0.00697869 0)
(-0.0225988 -0.00696702 0)
(-0.0206198 -0.00690358 0)
(-0.0186619 -0.00678745 0)
(-0.0167392 -0.00661811 0)
(-0.0148659 -0.00639549 0)
(-0.0130561 -0.0061201 0)
(-0.0113236 -0.00579307 0)
(-0.00968145 -0.00541631 0)
(-0.00814226 -0.00499264 0)
(-0.00671755 -0.00452599 0)
(-0.00541764 -0.00402164 0)
(-0.00425132 -0.00348655 0)
(-0.00322549 -0.00292977 0)
(-0.00234483 -0.00236297 0)
(-0.00161141 -0.00180107 0)
(-0.00102435 -0.00126317 0)
(-0.000579202 -0.000773543 0)
(-0.000267439 -0.000362783 0)
(-7.93794e-05 -6.92147e-05 0)
(-7.5935e-06 5.60223e-05 0)
(-1.60579e-05 1.41698e-05 0)
(-0.000130463 0.000293213 0)
(-0.00040526 0.00074962 0)
(-0.000835699 0.00132776 0)
(-0.00142425 0.00198517 0)
(-0.00217519 0.00268761 0)
(-0.0030892 0.00340769 0)
(-0.00416387 0.00412383 0)
(-0.00539431 0.00481915 0)
(-0.00677342 0.00548059 0)
(-0.00829217 0.00609813 0)
(-0.00993993 0.00666427 0)
(-0.0117048 0.00717349 0)
(-0.0135737 0.00762189 0)
(-0.0155329 0.00800686 0)
(-0.0175683 0.0083269 0)
(-0.019665 0.00858132 0)
(-0.0218083 0.00877016 0)
(-0.0239834 0.00889403 0)
(-0.0261754 0.00895401 0)
(-0.0283698 0.00895157 0)
(-0.0305524 0.00888848 0)
(-0.0327092 0.00876678 0)
(-0.0348268 0.00858872 0)
(-0.0368922 0.00835674 0)
(-0.0388931 0.00807342 0)
(-0.0408175 0.00774144 0)
(-0.0426543 0.00736362 0)
(-0.0443931 0.00694285 0)
(-0.0460238 0.00648209 0)
(-0.0475373 0.00598438 0)
(-0.0489253 0.00545283 0)
(-0.05018 0.00489059 0)
(-0.0512944 0.00430088 0)
(-0.0522625 0.00368696 0)
(-0.0530788 0.00305217 0)
(-0.0537389 0.00239987 0)
(-0.0542389 0.0017335 0)
(-0.0545759 0.00105654 0)
(-0.054748 0.000372536 0)
(-0.0547537 -0.000314929 0)
(-0.0545929 -0.00100221 0)
(-0.054266 -0.00168562 0)
(-0.0537745 -0.00236142 0)
(-0.0531207 -0.00302585 0)
(-0.0523077 -0.0036751 0)
(-0.0513397 -0.00430534 0)
(-0.0502218 -0.00491274 0)
(-0.0489598 -0.00549347 0)
(-0.0475605 -0.00604371 0)
(-0.0460317 -0.00655966 0)
(-0.044382 -0.0070376 0)
(-0.0426207 -0.00747387 0)
(-0.0407583 -0.00786491 0)
(-0.0388057 -0.00820727 0)
(-0.0367748 -0.00849768 0)
(-0.0346782 -0.00873304 0)
(-0.032529 -0.00891046 0)
(-0.0303412 -0.00902732 0)
(-0.028129 -0.00908132 0)
(-0.0259073 -0.00907047 0)
(-0.0236911 -0.00899321 0)
(-0.021496 -0.00884843 0)
(-0.0193374 -0.00863555 0)
(-0.0172308 -0.00835462 0)
(-0.0151915 -0.00800638 0)
(-0.0132344 -0.0075924 0)
(-0.0113741 -0.00711523 0)
(-0.00962399 -0.00657856 0)
(-0.00799688 -0.00598744 0)
(-0.00650411 -0.00534857 0)
(-0.0051555 -0.00467061 0)
(-0.00395905 -0.00396466 0)
(-0.00292057 -0.00324476 0)
(-0.00204348 -0.00252855 0)
(-0.0013285 -0.00183812 0)
(-0.000773138 -0.001201 0)
(-0.000371225 -0.00065115 0)
(-0.000117768 -0.000230175 0)
(-1.39532e-05 7.87195e-06 0)
(-2.2391e-05 8.88017e-05 0)
(-0.000169656 0.000523782 0)
(-0.000512335 0.00114272 0)
(-0.00103672 0.00188855 0)
(-0.0017401 0.00271662 0)
(-0.00262388 0.00359021 0)
(-0.00368632 0.00447941 0)
(-0.00492295 0.00536019 0)
(-0.00632718 0.00621344 0)
(-0.00789049 0.00702409 0)
(-0.00960256 0.00778044 0)
(-0.0114516 0.00847354 0)
(-0.0134245 0.00909672 0)
(-0.0155073 0.00964519 0)
(-0.017685 0.0101157 0)
(-0.0199424 0.0105062 0)
(-0.0222637 0.0108157 0)
(-0.0246328 0.0110443 0)
(-0.027034 0.0111925 0)
(-0.0294511 0.0112616 0)
(-0.0318687 0.0112532 0)
(-0.0342713 0.0111696 0)
(-0.0366438 0.0110131 0)
(-0.0389719 0.0107864 0)
(-0.0412414 0.0104926 0)
(-0.043439 0.0101349 0)
(-0.0455519 0.00971644 0)
(-0.0475679 0.00924083 0)
(-0.0494757 0.00871161 0)
(-0.0512645 0.00813248 0)
(-0.0529244 0.00750721 0)
(-0.0544463 0.00683967 0)
(-0.0558219 0.00613381 0)
(-0.0570435 0.00539364 0)
(-0.0581046 0.00462325 0)
(-0.0589994 0.0038268 0)
(-0.0597228 0.00300851 0)
(-0.0602708 0.00217266 0)
(-0.0606403 0.00132363 0)
(-0.060829 0.000465845 0)
(-0.0608356 -0.000396216 0)
(-0.0606597 -0.00125799 0)
(-0.060302 -0.00211488 0)
(-0.0597639 -0.00296221 0)
(-0.0590479 -0.00379528 0)
(-0.0581576 -0.00460934 0)
(-0.0570974 -0.00539963 0)
(-0.0558728 -0.00616135 0)
(-0.0544901 -0.00688975 0)
(-0.0529567 -0.00758007 0)
(-0.0512811 -0.00822761 0)
(-0.0494725 -0.00882772 0)
(-0.0475411 -0.00937587 0)
(-0.045498 -0.00986765 0)
(-0.0433553 -0.0102988 0)
(-0.0411257 -0.0106653 0)
(-0.0388227 -0.0109633 0)
(-0.0364607 -0.0111893 0)
(-0.0340547 -0.01134 0)
(-0.0316199 -0.0114127 0)
(-0.0291726 -0.0114049 0)
(-0.0267289 -0.0113149 0)
(-0.0243054 -0.0111413 0)
(-0.0219189 -0.0108834 0)
(-0.0195859 -0.0105415 0)
(-0.0173231 -0.0101165 0)
(-0.0151466 -0.00961059 0)
(-0.0130717 -0.00902685 0)
(-0.0111135 -0.00836989 0)
(-0.00928554 -0.00764594 0)
(-0.00760042 -0.00686307 0)
(-0.00606912 -0.00603164 0)
(-0.00470086 -0.00516471 0)
(-0.00350285 -0.00427852 0)
(-0.00248007 -0.00339319 0)
(-0.00163519 -0.00253344 0)
(-0.000967937 -0.00172952 0)
(-0.0004748 -0.00101803 0)
(-0.000155615 -0.000442927 0)
(-2.00549e-05 -5.98965e-05 0)
(-2.8413e-05 0.000183197 0)
(-0.000207759 0.000807335 0)
(-0.000617517 0.00161669 0)
(-0.00123539 0.00255367 0)
(-0.00205358 0.00357225 0)
(-0.00307049 0.00463391 0)
(-0.00428175 0.00570674 0)
(-0.00568064 0.00676468 0)
(-0.00725867 0.00778671 0)
(-0.00900569 0.008756 0)
(-0.01091 0.00965927 0)
(-0.0129584 0.0104863 0)
(-0.0151367 0.0112292 0)
(-0.0174298 0.0118825 0)
(-0.0198216 0.0124421 0)
(-0.0222958 0.0129056 0)
(-0.0248355 0.0132718 0)
(-0.0274237 0.0135405 0)
(-0.0300435 0.0137124 0)
(-0.0326778 0.0137888 0)
(-0.0353101 0.0137717 0)
(-0.0379238 0.0136636 0)
(-0.0405031 0.0134674 0)
(-0.0430323 0.0131863 0)
(-0.0454967 0.0128239 0)
(-0.0478818 0.0123839 0)
(-0.050174 0.0118704 0)
(-0.0523604 0.0112874 0)
(-0.0544287 0.0106395 0)
(-0.0563676 0.00993086 0)
(-0.0581663 0.00916625 0)
(-0.0598152 0.00835031 0)
(-0.0613053 0.00748783 0)
(-0.0626286 0.00658367 0)
(-0.0637779 0.00564282 0)
(-0.0647469 0.00467032 0)
(-0.0655305 0.00367131 0)
(-0.0661242 0.00265101 0)
(-0.0665247 0.00161473 0)
(-0.0667296 0.000567844 0)
(-0.0667375 -0.000484186 0)
(-0.0665479 -0.00153583 0)
(-0.0661615 -0.00258148 0)
(-0.0655799 -0.00361547 0)
(-0.0648059 -0.0046321 0)
(-0.0638431 -0.00562561 0)
(-0.0626962 -0.0065902 0)
(-0.0613712 -0.0075201 0)
(-0.0598748 -0.00840951 0)
(-0.058215 -0.00925268 0)
(-0.0564006 -0.0100439 0)
(-0.0544417 -0.0107777 0)
(-0.052349 -0.0114484 0)
(-0.0501345 -0.0120508 0)
(-0.0478109 -0.0125797 0)
(-0.045392 -0.0130303 0)
(-0.0428921 -0.013398 0)
(-0.0403265 -0.0136786 0)
(-0.0377112 -0.0138682 0)
(-0.0350626 -0.0139635 0)
(-0.0323978 -0.0139616 0)
(-0.0297341 -0.0138605 0)
(-0.0270893 -0.0136585 0)
(-0.0244811 -0.0133551 0)
(-0.0219274 -0.0129504 0)
(-0.0194457 -0.0124458 0)
(-0.0170534 -0.0118438 0)
(-0.0147671 -0.0111483 0)
(-0.0126027 -0.0103648 0)
(-0.0105751 -0.00950054 0)
(-0.00869818 -0.00856502 0)
(-0.00698409 -0.00757019 0)
(-0.00544348 -0.00653093 0)
(-0.00408513 -0.00546553 0)
(-0.00291584 -0.00439628 0)
(-0.00194038 -0.00335017 0)
(-0.00116094 -0.00235969 0)
(-0.000576764 -0.00146344 0)
(-0.000192468 -0.000706997 0)
(-2.58584e-05 -0.000146761 0)
(-3.41273e-05 0.000296665 0)
(-0.000244594 0.00114275 0)
(-0.000720099 0.00217047 0)
(-0.00143025 0.00332236 0)
(-0.0023623 0.00455163 0)
(-0.00351167 0.0058185 0)
(-0.00487128 0.00708954 0)
(-0.00643198 0.00833709 0)
(-0.00818325 0.00953849 0)
(-0.0101132 0.0106754 0)
(-0.0122084 0.0117332 0)
(-0.0144545 0.0127003 0)
(-0.016836 0.0135681 0)
(-0.0193364 0.0143301 0)
(-0.0219387 0.0149817 0)
(-0.0246254 0.0155201 0)
(-0.0273787 0.0159437 0)
(-0.0301805 0.0162524 0)
(-0.0330129 0.0164467 0)
(-0.0358579 0.0165282 0)
(-0.0386979 0.0164993 0)
(-0.0415155 0.0163626 0)
(-0.0442939 0.0161216 0)
(-0.0470167 0.0157801 0)
(-0.0496682 0.0153421 0)
(-0.0522331 0.0148122 0)
(-0.0546971 0.0141951 0)
(-0.0570464 0.0134956 0)
(-0.0592682 0.0127188 0)
(-0.0613503 0.0118701 0)
(-0.0632816 0.0109549 0)
(-0.0650516 0.00997868 0)
(-0.066651 0.00894719 0)
(-0.0680711 0.00786621 0)
(-0.0693046 0.00674163 0)
(-0.0703447 0.00557946 0)
(-0.0711858 0.00438582 0)
(-0.0718234 0.00316691 0)
(-0.0722539 0.00192903 0)
(-0.0724747 0.000678585 0)
(-0.0724843 -0.000577939 0)
(-0.0722824 -0.00183397 0)
(-0.0718694 -0.00308284 0)
(-0.0712473 -0.00431784 0)
(-0.0704187 -0.00553218 0)
(-0.0693876 -0.00671902 0)
(-0.068159 -0.00787151 0)
(-0.0667391 -0.00898278 0)
(-0.0651352 -0.010046 0)
(-0.0633554 -0.0110543 0)
(-0.0614093 -0.012001 0)
(-0.0593073 -0.0128794 0)
(-0.0570609 -0.0136831 0)
(-0.0546827 -0.0144057 0)
(-0.0521862 -0.0150414 0)
(-0.0495857 -0.0155842 0)
(-0.0468967 -0.0160288 0)
(-0.0441351 -0.0163702 0)
(-0.0413179 -0.016604 0)
(-0.0384624 -0.0167262 0)
(-0.0355867 -0.0167335 0)
(-0.0327091 -0.0166234 0)
(-0.0298484 -0.0163943 0)
(-0.0270235 -0.0160453 0)
(-0.0242532 -0.0155769 0)
(-0.0215563 -0.0149906 0)
(-0.018951 -0.0142893 0)
(-0.0164554 -0.0134776 0)
(-0.0140864 -0.0125619 0)
(-0.0118602 -0.0115505 0)
(-0.0097919 -0.0104541 0)
(-0.00789516 -0.00928635 0)
(-0.00618214 -0.00806365 0)
(-0.00466333 -0.00680614 0)
(-0.00334751 -0.00553804 0)
(-0.00224171 -0.00428825 0)
(-0.00135067 -0.00309104 0)
(-0.000676398 -0.00198657 0)
(-0.00022814 -0.0010214 0)
(-3.13639e-05 -0.000252076 0)
(-3.95552e-05 0.000428488 0)
(-0.000280128 0.00152865 0)
(-0.000819794 0.00280255 0)
(-0.00162056 0.00419323 0)
(-0.00266498 0.00565358 0)
(-0.00394554 0.00714303 0)
(-0.0054524 0.00862702 0)
(-0.00717395 0.0100766 0)
(-0.0090975 0.0114679 0)
(-0.0112092 0.0127812 0)
(-0.0134942 0.0140007 0)
(-0.0159364 0.0151139 0)
(-0.018519 0.0161111 0)
(-0.0212243 0.0169852 0)
(-0.0240342 0.0177311 0)
(-0.02693 0.0183456 0)
(-0.0298928 0.0188269 0)
(-0.0329038 0.0191747 0)
(-0.0359438 0.0193898 0)
(-0.0389941 0.0194738 0)
(-0.0420362 0.0194294 0)
(-0.0450518 0.0192597 0)
(-0.0480232 0.0189687 0)
(-0.0509332 0.0185607 0)
(-0.0537654 0.0180403 0)
(-0.0565038 0.0174129 0)
(-0.0591332 0.0166837 0)
(-0.0616393 0.0158586 0)
(-0.0640086 0.0149434 0)
(-0.0662283 0.0139443 0)
(-0.0682868 0.0128675 0)
(-0.0701731 0.0117197 0)
(-0.0718773 0.0105074 0)
(-0.0733905 0.0092373 0)
(-0.0747048 0.00791637 0)
(-0.0758133 0.00655158 0)
(-0.0767099 0.00515008 0)
(-0.07739 0.00371911 0)
(-0.0778497 0.00226602 0)
(-0.0780864 0.000798287 0)
(-0.0780985 -0.000676522 0)
(-0.0778854 -0.00215073 0)
(-0.0774479 -0.00361659 0)
(-0.0767878 -0.00506624 0)
(-0.0759079 -0.00649178 0)
(-0.0748124 -0.00788525 0)
(-0.0735065 -0.00923865 0)
(-0.0719966 -0.010544 0)
(-0.0702903 -0.0117933 0)
(-0.0683963 -0.0129786 0)
(-0.0663245 -0.0140921 0)
(-0.0640857 -0.015126 0)
(-0.061692 -0.016073 0)
(-0.0591567 -0.0169255 0)
(-0.0564938 -0.0176767 0)
(-0.0537184 -0.0183198 0)
(-0.0508466 -0.0188486 0)
(-0.0478953 -0.0192574 0)
(-0.044882 -0.019541 0)
(-0.0418252 -0.0196947 0)
(-0.0387438 -0.019715 0)
(-0.0356571 -0.0195987 0)
(-0.0325849 -0.0193441 0)
(-0.0295469 -0.0189503 0)
(-0.0265632 -0.0184177 0)
(-0.0236536 -0.017748 0)
(-0.0208376 -0.0169448 0)
(-0.0181341 -0.0160131 0)
(-0.0155617 -0.01496 0)
(-0.0131376 -0.013795 0)
(-0.0108784 -0.0125301 0)
(-0.00879931 -0.01118 0)
(-0.00691412 -0.00976273 0)
(-0.00523518 -0.00830013 0)
(-0.00377333 -0.00681802 0)
(-0.00253798 -0.00534692 0)
(-0.00153643 -0.00392253 0)
(-0.000773429 -0.00258613 0)
(-0.000262599 -0.0013849 0)
(-3.65919e-05 -0.000375165 0)
(-4.47257e-05 0.000577975 0)
(-0.000314412 0.0019636 0)
(-0.000916582 0.0035112 0)
(-0.00180611 0.00516454 0)
(-0.00296111 0.00687652 0)
(-0.00437122 0.00860608 0)
(-0.00602389 0.0103179 0)
(-0.00790497 0.0119822 0)
(-0.00999956 0.0135738 0)
(-0.0122919 0.0150721 0)
(-0.0147652 0.0164603 0)
(-0.017402 0.0177251 0)
(-0.0201839 0.0188561 0)
(-0.0230921 0.0198453 0)
(-0.026107 0.0206874 0)
(-0.0292091 0.0213788 0)
(-0.0323784 0.0219176 0)
(-0.0355949 0.0223034 0)
(-0.0388386 0.0225371 0)
(-0.0420899 0.0226206 0)
(-0.0453294 0.0225569 0)
(-0.0485381 0.0223496 0)
(-0.0516974 0.0220031 0)
(-0.0547895 0.0215223 0)
(-0.0577971 0.0209127 0)
(-0.0607036 0.02018 0)
(-0.0634932 0.0193306 0)
(-0.066151 0.018371 0)
(-0.0686629 0.0173079 0)
(-0.0710156 0.0161483 0)
(-0.0731969 0.0148997 0)
(-0.0751954 0.0135692 0)
(-0.0770009 0.0121647 0)
(-0.0786041 0.0106937 0)
(-0.0799965 0.00916436 0)
(-0.0811712 0.00758458 0)
(-0.0821218 0.00596259 0)
(-0.0828433 0.00430673 0)
(-0.0833318 0.00262545 0)
(-0.0835846 0.00092733 0)
(-0.0835998 -0.000778926 0)
(-0.083377 -0.0024845 0)
(-0.0829169 -0.00418049 0)
(-0.0822212 -0.00585787 0)
(-0.081293 -0.00750756 0)
(-0.0801365 -0.00912043 0)
(-0.0787572 -0.0106873 0)
(-0.0771616 -0.012199 0)
(-0.0753577 -0.0136463 0)
(-0.0733544 -0.0150202 0)
(-0.071162 -0.0163116 0)
(-0.0687918 -0.0175118 0)
(-0.0662564 -0.0186121 0)
(-0.0635695 -0.019604 0)
(-0.0607457 -0.0204797 0)
(-0.0578008 -0.0212314 0)
(-0.0547515 -0.021852 0)
(-0.0516154 -0.0223348 0)
(-0.048411 -0.022674 0)
(-0.0451574 -0.0228644 0)
(-0.0418744 -0.0229016 0)
(-0.0385822 -0.0227824 0)
(-0.0353016 -0.0225045 0)
(-0.0320534 -0.022067 0)
(-0.0288586 -0.0214702 0)
(-0.0257382 -0.0207163 0)
(-0.0227128 -0.0198088 0)
(-0.0198026 -0.0187536 0)
(-0.0170274 -0.0175584 0)
(-0.014406 -0.0162337 0)
(-0.0119563 -0.0147924 0)
(-0.00969521 -0.0132506 0)
(-0.00763824 -0.0116277 0)
(-0.00579972 -0.0099469 0)
(-0.00419264 -0.00823538 0)
(-0.00282881 -0.00652505 0)
(-0.00171809 -0.00485277 0)
(-0.000867871 -0.00326064 0)
(-0.000295908 -0.00179621 0)
(-4.15729e-05 -0.000515379 0)
(-4.96706e-05 0.000744485 0)
(-0.000347547 0.0024462 0)
(-0.0010106 0.00429464 0)
(-0.00198701 0.00623441 0)
(-0.00325071 0.00821861 0)
(-0.00478858 0.010206 0)
(-0.0065854 0.0121607 0)
(-0.00862453 0.0140523 0)
(-0.0108888 0.0158548 0)
(-0.0133604 0.0175468 0)
(-0.0160207 0.0191108 0)
(-0.0188507 0.0205326 0)
(-0.0218304 0.0218012 0)
(-0.0249396 0.0229084 0)
(-0.0281576 0.0238483 0)
(-0.0314637 0.024617 0)
(-0.0348367 0.0252127 0)
(-0.0382558 0.025635 0)
(-0.0417 0.0258849 0)
(-0.0451488 0.0259647 0)
(-0.048582 0.0258776 0)
(-0.0519798 0.0256278 0)
(-0.0553229 0.0252202 0)
(-0.0585928 0.0246603 0)
(-0.0617714 0.0239544 0)
(-0.0648417 0.023109 0)
(-0.0677872 0.0221312 0)
(-0.0705925 0.0210282 0)
(-0.0732428 0.019808 0)
(-0.0757246 0.0184783 0)
(-0.0780252 0.0170474 0)
(-0.0801327 0.0155238 0)
(-0.0820365 0.013916 0)
(-0.083727 0.0122329 0)
(-0.0851955 0.0104835 0)
(-0.0864346 0.00867682 0)
(-0.087438 0.00682225 0)
(-0.0882003 0.00492921 0)
(-0.0887175 0.00300729 0)
(-0.0889866 0.00106624 0)
(-0.0890058 -0.000884078 0)
(-0.0887747 -0.00283367 0)
(-0.0882937 -0.00477242 0)
(-0.0875648 -0.00669011 0)
(-0.0865911 -0.00857644 0)
(-0.0853768 -0.0104211 0)
(-0.0839276 -0.0122135 0)
(-0.0822503 -0.0139435 0)
(-0.0803528 -0.0156005 0)
(-0.0782446 -0.0171743 0)
(-0.0759362 -0.0186547 0)
(-0.0734393 -0.0200316 0)
(-0.0707668 -0.0212953 0)