/*--------------------------------*- C++ -*----------------------------------*\
  =========                 |
  \\      /  F ield         | OpenFOAM: The Open Source CFD Toolbox
   \\    /   O peration     | Website:  https://openfoam.org
    \\  /    A nd           | Version:  7
     \\/     M anipulation  |
\*---------------------------------------------------------------------------*/
FoamFile
{
    version     2.0;
    format      ascii;
    class       volScalarField;
    location    "0.05";
    object      p;
}
// * * * * * * * * * * * * * * * * * * * * * * * * * * * * * * * * * * * * * //

dimensions      [0 2 -2 0 0 0 0];

internalField   nonuniform List<scalar> 
25600
(
-2.11493e-07
9.54968e-05
0.000113998
6.5684e-06
-0.000235557
-0.000613342
-0.00112024
-0.00174511
-0.0024755
-0.00329766
-0.0041968
-0.00515761
-0.0061643
-0.00720025
-0.00825253
-0.00930729
-0.010353
-0.0113795
-0.0123779
-0.0133403
-0.0142598
-0.0151317
-0.0159533
-0.0167216
-0.0174337
-0.0180879
-0.0186812
-0.0192124
-0.0196797
-0.0200808
-0.020415
-0.0206816
-0.0208817
-0.0210151
-0.0210831
-0.0210852
-0.0210219
-0.0208962
-0.0207086
-0.0204582
-0.0201457
-0.0197717
-0.0193365
-0.0188412
-0.0182869
-0.0176739
-0.0170014
-0.0162694
-0.0154783
-0.0146293
-0.0137231
-0.0127604
-0.0117419
-0.0106678
-0.00953821
-0.00835366
-0.00711492
-0.00582267
-0.0044778
-0.00308183
-0.00163671
-0.000144396
0.00139277
0.00297208
0.0045909
0.00624693
0.00793829
0.0096629
0.011418
0.0132011
0.0150104
0.016844
0.0187
0.0205765
0.0224714
0.0243832
0.02631
0.0282497
0.0302004
0.0321606
0.0341284
0.0361019
0.0380789
0.0400567
0.0420327
0.0440045
0.0459691
0.0479232
0.0498631
0.051785
0.0536846
0.0555578
0.0574009
0.0592109
0.0609859
0.062724
0.0644223
0.0660778
0.0676878
0.06925
0.0707629
0.0722256
0.0736376
0.0749976
0.0763046
0.0775577
0.078756
0.0798974
0.0809793
0.0819994
0.0829555
0.0838454
0.0846668
0.0854178
0.0860965
0.0867011
0.0872304
0.0876842
0.0880626
0.0883659
0.0885948
0.0887505
0.0888342
0.0888469
0.0887895
0.0886628
0.0884676
0.0882049
0.0878768
0.0874861
0.0870357
0.0865274
0.0859622
0.0853413
0.0846667
0.0839413
0.0831683
0.0823513
0.0814946
0.0806028
0.0796806
0.078733
0.0777657
0.0767857
0.0758008
0.0748194
0.0738511
0.0729064
0.0719955
0.0711288
0.0703171
0.069573
0.0689113
0.068347
0.0678926
0.067558
0.0673487
0.0672634
0.0672922
0.0673898
-0.00010093
-3.04081e-05
-5.50824e-05
-0.000192796
-0.000440815
-0.000798625
-0.00126526
-0.00183304
-0.00249179
-0.00323252
-0.00404297
-0.00490973
-0.00581799
-0.00675524
-0.007708
-0.00866542
-0.00961601
-0.0105512
-0.0114646
-0.0123479
-0.0131945
-0.0139992
-0.0147587
-0.0154703
-0.0161316
-0.0167398
-0.0172935
-0.0177904
-0.0182274
-0.0186031
-0.018916
-0.0191648
-0.0193503
-0.0194742
-0.0195352
-0.0195328
-0.0194679
-0.0193413
-0.0191538
-0.0189067
-0.0186005
-0.018235
-0.0178102
-0.0173264
-0.0167841
-0.0161842
-0.0155268
-0.014812
-0.01404
-0.0132109
-0.0123257
-0.0113852
-0.0103905
-0.00934199
-0.00824004
-0.00708539
-0.00587849
-0.00461978
-0.00331043
-0.00195214
-0.000546753
0.000903759
0.00239716
0.00393076
0.00550187
0.00710852
0.00874909
0.0104216
0.0121237
0.0138532
0.0156079
0.0173859
0.0191858
0.0210056
0.0228442
0.0246996
0.026569
0.0284502
0.0303418
0.0322421
0.0341499
0.0360633
0.0379794
0.0398952
0.0418087
0.0437177
0.0456192
0.0475103
0.0493877
0.0512473
0.0530849
0.0548969
0.0566798
0.0584311
0.0601493
0.0618327
0.0634777
0.0650814
0.0666417
0.0681566
0.0696242
0.0710436
0.072414
0.0737341
0.0750025
0.0762188
0.0773819
0.0784894
0.0795384
0.0805272
0.0814541
0.0823169
0.0831136
0.0838427
0.0845025
0.0850911
0.0856079
0.086053
0.0864267
0.0867289
0.08696
0.0871213
0.0872142
0.0872395
0.0871977
0.0870898
0.0869166
0.0866794
0.0863799
0.0860209
0.0856052
0.0851349
0.0846107
0.0840341
0.0834071
0.0827328
0.0820147
0.0812562
0.0804616
0.0796356
0.0787827
0.0779078
0.077016
0.0761137
0.0752084
0.0743085
0.0734228
0.0725608
0.0717314
0.0709437
0.0702074
0.0695343
0.0689367
0.0684264
0.0680125
0.0677021
0.0675
0.0674041
0.067413
0.0675106
-0.000114979
-4.98616e-05
-9.41228e-05
-0.00024955
-0.000502573
-0.000850239
-0.00128977
-0.0018171
-0.00242622
-0.0031073
-0.00385128
-0.0046471
-0.00548156
-0.00634237
-0.00721847
-0.00809914
-0.00897505
-0.00983823
-0.0106824
-0.0115017
-0.0122894
-0.0130395
-0.0137484
-0.0144138
-0.015033
-0.0156039
-0.0161248
-0.0165923
-0.0170037
-0.0173578
-0.0176522
-0.0178868
-0.0180603
-0.0181749
-0.0182303
-0.0182247
-0.0181579
-0.0180307
-0.0178442
-0.0175996
-0.0172981
-0.01694
-0.0165245
-0.0160511
-0.01552
-0.0149315
-0.0142867
-0.0135862
-0.0128301
-0.0120183
-0.0111514
-0.0102305
-0.00925644
-0.00823
-0.00715175
-0.00602243
-0.0048424
-0.00361186
-0.00233223
-0.00100555
0.000366555
0.00178219
0.00323894
0.00473435
0.006266
0.00783189
0.00943052
0.0110599
0.0127179
0.0144029
0.0161124
0.0178441
0.0195967
0.021369
0.0231597
0.0249671
0.0267882
0.02862
0.0304615
0.0323117
0.034169
0.0360313
0.037896
0.0397597
0.0416205
0.0434766
0.0453253
0.0471635
0.0489885
0.0507962
0.0525822
0.0543429
0.0560756
0.0577781
0.0594489
0.061086
0.0626863
0.0642464
0.0657645
0.0672391
0.0686684
0.0700511
0.0713859
0.0726717
0.0739076
0.0750927
0.0762258
0.0773046
0.0783264
0.0792892
0.0801918
0.0810324
0.081809
0.08252
0.0831638
0.0837394
0.0842464
0.0846849
0.0850547
0.085356
0.085589
0.085755
0.0858552
0.0858904
0.0858614
0.085769
0.0856142
0.085398
0.0851224
0.08479
0.0844034
0.0839643
0.0834738
0.0829334
0.0823455
0.0817128
0.0810387
0.0803269
0.079582
0.0788088
0.0780116
0.0771942
0.0763616
0.0755199
0.0746766
0.07384
0.0730184
0.0722199
0.0714522
0.0707233
0.0700426
0.069421
0.0688696
0.0683975
0.0680112
0.0677166
0.0675195
0.0674227
0.0674352
0.0675588
-6.85919e-06
4.36141e-05
-1.84228e-05
-0.00019141
-0.000450381
-0.000793552
-0.00121816
-0.00171909
-0.00229132
-0.00292788
-0.00362114
-0.00436124
-0.0051371
-0.00593729
-0.00675209
-0.0075711
-0.00838568
-0.00918909
-0.00997569
-0.010741
-0.0114775
-0.0121813
-0.0128475
-0.013474
-0.0140582
-0.0145979
-0.0150903
-0.0155322
-0.0159217
-0.0162561
-0.016535
-0.0167572
-0.0169212
-0.0170277
-0.0170772
-0.0170683
-0.0170003
-0.016874
-0.0166897
-0.0164484
-0.0161513
-0.0157987
-0.0153904
-0.0149261
-0.0144053
-0.0138277
-0.0131945
-0.0125067
-0.0117642
-0.0109672
-0.0101166
-0.0092132
-0.00825763
-0.00725082
-0.00619372
-0.00508675
-0.00393019
-0.00272454
-0.00147118
-0.000172123
0.00117094
0.00255605
0.0039806
0.00544241
0.00693967
0.00847035
0.0100326
0.0116246
0.0132444
0.0148902
0.0165602
0.0182515
0.0199629
0.0216936
0.0234421
0.0252066
0.0269843
0.0287728
0.0305707
0.0323771
0.0341899
0.0360069
0.0378255
0.0396431
0.0414574
0.0432666
0.0450684
0.0468601
0.0486386
0.0503999
0.0521401
0.0538557
0.0555441
0.0572034
0.0588324
0.0604285
0.0619885
0.0635098
0.0649909
0.06643
0.0678251
0.0691751
0.0704787
0.0717344
0.0729412
0.0740987
0.0752055
0.0762589
0.0772565
0.0781968
0.0790786
0.0798998
0.0806584
0.0813534
0.0819838
0.0825487
0.0830476
0.0834807
0.083848
0.084149
0.0843838
0.0845538
0.0846605
0.0847047
0.0846869
0.0846082
0.0844696
0.0842723
0.0840178
0.0837083
0.0833463
0.0829337
0.082472
0.0819625
0.0814073
0.0808092
0.0801715
0.0794985
0.078795
0.0780656
0.0773142
0.0765439
0.0757592
0.0749662
0.0741728
0.0733871
0.0726166
0.0718678
0.0711476
0.0704634
0.0698243
0.0692402
0.0687211
0.0682751
0.0679081
0.0676244
0.0674288
0.0673287
0.0673435
0.0674829
0.000222576
0.00024043
0.00015301
-3.75656e-05
-0.000307861
-0.000650667
-0.00106455
-0.00154619
-0.00209028
-0.0026914
-0.00334175
-0.00403506
-0.00476121
-0.0055098
-0.0062719
-0.00703891
-0.00780136
-0.00855314
-0.0092893
-0.010005
-0.0106959
-0.0113567
-0.0119839
-0.0125747
-0.0131265
-0.0136363
-0.0141017
-0.0145199
-0.014887
-0.0152025
-0.0154665
-0.0156756
-0.0158299
-0.0159284
-0.0159707
-0.0159567
-0.0158863
-0.0157597
-0.0155774
-0.01534
-0.0150474
-0.0146996
-0.0142972
-0.0138402
-0.0133282
-0.0127612
-0.0121398
-0.0114643
-0.0107348
-0.00995222
-0.00911731
-0.00823085
-0.00729355
-0.0063064
-0.00527025
-0.00418528
-0.00305174
-0.0018706
-0.000643214
0.000628798
0.00194361
0.00329898
0.00469236
0.00612176
0.00758575
0.00908254
0.01061
0.0121662
0.0137495
0.0153578
0.0169891
0.0186415
0.0203137
0.0220046
0.0237127
0.0254356
0.0271711
0.0289176
0.030674
0.0324384
0.0342083
0.0359818
0.0377561
0.0395289
0.0412986
0.0430631
0.0448197
0.0465664
0.0483003
0.0500172
0.0517131
0.0533853
0.0550316
0.0566496
0.0582379
0.0597943
0.0613157
0.0627998
0.0642453
0.0656504
0.067013
0.0683313
0.0696046
0.0708316
0.0720111
0.0731422
0.0742235
0.0752528
0.0762277
0.077147
0.0780091
0.078812
0.079554
0.0802342
0.0808523
0.0814074
0.0818994
0.082328
0.082693
0.0829938
0.0832307
0.083405
0.0835182
0.083571
0.0835642
0.0834989
0.0833763
0.083197
0.082962
0.0826735
0.0823343
0.0819465
0.0815115
0.0810304
0.080505
0.0799383
0.0793338
0.0786962
0.0780302
0.0773404
0.0766298
0.0759011
0.0751585
0.0744085
0.0736591
0.0729178
0.0721912
0.0714847
0.0708044
0.0701578
0.0695531
0.0689989
0.0685037
0.0680757
0.0677218
0.0674458
0.0672499
0.067141
0.0671453
0.0672777
0.000562638
0.000535869
0.000415061
0.000203362
-8.00168e-05
-0.000425603
-0.000834005
-0.00130196
-0.00182573
-0.00239947
-0.00301757
-0.00367231
-0.00435717
-0.00506279
-0.00578152
-0.00650436
-0.00722371
-0.00793225
-0.00862571
-0.00929935
-0.00995008
-0.0105727
-0.0111651
-0.0117234
-0.0122448
-0.012727
-0.0131666
-0.0135614
-0.013908
-0.0142051
-0.0144529
-0.0146495
-0.0147928
-0.0148819
-0.0149169
-0.0148972
-0.0148228
-0.0146942
-0.0145124
-0.0142773
-0.0139882
-0.0136451
-0.0132482
-0.0127973
-0.0122928
-0.0117352
-0.0111246
-0.0104609
-0.00974424
-0.00897563
-0.00815597
-0.00728595
-0.0063667
-0.00539917
-0.00438371
-0.00332037
-0.00220963
-0.00105266
0.000149271
0.00139472
0.00268173
0.00400788
0.00537098
0.0067693
0.00820115
0.00966483
0.0111587
0.0126806
0.0142289
0.0158013
0.0173955
0.0190102
0.0206447
0.0222974
0.0239665
0.0256497
0.0273451
0.0290512
0.0307675
0.0324917
0.0342206
0.0359522
0.0376845
0.039415
0.0411418
0.0428633
0.0445774
0.0462814
0.0479725
0.049647
0.0513011
0.0529321
0.0545379
0.0561167
0.0576664
0.0591847
0.0606691
0.062118
0.0635301
0.0649029
0.0662342
0.0675226
0.0687674
0.0699672
0.0711206
0.0722268
0.0732845
0.0742913
0.075245
0.0761445
0.0769885
0.0777746
0.0785011
0.0791679
0.0797748
0.0803214
0.0808071
0.0812314
0.0815942
0.081895
0.0821343
0.082313
0.0824325
0.0824938
0.0824977
0.0824454
0.0823377
0.0821747
0.0819572
0.0816877
0.0813694
0.0810047
0.0805943
0.0801389
0.0796402
0.0791015
0.0785271
0.0779216
0.0772895
0.0766344
0.0759592
0.0752666
0.0745609
0.0738485
0.073137
0.0724333
0.0717433
0.0710718
0.0704245
0.0698084
0.0692312
0.0687002
0.0682227
0.0678059
0.0674572
0.0671817
0.0669805
0.0668591
0.0668429
0.0669487
0.00100064
0.000919671
0.000761557
0.000523684
0.000224559
-0.000128925
-0.00053567
-0.00099535
-0.0015052
-0.00205979
-0.00265401
-0.00328079
-0.00393296
-0.00460371
-0.00528568
-0.00597219
-0.00665513
-0.00732764
-0.0079855
-0.00862449
-0.00924049
-0.0098312
-0.0103926
-0.0109218
-0.0114164
-0.0118724
-0.0122885
-0.0126616
-0.0129888
-0.0132686
-0.0135001
-0.0136835
-0.0138152
-0.0138943
-0.0139212
-0.0138955
-0.0138169
-0.0136861
-0.0135034
-0.0132689
-0.012982
-0.0126426
-0.0122505
-0.0118055
-0.0113081
-0.0107589
-0.010158
-0.00950516
-0.00880078
-0.00804562
-0.00724059
-0.00638665
-0.00548504
-0.00453651
-0.003541
-0.00249868
-0.00141026
-0.000276665
0.000900847
0.00212057
0.0033805
0.0046784
0.00601234
0.00738086
0.00878207
0.0102141
0.0116756
0.0131647
0.0146794
0.0162174
0.0177766
0.0193557
0.0209542
0.0225706
0.0242024
0.0258477
0.0275053
0.0291738
0.0308518
0.0325371
0.0342271
0.0359193
0.0376117
0.0393021
0.0409889
0.0426701
0.0443436
0.0460074
0.0476585
0.0492928
0.0509072
0.0524995
0.0540675
0.0556088
0.0571217
0.0586043
0.0600544
0.0614703
0.0628505
0.0641928
0.0654948
0.066755
0.0679729
0.069147
0.0702762
0.0713592
0.0723948
0.0733806
0.0743149
0.0751964
0.0760235
0.076794
0.0775066
0.0781613
0.0787583
0.079297
0.0797764
0.0801965
0.0805571
0.080858
0.0810994
0.0812825
0.0814082
0.0814776
0.0814914
0.0814508
0.0813562
0.0812073
0.0810052
0.0807527
0.0804534
0.0801096
0.0797214
0.0792887
0.0788136
0.0783
0.0777526
0.0771759
0.0765735
0.0759485
0.0753037
0.0746421
0.0739681
0.0732879
0.0726084
0.0719359
0.0712756
0.0706323
0.0700113
0.0694189
0.0688622
0.068348
0.0678825
0.0674715
0.0671211
0.0668374
0.0666236
0.0664842
0.0664395
0.0665039
0.0015227
0.00138176
0.00118262
0.000915712
0.000596231
0.000231112
-0.000179655
-0.000635705
-0.00113668
-0.00167886
-0.00225554
-0.0028625
-0.0034906
-0.00413427
-0.0047871
-0.0054432
-0.00609504
-0.00673778
-0.00736528
-0.00797472
-0.00856269
-0.00912559
-0.00966019
-0.0101642
-0.0106342
-0.011067
-0.0114616
-0.0118151
-0.0121243
-0.0123877
-0.0126047
-0.012774
-0.012894
-0.0129633
-0.0129816
-0.0129494
-0.0128666
-0.0127333
-0.0125496
-0.0123151
-0.0120296
-0.0116928
-0.0113048
-0.0108653
-0.0103748
-0.00983365
-0.0092416
-0.00859886
-0.00790602
-0.00716359
-0.00637259
-0.00553435
-0.00464982
-0.00371937
-0.00274294
-0.00172084
-0.000653879
0.000457246
0.00161139
0.00280645
0.00404032
0.0053112
0.00661729
0.00795714
0.00932907
0.0107311
0.0121618
0.0136197
0.0151022
0.0166071
0.0181333
0.0196794
0.0212441
0.0228255
0.0244218
0.0260315
0.0276532
0.0292859
0.0309278
0.0325764
0.034229
0.035884
0.0375391
0.0391918
0.0408406
0.042484
0.0441198
0.0457455
0.0473584
0.0489551
0.0505326
0.0520884
0.0536204
0.0551264
0.0566048
0.0580539
0.0594717
0.0608566
0.062207
0.0635204
0.0647944
0.0660281
0.0672209
0.0683712
0.0694775
0.0705387
0.0715537
0.0725204
0.0734369
0.0743016
0.0751131
0.0758694
0.0765694
0.0772134
0.0778013
0.0783322
0.0788055
0.0792212
0.0795796
0.0798805
0.080124
0.0803109
0.0804423
0.080519
0.0805416
0.0805108
0.080427
0.0802901
0.0801016
0.0798644
0.0795823
0.0792569
0.078888
0.0784755
0.0780216
0.0775306
0.0770073
0.0764557
0.0758793
0.0752806
0.0746624
0.0740276
0.0733807
0.0727277
0.0720751
0.0714281
0.0707917
0.0701704
0.0695695
0.0689949
0.0684526
0.0679487
0.0674887
0.0670774
0.0667195
0.0664211
0.0661873
0.0660233
0.0659422
0.0659534
0.00211433
0.00191218
0.00166764
0.00137037
0.00102737
0.000645829
0.000226066
-0.000232039
-0.000728654
-0.00126205
-0.00182823
-0.00242008
-0.00303134
-0.00365494
-0.00428499
-0.00491618
-0.00554336
-0.00616037
-0.00676323
-0.00734812
-0.00791158
-0.00845052
-0.00896235
-0.00944424
-0.00989249
-0.0103057
-0.0106807
-0.0110164
-0.0113099
-0.0115577
-0.0117608
-0.0119171
-0.0120259
-0.0120858
-0.0120962
-0.0120577
-0.0119704
-0.0118343
-0.0116493
-0.0114148
-0.0111306
-0.0107963
-0.0104118
-0.00997753
-0.00949348
-0.00895962
-0.00837601
-0.00774288
-0.00706086
-0.0063305
-0.00555298
-0.00472987
-0.00386164
-0.00294828
-0.00199004
-0.000987289
5.93881e-05
0.00114918
0.00228086
0.00345232
0.00466143
0.00590671
0.00718649
0.008499
0.00984281
0.0112165
0.0126184
0.0140464
0.0154983
0.0169725
0.0184675
0.0199823
0.0215153
0.023064
0.0246266
0.0262026
0.0277908
0.0293895
0.0309968
0.0326105
0.0342282
0.035848
0.0374677
0.039085
0.0406983
0.0423059
0.0439058
0.0454958
0.0470731
0.0486344
0.0501769
0.0516984
0.0531966
0.0546694
0.0561154
0.0575332
0.0589209
0.0602768
0.0615989
0.0628849
0.0641326
0.0653415
0.0665108
0.0676389
0.0687239
0.0697649
0.0707609
0.0717099
0.0726099
0.0734592
0.0742563
0.0749997
0.0756885
0.0763227
0.0769019
0.0774253
0.0778924
0.0783039
0.0786603
0.078961
0.079206
0.0793961
0.0795323
0.0796151
0.0796449
0.0796219
0.0795468
0.0794203
0.0792439
0.0790207
0.0787537
0.0784443
0.0780921
0.0776975
0.0772628
0.0767922
0.0762903
0.0757609
0.0752071
0.0746315
0.0740365
0.0734251
0.0728013
0.072171
0.0715402
0.0709137
0.0702958
0.0696909
0.0691043
0.0685417
0.0680084
0.0675088
0.0670474
0.0666288
0.0662575
0.0659392
0.06568
0.0654848
0.0653596
0.0653082
0.00276257
0.00249839
0.00220875
0.00187897
0.00150975
0.0011089
0.000675595
0.000209272
-0.000288384
-0.000818182
-0.00137673
-0.00195865
-0.00255813
-0.00316642
-0.00377963
-0.004392
-0.00499891
-0.00559557
-0.00617824
-0.00674247
-0.00728526
-0.00780391
-0.00829553
-0.00875793
-0.0091884
-0.00958382
-0.00994205
-0.0102619
-0.0105407
-0.0107752
-0.0109649
-0.0111095
-0.0112081
-0.0112593
-0.0112628
-0.0112188
-0.0111272
-0.0109882
-0.0108016
-0.0105672
-0.0102843
-0.00995244
-0.00957162
-0.00914225
-0.00866408
-0.00813694
-0.00756131
-0.00693738
-0.00626553
-0.0055468
-0.00478243
-0.00397362
-0.00312073
-0.00222362
-0.00128268
-0.0002983
0.000729247
0.00179894
0.0029091
0.00405797
0.00524382
0.00646492
0.00771973
0.00900671
0.0103242
0.0116709
0.0130456
0.0144456
0.0158688
0.0173141
0.0187805
0.020266
0.0217687
0.0232865
0.0248181
0.0263627
0.027919
0.0294854
0.0310602
0.0326409
0.0342254
0.0358122
0.0373987
0.0389825
0.040562
0.0421359
0.0437022
0.0452586
0.0468022
0.0483301
0.0498398
0.051329
0.0527954
0.054237
0.0556528
0.0570415
0.0584011
0.0597295
0.0610249
0.0622852
0.0635086
0.0646944
0.0658419
0.0669492
0.0680145
0.069037
0.0700156
0.0709483
0.0718329
0.0726679
0.0734521
0.0741838
0.0748624
0.0754874
0.0760584
0.0765745
0.0770359
0.0774435
0.0777977
0.078098
0.078344
0.0785364
0.0786762
0.0787636
0.0787988
0.0787821
0.0787146
0.0785972
0.0784316
0.0782205
0.0779666
0.0776711
0.0773337
0.0769549
0.0765372
0.0760849
0.0756021
0.0750921
0.0745579
0.0740021
0.0734272
0.0728358
0.0722316
0.0716198
0.0710058
0.0703947
0.0697901
0.0691964
0.0686187
0.0680627
0.0675329
0.067032
0.0665632
0.0661308
0.0657407
0.0653982
0.0651088
0.0648764
0.0647005
0.0645795
0.00345735
0.00313112
0.00279633
0.00243323
0.00203715
0.0016131
0.00116238
0.000684694
0.000179257
-0.000351724
-0.000907305
-0.00148323
-0.00207328
-0.00267178
-0.00327226
-0.00387015
-0.0044615
-0.00504229
-0.00560828
-0.00615572
-0.00668151
-0.00718257
-0.00765686
-0.00810266
-0.00851804
-0.00889814
-0.00924218
-0.00954803
-0.00981285
-0.0100358
-0.010214
-0.0103483
-0.0104379
-0.0104816
-0.0104791
-0.0104303
-0.0103352
-0.0101936
-0.0100058
-0.0097714
-0.00948977
-0.00916046
-0.00878338
-0.00835855
-0.00788584
-0.00736512
-0.00679693
-0.00618166
-0.00551962
-0.00481212
-0.00406047
-0.00326523
-0.00242671
-0.00154511
-0.000620588
0.000346578
0.00135594
0.00240653
0.00349646
0.00462387
0.00578764
0.0069862
0.00821749
0.00948031
0.0107736
0.0120954
0.013444
0.0148176
0.0162144
0.0176333
0.0190727
0.0205308
0.0220053
0.0234943
0.0249967
0.0265119
0.0280384
0.0295743
0.0311179
0.0326676
0.0342213
0.0357769
0.0373319
0.0388839
0.0404316
0.0419737
0.0435081
0.0450327
0.0465448
0.0480414
0.0495202
0.0509789
0.0524154
0.0538281
0.0552159
0.0565776
0.0579107
0.0592133
0.0604837
0.0617202
0.062921
0.0640856
0.0652128
0.0663009
0.0673482
0.0683537
0.0693164
0.070234
0.0711042
0.0719261
0.0726983
0.0734195
0.0740884
0.0747047
0.075268
0.0757777
0.076234
0.0766378
0.0769897
0.0772891
0.0775356
0.0777295
0.0778714
0.0779618
0.078001
0.0779898
0.0779292
0.0778199
0.0776635
0.0774626
0.07722
0.0769365
0.076612
0.0762471
0.0758443
0.0754081
0.074942
0.074449
0.0739314
0.0733922
0.0728338
0.072259
0.0716708
0.0710733
0.0704719
0.0698712
0.0692753
0.0686881
0.0681146
0.06756
0.0670283
0.0665208
0.0660395
0.065589
0.0651756
0.0648048
0.0644804
0.0642055
0.0639738
0.0637784
0.00419124
0.00380385
0.00342312
0.003026
0.00260131
0.0021534
0.00168192
0.00118755
0.000671458
0.00013402
-0.000423249
-0.00099673
-0.00158145
-0.00217276
-0.00276428
-0.0033521
-0.00393186
-0.00449971
-0.00505222
-0.00558605
-0.00609783
-0.00658444
-0.00704432
-0.00747655
-0.00787848
-0.00824663
-0.0085782
-0.00887173
-0.0091249
-0.00933663
-0.00950556
-0.00963144
-0.00971355
-0.00975113
-0.00974363
-0.00969078
-0.00959259
-0.00944912
-0.00926047
-0.00902646
-0.00874612
-0.00841924
-0.00804585
-0.0076253
-0.00715756
-0.00664306
-0.00608202
-0.00547486
-0.00482235
-0.00412569
-0.00338601
-0.00260363
-0.00177868
-0.00091168
-2.71129e-06
0.000948376
0.00194068
0.00297284
0.0040436
0.0051513
0.00629428
0.00747127
0.0086808
0.00992143
0.0111918
0.0124902
0.0138149
0.0151639
0.016536
0.0179303
0.0193449
0.0207771
0.0222249
0.023687
0.0251625
0.0266502
0.0281484
0.0296554
0.0311702
0.0326911
0.0342157
0.0357417
0.0372667
0.0387887
0.0403065
0.0418186
0.0433231
0.0448178
0.0463002
0.0477675
0.0492172
0.0506474
0.0520561
0.0534418
0.0548036
0.0561399
0.0574483
0.0587268
0.0599741
0.0611885
0.0623686
0.0635135
0.0646222
0.0656926
0.0667232
0.0677132
0.068661
0.0695645
0.0704216
0.0712313
0.0719925
0.0727035
0.0733633
0.0739715
0.0745279
0.075032
0.0754837
0.075884
0.0762334
0.0765317
0.0767779
0.0769721
0.0771151
0.0772076
0.0772503
0.0772441
0.0771895
0.077087
0.0769382
0.0767458
0.0765125
0.0762393
0.075926
0.075573
0.0751833
0.0747608
0.074309
0.0738301
0.0733263
0.0728006
0.0722557
0.071694
0.071118
0.0705312
0.0699384
0.0693441
0.0687525
0.0681676
0.0675941
0.0670368
0.0664981
0.0659791
0.0654812
0.0650093
0.0645695
0.0641664
0.0638025
0.0634807
0.0631893
0.062916
0.00495949
0.00451178
0.00408446
0.00365228
0.00319681
0.00272284
0.00222901
0.00171571
0.00118414
0.000635519
7.30241e-05
-0.000501904
-0.00108549
-0.00167257
-0.00225887
-0.00283988
-0.00341113
-0.00396932
-0.00451106
-0.00503356
-0.00553402
-0.0060095
-0.00645782
-0.00687871
-0.00726937
-0.00762753
-0.00794884
-0.00823151
-0.00847518
-0.00867726
-0.00883836
-0.00895748
-0.0090337
-0.00906651
-0.009055
-0.00899879
-0.00889814
-0.00875344
-0.00856457
-0.0083311
-0.00805243
-0.00772805
-0.00735781
-0.00694122
-0.00647829
-0.00596967
-0.00541548
-0.00481607
-0.00417277
-0.00348655
-0.0027579
-0.00198748
-0.00117552
-0.000322042
0.000572673
0.00150843
0.00248461
0.0034997
0.00455222
0.0056411
0.00676499
0.0079221
0.00911099
0.0103308
0.0115801
0.0128566
0.0141586
0.0154848
0.0168344
0.0182058
0.0195967
0.0210044
0.0224275
0.0238648
0.025315
0.0267768
0.0282484
0.0297287
0.0312167
0.0327105
0.0342077
0.0357059
0.0372027
0.0386965
0.0401862
0.0416704
0.0431468
0.0446135
0.046068
0.0475078
0.0489306
0.0503343
0.0517171
0.0530777
0.0544152
0.0557278
0.0570132
0.0582694
0.0594953
0.0606895
0.0618505
0.0629773
0.0640687
0.0651229
0.0661382
0.0671135
0.0680477
0.0689383
0.0697832
0.0705815
0.071332
0.0720334
0.0726847
0.0732857
0.073836
0.0743349
0.0747825
0.0751796
0.0755269
0.0758235
0.0760687
0.0762626
0.0764062
0.0765007
0.0765468
0.0765448
0.076495
0.076398
0.0762553
0.0760698
0.0758442
0.0755795
0.0752754
0.0749329
0.0745544
0.0741436
0.0737033
0.0732357
0.072743
0.0722281
0.0716936
0.0711416
0.0705744
0.0699949
0.0694072
0.0688156
0.0682244
0.0676381
0.0670612
0.0664972
0.0659475
0.0654126
0.0648949
0.0643988
0.0639296
0.0634904
0.0630835
0.0627117
0.0623577
0.0620042
0.0057581
0.00524968
0.00477539
0.00430711
0.00381949
0.00331694
0.00279828
0.00226378
0.00171405
0.00115195
0.000578861
-1.71978e-06
-0.000587149
-0.00117393
-0.001758
-0.00233491
-0.00290091
-0.00345251
-0.00398612
-0.00449967
-0.00499132
-0.00545828
-0.00589797
-0.00630924
-0.00669121
-0.00703996
-0.00735275
-0.00762707
-0.00786225
-0.00805714
-0.00821181
-0.00832543
-0.00839727
-0.00842629
-0.00841167
-0.00835314
-0.00825082
-0.00810536
-0.00791671
-0.00768414
-0.00740731
-0.00708548
-0.00671811
-0.00630529
-0.00584711
-0.00534391
-0.0047962
-0.00420444
-0.00356982
-0.00289335
-0.00217513
-0.00141563
-0.000615713
0.00022486
0.00110649
0.00202835
0.00298904
0.00398775
0.00502361
0.00609506
0.00720053
0.00833892
0.00950915
0.0107098
0.0119389
0.0131946
0.0144756
0.015781
0.0171094
0.018459
0.0198274
0.0212123
0.0226125
0.0240267
0.0254533
0.0268907
0.0283377
0.0297932
0.0312564
0.0327252
0.0341967
0.0356687
0.0371392
0.0386068
0.0400705
0.0415286
0.0429788
0.0444194
0.0458481
0.0472624
0.04866
0.0500392
0.0513981
0.0527356
0.0540505
0.055341
0.056605
0.0578407
0.0590472
0.0602229
0.0613663
0.0624764
0.0635519
0.0645909
0.0655919
0.0665539
0.0674756
0.0683544
0.069188
0.0699753
0.0707156
0.071408
0.0720517
0.0726461
0.0731908
0.0736851
0.0741291
0.0745236
0.0748687
0.0751635
0.0754073
0.0756008
0.0757454
0.0758421
0.0758912
0.0758925
0.0758463
0.0757534
0.0756157
0.0754358
0.0752164
0.0749585
0.0746624
0.0743287
0.0739597
0.0735583
0.073127
0.072668
0.0721836
0.0716766
0.0711495
0.0706043
0.0700427
0.0694672
0.0688811
0.0682888
0.0676946
0.0671035
0.0665196
0.0659452
0.0653809
0.0648272
0.0642869
0.0637639
0.0632621
0.0627839
0.0623313
0.0619075
0.0614894
0.0610542
0.00658076
0.00601321
0.00549166
0.00498541
0.00446406
0.00393025
0.00338537
0.00282708
0.00225744
0.0016783
0.00109226
0.000502636
-8.874e-05
-0.000678649
-0.00126315
-0.00183868
-0.00240216
-0.00294984
-0.00347849
-0.00398609
-0.00447145
-0.00493216
-0.00536564
-0.00576975
-0.00614431
-0.00648534
-0.00679048
-0.00705826
-0.00728654
-0.00747612
-0.00762589
-0.00773522
-0.00780366
-0.00782983
-0.00781285
-0.00775277
-0.0076498
-0.00750419
-0.00731596
-0.00708459
-0.00680955
-0.00649006
-0.0061255
-0.00571632
-0.00526282
-0.00476478
-0.00422305
-0.00363884
-0.00301253
-0.00234461
-0.00163602
-0.000887258
-9.82428e-05
0.000730984
0.00160005
0.00250832
0.00345487
0.00443868
0.00545864
0.00651342
0.00760192
0.00872314
0.00987578
0.0110582
0.0122684
0.0135048
0.0147664
0.0160523
0.0173608
0.0186898
0.020037
0.0214006
0.0227796
0.0241723
0.0255768
0.0269916
0.0284158
0.0298488
0.0312892
0.0327344
0.0341817
0.0356294
0.0370757
0.0385193
0.0399588
0.0413925
0.0428184
0.0442349
0.0456398
0.0470306
0.0484051
0.0497617
0.0510987
0.0524148
0.0537089
0.0549792
0.0562236
0.0574408
0.0586295
0.0597884
0.0609158
0.0620104
0.0630711
0.064096
0.0650839
0.066034
0.0669444
0.0678122
0.0686349
0.0694117
0.0701425
0.0708267
0.0714633
0.0720516
0.0725911
0.0730812
0.0735221
0.0739143
0.0742574
0.0745504
0.0747932
0.0749869
0.0751331
0.0752322
0.0752837
0.0752874
0.0752437
0.0751542
0.0750206
0.0748455
0.0746311
0.0743787
0.0740889
0.0737624
0.0734011
0.073007
0.0725822
0.0721289
0.0716497
0.0711476
0.0706252
0.0700839
0.0695246
0.0689494
0.0683614
0.0677652
0.0671655
0.0665667
0.065972
0.0653831
0.0648007
0.0642258
0.0636606
0.0631083
0.0625715
0.0620521
0.0615524
0.0610755
0.0605926
0.0600755
0.00742409
0.00679713
0.00622915
0.00568448
0.00512662
0.00455981
0.00398514
0.00340139
0.00280987
0.00221165
0.00161009
0.00100772
0.000407194
-0.000188621
-0.000776553
-0.00135332
-0.00191654
-0.00246319
-0.00298996
-0.0034946
-0.00397634
-0.00443326
-0.00486216
-0.00526179
-0.00562992
-0.0059652
-0.00626438
-0.00652638
-0.00675
-0.00693523
-0.00708133
-0.00718785
-0.0072535
-0.00727735
-0.00725882
-0.00719784
-0.00709469
-0.00694937
-0.00676184
-0.00653183
-0.00625824
-0.00594064
-0.00557903
-0.00517332
-0.00472383
-0.00423102
-0.00369536
-0.00311773
-0.00249898
-0.00183952
-0.00113977
-0.00040042
0.000378366
0.00119672
0.00205422
0.00294995
0.00388305
0.00485277
0.00585803
0.00689745
0.00797013
0.00907534
0.0102116
0.0113769
0.0125694
0.0137878
0.0150316
0.0162993
0.0175889
0.0188983
0.0202258
0.02157
0.0229294
0.0243018
0.0256856
0.0270796
0.0284833
0.0298955
0.0313144
0.0327375
0.0341624
0.0355877
0.0370119
0.0384333
0.0398504
0.0412616
0.0426651
0.0440593
0.0454423
0.0468117
0.0481653
0.0495013
0.0508182
0.0521148
0.05339
0.054642
0.0558689
0.0570691
0.0582419
0.0593857
0.0604985
0.0615787
0.0626254
0.0636375
0.0646138
0.0655531
0.0664529
0.0673101
0.0681226
0.0688898
0.0696118
0.0702881
0.0709178
0.0715002
0.0720347
0.0725211
0.0729593
0.0733492
0.0736905
0.0739824
0.0742251
0.0744199
0.074568
0.0746693
0.0747227
0.0747281
0.0746866
0.0746
0.0744701
0.0742991
0.0740887
0.0738406
0.0735555
0.0732344
0.0728786
0.0724896
0.0720688
0.0716183
0.0711413
0.0706414
0.0701209
0.0695806
0.0690204
0.0684418
0.0678486
0.0672459
0.0666382
0.0660287
0.0654196
0.0648124
0.0642086
0.0636098
0.0630178
0.0624342
0.0618609
0.0612992
0.0607515
0.0602211
0.0596739
0.059076
0.00828433
0.00759872
0.00698357
0.00640059
0.00580555
0.0052028
0.00459579
0.00398432
0.00336759
0.00274824
0.00212857
0.00151112
0.000898846
0.000293959
-0.000300472
-0.000881287
-0.0014466
-0.00199482
-0.00252261
-0.00302715
-0.00350755
-0.00396261
-0.00438916
-0.00478568
-0.00514968
-0.00548045
-0.00577576
-0.00603341
-0.006254
-0.00643603
-0.00657942
-0.00668384
-0.00674754
-0.00676973
-0.00675015
-0.0066886
-0.00658547
-0.00644066
-0.00625379
-0.00602481
-0.00575276
-0.00543678
-0.00507751
-0.00467536
-0.00422985
-0.0037415
-0.00321161
-0.00264055
-0.00202856
-0.00137656
-0.000685278
4.51175e-05
0.000814657
0.00162297
0.00246943
0.00335341
0.00427417
0.00523079
0.00622223
0.00724748
0.00830582
0.00939622
0.0105169
0.011666
0.0128422
0.0140444
0.0152716
0.0165222
0.0177939
0.0190852
0.0203947
0.0217209
0.0230619
0.0244155
0.0257803
0.0271554
0.0285401
0.0299329
0.0313318
0.0327343
0.0341386
0.0355436
0.0369475
0.0383486
0.039745
0.0411353
0.0425181
0.0438921
0.0452555
0.0466055
0.0479399
0.0492572
0.0505561
0.0518353
0.0530936
0.0543291
0.0555401
0.0567254
0.0578841
0.0590142
0.0601133
0.0611802
0.0622142
0.0632148
0.0641808
0.06511
0.0659997
0.0668468
0.0676498
0.0684082
0.0691221
0.0697907
0.0704133
0.0709898
0.0715199
0.0720029
0.0724385
0.0728263
0.0731661
0.0734575
0.073701
0.0738976
0.0740475
0.0741503
0.0742051
0.0742121
0.0741729
0.0740891
0.0739625
0.0737945
0.0735871
0.073342
0.0730603
0.072743
0.0723907
0.0720043
0.0715849
0.071135
0.070658
0.0701578
0.0696367
0.0690944
0.06853
0.067945
0.067344
0.0667326
0.0661142
0.0654908
0.0648639
0.0642354
0.0636077
0.0629826
0.0623615
0.0617452
0.0611344
0.0605296
0.0599336
0.0593501
0.0587398
0.0580633
0.00915821
0.00841364
0.00775066
0.00712876
0.00649598
0.00585641
0.005215
0.00457185
0.00392844
0.00328518
0.00264457
0.00201006
0.00138362
0.000767094
0.000163675
-0.000424008
-0.00099459
-0.0015469
-0.00207811
-0.00258512
-0.00306663
-0.00352133
-0.0039475
-0.00434193
-0.00470433
-0.00503234
-0.00532511
-0.00558076
-0.00579915
-0.00597935
-0.0061212
-0.00622386
-0.00628605
-0.00630715
-0.00628716
-0.00622549
-0.00612203
-0.00597759
-0.00579177
-0.00556326
-0.00529195
-0.00497803
-0.00462125
-0.00422177
-0.00378
-0.00329643
-0.00277174
-0.00220636
-0.00160074
-0.000955773
-0.000272151
0.000450011
0.00121076
0.00200964
0.0028459
0.00371902
0.00462837