/*--------------------------------*- C++ -*----------------------------------*\
  =========                 |
  \\      /  F ield         | OpenFOAM: The Open Source CFD Toolbox
   \\    /   O peration     | Website:  https://openfoam.org
    \\  /    A nd           | Version:  7
     \\/     M anipulation  |
\*---------------------------------------------------------------------------*/
FoamFile
{
    version     2.0;
    format      ascii;
    class       surfaceScalarField;
    location    "0.05";
    object      phi;
}
// * * * * * * * * * * * * * * * * * * * * * * * * * * * * * * * * * * * * * //

dimensions      [0 3 -1 0 0 0 0];

internalField   nonuniform List<scalar> 
50880
(
6.76224e-12
-6.73298e-12
3.67931e-11
-3.00274e-11
8.2306e-11
-4.55185e-11
1.34085e-10
-5.17735e-11
1.85192e-10
-5.11077e-11
2.30604e-10
-4.54115e-11
2.66584e-10
-3.59792e-11
2.90528e-10
-2.39489e-11
3.00614e-10
-1.00881e-11
2.95507e-10
5.10721e-12
2.74146e-10
2.13614e-11
2.36025e-10
3.81204e-11
1.80871e-10
5.51535e-11
1.08748e-10
7.21253e-11
1.98192e-11
8.89246e-11
-8.53944e-11
1.05216e-10
-2.06286e-10
1.2089e-10
-3.42084e-10
1.35802e-10
-4.91998e-10
1.49909e-10
-6.55132e-10
1.63134e-10
-8.30477e-10
1.75342e-10
-1.01715e-09
1.86666e-10
-1.21424e-09
1.971e-10
-1.42096e-09
2.06722e-10
-1.63642e-09
2.15461e-10
-1.85983e-09
2.23409e-10
-2.09039e-09
2.30557e-10
-2.32738e-09
2.36989e-10
-2.57014e-09
2.42754e-10
-2.81793e-09
2.47796e-10
-3.07016e-09
2.52233e-10
-3.32606e-09
2.55901e-10
-3.58514e-09
2.59072e-10
-3.84677e-09
2.61629e-10
-4.11037e-09
2.636e-10
-4.3754e-09
2.65027e-10
-4.64147e-09
2.66071e-10
-4.90822e-09
2.66747e-10
-5.17532e-09
2.67102e-10
-5.4425e-09
2.67185e-10
-5.70942e-09
2.66915e-10
-5.97568e-09
2.66258e-10
-6.24089e-09
2.65216e-10
-6.50461e-09
2.63717e-10
-6.76637e-09
2.61768e-10
-7.02583e-09
2.59455e-10
-7.28264e-09
2.56811e-10
-7.53648e-09
2.5384e-10
-7.78708e-09
2.50604e-10
-8.03423e-09
2.47156e-10
-8.27768e-09
2.43446e-10
-8.51712e-09
2.39436e-10
-8.75223e-09
2.35111e-10
-8.98266e-09
2.30433e-10
-9.20804e-09
2.25373e-10
-9.42795e-09
2.19915e-10
-9.64202e-09
2.14075e-10
-9.8499e-09
2.07884e-10
-1.00512e-08
2.01345e-10
-1.02457e-08
1.94453e-10
-1.04329e-08
1.87214e-10
-1.06125e-08
1.79635e-10
-1.07843e-08
1.71716e-10
-1.09477e-08
1.63478e-10
-1.11027e-08
1.54965e-10
-1.12489e-08
1.46208e-10
-1.13861e-08
1.37222e-10
-1.15142e-08
1.28034e-10
-1.16329e-08
1.1869e-10
-1.17421e-08
1.09232e-10
-1.18418e-08
9.96799e-11
-1.19318e-08
9.00399e-11
-1.20121e-08
8.03238e-11
-1.20827e-08
7.05571e-11
-1.21434e-08
6.07331e-11
-1.21943e-08
5.08329e-11
-1.22351e-08
4.08645e-11
-1.22659e-08
3.08217e-11
-1.22866e-08
2.06923e-11
-1.22971e-08
1.04958e-11
-1.22974e-08
2.24803e-13
-1.22872e-08
-1.01464e-11
-1.22666e-08
-2.05993e-11
-1.22355e-08
-3.1104e-11
-1.21938e-08
-4.16708e-11
-1.21415e-08
-5.2292e-11
-1.20786e-08
-6.29393e-11
-1.2005e-08
-7.3605e-11
-1.19207e-08
-8.42576e-11
-1.18259e-08
-9.48304e-11
-1.17206e-08
-1.05288e-10
-1.1605e-08
-1.15602e-10
-1.14793e-08
-1.25695e-10
-1.13438e-08
-1.35521e-10
-1.11987e-08
-1.45104e-10
-1.10443e-08
-1.54441e-10
-1.08808e-08
-1.6348e-10
-1.07086e-08
-1.72195e-10
-1.0528e-08
-1.80586e-10
-1.03394e-08
-1.88608e-10
-1.01431e-08
-1.96239e-10
-9.93961e-09
-2.03537e-10
-9.72905e-09
-2.1056e-10
-9.51175e-09
-2.17293e-10
-9.28802e-09
-2.23735e-10
-9.05806e-09
-2.29951e-10
-8.82209e-09
-2.35976e-10
-8.58032e-09
-2.41768e-10
-8.33303e-09
-2.47286e-10
-8.08051e-09
-2.52523e-10
-7.82307e-09
-2.5744e-10
-7.56111e-09
-2.61955e-10
-7.2951e-09
-2.66012e-10
-7.02549e-09
-2.69604e-10
-6.75279e-09
-2.72707e-10
-6.47754e-09
-2.75247e-10
-6.20037e-09
-2.77175e-10
-5.92187e-09
-2.78495e-10
-5.64265e-09
-2.79218e-10
-5.36332e-09
-2.79328e-10
-5.0845e-09
-2.7882e-10
-4.80678e-09
-2.77727e-10
-4.5307e-09
-2.76083e-10
-4.25681e-09
-2.73887e-10
-3.98568e-09
-2.71132e-10
-3.71785e-09
-2.67825e-10
-3.45388e-09
-2.63974e-10
-3.19431e-09
-2.59569e-10
-2.9397e-09
-2.54605e-10
-2.69059e-09
-2.49113e-10
-2.44746e-09
-2.43129e-10
-2.21081e-09
-2.36647e-10
-1.9812e-09
-2.2961e-10
-1.75924e-09
-2.21957e-10
-1.54558e-09
-2.13666e-10
-1.34084e-09
-2.04737e-10
-1.14568e-09
-1.95159e-10
-9.60755e-10
-1.84925e-10
-7.86709e-10
-1.74046e-10
-6.24164e-10
-1.62544e-10
-4.73729e-10
-1.50434e-10
-3.36011e-10
-1.37717e-10
-2.11616e-10
-1.24394e-10
-1.01098e-10
-1.10519e-10
-4.9104e-12
-9.61889e-11
7.66022e-11
-8.15144e-11
1.4322e-10
-6.66175e-11
1.94844e-10
-5.16237e-11
2.31494e-10
-3.66502e-11
2.53335e-10
-2.18418e-11
2.60725e-10
-7.38972e-12
2.54297e-10
6.42954e-12
2.35103e-10
1.91949e-11
2.04731e-10
3.037e-11
1.65437e-10
3.92932e-11
1.20399e-10
4.50381e-11
7.40848e-11
4.63139e-11
3.26971e-11
4.1387e-11
5.18797e-12
2.75096e-11
5.18739e-12
2.60671e-11
-3.27998e-11
8.98441e-11
-9.37994e-11
1.77745e-10
-1.33423e-10
2.74007e-10
-1.48038e-10
3.64483e-10
-1.41587e-10
4.383e-10
-1.1923e-10
4.87252e-10
-8.49269e-11
5.05084e-10
-4.17813e-11
4.87204e-10
7.79396e-12
4.30353e-10
6.19539e-11
3.32589e-10
1.19126e-10
1.92427e-10
1.78279e-10
9.3406e-12
2.38239e-10
-2.16765e-10
2.98233e-10
-4.85292e-10
3.57451e-10
-7.95464e-10
4.15381e-10
-1.14605e-09
4.71477e-10
-1.5356e-09
5.25351e-10
-1.96242e-09
5.76727e-10
-2.42462e-09
6.25332e-10
-2.92043e-09
6.71156e-10
-3.44778e-09
7.14016e-10
-4.00475e-09
7.5407e-10
-4.58928e-09
7.91241e-10
-5.19942e-09
8.25591e-10
-5.83318e-09
8.57171e-10
-6.48867e-09
8.86053e-10
-7.16398e-09
9.12304e-10
-7.85725e-09
9.36021e-10
-8.5667e-09
9.57248e-10
-9.29053e-09
9.76058e-10
-1.0027e-08
9.92416e-10
-1.07745e-08
1.00654e-09
-1.15313e-08
1.01839e-09
-1.22958e-08
1.02812e-09
-1.30666e-08
1.03582e-09
-1.38421e-08
1.04161e-09
-1.46211e-08
1.0457e-09
-1.54022e-08
1.04824e-09
-1.61842e-08
1.04921e-09
-1.69659e-08
1.04859e-09
-1.7746e-08
1.04635e-09
-1.85232e-08
1.04243e-09
-1.92962e-08
1.03675e-09
-2.00638e-08
1.02938e-09
-2.08249e-08
1.02047e-09
-2.15781e-08
1.01007e-09
-2.23226e-08
9.98296e-10
-2.30572e-08
9.85258e-10
-2.37811e-08
9.71013e-10
-2.44932e-08
9.55522e-10
-2.51925e-08
9.38744e-10
-2.5878e-08
9.20661e-10
-2.65488e-08
9.01199e-10
-2.72037e-08
8.8032e-10
-2.78419e-08
8.58041e-10
-2.84622e-08
8.34402e-10
-2.90638e-08
8.0945e-10
-2.96457e-08
7.83232e-10
-3.0207e-08
7.55774e-10
-3.07469e-08
7.27099e-10
-3.12645e-08
6.97234e-10
-3.1759e-08
6.66211e-10
-3.22296e-08
6.34101e-10
-3.26756e-08
6.01e-10
-3.30964e-08
5.6699e-10
-3.34913e-08
5.32141e-10
-3.38598e-08
4.96542e-10
-3.42014e-08
4.60298e-10
-3.45157e-08
4.23502e-10
-3.48022e-08
3.8623e-10
-3.50607e-08
3.48537e-10
-3.52909e-08
3.10459e-10
-3.54924e-08
2.72048e-10
-3.5665e-08
2.33333e-10
-3.58084e-08
1.94307e-10
-3.59226e-08
1.54983e-10
-3.60071e-08
1.15397e-10
-3.6062e-08
7.55536e-11
-3.6087e-08
3.5463e-11
-3.60819e-08
-4.84955e-12
-3.60467e-08
-4.53675e-11
-3.59812e-08
-8.6054e-11
-3.58855e-08
-1.26844e-10
-3.57594e-08
-1.67701e-10
-3.56031e-08
-2.08603e-10
-3.54166e-08
-2.49473e-10
-3.52e-08
-2.90219e-10
-3.49535e-08
-3.30764e-10
-3.46773e-08
-3.70994e-10
-3.43718e-08
-4.10768e-10
-3.40375e-08
-4.49974e-10
-3.36747e-08
-4.88506e-10
-3.32839e-08
-5.26248e-10
-3.28659e-08
-5.6312e-10
-3.24213e-08
-5.99087e-10
-3.19507e-08
-6.34085e-10
-3.14549e-08
-6.68009e-10
-3.09347e-08
-7.00779e-10
-3.03909e-08
-7.32363e-10
-2.98244e-08
-7.62739e-10
-2.9236e-08
-7.91905e-10
-2.86267e-08
-8.19895e-10
-2.79972e-08
-8.46748e-10
-2.73485e-08
-8.72479e-10
-2.66814e-08
-8.97091e-10
-2.59967e-08
-9.20593e-10
-2.52955e-08
-9.42967e-10
-2.45787e-08
-9.64131e-10
-2.38472e-08
-9.83963e-10
-2.31023e-08
-1.00234e-09
-2.23451e-08
-1.01915e-09
-2.15769e-08
-1.03428e-09
-2.07989e-08
-1.04761e-09
-2.00126e-08
-1.05902e-09
-1.92194e-08
-1.06843e-09
-1.84208e-08
-1.07575e-09
-1.76184e-08
-1.08092e-09
-1.68137e-08
-1.08387e-09
-1.60084e-08
-1.08461e-09
-1.52041e-08
-1.08315e-09
-1.44023e-08
-1.0795e-09
-1.36048e-08
-1.07366e-09
-1.2813e-08
-1.06564e-09
-1.20287e-08
-1.05545e-09
-1.12534e-08
-1.0431e-09
-1.04888e-08
-1.02856e-09
-9.73659e-09
-1.01182e-09
-8.99829e-09
-9.92904e-10
-8.27555e-09
-9.7185e-10
-7.57e-09
-9.48678e-10
-6.8833e-09
-9.23351e-10
-6.21711e-09
-8.95798e-10
-5.57312e-09
-8.65948e-10
-4.95303e-09
-8.33757e-10
-4.35857e-09
-7.99199e-10
-3.79146e-09
-7.62266e-10
-3.2534e-09
-7.22981e-10
-2.74605e-09
-6.81401e-10
-2.271e-09
-6.37589e-10
-1.82982e-09
-5.91609e-10
-1.424e-09
-5.43535e-10
-1.05492e-09
-4.9348e-10
-7.23802e-10
-4.41635e-10
-4.317e-10
-3.88291e-10
-1.79425e-10
-3.3379e-10
3.24938e-11
-2.78534e-10
2.03849e-10
-2.22977e-10
3.34805e-10
-1.67605e-10
4.25972e-10
-1.13009e-10
4.78557e-10
-5.99744e-11
4.94534e-10
-9.54771e-12
4.76853e-10
3.68745e-11
4.29676e-10
7.75452e-11
3.58668e-10
1.10302e-10
2.71418e-10
1.32287e-10
1.78021e-10
1.39709e-10
9.1434e-11
1.27973e-10
2.68477e-11
9.20948e-11
3.20355e-11
3.44084e-11
-6.72143e-11
1.11298e-10
-1.70692e-10
2.11843e-10
-2.33967e-10
3.15924e-10
-2.52115e-10
4.06069e-10
-2.31729e-10
4.68176e-10
-1.81336e-10
4.90976e-10
-1.07728e-10
4.66145e-10
-1.69519e-11
3.87538e-10
8.6401e-11
2.50747e-10
1.98746e-10
5.26639e-11
3.1721e-10
-2.08408e-10
4.39351e-10
-5.33297e-10
5.63127e-10
-9.22178e-10
6.87116e-10
-1.37451e-09
8.09785e-10
-1.8892e-09
9.30072e-10
-2.46479e-09
1.04706e-09
-3.09943e-09
1.15998e-09
-3.79111e-09
1.2684e-09
-4.5375e-09
1.37173e-09
-5.33611e-09
1.46977e-09
-6.18436e-09
1.56226e-09
-7.07956e-09
1.64927e-09
-8.01891e-09
1.73059e-09
-8.99966e-09
1.80634e-09
-1.00189e-08
1.87646e-09
-1.1074e-08
1.94106e-09
-1.21619e-08
2.00022e-09
-1.32799e-08
2.05402e-09
-1.44252e-08
2.10263e-09
-1.55951e-08
2.14594e-09
-1.6787e-08
2.18429e-09
-1.7998e-08
2.21756e-09
-1.92257e-08
2.2461e-09
-2.04675e-08
2.26988e-09
-2.17208e-08
2.28912e-09
-2.29833e-08
2.3041e-09
-2.42525e-08
2.31495e-09
-2.55262e-08
2.32186e-09
-2.68019e-08
2.32491e-09
-2.80774e-08
2.32414e-09
-2.93506e-08
2.31954e-09
-3.06193e-08
2.31109e-09
-3.18813e-08
2.29883e-09
-3.31348e-08
2.28283e-09
-3.43776e-08
2.26325e-09
-3.56077e-08
2.24025e-09
-3.68234e-08
2.21398e-09
-3.80228e-08
2.1846e-09
-3.92039e-08
2.15218e-09
-4.03652e-08
2.11677e-09
-4.15048e-08
2.07836e-09
-4.26211e-08
2.03694e-09
-4.37124e-08
1.99251e-09
-4.47771e-08
1.94507e-09
-4.58138e-08
1.89467e-09
-4.68208e-08
1.8414e-09
-4.77966e-08
1.78533e-09
-4.874e-08
1.72658e-09
-4.96494e-08
1.66522e-09
-5.05236e-08
1.60132e-09
-5.13614e-08
1.53497e-09
-5.21615e-08
1.46628e-09
-5.29227e-08
1.39535e-09
-5.36441e-08
1.32235e-09
-5.43245e-08
1.24743e-09
-5.49631e-08
1.17072e-09
-5.55589e-08
1.09238e-09
-5.61112e-08
1.01258e-09
-5.66192e-08
9.31472e-10
-5.70821e-08
8.49185e-10
-5.74994e-08
7.65838e-10
-5.78705e-08
6.81546e-10
-5.81949e-08
5.96407e-10
-5.8472e-08
5.10486e-10
-5.87015e-08
4.2384e-10
-5.88831e-08
3.36548e-10
-5.90164e-08
2.48678e-10
-5.91011e-08
1.60291e-10
-5.91371e-08
7.14581e-11
-5.91242e-08
-1.77463e-11
-5.90623e-08
-1.07245e-10
-5.89515e-08
-1.96941e-10
-5.87916e-08
-2.86725e-10
-5.85828e-08
-3.76489e-10
-5.83253e-08
-4.66119e-10
-5.80192e-08
-5.55492e-10
-5.7665e-08
-6.4445e-10
-5.7263e-08
-7.32806e-10
-5.68136e-08
-8.20374e-10
-5.63174e-08
-9.06972e-10
-5.5775e-08
-9.92387e-10
-5.51871e-08
-1.0764e-09
-5.45545e-08
-1.15885e-09
-5.3878e-08
-1.23961e-09
-5.31585e-08
-1.31852e-09
-5.23972e-08
-1.39541e-09
-5.15951e-08
-1.47017e-09
-5.07532e-08
-1.54265e-09
-4.98728e-08
-1.61273e-09
-4.89552e-08
-1.68032e-09
-4.80017e-08
-1.74541e-09
-4.70136e-08
-1.80797e-09
-4.59925e-08
-1.86793e-09
-4.49397e-08
-1.92526e-09
-4.38568e-08
-1.97996e-09
-4.27454e-08
-2.03195e-09
-4.16073e-08
-2.08112e-09
-4.04441e-08
-2.12732e-09
-3.92577e-08
-2.1704e-09
-3.80498e-08
-2.21017e-09
-3.68226e-08
-2.2464e-09
-3.5578e-08
-2.27889e-09
-3.43181e-08
-2.30748e-09
-3.30451e-08
-2.332e-09
-3.17613e-08
-2.35227e-09
-3.04689e-08
-2.36814e-09
-2.91703e-08
-2.37948e-09
-2.7868e-08
-2.38623e-09
-2.65643e-08
-2.38831e-09
-2.52618e-08
-2.38566e-09
-2.3963e-08
-2.37827e-09
-2.26706e-08
-2.36612e-09
-2.1387e-08
-2.34921e-09
-2.01149e-08
-2.3275e-09
-1.88571e-08
-2.30096e-09
-1.76161e-08
-2.26957e-09
-1.63946e-08
-2.23333e-09
-1.51952e-08
-2.19222e-09
-1.40208e-08
-2.14627e-09
-1.2874e-08
-2.09547e-09
-1.17576e-08
-2.0398e-09
-1.06742e-08
-1.97921e-09
-9.62649e-09
-1.91362e-09
-8.61723e-09
-1.84301e-09
-7.64906e-09
-1.76737e-09
-6.72458e-09
-1.68674e-09
-5.84636e-09
-1.6012e-09
-5.01689e-09
-1.51087e-09
-4.23858e-09
-1.41589e-09
-3.51373e-09
-1.31646e-09
-2.84446e-09
-1.21281e-09
-2.23271e-09
-1.10524e-09
-1.68018e-09
-9.94167e-10
-1.18832e-09
-8.8015e-10
-7.58241e-10
-7.63865e-10
-3.9066e-10
-6.46114e-10
-8.58021e-11
-5.27835e-10
1.56704e-10
-4.1011e-10
3.37956e-10
-2.9426e-10
4.59949e-10
-1.81966e-10
5.25776e-10
-7.53747e-11
5.39871e-10
2.27772e-11
5.08325e-10
1.09091e-10
4.39239e-10
1.79387e-10
3.43086e-10
2.28439e-10
2.33112e-10
2.49685e-10
1.25742e-10
2.35341e-10
4.02561e-11
1.77583e-10
7.2291e-11
3.45745e-11
-1.01784e-10
1.10318e-10
-2.46435e-10
2.05608e-10
-3.29252e-10
2.96814e-10
-3.43327e-10
3.64151e-10
-2.99069e-10
3.91264e-10
-2.08443e-10
3.65765e-10
-8.22374e-11
2.77704e-10
7.11126e-11
1.19524e-10
2.44576e-10
-1.14018e-10
4.32291e-10
-4.26573e-10
6.29765e-10
-8.20465e-10
8.3324e-10
-1.29693e-09
1.03959e-09
-1.85607e-09
1.24625e-09
-2.49741e-09
1.45113e-09
-3.21981e-09
1.65247e-09
-4.02161e-09
1.84887e-09
-4.90078e-09
2.03915e-09
-5.85473e-09
2.22235e-09
-6.88089e-09
2.39789e-09
-7.97618e-09
2.56506e-09
-9.13759e-09
2.72367e-09
-1.03616e-08
2.87331e-09
-1.1645e-08
3.01396e-09
-1.29841e-08
3.14543e-09
-1.43753e-08
3.2677e-09
-1.58152e-08
3.38089e-09
-1.72999e-08
3.48494e-09
-1.88259e-08
3.57998e-09
-2.03894e-08
3.66618e-09
-2.1987e-08
3.74349e-09
-2.36149e-08
3.8122e-09
-2.52696e-08
3.87232e-09
-2.69477e-08
3.92415e-09
-2.86456e-08
3.96781e-09
-3.036e-08
4.0035e-09
-3.20874e-08
4.03151e-09
-3.38245e-08
4.05208e-09
-3.55681e-08
4.06541e-09
-3.73148e-08
4.07165e-09
-3.90616e-08
4.07091e-09
-4.08053e-08
4.06327e-09
-4.2543e-08
4.04878e-09
-4.42718e-08
4.02757e-09
-4.59888e-08
3.9998e-09
-4.76912e-08
3.96567e-09
-4.93763e-08
3.92538e-09
-5.10415e-08
3.87916e-09
-5.26841e-08
3.8272e-09
-5.43016e-08
3.76964e-09
-5.58914e-08
3.7066e-09
-5.74512e-08
3.63816e-09
-5.89786e-08
3.56439e-09
-6.04715e-08
3.48536e-09
-6.19276e-08
3.40115e-09
-6.33448e-08
3.31189e-09
-6.47211e-08
3.21771e-09
-6.60546e-08
3.11877e-09
-6.73432e-08
3.01523e-09
-6.85853e-08
2.90726e-09
-6.97789e-08
2.79501e-09
-7.09226e-08
2.67863e-09
-7.20146e-08
2.55831e-09
-7.30536e-08
2.43427e-09
-7.40379e-08
2.30671e-09
-7.49664e-08
2.17587e-09
-7.58376e-08
2.04196e-09
-7.66505e-08
1.90522e-09
-7.74038e-08
1.7659e-09
-7.80965e-08
1.62421e-09
-7.87277e-08
1.48037e-09
-7.92964e-08
1.33458e-09
-7.98019e-08
1.18702e-09
-8.02434e-08
1.03787e-09
-8.06202e-08
8.87283e-10
-8.09317e-08
7.3541e-10
-8.11776e-08
5.8239e-10
-8.13573e-08
4.28385e-10
-8.14705e-08
2.73545e-10
-8.15171e-08
1.18009e-10
-8.14968e-08
-3.80711e-11
-8.14095e-08
-1.9452e-10
-8.12553e-08
-3.51145e-10
-8.10343e-08
-5.07756e-10
-8.07466e-08
-6.64173e-10
-8.03925e-08
-8.20185e-10
-7.99724e-08
-9.75548e-10
-7.94869e-08
-1.13002e-09
-7.89363e-08
-1.28336e-09
-7.83214e-08
-1.43526e-09
-7.7643e-08
-1.58542e-09
-7.69018e-08
-1.73357e-09
-7.60988e-08
-1.87942e-09
-7.5235e-08
-2.02268e-09
-7.43115e-08
-2.1631e-09
-7.33295e-08
-2.30046e-09
-7.22904e-08
-2.43452e-09
-7.11956e-08
-2.56501e-09
-7.00465e-08
-2.69171e-09
-6.88448e-08
-2.81445e-09
-6.75921e-08
-2.93306e-09
-6.62901e-08
-3.04736e-09
-6.49409e-08
-3.15723e-09
-6.35462e-08
-3.26257e-09
-6.21082e-08
-3.36324e-09
-6.06291e-08
-3.45909e-09
-5.91111e-08
-3.54995e-09
-5.75566e-08
-3.63564e-09
-5.5968e-08
-3.71595e-09
-5.43478e-08
-3.7906e-09
-5.26986e-08
-3.8593e-09
-5.10232e-08
-3.92179e-09
-4.93243e-08
-3.9778e-09
-4.76048e-08
-4.02705e-09
-4.58675e-08
-4.06928e-09
-4.41155e-08
-4.10425e-09
-4.23519e-08
-4.13176e-09
-4.05798e-08
-4.15161e-09
-3.88024e-08
-4.16362e-09
-3.7023e-08
-4.16767e-09
-3.5245e-08
-4.16366e-09
-3.34718e-08
-4.15149e-09
-3.17068e-08
-4.1311e-09
-2.99536e-08
-4.10241e-09
-2.82157e-08
-4.06537e-09
-2.64968e-08
-4.01991e-09
-2.48004e-08
-3.96598e-09
-2.31301e-08
-3.90356e-09
-2.14898e-08
-3.83261e-09
-1.98829e-08
-3.75314e-09
-1.83132e-08
-3.66514e-09
-1.67844e-08
-3.56858e-09
-1.53002e-08
-3.46344e-09
-1.38641e-08
-3.3497e-09
-1.24798e-08
-3.22739e-09
-1.11506e-08
-3.09654e-09
-9.88006e-09
-2.95727e-09
-8.67153e-09
-2.80973e-09
-7.52822e-09
-2.65418e-09
-6.4532e-09
-2.4909e-09
-5.4494e-09
-2.32026e-09
-4.51948e-09
-2.14273e-09
-3.66585e-09
-1.95886e-09
-2.89063e-09
-1.76939e-09
-2.19554e-09
-1.57524e-09
-1.58189e-09
-1.37751e-09
-1.05047e-09
-1.17753e-09
-6.01433e-10
-9.76875e-10
-2.34139e-10
-7.77405e-10
5.2983e-11
-5.81381e-10
2.62617e-10
-3.916e-10
3.98766e-10
-2.11525e-10
4.66997e-10
-4.54552e-11
4.74774e-10
1.01315e-10
4.31811e-10
2.22348e-10
3.5042e-10
3.0983e-10
2.45798e-10
3.54307e-10
1.36504e-10
3.44634e-10
4.49422e-11
2.69146e-10
1.17233e-10
2.95714e-11
-1.31357e-10
9.35095e-11
-3.10382e-10
1.69194e-10
-4.04932e-10
2.31149e-10
-4.05286e-10
2.58121e-10
-3.26045e-10
2.32872e-10
-1.83192e-10
1.41559e-10
9.07853e-12
-2.65682e-11
2.39238e-10
-2.79543e-10
4.97548e-10
-6.23635e-10
7.76376e-10
-1.06293e-09
1.06907e-09
-1.60021e-09
1.37052e-09
-2.23684e-09
1.67622e-09
-2.97328e-09
1.98268e-09
-3.80903e-09
2.28688e-09
-4.74288e-09
2.58631e-09
-5.77292e-09
2.87892e-09
-6.89691e-09
3.16314e-09
-8.11206e-09
3.4375e-09
-9.41525e-09
3.70108e-09
-1.08031e-08
3.95289e-09
-1.22718e-08
4.19242e-09
-1.38177e-08
4.41915e-09
-1.54365e-08
4.63279e-09
-1.71242e-08
4.83307e-09
-1.88764e-08
5.01995e-09
-2.06888e-08
5.19331e-09
-2.2557e-08
5.35313e-09
-2.44766e-08
5.49958e-09
-2.6443e-08
5.6326e-09
-2.8452e-08
5.75249e-09
-3.0499e-08
5.85918e-09
-3.25797e-08
5.95302e-09
-3.46897e-08
6.03414e-09
-3.68247e-08
6.10281e-09
-3.89805e-08
6.15926e-09
-4.11527e-08
6.20377e-09
-4.33373e-08
6.23664e-09
-4.553e-08
6.25812e-09
-4.77268e-08
6.26845e-09
-4.99237e-08
6.26784e-09
-5.21169e-08
6.25644e-09
-5.43025e-08
6.23443e-09
-5.6477e-08
6.20201e-09
-5.86366e-08
6.15942e-09
-6.07779e-08
6.10693e-09
-6.28973e-08
6.04484e-09
-6.49916e-08
5.97343e-09
-6.70573e-08
5.89295e-09
-6.90913e-08
5.80364e-09
-7.10904e-08
5.7057e-09
-7.30516e-08
5.59934e-09
-7.49719e-08
5.4847e-09
-7.68485e-08
5.36197e-09
-7.86787e-08
5.23135e-09
-8.04599e-08
5.09303e-09
-8.21894e-08
4.94724e-09
-8.38649e-08
4.79423e-09
-8.54839e-08
4.63425e-09
-8.70442e-08
4.46757e-09
-8.85436e-08
4.29442e-09
-8.99801e-08
4.11508e-09
-9.13516e-08
3.92982e-09
-9.26562e-08
3.73895e-09
-9.38923e-08
3.54278e-09
-9.50581e-08
3.34163e-09
-9.61519e-08
3.13581e-09
-9.71723e-08
2.92565e-09
-9.81179e-08
2.71148e-09
-9.89873e-08
2.49362e-09
-9.97793e-08
2.27238e-09
-1.00493e-07
2.04805e-09
-1.01127e-07
1.82094e-09
-1.0168e-07
1.59131e-09
-1.02152e-07
1.35939e-09
-1.02542e-07
1.12547e-09
-1.0285e-07
8.89803e-10
-1.03074e-07
6.52651e-10
-1.03215e-07
4.14253e-10
-1.03272e-07
1.74864e-10
-1.03244e-07
-6.52338e-11
-1.03133e-07
-3.05766e-10
-1.02938e-07
-5.46453e-10
-1.02659e-07
-7.86982e-10
-1.02296e-07
-1.02703e-09
-1.0185e-07
-1.26629e-09
-1.01321e-07
-1.50443e-09
-1.0071e-07
-1.74107e-09
-1.00017e-07
-1.97583e-09
-9.92442e-08
-2.20834e-09
-9.83914e-08
-2.4382e-09
-9.746e-08
-2.66499e-09
-9.64511e-08
-2.8883e-09
-9.5366e-08
-3.10777e-09
-9.42061e-08
-3.32304e-09
-9.29728e-08
-3.53371e-09
-9.16679e-08
-3.73943e-09
-9.02931e-08
-3.93986e-09
-8.88501e-08
-4.13468e-09
-8.7341e-08
-4.32354e-09
-8.57679e-08
-4.50616e-09
-8.4133e-08
-4.68227e-09
-8.24386e-08
-4.85163e-09
-8.06872e-08
-5.01396e-09
-7.88815e-08
-5.16899e-09
-7.70241e-08
-5.31648e-09
-7.51179e-08
-5.45616e-09
-7.31658e-08
-5.5877e-09
-7.1171e-08
-5.71074e-09
-6.91367e-08
-5.82494e-09
-6.7066e-08
-5.92995e-09
-6.49625e-08
-6.02537e-09
-6.28295e-08
-6.11082e-09
-6.06706e-08
-6.18594e-09
-5.84894e-08
-6.25041e-09
-5.62898e-08
-6.30388e-09
-5.40755e-08
-6.34605e-09
-5.18505e-08
-6.37663e-09
-4.96187e-08
-6.3954e-09
-4.73843e-08
-6.40212e-09
-4.51513e-08
-6.39662e-09
-4.29241e-08
-6.37871e-09
-4.07069e-08
-6.34827e-09
-3.85042e-08
-6.30517e-09
-3.63202e-08
-6.24929e-09
-3.41596e-08
-6.18053e-09
-3.20268e-08
-6.09879e-09
-2.99263e-08
-6.00403e-09
-2.78627e-08
-5.89621e-09
-2.58405e-08
-5.77531e-09
-2.38644e-08
-5.64131e-09
-2.19387e-08
-5.4942e-09
-2.00682e-08
-5.33402e-09
-1.82571e-08
-5.16081e-09
-1.65098e-08
-4.97465e-09
-1.48307e-08
-4.77568e-09
-1.32238e-08
-4.56412e-09
-1.16933e-08
-4.34026e-09
-1.0243e-08
-4.10451e-09
-8.87651e-09
-3.85735e-09
-7.59739e-09
-3.59939e-09
-6.40875e-09
-3.33136e-09
-5.31341e-09
-3.0542e-09
-4.31379e-09
-2.76901e-09
-3.41186e-09
-2.47716e-09
-2.60908e-09
-2.1803e-09
-1.90623e-09
-1.88038e-09
-1.30335e-09
-1.57976e-09
-7.99555e-10
-1.2812e-09
-3.92889e-10
-9.88046e-10
-8.01217e-11
-7.04369e-10
1.43464e-10
-4.35111e-10
2.84278e-10
-1.86269e-10
3.50713e-10
3.48799e-11
3.53488e-10
2.19573e-10
3.05958e-10
3.5736e-10
2.24462e-10
4.35802e-10
1.28822e-10
4.40275e-10
4.34008e-11
3.54566e-10
1.60634e-10
2.11842e-11
-1.52538e-10
6.49923e-11
-3.54193e-10
1.09487e-10
-4.49423e-10
1.29049e-10
-4.24843e-10
1.01158e-10
-2.98151e-10
8.36363e-12
-9.04056e-11
-1.63616e-10
1.81062e-10
-4.25914e-10
5.01537e-10
-7.8736e-10
8.58996e-10
-1.25426e-09
1.24327e-09
-1.83139e-09
1.64621e-09
-2.52162e-09
2.06074e-09
-3.32676e-09
2.48136e-09
-4.24713e-09
2.90306e-09
-5.28237e-09
3.32211e-09
-6.43113e-09
3.73508e-09
-7.69158e-09
4.13936e-09
-9.06095e-09
4.53252e-09
-1.05364e-08
4.91295e-09
-1.21143e-08
5.27895e-09
-1.37909e-08
5.62948e-09
-1.55619e-08
5.96347e-09
-1.74231e-08
6.28034e-09
-1.93698e-08
6.57946e-09
-2.13972e-08
6.86046e-09
-2.35003e-08
7.12314e-09
-2.56743e-08
7.36723e-09
-2.79139e-08
7.5928e-09
-3.02141e-08
7.79974e-09
-3.25696e-08
7.98812e-09
-3.49753e-08
8.15817e-09
-3.7426e-08
8.30985e-09
-3.99165e-08
8.44352e-09
-4.24417e-08
8.55934e-09
-4.49965e-08
8.6576e-09
-4.75758e-08
8.73859e-09
-5.01747e-08
8.80264e-09
-5.27881e-08
8.85007e-09
-5.54112e-08
8.8812e-09
-5.80391e-08
8.89634e-09
-6.0667e-08
8.8958e-09
-6.32904e-08
8.87985e-09
-6.59048e-08
8.84878e-09
-6.85057e-08
8.80289e-09
-7.10888e-08
8.74252e-09
-7.36499e-08
8.668e-09
-7.61848e-08
8.57974e-09
-7.86894e-08
8.4781e-09
-8.11599e-08
8.36341e-09
-8.35923e-08
8.23604e-09
-8.59829e-08
8.0963e-09
-8.83281e-08
7.94449e-09
-9.06243e-08
7.7809e-09
-9.28681e-08
7.60583e-09
-9.50564e-08
7.41959e-09
-9.71858e-08
7.22251e-09
-9.92535e-08
7.01491e-09
-1.01256e-07
6.79715e-09
-1.03192e-07
6.56961e-09
-1.05057e-07
6.33264e-09
-1.06849e-07
6.08662e-09
-1.08566e-07
5.83193e-09
-1.10205e-07
5.56897e-09
-1.11764e-07
5.29815e-09
-1.13241e-07
5.01989e-09
-1.14634e-07
4.73461e-09
-1.15941e-07
4.44276e-09
-1.1716e-07
4.14479e-09
-1.1829e-07
3.84109e-09
-1.19329e-07
3.53211e-09
-1.20274e-07
3.21829e-09
-1.21126e-07
2.90005e-09
-1.21883e-07
2.57778e-09
-1.22544e-07
2.25187e-09
-1.23107e-07
1.92271e-09
-1.23572e-07
1.5907e-09
-1.23939e-07
1.2562e-09
-1.24206e-07
9.19608e-10
-1.24373e-07
5.81327e-10
-1.2444e-07
2.41725e-10
-1.24406e-07
-9.88109e-11
-1.24272e-07
-4.39848e-10
-1.24038e-07
-7.8095e-10
-1.23703e-07
-1.12171e-09
-1.23268e-07
-1.46169e-09
-1.22734e-07
-1.8004e-09
-1.22101e-07
-2.13736e-09
-1.2137e-07
-2.4721e-09
-1.20542e-07
-2.80414e-09
-1.19617e-07
-3.1329e-09
-1.18598e-07
-3.45787e-09
-1.17484e-07
-3.77853e-09
-1.16278e-07
-4.09436e-09
-1.14981e-07
-4.40481e-09
-1.13595e-07
-4.70938e-09
-1.12121e-07
-5.00758e-09
-1.10561e-07
-5.29891e-09
-1.08918e-07
-5.58286e-09
-1.07194e-07
-5.85895e-09
-1.05391e-07
-6.12676e-09
-1.03511e-07
-6.38586e-09
-1.01557e-07
-6.63578e-09
-9.9533e-08
-6.87611e-09
-9.74405e-08
-7.10646e-09
-9.52831e-08
-7.32645e-09
-9.30639e-08
-7.53562e-09
-9.07865e-08
-7.73356e-09
-8.84544e-08
-7.91981e-09
-8.60712e-08
-8.09393e-09
-8.36407e-08
-8.25542e-09
-8.11669e-08
-8.40378e-09
-7.86537e-08
-8.53854e-09
-7.61053e-08
-8.65921e-09
-7.3526e-08
-8.76533e-09
-7.09199e-08
-8.85643e-09
-6.82917e-08
-8.93208e-09
-6.56459e-08
-8.99189e-09
-6.2987e-08
-9.03548e-09
-6.03199e-08
-9.0625e-09
-5.76494e-08
-9.07263e-09
-5.49805e-08
-9.0656e-09
-5.2318e-08
-9.04116e-09
-4.96672e-08
-8.99909e-09
-4.70332e-08
-8.93919e-09
-4.44212e-08
-8.86127e-09
-4.18365e-08
-8.7652e-09
-3.92845e-08
-8.65085e-09
-3.67704e-08
-8.51814e-09
-3.42996e-08
-8.367e-09
-3.18775e-08
-8.1974e-09
-2.95094e-08
-8.00936e-09
-2.72008e-08
-7.8029e-09
-2.49567e-08
-7.57809e-09
-2.27824e-08
-7.33506e-09
-2.06831e-08
-7.07399e-09
-1.86636e-08
-6.79515e-09
-1.67288e-08
-6.49888e-09
-1.48834e-08
-6.18566e-09
-1.31319e-08
-5.85608e-09
-1.14783e-08
-5.5109e-09
-9.92671e-09
-5.15099e-09
-8.48063e-09
-4.77744e-09
-7.14324e-09
-4.39159e-09
-5.91725e-09
-3.995e-09
-4.80483e-09
-3.58958e-09
-3.80751e-09
-3.17762e-09
-2.92608e-09
-2.76181e-09
-2.1605e-09
-2.34534e-09
-1.50969e-09
-1.932e-09
-9.71411e-10
-1.52633e-09
-5.42031e-10
-1.13375e-09
-2.16366e-10
-7.60774e-10
1.25392e-11
-4.15176e-10
1.53651e-10
-1.06234e-10
2.18249e-10
1.54977e-10
2.20241e-10
3.55367e-10
1.76506e-10
4.79539e-10
1.07336e-10
5.09445e-10
3.76882e-11
4.24213e-10
1.98323e-10
1.0792e-11
-1.63328e-10
2.8272e-11
-3.71672e-10
3.27939e-11
-4.53944e-10
-1.25821e-12
-3.90795e-10
-9.57891e-11
-2.03619e-10
-2.68498e-10
8.2305e-11
-5.33645e-10
4.46202e-10
-9.02537e-10
8.70431e-10
-1.38402e-09
1.34047e-09
-1.98474e-09
1.84399e-09
-2.70949e-09
2.37095e-09
-3.56144e-09
2.91268e-09
-4.54235e-09
3.46226e-09
-5.6528e-09
4.01352e-09
-6.89233e-09
4.56165e-09
-8.25956e-09
5.10231e-09
-9.75232e-09
5.63212e-09
-1.13679e-08
6.14811e-09
-1.31029e-08
6.64794e-09
-1.49535e-08
7.12959e-09
-1.69156e-08
7.59153e-09
-1.89845e-08
8.03238e-09
-2.11554e-08
8.4512e-09
-2.34231e-08
8.84713e-09
-2.57823e-08
9.21966e-09
-2.82274e-08
9.5683e-09
-3.0753e-08
9.89281e-09
-3.33532e-08
1.0193e-08
-3.60222e-08
1.04688e-08
-3.87543e-08
1.07202e-08
-4.15434e-08
1.09473e-08
-4.43838e-08
1.11503e-08
-4.72696e-08
1.13293e-08
-5.01948e-08
1.14846e-08
-5.31538e-08
1.16165e-08
-5.61406e-08
1.17254e-08
-5.91496e-08
1.18116e-08
-6.21751e-08
1.18756e-08
-6.52114e-08
1.19176e-08
-6.82531e-08
1.1938e-08
-7.12947e-08
1.19374e-08
-7.43309e-08
1.1916e-08
-7.73564e-08
1.18743e-08
-8.03662e-08
1.18127e-08
-8.33553e-08
1.17316e-08
-8.63187e-08
1.16314e-08
-8.92517e-08
1.15128e-08
-9.21497e-08
1.1376e-08
-9.5008e-08
1.12217e-08
-9.78221e-08
1.10502e-08
-1.00588e-07
1.0862e-08
-1.03301e-07
1.06576e-08
-1.05957e-07
1.04373e-08
-1.08553e-07
1.02016e-08
-1.11084e-07
9.95094e-09
-1.13548e-07
9.68581e-09
-1.15939e-07
9.40664e-09
-1.18256e-07
9.11392e-09
-1.20495e-07
8.80816e-09
-1.22652e-07
8.48983e-09
-1.24725e-07
8.15945e-09
-1.2671e-07
7.81755e-09
-1.28606e-07
7.46464e-09
-1.30409e-07
7.10128e-09
-1.32117e-07
6.728e-09
-1.33728e-07
6.34537e-09
-1.35239e-07
5.95395e-09
-1.36649e-07
5.5543e-09
-1.37955e-07
5.14699e-09
-1.39155e-07
4.73259e-09
-1.40248e-07
4.31164e-09
-1.41233e-07
3.88471e-09
-1.42108e-07
3.45234e-09
-1.42871e-07
3.01507e-09
-1.43522e-07
2.5734e-09
-1.44059e-07
2.12789e-09
-1.44482e-07
1.6791e-09
-1.4479e-07
1.22753e-09
-1.44982e-07
7.73702e-10
-1.45058e-07
3.18182e-10
-1.45019e-07
-1.38459e-10
-1.44863e-07
-5.95689e-10
-1.44591e-07
-1.05294e-09
-1.44203e-07
-1.50959e-09
-1.437e-07
-1.96504e-09
-1.43081e-07
-2.41871e-09
-1.42349e-07
-2.86996e-09
-1.41503e-07
-3.31811e-09
-1.40544e-07
-3.76252e-09
-1.39475e-07
-4.20255e-09
-1.38295e-07
-4.6375e-09
-1.37007e-07
-5.06666e-09
-1.35612e-07
-5.48936e-09
-1.34112e-07
-5.90495e-09
-1.32508e-07
-6.31275e-09
-1.30804e-07
-6.71209e-09
-1.29001e-07
-7.10229e-09
-1.27101e-07
-7.48274e-09
-1.25107e-07
-7.85279e-09
-1.23022e-07
-8.21182e-09
-1.20848e-07
-8.55921e-09
-1.1859e-07
-8.89438e-09
-1.16249e-07
-9.21673e-09
-1.1383e-07
-9.5257e-09
-1.11336e-07
-9.82068e-09
-1.0877e-07
-1.01011e-08
-1.06137e-07
-1.03664e-08
-1.03441e-07
-1.06159e-08
-1.00686e-07
-1.08491e-08
-9.78762e-08
-1.10653e-08
-9.50161e-08
-1.12639e-08
-9.21105e-08
-1.14442e-08
-8.9164e-08
-1.16057e-08
-8.61816e-08
-1.17477e-08
-8.31682e-08
-1.18698e-08
-8.0129e-08
-1.19713e-08
-7.70692e-08
-1.20517e-08
-7.39942e-08
-1.21105e-08
-7.09094e-08
-1.21473e-08
-6.78203e-08
-1.21617e-08
-6.47326e-08
-1.21533e-08
-6.16521e-08
-1.21217e-08
-5.85846e-08
-1.20666e-08
-5.5536e-08
-1.19878e-08
-5.25123e-08
-1.1885e-08
-4.95195e-08
-1.1758e-08
-4.65637e-08
-1.16067e-08
-4.3651e-08
-1.14309e-08
-4.07874e-08
-1.12306e-08
-3.79791e-08
-1.10057e-08
-3.52322e-08
-1.07563e-08
-3.25527e-08
-1.04824e-08
-2.99465e-08
-1.01843e-08
-2.74195e-08
-9.86203e-09
-2.49775e-08
-9.51599e-09
-2.26261e-08
-9.14657e-09
-2.03707e-08
-8.7543e-09
-1.82165e-08
-8.33985e-09
-1.61685e-08
-7.90408e-09
-1.42314e-08
-7.44802e-09
-1.24095e-08
-6.97289e-09
-1.07067e-08
-6.48018e-09
-9.12663e-09
-5.97168e-09
-7.67215e-09
-5.44949e-09
-6.34561e-09
-4.91612e-09
-5.14865e-09
-4.37457e-09
-4.08212e-09
-3.82834e-09
-3.14588e-09
-3.28157e-09
-2.33876e-09
-2.73913e-09
-1.65831e-09
-2.20678e-09
-1.1007e-09
-1.69136e-09
-6.60493e-10
-1.20098e-09
-3.30464e-10
-7.45208e-10
-1.0137e-10
-3.35328e-10
3.82672e-11
1.53408e-11
1.02488e-10
2.91146e-10
1.08195e-10
4.73832e-10
7.55551e-11
5.42083e-10
2.9024e-11
4.70743e-10
2.27347e-10
-8.50493e-13
-1.62481e-10
-1.3908e-11
-3.58619e-10
-5.62852e-11
-4.11569e-10
-1.52443e-10
-2.94634e-10
-3.23295e-10
-3.27657e-11
-5.86272e-10
3.45282e-10
-9.5509e-10
8.15019e-10
-1.44089e-09
1.35623e-09
-2.05239e-09
1.95197e-09
-2.79628e-09
2.58789e-09
-3.67726e-09
3.25193e-09
-4.69869e-09
3.93412e-09
-5.86207e-09
4.62564e-09
-7.16823e-09
5.31968e-09
-8.61635e-09
6.00977e-09
-1.02052e-08
6.69113e-09
-1.19323e-08
7.35923e-09
-1.37948e-08
8.0106e-09
-1.5789e-08
8.64212e-09
-1.79108e-08
9.25143e-09
-2.01556e-08
9.83632e-09
-2.25184e-08
1.03952e-08
-2.4994e-08
1.09268e-08
-2.75767e-08
1.14298e-08
-3.02607e-08
1.19037e-08
-3.30399e-08
1.23475e-08
-3.59082e-08
1.27611e-08
-3.88592e-08
1.31441e-08
-4.18866e-08
1.34962e-08
-4.49839e-08
1.38175e-08
-4.81446e-08
1.41079e-08
-5.13621e-08
1.43678e-08
-5.46299e-08
1.45971e-08
-5.79416e-08
1.47962e-08
-6.12905e-08
1.49655e-08
-6.46703e-08
1.51052e-08
-6.80746e-08
1.52159e-08
-7.14969e-08
1.52979e-08
-7.49311e-08
1.53517e-08
-7.83709e-08
1.53778e-08
-8.18102e-08
1.53768e-08
-8.52432e-08
1.5349e-08
-8.86638e-08
1.5295e-08
-9.20665e-08
1.52153e-08
-9.54455e-08
1.51106e-08
-9.87953e-08
1.49813e-08
-1.02111e-07
1.48281e-08
-1.05386e-07
1.46515e-08
-1.08617e-07
1.44522e-08