/*--------------------------------*- C++ -*----------------------------------*\
  =========                 |
  \\      /  F ield         | OpenFOAM: The Open Source CFD Toolbox
   \\    /   O peration     | Website:  https://openfoam.org
    \\  /    A nd           | Version:  7
     \\/     M anipulation  |
\*---------------------------------------------------------------------------*/
FoamFile
{
    version     2.0;
    format      ascii;
    class       volScalarField;
    location    "0.2125";
    object      p;
}
// * * * * * * * * * * * * * * * * * * * * * * * * * * * * * * * * * * * * * //

dimensions      [0 2 -2 0 0 0 0];

internalField   nonuniform List<scalar> 
25600
(
-2.2632e-09
5.83181e-06
9.93887e-06
9.15533e-06
3.26467e-06
-6.30408e-06
-1.85071e-05
-3.25106e-05
-4.76512e-05
-6.33345e-05
-7.90483e-05
-9.44014e-05
-0.000109078
-0.00012281
-0.000135379
-0.000146595
-0.000156296
-0.000164352
-0.000170663
-0.000175156
-0.000177765
-0.000178435
-0.000177136
-0.00017385
-0.000168554
-0.000161232
-0.000151881
-0.000140508
-0.000127123
-0.00011173
-9.43363e-05
-7.49624e-05
-5.36291e-05
-3.03484e-05
-5.12789e-06
2.20175e-05
5.10626e-05
8.19801e-05
0.000114754
0.000149375
0.000185834
0.000224113
0.00026419
0.000306048
0.000349679
0.000395072
0.000442216
0.000491096
0.000541695
0.000594004
0.000648016
0.000703718
0.000761096
0.000820129
0.000880803
0.000943105
0.00100702
0.00107254
0.00113964
0.00120828
0.00127844
0.00135011
0.00142326
0.00149788
0.00157392
0.00165135
0.00173014
0.00181024
0.00189164
0.00197429
0.00205817
0.00214321
0.00222938
0.00231663
0.0024049
0.00249416
0.00258435
0.00267543
0.00276733
0.00286
0.00295336
0.00304736
0.00314193
0.00323701
0.00333253
0.00342842
0.0035246
0.00362099
0.0037175
0.00381405
0.00391056
0.00400694
0.00410311
0.00419898
0.00429444
0.00438941
0.00448379
0.00457746
0.00467033
0.00476231
0.0048533
0.00494321
0.00503193
0.00511935
0.00520538
0.00528992
0.00537285
0.00545408
0.00553352
0.00561107
0.00568664
0.00576014
0.00583148
0.00590056
0.00596731
0.00603163
0.00609343
0.00615265
0.0062092
0.00626303
0.00631407
0.00636226
0.00640755
0.0064499
0.00648925
0.00652557
0.00655883
0.00658901
0.00661608
0.00664004
0.00666089
0.00667865
0.00669332
0.00670495
0.00671357
0.00671923
0.00672199
0.00672193
0.00671912
0.00671366
0.00670566
0.00669525
0.00668258
0.00666781
0.00665112
0.00663272
0.00661285
0.00659178
0.00656981
0.00654729
0.00652458
0.00650212
0.00648042
0.00646004
0.00644162
0.00642587
0.00641355
0.00640541
0.00640214
0.00640329
4.76128e-06
1.02539e-05
1.30661e-05
1.19527e-05
7.10622e-06
-7.64977e-07
-1.08894e-05
-2.26171e-05
-3.53897e-05
-4.87133e-05
-6.2163e-05
-7.53612e-05
-8.79944e-05
-9.98135e-05
-0.000110605
-0.000120184
-0.000128389
-0.00013509
-0.000140185
-0.000143587
-0.00014522
-0.000145027
-0.000142974
-0.000139031
-0.00013317
-0.000125371
-0.000115628
-0.000103945
-9.03192e-05
-7.47446e-05
-5.72293e-05
-3.77924e-05
-1.64485e-05
6.79724e-06
3.19391e-05
5.89628e-05
8.78461e-05
0.00011857
0.000151124
0.000185499
0.00022168
0.000259647
0.000299384
0.000340883
0.000384138
0.000429136
0.000475861
0.000524294
0.000574425
0.000626249
0.000679761
0.000734945
0.000791782
0.00085025
0.000910338
0.000972035
0.00103533
0.00110021
0.00116664
0.00123459
0.00130404
0.00137498
0.00144738
0.00152122
0.00159646
0.00167307
0.00175101
0.00183024
0.00191074
0.00199248
0.00207541
0.00215949
0.00224466
0.00233089
0.00241812
0.00250631
0.00259541
0.00268538
0.00277615
0.00286766
0.00295984
0.00305263
0.00314597
0.0032398
0.00333406
0.00342866
0.00352354
0.0036186
0.00371377
0.00380897
0.00390411
0.00399911
0.00409388
0.00418835
0.0042824
0.00437596
0.0044689
0.00456115
0.0046526
0.00474315
0.00483272
0.00492121
0.00500853
0.00509456
0.00517921
0.00526238
0.00534397
0.00542388
0.00550202
0.0055783
0.00565264
0.00572494
0.00579512
0.00586308
0.00592875
0.00599205
0.00605288
0.00611118
0.00616688
0.00621991
0.00627022
0.00631776
0.00636248
0.00640434
0.00644328
0.00647929
0.00651233
0.00654237
0.00656942
0.00659346
0.0066145
0.00663256
0.00664765
0.00665983
0.00666912
0.00667558
0.00667928
0.00668028
0.00667868
0.00667458
0.00666808
0.00665931
0.00664843
0.00663559
0.00662099
0.00660482
0.00658733
0.00656876
0.00654942
0.00652961
0.00650971
0.00649011
0.00647126
0.00645363
0.00643778
0.00642426
0.00641362
0.0064064
0.00640328
0.00640444
1.60446e-05
1.96046e-05
2.04382e-05
1.84226e-05
1.36809e-05
6.55925e-06
-2.43801e-06
-1.27827e-05
-2.40094e-05
-3.57274e-05
-4.75693e-05
-5.91968e-05
-7.03224e-05
-8.07028e-05
-9.01348e-05
-9.84433e-05
-0.000105471
-0.000111094
-0.00011521
-0.000117724
-0.000118557
-0.000117655
-0.000114978
-0.000110487
-0.000104147
-9.59394e-05
-8.58614e-05
-7.39073e-05
-6.00629e-05
-4.43223e-05
-2.66949e-05
-7.19528e-06
1.41706e-05
3.74034e-05
6.24955e-05
8.94274e-05
0.00011818
0.000148746
0.000181123
0.000215298
0.000251251
0.00028896
0.000328414
0.000369613
0.000412553
0.00045722
0.00050359
0.000551647
0.000601384
0.000652801
0.00070589
0.000760635
0.000817011
0.000875
0.000934592
0.000995779
0.00105855
0.00112288
0.00118874
0.00125611
0.00132496
0.00139528
0.00146705
0.00154023
0.0016148
0.00169072
0.00176794
0.00184645
0.0019262
0.00200717
0.00208931
0.00217259
0.00225694
0.00234232
0.00242869
0.002516
0.0026042
0.00269325
0.00278309
0.00287365
0.00296486
0.00305666
0.00314899
0.00324181
0.00333503
0.00342859
0.00352241
0.00361639
0.00371047
0.00380456
0.00389859
0.00399247
0.00408612
0.00417944
0.00427236
0.00436476
0.00445656
0.00454765
0.00463794
0.00472735
0.00481578
0.00490313
0.00498931
0.00507422
0.00515777
0.00523984
0.00532035
0.0053992
0.0054763
0.00555156
0.00562491
0.00569625
0.0057655
0.00583258
0.00589739
0.00595986
0.00601991
0.00607748
0.00613249
0.00618489
0.00623463
0.00628165
0.00632592
0.00636738
0.006406
0.00644176
0.00647462
0.00650456
0.00653159
0.00655569
0.00657688
0.00659518
0.00661061
0.00662322
0.00663305
0.00664014
0.00664458
0.00664644
0.00664579
0.00664275
0.00663743
0.00662995
0.00662047
0.00660913
0.00659614
0.00658168
0.006566
0.00654932
0.00653193
0.00651414
0.00649627
0.00647869
0.0064618
0.00644603
0.00643182
0.00641966
0.00640999
0.00640324
0.00640014
0.00640115
3.10096e-05
3.21195e-05
3.10301e-05
2.78003e-05
2.25969e-05
1.55778e-05
7.07207e-06
-2.51011e-06
-1.27978e-05
-2.3451e-05
-3.41553e-05
-4.46317e-05
-5.46216e-05
-6.38959e-05
-7.2265e-05
-7.95601e-05
-8.5635e-05
-9.03727e-05
-9.36696e-05
-9.5431e-05
-9.5583e-05
-9.40724e-05
-9.08534e-05
-8.58805e-05
-7.91181e-05
-7.05512e-05
-6.01729e-05
-4.79665e-05
-3.39149e-05
-1.80175e-05
-2.84813e-07
1.92777e-05
4.06739e-05
6.39067e-05
8.89635e-05
0.000115822
0.00014447
0.000174906
0.00020713
0.000241128
0.000276879
0.000314363
0.000353574
0.000394512
0.000437174
0.000481541
0.000527593
0.000575315
0.000624706
0.000675763
0.000728474
0.000782821
0.000838782
0.000896342
0.000955492
0.00101622
0.00107853
0.00114237
0.00120772
0.00127457
0.00134288
0.00141265
0.00148385
0.00155646
0.00163043
0.00170572
0.00178232
0.00186017
0.00193927
0.00201957
0.00210102
0.00218358
0.00226721
0.00235185
0.00243747
0.00252402
0.00261145
0.00269971
0.00278874
0.00287847
0.00296885
0.0030598
0.00315128
0.00324322
0.00333556
0.00342823
0.00352114
0.0036142
0.00370735
0.0038005
0.00389358
0.00398651
0.0040792
0.00417156
0.00426351
0.00435494
0.00444576
0.00453588
0.0046252
0.00471363
0.0048011
0.00488749
0.00497273
0.0050567
0.00513931
0.00522046
0.00530006
0.00537803
0.00545426
0.00552867
0.00560119
0.00567173
0.00574021
0.00580653
0.00587063
0.00593241
0.00599181
0.00604877
0.00610321
0.00615508
0.00620434
0.00625093
0.00629481
0.00633594
0.0063743
0.00640984
0.00644255
0.00647241
0.00649942
0.00652357
0.00654489
0.00656339
0.0065791
0.00659206
0.00660233
0.00660995
0.006615
0.00661754
0.00661768
0.00661551
0.00661114
0.00660471
0.00659634
0.00658621
0.0065745
0.00656139
0.00654711
0.00653189
0.006516
0.0064997
0.00648332
0.00646718
0.00645163
0.00643706
0.00642386
0.00641243
0.00640316
0.00639643
0.00639289
0.00639301
4.78211e-05
4.6595e-05
4.37018e-05
3.92368e-05
3.33063e-05
2.60582e-05
1.77202e-05
8.56437e-06
-1.10571e-06
-1.09919e-05
-2.08339e-05
-3.03932e-05
-3.94454e-05
-4.77897e-05
-5.5247e-05
-6.16605e-05
-6.69004e-05
-7.08513e-05
-7.34081e-05
-7.44835e-05
-7.40117e-05
-7.19387e-05
-6.82102e-05
-6.27791e-05
-5.56192e-05
-4.6715e-05
-3.60466e-05
-2.35914e-05
-9.33733e-06
6.71228e-06
2.4552e-05
4.4185e-05
6.56193e-05
8.88548e-05
0.000113876
0.000140667
0.000169223
0.000199544
0.000231626
0.000265451
0.000301004
0.000338272
0.000377253
0.000417946
0.00046034
0.000504415
0.000550156
0.000597556
0.000646614
0.000697323
0.000749668
0.000803627
0.000859184
0.000916327
0.00097505
0.00103534
0.00109719
0.00116055
0.00122541
0.00129175
0.00135954
0.00142878
0.00149944
0.00157148
0.00164487
0.00171958
0.00179556
0.0018728
0.00195127
0.00203092
0.00211172
0.00219361
0.00227654
0.00236049
0.00244539
0.00253122
0.00261792
0.00270544
0.00279371
0.00288267
0.00297226
0.00306243
0.00315311
0.00324424
0.00333576
0.0034276
0.00351966
0.00361187
0.00370416
0.00379644
0.00388864
0.00398069
0.0040725
0.00416397
0.00425502
0.00434556
0.00443548
0.0045247
0.00461312
0.00470067
0.00478725
0.00487277
0.00495713
0.00504024
0.005122
0.00520231
0.00528109
0.00535823
0.00543367
0.00550732
0.00557908
0.00564889
0.00571666
0.0057823
0.00584574
0.0059069
0.00596571
0.0060221
0.00607602
0.00612741
0.00617623
0.00622242
0.00626596
0.00630679
0.0063449
0.00638025
0.00641282
0.0064426
0.00646958
0.00649378
0.0065152
0.00653388
0.00654984
0.00656312
0.00657378
0.00658186
0.00658745
0.00659062
0.00659145
0.00659005
0.00658652
0.006581
0.00657362
0.00656454
0.00655393
0.00654198
0.0065289
0.00651491
0.00650024
0.00648517
0.00646997
0.00645494
0.0064404
0.00642667
0.00641409
0.00640301
0.00639377
0.00638669
0.00638224
0.00638073
6.62989e-05
6.25733e-05
5.78963e-05
5.21661e-05
4.5355e-05
3.7636e-05
2.91777e-05
2.01776e-05
1.08713e-05
1.49414e-06
-7.7297e-06
-1.6592e-05
-2.49024e-05
-3.24852e-05
-3.91776e-05
-4.48432e-05
-4.93622e-05
-5.26213e-05
-5.45219e-05
-5.49877e-05
-5.39569e-05
-5.13695e-05
-4.71689e-05
-4.13161e-05
-3.37899e-05
-2.45679e-05
-1.36214e-05
-9.29146e-07
1.35144e-05
2.97069e-05
4.76523e-05
6.73617e-05
8.884e-05
0.000112079
0.000137065
0.000163793
0.000192266
0.000222483
0.000254431
0.000288092
0.000323456
0.000360518
0.000399281
0.000439739
0.000481875
0.00052567
0.000571113
0.000618205
0.000666943
0.000717317
0.000769307
0.000822893
0.000878061
0.000934804
0.000993116
0.00105298
0.00111439
0.00117729
0.00124168
0.00130752
0.00137482
0.00144355
0.00151369
0.00158519
0.00165803
0.00173216
0.00180757
0.00188422
0.00196209
0.00204114
0.00212131
0.00220256
0.00228485
0.00236814
0.00245238
0.00253754
0.00262356
0.00271039
0.00279796
0.0028862
0.00297507
0.0030645
0.00315445
0.00324484
0.00333561
0.00342667
0.00351796
0.00360939
0.00370089
0.00379238
0.00388378
0.00397502
0.00406602
0.00415669
0.00424692
0.00433664
0.00442574
0.00451415
0.00460176
0.0046885
0.00477428
0.00485901
0.00494259
0.00502492
0.00510591
0.00518546
0.00526349
0.00533991
0.00541463
0.00548758
0.00555867
0.00562783
0.00569496
0.00575999
0.00582284
0.00588343
0.00594171
0.0059976
0.00605104
0.006102
0.00615042
0.00619626
0.00623948
0.00628004
0.00631792
0.00635309
0.00638553
0.00641523
0.00644219
0.00646642
0.00648794
0.00650677
0.00652294
0.0065365
0.00654749
0.00655599
0.00656205
0.00656575
0.00656718
0.00656645
0.00656365
0.00655891
0.00655237
0.00654419
0.00653451
0.00652353
0.00651144
0.00649845
0.00648478
0.00647067
0.00645638
0.00644217
0.00642831
0.0064151
0.00640282
0.00639176
0.00638221
0.00637446
0.00636872
0.00636508
8.60591e-05
7.97137e-05
7.31741e-05
6.61332e-05
5.8348e-05
4.99667e-05
4.11586e-05
3.2083e-05
2.29086e-05
1.38188e-05
5.0024e-06
-3.36404e-06
-1.1117e-05
-1.81015e-05
-2.418e-05
-2.92308e-05
-3.31404e-05
-3.58048e-05
-3.71389e-05
-3.70752e-05
-3.55493e-05
-3.24981e-05
-2.78726e-05
-2.16432e-05
-1.37849e-05
-4.26613e-06
6.94212e-06
1.98536e-05
3.44704e-05
5.07965e-05
6.88452e-05
8.86302e-05
0.00011015
0.000133392
0.000158348
0.000185022
0.000213418
0.000243534
0.000275353
0.00030886
0.000344047
0.000380919
0.000419476
0.000459707
0.000501594
0.000545121
0.000590285
0.000637085
0.000685518
0.000735569
0.000787217
0.000840445
0.000895243
0.000951607
0.00100953
0.00106899
0.00112997
0.00119243
0.00125636
0.00132175
0.00138858
0.00145683
0.00152646
0.00159745
0.00166976
0.00174336
0.00181822
0.00189433
0.00197164
0.00205011
0.0021297
0.00221036
0.00229205
0.00237473
0.00245836
0.0025429
0.0026283
0.00271449
0.00280141
0.002889
0.00297721
0.00306598
0.00315526
0.00324497
0.00333506
0.00342544
0.00351602
0.00360675
0.00369753
0.0037883
0.00387899
0.00396951
0.00405979
0.00414973
0.00423924
0.00432822
0.00441659
0.00450427
0.00459116
0.00467719
0.00476226
0.00484628
0.00492916
0.00501081
0.00509112
0.00517
0.00524737
0.00532314
0.00539724
0.00546957
0.00554007
0.00560864
0.00567521
0.0057397
0.00580202
0.00586212
0.00591992
0.00597537
0.0060284
0.00607897
0.00612704
0.00617256
0.0062155
0.00625582
0.00629349
0.0063285
0.00636082
0.00639045
0.00641738
0.00644164
0.00646322
0.00648218
0.00649853
0.00651232
0.0065236
0.00653244
0.0065389
0.00654306
0.006545
0.00654482
0.00654263
0.00653855
0.00653271
0.00652526
0.00651635
0.00650615
0.00649486
0.00648265
0.00646974
0.00645634
0.00644269
0.00642902
0.00641557
0.00640259
0.00639031
0.00637899
0.00636887
0.00636018
0.00635289
0.00634681
0.000106697
9.76432e-05
8.91714e-05
8.07587e-05
7.19035e-05
6.27359e-05
5.342e-05
4.4078e-05
3.4841e-05
2.58542e-05
1.72659e-05
9.22549e-06
1.87376e-06
-4.66095e-06
-1.02619e-05
-1.48168e-05
-1.82212e-05
-2.03869e-05
-2.12429e-05
-2.07228e-05
-1.87596e-05
-1.52971e-05
-1.02989e-05
-3.7363e-06
4.42414e-06
1.4216e-05
2.56621e-05
3.87703e-05
5.35449e-05
6.99986e-05
8.81484e-05
0.000108002
0.000129555
0.000152797
0.000177728
0.000204356
0.000232682
0.0002627
0.000294392
0.00032775
0.000362775
0.00039947
0.000437831
0.000477843
0.000519489
0.000562761
0.00060766
0.000654186
0.000702328
0.000752068
0.000803387
0.000856273
0.000910721
0.000966726
0.00102427
0.00108335
0.00114392
0.00120596
0.00126946
0.00133441
0.00140079
0.00146858
0.00153775
0.00160825
0.00168006
0.00175316
0.00182752
0.00190311
0.00197989
0.00205783
0.00213688
0.00221699
0.00229812
0.00238024
0.00246332
0.00254729
0.00263211
0.00271772
0.00280405
0.00289105
0.00297867
0.00306684
0.00315552
0.00324462
0.0033341
0.00342385
0.00351381
0.0036039
0.00369405
0.00378419
0.00387424
0.00396412
0.00405376
0.00414305
0.00423191
0.00432025
0.00440798
0.00449502
0.00458128
0.00466668
0.00475113
0.00483453
0.00491681
0.00499784
0.00507756
0.00515585
0.00523265
0.00530786
0.00538141
0.00545321
0.00552318
0.00559125
0.00565733
0.00572134
0.00578321
0.00584288
0.00590026
0.00595532
0.00600799
0.00605822
0.00610598
0.00615122
0.00619391
0.00623401
0.00627151
0.00630636
0.00633857
0.00636813
0.00639503
0.0064193
0.00644094
0.00645999
0.00647648
0.00649047
0.00650199
0.00651111
0.0065179
0.00652243
0.00652479
0.00652507
0.00652338
0.00651984
0.00651456
0.0065077
0.00649939
0.00648981
0.00647912
0.0064675
0.00645514
0.00644225
0.00642901
0.00641564
0.00640236
0.00638936
0.00637686
0.00636504
0.00635413
0.00634432
0.00633528
0.00632662
0.00012775
0.000115999
0.000105566
9.57062e-05
8.56987e-05
7.56566e-05
6.57131e-05
5.59617e-05
4.65098e-05
3.74693e-05
2.89586e-05
2.11008e-05
1.4011e-05
7.79431e-06
2.55399e-06
-1.60886e-06
-4.60653e-06
-6.36742e-06
-6.82562e-06
-5.91377e-06
-3.5709e-06
2.45127e-07
5.56493e-06
1.24233e-05
2.08576e-05
3.08955e-05
4.25513e-05
5.58318e-05
7.07497e-05
8.73245e-05
0.000105569
0.000125483
0.000147059
0.000170299
0.000195208
0.000221794
0.000250054
0.000279975
0.000311544
0.000344762
0.000379635
0.000416162
0.000454334
0.000494134
0.00053555
0.000578582
0.00062323
0.000669493
0.000717356
0.000766798
0.000817803
0.000870365
0.000924481
0.000980144
0.00103734
0.00109604
0.00115622
0.00121786
0.00128096
0.00134549
0.00141145
0.00147881
0.00154753
0.00161757
0.00168892
0.00176154
0.00183543
0.00191054
0.00198684
0.00206428
0.00214282
0.00222243
0.00230305
0.00238467
0.00246723
0.00255069
0.00263499
0.00272007
0.00280587
0.00289234
0.00297942
0.00306706
0.00315519
0.00324376
0.00333269
0.00342189
0.0035113
0.00360083
0.00369042
0.00378
0.00386949
0.00395882
0.00404789
0.00413662
0.00422491
0.00431269
0.00439986
0.00448635
0.00457206
0.00465692
0.00474083
0.0048237
0.00490545
0.00498597
0.00506517
0.00514296
0.00521926
0.00529399
0.00536707
0.00543841
0.00550793
0.00557557
0.00564123
0.00570483
0.00576631
0.0058256
0.00588263
0.00593735
0.0059897
0.00603965
0.00608714
0.00613213
0.0061746
0.00621452
0.00625185
0.00628657
0.00631868
0.00634817
0.00637504
0.0063993
0.00642098
0.0064401
0.00645671
0.00647084
0.00648255
0.0064919
0.00649895
0.00650378
0.00650647
0.00650712
0.00650583
0.0065027
0.00649787
0.00649146
0.00648362
0.00647449
0.00646424
0.00645304
0.00644105
0.00642845
0.00641543
0.00640217
0.00638884
0.00637563
0.00636271
0.00635022
0.00633836
0.00632729
0.00631643
0.00630513
0.000148785
0.000134413
0.000122022
0.000110681
9.94648e-05
8.84656e-05
7.78001e-05
6.75344e-05
5.77465e-05
4.85267e-05
3.997e-05
3.21697e-05
2.52183e-05
1.92072e-05
1.42265e-05
1.03591e-05
7.67393e-06
6.23317e-06
6.10354e-06
7.34675e-06
1.00075e-05
1.41191e-05
1.97155e-05
2.68354e-05
3.55122e-05
4.57643e-05
5.76005e-05
7.10327e-05
8.60817e-05
0.000102767
0.000121093
0.000141054
0.00016265
0.000185887
0.000210776
0.000237321
0.000265511
0.000295335
0.000326788
0.000359877
0.000394606
0.000430972
0.000468958
0.000508554
0.000549753
0.000592558
0.00063697
0.00068298
0.000730573
0.000779728
0.000830435
0.000882692
0.000936495
0.000991833
0.00104868
0.00110703
0.00116684
0.00122811
0.00129082
0.00135497
0.00142053
0.00148748
0.00155577
0.00162539
0.0016963
0.00176849
0.00184194
0.0019166
0.00199245
0.00206943
0.00214751
0.00222665
0.00230682
0.00238797
0.00247007
0.00255307
0.0026369
0.0027215
0.00280683
0.00289282
0.00297943
0.0030666
0.00315426
0.00324236
0.0033308
0.00341952
0.00350844
0.00359749
0.0036866
0.00377569
0.0038647
0.00395355
0.00404214
0.00413038
0.0042182
0.0043055
0.00439219
0.00447821
0.00456345
0.00464785
0.00473131
0.00481374
0.00489504
0.00497512
0.00505389
0.00513126
0.00520715
0.00528147
0.00535415
0.00542511
0.00549426
0.00556153
0.00562684
0.0056901
0.00575125
0.00581022
0.00586695
0.00592138
0.00597347
0.00602317
0.00607043
0.00611522
0.0061575
0.00619725
0.00623443
0.00626904
0.00630105
0.00633047
0.0063573
0.00638155
0.00640325
0.00642242
0.00643911
0.00645335
0.0064652
0.00647472
0.00648198
0.00648704
0.00648998
0.00649091
0.00648991
0.0064871
0.0064826
0.00647652
0.006469
0.00646019
0.00645024
0.00643929
0.0064275
0.00641504
0.00640207
0.00638873
0.0063752
0.00636162
0.00634812
0.00633483
0.0063219
0.00630949
0.00629677
0.00628286
0.000169449
0.00015253
0.000138223
0.000125406
0.000112943
0.000100927
8.94684e-05
7.86036e-05
6.83867e-05
5.8889e-05
5.01801e-05
4.23301e-05
3.54158e-05
2.95157e-05
2.47027e-05
2.10389e-05
1.8581e-05
1.73901e-05
1.75269e-05
1.90375e-05
2.19543e-05
2.6311e-05
3.21453e-05
3.94924e-05
4.83761e-05
5.88069e-05
7.07963e-05
8.43645e-05
9.95326e-05
0.000116312
0.000134701
0.000154698
0.000176309
0.000199545
0.000224414
0.000250913
0.000279029
0.000308758
0.000340102
0.00037307
0.000407663
0.00044387
0.000481676
0.000521075
0.000562069
0.000604662
0.000648848
0.000694617
0.000741949
0.00079083
0.000841256
0.000893225
0.000946732
0.00100176
0.00105829
0.00111629
0.00117576
0.00123667
0.00129903
0.00136281
0.001428
0.00149456
0.00156246
0.00163167
0.00170218
0.00177397
0.00184701
0.00192127
0.0019967
0.00207327
0.00215093
0.00222965
0.0023094
0.00239014
0.00247183
0.0025544
0.00263781
0.002722
0.00280691
0.00289249
0.00297868
0.00306544
0.00315269
0.00324037
0.0033284
0.00341671
0.00350521
0.00359385
0.00368255
0.00377124
0.00385984
0.00394828
0.00403646
0.00412431
0.00421172
0.00429862
0.00438493
0.00447055
0.00455542
0.00463945
0.00472254
0.0048046
0.00488554
0.00496526
0.00504368
0.0051207
0.00519625
0.00527025
0.00534261
0.00541325
0.0054821
0.00554907
0.00561409
0.00567707
0.00573795
0.00579666
0.00585315
0.00590734
0.00595921
0.0060087
0.00605577
0.00610038
0.00614251
0.00618211
0.00621917
0.00625367
0.0062856
0.00631495
0.00634174
0.00636597
0.00638767
0.00640687
0.00642361
0.00643792
0.00644987
0.00645951
0.00646691
0.00647213
0.00647526
0.00647638
0.00647559
0.006473
0.00646871
0.00646285
0.00645555
0.00644693
0.00643713
0.0064263
0.00641457
0.0064021
0.00638902
0.00637548
0.0063616
0.00634751
0.00633332
0.00631912
0.00630506
0.00629126
0.00627669
0.00626026
0.000189436
0.000170059
0.000153887
0.000139606
0.000125888
0.000112823
0.000100519
8.89916e-05
7.82744e-05
6.84163e-05
5.94663e-05
5.14806e-05
4.45211e-05
3.86494e-05
3.39182e-05
3.03752e-05
2.80751e-05
2.70734e-05
2.74136e-05
2.91275e-05
3.22455e-05
3.68046e-05
4.28403e-05
5.03772e-05
5.94287e-05
7.00053e-05
8.21263e-05
9.5815e-05
0.000111085
0.000127939
0.000146375
0.000166399
0.000188021
0.000211253
0.000236098
0.000262544
0.000290585
0.000320222
0.000351464
0.000384318
0.000418776
0.000454827
0.000492458
0.000531672
0.000572474
0.000614864
0.000658835
0.000704369
0.000751451
0.000800073
0.000850234
0.000901933
0.000955159
0.00100989
0.00106611
0.00112379
0.00118293
0.00124352
0.00130555
0.00136899
0.00143382
0.00150002
0.00156755
0.00163639
0.00170654
0.00177796
0.00185063
0.00192451
0.00199957
0.00207575
0.00215303
0.00223138
0.00231076
0.00239114
0.00247245
0.00255466
0.0026377
0.00272152
0.00280607
0.00289129
0.00297714
0.00306355
0.00315045
0.00323778
0.00332546
0.00341342
0.00350158
0.00358987
0.00367823
0.00376659
0.00385486
0.00394297
0.00403083
0.00411835
0.00420544
0.00429203
0.00437802
0.00446335
0.00454792
0.00463165
0.00471445
0.00479623
0.00487688
0.00495633
0.00503447
0.00511123
0.00518652
0.00526026
0.00533237
0.00540277
0.00547138
0.00553812
0.00560291
0.00566568
0.00572635
0.00578485
0.00584114
0.00589515
0.00594685
0.00599617
0.00604309
0.00608756
0.00612955
0.00616904
0.00620599
0.0062404
0.00627225
0.00630154
0.00632828
0.00635248
0.00637416
0.00639337
0.00641013
0.00642448
0.00643649
0.0064462
0.00645368
0.006459
0.00646224
0.00646348
0.00646282
0.00646036
0.00645619
0.00645045
0.00644324
0.0064347
0.00642494
0.0064141
0.00640232
0.00638971
0.0063764
0.00636252
0.00634819
0.00633349
0.00631853
0.00630336
0.00628812
0.00627293
0.00625654
0.00623769
0.000208486
0.000186754
0.000168765
0.000153043
0.000138076
0.000123947
0.000110764
9.85309e-05
8.72568e-05
7.69705e-05
6.7711e-05
5.95215e-05
5.24467e-05
4.65274e-05
4.18015e-05
3.83138e-05
3.61137e-05
3.524e-05
3.57201e-05
3.75812e-05
4.08561e-05
4.55795e-05
5.17774e-05
5.94625e-05
6.8645e-05
7.93419e-05
9.15762e-05
0.000105366
0.000120715
0.000137623
0.000156093
0.000176137
0.000197768
0.000220991
0.0002458
0.000272187
0.000300153
0.000329705
0.000360851
0.000393591
0.000427914
0.000463811
0.000501277
0.000540317
0.000580938
0.000623135
0.000666895
0.000712203
0.000759048
0.000807427
0.000857341
0.000908784
0.000961743
0.0010162
0.00107212
0.0011295
0.00118834
0.00124862
0.00131034
0.00137346
0.00143796
0.00150382
0.00157102
0.00163952
0.00170933
0.00178042
0.00185276
0.0019263
0.00200101
0.00207685
0.0021538
0.00223182
0.00231088
0.00239093
0.00247193
0.00255382
0.00263655
0.00272005
0.00280429
0.00288922
0.00297477
0.00306089
0.0031475
0.00323455
0.00332194
0.00340961
0.0034975
0.00358552
0.00367362
0.00376171
0.00384973
0.00393759
0.0040252
0.00411247
0.00419932
0.00428567
0.00437144
0.00445654
0.00454089
0.00462441
0.004707
0.00478857
0.00486902
0.00494827
0.00502621
0.00510278
0.00517788
0.00525144
0.00532338
0.00539361
0.00546205
0.00552862
0.00559325
0.00565585
0.00571637
0.00577473
0.00583087
0.00588474
0.00593631
0.00598551
0.00603231
0.00607667
0.00611856
0.00615795
0.00619481
0.00622914
0.00626091
0.00629014
0.00631683
0.00634099
0.00636265
0.00638184
0.00639859
0.00641296
0.00642498
0.00643472
0.00644223
0.0064476
0.00645088
0.00645217
0.00645156
0.00644914
0.00644502
0.00643929
0.00643209
0.00642352
0.0064137
0.00640275
0.00639079
0.00637794
0.0063643
0.00634999
0.00633511
0.00631973
0.00630393
0.00628774
0.00627131
0.00625474
0.00623659
0.00621545
0.000226366
0.000202381
0.000182637
0.000165507
0.000149304
0.00013411
0.000120032
0.00010706
9.51842e-05
8.44219e-05
7.48018e-05
6.63519e-05
5.90972e-05
5.3063e-05
4.82841e-05
4.48002e-05
4.26434e-05
4.1836e-05
4.23996e-05
4.43628e-05
4.77568e-05
5.26057e-05
5.89228e-05
6.67158e-05
7.59999e-05
8.67969e-05
9.9125e-05
0.000112991
0.000128395
0.000145339
0.000163833
0.000183892
0.000205524
0.000228727
0.000253491
0.000279815
0.000307708
0.00033718
0.000368232
0.000400857
0.000435046
0.000470793
0.000508102
0.00054698
0.000587429
0.000629439
0.000672995
0.000718085
0.000764707
0.000812859
0.000862541
0.000913743
0.000966447
0.00102063
0.00107628
0.00113339
0.00119194
0.00125194
0.00131337
0.00137619
0.00144039
0.00150594
0.00157283
0.00164103
0.00171054
0.00178133
0.00185336
0.0019266
0.002001
0.00207655
0.0021532
0.00223094
0.00230972
0.0023895
0.00247023
0.00255185
0.00263431
0.00271755
0.00280154
0.00288623
0.00297154
0.00305743
0.00314381
0.00323063
0.0033178
0.00340526
0.00349293
0.00358076
0.00366866
0.00375658
0.00384441
0.0039321
0.00401953
0.00410663
0.00419332
0.00427951
0.00436513
0.00445009
0.00453431
0.00461769
0.00470015
0.00478159
0.00486192
0.00494104
0.00501886
0.00509531
0.0051703
0.00524375
0.00531558
0.0053857
0.00545404
0.00552051
0.00558504
0.00564754
0.00570795
0.00576621
0.00582226
0.00587605
0.00592752
0.00597664
0.00602335
0.00606764
0.00610945
0.00614876
0.00618556
0.00621981
0.00625153
0.00628069
0.00630733
0.00633144
0.00635306
0.00637221
0.00638894
0.00640328
0.00641528
0.00642501
0.00643251
0.00643786
0.00644114
0.00644241
0.00644178
0.00643933
0.00643516
0.00642938
0.00642209
0.0064134
0.00640342
0.00639226
0.00638004
0.00636686
0.00635281
0.00633799
0.00632249
0.00630637
0.00628968
0.00627247
0.00625484
0.00623692
0.0062171
0.0061938
0.000242857
0.000216729
0.000195302
0.000176801
0.000159387
0.000143139
0.000128159
0.000114424
0.000101918
9.06491e-05
8.06276e-05
7.18653e-05
6.43741e-05
5.81758e-05
5.32999e-05
4.97695e-05
4.75992e-05
4.68045e-05
4.74078e-05
4.94363e-05
5.29112e-05
5.78428e-05
6.42374e-05
7.21065e-05
8.14696e-05
9.23454e-05
0.000104742
0.000118658
0.000134096
0.000151063
0.000169573
0.000189639
0.00021126
0.000234429
0.000259141
0.000285403
0.000313227
0.000342618
0.000373573
0.000406082
0.000440138
0.000475743
0.000512905
0.00055163
0.000591913
0.00063374
0.000677099
0.000721984
0.000768396
0.000816337
0.0008658
0.000916772
0.000969233
0.00102317
0.00107856
0.00113541
0.00119371
0.00125345
0.00131461
0.00137715
0.00144107
0.00150634
0.00157296
0.00164089
0.00171013
0.00178065
0.00185241
0.00192538
0.00199952
0.00207481
0.00215122
0.00222871
0.00230726
0.00238681
0.00246731
0.00254871
0.00263095
0.002714
0.00279779
0.00288229
0.00296742
0.00305313
0.00313935
0.003226
0.00331302
0.00340032
0.00348786
0.00357555
0.00366334
0.00375114
0.00383887
0.00392644
0.00401378
0.00410079
0.0041874
0.00427352
0.00435906
0.00444396
0.00452812
0.00461145
0.00469385
0.00477524
0.00485551
0.00493458
0.00501236
0.00508877
0.00516372
0.00523713
0.00530892
0.00537901
0.00544731
0.00551374
0.00557822
0.00564068
0.00570104
0.00575926
0.00581526
0.005869
0.00592043
0.0059695
0.00601617
0.0060604
0.00610216
0.00614142
0.00617816
0.00621236
0.00624401
0.00627313
0.0062997
0.00632376
0.00634533
0.00636443
0.0063811
0.00639539
0.00640734
0.00641701
0.00642446
0.00642975
0.00643296
0.00643416
0.00643344
0.00643089
0.00642661
0.00642069
0.00641323
0.00640435
0.00639413
0.00638269
0.00637013
0.00635653
0.006342
0.00632661
0.00631043
0.00629353
0.00627595
0.00625769
0.00623889
0.00621965
0.00619824
0.00617293
0.000257767
0.000229613
0.000206578
0.000186755
0.000168161
0.000150872
0.000134988
0.000120483
0.000107333
9.55319e-05
8.50725e-05
7.59549e-05
6.8189e-05
6.17914e-05
5.67754e-05
5.3147e-05
5.09136e-05
5.00913e-05
5.07006e-05
5.27583e-05
5.62721e-05
6.12442e-05
6.76832e-05
7.56052e-05
8.50264e-05
9.59551e-05
0.000108391
0.000122333
0.000137788
0.00015477
0.000173289
0.000193348
0.000214941
0.000238065
0.000262723
0.000288925
0.00031668
0.000345988
0.00037684
0.000409231
0.000443159
0.000478632
0.000515656
0.000554233
0.000594352
0.000636002
0.000679173
0.000723866
0.000770084
0.000817826
0.000867081
0.000917834
0.000970065
0.00102376
0.00107892
0.00113553
0.0011936
0.0012531
0.00131401
0.00137631
0.00143997
0.00150499
0.00157136
0.00163906
0.00170806
0.00177834
0.00184987
0.00192261
0.00199652
0.0020716
0.0021478
0.00222511
0.00230346
0.00238283
0.00246315
0.00254438
0.00262646
0.00270935
0.002793
0.00287737
0.00296238
0.00304798
0.00313408
0.00322063
0.00330755
0.00339477
0.00348224
0.00356987
0.00365761
0.00374536
0.00383306
0.00392061
0.00400792
0.00409492
0.00418152
0.00426764
0.00435319
0.0044381
0.00452228
0.00460563
0.00468806
0.00476947
0.00484977
0.00492886
0.00500667
0.00508311
0.00515809
0.00523153
0.00530335
0.00537346
0.00544179
0.00550824
0.00557274
0.00563521
0.00569558
0.0057538
0.00580981
0.00586355
0.00591497
0.00596403
0.00601068
0.00605489
0.00609663
0.00613586
0.00617255
0.00620671
0.00623832
0.00626738
0.00629389
0.00631789
0.00633939
0.00635842
0.00637502
0.00638923
0.0064011
0.00641068
0.00641803
0.00642322
0.00642631
0.00642738
0.00642652
0.00642381
0.00641935
0.00641322
0.00640553
0.00639638
0.00638586
0.00637406
0.00636109
0.00634702
0.00633195
0.00631593
0.00629905
0.00628134
0.00626283
0.00624354
0.0062236
0.0062031
0.00618019
0.00615301
0.00027094
0.000240869
0.000216306
0.000195212
0.000175466
0.000157155
0.000140383
0.000125111
0.000111307
9.89494e-05
8.80229e-05
7.85247e-05
7.04595e-05
6.38284e-05
5.86281e-05
5.4858e-05
5.25257e-05
5.16455e-05
5.22279e-05
5.42754e-05
5.77868e-05
6.27659e-05
6.92253e-05
7.7179e-05
8.66329e-05
9.75858e-05
0.000110035
0.000123985
0.000139446
0.000156432
0.000174945
0.000194981
0.000216534