0.05 	0.0003125 	0.005 	-0.00117381 	7.02607e-07 	0
0.05 	0.0009375 	0.005 	-0.00336212 	4.50129e-06 	0
0.05 	0.0015625 	0.005 	-0.00539489 	1.24856e-05 	0
0.05 	0.0021875 	0.005 	-0.00727656 	2.36395e-05 	0
0.05 	0.0028125 	0.005 	-0.00901214 	3.73507e-05 	0
0.05 	0.0034375 	0.005 	-0.0106073 	5.32348e-05 	0
0.05 	0.0040625 	0.005 	-0.0120684 	7.09391e-05 	0
0.05 	0.0046875 	0.005 	-0.0134022 	9.01511e-05 	0
0.05 	0.0053125 	0.005 	-0.014616 	0.000110608 	0
0.05 	0.0059375 	0.005 	-0.0157174 	0.000132092 	0
0.05 	0.0065625 	0.005 	-0.0167142 	0.000154423 	0
0.05 	0.0071875 	0.005 	-0.0176146 	0.000177457 	0
0.05 	0.0078125 	0.005 	-0.0184265 	0.000201084 	0
0.05 	0.0084375 	0.005 	-0.019158 	0.00022522 	0
0.05 	0.0090625 	0.005 	-0.019817 	0.000249806 	0
0.05 	0.0096875 	0.005 	-0.0204111 	0.000274805 	0
0.05 	0.0103125 	0.005 	-0.0209478 	0.000300201 	0
0.05 	0.0109375 	0.005 	-0.0214341 	0.000325991 	0
0.05 	0.0115625 	0.005 	-0.0218768 	0.00035219 	0
0.05 	0.0121875 	0.005 	-0.022282 	0.000378821 	0
0.05 	0.0128125 	0.005 	-0.0226557 	0.000405918 	0
0.05 	0.0134375 	0.005 	-0.0230031 	0.000433525 	0
0.05 	0.0140625 	0.005 	-0.0233292 	0.00046169 	0
0.05 	0.0146875 	0.005 	-0.0236385 	0.000490466 	0
0.05 	0.0153125 	0.005 	-0.0239349 	0.000519911 	0
0.05 	0.0159375 	0.005 	-0.024222 	0.000550087 	0
0.05 	0.0165625 	0.005 	-0.024503 	0.000581056 	0
0.05 	0.0171875 	0.005 	-0.0247806 	0.000612886 	0
0.05 	0.0178125 	0.005 	-0.0250574 	0.000645643 	0
0.05 	0.0184375 	0.005 	-0.0253355 	0.000679397 	0
0.05 	0.0190625 	0.005 	-0.0256166 	0.000714217 	0
0.05 	0.0196875 	0.005 	-0.0259025 	0.000750174 	0
0.05 	0.0203125 	0.005 	-0.0261944 	0.000787339 	0
0.05 	0.0209375 	0.005 	-0.0264935 	0.000825785 	0
0.05 	0.0215625 	0.005 	-0.0268008 	0.000865585 	0
0.05 	0.0221875 	0.005 	-0.0271171 	0.000906814 	0
0.05 	0.0228125 	0.005 	-0.0274432 	0.000949548 	0
0.05 	0.0234375 	0.005 	-0.0277796 	0.000993865 	0
0.05 	0.0240625 	0.005 	-0.0281269 	0.00103985 	0
0.05 	0.0246875 	0.005 	-0.0284855 	0.00108757 	0
0.05 	0.0253125 	0.005 	-0.0288558 	0.00113713 	0
0.05 	0.0259375 	0.005 	-0.0292381 	0.00118859 	0
0.05 	0.0265625 	0.005 	-0.0296327 	0.00124206 	0
0.05 	0.0271875 	0.005 	-0.0300398 	0.00129762 	0
0.05 	0.0278125 	0.005 	-0.0304597 	0.00135537 	0
0.05 	0.0284375 	0.005 	-0.0308926 	0.0014154 	0
0.05 	0.0290625 	0.005 	-0.0313387 	0.00147781 	0
0.05 	0.0296875 	0.005 	-0.0317982 	0.00154271 	0
0.05 	0.0303125 	0.005 	-0.0322711 	0.00161021 	0
0.05 	0.0309375 	0.005 	-0.0327578 	0.0016804 	0
0.05 	0.0315625 	0.005 	-0.0332583 	0.00175342 	0
0.05 	0.0321875 	0.005 	-0.0337728 	0.00182936 	0
0.05 	0.0328125 	0.005 	-0.0343015 	0.00190836 	0
0.05 	0.0334375 	0.005 	-0.0348444 	0.00199054 	0
0.05 	0.0340625 	0.005 	-0.0354018 	0.00207603 	0
0.05 	0.0346875 	0.005 	-0.0359737 	0.00216497 	0
0.05 	0.0353125 	0.005 	-0.0365604 	0.00225748 	0
0.05 	0.0359375 	0.005 	-0.0371619 	0.00235372 	0
0.05 	0.0365625 	0.005 	-0.0377783 	0.00245383 	0
0.05 	0.0371875 	0.005 	-0.0384099 	0.00255796 	0
0.05 	0.0378125 	0.005 	-0.0390566 	0.00266626 	0
0.05 	0.0384375 	0.005 	-0.0397188 	0.0027789 	0
0.05 	0.0390625 	0.005 	-0.0403963 	0.00289604 	0
0.05 	0.0396875 	0.005 	-0.0410895 	0.00301784 	0
0.05 	0.0403125 	0.005 	-0.0417983 	0.00314448 	0
0.05 	0.0409375 	0.005 	-0.0425229 	0.00327613 	0
0.05 	0.0415625 	0.005 	-0.0432633 	0.00341297 	0
0.05 	0.0421875 	0.005 	-0.0440197 	0.00355519 	0
0.05 	0.0428125 	0.005 	-0.0447922 	0.00370298 	0
0.05 	0.0434375 	0.005 	-0.0455807 	0.00385652 	0
0.05 	0.0440625 	0.005 	-0.0463853 	0.00401601 	0
0.05 	0.0446875 	0.005 	-0.0472062 	0.00418164 	0
0.05 	0.0453125 	0.005 	-0.0480433 	0.00435362 	0
0.05 	0.0459375 	0.005 	-0.0488966 	0.00453215 	0
0.05 	0.0465625 	0.005 	-0.0497662 	0.00471743 	0
0.05 	0.0471875 	0.005 	-0.0506521 	0.00490966 	0
0.05 	0.0478125 	0.005 	-0.0515542 	0.00510905 	0
0.05 	0.0484375 	0.005 	-0.0524724 	0.00531581 	0
0.05 	0.0490625 	0.005 	-0.0534068 	0.00553014 	0
0.05 	0.0496875 	0.005 	-0.0543573 	0.00575224 	0
0.05 	0.0503125 	0.005 	-0.0553237 	0.00598232 	0
0.05 	0.0509375 	0.005 	-0.056306 	0.00622057 	0
0.05 	0.0515625 	0.005 	-0.057304 	0.00646719 	0
0.05 	0.0521875 	0.005 	-0.0583175 	0.00672237 	0
0.05 	0.0528125 	0.005 	-0.0593464 	0.00698629 	0
0.05 	0.0534375 	0.005 	-0.0603905 	0.00725913 	0
0.05 	0.0540625 	0.005 	-0.0614494 	0.00754105 	0
0.05 	0.0546875 	0.005 	-0.062523 	0.00783221 	0
0.05 	0.0553125 	0.005 	-0.0636109 	0.00813275 	0
0.05 	0.0559375 	0.005 	-0.0647129 	0.00844281 	0
0.05 	0.0565625 	0.005 	-0.0658285 	0.00876251 	0
0.05 	0.0571875 	0.005 	-0.0669574 	0.00909193 	0
0.05 	0.0578125 	0.005 	-0.0680991 	0.00943116 	0
0.05 	0.0584375 	0.005 	-0.0692532 	0.00978026 	0
0.05 	0.0590625 	0.005 	-0.0704192 	0.0101393 	0
0.05 	0.0596875 	0.005 	-0.0715966 	0.0105082 	0
0.05 	0.0603125 	0.005 	-0.0727848 	0.010887 	0
0.05 	0.0609375 	0.005 	-0.0739831 	0.0112757 	0
0.05 	0.0615625 	0.005 	-0.075191 	0.0116741 	0
0.05 	0.0621875 	0.005 	-0.0764076 	0.0120822 	0
0.05 	0.0628125 	0.005 	-0.0776323 	0.0124999 	0
0.05 	0.0634375 	0.005 	-0.0788643 	0.0129268 	0
0.05 	0.0640625 	0.005 	-0.0801026 	0.0133627 	0
0.05 	0.0646875 	0.005 	-0.0813464 	0.0138075 	0
0.05 	0.0653125 	0.005 	-0.0825944 	0.0142607 	0
0.05 	0.0659375 	0.005 	-0.0838457 	0.014722 	0
0.05 	0.0665625 	0.005 	-0.0850989 	0.0151908 	0
0.05 	0.0671875 	0.005 	-0.0863525 	0.0156667 	0
0.05 	0.0678125 	0.005 	-0.0876048 	0.0161491 	0
0.05 	0.0684375 	0.005 	-0.088854 	0.0166373 	0
0.05 	0.0690625 	0.005 	-0.0900977 	0.0171306 	0
0.05 	0.0696875 	0.005 	-0.0913333 	0.0176281 	0
0.05 	0.0703125 	0.005 	-0.0925575 	0.018129 	0
0.05 	0.0709375 	0.005 	-0.0937663 	0.018632 	0
0.05 	0.0715625 	0.005 	-0.0949552 	0.0191362 	0
0.05 	0.0721875 	0.005 	-0.0961181 	0.0196401 	0
0.05 	0.0728125 	0.005 	-0.097248 	0.0201423 	0
0.05 	0.0734375 	0.005 	-0.0983362 	0.0206412 	0
0.05 	0.0740625 	0.005 	-0.0993717 	0.021135 	0
0.05 	0.0746875 	0.005 	-0.100342 	0.0216216 	0
0.05 	0.0753125 	0.005 	-0.10123 	0.0220987 	0
0.05 	0.0759375 	0.005 	-0.102016 	0.0225638 	0
0.05 	0.0765625 	0.005 	-0.102677 	0.0230141 	0
0.05 	0.0771875 	0.005 	-0.103184 	0.0234464 	0
0.05 	0.0778125 	0.005 	-0.103501 	0.0238572 	0
0.05 	0.0784375 	0.005 	-0.103589 	0.0242427 	0
0.05 	0.0790625 	0.005 	-0.103396 	0.0245984 	0
0.05 	0.0796875 	0.005 	-0.102867 	0.0249199 	0
0.05 	0.0803125 	0.005 	-0.101931 	0.0252018 	0
0.05 	0.0809375 	0.005 	-0.100512 	0.0254388 	0
0.05 	0.0815625 	0.005 	-0.098516 	0.0256246 	0
0.05 	0.0821875 	0.005 	-0.0958401 	0.0257531 	0
0.05 	0.0828125 	0.005 	-0.0923654 	0.0258175 	0
0.05 	0.0834375 	0.005 	-0.0879581 	0.0258106 	0
0.05 	0.0840625 	0.005 	-0.0824689 	0.0257254 	0
0.05 	0.0846875 	0.005 	-0.0757325 	0.0255546 	0
0.05 	0.0853125 	0.005 	-0.0675679 	0.0252908 	0
0.05 	0.0859375 	0.005 	-0.0577786 	0.0249272 	0
0.05 	0.0865625 	0.005 	-0.0461537 	0.0244573 	0
0.05 	0.0871875 	0.005 	-0.0324692 	0.0238754 	0
0.05 	0.0878125 	0.005 	-0.0164903 	0.0231766 	0
0.05 	0.0884375 	0.005 	0.00202579 	0.0223578 	0
0.05 	0.0890625 	0.005 	0.023327 	0.0214171 	0
0.05 	0.0896875 	0.005 	0.0476618 	0.0203551 	0
0.05 	0.0903125 	0.005 	0.0752745 	0.0191748 	0
0.05 	0.0909375 	0.005 	0.1064 	0.017882 	0
0.05 	0.0915625 	0.005 	0.141259 	0.016486 	0
0.05 	0.0921875 	0.005 	0.180047 	0.0149998 	0
0.05 	0.0928125 	0.005 	0.222933 	0.0134403 	0
0.05 	0.0934375 	0.005 	0.270047 	0.0118287 	0
0.05 	0.0940625 	0.005 	0.321474 	0.0101908 	0
0.05 	0.0946875 	0.005 	0.377243 	0.00855637 	0
0.05 	0.0953125 	0.005 	0.43732 	0.00695914 	0
0.05 	0.0959375 	0.005 	0.501599 	0.00543611 	0
0.05 	0.0965625 	0.005 	0.569891 	0.00402652 	0
0.05 	0.0971875 	0.005 	0.641919 	0.00277057 	0
0.05 	0.0978125 	0.005 	0.717308 	0.0017067 	0
0.05 	0.0984375 	0.005 	0.795587 	0.000868552 	0
0.05 	0.0990625 	0.005 	0.876183 	0.000294958 	0
0.05 	0.0996875 	0.005 	0.958429 	4.00946e-05 	0
