0.05 	0.0003125 	0.005 	0.00376352
0.05 	0.0009375 	0.005 	0.00376658
0.05 	0.0015625 	0.005 	0.00376878
0.05 	0.0021875 	0.005 	0.00377033
0.05 	0.0028125 	0.005 	0.00377145
0.05 	0.0034375 	0.005 	0.0037721
0.05 	0.0040625 	0.005 	0.00377227
0.05 	0.0046875 	0.005 	0.00377194
0.05 	0.0053125 	0.005 	0.00377112
0.05 	0.0059375 	0.005 	0.00376981
0.05 	0.0065625 	0.005 	0.003768
0.05 	0.0071875 	0.005 	0.00376569
0.05 	0.0078125 	0.005 	0.00376289
0.05 	0.0084375 	0.005 	0.00375959
0.05 	0.0090625 	0.005 	0.00375579
0.05 	0.0096875 	0.005 	0.00375145
0.05 	0.0103125 	0.005 	0.00374658
0.05 	0.0109375 	0.005 	0.00374115
0.05 	0.0115625 	0.005 	0.00373513
0.05 	0.0121875 	0.005 	0.00372853
0.05 	0.0128125 	0.005 	0.00372132
0.05 	0.0134375 	0.005 	0.0037135
0.05 	0.0140625 	0.005 	0.00370508
0.05 	0.0146875 	0.005 	0.00369603
0.05 	0.0153125 	0.005 	0.00368636
0.05 	0.0159375 	0.005 	0.00367604
0.05 	0.0165625 	0.005 	0.00366505
0.05 	0.0171875 	0.005 	0.00365336
0.05 	0.0178125 	0.005 	0.00364097
0.05 	0.0184375 	0.005 	0.00362784
0.05 	0.0190625 	0.005 	0.00361396
0.05 	0.0196875 	0.005 	0.00359931
0.05 	0.0203125 	0.005 	0.00358388
0.05 	0.0209375 	0.005 	0.00356762
0.05 	0.0215625 	0.005 	0.00355049
0.05 	0.0221875 	0.005 	0.00353246
0.05 	0.0228125 	0.005 	0.00351348
0.05 	0.0234375 	0.005 	0.00349351
0.05 	0.0240625 	0.005 	0.00347251
0.05 	0.0246875 	0.005 	0.00345045
0.05 	0.0253125 	0.005 	0.00342732
0.05 	0.0259375 	0.005 	0.00340307
0.05 	0.0265625 	0.005 	0.00337767
0.05 	0.0271875 	0.005 	0.00335106
0.05 	0.0278125 	0.005 	0.0033232
0.05 	0.0284375 	0.005 	0.00329403
0.05 	0.0290625 	0.005 	0.00326351
0.05 	0.0296875 	0.005 	0.00323159
0.05 	0.0303125 	0.005 	0.00319823
0.05 	0.0309375 	0.005 	0.00316337
0.05 	0.0315625 	0.005 	0.00312692
0.05 	0.0321875 	0.005 	0.00308881
0.05 	0.0328125 	0.005 	0.00304895
0.05 	0.0334375 	0.005 	0.00300728
0.05 	0.0340625 	0.005 	0.00296373
0.05 	0.0346875 	0.005 	0.00291824
0.05 	0.0353125 	0.005 	0.00287074
0.05 	0.0359375 	0.005 	0.00282113
0.05 	0.0365625 	0.005 	0.00276934
0.05 	0.0371875 	0.005 	0.00271526
0.05 	0.0378125 	0.005 	0.0026588
0.05 	0.0384375 	0.005 	0.00259988
0.05 	0.0390625 	0.005 	0.00253839
0.05 	0.0396875 	0.005 	0.00247423
0.05 	0.0403125 	0.005 	0.00240725
0.05 	0.0409375 	0.005 	0.00233732
0.05 	0.0415625 	0.005 	0.00226432
0.05 	0.0421875 	0.005 	0.00218813
0.05 	0.0428125 	0.005 	0.00210864
0.05 	0.0434375 	0.005 	0.00202572
0.05 	0.0440625 	0.005 	0.00193924
0.05 	0.0446875 	0.005 	0.00184907
0.05 	0.0453125 	0.005 	0.00175507
0.05 	0.0459375 	0.005 	0.00165712
0.05 	0.0465625 	0.005 	0.00155508
0.05 	0.0471875 	0.005 	0.0014488
0.05 	0.0478125 	0.005 	0.0013381
0.05 	0.0484375 	0.005 	0.0012228
0.05 	0.0490625 	0.005 	0.00110274
0.05 	0.0496875 	0.005 	0.000977736
0.05 	0.0503125 	0.005 	0.000847631
0.05 	0.0509375 	0.005 	0.000712245
0.05 	0.0515625 	0.005 	0.000571399
0.05 	0.0521875 	0.005 	0.000424927
0.05 	0.0528125 	0.005 	0.000272674
0.05 	0.0534375 	0.005 	0.000114486
0.05 	0.0540625 	0.005 	-4.98105e-05
0.05 	0.0546875 	0.005 	-0.000220402
0.05 	0.0553125 	0.005 	-0.000397473
0.05 	0.0559375 	0.005 	-0.000581201
0.05 	0.0565625 	0.005 	-0.000771767
0.05 	0.0571875 	0.005 	-0.000969362
0.05 	0.0578125 	0.005 	-0.00117417
0.05 	0.0584375 	0.005 	-0.00138638
0.05 	0.0590625 	0.005 	-0.00160613
0.05 	0.0596875 	0.005 	-0.00183357
0.05 	0.0603125 	0.005 	-0.00206885
0.05 	0.0609375 	0.005 	-0.00231213
0.05 	0.0615625 	0.005 	-0.00256352
0.05 	0.0621875 	0.005 	-0.00282315
0.05 	0.0628125 	0.005 	-0.00309116
0.05 	0.0634375 	0.005 	-0.00336767
0.05 	0.0640625 	0.005 	-0.0036528
0.05 	0.0646875 	0.005 	-0.00394663
0.05 	0.0653125 	0.005 	-0.00424925
0.05 	0.0659375 	0.005 	-0.00456074
0.05 	0.0665625 	0.005 	-0.00488113
0.05 	0.0671875 	0.005 	-0.00521044
0.05 	0.0678125 	0.005 	-0.00554867
0.05 	0.0684375 	0.005 	-0.00589584
0.05 	0.0690625 	0.005 	-0.00625189
0.05 	0.0696875 	0.005 	-0.00661677
0.05 	0.0703125 	0.005 	-0.00699042
0.05 	0.0709375 	0.005 	-0.00737274
0.05 	0.0715625 	0.005 	-0.0077636
0.05 	0.0721875 	0.005 	-0.00816282
0.05 	0.0728125 	0.005 	-0.00857021
0.05 	0.0734375 	0.005 	-0.00898552
0.05 	0.0740625 	0.005 	-0.00940843
0.05 	0.0746875 	0.005 	-0.00983862
0.05 	0.0753125 	0.005 	-0.0102757
0.05 	0.0759375 	0.005 	-0.0107192
0.05 	0.0765625 	0.005 	-0.0111686
0.05 	0.0771875 	0.005 	-0.0116233
0.05 	0.0778125 	0.005 	-0.0120827
0.05 	0.0784375 	0.005 	-0.0125461
0.05 	0.0790625 	0.005 	-0.0130124
0.05 	0.0796875 	0.005 	-0.0134808
0.05 	0.0803125 	0.005 	-0.0139501
0.05 	0.0809375 	0.005 	-0.014419
0.05 	0.0815625 	0.005 	-0.0148862
0.05 	0.0821875 	0.005 	-0.01535
0.05 	0.0828125 	0.005 	-0.0158086
0.05 	0.0834375 	0.005 	-0.0162601
0.05 	0.0840625 	0.005 	-0.0167025
0.05 	0.0846875 	0.005 	-0.0171333
0.05 	0.0853125 	0.005 	-0.0175502
0.05 	0.0859375 	0.005 	-0.0179505
0.05 	0.0865625 	0.005 	-0.0183315
0.05 	0.0871875 	0.005 	-0.0186902
0.05 	0.0878125 	0.005 	-0.0190238
0.05 	0.0884375 	0.005 	-0.0193293
0.05 	0.0890625 	0.005 	-0.0196041
0.05 	0.0896875 	0.005 	-0.0198455
0.05 	0.0903125 	0.005 	-0.0200513
0.05 	0.0909375 	0.005 	-0.0202195
0.05 	0.0915625 	0.005 	-0.020349
0.05 	0.0921875 	0.005 	-0.020439
0.05 	0.0928125 	0.005 	-0.0204896
0.05 	0.0934375 	0.005 	-0.0205015
0.05 	0.0940625 	0.005 	-0.0204766
0.05 	0.0946875 	0.005 	-0.0204173
0.05 	0.0953125 	0.005 	-0.020327
0.05 	0.0959375 	0.005 	-0.0202098
0.05 	0.0965625 	0.005 	-0.0200699
0.05 	0.0971875 	0.005 	-0.0199121
0.05 	0.0978125 	0.005 	-0.019742
0.05 	0.0984375 	0.005 	-0.0195649
0.05 	0.0990625 	0.005 	-0.0193699
0.05 	0.0996875 	0.005 	-0.0191443
