/*--------------------------------*- C++ -*----------------------------------*\
  =========                 |
  \\      /  F ield         | OpenFOAM: The Open Source CFD Toolbox
   \\    /   O peration     | Website:  https://openfoam.org
    \\  /    A nd           | Version:  7
     \\/     M anipulation  |
\*---------------------------------------------------------------------------*/
FoamFile
{
    version     2.0;
    format      ascii;
    class       volScalarField;
    location    "0.15";
    object      p;
}
// * * * * * * * * * * * * * * * * * * * * * * * * * * * * * * * * * * * * * //

dimensions      [0 2 -2 0 0 0 0];

internalField   nonuniform List<scalar> 
6400
(
-1.74635e-07
1.22481e-05
-0.000492833
-0.00152277
-0.00296162
-0.00469921
-0.00663525
-0.00868042
-0.0107577
-0.0128019
-0.0147577
-0.0165792
-0.0182282
-0.0196729
-0.0208877
-0.0218517
-0.022549
-0.0229672
-0.0230978
-0.0229354
-0.0224775
-0.0217241
-0.0206777
-0.0193429
-0.0177261
-0.0158356
-0.0136812
-0.0112743
-0.00862739
-0.00575441
-0.00267033
0.00060882
0.00406612
0.0076837
0.0114429
0.0153245
0.0193084
0.023374
0.0275004
0.0316661
0.0358493
0.0400278
0.0441796
0.0482824
0.0523139
0.0562522
0.0600754
0.0637622
0.0672916
0.0706433
0.073798
0.0767372
0.0794435
0.0819009
0.0840948
0.0860123
0.087642
0.0889749
0.0900038
0.0907242
0.0911342
0.0912345
0.0910292
0.0905258
0.0897353
0.0886729
0.0873577
0.0858138
0.0840707
0.0821635
0.080134
0.0780311
0.0759123
0.0738443
0.0719047
0.0701816
0.0687721
0.0677801
0.0673123
0.0673491
-1.03234e-05
2.92537e-06
-0.000449326
-0.00133015
-0.00254086
-0.00400245
-0.005639
-0.00737829
-0.00915518
-0.0109126
-0.0126009
-0.0141778
-0.0156071
-0.0168589
-0.017908
-0.0187341
-0.0193208
-0.0196557
-0.0197297
-0.0195367
-0.0190735
-0.0183391
-0.017335
-0.0160648
-0.0145338
-0.0127494
-0.0107201
-0.00845608
-0.00596889
-0.0032712
-0.000376765
0.0026996
0.00594219
0.00933443
0.0128589
0.0164976
0.0202318
0.0240423
0.0279093
0.0318128
0.0357322
0.0396471
0.0435366
0.0473799
0.0511563
0.0548451
0.0584263
0.0618797
0.065186
0.0683265
0.0712833
0.0740394
0.0765789
0.0788872
0.0809513
0.0827593
0.0843015
0.0855698
0.0865585
0.0872638
0.0876849
0.0878232
0.0876836
0.087274
0.0866056
0.0856934
0.0845565
0.0832181
0.0817062
0.0800542
0.0783008
0.0764909
0.0746758
0.0729138
0.0712703
0.0698162
0.068625
0.0677711
0.067348
0.0673858
0.000497016
0.000458899
6.16976e-06
-0.000807581
-0.00189539
-0.00319429
-0.00464316
-0.00618188
-0.00775492
-0.00931243
-0.0108102
-0.0122098
-0.0134778
-0.0145861
-0.0155108
-0.0162324
-0.016735
-0.0170061
-0.0170366
-0.0168202
-0.0163531
-0.0156339
-0.0146636
-0.0134448
-0.0119822
-0.0102823
-0.00835278
-0.00620302
-0.00384354
-0.0012861
0.00145646
0.00437034
0.00744081
0.0106523
0.0139886
0.0174325
0.0209665
0.0245724
0.0282315
0.0319249
0.0356332
0.0393371
0.0430168
0.0466528
0.0502255
0.0537155
0.0571038
0.0603715
0.0635005
0.0664733
0.0692731
0.0718842
0.0742918
0.0764825
0.0784441
0.0801659
0.0816392
0.0828567
0.0838134
0.0845065
0.0849354
0.0851024
0.0850124
0.0846736
0.0840971
0.0832974
0.0822929
0.0811058
0.0797627
0.0782944
0.0767368
0.0751304
0.0735211
0.0719599
0.0705023
0.0692078
0.0681356
0.0673457
0.0669235
0.0669202
0.00152969
0.00134461
0.000821949
4.68658e-06
-0.00104068
-0.00226089
-0.00360436
-0.0050203
-0.00646116
-0.0078835
-0.00924825
-0.0105208
-0.011671
-0.0126728
-0.013504
-0.0141463
-0.0145845
-0.0148068
-0.014804
-0.01457
-0.0141009
-0.0133951
-0.012453
-0.0112769
-0.009871
-0.00824103
-0.00639423
-0.00433914
-0.00208557
0.000355493
0.00297199
0.00575094
0.00867847
0.0117399
0.0149197
0.0182019
0.0215695
0.0250055
0.0284921
0.0320112
0.0355445
0.0390736
0.0425798
0.0460444
0.0494489
0.0527748
0.0560042
0.0591191
0.0621024
0.0649375
0.0676087
0.0701012
0.072401
0.0744955
0.0763735
0.0780251
0.079442
0.0806179
0.0815481
0.0822302
0.0826641
0.0828522
0.0827997
0.0825144
0.082007
0.0812915
0.0803853
0.0793092
0.0780881
0.0767504
0.0753285
0.0738592
0.072383
0.0709445
0.0695919
0.0683755
0.0673457
0.066554
0.0660682
0.0659321
0.00297679
0.00256565
0.00191531
0.00104512
-7.81479e-06
-0.00119879
-0.00248408
-0.00382151
-0.00517081
-0.00649456
-0.00775873
-0.00893271
-0.00998952
-0.0109055
-0.0116606
-0.0122376
-0.0126227
-0.0128046
-0.0127746
-0.0125269
-0.0120576
-0.0113649
-0.0104492
-0.00931248
-0.00795837
-0.0063922
-0.00462065
-0.00265168
-0.000494472
0.00184072
0.00434253
0.00699871
0.00979618
0.012721
0.0157586
0.0188936
0.02211
0.0253915
0.0287214
0.0320823
0.0354568
0.0388274
0.0421763
0.0454858
0.0487381
0.0519158
0.0550017
0.0579788
0.0608308
0.0635421
0.0660978
0.0684837
0.0706867
0.0726951
0.0744981
0.0760866
0.0774529
0.0785908
0.0794964
0.0801676
0.0806043
0.0808091
0.0807869
0.0805452
0.0800942
0.0794471
0.07862
0.0776325
0.0765071
0.0752698
0.0739499
0.0725798
0.0711953
0.0698353
0.0685408
0.067354
0.0663183
0.0654771
0.0648714
0.0645236
0.00473645
0.00404911
0.00322822
0.00226498
0.00116326
-3.99323e-05
-0.00130745
-0.00260471
-0.00389823
-0.00515625
-0.00634944
-0.00745109
-0.00843743
-0.00928746
-0.009983
-0.0105086
-0.0108515
-0.0110015
-0.0109505
-0.010693
-0.0102253
-0.00954596
-0.00865501
-0.00755428
-0.00624723
-0.00473878
-0.00303514
-0.00114377
0.00092671
0.00316657
0.00556513
0.00811083
0.0107913
0.0135933
0.0165029
0.0195055
0.022586
0.0257288
0.0289179
0.0321368
0.0353689
0.0385975
0.0418056
0.0449763
0.0480927
0.0511382
0.0540961
0.0569505
0.0596858
0.0622871
0.0647402
0.0670316
0.0691489
0.0710809
0.0728175
0.07435
0.075671
0.0767749
0.0776578
0.0783179
0.0787553
0.0789722
0.0789734
0.0787658
0.0783589
0.077765
0.076999
0.0760787
0.0750246
0.07386
0.072611
0.0713063
0.0699772
0.0686568
0.0673801
0.066182
0.0650997
0.0641695
0.0634013
0.0627908
0.00671841
0.00572669
0.00470549
0.00361781
0.0024336
0.00118332
-0.000101263
-0.00139216
-0.00266192
-0.00388402
-0.00503345
-0.00608729
-0.00702479
-0.00782761
-0.00847965
-0.00896723
-0.00927885
-0.00940524
-0.00933928
-0.00907593
-0.00861198
-0.00794595
-0.00707802
-0.00601004
-0.00474526
-0.00328829
-0.00164502
0.000177471
0.00217101
0.00432642
0.00663357
0.00908149
0.0116584
0.0143517
0.0171481
0.0200337
0.0229941
0.0260144
0.0290792
0.0321729
0.0352795
0.0383831
0.0414675
0.0445164
0.0475136
0.0504432
0.0532892
0.0560365
0.0586699
0.0611754
0.0635392
0.0657484
0.0677912
0.069657
0.0713359
0.0728196
0.0741009
0.0751746
0.0760369
0.076686
0.0771219
0.0773467
0.0773644
0.0771817
0.0768071
0.0762519
0.0755296
0.0746563
0.0736505
0.0725328
0.0713264
0.0700563
0.0687497
0.0674348
0.0661408
0.0648965
0.0637338
0.0626833
0.0617225
0.0608204
0.00884366
0.00753419
0.00629362
0.00505845
0.00376577
0.00244083
0.00111099
-0.000201501
-0.00147448
-0.00268604
-0.00381524
-0.00484265
-0.00575044
-0.00652278
-0.00714574
-0.00760733
-0.00789745
-0.00800799
-0.00793272
-0.0076672
-0.00720868
-0.00655604
-0.00570965
-0.00467131
-0.00344423
-0.00203288
-0.000442903
0.00131895
0.00324488
0.00532614
0.0075531
0.00991527
0.0124014
0.0149994
0.0176967
0.0204799
0.0233353
0.0262485
0.0292048
0.0321893
0.0351866
0.0381815
0.0411584
0.0441015
0.0469954
0.0498247
0.0525742
0.055229
0.0577748
0.0601978
0.0624849
0.0646238
0.0666029
0.0684119
0.0700414
0.0714831
0.0727302
0.0737774
0.0746212
0.0752596
0.0756923
0.075921
0.0759493
0.0757832
0.0754304
0.0749009
0.0742069
0.0733627
0.0723848
0.0712915
0.0701031
0.0688413
0.0675295
0.0661916
0.0648515
0.0635329
0.0622636
0.0610693
0.0598964
0.0586881
0.0110454
0.00941432
0.00794337
0.00654448
0.00512397
0.00370297
0.00230539
0.000948548
-0.000350027
-0.00157244
-0.00270144
-0.00372077
-0.00461549
-0.00537204
-0.00597859
-0.00642489
-0.00670231
-0.00680388
-0.00672427
-0.00645982
-0.00600833
-0.00536905
-0.0045426
-0.00353093
-0.00233723
-0.000965916
0.000577526
0.00228658
0.00415377
0.0061707
0.00832814
0.010616
0.0130235
0.0155391
0.0181507
0.0208455
0.0236101
0.0264309
0.0292938
0.0321844
0.0350879
0.0379895
0.0408743
0.0437271
0.0465329
0.0492768
0.0519443
0.0545207
0.0569924
0.0593458
0.0615684
0.0636481
0.0655738
0.0673352
0.0689231
0.0703295
0.0715476
0.0725723
0.0733997
0.0740278
0.074456
0.0746854
0.0747192
0.0745625
0.0742221
0.073707
0.0730277
0.0721971
0.0712295
0.0701412
0.0689498
0.0676741
0.0663339
0.0649493
0.06354
0.062125
0.0607291
0.0593744
0.0579776
0.0564582
0.0132677
0.0113171
0.00961039
0.00803693
0.0064744
0.0049409
0.00345782
0.00203823
0.000695695
-0.000555419
-0.00170117
-0.00272815
-0.00362402
-0.00437754
-0.00497882
-0.00541923
-0.00569162
-0.00579022
-0.00571068
-0.00545006
-0.00500682
-0.00438066
-0.00357253
-0.00258453
-0.00141997
-8.32794e-05
0.00142015
0.003084
0.00490102
0.00686309
0.00896126
0.0111859
0.0135265
0.0159721
0.0185109
0.0211306
0.0238184
0.0265611
0.029345
0.0321563
0.0349808
0.0378041
0.0406117
0.0433889
0.0461213
0.0487943
0.0513937
0.0539054
0.0563159
0.0586122
0.060782
0.0628135
0.0646956
0.0664183
0.0679725
0.0693503
0.0705448
0.0715508
0.0723644
0.072983
0.0734058
0.0736334
0.0736684
0.073515
0.0731791
0.0726683
0.071992
0.0711614
0.0701891
0.0690893
0.0678771
0.0665687
0.0651807
0.0637301
0.0622329
0.0607043
0.0591669
0.0576402
0.0560133
0.0541837
0.0154641
0.0131991
0.0112551
0.00950028
0.00778562
0.00612724
0.00454483
0.00304783
0.00164636
0.000351746
-0.000824825
-0.00187275
-0.00278195
-0.00354333
-0.0041488
-0.00459144
-0.00486545
-0.00496622
-0.00489038
-0.00463586
-0.00420173
-0.00358818
-0.00279652
-0.00182915
-0.000689538
0.000617877
0.00208773
0.00371378
0.00548893
0.00740529
0.00945418
0.0116262
0.0139114
0.0162989
0.0187774
0.0213351
0.0239594
0.0266377
0.0293567
0.032103
0.0348628
0.0376222
0.0403671
0.0430831
0.0457562
0.0483722
0.050917
0.0533771
0.0557392
0.0579906
0.060119
0.0621129
0.0639612
0.0656541
0.0671823
0.0685381
0.0697145
0.070706
0.0715085
0.072119
0.0725361
0.0727602
0.0727929
0.0726377
0.0722995
0.0717847
0.0711015
0.0702594
0.0692696
0.0681442
0.0668962
0.0655392
0.0640875
0.0625552
0.0609553
0.0592998
0.0576101
0.0559038
0.0540441
0.0519086
0.0175953
0.0150229
0.0128422
0.0109022
0.00902858
0.00723625
0.00554379
0.00395779
0.00248548
0.00113538
-8.37747e-05
-0.00116365
-0.00209635
-0.00287474
-0.00349248
-0.00394416
-0.00422532
-0.00433251
-0.00426336
-0.00401659
-0.00359195
-0.00299017
-0.00221297
-0.00126306
-0.000144069
0.00113943
0.00258203
0.00417754
0.00591896
0.00779858
0.00980793
0.0119379
0.0141786
0.0165197
0.01895
0.0214582
0.0240321
0.0266593
0.029327
0.0320222
0.0347312
0.0374407
0.0401368
0.0428056
0.0454331
0.0480056
0.0505092
0.0529305
0.0552566
0.0574749
0.0595732
0.0615399
0.0633641
0.0650359
0.0665462
0.0678868
0.0690507
0.0700322
0.0708266
0.0714308
0.0718429
0.0720623
0.0720902
0.0719292
0.0715832
0.0710575
0.070359
0.0694959
0.0684778
0.067315
0.0660187
0.0646002
0.0630717
0.061445
0.0597307
0.0579384
0.0560884
0.0541976
0.052105
0.0496694
0.019628
0.0167556
0.0143406
0.0122134
0.0101764
0.00824363
0.00643316
0.00474917
0.00319642
0.00178122
0.000510039
-0.000610822
-0.00157546
-0.00237843
-0.00301506
-0.0034814
-0.00377423
-0.00389121
-0.00383095
-0.00359299
-0.00317776
-0.00258654
-0.00182148
-0.000885614
0.00021716
0.00148213
0.00290378
0.00447596
0.00619171
0.00804341
0.0100227
0.0121208
0.0143279
0.0166338
0.0190279
0.0214989
0.024035
0.0266241
0.0292538
0.0319112
0.0345831
0.0372564
0.0399174
0.0425524
0.0451478
0.0476899
0.0501653
0.0525605
0.0548628
0.0570597
0.0591389
0.0610888
0.0628987
0.0645583
0.0660585
0.0673911
0.0685485
0.0695247
0.0703148
0.0709151
0.0713231
0.0715377
0.0715593
0.0713895
0.0710314
0.0704892
0.0697687
0.0688768
0.0678215
0.0666116
0.0652565
0.0637659
0.0621501
0.060419
0.0585813
0.0566444
0.0546286
0.0525501
0.0502257
0.0474964
0.0215337
0.0183686
0.0157222
0.0134074
0.0112043
0.0091266
0.0071922
0.00540334
0.00376277
0.00227482
0.000944021
-0.000225117
-0.00122843
-0.00206212
-0.002723
-0.00320843
-0.00351641
-0.00364569
-0.00359582
-0.00336712
-0.00296068
-0.00237837
-0.00162279
-0.000697346
0.000393784
0.0016457
0.00305281
0.00460885
0.0063069
0.00813939
0.0100981
0.0121742
0.0143582
0.0166402
0.0190097
0.0214555
0.0239663
0.02653
0.0291346
0.0317674
0.0344155
0.0370658
0.0397051
0.0423197
0.0448961
0.047421
0.0498808
0.0522625
0.0545531
0.05674
0.0588112
0.0607548
0.06256
0.0642165
0.0657149
0.0670466
0.0682038
0.06918
0.0699699
0.0705692
0.070975
0.0711854
0.0711999
0.0710195
0.0706462
0.0700834
0.0693356
0.0684085
0.0673088
0.0660439
0.0646216
0.0630505
0.0613389
0.0594956
0.0575273
0.0554401
0.0532543
0.0509864
0.0484321
0.0454154
0.0232872
0.0198367
0.0169622
0.0144602
0.0120893
0.00986369
0.00780114
0.00590228
0.00416818
0.00260152
0.00120521
-1.79474e-05
-0.00106527
-0.0019345
-0.00262374
-0.00313161
-0.00345729
-0.00360055
-0.0035618
-0.00334216
-0.00294338
-0.0023679
-0.00161881
-0.000699873
0.000384418
0.00162894
0.00302795
0.00457509
0.00626341
0.00808534
0.0100327
0.0120968
0.0142683
0.0165373
0.0188934
0.021326
0.0238235
0.0263744
0.0289667
0.0315878
0.0342251
0.0368657
0.0394963
0.0421036
0.0446741
0.0471946
0.0496516
0.052032
0.0543228
0.0565114
0.0585855
0.0605334
0.0623439
0.0640065
0.0655114
0.0668497
0.0680134
0.0689953
0.0697897
0.0703918
0.0707978
0.0710053
0.0710131
0.0708212
0.0704309
0.0698444
0.0690653
0.0680982
0.0669485
0.0656223
0.0641263
0.0624677
0.0606539
0.058692
0.0565876
0.0543456
0.0519869
0.0495287
0.0467463
0.0434479
0.0248667
0.021137
0.0180379
0.0153494
0.0128103
0.0104347
0.00824096
0.00622837
0.00439653
0.00274668
0.00128029
-1.24256e-06
-0.00109664
-0.00200497
-0.00272559
-0.00325829
-0.00360332
-0.0037614
-0.00373379
-0.00352237
-0.00312957
-0.0025584
-0.00181242
-0.000895787
0.000186704
0.00142967
0.00282716
0.0043727
0.00605926
0.00787926
0.00982456
0.0118864
0.0140557
0.0163225
0.0186768
0.0211077
0.0236041
0.0261544
0.0287469
0.0313691
0.0340085
0.0366523
0.0392873
0.0419003
0.0444778
0.0470067
0.0494735
0.0518649
0.0541679
0.0563697
0.058458
0.0604208
0.0622466
0.0639246
0.0654448
0.0667978
0.0679749
0.0689688
0.069773
0.0703821
0.0707917
0.0709986
0.0710008
0.0707977
0.0703894
0.0697775
0.0689644
0.0679536
0.0667496
0.0653574
0.0637826
0.0620313
0.0601099
0.0580245
0.0557796
0.0533794
0.0508458
0.0481967
0.0451881
0.0416124
0.0262524
0.022249
0.0189283
0.0160547
0.0133471
0.0108204
0.00849345
0.00636451
0.00443184
0.00269552
0.00115574
-0.000187334
-0.00133372
-0.00228365
-0.00303766
-0.00359663
-0.0039618
-0.00413476
-0.00411763
-0.00391302
-0.00352401
-0.00295417
-0.00220751
-0.00128863
-0.000202642
0.00104478
0.00244747
0.00399881
0.00569168
0.00751843
0.00947089
0.0115404
0.0137177
0.0159932
0.0183566
0.0207975
0.0233046
0.0258667
0.0284718
0.0311077
0.033762
0.0364218
0.0390742
0.0417058
0.0443033
0.0468533
0.0493424
0.0517571
0.0540844
0.0563112
0.058425
0.0604135
0.0622649
0.0639682
0.0655127
0.0668886
0.0680869
0.0690995
0.0699194
0.0705405
0.0709577
0.0711671
0.0711659
0.0709527
0.0705267
0.0698886
0.0690399
0.0679832
0.0667218
0.0652601
0.0636027
0.0617547
0.0597216
0.0575087
0.05512
0.0525591
0.0498488
0.0470083
0.0437747
0.0399252
0.0274263
0.0231536
0.019614
0.0165565
0.0136807
0.0110023
0.00854094
0.00629386
0.00425827
0.00243322
0.000817808
-0.000588957
-0.00178823
-0.0027813
-0.00356981
-0.00415563
-0.00454089
-0.00472808
-0.0047201
-0.00452029
-0.00413234
-0.00356035
-0.00280884
-0.00188281
-0.000787766
0.000470342
0.00188514
0.00344983
0.00515717
0.00699942
0.00896834
0.0110552
0.0132509
0.0155457
0.0179296
0.0203919
0.0229216
0.0255075
0.0281376
0.0307998
0.0334817
0.0361704
0.038853
0.0415162
0.0441465
0.0467305
0.0492545
0.051705
0.0540687
0.0563324
0.0584832
0.0605085
0.0623962
0.0641348
0.0657131
0.0671208
0.0683484
0.0693871
0.0702292
0.070868
0.0712977
0.0715136
0.0715121
0.0712908
0.0708484
0.0701845
0.0692998
0.0681959
0.0668755
0.0653419
0.0635991
0.0616513
0.0595033
0.05716
0.0546247
0.0519008
0.0490125
0.0459801
0.0425221
0.0384011
0.0283713
0.0238331
0.0200768
0.0168364
0.0137929
0.0109626
0.00836611
0.0059998
0.00386001
0.00194484
0.000252427
-0.00121929
-0.00247242
-0.00350931
-0.00433258
-0.00494499
-0.00534956
-0.00554962
-0.00554883
-0.0053512
-0.00496103
-0.00438296
-0.00362202
-0.00268363
-0.00157366
-0.00029835
0.00113568
0.00272147
0.00445157
0.00631814
0.00831287
0.010427
0.0126514
0.0149763
0.0173916
0.0198869
0.022451
0.0250727
0.0277402
0.0304412
0.0331634
0.0358939
0.0386197
0.0413274
0.0440034
0.0466342
0.0492059
0.0517048
0.0541173
0.05643
0.0586297
0.0607032
0.0626382
0.0644225
0.0660446
0.0674935
0.068759
0.0698318
0.0707035
0.0713665
0.0718143
0.0720415
0.0720436
0.0718175
0.0713608
0.0706725
0.0697523
0.0686012
0.067221
0.0656142
0.0637841
0.0617343
0.0594691
0.056993
0.0543091
0.0514203
0.0483524
0.0451272
0.0414449
0.0370533
0.0290714
0.0242703
0.020299
0.0168767
0.0136659
0.0106839
0.00795191
0.00546586
0.00322122
0.00121525
-0.000554781
-0.00209187
-0.00339905
-0.00447964
-0.00533711
-0.00597511
-0.0063975
-0.0066084
-0.0066122
-0.00641354
-0.00601734
-0.00542881
-0.00465343
-0.0036971
-0.00256601
-0.00126669
0.000193962
0.00180875
0.00357008
0.00546994
0.00749993
0.00965124
0.0119146
0.0142804
0.0167384
0.0192781
0.0218884
0.024558
0.0272751
0.0300275
0.0328027
0.0355879
0.0383698
0.041135
0.0438698
0.0465604
0.0491928
0.0517529
0.0542269
0.056601
0.0588616
0.0609952
0.0629888
0.0648299
0.0665062
0.0680063
0.0693191
0.0704346
0.0713437
0.0720382
0.0725106
0.0727548
0.0727654
0.0725384
0.0720708
0.0713604
0.0704064
0.069209
0.0677691
0.0660887
0.0641703
0.0620171
0.0596331
0.0570224
0.0541879
0.0511325
0.0478835
0.0444642
0.0405568
0.0358942
0.029511
0.0244487
0.0202636
0.0166601
0.0132825
0.0101489
0.00728149
0.00467563
0.002326
0.000229173
-0.00161843
-0.0032206
-0.00458131
-0.00570471
-0.00659511
-0.007257
-0.00769505
-0.00791411
-0.00791926
-0.0077158
-0.00730926
-0.0067054
-0.00591019
-0.00492991
-0.00377114
-0.00244073
-0.000945822
0.000706118
0.0025073
0.00444957
0.00652441
0.00872292
0.0110358
0.0134532
0.0159651
0.0185607
0.021229
0.0239586
0.0267377
0.0295541
0.0323951
0.0352479
0.038099
0.0409349
0.0437416
0.0465052
0.0492113
0.0518457
0.0543941
0.0568423
0.0591763
0.0613822
0.0634464
0.0653557
0.0670973
0.0686589
0.070029
0.0711966
0.072152
0.072886
0.0733904
0.0736582
0.0736831
0.0734602
0.0729857
0.0722567
0.0712716
0.0700296
0.0685311
0.0667774
0.0647705
0.0625133
0.0600094
0.0572628
0.0542761
0.0510523
0.0476204
0.0440054
0.0398712
0.0349361
0.0296746
0.0243521
0.0199539
0.0161697
0.0126255
0.00934059
0.00633805
0.00361263
0.00115837
-0.00102888
-0.00295339
-0.00461975
-0.0060328
-0.00719746
-0.00811885
-0.00880227
-0.00925314
-0.00947704
-0.00947973
-0.00926718
-0.0088455
-0.00822095
-0.00740003
-0.00638943
-0.00519606
-0.00382714
-0.00229009
-0.000592617
0.00125727
0.00325125
0.00538069
0.00763657
0.0100095
0.0124895
0.0150664
0.0177295
0.0204677
0.0232696
0.0261231
0.0290161
0.0319358
0.0348691
0.0378026
0.0407224
0.0436144
0.0464644
0.0492576
0.0519796
0.0546156
0.0571511
0.0595715
0.0618624
0.0640095
0.0659991
0.0678176
0.069452
0.07089
0.07212
0.0731312
0.0739136
0.0744582
0.074757
0.0748029
0.0745902
0.074114
0.0733707
0.0723578
0.0710739
0.0695187
0.067693
0.0655982
0.0632369
0.0606125
0.0577288
0.0545885
0.0511945
0.0475778
0.0437649
0.0394016
0.0341911
0.0295472
0.0239644
0.0193533
0.0153885
0.0116781
0.00824212
0.00510482
0.00226034
-0.000297878
-0.00257461
-0.00457485
-0.00630397
-0.00776755
-0.00897128
-0.00992111
-0.0106231
-0.0110833
-0.0113081
-0.011304
-0.0110775
-0.0106353
-0.0099843
-0.00913135
-0.00808361
-0.00684838
-0.00543319
-0.0038458
-0.00209415
-0.000186467
0.00186877
0.00406274
0.00638629
0.00882984
0.0113834
0.0140368
0.0167791
0.0195992
0.0224855
0.0254261
0.0284084
0.0314197
0.0344468
0.037476
0.0404931
0.043484
0.0464339
0.049328
0.0521512
0.0548885
0.0575248
0.0600449
0.062434
0.064677
0.0667596
0.0686673
0.0703864
0.0719038
0.0732071
0.0742845
0.0751251
0.0757191
0.0760573
0.076132
0.0759362
0.0754644
0.074712
0.0736758
0.0723536
0.0707445
0.0688486
0.0666672
0.0642023
0.0614572
0.0584356
0.0551402
0.0515743
0.0477705
0.0437572
0.0391615
0.0336713
0.0291134
0.0232697
0.0184451
0.0142997
0.0104231
0.00683634
0.00356476
0.000601969
-0.00205919
-0.00442411
-0.00649845
-0.00828835
-0.0098001
-0.0110402
-0.0120152
-0.0127321
-0.0131977
-0.013419
-0.0134031
-0.0131573
-0.0126887
-0.0120049
-0.0111132
-0.010021
-0.00873628
-0.00726675
-0.00562049
-0.00380571
-0.00183085
0.000295385
0.002564
0.00496568
0.00749072
0.0101291
0.0128703
0.0157036
0.0186177
0.0216009
0.024641
0.0277256
0.0308417
0.0339758
0.0371141
0.0402423
0.0433458
0.0464096
0.0494185
0.052357
0.0552095
0.0579606
0.0605944
0.0630954
0.0654479
0.0676367
0.0696467
0.0714633
0.0730724
0.0744607
0.0756156
0.0765253
0.0771787
0.0775658
0.0776777
0.0775068
0.0770464
0.0762911
0.0752369
0.0738808
0.0722213
0.0702581
0.0679919
0.0654244
0.0625587
0.0593987
0.0559469
0.0522071
0.0482137
0.0439969
0.0391647
0.0333894
0.0283577
0.0222514
0.0172125
0.012886
0.00884315
0.00510588
0.00170056
-0.0013796
-0.00414241
-0.00659384
-0.00874026
-0.0105885
-0.0121455
-0.0134186
-0.0144152
-0.0151428
-0.0156091
-0.0158218
-0.0157886
-0.0155175
-0.0150163
-0.0142928
-0.013355
-0.0122108
-0.0108685
-0.00933612
-0.00762211
-0.00573493
-0.00368327
-0.00147606
0.000877526
0.003368
0.00598553
0.00871994
0.0115607
0.0144969
0.0175172
0.0206097
0.0237622
0.0269621
0.0301961
0.0334508
0.036712
0.0399651
0.0431953
0.0463871
0.0495251
0.0525932
0.0555755
0.0584558
0.0612178
0.063845
0.0663212
0.0686303
0.0707564
0.072684
0.074398
0.0758841
0.0771288
0.078119
0.0788429
0.0792893
0.0794482
0.079311
0.07887
0.078119
0.0770529
0.0756684
0.073963
0.0719358
0.0695871
0.0669185
0.0639328
0.060634
0.0570248
0.0531091
0.0489232
0.0444991
0.0394255
0.0333586
0.0272639
0.0208929
0.0156382
0.01113
0.00692055
0.00303293
-0.000505463
-0.00370192
-0.00656484
-0.00910079
-0.0113168
-0.0132204
-0.0148193
-0.0161216
-0.0171354
-0.017869
-0.0183308
-0.0185292
-0.0184728
-0.0181699
-0.017629
-0.0168585
-0.0158669
-0.0146626
-0.0132542
-0.0116501
-0.00985911
-0.00788994
-0.00575157
-0.00345315
-0.00100405
0.00158608
0.00430729
0.00714928
0.0101014
0.0131526
0.0162914
0.0195059
0.0227837
0.026112
0.0294775
0.0328663
0.0362643
0.0396564
0.0430276
0.046362
0.0496437
0.0528564
0.0559834
0.0590079
0.061913
0.0646815
0.0672963
0.0697404
0.0719972
0.07405
0.075883
0.0774806
0.0788283
0.0799119
0.0807183
0.0812354
0.081452
0.0813584
0.0809459
0.0802073
0.0791367
0.0777299
0.0759838
0.0738968
0.0714687
0.068701
0.0655963
0.0621586
0.0583908
0.0542969
0.0499153
0.0452798
0.0399591
0.033593
0.0258153
0.0191768
0.0137046
0.00901355
0.00463709
0.000599215
-0.00307156
-0.00638306
-0.0093443
-0.0119625
-0.0142452
-0.0162007
-0.0178377
-0.0191648
-0.0201909
-0.0209252
-0.0213767
-0.0215547
-0.0214682
-0.0211265
-0.0205385
-0.0197132
-0.0186595
-0.0173865
-0.015903
-0.014218
-0.0123404
-0.0102793
-0.00804399
-0.00564385
-0.00308843
-0.000387515
0.00244878
0.00541003
0.00848546
0.0116639
0.0149338
0.018283
0.0216992
0.0251693
0.0286798
0.0322168
0.0357656
0.0393112
0.0428379
0.0463298
0.0497704
0.0531428
0.0564299
0.0596142
0.0626779
0.0656033
0.0683723
0.0709671
0.07337
0.0755634
0.0775303
0.0792542
0.0807191
0.0819099
0.082812
0.0834123
0.0836985
0.0836594
0.0832856
0.0825687
0.0815019
0.0800799
0.0782991
0.0761572
0.0736535
0.0707892
0.0675668
0.0639905
0.060063
0.0557886
0.0512077
0.0463562
0.0407818
0.0341078
0.0239948
0.0170853
0.0113933
0.00651805
0.00197396
-0.0022141
-0.00601654
-0.00944169
-0.0124992
-0.0151969
-0.0175431
-0.0195468
-0.0212174
-0.0225643
-0.0235973
-0.0243264
-0.0247612
-0.0249119
-0.0247882
-0.0243999
-0.0237567
-0.0228682
-0.0217438
-0.0203929
-0.018825
-0.0170492
-0.015075
-0.0129118
-0.0105691
-0.00805638
-0.00538353
-0.00256047
0.000402527
0.00349491
0.00670579
0.0100239
0.0134375
0.0169345
0.0205023
0.0241278
0.0277972
0.0314964
0.0352105
0.0389241
0.0426215
0.0462861
0.049901
0.0534488
0.0569119
0.060272
0.0635106
0.0666092
0.0695488
0.0723106
0.074876
0.0772262
0.0793431
0.0812089
0.0828065
0.0841192
0.0851316
0.0858288
0.0861974
0.0862253
0.0859014
0.0852166
0.0841628
0.0827339
0.0809253
0.0787341
0.0761593
0.0732016
0.0698634
0.0661487
0.0620604
0.057603
0.052819
0.0477463
0.0419112
0.0349194
0.0217843
0.0145997
0.00868508
0.00362411
-0.00108842
-0.00542665
-0.00935996
-0.0128972
-0.0160487
-0.0188229
-0.0212289
-0.0232765
-0.0249757
-0.026337
-0.0273709
-0.0280881
-0.0284993
-0.0286152
-0.0284463
-0.0280032
-0.0272962
-0.0263354
-0.0251309
-0.0236927
-0.0220303
-0.0201537
-0.0180726
-0.0157965
-0.0133354
-0.0106991
-0.00789741
-0.0049406
-0.00183906
0.00139654
0.00475522
0.00822559
0.0117959
0.0154538
0.0191867
0.0229812
0.0268235
0.0306992
0.0345933
0.03849
0.0423732
0.046226
0.0500311
0.0537706
0.057426
0.0609785
0.064409
0.0676977
0.0708251
0.0737712
0.0765163
0.0790405
0.0813245
0.0833491
0.0850958
0.0865467
0.0876848
0.088494
0.0889594
0.0890676
0.0888064
0.0881651
0.0871348
0.0857081
0.0838797
0.0816459
0.0790052
0.0759578
0.0725059
0.0686535
0.0644035
0.0597605
0.0547693
0.0494699
0.0433661
0.0360456
0.0191648
0.0117003
0.00556
0.000311485
-0.00457041
-0.00905887
-0.0131222
-0.0167698
-0.0200128
-0.0228602
-0.0253219
-0.0274084
-0.0291309
-0.0305004
-0.0315284
-0.0322266
-0.0326063
-0.0326793
-0.0324567
-0.0319498
-0.0311697
-0.0301271
-0.0288326
-0.0272967
-0.0255296
-0.0235415
-0.0213425
-0.0189426
-0.0163518
-0.0135803
-0.0106382
-0.00753576
-0.0042836
-0.000892476
0.00262654
0.00626199
0.010002
0.0138342
0.0177457
0.0217232
0.0257526
0.0298194
0.0339082
0.0380032
0.0420878
0.0461449
0.0501564
0.0541041
0.0579688
0.0617311
0.0653707
0.0688675
0.0722006
0.0753492
0.0782922
0.0810087
0.0834778
0.0856792
0.0875928
0.0891993
0.09048
0.0914175
0.0919955
0.0921989
0.0920141
0.0914292
0.090434
0.08902
0.0871808
0.084912
0.0822114
0.0790787
0.0755157
0.0715266
0.0671139
0.0622828
0.0570802
0.051548
0.0451669
0.0375057
0.0161163
0.00836667
0.00199713
-0.00344107
-0.00849343
-0.0131322
-0.0173246
-0.0210807
-0.0244123
-0.0273291
-0.0298419
-0.0319621
-0.0337016
-0.0350726
-0.0360874
-0.0367586
-0.0370985
-0.0371195
-0.0368339
-0.0362536
-0.0353903
-0.0342555
-0.0328605
-0.0312161
-0.0293333
-0.0272226
-0.0248943
-0.0223591
-0.019627
-0.0167086
-0.013614
-0.0103538
-0.00693869
-0.00337951
0.000312595
0.00412608
0.00804899
0.0120689
0.0161729
0.0203474
0.0245782
0.0288508
0.0331495
0.0374583
0.0417603
0.0460378
0.0502725
0.0544454
0.0585369
0.0625266
0.0663938
0.070117
0.0736747
0.0770447
0.0802049
0.083133
0.0858066
0.088204
0.0903035
0.0920843
0.093526
0.0946097
0.0953173
0.0956322
0.0955392
0.0950249
0.0940778
0.092688
0.0908483
0.0885531
0.0857995
0.0825865
0.0789158
0.0747912
0.0702154
0.0651936
0.059775
0.0540036
0.0473359
0.0393212
0.012618
0.00457721
-0.00202557
-0.00765585
-0.01288
-0.0176692
-0.0219896
-0.0258521
-0.029269
-0.0322512
-0.03481
-0.0369579
-0.0387077
-0.0400726
-0.0410661
-0.0417015
-0.0419922
-0.0419517
-0.0415928
-0.0409286
-0.0399714
-0.0387334
-0.0372265
-0.0354623
-0.0334522
-0.031207
-0.0287378
-0.0260551
-0.0231697
-0.0200921
-0.0168328
-0.0134024
-0.00981176
-0.00607175
-0.00219363
0.00181102
0.00593019
0.0101514
0.0144617
0.0188474
0.0232943
0.0277876
0.0323116
0.0368499
0.0413853
0.0458998
0.0503747
0.0547904
0.0591266
0.0633624
0.0674759
0.0714451
0.0752469
0.0788584
0.082256
0.085416
0.0883147
0.0909286
0.0932345
0.0952097
0.0968323
0.0980814
0.0989373
0.0993815
0.0993971
0.0989692
0.0980846
0.0967322
0.0949034
0.0925915
0.0897927
0.0865054
0.0827309
0.0784727
0.0737334
0.0685184
0.0628791
0.0568617
0.0498974
0.0415151
0.0086477
0.000309097
-0.00653139
-0.0123564
-0.0177536
-0.0226934
-0.0271408
-0.0311072
-0.0346061
-0.0376489
-0.040248
-0.0424169
-0.0441696
-0.0455201
-0.0464832
-0.0470732
-0.0473046
-0.0471918
-0.0467488
-0.0459893
-0.0449265
-0.0435734
-0.0419427
-0.0400466
-0.0378968
-0.0355049
-0.0328821
-0.0300397
-0.0269884
-0.023739
-0.0203023
-0.016689
-0.0129099
-0.00897614
-0.00489888
-0.000689772
0.00363915
0.00807541
0.012606
0.0172173
0.0218949
0.026624
0.0313887
0.0361724
0.0409577
0.0457262
0.0504587
0.0551352
0.0597347
0.0642354
0.068615
0.07285
0.0769167
0.0807906
0.0844469
0.0878604
0.0910059
0.0938582
0.0963923
0.0985837
0.100409
0.101844
0.102869
0.103462
0.103604
0.10328
0.102474
0.101174
0.0993686
0.097051
0.094216
0.0908613
0.0869876
0.0825982
0.0776955
0.0722848
0.06642
0.0601493
0.0528778
0.044113
0.00418192
-0.0044618
-0.0115449
-0.0175676
-0.0231395
-0.02823
-0.0328031
-0.0368708
-0.0404476
-0.0435458
-0.0461789
-0.0483615
-0.0501085
-0.0514356
-0.0523583
-0.0528923
-0.0530533
-0.0528567
-0.0523174
-0.0514502
-0.0502693
-0.0487885
-0.0470211
-0.0449799
-0.0426775
-0.0401258
-0.0373366
-0.0343213
-0.0310911
-0.027657
-0.0240298
-0.0202205
-0.01624
-0.0120992
-0.0078095
-0.00338252
0.00116977
0.00583491
0.0105999
0.0154512
0.0203744
0.0253544
0.0303755
0.0354207
0.0404725
0.0455121
0.05052
0.0554757
0.0603574
0.0651429
0.0698087
0.0743305
0.0786834
0.0828416
0.086779
0.0904688
0.0938843
0.0969982
0.0997839
0.102215
0.104265
0.10591
0.107125
0.107888
0.108178
0.107977
0.107268
0.106035
0.104268
0.101957
0.0990962
0.095682
0.0917148
0.0871972
0.0821314
0.0765227
0.0704273
0.063896
0.056306
0.0471426
-0.000804134
-0.00976105
-0.0170923
-0.0233159
-0.0290642
-0.0343055
-0.0390027
-0.0431687
-0.0468189
-0.0499667
-0.0526267
-0.0548147
-0.0565469
-0.0578403
-0.0587116
-0.059178
-0.0592562
-0.058963
-0.0583144
-0.0573262
-0.0560135
-0.0543912
-0.0524733
-0.0502734
-0.0478045
-0.0450793
-0.0421099
-0.0389081
-0.0354854
-0.0318531
-0.0280221
-0.0240034
-0.0198079
-0.0154468
-0.0109313
-0.00627289
-0.00148352
0.00342442
0.00843802
0.0135437
0.0187273
0.0239736
0.0292667
0.0345897
0.0399248
0.045253
0.0505544
0.055808
0.0609916
0.0660819
0.0710548
0.075885
0.0805463
0.0850119
0.0892539
0.0932441
0.0969539
0.100354
0.103417
0.106112
0.108413
0.110291
0.111721
0.112677
0.113138
0.113081
0.112487
0.111341
0.109627
0.107337
0.104462
0.100998
0.0969434
0.0923014
0.0870733
0.0812645
0.0749337
0.068134
0.0602133
0.0506342
-0.00633673
-0.0156158
-0.0232012
-0.0296293
-0.0355558
-0.040948
-0.0457676
-0.0500285
-0.053747