/*--------------------------------*- C++ -*----------------------------------*\
  =========                 |
  \\      /  F ield         | OpenFOAM: The Open Source CFD Toolbox
   \\    /   O peration     | Website:  https://openfoam.org
    \\  /    A nd           | Version:  7
     \\/     M anipulation  |
\*---------------------------------------------------------------------------*/
FoamFile
{
    version     2.0;
    format      ascii;
    class       surfaceScalarField;
    location    "0.15";
    object      phi;
}
// * * * * * * * * * * * * * * * * * * * * * * * * * * * * * * * * * * * * * //

dimensions      [0 3 -1 0 0 0 0];

internalField   nonuniform List<scalar> 
12640
(
1.90128e-10
-1.90063e-10
5.54672e-10
-3.64515e-10
8.80393e-10
-3.25717e-10
1.04216e-09
-1.6175e-10
9.77935e-10
6.42461e-11
6.60662e-10
3.17284e-10
8.34892e-11
5.77171e-10
-7.48497e-10
8.31988e-10
-1.82314e-09
1.07464e-09
-3.12402e-09
1.30086e-09
-4.63216e-09
1.50812e-09
-6.32712e-09
1.69496e-09
-8.18775e-09
1.86061e-09
-1.01925e-08
2.00477e-09
-1.232e-08
2.12744e-09
-1.45489e-08
2.22889e-09
-1.68584e-08
2.3095e-09
-1.92282e-08
2.36981e-09
-2.16386e-08
2.41043e-09
-2.40706e-08
2.43202e-09
-2.6506e-08
2.43534e-09
-2.89271e-08
2.42111e-09
-3.13172e-08
2.39013e-09
-3.36604e-08
2.3432e-09
-3.59415e-08
2.28115e-09
-3.81463e-08
2.20479e-09
-4.02613e-08
2.11497e-09
-4.22738e-08
2.01251e-09
-4.41721e-08
1.89824e-09
-4.59451e-08
1.77303e-09
-4.75828e-08
1.6377e-09
-4.90759e-08
1.4931e-09
-5.0416e-08
1.34011e-09
-5.15956e-08
1.17958e-09
-5.2608e-08
1.01239e-09
-5.34474e-08
8.39433e-10
-5.4109e-08
6.61613e-10
-5.45889e-08
4.79845e-10
-5.48839e-08
2.95063e-10
-5.49921e-08
1.08204e-10
-5.49124e-08
-7.9765e-11
-5.46445e-08
-2.67866e-10
-5.41894e-08
-4.55109e-10
-5.35489e-08
-6.4047e-10
-5.2726e-08
-8.22908e-10
-5.17246e-08
-1.00138e-09
-5.05498e-08
-1.17483e-09
-4.92076e-08
-1.34217e-09
-4.77053e-08
-1.50231e-09
-4.60511e-08
-1.65417e-09
-4.42545e-08
-1.79665e-09
-4.23258e-08
-1.92866e-09
-4.02767e-08
-2.0491e-09
-3.81198e-08
-2.15695e-09
-3.58686e-08
-2.25114e-09
-3.3538e-08
-2.33065e-09
-3.11435e-08
-2.3945e-09
-2.87018e-08
-2.44173e-09
-2.62303e-08
-2.47146e-09
-2.37475e-08
-2.48283e-09
-2.12724e-08
-2.47508e-09
-1.88249e-08
-2.44752e-09
-1.64253e-08
-2.39955e-09
-1.40947e-08
-2.33067e-09
-1.18542e-08
-2.24048e-09
-9.72546e-09
-2.12875e-09
-7.73004e-09
-1.99542e-09
-5.88938e-09
-1.84066e-09
-4.2245e-09
-1.66486e-09
-2.75567e-09
-1.46882e-09
-1.50186e-09
-1.25379e-09
-4.80098e-10
-1.02176e-09
2.9568e-10
-7.75773e-10
8.16268e-10
-5.20581e-10
1.08002e-09
-2.63746e-10
1.09763e-09
-1.76039e-11
9.00089e-10
1.97533e-10
5.53048e-10
3.47026e-10
1.83504e-10
3.69542e-10
1.83512e-10
3.65162e-10
-5.55216e-10
8.83924e-10
-8.83282e-10
1.21256e-09
-6.54394e-10
1.12888e-09
-7.80944e-11
4.95568e-10
6.97536e-10
-7.61052e-10
1.57386e-09
-2.67004e-09
2.48617e-09
-5.23036e-09
3.39231e-09
-8.42061e-09
4.2649e-09
-1.22058e-08
5.08609e-09
-1.6542e-08
5.84433e-09
-2.13793e-08
6.53227e-09
-2.66642e-08
7.14551e-09
-3.2341e-08
7.6816e-09
-3.83532e-08
8.13959e-09
-4.46439e-08
8.51959e-09
-5.11568e-08
8.82243e-09
-5.78366e-08
9.04957e-09
-6.4629e-08
9.20288e-09
-7.14816e-08
9.28457e-09
-7.83434e-08
9.29712e-09
-8.51655e-08
9.24319e-09
-9.1901e-08
9.12556e-09
-9.85049e-08
8.94716e-09
-1.04935e-07
8.71098e-09
-1.1115e-07
8.42008e-09
-1.17113e-07
8.07757e-09
-1.22787e-07
7.6866e-09
-1.28139e-07
7.25035e-09
-1.33138e-07
6.77203e-09
-1.37755e-07
6.25489e-09
-1.41964e-07
5.7022e-09
-1.45741e-07
5.11726e-09
-1.49065e-07
4.50342e-09
-1.51917e-07
3.86408e-09
-1.5428e-07
3.20266e-09
-1.56141e-07
2.52267e-09
-1.57489e-07
1.82762e-09
-1.58315e-07
1.12111e-09
-1.58614e-07
4.06812e-10
-1.58382e-07
-3.11583e-10
-1.57619e-07
-1.03029e-09
-1.56329e-07
-1.74547e-09
-1.54516e-07
-2.45321e-09
-1.5219e-07
-3.14955e-09
-1.49361e-07
-3.83045e-09
-1.46043e-07
-4.49185e-09
-1.42256e-07
-5.12965e-09
-1.38019e-07
-5.73971e-09
-1.33355e-07
-6.31788e-09
-1.28291e-07
-6.86004e-09
-1.22858e-07
-7.36206e-09
-1.17087e-07
-7.81989e-09
-1.11015e-07
-8.2295e-09
-1.04679e-07
-8.58699e-09
-9.81209e-08
-8.88856e-09
-9.13849e-08
-9.13056e-09
-8.45171e-08
-9.30951e-09
-7.75664e-08
-9.42212e-09
-7.05839e-08
-9.46538e-09
-6.36224e-08
-9.43655e-09
-5.67366e-08
-9.33324e-09
-4.99827e-08
-9.15342e-09
-4.34178e-08
-8.89556e-09
-3.70996e-08
-8.55862e-09
-3.10862e-08
-8.14217e-09
-2.54351e-08
-7.64658e-09
-2.02026e-08
-7.07314e-09
-1.54431e-08
-6.42436e-09
-1.12076e-08
-5.70431e-09
-7.54226e-09
-4.91913e-09
-4.48618e-09
-4.07788e-09
-2.06819e-09
-3.19379e-09
-3.02501e-10
-2.28627e-09
8.17812e-10
-1.38405e-09
1.33029e-09
-5.30084e-10
1.3168e-09
2.11025e-10
9.21366e-10
7.42467e-10
3.69479e-10
9.2143e-10
5.52992e-10
3.29132e-10
-8.84334e-10
6.63285e-10
-1.21742e-09
6.08605e-10
-5.99671e-10
-9.51964e-11
6.25708e-10
-1.61845e-09
2.22081e-09
-4.06019e-09
4.0156e-09
-7.46469e-09
5.89065e-09
-1.18359e-08
7.76351e-09
-1.71485e-08
9.5775e-09
-2.33562e-08
1.12938e-08
-3.03978e-08
1.28859e-08
-3.82019e-08
1.43363e-08
-4.66901e-08
1.56337e-08
-5.57796e-08
1.67712e-08
-6.53852e-08
1.77452e-08
-7.54206e-08
1.85549e-08
-8.57992e-08
1.92011e-08
-9.64356e-08
1.9686e-08
-1.07246e-07
2.0013e-08
-1.18147e-07
2.01863e-08
-1.29061e-07
2.02109e-08
-1.3991e-07
2.0092e-08
-1.5062e-07
1.98354e-08
-1.6112e-07
1.94472e-08
-1.71343e-07
1.89337e-08
-1.81224e-07
1.83014e-08
-1.90703e-07
1.75568e-08
-1.99724e-07
1.67069e-08
-2.08232e-07
1.57584e-08
-2.16178e-07
1.47183e-08
-2.23517e-07
1.35936e-08
-2.30206e-07
1.23915e-08
-2.36208e-07
1.11192e-08
-2.41488e-07
9.78399e-09
-2.46018e-07
8.39327e-09
-2.4977e-07
6.95457e-09
-2.52722e-07
5.47553e-09
-2.54859e-07
3.96387e-09
-2.56165e-07
2.42746e-09
-2.56633e-07
8.74293e-10
-2.56257e-07
-6.87513e-10
-2.55037e-07
-2.24971e-09
-2.52979e-07
-3.80391e-09
-2.5009e-07
-5.34158e-09
-2.46386e-07
-6.85409e-09
-2.41884e-07
-8.3327e-09
-2.36607e-07
-9.76858e-09
-2.30584e-07
-1.11528e-08
-2.23847e-07
-1.24764e-08
-2.16434e-07
-1.37306e-08
-2.08388e-07
-1.49062e-08
-1.99756e-07
-1.59945e-08
-1.90589e-07
-1.69868e-08
-1.80944e-07
-1.78744e-08
-1.70882e-07
-1.8649e-08
-1.60468e-07
-1.93026e-08
-1.49771e-07
-1.98272e-08
-1.38865e-07
-2.02157e-08
-1.27826e-07
-2.04611e-08
-1.16734e-07
-2.05573e-08
-1.05672e-07
-2.04985e-08
-9.47253e-08
-2.028e-08
-8.39808e-08
-1.98979e-08
-7.35271e-08
-1.93493e-08
-6.34531e-08
-1.86327e-08
-5.38474e-08
-1.77478e-08
-4.47976e-08
-1.66964e-08
-3.63884e-08
-1.54823e-08
-2.87007e-08
-1.41121e-08
-2.18089e-08
-1.2596e-08
-1.57793e-08
-1.09487e-08
-1.06658e-08
-9.19134e-09
-6.50616e-09
-7.35348e-09
-3.31551e-09
-5.47693e-09
-1.07889e-09
-3.62069e-09
2.59466e-10
-1.86846e-09
8.09512e-10
-3.39028e-10
7.50879e-10
8.01091e-10
3.49661e-10
1.32264e-09
9.02647e-10
1.70846e-10
-1.0552e-09
1.02391e-10
-1.14898e-09
-5.9105e-10
9.37775e-11
-2.17278e-09
2.20741e-09
-4.8194e-09
4.86744e-09
-8.637e-09
7.83321e-09
-1.36749e-08
1.09285e-08
-1.99379e-08
1.40265e-08
-2.73968e-08
1.70364e-08
-3.59965e-08
1.98935e-08
-4.56629e-08
2.25523e-08
-5.63078e-08
2.49812e-08
-6.78332e-08
2.71591e-08
-8.01346e-08
2.90725e-08
-9.31031e-08
3.07137e-08
-1.06628e-07
3.20794e-08
-1.20596e-07
3.31696e-08
-1.34898e-07
3.39873e-08
-1.49422e-07
3.45371e-08
-1.64061e-07
3.48254e-08
-1.7871e-07
3.48598e-08
-1.93267e-07
3.46491e-08
-2.07634e-07
3.42025e-08
-2.21717e-07
3.35302e-08
-2.35426e-07
3.26426e-08
-2.48675e-07
3.15507e-08
-2.61384e-07
3.02658e-08
-2.73476e-07
2.87993e-08
-2.84881e-07
2.71629e-08
-2.95531e-07
2.53687e-08
-3.05366e-07
2.34286e-08
-3.1433e-07
2.1355e-08
-3.22371e-07
1.91604e-08
-3.29444e-07
1.68573e-08
-3.35509e-07
1.44586e-08
-3.40532e-07
1.19773e-08
-3.44483e-07
9.42658e-09
-3.47339e-07
6.81985e-09
-3.49082e-07
4.17072e-09
-3.49701e-07
1.49301e-09
-3.49189e-07
-1.19923e-09
-3.47547e-07
-3.89173e-09
-3.44781e-07
-6.56999e-09
-3.40904e-07
-9.21932e-09
-3.35933e-07
-1.18248e-08
-3.29894e-07
-1.43715e-08
-3.22819e-07
-1.6844e-08
-3.14744e-07
-1.92272e-08
-3.05715e-07
-2.15057e-08
-2.95781e-07
-2.36642e-08
-2.85e-07
-2.56874e-08
-2.73434e-07
-2.75602e-08
-2.61154e-07
-2.92676e-08
-2.48233e-07
-3.07952e-08
-2.34753e-07
-3.21286e-08
-2.20802e-07
-3.32543e-08
-2.0647e-07
-3.41591e-08
-1.91855e-07
-3.48308e-08
-1.77058e-07
-3.5258e-08
-1.62185e-07
-3.54303e-08
-1.47344e-07
-3.53386e-08
-1.32649e-07
-3.49753e-08
-1.18213e-07
-3.43342e-08
-1.04151e-07
-3.34112e-08
-9.05792e-08
-3.22045e-08
-7.76121e-08
-3.07149e-08
-6.5362e-08
-2.89464e-08
-5.39374e-08
-2.6907e-08
-4.34403e-08
-2.46093e-08
-3.3964e-08
-2.20723e-08
-2.55902e-08
-1.93226e-08
-1.83843e-08
-1.63973e-08
-1.23908e-08
-1.33469e-08
-7.62698e-09
-1.02408e-08
-4.07461e-09
-7.17307e-09
-1.67069e-09
-4.27239e-09
-2.95702e-10
-1.71402e-09
2.39094e-10
2.66286e-10
2.06713e-10
1.35501e-09
1.10936e-09
-4.79857e-11
-1.00719e-09
-6.55166e-10
-5.41811e-10
-2.15835e-09
1.59696e-09
-4.79738e-09
4.84642e-09
-8.73597e-09
8.806e-09
-1.40732e-08
1.31704e-08
-2.08539e-08
1.77092e-08
-2.90783e-08
2.22509e-08
-3.8711e-08
2.6669e-08
-4.96882e-08
3.08706e-08
-6.19243e-08
3.47884e-08
-7.53173e-08
3.83743e-08
-8.97531e-08
4.15949e-08
-1.05109e-07
4.44283e-08
-1.21256e-07
4.68608e-08
-1.38062e-07
4.88859e-08
-1.55395e-07
5.0502e-08
-1.73119e-07
5.17118e-08
-1.91104e-07
5.25213e-08
-2.09217e-07
5.2939e-08
-2.27333e-07
5.29755e-08
-2.45327e-07
5.26431e-08
-2.6308e-07
5.19553e-08
-2.80476e-07
5.09268e-08
-2.97407e-07
4.95731e-08
-3.13767e-07
4.79104e-08
-3.29456e-07
4.59554e-08
-3.44382e-07
4.37253e-08
-3.58457e-07
4.12379e-08
-3.71599e-07
3.8511e-08
-3.83734e-07
3.55631e-08
-3.94791e-07
3.24126e-08
-4.0471e-07
2.90785e-08
-4.13432e-07
2.55801e-08
-4.2091e-07
2.19367e-08
-4.27101e-07
1.81681e-08
-4.31969e-07
1.42945e-08
-4.35485e-07
1.03362e-08
-4.37629e-07
6.31392e-09
-4.38384e-07
2.24872e-09
-4.37746e-07
-1.83805e-09
-4.35713e-07
-5.92469e-09
-4.32293e-07
-9.9892e-09
-4.27503e-07
-1.40093e-08
-4.21366e-07
-1.79623e-08
-4.13912e-07
-2.18255e-08
-4.0518e-07
-2.5576e-08
-3.95217e-07
-2.91905e-08
-3.84077e-07
-3.26459e-08
-3.71822e-07
-3.59191e-08
-3.58522e-07
-3.89872e-08
-3.44255e-07
-4.18274e-08
-3.29105e-07
-4.44173e-08
-3.13165e-07
-4.67351e-08
-2.96534e-07
-4.87595e-08
-2.79318e-07
-5.04703e-08
-2.61629e-07
-5.1848e-08
-2.43586e-07
-5.28744e-08
-2.25311e-07
-5.35329e-08
-2.06933e-07
-5.38083e-08
-1.88584e-07
-5.36874e-08
-1.704e-07
-5.31595e-08
-1.52518e-07
-5.22163e-08
-1.35076e-07
-5.08524e-08
-1.18215e-07
-4.90662e-08
-1.02069e-07
-4.68603e-08
-8.67737e-08
-4.42419e-08
-7.24561e-08
-4.12246e-08
-5.92364e-08
-3.7829e-08
-4.72236e-08
-3.40851e-08
-3.65122e-08
-3.00339e-08
-2.71782e-08
-2.57313e-08
-1.92734e-08
-2.12518e-08
-1.28195e-08
-1.66946e-08
-7.80138e-09
-1.21912e-08
-4.15835e-09
-7.91541e-09
-1.77541e-09
-4.09696e-09
-4.73523e-10
-1.03561e-09
1.37434e-12
8.80106e-10
1.11075e-09
-2.9426e-10
-7.12932e-10
-1.51722e-09
6.81136e-10
-3.93671e-09
4.01647e-09
-7.75142e-09
8.66112e-09
-1.30982e-08
1.41528e-08
-2.00582e-08
2.01304e-08
-2.86635e-08
2.63145e-08
-3.89043e-08
3.24917e-08
-5.07354e-08
3.85001e-08
-6.4083e-08
4.42183e-08
-7.88504e-08
4.95558e-08
-9.49228e-08
5.44466e-08
-1.12172e-07
5.88437e-08
-1.30458e-07
6.27149e-08
-1.49637e-07
6.60398e-08
-1.69559e-07
6.88073e-08
-1.9007e-07
7.10134e-08
-2.11018e-07
7.26603e-08
-2.32252e-07
7.37548e-08
-2.5362e-07
7.43075e-08
-2.74977e-07
7.4332e-08
-2.96178e-07
7.38444e-08
-3.17086e-07
7.28629e-08
-3.37566e-07
7.14071e-08
-3.57491e-07
6.94983e-08
-3.76739e-07
6.71585e-08
-3.95195e-07
6.44108e-08
-4.12748e-07
6.1279e-08
-4.29298e-07
5.77876e-08
-4.44749e-07
5.39615e-08
-4.59012e-07
4.98263e-08
-4.72007e-07
4.54079e-08
-4.83661e-07
4.07329e-08
-4.93909e-07
3.5828e-08
-5.02693e-07
3.07205e-08
-5.09963e-07
2.54382e-08
-5.15678e-07
2.00092e-08
-5.19804e-07
1.44622e-08
-5.22316e-07
8.82605e-09
-5.23198e-07
3.13038e-09
-5.22441e-07
-2.5949e-09
-5.20046e-07
-8.3194e-09
-5.16023e-07
-1.40123e-08
-5.1039e-07
-1.96424e-08
-5.03174e-07
-2.51782e-08
-4.94412e-07
-3.05878e-08
-4.84149e-07
-3.5839e-08
-4.72439e-07
-4.08998e-08
-4.59347e-07
-4.57379e-08
-4.44945e-07
-5.03211e-08
-4.29315e-07
-5.46175e-08
-4.12547e-07
-5.85955e-08
-3.9474e-07
-6.22242e-08
-3.76002e-07
-6.54734e-08
-3.56448e-07
-6.83138e-08
-3.362e-07
-7.07174e-08
-3.15391e-07
-7.26575e-08
-2.94156e-07
-7.41095e-08
-2.72638e-07
-7.50505e-08
-2.50986e-07
-7.54602e-08
-2.29353e-07
-7.53211e-08
-2.07893e-07
-7.46189e-08
-1.86767e-07
-7.33432e-08
-1.66131e-07
-7.14877e-08
-1.46146e-07
-6.90515e-08
-1.26967e-07
-6.60392e-08
-1.08746e-07
-6.24627e-08
-9.16284e-08
-5.83423e-08
-7.57495e-08
-5.37079e-08
-6.12325e-08
-4.86021e-08
-4.81841e-08
-4.30823e-08
-3.66907e-08
-3.72246e-08
-2.68133e-08
-3.11292e-08
-1.85818e-08
-2.49261e-08
-1.19897e-08
-1.87833e-08
-6.98699e-09
-1.29181e-08
-3.47403e-09
-7.60992e-09
-1.29522e-09
-3.21442e-09
-2.33084e-10
-1.82022e-10
8.7767e-10
-5.49909e-10
-1.63026e-10
-2.42635e-09
2.55755e-09
-5.82182e-09
7.41197e-09
-1.0884e-08
1.37232e-08
-1.77134e-08
2.09822e-08
-2.63652e-08
2.87822e-08
-3.68521e-08
3.68014e-08
-4.91486e-08
4.47883e-08
-6.31968e-08
5.25483e-08
-7.89106e-08
5.9932e-08
-9.61808e-08
6.68261e-08
-1.1488e-07
7.31459e-08
-1.34867e-07
7.88301e-08
-1.55987e-07
8.38355e-08
-1.78081e-07
8.81339e-08
-2.00983e-07
9.17088e-08
-2.24523e-07
9.45536e-08
-2.48532e-07
9.66693e-08
-2.7284e-07
9.80632e-08
-2.97281e-07
9.87479e-08
-3.21689e-07
9.874e-08
-3.45904e-07
9.80597e-08
-3.69771e-07
9.67299e-08
-3.9314e-07
9.4776e-08
-4.15867e-07
9.2225e-08
-4.37814e-07
8.91058e-08
-4.58851e-07
8.54482e-08
-4.78856e-07
8.12835e-08
-4.97712e-07
7.66437e-08
-5.15312e-07
7.15617e-08
-5.31557e-07
6.60711e-08
-5.46355e-07
6.02063e-08
-5.59625e-07
5.4002e-08
-5.71291e-07
4.7494e-08
-5.81288e-07
4.07182e-08
-5.89562e-07
3.37115e-08
-5.96064e-07
2.65111e-08
-6.00756e-07
1.9155e-08
-6.03612e-07
1.16815e-08
-6.04611e-07
4.12989e-09
-6.03746e-07
-3.46032e-09
-6.01016e-07
-1.10489e-08
-5.96434e-07
-1.85949e-08
-5.90019e-07
-2.60573e-08
-5.81803e-07
-3.33942e-08
-5.71827e-07
-4.05636e-08
-5.60143e-07
-4.75233e-08
-5.46812e-07
-5.42306e-08
-5.31907e-07
-6.06432e-08
-5.15509e-07
-6.67188e-08
-4.97711e-07
-7.24154e-08
-4.78615e-07
-7.76915e-08
-4.58333e-07
-8.25066e-08
-4.36985e-07
-8.68212e-08
-4.14702e-07
-9.0597e-08
-3.91622e-07
-9.37975e-08
-3.67891e-07
-9.63881e-08
-3.43664e-07
-9.83368e-08
-3.191e-07
-9.96142e-08
-2.94366e-07
-1.00194e-07
-2.69632e-07
-1.00055e-07
-2.45072e-07
-9.91785e-08
-2.20863e-07
-9.75519e-08
-1.97183e-07
-9.51684e-08
-1.74206e-07
-9.2028e-08
-1.52107e-07
-8.81383e-08
-1.31054e-07
-8.35163e-08
-1.11206e-07
-7.81897e-08
-9.27148e-08
-7.21992e-08
-7.57161e-08
-6.56008e-08
-6.03292e-08
-5.84692e-08
-4.6652e-08
-5.09018e-08
-3.47569e-08
-4.30244e-08
-2.46859e-08
-3.4997e-08
-1.64462e-08
-2.7023e-08
-1.00052e-08
-1.93591e-08
-5.28679e-09
-1.23283e-08
-2.16809e-09
-6.33311e-09
-4.78339e-10
-1.87177e-09
3.99329e-10
-8.051e-10
6.42089e-10
-3.3479e-09
5.10031e-09
-7.74671e-09
1.18108e-08
-1.40939e-08
2.00705e-08
-2.24486e-08
2.93368e-08
-3.28337e-08
3.91674e-08
-4.52376e-08
4.92051e-08
-5.9615e-08
5.91657e-08
-7.58914e-08
6.88247e-08
-9.39662e-08
7.80068e-08
-1.13717e-07
8.65765e-08
-1.35002e-07
9.44312e-08
-1.57667e-07
1.01495e-07
-1.81544e-07
1.07713e-07
-2.0646e-07
1.1305e-07
-2.32234e-07
1.17482e-07
-2.58681e-07
1.21001e-07
-2.85617e-07
1.23605e-07
-3.12857e-07
1.25303e-07
-3.40218e-07
1.26109e-07
-3.6752e-07
1.26042e-07
-3.94587e-07
1.25127e-07
-4.2125e-07
1.23392e-07
-4.47342e-07
1.20869e-07
-4.72707e-07
1.1759e-07
-4.97192e-07
1.13591e-07
-5.20655e-07
1.08911e-07
-5.4296e-07
1.03588e-07
-5.63978e-07
9.76625e-08
-5.83593e-07
9.11762e-08
-6.01693e-07
8.41716e-08
-6.18179e-07
7.66922e-08
-6.32959e-07
6.87821e-08
-6.45952e-07
6.04866e-08
-6.57085e-07
5.18515e-08
-6.66297e-07
4.29235e-08
-6.73536e-07
3.37499e-08
-6.7876e-07
2.43791e-08
-6.81938e-07
1.48598e-08
-6.8305e-07
5.24186e-09
-6.82086e-07
-4.42442e-09
-6.79047e-07
-1.40879e-08
-6.73945e-07
-2.36968e-08
-6.66804e-07
-3.31988e-08
-6.57657e-07
-4.25409e-08
-6.46551e-07
-5.16699e-08
-6.33542e-07
-6.05322e-08
-6.18699e-07
-6.90739e-08
-6.021e-07
-7.72414e-08
-5.83838e-07
-8.49812e-08
-5.64013e-07
-9.22404e-08
-5.42738e-07
-9.89667e-08
-5.20135e-07
-1.05109e-07
-4.96339e-07
-1.10618e-07
-4.71492e-07
-1.15444e-07
-4.45745e-07
-1.19544e-07
-4.19261e-07
-1.22872e-07
-3.92207e-07
-1.2539e-07
-3.6476e-07
-1.27061e-07
-3.37102e-07
-1.27853e-07
-3.09418e-07
-1.27738e-07
-2.81901e-07
-1.26696e-07
-2.54741e-07
-1.24711e-07
-2.28134e-07
-1.21776e-07
-2.0227e-07
-1.17891e-07
-1.7734e-07
-1.13069e-07
-1.53525e-07
-1.07331e-07
-1.31001e-07
-1.00713e-07
-1.09933e-07
-9.32679e-08
-9.04688e-08
-8.50645e-08
-7.27423e-08
-7.61956e-08
-5.68643e-08
-6.67798e-08
-4.29211e-08
-5.69676e-08
-3.09701e-08
-4.6948e-08
-2.10366e-08
-3.69565e-08
-1.31109e-08
-2.72848e-08
-7.1458e-09
-1.82934e-08
-3.0568e-09
-1.04221e-08
-7.24192e-10
-4.20439e-09
-3.2487e-10
-1.05479e-09
1.69689e-09
-4.26172e-09
8.30722e-09
-9.66972e-09
1.72187e-08
-1.73156e-08
2.77163e-08
-2.7214e-08
3.92352e-08
-3.93528e-08
5.13062e-08
-5.36916e-08
6.35439e-08
-7.01622e-08
7.56364e-08
-8.86706e-08
8.7333e-08
-1.09099e-07
9.84352e-08
-1.3131e-07
1.08787e-07
-1.55148e-07
1.18269e-07
-1.80443e-07
1.26791e-07
-2.07017e-07
1.34287e-07
-2.3468e-07
1.40713e-07
-2.63238e-07
1.4604e-07
-2.92494e-07
1.50257e-07
-3.22248e-07
1.53359e-07
-3.52302e-07
1.55357e-07
-3.82458e-07
1.56265e-07
-4.12524e-07
1.56108e-07
-4.42309e-07
1.54912e-07
-4.7163e-07
1.52713e-07
-5.00308e-07
1.49547e-07
-5.28172e-07
1.45454e-07
-5.5506e-07
1.40479e-07
-5.80816e-07
1.34666e-07
-6.05292e-07
1.28064e-07
-6.28351e-07
1.20722e-07
-6.49865e-07
1.1269e-07
-6.69714e-07
1.04021e-07
-6.87789e-07
9.47676e-08
-7.03992e-07
8.49849e-08
-7.18234e-07
7.47283e-08
-7.30436e-07
6.4054e-08
-7.40533e-07
5.30197e-08
-7.48466e-07
4.16837e-08
-7.54193e-07
3.01053e-08
-7.57678e-07
1.83449e-08
-7.58899e-07
6.46347e-09
-7.57847e-07
-5.47677e-09
-7.54522e-07
-1.7413e-08
-7.48937e-07
-2.92814e-08
-7.41118e-07
-4.10177e-08
-7.31102e-07
-5.25569e-08
-7.18939e-07
-6.38333e-08
-7.0469e-07
-7.47813e-08
-6.88429e-07
-8.53347e-08
-6.70243e-07
-9.54279e-08
-6.50229e-07
-1.04995e-07
-6.28497e-07
-1.13972e-07
-6.0517e-07
-1.22294e-07
-5.8038e-07
-1.29899e-07
-5.54272e-07
-1.36726e-07
-5.26999e-07
-1.42717e-07
-4.98727e-07
-1.47816e-07
-4.69628e-07
-1.51971e-07
-4.39886e-07
-1.55132e-07
-4.0969e-07
-1.57257e-07
-3.79237e-07
-1.58307e-07
-3.48726e-07
-1.58249e-07
-3.18365e-07
-1.57058e-07
-2.8836e-07
-1.54716e-07
-2.58919e-07
-1.51216e-07
-2.30251e-07
-1.4656e-07
-2.02557e-07
-1.40763e-07
-1.76035e-07
-1.33852e-07
-1.50876e-07
-1.25873e-07
-1.27256e-07
-1.16887e-07
-1.05341e-07
-1.0698e-07
-8.52754e-08
-9.62609e-08
-6.71867e-08
-8.48685e-08
-5.11771e-08
-7.29772e-08
-3.73228e-08
-6.08023e-08
-2.56708e-08
-4.86085e-08
-1.62375e-08
-3.67181e-08
-9.00861e-09
-2.55224e-08
-3.94058e-09
-1.54902e-08
-9.65314e-10
-7.17966e-09
-1.29019e-09
-1.29661e-09
2.9935e-09
-5.15674e-09
1.21674e-08
-1.15661e-08
2.36281e-08
-2.05078e-08
3.66581e-08
-3.19517e-08
5.0679e-08
-4.58483e-08
6.52028e-08
-6.21265e-08
7.98221e-08
-8.06922e-08
9.42021e-08
-1.0143e-07
1.0807e-07
-1.24202e-07
1.21208e-07
-1.48854e-07
1.3344e-07
-1.75216e-07
1.44631e-07
-2.03104e-07
1.54679e-07
-2.32324e-07
1.63507e-07
-2.62674e-07
1.71063e-07
-2.93947e-07
1.77313e-07
-3.25931e-07
1.82241e-07
-3.58415e-07
1.85843e-07
-3.91187e-07
1.88129e-07
-4.24036e-07
1.89115e-07
-4.56758e-07
1.88829e-07
-4.89149e-07
1.87304e-07
-5.21014e-07
1.84578e-07
-5.52162e-07
1.80695e-07
-5.82411e-07
1.75704e-07
-6.11587e-07
1.69655e-07
-6.39524e-07
1.62603e-07
-6.66064e-07
1.54605e-07
-6.91061e-07
1.45718e-07
-7.14377e-07
1.36005e-07
-7.35884e-07
1.25528e-07
-7.55466e-07
1.1435e-07
-7.73017e-07
1.02536e-07
-7.88443e-07
9.01538e-08
-8.01659e-07
7.72706e-08
-8.12595e-07
6.39553e-08
-8.21189e-07
5.02782e-08
-8.27394e-07
3.63106e-08
-8.31174e-07
2.21247e-08
-8.32505e-07
7.79422e-09
-8.31375e-07
-6.60646e-09
-8.27787e-07
-2.10018e-08
-8.21753e-07
-3.53153e-08
-8.13301e-07
-4.94698e-08
-8.0247e-07
-6.33872e-08
-7.89315e-07
-7.6989e-08
-7.73899e-07
-9.01964e-08
-7.56304e-07
-1.0293e-07
-7.36619e-07
-1.15112e-07
-7.14952e-07
-1.26663e-07
-6.91417e-07
-1.37506e-07
-6.66147e-07
-1.47564e-07
-6.39282e-07
-1.56764e-07
-6.10976e-07
-1.65032e-07
-5.81395e-07
-1.72298e-07
-5.50714e-07
-1.78497e-07
-5.19118e-07
-1.83567e-07
-4.86801e-07
-1.87449e-07
-4.53966e-07
-1.90092e-07
-4.20821e-07
-1.91451e-07
-3.87583e-07
-1.91487e-07
-3.54469e-07
-1.90172e-07
-3.21701e-07
-1.87484e-07
-2.89501e-07
-1.83416e-07
-2.5809e-07
-1.77971e-07
-2.27685e-07
-1.71167e-07
-1.98499e-07
-1.63038e-07
-1.70735e-07
-1.53637e-07
-1.44585e-07
-1.43038e-07
-1.20228e-07
-1.31337e-07
-9.78259e-08
-1.18663e-07
-7.75225e-08
-1.05172e-07
-5.94383e-08
-9.10613e-08
-4.36705e-08
-7.65702e-08
-3.02904e-08
-6.19885e-08
-1.93435e-08
-4.7665e-08
-1.085e-08
-3.40159e-08
-4.80793e-09
-2.15322e-08
-1.19916e-09
-1.07884e-08
-2.48933e-09
-1.52967e-09
4.52316e-09
-6.02751e-09
1.66652e-08
-1.34223e-08
3.10229e-08
-2.36465e-08
4.68823e-08
-3.66259e-08
6.36584e-08
-5.22733e-08
8.08502e-08
-7.04852e-08
9.8034e-08
-9.114e-08
1.14857e-07
-1.14098e-07
1.31028e-07
-1.39202e-07
1.46311e-07
-1.66278e-07
1.60516e-07
-1.95139e-07
1.73493e-07
-2.25587e-07
1.85127e-07
-2.57413e-07
1.95333e-07
-2.90401e-07
2.04051e-07
-3.24331e-07
2.11243e-07
-3.5898e-07
2.16889e-07
-3.94122e-07
2.20985e-07
-4.29533e-07
2.2354e-07
-4.64992e-07
2.24574e-07
-5.00281e-07
2.24118e-07
-5.35187e-07
2.22209e-07
-5.69501e-07
2.18892e-07
-6.03024e-07
2.14218e-07
-6.35562e-07
2.08242e-07
-6.66931e-07
2.01024e-07
-6.96955e-07
1.92628e-07
-7.25469e-07
1.83119e-07
-7.52317e-07
1.72566e-07
-7.77353e-07
1.61041e-07
-8.00442e-07
1.48617e-07
-8.21462e-07
1.35369e-07
-8.40299e-07
1.21374e-07
-8.56854e-07
1.06709e-07
-8.71039e-07
9.14553e-08
-8.82777e-07
7.56934e-08
-8.92005e-07
5.95059e-08
-8.98671e-07
4.29768e-08
-9.02738e-07
2.61913e-08
-9.0418e-07
9.23581e-09
-9.02984e-07
-7.80193e-09
-8.99153e-07
-2.48331e-08
-8.92701e-07
-4.17676e-08
-8.83655e-07
-5.85149e-08
-8.7206e-07
-7.4983e-08
-8.57969e-07
-9.10798e-08
-8.41453e-07
-1.06713e-07
-8.22594e-07
-1.21789e-07
-8.01491e-07
-1.36215e-07
-7.78253e-07
-1.49901e-07
-7.53005e-07
-1.62754e-07
-7.25884e-07
-1.74686e-07
-6.97039e-07
-1.85608e-07
-6.66634e-07
-1.95437e-07
-6.34842e-07
-2.0409e-07
-6.01849e-07
-2.11491e-07
-5.6785e-07
-2.17566e-07
-5.33051e-07
-2.22248e-07
-4.97666e-07
-2.25478e-07
-4.61916e-07
-2.27201e-07
-4.26027e-07
-2.27376e-07
-3.90232e-07
-2.25966e-07
-3.54766e-07
-2.22951e-07
-3.19863e-07
-2.18319e-07
-2.85758e-07
-2.12076e-07
-2.52683e-07
-2.04243e-07
-2.20863e-07
-1.94858e-07
-1.90517e-07
-1.83984e-07
-1.61851e-07
-1.71703e-07
-1.35062e-07
-1.58127e-07
-1.10328e-07
-1.43397e-07
-8.78097e-08
-1.2769e-07
-6.76496e-08
-1.11221e-07
-4.99673e-08
-9.42524e-08
-3.48606e-08
-7.70953e-08
-2.24051e-08
-6.01206e-08
-1.26563e-08
-4.37647e-08
-5.65327e-09
-2.85352e-08
-1.42478e-09
-1.50169e-08
-3.91411e-09
-1.75399e-09
6.27713e-09
-6.8721e-09
2.17833e-08
-1.52321e-08
3.93829e-08
-2.67194e-08
5.83696e-08
-4.12172e-08
7.81561e-08
-5.86007e-08
9.82338e-08
-7.87337e-08
1.18167e-07
-1.01466e-07
1.37589e-07
-1.26632e-07
1.56194e-07
-1.54052e-07
1.73732e-07
-1.83534e-07
1.89998e-07
-2.14873e-07
2.04831e-07
-2.47853e-07
2.18107e-07
-2.82252e-07
2.29731e-07
-3.17839e-07
2.39638e-07
-3.54381e-07
2.47785e-07
-3.91641e-07
2.54149e-07
-4.29382e-07
2.58727e-07
-4.6737e-07
2.61528e-07
-5.05371e-07
2.62575e-07
-5.43155e-07
2.61902e-07
-5.80499e-07
2.59553e-07
-6.17186e-07
2.55578e-07
-6.53004e-07
2.50036e-07
-6.87751e-07
2.42989e-07
-7.21234e-07
2.34507e-07
-7.53269e-07
2.24662e-07
-7.83681e-07
2.13531e-07
-8.12308e-07
2.01193e-07
-8.38996e-07
1.87729e-07
-8.63605e-07
1.73226e-07
-8.86004e-07
1.57768e-07
-9.06077e-07
1.41446e-07
-9.23717e-07
1.2435e-07
-9.38833e-07
1.06571e-07
-9.51344e-07
8.82045e-08
-9.61184e-07
6.93454e-08
-9.68298e-07
5.0091e-08
-9.72646e-07
3.05398e-08
-9.74202e-07
1.0792e-08
-9.72953e-07
-9.05093e-09
-9.689e-07
-2.88862e-08
-9.62058e-07
-4.86097e-08
-9.52457e-07
-6.81164e-08
-9.40139e-07
-8.73003e-08
-9.25165e-07
-1.06055e-07
-9.07605e-07
-1.24272e-07
-8.87547e-07
-1.41846e-07
-8.65093e-07
-1.58669e-07
-8.40358e-07
-1.74636e-07
-8.13473e-07
-1.8964e-07
-7.8458e-07
-2.03579e-07
-7.53836e-07
-2.16352e-07
-7.21413e-07
-2.27861e-07
-6.87491e-07
-2.38012e-07
-6.52267e-07
-2.46715e-07
-6.15944e-07
-2.53888e-07
-5.78738e-07
-2.59453e-07
-5.40875e-07
-2.63341e-07
-5.02586e-07
-2.65491e-07
-4.64109e-07
-2.65852e-07
-4.2569e-07
-2.64386e-07
-3.87574e-07
-2.61066e-07
-3.50011e-07
-2.55882e-07
-3.13248e-07
-2.48839e-07
-2.77531e-07
-2.3996e-07
-2.431e-07
-2.29289e-07
-2.10188e-07
-2.16895e-07
-1.79019e-07
-2.02872e-07
-1.49805e-07
-1.87341e-07
-1.22742e-07
-1.70459e-07
-9.80129e-08
-1.52419e-07
-7.57802e-08
-1.33454e-07
-5.61885e-08
-1.13844e-07
-3.9363e-08
-9.39208e-08
-2.54105e-08
-7.40731e-08
-1.44216e-08
-5.47536e-08
-6.47475e-09
-3.64821e-08
-1.64219e-09
-1.98494e-08
-5.55631e-09
-1.97004e-09
8.24716e-09
-7.69074e-09
2.7504e-08
-1.69942e-08
4.86864e-08
-2.9722e-08
7.10974e-08
-4.5717e-08
9.41511e-08
-6.48177e-08
1.17334e-07
-8.68547e-08
1.40204e-07
-1.11648e-07
1.62382e-07
-1.39007e-07
1.83553e-07
-1.68729e-07
2.03453e-07
-2.006e-07
2.21869e-07
-2.34395e-07
2.38627e-07
-2.69884e-07
2.53596e-07
-3.06828e-07
2.66674e-07
-3.44981e-07
2.77791e-07
-3.84097e-07
2.86901e-07
-4.23927e-07
2.93979e-07
-4.64222e-07
2.99022e-07
-5.04734e-07
3.02041e-07
-5.45221e-07
3.03062e-07
-5.85442e-07
3.02123e-07
-6.25163e-07
2.99274e-07
-6.64158e-07
2.94573e-07
-7.02206e-07
2.88084e-07
-7.39097e-07
2.7988e-07
-7.74629e-07
2.70039e-07
-8.0861e-07
2.58643e-07
-8.40858e-07
2.4578e-07
-8.71204e-07
2.31539e-07
-8.99489e-07
2.16014e-07
-9.25564e-07
1.99301e-07
-9.49296e-07
1.815e-07
-9.70562e-07
1.62712e-07
-9.89251e-07
1.43039e-07
-1.00527e-06
1.22588e-07
-1.01853e-06
1.01465e-07
-1.02896e-06
7.97804e-08
-1.03652e-06
5.76439e-08
-1.04115e-06
3.51685e-08
-1.04282e-06
1.24684e-08
-1.04153e-06
-1.03405e-08
-1.03728e-06
-3.3141e-08
-1.03007e-06
-5.58143e-08
-1.01995e-06
-7.82406e-08
-1.00695e-06
-1.00299e-07
-9.91137e-07
-1.21868e-07
-9.72585e-07
-1.42825e-07
-9.51384e-07
-1.63047e-07
-9.27639e-07
-1.82414e-07
-9.01471e-07
-2.00804e-07
-8.73013e-07
-2.18097e-07
-8.42416e-07
-2.34176e-07
-8.09842e-07
-2.48925e-07
-7.75469e-07
-2.62234e-07
-7.39486e-07
-2.73994e-07
-7.02097e-07
-2.84105e-07
-6.63514e-07
-2.92471e-07
-6.23963e-07
-2.99004e-07
-5.83678e-07
-3.03626e-07
-5.42903e-07
-3.06266e-07
-5.01887e-07
-3.06868e-07
-4.60885e-07
-3.05387e-07
-4.20158e-07
-3.01794e-07
-3.79966e-07
-2.96074e-07
-3.4057e-07
-2.88234e-07
-3.02232e-07
-2.78298e-07
-2.65205e-07
-2.66316e-07
-2.29739e-07
-2.52362e-07
-1.96074e-07
-2.36537e-07
-1.64439e-07
-2.18975e-07
-1.35053e-07
-1.99846e-07
-1.08117e-07
-1.79355e-07
-8.38172e-08
-1.57754e-07
-6.23242e-08
-1.35337e-07
-4.37914e-08
-1.12454e-07
-2.83568e-08
-8.95077e-08
-1.61453e-08
-6.69651e-08
-7.2729e-09
-4.53545e-08
-1.85194e-09
-2.52704e-08
-7.40828e-09
-2.17859e-09
1.04257e-08
-8.48503e-09
3.38105e-08
-1.87102e-08
5.89116e-08
-3.26554e-08
8.50425e-08
-5.01248e-08
1.11621e-07
-7.09214e-08
1.38131e-07
-9.48431e-08
1.64126e-07
-1.21681e-07
1.8922e-07
-1.51216e-07
2.13089e-07
-1.83223e-07
2.3546e-07
-2.17465e-07
2.56111e-07
-2.537e-07
2.74862e-07
-2.91677e-07
2.91573e-07
-3.31142e-07
3.06139e-07
-3.71835e-07
3.18484e-07
-4.13495e-07
3.28561e-07
-4.5586e-07
3.36344e-07
-4.9867e-07
3.41832e-07
-5.41666e-07
3.45037e-07
-5.84594e-07
3.45989e-07
-6.27203e-07
3.44733e-07
-6.69251e-07
3.41323e-07
-7.10502e-07
3.35823e-07
-7.50727e-07
3.28309e-07
-7.89708e-07
3.18861e-07
-8.27235e-07
3.07566e-07
-8.63109e-07
2.94517e-07
-8.97142e-07
2.79813e-07
-9.29158e-07
2.63555e-07
-9.58992e-07
2.45848e-07
-9.86492e-07
2.26801e-07
-1.01152e-06
2.06526e-07
-1.03394e-06
1.85136e-07
-1.05365e-06
1.62749e-07
-1.07055e-06
1.39483e-07
-1.08454e-06
1.15459e-07
-1.09556e-06
9.07994e-08
-1.10355e-06
6.56304e-08
-1.10845e-06
4.00785e-08
-1.11026e-06
1.42725e-08
-1.10894e-06
-1.1657e-08
-1.10451e-06
-3.75777e-08
-1.09696e-06
-6.33557e-08
-1.08635e-06
-8.8856e-08
-1.07271e-06
-1.13942e-07
-1.0561e-06
-1.38477e-07
-1.0366e-06
-1.62323e-07
-1.0143e-06
-1.85342e-07
-9.89321e-07
-2.07397e-07
-9.61774e-07
-2.28351e-07
-9.31802e-07
-2.48069e-07
-8.99559e-07
-2.66419e-07
-8.65213e-07
-2.83271e-07
-8.28948e-07
-2.98499e-07
-7.90961e-07
-3.11982e-07
-7.51461e-07
-3.23605e-07
-7.10671e-07
-3.33261e-07
-6.68824e-07
-3.40851e-07
-6.26164e-07
-3.46286e-07
-5.82943e-07
-3.49486e-07
-5.39424e-07
-3.50388e-07
-4.95872e-07
-3.48939e-07
-4.52559e-07
-3.45107e-07
-4.0976e-07
-3.38873e-07
-3.6775e-07
-3.30244e-07
-3.26803e-07
-3.19246e-07
-2.87189e-07
-3.0593e-07
-2.49175e-07
-2.90376e-07
-2.13018e-07
-2.72694e-07
-1.78967e-07
-2.53026e-07
-1.4726e-07
-2.31553e-07
-1.18121e-07
-2.08495e-07
-9.17607e-08
-1.84114e-07
-6.83756e-08
-1.58722e-07
-4.81479e-08
-1.32681e-07
-3.12465e-08
-1.06409e-07
-1.783e-08
-8.03816e-08
-8.04975e-09
-5.51348e-08
-2.05491e-09
-3.12653e-08
-9.46319e-09
-2.38052e-09
1.28063e-08
-9.25732e-09
4.06873e-08
-2.03839e-08
7.00381e-08
-3.55237e-08
1.00182e-07
-5.4445e-08
1.30542e-07
-7.6916e-08
1.60602e-07
-1.02703e-07
1.89912e-07
-1.31566e-07
2.18084e-07
-1.63261e-07
2.44784e-07
-1.97537e-07
2.69736e-07
-2.34135e-07
2.92709e-07
-2.72792e-07
3.13519e-07
-3.1324e-07
3.32021e-07
-3.55206e-07
3.48105e-07
-3.98417e-07
3.61694e-07
-4.42596e-07
3.7274e-07
-4.87469e-07
3.81218e-07
-5.32763e-07
3.87126e-07
-5.78209e-07
3.90482e-07
-6.23541e-07
3.91321e-07
-6.68501e-07
3.89692e-07
-7.12835e-07
3.85657e-07
-7.56299e-07
3.79287e-07
-7.98657e-07
3.70667e-07
-8.39683e-07
3.59887e-07
-8.7916e-07
3.47043e-07
-9.16884e-07
3.32241e-07
-9.52659e-07
3.15589e-07
-9.86305e-07
2.97201e-07
-1.01765e-06
2.77194e-07
-1.04654e-06
2.5569e-07
-1.07283e-06
2.32814e-07
-1.09638e-06
2.08692e-07
-1.11709e-06
1.83456e-07
-1.13484e-06
1.57237e-07
-1.14956e-06
1.30171e-07
-1.16115e-06
1.02395e-07
-1.16957e-06
7.40483e-08
-1.17476e-06
4.52732e-08
-1.17671e-06
1.62133e-08
-1.17538e-06
-1.29857e-08
-1.17078e-06
-4.21761e-08
-1.16293e-06
-7.12087e-08
-1.15185e-06
-9.99326e-08
-1.1376e-06
-1.28196e-07
-1.12023e-06
-1.55845e-07
-1.09983e-06
-1.82726e-07
-1.07648e-06