/*--------------------------------*- C++ -*----------------------------------*\
  =========                 |
  \\      /  F ield         | OpenFOAM: The Open Source CFD Toolbox
   \\    /   O peration     | Website:  https://openfoam.org
    \\  /    A nd           | Version:  7
     \\/     M anipulation  |
\*---------------------------------------------------------------------------*/
FoamFile
{
    version     2.0;
    format      ascii;
    class       volVectorField;
    location    "0.15";
    object      U;
}
// * * * * * * * * * * * * * * * * * * * * * * * * * * * * * * * * * * * * * //

dimensions      [0 1 -1 0 0 0 0];

internalField   nonuniform List<vector> 
6400
(
(7.24512e-06 -7.2211e-06 0)
(2.97282e-05 -1.43829e-05 0)
(5.91109e-05 -1.41172e-05 0)
(8.0303e-05 -9.68252e-06 0)
(8.50655e-05 -3.38693e-06 0)
(7.0151e-05 3.56852e-06 0)
(3.44386e-05 1.05722e-05 0)
(-2.20409e-05 1.73086e-05 0)
(-9.8535e-05 2.36145e-05 0)
(-0.000193856 2.94076e-05 0)
(-0.000306563 3.46488e-05 0)
(-0.000435061 3.9324e-05 0)
(-0.000577674 4.34319e-05 0)
(-0.000732687 4.69805e-05 0)
(-0.000898375 4.99789e-05 0)
(-0.00107302 5.24445e-05 0)
(-0.00125495 5.43947e-05 0)
(-0.0014425 5.58472e-05 0)
(-0.00163408 5.68206e-05 0)
(-0.00182813 5.73351e-05 0)
(-0.00202317 5.74114e-05 0)
(-0.00221776 5.70697e-05 0)
(-0.00241052 5.63307e-05 0)
(-0.00260015 5.52153e-05 0)
(-0.00278541 5.37439e-05 0)
(-0.00296511 5.19371e-05 0)
(-0.00313816 4.98148e-05 0)
(-0.00330349 4.73973e-05 0)
(-0.00346014 4.47044e-05 0)
(-0.0036072 4.17556e-05 0)
(-0.00374382 3.85708e-05 0)
(-0.00386922 3.51699e-05 0)
(-0.0039827 3.1573e-05 0)
(-0.00408363 2.78001e-05 0)
(-0.00417142 2.38716e-05 0)
(-0.0042456 1.9808e-05 0)
(-0.00430573 1.56297e-05 0)
(-0.00435145 1.13579e-05 0)
(-0.0043825 7.01417e-06 0)
(-0.00439866 2.62042e-06 0)
(-0.00439981 -1.80087e-06 0)
(-0.00438589 -6.22725e-06 0)
(-0.00435695 -1.0636e-05 0)
(-0.00431308 -1.50032e-05 0)
(-0.00425447 -1.93044e-05 0)
(-0.00418141 -2.35155e-05 0)
(-0.00409426 -2.76119e-05 0)
(-0.00399345 -3.15674e-05 0)
(-0.00387952 -3.53561e-05 0)
(-0.00375309 -3.89525e-05 0)
(-0.00361486 -4.23305e-05 0)
(-0.00346564 -4.54632e-05 0)
(-0.00330629 -4.83248e-05 0)
(-0.0031378 -5.08902e-05 0)
(-0.0029612 -5.31339e-05 0)
(-0.00277764 -5.50307e-05 0)
(-0.00258832 -5.65557e-05 0)
(-0.00239455 -5.76856e-05 0)
(-0.00219768 -5.83974e-05 0)
(-0.00199915 -5.86692e-05 0)
(-0.00180046 -5.84807e-05 0)
(-0.00160317 -5.78134e-05 0)
(-0.0014089 -5.66502e-05 0)
(-0.00121929 -5.49747e-05 0)
(-0.00103604 -5.27729e-05 0)
(-0.000860871 -5.00336e-05 0)
(-0.000695504 -4.67493e-05 0)
(-0.000541669 -4.2916e-05 0)
(-0.000401071 -3.85338e-05 0)
(-0.00027537 -3.36085e-05 0)
(-0.000166149 -2.81548e-05 0)
(-7.48658e-05 -2.22022e-05 0)
(-2.78485e-06 -1.58044e-05 0)
(4.91263e-05 -9.05863e-06 0)
(8.03735e-05 -2.14341e-06 0)
(9.12183e-05 4.60795e-06 0)
(8.31019e-05 1.05715e-05 0)
(5.95811e-05 1.45535e-05 0)
(2.91508e-05 1.43134e-05 0)
(6.85412e-06 6.85308e-06 0)
(1.44252e-05 -2.97182e-05 0)
(5.13916e-05 -5.12789e-05 0)
(8.94591e-05 -4.38516e-05 0)
(0.000103009 -1.89143e-05 0)
(7.63766e-05 1.54325e-05 0)
(1.72869e-06 5.41701e-05 0)
(-0.000124625 9.42253e-05 0)
(-0.000303599 0.000133715 0)
(-0.000534151 0.000171483 0)
(-0.000813921 0.000206815 0)
(-0.00113968 0.000239271 0)
(-0.00150761 0.000268592 0)
(-0.00191355 0.000294633 0)
(-0.00235311 0.000317328 0)
(-0.00282177 0.000336666 0)
(-0.00331499 0.000352676 0)
(-0.00382823 0.000365413 0)
(-0.00435701 0.000374953 0)
(-0.00489694 0.000381389 0)
(-0.00544376 0.000384823 0)
(-0.00599331 0.000385367 0)
(-0.00654161 0.000383138 0)
(-0.00708482 0.000378259 0)
(-0.00761925 0.000370855 0)
(-0.00814142 0.000361053 0)
(-0.008648 0.000348985 0)
(-0.00913585 0.000334781 0)
(-0.009602 0.000318573 0)
(-0.0100437 0.000300492 0)
(-0.0104583 0.000280674 0)
(-0.0108435 0.000259251 0)
(-0.0111971 0.000236359 0)
(-0.011517 0.000212134 0)
(-0.0118014 0.000186714 0)
(-0.0120488 0.00016024 0)
(-0.0122577 0.000132851 0)
(-0.0124269 0.000104692 0)
(-0.0125554 7.59084e-05 0)
(-0.0126425 4.66474e-05 0)
(-0.0126876 1.70593e-05 0)
(-0.0126903 -1.27033e-05 0)
(-0.0126505 -4.24845e-05 0)
(-0.0125683 -7.21259e-05 0)
(-0.012444 -0.000101466 0)
(-0.0122782 -0.000130342 0)
(-0.0120718 -0.000158585 0)
(-0.0118256 -0.000186029 0)
(-0.0115411 -0.000212501 0)
(-0.0112196 -0.000237831 0)
(-0.0108631 -0.000261845 0)
(-0.0104734 -0.000284372 0)
(-0.0100529 -0.000305239 0)
(-0.00960411 -0.000324275 0)
(-0.00912964 -0.000341312 0)
(-0.00863252 -0.000356187 0)
(-0.00811594 -0.000368738 0)
(-0.00758329 -0.000378811 0)
(-0.0070382 -0.000386257 0)
(-0.00648448 -0.000390934 0)
(-0.00592613 -0.000392714 0)
(-0.00536731 -0.000391475 0)
(-0.00481234 -0.00038711 0)
(-0.00426564 -0.000379529 0)
(-0.00373177 -0.000368656 0)
(-0.00321531 -0.000354434 0)
(-0.00272092 -0.000336833 0)
(-0.00225323 -0.000315848 0)
(-0.00181682 -0.000291515 0)
(-0.00141612 -0.00026391 0)
(-0.00105538 -0.000233174 0)
(-0.000738533 -0.000199527 0)
(-0.000469032 -0.000163309 0)
(-0.000249667 -0.000125034 0)
(-8.22626e-05 -8.54923e-05 0)
(3.27508e-05 -4.59081e-05 0)
(9.69561e-05 -8.21364e-06 0)
(0.000114724 2.45103e-05 0)
(9.45061e-05 4.73223e-05 0)
(5.24396e-05 5.23994e-05 0)
(1.43052e-05 2.91242e-05 0)
(1.42424e-05 -5.9215e-05 0)
(4.43803e-05 -8.9491e-05 0)
(6.09082e-05 -6.00439e-05 0)
(3.51105e-05 7.047e-06 0)
(-5.1324e-05 9.64151e-05 0)
(-0.000208583 0.000197432 0)
(-0.000441986 0.000302885 0)
(-0.000753232 0.000407947 0)
(-0.00114129 0.000509404 0)
(-0.00160316 0.000605117 0)
(-0.00213443 0.000693674 0)
(-0.00272973 0.000774159 0)
(-0.00338301 0.000846007 0)
(-0.00408777 0.000908892 0)
(-0.00483727 0.00096267 0)
(-0.00562462 0.00100733 0)
(-0.00644287 0.00104294 0)
(-0.00728515 0.00106967 0)
(-0.00814465 0.00108772 0)
(-0.00901472 0.00109734 0)
(-0.00988889 0.00109881 0)
(-0.0107609 0.00109243 0)
(-0.0116247 0.00107854 0)
(-0.0124744 0.00105747 0)
(-0.0133047 0.00102957 0)
(-0.0141101 0.000995208 0)
(-0.0148856 0.000954737 0)
(-0.0156267 0.000908535 0)
(-0.0163289 0.000856974 0)
(-0.016988 0.000800436 0)
(-0.0176003 0.000739303 0)
(-0.0181622 0.000673963 0)
(-0.0186705 0.000604808 0)
(-0.0191225 0.000532233 0)
(-0.0195154 0.000456641 0)
(-0.0198471 0.000378439 0)
(-0.0201157 0.000298042 0)
(-0.0203196 0.000215867 0)
(-0.0204575 0.00013234 0)
(-0.0205286 4.78941e-05 0)
(-0.0205323 -3.70296e-05 0)
(-0.0204684 -0.000121985 0)
(-0.0203372 -0.000206516 0)
(-0.0201391 -0.00029016 0)
(-0.0198751 -0.000372448 0)
(-0.0195464 -0.000452904 0)
(-0.0191547 -0.000531046 0)
(-0.0187021 -0.00060639 0)
(-0.018191 -0.000678449 0)
(-0.0176242 -0.000746732 0)
(-0.017005 -0.000810753 0)
(-0.0163369 -0.000870027 0)
(-0.0156238 -0.000924073 0)
(-0.0148702 -0.000972421 0)
(-0.0140807 -0.00101461 0)
(-0.0132603 -0.0010502 0)
(-0.0124144 -0.00107875 0)
(-0.0115488 -0.00109987 0)
(-0.0106695 -0.00111316 0)
(-0.00978264 -0.00111828 0)
(-0.00889483 -0.00111491 0)
(-0.00801278 -0.00110278 0)
(-0.00714339 -0.00108165 0)
(-0.00629372 -0.00105135 0)
(-0.00547085 -0.00101178 0)
(-0.00468193 -0.000962896 0)
(-0.00393401 -0.000904766 0)
(-0.00323402 -0.000837564 0)
(-0.00258861 -0.000761613 0)
(-0.00200405 -0.000677423 0)
(-0.00148602 -0.00058576 0)
(-0.00103939 -0.000487735 0)
(-0.000667941 -0.00038495 0)
(-0.000373916 -0.00027972 0)
(-0.000157493 -0.0001754 0)
(-1.6054e-05 -7.68977e-05 0)
(5.66298e-05 8.60289e-06 0)
(7.15596e-05 7.06925e-05 0)
(4.77807e-05 9.45725e-05 0)
(1.46272e-05 5.96054e-05 0)
(1.00117e-05 -8.08925e-05 0)
(2.0253e-05 -0.000103822 0)
(-4.54131e-06 -3.46119e-05 0)
(-9.10653e-05 9.40273e-05 0)
(-0.000257412 0.000259401 0)
(-0.000514498 0.000445008 0)
(-0.000868216 0.000639017 0)
(-0.00132051 0.000833089 0)
(-0.00187024 0.00102138 0)
(-0.00251387 0.00119983 0)
(-0.00324612 0.00136563 0)
(-0.00406041 0.00151687 0)
(-0.00494924 0.0016523 0)
(-0.00590443 0.00177116 0)
(-0.0069174 0.00187302 0)
(-0.00797933 0.00195774 0)
(-0.00908127 0.00202537 0)
(-0.0102143 0.00207613 0)
(-0.0113694 0.00211034 0)
(-0.0125381 0.00212843 0)
(-0.0137117 0.00213088 0)
(-0.0148819 0.00211826 0)
(-0.0160408 0.00209116 0)
(-0.0171806 0.0020502 0)
(-0.018294 0.00199604 0)
(-0.019374 0.00192936 0)
(-0.0204139 0.00185086 0)
(-0.0214074 0.00176125 0)
(-0.0223486 0.00166124 0)
(-0.0232321 0.00155157 0)
(-0.0240527 0.00143298 0)
(-0.0248057 0.00130622 0)
(-0.0254868 0.00117206 0)
(-0.0260923 0.00103127 0)
(-0.0266186 0.000884621 0)
(-0.0270627 0.000732918 0)
(-0.0274222 0.000576962 0)
(-0.0276949 0.000417573 0)
(-0.0278791 0.00025558 0)
(-0.0279738 9.18282e-05 0)
(-0.0279781 -7.2826e-05 0)
(-0.0278919 -0.000237511 0)
(-0.0277154 -0.000401341 0)
(-0.0274493 -0.000563417 0)
(-0.027095 -0.000722828 0)
(-0.026654 -0.000878653 0)
(-0.0261288 -0.00102996 0)
(-0.025522 -0.00117581 0)
(-0.0248369 -0.00131527 0)
(-0.0240773 -0.00144739 0)
(-0.0232475 -0.00157123 0)
(-0.0223523 -0.00168587 0)
(-0.021397 -0.00179039 0)
(-0.0203874 -0.00188387 0)
(-0.0193297 -0.00196546 0)
(-0.0182307 -0.0020343 0)
(-0.0170975 -0.00208958 0)
(-0.0159376 -0.00213054 0)
(-0.0147591 -0.00215647 0)
(-0.0135702 -0.00216671 0)
(-0.0123794 -0.00216068 0)
(-0.0111958 -0.00213791 0)
(-0.0100282 -0.00209798 0)
(-0.00888601 -0.00204062 0)
(-0.00777838 -0.00196568 0)
(-0.00671456 -0.00187318 0)
(-0.00570369 -0.00176332 0)
(-0.00475462 -0.00163655 0)
(-0.00387581 -0.00149359 0)
(-0.00307514 -0.00133556 0)
(-0.00235968 -0.00116407 0)
(-0.00173539 -0.000981361 0)
(-0.00120679 -0.000790577 0)
(-0.000776492 -0.00059608 0)
(-0.000444613 -0.000403938 0)
(-0.000208112 -0.0002226 0)
(-6.00029e-05 -6.38327e-05 0)
(1.16313e-05 5.62133e-05 0)
(2.59419e-05 0.000115656 0)
(1.08591e-05 8.35435e-05 0)
(3.99051e-06 -8.6667e-05 0)
(-1.30896e-05 -7.88767e-05 0)
(-9.20394e-05 5.05213e-05 0)
(-0.000253877 0.000259919 0)
(-0.000514403 0.000520013 0)
(-0.000884035 0.000808804 0)
(-0.00136834 0.00110994 0)
(-0.00196892 0.00141145 0)
(-0.0026842 0.00170466 0)
(-0.00351009 0.00198329 0)
(-0.00444049 0.00224285 0)
(-0.00546781 0.00248021 0)
(-0.00658333 0.00269322 0)
(-0.00777749 0.0028805 0)
(-0.00904019 0.00304121 0)
(-0.010361 0.003175 0)
(-0.0117292 0.00328181 0)
(-0.0131341 0.00336187 0)
(-0.0145651 0.00341562 0)
(-0.0160116 0.00344367 0)
(-0.0174632 0.00344672 0)
(-0.01891 0.00342563 0)
(-0.0203422 0.00338128 0)
(-0.0217505 0.00331467 0)
(-0.0231257 0.00322682 0)
(-0.0244593 0.0031188 0)
(-0.0257432 0.00299171 0)
(-0.0269696 0.00284669 0)
(-0.0281313 0.00268488 0)
(-0.0292216 0.00250747 0)
(-0.0302341 0.00231564 0)
(-0.0311631 0.00211062 0)
(-0.0320033 0.00189364 0)
(-0.03275 0.00166594 0)
(-0.0333989 0.00142879 0)
(-0.0339465 0.00118348 0)
(-0.0343895 0.000931321 0)
(-0.0347253 0.00067363 0)
(-0.0349521 0.000411759 0)
(-0.0350682 0.000147074 0)
(-0.035073 -0.000119033 0)
(-0.034966 -0.000385151 0)
(-0.0347477 -0.000649846 0)
(-0.034419 -0.000911666 0)
(-0.0339813 -0.00116914 0)
(-0.033437 -0.00142078 0)
(-0.0327887 -0.00166508 0)
(-0.0320399 -0.00190054 0)
(-0.0311946 -0.00212565 0)
(-0.0302575 -0.00233888 0)
(-0.0292338 -0.00253875 0)
(-0.0281295 -0.00272375 0)
(-0.0269511 -0.00289243 0)
(-0.0257056 -0.00304335 0)
(-0.0244007 -0.00317511 0)
(-0.0230446 -0.00328637 0)
(-0.0216462 -0.00337586 0)
(-0.0202144 -0.00344238 0)
(-0.0187592 -0.0034848 0)
(-0.0172905 -0.00350213 0)
(-0.0158188 -0.00349349 0)
(-0.0143547 -0.00345813 0)
(-0.0129093 -0.00339548 0)
(-0.0114936 -0.00330517 0)
(-0.0101188 -0.00318704 0)
(-0.0087958 -0.00304122 0)
(-0.00753557 -0.00286813 0)
(-0.00634858 -0.00266862 0)
(-0.0052448 -0.00244397 0)
(-0.00423347 -0.00219611 0)
(-0.00332281 -0.0019277 0)
(-0.00251971 -0.00164242 0)
(-0.00182941 -0.00134523 0)
(-0.00125497 -0.00104283 0)
(-0.000796815 -0.00074424 0)
(-0.000452079 -0.000461584 0)
(-0.000213939 -0.000211135 0)
(-7.07674e-05 -1.44594e-05 0)
(-5.34374e-06 0.000100081 0)
(5.22756e-06 9.27511e-05 0)
(-2.6792e-06 -7.3356e-05 0)
(-5.09148e-05 -6.74651e-06 0)
(-0.000191703 0.000205854 0)
(-0.000438231 0.000516234 0)
(-0.000802574 0.000889556 0)
(-0.00129372 0.00129897 0)
(-0.00191613 0.00172396 0)
(-0.00267055 0.00214904 0)
(-0.00355463 0.00256267 0)
(-0.00456349 0.00295625 0)
(-0.00569021 0.00332349 0)
(-0.00692623 0.00365985 0)
(-0.00826174 0.00396212 0)
(-0.00968599 0.00422817 0)
(-0.0111876 0.00445665 0)
(-0.0127546 0.00464687 0)
(-0.0143749 0.00479864 0)
(-0.0160364 0.00491214 0)
(-0.0177267 0.00498791 0)
(-0.0194337 0.0050267 0)
(-0.0211456 0.00502948 0)
(-0.0228507 0.00499739 0)
(-0.0245378 0.00493169 0)
(-0.0261959 0.00483374 0)
(-0.0278146 0.00470499 0)
(-0.0293839 0.00454697 0)
(-0.0308943 0.00436126 0)
(-0.0323367 0.00414948 0)
(-0.0337028 0.00391329 0)
(-0.0349847 0.0036544 0)
(-0.0361749 0.00337454 0)
(-0.0372668 0.00307548 0)
(-0.0382541 0.00275901 0)
(-0.0391315 0.00242695 0)
(-0.0398938 0.00208114 0)
(-0.0405369 0.00172348 0)
(-0.041057 0.00135585 0)
(-0.0414512 0.000980205 0)
(-0.0417172 0.000598506 0)
(-0.0418532 0.00021275 0)
(-0.0418582 -0.000175034 0)
(-0.0417321 -0.000562788 0)
(-0.0414751 -0.000948422 0)
(-0.0410884 -0.00132982 0)
(-0.0405738 -0.00170484 0)
(-0.0399338 -0.00207133 0)
(-0.0391718 -0.0024271 0)
(-0.0382917 -0.00276997 0)
(-0.0372983 -0.00309774 0)
(-0.036197 -0.00340822 0)
(-0.034994 -0.00369926 0)
(-0.0336962 -0.00396868 0)
(-0.0323111 -0.00421439 0)
(-0.0308471 -0.00443433 0)
(-0.029313 -0.00462648 0)
(-0.0277185 -0.00478894 0)
(-0.0260735 -0.00491988 0)
(-0.024389 -0.0050176 0)
(-0.022676 -0.00508053 0)
(-0.0209462 -0.00510726 0)
(-0.0192117 -0.00509658 0)
(-0.0174848 -0.00504748 0)
(-0.0157782 -0.0049592 0)
(-0.0141046 -0.0048313 0)
(-0.0124766 -0.00466365 0)
(-0.010907 -0.00445653 0)
(-0.00940802 -0.00421068 0)
(-0.00799168 -0.00392745 0)
(-0.00666923 -0.00360883 0)
(-0.0054511 -0.00325769 0)
(-0.00434655 -0.00287795 0)
(-0.0033634 -0.00247486 0)
(-0.00250764 -0.00205539 0)
(-0.00178302 -0.00162871 0)
(-0.00119062 -0.00120684 0)
(-0.00072831 -0.000805461 0)
(-0.000390179 -0.000445066 0)
(-0.000165818 -0.00015205 0)
(-4.13537e-05 3.97251e-05 0)
(-1.11397e-06 8.3888e-05 0)
(-9.43946e-06 -3.97259e-05 0)
(-9.04752e-05 0.000116731 0)
(-0.000297163 0.000437618 0)
(-0.000633858 0.00087025 0)
(-0.00110805 0.00137547 0)
(-0.00172659 0.00192237 0)
(-0.00249228 0.00248674 0)
(-0.00340448 0.0030499 0)
(-0.00445972 0.00359755 0)
(-0.00565216 0.0041188 0)
(-0.00697389 0.0046055 0)
(-0.00841537 0.00505163 0)
(-0.00996574 0.00545285 0)
(-0.0116132 0.00580617 0)
(-0.013345 0.00610964 0)
(-0.0151482 0.00636219 0)
(-0.0170092 0.00656339 0)
(-0.0189146 0.00671338 0)
(-0.0208506 0.00681273 0)
(-0.0228039 0.00686236 0)
(-0.0247611 0.00686349 0)
(-0.0267091 0.00681757 0)
(-0.0286355 0.00672624 0)
(-0.0305278 0.00659127 0)
(-0.0323745 0.00641461 0)
(-0.0341641 0.00619827 0)
(-0.035886 0.00594435 0)
(-0.0375301 0.00565506 0)
(-0.0390867 0.00533262 0)
(-0.040547 0.00497934 0)
(-0.0419027 0.00459758 0)
(-0.0431462 0.00418971 0)
(-0.0442705 0.00375819 0)
(-0.0452693 0.00330548 0)
(-0.046137 0.0028341 0)
(-0.0468689 0.00234661 0)
(-0.0474607 0.00184561 0)
(-0.0479092 0.00133374 0)
(-0.0482116 0.00081367 0)
(-0.0483661 0.000288131 0)
(-0.0483715 -0.000240117 0)
(-0.0482276 -0.000768271 0)
(-0.0479348 -0.00129349 0)
(-0.0474944 -0.0018129 0)
(-0.0469084 -0.00232358 0)
(-0.0461798 -0.00282262 0)
(-0.0453123 -0.00330704 0)
(-0.0443104 -0.00377389 0)
(-0.0431794 -0.0042202 0)
(-0.0419255 -0.00464301 0)
(-0.0405558 -0.00503939 0)
(-0.0390779 -0.00540644 0)
(-0.0375004 -0.00574131 0)
(-0.0358327 -0.00604124 0)
(-0.0340848 -0.00630354 0)
(-0.0322674 -0.00652564 0)
(-0.030392 -0.00670513 0)
(-0.0284705 -0.00683972 0)
(-0.0265156 -0.00692735 0)
(-0.0245404 -0.00696617 0)
(-0.0225582 -0.0069546 0)
(-0.020583 -0.00689137 0)
(-0.0186287 -0.00677554 0)
(-0.0167096 -0.00660658 0)
(-0.0148398 -0.00638445 0)
(-0.0130334 -0.00610964 0)
(-0.011304 -0.00578328 0)
(-0.00966486 -0.00540727 0)
(-0.00812845 -0.00498444 0)
(-0.00670629 -0.0045187 0)
(-0.00540869 -0.00401533 0)
(-0.00424441 -0.00348127 0)
(-0.00322036 -0.00292555 0)
(-0.0023412 -0.0023598 0)
(-0.001609 -0.00179894 0)
(-0.00102288 -0.00126199 0)
(-0.000578423 -0.000773191 0)
(-0.000267111 -0.000363053 0)
(-7.92994e-05 -6.98054e-05 0)
(-7.592e-06 5.55894e-05 0)
(-1.60296e-05 1.44768e-05 0)
(-0.000130212 0.000293371 0)
(-0.00040446 0.000749066 0)
(-0.000834031 0.00132613 0)
(-0.00142139 0.00198224 0)
(-0.0021708 0.00268325 0)
(-0.00308294 0.00340185 0)
(-0.00415541 0.00411651 0)
(-0.00538333 0.0048104 0)
(-0.00675962 0.00547048 0)
(-0.00827527 0.00608677 0)
(-0.00991966 0.00665177 0)
(-0.0116809 0.00715998 0)
(-0.013546 0.00760749 0)
(-0.0155013 0.00799173 0)
(-0.0175325 0.00831116 0)
(-0.019625 0.00856511 0)
(-0.021764 0.00875362 0)
(-0.0239347 0.00887728 0)
(-0.0261224 0.00893719 0)
(-0.0283125 0.00893479 0)
(-0.0304907 0.00887186 0)
(-0.0326432 0.00875044 0)
(-0.0347567 0.00857277 0)
(-0.036818 0.00834129 0)
(-0.038815 0.00805855 0)
(-0.0407357 0.00772726 0)
(-0.042569 0.00735021 0)
(-0.0443044 0.00693029 0)
(-0.045932 0.00647045 0)
(-0.0474427 0.00597373 0)
(-0.0488281 0.00544323 0)
(-0.0500804 0.00488209 0)
(-0.0511929 0.00429352 0)
(-0.0521592 0.00368079 0)
(-0.0529742 0.00304721 0)
(-0.0536331 0.00239616 0)
(-0.0541324 0.00173106 0)
(-0.054469 0.00105539 0)
(-0.0546409 0.000372674 0)
(-0.0546469 -0.000313499 0)
(-0.0544866 -0.000999498 0)
(-0.0541607 -0.00168164 0)
(-0.0536703 -0.0023562 0)
(-0.053018 -0.00301941 0)
(-0.0522069 -0.00366747 0)
(-0.051241 -0.00429658 0)
(-0.0501255 -0.00490289 0)
(-0.0488661 -0.00548259 0)
(-0.0474698 -0.00603186 0)
(-0.0459441 -0.00654692 0)
(-0.0442978 -0.00702405 0)
(-0.0425401 -0.00745959 0)
(-0.0406814 -0.00784999 0)
(-0.0387327 -0.00819181 0)
(-0.0367058 -0.00848178 0)
(-0.0346133 -0.0087168 0)
(-0.0324684 -0.008894 0)
(-0.0302848 -0.00901076 0)
(-0.0280769 -0.00906476 0)
(-0.0258594 -0.00905404 0)
(-0.0236476 -0.00897703 0)
(-0.0214566 -0.00883262 0)
(-0.0193021 -0.00862024 0)
(-0.0171995 -0.00833992 0)
(-0.015164 -0.00799241 0)
(-0.0132106 -0.00757928 0)
(-0.0113537 -0.00710307 0)
(-0.00960682 -0.00656747 0)
(-0.0079827 -0.00597751 0)
(-0.00649265 -0.00533987 0)
(-0.00514649 -0.00466322 0)
(-0.00395218 -0.00395862 0)
(-0.00291556 -0.00324007 0)
(-0.00204002 -0.00252518 0)
(-0.00132628 -0.00183599 0)
(-0.000771865 -0.00119997 0)
(-0.000370623 -0.000650976 0)
(-0.00011758 -0.000230531 0)
(-1.39314e-05 7.50246e-06 0)
(-2.23413e-05 8.89545e-05 0)
(-0.000169282 0.00052346 0)
(-0.000511219 0.00114135 0)
(-0.00103447 0.00188575 0)
(-0.00173635 0.00271217 0)
(-0.00261826 0.00358398 0)
(-0.00367845 0.00447135 0)
(-0.00491248 0.00535031 0)
(-0.00631376 0.0062018 0)
(-0.0078738 0.00701079 0)
(-0.00958231 0.00776561 0)
(-0.0114275 0.00845732 0)
(-0.0133963 0.00907927 0)
(-0.0154748 0.00962666 0)
(-0.0176481 0.0100962 0)
(-0.0199009 0.010486 0)
(-0.0222174 0.010795 0)
(-0.0245817 0.0110232 0)
(-0.026978 0.0111712 0)
(-0.0293903 0.0112402 0)
(-0.031803 0.0112319 0)
(-0.0342008 0.0111484 0)
(-0.0365686 0.0109923 0)
(-0.0388921 0.0107661 0)
(-0.0411571 0.010473 0)
(-0.0433504 0.010116 0)
(-0.0454591 0.00969843 0)
(-0.0474712 0.0092238 0)
(-0.0493753 0.00869566 0)
(-0.0511607 0.0081177 0)
(-0.0528175 0.00749369 0)
(-0.0543366 0.00682749 0)
(-0.0557096 0.00612303 0)
(-0.056929 0.00538432 0)
(-0.0579882 0.00461544 0)
(-0.0588814 0.00382053 0)
(-0.0596036 0.00300383 0)
(-0.0601508 0.0021696 0)
(-0.0605198 0.0013222 0)
(-0.0607084 0.000466053 0)
(-0.0607153 -0.000394369 0)
(-0.06054 -0.00125452 0)
(-0.0601832 -0.0021098 0)
(-0.0596465 -0.00295555 0)
(-0.0589322 -0.00378707 0)
(-0.0580439 -0.00459964 0)
(-0.0569861 -0.00538848 0)
(-0.0557641 -0.00614883 0)
(-0.0543844 -0.00687593 0)
(-0.0528543 -0.00756502 0)
(-0.0511821 -0.00821142 0)
(-0.0493772 -0.0088105 0)
(-0.0474498 -0.00935773 0)
(-0.0454109 -0.0098487 0)
(-0.0432724 -0.0102792 0)
(-0.0410473 -0.0106451 0)
(-0.0387489 -0.0109427 0)
(-0.0363916 -0.0111683 0)
(-0.0339902 -0.0113189 0)
(-0.0315602 -0.0113916 0)
(-0.0291176 -0.011384 0)
(-0.0266786 -0.0112943 0)
(-0.0242598 -0.0111211 0)
(-0.0218778 -0.0108638 0)
(-0.0195494 -0.0105227 0)
(-0.0172909 -0.0100986 0)
(-0.0151184 -0.00959369 0)
(-0.0130475 -0.00901112 0)
(-0.0110929 -0.00835547 0)
(-0.00926839 -0.00763293 0)
(-0.00758641 -0.00685159 0)
(-0.00605795 -0.00602176 0)
(-0.00469223 -0.00515648 0)
(-0.00349642 -0.00427196 0)
(-0.00247553 -0.00338827 0)
(-0.00163219 -0.00253008 0)
(-0.000966158 -0.00172755 0)
(-0.000473918 -0.00101722 0)
(-0.000155317 -0.000442911 0)
(-2.00129e-05 -6.01456e-05 0)
(-2.83409e-05 0.000183131 0)
(-0.000207265 0.000806373 0)
(-0.000616086 0.00161427 0)
(-0.00123258 0.00254942 0)
(-0.00204896 0.00356595 0)
(-0.00306364 0.00462543 0)
(-0.00427229 0.00569605 0)
(-0.00566816 0.00675182 0)
(-0.00724282 0.00777175 0)
(-0.00898613 0.00873905 0)
(-0.0108864 0.00964051 0)
(-0.0129305 0.0104659 0)
(-0.0151043 0.0112073 0)
(-0.0173926 0.0118593 0)
(-0.0197795 0.0124178 0)
(-0.0222485 0.0128805 0)
(-0.024783 0.013246 0)
(-0.027366 0.0135143 0)
(-0.0299804 0.0136859 0)
(-0.0326095 0.0137623 0)
(-0.0352364 0.0137453 0)
(-0.0378449 0.0136375 0)
(-0.040419 0.0134418 0)
(-0.0429432 0.0131613 0)
(-0.0454027 0.0127997 0)
(-0.0477831 0.0123606 0)
(-0.0500708 0.0118482 0)
(-0.0522529 0.0112664 0)
(-0.0543173 0.0106198 0)
(-0.0562524 0.00991265 0)
(-0.0580477 0.00914959 0)
(-0.0596935 0.0083353 0)
(-0.0611808 0.00747455 0)
(-0.0625017 0.0065722 0)
(-0.0636489 0.00563321 0)
(-0.0646163 0.00466262 0)
(-0.0653986 0.00366558 0)
(-0.0659914 0.00264727 0)
(-0.0663914 0.001613 0)
(-0.0665962 0.000568136 0)
(-0.0666044 -0.000481874 0)
(-0.0664155 -0.00153151 0)
(-0.0660301 -0.00257518 0)
(-0.06545 -0.00360723 0)
(-0.0646778 -0.00462195 0)
(-0.0637172 -0.00561361 0)
(-0.0625729 -0.00657644 0)
(-0.0612508 -0.00750464 0)
(-0.0597576 -0.00839244 0)
(-0.0581013 -0.00923411 0)
(-0.0562907 -0.010024 0)
(-0.0543358 -0.0107564 0)
(-0.0522475 -0.011426 0)
(-0.0500375 -0.0120274 0)
(-0.0477186 -0.0125555 0)
(-0.0453045 -0.0130054 0)
(-0.0428096 -0.0133725 0)
(-0.0402491 -0.0136527 0)
(-0.0376389 -0.0138421 0)
(-0.0349955 -0.0139374 0)
(-0.0323359 -0.0139357 0)
(-0.0296774 -0.0138349 0)
(-0.0270377 -0.0136335 0)
(-0.0244345 -0.0133307 0)
(-0.0218857 -0.012927 0)
(-0.0194088 -0.0124235 0)
(-0.017021 -0.0118227 0)
(-0.014739 -0.0111286 0)
(-0.0125787 -0.0103466 0)
(-0.010555 -0.00948405 0)
(-0.00868163 -0.00855034 0)
(-0.00697078 -0.00755742 0)
(-0.00543308 -0.00652014 0)
(-0.0040773 -0.00545675 0)
(-0.00291022 -0.00438948 0)
(-0.00193661 -0.00334528 0)
(-0.00115866 -0.00235654 0)
(-0.000575605 -0.00146179 0)
(-0.000192065 -0.00070647 0)
(-2.57972e-05 -0.000146833 0)
(-3.40339e-05 0.000296319 0)
(-0.000243983 0.00114099 0)
(-0.000718362 0.00216678 0)
(-0.00142688 0.00331638 0)
(-0.00235682 0.00454315 0)
(-0.00350363 0.00580742 0)
(-0.00486024 0.00707584 0)
(-0.00641755 0.00832083 0)
(-0.00816503 0.00951977 0)
(-0.0100908 0.0106544 0)
(-0.0121816 0.01171 0)
(-0.014423 0.0126753 0)
(-0.0167994 0.0135414 0)
(-0.0192946 0.0143019 0)
(-0.0218916 0.0149522 0)
(-0.0245727 0.0154896 0)
(-0.0273204 0.0159125 0)
(-0.0301164 0.0162206 0)
(-0.032943 0.0164147 0)
(-0.0357823 0.0164961 0)
(-0.0386165 0.0164673 0)
(-0.0414285 0.016331 0)
(-0.0442013 0.0160906 0)
(-0.0469188 0.0157499 0)
(-0.049565 0.0153129 0)
(-0.0521248 0.0147842 0)
(-0.054584 0.0141683 0)
(-0.0569287 0.0134703 0)
(-0.0591462 0.0126951 0)
(-0.0612244 0.0118482 0)
(-0.0631519 0.0109348 0)
(-0.0649186 0.00996063 0)
(-0.066515 0.00893123 0)
(-0.0679326 0.00785242 0)
(-0.0691639 0.00673009 0)
(-0.0702022 0.00557023 0)
(-0.071042 0.00437895 0)
(-0.0716786 0.00316244 0)
(-0.0721086 0.00192699 0)
(-0.0723293 0.000678976 0)
(-0.0723392 -0.000575117 0)
(-0.072138 -0.00182873 0)
(-0.0717262 -0.00307522 0)
(-0.0711056 -0.00430787 0)
(-0.070279 -0.00551993 0)
(-0.0692503 -0.00670456 0)
(-0.0680245 -0.00785491 0)
(-0.0666077 -0.00896415 0)
(-0.0650072 -0.0100254 0)
(-0.0632312 -0.0110319 0)
(-0.0612892 -0.0119769 0)
(-0.0591915 -0.0128538 0)
(-0.0569498 -0.0136561 0)
(-0.0545764 -0.0143776 0)
(-0.0520849 -0.0150122 0)
(-0.0494897 -0.0155541 0)
(-0.046806 -0.0159981 0)
(-0.0440499 -0.016339 0)
(-0.0412382 -0.0165726 0)
(-0.0383883 -0.0166947 0)
(-0.0355182 -0.0167022 0)
(-0.0326462 -0.0165925 0)
(-0.029791 -0.016364 0)
(-0.0269716 -0.0160158 0)
(-0.0242066 -0.0155484 0)
(-0.0215148 -0.0149633 0)
(-0.0189146 -0.0142635 0)
(-0.0164237 -0.0134534 0)
(-0.0140592 -0.0125395 0)
(-0.0118372 -0.0115301 0)
(-0.00977289 -0.0104359 0)
(-0.00787976 -0.00927032 0)
(-0.00617002 -0.00804994 0)
(-0.00465413 -0.0067948 0)
(-0.00334084 -0.00552905 0)
(-0.00223719 -0.00428155 0)
(-0.0013479 -0.00308647 0)
(-0.000674972 -0.00198387 0)
(-0.000227635 -0.00102022 0)
(-3.12849e-05 -0.000251916 0)
(-3.94422e-05 0.000427803 0)
(-0.000279406 0.00152595 0)
(-0.000817768 0.00279737 0)
(-0.00161665 0.00418525 0)
(-0.00265868 0.00564261 0)
(-0.00393635 0.00712899 0)
(-0.00543987 0.00860994 0)
(-0.00715763 0.0100566 0)
(-0.00907701 0.011445 0)
(-0.0111842 0.0127556 0)
(-0.0134643 0.0139727 0)
(-0.0159013 0.0150837 0)
(-0.0184785 0.016079 0)
(-0.0211782 0.0169515 0)
(-0.0239822 0.017696 0)
(-0.0268721 0.0183093 0)
(-0.0298289 0.0187898 0)
(-0.0328337 0.019137 0)
(-0.0358675 0.0193518 0)
(-0.0389117 0.0194358 0)
(-0.0419476 0.0193916 0)
(-0.0449572 0.0192224 0)
(-0.0479227 0.0189321 0)
(-0.050827 0.0185249 0)
(-0.0536535 0.0180058 0)
(-0.0563865 0.0173797 0)
(-0.0590108 0.0166521 0)
(-0.0615121 0.0158287 0)
(-0.0638768 0.0149154 0)
(-0.0660923 0.0139184 0)
(-0.0681469 0.0128439 0)
(-0.0700297 0.0116984 0)
(-0.0717308 0.0104886 0)
(-0.0732413 0.00922106 0)
(-0.0745533 0.00790278 0)
(-0.0756598 0.00654073 0)
(-0.076555 0.00514202 0)
(-0.0772341 0.00371388 0)
(-0.0776933 0.00226365 0)
(-0.0779299 0.000798793 0)
(-0.0779423 -0.000673146 0)
(-0.07773 -0.00214451 0)
(-0.0772938 -0.00360755 0)
(-0.0766353 -0.00505444 0)
(-0.0757575 -0.00647729 0)
(-0.0746645 -0.00786815 0)
(-0.0733616 -0.00921904 0)
(-0.071855 -0.010522 0)
(-0.0701524 -0.011769 0)
(-0.0682624 -0.0129522 0)
(-0.0661948 -0.0140637 0)
(-0.0639607 -0.0150958 0)
(-0.0615719 -0.0160411 0)
(-0.0590417 -0.0168922 0)
(-0.0563842 -0.0176422 0)
(-0.0536143 -0.0182843 0)
(-0.0507482 -0.0188124 0)
(-0.0478027 -0.0192206 0)
(-0.0447954 -0.0195038 0)
(-0.0417446 -0.0196575 0)
(-0.0386691 -0.0196779 0)
(-0.0355884 -0.0195621 0)
(-0.032522 -0.0193081 0)
(-0.0294899 -0.0189152 0)
(-0.0265119 -0.0183837 0)
(-0.0236079 -0.0177155 0)
(-0.0207972 -0.0169139 0)
(-0.0180989 -0.015984 0)
(-0.0155313 -0.0149331 0)
(-0.0131119 -0.0137704 0)
(-0.010857 -0.0125078 0)
(-0.00878191 -0.0111603 0)
(-0.00690035 -0.00974575 0)
(-0.00522466 -0.00828589 0)
(-0.00376566 -0.00680654 0)
(-0.00253274 -0.00533813 0)
(-0.0015332 -0.0039163 0)
(-0.000771752 -0.00258221 0)
(-0.000261999 -0.00138295 0)
(-3.6497e-05 -0.000374722 0)
(-4.45959e-05 0.000576896 0)
(-0.000313587 0.00195983 0)
(-0.000914282 0.00350433 0)
(-0.0018017 0.0051543 0)
(-0.00295404 0.00686276 0)
(-0.00436096 0.00858876 0)
(-0.00600994 0.0102971 0)
(-0.00788689 0.0119579 0)
(-0.00997693 0.0135463 0)
(-0.0122643 0.0150417 0)
(-0.0147324 0.0164272 0)
(-0.0173636 0.0176895 0)
(-0.0201397 0.0188182 0)
(-0.0230419 0.0198057 0)
(-0.0260506 0.0206462 0)
(-0.0291464 0.0213363 0)
(-0.0323092 0.0218742 0)
(-0.0355191 0.0222593 0)
(-0.0387563 0.0224927 0)
(-0.0420011 0.0225763 0)
(-0.0452342 0.0225128 0)
(-0.0484365 0.0223061 0)
(-0.0515896 0.0219605 0)
(-0.0546756 0.0214808 0)
(-0.0576773 0.0208725 0)
(-0.0605781 0.0201415 0)
(-0.0633624 0.0192939 0)
(-0.0660151 0.0183363 0)
(-0.0685221 0.0172754 0)
(-0.0708704 0.0161183 0)
(-0.0730476 0.0148722 0)
(-0.0750425 0.0135445 0)
(-0.0768447 0.0121428 0)
(-0.078445 0.0106749 0)
(-0.079835 0.00914862 0)
(-0.0810077 0.00757202 0)
(-0.0819568 0.00595328 0)
(-0.0826773 0.00430071 0)
(-0.0831652 0.00262275 0)
(-0.0834179 0.000927967 0)
(-0.0834335 -0.000774956 0)
(-0.0832115 -0.00247723 0)
(-0.0827527 -0.00416994 0)
(-0.0820588 -0.00584412 0)
(-0.0811328 -0.00749069 0)
(-0.079979 -0.00910053 0)
(-0.0786027 -0.0106645 0)
(-0.0770107 -0.0121734 0)
(-0.0752106 -0.0136181 0)
(-0.0732115 -0.0149895 0)
(-0.0710236 -0.0162786 0)
(-0.0686583 -0.0174767 0)
(-0.0661281 -0.0185751 0)
(-0.0634465 -0.0195654 0)
(-0.0606284 -0.0204396 0)
(-0.0576893 -0.0211901 0)
(-0.054646 -0.0218097 0)
(-0.0515161 -0.0222919 0)
(-0.0483179 -0.0226307 0)
(-0.0450706 -0.022821 0)
(-0.0417939 -0.0228584 0)
(-0.038508 -0.0227396 0)
(-0.0352337 -0.0224625 0)
(-0.0319916 -0.022026 0)
(-0.0288029 -0.0214305 0)
(-0.0256884 -0.0206781 0)
(-0.0226687 -0.0197725 0)
(-0.0197641 -0.0187193 0)
(-0.0169942 -0.0175265 0)
(-0.0143777 -0.0162044 0)
(-0.0119327 -0.0147659 0)
(-0.00967592 -0.013227 0)
(-0.00762292 -0.0116072 0)
(-0.00578796 -0.00992945 0)
(-0.00418403 -0.00822111 0)
(-0.00282291 -0.00651391 0)
(-0.00171443 -0.00484465 0)
(-0.000865959 -0.00325532 0)
(-0.00029522 -0.00179337 0)
(-4.14636e-05 -0.000514607 0)
(-4.95247e-05 0.000742961 0)
(-0.000346629 0.00244122 0)
(-0.00100805 0.00428588 0)
(-0.00198215 0.00622166 0)
(-0.00324293 0.00820178 0)
(-0.00477731 0.0101851 0)
(-0.00657014 0.0121358 0)
(-0.00860481 0.0140235 0)
(-0.0108642 0.0158224 0)
(-0.0133305 0.0175111 0)
(-0.0159852 0.019072 0)
(-0.0188093 0.0204911 0)
(-0.0217828 0.0217573 0)
(-0.0248856 0.0228624 0)
(-0.0280971 0.0238005 0)
(-0.0313965 0.0245679 0)
(-0.0347627 0.0251626 0)
(-0.0381749 0.0255842 0)
(-0.0416123 0.0258338 0)
(-0.0450543 0.0259136 0)
(-0.0484807 0.0258269 0)
(-0.0518718 0.0255778 0)
(-0.0552084 0.0251712 0)
(-0.0584719 0.0246127 0)
(-0.0616444 0.0239083 0)
(-0.0647088 0.0230648 0)
(-0.0676487 0.0220891 0)
(-0.0704486 0.0209885 0)
(-0.073094 0.0197708 0)
(-0.0755712 0.0184439 0)
(-0.0778675 0.017016 0)
(-0.0799711 0.0154955 0)
(-0.0818715 0.0138911 0)
(-0.083559 0.0122114 0)
(-0.0850251 0.0104655 0)
(-0.0862622 0.00866249 0)
(-0.087264 0.00681163 0)
(-0.0880252 0.00492236 0)
(-0.0885418 0.00300425 0)
(-0.0888108 0.00106702 0)
(-0.0888304 -0.00087948 0)
(-0.0886002 -0.00282528 0)
(-0.0881206 -0.00476029 0)
(-0.0873935 -0.00667432 0)
(-0.0864221 -0.00855708 0)
(-0.0852106 -0.0103982 0)
(-0.0837646 -0.0121874 0)
(-0.0820909 -0.0139141 0)
(-0.0801975 -0.0155682 0)
(-0.0780937 -0.0171391 0)
(-0.07579 -0.0186169 0)
(-0.0732981 -0.0199914 0)