/*--------------------------------*- C++ -*----------------------------------*\
  =========                 |
  \\      /  F ield         | OpenFOAM: The Open Source CFD Toolbox
   \\    /   O peration     | Website:  https://openfoam.org
    \\  /    A nd           | Version:  7
     \\/     M anipulation  |
\*---------------------------------------------------------------------------*/
FoamFile
{
    version     2.0;
    format      ascii;
    class       volScalarField;
    location    "0.3";
    object      p;
}
// * * * * * * * * * * * * * * * * * * * * * * * * * * * * * * * * * * * * * //

dimensions      [0 2 -2 0 0 0 0];

internalField   nonuniform List<scalar> 
6400
(
1.33557e-05
3.5459e-05
-0.00046934
-0.00150187
-0.00294399
-0.00468544
-0.00662586
-0.00867572
-0.0107578
-0.0128067
-0.0147673
-0.0165935
-0.0182467
-0.0196954
-0.0209137
-0.0218809
-0.0225807
-0.0230012
-0.0231337
-0.0229729
-0.0225163
-0.0217639
-0.0207184
-0.019384
-0.0177675
-0.0158769
-0.0137222
-0.0113145
-0.00866663
-0.00579234
-0.00270666
0.000574373
0.00403378
0.00765372
0.0114155
0.0152998
0.0192866
0.0233552
0.0274847
0.0316534
0.0358396
0.0400212
0.0441758
0.0482814
0.0523155
0.0562562
0.0600816
0.0637704
0.0673015
0.0706548
0.0738109
0.0767512
0.0794585
0.0819166
0.0841109
0.0860285
0.087658
0.0889903
0.0900185
0.0907379
0.0911465
0.0912454
0.0910384
0.090533
0.0897402
0.0886751
0.087357
0.0858101
0.0840637
0.0821531
0.0801201
0.0780136
0.0758913
0.0738202
0.0718778
0.0701526
0.0687415
0.0677487
0.0672808
0.0673183
1.14204e-05
2.59556e-05
-0.00042727
-0.00131037
-0.00252399
-0.00398893
-0.0056293
-0.00737273
-0.00915398
-0.0109158
-0.0126085
-0.0141896
-0.015623
-0.0168784
-0.0179308
-0.0187597
-0.0193489
-0.0196859
-0.0197618
-0.0195703
-0.0191084
-0.018375
-0.0173718
-0.0161022
-0.0145716
-0.0127873
-0.0107578
-0.00849327
-0.00600528
-0.00330648
-0.000410654
0.00266738
0.00591187
0.00930621
0.012833
0.0164741
0.0202109
0.0240241
0.0278938
0.0318001
0.0357223
0.0396398
0.0435319
0.0473777
0.0511564
0.0548474
0.0584304
0.0618855
0.0651933
0.0683352
0.0712931
0.0740502
0.0765905
0.0788994
0.0809637
0.0827717
0.0843136
0.0855813
0.0865692
0.0872735
0.0876933
0.0878302
0.0876891
0.0872776
0.0866071
0.0856926
0.084553
0.0832117
0.0816969
0.0800418
0.0782852
0.0764722
0.074654
0.0728893
0.0712434
0.0697876
0.0685951
0.0677405
0.0673173
0.0673559
0.000519542
0.000481463
2.77106e-05
-0.00078803
-0.00187853
-0.0031805
-0.00463277
-0.00617524
-0.00775231
-0.00931395
-0.0108159
-0.0122194
-0.0134913
-0.014603
-0.0155308
-0.016255
-0.01676
-0.0170332
-0.0170656
-0.0168507
-0.0163849
-0.0156669
-0.0146974
-0.0134793
-0.0120172
-0.0103174
-0.00838788
-0.00623776
-0.00387764
-0.00131927
0.00142452
0.00433988
0.00741208
0.0106255
0.0139638
0.01741
0.0209463
0.0245546
0.0282162
0.0319121
0.035623
0.0393293
0.0430114
0.0466496
0.0502244
0.0537163
0.0571062
0.0603754
0.0635058
0.0664797
0.0692806
0.0718925
0.0743007
0.0764917
0.0784534
0.0801752
0.081648
0.0828649
0.0838207
0.0845128
0.0849405
0.0851062
0.0850148
0.0846742
0.0840957
0.0832938
0.0822869
0.0810972
0.0797513
0.0782801
0.0767195
0.0751103
0.0734983
0.0719346
0.070475
0.0691788
0.0681054
0.0673148
0.0668926
0.06689
0.00155256
0.00136745
0.000843828
2.47461e-05
-0.00102316
-0.00224631
-0.00359299
-0.00501245
-0.0064571
-0.00788337
-0.00925208
-0.0105285
-0.0116823
-0.0126874
-0.0135216
-0.0141664
-0.0146069
-0.0148312
-0.0148303
-0.0145979
-0.0141302
-0.0134255
-0.0124843
-0.011309
-0.00990366
-0.00827399
-0.00642719
-0.00437183
-0.00211773
0.000324138
0.00294172
0.005722
0.00865108
0.0117142
0.0148959
0.01818
0.0215498
0.024988
0.0284769
0.0319984
0.035534
0.0390654
0.0425737
0.0460403
0.0494467
0.0527743
0.0560051
0.0591214
0.0621059
0.0649421
0.0676142
0.0701073
0.0724076
0.0745024
0.0763804
0.0780317
0.0794481
0.0806232
0.0815525
0.0822336
0.0826664
0.0828534
0.0827994
0.0825124
0.082003
0.0812855
0.080377
0.0792985
0.0780747
0.0767341
0.0753094
0.0738373
0.0723587
0.070918
0.0695635
0.0683455
0.0673144
0.0665218
0.0660359
0.0659003
0.00300126
0.00258969
0.0019382
0.00106619
1.08431e-05
-0.00118301
-0.0024715
-0.00381234
-0.00516526
-0.00649281
-0.00776079
-0.00893847
-0.00999873
-0.0109179
-0.0116759
-0.0122555
-0.0126428
-0.0128266
-0.0127985
-0.0125524
-0.0120845
-0.0113931
-0.0104784
-0.00934242
-0.00798892
-0.00642312
-0.00465166
-0.00268251
-0.000524836
0.00181105
0.00431381
0.00697119
0.00977004
0.0126964
0.0157357
0.0188724
0.0220908
0.0253743
0.0287062
0.0320693
0.035446
0.0388187
0.0421695
0.0454808
0.0487349
0.0519141
0.0550013
0.0579796
0.0608328
0.063545
0.0661014
0.0684878
0.0706913
0.0726998
0.0745027
0.0760908
0.0774564
0.0785936
0.0794984
0.0801685
0.0806041
0.0808077
0.080784
0.0805407
0.0800878
0.0794387
0.0786094
0.0776195
0.0764915
0.0752515
0.0739288
0.0725561
0.0711693
0.0698072
0.0685107
0.0673223
0.0662851
0.0654429
0.0648368
0.0644891
0.00476351
0.00407516
0.00325269
0.0022875
0.00118335
-2.27071e-05
-0.00129344
-0.00259414
-0.00389126
-0.00515299
-0.00634985
-0.00745507
-0.00844474
-0.00929783
-0.00999615
-0.0105243
-0.0108694
-0.0110214
-0.0109722
-0.0107164
-0.0102502
-0.00957207
-0.00868214
-0.00758228
-0.00627589
-0.00476785
-0.00306436
-0.00117289
0.000897932
0.0031384
0.00553783
0.0080846
0.0107663
0.0135696
0.0164807
0.0194849
0.0225671
0.0257118
0.0289027
0.0321236
0.0353577
0.0385882
0.0417981
0.0449705
0.0480885
0.0511353
0.0540944
0.05695
0.0596863
0.0622884
0.064742
0.0670339
0.0691515
0.0710835
0.0728199
0.0743519
0.0756723
0.0767754
0.0776575
0.0783166
0.0787528
0.0789684
0.0789681
0.0787588
0.0783502
0.0777543
0.0769861
0.0760634
0.0750067
0.0738394
0.0725878
0.0712806
0.0699491
0.0686266
0.0673478
0.0661479
0.065064
0.0641326
0.0633635
0.0627527
0.00674864
0.00575532
0.00473211
0.00364215
0.00245529
0.00120205
-8.57814e-05
-0.00138018
-0.00265359
-0.00387933
-0.00503236
-0.00608964
-0.00703039
-0.00783619
-0.00849095
-0.00898095
-0.00929477
-0.0094232
-0.00935915
-0.00909749
-0.008635
-0.00797025
-0.00710344
-0.00603636
-0.00477226
-0.00331576
-0.00167271
0.000149805
0.00214363
0.00429957
0.00660747
0.00905631
0.0116343
0.0143287
0.0171264
0.0200135
0.0229754
0.0259973
0.0290639
0.0321594
0.0352679
0.0383733
0.0414593
0.0445097
0.0475083
0.050439
0.0532862
0.0560345
0.0586688
0.061175
0.0635393
0.0657489
0.067792
0.0696576
0.0713362
0.0728193
0.0741
0.075173
0.0760344
0.0766825
0.0771172
0.0773406
0.0773569
0.0771725
0.0767961
0.0762389
0.0755144
0.0746387
0.0736303
0.0725099
0.0713009
0.0700283
0.0687193
0.0674021
0.0661058
0.0648595
0.063695
0.062643
0.061681
0.0607779
0.00887743
0.00756569
0.00632266
0.00508479
0.00378916
0.00246104
0.00112784
-0.000188219
-0.00146488
-0.00268008
-0.0038128
-0.00484353
-0.00575448
-0.00652975
-0.00715537
-0.00761936
-0.00791169
-0.00802429
-0.00795092
-0.00768713
-0.00723015
-0.00657883
-0.00573357
-0.00469619
-0.00346986
-0.00205903
-0.000469324
0.0012925
0.00321866
0.00530037
0.00752797
0.00989093
0.012378
0.014977
0.0176754
0.0204599
0.0233167
0.0262314
0.0291893
0.0321755
0.0351745
0.038171
0.0411493
0.0440938
0.0469889
0.0498193
0.0525697
0.0552254
0.057772
0.0601957
0.0624833
0.0646224
0.0666017
0.0684105
0.0700396
0.0714807
0.0727272
0.0737738
0.0746167
0.075254
0.0756854
0.0759128
0.0759396
0.0757718
0.0754171
0.0748855
0.0741893
0.0733427
0.0723623
0.0712664
0.0700753
0.0688109
0.0674965
0.0661561
0.0648136
0.0634927
0.0622214
0.0610253
0.0598507
0.0586407
0.0110829
0.00944878
0.00797486
0.00657289
0.00514906
0.00372458
0.00232347
0.00096299
-0.000339263
-0.0015653
-0.00269775
-0.00372035
-0.00461811
-0.00537754
-0.00598675
-0.00643546
-0.00671509
-0.00681872
-0.00674107
-0.00647839
-0.00602848
-0.00539057
-0.00456531
-0.00355463
-0.00236174
-0.000991
0.00055212
0.00226111
0.00412847
0.00614578
0.00830375
0.0105923
0.0130006
0.0155171
0.0181297
0.0208256
0.0235915
0.0264137
0.0292781
0.0321701
0.0350752
0.0379782
0.0408643
0.0437182
0.0465251
0.0492699
0.0519382
0.0545154
0.0569878
0.0593418
0.0615649
0.0636448
0.0655705
0.0673317
0.0689192
0.0703251
0.0715427
0.0725667
0.0733933
0.0740203
0.0744471
0.0746751
0.0747074
0.0745489
0.0742066
0.0736893
0.0730078
0.0721748
0.0712048
0.0701138
0.0689197
0.0676412
0.0662982
0.0649109
0.063499
0.0620815
0.0606833
0.0593264
0.0579274
0.0564055
0.0133091
0.0113545
0.00964425
0.00806735
0.00650117
0.00496392
0.00347712
0.0020538
0.000707571
-0.000547163
-0.00169631
-0.00272651
-0.0036254
-0.00438177
-0.00498567
-0.00542853
-0.00570317
-0.00580387
-0.00572631
-0.00546752
-0.00502591
-0.00440117
-0.00359426
-0.00260731
-0.00144361
-0.000107529
0.00139556
0.0030593
0.00487643
0.00683879
0.00893744
0.0111626
0.013504
0.0159504
0.01849
0.0211107
0.0237997
0.0265436
0.0293289
0.0321416
0.0349674
0.037792
0.0406007
0.0433789
0.0461121
0.0487859
0.0513859
0.0538983
0.0563095
0.0586064
0.0607765
0.0628081
0.0646902
0.0664128
0.0679667
0.069344
0.070538
0.0715434
0.0723561
0.0729736
0.0733951
0.0736213
0.0736546
0.0734993
0.0731613
0.0726484
0.0719699
0.0711369
0.0701622
0.0690597
0.0678446
0.0665332
0.0651423
0.0636888
0.0621888
0.0606574
0.0591175
0.0575882
0.0559584
0.0541257
0.0155093
0.0132394
0.0112912
0.00953258
0.00781402
0.00615169
0.00456534
0.00306449
0.00165932
0.000361127
-0.00081888
-0.00186999
-0.0027822
-0.00354642
-0.00415458
-0.00459969
-0.00487598
-0.0049789
-0.0049051
-0.00465245
-0.00421998
-0.00360789
-0.0028175
-0.00185122
-0.000712477
0.000594303
0.00206377
0.00368966
0.00546488
0.00738148
0.00943078
0.0116034
0.0138891
0.0162773
0.0187566
0.0213151
0.0239405
0.0266199
0.0293401
0.0320877
0.0348487
0.0376092
0.0403549
0.0430718
0.0457455
0.0483621
0.0509076
0.0533683
0.055731
0.0579828
0.0601115
0.0621054
0.0639538
0.0656465
0.0671746
0.06853
0.0697059
0.0706968
0.0714983
0.0721077
0.0725236
0.0727462
0.0727772
0.07262
0.0722797
0.0717627
0.0710772
0.0702328
0.0692405
0.0681123
0.0668613
0.0655013
0.0640465
0.0625112
0.0609083
0.0592498
0.0575571
0.0558477
0.0539848
0.0518453
0.0176441
0.0150659
0.0128806
0.0109363
0.0090585
0.00726204
0.00556553
0.00397558
0.00249945
0.00114576
-7.68031e-05
-0.00115988
-0.00209563
-0.00287691
-0.00349737
-0.00395158
-0.00423508
-0.00434448
-0.00427741
-0.00403254
-0.0036096
-0.0030093
-0.00223339
-0.00128458
-0.000166492
0.00111633
0.00255851
0.00415384
0.00589529
0.0077751
0.00978477
0.0119151
0.0141564
0.016498
0.0189291
0.021438
0.0240128
0.0266411
0.0293099
0.0320061
0.0347162
0.0374266
0.0401235
0.0427929
0.045421
0.0479939
0.050498
0.0529199
0.0552465
0.0574651
0.0595636
0.0615304
0.0633547
0.0650264
0.0665365
0.0678768
0.0690403
0.0700211
0.0708147
0.0714178
0.0718285
0.0720465
0.0720727
0.0719096
0.0715614
0.0710335
0.0703327
0.0694673
0.0684465
0.0672808
0.0659813
0.0645598
0.0630282
0.0613984
0.059681
0.0578853
0.056032
0.0541376
0.0520412
0.0496011
0.0196801
0.0168012
0.014381
0.0122492
0.0102078
0.00827068
0.00645601
0.00476796
0.00321135
0.00179248
0.000517856
-0.000606262
-0.00157398
-0.00237991
-0.00301934
-0.00348825
-0.00378347
-0.00390272
-0.00384458
-0.00360856
-0.00319503
-0.0026053
-0.00184154
-0.000906803
0.000195042
0.00145931
0.00288053
0.00445248
0.0061682
0.00802002
0.0099996
0.0120979
0.0143054
0.0166119
0.0190066
0.0214783
0.0240152
0.0266053
0.0292359
0.0318942
0.0345671
0.0372411
0.0399027
0.0425383
0.0451341
0.0476767
0.0501525
0.0525482
0.0548509
0.057048
0.0591273
0.0610774
0.0628873
0.0645469
0.066047
0.0673792
0.0685361
0.0695118
0.070301
0.0709002
0.0713068
0.0715199
0.0715397
0.0713679
0.0710076
0.0704632
0.0697404
0.068846
0.0677879
0.066575
0.0652168
0.0637231
0.0621041
0.0603699
0.0585288
0.0565883
0.0545687
0.0524863
0.0501577
0.0474233
0.0215886
0.0184166
0.0157646
0.0134449
0.011237
0.00915476
0.00721603
0.00542302
0.00377848
0.00228678
0.000952491
-0.000219969
-0.00122644
-0.00206317
-0.0027269
-0.00321497
-0.00352542
-0.00365701
-0.00360928
-0.00338252
-0.00297781
-0.002397
-0.00164274
-0.000718449
0.000371736
0.00162293
0.00302955
0.00458533
0.00628329
0.00811582
0.0100747
0.012151
0.0143354
0.0166178
0.0189877
0.0214342
0.0239457
0.0265102
0.0291157
0.0317493
0.0343982
0.0370492
0.0396889
0.042304
0.0448809
0.0474061
0.0498664
0.0522484
0.0545393
0.0567264
0.0587977
0.0607415
0.0625467
0.0642032
0.0657014
0.0670326
0.0681894
0.069165
0.0699541
0.0705523
0.0709567
0.0711656
0.0711784
0.070996
0.0706205
0.0700554
0.0693052
0.0683755
0.067273
0.066005
0.0645797
0.0630053
0.0612906
0.0594439
0.0574719
0.0553808
0.053191
0.050919
0.0483601
0.0453377
0.0233447
0.0198867
0.0170063
0.014499
0.0121232
0.00989279
0.00782572
0.00592261
0.00418447
0.00261399
0.00121408
-1.24594e-05
-0.00106303
-0.00193535
-0.00262751
-0.00313811
-0.00346632
-0.00361192
-0.00357533
-0.00335764
-0.0029606
-0.00238664
-0.00163889
-0.000721132
0.000362177
0.00160594
0.00300441
0.00455122
0.00623938
0.00806127
0.0100087
0.0120729
0.0142447
0.016514
0.0188706
0.0213036
0.0238018
0.0263534
0.0289464
0.0315682
0.0342062
0.0368474
0.0394785
0.0420862
0.0446572
0.047178
0.0496353
0.052016
0.0543071
0.0564959
0.0585701
0.0605181
0.0623286
0.0639911
0.0654958
0.0668337
0.0679969
0.0689783
0.0697718
0.0703728
0.0707776
0.0709836
0.0709896
0.0707958
0.0704033
0.0698145
0.0690329
0.0680631
0.0669105
0.0655813
0.0640822
0.0624204
0.0606031
0.0586377
0.0565294
0.0542833
0.0519205
0.0494579
0.0466705
0.0433658
0.0249262
0.0211886
0.0180831
0.0153893
0.0128449
0.0104644
0.00826603
0.00624908
0.00441309
0.00275934
0.00128929
4.30019e-06
-0.00109442
-0.00200592
-0.00272953
-0.00326502
-0.00361261
-0.00377305
-0.00374763
-0.00353819
-0.00314715
-0.00257752
-0.00183289
-0.000917462
0.000163995
0.00140613
0.00280302
0.00434817
0.00603451
0.00785441
0.00979969
0.0118616
0.014031
0.0162981
0.0186527
0.021084
0.0235809
0.0261319
0.0287249
0.0313478
0.0339878
0.0366321
0.0392676
0.041881
0.044459
0.0469882
0.0494552
0.0518469
0.0541502
0.0563522
0.0584407
0.0604036
0.0622294
0.0639073
0.0654272
0.0667797
0.0679564
0.0689497
0.0697531
0.0703611
0.0707695
0.0709749
0.0709755
0.0707704
0.0703601
0.0697458
0.0689302
0.0679167
0.0667098
0.0653145
0.0637366
0.0619819
0.0600569
0.0579677
0.0557189
0.0533145
0.0507764
0.0481227
0.0451088
0.0415265
0.0263133
0.0223017
0.0189743
0.016095
0.0133821
0.0108503
0.00851863
0.00638519
0.0044483
0.00270801
0.00116452
-0.000182088
-0.00133185
-0.00228502
-0.00304208
-0.00360387
-0.00397161
-0.00414696
-0.00413204
-0.00392942
-0.00354218
-0.00297388
-0.00222861
-0.00131098
-0.000226081
0.00102045
0.00242249
0.00397339
0.00566597
0.00749254
0.00944492
0.0115144
0.0136918
0.0159674
0.0183311
0.0207722
0.0232798
0.0258423
0.0284479
0.0310844
0.0337393
0.0363996
0.0390524
0.0416845
0.0442823
0.0468327
0.049322
0.0517371
0.0540646
0.0562917
0.0584057
0.0603943
0.0622458
0.0639489
0.0654931
0.0668685
0.0680663
0.0690783
0.0698974
0.0705175
0.0709335
0.0711416
0.0711389
0.0709237
0.0704957
0.0698553
0.0690041
0.0679447
0.0666805
0.0652157
0.063555
0.0617034
0.0596666
0.0574498
0.055057
0.0524916
0.0497767
0.0469315
0.0436922
0.0398358
0.0274879
0.0232068
0.0196602
0.0165968
0.0137156
0.011032
0.00856574
0.00631407
0.00427421
0.00244513
0.000825948
-0.0005844
-0.00178708
-0.00278343
-0.00357501
-0.00416365
-0.0045515
-0.00474109
-0.00473533
-0.0045375
-0.00415131
-0.00358089
-0.00283081
-0.00190608
-0.000812167
0.000445025
0.00185913
0.00342333
0.00513031
0.0069723
0.00894105
0.0110278
0.0132235
0.0155184
0.0179023
0.0203648
0.0228948
0.025481
0.0281116
0.0307743
0.0334567
0.036146
0.038829
0.0414926
0.0441232
0.0467075
0.0492318
0.0516827
0.0540468
0.0563108
0.0584619
0.0604873
0.0623751
0.0641135
0.0656915
0.0670987
0.0683258
0.0693639
0.0702052
0.0708431
0.0712716
0.0714862
0.0714833
0.0712602
0.0708158
0.0701496
0.0692625
0.068156
0.0668327
0.065296
0.0635497
0.0615983
0.0594464
0.0570992
0.0545597
0.0518312
0.048938
0.0459006
0.0424368
0.0383086
0.0284329
0.023886
0.0201226
0.0168762
0.013827
0.0109915
0.00839006
0.00601912
0.00387499
0.00195576
0.000259527
-0.00121577
-0.00247234
-0.00351251
-0.00433882
-0.00495404
-0.00536121
-0.00556367
-0.00556509
-0.00536942
-0.00498102
-0.00440454
-0.00364506
-0.002708
-0.00159918
-0.000324806
0.0011085
0.00269373
0.00442341
0.00628965
0.00828414
0.0103981
0.0126223
0.0149472
0.0173625
0.0198578
0.0224222
0.0250441
0.0277119
0.0304134
0.033136
0.035867
0.0385932
0.0413013
0.0439777
0.0466088
0.0491808
0.0516802
0.0540932
0.0564063
0.0586062
0.06068
0.062615
0.0643992
0.0660209
0.0674694
0.0687344
0.0698066
0.0706775
0.0713396
0.0717864
0.0720124
0.0720131
0.0717853
0.0713267
0.0706362
0.0697136
0.06856
0.0671769
0.0655669
0.0637333
0.0616798
0.0594107
0.0569306
0.0542422
0.0513487
0.0482758
0.0450454
0.0413571
0.0369582
0.0291323
0.0243223
0.0203438
0.0169154
0.0136989
0.0107115
0.00797458
0.00548387
0.00323487
0.00122482
-0.00054904
-0.00208971
-0.00340031
-0.00448414
-0.00534463
-0.00598542
-0.0064104
-0.00662369
-0.00662967
-0.00643298
-0.00603856
-0.00545163
-0.00467773
-0.00372272
-0.00259278
-0.00129442
0.000165462
0.00177964
0.00354048
0.00543995
0.00746964
0.0096207
0.0118839
0.0142494
0.0167073
0.0192469
0.0218574
0.0245272
0.0272445
0.0299973
0.032773
0.0355585
0.0383408
0.0411064
0.0438416
0.0465325
0.0491653
0.0517259
0.0542004
0.056575
0.0588359
0.0609698
0.0629636
0.0648045
0.0664806
0.0679802
0.0692925
0.0704075
0.071316
0.0720096
0.0724811
0.0727241
0.0727334
0.0725048
0.0720353
0.0713228
0.0703665
0.0691665
0.0677237
0.0660401
0.0641183
0.0619614
0.0595734
0.0569586
0.0541196
0.0510594
0.0478053
0.0443807
0.0404672
0.0357971
0.0295704
0.0244992
0.0203069
0.0166973
0.0133139
0.0101749
0.00730251
0.00469197
0.00233799
0.000237087
-0.00161431
-0.00322006
-0.00458415
-0.00571074
-0.00660413
-0.00726879
-0.00770939
-0.00793082
-0.00793815
-0.00773668
-0.00733194
-0.00672968
-0.00593592
-0.00495695
-0.00379933
-0.00246989
-0.000975799
0.000675482
0.00247613
0.00441797
0.00649244
0.00869062
0.0110032
0.0134203
0.0159319
0.0185274
0.0211957
0.0239255
0.0267049
0.0295215
0.0323629
0.035216
0.0380675
0.0409037
0.0437108
0.0464747
0.0491813
0.0518163
0.0543653
0.0568141
0.0591486
0.0613548
0.0634192
0.0653284
0.0670698
0.0686311
0.0700008
0.071168
0.0721228
0.072856
0.0733595
0.0736261
0.0736498
0.0734254
0.0729491
0.0722181
0.0712306
0.0699861
0.0684847
0.0667279
0.0647176
0.0624567
0.0599488
0.057198
0.0542067
0.050978
0.047541
0.0439206
0.0397803
0.0348375
0.0297321
0.0244006
0.0199951
0.0162048
0.0126549
0.00936461
0.00635708
0.00362699
0.00116839
-0.00102289
-0.00295116
-0.00462107
-0.00603743
-0.00720523
-0.00812957
-0.00881573
-0.00926914
-0.00949541
-0.0095003
-0.00928974
-0.00886984
-0.00824689
-0.0074274
-0.00641808
-0.00522586
-0.00385792
-0.00232171
-0.000624924
0.0012244
0.00321791
0.00534692
0.00760237
0.00997483
0.0124545
0.0150311
0.017694
0.0204322
0.0232341
0.0260879
0.0289811
0.0319011
0.0348348
0.0377686
0.0406887
0.0435811
0.0464315
0.0492253
0.0519479
0.0545846
0.0571207
0.0595417
0.0618329
0.0639803
0.0659699
0.0677883
0.0694226
0.0708603
0.07209
0.0731007
0.0738825
0.0744262
0.0747239
0.0747686
0.0745544
0.0740764
0.0733311
0.072316
0.0710296
0.0694716
0.0676427
0.0655446
0.0631796
0.0605512
0.0576633
0.0545183
0.0511195
0.0474976
0.0436794
0.0393098
0.0340915
0.0296021
0.0240104
0.0193919
0.0154211
0.011705
0.00826373
0.00512147
0.00227239
-0.00029011
-0.00257083
-0.00457479
-0.00630739
-0.00777422
-0.00898105
-0.00993378
-0.0106384
-0.0111012
-0.0113284
-0.0113265
-0.011102
-0.0106616
-0.0100121
-0.00916058
-0.0081141
-0.00688001
-0.00546581
-0.00387926
-0.00212832
-0.000221229
0.00183347
0.00402693
0.00634998
0.00879305
0.0113462
0.0139992
0.0167413
0.0195613
0.0224477
0.0253884
0.028371
0.0313826
0.03441
0.0374394
0.0404569
0.0434482
0.0463986
0.0492932
0.0521172
0.0548552
0.0574922
0.060013
0.0624025
0.0646459
0.0667286
0.0686363
0.0703555
0.0718728
0.0731758
0.0742529
0.075093
0.0756861
0.0760233
0.0760968
0.0758995
0.075426
0.0746717
0.0736332
0.0723086
0.0706967
0.0687978
0.066613
0.0641445
0.0613954
0.0583696
0.0550697
0.0514989
0.0476899
0.0436712
0.0390692
0.0335712
0.0291651
0.0233125
0.0184807
0.0143293
0.0104471
0.00685513
0.00357867
0.000611376
-0.00205399
-0.00442282
-0.00650082
-0.00829412
-0.00980906
-0.0110522
-0.0120301
-0.0127497
-0.0132178
-0.0134415
-0.0134278
-0.0131839
-0.0127172
-0.0120349
-0.0111445
-0.0100536
-0.00876997
-0.00730141
-0.00565599
-0.00384195
-0.00186774
0.000257886
0.00252592
0.00492704
0.00745157
0.0100895
0.0128304
0.0156634
0.0185774
0.0215605
0.0246008
0.0276857
0.030802
0.0339364
0.0370751
0.0402036
0.0433075
0.0463718
0.0493814
0.0523206
0.055174
0.0579259
0.0605604
0.0630619
0.0654148
0.0676039
0.0696141
0.0714308
0.07304
0.0744283
0.0755829
0.0764921
0.0771447
0.0775309
0.0776417
0.0774693
0.0770072
0.07625
0.0751936
0.0738352
0.072173
0.0702068
0.0679372
0.0653662
0.0624966
0.0593325
0.0558763
0.0521317
0.0481331
0.0439107
0.0390722
0.0332892
0.0284054
0.0222905
0.0172445
0.0129122
0.00886381
0.00512143
0.00171138
-0.00137318
-0.00414008
-0.00659534
-0.00874531
-0.0105968
-0.012157
-0.0134331
-0.0144325
-0.0151628
-0.0156316
-0.0158467
-0.0158157
-0.0155466
-0.0150471
-0.0143251
-0.0133886
-0.0122457
-0.0109045
-0.00937308
-0.00765993
-0.00577353
-0.00372259
-0.00151605
0.000836905
0.00332678
0.00594378
0.00867775
0.0115182
0.0144541
0.0174743
0.0205668
0.0237195
0.0269196
0.0301539
0.0334089
0.0366704
0.0399239
0.0431546
0.046347
0.0494857
0.0525547
0.0555379
0.058419
0.0611817
0.0638095
0.0662863
0.0685958
0.0707222
0.07265
0.0743642
0.0758504
0.0770949
0.0780848
0.078808
0.0792535
0.0794114
0.0792728
0.0788302
0.0780773
0.0770093
0.0756223
0.0739143
0.0718842
0.0695323
0.0668602
0.0638708
0.060568
0.0569544
0.0530338
0.0488427
0.0444132
0.0393333
0.0332589
0.0273071
0.0209277
0.0156662
0.0111522
0.00693741
0.00304483
-0.000498136
-0.00369883
-0.00656571
-0.00910537
-0.0113248
-0.0132316
-0.0148336
-0.0161388
-0.0171554
-0.0178917
-0.018356
-0.0185568
-0.0185025
-0.0182015
-0.0176623
-0.0168934
-0.0159031
-0.0147001
-0.0132927
-0.0116896
-0.00989952
-0.00793119
-0.0057936
-0.0034959
-0.00104746
0.00154206
0.00426273
0.00710426
0.010056
0.013107
0.0162457
0.0194603
0.0227383
0.0260668
0.0294327
0.0328219
0.0362202
0.0396129
0.0429846
0.0463197
0.0496022
0.0528157
0.0559436
0.058969
0.0618749
0.064644
0.0672595
0.0697042
0.0719614
0.0740146
0.0758479
0.0774458
0.0787934
0.0798767
0.0806826
0.0811989
0.0814145
0.0813196
0.0809056
0.0801653
0.0790928
0.0776836
0.0759349
0.073845
0.0714139
0.0686429
0.0655346
0.062093
0.0583209
0.0542222
0.0498355
0.0451946
0.0398677
0.0334943
0.0258534
0.0192067
0.013728
0.00903129
0.00464969
0.000607065
-0.00306811
-0.00638368
-0.00934871
-0.0119704
-0.0142565
-0.0162151
-0.017855
-0.019185
-0.0202138
-0.0209507
-0.0214048
-0.0215851
-0.0215008
-0.0211609
-0.0205746
-0.0197508
-0.0186985
-0.0174267
-0.0159443
-0.0142602
-0.0123836
-0.0103234
-0.00808895
-0.00568956
-0.00313482
-0.000434527
0.00240122
0.00536202
0.00843711
0.0116154
0.0148852
0.0182346
0.021651
0.0251214
0.0286324
0.0321698
0.0357191
0.0392652
0.0427926
0.0462853
0.0497267
0.0531
0.056388
0.0595732
0.0626378
0.0655639
0.0683337
0.0709291
0.0733326
0.0755265
0.0774939
0.0792181
0.080683
0.0818736
0.0827753
0.083375
0.0836603
0.0836202
0.083245
0.0825265
0.0814577
0.0800335
0.0782502
0.0761056
0.073599
0.0707315
0.0675057
0.0639255
0.0599937
0.0557146
0.0511288
0.046272
0.0406917
0.0340105
0.0240271
0.0171097
0.0114114
0.00653082
0.0019818
-0.00221078
-0.0060174
-0.00944642
-0.0125076
-0.0152086
-0.017558
-0.0195647
-0.0212381
-0.0225878
-0.0236235
-0.0243551
-0.0247924
-0.0249453
-0.0248237
-0.0244373
-0.0237958
-0.0229088
-0.0217857
-0.020436
-0.0188692
-0.0170944
-0.0151213
-0.012959
-0.0106171
-0.00810519
-0.00543303
-0.00261062
0.000351838
0.00344379
0.00665437
0.00997233
0.013386
0.0168832
0.0204513
0.0240771
0.027747
0.0314467
0.0351614
0.0388758
0.0425738
0.0462392
0.049855
0.0534038
0.0568678
0.0602289
0.0634684
0.0665678
0.0695083
0.0722709
0.0748369
0.0771877
0.0793051
0.0811713
0.082769
0.0840817
0.0850938
0.0857906
0.0861586
0.0861855
0.0858605
0.0851741
0.0841185
0.0826874
0.0808765
0.0786828
0.0761053
0.0731445
0.0698029
0.0660845
0.061992
0.0575301
0.0527413
0.0476636
0.0418227
0.0348239
0.0218101
0.014618
0.00869741
0.00363139
-0.0010858
-0.00542832
-0.00936558
-0.0129065
-0.0160614
-0.0188388
-0.0212479
-0.0232982
-0.0250002
-0.0263641
-0.0274006
-0.0281203
-0.0285338
-0.0286519
-0.0284851
-0.0280438
-0.0273384
-0.0263791
-0.0251759
-0.0237388
-0.0220776
-0.0202021
-0.0181219
-0.0158469
-0.0133866
-0.0107511
-0.00795014
-0.00499398
-0.00189297
0.00134224
0.00470066
0.00817094
0.0117413
0.0153994
0.0191327
0.0229276
0.0267705
0.0306468
0.0345416
0.0384391
0.0423231
0.0461768
0.0499828
0.0537233
0.0573797
0.0609332
0.0643646
0.0676543
0.0707826
0.0737296
0.0764755
0.0790004
0.0812849
0.0833099
0.0850569
0.0865079
0.0876458
0.0884548
0.0889198
0.0890273
0.088765
0.0881223
0.0870903
0.0856617
0.0838311
0.081595
0.0789517
0.0759013
0.0724462
0.0685902
0.0643362
0.0596889
0.0546932
0.0493889
0.0432796
0.0359524
0.0191834
0.0117119
0.00556602
0.000312743
-0.00457354
-0.00906602
-0.013133
-0.0167841
-0.0200302
-0.0228806
-0.0253452
-0.0274344
-0.0291594
-0.0305315
-0.031562
-0.0322625
-0.0326445
-0.0327196
-0.0324989
-0.0319938
-0.0312153
-0.030174
-0.0288808
-0.0273461
-0.0255801
-0.0235931
-0.0213951
-0.0189962
-0.0164063
-0.0136356
-0.0106943
-0.00759247
-0.00434081
-0.000950033
0.00256877
0.00620415
0.00994423
0.0137767
0.0176886
0.0216666
0.0256966
0.0297641
0.0338538
0.0379497
0.0420352
0.0460932
0.0501057
0.0540544
0.0579202
0.0616835
0.0653243
0.0688221
0.0721562
0.0753057
0.0782496
0.0809668
0.0834366
0.0856384
0.0875524
0.0891591
0.0904399
0.0913774
0.0919551
0.0921579
0.0919722
0.0913862
0.0903894
0.0889736
0.0871325
0.0848615
0.0821584
0.0790229
0.075457
0.0714644
0.067048
0.0622129
0.0570059
0.0514692
0.0450829
0.0374154
0.0161273
0.00837108
0.00199631
-0.00344631
-0.00850276
-0.0131453
-0.0173411
-0.0211003
-0.0244349
-0.0273545
-0.02987
-0.0319927
-0.0337346
-0.035108
-0.0361251
-0.0367985
-0.0371406
-0.0371636
-0.0368798
-0.0363012
-0.0354394
-0.0343059
-0.0329121
-0.031269
-0.0293872
-0.0272775
-0.0249504
-0.0224161
-0.0196849
-0.0167673
-0.0136735
-0.0104139
-0.00699923
-0.00344037
0.000251549
0.00406499
0.00798802
0.0120082
0.0161126
0.0202876
0.0245193
0.0287926
0.0330923
0.037402
0.0417049
0.0459835
0.0502192
0.0543933
0.0584859
0.0624768
0.0663452
0.0700696
0.0736284
0.0769995
0.0801606
0.0830894
0.0857638
0.0881617
0.0902617
0.0920428
0.0934848
0.0945686
0.0952761
0.0955906
0.0954969
0.0949817
0.0940332
0.0926419
0.0908003
0.0885031
0.0857472
0.0825317
0.0788582
0.0747304
0.0701512
0.0651256
0.0597029
0.0539272
0.0472547
0.039234
0.0126207
0.00457385
-0.00203374
-0.00766807
-0.0128959
-0.0176885
-0.0220121
-0.0258774
-0.0292971
-0.0322818
-0.0348431
-0.0369933
-0.0387454
-0.0401126
-0.0411082
-0.0417457
-0.0420385
-0.0419998
-0.0416427
-0.04098
-0.0400242
-0.0387875
-0.0372818
-0.0355187
-0.0335096
-0.0312655
-0.0287973
-0.0261156
-0.0232311
-0.0201543
-0.0168957
-0.0134659
-0.00987566
-0.00613596
-0.002258
0.00174663
0.00586595
0.0100875
0.0143982
0.0187846
0.0232323
0.0277265
0.0322514
0.0367907
0.0413272
0.0458428
0.0503189
0.0547358
0.0590733
0.0633103
0.0674252
0.0713956
0.0751987
0.0788113
0.0822099
0.0853708
0.0882703
0.0908848
0.0931913
0.095167
0.09679
0.0980394
0.0988953
0.0993393
0.0993545
0.0989258
0.0980401
0.0966863
0.0948558
0.0925421
0.0897412
0.0864517
0.0826746
0.0784135
0.073671
0.0684525
0.0628094
0.0567881
0.0498193
0.0414315
0.0086415
0.000297472
-0.00654736
-0.012376
-0.0177766
-0.0227195
-0.0271696
-0.0311386
-0.0346399
-0.037685
-0.0402864
-0.0424574
-0.0442122
-0.0455648
-0.0465299
-0.0471219
-0.0473552
-0.0472442
-0.0468027
-0.0460446
-0.0449831
-0.0436313
-0.0420017
-0.0401066
-0.0379578
-0.035567
-0.0329452
-0.0301037
-0.0270533
-0.0238047
-0.0203687
-0.0167559
-0.0129772
-0.00904371
-0.00496661
-0.0007575
0.00357161
0.00800823
0.0125393
0.0171513
0.0218298
0.0265598
0.0313255
0.0361103
0.0408967
0.0456665
0.0504002
0.0550781
0.0596789
0.0641811
0.068562
0.0727984
0.0768664
0.0807416
0.084399
0.0878135
0.09096
0.093813
0.0963478
0.0985399
0.100365
0.101801
0.102826
0.103419
0.103561
0.103237
0.10243
0.101128
0.0993215
0.0970023
0.0941655
0.0908088
0.0869328
0.0825408
0.0776351
0.0722212
0.0663529
0.0600787
0.0528031
0.0440332
0.00416637
-0.00448211
-0.0115691
-0.017595
-0.0231699
-0.028263
-0.0328385
-0.0369085
-0.0404874
-0.0435876
-0.0462227
-0.0484072
-0.0501563
-0.0514852
-0.0524098
-0.0529456
-0.0531084
-0.0529133
-0.0523755
-0.0515096
-0.0503299
-0.0488502
-0.0470838
-0.0450437
-0.0427423
-0.0401916
-0.0374033
-0.034389
-0.0311596
-0.0277262
-0.0240996
-0.0202908
-0.0163106
-0.0121701
-0.0078806
-0.00345359
0.00109892
0.00576448
0.0105301
0.0153821
0.0203061
0.0252872
0.0303093
0.0353557
0.0404087
0.0454496
0.0504589
0.055416
0.0602993
0.0650862
0.0697535
0.0742768
0.0786311
0.0827907
0.0867294
0.0904205
0.0938369
0.0969519
0.0997384
0.10217
0.104221
0.105866
0.107082
0.107845
0.108135
0.107934
0.107223
0.10599
0.104222
0.101909
0.0990468
0.095631
0.0916616
0.0871417
0.0820732
0.0764616
0.0703632
0.0638287
0.0562349
0.0470669
-0.000829421
-0.00979042
-0.017125
-0.0233513
-0.0291021
-0.0343457
-0.039045
-0.0432129
-0.0468649
-0.0500145
-0.0526762
-0.0548659
-0.0565999
-0.0578949
-0.0587679
-0.0592359
-0.0593158
-0.0590239
-0.0583766
-0.0573896
-0.0560781
-0.0544568
-0.0525398
-0.0503408
-0.0478729
-0.0451487
-0.0421802
-0.0389793
-0.0355575
-0.0319258
-0.0280954
-0.0240772
-0.0198821
-0.0155212
-0.0110057
-0.00634727
-0.00155765
0.00335074
0.00836497
0.0134715
0.0186559
0.0239033
0.0291975
0.0345218
0.0398582
0.0451878
0.0504906
0.0557457
0.0609309
0.0660228
0.0709974
0.0758292
0.0804922
0.0849593
0.0892028
0.0931944
0.0969054
0.100307
0.10337
0.106067
0.108368
0.110247
0.111677
0.112634
0.113095
0.113037
0.112443
0.111296
0.109582
0.107291
0.104414
0.100948
0.0968922
0.092248
0.0870176
0.0812062
0.0748727
0.0680701
0.0601461
0.0505629
-0.00637212
-0.0156545
-0.0232426
-0.029673
-0.0356016
-0.0409956