/*--------------------------------*- C++ -*----------------------------------*\
  =========                 |
  \\      /  F ield         | OpenFOAM: The Open Source CFD Toolbox
   \\    /   O peration     | Website:  https://openfoam.org
    \\  /    A nd           | Version:  7
     \\/     M anipulation  |
\*---------------------------------------------------------------------------*/
FoamFile
{
    version     2.0;
    format      ascii;
    class       surfaceScalarField;
    location    "0.3";
    object      phi;
}
// * * * * * * * * * * * * * * * * * * * * * * * * * * * * * * * * * * * * * //

dimensions      [0 3 -1 0 0 0 0];

internalField   nonuniform List<scalar> 
12640
(
1.86711e-10
-1.94321e-10
5.54384e-10
-3.67683e-10
8.8219e-10
-3.27825e-10
1.04544e-09
-1.63255e-10
9.82166e-10
6.32839e-11
6.65344e-10
3.16832e-10
8.81393e-11
5.77213e-10
-7.44327e-10
8.32471e-10
-1.81984e-09
1.07552e-09
-3.12194e-09
1.3021e-09
-4.63163e-09
1.50968e-09
-6.32843e-09
1.6968e-09
-8.19113e-09
1.8627e-09
-1.01982e-08
2.00706e-09
-1.23281e-08
2.1299e-09
-1.45596e-08
2.23148e-09
-1.68718e-08
2.31219e-09
-1.92443e-08
2.37257e-09
-2.16576e-08
2.41323e-09
-2.40924e-08
2.43485e-09
-2.65306e-08
2.43816e-09
-2.89545e-08
2.42391e-09
-3.13474e-08
2.3929e-09
-3.36933e-08
2.34592e-09
-3.59771e-08
2.28379e-09
-3.81844e-08
2.20734e-09
-4.03018e-08
2.1174e-09
-4.23166e-08
2.0148e-09
-4.4217e-08
1.90039e-09
-4.5992e-08
1.775e-09
-4.76315e-08
1.6395e-09
-4.91263e-08
1.49473e-09
-5.04678e-08
1.34155e-09
-5.16486e-08
1.18083e-09
-5.26621e-08
1.01346e-09
-5.35024e-08
8.40305e-10
-5.41647e-08
6.62282e-10
-5.4645e-08
4.80302e-10
-5.49403e-08
2.95297e-10
-5.50485e-08
1.08215e-10
-5.49685e-08
-7.99817e-11
-5.47002e-08
-2.68312e-10
-5.42444e-08
-4.55774e-10
-5.36031e-08
-6.41349e-10
-5.27791e-08
-8.24e-10
-5.17764e-08
-1.00268e-09
-5.06001e-08
-1.17631e-09
-4.92562e-08
-1.34383e-09
-4.77521e-08
-1.50415e-09
-4.60959e-08
-1.65617e-09
-4.42971e-08
-1.79881e-09
-4.23662e-08
-1.93096e-09
-4.03146e-08
-2.05154e-09
-3.81551e-08
-2.1595e-09
-3.59013e-08
-2.25378e-09
-3.35679e-08
-2.33337e-09
-3.11707e-08
-2.39726e-09
-2.87262e-08
-2.44451e-09
-2.62519e-08
-2.47423e-09
-2.37663e-08
-2.48558e-09
-2.12885e-08
-2.47779e-09
-1.88384e-08
-2.45016e-09
-1.64363e-08
-2.4021e-09
-1.41032e-08
-2.3331e-09
-1.18604e-08
-2.24278e-09
-9.72944e-09
-2.13092e-09
-7.73203e-09
-1.99743e-09
-5.88958e-09
-1.84246e-09
-4.22315e-09
-1.66642e-09
-2.75302e-09
-1.47011e-09
-1.49821e-09
-1.25479e-09
-4.75775e-10
-1.02244e-09
3.00302e-10
-7.76099e-10
8.20821e-10
-5.20533e-10
1.08416e-09
-2.63337e-10
1.10105e-09
-1.68852e-11
9.0256e-10
1.98485e-10
5.54458e-10
3.48081e-10
1.83941e-10
3.70473e-10
1.83881e-10
3.64172e-10
-5.58492e-10
8.84879e-10
-8.88412e-10
1.21605e-09
-6.59003e-10
1.13433e-09
-8.15262e-11
5.02058e-10
6.95571e-10
-7.54569e-10
1.57347e-09
-2.6647e-09
2.48735e-09
-5.22725e-09
3.39502e-09
-8.42078e-09
4.26904e-09
-1.22102e-08
5.09155e-09
-1.65515e-08
5.85098e-09
-2.13947e-08
6.53998e-09
-2.66861e-08
7.15413e-09
-3.23701e-08
7.69101e-09
-3.83898e-08
8.14966e-09
-4.46885e-08
8.53017e-09
-5.12097e-08
8.83342e-09
-5.7898e-08
9.06086e-09
-6.46991e-08
9.21437e-09
-7.15604e-08
9.29617e-09
-7.8431e-08
9.30873e-09
-8.52618e-08
9.25471e-09
-9.20058e-08
9.13692e-09
-9.86182e-08
8.95827e-09
-1.05056e-07
8.72176e-09
-1.11279e-07
8.43045e-09
-1.17249e-07
8.08746e-09
-1.2293e-07
7.69595e-09
-1.28289e-07
7.25909e-09
-1.33294e-07
6.78012e-09
-1.37917e-07
6.26229e-09
-1.42131e-07
5.70886e-09
-1.45913e-07
5.12317e-09
-1.4924e-07
4.50856e-09
-1.52095e-07
3.86841e-09
-1.54461e-07
3.20617e-09
-1.56324e-07
2.52532e-09
-1.57673e-07
1.82939e-09
-1.585e-07
1.12199e-09
-1.58799e-07
4.0678e-10
-1.58566e-07
-3.12528e-10
-1.57802e-07
-1.03215e-09
-1.5651e-07
-1.74822e-09
-1.54694e-07
-2.45683e-09
-1.52364e-07
-3.15402e-09
-1.49531e-07
-3.83575e-09
-1.4621e-07
-4.49794e-09
-1.42417e-07
-5.1365e-09
-1.38174e-07
-5.74728e-09
-1.33504e-07
-6.32614e-09
-1.28434e-07
-6.86893e-09
-1.22993e-07
-7.37153e-09
-1.17215e-07
-7.82987e-09
-1.11134e-07
-8.23993e-09
-1.0479e-07
-8.59779e-09
-9.82239e-08
-8.89965e-09
-9.14793e-08
-9.14185e-09
-8.46029e-08
-9.3209e-09
-7.76436e-08
-9.43353e-09
-7.06525e-08
-9.47672e-09
-6.36825e-08
-9.44774e-09
-5.67885e-08
-9.34418e-09
-5.00266e-08
-9.16403e-09
-4.34539e-08
-8.90572e-09
-3.71285e-08
-8.56823e-09
-3.11082e-08
-8.15116e-09
-2.54507e-08
-7.65487e-09
-2.02125e-08
-7.08065e-09
-1.5448e-08
-6.43097e-09
-1.12083e-08
-5.70989e-09
-7.5395e-09
-4.92356e-09
-4.48082e-09
-4.08109e-09
-2.06119e-09
-3.19573e-09
-2.94803e-10
-2.28693e-09
8.25306e-10
-1.38346e-09
1.3368e-09
-5.28362e-10
1.32171e-09
2.13635e-10
9.24344e-10
7.45564e-10
3.70602e-10
9.24345e-10
5.5446e-10
3.29472e-10
-8.87995e-10
6.65081e-10
-1.22402e-09
6.12115e-10
-6.06008e-10
-9.06199e-11
6.21233e-10
-1.61405e-09
2.21901e-09
-4.05741e-09
4.01684e-09
-7.46512e-09
5.89506e-09
-1.18411e-08
7.77104e-09
-1.71601e-08
9.58801e-09
-2.33756e-08
1.1307e-08
-3.04263e-08
1.29017e-08
-3.82408e-08
1.43544e-08
-4.67403e-08
1.56537e-08
-5.58422e-08
1.67929e-08
-6.54609e-08
1.77683e-08
-7.55099e-08
1.85792e-08
-8.59027e-08
1.92262e-08
-9.65536e-08
1.97118e-08
-1.07378e-07
2.00392e-08
-1.18295e-07
2.02128e-08
-1.29224e-07
2.02374e-08
-1.40087e-07
2.01183e-08
-1.50812e-07
1.98613e-08
-1.61326e-07
1.94725e-08
-1.71562e-07
1.89582e-08
-1.81457e-07
1.8325e-08
-1.90949e-07
1.75794e-08
-1.99981e-07
1.67282e-08
-2.085e-07
1.57783e-08
-2.16457e-07
1.47367e-08
-2.23805e-07
1.36105e-08
-2.30503e-07
1.24067e-08
-2.36512e-07
1.11327e-08
-2.418e-07
9.79566e-09
-2.46334e-07
8.40309e-09
-2.50091e-07
6.96248e-09
-2.53047e-07
5.48147e-09
-2.55185e-07
3.96781e-09
-2.56492e-07
2.42935e-09
-2.5696e-07
8.74117e-10
-2.56583e-07
-6.89766e-10
-2.55361e-07
-2.25402e-09
-2.53299e-07
-3.81025e-09
-2.50406e-07
-5.34992e-09
-2.46695e-07
-6.86438e-09
-2.42186e-07
-8.34487e-09
-2.36901e-07
-9.78255e-09
-2.30869e-07
-1.11685e-08
-2.24123e-07
-1.24938e-08
-2.167e-07
-1.37494e-08
-2.08642e-07
-1.49265e-08
-1.99997e-07
-1.60162e-08
-1.90818e-07
-1.70096e-08
-1.81159e-07
-1.78982e-08
-1.71084e-07
-1.86737e-08
-1.60655e-07
-1.93278e-08
-1.49944e-07
-1.9853e-08
-1.39023e-07
-2.02417e-08
-1.2797e-07
-2.04872e-08
-1.16863e-07
-2.05832e-08
-1.05787e-07
-2.05241e-08
-9.4826e-08
-2.03051e-08
-8.40678e-08
-1.99222e-08
-7.36008e-08
-1.93727e-08
-6.35142e-08
-1.86549e-08
-5.38967e-08
-1.77686e-08
-4.48359e-08
-1.67157e-08
-3.64167e-08
-1.54998e-08
-2.87201e-08
-1.41277e-08
-2.18206e-08
-1.26093e-08
-1.57846e-08
-1.09596e-08
-1.0666e-08
-9.19962e-09
-6.50266e-09
-7.35907e-09
-3.30972e-09
-5.47985e-09
-1.07217e-09
-3.62105e-09
2.65889e-10
-1.8665e-09
8.14645e-10
-3.35203e-10
7.54105e-10
8.06089e-10
3.5091e-10
1.32762e-09
9.0538e-10
1.71405e-10
-1.05941e-09
1.03889e-10
-1.15649e-09
-5.89027e-10
8.69345e-11
-2.17129e-09
2.20352e-09
-4.82005e-09
4.86778e-09
-8.64165e-09
7.83845e-09
-1.36855e-08
1.09389e-08
-1.99565e-08
1.4042e-08
-2.74253e-08
1.70568e-08
-3.60368e-08
1.99185e-08
-4.57167e-08
2.25816e-08
-5.63766e-08
2.50143e-08
-6.79184e-08
2.71956e-08
-8.02374e-08
2.91118e-08
-9.32245e-08
3.07554e-08
-1.06768e-07
3.21231e-08
-1.20757e-07
3.32149e-08
-1.35079e-07
3.40336e-08
-1.49624e-07
3.45841e-08
-1.64284e-07
3.48728e-08
-1.78954e-07
3.49072e-08
-1.93531e-07
3.46961e-08
-2.07919e-07
3.42488e-08
-2.22022e-07
3.35754e-08
-2.3575e-07
3.26865e-08
-2.49018e-07
3.15929e-08
-2.61744e-07
3.0306e-08
-2.73854e-07
2.88373e-08
-2.85274e-07
2.71985e-08
-2.95939e-07
2.54016e-08
-3.05787e-07
2.34587e-08
-3.14762e-07
2.13822e-08
-3.22814e-07
1.91844e-08
-3.29897e-07
1.68781e-08
-3.3597e-07
1.44761e-08
-3.40998e-07
1.19913e-08
-3.44954e-07
9.43708e-09
-3.47813e-07
6.82675e-09
-3.49558e-07
4.17395e-09
-3.50176e-07
1.49255e-09
-3.49662e-07
-1.20338e-09
-3.48017e-07
-3.89955e-09
-3.45246e-07
-6.58144e-09
-3.41361e-07
-9.23433e-09
-3.36382e-07
-1.18433e-08
-3.30334e-07
-1.43933e-08
-3.23247e-07
-1.68691e-08
-3.1516e-07
-1.92554e-08
-3.06117e-07
-2.15368e-08
-2.96169e-07
-2.3698e-08
-2.85371e-07
-2.57238e-08
-2.73789e-07
-2.75988e-08
-2.6149e-07
-2.93083e-08
-2.48551e-07
-3.08377e-08
-2.35052e-07
-3.21726e-08
-2.2108e-07
-3.32994e-08
-2.06728e-07
-3.42051e-08
-1.92092e-07
-3.48773e-08
-1.77275e-07
-3.53047e-08
-1.62381e-07
-3.54768e-08
-1.47521e-07
-3.53846e-08
-1.32805e-07
-3.50203e-08
-1.1835e-07
-3.43779e-08
-1.04269e-07
-3.34533e-08
-9.06793e-08
-3.22446e-08
-7.76953e-08
-3.07527e-08
-6.54295e-08
-2.89814e-08
-5.39904e-08
-2.69389e-08
-4.34802e-08
-2.46378e-08
-3.39925e-08
-2.2097e-08
-2.56089e-08
-1.93433e-08
-1.83949e-08
-1.64136e-08
-1.23952e-08
-1.33588e-08
-7.62686e-09
-1.02482e-08
-4.07174e-09
-7.17613e-09
-1.66667e-09
-4.27154e-09
-2.91886e-10
-1.70998e-09
2.41694e-10
2.72449e-10
2.07767e-10
1.36158e-09
1.11316e-09
-4.76486e-11
-1.01174e-09
-6.54811e-10
-5.49315e-10
-2.15905e-09
1.5912e-09
-4.80072e-09
4.8452e-09
-8.74392e-09
8.81099e-09
-1.4088e-08
1.31826e-08
-2.08779e-08
1.77288e-08
-2.91139e-08
2.2278e-08
-3.87604e-08
2.67033e-08
-4.97536e-08
3.09117e-08
-6.20078e-08
3.48357e-08
-7.54207e-08
3.84272e-08
-8.9878e-08
4.16529e-08
-1.05257e-07
4.44905e-08
-1.21428e-07
4.69267e-08
-1.38259e-07
4.89547e-08
-1.55618e-07
5.05731e-08
-1.73369e-07
5.17846e-08
-1.9138e-07
5.25951e-08
-2.0952e-07
5.30133e-08
-2.27663e-07
5.30497e-08
-2.45683e-07
5.27166e-08
-2.63462e-07
5.20276e-08
-2.80884e-07
5.09975e-08
-2.97839e-07
4.96416e-08
-3.14222e-07
4.79762e-08
-3.29935e-07
4.60182e-08
-3.44882e-07
4.37847e-08
-3.58977e-07
4.12935e-08
-3.72138e-07
3.85625e-08
-3.84289e-07
3.56101e-08
-3.95362e-07
3.2455e-08
-4.05294e-07
2.91161e-08
-4.14028e-07
2.56125e-08
-4.21516e-07
2.19639e-08
-4.27715e-07
1.81899e-08
-4.32588e-07
1.43107e-08
-4.36108e-07
1.03468e-08
-4.38253e-07
6.3188e-09
-4.39008e-07
2.24784e-09
-4.38367e-07
-1.84469e-09
-4.3633e-07
-5.93706e-09
-4.32904e-07
-1.00072e-08
-4.28105e-07
-1.40328e-08
-4.21957e-07
-1.79913e-08
-4.14491e-07
-2.18598e-08
-4.05745e-07
-2.56152e-08
-3.95766e-07
-2.92346e-08
-3.84608e-07
-3.26946e-08
-3.72334e-07
-3.59721e-08
-3.59013e-07
-3.90441e-08
-3.44724e-07
-4.18878e-08
-3.29552e-07
-4.44809e-08
-3.13588e-07
-4.68015e-08
-2.96932e-07
-4.88283e-08
-2.79691e-07
-5.05409e-08
-2.61976e-07
-5.19199e-08
-2.43906e-07
-5.29472e-08
-2.25605e-07
-5.36059e-08
-2.07201e-07
-5.3881e-08
-1.88826e-07
-5.37594e-08
-1.70616e-07
-5.32302e-08
-1.52709e-07
-5.2285e-08
-1.35243e-07
-5.09187e-08
-1.18359e-07
-4.91295e-08
-1.02191e-07
-4.692e-08
-8.68752e-08
-4.42975e-08
-7.25385e-08
-4.12756e-08
-5.93015e-08
-3.78749e-08
-4.72732e-08
-3.41253e-08
-3.65484e-08
-3.00681e-08
-2.72029e-08
-2.57591e-08
-1.92888e-08
-2.1273e-08
-1.28278e-08
-1.67092e-08
-7.8046e-09
-1.21993e-08
-4.15844e-09
-7.91767e-09
-1.77407e-09
-4.09431e-09
-4.72148e-10
-1.02952e-09
2.05305e-12
8.87394e-10
1.11522e-09
-2.94376e-10
-7.17353e-10
-1.51855e-09
6.74873e-10
-3.94101e-09
4.01366e-09
-7.76077e-09
8.66497e-09
-1.3115e-08
1.41652e-08
-2.00851e-08
2.01526e-08
-2.87032e-08
2.63469e-08
-3.89594e-08
3.25342e-08
-5.08085e-08
3.85525e-08
-6.41766e-08
4.42799e-08
-7.89668e-08
4.96259e-08
-9.50639e-08
5.45244e-08
-1.12339e-07
5.89283e-08
-1.30654e-07
6.28054e-08
-1.49863e-07
6.61352e-08
-1.69815e-07
6.89067e-08
-1.90358e-07
7.11159e-08
-2.11338e-07
7.27651e-08
-2.32604e-07
7.3861e-08
-2.54005e-07
7.44143e-08
-2.75394e-07
7.44386e-08
-2.96627e-07
7.395e-08
-3.17566e-07
7.29667e-08
-3.38078e-07
7.15086e-08
-3.58033e-07
6.95966e-08
-3.77309e-07
6.7253e-08
-3.95792e-07
6.4501e-08
-4.13372e-07
6.13642e-08
-4.29945e-07
5.78673e-08
-4.45418e-07
5.40353e-08
-4.59702e-07
4.98938e-08
-4.72716e-07
4.54688e-08
-4.84386e-07
4.07867e-08
-4.94648e-07
3.58745e-08
-5.03444e-07
3.07594e-08
-5.10723e-07
2.54693e-08
-5.16445e-07
2.00324e-08
-5.20575e-07
1.44772e-08
-5.23089e-07
8.83286e-09
-5.2397e-07
3.12892e-09
-5.2321e-07
-2.60462e-09
-5.2081e-07
-8.33733e-09
-5.16779e-07
-1.40383e-08
-5.11135e-07
-1.96764e-08
-5.03907e-07
-2.52199e-08
-4.9513e-07
-3.0637e-08
-4.84849e-07
-3.58955e-08
-4.73121e-07
-4.09632e-08
-4.60007e-07
-4.58078e-08
-4.45582e-07
-5.03971e-08
-4.29927e-07
-5.46991e-08
-4.13133e-07
-5.86823e-08
-3.95298e-07
-6.23155e-08
-3.76531e-07
-6.55687e-08
-3.56947e-07
-6.84124e-08
-3.36669e-07
-7.08186e-08
-3.15828e-07
-7.27607e-08
-2.94562e-07
-7.42139e-08
-2.73012e-07
-7.51554e-08
-2.51328e-07
-7.55648e-08
-2.29663e-07
-7.54246e-08
-2.08173e-07
-7.47206e-08
-1.87015e-07
-7.34423e-08
-1.66351e-07
-7.15835e-08
-1.46337e-07
-6.9143e-08
-1.27131e-07
-6.61259e-08
-1.08885e-07
-6.25438e-08
-9.17434e-08
-5.8417e-08
-7.58428e-08
-5.37755e-08
-6.13062e-08
-4.8662e-08
-4.82405e-08
-4.31338e-08
-3.67321e-08
-3.72674e-08
-2.6842e-08
-3.1163e-08
-1.86004e-08
-2.49508e-08
-1.20005e-08
-1.87992e-08
-6.99234e-09
-1.29259e-08
-3.47595e-09
-7.61066e-09
-1.29547e-09
-3.21e-09
-2.329e-10
-1.75156e-10
8.82318e-10
-5.50601e-10
-1.66747e-10
-2.42969e-09
2.55397e-09
-5.83025e-09
7.41423e-09
-1.09001e-08
1.37348e-08
-1.77402e-08
2.10053e-08
-2.64055e-08
2.8818e-08
-3.69089e-08
3.68503e-08
-4.92249e-08
4.48503e-08
-6.32954e-08
5.2623e-08
-7.90341e-08
6.00186e-08
-9.63319e-08
6.69236e-08
-1.15061e-07
7.32534e-08
-1.35079e-07
7.89463e-08
-1.56233e-07
8.39593e-08
-1.78362e-07
8.82641e-08
-2.01299e-07
9.18443e-08
-2.24877e-07
9.46932e-08
-2.48923e-07
9.68117e-08
-2.7327e-07
9.82074e-08
-2.97748e-07
9.88927e-08
-3.22194e-07
9.88844e-08
-3.46447e-07
9.82027e-08
-3.7035e-07
9.68705e-08
-3.93755e-07
9.49132e-08
-4.16516e-07
9.2358e-08
-4.38497e-07
8.92336e-08
-4.59566e-07
8.55701e-08
-4.79601e-07
8.13987e-08
-4.98485e-07
7.67515e-08
-5.16111e-07
7.16615e-08
-5.3238e-07
6.61624e-08
-5.47199e-07
6.02884e-08
-5.60487e-07
5.40747e-08
-5.7217e-07
4.75567e-08
-5.82181e-07
4.07707e-08
-5.90465e-07
3.37534e-08
-5.96975e-07
2.65422e-08
-6.01673e-07
1.91751e-08
-6.0453e-07
1.16905e-08
-6.05529e-07
4.12768e-09
-6.0466e-07
-3.47369e-09
-6.01924e-07
-1.10733e-08
-5.97332e-07
-1.86303e-08
-5.90905e-07
-2.61034e-08
-5.82674e-07
-3.34508e-08
-5.72681e-07
-4.06304e-08
-5.60977e-07
-4.75998e-08
-5.47623e-07
-5.43164e-08
-5.32693e-07
-6.07378e-08
-5.16269e-07
-6.68216e-08
-4.98442e-07
-7.25258e-08
-4.79316e-07
-7.78088e-08
-4.59001e-07
-8.26301e-08
-4.3762e-07
-8.695e-08
-4.15302e-07
-9.07303e-08
-3.92186e-07
-9.39344e-08
-3.68419e-07
-9.65277e-08
-3.44155e-07
-9.84781e-08
-3.19554e-07
-9.97562e-08
-2.94783e-07
-1.00336e-07
-2.70012e-07
-1.00195e-07
-2.45416e-07
-9.93166e-08
-2.21171e-07
-9.76866e-08
-1.97456e-07
-9.52988e-08
-1.74446e-07
-9.21529e-08
-1.52315e-07
-8.82569e-08
-1.31231e-07
-8.36275e-08
-1.11356e-07
-7.82926e-08
-9.28384e-08
-7.22929e-08
-7.58159e-08
-6.56845e-08
-6.04076e-08
-5.85421e-08
-4.67117e-08
-5.09634e-08
-3.48004e-08
-4.30743e-08
-2.47161e-08
-3.50352e-08
-1.64656e-08
-2.70497e-08
-1.00165e-08
-1.93749e-08
-5.29244e-09
-1.23347e-08
-2.17022e-09
-6.33219e-09
-4.78719e-10
-1.86663e-09
4.03595e-10
-8.06435e-10
6.39687e-10
-3.35343e-09
5.10098e-09
-7.75955e-09
1.18203e-08
-1.41173e-08
2.00926e-08
-2.24857e-08
2.93737e-08
-3.2888e-08
3.92203e-08
-4.53122e-08
4.92745e-08
-5.97133e-08
5.92513e-08
-7.60163e-08
6.8926e-08
-9.41206e-08
7.81228e-08
-1.13903e-07
8.67062e-08
-1.35223e-07
9.45732e-08
-1.57924e-07
1.01648e-07
-1.81841e-07
1.07876e-07
-2.06796e-07
1.1322e-07
-2.32611e-07
1.17659e-07
-2.59101e-07
1.21183e-07
-2.86079e-07
1.23791e-07
-3.13362e-07
1.2549e-07
-3.40767e-07
1.26297e-07
-3.68111e-07
1.26229e-07
-3.95221e-07
1.25313e-07
-4.21925e-07
1.23575e-07
-4.48059e-07
1.21046e-07
-4.73462e-07
1.17762e-07
-4.97985e-07
1.13757e-07
-5.21484e-07
1.09069e-07
-5.43822e-07
1.03737e-07
-5.64873e-07
9.7802e-08
-5.84517e-07
9.13054e-08
-6.02644e-07
8.42897e-08
-6.19154e-07
7.67985e-08
-6.33955e-07
6.88761e-08
-6.46966e-07
6.05676e-08
-6.58115e-07
5.19192e-08
-6.67339e-07
4.29775e-08
-6.74586e-07
3.37899e-08
-6.79816e-07
2.44048e-08
-6.82997e-07
1.48712e-08
-6.84108e-07
5.23875e-09
-6.8314e-07
-4.44197e-09
-6.80093e-07
-1.41198e-08
-6.74981e-07
-2.37429e-08
-6.67825e-07
-3.32587e-08
-6.58662e-07
-4.26144e-08
-6.47536e-07
-5.17565e-08
-6.34504e-07
-6.06313e-08
-6.19635e-07
-6.91851e-08
-6.03009e-07
-7.73639e-08
-5.84717e-07
-8.51144e-08
-5.64859e-07
-9.23833e-08
-5.43549e-07
-9.91186e-08
-5.20911e-07
-1.05269e-07
-4.97076e-07
-1.10784e-07
-4.7219e-07
-1.15617e-07
-4.46403e-07
-1.19721e-07
-4.19878e-07
-1.23053e-07
-3.92782e-07
-1.25573e-07
-3.65293e-07
-1.27245e-07
-3.37593e-07
-1.28037e-07
-3.09867e-07
-1.27921e-07
-2.82308e-07
-1.26876e-07
-2.55108e-07
-1.24886e-07
-2.28461e-07
-1.21946e-07
-2.0256e-07
-1.18055e-07
-1.77592e-07
-1.13224e-07
-1.53743e-07
-1.07477e-07
-1.31186e-07
-1.00849e-07
-1.10087e-07
-9.33921e-08
-9.05955e-08
-8.51762e-08
-7.28437e-08
-7.62939e-08
-5.69431e-08
-6.6864e-08
-4.29802e-08
-5.70372e-08
-3.10124e-08
-4.70029e-08
-2.10652e-08
-3.69969e-08
-1.31286e-08
-2.73116e-08
-7.15539e-09
-1.83079e-08
-3.06091e-09
-1.04266e-08
-7.25169e-10
-4.20235e-09
-3.21572e-10
-1.05678e-09
1.69646e-09
-4.26951e-09
8.31371e-09
-9.68708e-09
1.72379e-08
-1.73463e-08
2.77518e-08
-2.72617e-08
3.92891e-08
-3.94212e-08
5.13798e-08
-5.37843e-08
6.36376e-08
-7.02827e-08
7.57497e-08
-8.88219e-08
8.74653e-08
-1.09284e-07
9.85853e-08
-1.31532e-07
1.08954e-07
-1.55409e-07
1.1845e-07
-1.80746e-07
1.26985e-07
-2.07363e-07
1.34492e-07
-2.35071e-07
1.40928e-07
-2.63675e-07
1.46263e-07
-2.92978e-07
1.50485e-07
-3.2278e-07
1.53592e-07
-3.52882e-07
1.55592e-07
-3.83086e-07
1.56501e-07
-4.13199e-07
1.56343e-07
-4.43032e-07
1.55145e-07
-4.72398e-07
1.52941e-07
-5.01121e-07
1.49769e-07
-5.29029e-07
1.4567e-07
-5.55959e-07
1.40686e-07
-5.81754e-07
1.34864e-07
-6.06268e-07
1.28251e-07
-6.29362e-07
1.20896e-07
-6.50908e-07
1.12851e-07
-6.70787e-07
1.04168e-07
-6.88889e-07
9.49004e-08
-7.05115e-07
8.51023e-08
-7.19377e-07
7.48295e-08
-7.31596e-07
6.41386e-08
-7.41706e-07
5.3087e-08
-7.49649e-07
4.17335e-08
-7.55382e-07
3.01373e-08
-7.58869e-07
1.83588e-08
-7.6009e-07
6.45928e-09
-7.59033e-07
-5.49903e-09
-7.55699e-07
-1.74532e-08
-7.50103e-07
-2.93393e-08
-7.42269e-07
-4.1093e-08
-7.32234e-07
-5.2649e-08
-7.20049e-07
-6.39418e-08
-7.05774e-07
-7.49055e-08
-6.89486e-07
-8.5474e-08
-6.71268e-07
-9.55813e-08
-6.51221e-07
-1.05162e-07
-6.29453e-07
-1.14151e-07
-6.06088e-07
-1.22484e-07
-5.81258e-07
-1.30099e-07
-5.55107e-07
-1.36935e-07
-5.27791e-07
-1.42933e-07
-4.99474e-07
-1.48038e-07
-4.70331e-07
-1.52197e-07
-4.40542e-07
-1.55362e-07
-4.103e-07
-1.57488e-07
-3.79799e-07
-1.58537e-07
-3.49243e-07
-1.58478e-07
-3.18835e-07
-1.57283e-07
-2.88785e-07
-1.54937e-07
-2.593e-07
-1.5143e-07
-2.30589e-07
-1.46766e-07
-2.02854e-07
-1.40959e-07
-1.76293e-07
-1.34038e-07
-1.51097e-07
-1.26046e-07
-1.27442e-07
-1.17046e-07
-1.05495e-07
-1.07124e-07
-8.53999e-08
-9.63885e-08
-6.72848e-08
-8.4979e-08
-5.1252e-08
-7.307e-08
-3.73776e-08
-6.08773e-08
-2.57086e-08
-4.86658e-08
-1.62616e-08
-3.67586e-08
-9.02219e-09
-2.55474e-08
-3.94668e-09
-1.55021e-08
-9.66886e-10
-7.18213e-09
-1.28845e-09
-1.29922e-09
2.99568e-09
-5.16674e-09
1.21812e-08
-1.15879e-08
2.36591e-08
-2.05457e-08
3.67096e-08
-3.20098e-08
5.07532e-08
-4.59307e-08
6.53007e-08
-6.2237e-08
7.99438e-08
-8.08345e-08
9.43472e-08
-1.01607e-07
1.08238e-07
-1.24417e-07
1.21396e-07
-1.49111e-07
1.33647e-07
-1.75517e-07
1.44856e-07
-2.03451e-07
1.54919e-07
-2.32719e-07
1.6376e-07
-2.63118e-07
1.71327e-07
-2.94441e-07
1.77587e-07
-3.26477e-07
1.82521e-07
-3.59013e-07
1.86129e-07
-3.91838e-07
1.88417e-07
-4.2474e-07
1.89404e-07
-4.57513e-07
1.89116e-07
-4.89956e-07
1.87587e-07
-5.21871e-07
1.84856e-07
-5.53068e-07
1.80967e-07
-5.83365e-07
1.75967e-07
-6.12586e-07
1.69908e-07
-6.40566e-07
1.62844e-07
-6.67147e-07
1.54832e-07
-6.92182e-07
1.45931e-07
-7.15532e-07
1.36202e-07
-7.37071e-07
1.25708e-07
-7.56682e-07
1.14511e-07
-7.74259e-07
1.02679e-07
-7.89706e-07
9.02769e-08
-8.02941e-07
7.73732e-08
-8.13891e-07
6.4037e-08
-8.22496e-07
5.03385e-08
-8.28708e-07
3.63491e-08
-8.32491e-07
2.21413e-08
-8.3382e-07
7.78879e-09
-8.32685e-07
-6.63389e-09
-8.29087e-07
-2.10511e-08
-8.23041e-07
-3.53861e-08
-8.14572e-07
-4.95617e-08
-8.03721e-07
-6.34997e-08
-7.90541e-07
-7.71214e-08
-7.75099e-07
-9.0348e-08
-7.57473e-07
-1.031e-07
-7.37755e-07
-1.15299e-07
-7.1605e-07
-1.26866e-07
-6.92477e-07
-1.37724e-07
-6.67165e-07
-1.47796e-07
-6.40257e-07
-1.57007e-07
-6.11906e-07
-1.65286e-07
-5.82277e-07
-1.72561e-07
-5.51547e-07
-1.78768e-07
-5.19901e-07
-1.83843e-07
-4.87534e-07
-1.87729e-07
-4.54648e-07
-1.90374e-07
-4.21453e-07
-1.91733e-07
-3.88164e-07
-1.91767e-07
-3.54999e-07
-1.90447e-07
-3.22182e-07
-1.87754e-07
-2.89933e-07
-1.83679e-07
-2.58475e-07
-1.78224e-07
-2.28025e-07
-1.71409e-07
-1.98796e-07
-1.63267e-07
-1.7099e-07
-1.53851e-07
-1.44801e-07
-1.43235e-07
-1.20408e-07
-1.31517e-07
-9.79733e-08
-1.18823e-07
-7.76398e-08
-1.05313e-07
-5.95288e-08
-9.1181e-08
-4.37375e-08
-7.66686e-08
-3.03374e-08
-6.20659e-08
-1.9374e-08
-4.7722e-08
-1.08675e-08
-3.40539e-08
-4.81597e-09
-2.15536e-08
-1.2013e-09
-1.07968e-08
-2.48973e-09
-1.53289e-09
4.52857e-09
-6.03962e-09
1.6688e-08
-1.34484e-08
3.10678e-08
-2.36914e-08
4.69527e-08
-3.66942e-08
6.3756e-08
-5.23692e-08
8.09758e-08
-7.06129e-08
9.81875e-08
-9.13032e-08
1.15038e-07
-1.143e-07
1.31235e-07
-1.39446e-07
1.46542e-07
-1.66568e-07
1.60769e-07
-1.95477e-07
1.73765e-07
-2.25975e-07
1.85417e-07
-2.57853e-07
1.95638e-07
-2.90895e-07
2.04369e-07
-3.2488e-07
2.11572e-07
-3.59585e-07
2.17226e-07
-3.94783e-07
2.21327e-07
-4.30251e-07
2.23885e-07
-4.65767e-07
2.24919e-07
-5.01112e-07
2.24461e-07
-5.36073e-07
2.22548e-07
-5.70441e-07
2.19224e-07
-6.04016e-07
2.14542e-07
-6.36605e-07
2.08555e-07
-6.68023e-07
2.01325e-07
-6.98093e-07
1.92914e-07
-7.26651e-07
1.8339e-07
-7.5354e-07
1.72819e-07
-7.78613e-07
1.61276e-07
-8.01737e-07
1.48831e-07
-8.22787e-07
1.35562e-07
-8.41652e-07
1.21544e-07
-8.5823e-07
1.06856e-07
-8.72435e-07
9.15774e-08
-8.84188e-07
7.57905e-08
-8.93427e-07
5.95775e-08
-9.001e-07
4.30224e-08
-9.0417e-07
2.62107e-08
-9.0561e-07
9.22897e-09
-9.04409e-07
-7.83498e-09
-9.00568e-07
-2.48921e-08
-8.94102e-07
-4.18524e-08
-8.85039e-07
-5.86247e-08
-8.73421e-07
-7.51174e-08
-8.59304e-07
-9.12379e-08
-8.42759e-07
-1.06893e-07
-8.23868e-07
-1.21991e-07
-8.02728e-07
-1.36438e-07
-7.79452e-07
-1.50143e-07
-7.54162e-07
-1.63014e-07
-7.26996e-07
-1.74962e-07
-6.98105e-07
-1.85899e-07
-6.6765e-07
-1.9574e-07
-6.35808e-07
-2.04404e-07
-6.02762e-07
-2.11813e-07
-5.6871e-07
-2.17895e-07
-5.33857e-07
-2.22582e-07
-4.98417e-07
-2.25814e-07
-4.62612e-07
-2.27538e-07
-4.26669e-07
-2.2771e-07
-3.9082e-07
-2.26296e-07
-3.553e-07
-2.23274e-07
-3.20345e-07
-2.18634e-07
-2.86189e-07
-2.1238e-07
-2.53064e-07
-2.04534e-07
-2.21197e-07
-1.95134e-07
-1.90805e-07
-1.84243e-07
-1.62097e-07
-1.71943e-07
-1.35268e-07
-1.58346e-07
-1.10497e-07
-1.43595e-07
-8.79454e-08
-1.27864e-07
-6.77551e-08
-1.11371e-07
-5.00461e-08
-9.43776e-08
-3.49163e-08
-7.71957e-08
-2.24416e-08
-6.01967e-08
-1.26775e-08
-4.3818e-08
-5.66315e-09
-2.8568e-08
-1.42746e-09
-1.50325e-08
-3.91717e-09
-1.75777e-09
6.28634e-09
-6.88619e-09
2.18164e-08
-1.52623e-08
3.94439e-08
-2.67709e-08
5.84613e-08
-4.12949e-08
7.828e-08
-5.87094e-08
9.83903e-08
-7.88776e-08
1.18356e-07
-1.01649e-07
1.37809e-07
-1.26858e-07
1.56443e-07
-1.54324e-07
1.74008e-07
-1.83856e-07
1.903e-07
-2.15246e-07
2.05156e-07
-2.48281e-07
2.18452e-07
-2.82735e-07
2.30093e-07
-3.1838e-07
2.40014e-07
-3.54981e-07
2.48172e-07
-3.92301e-07
2.54546e-07
-4.30103e-07
2.59129e-07
-4.68151e-07
2.61933e-07
-5.06212e-07
2.6298e-07
-5.44056e-07
2.62305e-07
-5.81458e-07
2.59951e-07
-6.18202e-07
2.55968e-07
-6.54076e-07
2.50416e-07
-6.88877e-07
2.43357e-07
-7.22412e-07
2.3486e-07
-7.54496e-07
2.24998e-07
-7.84954e-07
2.13848e-07
-8.13624e-07
2.01489e-07
-8.40352e-07
1.88004e-07
-8.64997e-07
1.73476e-07
-8.87429e-07
1.57994e-07
-9.0753e-07
1.41645e-07
-9.25195e-07
1.24521e-07
-9.40332e-07
1.06714e-07
-9.52859e-07
8.83178e-08
-9.6271e-07
6.94288e-08
-9.69832e-07
5.0144e-08
-9.74183e-07
3.05621e-08
-9.75738e-07
1.07836e-08
-9.74483e-07
-9.09002e-09
-9.70419e-07
-2.89557e-08
-9.63562e-07
-4.87092e-08
-9.53942e-07
-6.82453e-08
-9.41601e-07
-8.74578e-08
-9.26599e-07
-1.0624e-07
-9.09008e-07
-1.24484e-07
-8.88916e-07
-1.42084e-07
-8.66424e-07
-1.58931e-07
-8.41648e-07
-1.74919e-07
-8.14718e-07
-1.89944e-07
-7.85778e-07
-2.03902e-07
-7.54985e-07
-2.16692e-07
-7.22509e-07
-2.28215e-07
-6.88534e-07
-2.38379e-07
-6.53254e-07
-2.47093e-07
-6.16875e-07
-2.54274e-07
-5.79612e-07
-2.59845e-07
-5.4169e-07
-2.63735e-07
-5.03343e-07
-2.65885e-07
-4.64808e-07
-2.66245e-07
-4.26331e-07
-2.64774e-07
-3.88158e-07
-2.61447e-07
-3.50539e-07
-2.56253e-07
-3.13721e-07
-2.49198e-07
-2.77951e-07
-2.40304e-07
-2.43469e-07
-2.29617e-07
-2.10508e-07
-2.17203e-07
-1.79293e-07
-2.03158e-07
-1.50035e-07
-1.87604e-07
-1.22932e-07
-1.70697e-07
-9.81661e-08
-1.5263e-07
-7.58999e-08
-1.33638e-07
-5.62784e-08
-1.13999e-07
-3.94271e-08
-9.4047e-08
-2.54528e-08
-7.4171e-08
-1.44463e-08
-5.48244e-08
-6.48635e-09
-3.65279e-08
-1.64536e-09
-1.98735e-08
-5.56252e-09
-1.97434e-09
8.26068e-09
-7.70667e-09
2.75487e-08
-1.70281e-08
4.87653e-08
-2.97796e-08
7.12128e-08
-4.58036e-08
9.4304e-08
-6.49382e-08
1.17525e-07
-8.70136e-08
1.40431e-07
-1.1185e-07
1.62645e-07
-1.39255e-07
1.83849e-07
-1.69026e-07
2.0378e-07
-2.0095e-07
2.22223e-07
-2.34801e-07
2.39007e-07
-2.70348e-07
2.53998e-07
-3.07351e-07
2.67096e-07
-3.45565e-07
2.78229e-07
-3.84744e-07
2.87351e-07
-4.24637e-07
2.94439e-07
-4.64996e-07
2.99488e-07
-5.05572e-07
3.02509e-07
-5.46122e-07
3.0353e-07
-5.86406e-07
3.02589e-07
-6.26189e-07
2.99734e-07
-6.65244e-07
2.95023e-07
-7.03351e-07
2.88522e-07
-7.40298e-07
2.80304e-07
-7.75884e-07
2.70446e-07
-8.09916e-07
2.59031e-07
-8.42214e-07
2.46145e-07
-8.72605e-07
2.31881e-07
-9.00931e-07
2.1633e-07
-9.27044e-07
1.9959e-07
-9.5081e-07
1.8176e-07
-9.72106e-07
1.62941e-07
-9.90821e-07
1.43236e-07
-1.00686e-06
1.22752e-07
-1.02014e-06
1.01596e-07
-1.03058e-06
7.98761e-08
-1.03815e-06
5.77046e-08
-1.04278e-06
3.51938e-08
-1.04445e-06
1.24583e-08
-1.04316e-06
-1.0386e-08
-1.03889e-06
-3.32216e-08
-1.03167e-06
-5.59294e-08
-1.02153e-06
-7.83896e-08
-1.0085e-06
-1.00481e-07
-9.92661e-07
-1.22081e-07
-9.74076e-07
-1.43069e-07
-9.52839e-07
-1.63321e-07
-9.29054e-07
-1.82715e-07
-9.02842e-07
-2.01131e-07
-8.74338e-07
-2.18448e-07
-8.43691e-07
-2.34549e-07
-8.11066e-07
-2.49317e-07
-7.76638e-07
-2.62643e-07
-7.40599e-07
-2.74418e-07
-7.03151e-07
-2.84541e-07
-6.64509e-07
-2.92916e-07
-6.24898e-07
-2.99456e-07
-5.84552e-07
-3.04081e-07
-5.43715e-07
-3.06722e-07
-5.02638e-07
-3.07322e-07
-4.61575e-07
-3.05836e-07
-4.20787e-07
-3.02235e-07
-3.80535e-07
-2.96505e-07
-3.41082e-07
-2.88651e-07
-3.02687e-07
-2.78699e-07
-2.65606e-07
-2.66698e-07
-2.30088e-07
-2.52721e-07
-1.96373e-07
-2.36873e-07
-1.64692e-07
-2.19285e-07
-1.35263e-07
-2.00127e-07
-1.08286e-07
-1.79607e-07
-8.395e-08
-1.57974e-07
-6.24245e-08
-1.35525e-07
-4.38631e-08
-1.12608e-07
-2.84043e-08
-8.96298e-08
-1.61732e-08
-6.70554e-08
-7.28607e-09
-4.54151e-08
-1.85554e-09
-2.5304e-08
-7.41806e-09
-2.18335e-09
1.0444e-08
-8.50261e-09
3.3868e-08
-1.87475e-08
5.90102e-08
-3.27184e-08
8.51838e-08
-5.02194e-08
1.11805e-07
-7.10526e-08
1.38358e-07
-9.50158e-08
1.64394e-07
-1.21899e-07
1.89528e-07
-1.51484e-07
2.13434e-07
-1.83544e-07
2.35839e-07
-2.17842e-07
2.56522e-07
-2.54135e-07
2.75301e-07
-2.92174e-07
2.92037e-07
-3.31701e-07
3.06623e-07
-3.72458e-07
3.18986e-07
-4.14184e-07
3.29076e-07
-4.56616e-07
3.3687e-07
-4.99492e-07
3.42364e-07
-5.42555e-07
3.45572e-07
-5.85549e-07
3.46524e-07
-6.28224e-07
3.45264e-07
-6.70337e-07
3.41846e-07
-7.1165e-07
3.36337e-07
-7.51936e-07
3.28809e-07
-7.90976e-07
3.19343e-07
-8.28559e-07
3.08029e-07
-8.64486e-07
2.94958e-07
-8.9857e-07
2.80229e-07
-9.30633e-07
2.63944e-07
-9.60511e-07
2.46207e-07
-9.8805e-07
2.27129e-07
-1.01311e-06
2.06821e-07
-1.03557e-06
1.85396e-07
-1.0553e-06
1.62973e-07
-1.07222e-06
1.39669e-07
-1.08623e-06
1.15606e-07
-1.09726e-06
9.09078e-08
-1.10526e-06
6.56989e-08
-1.11017e-06
4.01068e-08
-1.11197e-06
1.42605e-08
-1.11065e-06
-1.17092e-08
-1.1062e-06
-3.76697e-08
-1.09864e-06
-6.3487e-08
-1.08801e-06
-8.90258e-08
-1.07434e-06
-1.14149e-07
-1.0577e-06
-1.38721e-07
-1.03817e-06
-1.62601e-07
-1.01583e-06
-1.85654e-07
-9.90809e-07
-2.0774e-07
-9.63217e-07
-2.28723e-07
-9.33197e-07
-2.48469e-07
-9.00903e-07
-2.66843e-07
-8.66503e-07
-2.83717e-07
-8.30182e-07
-2.98964e-07
-7.92136e-07
-3.12464e-07
-7.52576e-07
-3.24101e-07
-7.11723e-07
-3.33768e-07
-6.69813e-07
-3.41366e-07
-6.27089e-07
-3.46805e-07
-5.83805e-07
-3.50007e-07
-5.40221e-07
-3.50906e-07
-4.96606e-07
-3.49452e-07
-4.5323e-07
-3.45611e-07
-4.10368e-07
-3.39366e-07
-3.68297e-07
-3.30722e-07
-3.2729e-07
-3.19706e-07
-2.8762e-07
-3.06369e-07
-2.4955e-07
-2.90791e-07
-2.13341e-07
-2.73082e-07
-1.79241e-07
-2.53385e-07
-1.47487e-07
-2.31881e-07
-1.18305e-07
-2.08789e-07
-9.19056e-08
-1.84373e-07
-6.84852e-08
-1.58945e-07
-4.82265e-08
-1.32867e-07
-3.12988e-08
-1.06558e-07
-1.78609e-08
-8.04934e-08
-8.06432e-09
-5.52116e-08
-2.05887e-09
-3.13094e-08
-9.47694e-09
-2.38569e-09
1.28297e-08
-9.27634e-09
4.07586e-08
-2.04241e-08
7.01579e-08
-3.55917e-08
1.00351e-07
-5.45467e-08
1.3076e-07
-7.70569e-08
1.60868e-07
-1.02888e-07
1.90225e-07
-1.31799e-07
2.1844e-07
-1.63547e-07
2.45181e-07
-1.97878e-07
2.70171e-07
-2.34535e-07
2.93179e-07
-2.73254e-07
3.1402e-07
-3.13766e-07
3.32548e-07
-3.55798e-07
3.48655e-07
-3.99075e-07
3.62264e-07
-4.43323e-07
3.73324e-07
-4.88265e-07
3.81813e-07
-5.33628e-07
3.87728e-07
-5.79143e-07
3.91087e-07
-6.24544e-07
3.91925e-07
-6.69571e-07
3.90291e-07
-7.13972e-07
3.86247e-07
-7.57501e-07
3.79866e-07
-7.99922e-07
3.7123e-07
-8.41009e-07
3.6043e-07
-8.80544e-07
3.47564e-07
-9.18323e-07
3.32737e-07
-9.5415e-07
3.16057e-07
-9.87844e-07
2.97638e-07
-1.01924e-06
2.77598e-07
-1.04816e-06
2.56059e-07
-1.07449e-06
2.33145e-07
-1.09808e-06
2.08984e-07
-1.11881e-06
1.83707e-07
-1.13659e-06
1.57446e-07
-1.15132e-06
1.30336e-07
-1.16293e-06
1.02516e-07
-1.17135e-06
7.41248e-08
-1.17655e-06
4.53046e-08
-1.17849e-06
1.61994e-08
-1.17715e-06
-1.30448e-08
-1.17254e-06
-4.228e-08
-1.16467e-06
-7.13568e-08
-1.15358e-06
-1.00124e-07
-1.1393e-06
-1.28429e-07
-1.1219e-06
-1.56119e-07
-1.10146e-06
-1.83039e-07
-1.07808e-06