/*--------------------------------*- C++ -*----------------------------------*\
  =========                 |
  \\      /  F ield         | OpenFOAM: The Open Source CFD Toolbox
   \\    /   O peration     | Website:  https://openfoam.org
    \\  /    A nd           | Version:  7
     \\/     M anipulation  |
\*---------------------------------------------------------------------------*/
FoamFile
{
    version     2.0;
    format      ascii;
    class       volVectorField;
    location    "0.3";
    object      U;
}
// * * * * * * * * * * * * * * * * * * * * * * * * * * * * * * * * * * * * * //

dimensions      [0 1 -1 0 0 0 0];

internalField   nonuniform List<vector> 
6400
(
(7.08814e-06 -7.40769e-06 0)
(2.95541e-05 -1.45308e-05 0)
(5.91577e-05 -1.42068e-05 0)
(8.05164e-05 -9.745e-06 0)
(8.53762e-05 -3.43023e-06 0)
(7.05164e-05 3.54252e-06 0)
(3.48195e-05 1.05615e-05 0)
(-2.16808e-05 1.73095e-05 0)
(-9.82287e-05 2.36248e-05 0)
(-0.000193635 2.94262e-05 0)
(-0.000306453 3.46755e-05 0)
(-0.000435087 3.9358e-05 0)
(-0.000577858 4.34725e-05 0)
(-0.000733046 4.70256e-05 0)
(-0.000898924 5.00291e-05 0)
(-0.00107377 5.24983e-05 0)
(-0.00125591 5.44502e-05 0)
(-0.00144368 5.59034e-05 0)
(-0.00163548 5.68776e-05 0)
(-0.00182976 5.73926e-05 0)
(-0.00202502 5.74689e-05 0)
(-0.00221984 5.71271e-05 0)
(-0.00241282 5.63877e-05 0)
(-0.00260268 5.52715e-05 0)
(-0.00278815 5.37987e-05 0)
(-0.00296806 5.19898e-05 0)
(-0.0031413 4.98648e-05 0)
(-0.00330683 4.74441e-05 0)
(-0.00346366 4.47476e-05 0)
(-0.00361088 4.17954e-05 0)
(-0.00374765 3.86071e-05 0)
(-0.00387319 3.52028e-05 0)
(-0.00398679 3.16023e-05 0)
(-0.00408782 2.78259e-05 0)
(-0.00417572 2.38936e-05 0)
(-0.00424997 1.98261e-05 0)
(-0.00431016 1.56438e-05 0)
(-0.00435593 1.1368e-05 0)
(-0.004387 7.02011e-06 0)
(-0.00440317 2.62197e-06 0)
(-0.00440431 -1.80418e-06 0)
(-0.00439037 -6.23563e-06 0)
(-0.00436138 -1.06492e-05 0)
(-0.00431745 -1.5021e-05 0)
(-0.00425877 -1.93269e-05 0)
(-0.00418561 -2.35422e-05 0)
(-0.00409834 -2.76421e-05 0)
(-0.00399741 -3.1601e-05 0)
(-0.00388334 -3.53933e-05 0)
(-0.00375675 -3.8993e-05 0)
(-0.00361836 -4.23738e-05 0)
(-0.00346896 -4.55098e-05 0)
(-0.00330942 -4.83747e-05 0)
(-0.00314073 -5.09427e-05 0)
(-0.00296392 -5.31883e-05 0)
(-0.00278015 -5.50864e-05 0)
(-0.00259061 -5.66124e-05 0)
(-0.00239661 -5.77425e-05 0)
(-0.00219952 -5.84541e-05 0)
(-0.00200077 -5.87255e-05 0)
(-0.00180186 -5.85361e-05 0)
(-0.00160436 -5.78671e-05 0)
(-0.00140987 -5.67011e-05 0)
(-0.00122007 -5.50226e-05 0)
(-0.00103663 -5.28181e-05 0)
(-0.000861274 -5.00767e-05 0)
(-0.000695739 -4.67897e-05 0)
(-0.000541753 -4.29524e-05 0)
(-0.00040102 -3.85645e-05 0)
(-0.000275205 -3.36325e-05 0)
(-0.000165892 -2.81717e-05 0)
(-7.45408e-05 -2.22112e-05 0)
(-2.42079e-06 -1.58044e-05 0)
(4.94998e-05 -9.04854e-06 0)
(8.07271e-05 -2.12347e-06 0)
(9.15258e-05 4.63642e-06 0)
(8.33408e-05 1.06062e-05 0)
(5.97367e-05 1.45903e-05 0)
(2.92208e-05 1.43457e-05 0)
(6.87046e-06 6.86621e-06 0)
(1.43558e-05 -3.0037e-05 0)
(5.13537e-05 -5.16356e-05 0)
(8.9635e-05 -4.41312e-05 0)
(0.000103381 -1.91203e-05 0)
(7.68747e-05 1.53012e-05 0)
(2.26939e-06 5.4113e-05 0)
(-0.000124131 9.42407e-05 0)
(-0.000303241 0.000133798 0)
(-0.000534014 0.000171628 0)
(-0.000814085 0.000207015 0)
(-0.00114022 0.000239522 0)
(-0.00150859 0.000268888 0)
(-0.00191503 0.000294967 0)
(-0.00235514 0.000317694 0)
(-0.00282439 0.00033706 0)
(-0.00331823 0.000353091 0)
(-0.00383212 0.000365844 0)
(-0.00436158 0.000375397 0)
(-0.0049022 0.000381841 0)
(-0.00544971 0.000385279 0)
(-0.00599997 0.000385823 0)
(-0.00654897 0.000383591 0)
(-0.00709287 0.000378706 0)
(-0.00762798 0.000371293 0)
(-0.00815081 0.000361479 0)
(-0.00865803 0.000349395 0)
(-0.00914649 0.000335171 0)
(-0.00961322 0.000318941 0)
(-0.0100554 0.000300836 0)
(-0.0104706 0.000280992 0)
(-0.0108562 0.000259541 0)
(-0.0112102 0.000236621 0)
(-0.0115305 0.000212367 0)
(-0.0118153 0.000186917 0)
(-0.0120629 0.000160411 0)
(-0.0122721 0.000132991 0)
(-0.0124415 0.000104799 0)
(-0.0125701 7.59807e-05 0)
(-0.0126573 4.66843e-05 0)
(-0.0127024 1.70603e-05 0)
(-0.0127051 -1.27383e-05 0)
(-0.0126652 -4.25555e-05 0)
(-0.0125828 -7.22325e-05 0)
(-0.0124584 -0.000101608 0)
(-0.0122924 -0.000130516 0)
(-0.0120856 -0.000158793 0)
(-0.0118391 -0.000186267 0)
(-0.0115541 -0.000212769 0)
(-0.0112323 -0.000238128 0)
(-0.0108752 -0.000262169 0)
(-0.0104851 -0.000284721 0)
(-0.010064 -0.00030561 0)
(-0.00961461 -0.000324667 0)
(-0.00913953 -0.000341723 0)
(-0.00864177 -0.000356613 0)
(-0.00812452 -0.000369175 0)
(-0.00759119 -0.000379255 0)
(-0.00704541 -0.000386704 0)
(-0.006491 -0.000391383 0)
(-0.00593196 -0.000393159 0)
(-0.00537246 -0.000391913 0)
(-0.00481682 -0.000387539 0)
(-0.00426947 -0.000379943 0)
(-0.00373496 -0.000369051 0)
(-0.0032179 -0.000354808 0)
(-0.00272295 -0.000337182 0)
(-0.00225473 -0.00031617 0)
(-0.00181783 -0.000291804 0)
(-0.0014167 -0.000264163 0)
(-0.00105559 -0.000233384 0)
(-0.000738434 -0.000199689 0)
(-0.00046869 -0.000163419 0)
(-0.000249155 -0.00012509 0)
(-8.16568e-05 -8.54922e-05 0)
(3.33754e-05 -4.58527e-05 0)
(9.75303e-05 -8.10928e-06 0)
(0.00011519 2.46522e-05 0)
(9.48237e-05 4.7483e-05 0)
(5.25977e-05 5.25457e-05 0)
(1.4346e-05 2.91931e-05 0)
(1.4244e-05 -5.95072e-05 0)
(4.44502e-05 -8.99708e-05 0)
(6.1124e-05 -6.05004e-05 0)
(3.54522e-05 6.70641e-06 0)
(-5.09384e-05 9.62328e-05 0)
(-0.000208265 0.000197427 0)
(-0.00044186 0.00030306 0)
(-0.000753428 0.000408299 0)
(-0.00114194 0.000509923 0)
(-0.00160437 0.00060579 0)
(-0.00213633 0.000694486 0)
(-0.00273241 0.000775095 0)
(-0.00338656 0.00084705 0)
(-0.00409227 0.000910027 0)
(-0.00484279 0.000963883 0)
(-0.0056312 0.0010086 0)
(-0.00645057 0.00104427 0)
(-0.007294 0.00107103 0)
(-0.00815468 0.0010891 0)
(-0.00902594 0.00109873 0)
(-0.0099013 0.0011002 0)
(-0.0107745 0.00109382 0)
(-0.0116394 0.00107991 0)
(-0.0124904 0.00105881 0)
(-0.0133217 0.00103087 0)
(-0.0141282 0.000996454 0)
(-0.0149048 0.000955926 0)
(-0.0156469 0.000909658 0)
(-0.0163499 0.000858025 0)
(-0.0170099 0.000801409 0)
(-0.017623 0.000740192 0)
(-0.0181856 0.000674765 0)
(-0.0186946 0.000605518 0)
(-0.0191471 0.00053285 0)
(-0.0195405 0.000457161 0)
(-0.0198727 0.00037886 0)
(-0.0201415 0.000298359 0)
(-0.0203456 0.000216078 0)
(-0.0204837 0.000132443 0)
(-0.0205548 4.78882e-05 0)
(-0.0205585 -3.71455e-05 0)
(-0.0204944 -0.00012221 0)
(-0.020363 -0.000206848 0)
(-0.0201645 -0.000290597 0)
(-0.0199001 -0.000372988 0)
(-0.0195709 -0.000453543 0)
(-0.0191786 -0.000531781 0)
(-0.0187253 -0.000607217 0)
(-0.0182135 -0.000679362 0)
(-0.0176459 -0.000747727 0)
(-0.0170258 -0.000811824 0)
(-0.0163567 -0.000871166 0)
(-0.0156427 -0.000925275 0)
(-0.014888 -0.000973677 0)
(-0.0140974 -0.00101591 0)
(-0.0132759 -0.00105153 0)
(-0.0124289 -0.00108011 0)
(-0.0115621 -0.00110124 0)
(-0.0106816 -0.00111453 0)
(-0.00979357 -0.00111965 0)
(-0.00890459 -0.00111626 0)
(-0.00802139 -0.00110409 0)
(-0.00715089 -0.00108292 0)
(-0.00630013 -0.00105258 0)
(-0.00547623 -0.00101294 0)
(-0.00468633 -0.000963985 0)
(-0.0039375 -0.00090577 0)
(-0.00323666 -0.000838473 0)
(-0.0025905 -0.000762414 0)
(-0.00200527 -0.000678104 0)
(-0.00148667 -0.000586307 0)
(-0.00103958 -0.000488138 0)
(-0.000667781 -0.000385205 0)
(-0.000373517 -0.000279825 0)
(-0.000156966 -0.000175361 0)
(-1.55061e-05 -7.67296e-05 0)
(5.71085e-05 8.87395e-06 0)
(7.19004e-05 7.10235e-05 0)
(4.79551e-05 9.48911e-05 0)
(1.4673e-05 5.97739e-05 0)
(1.00316e-05 -8.12071e-05 0)
(2.03366e-05 -0.000104401 0)
(-4.38628e-06 -3.51663e-05 0)
(-9.08989e-05 9.36557e-05 0)
(-0.000257345 0.000259298 0)
(-0.000514671 0.000445216 0)
(-0.000868785 0.000639549 0)
(-0.00132164 0.000833943 0)
(-0.00187208 0.00102255 0)
(-0.00251658 0.00120129 0)
(-0.00324985 0.00136735 0)
(-0.00406529 0.00151882 0)
(-0.00495537 0.00165446 0)
(-0.00591193 0.00177349 0)
(-0.00692635 0.0018755 0)
(-0.0079898 0.00196034 0)
(-0.00909332 0.00202807 0)
(-0.0102279 0.0020789 0)
(-0.0113848 0.00211315 0)
(-0.0125551 0.00213126 0)
(-0.0137303 0.00213372 0)
(-0.0149022 0.00212108 0)
(-0.0160628 0.00209393 0)
(-0.0172042 0.00205291 0)
(-0.0183192 0.00199867 0)
(-0.0194007 0.00193189 0)
(-0.020442 0.00185327 0)
(-0.0214369 0.00176352 0)
(-0.0223795 0.00166337 0)
(-0.0232641 0.00155354 0)
(-0.0240858 0.00143478 0)
(-0.0248399 0.00130785 0)
(-0.0255219 0.0011735 0)
(-0.0261281 0.00103252 0)
(-0.0266551 0.00088567 0)
(-0.0270998 0.000733761 0)
(-0.0274597 0.000577595 0)
(-0.0277327 0.000417991 0)
(-0.0279171 0.000255779 0)
(-0.0280118 9.18056e-05 0)
(-0.0280161 -7.30703e-05 0)
(-0.0279296 -0.000237975 0)
(-0.0277528 -0.000402023 0)
(-0.0274862 -0.000564312 0)
(-0.0271313 -0.000723931 0)
(-0.0266896 -0.000879958 0)
(-0.0261635 -0.00103146 0)
(-0.0255558 -0.0011775 0)
(-0.0248696 -0.00131713 0)
(-0.0241089 -0.00144941 0)
(-0.0232779 -0.00157341 0)
(-0.0223814 -0.00168819 0)
(-0.0214247 -0.00179282 0)
(-0.0204136 -0.00188642 0)
(-0.0193544 -0.0019681 0)
(-0.0182538 -0.00203701 0)
(-0.0171189 -0.00209234 0)
(-0.0159574 -0.00213333 0)
(-0.0147773 -0.00215926 0)
(-0.0135867 -0.00216949 0)
(-0.0123943 -0.00216343 0)
(-0.0112091 -0.00214059 0)
(-0.0100399 -0.00210058 0)
(-0.00889619 -0.00204312 0)
(-0.00778708 -0.00196807 0)
(-0.00672188 -0.00187542 0)
(-0.0057097 -0.0017654 0)
(-0.00475941 -0.00163843 0)
(-0.0038795 -0.00149527 0)
(-0.00307785 -0.00133701 0)
(-0.00236153 -0.00116526 0)
(-0.00173653 -0.000982282 0)
(-0.00120736 -0.000791219 0)
(-0.000776625 -0.000596443 0)
(-0.00044446 -0.000404033 0)
(-0.000207807 -0.000222454 0)
(-5.96663e-05 -6.34908e-05 0)
(1.19007e-05 5.66797e-05 0)
(2.60887e-05 0.000116131 0)
(1.0899e-05 8.38102e-05 0)
(4.00718e-06 -8.70222e-05 0)
(-1.30464e-05 -7.94978e-05 0)
(-9.20267e-05 4.9982e-05 0)
(-0.000254003 0.00025967 0)
(-0.000514812 0.000520173 0)
(-0.000884901 0.000809438 0)
(-0.00136984 0.00111107 0)
(-0.00197125 0.00141308 0)
(-0.00268756 0.00170677 0)
(-0.00351464 0.00198585 0)
(-0.00444641 0.00224582 0)
(-0.00547525 0.00248356 0)
(-0.00659243 0.0026969 0)
(-0.00778837 0.00288445 0)
(-0.00905296 0.00304541 0)
(-0.0103757 0.00317938 0)
(-0.011746 0.00328634 0)
(-0.013153 0.00336652 0)
(-0.0145861 0.00342034 0)
(-0.0160347 0.00344842 0)
(-0.0174885 0.00345147 0)
(-0.0189375 0.00343033 0)
(-0.0203718 0.00338592 0)
(-0.0217821 0.0033192 0)
(-0.0231593 0.00323121 0)
(-0.0244949 0.00312302 0)
(-0.0257806 0.00299574 0)
(-0.0270088 0.00285049 0)
(-0.0281722 0.00268844 0)
(-0.029264 0.00251076 0)
(-0.0302779 0.00231866 0)
(-0.0312082 0.00211334 0)
(-0.0320495 0.00189605 0)
(-0.0327972 0.00166802 0)
(-0.033447 0.00143054 0)
(-0.0339953 0.00118489 0)
(-0.0344388 0.000932368 0)
(-0.0347751 0.000674316 0)
(-0.035002 0.000412078 0)
(-0.0351182 0.000147024 0)
(-0.0351229 -0.000119453 0)
(-0.0350156 -0.000385938 0)
(-0.0347968 -0.000650996 0)
(-0.0344675 -0.000913172 0)
(-0.0340291 -0.00117099 0)
(-0.0334838 -0.00142297 0)
(-0.0328345 -0.00166759 0)
(-0.0320844 -0.00190336 0)
(-0.0312378 -0.00212876 0)
(-0.0302992 -0.00234227 0)
(-0.029274 -0.00254239 0)
(-0.028168 -0.00272763 0)
(-0.0269877 -0.00289651 0)
(-0.0257404 -0.0030476 0)
(-0.0244336 -0.00317951 0)
(-0.0230755 -0.0032909 0)
(-0.021675 -0.00338047 0)
(-0.0202412 -0.00344703 0)
(-0.0187838 -0.00348948 0)
(-0.017313 -0.00350679 0)
(-0.0158392 -0.00349809 0)
(-0.0143731 -0.00346264 0)
(-0.0129256 -0.00339987 0)
(-0.011508 -0.0033094 0)
(-0.0101312 -0.00319107 0)
(-0.00880642 -0.00304502 0)
(-0.00754448 -0.00287166 0)
(-0.0063559 -0.00267184 0)
(-0.00525067 -0.00244686 0)
(-0.00423802 -0.00219863 0)
(-0.00332619 -0.00192982 0)
(-0.0025221 -0.00164412 0)
(-0.00183097 -0.00134649 0)
(-0.00125588 -0.00104365 0)
(-0.000797234 -0.000744636 0)
(-0.000452175 -0.000461596 0)
(-0.000213858 -0.00021083 0)
(-7.0638e-05 -1.39405e-05 0)
(-5.25288e-06 0.000100655 0)
(5.25599e-06 9.30904e-05 0)
(-2.67245e-06 -7.37236e-05 0)
(-5.09438e-05 -7.32224e-06 0)
(-0.000191889 0.000205472 0)
(-0.00043873 0.000516289 0)
(-0.000803572 0.000890196 0)
(-0.00129541 0.00130028 0)
(-0.00191875 0.00172596 0)
(-0.00267429 0.00215175 0)
(-0.00355971 0.00256605 0)
(-0.00457011 0.00296027 0)
(-0.00569857 0.0033281 0)
(-0.00693649 0.00366498 0)
(-0.00827406 0.00396772 0)
(-0.00970051 0.00423417 0)
(-0.0112044 0.00446299 0)
(-0.0127738 0.00465349 0)
(-0.0143967 0.00480547 0)
(-0.0160607 0.00491913 0)
(-0.0177535 0.004995 0)
(-0.0194632 0.00503383 0)
(-0.0211777 0.0050366 0)
(-0.0228854 0.00500445 0)
(-0.024575 0.00493863 0)
(-0.0262356 0.00484052 0)
(-0.0278567 0.00471156 0)
(-0.0294284 0.00455329 0)
(-0.030941 0.00436729 0)
(-0.0323856 0.00415517 0)
(-0.0337537 0.00391862 0)
(-0.0350374 0.00365934 0)
(-0.0362293 0.00337906 0)
(-0.0373228 0.00307955 0)
(-0.0383115 0.00276261 0)
(-0.0391901 0.00243006 0)
(-0.0399534 0.00208375 0)
(-0.0405973 0.00172556 0)
(-0.0411181 0.00135741 0)
(-0.0415128 0.000981218 0)
(-0.041779 0.000598969 0)
(-0.041915 0.00021266 0)
(-0.04192 -0.000175677 0)
(-0.0417934 -0.000563979 0)
(-0.0415359 -0.000950156 0)
(-0.0411485 -0.00133209 0)
(-0.0406329 -0.00170763 0)
(-0.0399919 -0.00207462 0)
(-0.0392286 -0.00243087 0)
(-0.038347 -0.0027742 0)
(-0.037352 -0.00310241 0)
(-0.0362489 -0.0034133 0)
(-0.035044 -0.00370471 0)
(-0.0337441 -0.00397448 0)
(-0.0323569 -0.0042205 0)
(-0.0308906 -0.0044407 0)
(-0.0293542 -0.00463308 0)
(-0.0277572 -0.00479571 0)
(-0.0261098 -0.00492678 0)
(-0.0244227 -0.00502458 0)
(-0.0227071 -0.00508754 0)
(-0.0209748 -0.00511425 0)
(-0.0192378 -0.00510349 0)
(-0.0175084 -0.00505426 0)
(-0.0157993 -0.00496581 0)
(-0.0141233 -0.00483768 0)
(-0.012493 -0.00466974 0)
(-0.0109212 -0.00446228 0)
(-0.0094201 -0.00421606 0)
(-0.00800179 -0.00393238 0)
(-0.00667753 -0.00361328 0)
(-0.00545774 -0.00326161 0)
(-0.0043517 -0.0028813 0)
(-0.00336726 -0.00247761 0)
(-0.00251039 -0.00205752 0)
(-0.00178487 -0.00163022 0)
(-0.00119175 -0.00120774 0)
(-0.000728915 -0.000805812 0)
(-0.000390432 -0.000444947 0)
(-0.000165874 -0.000151596 0)
(-4.1337e-05 4.03148e-05 0)
(-1.09972e-06 8.42626e-05 0)
(-9.44734e-06 -4.00628e-05 0)
(-9.05919e-05 0.000116309 0)
(-0.000297582 0.000437555 0)
(-0.000634787 0.000870815 0)
(-0.00110971 0.00137683 0)
(-0.00172921 0.00192462 0)
(-0.00249611 0.00248991 0)
(-0.00340974 0.003054 0)
(-0.00446666 0.00360254 0)
(-0.00566099 0.00412463 0)
(-0.00698483 0.00461211 0)
(-0.0084286 0.00505894 0)
(-0.00998143 0.00546078 0)
(-0.0116315 0.00581464 0)
(-0.013366 0.00611857 0)
(-0.015172 0.00637148 0)
(-0.017036 0.00657297 0)
(-0.0189444 0.00672316 0)
(-0.0208834 0.00682264 0)
(-0.0228397 0.00687232 0)
(-0.0248 0.00687343 0)
(-0.0267511 0.00682741 0)
(-0.0286804 0.00673591 0)
(-0.0305756 0.00660072 0)
(-0.0324251 0.00642377 0)
(-0.0342174 0.00620707 0)
(-0.035942 0.00595275 0)
(-0.0375885 0.00566299 0)
(-0.0391475 0.00534005 0)
(-0.0406099 0.00498622 0)
(-0.0419676 0.00460387 0)
(-0.0432129 0.00419538 0)
(-0.0443388 0.0037632 0)
(-0.045339 0.0033098 0)
(-0.0462079 0.00283772 0)
(-0.0469408 0.0023495 0)
(-0.0475334 0.00184776 0)
(-0.0479823 0.00133513 0)
(-0.048285 0.000814297 0)
(-0.0484396 0.000287988 0)
(-0.0484448 -0.000241029 0)
(-0.0483005 -0.000769947 0)
(-0.0480071 -0.00129592 0)
(-0.0475658 -0.00181607 0)
(-0.0469788 -0.00232748 0)
(-0.0462489 -0.00282721 0)
(-0.0453798 -0.0033123 0)
(-0.0443762 -0.0037798 0)
(-0.0432433 -0.00422671 0)
(-0.0419874 -0.00465009 0)
(-0.0406154 -0.00504699 0)
(-0.0391351 -0.00541452 0)
(-0.0375552 -0.00574982 0)
(-0.0358848 -0.00605011 0)
(-0.0341342 -0.00631272 0)
(-0.032314 -0.00653507 0)
(-0.0304357 -0.00671474 0)
(-0.0285113 -0.00684944 0)
(-0.0265534 -0.00693712 0)
(-0.0245752 -0.00697592 0)
(-0.0225901 -0.00696426 0)
(-0.0206119 -0.00690086 0)
(-0.0186547 -0.00678479 0)
(-0.0167328 -0.00661553 0)
(-0.0148603 -0.00639301 0)
(-0.0130513 -0.00611775 0)
(-0.0113194 -0.00579087 0)
(-0.00967792 -0.00541428 0)
(-0.00813933 -0.0049908 0)
(-0.00671517 -0.00452436 0)
(-0.00541576 -0.00402022 0)
(-0.00424988 -0.00348537 0)
(-0.00322443 -0.00292883 0)
(-0.00234409 -0.00236225 0)
(-0.00161093 -0.00180058 0)
(-0.00102407 -0.00126288 0)
(-0.000579057 -0.000773432 0)
(-0.000267382 -0.000362802 0)
(-7.93678e-05 -6.92991e-05 0)
(-7.5941e-06 5.59562e-05 0)
(-1.60546e-05 1.42199e-05 0)
(-0.000130426 0.000293224 0)
(-0.00040513 0.000749495 0)
(-0.000835415 0.00132742 0)
(-0.00142375 0.00198458 0)
(-0.00217439 0.00268673 0)
(-0.00308804 0.00340651 0)
(-0.00416227 0.00412234 0)
(-0.0053922 0.00481735 0)
(-0.00677074 0.00547849 0)
(-0.00828886 0.00609577 0)
(-0.00993592 0.00666166 0)
(-0.0117 0.00717065 0)
(-0.0135681 0.00761884 0)
(-0.0155266 0.00800365 0)
(-0.017561 0.00832355 0)
(-0.0196569 0.00857786 0)
(-0.0217993 0.00876662 0)
(-0.0239735 0.00889044 0)
(-0.0261646 0.0089504 0)
(-0.0283581 0.00894796 0)
(-0.0305397 0.0088849 0)
(-0.0326957 0.00876326 0)
(-0.0348124 0.00858528 0)
(-0.0368769 0.00835341 0)
(-0.038877 0.0080702 0)
(-0.0408006 0.00773837 0)
(-0.0426367 0.00736071 0)
(-0.0443747 0.00694011 0)
(-0.0460048 0.00647955 0)
(-0.0475177 0.00598205 0)
(-0.0489051 0.00545071 0)
(-0.0501593 0.0048887 0)
(-0.0512733 0.00429923 0)
(-0.0522411 0.00368557 0)
(-0.0530571 0.00305103 0)
(-0.0537169 0.00239899 0)
(-0.0542167 0.00173289 0)
(-0.0545536 0.0010562 0)
(-0.0547256 0.000372465 0)
(-0.0547314 -0.000314726 0)
(-0.0545707 -0.00100173 0)
(-0.054244 -0.00168487 0)
(-0.0537527 -0.00236041 0)
(-0.0530991 -0.00302457 0)
(-0.0522865 -0.00367356 0)
(-0.0513189 -0.00430355 0)
(-0.0502015 -0.00491072 0)
(-0.04894 -0.00549122 0)
(-0.0475413 -0.00604123 0)
(-0.0460132 -0.00655699 0)
(-0.0443641 -0.00703474 0)
(-0.0426036 -0.00747084 0)
(-0.0407419 -0.00786172 0)
(-0.0387901 -0.00820396 0)
(-0.0367601 -0.00849426 0)
(-0.0346643 -0.00872952 0)
(-0.032516 -0.00890688 0)
(-0.0303291 -0.00902371 0)
(-0.0281178 -0.00907769 0)
(-0.025897 -0.00906686 0)
(-0.0236818 -0.00898964 0)
(-0.0214876 -0.00884493 0)
(-0.0193299 -0.00863216 0)
(-0.0172241 -0.00835135 0)
(-0.0151856 -0.00800327 0)
(-0.0132294 -0.00758948 0)
(-0.0113697 -0.00711253 0)
(-0.00962037 -0.0065761 0)
(-0.0079939 -0.00598524 0)
(-0.00650172 -0.00534664 0)
(-0.00515364 -0.00466898 0)
(-0.00395764 -0.00396333 0)
(-0.00291956 -0.00324372 0)
(-0.0020428 -0.0025278 0)
(-0.00132807 -0.00183764 0)
(-0.000772901 -0.00120075 0)
(-0.000371119 -0.000651082 0)
(-0.000117739 -0.000230216 0)
(-1.3951e-05 7.81544e-06 0)
(-2.23844e-05 8.88288e-05 0)
(-0.000169596 0.000523715 0)
(-0.000512146 0.00114246 0)
(-0.00103632 0.001888 0)
(-0.00173942 0.00271574 0)
(-0.00262284 0.00358897 0)
(-0.00368483 0.00447779 0)
(-0.00492094 0.00535818 0)
(-0.00632457 0.00621105 0)
(-0.00788721 0.00702135 0)
(-0.00959854 0.00777736 0)
(-0.0114468 0.00847016 0)
(-0.0134188 0.00909306 0)
(-0.0155007 0.00964128 0)
(-0.0176775 0.0101116 0)
(-0.0199339 0.0105019 0)
(-0.0222542 0.0108113 0)
(-0.0246224 0.0110398 0)
(-0.0270225 0.011188 0)
(-0.0294386 0.011257 0)
(-0.0318552 0.0112487 0)
(-0.0342567 0.011165 0)
(-0.0366283 0.0110086 0)
(-0.0389554 0.0107821 0)
(-0.041224 0.0104884 0)
(-0.0434207 0.0101308 0)
(-0.0455327 0.00971256 0)
(-0.0475479 0.00923715 0)
(-0.0494548 0.00870816 0)
(-0.0512429 0.00812927 0)
(-0.0529022 0.00750426 0)
(-0.0544235 0.00683701 0)
(-0.0557985 0.00613144 0)
(-0.0570197 0.00539157 0)
(-0.0580804 0.0046215 0)
(-0.0589748 0.00382536 0)
(-0.0596979 0.0030074 0)
(-0.0602457 0.0021719 0)
(-0.0606151 0.00132321 0)
(-0.0608037 0.000465764 0)
(-0.0608104 -0.000395952 0)
(-0.0606346 -0.00125739 0)
(-0.060277 -0.00211393 0)
(-0.0597392 -0.00296092 0)
(-0.0590236 -0.00379366 0)
(-0.0581336 -0.0046074 0)
(-0.0570739 -0.00539737 0)
(-0.0558498 -0.0061588 0)
(-0.0544677 -0.00688691 0)
(-0.052935 -0.00757695 0)
(-0.0512601 -0.00822423 0)
(-0.0494522 -0.00882411 0)
(-0.0475217 -0.00937204 0)
(-0.0454795 -0.00986363 0)
(-0.0433376 -0.0102946 0)
(-0.0411089 -0.010661 0)
(-0.0388069 -0.0109588 0)
(-0.0364459 -0.0111847 0)
(-0.0340408 -0.0113354 0)
(-0.0316071 -0.0114081 0)
(-0.0291608 -0.0114004 0)
(-0.0267181 -0.0113104 0)
(-0.0242956 -0.0111368 0)
(-0.0219101 -0.0108791 0)
(-0.0195781 -0.0105373 0)
(-0.0173162 -0.0101126 0)
(-0.0151405 -0.00960685 0)
(-0.0130666 -0.00902336 0)
(-0.0111091 -0.00836671 0)
(-0.00928193 -0.00764307 0)
(-0.00759749 -0.00686054 0)
(-0.0060668 -0.00602947 0)
(-0.00469909 -0.00516291 0)
(-0.00350155 -0.00427709 0)
(-0.00247917 -0.00339212 0)
(-0.0016346 -0.00253271 0)
(-0.000967603 -0.00172909 0)
(-0.000474643 -0.00101784 0)
(-0.000155566 -0.000442901 0)
(-2.00499e-05 -5.99337e-05 0)
(-2.84028e-05 0.000183189 0)
(-0.000207677 0.000807158 0)
(-0.000617267 0.00161623 0)
(-0.00123488 0.00255284 0)
(-0.00205272 0.00357101 0)
(-0.00306919 0.00463223 0)
(-0.00427993 0.00570459 0)
(-0.0056782 0.00676207 0)
(-0.00725554 0.00778365 0)
(-0.00900178 0.0087525 0)
(-0.0109052 0.00965538 0)
(-0.0129527 0.010482 0)
(-0.0151301 0.0112246 0)
(-0.0174222 0.0118776 0)
(-0.019813 0.0124369 0)
(-0.022286 0.0129003 0)
(-0.0248247 0.0132663 0)
(-0.0274118 0.0135349 0)
(-0.0300304 0.0137068 0)
(-0.0326636 0.0137832 0)
(-0.0352948 0.0137661 0)
(-0.0379074 0.0136581 0)
(-0.0404855 0.013462 0)
(-0.0430137 0.013181 0)
(-0.0454771 0.0128187 0)
(-0.0478612 0.0123789 0)
(-0.0501525 0.0118656 0)
(-0.0523379 0.0112829 0)
(-0.0544054 0.0106352 0)
(-0.0563435 0.00992693 0)
(-0.0581415 0.00916264 0)
(-0.0597898 0.00834704 0)
(-0.0612793 0.00748492 0)
(-0.062602 0.00658114 0)
(-0.0637508 0.00564067 0)
(-0.0647195 0.00466857 0)
(-0.0655028 0.00366996 0)
(-0.0660963 0.00265008 0)
(-0.0664967 0.00161422 0)
(-0.0667016 0.000567754 0)
(-0.0667094 -0.000483852 0)
(-0.06652 -0.00153507 0)
(-0.0661338 -0.0025803 0)
(-0.0655525 -0.00361389 0)
(-0.0647788 -0.00463011 0)
(-0.0638164 -0.00562321 0)
(-0.06267 -0.00658743 0)
(-0.0613456 -0.00751695 0)
(-0.0598498 -0.00840601 0)
(-0.0581907 -0.00924885 0)
(-0.0563772 -0.0100398 0)
(-0.054419 -0.0107732 0)
(-0.0523272 -0.0114437 0)
(-0.0501137 -0.0120458 0)
(-0.0477911 -0.0125745 0)
(-0.0453732 -0.013025 0)
(-0.0428743 -0.0133925 0)
(-0.0403098 -0.013673 0)
(-0.0376956 -0.0138625 0)
(-0.0350481 -0.0139578 0)
(-0.0323844 -0.013956 0)
(-0.0297218 -0.0138549 0)
(-0.0270781 -0.013653 0)
(-0.024471 -0.0133497 0)
(-0.0219184 -0.0129452 0)
(-0.0194378 -0.0124409 0)
(-0.0170464 -0.0118392 0)
(-0.0147611 -0.011144 0)
(-0.0125976 -0.0103608 0)
(-0.0105709 -0.00949691 0)
(-0.00869469 -0.00856179 0)
(-0.0069813 -0.00756739 0)
(-0.00544132 -0.00652857 0)
(-0.00408353 -0.00546362 0)
(-0.00291471 -0.00439481 0)
(-0.00193964 -0.00334912 0)
(-0.00116051 -0.00235901 0)
(-0.000576552 -0.00146308 0)
(-0.0001924 -0.000706877 0)
(-2.58504e-05 -0.000146769 0)
(-3.41134e-05 0.000296611 0)
(-0.00024449 0.00114243 0)
(-0.000719787 0.00216977 0)
(-0.00142962 0.0033212 0)
(-0.00236126 0.00454996 0)
(-0.00351011 0.00581629 0)
(-0.00486911 0.00708678 0)
(-0.00642911 0.00833378 0)
(-0.00817959 0.00953464 0)
(-0.0101086 0.010671 0)
(-0.0122029 0.0117283 0)
(-0.014448 0.0126951 0)
(-0.0168284 0.0135625 0)
(-0.0193277 0.0143242 0)
(-0.0219289 0.0149755 0)
(-0.0246144 0.0155136 0)
(-0.0273665 0.0159371 0)
(-0.0301671 0.0162456 0)
(-0.0329982 0.0164399 0)
(-0.035842 0.0165214 0)
(-0.0386807 0.0164925 0)
(-0.0414972 0.0163559 0)
(-0.0442744 0.016115 0)
(-0.0469961 0.0157736 0)
(-0.0496464 0.0153359 0)
(-0.0522103 0.0148062 0)
(-0.0546732 0.0141893 0)
(-0.0570216 0.0134901 0)
(-0.0592425 0.0127137 0)
(-0.0613237 0.0118654 0)
(-0.0632542 0.0109506 0)
(-0.0650235 0.00997476 0)
(-0.0666222 0.00894371 0)
(-0.0680419 0.00786317 0)
(-0.0692748 0.00673906 0)
(-0.0703145 0.00557737 0)
(-0.0711554 0.00438422 0)
(-0.0717928 0.0031658 0)
(-0.0722231 0.00192843 0)
(-0.0724439 0.000678488 0)
(-0.0724535 -0.000577527 0)
(-0.0722517 -0.00183305 0)
(-0.0718389 -0.00308142 0)
(-0.0712171 -0.00431592 0)
(-0.0703889 -0.00552977 0)
(-0.0693582 -0.00671614 0)
(-0.0681302 -0.00786817 0)
(-0.066711 -0.008979 0)
(-0.0651077 -0.0100418 0)
(-0.0633287 -0.0110497 0)
(-0.0613834 -0.011996 0)
(-0.0592823 -0.012874 0)
(-0.0570369 -0.0136774 0)
(-0.0546597 -0.0143998 0)
(-0.0521642 -0.0150352 0)
(-0.0495649 -0.0155778 0)
(-0.046877 -0.0160222 0)
(-0.0441166 -0.0163635 0)
(-0.0413005 -0.0165972 0)
(-0.0384462 -0.0167193 0)
(-0.0355717 -0.0167267 0)
(-0.0326954 -0.0166167 0)
(-0.0298359 -0.0163877 0)
(-0.0270122 -0.0160389 0)
(-0.0242431 -0.0155706 0)
(-0.0215473 -0.0149846 0)
(-0.0189431 -0.0142836 0)
(-0.0164485 -0.0134723 0)
(-0.0140805 -0.0125569 0)
(-0.0118553 -0.011546 0)
(-0.00978785 -0.0104501 0)
(-0.0078919 -0.00928284 0)
(-0.0061796 -0.00806066 0)
(-0.00466142 -0.00680368 0)
(-0.00334614 -0.0055361 0)
(-0.0022408 -0.00428681 0)
(-0.00135013 -0.00309008 0)
(-0.000676132 -0.001986 0)
(-0.000228053 -0.00102116 0)
(-3.13528e-05 -0.000252045 0)
(-3.95375e-05 0.000428377 0)
(-0.000280001 0.00152816 0)
(-0.00081942 0.00280157 0)
(-0.00161981 0.00419168 0)
(-0.00266376 0.00565142 0)
(-0.00394372 0.00714021 0)
(-0.00544989 0.00862356 0)
(-0.00717064 0.0100725 0)
(-0.0090933 0.0114632 0)
(-0.0112041 0.0127759 0)
(-0.013488 0.0139948 0)
(-0.015929 0.0151075 0)
(-0.0185104 0.0161043 0)
(-0.0212145 0.0169781 0)
(-0.0240232 0.0177237 0)
(-0.0269177 0.0183379 0)
(-0.0298793 0.018819 0)
(-0.0328889 0.0191667 0)
(-0.0359276 0.0193817 0)
(-0.0389766 0.0194657 0)
(-0.0420173 0.0194213 0)
(-0.0450316 0.0192518 0)
(-0.0480017 0.0189609 0)
(-0.0509106 0.018553 0)
(-0.0537415 0.018033 0)
(-0.0564787 0.0174058 0)
(-0.0591071 0.016677 0)
(-0.0616121 0.0158522 0)
(-0.0639804 0.0149374 0)
(-0.0661993 0.0139387 0)
(-0.0682569 0.0128625 0)
(-0.0701425 0.0117151 0)
(-0.071846 0.0105033 0)
(-0.0733587 0.00923373 0)
(-0.0746724 0.00791335 0)
(-0.0757804 0.00654913 0)
(-0.0766768 0.00514821 0)
(-0.0773566 0.00371782 0)
(-0.0778162 0.00226532 0)
(-0.0780529 0.000798187 0)
(-0.078065 -0.000676024 0)
(-0.0778521 -0.00214964 0)
(-0.0774148 -0.0036149 0)
(-0.076755 -0.00506397 0)
(-0.0758755 -0.00648894 0)
(-0.0747805 -0.00788185 0)
(-0.0734752 -0.00923471 0)
(-0.071966 -0.0105395 0)
(-0.0702604 -0.0117883 0)
(-0.0683672 -0.0129731 0)
(-0.0662962 -0.0140862 0)
(-0.0640584 -0.0151198 0)
(-0.0616658 -0.0160663 0)
(-0.0591316 -0.0169185 0)
(-0.0564698 -0.0176694 0)
(-0.0536956 -0.0183123 0)
(-0.050825 -0.0188409 0)
(-0.0478749 -0.0192495 0)
(-0.0448629 -0.0195329 0)
(-0.0418075 -0.0196867 0)
(-0.0387273 -0.0197069 0)
(-0.035642 -0.0195907 0)
(-0.032571 -0.0193362 0)
(-0.0295343 -0.0189426 0)
(-0.0265519 -0.0184102 0)
(-0.0236435 -0.0177409 0)
(-0.0208287 -0.016938 0)
(-0.0181264 -0.0160066 0)
(-0.015555 -0.0149541 0)
(-0.013132 -0.0137896 0)
(-0.0108738 -0.0125252 0)
(-0.00879557 -0.0111756 0)
(-0.00691119 -0.00975902 0)
(-0.00523296 -0.00829704 0)
(-0.00377174 -0.00681555 0)
(-0.00253691 -0.00534504 0)
(-0.00153579 -0.00392122 0)
(-0.000773109 -0.00258532 0)
(-0.000262492 -0.00138451 0)
(-3.65775e-05 -0.000375084 0)
(-4.47044e-05 0.000577795 0)
(-0.000314263 0.00196291 0)
(-0.000916147 0.00350989 0)
(-0.00180525 0.00516254 0)
(-0.00295971 0.00687378 0)
(-0.00436915 0.00860259 0)
(-0.00602103 0.0103137 0)
(-0.00790123 0.0119772 0)
(-0.00999483 0.0135681 0)
(-0.0122861 0.0150657 0)
(-0.0147583 0.0164534 0)
(-0.0173938 0.0177176 0)
(-0.0201745 0.0188481 0)
(-0.0230813 0.0198369 0)
(-0.0260949 0.0206787 0)
(-0.0291956 0.0213698 0)
(-0.0323635 0.0219083 0)
(-0.0355785 0.022294 0)
(-0.0388208 0.0225276 0)
(-0.0420707 0.0226112 0)
(-0.0453088 0.0225475 0)
(-0.0485161 0.0223403 0)
(-0.0516741 0.021994 0)
(-0.0547649 0.0215135 0)
(-0.0577712 0.0209041 0)
(-0.0606764 0.0201718 0)
(-0.0634649 0.0193228 0)
(-0.0661216 0.0183636 0)
(-0.0686324 0.0173009 0)
(-0.0709842 0.0161419 0)
(-0.0731646 0.0148937 0)
(-0.0751624 0.0135639 0)
(-0.0769671 0.0121599 0)
(-0.0785696 0.0106896 0)
(-0.0799616 0.00916087 0)
(-0.0811358 0.00758174 0)
(-0.082086 0.00596043 0)
(-0.0828073 0.00430525 0)
(-0.0832957 0.00262466 0)
(-0.0835484 0.00092723 0)
(-0.0835637 -0.000778331 0)
(-0.083341 -0.00248322 0)
(-0.0828811 -0.00417851 0)
(-0.0821858 -0.00585522 0)
(-0.0812581 -0.00750425 0)
(-0.0801021 -0.00911647 0)
(-0.0787234 -0.0106827 0)
(-0.0771286 -0.0121938 0)
(-0.0753254 -0.0136405 0)
(-0.073323 -0.0150139 0)
(-0.0711315 -0.0163048 0)
(-0.0687624 -0.0175045 0)
(-0.0662281 -0.0186043 0)
(-0.0635423 -0.0195959 0)
(-0.0607197 -0.0204712 0)
(-0.057776 -0.0212226 0)
(-0.054728 -0.0218429 0)
(-0.0515933 -0.0223256 0)
(-0.0483903 -0.0226647 0)
(-0.045138 -0.022855 0)
(-0.0418564 -0.0228922 0)
(-0.0385656 -0.0227731 0)
(-0.0352864 -0.0224953 0)
(-0.0320396 -0.022058 0)
(-0.0288462 -0.0214615 0)
(-0.0257271 -0.0207078 0)
(-0.022703 -0.0198008 0)
(-0.0197941 -0.018746 0)
(-0.0170201 -0.0175514 0)
(-0.0143998 -0.0162272 0)
(-0.0119512 -0.0147866 0)
(-0.00969101 -0.0132454 0)
(-0.00763493 -0.0116232 0)
(-0.00579721 -0.0099431 0)
(-0.00419083 -0.0082323 0)
(-0.00282759 -0.00652267 0)
(-0.00171735 -0.00485106 0)
(-0.000867497 -0.00325955 0)
(-0.000295781 -0.00179565 0)
(-4.15552e-05 -0.000515239 0)
(-4.9646e-05 0.000744225 0)
(-0.000347376 0.00244528 0)
(-0.00101011 0.00429295 0)
(-0.00198604 0.00623189 0)
(-0.00324913 0.00821523 0)
(-0.00478625 0.0102017 0)
(-0.00658221 0.0121556 0)
(-0.00862036 0.0140463 0)
(-0.0108835 0.015848 0)
(-0.013354 0.0175393 0)
(-0.0160131 0.0191026 0)
(-0.0188417 0.0205238 0)
(-0.02182 0.0217918 0)
(-0.0249278 0.0228986 0)
(-0.0281444 0.023838 0)
(-0.031449 0.0246065 0)
(-0.0348205 0.0252019 0)
(-0.038238 0.0256241 0)
(-0.0416807 0.0258739 0)
(-0.0451281 0.0259537 0)
(-0.0485598 0.0258667 0)
(-0.0519561 0.0256171 0)
(-0.0552978 0.0252097 0)
(-0.0585662 0.0246502 0)
(-0.0617435 0.0239446 0)
(-0.0648125 0.0230996 0)
(-0.0677568 0.0221222 0)
(-0.0705609 0.0210197 0)
(-0.0732102 0.0198 0)
(-0.075691 0.0184709 0)
(-0.0779906 0.0170406 0)
(-0.0800973 0.0155177 0)
(-0.0820003 0.0139106 0)
(-0.0836902 0.0122282 0)
(-0.0851582 0.0104795 0)
(-0.0863968 0.00867359 0)
(-0.0873998 0.00681978 0)
(-0.0881619 0.00492752 0)
(-0.0886789 0.0030064 0)
(-0.088948 0.00106614 0)
(-0.0889673 -0.00088338 0)
(-0.0887363 -0.00283218 0)
(-0.0882556 -0.00477014 0)
(-0.087527 -0.00668705 0)
(-0.0865538 -0.00857263 0)
(-0.0853401 -0.0104165 0)
(-0.0838915 -0.0122083 0)
(-0.0822149 -0.0139375 0)
(-0.0803183 -0.0155939 0)
(-0.078211 -0.0171671 0)
(-0.0759036 -0.0186468 0)
(-0.0734078 -0.0200232 0)
(-0.0707365 -0.0212864 0)