/*--------------------------------*- C++ -*----------------------------------*\
  =========                 |
  \\      /  F ield         | OpenFOAM: The Open Source CFD Toolbox
   \\    /   O peration     | Website:  https://openfoam.org
    \\  /    A nd           | Version:  7
     \\/     M anipulation  |
\*---------------------------------------------------------------------------*/
FoamFile
{
    version     2.0;
    format      ascii;
    class       volVectorField;
    location    "0.35";
    object      U;
}
// * * * * * * * * * * * * * * * * * * * * * * * * * * * * * * * * * * * * * //

dimensions      [0 1 -1 0 0 0 0];

internalField   nonuniform List<vector> 
25600
(
(1.12711e-06 -1.07953e-06 0)
(3.90352e-06 -1.70598e-06 0)
(6.67067e-06 -1.35489e-06 0)
(7.56024e-06 -5.44495e-07 0)
(5.78613e-06 4.21486e-07 0)
(1.13266e-06 1.39541e-06 0)
(-6.35949e-06 2.31002e-06 0)
(-1.65492e-05 3.14262e-06 0)
(-2.92429e-05 3.8921e-06 0)
(-4.42253e-05 4.56286e-06 0)
(-6.12761e-05 5.15809e-06 0)
(-8.01812e-05 5.68137e-06 0)
(-0.000100738 6.13849e-06 0)
(-0.000122758 6.53648e-06 0)
(-0.000146067 6.88203e-06 0)
(-0.000170504 7.18044e-06 0)
(-0.000195922 7.43617e-06 0)
(-0.000222187 7.65365e-06 0)
(-0.000249182 7.83723e-06 0)
(-0.000276796 7.99063e-06 0)
(-0.000304933 8.11717e-06 0)
(-0.000333506 8.22019e-06 0)
(-0.000362436 8.30255e-06 0)
(-0.000391655 8.36647e-06 0)
(-0.0004211 8.41414e-06 0)
(-0.000450717 8.44754e-06 0)
(-0.000480457 8.46843e-06 0)
(-0.000510277 8.47851e-06 0)
(-0.000540138 8.47922e-06 0)
(-0.000570008 8.47151e-06 0)
(-0.000599856 8.45628e-06 0)
(-0.000629655 8.43459e-06 0)
(-0.000659382 8.40728e-06 0)
(-0.000689015 8.37494e-06 0)
(-0.000718536 8.33798e-06 0)
(-0.000747926 8.29677e-06 0)
(-0.00077717 8.2517e-06 0)
(-0.000806252 8.20312e-06 0)
(-0.000835159 8.15119e-06 0)
(-0.000863877 8.09588e-06 0)
(-0.000892393 8.03723e-06 0)
(-0.000920695 7.97531e-06 0)
(-0.000948768 7.91018e-06 0)
(-0.000976601 7.84171e-06 0)
(-0.00100418 7.76974e-06 0)
(-0.00103149 7.69411e-06 0)
(-0.00105853 7.61465e-06 0)
(-0.00108526 7.53124e-06 0)
(-0.00111169 7.4437e-06 0)
(-0.00113779 7.35182e-06 0)
(-0.00116355 7.25536e-06 0)
(-0.00118895 7.15402e-06 0)
(-0.00121398 7.04757e-06 0)
(-0.00123861 6.93581e-06 0)
(-0.00126283 6.81858e-06 0)
(-0.00128661 6.69564e-06 0)
(-0.00130994 6.56671e-06 0)
(-0.0013328 6.4315e-06 0)
(-0.00135516 6.28976e-06 0)
(-0.001377 6.1413e-06 0)
(-0.00139829 5.98598e-06 0)
(-0.00141902 5.82365e-06 0)
(-0.00143916 5.65408e-06 0)
(-0.00145868 5.47706e-06 0)
(-0.00147755 5.29239e-06 0)
(-0.00149576 5.0999e-06 0)
(-0.00151327 4.89953e-06 0)
(-0.00153005 4.69116e-06 0)
(-0.00154609 4.47469e-06 0)
(-0.00156134 4.25002e-06 0)
(-0.00157579 4.01706e-06 0)
(-0.00158941 3.7758e-06 0)
(-0.00160216 3.52626e-06 0)
(-0.00161402 3.26847e-06 0)
(-0.00162496 3.00245e-06 0)
(-0.00163495 2.72818e-06 0)
(-0.00164397 2.44574e-06 0)
(-0.00165199 2.15532e-06 0)
(-0.00165897 1.8571e-06 0)
(-0.00166491 1.5513e-06 0)
(-0.00166976 1.23812e-06 0)
(-0.00167351 9.17753e-07 0)
(-0.00167614 5.90446e-07 0)
(-0.00167761 2.56551e-07 0)
(-0.00167791 -8.3522e-08 0)
(-0.00167702 -4.29362e-07 0)
(-0.00167491 -7.80531e-07 0)
(-0.00167158 -1.13661e-06 0)
(-0.00166701 -1.49719e-06 0)
(-0.00166118 -1.86171e-06 0)
(-0.00165408 -2.22948e-06 0)
(-0.00164571 -2.59985e-06 0)
(-0.00163605 -2.9722e-06 0)
(-0.00162509 -3.34598e-06 0)
(-0.00161284 -3.72056e-06 0)
(-0.00159929 -4.09514e-06 0)
(-0.00158445 -4.46881e-06 0)
(-0.00156832 -4.84074e-06 0)
(-0.00155091 -5.21022e-06 0)
(-0.00153222 -5.57658e-06 0)
(-0.00151228 -5.93899e-06 0)
(-0.00149108 -6.29643e-06 0)
(-0.00146866 -6.64791e-06 0)
(-0.00144504 -6.99258e-06 0)
(-0.00142023 -7.32968e-06 0)
(-0.00139427 -7.65838e-06 0)
(-0.00136718 -7.97772e-06 0)
(-0.001339 -8.28666e-06 0)
(-0.00130977 -8.58427e-06 0)
(-0.00127952 -8.86977e-06 0)
(-0.0012483 -9.14239e-06 0)
(-0.00121616 -9.40125e-06 0)
(-0.00118313 -9.6454e-06 0)
(-0.00114927 -9.87396e-06 0)
(-0.00111465 -1.00861e-05 0)
(-0.0010793 -1.02812e-05 0)
(-0.00104329 -1.04584e-05 0)
(-0.00100669 -1.06169e-05 0)
(-0.000969561 -1.07561e-05 0)
(-0.000931964 -1.08752e-05 0)
(-0.000893971 -1.09736e-05 0)
(-0.000855655 -1.10506e-05 0)
(-0.000817089 -1.11056e-05 0)
(-0.000778349 -1.11379e-05 0)
(-0.000739514 -1.11472e-05 0)
(-0.000700664 -1.1133e-05 0)
(-0.00066188 -1.10946e-05 0)
(-0.000623246 -1.10315e-05 0)
(-0.000584849 -1.09431e-05 0)
(-0.000546775 -1.08292e-05 0)
(-0.000509114 -1.06892e-05 0)
(-0.000471955 -1.05228e-05 0)
(-0.000435392 -1.03296e-05 0)
(-0.000399517 -1.0109e-05 0)
(-0.000364426 -9.86067e-06 0)
(-0.000330216 -9.58422e-06 0)
(-0.000296983 -9.2793e-06 0)
(-0.000264827 -8.94541e-06 0)
(-0.000233849 -8.58206e-06 0)
(-0.00020415 -8.18879e-06 0)
(-0.000175833 -7.76526e-06 0)
(-0.000149001 -7.3111e-06 0)
(-0.000123758 -6.82584e-06 0)
(-0.000100208 -6.30903e-06 0)
(-7.84561e-05 -5.76037e-06 0)
(-5.86047e-05 -5.17969e-06 0)
(-4.07552e-05 -4.56704e-06 0)
(-2.50053e-05 -3.92289e-06 0)
(-1.1447e-05 -3.24831e-06 0)
(-1.63422e-07 -2.54519e-06 0)
(8.77555e-06 -1.81685e-06 0)
(1.53205e-05 -1.06897e-06 0)
(1.94529e-05 -3.11736e-07 0)
(2.1201e-05 4.37492e-07 0)
(2.06661e-05 1.14838e-06 0)
(1.80635e-05 1.76892e-06 0)
(1.37806e-05 2.20836e-06 0)
(8.48021e-06 2.30777e-06 0)
(3.39948e-06 1.81054e-06 0)
(5.5907e-07 5.60409e-07 0)
(1.76998e-06 -3.90617e-06 0)
(5.29083e-06 -5.21704e-06 0)
(6.97684e-06 -2.73105e-06 0)
(3.86728e-06 1.68641e-06 0)
(-5.6034e-06 6.92873e-06 0)
(-2.20394e-05 1.23851e-05 0)
(-4.55401e-05 1.77171e-05 0)
(-7.59224e-05 2.27516e-05 0)
(-0.00011283 2.74098e-05 0)
(-0.000155809 3.16636e-05 0)
(-0.000204364 3.55096e-05 0)
(-0.000257987 3.89582e-05 0)
(-0.000316178 4.20288e-05 0)
(-0.00037846 4.47463e-05 0)
(-0.000444378 4.71375e-05 0)
(-0.000513511 4.92291e-05 0)
(-0.000585466 5.10475e-05 0)
(-0.000659883 5.26175e-05 0)
(-0.000736431 5.39624e-05 0)
(-0.000814812 5.51046e-05 0)
(-0.000894753 5.60645e-05 0)
(-0.000976008 5.68611e-05 0)
(-0.00105836 5.75119e-05 0)
(-0.0011416 5.80323e-05 0)
(-0.00122555 5.84367e-05 0)
(-0.00131006 5.87379e-05 0)
(-0.00139498 5.89476e-05 0)
(-0.00148019 5.90763e-05 0)
(-0.00156556 5.91329e-05 0)
(-0.001651 5.91255e-05 0)
(-0.00173643 5.90612e-05 0)
(-0.00182174 5.89463e-05 0)
(-0.00190688 5.87862e-05 0)
(-0.00199178 5.85854e-05 0)
(-0.00207638 5.83474e-05 0)
(-0.00216062 5.80754e-05 0)
(-0.00224445 5.77721e-05 0)
(-0.00232783 5.74396e-05 0)
(-0.00241071 5.70794e-05 0)
(-0.00249305 5.66923e-05 0)
(-0.00257482 5.62791e-05 0)
(-0.00265596 5.58401e-05 0)
(-0.00273644 5.53754e-05 0)
(-0.00281622 5.48847e-05 0)
(-0.00289526 5.43676e-05 0)
(-0.00297353 5.38233e-05 0)
(-0.00305097 5.32508e-05 0)
(-0.00312756 5.26493e-05 0)
(-0.00320323 5.20177e-05 0)
(-0.00327796 5.13546e-05 0)
(-0.00335169 5.06589e-05 0)
(-0.00342437 4.99289e-05 0)
(-0.00349595 4.91632e-05 0)
(-0.00356639 4.83605e-05 0)
(-0.00363562 4.75195e-05 0)
(-0.00370359 4.66387e-05 0)
(-0.00377023 4.57165e-05 0)
(-0.0038355 4.47512e-05 0)
(-0.00389933 4.37416e-05 0)
(-0.00396165 4.26863e-05 0)
(-0.00402239 4.15843e-05 0)
(-0.0040815 4.04343e-05 0)
(-0.0041389 3.9235e-05 0)
(-0.00419451 3.79851e-05 0)
(-0.00424827 3.66837e-05 0)
(-0.00430011 3.53298e-05 0)
(-0.00434994 3.39229e-05 0)
(-0.00439769 3.24622e-05 0)
(-0.00444329 3.0947e-05 0)
(-0.00448666 2.93768e-05 0)
(-0.00452771 2.77512e-05 0)
(-0.00456638 2.60704e-05 0)
(-0.00460258 2.43342e-05 0)
(-0.00463624 2.25428e-05 0)
(-0.00466727 2.06964e-05 0)
(-0.00469561 1.87954e-05 0)
(-0.00472117 1.68406e-05 0)
(-0.00474388 1.4833e-05 0)
(-0.00476366 1.27737e-05 0)
(-0.00478045 1.06641e-05 0)
(-0.00479418 8.50544e-06 0)
(-0.00480477 6.29943e-06 0)
(-0.00481216 4.04808e-06 0)
(-0.0048163 1.75371e-06 0)
(-0.00481711 -5.81211e-07 0)
(-0.00481456 -2.95411e-06 0)
(-0.00480857 -5.36222e-06 0)
(-0.00479912 -7.80247e-06 0)
(-0.00478615 -1.02714e-05 0)
(-0.00476964 -1.27655e-05 0)
(-0.00474954 -1.52807e-05 0)
(-0.00472583 -1.7813e-05 0)
(-0.00469849 -2.03585e-05 0)
(-0.0046675 -2.29126e-05 0)
(-0.00463286 -2.54708e-05 0)
(-0.00459457 -2.80281e-05 0)
(-0.00455263 -3.05792e-05 0)
(-0.00450705 -3.31193e-05 0)
(-0.00445785 -3.5643e-05 0)
(-0.00440506 -3.8145e-05 0)
(-0.00434871 -4.06196e-05 0)
(-0.00428885 -4.3061e-05 0)
(-0.00422553 -4.54633e-05 0)
(-0.00415881 -4.78208e-05 0)
(-0.00408875 -5.01278e-05 0)
(-0.00401543 -5.23783e-05 0)
(-0.00393894 -5.45661e-05 0)
(-0.00385936 -5.66853e-05 0)
(-0.0037768 -5.873e-05 0)
(-0.00369137 -6.06943e-05 0)
(-0.00360318 -6.25725e-05 0)
(-0.00351235 -6.43589e-05 0)
(-0.00341904 -6.60475e-05 0)
(-0.00332336 -6.76327e-05 0)
(-0.00322548 -6.9109e-05 0)
(-0.00312555 -7.04712e-05 0)
(-0.00302374 -7.1714e-05 0)
(-0.00292021 -7.28323e-05 0)
(-0.00281515 -7.3821e-05 0)
(-0.00270875 -7.46754e-05 0)
(-0.00260119 -7.53908e-05 0)
(-0.00249268 -7.59627e-05 0)
(-0.00238343 -7.63868e-05 0)
(-0.00227364 -7.66588e-05 0)
(-0.00216353 -7.6775e-05 0)
(-0.00205334 -7.67313e-05 0)
(-0.00194328 -7.65241e-05 0)
(-0.00183359 -7.61495e-05 0)
(-0.00172452 -7.56041e-05 0)
(-0.00161631 -7.48847e-05 0)
(-0.00150921 -7.39881e-05 0)
(-0.00140347 -7.29112e-05 0)
(-0.00129936 -7.1651e-05 0)
(-0.00119713 -7.02043e-05 0)
(-0.00109705 -6.85685e-05 0)
(-0.000999407 -6.6741e-05 0)
(-0.00090446 -6.47192e-05 0)
(-0.000812493 -6.25005e-05 0)
(-0.000723786 -6.00827e-05 0)
(-0.000638623 -5.74636e-05 0)
(-0.00055729 -5.46417e-05 0)
(-0.000480073 -5.16158e-05 0)
(-0.000407259 -4.83853e-05 0)
(-0.000339131 -4.49505e-05 0)
(-0.000275972 -4.1313e-05 0)
(-0.000218054 -3.74765e-05 0)
(-0.000165643 -3.34473e-05 0)
(-0.000118985 -2.92357e-05 0)
(-7.83052e-05 -2.48575e-05 0)
(-4.37948e-05 -2.03365e-05 0)
(-1.55969e-05 -1.57084e-05 0)
(6.21313e-06 -1.10257e-05 0)
(2.16562e-05 -6.36745e-06 0)
(3.08895e-05 -1.85209e-06 0)
(3.42638e-05 2.34067e-06 0)
(3.24018e-05 5.93856e-06 0)
(2.6284e-05 8.53279e-06 0)
(1.73689e-05 9.51338e-06 0)
(8.01644e-06 8.03314e-06 0)
(1.80196e-06 3.39572e-06 0)
(1.38027e-06 -6.69314e-06 0)
(2.7709e-06 -6.94008e-06 0)
(-3.93079e-07 4.27676e-07 0)
(-1.1143e-05 1.19271e-05 0)
(-3.12196e-05 2.54384e-05 0)
(-6.14397e-05 3.96434e-05 0)
(-0.000102016 5.37328e-05 0)
(-0.000152776 6.72361e-05 0)
(-0.000213292 7.98959e-05 0)
(-0.000282985 9.15853e-05 0)
(-0.000361187 0.000102257 0)
(-0.000447194 0.000111911 0)
(-0.000540295 0.000120579 0)
(-0.000639795 0.000128308 0)
(-0.000745026 0.000135157 0)
(-0.000855357 0.000141187 0)
(-0.000970194 0.000146463 0)
(-0.00108899 0.000151047 0)
(-0.00121123 0.000155001 0)
(-0.00133645 0.000158383 0)
(-0.00146424 0.000161246 0)
(-0.00159419 0.000163641 0)
(-0.00172596 0.000165616 0)
(-0.00185923 0.000167213 0)
(-0.00199371 0.000168472 0)
(-0.00212914 0.000169429 0)
(-0.0022653 0.000170116 0)
(-0.00240197 0.000170563 0)
(-0.00253897 0.000170795 0)
(-0.00267613 0.000170835 0)
(-0.0028133 0.000170704 0)
(-0.00295034 0.000170419 0)
(-0.00308713 0.000169996 0)
(-0.00322355 0.000169449 0)
(-0.00335952 0.000168788 0)
(-0.00349493 0.000168023 0)
(-0.0036297 0.000167161 0)
(-0.00376375 0.000166209 0)
(-0.00389701 0.000165171 0)
(-0.0040294 0.000164051 0)
(-0.00416085 0.000162851 0)
(-0.0042913 0.000161573 0)
(-0.00442068 0.000160216 0)
(-0.00454893 0.000158781 0)
(-0.00467597 0.000157266 0)
(-0.00480174 0.00015567 0)
(-0.00492618 0.000153991 0)
(-0.00504922 0.000152226 0)
(-0.00517077 0.000150372 0)
(-0.00529077 0.000148426 0)
(-0.00540915 0.000146384 0)
(-0.00552581 0.000144243 0)
(-0.00564069 0.000141998 0)
(-0.00575369 0.000139647 0)
(-0.00586474 0.000137184 0)
(-0.00597373 0.000134607 0)
(-0.00608057 0.000131911 0)
(-0.00618517 0.000129091 0)
(-0.00628743 0.000126145 0)
(-0.00638725 0.000123068 0)
(-0.00648452 0.000119858 0)
(-0.00657913 0.00011651 0)
(-0.00667098 0.000113021 0)
(-0.00675994 0.000109389 0)
(-0.00684591 0.00010561 0)
(-0.00692878 0.000101683 0)
(-0.00700841 9.76043e-05 0)
(-0.0070847 9.3373e-05 0)
(-0.00715752 8.89873e-05 0)
(-0.00722675 8.4446e-05 0)
(-0.00729227 7.97483e-05 0)
(-0.00735395 7.48939e-05 0)
(-0.00741167 6.9883e-05 0)
(-0.00746531 6.47161e-05 0)
(-0.00751475 5.93941e-05 0)
(-0.00755987 5.39185e-05 0)
(-0.00760054 4.82915e-05 0)
(-0.00763665 4.25156e-05 0)
(-0.00766809 3.65941e-05 0)
(-0.00769475 3.05309e-05 0)
(-0.00771651 2.433e-05 0)
(-0.00773327 1.79964e-05 0)
(-0.00774492 1.15359e-05 0)
(-0.00775138 4.95461e-06 0)
(-0.00775256 -1.74046e-06 0)
(-0.00774836 -8.54178e-06 0)
(-0.0077387 -1.54413e-05 0)
(-0.00772353 -2.24302e-05 0)
(-0.00770276 -2.94991e-05 0)
(-0.00767634 -3.66377e-05 0)
(-0.00764423 -4.38352e-05 0)
(-0.00760638 -5.10803e-05 0)
(-0.00756276 -5.83612e-05 0)
(-0.00751335 -6.56654e-05 0)
(-0.00745814 -7.29799e-05 0)
(-0.00739712 -8.02908e-05 0)
(-0.00733031 -8.75842e-05 0)
(-0.00725772 -9.48454e-05 0)
(-0.00717938 -0.00010206 0)
(-0.00709535 -0.000109212 0)
(-0.00700567 -0.000116286 0)
(-0.00691041 -0.000123266 0)
(-0.00680966 -0.000130135 0)
(-0.0067035 -0.000136878 0)
(-0.00659205 -0.000143478 0)
(-0.00647541 -0.000149918 0)
(-0.00635374 -0.000156181 0)
(-0.00622716 -0.000162251 0)
(-0.00609583 -0.00016811 0)
(-0.00595994 -0.000173742 0)
(-0.00581965 -0.000179131 0)
(-0.00567518 -0.000184261 0)
(-0.00552673 -0.000189114 0)
(-0.00537451 -0.000193676 0)
(-0.00521878 -0.00019793 0)
(-0.00505976 -0.000201862 0)
(-0.00489773 -0.000205456 0)
(-0.00473295 -0.000208697 0)
(-0.0045657 -0.000211572 0)
(-0.00439629 -0.000214067 0)
(-0.004225 -0.000216167 0)
(-0.00405216 -0.000217862 0)
(-0.00387809 -0.000219136 0)
(-0.00370313 -0.000219979 0)
(-0.00352761 -0.00022038 0)
(-0.0033519 -0.000220325 0)
(-0.00317636 -0.000219805 0)
(-0.00300135 -0.000218809 0)
(-0.00282726 -0.000217327 0)
(-0.00265447 -0.000215349 0)
(-0.00248339 -0.000212866 0)
(-0.0023144 -0.000209868 0)
(-0.00214793 -0.000206347 0)
(-0.00198439 -0.000202295 0)
(-0.0018242 -0.000197704 0)
(-0.00166779 -0.000192565 0)
(-0.0015156 -0.000186873 0)
(-0.00136806 -0.000180621 0)
(-0.00122561 -0.000173804 0)
(-0.0010887 -0.000166417 0)
(-0.000957786 -0.000158457 0)
(-0.0008333 -0.000149923 0)
(-0.000715691 -0.000140817 0)
(-0.000605397 -0.000131144 0)
(-0.000502847 -0.000120914 0)
(-0.000408453 -0.000110143 0)
(-0.000322609 -9.88569e-05 0)
(-0.000245677 -8.7094e-05 0)
(-0.000177973 -7.49098e-05 0)
(-0.000119757 -6.23842e-05 0)
(-7.12067e-05 -4.9631e-05 0)
(-3.23868e-05 -3.68117e-05 0)
(-3.21329e-06 -2.41553e-05 0)
(1.66003e-05 -1.1987e-05 0)
(2.76117e-05 -7.68721e-07 0)
(3.07371e-05 8.84663e-06 0)
(2.73294e-05 1.59516e-05 0)
(1.92738e-05 1.93155e-05 0)
(9.46433e-06 1.73708e-05 0)
(2.28591e-06 8.45095e-06 0)
(5.64875e-07 -7.62747e-06 0)
(-1.66664e-06 -3.84963e-06 0)
(-1.19585e-05 1.11785e-05 0)
(-3.2671e-05 3.25817e-05 0)
(-6.53554e-05 5.72771e-05 0)
(-0.000110848 8.32264e-05 0)
(-0.000169387 0.000109104 0)
(-0.000240787 0.000134085 0)
(-0.000324576 0.000157679 0)
(-0.00042009 0.000179618 0)
(-0.000526554 0.000199776 0)
(-0.000643131 0.000218122 0)
(-0.00076896 0.000234686 0)
(-0.000903189 0.000249534 0)
(-0.00104498 0.000262756 0)
(-0.00119355 0.000274453 0)
(-0.00134814 0.000284735 0)
(-0.00150804 0.000293711 0)
(-0.00167259 0.000301488 0)
(-0.0018412 0.00030817 0)
(-0.0020133 0.000313857 0)
(-0.00218838 0.000318641 0)
(-0.00236597 0.00032261 0)
(-0.00254565 0.000325843 0)
(-0.00272703 0.000328415 0)
(-0.00290977 0.000330394 0)
(-0.00309355 0.00033184 0)
(-0.00327809 0.00033281 0)
(-0.00346312 0.000333352 0)
(-0.00364842 0.000333512 0)
(-0.00383378 0.000333328 0)
(-0.00401901 0.000332836 0)
(-0.00420394 0.000332065 0)
(-0.00438841 0.000331041 0)
(-0.00457228 0.000329786 0)
(-0.00475543 0.000328319 0)
(-0.00493772 0.000326656 0)
(-0.00511905 0.000324808 0)
(-0.0052993 0.000322785 0)
(-0.00547839 0.000320595 0)
(-0.0056562 0.000318242 0)
(-0.00583265 0.00031573 0)
(-0.00600764 0.00031306 0)
(-0.00618108 0.000310233 0)
(-0.00635287 0.000307245 0)
(-0.00652293 0.000304095 0)
(-0.00669116 0.00030078 0)
(-0.00685746 0.000297293 0)
(-0.00702173 0.000293631 0)
(-0.00718387 0.000289787 0)
(-0.00734378 0.000285754 0)
(-0.00750135 0.000281527 0)
(-0.00765647 0.000277098 0)
(-0.00780902 0.000272459 0)
(-0.00795888 0.000267603 0)
(-0.00810594 0.000262524 0)
(-0.00825006 0.000257212 0)
(-0.00839113 0.000251662 0)
(-0.00852899 0.000245866 0)
(-0.00866352 0.000239818 0)
(-0.00879458 0.000233509 0)
(-0.00892202 0.000226935 0)
(-0.00904569 0.000220089 0)
(-0.00916545 0.000212966 0)
(-0.00928114 0.00020556 0)
(-0.00939261 0.000197867 0)
(-0.00949969 0.000189883 0)
(-0.00960224 0.000181605 0)
(-0.00970009 0.000173029 0)
(-0.00979308 0.000164154 0)
(-0.00988105 0.000154979 0)
(-0.00996382 0.000145503 0)
(-0.0100413 0.000135726 0)
(-0.0101132 0.000125649 0)
(-0.0101794 0.000115275 0)
(-0.0102398 0.000104607 0)
(-0.0102943 9.36492e-05 0)
(-0.0103426 8.24061e-05 0)
(-0.0103846 7.08844e-05 0)
(-0.0104201 5.90913e-05 0)
(-0.0104491 4.70354e-05 0)
(-0.0104713 3.47263e-05 0)
(-0.0104867 2.2175e-05 0)
(-0.0104952 9.3934e-06 0)
(-0.0104965 -3.60508e-06 0)
(-0.0104906 -1.68059e-05 0)
(-0.0104774 -3.01934e-05 0)
(-0.0104568 -4.37506e-05 0)
(-0.0104287 -5.74592e-05 0)
(-0.010393 -7.12998e-05 0)
(-0.0103497 -8.52517e-05 0)
(-0.0102987 -9.92933e-05 0)
(-0.01024 -0.000113402 0)
(-0.0101735 -0.000127553 0)
(-0.0100993 -0.000141722 0)
(-0.0100173 -0.000155882 0)
(-0.00992757 -0.000170007 0)
(-0.0098301 -0.00018407 0)
(-0.00972495 -0.00019804 0)
(-0.00961217 -0.00021189 0)
(-0.00949185 -0.000225589 0)
(-0.00936408 -0.000239106 0)
(-0.00922895 -0.000252411 0)
(-0.0090866 -0.000265471 0)
(-0.00893716 -0.000278256 0)
(-0.0087808 -0.000290733 0)
(-0.00861769 -0.000302871 0)
(-0.00844802 -0.000314637 0)
(-0.00827201 -0.000325999 0)
(-0.00808987 -0.000336925 0)
(-0.00790185 -0.000347383 0)
(-0.00770822 -0.000357343 0)
(-0.00750926 -0.000366773 0)
(-0.00730525 -0.000375642 0)
(-0.0070965 -0.000383921 0)
(-0.00688336 -0.00039158 0)
(-0.00666615 -0.00039859 0)
(-0.00644524 -0.000404922 0)
(-0.006221 -0.00041055 0)
(-0.00599382 -0.000415446 0)
(-0.0057641 -0.000419585 0)
(-0.00553226 -0.00042294 0)
(-0.00529873 -0.000425489 0)
(-0.00506396 -0.000427206 0)
(-0.0048284 -0.00042807 0)
(-0.00459253 -0.000428057 0)
(-0.00435682 -0.000427146 0)
(-0.00412176 -0.000425318 0)
(-0.00388787 -0.000422551 0)
(-0.00365565 -0.000418827 0)
(-0.00342563 -0.000414128 0)
(-0.00319836 -0.000408435 0)
(-0.00297437 -0.000401733 0)
(-0.00275421 -0.000394004 0)
(-0.00253845 -0.000385236 0)
(-0.00232766 -0.000375412 0)
(-0.00212241 -0.000364522 0)
(-0.00192329 -0.000352554 0)
(-0.00173087 -0.000339499 0)
(-0.00154574 -0.000325351 0)
(-0.00136849 -0.000310108 0)
(-0.00119971 -0.000293771 0)
(-0.00103997 -0.000276347 0)
(-0.000889833 -0.000257852 0)
(-0.000749856 -0.000238311 0)
(-0.000620564 -0.000217766 0)
(-0.000502449 -0.000196274 0)
(-0.000395958 -0.00017392 0)
(-0.000301475 -0.000150822 0)
(-0.000219301 -0.000127145 0)
(-0.000149627 -0.000103118 0)
(-9.24979e-05 -7.90541e-05 0)
(-4.77699e-05 -5.53845e-05 0)
(-1.50565e-05 -3.26991e-05 0)
(6.34171e-06 -1.18021e-05 0)
(1.75188e-05 6.2183e-06 0)
(2.00313e-05 1.99082e-05 0)
(1.5982e-05 2.73793e-05 0)
(8.48427e-06 2.6272e-05 0)
(2.1755e-06 1.37066e-05 0)
(-4.0816e-07 -5.85644e-06 0)
(-6.97005e-06 5.67207e-06 0)
(-2.56654e-05 3.13607e-05 0)
(-5.77525e-05 6.53229e-05 0)
(-0.000104328 0.0001037 0)
(-0.000166094 0.000143818 0)
(-0.00024321 0.000183869 0)
(-0.000335429 0.000222675 0)
(-0.00044222 0.0002595 0)
(-0.000562854 0.00029391 0)
(-0.000696473 0.000325682 0)
(-0.000842145 0.000354736 0)
(-0.000998901 0.000381085 0)
(-0.00116577 0.000404806 0)
(-0.0013418 0.000426017 0)
(-0.00152607 0.000444859 0)
(-0.00171769 0.000461484 0)
(-0.00191583 0.000476054 0)
(-0.00211973 0.000488728 0)
(-0.00232864 0.000499662 0)
(-0.00254191 0.000509006 0)
(-0.00275891 0.000516903 0)
(-0.00297907 0.000523486 0)
(-0.00320189 0.00052888 0)
(-0.00342687 0.000533202 0)
(-0.0036536 0.000536556 0)
(-0.00388168 0.000539041 0)
(-0.00411075 0.000540742 0)
(-0.00434051 0.000541741 0)
(-0.00457064 0.000542107 0)
(-0.0048009 0.000541904 0)
(-0.00503104 0.000541187 0)
(-0.00526084 0.000540005 0)
(-0.00549011 0.0005384 0)
(-0.00571866 0.000536407 0)
(-0.00594632 0.000534058 0)
(-0.00617294 0.000531378 0)
(-0.00639837 0.000528387 0)
(-0.00662246 0.000525102 0)
(-0.00684511 0.000521536 0)
(-0.00706616 0.000517696 0)
(-0.00728551 0.000513589 0)
(-0.00750302 0.000509218 0)
(-0.00771859 0.000504582 0)
(-0.0079321 0.000499682 0)
(-0.00814342 0.000494512 0)
(-0.00835243 0.000489067 0)
(-0.00855901 0.000483341 0)
(-0.00876305 0.000477325 0)
(-0.0089644 0.000471011 0)
(-0.00916294 0.000464388 0)
(-0.00935853 0.000457447 0)
(-0.00955103 0.000450177 0)
(-0.00974031 0.000442565 0)
(-0.00992621 0.000434602 0)
(-0.0101086 0.000426274 0)
(-0.0102873 0.000417571 0)
(-0.0104621 0.000408482 0)
(-0.0106329 0.000398995 0)
(-0.0107996 0.000389099 0)
(-0.0109619 0.000378785 0)
(-0.0111197 0.000368042 0)
(-0.0112727 0.00035686 0)
(-0.0114209 0.000345232 0)
(-0.011564 0.00033315 0)
(-0.0117018 0.000320606 0)
(-0.0118341 0.000307594 0)
(-0.0119608 0.000294109 0)
(-0.0120817 0.000280148 0)
(-0.0121965 0.000265706 0)
(-0.012305 0.000250782 0)
(-0.0124071 0.000235376 0)
(-0.0125025 0.000219489 0)
(-0.0125911 0.000203122 0)
(-0.0126727 0.000186279 0)
(-0.012747 0.000168967 0)
(-0.0128139 0.00015119 0)
(-0.0128732 0.000132958 0)
(-0.0129247 0.000114282 0)
(-0.0129683 9.5173e-05 0)
(-0.0130037 7.56448e-05 0)
(-0.0130308 5.57133e-05 0)
(-0.0130494 3.53961e-05 0)
(-0.0130594 1.47127e-05 0)
(-0.0130606 -6.31538e-06 0)
(-0.0130529 -2.76649e-05 0)
(-0.0130362 -4.93105e-05 0)
(-0.0130104 -7.12248e-05 0)
(-0.0129753 -9.33786e-05 0)
(-0.0129309 -0.000115741 0)
(-0.0128771 -0.000138278 0)
(-0.0128138 -0.000160956 0)
(-0.012741 -0.000183738 0)
(-0.0126587 -0.000206585 0)
(-0.0125668 -0.000229457 0)
(-0.0124654 -0.000252314 0)
(-0.0123544 -0.000275111 0)
(-0.0122339 -0.000297804 0)
(-0.012104 -0.000320349 0)
(-0.0119647 -0.000342697 0)
(-0.0118161 -0.000364801 0)
(-0.0116583 -0.000386612 0)
(-0.0114915 -0.000408081 0)
(-0.0113158 -0.000429157 0)
(-0.0111315 -0.00044979 0)
(-0.0109385 -0.000469929 0)
(-0.0107373 -0.000489523 0)
(-0.0105281 -0.00050852 0)
(-0.010311 -0.000526869 0)
(-0.0100864 -0.00054452 0)
(-0.00985453 -0.000561421 0)
(-0.00961577 -0.000577522 0)
(-0.00937043 -0.000592773 0)
(-0.00911889 -0.000607126 0)
(-0.0088615 -0.000620532 0)
(-0.00859868 -0.000632944 0)
(-0.00833085 -0.000644315 0)
(-0.00805843 -0.0006546 0)
(-0.0077819 -0.000663755 0)
(-0.00750171 -0.000671736 0)
(-0.00721837 -0.000678501 0)
(-0.00693239 -0.00068401 0)
(-0.00664428 -0.000688223 0)
(-0.0063546 -0.000691102 0)
(-0.00606389 -0.000692609 0)
(-0.00577275 -0.000692708 0)
(-0.00548174 -0.000691365 0)
(-0.00519148 -0.000688546 0)
(-0.00490259 -0.000684219 0)
(-0.00461569 -0.000678354 0)
(-0.00433142 -0.00067092 0)
(-0.00405044 -0.00066189 0)
(-0.00377341 -0.000651236 0)
(-0.00350101 -0.000638935 0)
(-0.00323393 -0.000624962 0)
(-0.00297285 -0.000609296 0)
(-0.00271847 -0.000591919 0)
(-0.00247151 -0.000572816 0)
(-0.00223266 -0.000551974 0)
(-0.00200264 -0.000529388 0)
(-0.00178216 -0.000505056 0)
(-0.0015719 -0.000478987 0)
(-0.00137258 -0.000451199 0)
(-0.00118485 -0.000421725 0)
(-0.00100937 -0.000390614 0)
(-0.000846759 -0.000357942 0)
(-0.000697581 -0.000323813 0)
(-0.000562351 -0.000288374 0)
(-0.000441498 -0.000251827 0)
(-0.000335352 -0.000214446 0)
(-0.000244108 -0.0001766 0)
(-0.000167794 -0.000138783 0)
(-0.000106225 -0.00010166 0)
(-5.89488e-05 -6.6112e-05 0)
(-2.51873e-05 -3.33053e-05 0)
(-3.76192e-06 -4.77321e-06 0)
(6.96823e-06 1.74916e-05 0)
(9.18325e-06 3.0955e-05 0)
(5.97307e-06 3.24633e-05 0)
(1.73745e-06 1.79539e-05 0)
(-1.39821e-06 -1.16777e-06 0)
(-1.25546e-05 2.23026e-05 0)
(-4.02563e-05 6.19129e-05 0)
(-8.4446e-05 0.000111158 0)
(-0.000145612 0.000165619 0)
(-0.000224209 0.000222124 0)
(-0.000320225 0.000278452 0)
(-0.000433291 0.000333107 0)
(-0.000562791 0.000385117 0)
(-0.000707922 0.000433884 0)
(-0.000867752 0.00047908 0)
(-0.00104127 0.000520563 0)
(-0.00122743 0.000558324 0)
(-0.00142516 0.000592442 0)
(-0.00163342 0.000623057 0)
(-0.00185118 0.000650346 0)
(-0.00207747 0.000674509 0)
(-0.00231135 0.000695755 0)
(-0.00255195 0.0007143 0)
(-0.00279845 0.000730354 0)
(-0.00305006 0.000744124 0)
(-0.0033061 0.000755806 0)
(-0.0035659 0.000765586 0)
(-0.00382887 0.000773639 0)
(-0.00409444 0.000780126 0)
(-0.00436213 0.000785199 0)
(-0.00463146 0.000788994 0)
(-0.00490203 0.000791637 0)
(-0.00517344 0.00079324 0)
(-0.00544536 0.000793905 0)
(-0.00571746 0.000793724 0)
(-0.00598947 0.000792776 0)
(-0.00626111 0.000791132 0)
(-0.00653215 0.000788853 0)
(-0.00680236 0.000785993 0)
(-0.00707154 0.000782595 0)
(-0.0073395 0.000778698 0)
(-0.00760606 0.000774332 0)
(-0.00787106 0.000769523 0)
(-0.00813432 0.000764288 0)
(-0.0083957 0.000758641 0)
(-0.00865504 0.000752592 0)
(-0.00891221 0.000746146 0)
(-0.00916704 0.000739305 0)
(-0.00941941 0.000732066 0)
(-0.00966917 0.000724425 0)
(-0.00991616 0.000716376 0)
(-0.0101603 0.000707908 0)
(-0.0104013 0.000699012 0)
(-0.0106391 0.000689675 0)
(-0.0108736 0.000679883 0)
(-0.0111045 0.000669623 0)
(-0.0113317 0.000658878 0)
(-0.0115551 0.000647633 0)
(-0.0117744 0.000635873 0)
(-0.0119896 0.00062358 0)
(-0.0122003 0.000610739 0)
(-0.0124064 0.000597334 0)
(-0.0126077 0.000583348 0)
(-0.0128041 0.000568768 0)
(-0.0129953 0.000553578 0)
(-0.0131811 0.000537765 0)
(-0.0133613 0.000521315 0)
(-0.0135356 0.000504217 0)
(-0.0137039 0.000486459 0)
(-0.013866 0.000468031 0)
(-0.0140216 0.000448926 0)
(-0.0141705 0.000429136 0)
(-0.0143124 0.000408655 0)
(-0.0144472 0.00038748 0)
(-0.0145745 0.000365608 0)
(-0.0146943 0.000343039 0)
(-0.0148062 0.000319774 0)
(-0.01491 0.000295817 0)
(-0.0150055 0.000271174 0)
(-0.0150924 0.000245852 0)
(-0.0151706 0.000219862 0)
(-0.0152398 0.000193217 0)
(-0.0152999 0.000165931 0)
(-0.0153505 0.000138022 0)
(-0.0153916 0.000109511 0)
(-0.0154229 8.042e-05 0)
(-0.0154442 5.07753e-05 0)
(-0.0154554 2.06051e-05 0)
(-0.0154562 -1.00594e-05 0)
(-0.0154466 -4.11841e-05 0)
(-0.0154264 -7.27325e-05 0)
(-0.0153955 -0.000104665 0)
(-0.0153538 -0.000136939 0)
(-0.0153011 -0.000169509 0)
(-0.0152373 -0.000202328 0)
(-0.0151625 -0.000235345 0)
(-0.0150765 -0.000268508 0)
(-0.0149794 -0.000301761 0)
(-0.014871 -0.000335045 0)
(-0.0147514 -0.000368302 0)
(-0.0146207 -0.000401469 0)
(-0.0144788 -0.000434482 0)
(-0.0143259 -0.000467275 0)
(-0.014162 -0.000499781 0)
(-0.0139873 -0.000531931 0)
(-0.0138018 -0.000563654 0)
(-0.0136057 -0.000594879 0)
(-0.0133992 -0.000625534 0)
(-0.0131826 -0.000655546 0)
(-0.012956 -0.000684842 0)
(-0.0127196 -0.000713346 0)
(-0.0124739 -0.000740987 0)
(-0.012219 -0.000767689 0)
(-0.0119552 -0.00079338 0)
(-0.011683 -0.000817985 0)
(-0.0114028 -0.000841433 0)
(-0.0111148 -0.000863652 0)
(-0.0108195 -0.000884571 0)
(-0.0105174 -0.00090412 0)
(-0.0102089 -0.00092223 0)
(-0.00989454 -0.000938835 0)
(-0.0095748 -0.000953869 0)
(-0.0092502 -0.000967267 0)
(-0.00892131 -0.000978967 0)
(-0.0085887 -0.000988908 0)
(-0.00825296 -0.00099703 0)
(-0.00791471 -0.00100328 0)
(-0.00757456 -0.00100759 0)
(-0.00723318 -0.00100992 0)
(-0.00689122 -0.0010102 0)
(-0.00654939 -0.0010084 0)
(-0.00620836 -0.00100447 0)
(-0.00586887 -0.000998345 0)
(-0.00553164 -0.000989994 0)
(-0.00519741 -0.000979372 0)
(-0.00486696 -0.000966438 0)
(-0.00454104 -0.000951154 0)
(-0.00422044 -0.000933485 0)
(-0.00390596 -0.000913398 0)
(-0.0035984 -0.000890864 0)
(-0.00329856 -0.000865859 0)
(-0.00300726 -0.000838363 0)
(-0.0027253 -0.000808364 0)
(-0.00245352 -0.000775856 0)
(-0.00219271 -0.000740845 0)
(-0.00194368 -0.000703348 0)
(-0.0017072 -0.0006634 0)
(-0.00148405 -0.000621058 0)
(-0.00127495 -0.000576404 0)
(-0.0010806 -0.000529558 0)
(-0.000901611 -0.000480683 0)
(-0.000738558 -0.000430005 0)
(-0.000591905 -0.000377822 0)
(-0.000462001 -0.000324537 0)
(-0.000349048 -0.000270677 0)
(-0.000253064 -0.000216938 0)
(-0.000173843 -0.000164228 0)
(-0.000110908 -0.000113732 0)
(-6.34539e-05 -6.69791e-05 0)
(-3.0291e-05 -2.59338e-05 0)
(-9.78467e-06 6.89982e-06 0)
(2.13083e-07 2.83829e-05 0)
(2.58289e-06 3.46312e-05 0)
(1.1389e-06 2.05841e-05 0)
(-2.3428e-06 6.44259e-06 0)
(-1.81011e-05 4.62443e-05 0)
(-5.49629e-05 0.000103211 0)
(-0.000111501 0.000170537 0)
(-0.000187511 0.000243451 0)
(-0.000283124 0.000318432 0)
(-0.000398087 0.000392947 0)
(-0.00053186 0.000465235 0)
(-0.000683702 0.000534121 0)
(-0.000852718 0.000598859 0)
(-0.0010379 0.000659017 0)
(-0.00123816 0.000714394 0)
(-0.00145238 0.000764954 0)
(-0.00167942 0.000810774 0)
(-0.00191816 0.000852014 0)
(-0.0021675 0.000888884 0)
(-0.00242637 0.000921627 0)
(-0.00269377 0.000950504 0)
(-0.00296873 0.000975784 0)
(-0.00325036 0.000997737 0)
(-0.0035378 0.00101663 0)
(-0.00383028 0.0010327 0)
(-0.00412706 0.00104621 0)
(-0.00442748 0.00105738 0)
(-0.0047309 0.00106642 0)
(-0.00503678 0.00107353 0)
(-0.00534457 0.0010789 0)
(-0.00565382 0.00108268 0)
(-0.00596408 0.00108503 0)
(-0.00627495 0.00108609 0)
(-0.00658608 0.00108597 0)
(-0.00689713 0.00108479 0)
(-0.00720779 0.00108264 0)
(-0.00751779 0.00107961 0)
(-0.00782686 0.00107576 0)
(-0.00813478 0.00107116 0)
(-0.0084413 0.00106586 0)
(-0.00874623 0.0010599 0)
(-0.00904936 0.00105332 0)
(-0.0093505 0.00104614 0)
(-0.00964948 0.00103838 0)
(-0.00994612 0.00103006 0)
(-0.0102402 0.00102118 0)
(-0.0105317 0.00101175 0)
(-0.0108203 0.00100177 0)
(-0.0111058 0.000991224 0)
(-0.0113882 0.000980113 0)
(-0.0116672 0.000968424 0)
(-0.0119426 0.000956142 0)
(-0.0122144 0.000943252 0)
(-0.0124822 0.000929736 0)
(-0.012746 0.000915575 0)
(-0.0130055 0.00090075 0)
(-0.0132605 0.00088524 0)
(-0.0135109 0.000869023 0)
(-0.0137563 0.00085208 0)
(-0.0139968 0.000834387 0)
(-0.0142319 0.000815926 0)
(-0.0144615 0.000796674 0)
(-0.0146853 0.000776612 0)
(-0.0149032 0.000755721 0)
(-0.0151148 0.000733983 0)
(-0.01532 0.00071138 0)
(-0.0155186 0.000687897 0)
(-0.0157101 0.000663519 0)
(-0.0158945 0.000638233 0)
(-0.0160715 0.000612029 0)
(-0.0162407 0.000584898 0)
(-0.016402 0.000556832 0)
(-0.0165551 0.000527827 0)
(-0.0166997 0.000497879 0)
(-0.0168356 0.00046699 0)
(-0.0169624 0.000435161 0)
(-0.0170801 0.000402398 0)
(-0.0171882 0.000368709 0)
(-0.0172866 0.000334105 0)
(-0.017375 0.000298601 0)
(-0.0174531 0.000262213 0)
(-0.0175208 0.000224963 0)