/*--------------------------------*- C++ -*----------------------------------*\
  =========                 |
  \\      /  F ield         | OpenFOAM: The Open Source CFD Toolbox
   \\    /   O peration     | Website:  https://openfoam.org
    \\  /    A nd           | Version:  7
     \\/     M anipulation  |
\*---------------------------------------------------------------------------*/
FoamFile
{
    version     2.0;
    format      ascii;
    class       volVectorField;
    location    "0.025";
    object      U;
}
// * * * * * * * * * * * * * * * * * * * * * * * * * * * * * * * * * * * * * //

dimensions      [0 1 -1 0 0 0 0];

internalField   nonuniform List<vector> 
25600
(
(-2.78494e-07 -3.48513e-06 0)
(4.32356e-06 -3.71592e-06 0)
(3.77338e-06 -5.47838e-07 0)
(1.35263e-07 1.39242e-06 0)
(-9.07321e-06 2.97822e-06 0)
(-2.17934e-05 4.18387e-06 0)
(-3.74585e-05 5.08651e-06 0)
(-5.54685e-05 5.76277e-06 0)
(-7.52787e-05 6.2598e-06 0)
(-9.64227e-05 6.61166e-06 0)
(-0.000118524 6.85065e-06 0)
(-0.000141289 7.00355e-06 0)
(-0.000164485 7.0889e-06 0)
(-0.000187929 7.12217e-06 0)
(-0.000211492 7.12193e-06 0)
(-0.000235079 7.10535e-06 0)
(-0.000258624 7.08004e-06 0)
(-0.00028208 7.04413e-06 0)
(-0.000305412 6.99561e-06 0)
(-0.000328595 6.93875e-06 0)
(-0.000351614 6.88065e-06 0)
(-0.000374458 6.82514e-06 0)
(-0.000397119 6.77088e-06 0)
(-0.000419588 6.71403e-06 0)
(-0.000441857 6.65229e-06 0)
(-0.000463918 6.58662e-06 0)
(-0.000485765 6.5195e-06 0)
(-0.000507391 6.45237e-06 0)
(-0.000528789 6.38458e-06 0)
(-0.00054995 6.31442e-06 0)
(-0.000570867 6.24078e-06 0)
(-0.000591531 6.16381e-06 0)
(-0.000611936 6.08437e-06 0)
(-0.000632071 6.00306e-06 0)
(-0.000651931 5.91987e-06 0)
(-0.000671506 5.83429e-06 0)
(-0.000690788 5.74597e-06 0)
(-0.000709769 5.65501e-06 0)
(-0.000728442 5.56163e-06 0)
(-0.000746799 5.46599e-06 0)
(-0.000764832 5.3683e-06 0)
(-0.000782534 5.2686e-06 0)
(-0.000799898 5.16674e-06 0)
(-0.000816916 5.06263e-06 0)
(-0.000833581 4.95639e-06 0)
(-0.000849887 4.84811e-06 0)
(-0.000865826 4.73791e-06 0)
(-0.000881392 4.62579e-06 0)
(-0.000896578 4.5117e-06 0)
(-0.000911379 4.39562e-06 0)
(-0.000925788 4.27766e-06 0)
(-0.000939798 4.15797e-06 0)
(-0.000953404 4.03654e-06 0)
(-0.000966601 3.91336e-06 0)
(-0.000979382 3.78846e-06 0)
(-0.000991742 3.6619e-06 0)
(-0.00100368 3.53375e-06 0)
(-0.00101518 3.40408e-06 0)
(-0.00102624 3.27291e-06 0)
(-0.00103687 3.14025e-06 0)
(-0.00104705 3.00613e-06 0)
(-0.00105678 2.87066e-06 0)
(-0.00106605 2.73394e-06 0)
(-0.00107487 2.59599e-06 0)
(-0.00108322 2.45677e-06 0)
(-0.0010911 2.3163e-06 0)
(-0.00109852 2.17471e-06 0)
(-0.00110546 2.03214e-06 0)
(-0.00111192 1.88863e-06 0)
(-0.0011179 1.74417e-06 0)
(-0.0011234 1.5988e-06 0)
(-0.00112841 1.45256e-06 0)
(-0.00113294 1.30551e-06 0)
(-0.00113697 1.15769e-06 0)
(-0.00114051 1.00917e-06 0)
(-0.00114356 8.59992e-07 0)
(-0.0011461 7.10208e-07 0)
(-0.00114815 5.59857e-07 0)
(-0.00114969 4.08991e-07 0)
(-0.00115074 2.57698e-07 0)
(-0.00115128 1.0609e-07 0)
(-0.00115132 -4.57612e-08 0)
(-0.00115085 -1.97822e-07 0)
(-0.00114987 -3.50042e-07 0)
(-0.00114839 -5.02373e-07 0)
(-0.00114641 -6.54751e-07 0)
(-0.00114392 -8.07077e-07 0)
(-0.00114092 -9.59264e-07 0)
(-0.00113742 -1.11126e-06 0)
(-0.00113341 -1.26301e-06 0)
(-0.00112891 -1.41448e-06 0)
(-0.00112389 -1.56562e-06 0)
(-0.00111838 -1.71632e-06 0)
(-0.00111237 -1.8665e-06 0)
(-0.00110586 -2.01611e-06 0)
(-0.00109885 -2.16512e-06 0)
(-0.00109135 -2.3135e-06 0)
(-0.00108336 -2.46119e-06 0)
(-0.00107488 -2.60813e-06 0)
(-0.00106592 -2.75424e-06 0)
(-0.00105647 -2.89946e-06 0)
(-0.00104654 -3.04374e-06 0)
(-0.00103613 -3.187e-06 0)
(-0.00102526 -3.32919e-06 0)
(-0.00101391 -3.47027e-06 0)
(-0.0010021 -3.61015e-06 0)
(-0.000989824 -3.74874e-06 0)
(-0.000977095 -3.88598e-06 0)
(-0.000963914 -4.02177e-06 0)
(-0.000950287 -4.15602e-06 0)
(-0.000936219 -4.28867e-06 0)
(-0.000921714 -4.41964e-06 0)
(-0.00090678 -4.54886e-06 0)
(-0.000891422 -4.67625e-06 0)
(-0.000875645 -4.80174e-06 0)
(-0.000859457 -4.92526e-06 0)
(-0.000842864 -5.0467e-06 0)
(-0.000825872 -5.16602e-06 0)
(-0.00080849 -5.28314e-06 0)
(-0.000790724 -5.39801e-06 0)
(-0.000772582 -5.51055e-06 0)
(-0.000754072 -5.62075e-06 0)
(-0.0007352 -5.72857e-06 0)
(-0.000715976 -5.83395e-06 0)
(-0.000696407 -5.93685e-06 0)
(-0.000676502 -6.03721e-06 0)
(-0.00065627 -6.135e-06 0)
(-0.000635718 -6.23017e-06 0)
(-0.000614857 -6.32268e-06 0)
(-0.000593694 -6.41254e-06 0)
(-0.000572239 -6.49975e-06 0)
(-0.000550501 -6.58436e-06 0)
(-0.000528488 -6.66643e-06 0)
(-0.000506209 -6.74599e-06 0)
(-0.000483673 -6.82311e-06 0)
(-0.000460889 -6.89789e-06 0)
(-0.000437864 -6.97044e-06 0)
(-0.000414609 -7.04079e-06 0)
(-0.000391131 -7.10889e-06 0)
(-0.000367442 -7.17464e-06 0)
(-0.000343553 -7.2377e-06 0)
(-0.000319477 -7.29717e-06 0)
(-0.000295236 -7.35139e-06 0)
(-0.000270855 -7.39781e-06 0)
(-0.000246373 -7.43278e-06 0)
(-0.000221841 -7.45101e-06 0)
(-0.000197333 -7.44493e-06 0)
(-0.000172953 -7.40402e-06 0)
(-0.000148839 -7.31437e-06 0)
(-0.000125178 -7.15816e-06 0)
(-0.000102212 -6.91296e-06 0)
(-8.02554e-05 -6.55129e-06 0)
(-5.96971e-05 -6.04051e-06 0)
(-4.10138e-05 -5.34332e-06 0)
(-2.47681e-05 -4.42008e-06 0)
(-1.15923e-05 -3.23736e-06 0)
(-2.13359e-06 -1.79341e-06 0)
(3.03634e-06 -1.77589e-07 0)
(3.8812e-06 1.31757e-06 0)
(1.64067e-06 1.64121e-06 0)
(-1.03968e-06 -3.39971e-06 0)
(-1.82425e-06 -3.37329e-06 0)
(-8.81986e-06 5.55646e-06 0)
(-2.56874e-05 1.38291e-05 0)
(-5.23693e-05 2.13546e-05 0)
(-8.75989e-05 2.77182e-05 0)
(-0.000130147 3.28781e-05 0)
(-0.000178724 3.69358e-05 0)
(-0.000232086 4.00371e-05 0)
(-0.000289124 4.23314e-05 0)
(-0.0003489 4.39661e-05 0)
(-0.000410636 4.50801e-05 0)
(-0.00047371 4.5789e-05 0)
(-0.000537632 4.61864e-05 0)
(-0.000602029 4.63522e-05 0)
(-0.000666624 4.63545e-05 0)
(-0.00073121 4.62439e-05 0)
(-0.000795634 4.60525e-05 0)
(-0.000859784 4.58e-05 0)
(-0.000923583 4.55018e-05 0)
(-0.000986973 4.5172e-05 0)
(-0.00104991 4.48215e-05 0)
(-0.00111237 4.44556e-05 0)
(-0.0011743 4.40744e-05 0)
(-0.0012357 4.36767e-05 0)
(-0.00129652 4.32622e-05 0)
(-0.00135677 4.28324e-05 0)
(-0.0014164 4.23887e-05 0)
(-0.0014754 4.19309e-05 0)
(-0.00153375 4.14581e-05 0)
(-0.00159142 4.09691e-05 0)
(-0.00164839 4.04635e-05 0)
(-0.00170464 3.99414e-05 0)
(-0.00176014 3.94033e-05 0)
(-0.00181488 3.88495e-05 0)
(-0.00186882 3.82801e-05 0)
(-0.00192196 3.76949e-05 0)
(-0.00197426 3.70939e-05 0)
(-0.00202571 3.64774e-05 0)
(-0.00207628 3.58457e-05 0)
(-0.00212595 3.51995e-05 0)
(-0.0021747 3.45389e-05 0)
(-0.00222252 3.3864e-05 0)
(-0.00226937 3.31751e-05 0)
(-0.00231525 3.24725e-05 0)
(-0.00236014 3.17564e-05 0)
(-0.002404 3.10273e-05 0)
(-0.00244684 3.02853e-05 0)
(-0.00248862 2.95307e-05 0)
(-0.00252934 2.87636e-05 0)
(-0.00256897 2.79845e-05 0)
(-0.0026075 2.71936e-05 0)
(-0.00264491 2.63911e-05 0)
(-0.00268118 2.55775e-05 0)
(-0.00271631 2.47529e-05 0)
(-0.00275027 2.39179e-05 0)
(-0.00278305 2.30725e-05 0)
(-0.00281464 2.22172e-05 0)
(-0.00284503 2.13523e-05 0)
(-0.00287419 2.0478e-05 0)
(-0.00290212 1.95945e-05 0)
(-0.00292881 1.87024e-05 0)
(-0.00295424 1.78019e-05 0)
(-0.0029784 1.68933e-05 0)
(-0.00300129 1.5977e-05 0)
(-0.00302288 1.50532e-05 0)
(-0.00304318 1.41224e-05 0)
(-0.00306217 1.3185e-05 0)
(-0.00307984 1.22414e-05 0)
(-0.00309619 1.12919e-05 0)
(-0.0031112 1.03367e-05 0)
(-0.00312488 9.37625e-06 0)
(-0.0031372 8.41076e-06 0)
(-0.00314817 7.44058e-06 0)
(-0.00315779 6.46608e-06 0)
(-0.00316603 5.48763e-06 0)
(-0.00317291 4.50556e-06 0)
(-0.00317841 3.52023e-06 0)
(-0.00318253 2.53204e-06 0)
(-0.00318526 1.54145e-06 0)
(-0.00318661 5.48918e-07 0)
(-0.00318658 -4.45147e-07 0)
(-0.00318515 -1.44042e-06 0)
(-0.00318233 -2.43652e-06 0)
(-0.00317812 -3.43305e-06 0)
(-0.00317252 -4.42958e-06 0)
(-0.00316553 -5.42566e-06 0)
(-0.00315715 -6.42086e-06 0)
(-0.00314738 -7.4148e-06 0)
(-0.00313622 -8.40711e-06 0)
(-0.00312368 -9.39738e-06 0)
(-0.00310976 -1.03852e-05 0)
(-0.00309446 -1.13701e-05 0)
(-0.00307779 -1.23516e-05 0)
(-0.00305975 -1.33294e-05 0)
(-0.00304035 -1.43032e-05 0)
(-0.00301959 -1.52725e-05 0)
(-0.00299748 -1.62371e-05 0)
(-0.00297404 -1.71963e-05 0)
(-0.00294926 -1.815e-05 0)
(-0.00292315 -1.90976e-05 0)
(-0.00289572 -2.00387e-05 0)
(-0.00286699 -2.0973e-05 0)
(-0.00283696 -2.19001e-05 0)
(-0.00280564 -2.28194e-05 0)
(-0.00277305 -2.37307e-05 0)
(-0.00273919 -2.46334e-05 0)
(-0.00270408 -2.5527e-05 0)
(-0.00266773 -2.6411e-05 0)
(-0.00263016 -2.7285e-05 0)
(-0.00259137 -2.81485e-05 0)
(-0.0025514 -2.9001e-05 0)
(-0.00251024 -2.9842e-05 0)
(-0.00246791 -3.06712e-05 0)
(-0.00242444 -3.14879e-05 0)
(-0.00237985 -3.22919e-05 0)
(-0.00233414 -3.30824e-05 0)
(-0.00228734 -3.38592e-05 0)
(-0.00223947 -3.46217e-05 0)
(-0.00219054 -3.53697e-05 0)
(-0.00214059 -3.61027e-05 0)
(-0.00208962 -3.68204e-05 0)
(-0.00203767 -3.75224e-05 0)
(-0.00198475 -3.82085e-05 0)
(-0.00193088 -3.88783e-05 0)
(-0.00187609 -3.95315e-05 0)
(-0.00182041 -4.01678e-05 0)
(-0.00176385 -4.07869e-05 0)
(-0.00170644 -4.13886e-05 0)
(-0.0016482 -4.19729e-05 0)
(-0.00158916 -4.25397e-05 0)
(-0.00152935 -4.30889e-05 0)
(-0.00146879 -4.36207e-05 0)
(-0.0014075 -4.41351e-05 0)
(-0.0013455 -4.46323e-05 0)
(-0.00128283 -4.51122e-05 0)
(-0.00121951 -4.55747e-05 0)
(-0.00115557 -4.60189e-05 0)
(-0.00109104 -4.64433e-05 0)
(-0.00102594 -4.68451e-05 0)
(-0.000960329 -4.72194e-05 0)
(-0.000894246 -4.75582e-05 0)
(-0.000827759 -4.78491e-05 0)
(-0.000760955 -4.8074e-05 0)
(-0.000693955 -4.82067e-05 0)
(-0.00062692 -4.82111e-05 0)
(-0.00056007 -4.80386e-05 0)
(-0.000493699 -4.76256e-05 0)
(-0.000428198 -4.68907e-05 0)
(-0.000364072 -4.57339e-05 0)
(-0.000301964 -4.40355e-05 0)
(-0.000242671 -4.1658e-05 0)
(-0.000187158 -3.84511e-05 0)
(-0.000136554 -3.42629e-05 0)
(-9.21216e-05 -2.89633e-05 0)
(-5.51893e-05 -2.24942e-05 0)
(-2.69964e-05 -1.49743e-05 0)
(-8.41973e-06 -6.89451e-06 0)
(5.08061e-07 5.06285e-07 0)
(1.31846e-06 3.87451e-06 0)
(-7.05074e-07 -2.66305e-06 0)
(-6.99393e-06 6.18604e-06 0)
(-2.58884e-05 2.42601e-05 0)
(-5.75853e-05 4.37759e-05 0)
(-0.000102219 6.21134e-05 0)
(-0.000158696 7.81872e-05 0)
(-0.000225505 9.16257e-05 0)
(-0.000300976 0.000102463 0)
(-0.000383464 0.000110925 0)
(-0.000471453 0.000117321 0)
(-0.000563614 0.000121989 0)
(-0.000658834 0.000125257 0)
(-0.000756196 0.000127417 0)
(-0.000854964 0.000128717 0)
(-0.000954566 0.000129363 0)
(-0.00105456 0.000129524 0)
(-0.00115463 0.000129332 0)
(-0.00125452 0.000128886 0)
(-0.00135405 0.000128254 0)
(-0.00145308 0.000127486 0)
(-0.0015515 0.000126615 0)
(-0.00164925 0.000125667 0)
(-0.00174627 0.000124659 0)
(-0.00184249 0.000123598 0)
(-0.00193788 0.000122489 0)
(-0.0020324 0.000121333 0)
(-0.002126 0.000120132 0)
(-0.00221866 0.000118887 0)
(-0.00231033 0.000117598 0)
(-0.00240098 0.000116265 0)
(-0.00249057 0.000114887 0)
(-0.00257907 0.000113463 0)
(-0.00266644 0.000111994 0)
(-0.00275266 0.000110479 0)
(-0.00283767 0.000108919 0)
(-0.00292145 0.000107315 0)
(-0.00300397 0.000105667 0)
(-0.00308518 0.000103975 0)
(-0.00316506 0.00010224 0)
(-0.00324358 0.000100463 0)
(-0.00332069 9.86439e-05 0)
(-0.00339637 9.67844e-05 0)
(-0.00347059 9.48848e-05 0)
(-0.00354332 9.2946e-05 0)
(-0.00361452 9.09686e-05 0)
(-0.00368417 8.89536e-05 0)
(-0.00375223 8.69017e-05 0)
(-0.00381869 8.48138e-05 0)
(-0.00388351 8.26905e-05 0)
(-0.00394666 8.05325e-05 0)
(-0.00400812 7.83408e-05 0)
(-0.00406786 7.61162e-05 0)
(-0.00412586 7.38595e-05 0)
(-0.0041821 7.15715e-05 0)
(-0.00423654 6.92532e-05 0)
(-0.00428917 6.69055e-05 0)
(-0.00433997 6.45293e-05 0)
(-0.0043889 6.21256e-05 0)
(-0.00443596 5.96951e-05 0)
(-0.00448112 5.72387e-05 0)
(-0.00452437 5.47571e-05 0)
(-0.00456568 5.22515e-05 0)
(-0.00460503 4.97226e-05 0)
(-0.00464241 4.71715e-05 0)
(-0.00467781 4.45991e-05 0)
(-0.0047112 4.20064e-05 0)
(-0.00474257 3.93944e-05 0)
(-0.0047719 3.67642e-05 0)
(-0.0047992 3.41167e-05 0)
(-0.00482443 3.14528e-05 0)
(-0.00484759 2.87735e-05 0)
(-0.00486866 2.60797e-05 0)
(-0.00488765 2.33722e-05 0)
(-0.00490453 2.06521e-05 0)
(-0.00491929 1.79203e-05 0)
(-0.00493194 1.51779e-05 0)
(-0.00494246 1.24257e-05 0)
(-0.00495084 9.66494e-06 0)
(-0.00495709 6.89673e-06 0)
(-0.00496118 4.12222e-06 0)
(-0.00496313 1.34249e-06 0)
(-0.00496293 -1.44135e-06 0)
(-0.00496057 -4.22824e-06 0)
(-0.00495605 -7.01711e-06 0)
(-0.00494937 -9.80685e-06 0)
(-0.00494054 -1.25963e-05 0)
(-0.00492955 -1.53844e-05 0)
(-0.0049164 -1.81699e-05 0)
(-0.00490111 -2.09517e-05 0)
(-0.00488366 -2.37288e-05 0)
(-0.00486407 -2.65001e-05 0)
(-0.00484233 -2.92643e-05 0)
(-0.00481847 -3.20203e-05 0)
(-0.00479247 -3.4767e-05 0)
(-0.00476436 -3.75032e-05 0)
(-0.00473414 -4.02279e-05 0)
(-0.00470182 -4.29399e-05 0)
(-0.0046674 -4.56382e-05 0)
(-0.00463091 -4.83216e-05 0)
(-0.00459235 -5.09889e-05 0)
(-0.00455174 -5.36391e-05 0)
(-0.00450908 -5.62709e-05 0)
(-0.00446441 -5.88831e-05 0)
(-0.00441772 -6.14747e-05 0)
(-0.00436903 -6.40443e-05 0)
(-0.00431838 -6.65908e-05 0)
(-0.00426576 -6.91129e-05 0)
(-0.00421121 -7.16093e-05 0)
(-0.00415474 -7.40787e-05 0)
(-0.00409638 -7.65198e-05 0)
(-0.00403614 -7.89314e-05 0)
(-0.00397406 -8.13121e-05 0)
(-0.00391015 -8.36606e-05 0)
(-0.00384444 -8.59758e-05 0)
(-0.00377695 -8.82562e-05 0)
(-0.00370772 -9.05008e-05 0)
(-0.00363677 -9.27081e-05 0)
(-0.00356414 -9.4877e-05 0)
(-0.00348984 -9.70063e-05 0)
(-0.00341392 -9.90949e-05 0)
(-0.0033364 -0.000101142 0)
(-0.00325732 -0.000103146 0)
(-0.0031767 -0.000105107 0)
(-0.00309459 -0.000107023 0)
(-0.00301102 -0.000108894 0)
(-0.00292603 -0.000110718 0)
(-0.00283964 -0.000112495 0)
(-0.00275191 -0.000114224 0)
(-0.00266286 -0.000115904 0)
(-0.00257253 -0.000117535 0)
(-0.00248096 -0.000119117 0)
(-0.0023882 -0.00012065 0)
(-0.00229427 -0.000122132 0)
(-0.00219922 -0.000123565 0)
(-0.00210309 -0.000124947 0)
(-0.00200593 -0.000126277 0)
(-0.00190777 -0.000127555 0)
(-0.00180865 -0.000128776 0)
(-0.00170864 -0.000129935 0)
(-0.00160779 -0.00013102 0)
(-0.00150616 -0.000132016 0)
(-0.00140386 -0.000132897 0)
(-0.00130098 -0.000133628 0)
(-0.00119767 -0.000134153 0)
(-0.00109414 -0.0001344 0)
(-0.000990646 -0.000134268 0)
(-0.000887536 -0.000133623 0)
(-0.00078527 -0.000132295 0)
(-0.000684443 -0.000130073 0)
(-0.000585815 -0.000126702 0)
(-0.000490328 -0.000121884 0)
(-0.000399134 -0.000115294 0)
(-0.00031359 -0.000106591 0)
(-0.000235244 -9.54623e-05 0)
(-0.000165787 -8.16855e-05 0)
(-0.000106936 -6.52497e-05 0)
(-6.0236e-05 -4.6564e-05 0)
(-2.67384e-05 -2.67834e-05 0)
(-6.86093e-06 -8.40653e-06 0)
(-1.66373e-07 3.03678e-06 0)
(-1.88121e-06 3.24754e-06 0)
(-1.43024e-05 2.44016e-05 0)
(-4.45521e-05 5.64169e-05 0)
(-9.10257e-05 9.04162e-05 0)
(-0.000152948 0.000122536 0)
(-0.000229081 0.000151023 0)
(-0.000317677 0.000175166 0)
(-0.000416805 0.000194894 0)
(-0.000524561 0.000210503 0)
(-0.00063917 0.000222465 0)
(-0.000759049 0.000231324 0)
(-0.000882847 0.000237623 0)
(-0.00100944 0.000241872 0)
(-0.00113792 0.000244515 0)
(-0.00126756 0.00024592 0)
(-0.00139778 0.000246388 0)
(-0.00152817 0.00024616 0)
(-0.00165838 0.000245421 0)
(-0.00178818 0.000244307 0)
(-0.00191738 0.000242916 0)
(-0.00204583 0.000241316 0)
(-0.00217342 0.000239551 0)
(-0.00230007 0.000237655 0)
(-0.00242571 0.000235648 0)
(-0.00255026 0.000233542 0)
(-0.00267368 0.000231343 0)
(-0.00279591 0.000229055 0)
(-0.0029169 0.000226679 0)
(-0.00303659 0.000224216 0)
(-0.00315496 0.000221665 0)
(-0.00327193 0.000219028 0)
(-0.00338748 0.000216305 0)
(-0.00350155 0.000213494 0)
(-0.00361409 0.000210597 0)
(-0.00372507 0.000207614 0)
(-0.00383443 0.000204546 0)
(-0.00394213 0.000201394 0)
(-0.00404812 0.000198158 0)
(-0.00415237 0.000194841 0)
(-0.00425482 0.000191444 0)
(-0.00435544 0.000187967 0)
(-0.00445419 0.000184412 0)
(-0.00455102 0.000180781 0)
(-0.00464589 0.000177075 0)
(-0.00473877 0.000173296 0)
(-0.00482961 0.000169445 0)
(-0.00491838 0.000165523 0)
(-0.00500504 0.000161533 0)
(-0.00508956 0.000157475 0)
(-0.0051719 0.000153352 0)
(-0.00525202 0.000149165 0)
(-0.00532989 0.000144915 0)
(-0.00540549 0.000140604 0)
(-0.00547877 0.000136234 0)
(-0.00554971 0.000131806 0)
(-0.00561828 0.000127323 0)
(-0.00568445 0.000122786 0)
(-0.00574818 0.000118196 0)
(-0.00580947 0.000113556 0)
(-0.00586827 0.000108867 0)
(-0.00592456 0.00010413 0)
(-0.00597832 9.93484e-05 0)
(-0.00602953 9.45229e-05 0)
(-0.00607816 8.96554e-05 0)
(-0.0061242 8.47478e-05 0)
(-0.00616761 7.9802e-05 0)
(-0.00620839 7.482e-05 0)
(-0.00624651 6.98035e-05 0)
(-0.00628196 6.47545e-05 0)
(-0.00631472 5.96747e-05 0)
(-0.00634478 5.45659e-05 0)
(-0.00637212 4.94298e-05 0)
(-0.00639672 4.42684e-05 0)
(-0.00641858 3.90834e-05 0)
(-0.00643768 3.38769e-05 0)
(-0.00645401 2.86506e-05 0)
(-0.00646757 2.34065e-05 0)
(-0.00647834 1.81467e-05 0)
(-0.00648632 1.28733e-05 0)
(-0.0064915 7.58836e-06 0)
(-0.00649387 2.29398e-06 0)
(-0.00649344 -3.0078e-06 0)
(-0.0064902 -8.31491e-06 0)
(-0.00648415 -1.36253e-05 0)
(-0.00647528 -1.89369e-05 0)
(-0.0064636 -2.42475e-05 0)
(-0.00644911 -2.95551e-05 0)
(-0.00643182 -3.48575e-05 0)
(-0.00641171 -4.01527e-05 0)
(-0.00638881 -4.54386e-05 0)
(-0.00636311 -5.07129e-05 0)
(-0.00633462 -5.59737e-05 0)
(-0.00630335 -6.12186e-05 0)
(-0.00626931 -6.64456e-05 0)
(-0.00623251 -7.16526e-05 0)
(-0.00619297 -7.68374e-05 0)
(-0.00615068 -8.19979e-05 0)
(-0.00610567 -8.71319e-05 0)
(-0.00605796 -9.22372e-05 0)
(-0.00600755 -9.73118e-05 0)
(-0.00595447 -0.000102353 0)
(-0.00589873 -0.00010736 0)
(-0.00584036 -0.000112328 0)
(-0.00577937 -0.000117257 0)
(-0.00571578 -0.000122144 0)
(-0.00564962 -0.000126987 0)
(-0.00558092 -0.000131783 0)
(-0.00550969 -0.000136529 0)
(-0.00543597 -0.000141224 0)
(-0.00535979 -0.000145865 0)
(-0.00528116 -0.00015045 0)
(-0.00520013 -0.000154976 0)
(-0.00511673 -0.000159441 0)
(-0.00503098 -0.000163842 0)
(-0.00494293 -0.000168177 0)
(-0.00485261 -0.000172443 0)
(-0.00476005 -0.000176639 0)
(-0.00466529 -0.000180762 0)
(-0.00456838 -0.00018481 0)
(-0.00446934 -0.000188781 0)
(-0.00436823 -0.000192672 0)
(-0.00426509 -0.000196483 0)
(-0.00415996 -0.00020021 0)
(-0.00405288 -0.000203853 0)
(-0.0039439 -0.000207408 0)
(-0.00383306 -0.000210876 0)
(-0.00372042 -0.000214253 0)
(-0.00360602 -0.000217539 0)
(-0.0034899 -0.000220732 0)
(-0.00337213 -0.000223831 0)
(-0.00325275 -0.000226836 0)
(-0.00313181 -0.000229746 0)
(-0.00300936 -0.000232558 0)
(-0.00288546 -0.000235274 0)
(-0.00276016 -0.000237891 0)
(-0.00263352 -0.000240406 0)
(-0.00250559 -0.000242814 0)
(-0.00237644 -0.000245107 0)
(-0.00224614 -0.000247271 0)
(-0.00211477 -0.000249285 0)
(-0.00198244 -0.000251113 0)
(-0.00184926 -0.000252707 0)
(-0.00171538 -0.000253994 0)
(-0.00158102 -0.00025487 0)
(-0.00144644 -0.000255194 0)
(-0.00131198 -0.000254779 0)
(-0.0011781 -0.000253379 0)
(-0.00104539 -0.000250686 0)
(-0.0009146 -0.000246319 0)
(-0.00078668 -0.000239829 0)
(-0.000662786 -0.000230706 0)
(-0.000544309 -0.000218399 0)
(-0.000432865 -0.000202357 0)
(-0.000330269 -0.000182098 0)
(-0.000238476 -0.000157324 0)
(-0.000159463 -0.000128101 0)
(-9.50158e-05 -9.51521e-05 0)
(-4.6444e-05 -6.02607e-05 0)
(-1.49028e-05 -2.69373e-05 0)
(-1.77273e-06 -2.10838e-06 0)
(-3.09016e-06 1.18766e-05 0)
(-2.13611e-05 5.14234e-05 0)
(-6.24947e-05 0.00010126 0)
(-0.000122947 0.000152473 0)
(-0.000200937 0.000200554 0)
(-0.000294903 0.000243296 0)
(-0.000402862 0.000279748 0)
(-0.000522673 0.000309771 0)
(-0.000652245 0.000333734 0)
(-0.000789635 0.000352277 0)
(-0.000933096 0.000366155 0)
(-0.00108112 0.000376143 0)
(-0.00123243 0.000382977 0)
(-0.001386 0.000387314 0)
(-0.00154098 0.000389711 0)
(-0.00169673 0.000390627 0)
(-0.00185272 0.000390424 0)
(-0.00200857 0.000389387 0)
(-0.00216396 0.000387728 0)
(-0.00231867 0.000385607 0)
(-0.00247253 0.000383134 0)
(-0.00262538 0.000380385 0)
(-0.00277713 0.000377412 0)
(-0.00292767 0.000374249 0)
(-0.00307693 0.000370917 0)
(-0.00322483 0.000367431 0)
(-0.00337131 0.000363797 0)
(-0.0035163 0.000360019 0)
(-0.00365974 0.0003561 0)
(-0.00380158 0.000352041 0)
(-0.00394176 0.000347841 0)
(-0.00408021 0.000343503 0)
(-0.00421689 0.000339026 0)
(-0.00435174 0.000334412 0)
(-0.00448469 0.000329662 0)
(-0.00461571 0.000324776 0)
(-0.00474472 0.000319757 0)
(-0.00487169 0.000314606 0)
(-0.00499656 0.000309324 0)
(-0.00511927 0.000303915 0)
(-0.00523977 0.000298381 0)
(-0.00535803 0.000292722 0)
(-0.00547398 0.000286943 0)
(-0.00558758 0.000281045 0)
(-0.00569878 0.00027503 0)
(-0.00580753 0.000268901 0)
(-0.0059138 0.00026266 0)
(-0.00601754 0.000256311 0)
(-0.00611869 0.000249855 0)
(-0.00621723 0.000243294 0)
(-0.00631311 0.000236632 0)
(-0.00640629 0.000229871 0)
(-0.00649674 0.000223014 0)
(-0.0065844 0.000216063 0)
(-0.00666926 0.000209022 0)
(-0.00675127 0.000201892 0)
(-0.0068304 0.000194677 0)
(-0.00690661 0.00018738 0)
(-0.00697987 0.000180002 0)
(-0.00705016 0.000172548 0)
(-0.00711744 0.000165019 0)
(-0.00718169 0.000157419 0)
(-0.00724287 0.00014975 0)
(-0.00730096 0.000142015 0)
(-0.00735594 0.000134217 0)
(-0.00740777 0.000126359 0)
(-0.00745645 0.000118444 0)
(-0.00750194 0.000110475 0)
(-0.00754423 0.000102455 0)
(-0.0075833 9.43865e-05 0)
(-0.00761912 8.62726e-05 0)
(-0.00765169 7.81161e-05 0)
(-0.00768098 6.992e-05 0)
(-0.00770698 6.16874e-05 0)
(-0.00772968 5.34212e-05 0)
(-0.00774907 4.51246e-05 0)
(-0.00776513 3.68005e-05 0)
(-0.00777786 2.84522e-05 0)
(-0.00778724 2.00831e-05 0)
(-0.00779328 1.16963e-05 0)
(-0.00779595 3.29508e-06 0)
(-0.00779527 -5.11725e-06 0)
(-0.00779122 -1.35374e-05 0)
(-0.00778381 -2.19622e-05 0)
(-0.00777303 -3.03882e-05 0)
(-0.00775888 -3.88122e-05 0)
(-0.00774137 -4.72309e-05 0)
(-0.0077205 -5.5641e-05 0)
(-0.00769628 -6.40391e-05 0)
(-0.0076687 -7.24219e-05 0)
(-0.00763778 -8.07861e-05 0)
(-0.00760353 -8.91284e-05 0)
(-0.00756595 -9.74453e-05 0)
(-0.00752506 -0.000105733 0)
(-0.00748087 -0.00011399 0)
(-0.00743339 -0.00012221 0)
(-0.00738263 -0.000130392 0)
(-0.00732863 -0.000138531 0)
(-0.00727138 -0.000146625 0)
(-0.00721092 -0.000154669 0)
(-0.00714725 -0.000162661 0)
(-0.00708042 -0.000170596 0)
(-0.00701043 -0.000178472 0)
(-0.00693731 -0.000186284 0)
(-0.00686109 -0.000194029 0)
(-0.0067818 -0.000201703 0)
(-0.00669947 -0.000209303 0)
(-0.00661412 -0.000216824 0)
(-0.00652579 -0.000224264 0)
(-0.00643452 -0.000231617 0)
(-0.00634033 -0.000238881 0)
(-0.00624327 -0.000246051 0)
(-0.00614337 -0.000253125 0)
(-0.00604068 -0.000260097 0)
(-0.00593522 -0.000266965 0)
(-0.00582706 -0.000273724 0)
(-0.00571622 -0.000280372 0)
(-0.00560276 -0.000286904 0)
(-0.00548672 -0.000293317 0)
(-0.00536815 -0.000299608 0)
(-0.0052471 -0.000305774 0)
(-0.00512362 -0.000311811 0)
(-0.00499776 -0.000317716 0)
(-0.00486958 -0.000323486 0)
(-0.00473912 -0.000329119 0)
(-0.00460645 -0.000334612 0)
(-0.00447162 -0.000339962 0)
(-0.00433469 -0.000345166 0)
(-0.00419572 -0.000350223 0)
(-0.00405476 -0.000355131 0)
(-0.00391189 -0.000359888 0)
(-0.00376715 -0.000364492 0)
(-0.00362062 -0.000368941 0)
(-0.00347235 -0.000373232 0)
(-0.00332242 -0.000377363 0)
(-0.00317089 -0.000381327 0)
(-0.00301784 -0.000385114 0)
(-0.00286335 -0.000388709 0)
(-0.00270751 -0.000392087 0)
(-0.00255042 -0.000395212 0)
(-0.0023922 -0.000398027 0)
(-0.00223302 -0.00040045 0)
(-0.00207306 -0.000402364 0)
(-0.00191257 -0.000403606 0)
(-0.00175187 -0.000403955 0)
(-0.00159138 -0.000403119 0)
(-0.00143163 -0.000400725 0)
(-0.00127332 -0.000396304 0)
(-0.00111731 -0.000389288 0)
(-0.00096468 -0.000379015 0)
(-0.000816723 -0.000364743 0)
(-0.000674994 -0.000345684 0)
(-0.000541275 -0.000321069 0)
(-0.000417557 -0.000290247 0)
(-0.000305981 -0.000252838 0)
(-0.000208739 -0.000208965 0)
(-0.000127875 -0.000159582 0)
(-6.50627e-05 -0.000106906 0)
(-2.23851e-05 -5.50515e-05 0)
(-3.2065e-06 -1.15184e-05 0)
(-4.17982e-06 2.4224e-05 0)
(-2.75992e-05 8.69091e-05 0)
(-7.84863e-05 0.000157949 0)
(-0.000151539 0.000228761 0)
(-0.000243963 0.000294608 0)
(-0.000353776 0.000353042 0)
(-0.000478724 0.000402991 0)
(-0.000616461 0.000444318 0)
(-0.000764742 0.000477491 0)
(-0.000921502 0.00050333 0)
(-0.00108489 0.000522821 0)
(-0.00125328 0.000536978 0)
(-0.00142533 0.000546772 0)
(-0.00159989 0.000553079 0)
(-0.00177607 0.000556654 0)
(-0.00195314 0.000558127 0)
(-0.00213052 0.000557999 0)
(-0.00230777 0.000556664 0)
(-0.00248454 0.000554418 0)
(-0.00266058 0.000551486 0)
(-0.00283567 0.000548027 0)
(-0.00300965 0.000544155 0)
(-0.00318238 0.000539946 0)
(-0.00335376 0.000535451 0)
(-0.00352368 0.000530703 0)
(-0.00369207 0.000525724 0)
(-0.00385883 0.000520526 0)
(-0.00402391 0.000515117 0)
(-0.00418722 0.000509501 0)
(-0.0043487 0.000503682 0)
(-0.00450829 0.000497661 0)
(-0.0046659 0.000491439 0)
(-0.00482149 0.000485018 0)
(-0.00497499 0.0004784 0)
(-0.00512633 0.000471586 0)
(-0.00527545 0.000464579 0)
(-0.00542229 0.000457381 0)
(-0.00556679 0.000449994 0)
(-0.00570889 0.000442421 0)
(-0.00584853 0.000434666 0)
(-0.00598566 0.00042673 0)
(-0.00612021 0.000418618 0)
(-0.00625213 0.000410333 0)
(-0.00638137 0.000401878 0)
(-0.00650788 0.000393256 0)
(-0.00663159 0.000384471 0)
(-0.00675246 0.000375527 0)
(-0.00687044 0.000366427 0)
(-0.00698549 0.000357174 0)
(-0.00709754 0.000347773 0)
(-0.00720657 0.000338228 0)
(-0.00731251 0.000328541 0)
(-0.00741533 0.000318717 0)
(-0.00751499 0.000308759 0)
(-0.00761144 0.000298672 0)
(-0.00770465 0.00028846 0)
(-0.00779457 0.000278127 0)
(-0.00788117 0.000267675 0)
(-0.00796441 0.000257111 0)
(-0.00804426 0.000246436 0)
(-0.00812068 0.000235657 0)
(-0.00819364 0.000224775 0)
(-0.00826311 0.000213796 0)
(-0.00832906 0.000202724 0)
(-0.00839147 0.000191563 0)
(-0.0084503 0.000180317 0)
(-0.00850552 0.000168989 0)
(-0.00855713 0.000157586 0)
(-0.00860508 0.000146109 0)
(-0.00864937 0.000134564 0)
(-0.00868996 0.000122955 0)
(-0.00872685 0.000111286 0)
(-0.00876001 9.95618e-05 0)
(-0.00878943 8.77857e-05 0)
(-0.00881509 7.59626e-05 0)
(-0.00883698 6.40969e-05 0)
(-0.00885508 5.21929e-05 0)
(-0.00886939 4.02552e-05 0)
(-0.0088799 2.82885e-05 0)
(-0.0088866 1.62973e-05 0)
(-0.00888947 4.28626e-06 0)
(-0.00888853 -7.73991e-06 0)
(-0.00888376 -1.97766e-05 0)
(-0.00887517 -3.18191e-05 0)
(-0.00886275 -4.38628e-05 0)
(-0.00884649 -5.59029e-05 0)
(-0.00882642 -6.79348e-05 0)
(-0.00880252 -7.99537e-05 0)
(-0.00877481 -9.19551e-05 0)
(-0.00874329 -0.000103934 0)
(-0.00870797 -0.000115886 0)
(-0.00866886 -0.000127806 0)
(-0.00862598 -0.000139689 0)
(-0.00857932 -0.000151531 0)
(-0.00852892 -0.000163327 0)
(-0.00847477 -0.000175071 0)
(-0.00841691 -0.000186759 0)
(-0.00835536 -0.000198387 0)
(-0.00829012 -0.000209949 0)
(-0.00822122 -0.00022144 0)
(-0.0081487 -0.000232855 0)
(-0.00807256 -0.000244189 0)
(-0.00799285 -0.000255437 0)
(-0.00790958 -0.000266594 0)
(-0.00782279 -0.000277655 0)
(-0.00773251 -0.000288614 0)
(-0.00763877 -0.000299467 0)
(-0.00754161 -0.000310207 0)
(-0.00744107 -0.000320829 0)
(-0.00733718 -0.000331329 0)
(-0.00722998 -0.000341701 0)
(-0.00711952 -0.000351939 0)
(-0.00700583 -0.000362038 0)
(-0.00688897 -0.000371992 0)
(-0.00676898 -0.000381798 0)
(-0.00664591 -0.000391449 0)
(-0.00651981 -0.00040094 0)
(-0.00639072 -0.000410266 0)
(-0.00625871 -0.000419422 0)
(-0.00612382 -0.000428405 0)
(-0.00598612 -0.000437208 0)
(-0.00584566 -0.000445827 0)
(-0.00570249 -0.000454258 0)
(-0.00555669 -0.000462497 0)
(-0.00540831 -0.000470538 0)
(-0.00525741 -0.00047838 0)
(-0.00510406 -0.000486017 0)
(-0.00494833 -0.000493446 0)
(-0.00479027 -0.000500664 0)
(-0.00462997 -0.000507667 0)
(-0.00446749 -0.000514454 0)
(-0.0043029 -0.00052102 0)
(-0.00413627 -0.000527361 0)
(-0.00396768 -0.000533475 0)
(-0.0037972 -0.000539352 0)
(-0.00362492 -0.000544985 0)
(-0.00345093 -0.000550356 0)
(-0.00327531 -0.000555442 0)
(-0.00309819 -0.000560205 0)
(-0.00291966 -0.000564589 0)
(-0.0027399 -0.000568512 0)
(-0.00255907 -0.000571854 0)
(-0.00237739 -0.000574447 0)
(-0.00219516 -0.000576061 0)
(-0.00201273 -0.000576386 0)
(-0.00183058 -0.000575018 0)
(-0.0016493 -0.000571441 0)
(-0.00146965 -0.000565017 0)
(-0.00129257 -0.000554978 0)
(-0.00111923 -0.000540438 0)
(-0.000951012 -0.000520413 0)
(-0.000789579 -0.000493871 0)
(-0.000636825 -0.000459817 0)
(-0.000494867 -0.000417414 0)
(-0.000365999 -0.000366175 0)
(-0.000252623 -0.000306208 0)
(-0.000157077 -0.000238573 0)
(-8.14645e-05 -0.000165687 0)
(-2.88269e-05 -9.18817e-05 0)
(-4.38015e-06 -2.4625e-05 0)
(-5.08093e-06 3.96237e-05 0)
(-3.28167e-05 0.000129752 0)
(-9.2068e-05 0.000225092 0)
(-0.000176048 0.000317667 0)
(-0.000281052 0.000402829 0)
(-0.000404638 0.000478106 0)
(-0.000544253 0.000542446 0)
(-0.000697348 0.000595798 0)
(-0.000861533 0.000638776 0)
(-0.00103464 0.000672405 0)
(-0.00121473 0.000697909 0)
(-0.00140013 0.000716557 0)
(-0.00158941 0.000729566 0)
(-0.0017814 0.000738036 0)
(-0.00197512 0.000742925 0)
(-0.00216981 0.000745036 0)
(-0.00236487 0.000745016 0)
(-0.0025598 0.000743377 0)
(-0.00275424 0.000740508 0)
(-0.00294789 0.000736701 0)
(-0.00314053 0.000732168 0)
(-0.00333196 0.000727062 0)
(-0.00352203 0.000721487 0)
(-0.00371063 0.000715515 0)
(-0.00389763 0.000709192 0)
(-0.00408295 0.00070255 0)
(-0.00426648 0.000695606 0)
(-0.00444816 0.000688374 0)
(-0.0046279 0.000680861 0)
(-0.00480562 0.000673073 0)
(-0.00498124 0.000665011 0)
(-0.0051547 0.00065668 0)
(-0.00532592 0.000648082 0)
(-0.00549483 0.000639218 0)
(-0.00566136 0.000630094 0)
(-0.00582544 0.00062071 0)
(-0.00598701 0.00061107 0)
(-0.00614599 0.000601179 0)
(-0.00630232 0.000591039 0)
(-0.00645594 0.000580655 0)
(-0.00660679 0.000570031 0)
(-0.0067548 0.000559171 0)
(-0.0068999 0.00054808 0)
(-0.00704205 0.000536762 0)
(-0.00718118 0.000525221 0)
(-0.00731723 0.000513463 0)
(-0.00745015 0.000501493 0)
(-0.00757988 0.000489314 0)
(-0.00770637 0.000476932 0)
(-0.00782957 0.000464352 0)
(-0.00794943 0.00045158 0)
(-0.00806589 0.000438619 0)
(-0.00817891 0.000425476 0)
(-0.00828845 0.000412155 0)
(-0.00839445 0.000398662 0)
(-0.00849688 0.000385002 0)
(-0.00859568 0.000371181 0)
(-0.00869083 0.000357203 0)
(-0.00878228 0.000343074 0)
(-0.00886998 0.0003288 0)
(-0.00895392 0.000314386 0)
(-0.00903405 0.000299837 0)
(-0.00911033 0.000285159 0)
(-0.00918274 0.000270357 0)
(-0.00925124 0.000255437 0)
(-0.0093158 0.000240404 0)
(-0.0093764 0.000225264 0)