/*--------------------------------*- C++ -*----------------------------------*\
  =========                 |
  \\      /  F ield         | OpenFOAM: The Open Source CFD Toolbox
   \\    /   O peration     | Website:  https://openfoam.org
    \\  /    A nd           | Version:  7
     \\/     M anipulation  |
\*---------------------------------------------------------------------------*/
FoamFile
{
    version     2.0;
    format      ascii;
    class       surfaceScalarField;
    location    "0.175";
    object      phi;
}
// * * * * * * * * * * * * * * * * * * * * * * * * * * * * * * * * * * * * * //

dimensions      [0 3 -1 0 0 0 0];

internalField   nonuniform List<scalar> 
50880
(
7.48837e-12
-7.48064e-12
3.01164e-11
-2.26288e-11
5.8652e-11
-2.85366e-11
8.44801e-11
-2.5826e-11
1.02878e-10
-1.83982e-11
1.11323e-10
-8.4398e-12
1.0842e-10
2.89641e-12
9.34887e-11
1.49346e-11
6.62577e-11
2.72286e-11
2.67672e-11
3.94927e-11
-2.47634e-11
5.15289e-11
-8.79794e-11
6.32175e-11
-1.62434e-10
7.44558e-11
-2.4763e-10
8.51915e-11
-3.43013e-10
9.53845e-11
-4.48018e-10
1.05005e-10
-5.62069e-10
1.14051e-10
-6.8458e-10
1.22516e-10
-8.14979e-10
1.30398e-10
-9.52693e-10
1.37712e-10
-1.09716e-09
1.44464e-10
-1.24783e-09
1.50674e-10
-1.40419e-09
1.5636e-10
-1.56572e-09
1.61528e-10
-1.73192e-09
1.66202e-10
-1.90232e-09
1.704e-10
-2.07646e-09
1.74138e-10
-2.2539e-09
1.77441e-10
-2.43423e-09
1.80327e-10
-2.61704e-09
1.82809e-10
-2.80195e-09
1.84906e-10
-2.98859e-09
1.86642e-10
-3.17662e-09
1.88027e-10
-3.3657e-09
1.89074e-10
-3.55551e-09
1.89807e-10
-3.74575e-09
1.90242e-10
-3.93613e-09
1.90382e-10
-4.12637e-09
1.90241e-10
-4.31621e-09
1.8984e-10
-4.50539e-09
1.89187e-10
-4.69369e-09
1.88291e-10
-4.88086e-09
1.87166e-10
-5.06668e-09
1.85825e-10
-5.25095e-09
1.8427e-10
-5.43346e-09
1.82507e-10
-5.614e-09
1.80544e-10
-5.7924e-09
1.78394e-10
-5.96846e-09
1.7606e-10
-6.14201e-09
1.73546e-10
-6.31287e-09
1.70859e-10
-6.48087e-09
1.68004e-10
-6.64586e-09
1.64984e-10
-6.80765e-09
1.61799e-10
-6.96611e-09
1.58454e-10
-7.12106e-09
1.54955e-10
-7.27237e-09
1.51304e-10
-7.41986e-09
1.475e-10
-7.56341e-09
1.43543e-10
-7.70284e-09
1.39438e-10
-7.83803e-09
1.35189e-10
-7.96883e-09
1.30797e-10
-8.09509e-09
1.26258e-10
-8.21667e-09
1.21576e-10
-8.33342e-09
1.16754e-10
-8.44522e-09
1.11794e-10
-8.55192e-09
1.06695e-10
-8.65337e-09
1.01458e-10
-8.74946e-09
9.6086e-11
-8.84004e-09
9.05817e-11
-8.92498e-09
8.49453e-11
-9.00416e-09
7.91754e-11
-9.07743e-09
7.32745e-11
-9.14468e-09
6.72489e-11
-9.20578e-09
6.11029e-11
-9.26062e-09
5.48386e-11
-9.30908e-09
4.84567e-11
-9.35104e-09
4.19601e-11
-9.3864e-09
3.53542e-11
-9.41504e-09
2.86444e-11
-9.43687e-09
2.18361e-11
-9.4518e-09
1.49336e-11
-9.45974e-09
7.94117e-12
-9.46061e-09
8.666e-13
-9.45433e-09
-6.28112e-12
-9.44084e-09
-1.3496e-11
-9.42007e-09
-2.07718e-11
-9.39197e-09
-2.80993e-11
-9.3565e-09
-3.54687e-11
-9.31363e-09
-4.28703e-11
-9.26333e-09
-5.02944e-11
-9.2056e-09
-5.77319e-11
-9.14042e-09
-6.51726e-11
-9.06782e-09
-7.2604e-11
-8.98781e-09
-8.00132e-11
-8.90042e-09
-8.73868e-11
-8.80571e-09
-9.47117e-11
-8.70373e-09
-1.01976e-10
-8.59456e-09
-1.09165e-10
-8.4783e-09
-1.16266e-10
-8.35504e-09
-1.23261e-10
-8.2249e-09
-1.30135e-10
-8.08803e-09
-1.36874e-10
-7.94456e-09
-1.43464e-10
-7.79467e-09
-1.49889e-10
-7.63854e-09
-1.56132e-10
-7.47637e-09
-1.62174e-10
-7.30837e-09
-1.68e-10
-7.13477e-09
-1.73594e-10
-6.95583e-09
-1.78941e-10
-6.77181e-09
-1.84024e-10
-6.58298e-09
-1.88824e-10
-6.38966e-09
-1.93326e-10
-6.19215e-09
-1.97513e-10
-5.99078e-09
-2.01371e-10
-5.78589e-09
-2.04884e-10
-5.57786e-09
-2.08037e-10
-5.36704e-09
-2.10812e-10
-5.15385e-09
-2.13196e-10
-4.93867e-09
-2.15176e-10
-4.72193e-09
-2.16737e-10
-4.50407e-09
-2.17869e-10
-4.28551e-09
-2.18558e-10
-4.06671e-09
-2.18794e-10
-3.84814e-09
-2.18564e-10
-3.63029e-09
-2.17857e-10
-3.41362e-09
-2.16665e-10
-3.19865e-09
-2.14978e-10
-2.98586e-09
-2.1279e-10
-2.77576e-09
-2.10092e-10
-2.56889e-09
-2.06878e-10
-2.36574e-09
-2.03143e-10
-2.16686e-09
-1.98885e-10
-1.97276e-09
-1.94099e-10
-1.78398e-09
-1.88784e-10
-1.60104e-09
-1.82939e-10
-1.42447e-09
-1.76563e-10
-1.25481e-09
-1.6966e-10
-1.09258e-09
-1.62233e-10
-9.38291e-10
-1.54289e-10
-7.92458e-10
-1.45834e-10
-6.5558e-10
-1.36879e-10
-5.28145e-10
-1.27436e-10
-4.10626e-10
-1.1752e-10
-3.03476e-10
-1.07149e-10
-2.07124e-10
-9.63513e-11
-1.21964e-10
-8.51592e-11
-4.83479e-11
-7.36162e-11
1.34298e-11
-6.17768e-11
6.31438e-11
-4.97128e-11
1.00664e-10
-3.75199e-11
1.25994e-10
-2.53293e-11
1.39314e-10
-1.33201e-11
1.41057e-10
-1.74142e-12
1.32006e-10
9.05073e-12
1.13467e-10
1.85376e-11
8.75109e-11
2.59555e-11
5.73202e-11
3.01898e-11
2.77278e-11
2.95917e-11
5.9686e-12
2.17594e-11
5.9684e-12
2.09301e-11
-2.84112e-11
6.341e-11
-6.51052e-11
1.11608e-10
-7.67384e-11
1.51803e-10
-6.60213e-11
1.74099e-10
-4.06962e-11
1.71967e-10
-6.30835e-12
1.41276e-10
3.35921e-11
7.95766e-11
7.66325e-11
-1.43746e-11
1.21183e-10
-1.40978e-10
1.66094e-10
-3.00025e-10
2.10571e-10
-4.90854e-10
2.54049e-10
-7.12522e-10
2.96122e-10
-9.63843e-10
3.36517e-10
-1.24349e-09
3.7503e-10
-1.55004e-09
4.11549e-10
-1.88199e-09
4.45998e-10
-2.23781e-09
4.78333e-10
-2.61596e-09
5.08553e-10
-3.01491e-09
5.36661e-10
-3.43313e-09
5.62684e-10
-3.86914e-09
5.86673e-10
-4.32145e-09
6.08669e-10
-4.78865e-09
6.28727e-10
-5.26935e-09
6.4691e-10
-5.76223e-09
6.63276e-10
-6.26598e-09
6.77889e-10
-6.77937e-09
6.90829e-10
-7.30119e-09
7.02155e-10
-7.83031e-09
7.11928e-10
-8.36561e-09
7.20219e-10
-8.90606e-09
7.27092e-10
-9.45063e-09
7.326e-10
-9.99837e-09
7.36809e-10
-1.05483e-08
7.39783e-10
-1.10997e-08
7.4157e-10
-1.16515e-08
7.42219e-10
-1.22031e-08
7.41786e-10
-1.27535e-08
7.40319e-10
-1.33022e-08
7.37857e-10
-1.38484e-08
7.34445e-10
-1.43913e-08
7.30125e-10
-1.49304e-08
7.24931e-10
-1.54651e-08
7.18894e-10
-1.59946e-08
7.12047e-10
-1.65185e-08
7.04418e-10
-1.70361e-08
6.96035e-10
-1.7547e-08
6.86921e-10
-1.80505e-08
6.77098e-10
-1.85463e-08
6.66586e-10
-1.90337e-08
6.55405e-10
-1.95122e-08
6.4357e-10
-1.99815e-08
6.31093e-10
-2.04411e-08
6.17986e-10
-2.08904e-08
6.04265e-10
-2.1329e-08
5.8994e-10
-2.17565e-08
5.75018e-10
-2.21725e-08
5.59505e-10
-2.25765e-08
5.43413e-10
-2.2968e-08
5.26749e-10
-2.33468e-08
5.09518e-10
-2.37122e-08
4.91724e-10
-2.4064e-08
4.73373e-10
-2.44017e-08
4.54473e-10
-2.4725e-08
4.3503e-10
-2.50333e-08
4.15047e-10
-2.53264e-08
3.9453e-10
-2.56038e-08
3.73489e-10
-2.58652e-08
3.51931e-10
-2.61101e-08
3.29863e-10
-2.63382e-08
3.07288e-10
-2.65491e-08
2.84217e-10
-2.67425e-08
2.60662e-10
-2.69181e-08
2.36636e-10
-2.70754e-08
2.1215e-10
-2.72141e-08
1.87214e-10
-2.7334e-08
1.61844e-10
-2.74347e-08
1.36057e-10
-2.7516e-08
1.09874e-10
-2.75774e-08
8.33132e-11
-2.76189e-08
5.63963e-11
-2.76401e-08
2.91473e-11
-2.76408e-08
1.59018e-12
-2.76209e-08
-2.62486e-11
-2.758e-08
-5.43409e-11
-2.75181e-08
-8.26571e-11
-2.74351e-08
-1.11163e-10
-2.73307e-08
-1.39822e-10
-2.7205e-08
-1.68597e-10
-2.70578e-08
-1.97449e-10
-2.68892e-08
-2.26341e-10
-2.66992e-08
-2.55231e-10
-2.64877e-08
-2.84074e-10
-2.62549e-08
-3.12821e-10
-2.60008e-08
-3.41422e-10
-2.57257e-08
-3.69827e-10
-2.54297e-08
-3.97986e-10
-2.5113e-08
-4.25845e-10
-2.47759e-08
-4.53349e-10
-2.44188e-08
-4.8044e-10
-2.40418e-08
-5.07059e-10
-2.36456e-08
-5.33146e-10
-2.32304e-08
-5.58644e-10
-2.27968e-08
-5.83491e-10
-2.23453e-08
-6.07626e-10
-2.18765e-08
-6.30985e-10
-2.1391e-08
-6.53503e-10
-2.08894e-08
-6.7512e-10
-2.03726e-08
-6.95771e-10
-1.98412e-08
-7.15393e-10
-1.92961e-08
-7.33923e-10
-1.87382e-08
-7.51297e-10
-1.81682e-08
-7.67456e-10
-1.75873e-08
-7.82338e-10
-1.69963e-08
-7.95884e-10
-1.63963e-08
-8.08032e-10
-1.57884e-08
-8.18727e-10
-1.51736e-08
-8.27913e-10
-1.45533e-08
-8.35538e-10
-1.39285e-08
-8.41552e-10
-1.33004e-08
-8.45905e-10
-1.26704e-08
-8.48549e-10
-1.20398e-08
-8.4944e-10
-1.14098e-08
-8.48536e-10
-1.07819e-08
-8.458e-10
-1.01573e-08
-8.41194e-10
-9.53763e-09
-8.34688e-10
-8.92417e-09
-8.2625e-10
-8.31841e-09
-8.15856e-10
-7.72181e-09
-8.03482e-10
-7.13584e-09
-7.8911e-10
-6.56199e-09
-7.7273e-10
-6.00175e-09
-7.54334e-10
-5.45662e-09
-7.33917e-10
-4.92808e-09
-7.1148e-10
-4.41761e-09
-6.87028e-10
-3.9267e-09
-6.60574e-10
-3.4568e-09
-6.32138e-10
-3.00933e-09
-6.01748e-10
-2.58573e-09
-5.69443e-10
-2.18734e-09
-5.35267e-10
-1.8155e-09
-4.9928e-10
-1.47146e-09
-4.61555e-10
-1.15642e-09
-4.22185e-10
-8.71485e-10
-3.81289e-10
-6.1763e-10
-3.39014e-10
-3.95695e-10
-2.95548e-10
-2.06336e-10
-2.51133e-10
-4.99699e-11
-2.06077e-10
7.3291e-11
-1.6078e-10
1.63734e-10
-1.15772e-10
2.22169e-10
-7.17533e-11
2.50094e-10
-2.96674e-11
2.49933e-10
9.20972e-12
2.25337e-10
4.3134e-11
1.81576e-10
6.97182e-11
1.26017e-10
8.57495e-11
6.85703e-11
8.70382e-11
2.17125e-11
6.8617e-11
2.76814e-11
2.50371e-11
-5.34494e-11
7.07986e-11
-1.10866e-10
1.17033e-10
-1.22974e-10
1.47657e-10
-9.66457e-11
1.50371e-10
-4.34072e-11
1.16307e-10
2.77565e-11
3.94157e-11
1.10482e-10
-8.41545e-11
2.00202e-10
-2.56586e-10
2.93621e-10
-4.78834e-10
3.88341e-10
-7.50882e-10
4.82621e-10
-1.07202e-09
5.75187e-10
-1.44103e-09
6.65126e-10
-1.85628e-09
7.51773e-10
-2.31591e-09
8.34658e-10
-2.81783e-09
9.13472e-10
-3.35983e-09
9.88003e-10
-3.93963e-09
1.05813e-09
-4.55489e-09
1.12381e-09
-5.20326e-09
1.18503e-09
-5.88239e-09
1.24182e-09
-6.58997e-09
1.29425e-09
-7.32372e-09
1.34242e-09
-8.0814e-09
1.38641e-09
-8.86085e-09
1.42635e-09
-9.65994e-09
1.46237e-09
-1.04766e-08
1.49458e-09
-1.1309e-08
1.52315e-09
-1.2155e-08
1.54819e-09
-1.30129e-08
1.56984e-09
-1.38809e-08
1.58825e-09
-1.47574e-08
1.60354e-09
-1.56406e-08
1.61584e-09
-1.65291e-08
1.62529e-09
-1.74213e-08
1.632e-09
-1.83159e-08
1.63609e-09
-1.92113e-08
1.63767e-09
-2.01064e-08
1.63685e-09
-2.09998e-08
1.63373e-09
-2.18903e-08
1.62841e-09
-2.27768e-08
1.62098e-09
-2.36582e-08
1.61152e-09
-2.45334e-08
1.60012e-09
-2.54014e-08
1.58685e-09
-2.62611e-08
1.57176e-09
-2.71116e-08
1.55494e-09
-2.7952e-08
1.53643e-09
-2.87814e-08
1.5163e-09
-2.95989e-08
1.49458e-09
-3.04037e-08
1.47133e-09
-3.11948e-08
1.44659e-09
-3.19716e-08
1.42038e-09
-3.27333e-08
1.39275e-09
-3.3479e-08
1.36372e-09
-3.42081e-08
1.33332e-09
-3.49197e-08
1.30158e-09
-3.56132e-08
1.26851e-09
-3.62878e-08
1.23413e-09
-3.69429e-08
1.19847e-09
-3.75777e-08
1.16154e-09
-3.81915e-08
1.12336e-09
-3.87837e-08
1.08393e-09
-3.93536e-08
1.04328e-09
-3.99006e-08
1.00142e-09
-4.04239e-08
9.58353e-10
-4.0923e-08
9.14103e-10
-4.13971e-08
8.68681e-10
-4.18457e-08
8.22105e-10
-4.22682e-08
7.74391e-10
-4.26639e-08
7.25554e-10
-4.30322e-08
6.75613e-10
-4.33726e-08
6.24588e-10
-4.36844e-08
5.72507e-10
-4.39672e-08
5.19396e-10
-4.42203e-08
4.65279e-10
-4.44433e-08
4.10186e-10
-4.46356e-08
3.54153e-10
-4.47967e-08
2.97216e-10
-4.49263e-08
2.39416e-10
-4.50238e-08
1.80798e-10
-4.50888e-08
1.21409e-10
-4.51209e-08
6.13035e-11
-4.51199e-08
5.36559e-13
-4.50853e-08
-6.08332e-11
-4.50169e-08
-1.22743e-10
-4.49144e-08
-1.85125e-10
-4.47777e-08
-2.47909e-10
-4.46065e-08
-3.11016e-10
-4.44007e-08
-3.74363e-10
-4.41603e-08
-4.37866e-10
-4.38852e-08
-5.01435e-10
-4.35755e-08
-5.6498e-10
-4.32311e-08
-6.28402e-10
-4.28524e-08
-6.91598e-10
-4.24393e-08
-7.54458e-10
-4.19923e-08
-8.16874e-10
-4.15115e-08
-8.78734e-10
-4.09974e-08
-9.39919e-10
-4.04505e-08
-1.00031e-09
-3.98712e-08
-1.05978e-09
-3.926e-08
-1.1182e-09
-3.86177e-08
-1.17545e-09
-3.7945e-08
-1.23139e-09
-3.72426e-08
-1.28589e-09
-3.65114e-08
-1.33881e-09
-3.57523e-08
-1.39002e-09
-3.49665e-08
-1.43938e-09
-3.41548e-08
-1.48676e-09
-3.33186e-08
-1.53201e-09
-3.2459e-08
-1.575e-09
-3.15773e-08
-1.61558e-09
-3.0675e-08
-1.65364e-09
-2.97534e-08
-1.68902e-09
-2.88142e-08
-1.7216e-09
-2.78588e-08
-1.75124e-09
-2.6889e-08
-1.77783e-09
-2.59065e-08
-1.80123e-09
-2.49131e-08
-1.82133e-09
-2.39106e-08
-1.83801e-09
-2.2901e-08
-1.85116e-09
-2.18862e-08
-1.86068e-09
-2.08683e-08
-1.86645e-09
-1.98494e-08
-1.8684e-09
-1.88315e-08
-1.86642e-09
-1.78168e-08
-1.86043e-09
-1.68077e-08
-1.85036e-09
-1.58062e-08
-1.83614e-09
-1.48148e-08
-1.81771e-09
-1.38356e-08
-1.79501e-09
-1.28711e-08
-1.76801e-09
-1.19235e-08
-1.73666e-09
-1.09953e-08
-1.70093e-09
-1.00888e-08
-1.66083e-09
-9.20642e-09
-1.61634e-09
-8.35043e-09
-1.56747e-09
-7.52321e-09
-1.51424e-09
-6.72709e-09
-1.4567e-09
-5.96434e-09
-1.39488e-09
-5.23723e-09
-1.32886e-09
-4.54793e-09
-1.25874e-09
-3.89856e-09
-1.18463e-09
-3.29116e-09
-1.10668e-09
-2.72765e-09
-1.02507e-09
-2.20981e-09
-9.40024e-10
-1.73927e-09
-8.51826e-10
-1.31746e-09
-7.60829e-10
-9.4553e-10
-6.67474e-10
-6.24344e-10
-5.72317e-10
-3.54359e-10
-4.76062e-10
-1.35534e-10
-3.79605e-10
3.2799e-11
-2.84103e-10
1.52103e-10
-1.91057e-10
2.24856e-10
-1.02423e-10
2.54827e-10
-2.07623e-11
2.47395e-10
5.05652e-11
2.0994e-10
1.07172e-10
1.52259e-10
1.4343e-10
8.69277e-11
1.52369e-10
2.95097e-11
1.26034e-10
5.7192e-11
2.32468e-11
-7.6697e-11
6.07585e-11
-1.48375e-10
9.01947e-11
-1.5241e-10
9.44402e-11
-1.00896e-10
6.02112e-11
-9.1746e-12
-2.24526e-11
1.10418e-10
-1.60632e-10
2.48659e-10
-3.59072e-10
3.98639e-10
-6.20642e-10
5.55189e-10
-9.46717e-10
7.14418e-10
-1.33752e-09
8.73422e-10
-1.79237e-09
1.03004e-09
-2.3099e-09
1.18265e-09
-2.88822e-09
1.33009e-09
-3.52505e-09
1.47149e-09
-4.21784e-09
1.60626e-09
-4.96382e-09
1.73398e-09
-5.76009e-09
1.8544e-09
-6.60367e-09
1.96739e-09
-7.49153e-09
2.07289e-09
-8.42063e-09
2.17092e-09
-9.38794e-09
2.26157e-09
-1.03905e-08
2.34495e-09
-1.14253e-08
2.42123e-09
-1.24895e-08
2.49059e-09
-1.35804e-08
2.5532e-09
-1.46951e-08
2.6093e-09
-1.5831e-08
2.65909e-09
-1.69856e-08
2.7028e-09
-1.81565e-08
2.74066e-09
-1.93411e-08
2.77289e-09
-2.05373e-08
2.79971e-09
-2.17428e-08
2.82135e-09
-2.29555e-08
2.838e-09
-2.41734e-08
2.84988e-09
-2.53945e-08
2.8572e-09
-2.6617e-08
2.86013e-09
-2.7839e-08
2.85886e-09
-2.90588e-08
2.85356e-09
-3.02748e-08
2.8444e-09
-3.14854e-08
2.83154e-09
-3.2689e-08
2.81512e-09
-3.38842e-08
2.79528e-09
-3.50694e-08
2.77214e-09
-3.62435e-08
2.74583e-09
-3.7405e-08
2.71645e-09
-3.85527e-08
2.6841e-09
-3.96853e-08
2.64889e-09
-4.08016e-08
2.61089e-09
-4.19004e-08
2.57019e-09
-4.29807e-08
2.52685e-09
-4.40413e-08
2.48095e-09
-4.50811e-08
2.43253e-09
-4.6099e-08
2.38166e-09
-4.70941e-08
2.32838e-09
-4.80652e-08
2.27273e-09
-4.90115e-08
2.21476e-09
-4.99319e-08
2.15451e-09
-5.08254e-08
2.09199e-09
-5.16911e-08
2.02726e-09
-5.25281e-08
1.96032e-09
-5.33353e-08
1.89122e-09
-5.4112e-08
1.81997e-09
-5.48572e-08
1.74661e-09
-5.557e-08
1.67116e-09
-5.62496e-08
1.59364e-09
-5.6895e-08
1.51408e-09
-5.75054e-08
1.43251e-09
-5.80799e-08
1.34896e-09
-5.86179e-08
1.26346e-09
-5.91183e-08
1.17605e-09
-5.95805e-08
1.08676e-09
-6.00036e-08
9.95647e-10
-6.0387e-08
9.02744e-10
-6.07298e-08
8.08105e-10
-6.10314e-08
7.11784e-10
-6.12911e-08
6.13844e-10
-6.15082e-08
5.14351e-10
-6.16822e-08
4.13376e-10
-6.18124e-08
3.10997e-10
-6.18982e-08
2.07296e-10
-6.19393e-08
1.02367e-10
-6.19351e-08
-3.69192e-12
-6.18851e-08
-1.10776e-10
-6.17891e-08
-2.18774e-10
-6.16467e-08
-3.27569e-10
-6.14575e-08
-4.37035e-10
-6.12215e-08
-5.47037e-10
-6.09384e-08
-6.57434e-10
-6.06082e-08
-7.68076e-10
-6.02309e-08
-8.78811e-10
-5.98064e-08
-9.89474e-10
-5.93349e-08
-1.09989e-09
-5.88166e-08
-1.20989e-09
-5.82517e-08
-1.31929e-09
-5.76407e-08
-1.42789e-09
-5.6984e-08
-1.5355e-09
-5.6282e-08
-1.64191e-09
-5.55354e-08
-1.74692e-09
-5.47448e-08
-1.8503e-09
-5.39112e-08
-1.95185e-09
-5.30353e-08
-2.05133e-09
-5.21182e-08
-2.14853e-09
-5.11608e-08
-2.2432e-09
-5.01645e-08
-2.33513e-09
-4.91305e-08
-2.42406e-09
-4.80601e-08
-2.50976e-09
-4.69549e-08
-2.59201e-09
-4.58163e-08
-2.67055e-09
-4.46462e-08
-2.74516e-09
-4.34461e-08
-2.81559e-09
-4.22182e-08
-2.8816e-09
-4.09642e-08
-2.94298e-09
-3.96863e-08
-2.99949e-09
-3.83867e-08
-3.05091e-09
-3.70675e-08
-3.09702e-09
-3.57311e-08
-3.1376e-09
-3.438e-08
-3.17245e-09
-3.30166e-08
-3.20137e-09
-3.16436e-08
-3.22417e-09
-3.02636e-08
-3.24067e-09
-2.88794e-08
-3.25069e-09
-2.74937e-08
-3.25408e-09
-2.61094e-08
-3.25067e-09
-2.47295e-08
-3.24033e-09
-2.3357e-08
-3.22293e-09
-2.19948e-08
-3.19836e-09
-2.0646e-08
-3.1665e-09
-1.93137e-08
-3.12729e-09
-1.80011e-08
-3.08063e-09
-1.67112e-08
-3.02649e-09
-1.54474e-08
-2.96482e-09
-1.42126e-08
-2.8956e-09
-1.30101e-08
-2.81884e-09
-1.1843e-08
-2.73456e-09
-1.07144e-08
-2.64282e-09
-9.62743e-09
-2.54368e-09
-8.58507e-09
-2.43724e-09
-7.59027e-09
-2.32366e-09
-6.64592e-09
-2.2031e-09
-5.75477e-09
-2.07579e-09
-4.91945e-09
-1.942e-09
-4.14242e-09
-1.80209e-09
-3.42597e-09
-1.65648e-09
-2.77212e-09
-1.50567e-09
-2.18262e-09
-1.35033e-09
-1.65887e-09
-1.19123e-09
-1.20181e-09
-1.02938e-09
-8.11863e-10
-8.66003e-10
-4.88808e-10
-7.02658e-10
-2.31604e-10
-5.41306e-10
-3.82254e-11
-3.84437e-10
9.45743e-11
-2.35223e-10
1.71525e-10
-9.77118e-11
1.99152e-10
2.29395e-11
1.86118e-10
1.20205e-10
1.43611e-10
1.85937e-10
8.57395e-11
2.10241e-10
3.01134e-11
1.81659e-10
8.73056e-11
1.72036e-11
-9.39026e-11
3.76646e-11
-1.68838e-10
3.90016e-11
-1.53745e-10
4.1579e-12
-6.60515e-11
-8.02563e-11
7.52398e-11
-2.24479e-10
2.54645e-10
-4.36003e-10
4.60186e-10
-7.20003e-10
6.82636e-10
-1.07971e-09
9.14894e-10
-1.51678e-09
1.15149e-09
-2.03159e-09
1.38823e-09
-2.62349e-09
1.62194e-09
-3.29103e-09
1.85019e-09
-4.03213e-09
2.07118e-09
-4.84422e-09
2.28358e-09
-5.72437e-09
2.48641e-09
-6.66937e-09
2.67899e-09
-7.67586e-09
2.86089e-09
-8.7403e-09
3.03183e-09
-9.8591e-09
3.19169e-09
-1.10286e-08
3.34046e-09
-1.22453e-08
3.47821e-09
-1.35054e-08
3.60509e-09
-1.48055e-08
3.72131e-09
-1.6142e-08
3.82709e-09
-1.75115e-08
3.92273e-09
-1.89107e-08
4.00851e-09
-2.03364e-08
4.08473e-09
-2.17853e-08
4.15173e-09
-2.32545e-08
4.20982e-09
-2.47409e-08
4.25934e-09
-2.62418e-08
4.30061e-09
-2.77544e-08
4.33395e-09
-2.92761e-08
4.35967e-09
-3.08043e-08
4.37809e-09
-3.23366e-08
4.38949e-09
-3.38706e-08
4.39416e-09
-3.54041e-08
4.39238e-09
-3.6935e-08
4.3844e-09
-3.8461e-08
4.37047e-09
-3.99803e-08
4.35083e-09
-4.14909e-08
4.3257e-09
-4.29909e-08
4.29528e-09
-4.44785e-08
4.25977e-09
-4.59521e-08
4.21936e-09
-4.74098e-08
4.1742e-09
-4.88502e-08
4.12446e-09
-5.02716e-08
4.07027e-09
-5.16725e-08
4.01178e-09
-5.30514e-08
3.94911e-09
-5.44069e-08
3.88236e-09
-5.57376e-08
3.81163e-09
-5.70421e-08
3.73703e-09
-5.8319e-08
3.65863e-09
-5.95672e-08
3.5765e-09
-6.07852e-08
3.49073e-09
-6.19718e-08
3.40137e-09
-6.31257e-08
3.30848e-09
-6.42459e-08
3.21211e-09
-6.53309e-08
3.11232e-09
-6.63797e-08
3.00915e-09
-6.73912e-08
2.90264e-09
-6.8364e-08
2.79284e-09
-6.92972e-08
2.67978e-09
-7.01895e-08
2.56352e-09
-7.104e-08
2.44409e-09
-7.18475e-08
2.32154e-09
-7.26109e-08
2.19591e-09
-7.33292e-08
2.06725e-09
-7.40013e-08
1.93562e-09
-7.46263e-08
1.80107e-09
-7.52032e-08
1.66366e-09
-7.5731e-08
1.52346e-09
-7.62088e-08
1.38054e-09
-7.66357e-08
1.23498e-09
-7.70108e-08
1.08687e-09
-7.73333e-08
9.36301e-10
-7.76023e-08
7.8338e-10
-7.78171e-08
6.28217e-10
-7.79771e-08
4.70931e-10
-7.80814e-08
3.11655e-10
-7.81296e-08
1.50529e-10
-7.8121e-08
-1.22959e-11
-7.80551e-08
-1.76659e-10
-7.79315e-08
-3.42388e-10
-7.77497e-08
-5.09302e-10
-7.75096e-08
-6.77205e-10
-7.72107e-08
-8.45892e-10
-7.6853e-08
-1.01515e-09
-7.64363e-08
-1.18474e-09
-7.59607e-08
-1.35444e-09
-7.54262e-08
-1.524e-09
-7.48329e-08
-1.69314e-09
-7.41812e-08
-1.86161e-09
-7.34714e-08
-2.02912e-09
-7.27039e-08
-2.19537e-09
-7.18793e-08
-2.36008e-09
-7.09983e-08
-2.52292e-09
-7.00617e-08
-2.68358e-09
-6.90702e-08
-2.84173e-09
-6.8025e-08
-2.99705e-09
-6.69272e-08
-3.14918e-09
-6.57779e-08
-3.29779e-09
-6.45786e-08
-3.44252e-09
-6.33307e-08
-3.58302e-09
-6.20358e-08
-3.71893e-09
-6.06957e-08
-3.8499e-09
-5.93121e-08
-3.97555e-09
-5.78872e-08
-4.09553e-09
-5.64228e-08
-4.20949e-09
-5.49214e-08
-4.31705e-09
-5.33851e-08
-4.41786e-09
-5.18165e-08
-4.51158e-09
-5.02181e-08
-4.59786e-09
-4.85927e-08
-4.67636e-09
-4.6943e-08
-4.74674e-09
-4.52719e-08
-4.80869e-09
-4.35824e-08
-4.8619e-09
-4.18777e-08
-4.90606e-09
-4.0161e-08
-4.94088e-09
-3.84356e-08
-4.96609e-09
-3.67049e-08
-4.98144e-09
-3.49723e-08
-4.98666e-09
-3.32414e-08
-4.98155e-09
-3.15158e-08
-4.96588e-09
-2.97993e-08
-4.93946e-09
-2.80955e-08
-4.90213e-09
-2.64083e-08
-4.85374e-09
-2.47414e-08
-4.79416e-09
-2.30988e-08
-4.72329e-09
-2.14842e-08
-4.64105e-09
-1.99016e-08
-4.5474e-09
-1.83549e-08
-4.44233e-09
-1.68479e-08
-4.32585e-09
-1.53844e-08
-4.198e-09
-1.39684e-08
-4.05888e-09
-1.26034e-08
-3.90862e-09
-1.12933e-08
-3.7474e-09
-1.00415e-08
-3.57545e-09
-8.85151e-09
-3.39307e-09
-7.72667e-09
-3.20063e-09
-6.67011e-09
-2.99857e-09
-5.68473e-09
-2.78747e-09
-4.77322e-09
-2.56799e-09
-3.93792e-09
-2.34097e-09
-3.18084e-09
-2.10741e-09
-2.50351e-09
-1.86856e-09
-1.90694e-09
-1.62595e-09
-1.3915e-09
-1.38144e-09
-9.56784e-10
-1.13737e-09
-6.01454e-10
-8.96637e-10
-3.23058e-10
-6.62834e-10
-1.17817e-10
-4.40465e-10
1.96247e-11
-2.35154e-10
9.64705e-11
-5.39072e-11
1.22087e-10
9.45893e-11
1.0836e-10
1.99666e-10
7.01403e-11
2.48462e-10
2.59615e-11
2.25838e-10
1.13267e-10
8.26787e-12
-1.02165e-10
5.26111e-12
-1.65831e-10
-2.99249e-11
-1.18555e-10
-1.13443e-10
1.74639e-11
-2.58135e-10
2.19933e-10
-4.73964e-10
4.70477e-10
-7.68356e-10
7.54574e-10
-1.14652e-09
1.0608e-09
-1.61179e-09
1.38016e-09
-2.1659e-09
1.7056e-09
-2.80929e-09
2.03162e-09
-3.54128e-09
2.35393e-09
-4.36034e-09
2.66925e-09
-5.26423e-09
2.97507e-09
-6.25013e-09
3.26948e-09
-7.31484e-09
3.55111e-09
-8.45479e-09
3.81894e-09
-9.6662e-09
4.07229e-09
-1.09451e-08
4.31073e-09
-1.22874e-08
4.53402e-09
-1.36891e-08
4.74209e-09
-1.51459e-08
4.93499e-09
-1.66536e-08
5.11289e-09
-1.82084e-08
5.27601e-09
-1.98059e-08
5.42466e-09
-2.14424e-08
5.55919e-09
-2.31138e-08
5.67997e-09
-2.48165e-08
5.78741e-09
-2.65467e-08
5.88194e-09
-2.83009e-08
5.96399e-09
-3.00755e-08
6.034e-09
-3.18673e-08
6.09241e-09
-3.36731e-08
6.13966e-09
-3.54895e-08
6.17617e-09
-3.73138e-08
6.20236e-09
-3.9143e-08
6.21864e-09
-4.09742e-08
6.2254e-09
-4.28048e-08
6.22301e-09
-4.46323e-08
6.21184e-09
-4.64541e-08
6.19224e-09
-4.82677e-08
6.16451e-09
-5.0071e-08
6.12899e-09
-5.18617e-08
6.08594e-09
-5.36376e-08
6.03565e-09
-5.53966e-08
5.97838e-09
-5.71367e-08
5.91435e-09
-5.88561e-08
5.84379e-09
-6.05527e-08
5.7669e-09
-6.22248e-08
5.68387e-09
-6.38706e-08
5.59488e-09
-6.54883e-08
5.50008e-09
-6.70763e-08
5.39962e-09
-6.86329e-08
5.29363e-09
-7.01565e-08
5.18223e-09
-7.16455e-08
5.06553e-09
-7.30984e-08
4.94364e-09
-7.45137e-08
4.81664e-09
-7.58898e-08
4.68463e-09
-7.72254e-08
4.54769e-09
-7.8519e-08
4.40587e-09
-7.97691e-08
4.25926e-09
-8.09744e-08
4.10792e-09
-8.21334e-08
3.95192e-09
-8.3245e-08
3.79131e-09
-8.43076e-08
3.62616e-09
-8.53201e-08
3.45654e-09
-8.6281e-08
3.2825e-09
-8.71892e-08
3.10413e-09
-8.80435e-08
2.92148e-09
-8.88425e-08
2.73464e-09
-8.95851e-08
2.54369e-09
-9.02702e-08
2.34872e-09
-9.08965e-08
2.14983e-09
-9.14631e-08
1.94712e-09
-9.19689e-08
1.74071e-09
-9.24127e-08
1.53073e-09
-9.27937e-08
1.3173e-09
-9.31109e-08
1.10059e-09
-9.33634e-08
8.80744e-10
-9.35505e-08
6.5794e-10
-9.36712e-08
4.32365e-10
-9.37249e-08
2.0422e-10
-9.37109e-08
-2.62807e-11
-9.36286e-08
-2.5891e-10
-9.34776e-08
-4.93423e-10
-9.32573e-08
-7.29562e-10
-9.29675e-08
-9.67053e-10
-9.26078e-08
-1.2056e-09
-9.2178e-08
-1.4449e-09
-9.16781e-08
-1.68464e-09
-9.11081e-08
-1.92447e-09
-9.0468e-08
-2.16405e-09
-8.97582e-08
-2.40301e-09
-8.89788e-08
-2.64096e-09
-8.81304e-08
-2.87751e-09
-8.72136e-08
-3.11225e-09
-8.62289e-08
-3.34476e-09
-8.51772e-08
-3.57459e-09
-8.40595e-08
-3.80132e-09
-8.28767e-08
-4.02446e-09
-8.16302e-08
-4.24357e-09
-8.03213e-08
-4.45815e-09
-7.89513e-08
-4.66773e-09
-7.7522e-08
-4.87181e-09
-7.60351e-08
-5.0699e-09
-7.44926e-08
-5.26149e-09
-7.28964e-08
-5.44609e-09
-7.12488e-08
-5.62317e-09
-6.95521e-08
-5.79225e-09
-6.78087e-08
-5.95281e-09
-6.60214e-08
-6.10435e-09
-6.41929e-08
-6.24637e-09
-6.23261e-08
-6.3784e-09
-6.0424e-08
-6.49993e-09
-5.84899e-08
-6.6105e-09
-5.6527e-08
-6.70964e-09
-5.45388e-08
-6.79691e-09
-5.25288e-08
-6.87187e-09
-5.05008e-08
-6.9341e-09
-4.84585e-08
-6.9832e-09
-4.64058e-08
-7.01878e-09
-4.43467e-08
-7.04049e-09
-4.22854e-08
-7.04799e-09
-4.0226e-08
-7.04096e-09
-3.81728e-08
-7.01911e-09
-3.613e-08
-6.98218e-09
-3.41022e-08
-6.92994e-09
-3.20938e-08
-6.86219e-09
-3.01092e-08
-6.77877e-09
-2.81529e-08
-6.67953e-09
-2.62296e-08
-6.5644e-09
-2.43437e-08
-6.43331e-09
-2.24998e-08
-6.28625e-09
-2.07023e-08
-6.12327e-09
-1.89559e-08
-5.94446e-09
-1.72648e-08
-5.74995e-09
-1.56335e-08
-5.53996e-09
-1.40661e-08
-5.31477e-09
-1.25668e-08
-5.07472e-09
-1.11396e-08
-4.82027e-09
-9.78827e-09
-4.55198e-09
-8.51634e-09
-4.2705e-09
-7.32714e-09
-3.97667e-09
-6.22367e-09
-3.67147e-09
-5.20853e-09
-3.3561e-09
-4.28393e-09
-3.03201e-09
-3.45152e-09
-2.70097e-09
-2.71235e-09
-2.36511e-09
-2.06675e-09
-2.02704e-09
-1.51418e-09
-1.68995e-09
-1.0531e-09
-1.35772e-09
-6.80781e-10
-1.03515e-09
-3.93134e-10
-7.28111e-10
-1.84469e-10
-4.43819e-10
-4.72624e-11
-1.91113e-10
2.81121e-11
1.92154e-11
5.37125e-11
1.74065e-10
4.44547e-11
2.5772e-10
1.87617e-11
2.51533e-10
1.32028e-10
-2.44726e-12
-9.97241e-11
-3.32906e-11
-1.34986e-10
-1.11032e-10
-4.08132e-11
-2.50284e-10
1.56715e-10
-4.62829e-10
4.32479e-10
-7.57931e-10
7.65575e-10
-1.14257e-09
1.13921e-09
-1.6217e-09
1.53993e-09
-2.1985e-09
1.95696e-09
-2.87463e-09
2.38173e-09
-3.65041e-09
2.8074e-09
-4.5251e-09
3.22862e-09
-5.49704e-09
3.64119e-09
-6.56381e-09
4.04184e-09
-7.72241e-09
4.42808e-09
-8.96935e-09
4.79806e-09
-1.03008e-08
5.15038e-09
-1.17126e-08
5.4841e-09
-1.32004e-08
5.79857e-09
-1.47598e-08
6.09342e-09
-1.63862e-08
6.36849e-09
-1.80751e-08
6.6238e-09
-1.98217e-08
6.8595e-09
-2.16215e-08
7.07584e-09
-2.347e-08
7.27319e-09
-2.53628e-08
7.45194e-09
-2.72954e-08
7.61258e-09
-2.92636e-08
7.75561e-09
-3.12632e-08
7.88155e-09
-3.32902e-08
7.99095e-09
-3.53406e-08
8.08438e-09
-3.74106e-08
8.1624e-09
-3.94965e-08
8.22556e-09
-4.15947e-08
8.27441e-09
-4.37018e-08
8.30951e-09
-4.58146e-08
8.33136e-09
-4.79297e-08
8.34048e-09
-5.0044e-08
8.33737e-09
-5.21546e-08
8.32249e-09
-5.42587e-08
8.29629e-09
-5.63534e-08
8.25921e-09
-5.84361e-08
8.21165e-09
-6.05041e-08
8.15399e-09
-6.25551e-08
8.08659e-09
-6.45865e-08
8.0098e-09
-6.65961e-08
7.92392e-09
-6.85815e-08
7.82924e-09
-7.05407e-08
7.72605e-09
-7.24714e-08
7.6146e-09
-7.43716e-08
7.4951e-09
-7.62393e-08
7.36779e-09
-7.80726e-08
7.23286e-09
-7.98694e-08
7.09048e-09
-8.1628e-08
6.94082e-09
-8.33465e-08
6.78404e-09
-8.50231e-08
6.62027e-09
-8.66561e-08
6.44964e-09
-8.82438e-08
6.27228e-09
-8.97844e-08
6.08828e-09
-9.12762e-08
5.89774e-09
-9.27178e-08
5.70078e-09
-9.41073e-08
5.49748e-09
-9.54433e-08
5.28793e-09
-9.67243e-08
5.07222e-09
-9.79485e-08
4.85044e-09
-9.91147e-08
4.62267e-09
-1.00221e-07
4.38901e-09
-1.01267e-07
4.14956e-09
-1.0225e-07
3.90441e-09
-1.03169e-07
3.65367e-09
-1.04022e-07
3.39746e-09
-1.0481e-07
3.1359e-09
-1.05529e-07
2.86913e-09
-1.06179e-07
2.59729e-09
-1.06759e-07
2.32054e-09
-1.07267e-07
2.03906e-09
-1.07703e-07
1.75302e-09
-1.08065e-07
1.46262e-09
-1.08352e-07
1.16809e-09
-1.08564e-07
8.69655e-10
-1.08699e-07
5.6757e-10
-1.08757e-07
2.62104e-10
-1.08737e-07
-4.6454e-11
-1.08638e-07
-3.57799e-10
-1.0846e-07
-6.71604e-10
-1.08202e-07
-9.87519e-10
-1.07864e-07
-1.30518e-09
-1.07445e-07
-1.62419e-09
-1.06946e-07
-1.94416e-09
-1.06366e-07
-2.26463e-09
-1.05705e-07
-2.58518e-09
-1.04964e-07
-2.90533e-09
-1.04142e-07
-3.22459e-09
-1.03241e-07
-3.54245e-09
-1.0226e-07
-3.85839e-09
-1.012e-07
-4.17185e-09
-1.00063e-07
-4.48228e-09
-9.88483e-08
-4.78909e-09
-9.75579e-08
-5.0917e-09
-9.61929e-08
-5.38949e-09
-9.47546e-08
-5.68184e-09
-9.32446e-08
-5.96812e-09
-9.16647e-08
-6.24768e-09
-9.00166e-08
-6.51987e-09
-8.83025e-08
-6.78404e-09
-8.65245e-08
-7.03951e-09
-8.46849e-08
-7.28563e-09
-8.27864e-08
-7.52171e-09
-8.08316e-08
-7.74709e-09
-7.88233e-08
-7.96109e-09
-7.67646e-08
-8.16306e-09
-7.46586e-08
-8.35234e-09
-7.25087e-08
-8.52828e-09
-7.03184e-08
-8.69024e-09
-6.80913e-08
-8.83759e-09
-6.58312e-08
-8.96973e-09
-6.35421e-08
-9.08605e-09
-6.12279e-08
-9.18599e-09
-5.8893e-08
-9.26899e-09
-5.65417e-08
-9.33452e-09
-5.41784e-08
-9.38208e-09
-5.18077e-08
-9.4112e-09
-4.94343e-08
-9.42143e-09
-4.70629e-08
-9.41237e-09
-4.46983e-08
-9.38363e-09
-4.23456e-08
-9.33487e-09
-4.00098e-08
-9.26581e-09
-3.76958e-08
-9.17618e-09
-3.54088e-08
-9.06578e-09
-3.31539e-08
-8.93444e-09
-3.09362e-08
-8.78206e-09
-2.87609e-08
-8.60857e-09
-2.66332e-08
-8.414e-09
-2.4558e-08
-8.19841e-09
-2.25406e-08
-7.96193e-09
-2.05857e-08
-7.7048e-09
-1.86984e-08
-7.4273e-09
-1.68833e-08
-7.12985e-09
-1.51451e-08
-6.81295e-09
-1.34881e-08
-6.47722e-09
-1.19167e-08
-6.12344e-09
-1.04346e-08
-5.75255e-09
-9.04562e-09
-5.36566e-09
-7.75296e-09
-4.96413e-09
-6.55948e-09
-4.54958e-09
-5.46753e-09
-4.12397e-09
-4.47887e-09
-3.68963e-09
-3.59461e-09
-3.24937e-09
-2.81506e-09
-2.80659e-09
-2.13963e-09
-2.36538e-09
-1.56668e-09
-1.93067e-09
-1.09336e-09
-1.50847e-09
-7.15451e-10
-1.10602e-09
-4.27179e-10
-7.32091e-10
-2.21002e-10
-3.97289e-10
-8.73873e-11
-1.14398e-10
-1.45336e-11
1.0121e-10
1.19747e-11
2.31212e-10
9.65097e-12
2.53857e-10
1.4168e-10
-1.4151e-11
-8.55687e-11
-7.56319e-11
-7.35097e-11
-2.00047e-10
8.36002e-11
-4.00031e-10
3.56699e-10
-6.85937e-10
7.18383e-10
-1.066e-09
1.14564e-09
-1.54647e-09
1.61969e-09
-2.1318e-09
2.12525e-09
-2.82478e-09
2.64996e-09
-3.62683e-09
3.18377e-09
-4.53806e-09
3.71863e-09
-5.55754e-09
4.24811e-09
-6.68344e-09
4.76708e-09
-7.91315e-09
5.27155e-09
-9.24345e-09
5.75839e-09
-1.06706e-08
6.22523e-09
-1.21906e-08
6.67031e-09
-1.37988e-08
7.09236e-09
-1.54907e-08
7.4905e-09
-1.72615e-08
7.86419e-09
-1.91062e-08
8.21318e-09
-2.10198e-08
8.53741e-09
-2.29973e-08
8.83701e-09
-2.50338e-08
9.11227e-09
-2.71241e-08
9.36357e-09
-2.92636e-08
9.59139e-09
-3.14473e-08
9.79629e-09
-3.36705e-08
9.97884e-09
-3.59287e-08
1.01397e-08
-3.82173e-08
1.02796e-08
-4.0532e-08
1.03991e-08
-4.28685e-08
1.04989e-08
-4.52227e-08
1.05798e-08
-4.75906e-08
1.06424e-08
-4.99684e-08
1.06873e-08
-5.23524e-08
1.07153e-08
-5.47389e-08
1.0727e-08
-5.71245e-08
1.0723e-08
-5.95059e-08
1.07038e-08
-6.18798e-08
1.06701e-08
-6.4243e-08
1.06224e-08
-6.65926e-08
1.05612e-08
-6.89256e-08
1.0487e-08
-7.12393e-08
1.04003e-08
-7.35308e-08
1.03014e-08
-7.57977e-08
1.01907e-08
-7.80372e-08
1.00688e-08
-8.0247e-08
9.93581e-09