/*--------------------------------*- C++ -*----------------------------------*\
  =========                 |
  \\      /  F ield         | OpenFOAM: The Open Source CFD Toolbox
   \\    /   O peration     | Website:  https://openfoam.org
    \\  /    A nd           | Version:  7
     \\/     M anipulation  |
\*---------------------------------------------------------------------------*/
FoamFile
{
    version     2.0;
    format      ascii;
    class       volVectorField;
    location    "0.175";
    object      U;
}
// * * * * * * * * * * * * * * * * * * * * * * * * * * * * * * * * * * * * * //

dimensions      [0 1 -1 0 0 0 0];

internalField   nonuniform List<vector> 
25600
(
(4.4969e-07 -4.52344e-07 0)
(2.74891e-06 -1.6014e-06 0)
(7.06966e-06 -2.10184e-06 0)
(1.16227e-05 -1.96794e-06 0)
(1.53004e-05 -1.53596e-06 0)
(1.75231e-05 -9.75138e-07 0)
(1.80075e-05 -3.61812e-07 0)
(1.6602e-05 2.75482e-07 0)
(1.32359e-05 9.06427e-07 0)
(7.89709e-06 1.52679e-06 0)
(6.08436e-07 2.12559e-06 0)
(-8.58662e-06 2.70049e-06 0)
(-1.9615e-05 3.24952e-06 0)
(-3.24062e-05 3.76645e-06 0)
(-4.68727e-05 4.25381e-06 0)
(-6.29229e-05 4.71184e-06 0)
(-8.04702e-05 5.13842e-06 0)
(-9.9417e-05 5.53581e-06 0)
(-0.00011967 5.90479e-06 0)
(-0.000141141 6.24317e-06 0)
(-0.000163736 6.55442e-06 0)
(-0.000187367 6.84198e-06 0)
(-0.00021195 7.10314e-06 0)
(-0.000237401 7.33871e-06 0)
(-0.000263637 7.55081e-06 0)
(-0.000290583 7.73888e-06 0)
(-0.000318164 7.90494e-06 0)
(-0.000346307 8.05285e-06 0)
(-0.000374944 8.1827e-06 0)
(-0.000404011 8.29319e-06 0)
(-0.000433444 8.38627e-06 0)
(-0.000463181 8.46366e-06 0)
(-0.000493169 8.52452e-06 0)
(-0.00052335 8.5694e-06 0)
(-0.000553673 8.60071e-06 0)
(-0.000584089 8.61886e-06 0)
(-0.00061455 8.62228e-06 0)
(-0.00064501 8.61186e-06 0)
(-0.000675426 8.59034e-06 0)
(-0.000705758 8.55879e-06 0)
(-0.000735966 8.51705e-06 0)
(-0.000766012 8.46534e-06 0)
(-0.00079586 8.40444e-06 0)
(-0.000825476 8.33414e-06 0)
(-0.000854826 8.25359e-06 0)
(-0.000883878 8.16359e-06 0)
(-0.0009126 8.0658e-06 0)
(-0.000940964 7.96068e-06 0)
(-0.00096894 7.8476e-06 0)
(-0.000996499 7.72637e-06 0)
(-0.00102361 7.59788e-06 0)
(-0.00105026 7.46269e-06 0)
(-0.00107641 7.32036e-06 0)
(-0.00110204 7.17055e-06 0)
(-0.00112711 7.01369e-06 0)
(-0.00115162 6.85025e-06 0)
(-0.00117553 6.67994e-06 0)
(-0.00119882 6.50242e-06 0)
(-0.00122146 6.31824e-06 0)
(-0.00124344 6.12809e-06 0)
(-0.00126472 5.93191e-06 0)
(-0.00128529 5.729e-06 0)
(-0.00130513 5.51902e-06 0)
(-0.0013242 5.30238e-06 0)
(-0.00134249 5.07964e-06 0)
(-0.00135997 4.85088e-06 0)
(-0.00137663 4.61606e-06 0)
(-0.00139244 4.37516e-06 0)
(-0.00140738 4.12818e-06 0)
(-0.00142143 3.87498e-06 0)
(-0.00143456 3.6153e-06 0)
(-0.00144676 3.3492e-06 0)
(-0.00145801 3.07725e-06 0)
(-0.00146828 2.80022e-06 0)
(-0.00147756 2.51838e-06 0)
(-0.00148583 2.23124e-06 0)
(-0.00149307 1.93825e-06 0)
(-0.00149926 1.63936e-06 0)
(-0.00150438 1.3352e-06 0)
(-0.00150842 1.0267e-06 0)
(-0.00151137 7.14341e-07 0)
(-0.0015132 3.97938e-07 0)
(-0.00151391 7.74525e-08 0)
(-0.00151348 -2.46758e-07 0)
(-0.0015119 -5.7436e-07 0)
(-0.00150916 -9.05058e-07 0)
(-0.00150525 -1.23842e-06 0)
(-0.00150017 -1.57392e-06 0)
(-0.0014939 -1.91093e-06 0)
(-0.00148645 -2.2489e-06 0)
(-0.0014778 -2.58758e-06 0)
(-0.00146797 -2.92685e-06 0)
(-0.00145695 -3.26631e-06 0)
(-0.00144474 -3.60518e-06 0)
(-0.00143134 -3.94244e-06 0)
(-0.00141677 -4.2773e-06 0)
(-0.00140104 -4.60947e-06 0)
(-0.00138414 -4.93865e-06 0)
(-0.0013661 -5.26416e-06 0)
(-0.00134694 -5.58499e-06 0)
(-0.00132666 -5.90028e-06 0)
(-0.00130529 -6.2094e-06 0)
(-0.00128286 -6.51185e-06 0)
(-0.00125939 -6.80701e-06 0)
(-0.0012349 -7.09397e-06 0)
(-0.00120942 -7.37181e-06 0)
(-0.001183 -7.63973e-06 0)
(-0.00115566 -7.89709e-06 0)
(-0.00112745 -8.14321e-06 0)
(-0.0010984 -8.37735e-06 0)
(-0.00106856 -8.59871e-06 0)
(-0.00103798 -8.80641e-06 0)
(-0.0010067 -8.99958e-06 0)
(-0.000974777 -9.17746e-06 0)
(-0.000942263 -9.33943e-06 0)
(-0.000909215 -9.48492e-06 0)
(-0.000875692 -9.61326e-06 0)
(-0.000841756 -9.72374e-06 0)
(-0.00080747 -9.81552e-06 0)
(-0.000772901 -9.88783e-06 0)
(-0.000738115 -9.94015e-06 0)
(-0.000703184 -9.97213e-06 0)
(-0.000668177 -9.98329e-06 0)
(-0.00063317 -9.97299e-06 0)
(-0.000598238 -9.94065e-06 0)
(-0.000563457 -9.88581e-06 0)
(-0.000528906 -9.80808e-06 0)
(-0.000494665 -9.70696e-06 0)
(-0.000460815 -9.58201e-06 0)
(-0.000427437 -9.43293e-06 0)
(-0.000394616 -9.25959e-06 0)
(-0.000362433 -9.06185e-06 0)
(-0.000330974 -8.83947e-06 0)
(-0.000300323 -8.59222e-06 0)
(-0.000270565 -8.31995e-06 0)
(-0.000241784 -8.02265e-06 0)
(-0.000214066 -7.70034e-06 0)
(-0.000187495 -7.353e-06 0)
(-0.000162153 -6.98065e-06 0)
(-0.000138124 -6.58357e-06 0)
(-0.000115489 -6.1622e-06 0)
(-9.43256e-05 -5.71701e-06 0)
(-7.47121e-05 -5.24821e-06 0)
(-5.67224e-05 -4.75613e-06 0)
(-4.04274e-05 -4.24157e-06 0)
(-2.58931e-05 -3.70582e-06 0)
(-1.31797e-05 -3.15041e-06 0)
(-2.33966e-06 -2.57722e-06 0)
(6.58454e-06 -1.98868e-06 0)
(1.35635e-05 -1.38839e-06 0)
(1.85856e-05 -7.81917e-07 0)
(2.16636e-05 -1.77366e-07 0)
(2.28432e-05 4.13314e-07 0)
(2.22171e-05 9.71618e-07 0)
(1.99469e-05 1.46837e-06 0)
(1.62943e-05 1.85698e-06 0)
(1.16631e-05 2.06288e-06 0)
(6.67387e-06 1.96436e-06 0)
(2.38263e-06 1.38154e-06 0)
(2.88375e-07 2.95182e-07 0)
(1.33992e-06 -2.67268e-06 0)
(6.32924e-06 -6.65928e-06 0)
(1.40287e-05 -8.16184e-06 0)
(2.15815e-05 -7.34268e-06 0)
(2.69094e-05 -5.11731e-06 0)
(2.87205e-05 -2.08743e-06 0)
(2.62209e-05 1.40138e-06 0)
(1.89002e-05 5.1288e-06 0)
(6.48053e-06 8.95949e-06 0)
(-1.11568e-05 1.2794e-05 0)
(-3.40261e-05 1.65681e-05 0)
(-6.20431e-05 2.02435e-05 0)
(-9.50853e-05 2.3783e-05 0)
(-0.000132973 2.71693e-05 0)
(-0.000175501 3.03896e-05 0)
(-0.000222455 3.34314e-05 0)
(-0.000273593 3.62945e-05 0)
(-0.000328673 3.89775e-05 0)
(-0.000387453 4.14768e-05 0)
(-0.00044968 4.37975e-05 0)
(-0.000515111 4.59427e-05 0)
(-0.000583508 4.79156e-05 0)
(-0.00065463 4.97227e-05 0)
(-0.000728246 5.13685e-05 0)
(-0.000804133 5.28572e-05 0)
(-0.000882071 5.41935e-05 0)
(-0.00096185 5.53853e-05 0)
(-0.00104327 5.64387e-05 0)
(-0.00112613 5.73592e-05 0)
(-0.00121025 5.81521e-05 0)
(-0.00129545 5.88237e-05 0)
(-0.00138155 5.93791e-05 0)
(-0.00146839 5.98225e-05 0)
(-0.00155581 6.01596e-05 0)
(-0.00164366 6.03965e-05 0)
(-0.0017318 6.05371e-05 0)
(-0.00182009 6.05844e-05 0)
(-0.00190839 6.05429e-05 0)
(-0.00199659 6.04176e-05 0)
(-0.00208455 6.02116e-05 0)
(-0.00217216 5.99286e-05 0)
(-0.00225932 5.95729e-05 0)
(-0.00234591 5.9147e-05 0)
(-0.00243183 5.8653e-05 0)
(-0.00251699 5.80928e-05 0)
(-0.00260128 5.74692e-05 0)
(-0.00268463 5.67851e-05 0)
(-0.00276693 5.60421e-05 0)
(-0.0028481 5.52418e-05 0)
(-0.00292806 5.43858e-05 0)
(-0.00300673 5.3476e-05 0)
(-0.00308403 5.25135e-05 0)
(-0.00315988 5.14989e-05 0)
(-0.00323421 5.04332e-05 0)
(-0.00330693 4.9318e-05 0)
(-0.00337799 4.81541e-05 0)
(-0.0034473 4.69415e-05 0)
(-0.00351479 4.56805e-05 0)
(-0.0035804 4.43723e-05 0)
(-0.00364406 4.30181e-05 0)
(-0.0037057 4.1618e-05 0)
(-0.00376525 4.01718e-05 0)
(-0.00382265 3.868e-05 0)
(-0.00387783 3.71433e-05 0)
(-0.00393072 3.55624e-05 0)
(-0.00398126 3.39373e-05 0)
(-0.00402939 3.22683e-05 0)
(-0.00407505 3.05565e-05 0)
(-0.00411816 2.88027e-05 0)
(-0.00415868 2.70071e-05 0)
(-0.00419654 2.51694e-05 0)
(-0.00423168 2.32903e-05 0)
(-0.00426404 2.13714e-05 0)
(-0.00429357 1.94139e-05 0)
(-0.00432021 1.74187e-05 0)
(-0.0043439 1.53866e-05 0)
(-0.00436461 1.33184e-05 0)
(-0.00438227 1.12154e-05 0)
(-0.00439683 9.07921e-06 0)
(-0.00440826 6.91161e-06 0)
(-0.00441651 4.71448e-06 0)
(-0.00442153 2.48964e-06 0)
(-0.00442329 2.39045e-07 0)
(-0.00442176 -2.03506e-06 0)
(-0.0044169 -4.33047e-06 0)
(-0.00440869 -6.64493e-06 0)
(-0.0043971 -8.9757e-06 0)
(-0.00438211 -1.13197e-05 0)
(-0.0043637 -1.36737e-05 0)
(-0.00434187 -1.60345e-05 0)
(-0.00431661 -1.8399e-05 0)
(-0.00428792 -2.07642e-05 0)
(-0.00425579 -2.31264e-05 0)
(-0.00422025 -2.54815e-05 0)
(-0.00418129 -2.78251e-05 0)
(-0.00413895 -3.0153e-05 0)
(-0.00409326 -3.24613e-05 0)
(-0.00404423 -3.47456e-05 0)
(-0.00399192 -3.70015e-05 0)
(-0.00393637 -3.92239e-05 0)
(-0.00387762 -4.14079e-05 0)
(-0.00381575 -4.35487e-05 0)
(-0.00375081 -4.56416e-05 0)
(-0.00368289 -4.76817e-05 0)
(-0.00361206 -4.96638e-05 0)
(-0.00353841 -5.15824e-05 0)
(-0.00346204 -5.34323e-05 0)
(-0.00338305 -5.52083e-05 0)
(-0.00330156 -5.69055e-05 0)
(-0.00321767 -5.85185e-05 0)
(-0.00313152 -6.0042e-05 0)
(-0.00304324 -6.14707e-05 0)
(-0.00295297 -6.27997e-05 0)
(-0.00286086 -6.40239e-05 0)
(-0.00276706 -6.51384e-05 0)
(-0.00267174 -6.61382e-05 0)
(-0.00257506 -6.70184e-05 0)
(-0.00247721 -6.77746e-05 0)
(-0.00237835 -6.84025e-05 0)
(-0.00227869 -6.8898e-05 0)
(-0.00217841 -6.92567e-05 0)
(-0.00207772 -6.94749e-05 0)
(-0.00197682 -6.95489e-05 0)
(-0.00187592 -6.94751e-05 0)
(-0.00177523 -6.92503e-05 0)
(-0.00167497 -6.88714e-05 0)
(-0.00157538 -6.83358e-05 0)
(-0.00147667 -6.76408e-05 0)
(-0.00137907 -6.67842e-05 0)
(-0.00128283 -6.5764e-05 0)
(-0.00118816 -6.45787e-05 0)
(-0.00109532 -6.32272e-05 0)
(-0.00100453 -6.17087e-05 0)
(-0.000916044 -6.00228e-05 0)
(-0.000830092 -5.81691e-05 0)
(-0.000746914 -5.61478e-05 0)
(-0.000666746 -5.39597e-05 0)
(-0.000589824 -5.16061e-05 0)
(-0.000516378 -4.90889e-05 0)
(-0.000446638 -4.64109e-05 0)
(-0.000380826 -4.35753e-05 0)
(-0.000319157 -4.05864e-05 0)
(-0.000261839 -3.74492e-05 0)
(-0.000209069 -3.41706e-05 0)
(-0.000161031 -3.07589e-05 0)
(-0.000117893 -2.72255e-05 0)
(-7.98009e-05 -2.35846e-05 0)
(-4.68776e-05 -1.98544e-05 0)
(-1.92106e-05 -1.6059e-05 0)
(3.15456e-06 -1.22298e-05 0)
(2.02282e-05 -8.40954e-06 0)
(3.20926e-05 -4.65637e-06 0)
(3.89246e-05 -1.0504e-06 0)
(4.1028e-05 2.2961e-06 0)
(3.88771e-05 5.2234e-06 0)
(3.31727e-05 7.50332e-06 0)
(2.48955e-05 8.81397e-06 0)
(1.53764e-05 8.70919e-06 0)
(6.62118e-06 6.63133e-06 0)
(1.367e-06 2.38273e-06 0)
(1.66604e-06 -6.50374e-06 0)
(7.33586e-06 -1.41433e-05 0)
(1.52809e-05 -1.6297e-05 0)
(2.20463e-05 -1.36775e-05 0)
(2.51393e-05 -7.82154e-06 0)
(2.29168e-05 1.16855e-07 0)
(1.42295e-05 9.35608e-06 0)
(-1.69048e-06 1.93594e-05 0)
(-2.53092e-05 2.9746e-05 0)
(-5.68681e-05 4.02423e-05 0)
(-9.64219e-05 5.06641e-05 0)
(-0.000143916 6.0867e-05 0)
(-0.000199184 7.07563e-05 0)
(-0.000261991 8.02674e-05 0)
(-0.000332061 8.93429e-05 0)
(-0.000409068 9.7959e-05 0)
(-0.000492669 0.000106096 0)
(-0.000582506 0.000113737 0)
(-0.000678203 0.000120886 0)
(-0.000779385 0.000127541 0)
(-0.000885678 0.000133704 0)
(-0.000996705 0.00013939 0)
(-0.0011121 0.000144607 0)
(-0.0012315 0.000149367 0)
(-0.00135456 0.000153685 0)
(-0.00148092 0.000157575 0)
(-0.00161027 0.00016105 0)
(-0.00174226 0.000164127 0)
(-0.00187661 0.000166823 0)
(-0.002013 0.000169151 0)
(-0.00215114 0.000171127 0)
(-0.00229077 0.000172767 0)
(-0.0024316 0.000174083 0)
(-0.0025734 0.00017509 0)
(-0.00271592 0.000175803 0)
(-0.00285891 0.000176235 0)
(-0.00300216 0.000176396 0)
(-0.00314545 0.0001763 0)
(-0.00328858 0.000175957 0)
(-0.00343134 0.000175377 0)
(-0.00357356 0.00017457 0)
(-0.00371503 0.000173546 0)
(-0.0038556 0.000172315 0)
(-0.00399509 0.000170882 0)
(-0.00413335 0.000169256 0)
(-0.0042702 0.000167444 0)
(-0.00440552 0.000165451 0)
(-0.00453913 0.000163285 0)
(-0.00467092 0.000160949 0)
(-0.00480073 0.000158448 0)
(-0.00492844 0.000155788 0)
(-0.00505391 0.000152972 0)
(-0.00517701 0.000150003 0)
(-0.00529764 0.000146884 0)
(-0.00541565 0.000143618 0)
(-0.00553093 0.000140209 0)
(-0.00564337 0.000136657 0)
(-0.00575285 0.000132964 0)
(-0.00585925 0.000129134 0)
(-0.00596247 0.000125167 0)
(-0.00606239 0.000121066 0)
(-0.0061589 0.000116831 0)
(-0.00625189 0.000112463 0)
(-0.00634127 0.000107965 0)
(-0.00642691 0.000103339 0)
(-0.00650873 9.85835e-05 0)
(-0.00658661 9.37015e-05 0)
(-0.00666046 8.86948e-05 0)
(-0.00673017 8.35655e-05 0)
(-0.00679564 7.83152e-05 0)
(-0.00685679 7.29453e-05 0)
(-0.00691351 6.74577e-05 0)
(-0.00696571 6.18554e-05 0)
(-0.0070133 5.61412e-05 0)
(-0.00705619 5.0318e-05 0)
(-0.0070943 4.43887e-05 0)
(-0.00712754 3.8357e-05 0)
(-0.00715584 3.2227e-05 0)
(-0.00717911 2.60032e-05 0)
(-0.00719729 1.96902e-05 0)
(-0.0072103 1.32928e-05 0)
(-0.00721809 6.81683e-06 0)
(-0.0072206 2.68392e-07 0)
(-0.00721776 -6.34602e-06 0)
(-0.00720953 -1.30197e-05 0)
(-0.00719587 -1.97457e-05 0)
(-0.00717674 -2.65162e-05 0)
(-0.00715211 -3.33229e-05 0)
(-0.00712195 -4.01566e-05 0)
(-0.00708626 -4.70083e-05 0)
(-0.00704502 -5.38683e-05 0)
(-0.00699823 -6.07269e-05 0)
(-0.0069459 -6.75737e-05 0)
(-0.00688805 -7.43971e-05 0)
(-0.00682469 -8.11854e-05 0)
(-0.00675587 -8.79267e-05 0)
(-0.00668164 -9.46089e-05 0)
(-0.00660203 -0.000101219 0)
(-0.00651713 -0.000107745 0)
(-0.00642701 -0.000114172 0)
(-0.00633174 -0.000120487 0)
(-0.00623144 -0.000126675 0)
(-0.00612621 -0.000132723 0)
(-0.00601616 -0.000138616 0)
(-0.00590144 -0.00014434 0)
(-0.00578219 -0.000149879 0)
(-0.00565855 -0.000155219 0)
(-0.0055307 -0.000160344 0)
(-0.00539883 -0.00016524 0)
(-0.00526311 -0.000169892 0)
(-0.00512375 -0.000174284 0)
(-0.00498098 -0.000178403 0)
(-0.00483501 -0.000182233 0)
(-0.00468608 -0.00018576 0)
(-0.00453444 -0.00018897 0)
(-0.00438036 -0.000191849 0)
(-0.00422411 -0.000194383 0)
(-0.00406596 -0.00019656 0)
(-0.00390622 -0.000198366 0)
(-0.00374517 -0.00019979 0)
(-0.00358314 -0.000200821 0)
(-0.00342045 -0.000201447 0)
(-0.00325741 -0.000201658 0)
(-0.00309438 -0.000201443 0)
(-0.00293169 -0.000200794 0)
(-0.0027697 -0.000199701 0)
(-0.00260876 -0.000198159 0)
(-0.00244924 -0.00019616 0)
(-0.0022915 -0.000193697 0)
(-0.00213591 -0.000190767 0)
(-0.00198285 -0.000187363 0)
(-0.0018327 -0.000183485 0)
(-0.00168583 -0.00017913 0)
(-0.00154262 -0.000174297 0)
(-0.00140345 -0.000168986 0)
(-0.0012687 -0.000163201 0)
(-0.00113875 -0.000156942 0)
(-0.00101395 -0.000150217 0)
(-0.00089467 -0.000143031 0)
(-0.000781272 -0.000135394 0)
(-0.000674097 -0.000127318 0)
(-0.000573478 -0.000118818 0)
(-0.000479732 -0.000109911 0)
(-0.000393156 -0.000100621 0)
(-0.000314026 -9.09759e-05 0)
(-0.000242587 -8.1013e-05 0)
(-0.000179048 -7.07782e-05 0)
(-0.000123574 -6.033e-05 0)
(-7.62726e-05 -4.97432e-05 0)
(-3.71822e-05 -3.91144e-05 0)
(-6.25171e-06 -2.85697e-05 0)
(1.66821e-05 -1.82754e-05 0)
(3.19248e-05 -8.4519e-06 0)
(3.99642e-05 6.06054e-07 0)
(4.15192e-05 8.50262e-06 0)
(3.7599e-05 1.47083e-05 0)
(2.95446e-05 1.85283e-05 0)
(1.90751e-05 1.90865e-05 0)
(8.69037e-06 1.53787e-05 0)
(1.95008e-06 6.65835e-06 0)
(1.65744e-06 -1.05723e-05 0)
(6.67608e-06 -2.12571e-05 0)
(1.26925e-05 -2.29365e-05 0)
(1.60458e-05 -1.71189e-05 0)
(1.41191e-05 -5.95433e-06 0)
(5.09263e-06 8.84343e-06 0)
(-1.23425e-05 2.60303e-05 0)
(-3.91221e-05 4.4693e-05 0)
(-7.58439e-05 6.41525e-05 0)
(-0.000122822 8.39222e-05 0)
(-0.000180184 0.000103627 0)
(-0.000247876 0.000123001 0)
(-0.000325729 0.000141853 0)
(-0.000413481 0.000160032 0)
(-0.000510789 0.000177445 0)
(-0.000617262 0.000194018 0)
(-0.000732477 0.000209701 0)
(-0.000855973 0.000224472 0)
(-0.000987279 0.000238316 0)
(-0.00112592 0.000251228 0)
(-0.00127139 0.000263215 0)
(-0.00142323 0.000274289 0)
(-0.00158093 0.000284465 0)
(-0.00174404 0.000293766 0)
(-0.00191207 0.000302217 0)
(-0.00208459 0.00030984 0)
(-0.00226114 0.000316664 0)
(-0.00244129 0.000322717 0)
(-0.00262464 0.000328025 0)
(-0.00281077 0.000332619 0)
(-0.0029993 0.000336527 0)
(-0.00318986 0.000339775 0)
(-0.00338208 0.000342392 0)
(-0.00357562 0.000344403 0)
(-0.00377014 0.000345834 0)
(-0.00396534 0.00034671 0)
(-0.0041609 0.000347054 0)
(-0.00435653 0.00034689 0)
(-0.00455194 0.000346238 0)
(-0.00474688 0.000345118 0)
(-0.00494106 0.00034355 0)
(-0.00513426 0.000341551 0)
(-0.00532622 0.000339139 0)
(-0.00551671 0.000336328 0)
(-0.00570551 0.000333134 0)
(-0.00589241 0.000329569 0)
(-0.00607719 0.000325647 0)
(-0.00625966 0.000321378 0)
(-0.00643962 0.000316772 0)
(-0.00661688 0.000311841 0)
(-0.00679126 0.000306591 0)
(-0.00696257 0.000301032 0)
(-0.00713064 0.000295168 0)
(-0.0072953 0.000289008 0)
(-0.00745638 0.000282557 0)
(-0.00761372 0.00027582 0)
(-0.00776715 0.000268802 0)
(-0.00791652 0.000261507 0)
(-0.00806167 0.000253939 0)
(-0.00820245 0.000246102 0)
(-0.0083387 0.000237998 0)
(-0.00847027 0.000229631 0)
(-0.00859703 0.000221004 0)
(-0.00871882 0.00021212 0)
(-0.00883549 0.000202983 0)
(-0.00894691 0.000193594 0)
(-0.00905294 0.000183957 0)
(-0.00915344 0.000174076 0)
(-0.00924827 0.000163954 0)
(-0.0093373 0.000153595 0)
(-0.0094204 0.000143002 0)
(-0.00949744 0.00013218 0)
(-0.0095683 0.000121136 0)
(-0.00963285 0.000109874 0)
(-0.00969097 9.83988e-05 0)
(-0.00974255 8.6718e-05 0)
(-0.00978748 7.48389e-05 0)
(-0.00982565 6.277e-05 0)
(-0.00985696 5.05198e-05 0)
(-0.00988132 3.80972e-05 0)
(-0.00989862 2.55121e-05 0)
(-0.0099088 1.2776e-05 0)
(-0.00991176 -9.9133e-08 0)
(-0.00990745 -1.31007e-05 0)
(-0.00989578 -2.62152e-05 0)
(-0.00987672 -3.94284e-05 0)
(-0.0098502 -5.27252e-05 0)
(-0.0098162 -6.60892e-05 0)
(-0.00977467 -7.9503e-05 0)
(-0.00972561 -9.29486e-05 0)
(-0.009669 -0.000106407 0)
(-0.00960485 -0.00011986 0)
(-0.00953317 -0.000133284 0)
(-0.00945397 -0.00014666 0)
(-0.00936731 -0.000159963 0)
(-0.00927323 -0.000173172 0)
(-0.00917179 -0.000186261 0)
(-0.00906306 -0.000199207 0)
(-0.00894715 -0.000211984 0)
(-0.00882415 -0.000224564 0)
(-0.00869418 -0.000236923 0)
(-0.00855738 -0.000249031 0)
(-0.0084139 -0.000260863 0)
(-0.0082639 -0.000272389 0)
(-0.00810756 -0.000283581 0)
(-0.00794508 -0.00029441 0)
(-0.00777667 -0.000304847 0)
(-0.00760255 -0.000314864 0)
(-0.00742299 -0.000324431 0)
(-0.00723822 -0.000333519 0)
(-0.00704854 -0.000342099 0)
(-0.00685422 -0.000350142 0)
(-0.00665559 -0.000357621 0)
(-0.00645295 -0.000364506 0)
(-0.00624666 -0.000370772 0)
(-0.00603706 -0.000376391 0)
(-0.00582452 -0.000381337 0)
(-0.00560943 -0.000385584 0)
(-0.00539217 -0.000389108 0)
(-0.00517315 -0.000391887 0)
(-0.0049528 -0.000393897 0)
(-0.00473155 -0.000395117 0)
(-0.00450985 -0.000395528 0)
(-0.00428814 -0.000395109 0)
(-0.00406689 -0.000393845 0)
(-0.00384657 -0.000391718 0)
(-0.00362767 -0.000388716 0)
(-0.00341066 -0.000384824 0)
(-0.00319605 -0.000380032 0)
(-0.00298434 -0.000374331 0)
(-0.00277602 -0.000367713 0)
(-0.00257159 -0.000360175 0)
(-0.00237157 -0.000351712 0)
(-0.00217647 -0.000342325 0)
(-0.00198678 -0.000332016 0)
(-0.001803 -0.00032079 0)
(-0.00162563 -0.000308655 0)
(-0.00145517 -0.000295623 0)
(-0.00129208 -0.000281709 0)
(-0.00113684 -0.000266935 0)
(-0.000989889 -0.000251325 0)
(-0.00085167 -0.000234912 0)
(-0.000722589 -0.000217736 0)
(-0.000603025 -0.000199847 0)
(-0.000493326 -0.000181305 0)
(-0.000393796 -0.000162186 0)
(-0.000304689 -0.000142587 0)
(-0.000226197 -0.000122625 0)
(-0.000158433 -0.000102452 0)
(-0.000101418 -8.22585e-05 0)
(-5.50577e-05 -6.22872e-05 0)
(-1.91144e-05 -4.28514e-05 0)
(6.82372e-06 -2.4355e-05 0)
(2.33828e-05 -7.32071e-06 0)
(3.1451e-05 7.57469e-06 0)
(3.22324e-05 1.9461e-05 0)
(2.72818e-05 2.72379e-05 0)
(1.85453e-05 2.95618e-05 0)
(8.80133e-06 2.48923e-05 0)
(2.05093e-06 1.16329e-05 0)
(1.38473e-06 -1.39248e-05 0)
(4.77529e-06 -2.6177e-05 0)
(7.20502e-06 -2.57837e-05 0)
(5.17167e-06 -1.51105e-05 0)
(-3.89403e-06 3.07269e-06 0)
(-2.18393e-05 2.65391e-05 0)
(-5.00496e-05 5.35846e-05 0)
(-8.95288e-05 8.29063e-05 0)
(-0.000140927 0.000113538 0)
(-0.000204631 0.000144718 0)
(-0.000280789 0.000175891 0)
(-0.000369366 0.000206632 0)
(-0.000470193 0.000236615 0)
(-0.000582977 0.000265612 0)
(-0.000707339 0.00029345 0)
(-0.000842842 0.000320003 0)
(-0.000988986 0.000345189 0)
(-0.00114524 0.000368955 0)
(-0.00131106 0.000391265 0)
(-0.00148586 0.000412113 0)
(-0.00166907 0.000431499 0)
(-0.00186011 0.000449434 0)
(-0.00205839 0.000465942 0)
(-0.00226335 0.00048105 0)
(-0.00247442 0.000494792 0)
(-0.00269103 0.000507208 0)
(-0.00291266 0.000518336 0)
(-0.00313878 0.000528218 0)
(-0.00336887 0.000536898 0)
(-0.00360243 0.000544421 0)
(-0.003839 0.000550828 0)
(-0.0040781 0.000556163 0)
(-0.00431928 0.000560469 0)
(-0.00456213 0.000563789 0)
(-0.00480622 0.000566161 0)
(-0.00505115 0.000567625 0)
(-0.00529655 0.000568218 0)
(-0.00554204 0.000567977 0)
(-0.00578728 0.000566934 0)
(-0.00603191 0.000565124 0)
(-0.00627562 0.000562577 0)
(-0.00651808 0.000559321 0)
(-0.006759 0.000555384 0)
(-0.00699808 0.00055079 0)
(-0.00723505 0.000545564 0)
(-0.00746961 0.000539727 0)
(-0.00770153 0.000533299 0)
(-0.00793053 0.000526299 0)
(-0.00815637 0.000518744 0)
(-0.00837881 0.000510651 0)
(-0.00859762 0.000502032 0)
(-0.00881257 0.000492902 0)
(-0.00902344 0.000483271 0)
(-0.00923001 0.000473152 0)
(-0.00943207 0.000462553 0)
(-0.00962941 0.000451483 0)
(-0.00982183 0.00043995 0)
(-0.0100091 0.000427961 0)
(-0.0101911 0.000415525 0)
(-0.0103676 0.000402646 0)
(-0.0105383 0.00038933 0)
(-0.0107032 0.000375583 0)
(-0.010862 0.00036141 0)
(-0.0110145 0.000346817 0)
(-0.0111606 0.000331808 0)
(-0.0113001 0.000316389 0)
(-0.0114327 0.000300566 0)
(-0.0115584 0.000284344 0)
(-0.011677 0.00026773 0)
(-0.0117883 0.000250729 0)
(-0.0118921 0.000233348 0)
(-0.0119883 0.000215597 0)
(-0.0120767 0.000197483 0)
(-0.0121572 0.000179016 0)
(-0.0122296 0.000160206 0)
(-0.0122938 0.000141062 0)
(-0.0123496 0.000121599 0)
(-0.012397 0.000101829 0)
(-0.0124357 8.17658e-05 0)
(-0.0124657 6.14261e-05 0)
(-0.0124869 4.0826e-05 0)
(-0.0124991 1.99837e-05 0)
(-0.0125023 -1.08097e-06 0)
(-0.0124964 -2.23473e-05 0)
(-0.0124812 -4.37935e-05 0)
(-0.0124568 -6.5396e-05 0)
(-0.0124231 -8.71295e-05 0)
(-0.01238 -0.000108967 0)
(-0.0123274 -0.000130881 0)
(-0.0122655 -0.000152842 0)
(-0.0121941 -0.000174819 0)
(-0.0121133 -0.000196781 0)
(-0.0120231 -0.000218692 0)
(-0.0119235 -0.000240518 0)
(-0.0118145 -0.000262221 0)
(-0.0116963 -0.000283766 0)
(-0.0115689 -0.000305112 0)
(-0.0114324 -0.000326218 0)
(-0.011287 -0.000347045 0)
(-0.0111327 -0.000367548 0)
(-0.0109697 -0.000387686 0)
(-0.0107982 -0.000407413 0)
(-0.0106184 -0.000426684 0)
(-0.0104305 -0.000445455 0)
(-0.0102346 -0.000463679 0)
(-0.0100312 -0.000481309 0)
(-0.00982029 -0.000498298 0)
(-0.00960232 -0.0005146 0)
(-0.00937755 -0.000530168 0)
(-0.00914632 -0.000544954 0)
(-0.00890897 -0.000558912 0)
(-0.00866586 -0.000571995 0)
(-0.00841737 -0.000584158 0)
(-0.00816391 -0.000595355 0)
(-0.00790589 -0.000605543 0)
(-0.00764376 -0.000614679 0)
(-0.00737798 -0.00062272 0)
(-0.00710901 -0.000629625 0)
(-0.00683736 -0.000635355 0)
(-0.00656352 -0.000639873 0)
(-0.00628801 -0.000643143 0)
(-0.00601138 -0.00064513 0)
(-0.00573417 -0.000645802 0)
(-0.00545695 -0.00064513 0)
(-0.00518029 -0.000643085 0)
(-0.00490478 -0.000639644 0)
(-0.00463101 -0.000634782 0)
(-0.00435957 -0.00062848 0)
(-0.00409109 -0.000620722 0)
(-0.00382618 -0.000611494 0)
(-0.00356544 -0.000600785 0)
(-0.00330952 -0.000588588 0)
(-0.00305902 -0.000574901 0)
(-0.00281456 -0.000559725 0)
(-0.00257678 -0.000543064 0)
(-0.00234627 -0.000524931 0)
(-0.00212364 -0.000505339 0)
(-0.00190948 -0.000484312 0)
(-0.00170439 -0.000461877 0)
(-0.00150891 -0.000438072 0)
(-0.0013236 -0.000412943 0)
(-0.00114897 -0.000386545 0)
(-0.000985501 -0.00035895 0)
(-0.00083365 -0.000330242 0)
(-0.000693818 -0.000300527 0)
(-0.000566357 -0.000269935 0)
(-0.000451553 -0.000238626 0)
(-0.000349614 -0.000206795 0)
(-0.000260654 -0.00017469 0)
(-0.000184676 -0.000142616 0)
(-0.000121547 -0.000110958 0)
(-7.09711e-05 -8.02002e-05 0)
(-3.24599e-05 -5.09526e-05 0)
(-5.29295e-06 -2.39872e-05 0)
(1.15236e-05 -2.764e-07 0)
(1.93047e-05 1.89626e-05 0)
(1.97179e-05 3.22221e-05 0)
(1.48306e-05 3.76789e-05 0)
(7.52235e-06 3.32002e-05 0)
(1.84878e-06 1.62552e-05 0)
(9.36131e-07 -1.60417e-05 0)
(2.00789e-06 -2.77749e-05 0)
(-3.72228e-07 -2.33493e-05 0)
(-9.27687e-06 -5.96758e-06 0)
(-2.70749e-05 2.10562e-05 0)
(-5.55728e-05 5.49967e-05 0)
(-9.61453e-05 9.3718e-05 0)
(-0.000149779 0.000135575 0)
(-0.000217154 0.000179262 0)
(-0.000298665 0.000223786 0)
(-0.000394469 0.00026837 0)
(-0.000504546 0.000312415 0)
(-0.000628706 0.000355469 0)
(-0.00076664 0.00039719 0)
(-0.000917945 0.000437318 0)
(-0.00108213 0.000475669 0)
(-0.00125865 0.000512112 0)
(-0.00144691 0.000546554 0)
(-0.0016463 0.000578943 0)
(-0.00185616 0.000609251 0)
(-0.00207584 0.000637472 0)
(-0.00230468 0.000663619 0)
(-0.00254201 0.000687716 0)
(-0.00278717 0.000709798 0)
(-0.00303951 0.000729908 0)
(-0.00329839 0.000748097 0)
(-0.00356318 0.000764418 0)
(-0.00383326 0.000778928 0)
(-0.00410803 0.000791688 0)
(-0.00438692 0.000802757 0)
(-0.00466936 0.000812197 0)
(-0.00495481 0.000820068 0)
(-0.00524274 0.00082643 0)
(-0.00553264 0.000831344 0)
(-0.00582402 0.000834865 0)
(-0.0061164 0.00083705 0)
(-0.00640934 0.000837953 0)
(-0.0067024 0.000837623 0)
(-0.00699515 0.000836111 0)
(-0.00728718 0.000833465 0)
(-0.00757811 0.000829727 0)
(-0.00786756 0.000824941 0)
(-0.00815516 0.000819145 0)
(-0.00844057 0.000812376 0)
(-0.00872345 0.000804669 0)
(-0.00900346 0.000796056 0)
(-0.00928029 0.000786566 0)
(-0.00955365 0.000776227 0)
(-0.00982322 0.000765064 0)
(-0.0100887 0.000753101 0)
(-0.0103499 0.000740359 0)
(-0.0106064 0.000726856 0)
(-0.010858 0.000712613 0)
(-0.0111045 0.000697643 0)
(-0.0113456 0.000681963 0)
(-0.011581 0.000665584 0)
(-0.0118105 0.00064852 0)
(-0.0120339 0.000630783 0)
(-0.0122509 0.000612381 0)
(-0.0124613 0.000593326 0)
(-0.0126648 0.000573625 0)
(-0.0128613 0.000553288 0)
(-0.0130505 0.000532324 0)
(-0.0132322 0.000510739 0)
(-0.0134062 0.000488543 0)
(-0.0135722 0.000465743 0)
(-0.0137302 0.000442348 0)
(-0.0138798 0.000418368 0)
(-0.0140208 0.000393812 0)
(-0.0141531 0.000368689 0)
(-0.0142765 0.000343011 0)
(-0.0143907 0.00031679 0)
(-0.0144957 0.000290038 0)
(-0.0145912 0.00026277 0)
(-0.014677 0.000235001 0)
(-0.014753 0.000206747 0)
(-0.014819 0.000178028 0)
(-0.0148749 0.000148862 0)
(-0.0149205 0.000119271 0)
(-0.0149557 8.92778e-05 0)
(-0.0149804 5.8908e-05 0)
(-0.0149944 2.81885e-05 0)
(-0.0149976 -2.85185e-06 0)
(-0.0149899 -3.41825e-05 0)
(-0.0149712 -6.57709e-05 0)
(-0.0149416 -9.75823e-05 0)
(-0.0149008 -0.000129579 0)
(-0.0148488 -0.000161723 0)
(-0.0147857 -0.000193972 0)
(-0.0147113 -0.000226283 0)
(-0.0146257 -0.000258611 0)
(-0.0145289 -0.000290908 0)
(-0.0144209 -0.000323125 0)
(-0.0143017 -0.00035521 0)
(-0.0141715 -0.000387109 0)
(-0.0140302 -0.000418768 0)
(-0.0138781 -0.000450129 0)
(-0.0137151 -0.000481133 0)
(-0.0135415 -0.000511719 0)
(-0.0133575 -0.000541826 0)
(-0.0131631 -0.00057139 0)
(-0.0129586 -0.000600347 0)
(-0.0127442 -0.000628631 0)
(-0.0125202 -0.000656175 0)
(-0.0122868 -0.000682912 0)
(-0.0120444 -0.000708775 0)
(-0.0117932 -0.000733694 0)
(-0.0115336 -0.000757602 0)
(-0.011266 -0.00078043 0)
(-0.0109907 -0.000802109 0)
(-0.0107081 -0.000822571 0)
(-0.0104187 -0.00084175 0)
(-0.010123 -0.000859577 0)
(-0.00982135 -0.000875989 0)
(-0.00951433 -0.000890921 0)
(-0.00920243 -0.000904309 0)
(-0.0088862 -0.000916093 0)
(-0.0085662 -0.000926214 0)
(-0.00824301 -0.000934615 0)
(-0.00791723 -0.00094124 0)
(-0.00758947 -0.000946039 0)
(-0.00726037 -0.000948962 0)
(-0.00693058 -0.000949962 0)
(-0.00660075 -0.000948996 0)
(-0.00627157 -0.000946026 0)
(-0.00594372 -0.000941015 0)
(-0.0056179 -0.000933931 0)
(-0.00529482 -0.000924746 0)
(-0.0049752 -0.000913438 0)
(-0.00465975 -0.000899987 0)
(-0.0043492 -0.00088438 0)
(-0.00404428 -0.000866609 0)
(-0.00374571 -0.000846672 0)
(-0.00345423 -0.000824573 0)
(-0.00317054 -0.000800321 0)
(-0.00289536 -0.000773936 0)
(-0.0026294 -0.000745443 0)
(-0.00237333 -0.000714879 0)
(-0.00212784 -0.000682289 0)
(-0.00189357 -0.000647732 0)
(-0.00167114 -0.000611279 0)
(-0.00146114 -0.000573019 0)
(-0.00126412 -0.000533061 0)
(-0.0010806 -0.000491535 0)
(-0.000911012 -0.000448602 0)
(-0.000755756 -0.000404456 0)
(-0.000615141 -0.000359335 0)
(-0.000489387 -0.00031353 0)
(-0.00037861 -0.000267394 0)
(-0.000282797 -0.000221369 0)
(-0.000201788 -0.000175993 0)
(-0.00013525 -0.000131936 0)
(-8.26462e-05 -9.00289e-05 0)
(-4.32029e-05 -5.12979e-05 0)
(-1.5872e-05 -1.7013e-05 0)
(7.08319e-07 1.12646e-05 0)
(8.24438e-06 3.16285e-05 0)
(8.83854e-06 4.17842e-05 0)
(5.31406e-06 3.9012e-05 0)
(1.46937e-06 1.99209e-05 0)
(3.85448e-07 -1.65616e-05 0)
(-1.30762e-06 -2.52035e-05 0)
(-9.35789e-06 -1.45138e-05 0)
(-2.62075e-05 1.16199e-05 0)
(-5.3927e-05 4.93797e-05 0)
(-9.42202e-05 9.5604e-05 0)
(-0.00014836 0.000147787 0)
(-0.000217303 0.000203918 0)
(-0.000301685 0.000262417 0)
(-0.000401878 0.00032203 0)
(-0.000518041 0.000381766 0)
(-0.000650129 0.000440855 0)
(-0.00079794 0.000498701 0)
(-0.000961146 0.000554838 0)
(-0.0011393 0.000608919 0)
(-0.00133189 0.000660686 0)
(-0.00153832 0.000709949 0)
(-0.00175795 0.000756578 0)
(-0.0019901 0.000800487 0)
(-0.00223406 0.00084163 0)
(-0.00248911 0.000879989 0)
(-0.00275451 0.000915571 0)
(-0.00302952 0.0009484 0)
(-0.00331342 0.000978518 0)
(-0.00360547 0.00100598 0)
(-0.00390495 0.00103083 0)
(-0.00421115 0.00105316 0)
(-0.00452338 0.00107303 0)
(-0.00484097 0.00109052 0)
(-0.00516326 0.00110571 0)
(-0.0054896 0.00111868 0)
(-0.00581938 0.0011295 0)
(-0.006152 0.00113825 0)
(-0.00648687 0.00114502 0)
(-0.00682344 0.00114988 0)
(-0.00716116 0.00115291 0)
(-0.00749951 0.00115417 0)
(-0.00783798 0.00115374 0)
(-0.0081761 0.00115167 0)
(-0.00851339 0.00114805 0)
(-0.0088494 0.00114291 0)
(-0.00918369 0.00113633 0)
(-0.00951585 0.00112835 0)
(-0.00984547 0.00111903 0)
(-0.0101722 0.00110841 0)
(-0.0104955 0.00109653 0)
(-0.0108152 0.00108344 0)
(-0.0111309 0.00106918 0)
(-0.0114421 0.00105377 0)
(-0.0117487 0.00103726 0)
(-0.0120502 0.00101966 0)
(-0.0123464 0.00100102 0)
(-0.0126368 0.000981345 0)
(-0.0129214 0.000960667 0)
(-0.0131996 0.000939005 0)
(-0.0134713 0.000916378 0)
(-0.0137361 0.000892804 0)
(-0.0139938 0.000868298 0)
(-0.0142442 0.000842876 0)
(-0.0144868 0.000816551 0)
(-0.0147216 0.000789336 0)
(-0.0149481 0.000761245 0)
(-0.0151662 0.000732288 0)
(-0.0153756 0.000702479 0)
(-0.0155761 0.000671828 0)
(-0.0157674 0.000640348 0)
(-0.0159493 0.000608052 0)
(-0.0161215 0.000574951 0)
(-0.0162838 0.000541061 0)
(-0.016436 0.000506395 0)
(-0.0165779 0.000470969 0)
(-0.0167092 0.0004348 0)
(-0.0168298 0.000397907 0)
(-0.0169394 0.000360309 0)
(-0.0170379 0.000322027 0)
(-0.017125 0.000283085 0)
(-0.0172005 0.00024351 0)