/*--------------------------------*- C++ -*----------------------------------*\
  =========                 |
  \\      /  F ield         | OpenFOAM: The Open Source CFD Toolbox
   \\    /   O peration     | Website:  https://openfoam.org
    \\  /    A nd           | Version:  7
     \\/     M anipulation  |
\*---------------------------------------------------------------------------*/
FoamFile
{
    version     2.0;
    format      ascii;
    class       volScalarField;
    location    "0.3125";
    object      p;
}
// * * * * * * * * * * * * * * * * * * * * * * * * * * * * * * * * * * * * * //

dimensions      [0 2 -2 0 0 0 0];

internalField   nonuniform List<scalar> 
25600
(
6.00349e-10
4.13061e-06
-2.26027e-06
-2.07418e-05
-5.04314e-05
-9.05877e-05
-0.000139898
-0.00019685
-0.000259976
-0.000327913
-0.000399411
-0.000473335
-0.000548662
-0.000624491
-0.000700022
-0.000774549
-0.00084744
-0.000918132
-0.000986128
-0.00105099
-0.00111236
-0.00116989
-0.00122332
-0.00127238
-0.00131687
-0.00135658
-0.00139138
-0.00142111
-0.00144568
-0.00146499
-0.00147896
-0.00148753
-0.00149066
-0.00148832
-0.00148048
-0.00146712
-0.00144824
-0.00142384
-0.00139393
-0.00135851
-0.0013176
-0.00127122
-0.0012194
-0.00116218
-0.00109957
-0.00103161
-0.000958349
-0.000879819
-0.000796062
-0.000707126
-0.000613059
-0.000513913
-0.000409743
-0.000300612
-0.000186586
-6.77292e-05
5.58903e-05
0.000184196
0.000317102
0.000454524
0.000596377
0.000742563
0.000892978
0.00104751
0.00120604
0.00136845
0.0015346
0.00170437
0.0018776
0.00205414
0.00223384
0.00241651
0.00260198
0.00279004
0.00298052
0.00317319
0.00336786
0.00356427
0.00376221
0.00396141
0.00416164
0.00436263
0.00456412
0.00476583
0.00496747
0.00516876
0.00536938
0.00556905
0.00576746
0.00596429
0.00615925
0.006352
0.00654221
0.00672957
0.00691375
0.00709443
0.00727131
0.00744406
0.00761237
0.00777594
0.00793446
0.00808765
0.00823521
0.00837688
0.00851239
0.00864151
0.00876398
0.0088796
0.00898814
0.00908943
0.00918328
0.00926954
0.00934809
0.0094188
0.0094816
0.00953641
0.00958317
0.00962188
0.00965254
0.00967517
0.00968982
0.00969658
0.00969555
0.00968687
0.00967068
0.00964718
0.00961658
0.00957912
0.00953506
0.0094847
0.00942834
0.00936635
0.00929908
0.00922694
0.00915035
0.00906976
0.00898565
0.00889852
0.00880891
0.00871737
0.00862449
0.00853087
0.00843716
0.00834403
0.00825218
0.00816233
0.00807527
0.00799178
0.0079127
0.00783891
0.00777129
0.00771079
0.00765833
0.00761484
0.00758115
0.00755792
0.00754541
0.00754314
0.00754942
0.00755963
-9.66726e-06
-5.27211e-06
-1.1833e-05
-2.91543e-05
-5.60038e-05
-9.1765e-05
-0.000135525
-0.000186136
-0.000242406
-0.000303191
-0.000367418
-0.000434079
-0.000502251
-0.000571096
-0.000639862
-0.000707877
-0.000774541
-0.000839317
-0.000901721
-0.000961322
-0.00101775
-0.00107066
-0.00111979
-0.00116487
-0.00120567
-0.00124202
-0.00127373
-0.00130068
-0.00132274
-0.0013398
-0.00135179
-0.00135862
-0.00136027
-0.00135667
-0.00134779
-0.00133363
-0.00131415
-0.00128936
-0.00125925
-0.00122383
-0.0011831
-0.00113709
-0.00108581
-0.00102929
-0.00096756
-0.000900651
-0.000828599
-0.000751439
-0.000669208
-0.000581952
-0.000489721
-0.000392564
-0.000290533
-0.000183691
-7.21016e-05
4.41741e-05
0.000165066
0.000290497
0.00042038
0.000554634
0.000693173
0.0008359
0.000982713
0.0011335
0.00128815
0.00144654
0.00160854
0.00177401
0.00194281
0.00211479
0.0022898
0.00246766
0.0026482
0.00283122
0.00301653
0.00320394
0.00339324
0.00358419
0.00377657
0.00397013
0.00416464
0.00435986
0.00455551
0.00475134
0.00494706
0.00514238
0.00533703
0.00553072
0.00572315
0.00591402
0.00610304
0.0062899
0.00647427
0.00665585
0.00683433
0.00700942
0.0071808
0.00734818
0.00751127
0.00766975
0.00782335
0.0079718
0.00811481
0.00825215
0.00838355
0.00850878
0.00862762
0.00873986
0.0088453
0.00894377
0.00903509
0.00911914
0.00919578
0.00926492
0.00932646
0.00938036
0.00942656
0.00946506
0.00949586
0.00951899
0.0095345
0.00954249
0.00954305
0.00953631
0.00952244
0.00950161
0.00947402
0.00943993
0.00939958
0.00935326
0.00930127
0.00924396
0.00918167
0.00911481
0.00904376
0.00896898
0.00889091
0.00881006
0.00872691
0.00864202
0.00855594
0.00846925
0.00838255
0.00829649
0.00821172
0.00812893
0.00804883
0.00797215
0.00789965
0.00783211
0.00777032
0.00771506
0.00766711
0.00762718
0.00759588
0.00757363
0.00756046
0.00755593
0.00755963
0.00756985
-1.11805e-05
-4.85724e-06
-1.03676e-05
-2.65053e-05
-5.13555e-05
-8.41951e-05
-0.000124231
-0.000170485
-0.000221935
-0.000277581
-0.000336471
-0.000397714
-0.00046047
-0.000523969
-0.000587502
-0.00065043
-0.000712184
-0.000772254
-0.000830176
-0.000885533
-0.000937953
-0.000987106
-0.00103271
-0.0010745
-0.00111227
-0.00114582
-0.00117497
-0.00119958
-0.00121953
-0.0012347
-0.00124501
-0.00125037
-0.00125074
-0.00124607
-0.00123631
-0.00122144
-0.00120145
-0.00117631
-0.00114602
-0.00111058
-0.00106999
-0.00102428
-0.000973453
-0.000917535
-0.00085655
-0.00079053
-0.000719507
-0.000643513
-0.000562582
-0.000476761
-0.000386095
-0.000290634
-0.000190432
-8.55477e-05
2.39585e-05
0.000138026
0.000256586
0.000379558
0.00050686
0.00063841
0.000774126
0.000913912
0.00105766
0.00120527
0.00135662
0.00151159
0.00167006
0.00183189
0.00199695
0.00216509
0.00233613
0.00250993
0.00268631
0.00286508
0.00304606
0.00322904
0.00341383
0.0036002
0.00378793
0.00397678
0.00416652
0.00435691
0.0045477
0.00473862
0.00492941
0.00511978
0.00530947
0.00549819
0.00568566
0.0058716
0.00605571
0.00623768
0.00641722
0.00659403
0.00676781
0.00693828
0.00710514
0.0072681
0.00742687
0.00758117
0.00773073
0.00787528
0.00801456
0.00814833
0.00827635
0.00839839
0.00851425
0.00862372
0.00872661
0.00882276
0.00891201
0.00899423
0.0090693
0.00913713
0.00919764
0.00925077
0.0092965
0.0093348
0.00936569
0.0093892
0.00940539
0.00941435
0.00941617
0.00941099
0.00939896
0.00938026
0.00935509
0.0093237
0.00928632
0.00924323
0.00919474
0.00914117
0.00908288
0.00902022
0.00895361
0.00888346
0.00881022
0.00873435
0.00865635
0.00857672
0.00849602
0.00841478
0.0083336
0.00825308
0.00817382
0.00809649
0.00802174
0.00795026
0.00788273
0.00781986
0.00776236
0.00771093
0.00766621
0.00762881
0.00759924
0.00757787
0.00756472
0.00755959
0.00756333
0.00757615
2.07899e-07
6.84551e-06
1.5851e-06
-1.39964e-05
-3.77461e-05
-6.8842e-05
-0.000106498
-0.000149823
-0.000197906
-0.000249851
-0.0003048
-0.000361941
-0.000420517
-0.00047982
-0.000539194
-0.000598037
-0.000655807
-0.000712012
-0.000766218
-0.000818023
-0.000867067
-0.000913032
-0.000955632
-0.000994616
-0.00102977
-0.00106089
-0.00108781
-0.00111038
-0.00112847
-0.00114197
-0.00115079
-0.00115485
-0.00115409
-0.00114845
-0.0011379
-0.0011224
-0.00110193
-0.00107647
-0.00104601
-0.00101054
-0.000970077
-0.000924624
-0.000874198
-0.000818814
-0.000758494
-0.00069327
-0.00062317
-0.000548224
-0.000468464
-0.000383934
-0.000294679
-0.000200747
-0.000102192
9.30088e-07
0.000108561
0.000220641
0.000337101
0.000457861
0.000582841
0.000711961
0.000845139
0.000982286
0.0011233
0.00126806
0.00141645
0.00156837
0.00172369
0.00188229
0.00204402
0.00220872
0.00237626
0.00254646
0.00271915
0.00289416
0.00307131
0.00325039
0.00343121
0.00361355
0.00379718
0.00398189
0.00416745
0.00435362
0.00454016
0.0047268
0.00491328
0.00509934
0.0052847
0.0054691
0.00565227
0.00583392
0.00601377
0.00619152
0.00636688
0.00653957
0.00670929
0.00687577
0.00703872
0.00719787
0.00735293
0.00750363
0.00764971
0.00779091
0.00792697
0.00805768
0.00818279
0.0083021
0.00841539
0.00852248
0.00862318
0.00871733
0.0088048
0.00888544
0.00895915
0.00902585
0.00908545
0.00913791
0.0091832
0.00922131
0.00925225
0.00927606
0.0092928
0.00930254
0.0093054
0.0093015
0.00929099
0.00927406
0.0092509
0.00922174
0.00918682
0.00914642
0.00910084
0.00905038
0.00899539
0.00893623
0.00887328
0.00880696
0.00873769
0.00866594
0.00859216
0.00851685
0.00844054
0.00836375
0.00828703
0.00821097
0.00813613
0.00806315
0.00799262
0.00792519
0.00786151
0.0078022
0.00774792
0.0076993
0.00765692
0.00762133
0.00759301
0.00757234
0.00755944
0.00755438
0.00755881
0.00757395
2.45694e-05
2.90294e-05
2.25698e-05
6.62238e-06
-1.68539e-05
-4.70277e-05
-8.31348e-05
-0.000124358
-0.000169881
-0.000218907
-0.00027066
-0.000324405
-0.000379449
-0.000435144
-0.000490893
-0.000546138
-0.000600367
-0.000653116
-0.000703965
-0.000752534
-0.000798484
-0.000841507
-0.000881323
-0.00091769
-0.00095039
-0.000979233
-0.00100405
-0.00102468
-0.00104101
-0.00105292
-0.00106032
-0.00106312
-0.00106127
-0.00105471
-0.00104338
-0.00102727
-0.00100634
-0.000980559
-0.000949929
-0.000914439
-0.000874091
-0.000828891
-0.000778851
-0.000723986
-0.000664316
-0.000599868
-0.000530668
-0.000456744
-0.000378128
-0.00029486
-0.000206987
-0.000114554
-1.76106e-05
8.37889e-05
0.000189587
0.000299723
0.00041413
0.000532732
0.000655447
0.000782198
0.000912906
0.00104748
0.00118582
0.00132781
0.00147334
0.0016223
0.00177458
0.00193004
0.00208854
0.00224993
0.00241408
0.00258081
0.00274996
0.00292136
0.00309482
0.00327016
0.00344717
0.00362564
0.00380537
0.00398613
0.00416769
0.00434983
0.00453231
0.00471488
0.00489727
0.00507923
0.00526049
0.0054408
0.00561989
0.00579749
0.00597331
0.00614707
0.00631849
0.00648728
0.00665317
0.0068159
0.00697517
0.00713073
0.00728231
0.00742963
0.00757244
0.00771049
0.00784354
0.00797137
0.00809376
0.0082105
0.00832139
0.00842624
0.00852488
0.00861716
0.00870294
0.0087821
0.00885453
0.00892015
0.00897889
0.00903071
0.00907557
0.00911347
0.00914443
0.00916848
0.00918569
0.00919614
0.00919992
0.00919717
0.00918803
0.0091727
0.00915135
0.00912422
0.00909153
0.00905357
0.00901061
0.00896297
0.00891097
0.00885497
0.00879534
0.00873248
0.0086668
0.00859873
0.00852875
0.00845732
0.00838493
0.00831209
0.00823933
0.0081672
0.00809625
0.00802705
0.00796018
0.00789623
0.0078358
0.00777948
0.00772786
0.00768151
0.00764098
0.00760677
0.00757936
0.00755914
0.00754634
0.00754118
0.00754573
0.00756165
6.04913e-05
6.09187e-05
5.19856e-05
3.47379e-05
1.07059e-05
-1.93432e-05
-5.46904e-05
-9.45874e-05
-0.000138309
-0.00018514
-0.000234392
-0.000285403
-0.000337538
-0.000390208
-0.000442861
-0.000494987
-0.000546115
-0.000595808
-0.000643667
-0.000689335
-0.000732487
-0.000772828
-0.000810095
-0.000844053
-0.000874486
-0.000901211
-0.00092406
-0.000942885
-0.000957556
-0.000967966
-0.000974021
-0.000975635
-0.000972746
-0.000965296
-0.000953239
-0.000936537
-0.00091516
-0.000889083
-0.000858291
-0.000822779
-0.000782545
-0.00073759
-0.000687925
-0.000633566
-0.000574528
-0.000510835
-0.000442511
-0.000369581
-0.000292076
-0.000210037
-0.00012351
-3.25353e-05
6.28411e-05
0.000162567
0.000266584
0.000374831
0.000487242
0.000603745
0.000724263
0.000848722
0.000977041
0.00110913
0.00124488
0.0013842
0.00152696
0.00167308
0.00182242
0.00197486
0.00213026
0.00228848
0.00244937
0.00261278
0.00277854
0.00294649
0.00311643
0.0032882
0.00346158
0.00363638
0.00381239
0.0039894
0.00416718
0.00434551
0.00452416
0.00470287
0.0048814
0.0050595
0.0052369
0.00541336
0.00558862
0.00576241
0.00593445
0.00610447
0.00627219
0.00643734
0.00659965
0.00675887
0.00691471
0.00706693
0.00721525
0.00735941
0.00749918
0.0076343
0.00776455
0.00788971
0.00800956
0.00812391
0.00823256
0.00833533
0.00843205
0.00852259
0.0086068
0.00868456
0.00875579
0.00882039
0.00887832
0.00892951
0.00897395
0.00901164
0.00904259
0.00906684
0.00908444
0.00909549
0.00910009
0.00909836
0.00909044
0.00907653
0.0090568
0.00903147
0.00900078
0.008965
0.00892439
0.00887926
0.00882993
0.00877675
0.00872008
0.00866029
0.0085978
0.00853302
0.00846639
0.00839837
0.00832943
0.00826006
0.00819075
0.00812204
0.00805443
0.00798847
0.0079247
0.00786368
0.00780595
0.00775206
0.00770256
0.00765797
0.0076188
0.00758555
0.00755865
0.00753854
0.00752548
0.00751982
0.00752369
0.00753884
0.000106425
0.0001015
8.90714e-05
6.96846e-05
4.43103e-05
1.36315e-05
-2.16923e-05
-6.09985e-05
-0.000103635
-0.000148968
-0.000196385
-0.000245291
-0.000295119
-0.00034533
-0.000395417
-0.000444915
-0.000493388
-0.00054043
-0.000585676
-0.000628784
-0.000669447
-0.000707388
-0.000742357
-0.000774127
-0.000802497
-0.000827282
-0.000848321
-0.000865471
-0.000878608
-0.000887624
-0.000892423
-0.000892926
-0.000889067
-0.000880787
-0.00086804
-0.000850786
-0.000828992
-0.000802632
-0.000771693
-0.000736166
-0.000696044
-0.000651328
-0.000602029
-0.00054816
-0.000489734
-0.000426772
-0.000359296
-0.000287328
-0.000210899
-0.000130049
-4.4823e-05
4.47419e-05
0.000138605
0.000236714
0.000339011
0.000445435
0.000555922
0.000670405
0.000788808
0.00091106
0.00103708
0.00116678
0.00130005
0.0014368
0.00157692
0.00172031
0.00186686
0.00201642
0.00216886
0.00232405
0.00248185
0.00264211
0.00280465
0.00296933
0.00313595
0.00330433
0.00347429
0.00364563
0.00381815
0.00399163
0.00416586
0.00434061
0.00451566
0.00469077
0.0048657
0.00504018
0.00521399
0.00538686
0.00555855
0.0057288
0.00589733
0.00606388
0.00622817
0.00638995
0.00654895
0.00670492
0.0068576
0.00700672
0.00715204
0.0072933
0.00743026
0.00756269
0.00769036
0.00781305
0.00793057
0.00804272
0.0081493
0.00825016
0.00834512
0.00843404
0.0085168
0.00859328
0.00866338
0.00872704
0.0087842
0.0088348
0.00887883
0.00891629
0.0089472
0.00897159
0.00898952
0.00900108
0.00900638
0.00900552
0.00899867
0.00898599
0.00896768
0.00894394
0.008915
0.00888112
0.00884257
0.00879965
0.00875266
0.00870195
0.00864786
0.00859076
0.00853104
0.00846911
0.00840539
0.00834032
0.00827435
0.00820795
0.00814159
0.00807576
0.00801096
0.0079477
0.00788648
0.00782783
0.00777225
0.00772025
0.00767234
0.00762901
0.00759073
0.00755797
0.00753117
0.00751074
0.00749701
0.00749034
0.00749275
0.00750581
0.000160773
0.000149573
0.000132865
0.000110634
8.32237e-05
5.12438e-05
1.52851e-05
-2.40744e-05
-6.62644e-05
-0.000110726
-0.000156908
-0.000204283
-0.000252346
-0.00030061
-0.000348618
-0.000395941
-0.000442176
-0.000486955
-0.000529939
-0.000570812
-0.000609282
-0.000645093
-0.000678007
-0.00070781
-0.000734309
-0.000757329
-0.000776715
-0.000792331
-0.000804055
-0.000811781
-0.000815418
-0.00081489
-0.000810129
-0.000801077
-0.000787687
-0.000769918
-0.000747738
-0.000721119
-0.000690049
-0.000654515
-0.000614508
-0.000570031
-0.000521093
-0.000467702
-0.00040987
-0.000347617
-0.000280962
-0.000209926
-0.00013454
-5.48438e-05
2.9124e-05
0.000117328
0.000209731
0.000306278
0.000406911
0.000511576
0.00062021
0.000732748
0.000849118
0.000969247
0.00109306
0.00122046
0.00135136
0.00148566
0.00162325
0.00176404
0.0019079
0.00205471
0.00220434
0.00235666
0.00251152
0.00266879
0.00282829
0.00298987
0.00315335
0.00331854
0.00348528
0.00365336
0.00382259
0.00399276
0.00416366
0.00433506
0.00450675
0.00467849
0.00485005
0.00502118
0.00519164
0.00536118
0.00552955
0.00569651
0.00586179
0.00602513
0.00618626
0.00634493
0.00650087
0.00665385
0.00680361
0.00694989
0.00709245
0.00723104
0.00736543
0.00749538
0.00762068
0.00774111
0.00785649
0.00796662
0.00807132
0.00817042
0.00826375
0.00835119
0.00843261
0.0085079
0.00857697
0.00863975
0.00869618
0.00874622
0.00878986
0.00882708
0.00885791
0.0088824
0.00890059
0.00891258
0.00891845
0.00891835
0.00891241
0.0089008
0.00888371
0.00886133
0.00883391
0.00880168
0.00876492
0.0087239
0.00867895
0.00863037
0.00857851
0.00852372
0.00846639
0.00840691
0.00834568
0.00828312
0.00821966
0.00815576
0.00809186
0.00802843
0.00796594
0.00790487
0.0078457
0.0077889
0.00773496
0.00768435
0.00763754
0.00759499
0.00755715
0.00752445
0.00749731
0.00747615
0.00746128
0.00745308
0.00745332
0.00746325
0.000222025
0.000203925
0.000182357
0.000156714
0.00012669
9.28233e-05
5.56563e-05
1.56761e-05
-2.66292e-05
-7.0765e-05
-0.00011625
-0.000162614
-0.000209402
-0.000256188
-0.000302556
-0.000348116
-0.000392505
-0.000435384
-0.000476438
-0.000515378
-0.000551938
-0.000585875
-0.000616968
-0.000645016
-0.000669835
-0.00069126
-0.000709147
-0.000723366
-0.000733797
-0.000740341
-0.000742912
-0.000741433
-0.00073584
-0.000726077
-0.000712094
-0.000693851
-0.000671317
-0.000644467
-0.000613284
-0.000577754
-0.00053787
-0.000493633
-0.000445051
-0.00039213
-0.000334879
-0.000273315
-0.000207457
-0.000137326
-6.29534e-05
1.56246e-05
9.83756e-05
0.000185266
0.000276255
0.000371292
0.00047032
0.000573287
0.000680136
0.000790803
0.000905218
0.00102331
0.001145
0.0012702
0.00139882
0.00153077
0.00166594
0.00180424
0.00194555
0.00208975
0.00223671
0.00238629
0.00253837
0.0026928
0.00284942
0.00300808
0.00316859
0.00333078
0.00349448
0.00365951
0.00382565
0.00399272
0.0041605
0.00432877
0.00449733
0.00466593
0.00483436
0.00500236
0.00516971
0.00533616
0.00550147
0.0056654
0.00582767
0.00598805
0.00614626
0.00630206
0.0064552
0.00660543
0.00675251
0.0068962
0.00703623
0.00717238
0.00730441
0.00743209
0.00755523
0.0076736
0.00778703
0.00789531
0.00799829
0.00809578
0.00818763
0.00827371
0.0083539
0.0084281
0.00849621
0.00855818
0.00861393
0.00866344
0.00870668
0.00874366
0.0087744
0.00879893
0.00881732
0.00882964
0.008836
0.00883652
0.00883135
0.00882065
0.00880459
0.00878338
0.00875725
0.00872644
0.0086912
0.00865181
0.00860858
0.00856182
0.00851186
0.00845904
0.00840373
0.0083463
0.00828716
0.0082267
0.00816533
0.00810349
0.00804161
0.00798012
0.00791947
0.00786012
0.00780251
0.0077471
0.00769433
0.00764465
0.00759849
0.00755628
0.00751845
0.00748539
0.0074575
0.00743517
0.00741873
0.00740853
0.00740597
0.00741197
0.000288811
0.000263404
0.000236547
0.000207055
0.000173944
0.000137705
9.88325e-05
5.77314e-05
1.48219e-05
-2.94736e-05
-7.4736e-05
-0.000120551
-0.000166516
-0.000212248
-0.000257379
-0.000301559
-0.00034446
-0.000385773
-0.000425211
-0.000462509
-0.000497425
-0.000529733
-0.000559229
-0.000585725
-0.000609049
-0.000629049
-0.000645588
-0.000658543
-0.000667803
-0.000673274
-0.000674873
-0.000672527
-0.000666175
-0.000655761
-0.000641236
-0.000622565
-0.000599715
-0.000572661
-0.000541386
-0.000505876
-0.000466125
-0.000422132
-0.000373905
-0.000321446
-0.000264763
-0.000203872
-0.00013879
-6.95408e-05
3.84803e-06
8.13439e-05
0.000162917
0.000248535
0.000338159
0.000431737
0.000529217
0.000630548
0.000735678
0.000844544
0.000957079
0.00107321
0.00119286
0.00131596
0.00144241
0.00157211
0.00170498
0.00184091
0.00197979
0.0021215
0.00226591
0.00241291
0.00256235
0.0027141
0.002868
0.00302389
0.00318161
0.00334099
0.00350184
0.003664
0.00382726
0.00399142
0.00415629
0.00432165
0.00448729
0.00465298
0.0048185
0.00498361
0.00514809
0.00531169
0.00547417
0.0056353
0.00579482
0.00595247
0.00610801
0.00626118
0.00641175
0.00655948
0.00670412
0.00684542
0.00698316
0.00711708
0.00724696
0.00737259
0.00749376
0.00761027
0.00772192
0.00782854
0.00792994
0.00802597
0.00811648
0.00820132
0.00828039
0.00835359
0.00842083
0.00848204
0.00853716
0.00858617
0.00862904
0.00866577
0.00869638
0.00872092
0.00873944
0.00875202
0.00875877
0.0087598
0.00875526
0.00874531
0.00873011
0.00870988
0.00868483
0.0086552
0.00862124
0.00858322
0.00854143
0.00849618
0.00844779
0.0083966
0.00834297
0.00828724
0.00822981
0.00817105
0.00811138
0.00805118
0.00799089
0.00793091
0.00787167
0.0078136
0.00775712
0.00770265
0.00765062
0.00760143
0.00755549
0.00751321
0.00747498
0.00744117
0.00741214
0.00738826
0.00736983
0.00735721
0.00735136
0.00735283
0.000359899
0.000326934
0.000294486
0.000260803
0.000224236
0.000185223
0.000144225
0.000101579
5.76333e-05
1.27481e-05
-3.27103e-05
-7.83867e-05
-0.00012393
-0.000168996
-0.000213258
-0.00025641
-0.000298153
-0.000338211
-0.000376325
-0.000412255
-0.000445778
-0.000476691
-0.000504804
-0.000529943
-0.000551953
-0.000570691
-0.00058603
-0.000597854
-0.000606062
-0.000610567
-0.000611289
-0.000608161
-0.000601123
-0.000590121
-0.000575109
-0.000556055
-0.000532929
-0.000505702
-0.000474358
-0.000438887
-0.000399281
-0.00035554
-0.000307667
-0.000255665
-0.00019954
-0.000139306
-7.49838e-05
-6.59376e-06
6.58401e-05
0.000142288
0.000222721
0.000307108
0.00039541
0.00048758
0.000583568
0.000683325
0.000786801
0.000893937
0.00100467
0.00111892
0.00123662
0.0013577
0.00148207
0.00160963
0.0017403
0.00187397
0.00201054
0.00214989
0.0022919
0.00243644
0.00258339
0.00273261
0.00288395
0.00303725
0.00319235
0.00334907
0.00350726
0.00366674
0.00382731
0.00398877
0.00415093
0.00431359
0.00447652
0.00463952
0.00480236
0.0049648
0.00512663
0.0052876
0.0054475
0.00560606
0.00576305
0.00591822
0.00607132
0.00622211
0.00637034
0.00651579
0.00665821
0.00679736
0.00693301
0.00706493
0.00719288
0.00731665
0.00743604
0.00755086
0.00766092
0.00776603
0.00786602
0.00796074
0.00805003
0.00813376
0.00821182
0.00828411
0.00835055
0.00841107
0.00846561
0.00851414
0.00855665
0.00859313
0.0086236
0.00864811
0.00866671
0.00867948
0.00868652
0.00868795
0.00868392
0.00867456
0.00866007
0.00864063
0.00861646
0.00858779
0.00855487
0.00851796
0.00847734
0.00843332
0.00838621
0.00833634
0.00828404
0.00822967
0.00817359
0.00811617
0.0080578
0.00799887
0.00793977
0.0078809
0.00782266
0.00776546
0.00770969
0.00765575
0.00760405
0.00755495
0.00750885
0.00746611
0.00742711
0.00739217
0.00736165
0.00733586
0.0073151
0.00729969
0.00729017
0.00728668
0.000434169
0.000393523
0.000355281
0.000317152
0.00027683
0.000234718
0.000191253
0.0001467
0.000101346
5.55012e-05
9.47132e-06
-3.64333e-05
-8.19076e-05
-0.000126654
-0.000170386
-0.000212828
-0.000253718
-0.000292809
-0.000329871
-0.000364686
-0.000397056
-0.000426793
-0.000453724
-0.000477695
-0.000498564
-0.000516198
-0.00053048
-0.000541304
-0.000548579
-0.000552223
-0.000552164
-0.000548337
-0.000540685
-0.000529159
-0.000513718
-0.00049433
-0.000470965
-0.000443597
-0.000412212
-0.000376801
-0.000337355
-0.000293873
-0.000246357
-0.000194809
-0.000139234
-7.96465e-05
-1.60675e-05
5.14853e-05
0.000122991
0.000198423
0.000277751
0.000360947
0.000447973
0.000538783
0.000633332
0.000731574
0.00083346
0.000938935
0.00104793
0.00116038
0.00127622
0.00139537
0.00151776
0.00164328
0.00177185
0.00190338
0.00203776
0.00217487
0.0023146
0.00245683
0.00260143
0.00274828
0.00289721
0.00304807
0.00320071
0.00335496
0.00351066
0.00366764
0.0038257
0.00398466
0.00414432
0.00430447
0.00446491
0.00462542
0.00478579
0.00494578
0.00510519
0.00526377
0.00542129
0.00557752
0.00573221
0.00588512
0.00603601
0.00618464
0.00633076
0.00647416
0.00661458
0.0067518
0.00688558
0.00701569
0.00714191
0.00726402
0.00738183
0.00749514
0.00760377
0.00770754
0.00780628
0.00789982
0.00798802
0.00807075
0.00814791
0.00821939
0.0082851
0.00834499
0.008399
0.0084471
0.00848926
0.00852549
0.00855581
0.00858025
0.00859887
0.00861176
0.00861901
0.00862075
0.00861709
0.0086082
0.00859425
0.00857543
0.00855195
0.00852404
0.00849193
0.00845589
0.0084162
0.00837314
0.00832702
0.00827816
0.00822689
0.00817354
0.00811848
0.00806205
0.00800463
0.00794659
0.00788831
0.00783017
0.00777255
0.00771583
0.00766039
0.00760661
0.00755485
0.00750548
0.00745884
0.0074153
0.00737517
0.00733878
0.00730644
0.00727842
0.00725502
0.00723654
0.00722304
0.0072143
0.000510614
0.000462248
0.000418096
0.000375336
0.000331031
0.000285559
0.000239341
0.00019258
0.000145506
9.83754e-05
5.14505e-05
4.99554e-06
-4.07289e-05
-8.54681e-05
-0.00012897
-0.000170993
-0.000211308
-0.000249697
-0.000285958
-0.000319896
-0.000351333
-0.000380101
-0.000406045
-0.000429028
-0.00044892
-0.0004656
-0.000478963
-0.000488916
-0.000495374
-0.000498262
-0.000497515
-0.000493071
-0.000484879
-0.000472895
-0.000457082
-0.000437408
-0.000413845
-0.000386372
-0.000354975
-0.000319645
-0.000280375
-0.000237162
-0.000190008
-0.000138913
-8.38815e-05
-2.49312e-05
3.79194e-05
0.000104656
0.000175259
0.000249703
0.000327961
0.000410003
0.000495796
0.000585295
0.000678457
0.000775242
0.000875602
0.000979482
0.00108682
0.00119755
0.0013116
0.00142892
0.00154941
0.00167299
0.00179957
0.00192907
0.00206137
0.00219637
0.00233395
0.002474
0.00261639
0.002761
0.00290767
0.00305625
0.0032066
0.00335854
0.00351193
0.00366659
0.00382234
0.00397898
0.00413632
0.00429416
0.00445231
0.00461054
0.00476865
0.00492641
0.00508361
0.00524001
0.00539538
0.0055495
0.00570212
0.005853
0.00600189
0.00614858
0.00629282
0.00643438
0.00657302
0.00670852
0.00684064
0.00696914
0.00709382
0.00721446
0.00733087
0.00744286
0.00755023
0.00765282
0.00775044
0.00784295
0.00793019
0.00801205
0.0080884
0.00815916
0.00822423
0.00828356
0.00833709
0.00838478
0.00842662
0.0084626
0.00849275
0.0085171
0.00853571
0.00854865
0.00855603
0.00855797
0.00855458
0.00854603
0.00853248
0.00851412
0.00849115
0.0084638
0.00843229
0.0083969
0.00835788
0.00831553
0.00827013
0.008222
0.00817146
0.00811883
0.00806446
0.0080087
0.00795189
0.0078944
0.00783659
0.00777882
0.00772146
0.00766487
0.0076094
0.00755541
0.00750324
0.00745325
0.00740575
0.00736107
0.00731951
0.00728136
0.00724691
0.00721639
0.00719009
0.00716829
0.00715061
0.00713642
0.000588332
0.00053227
0.000482148
0.000434633
0.000386181
0.000337143
0.000287936
0.000238717
0.000189656
0.000140964
9.28639e-05
4.55748e-05
-6.83228e-07
-4.56913e-05
-8.92328e-05
-0.000131101
-0.000171095
-0.000209027
-0.000244718
-0.000277997
-0.000308707
-0.000336699
-0.000361841
-0.000384004
-0.000403073
-0.000418945
-0.000431525
-0.00044073
-0.000446482
-0.000448717
-0.000447372
-0.000442393
-0.000433736
-0.00042136
-0.000405231
-0.00038532
-0.000361603
-0.00033406
-0.000302681
-0.000267457
-0.000228381
-0.000185449
-0.000138661
-8.80191e-05
-3.353e-05
2.47904e-05
8.6926e-05
0.000152865
0.000222589
0.000296074
0.000373294
0.00045422
0.00053882
0.000627054
0.000718882
0.000814265
0.000913161
0.00101551
0.00112126
0.00123034
0.00134269
0.00145825
0.00157695
0.00169869
0.00182338
0.00195095
0.00208129
0.00221429
0.00234985
0.00248785
0.00262817
0.00277068
0.00291524
0.0030617
0.00320991
0.00335971
0.00351096
0.00366347
0.00381708
0.00397159
0.0041268
0.00428253
0.00443858
0.00459474
0.0047508
0.00490653
0.00506173
0.00521616
0.0053696
0.00552182
0.00567258
0.00582164
0.00596877
0.00611373
0.0062563
0.00639623
0.00653331
0.00666729
0.00679795
0.00692505
0.00704839
0.00716775
0.00728294
0.00739377
0.00750005
0.00760161
0.00769827
0.00778988
0.0078763
0.00795739
0.00803305
0.00810317
0.00816768
0.00822651
0.00827961
0.00832694
0.00836848
0.00840422
0.00843419
0.00845842
0.00847697
0.00848992
0.00849737
0.00849941
0.0084962
0.00848786
0.00847457
0.00845651
0.00843389
0.00840691
0.00837581
0.00834085
0.00830228
0.00826039
0.00821546
0.00816779
0.0081177
0.0080655
0.00801153
0.00795612
0.00789961
0.00784234
0.00778467
0.00772694
0.0076695
0.0076127
0.00755687
0.00750234
0.00744945
0.00739851
0.00734983
0.00730372
0.00726044
0.00722027
0.00718344
0.00715019
0.00712078
0.00709548
0.00707346
0.0070537
0.000666516
0.000602821
0.000546713
0.000494368
0.000441646
0.000388889
0.000336509
0.00028462
0.000233349
0.000182865
0.000133346
8.49735e-05
3.79337e-05
-7.5887e-06
-5.14122e-05
-9.33611e-05
-0.000133265
-0.000170961
-0.000206293
-0.000239115
-0.000269289
-0.00029669
-0.000321198
-0.000342701
-0.000361098
-0.0003763
-0.000388225
-0.000396799
-0.000401956
-0.000403635
-0.000401781
-0.000396349
-0.0003873
-0.000374597
-0.000358209
-0.000338112
-0.000314284
-0.00028671
-0.00025538
-0.000220287
-0.000181423
-0.000138784
-9.23702e-05
-4.21853e-05
1.17622e-05
6.94597e-05
0.000130893
0.000196051
0.000264918
0.00033747
0.000413682
0.000493527
0.000576974
0.000663989
0.000754533
0.000848571
0.000946059
0.00104694
0.00115117
0.00125867
0.00136941
0.00148331
0.00160029
0.00172028
0.00184319
0.00196894
0.00209742
0.00222855
0.0023622
0.00249828
0.00263666
0.00277722
0.00291981
0.00306429
0.00321052
0.00335835
0.00350761
0.00365816
0.0038098
0.00396235
0.00411563
0.00426943
0.00442358
0.00457786
0.00473206
0.00488597
0.00503938
0.00519205
0.00534376
0.0054943
0.00564341
0.00579087
0.00593644
0.00607989
0.00622099
0.00635951
0.00649523
0.00662789
0.00675729
0.00688318
0.00700537
0.00712363
0.00723778
0.00734763
0.00745299
0.00755367
0.00764952
0.00774037
0.00782609
0.00790653
0.00798159
0.00805118
0.00811521
0.00817361
0.00822634
0.00827334
0.00831461
0.00835012
0.00837991
0.00840401
0.00842247
0.00843537
0.00844281
0.00844489
0.00844174
0.00843351
0.00842036
0.00840246
0.00838002
0.00835325
0.00832237
0.00828764
0.0082493
0.00820764
0.00816293
0.00811548
0.00806557
0.00801353
0.00795967
0.00790432
0.0078478
0.00779046
0.00773262
0.00767461
0.00761678
0.00755945
0.00750295
0.00744758
0.00739365
0.00734148
0.00729134
0.00724352
0.00719826
0.00715582
0.0071164
0.00708021
0.00704752
0.00701857
0.00699211
0.00696674
0.000744435
0.000673203
0.00061113
0.000553907
0.000496832
0.000440243
0.000384545
0.000329817
0.000276152
0.000223677
0.000172531
0.000122863
7.48261e-05
2.85713e-05
-1.57509e-05
-5.79941e-05
-9.80155e-05
-0.000135676
-0.000170844
-0.000203393
-0.000233212
-0.000260188
-0.000284219
-0.000305212
-0.000323079
-0.000337744
-0.000349137
-0.000357195
-0.000361859
-0.000363077
-0.000360802
-0.000354998
-0.000345628
-0.000332662
-0.000316072
-0.000295838
-0.000271945
-0.000244377
-0.000213129
-0.000178193
-0.000139561
-9.72289e-05
-5.11996e-05
-1.47778e-06
5.19283e-05
0.000109008
0.00016975
0.000234144
0.000302174
0.000373817
0.000449049
0.000527845
0.000610178
0.000696017
0.000785327
0.000878073
0.00097421
0.00107369
0.00117646
0.00128247
0.00139166
0.00150397
0.00161934
0.00173767
0.00185889
0.00198292
0.00210966
0.00223902
0.0023709
0.00250518
0.00264175
0.00278049
0.00292125
0.00306391
0.00320831
0.00335431
0.00350176
0.0036505
0.00380035
0.00395112
0.00410264
0.0042547
0.00440713
0.00455972
0.00471227
0.00486456
0.00501637
0.00516748
0.00531768
0.00546673
0.0056144
0.00576047
0.00590469
0.00604684
0.00618669
0.006324
0.00645855
0.0065901
0.00671843
0.00684331
0.00696453
0.00708188
0.00719517
0.00730421
0.0074088
0.00750877
0.00760395
0.00769418
0.00777931
0.00785923
0.0079338
0.00800295
0.00806658
0.00812463
0.00817703
0.00822375
0.00826477
0.00830008
0.00832969
0.00835364
0.00837198
0.0083848
0.00839217
0.00839422
0.00839105
0.00838282
0.00836968
0.00835182
0.00832941
0.00830268
0.00827185
0.00823716
0.00819886
0.00815721
0.0081125
0.00806501
0.00801504
0.0079629
0.00790888
0.00785331
0.00779651
0.0077388
0.0076805
0.00762193
0.00756341
0.00750526
0.00744779
0.00739129
0.00733605
0.00728237
0.00723051