0.05 	0.0003125 	0.005 	0.00293163
0.05 	0.0009375 	0.005 	0.00293349
0.05 	0.0015625 	0.005 	0.00293481
0.05 	0.0021875 	0.005 	0.00293571
0.05 	0.0028125 	0.005 	0.00293631
0.05 	0.0034375 	0.005 	0.00293656
0.05 	0.0040625 	0.005 	0.00293641
0.05 	0.0046875 	0.005 	0.00293578
0.05 	0.0053125 	0.005 	0.00293462
0.05 	0.0059375 	0.005 	0.00293285
0.05 	0.0065625 	0.005 	0.00293039
0.05 	0.0071875 	0.005 	0.00292715
0.05 	0.0078125 	0.005 	0.00292304
0.05 	0.0084375 	0.005 	0.00291798
0.05 	0.0090625 	0.005 	0.00291185
0.05 	0.0096875 	0.005 	0.00290457
0.05 	0.0103125 	0.005 	0.00289603
0.05 	0.0109375 	0.005 	0.00288611
0.05 	0.0115625 	0.005 	0.00287471
0.05 	0.0121875 	0.005 	0.00286171
0.05 	0.0128125 	0.005 	0.00284697
0.05 	0.0134375 	0.005 	0.00283038
0.05 	0.0140625 	0.005 	0.00281179
0.05 	0.0146875 	0.005 	0.00279105
0.05 	0.0153125 	0.005 	0.00276801
0.05 	0.0159375 	0.005 	0.00274251
0.05 	0.0165625 	0.005 	0.00271437
0.05 	0.0171875 	0.005 	0.00268341
0.05 	0.0178125 	0.005 	0.00264941
0.05 	0.0184375 	0.005 	0.00261216
0.05 	0.0190625 	0.005 	0.00257143
0.05 	0.0196875 	0.005 	0.00252698
0.05 	0.0203125 	0.005 	0.00247853
0.05 	0.0209375 	0.005 	0.00242579
0.05 	0.0215625 	0.005 	0.00236845
0.05 	0.0221875 	0.005 	0.00230617
0.05 	0.0228125 	0.005 	0.00223858
0.05 	0.0234375 	0.005 	0.0021653
0.05 	0.0240625 	0.005 	0.00208589
0.05 	0.0246875 	0.005 	0.00199989
0.05 	0.0253125 	0.005 	0.0019068
0.05 	0.0259375 	0.005 	0.00180609
0.05 	0.0265625 	0.005 	0.00169719
0.05 	0.0271875 	0.005 	0.00157947
0.05 	0.0278125 	0.005 	0.00145228
0.05 	0.0284375 	0.005 	0.0013149
0.05 	0.0290625 	0.005 	0.0011666
0.05 	0.0296875 	0.005 	0.00100657
0.05 	0.0303125 	0.005 	0.000833976
0.05 	0.0309375 	0.005 	0.000647908
0.05 	0.0315625 	0.005 	0.000447421
0.05 	0.0321875 	0.005 	0.000231516
0.05 	0.0328125 	0.005 	-8.60027e-07
0.05 	0.0334375 	0.005 	-0.00025081
0.05 	0.0340625 	0.005 	-0.000519484
0.05 	0.0346875 	0.005 	-0.000808075
0.05 	0.0353125 	0.005 	-0.00111781
0.05 	0.0359375 	0.005 	-0.00144995
0.05 	0.0365625 	0.005 	-0.00180578
0.05 	0.0371875 	0.005 	-0.0021866
0.05 	0.0378125 	0.005 	-0.00259373
0.05 	0.0384375 	0.005 	-0.00302848
0.05 	0.0390625 	0.005 	-0.00349214
0.05 	0.0396875 	0.005 	-0.00398601
0.05 	0.0403125 	0.005 	-0.00451132
0.05 	0.0409375 	0.005 	-0.00506926
0.05 	0.0415625 	0.005 	-0.00566094
0.05 	0.0421875 	0.005 	-0.00628736
0.05 	0.0428125 	0.005 	-0.00694942
0.05 	0.0434375 	0.005 	-0.00764788
0.05 	0.0440625 	0.005 	-0.00838334
0.05 	0.0446875 	0.005 	-0.00915626
0.05 	0.0453125 	0.005 	-0.00996687
0.05 	0.0459375 	0.005 	-0.0108152
0.05 	0.0465625 	0.005 	-0.0117011
0.05 	0.0471875 	0.005 	-0.012624
0.05 	0.0478125 	0.005 	-0.0135834
0.05 	0.0484375 	0.005 	-0.014578
0.05 	0.0490625 	0.005 	-0.0156068
0.05 	0.0496875 	0.005 	-0.0166681
0.05 	0.0503125 	0.005 	-0.01776
0.05 	0.0509375 	0.005 	-0.0188803
0.05 	0.0515625 	0.005 	-0.0200267
0.05 	0.0521875 	0.005 	-0.0211963
0.05 	0.0528125 	0.005 	-0.0223862
0.05 	0.0534375 	0.005 	-0.023593
0.05 	0.0540625 	0.005 	-0.0248132
0.05 	0.0546875 	0.005 	-0.0260432
0.05 	0.0553125 	0.005 	-0.0272789
0.05 	0.0559375 	0.005 	-0.0285165
0.05 	0.0565625 	0.005 	-0.0297516
0.05 	0.0571875 	0.005 	-0.0309799
0.05 	0.0578125 	0.005 	-0.0321973
0.05 	0.0584375 	0.005 	-0.0333993
0.05 	0.0590625 	0.005 	-0.0345818
0.05 	0.0596875 	0.005 	-0.0357404
0.05 	0.0603125 	0.005 	-0.036871
0.05 	0.0609375 	0.005 	-0.0379697
0.05 	0.0615625 	0.005 	-0.0390326
0.05 	0.0621875 	0.005 	-0.0400562
0.05 	0.0628125 	0.005 	-0.0410372
0.05 	0.0634375 	0.005 	-0.0419723
0.05 	0.0640625 	0.005 	-0.0428588
0.05 	0.0646875 	0.005 	-0.0436942
0.05 	0.0653125 	0.005 	-0.0444763
0.05 	0.0659375 	0.005 	-0.0452033
0.05 	0.0665625 	0.005 	-0.0458736
0.05 	0.0671875 	0.005 	-0.046486
0.05 	0.0678125 	0.005 	-0.0470397
0.05 	0.0684375 	0.005 	-0.0475343
0.05 	0.0690625 	0.005 	-0.0479696
0.05 	0.0696875 	0.005 	-0.0483457
0.05 	0.0703125 	0.005 	-0.0486632
0.05 	0.0709375 	0.005 	-0.0489228
0.05 	0.0715625 	0.005 	-0.0491257
0.05 	0.0721875 	0.005 	-0.0492733
0.05 	0.0728125 	0.005 	-0.049367
0.05 	0.0734375 	0.005 	-0.0494089
0.05 	0.0740625 	0.005 	-0.0494008
0.05 	0.0746875 	0.005 	-0.0493451
0.05 	0.0753125 	0.005 	-0.0492442
0.05 	0.0759375 	0.005 	-0.0491007
0.05 	0.0765625 	0.005 	-0.048917
0.05 	0.0771875 	0.005 	-0.0486961
0.05 	0.0778125 	0.005 	-0.0484408
0.05 	0.0784375 	0.005 	-0.0481539
0.05 	0.0790625 	0.005 	-0.0478383
0.05 	0.0796875 	0.005 	-0.0474969
0.05 	0.0803125 	0.005 	-0.0471325
0.05 	0.0809375 	0.005 	-0.0467481
0.05 	0.0815625 	0.005 	-0.0463463
0.05 	0.0821875 	0.005 	-0.0459299
0.05 	0.0828125 	0.005 	-0.0455014
0.05 	0.0834375 	0.005 	-0.0450633
0.05 	0.0840625 	0.005 	-0.044618
0.05 	0.0846875 	0.005 	-0.0441675
0.05 	0.0853125 	0.005 	-0.0437138
0.05 	0.0859375 	0.005 	-0.0432588
0.05 	0.0865625 	0.005 	-0.0428041
0.05 	0.0871875 	0.005 	-0.0423509
0.05 	0.0878125 	0.005 	-0.0419005
0.05 	0.0884375 	0.005 	-0.0414536
0.05 	0.0890625 	0.005 	-0.041011
0.05 	0.0896875 	0.005 	-0.0405728
0.05 	0.0903125 	0.005 	-0.0401392
0.05 	0.0909375 	0.005 	-0.0397099
0.05 	0.0915625 	0.005 	-0.0392844
0.05 	0.0921875 	0.005 	-0.0388618
0.05 	0.0928125 	0.005 	-0.0384411
0.05 	0.0934375 	0.005 	-0.038021
0.05 	0.0940625 	0.005 	-0.0376
0.05 	0.0946875 	0.005 	-0.0371763
0.05 	0.0953125 	0.005 	-0.0367483
0.05 	0.0959375 	0.005 	-0.0363139
0.05 	0.0965625 	0.005 	-0.0358709
0.05 	0.0971875 	0.005 	-0.0354172
0.05 	0.0978125 	0.005 	-0.0349536
0.05 	0.0984375 	0.005 	-0.0344815
0.05 	0.0990625 	0.005 	-0.033958
0.05 	0.0996875 	0.005 	-0.0333405
