0.05 	0.0003125 	0.005 	-0.0017681 	4.43773e-07 	0
0.05 	0.0009375 	0.005 	-0.00514636 	2.78636e-06 	0
0.05 	0.0015625 	0.005 	-0.00837592 	7.61645e-06 	0
0.05 	0.0021875 	0.005 	-0.0114653 	1.42169e-05 	0
0.05 	0.0028125 	0.005 	-0.0144225 	2.21158e-05 	0
0.05 	0.0034375 	0.005 	-0.0172553 	3.09846e-05 	0
0.05 	0.0040625 	0.005 	-0.019971 	4.05234e-05 	0
0.05 	0.0046875 	0.005 	-0.022577 	5.04715e-05 	0
0.05 	0.0053125 	0.005 	-0.0250802 	6.06191e-05 	0
0.05 	0.0059375 	0.005 	-0.0274873 	7.08101e-05 	0
0.05 	0.0065625 	0.005 	-0.0298048 	8.09439e-05 	0
0.05 	0.0071875 	0.005 	-0.0320391 	9.09784e-05 	0
0.05 	0.0078125 	0.005 	-0.0341965 	0.000100932 	0
0.05 	0.0084375 	0.005 	-0.0362828 	0.000110889 	0
0.05 	0.0090625 	0.005 	-0.0383039 	0.000120998 	0
0.05 	0.0096875 	0.005 	-0.0402655 	0.000131479 	0
0.05 	0.0103125 	0.005 	-0.0421733 	0.000142626 	0
0.05 	0.0109375 	0.005 	-0.0440326 	0.000154807 	0
0.05 	0.0115625 	0.005 	-0.0458489 	0.000168474 	0
0.05 	0.0121875 	0.005 	-0.0476272 	0.000184161 	0
0.05 	0.0128125 	0.005 	-0.0493729 	0.000202491 	0
0.05 	0.0134375 	0.005 	-0.0510909 	0.00022418 	0
0.05 	0.0140625 	0.005 	-0.0527862 	0.000250043 	0
0.05 	0.0146875 	0.005 	-0.0544636 	0.000280997 	0
0.05 	0.0153125 	0.005 	-0.056128 	0.000318068 	0
0.05 	0.0159375 	0.005 	-0.057784 	0.000362394 	0
0.05 	0.0165625 	0.005 	-0.0594364 	0.000415237 	0
0.05 	0.0171875 	0.005 	-0.0610898 	0.000477979 	0
0.05 	0.0178125 	0.005 	-0.0627485 	0.000552141 	0
0.05 	0.0184375 	0.005 	-0.0644171 	0.000639376 	0
0.05 	0.0190625 	0.005 	-0.0661 	0.000741487 	0
0.05 	0.0196875 	0.005 	-0.0678013 	0.000860426 	0
0.05 	0.0203125 	0.005 	-0.0695254 	0.000998302 	0
0.05 	0.0209375 	0.005 	-0.0712762 	0.00115739 	0
0.05 	0.0215625 	0.005 	-0.0730578 	0.00134013 	0
0.05 	0.0221875 	0.005 	-0.0748741 	0.00154914 	0
0.05 	0.0228125 	0.005 	-0.0767287 	0.00178721 	0
0.05 	0.0234375 	0.005 	-0.0786253 	0.00205732 	0
0.05 	0.0240625 	0.005 	-0.0805672 	0.00236263 	0
0.05 	0.0246875 	0.005 	-0.0825576 	0.00270648 	0
0.05 	0.0253125 	0.005 	-0.0845995 	0.0030924 	0
0.05 	0.0259375 	0.005 	-0.0866957 	0.00352412 	0
0.05 	0.0265625 	0.005 	-0.0888485 	0.00400551 	0
0.05 	0.0271875 	0.005 	-0.0910601 	0.00454063 	0
0.05 	0.0278125 	0.005 	-0.0933322 	0.00513373 	0
0.05 	0.0284375 	0.005 	-0.0956662 	0.00578916 	0
0.05 	0.0290625 	0.005 	-0.0980629 	0.00651146 	0
0.05 	0.0296875 	0.005 	-0.100523 	0.00730524 	0
0.05 	0.0303125 	0.005 	-0.103046 	0.00817524 	0
0.05 	0.0309375 	0.005 	-0.105631 	0.00912626 	0
0.05 	0.0315625 	0.005 	-0.108277 	0.0101632 	0
0.05 	0.0321875 	0.005 	-0.110982 	0.0112908 	0
0.05 	0.0328125 	0.005 	-0.113743 	0.012514 	0
0.05 	0.0334375 	0.005 	-0.116557 	0.0138375 	0
0.05 	0.0340625 	0.005 	-0.11942 	0.0152661 	0
0.05 	0.0346875 	0.005 	-0.122325 	0.0168042 	0
0.05 	0.0353125 	0.005 	-0.125268 	0.0184561 	0
0.05 	0.0359375 	0.005 	-0.12824 	0.020226 	0
0.05 	0.0365625 	0.005 	-0.131235 	0.0221175 	0
0.05 	0.0371875 	0.005 	-0.134243 	0.024134 	0
0.05 	0.0378125 	0.005 	-0.137254 	0.0262786 	0
0.05 	0.0384375 	0.005 	-0.140258 	0.0285536 	0
0.05 	0.0390625 	0.005 	-0.143243 	0.0309609 	0
0.05 	0.0396875 	0.005 	-0.146197 	0.033502 	0
0.05 	0.0403125 	0.005 	-0.149105 	0.0361775 	0
0.05 	0.0409375 	0.005 	-0.151954 	0.0389873 	0
0.05 	0.0415625 	0.005 	-0.154729 	0.0419307 	0
0.05 	0.0421875 	0.005 	-0.157415 	0.045006 	0
0.05 	0.0428125 	0.005 	-0.159994 	0.0482109 	0
0.05 	0.0434375 	0.005 	-0.162451 	0.0515419 	0
0.05 	0.0440625 	0.005 	-0.164768 	0.0549949 	0
0.05 	0.0446875 	0.005 	-0.166929 	0.0585647 	0
0.05 	0.0453125 	0.005 	-0.168916 	0.0622454 	0
0.05 	0.0459375 	0.005 	-0.170713 	0.0660299 	0
0.05 	0.0465625 	0.005 	-0.172302 	0.0699104 	0
0.05 	0.0471875 	0.005 	-0.173667 	0.0738781 	0
0.05 	0.0478125 	0.005 	-0.174793 	0.0779234 	0
0.05 	0.0484375 	0.005 	-0.175664 	0.0820361 	0
0.05 	0.0490625 	0.005 	-0.176267 	0.0862048 	0
0.05 	0.0496875 	0.005 	-0.176588 	0.0904178 	0
0.05 	0.0503125 	0.005 	-0.176615 	0.0946626 	0
0.05 	0.0509375 	0.005 	-0.176337 	0.0989263 	0
0.05 	0.0515625 	0.005 	-0.175746 	0.103195 	0
0.05 	0.0521875 	0.005 	-0.174833 	0.107456 	0
0.05 	0.0528125 	0.005 	-0.173593 	0.111694 	0
0.05 	0.0534375 	0.005 	-0.172022 	0.115896 	0
0.05 	0.0540625 	0.005 	-0.170116 	0.120047 	0
0.05 	0.0546875 	0.005 	-0.167874 	0.124132 	0
0.05 	0.0553125 	0.005 	-0.165299 	0.128139 	0
0.05 	0.0559375 	0.005 	-0.162392 	0.132052 	0
0.05 	0.0565625 	0.005 	-0.159158 	0.135859 	0
0.05 	0.0571875 	0.005 	-0.155604 	0.139546 	0
0.05 	0.0578125 	0.005 	-0.151736 	0.143101 	0
0.05 	0.0584375 	0.005 	-0.147565 	0.146511 	0
0.05 	0.0590625 	0.005 	-0.143102 	0.149766 	0
0.05 	0.0596875 	0.005 	-0.138359 	0.152855 	0
0.05 	0.0603125 	0.005 	-0.133349 	0.155767 	0
0.05 	0.0609375 	0.005 	-0.128088 	0.158495 	0
0.05 	0.0615625 	0.005 	-0.12259 	0.161028 	0
0.05 	0.0621875 	0.005 	-0.116874 	0.16336 	0
0.05 	0.0628125 	0.005 	-0.110955 	0.165484 	0
0.05 	0.0634375 	0.005 	-0.104853 	0.167395 	0
0.05 	0.0640625 	0.005 	-0.0985845 	0.169087 	0
0.05 	0.0646875 	0.005 	-0.0921696 	0.170557 	0
0.05 	0.0653125 	0.005 	-0.0856267 	0.171801 	0
0.05 	0.0659375 	0.005 	-0.0789747 	0.172816 	0
0.05 	0.0665625 	0.005 	-0.0722324 	0.173602 	0
0.05 	0.0671875 	0.005 	-0.0654184 	0.174156 	0
0.05 	0.0678125 	0.005 	-0.0585509 	0.17448 	0
0.05 	0.0684375 	0.005 	-0.0516475 	0.174573 	0
0.05 	0.0690625 	0.005 	-0.0447253 	0.174436 	0
0.05 	0.0696875 	0.005 	-0.0378007 	0.174071 	0
0.05 	0.0703125 	0.005 	-0.0308892 	0.17348 	0
0.05 	0.0709375 	0.005 	-0.0240053 	0.172666 	0
0.05 	0.0715625 	0.005 	-0.0171623 	0.171632 	0
0.05 	0.0721875 	0.005 	-0.0103723 	0.170382 	0
0.05 	0.0728125 	0.005 	-0.00364612 	0.168919 	0
0.05 	0.0734375 	0.005 	0.00300727 	0.167248 	0
0.05 	0.0740625 	0.005 	0.00958062 	0.165372 	0
0.05 	0.0746875 	0.005 	0.0160687 	0.163298 	0
0.05 	0.0753125 	0.005 	0.0224688 	0.16103 	0
0.05 	0.0759375 	0.005 	0.0287808 	0.158572 	0
0.05 	0.0765625 	0.005 	0.0350077 	0.15593 	0
0.05 	0.0771875 	0.005 	0.041156 	0.153109 	0
0.05 	0.0778125 	0.005 	0.0472364 	0.150114 	0
0.05 	0.0784375 	0.005 	0.0532646 	0.14695 	0
0.05 	0.0790625 	0.005 	0.0592616 	0.143623 	0
0.05 	0.0796875 	0.005 	0.0652549 	0.140138 	0
0.05 	0.0803125 	0.005 	0.0712794 	0.136498 	0
0.05 	0.0809375 	0.005 	0.0773786 	0.13271 	0
0.05 	0.0815625 	0.005 	0.0836054 	0.128778 	0
0.05 	0.0821875 	0.005 	0.0900241 	0.124705 	0
0.05 	0.0828125 	0.005 	0.0967112 	0.120497 	0
0.05 	0.0834375 	0.005 	0.103757 	0.116157 	0
0.05 	0.0840625 	0.005 	0.111266 	0.111689 	0
0.05 	0.0846875 	0.005 	0.119362 	0.107098 	0
0.05 	0.0853125 	0.005 	0.128183 	0.102387 	0
0.05 	0.0859375 	0.005 	0.137887 	0.097562 	0
0.05 	0.0865625 	0.005 	0.148652 	0.0926267 	0
0.05 	0.0871875 	0.005 	0.160675 	0.0875872 	0
0.05 	0.0878125 	0.005 	0.17417 	0.0824504 	0
0.05 	0.0884375 	0.005 	0.18937 	0.0772246 	0
0.05 	0.0890625 	0.005 	0.206523 	0.07192 	0
0.05 	0.0896875 	0.005 	0.22589 	0.0665493 	0
0.05 	0.0903125 	0.005 	0.247736 	0.0611286 	0
0.05 	0.0909375 	0.005 	0.272331 	0.0556771 	0
0.05 	0.0915625 	0.005 	0.299938 	0.0502191 	0
0.05 	0.0921875 	0.005 	0.330805 	0.0447833 	0
0.05 	0.0928125 	0.005 	0.365154 	0.0394046 	0
0.05 	0.0934375 	0.005 	0.403171 	0.0341239 	0
0.05 	0.0940625 	0.005 	0.444988 	0.0289888 	0
0.05 	0.0946875 	0.005 	0.490671 	0.0240535 	0
0.05 	0.0953125 	0.005 	0.540203 	0.0193791 	0
0.05 	0.0959375 	0.005 	0.593465 	0.0150326 	0
0.05 	0.0965625 	0.005 	0.65022 	0.0110863 	0
0.05 	0.0971875 	0.005 	0.710094 	0.00761662 	0
0.05 	0.0978125 	0.005 	0.772567 	0.00469913 	0
0.05 	0.0984375 	0.005 	0.836952 	0.00240367 	0
0.05 	0.0990625 	0.005 	0.902392 	0.000825585 	0
0.05 	0.0996875 	0.005 	0.967857 	0.00011572 	0
