/*--------------------------------*- C++ -*----------------------------------*\
  =========                 |
  \\      /  F ield         | OpenFOAM: The Open Source CFD Toolbox
   \\    /   O peration     | Website:  https://openfoam.org
    \\  /    A nd           | Version:  7
     \\/     M anipulation  |
\*---------------------------------------------------------------------------*/
FoamFile
{
    version     2.0;
    format      ascii;
    class       volScalarField;
    location    "0.375";
    object      p;
}
// * * * * * * * * * * * * * * * * * * * * * * * * * * * * * * * * * * * * * //

dimensions      [0 2 -2 0 0 0 0];

internalField   nonuniform List<scalar> 
25600
(
-9.35969e-08
2.05522e-05
2.29082e-05
-2.88544e-06
-5.77047e-05
-0.000140164
-0.000247656
-0.000377005
-0.000524933
-0.000688279
-0.000864081
-0.00104959
-0.00124231
-0.00143995
-0.00164045
-0.00184196
-0.00204278
-0.00224138
-0.0024364
-0.00262658
-0.00281081
-0.00298812
-0.00315759
-0.00331843
-0.00346993
-0.00361148
-0.00374251
-0.00386256
-0.00397117
-0.00406796
-0.0041526
-0.00422483
-0.0042844
-0.00433114
-0.00436486
-0.00438545
-0.0043928
-0.00438686
-0.00436759
-0.00433498
-0.00428903
-0.00422974
-0.00415716
-0.00407132
-0.00397231
-0.00386018
-0.00373502
-0.00359695
-0.00344609
-0.00328258
-0.00310657
-0.00291823
-0.00271774
-0.00250529
-0.00228108
-0.00204532
-0.00179825
-0.00154011
-0.00127114
-0.000991612
-0.000701782
-0.00040194
-9.23884e-05
0.000226547
0.000554532
0.000891221
0.00123626
0.00158927
0.0019499
0.00231773
0.00269237
0.00307339
0.00346035
0.00385277
0.00425017
0.00465206
0.00505793
0.00546723
0.00587944
0.00629399
0.0067103
0.00712779
0.00754587
0.00796394
0.00838137
0.00879753
0.00921179
0.00962352
0.0100321
0.0104369
0.0108372
0.0112324
0.0116219
0.0120049
0.0123809
0.0127492
0.0131091
0.01346
0.0138014
0.0141325
0.0144529
0.0147619
0.0150589
0.0153435
0.015615
0.0158731
0.0161171
0.0163466
0.0165613
0.0167608
0.0169446
0.0171125
0.0172642
0.0173995
0.017518
0.0176197
0.0177045
0.0177723
0.017823
0.0178567
0.0178734
0.0178734
0.0178566
0.0178234
0.0177739
0.0177087
0.017628
0.0175323
0.0174221
0.0172979
0.0171605
0.0170104
0.0168485
0.0166754
0.0164922
0.0162996
0.0160988
0.0158907
0.0156765
0.0154575
0.0152349
0.0150102
0.0147846
0.0145599
0.0143376
0.0141196
0.0139075
0.0137034
0.0135092
0.0133273
0.0131598
0.013009
0.0128775
0.0127675
0.0126814
0.012621
0.0125871
0.012579
0.0125931
0.0126177
-2.07624e-05
-6.04701e-08
-1.90289e-06
-2.91969e-05
-8.06573e-05
-0.00015551
-0.000252116
-0.000368149
-0.000501045
-0.000648219
-0.00080715
-0.000975443
-0.00115086
-0.00133133
-0.00151494
-0.00169996
-0.00188479
-0.00206798
-0.0022482
-0.00242426
-0.00259507
-0.00275965
-0.00291713
-0.00306672
-0.00320771
-0.00333947
-0.00346146
-0.00357317
-0.00367416
-0.00376403
-0.00384246
-0.00390914
-0.00396383
-0.00400634
-0.00403647
-0.00405409
-0.00405908
-0.00405136
-0.0040309
-0.00399766
-0.00395164
-0.00389283
-0.00382126
-0.00373694
-0.00363995
-0.00353033
-0.00340818
-0.00327358
-0.00312666
-0.00296754
-0.00279637
-0.00261331
-0.00241852
-0.0022122
-0.00199452
-0.0017657
-0.00152597
-0.00127554
-0.00101468
-0.000743621
-0.000462631
-0.000171986
0.000128022
0.000437076
0.000754846
0.001081
0.00141519
0.00175706
0.00210624
0.00246236
0.00282502
0.0031938
0.00356828
0.003948
0.00433249
0.00472126
0.00511382
0.00550966
0.00590825
0.00630905
0.00671151
0.00711506
0.00751912
0.0079231
0.00832642
0.00872847
0.00912864
0.00952632
0.00992091
0.0103118
0.0106983
0.0110799
0.0114559
0.0118257
0.0121886
0.0125441
0.0128915
0.0132302
0.0135597
0.0138793
0.0141886
0.0144869
0.0147736
0.0150484
0.0153107
0.0155599
0.0157957
0.0160177
0.0162253
0.0164184
0.0165965
0.0167593
0.0169066
0.0170381
0.0171537
0.0172532
0.0173365
0.0174036
0.0174544
0.017489
0.0175074
0.0175098
0.0174963
0.0174672
0.0174227
0.0173632
0.017289
0.0172006
0.0170985
0.0169833
0.0168555
0.0167159
0.0165651
0.0164039
0.0162332
0.0160539
0.0158669
0.0156733
0.0154741
0.0152706
0.0150639
0.0148555
0.0146466
0.0144387
0.0142335
0.0140324
0.0138373
0.0136498
0.0134719
0.0133056
0.0131526
0.0130152
0.0128953
0.0127947
0.0127151
0.0126578
0.0126229
0.0126098
0.0126176
0.0126422
-2.30202e-05
1.90947e-06
5.98629e-08
-2.70969e-05
-7.60458e-05
-0.000145864
-0.000235207
-0.000342129
-0.000464479
-0.000600043
-0.000746622
-0.000902099
-0.00106445
-0.0012318
-0.00140237
-0.00157454
-0.0017468
-0.00191779
-0.00208623
-0.00225097
-0.00241096
-0.00256524
-0.00271297
-0.00285337
-0.00298575
-0.00310948
-0.003224
-0.00332882
-0.00342349
-0.00350762
-0.00358086
-0.00364291
-0.00369352
-0.00373247
-0.00375957
-0.00377468
-0.00377768
-0.00376846
-0.00374698
-0.0037132
-0.00366711
-0.0036087
-0.00353798
-0.00345495
-0.00335966
-0.00325217
-0.00313256
-0.00300092
-0.00285734
-0.00270195
-0.00253489
-0.00235632
-0.00216638
-0.00196526
-0.00175315
-0.00153024
-0.00129674
-0.00105289
-0.000798912
-0.000535058
-0.000261578
2.12524e-05
0.000313151
0.000613813
0.000922912
0.00124013
0.00156512
0.00189753
0.00223702
0.00258322
0.00293574
0.00329417
0.0036581
0.00402709
0.00440067
0.00477838
0.00515972
0.00554421
0.00593133
0.00632057
0.00671138
0.00710321
0.0074955
0.00788766
0.00827914
0.00866936
0.00905772
0.00944364
0.00982653
0.0102058
0.0105808
0.010951
0.0113158
0.0116745
0.0120265
0.0123713
0.0127083
0.0130369
0.0133565
0.0136666
0.0139666
0.014256
0.0145342
0.0148009
0.0150554
0.0152974
0.0155265
0.0157421
0.0159439
0.0161317
0.016305
0.0164636
0.0166073
0.0167357
0.0168489
0.0169465
0.0170286
0.017095
0.0171459
0.0171812
0.0172009
0.0172053
0.0171945
0.0171687
0.0171282
0.0170733
0.0170045
0.0169221
0.0168266
0.0167186
0.0165986
0.0164674
0.0163257
0.0161741
0.0160135
0.0158448
0.015669
0.0154869
0.0152997
0.0151086
0.0149146
0.0147191
0.0145233
0.0143287
0.0141368
0.0139489
0.0137668
0.0135921
0.0134265
0.0132718
0.0131297
0.0130019
0.0128902
0.0127962
0.0127213
0.0126665
0.012632
0.0126176
0.0126255
0.0126563
2.81623e-06
2.93063e-05
2.7316e-05
1.37501e-07
-4.74963e-05
-0.000114359
-0.000199113
-0.000299968
-0.000414994
-0.000542227
-0.000679709
-0.00082553
-0.00097786
-0.00113497
-0.00129523
-0.00145712
-0.00161923
-0.00178026
-0.00193901
-0.00209437
-0.00224533
-0.00239098
-0.00253048
-0.00266309
-0.00278813
-0.00290499
-0.00301311
-0.00311199
-0.0032012
-0.00328035
-0.00334908
-0.00340709
-0.00345414
-0.00348998
-0.00351443
-0.00352733
-0.00352856
-0.00351802
-0.00349565
-0.00346141
-0.00341526
-0.00335719
-0.00328722
-0.00320533
-0.00311157
-0.00300599
-0.00288864
-0.00275963
-0.00261904
-0.00246699
-0.00230361
-0.00212905
-0.00194345
-0.00174699
-0.00153985
-0.00132222
-0.00109432
-0.000856344
-0.000608531
-0.000351115
-8.43474e-05
0.000191507
0.000476166
0.000769334
0.0010707
0.00137994
0.00169673
0.00202073
0.0023516
0.00268897
0.00303248
0.00338172
0.00373629
0.00409576
0.00445967
0.00482757
0.00519899
0.00557344
0.00595044
0.00632947
0.00670999
0.00709148
0.0074734
0.00785517
0.00823623
0.00861605
0.00899405
0.00936966
0.00974229
0.0101114
0.0104763
0.0108366
0.0111915
0.0115405
0.0118831
0.0122186
0.0125465
0.0128662
0.0131772
0.013479
0.0137709
0.0140526
0.0143235
0.0145831
0.014831
0.0150667
0.0152898
0.0154999
0.0156967
0.0158799
0.016049
0.016204
0.0163445
0.0164703
0.0165813
0.0166773
0.0167583
0.0168242
0.0168751
0.0169109
0.0169318
0.0169378
0.0169292
0.0169062
0.0168691
0.0168182
0.0167538
0.0166764
0.0165865
0.0164846
0.0163712
0.0162471
0.016113
0.0159694
0.0158173
0.0156575
0.0154909
0.0153185
0.0151412
0.0149602
0.0147767
0.0145917
0.0144067
0.0142228
0.0140415
0.0138642
0.0136925
0.0135277
0.0133716
0.0132257
0.0130916
0.0129709
0.0128652
0.0127758
0.0127041
0.0126511
0.0126173
0.012603
0.0126123
0.0126483
5.76505e-05
8.0901e-05
7.64054e-05
4.7825e-05
1.10621e-07
-6.5335e-05
-0.000147164
-0.000243703
-0.000353196
-0.000473882
-0.000604001
-0.000741835
-0.00088572
-0.00103407
-0.00118539
-0.00133827
-0.00149139
-0.00164354
-0.00179357
-0.00194044
-0.00208319
-0.00222093
-0.00235288
-0.0024783
-0.00259654
-0.002707
-0.00280914
-0.00290247
-0.00298655
-0.003061
-0.00312548
-0.00317968
-0.00322334
-0.00325624
-0.00327817
-0.00328898
-0.00328853
-0.00327673
-0.00325352
-0.00321884
-0.00317265
-0.00311493
-0.00304569
-0.00296492
-0.00287265
-0.00276891
-0.00265378
-0.00252733
-0.00238965
-0.00224085
-0.00208105
-0.00191039
-0.00172902
-0.0015371
-0.0013348
-0.0011223
-0.000899826
-0.000667566
-0.000425744
-0.000174587
8.5659e-05
0.000354737
0.000632371
0.000918267
0.00121213
0.00151364
0.00182249
0.00213834
0.00246087
0.00278971
0.00312451
0.00346488
0.00381041
0.00416068
0.00451526
0.00487371
0.00523557
0.00560037
0.00596763
0.00633683
0.00670748
0.00707905
0.007451
0.00782281
0.00819392
0.00856378
0.00893186
0.00929761
0.00966046
0.0100198
0.0103752
0.0107259
0.0110715
0.0114113
0.0117449
0.0120715
0.0123908
0.0127021
0.0130049
0.0132988
0.0135831
0.0138575
0.0141213
0.0143743
0.0146158
0.0148455
0.0150631
0.015268
0.01546
0.0156388
0.0158041
0.0159556
0.0160931
0.0162164
0.0163253
0.0164198
0.0164997
0.0165651
0.0166159
0.0166522
0.016674
0.0166816
0.0166751
0.0166547
0.0166206
0.0165733
0.0165131
0.0164403
0.0163555
0.0162592
0.0161519
0.0160343
0.0159071
0.0157709
0.0156265
0.0154748
0.0153166
0.0151529
0.0149846
0.0148128
0.0146386
0.0144632
0.0142876
0.0141133
0.0139414
0.0137733
0.0136105
0.0134542
0.0133061
0.0131676
0.0130401
0.0129251
0.012824
0.0127382
0.0126687
0.0126168
0.0125832
0.0125684
0.0125776
0.0126149
0.000140239
0.000156027
0.000146484
0.000114807
6.54376e-05
-1.71505e-07
-8.06932e-05
-0.000174566
-0.000280201
-0.000396
-0.000520383
-0.000651799
-0.000788737
-0.000929754
-0.00107347
-0.00121859
-0.00136388
-0.00150822
-0.00165052
-0.00178981
-0.00192518
-0.00205578
-0.00218086
-0.00229972
-0.00241173
-0.0025163
-0.00261292
-0.0027011
-0.00278043
-0.00285051
-0.00291101
-0.00296164
-0.00300214
-0.00303227
-0.00305184
-0.00306068
-0.00305867
-0.00304569
-0.00302169
-0.00298662
-0.00294042
-0.00288306
-0.00281454
-0.00273486
-0.00264403
-0.0025421
-0.00242911
-0.00230514
-0.00217028
-0.00202463
-0.0018683
-0.00170142
-0.00152414
-0.00133661
-0.00113899
-0.000931471
-0.00071424
-0.000487501
-0.000251469
-6.35854e-06
0.000247588
0.000510119
0.000780972
0.00105986
0.00134648
0.00164055
0.00194175
0.00224976
0.00256426
0.0028849
0.00321133
0.00354317
0.00388003
0.00422148
0.00456712
0.00491652
0.00526923
0.00562479
0.00598273
0.00634256
0.00670378
0.00706589
0.00742835
0.00779066
0.00815228
0.0085127
0.00887136
0.00922775
0.00958131
0.00993149
0.0102777
0.0106195
0.0109562
0.0112873
0.0116123
0.0119306
0.0122417
0.0125451
0.0128403
0.0131267
0.0134038
0.0136713
0.0139285
0.0141752
0.0144107
0.0146349
0.0148471
0.0150472
0.0152347
0.0154095
0.015571
0.0157193
0.0158539
0.0159748
0.0160818
0.0161748
0.0162537
0.0163185
0.0163692
0.0164059
0.0164287
0.0164377
0.016433
0.0164149
0.0163836
0.0163396
0.0162831
0.0162145
0.0161344
0.0160431
0.0159413
0.0158297
0.0157087
0.0155791
0.0154417
0.0152973
0.0151467
0.0149908
0.0148305
0.014667
0.0145011
0.014334
0.0141668
0.0140007
0.0138369
0.0136768
0.0135215
0.0133725
0.0132311
0.0130985
0.0129763
0.0128657
0.012768
0.0126844
0.0126161
0.0125644
0.0125298
0.0125135
0.0125205
0.0125551
0.000248131
0.000253154
0.000236288
0.000199817
0.000147208
7.98728e-05
-9.05939e-07
-9.36987e-05
-0.000197064
-0.000309564
-0.000429771
-0.00055628
-0.000687726
-0.000822796
-0.000960226
-0.00109882
-0.00123746
-0.00137507
-0.00151066
-0.0016433
-0.00177214
-0.0018964
-0.00201534
-0.00212831
-0.00223468
-0.00233392
-0.00242551
-0.002509
-0.00258397
-0.00265004
-0.00270689
-0.00275423
-0.0027918
-0.00281937
-0.00283675
-0.00284378
-0.00284033
-0.00282628
-0.00280158
-0.00276615
-0.00271997
-0.00266299
-0.00259519
-0.00251657
-0.00242715
-0.00232695
-0.00221604
-0.00209447
-0.00196233
-0.00181971
-0.00166672
-0.00150347
-0.00133012
-0.00114681
-0.000953689
-0.000750946
-0.000538759
-0.000317318
-8.68396e-05
0.000152469
0.000400377
0.000656633
0.000920984
0.00119316
0.00147286
0.0017598
0.00205369
0.00235422
0.00266105
0.00297387
0.00329232
0.00361603
0.00394462
0.00427769
0.00461484
0.00495563
0.00529966
0.00564645
0.00599556
0.00634651
0.00669881
0.00705196
0.00740546
0.0077588
0.00811148
0.00846298
0.00881279
0.00916036
0.00950518
0.00984671
0.0101844
0.0105177
0.0108461
0.0111691
0.0114861
0.0117966
0.0121001
0.012396
0.012684
0.0129634
0.0132339
0.0134949
0.013746
0.0139868
0.0142168
0.0144357
0.0146431
0.0148386
0.015022
0.0151928
0.015351
0.0154962
0.0156282
0.0157468
0.015852
0.0159435
0.0160215
0.0160857
0.0161364
0.0161734
0.0161969
0.0162071
0.016204
0.016188
0.0161593
0.0161181
0.016065
0.0160002
0.0159242
0.0158375
0.0157406
0.0156342
0.0155188
0.0153952
0.015264
0.015126
0.0149821
0.014833
0.0146798
0.0145234
0.0143647
0.0142048
0.0140448
0.0138858
0.0137289
0.0135754
0.0134264
0.0132832
0.0131471
0.0130192
0.0129009
0.0127933
0.0126977
0.0126153
0.0125471
0.0124943
0.0124578
0.0124385
0.0124414
0.0124699
0.000378334
0.0003701
0.000343997
0.000301173
0.000243846
0.000173339
9.08666e-05
-2.28341e-06
-0.000104818
-0.000215447
-0.000332879
-0.000455849
-0.000583128
-0.000713521
-0.000845878
-0.000979108
-0.00111216
-0.00124406
-0.00137388
-0.00150076
-0.00162391
-0.00174257
-0.00185607
-0.00196378
-0.00206512
-0.00215955
-0.00224659
-0.00232582
-0.00239682
-0.00245924
-0.00251275
-0.00255707
-0.00259196
-0.00261719
-0.00263257
-0.00263794
-0.00263317
-0.00261816
-0.00259283
-0.00255712
-0.00251099
-0.0024544
-0.00238732
-0.00230975
-0.00222169
-0.00212319
-0.00201429
-0.00189504
-0.00176553
-0.00162583
-0.00147605
-0.00131631
-0.00114673
-0.000967474
-0.000778681
-0.000580524
-0.000373181
-0.000156832
6.83206e-05
0.000302064
0.00054418
0.000794427
0.00105255
0.00131829
0.00159138
0.00187152
0.00215842
0.0024518
0.00275132
0.00305668
0.00336752
0.0036835
0.00400422
0.00432932
0.00465839
0.00499102
0.0053268
0.00566529
0.00600604
0.00634858
0.00669244
0.00703714
0.00738219
0.00772708
0.00807133
0.00841445
0.00875591
0.00909521
0.00943182
0.00976522
0.0100949
0.0104203
0.010741
0.0110563
0.0113658
0.011669
0.0119654
0.0122544
0.0125356
0.0128086
0.0130728
0.0133278
0.0135732
0.0138085
0.0140334
0.0142474
0.0144502
0.0146415
0.014821
0.0149883
0.0151433
0.0152856
0.0154151
0.0155317
0.0156351
0.0157254
0.0158024
0.0158661
0.0159166
0.0159538
0.015978
0.0159892
0.0159876
0.0159734
0.0159469
0.0159083
0.0158582
0.0157967
0.0157244
0.0156417
0.0155492
0.0154474
0.015337
0.0152185
0.0150928
0.0149605
0.0148224
0.0146793
0.0145322
0.014382
0.0142295
0.0140758
0.0139218
0.0137687
0.0136176
0.0134695
0.0133256
0.013187
0.0130548
0.0129304
0.0128148
0.0127091
0.0126144
0.0125319
0.0124627
0.0124077
0.012368
0.0123445
0.0123413
0.0123612
0.000527769
0.000504466
0.000467595
0.000417073
0.000353715
0.000278734
0.000193278
9.84799e-05
-4.51313e-06
-0.000114545
-0.000230463
-0.000351133
-0.00047544
-0.000602312
-0.000730706
-0.000859619
-0.000988097
-0.00111523
-0.00124017
-0.00136212
-0.00148033
-0.00159413
-0.00170285
-0.00180591
-0.00190276
-0.0019929
-0.00207588
-0.00215126
-0.00221867
-0.00227778
-0.00232826
-0.00236985
-0.0024023
-0.0024254
-0.00243896
-0.00244283
-0.00243687
-0.002421
-0.00239514
-0.00235922
-0.00231318
-0.002257
-0.00219065
-0.00211412
-0.00202741
-0.00193056
-0.00182361
-0.00170661
-0.00157963
-0.00144275
-0.00129607
-0.0011397
-0.000973767
-0.000798409
-0.000613776
-0.000420027
-0.000217334
-5.87339e-06
0.000214164
0.000442574
0.000679137
0.000923625
0.0011758
0.00143539
0.00170214
0.00197578
0.00225602
0.00254257
0.00283512
0.00313336
0.00343696
0.00374557
0.00405882
0.00437634
0.00469775
0.00502264
0.00535062
0.00568124
0.00601408
0.00634868
0.00668458
0.0070213
0.00735837
0.00769531
0.00803164
0.00836686
0.00870049
0.00903201
0.00936092
0.00968671
0.0100089
0.0103269
0.0106403
0.0109485
0.011251
0.0115474
0.0118371
0.0121197
0.0123947
0.0126616
0.01292
0.0131694
0.0134095
0.0136398
0.0138598
0.0140694
0.014268
0.0144554
0.0146312
0.0147953
0.0149473
0.015087
0.0152142
0.0153288
0.0154306
0.0155196
0.0155957
0.0156588
0.0157091
0.0157465
0.0157712
0.0157833
0.0157829
0.0157703
0.0157458
0.0157095
0.015662
0.0156034
0.0155343
0.0154552
0.0153665
0.0152688
0.0151627
0.0150488
0.0149278
0.0148004
0.0146674
0.0145295
0.0143876
0.0142426
0.0140953
0.0139468
0.0137979
0.0136497
0.0135031
0.0133593
0.0132193
0.0130842
0.012955
0.0128328
0.0127187
0.0126137
0.0125189
0.0124353
0.0123639
0.0123058
0.0122617
0.0122327
0.0122218
0.012231
0.000693489
0.000653839
0.000605021
0.000545685
0.000475169
0.000394578
0.000304993
0.000207395
0.000102794
-7.78778e-06
-0.000123327
-0.000242811
-0.000365243
-0.000489651
-0.000615093
-0.000740664
-0.00086549
-0.00098874
-0.00110963
-0.00122742
-0.00134144
-0.00145103
-0.00155561
-0.00165461
-0.00174752
-0.00183386
-0.00191322
-0.00198517
-0.00204938
-0.00210551
-0.00215326
-0.00219239
-0.00222264
-0.00224383
-0.00225576
-0.00225829
-0.00225129
-0.00223467
-0.00220836
-0.00217229
-0.00212641
-0.00207067
-0.00200505
-0.00192955
-0.00184417
-0.00174893
-0.00164388
-0.00152907
-0.00140454
-0.00127039
-0.0011267
-0.000973574
-0.000811146
-0.000639544
-0.000458911
-0.000269402
-7.11745e-05
0.000135598
0.000350728
0.000574024
0.000805271
0.00104424
0.00129072
0.00154444
0.00180515
0.00207258
0.00234647
0.00262651
0.00291242
0.00320389
0.0035006
0.00380221
0.00410837
0.0044187
0.00473285
0.00505041
0.005371
0.00569419
0.00601956
0.00634667
0.00667506
0.00700427
0.00733384
0.0076633
0.00799219
0.00832001
0.00864628
0.00897052
0.00929223
0.00961091
0.00992606
0.0102372
0.0105438
0.0108454
0.0111414
0.0114315
0.011715
0.0119916
0.0122608
0.0125221
0.0127751
0.0130194
0.0132545
0.0134801
0.0136958
0.0139011
0.0140959
0.0142796
0.0144522
0.0146131
0.0147624
0.0148996
0.0150247
0.0151375
0.0152378
0.0153256
0.0154008
0.0154634
0.0155135
0.015551
0.0155761
0.0155889
0.0155896
0.0155784
0.0155555
0.0155212
0.0154759
0.01542
0.0153537
0.0152776
0.0151923
0.0150981
0.0149957
0.0148857
0.0147688
0.0146456
0.0145169
0.0143833
0.0142458
0.0141052
0.0139623
0.013818
0.0136732
0.0135288
0.0133859
0.0132454
0.0131082
0.0129755
0.0128481
0.0127271
0.0126135
0.0125082
0.0124123
0.0123265
0.012252
0.0121896
0.0121401
0.0121045
0.0120847
0.0120817
0.00087276
0.000815894
0.000754242
0.00068519
0.00060657
0.000519392
0.000424682
0.000323277
0.000216046
0.00010389
-1.2288e-05
-0.000131593
-0.000253138
-0.000376049
-0.000499472
-0.000622591
-0.000744617
-0.000864796
-0.00098241
-0.00109678
-0.00120729
-0.00131333
-0.00141435
-0.00150985
-0.00159933
-0.00168236
-0.00175853
-0.00182746
-0.00188883
-0.00194231
-0.00198765
-0.00202457
-0.00205288
-0.00207236
-0.00208285
-0.0020842
-0.0020763
-0.00205905
-0.00203239
-0.00199624
-0.00195055
-0.00189529
-0.00183042
-0.00175595
-0.00167188
-0.00157823
-0.00147503
-0.00136233
-0.00124019
-0.00110867
-0.000967865
-0.000817874
-0.000658822
-0.000490838
-0.000314051
-0.000128614
6.5322e-05
0.000267598
0.000478026
0.00069642
0.00092258
0.00115628
0.00139731
0.00164543
0.00190037
0.00216189
0.00242971
0.00270357
0.00298317
0.0032682
0.00355837
0.00385334
0.00415277
0.0044563
0.00476358
0.00507422
0.00538782
0.005704
0.00602233
0.00634238
0.0066637
0.00698586
0.00730839
0.00763084
0.00795275
0.00827365
0.00859304
0.00891048
0.00922546
0.00953751
0.00984614
0.0101509
0.0104512
0.0107466
0.0110366
0.0113208
0.0115986
0.0118696
0.0121335
0.0123896
0.0126377
0.0128772
0.0131078
0.0133291
0.0135406
0.0137422
0.0139333
0.0141138
0.0142832
0.0144414
0.0145881
0.0147231
0.0148462
0.0149573
0.0150562
0.0151429
0.0152172
0.0152793
0.0153291
0.0153667
0.0153921
0.0154055
0.0154071
0.0153971
0.0153756
0.0153431
0.0152997
0.0152459
0.0151821
0.0151086
0.0150261
0.0149349
0.0148357
0.014729
0.0146155
0.0144959
0.0143707
0.0142408
0.0141069
0.0139698
0.0138304
0.0136895
0.0135478
0.0134064
0.0132662
0.0131279
0.0129927
0.0128613
0.0127348
0.0126141
0.0125
0.0123934
0.0122954
0.0122066
0.012128
0.0120604
0.0120046
0.0119614
0.0119317
0.0119154
0.00106307
0.00098842
0.000913287
0.00083381
0.000746308
0.000651717
0.000551028
0.00044494
0.000334184
0.000219544
0.000101815
-1.82136e-05
-0.000139758
-0.00026204
-0.000384296
-0.000505788
-0.000625805
-0.000743668
-0.000858726
-0.00097036
-0.00107799
-0.00118109
-0.00127913
-0.00137164
-0.00145819
-0.00153835
-0.00161176
-0.00167806
-0.00173695
-0.00178811
-0.00183132
-0.00186632
-0.0018929
-0.00191089
-0.00192012
-0.00192046
-0.0019118
-0.00189404
-0.00186711
-0.00183095
-0.00178552
-0.00173077
-0.00166668
-0.00159325
-0.00151048
-0.00141838
-0.00131699
-0.00120635
-0.00108652
-0.000957547
-0.00081953
-0.000672566
-0.000516766
-0.000352263
-0.000179178
2.34915e-06
0.000192169
0.000390128
0.000596052
0.000809757
0.00103105
0.00125972
0.00149555
0.00173832
0.00198777
0.00224366
0.00250572
0.00277368
0.00304729
0.00332622
0.00361019
0.00389887
0.00419193
0.00448904
0.00478982
0.00509392
0.00540095
0.00571052
0.00602222
0.00633563
0.00665033
0.00696587
0.00728181
0.0075977
0.0079131
0.00822752
0.00854051
0.0088516
0.00916033
0.00946622
0.0097688
0.0100676
0.0103621
0.0106518
0.0109362
0.011215
0.0114875
0.0117535
0.0120124
0.0122638
0.0125073
0.0127424
0.0129689
0.0131862
0.013394
0.0135921
0.0137799
0.0139573
0.014124
0.0142796
0.014424
0.0145569
0.0146782
0.0147877
0.0148853
0.0149709
0.0150445
0.0151061
0.0151556
0.0151931
0.0152188
0.0152327
0.015235
0.015226
0.0152057
0.0151746
0.0151328
0.0150809
0.0150191
0.0149478
0.0148677
0.014779
0.0146825
0.0145785
0.0144679
0.0143511
0.0142288
0.0141018
0.0139708
0.0138366
0.0136998
0.0135614
0.0134221
0.0132828
0.0131443
0.0130075
0.0128732
0.0127424
0.0126158
0.0124943
0.0123789
0.0122702
0.0121691
0.0120765
0.011993
0.0119194
0.0118565
0.011805
0.0117646
0.0117342
0.00126212
0.00116935
0.00108028
0.000989829
0.000892822
0.000790138
0.000682738
0.000571205
0.000456142
0.00033822
0.000218131
9.6571e-05
-2.57726e-05
-0.000148209
-0.000270066
-0.000390679
-0.000509412
-0.000625654
-0.000738819
-0.000848348
-0.000953716
-0.00105443
-0.00115003
-0.00124006
-0.00132414
-0.00140187
-0.00147292
-0.00153696
-0.0015937
-0.00164288
-0.00168423
-0.00171756
-0.00174267
-0.00175937
-0.00176753
-0.00176701
-0.00175772
-0.00173956
-0.00171246
-0.00167638
-0.00163126
-0.00157707
-0.00151378
-0.00144139
-0.00135991
-0.00126934
-0.00116973
-0.0010611
-0.000943502
-0.000817001
-0.000681679
-0.000537634
-0.000384973
-0.000223818
-5.42906e-05
0.000123479
0.000309351
0.000503175
0.000704783
0.000914003
0.00113064
0.00135451
0.00158539
0.00182306
0.00206728
0.00231781
0.00257439
0.00283678
0.00310469
0.00337784
0.00365594
0.00393868
0.00422573
0.00451677
0.00481144
0.00510937
0.00541022
0.00571357
0.00601905
0.00632624
0.00663473
0.00694408
0.00725387
0.00756365
0.00787297
0.00818138
0.00848841
0.00879362
0.00909656
0.00939675
0.00969373
0.00998701
0.0102761
0.0105606
0.0108399
0.0111137
0.0113814
0.0116427
0.0118971
0.0121441
0.0123834
0.0126146
0.0128373
0.013051
0.0132555
0.0134503
0.0136352
0.0138098
0.0139739
0.0141272
0.0142695
0.0144005
0.0145201
0.0146282
0.0147246
0.0148093
0.0148821
0.0149431
0.0149924
0.0150299
0.0150557
0.01507
0.0150729
0.0150646
0.0150453
0.0150153
0.014975
0.0149245
0.0148644
0.014795
0.0147167
0.0146302
0.0145357
0.014434
0.0143256
0.0142111
0.0140911
0.0139664
0.0138376
0.0137054
0.0135706
0.0134339
0.0132962
0.0131581
0.0130206
0.0128844
0.0127502
0.012619
0.0124916
0.0123686
0.012251
0.0121394
0.0120346
0.0119372
0.0118481
0.0117678
0.0116971
0.0116367
0.011585
0.0115399
0.0014678
0.00135675
0.00125345
0.00115161
0.00104461
0.000933275
0.000818558
0.000700925
0.000580874
0.000458971
0.000335811
0.000212004
8.81481e-05
-3.51499e-05
-0.000157301
-0.000277719
-0.000395835
-0.000511099
-0.000622984
-0.000730994
-0.000834654
-0.00093352
-0.00102717
-0.00111521
-0.00119726
-0.00127297
-0.00134205
-0.00140419
-0.00145912
-0.00150659
-0.00154638
-0.00157829
-0.00160214
-0.00161777
-0.00162503
-0.00162382
-0.00161403
-0.00159558
-0.00156842
-0.00153249
-0.00148774
-0.00143414
-0.00137169
-0.00130036
-0.00122016
-0.0011311
-0.00103323
-0.000926556
-0.000811138
-0.000687033
-0.000554319
-0.000413092
-0.000263456
-0.000105525
6.05848e-05
0.000234748
0.000416835
0.000606701
0.000804181
0.00100911
0.00122131
0.00144059
0.00166675
0.00189957
0.00213881
0.00238426
0.00263565
0.00289273
0.00315526
0.00342294
0.00369549
0.00397263
0.00425402
0.00453934
0.00482825
0.0051204
0.00541543
0.00571297
0.00601262
0.00631399
0.00661669
0.00692028
0.00722434
0.00752844
0.00783212
0.00813494
0.00843647
0.00873625
0.00903384
0.00932878
0.0096206
0.00990883
0.010193
0.0104726
0.0107473
0.0110165
0.0112798
0.0115369
0.0117871
0.0120303
0.0122658
0.0124934
0.0127126
0.0129231
0.0131244
0.0133164
0.0134986
0.0136707
0.0138325
0.0139837
0.0141241
0.0142534
0.0143715
0.0144783
0.0145736
0.0146574
0.0147296
0.0147901
0.014839
0.0148764
0.0149023
0.0149169
0.0149202
0.0149126
0.0148941
0.014865
0.0148258
0.0147765
0.0147177
0.0146498
0.0145731
0.0144881
0.0143954
0.0142953
0.0141887
0.0140759
0.0139576
0.0138345
0.0137072
0.0135764
0.0134429
0.0133073
0.0131703
0.0130328
0.0128954
0.012759
0.0126243
0.0124919
0.0123628
0.0122376
0.012117
0.0120018
0.0118925
0.0117898
0.0116944
0.0116068
0.0115277
0.0114579
0.0113945
0.0113344
0.00167819
0.00154884
0.00143113
0.0013176
0.00120023
0.0010798
0.000957262
0.000832978
0.000707352
0.000580859
0.000454007
0.000327318
0.000201312
7.65156e-05
-4.65586e-05
-0.000167398
-0.000285498
-0.000400372
-0.000511544
-0.000618576
-0.000721046
-0.000818556
-0.00091073
-0.000997209
-0.00107766
-0.00115176
-0.00121923
-0.00127981
-0.00133324
-0.0013793
-0.00141779
-0.00144852
-0.00147133
-0.00148607
-0.00149262
-0.00149087
-0.00148072
-0.0014621
-0.00143496
-0.00139926
-0.00135495
-0.001302
-0.0012404
-0.00117014
-0.00109123
-0.00100367
-0.000907501
-0.000802747
-0.000689451
-0.00056767
-0.00043748
-0.000298975
-0.000152253
2.57423e-06
0.000165402
0.000336107
0.000514566
0.000700643
0.000894181
0.00109502
0.00130298
0.0015179
0.00173956
0.00196776
0.00220228
0.0024429
0.00268936
0.00294144
0.00319887
0.00346138
0.00372871
0.00400057
0.00427663
0.00455658
0.0048401
0.00512682
0.00541641
0.0057085
0.00600272
0.00629868
0.00659598
0.00689423
0.00719298
0.0074918
0.00779027
0.00808794
0.00838438
0.00867917
0.00897185
0.00926197
0.00954907
0.00983268
0.0101123
0.0103876
0.010658
0.0109231
0.0111824
0.0114356
0.0116822
0.0119218
0.0121539
0.0123782
0.0125944
0.0128019
0.0130006
0.0131899
0.0133697
0.0135396
0.0136993
0.0138486
0.0139873
0.0141151
0.0142319
0.0143376
0.0144319
0.0145149
0.0145864
0.0146465
0.0146952
0.0147324
0.0147583
0.0147731
0.0147767
0.0147695
0.0147516
0.0147233
0.0146849
0.0146366
0.0145788
0.0145119
0.0144364
0.0143526
0.0142611
0.0141624
0.0140569
0.0139453
0.0138282
0.0137061
0.0135797
0.0134498
0.0133168
0.0131816
0.0130447
0.012907
0.0127692
0.0126318
0.0124957
0.0123616
0.0122301
0.0121019
0.0119777
0.0118581
0.0117438
0.0116352
0.0115329
0.0114375
0.0113496
0.0112699
0.0111944
0.0111191
0.00189154
0.00174395
0.00161176
0.00148635
0.00135831
0.00122843
0.00109766
0.000966264
0.000834567
0.000702962
0.000571875
0.000441747
0.000313025
0.000186161
6.15977e-05
-6.022e-05
-0.00017885
-0.000293865
-0.000404846
-0.000511403
-0.000613164
-0.00070978
-0.000800917
-0.000886254
-0.00096549
-0.00103834
-0.00110456
-0.0011639
-0.00121613
-0.00126106
-0.0012985
-0.00132829
-0.00135027
-0.00136432
-0.00137032
-0.00136818
-0.0013578
-0.00133913
-0.00131211
-0.00127672
-0.00123291
-0.00118066
-0.00111995
-0.00105078
-0.000973155
-0.000887083
-0.000792591
-0.000689709
-0.000578481
-0.000458958
-0.000331215
-0.000195339
-5.14255e-05
0.000100417
0.00026009
0.000427482
0.00060247
0.000784926
0.000974696
0.00117163
0.00137556
0.00158632
0.00180371
0.00202753
0.00225757
0.00249361
0.00273541
0.00298274
0.00323536
0.00349302
0.00375543
0.00402232
0.00429339
0.00456831
0.00484677
0.00512842
0.00541294
0.00569995
0.00598912
0.00628006
0.00657238
0.00686567
0.0071595
0.00745347
0.00774713
0.00804007
0.00833186
0.00862207
0.00891026
0.00919598
0.00947879
0.00975821
0.0100338
0.0103051
0.0105716
0.010833
0.0110888
0.0113385
0.0115818
0.0118182
0.0120473
0.0122687
0.0124821
0.0126871
0.0128833
0.0130704
0.0132481
0.013416
0.0135739
0.0137216
0.0138588
0.0139853
0.0141009
0.0142056
0.014299
0.0143813
0.0144523
0.0145119
0.0145603
0.0145974
0.0146233
0.0146381
0.014642
0.0146352
0.0146177
0.0145899
0.014552
0.0145044
0.0144474
0.0143813
0.0143065
0.0142236
0.0141329
0.0140349
0.0139302
0.0138193
0.0137028
0.0135813
0.0134553
0.0133255
0.0131925
0.013057
0.0129197
0.0127811
0.0126421
0.0125032
0.0123651
0.0122285
0.012094
0.0119622
0.0118338
0.0117093
0.0115892
0.0114742
0.0113646
0.0112609
0.0111638
0.011074
0.0109863
0.0108956
0.00210628
0.00194057
0.00179388
0.00165647
0.00151756
0.00137795
0.00123861
0.00109973
0.000961541
0.000824375
0.000688582
0.000554529
0.000422591
0.000293151
0.000166592
4.32955e-05
-7.63598e-05
-0.000192
-0.000303262
-0.000409805
-0.000511306
-0.000607458
-0.000697967
-0.000782551
-0.000860944
-0.000932897
-0.000998183
-0.00105659
-0.00110791
-0.00115197
-0.0011886
-0.00121766
-0.00123903
-0.00125257
-0.00125819
-0.00125579
-0.00124532
-0.00122671
-0.00119991
-0.00116491
-0.00112167
-0.00107017
-0.00101038
-0.000942323
-0.000865986
-0.000781386
-0.000688547
-0.000587503
-0.000478293
-0.000360965
-0.00023559
-0.000102256
3.89456e-05
0.000187918
0.000344566
0.000508782
0.000680449
0.000859443
0.00104562
0.00123884
0.00143893
0.00164573
0.00185907
0.00207873
0.00230453
0.00253624
0.00277364
0.0030165
0.0032646
0.00351767
0.00377547
0.00403771
0.0043041
0.00457432
0.00484806
0.005125
0.00540479
0.00568711
0.0059716
0.00625789
0.00654561
0.00683433
0.00712365
0.00741315
0.00770242
0.00799103
0.00827857
0.00856462
0.00884874
0.00913049
0.00940941
0.00968506
0.00995699
0.0102247
0.0104878
0.0107459
0.0109985
0.0112452
0.0114855
0.0117191
0.0119456
0.0121645
0.0123755
0.0125782
0.0127723
0.0129574
0.0131332
0.0132995
0.0134559
0.0136021
0.013738
0.0138634
0.013978
0.0140818
0.0141746
0.0142562
0.0143267