/*--------------------------------*- C++ -*----------------------------------*\
  =========                 |
  \\      /  F ield         | OpenFOAM: The Open Source CFD Toolbox
   \\    /   O peration     | Website:  https://openfoam.org
    \\  /    A nd           | Version:  7
     \\/     M anipulation  |
\*---------------------------------------------------------------------------*/
FoamFile
{
    version     2.0;
    format      ascii;
    class       surfaceScalarField;
    location    "0.375";
    object      phi;
}
// * * * * * * * * * * * * * * * * * * * * * * * * * * * * * * * * * * * * * //

dimensions      [0 3 -1 0 0 0 0];

internalField   nonuniform List<scalar> 
50880
(
7.03397e-12
-6.96357e-12
3.73161e-11
-3.02852e-11
8.08831e-11
-4.35649e-11
1.27649e-10
-4.67638e-11
1.706e-10
-4.29502e-11
2.04985e-10
-3.43848e-11
2.27621e-10
-2.26371e-11
2.36444e-10
-8.82455e-12
2.30165e-10
6.27643e-12
2.08041e-10
2.21226e-11
1.69716e-10
3.83244e-11
1.15118e-10
5.45965e-11
4.43831e-11
7.07344e-11
-4.22003e-11
8.65824e-11
-1.44228e-10
1.02026e-10
-2.61209e-10
1.16982e-10
-3.92594e-10
1.31384e-10
-5.37782e-10
1.45186e-10
-6.9614e-10
1.58356e-10
-8.67011e-10
1.7087e-10
-1.04973e-09
1.82717e-10
-1.24361e-09
1.93887e-10
-1.44799e-09
2.04379e-10
-1.66218e-09
2.14193e-10
-1.88552e-09
2.23336e-10
-2.11733e-09
2.31814e-10
-2.35697e-09
2.39642e-10
-2.6038e-09
2.46825e-10
-2.85717e-09
2.53377e-10
-3.11648e-09
2.5931e-10
-3.38112e-09
2.64638e-10
-3.6505e-09
2.69375e-10
-3.92404e-09
2.73537e-10
-4.20117e-09
2.77135e-10
-4.48135e-09
2.80183e-10
-4.76405e-09
2.82695e-10
-5.04873e-09
2.84685e-10
-5.3349e-09
2.86168e-10
-5.62206e-09
2.87157e-10
-5.90973e-09
2.87666e-10
-6.19743e-09
2.87705e-10
-6.48472e-09
2.87286e-10
-6.77114e-09
2.86419e-10
-7.05625e-09
2.85116e-10
-7.33964e-09
2.83385e-10
-7.62088e-09
2.81238e-10
-7.89957e-09
2.78684e-10
-8.1753e-09
2.75732e-10
-8.44768e-09
2.72389e-10
-8.71634e-09
2.68662e-10
-8.9809e-09
2.64558e-10
-9.24099e-09
2.60085e-10
-9.49624e-09
2.55252e-10
-9.74631e-09
2.50067e-10
-9.99084e-09
2.44534e-10
-1.02295e-08
2.38659e-10
-1.04619e-08
2.3245e-10
-1.06879e-08
2.25913e-10
-1.09069e-08
2.19055e-10
-1.11188e-08
2.11882e-10
-1.13232e-08
2.04398e-10
-1.15198e-08
1.96609e-10
-1.17083e-08
1.88524e-10
-1.18885e-08
1.80148e-10
-1.206e-08
1.71491e-10
-1.22225e-08
1.6256e-10
-1.23759e-08
1.53361e-10
-1.25198e-08
1.43903e-10
-1.2654e-08
1.34195e-10
-1.27782e-08
1.24245e-10
-1.28923e-08
1.14065e-10
-1.2996e-08
1.03661e-10
-1.3089e-08
9.30463e-11
-1.31712e-08
8.22321e-11
-1.32425e-08
7.12293e-11
-1.33025e-08
6.00522e-11
-1.33512e-08
4.87126e-11
-1.33884e-08
3.72212e-11
-1.3414e-08
2.55974e-11
-1.34279e-08
1.38575e-11
-1.34299e-08
2.01216e-12
-1.342e-08
-9.92027e-12
-1.33981e-08
-2.19197e-11
-1.33641e-08
-3.39711e-11
-1.33181e-08
-4.60545e-11
-1.32599e-08
-5.81471e-11
-1.31897e-08
-7.02322e-11
-1.31074e-08
-8.22901e-11
-1.30131e-08
-9.42952e-11
-1.29069e-08
-1.06228e-10
-1.27888e-08
-1.18072e-10
-1.2659e-08
-1.298e-10
-1.25176e-08
-1.41385e-10
-1.23648e-08
-1.5281e-10
-1.22007e-08
-1.6405e-10
-1.20257e-08
-1.75077e-10
-1.18398e-08
-1.85867e-10
-1.16434e-08
-1.964e-10
-1.14367e-08
-2.06648e-10
-1.12202e-08
-2.16585e-10
-1.0994e-08
-2.26189e-10
-1.07585e-08
-2.35437e-10
-1.05142e-08
-2.44303e-10
-1.02615e-08
-2.52761e-10
-1.00007e-08
-2.60792e-10
-9.73231e-09
-2.68372e-10
-9.45683e-09
-2.75478e-10
-9.17474e-09
-2.82086e-10
-8.88657e-09
-2.88174e-10
-8.59285e-09
-2.93723e-10
-8.29414e-09
-2.98711e-10
-7.99102e-09
-3.0312e-10
-7.68408e-09
-3.06933e-10
-7.37395e-09
-3.10134e-10
-7.06124e-09
-3.12706e-10
-6.74661e-09
-3.14632e-10
-6.43071e-09
-3.15899e-10
-6.11422e-09
-3.16497e-10
-5.7978e-09
-3.16417e-10
-5.48214e-09
-3.1565e-10
-5.16796e-09
-3.14184e-10
-4.85595e-09
-3.12013e-10
-4.54681e-09
-3.09134e-10
-4.24126e-09
-3.05544e-10
-3.94002e-09
-3.0124e-10
-3.6438e-09
-2.96224e-10
-3.3533e-09
-2.90498e-10
-3.06923e-09
-2.84069e-10
-2.7923e-09
-2.76938e-10
-2.52319e-09
-2.69113e-10
-2.26258e-09
-2.60606e-10
-2.01115e-09
-2.51432e-10
-1.76954e-09
-2.41604e-10
-1.53841e-09
-2.31138e-10
-1.31836e-09
-2.2005e-10
-1.10999e-09
-2.08366e-10
-9.1388e-10
-1.96111e-10
-7.3057e-10
-1.83311e-10
-5.60573e-10
-1.69997e-10
-4.04365e-10
-1.56208e-10
-2.62381e-10
-1.41984e-10
-1.3501e-10
-1.27372e-10
-2.25856e-11
-1.12425e-10
7.46215e-11
-9.72051e-11
1.56412e-10
-8.17868e-11
2.2267e-10
-6.62561e-11
2.73382e-10
-5.07134e-11
3.08662e-10
-3.52801e-11
3.2877e-10
-2.01079e-11
3.34159e-10
-5.38793e-12
3.25517e-10
8.6403e-12
3.03844e-10
2.16702e-11
2.70544e-10
3.32987e-11
2.27559e-10
4.29841e-11
1.77571e-10
4.99883e-11
1.24258e-10
5.33102e-11
7.26244e-11
5.16314e-11
2.93865e-11
4.32367e-11
3.15931e-12
2.62273e-11
3.15987e-12
3.02995e-11
-3.72681e-11
9.93851e-11
-9.93715e-11
1.88341e-10
-1.32527e-10
2.79924e-10
-1.3835e-10
3.59976e-10
-1.23005e-10
4.17681e-10
-9.20896e-11
4.45107e-10
-5.00627e-11
4.36638e-10
-3.51814e-13
3.88452e-10
5.44619e-11
2.98107e-10
1.12467e-10
1.64211e-10
1.72219e-10
-1.38262e-11
2.32634e-10
-2.35978e-10
2.92887e-10
-5.01748e-10
3.52353e-10
-8.10275e-10
4.10553e-10
-1.16042e-09
4.67124e-10
-1.55082e-09
5.21787e-10
-1.97997e-09
5.74334e-10
-2.44622e-09
6.24609e-10
-2.94785e-09
6.72502e-10
-3.48308e-09
7.17942e-10
-4.05008e-09
7.60878e-10
-4.64698e-09
8.01286e-10
-5.27194e-09
8.39153e-10
-5.9231e-09
8.74487e-10
-6.59859e-09
9.07306e-10
-7.29659e-09
9.37637e-10
-8.01527e-09
9.65512e-10
-8.75287e-09
9.90972e-10
-9.50761e-09
1.01406e-09
-1.02778e-08
1.03481e-09
-1.10617e-08
1.05328e-09
-1.18577e-08
1.06952e-09
-1.26641e-08
1.08358e-09
-1.34794e-08
1.0955e-09
-1.43021e-08
1.10535e-09
-1.51306e-08
1.11316e-09
-1.59634e-08
1.119e-09
-1.67991e-08
1.1229e-09
-1.76364e-08
1.12492e-09
-1.84738e-08
1.1251e-09
-1.931e-08
1.12348e-09
-2.01437e-08
1.1201e-09
-2.09736e-08
1.11502e-09
-2.17984e-08
1.10825e-09
-2.2617e-08
1.09985e-09
-2.34282e-08
1.08984e-09
-2.42307e-08
1.07826e-09
-2.50235e-08
1.06515e-09
-2.58054e-08
1.05053e-09
-2.65752e-08
1.03444e-09
-2.73321e-08
1.01689e-09
-2.80747e-08
9.97928e-10
-2.88022e-08
9.77571e-10
-2.95135e-08
9.5585e-10
-3.02077e-08
9.32789e-10
-3.08836e-08
9.08414e-10
-3.15405e-08
8.8275e-10
-3.21772e-08
8.55822e-10
-3.2793e-08
8.27657e-10
-3.33869e-08
7.98279e-10
-3.3958e-08
7.67713e-10
-3.45055e-08
7.35988e-10
-3.50284e-08
7.0313e-10
-3.55261e-08
6.6917e-10
-3.59977e-08
6.34138e-10
-3.64424e-08
5.98067e-10
-3.68595e-08
5.60989e-10
-3.72482e-08
5.22939e-10
-3.76079e-08
4.8395e-10
-3.79379e-08
4.44065e-10
-3.82376e-08
4.03321e-10
-3.85063e-08
3.6176e-10
-3.87435e-08
3.1943e-10
-3.89487e-08
2.76377e-10
-3.91213e-08
2.32652e-10
-3.92609e-08
1.88308e-10
-3.9367e-08
1.43396e-10
-3.94394e-08
9.79721e-11
-3.94777e-08
5.21011e-11
-3.94815e-08
5.84493e-12
-3.94507e-08
-4.07365e-11
-3.9385e-08
-8.75725e-11
-3.92844e-08
-1.34589e-10
-3.91487e-08
-1.81716e-10
-3.8978e-08
-2.28875e-10
-3.87722e-08
-2.75988e-10
-3.85316e-08
-3.22977e-10
-3.82561e-08
-3.69761e-10
-3.79461e-08
-4.16252e-10
-3.76018e-08
-4.62364e-10
-3.72236e-08
-5.08015e-10
-3.68118e-08
-5.53113e-10
-3.63671e-08
-5.97564e-10
-3.58898e-08
-6.41278e-10
-3.53808e-08
-6.84164e-10
-3.48405e-08
-7.26122e-10
-3.42698e-08
-7.67058e-10
-3.36696e-08
-8.06882e-10
-3.30407e-08
-8.45498e-10
-3.23841e-08
-8.82808e-10
-3.17008e-08
-9.1872e-10
-3.0992e-08
-9.53145e-10
-3.02587e-08
-9.85988e-10
-2.95024e-08
-1.01716e-09
-2.87242e-08
-1.04657e-09
-2.79255e-08
-1.07413e-09
-2.71078e-08
-1.09976e-09
-2.62726e-08
-1.12337e-09
-2.54215e-08
-1.14489e-09
-2.45559e-08
-1.16424e-09
-2.36777e-08
-1.18134e-09
-2.27885e-08
-1.19613e-09
-2.18901e-08
-1.20855e-09
-2.09843e-08
-1.21853e-09
-2.00729e-08
-1.22601e-09
-1.91578e-08
-1.23095e-09
-1.8241e-08
-1.23331e-09
-1.73244e-08
-1.23303e-09
-1.641e-08
-1.23009e-09
-1.54997e-08
-1.22446e-09
-1.45956e-08
-1.21612e-09
-1.36997e-08
-1.20505e-09
-1.2814e-08
-1.19123e-09
-1.19406e-08
-1.17466e-09
-1.10815e-08
-1.15535e-09
-1.02386e-08
-1.13332e-09
-9.41413e-09
-1.10857e-09
-8.60993e-09
-1.08114e-09
-7.82799e-09
-1.05105e-09
-7.07024e-09
-1.01836e-09
-6.33858e-09
-9.83099e-10
-5.63484e-09
-9.45341e-10
-4.96082e-09
-9.05153e-10
-4.31825e-09
-8.62618e-10
-3.70879e-09
-8.17823e-10
-3.13404e-09
-7.70869e-10
-2.59548e-09
-7.2187e-10
-2.09452e-09
-6.70961e-10
-1.63243e-09
-6.18294e-10
-1.21038e-09
-5.64038e-10
-8.29369e-10
-5.08383e-10
-4.90245e-10
-4.51551e-10
-1.93652e-10
-3.93799e-10
5.99843e-11
-3.35425e-10
2.705e-10
-2.76774e-10
4.38044e-10
-2.18257e-10
5.63136e-10
-1.60368e-10
6.46737e-10
-1.03706e-10
6.90352e-10
-4.90032e-11
6.96153e-10
2.83775e-12
6.67139e-10
5.06848e-11
6.07339e-10
9.3102e-11
5.22066e-10
1.2826e-10
4.1823e-10
1.53825e-10
3.0467e-10
1.6687e-10
1.92434e-10
1.63871e-10
9.47643e-11
1.40909e-10
2.62028e-11
9.47869e-11
2.93625e-11
4.35757e-11
-8.08455e-11
1.32616e-10
-1.8841e-10
2.39948e-10
-2.39861e-10
3.43859e-10
-2.42261e-10
4.2637e-10
-2.05518e-10
4.73169e-10
-1.38888e-10
4.73252e-10
-5.01491e-11
4.18457e-10
5.44411e-11
3.02952e-10
1.69967e-10
1.22803e-10
2.92614e-10
-1.24405e-10
4.19425e-10
-4.39882e-10
5.48109e-10
-8.23882e-10
6.76887e-10
-1.27591e-09
8.04377e-10
-1.79486e-09
9.29506e-10
-2.37918e-09
1.05144e-09
-3.02693e-09
1.16954e-09
-3.73591e-09
1.28331e-09
-4.50367e-09
1.39237e-09
-5.32763e-09
1.49646e-09
-6.20506e-09
1.59537e-09
-7.13315e-09
1.68897e-09
-8.10904e-09
1.77718e-09
-9.12984e-09
1.85995e-09
-1.01926e-08
1.93728e-09
-1.12945e-08
2.00918e-09
-1.24326e-08
2.0757e-09
-1.36039e-08
2.13689e-09
-1.48058e-08
2.19282e-09
-1.60353e-08
2.24358e-09
-1.72898e-08
2.28925e-09
-1.85664e-08
2.32993e-09
-1.98626e-08
2.36572e-09
-2.11758e-08
2.39673e-09
-2.25033e-08
2.42305e-09
-2.38428e-08
2.44479e-09
-2.51916e-08
2.46206e-09
-2.65476e-08
2.47496e-09
-2.79083e-08
2.48359e-09
-2.92714e-08
2.48806e-09
-3.06348e-08
2.48845e-09
-3.19962e-08
2.48487e-09
-3.33535e-08
2.4774e-09
-3.47046e-08
2.46613e-09
-3.60475e-08
2.45114e-09
-3.73802e-08
2.43252e-09
-3.87007e-08
2.41034e-09
-4.00071e-08
2.38468e-09
-4.12975e-08
2.3556e-09
-4.25702e-08
2.32318e-09
-4.38232e-08
2.28748e-09
-4.50549e-08
2.24857e-09
-4.62635e-08
2.20651e-09
-4.74473e-08
2.16135e-09
-4.86046e-08
2.11317e-09
-4.97338e-08
2.06201e-09
-5.08333e-08
2.00794e-09
-5.19016e-08
1.95102e-09
-5.29371e-08
1.89129e-09
-5.39382e-08
1.82882e-09
-5.49036e-08
1.76367e-09
-5.58318e-08
1.69589e-09
-5.67213e-08
1.62555e-09
-5.75709e-08
1.55271e-09
-5.83792e-08
1.47743e-09
-5.91448e-08
1.3998e-09
-5.98666e-08
1.31987e-09
-6.05434e-08
1.23772e-09
-6.11739e-08
1.15343e-09
-6.1757e-08
1.06709e-09
-6.22917e-08
9.78767e-10
-6.27769e-08
8.88571e-10
-6.32118e-08
7.96589e-10
-6.35953e-08
7.02921e-10
-6.39266e-08
6.07675e-10
-6.42049e-08
5.10961e-10
-6.44295e-08
4.12896e-10
-6.45997e-08
3.13603e-10
-6.47149e-08
2.13207e-10
-6.47746e-08
1.11839e-10
-6.47784e-08
9.64278e-12
-6.47259e-08
-9.32389e-11
-6.46168e-08
-1.9666e-10
-6.4451e-08
-3.00463e-10
-6.42282e-08
-4.04482e-10
-6.39485e-08
-5.0855e-10
-6.3612e-08
-6.125e-10
-6.32188e-08
-7.16152e-10
-6.27693e-08
-8.19327e-10
-6.22637e-08
-9.21841e-10
-6.17026e-08
-1.0235e-09
-6.10864e-08
-1.12412e-09
-6.04161e-08
-1.22349e-09
-5.96922e-08
-1.32143e-09
-5.89158e-08
-1.41772e-09
-5.80877e-08
-1.51217e-09
-5.72093e-08
-1.60456e-09
-5.62817e-08
-1.69469e-09
-5.53062e-08
-1.78236e-09
-5.42843e-08
-1.86735e-09
-5.32177e-08
-1.94946e-09
-5.21079e-08
-2.02848e-09
-5.09569e-08
-2.10422e-09
-4.97664e-08
-2.17646e-09
-4.85385e-08
-2.24503e-09
-4.72754e-08
-2.30971e-09
-4.59792e-08
-2.37032e-09
-4.46523e-08
-2.42668e-09
-4.3297e-08
-2.4786e-09
-4.1916e-08
-2.52592e-09
-4.05118e-08
-2.56847e-09
-3.9087e-08
-2.60609e-09
-3.76446e-08
-2.63863e-09
-3.61872e-08
-2.66595e-09
-3.47177e-08
-2.68793e-09
-3.32393e-08
-2.70444e-09
-3.17549e-08
-2.71537e-09
-3.02676e-08
-2.72063e-09
-2.87805e-08
-2.72013e-09
-2.72968e-08
-2.71379e-09
-2.58197e-08
-2.70156e-09
-2.43524e-08
-2.68339e-09
-2.28982e-08
-2.65925e-09
-2.14603e-08
-2.6291e-09
-2.0042e-08
-2.59296e-09
-1.86466e-08
-2.55083e-09
-1.72771e-08
-2.50274e-09
-1.5937e-08
-2.44874e-09
-1.46292e-08
-2.38888e-09
-1.3357e-08
-2.32325e-09
-1.21235e-08
-2.25193e-09
-1.09315e-08
-2.17505e-09
-9.78409e-09
-2.09275e-09
-8.68407e-09
-2.00518e-09
-7.63415e-09
-1.91253e-09
-6.63697e-09
-1.81501e-09
-5.69499e-09
-1.71284e-09
-4.81057e-09
-1.6063e-09
-3.98584e-09
-1.49569e-09
-3.22279e-09
-1.38135e-09
-2.52317e-09
-1.26366e-09
-1.88848e-09
-1.14307e-09
-1.31996e-09
-1.02008e-09
-8.18494e-10
-8.95263e-10
-3.84624e-10
-7.69294e-10
-1.84473e-11
-6.42949e-10
2.80439e-10
-5.17144e-10
5.13034e-10
-3.92966e-10
6.81038e-10
-2.71713e-10
7.86984e-10
-1.54951e-10
8.34409e-10
-4.45872e-11
8.28047e-10
5.70446e-11
7.74074e-10
1.47071e-10
6.80376e-10
2.21955e-10
5.56838e-10
2.77362e-10
4.15616e-10
3.08092e-10
2.71304e-10
3.08183e-10
1.40858e-10
2.71353e-10
4.31827e-11
1.9246e-10
7.25454e-11
4.68963e-11
-1.27742e-10
1.3881e-10
-2.80321e-10
2.43006e-10
-3.4406e-10
3.34487e-10
-3.3374e-10
3.92922e-10
-2.63952e-10
4.0195e-10
-1.47915e-10
3.48709e-10
3.0913e-12
2.23371e-10
1.79778e-10
1.86959e-11
3.74641e-10
-2.70377e-10
5.81687e-10
-6.47107e-10
7.96156e-10
-1.11327e-09
1.01427e-09
-1.66944e-09
1.23305e-09
-2.31519e-09
1.45013e-09
-3.04933e-09
1.66365e-09
-3.87002e-09
1.87213e-09
-4.77491e-09
2.07443e-09
-5.76125e-09
2.26965e-09
-6.82598e-09
2.4571e-09
-7.96578e-09
2.63626e-09
-9.17715e-09
2.80674e-09
-1.04565e-08
2.96828e-09
-1.18e-08
3.1207e-09
-1.32039e-08
3.26388e-09
-1.46644e-08
3.39777e-09
-1.61776e-08
3.52239e-09
-1.77397e-08
3.63778e-09
-1.93468e-08
3.74401e-09
-2.09952e-08
3.84119e-09
-2.2681e-08
3.92943e-09
-2.44007e-08
4.00889e-09
-2.61504e-08
4.0797e-09
-2.79267e-08
4.14203e-09
-2.97261e-08
4.19605e-09
-3.1545e-08
4.24193e-09
-3.338e-08
4.27984e-09
-3.52279e-08
4.30995e-09
-3.70854e-08
4.33244e-09
-3.89493e-08
4.34748e-09
-4.08165e-08
4.35524e-09
-4.26839e-08
4.35587e-09
-4.45486e-08
4.34954e-09
-4.64076e-08
4.33641e-09
-4.82581e-08
4.31661e-09
-5.00972e-08
4.2903e-09
-5.19223e-08
4.25761e-09
-5.37306e-08
4.21868e-09
-5.55196e-08
4.17363e-09
-5.72866e-08
4.1226e-09
-5.90291e-08
4.0657e-09
-6.07447e-08
4.00304e-09
-6.24308e-08
3.93474e-09
-6.40852e-08
3.86092e-09
-6.57055e-08
3.78167e-09
-6.72895e-08
3.6971e-09
-6.88348e-08
3.60732e-09
-7.03393e-08
3.51242e-09
-7.18008e-08
3.41252e-09
-7.32172e-08
3.30772e-09
-7.45865e-08
3.19811e-09
-7.59066e-08
3.0838e-09
-7.71756e-08
2.9649e-09
-7.83916e-08
2.84152e-09
-7.95527e-08
2.71377e-09
-8.0657e-08
2.58178e-09
-8.17029e-08
2.44565e-09
-8.26885e-08
2.30553e-09
-8.36123e-08
2.16154e-09
-8.44727e-08
2.01383e-09
-8.52682e-08
1.86253e-09
-8.59972e-08
1.70781e-09
-8.66585e-08
1.54982e-09
-8.72506e-08
1.38874e-09
-8.77725e-08
1.22474e-09
-8.82228e-08
1.05801e-09
-8.86006e-08
8.88741e-10
-8.89048e-08
7.17142e-10
-8.91346e-08
5.43426e-10
-8.92893e-08
3.67817e-10
-8.9368e-08
1.9055e-10
-8.93702e-08
1.18634e-11
-8.92954e-08
-1.67985e-10
-8.91434e-08
-3.48732e-10
-8.89137e-08
-5.30111e-10
-8.86064e-08
-7.11838e-10
-8.82213e-08
-8.93617e-10
-8.77586e-08
-1.07515e-09
-8.72187e-08
-1.25614e-09
-8.66017e-08
-1.43625e-09
-8.59084e-08
-1.61518e-09
-8.51393e-08
-1.79259e-09
-8.42953e-08
-1.96815e-09
-8.33772e-08
-2.14152e-09
-8.23863e-08
-2.31234e-09
-8.13238e-08
-2.48027e-09
-8.0191e-08
-2.64495e-09
-7.89895e-08
-2.80603e-09
-7.77211e-08
-2.96315e-09
-7.63875e-08
-3.11595e-09
-7.49907e-08
-3.26407e-09
-7.3533e-08
-3.40715e-09
-7.20167e-08
-3.54484e-09
-7.04441e-08
-3.67679e-09
-6.88179e-08
-3.80265e-09
-6.71409e-08
-3.92208e-09
-6.54158e-08
-4.03475e-09
-6.36458e-08
-4.14033e-09
-6.1834e-08
-4.23849e-09
-5.99837e-08
-4.32893e-09
-5.80982e-08
-4.41136e-09
-5.61812e-08
-4.48549e-09
-5.42363e-08
-4.55105e-09
-5.22671e-08
-4.60778e-09
-5.02776e-08
-4.65544e-09
-4.82717e-08
-4.69382e-09
-4.62535e-08
-4.7227e-09
-4.42269e-08
-4.74189e-09
-4.21963e-08
-4.75124e-09
-4.01658e-08
-4.7506e-09
-3.81398e-08
-4.73983e-09
-3.61225e-08
-4.71884e-09
-3.41184e-08
-4.68756e-09
-3.21317e-08
-4.64592e-09
-3.01669e-08
-4.5939e-09
-2.82284e-08
-4.53149e-09
-2.63205e-08
-4.45873e-09
-2.44476e-08
-4.37565e-09
-2.26139e-08
-4.28236e-09
-2.08239e-08
-4.17895e-09
-1.90815e-08
-4.06558e-09
-1.7391e-08
-3.94241e-09
-1.57564e-08
-3.80967e-09
-1.41816e-08
-3.6676e-09
-1.26703e-08
-3.51648e-09
-1.12262e-08
-3.35664e-09
-9.85272e-09
-3.18847e-09
-8.55318e-09
-3.01238e-09
-7.33064e-09
-2.82885e-09
-6.18792e-09
-2.63842e-09
-5.12756e-09
-2.4417e-09
-4.15184e-09
-2.23939e-09
-3.26264e-09
-2.03226e-09
-2.4615e-09
-1.82122e-09
-1.74948e-09
-1.60728e-09
-1.12716e-09
-1.39162e-09
-5.94508e-10
-1.1756e-09
-1.50842e-10
-9.60812e-10
2.05314e-10
-7.49123e-10
4.7634e-10
-5.42739e-10
6.65677e-10
-3.44287e-10
7.78001e-10
-1.56911e-10
8.19434e-10
1.5611e-11
7.97773e-10
1.68731e-10
7.22743e-10
2.96986e-10
6.06239e-10
3.93869e-10
4.62556e-10
4.51775e-10
3.08592e-10
4.62144e-10
1.64003e-10
4.1594e-10
5.15967e-11
3.04866e-10
1.24142e-10
4.32887e-11
-1.71032e-10
1.2406e-10
-3.61093e-10
2.07307e-10
-4.27309e-10
2.66192e-10
-3.92626e-10
2.79059e-10
-2.7682e-10
2.28429e-10
-9.72857e-11
1.00397e-10
1.31125e-10
-1.15855e-10
3.96027e-10
-4.28455e-10
6.87239e-10
-8.43229e-10
9.96461e-10
-1.36404e-09
1.31697e-09
-1.99311e-09
1.64334e-09
-2.73125e-09
1.9712e-09
-3.57818e-09
2.29705e-09
-4.53261e-09
2.61808e-09
-5.59253e-09
2.93205e-09
-6.75527e-09
3.23717e-09
-8.01767e-09
3.53204e-09
-9.37615e-09
3.81557e-09
-1.08268e-08
4.08691e-09
-1.23655e-08
4.34542e-09
-1.39878e-08
4.59064e-09
-1.56894e-08
4.82225e-09
-1.74655e-08
5.04003e-09
-1.93116e-08
5.24388e-09
-2.1223e-08
5.43377e-09
-2.3195e-08
5.60972e-09
-2.52228e-08
5.77183e-09
-2.73018e-08
5.92021e-09
-2.94274e-08
6.05504e-09
-3.1595e-08
6.1765e-09
-3.38001e-08
6.2848e-09
-3.60382e-08
6.38016e-09
-3.8305e-08
6.46283e-09
-4.05962e-08
6.53306e-09
-4.29074e-08
6.59108e-09
-4.52346e-08
6.63717e-09
-4.75737e-08
6.67156e-09
-4.99208e-08
6.6945e-09
-5.22718e-08
6.70626e-09
-5.4623e-08
6.70707e-09
-5.69706e-08
6.69716e-09
-5.9311e-08
6.67677e-09
-6.16405e-08
6.64613e-09
-6.39556e-08
6.60544e-09
-6.6253e-08
6.55493e-09
-6.85291e-08
6.49478e-09
-7.07806e-08
6.42521e-09
-7.30045e-08
6.3464e-09
-7.51973e-08
6.25854e-09
-7.73561e-08
6.1618e-09
-7.94777e-08
6.05635e-09
-8.15591e-08
5.94238e-09
-8.35975e-08
5.82004e-09
-8.55899e-08
5.6895e-09
-8.75335e-08
5.55091e-09
-8.94255e-08
5.40445e-09
-9.12633e-08
5.25027e-09
-9.30441e-08
5.08853e-09
-9.47654e-08
4.91939e-09
-9.64246e-08
4.74303e-09
-9.80193e-08
4.5596e-09
-9.95471e-08
4.36928e-09
-1.01006e-07
4.17224e-09
-1.02392e-07
3.96868e-09
-1.03706e-07
3.75879e-09
-1.04943e-07
3.54276e-09
-1.06102e-07
3.32081e-09
-1.07181e-07
3.09314e-09
-1.08179e-07
2.86e-09
-1.09093e-07
2.62162e-09
-1.09921e-07
2.37824e-09
-1.10662e-07
2.13014e-09
-1.11315e-07
1.8776e-09
-1.11878e-07
1.62089e-09
-1.1235e-07
1.36032e-09
-1.12729e-07
1.09622e-09
-1.13014e-07
8.28908e-10
-1.13205e-07
5.58732e-10
-1.13301e-07
2.86054e-10
-1.133e-07
1.12487e-11
-1.13203e-07
-2.65296e-10
-1.13008e-07
-5.43174e-10
-1.12717e-07
-8.21966e-10
-1.12327e-07
-1.10124e-09
-1.1184e-07
-1.38056e-09
-1.11256e-07
-1.65945e-09
-1.10575e-07
-1.93744e-09
-1.09797e-07
-2.21406e-09
-1.08923e-07
-2.48881e-09
-1.07955e-07
-2.76118e-09
-1.06892e-07
-3.03067e-09
-1.05737e-07
-3.29675e-09
-1.0449e-07
-3.55889e-09
-1.03154e-07
-3.81655e-09
-1.0173e-07
-4.0692e-09
-1.00219e-07
-4.3163e-09
-9.86254e-08
-4.55728e-09
-9.69497e-08
-4.79162e-09
-9.5195e-08
-5.01875e-09
-9.3364e-08
-5.23815e-09
-9.14596e-08
-5.44926e-09
-8.94848e-08
-5.65155e-09
-8.7443e-08
-5.8445e-09
-8.53375e-08
-6.02758e-09
-8.3172e-08
-6.20029e-09
-8.09502e-08
-6.36213e-09
-7.8676e-08
-6.51262e-09
-7.63537e-08
-6.65129e-09
-7.39873e-08
-6.77768e-09
-7.15815e-08
-6.89138e-09
-6.91405e-08
-6.99196e-09
-6.66693e-08
-7.07904e-09
-6.41725e-08
-7.15227e-09
-6.1655e-08
-7.21129e-09
-5.91219e-08
-7.2558e-09
-5.65783e-08
-7.28553e-09
-5.40293e-08
-7.30021e-09
-5.14802e-08
-7.29964e-09
-4.89365e-08
-7.28362e-09
-4.64033e-08
-7.25201e-09
-4.38862e-08
-7.20469e-09
-4.13905e-08
-7.14158e-09
-3.89217e-08
-7.06266e-09
-3.64853e-08
-6.96791e-09
-3.40866e-08
-6.8574e-09
-3.17311e-08
-6.7312e-09
-2.9424e-08
-6.58945e-09
-2.71706e-08
-6.43233e-09
-2.49761e-08
-6.26008e-09
-2.28456e-08
-6.07296e-09
-2.07839e-08
-5.87133e-09
-1.8796e-08
-5.65556e-09
-1.68863e-08
-5.42612e-09
-1.50594e-08
-5.18352e-09
-1.33196e-08
-4.92836e-09
-1.16706e-08
-4.66128e-09
-1.01164e-08
-4.38306e-09
-8.66031e-09
-4.09453e-09
-7.30535e-09
-3.79666e-09
-6.05423e-09
-3.49051e-09
-4.90917e-09
-3.17732e-09
-3.87194e-09
-2.85845e-09
-2.94373e-09
-2.53549e-09
-2.1251e-09
-2.21025e-09
-1.41591e-09
-1.88479e-09
-8.15194e-10
-1.56153e-09
-3.21052e-10
-1.24326e-09
6.94704e-11
-9.33261e-10
3.60553e-10
-6.35371e-10
5.57771e-10
-3.5413e-10
6.68289e-10
-9.4908e-11
7.01074e-10
1.35945e-10
6.67116e-10
3.30945e-10
5.79651e-10
4.81335e-10
4.54393e-10
5.77032e-10
3.09822e-10
6.06713e-10
1.6759e-10
5.58172e-10
5.34036e-11
4.19052e-10
1.77546e-10
3.49722e-11
-2.06005e-10
9.38573e-11
-4.19976e-10
1.41893e-10
-4.75342e-10
1.51836e-10
-4.02568e-10
1.01624e-10
-2.26609e-10
-2.66271e-11
3.09658e-11
-2.47261e-10
3.51758e-10
-5.71551e-10
7.20318e-10
-1.0081e-09
1.12378e-09
-1.56315e-09
1.55151e-09
-2.24094e-09
1.99476e-09
-3.04396e-09
2.44636e-09
-3.97321e-09
2.90045e-09
-5.02843e-09
3.35228e-09
-6.20832e-09
3.79797e-09
-7.5107e-09
4.23442e-09
-8.93264e-09
4.65911e-09
-1.04706e-08
5.07004e-09
-1.21207e-08
5.46561e-09
-1.38784e-08
5.84461e-09
-1.5739e-08
6.20606e-09
-1.76977e-08
6.54927e-09
-1.97491e-08
6.87373e-09
-2.18882e-08
7.17909e-09
-2.41095e-08
7.46514e-09
-2.64075e-08
7.73179e-09
-2.87768e-08
7.97905e-09
-3.1212e-08
8.20699e-09
-3.37075e-08
8.41575e-09
-3.6258e-08
8.60554e-09
-3.88581e-08
8.77658e-09
-4.15024e-08
8.92914e-09
-4.41858e-08
9.06352e-09
-4.6903e-08
9.18003e-09
-4.96489e-08
9.27899e-09
-5.24186e-08
9.36074e-09
-5.5207e-08
9.42563e-09
-5.80095e-08
9.47398e-09
-6.08211e-08
9.50615e-09
-6.36373e-08
9.52247e-09
-6.64535e-08
9.52328e-09
-6.92652e-08
9.50889e-09
-7.20681e-08
9.47963e-09
-7.48578e-08
9.43582e-09
-7.76301e-08
9.37774e-09
-8.03809e-08
9.3057e-09
-8.31061e-08
9.21999e-09
-8.58017e-08
9.12087e-09
-8.84639e-08
9.00861e-09
-9.10889e-08
8.88349e-09
-9.36728e-08
8.74574e-09
-9.62121e-08
8.59562e-09
-9.87031e-08
8.43337e-09
-1.01142e-07
8.25923e-09
-1.03526e-07
8.07343e-09
-1.05852e-07
7.8762e-09
-1.08115e-07
7.66778e-09
-1.10313e-07
7.44839e-09
-1.12443e-07
7.21827e-09
-1.14501e-07
6.97765e-09
-1.16485e-07
6.72677e-09
-1.18391e-07
6.46587e-09
-1.20217e-07
6.19521e-09
-1.2196e-07
5.91503e-09
-1.23617e-07
5.62561e-09
-1.25185e-07
5.32723e-09
-1.26662e-07
5.02017e-09
-1.28046e-07
4.70473e-09
-1.29334e-07
4.38123e-09
-1.30524e-07
4.04999e-09
-1.31614e-07
3.71137e-09
-1.32602e-07
3.36571e-09
-1.33485e-07
3.0134e-09
-1.34262e-07
2.65483e-09
-1.34932e-07
2.29042e-09
-1.35492e-07
1.92059e-09
-1.35942e-07
1.54581e-09
-1.36279e-07
1.16654e-09
-1.36504e-07
7.8327e-10
-1.36614e-07
3.9652e-10
-1.3661e-07
6.8187e-12
-1.3649e-07
-3.85279e-10
-1.36254e-07
-7.79201e-10
-1.35901e-07
-1.17435e-09
-1.35432e-07
-1.57012e-09
-1.34847e-07
-1.96588e-09
-1.34146e-07
-2.36098e-09
-1.33328e-07
-2.75475e-09
-1.32396e-07
-3.14651e-09
-1.31349e-07
-3.53556e-09
-1.30189e-07
-3.9212e-09
-1.28917e-07
-4.30269e-09
-1.27535e-07
-4.67931e-09
-1.26043e-07
-5.0503e-09
-1.24445e-07
-5.41492e-09
-1.22742e-07
-5.7724e-09
-1.20936e-07
-6.12197e-09
-1.1903e-07
-6.46288e-09
-1.17028e-07
-6.79434e-09
-1.14931e-07
-7.1156e-09
-1.12743e-07
-7.42588e-09
-1.10468e-07
-7.72443e-09
-1.08109e-07
-8.0105e-09
-1.0567e-07
-8.28335e-09
-1.03155e-07
-8.54224e-09
-1.00569e-07
-8.78648e-09
-9.79159e-08
-9.01535e-09
-9.52004e-08
-9.22819e-09
-9.24273e-08
-9.42433e-09
-8.96019e-08
-9.60315e-09
-8.67292e-08
-9.76406e-09
-8.38147e-08
-9.90646e-09
-8.08639e-08
-1.00298e-08
-7.78825e-08
-1.01337e-08
-7.48763e-08
-1.02175e-08
-7.18513e-08
-1.02808e-08
-6.88134e-08
-1.03234e-08
-6.57689e-08
-1.03447e-08
-6.27239e-08
-1.03446e-08
-5.96848e-08
-1.03227e-08
-5.66579e-08
-1.02789e-08
-5.36496e-08
-1.0213e-08
-5.06662e-08
-1.01249e-08
-4.77142e-08
-1.00146e-08
-4.48001e-08
-9.88206e-09
-4.19301e-08
-9.72735e-09
-3.91107e-08
-9.55063e-09
-3.63481e-08
-9.35209e-09
-3.36484e-08
-9.13201e-09
-3.10177e-08
-8.89072e-09
-2.84621e-08
-8.62863e-09
-2.59872e-08
-8.34622e-09
-2.35987e-08
-8.04408e-09
-2.13019e-08
-7.72285e-09
-1.91022e-08
-7.38328e-09
-1.70043e-08
-7.02623e-09
-1.50129e-08
-6.65266e-09
-1.31324e-08
-6.26364e-09
-1.13665e-08
-5.86041e-09
-9.71883e-09
-5.44431e-09
-8.19243e-09
-5.01691e-09
-6.78982e-09
-4.57993e-09
-5.51293e-09
-4.13534e-09
-4.36305e-09
-3.68536e-09
-3.34076e-09
-3.23254e-09
-2.44578e-09
-2.77977e-09
-1.67692e-09
-2.33039e-09
-1.03195e-09
-1.88823e-09
-5.07457e-10
-1.45776e-09
-9.86928e-11
-1.04413e-09
2.00576e-10
-6.53398e-10
3.98256e-10
-2.92587e-10
5.04114e-10
3.00889e-11
5.29974e-10
3.05083e-10
4.89939e-10
5.21369e-10
4.00637e-10
6.66335e-10
2.81574e-10
7.25775e-10
1.55691e-10
6.84054e-10
5.03673e-11
5.24374e-10
2.27914e-10
2.3486e-11
-2.29493e-10
5.25355e-11
-4.49024e-10
5.42786e-11
-4.77086e-10
2.25468e-12
-3.50544e-10
-1.25199e-10
-9.91572e-11
-3.45768e-10
2.51533e-10
-6.73735e-10
6.79723e-10
-1.12041e-09
1.167e-09
-1.6945e-09
1.69787e-09
-2.4024e-09
2.25941e-09
-3.24846e-09
2.84082e-09
-4.23529e-09
3.43318e-09
-5.36393e-09
4.02909e-09
-6.63412e-09
4.62247e-09
-8.04449e-09
5.20834e-09
-9.59268e-09
5.78261e-09
-1.12755e-08
6.34198e-09
-1.30893e-08
6.88376e-09
-1.50295e-08
7.40582e-09
-1.70914e-08
7.90648e-09
-1.92697e-08
8.3844e-09
-2.1559e-08
8.8386e-09
-2.39536e-08
9.26832e-09
-2.64476e-08
9.67306e-09
-2.90349e-08
1.00525e-08
-3.17095e-08
1.04064e-08
-3.44653e-08
1.07348e-08
-3.72959e-08
1.10377e-08
-4.01954e-08
1.13152e-08
-4.31575e-08
1.15676e-08
-4.61761e-08
1.17952e-08
-4.92451e-08
1.19982e-08
-5.23587e-08
1.21771e-08
-5.55108e-08
1.23321e-08
-5.86956e-08
1.24638e-08
-6.19074e-08
1.25726e-08
-6.51406e-08
1.26588e-08
-6.83895e-08
1.27229e-08
-7.16488e-08
1.27654e-08
-7.4913e-08
1.27867e-08
-7.81768e-08
1.27872e-08
-8.14353e-08
1.27673e-08
-8.46831e-08
1.27275e-08
-8.79155e-08
1.26682e-08
-9.11275e-08
1.25897e-08
-9.43143e-08
1.24925e-08
-9.74712e-08
1.23769e-08
-1.00594e-07
1.22433e-08
-1.03677e-07
1.20921e-08
-1.06717e-07
1.19236e-08
-1.0971e-07
1.17381e-08
-1.1265e-07
1.1536e-08
-1.15534e-07
1.13176e-08
-1.18358e-07
1.10832e-08
-1.21118e-07
1.08331e-08
-1.23809e-07
1.05677e-08
-1.26429e-07
1.02873e-08
-1.28972e-07
9.99211e-09
-1.31437e-07
9.68254e-09
-1.33818e-07
9.35888e-09
-1.36113e-07
9.02146e-09
-1.38317e-07
8.67061e-09
-1.40429e-07
8.30667e-09
-1.42444e-07
7.92999e-09
-1.44359e-07
7.54094e-09
-1.46172e-07
7.13988e-09
-1.47879e-07
6.72723e-09
-1.49478e-07
6.30337e-09
-1.50965e-07
5.86874e-09
-1.52339e-07
5.42379e-09
-1.53596e-07
4.96898e-09
-1.54736e-07
4.5048e-09
-1.55754e-07
4.03177e-09
-1.56649e-07
3.5504e-09
-1.5742e-07
3.06127e-09
-1.58065e-07
2.56495e-09
-1.58581e-07
2.06206e-09
-1.58968e-07
1.55323e-09
-1.59223e-07
1.03913e-09
-1.59347e-07
5.20436e-10
-1.59338e-07
-2.1276e-12
-1.59196e-07
-5.27822e-10
-1.58919e-07
-1.05588e-09
-1.58508e-07
-1.5855e-09
-1.57962e-07
-2.11587e-09
-1.57282e-07
-2.64614e-09
-1.56468e-07
-3.17545e-09
-1.55519e-07
-3.70291e-09
-1.54438e-07
-4.2276e-09
-1.53225e-07
-4.74859e-09
-1.51882e-07
-5.26494e-09
-1.50409e-07
-5.77568e-09
-1.48808e-07
-6.27983e-09
-1.47082e-07
-6.77639e-09
-1.45233e-07
-7.26436e-09
-1.43262e-07
-7.74274e-09
-1.41174e-07
-8.21049e-09
-1.3897e-07
-8.66661e-09
-1.36654e-07
-9.11005e-09
-1.3423e-07
-9.53982e-09
-1.31701e-07
-9.95489e-09
-1.29071e-07
-1.03542e-08
-1.26345e-07
-1.07369e-08
-1.23526e-07
-1.11019e-08
-1.2062e-07
-1.14482e-08
-1.17632e-07
-1.17749e-08
-1.14566e-07
-1.20811e-08
-1.11428e-07
-1.23659e-08
-1.08224e-07
-1.26284e-08
-1.0496e-07
-1.28677e-08
-1.01641e-07
-1.30832e-08
-9.82731e-08
-1.3274e-08
-9.48636e-08
-1.34394e-08
-9.14185e-08
-1.35787e-08
-8.79445e-08
-1.36914e-08
-8.44485e-08
-1.37769e-08
-8.09374e-08
-1.38345e-08
-7.74181e-08
-1.3864e-08
-7.38978e-08
-1.38649e-08
-7.03837e-08
-1.38368e-08
-6.68831e-08
-1.37796e-08
-6.34032e-08
-1.36929e-08
-5.99514e-08
-1.35767e-08
-5.65351e-08
-1.3431e-08
-5.31614e-08
-1.32557e-08
-4.98376e-08
-1.30511e-08
-4.65711e-08
-1.28171e-08
-4.33689e-08
-1.25543e-08
-4.02381e-08
-1.22628e-08
-3.71855e-08
-1.19433e-08
-3.4218e-08
-1.15962e-08
-3.1342e-08
-1.12222e-08
-2.85639e-08
-1.08221e-08
-2.58899e-08
-1.03969e-08
-2.33258e-08
-9.9474e-09
-2.08771e-08
-9.47491e-09
-1.8549e-08
-8.98071e-09
-1.63464e-08
-8.46625e-09
-1.42736e-08
-7.9332e-09
-1.23346e-08
-7.38338e-09
-1.05326e-08
-6.81888e-09
-8.8705e-09
-6.24203e-09
-7.35039e-09
-5.65545e-09
-5.97366e-09
-5.06209e-09
-4.74087e-09
-4.46532e-09
-3.6517e-09
-3.86895e-09
-2.70477e-09
-3.27731e-09
-1.89762e-09
-2.69539e-09
-1.22649e-09
-2.12888e-09
-6.86259e-10
-1.58437e-09
-2.70233e-10
-1.06942e-09
2.99735e-11
-5.92794e-10
2.24628e-10
-1.64566e-10
3.26057e-10
2.03653e-10
3.4886e-10
4.98566e-10
3.10168e-10
7.05029e-10
2.3002e-10
8.05923e-10
1.31937e-10
7.82136e-10
4.38407e-11
6.12469e-10
2.71754e-10
9.90514e-12
-2.39398e-10
3.37987e-12
-4.42501e-10
-4.95702e-11
-4.24137e-10
-1.73753e-10
-2.26361e-10
-3.89766e-10
1.16854e-10
-7.14576e-10
5.76344e-10
-1.16198e-09
1.12713e-09
-1.74299e-09
1.748e-09
-2.46608e-09
2.42097e-09
-3.33754e-09
3.13086e-09
-4.36164e-09
3.86493e-09
-5.54093e-09
4.61247e-09
-6.87639e-09
5.36455e-09
-8.36765e-09
6.11374e-09
-1.00132e-08
6.85389e-09
-1.18105e-08
7.57992e-09
-1.37562e-08
8.28767e-09
-1.58462e-08
8.97373e-09
-1.80757e-08
9.63536e-09
-2.04396e-08
1.02704e-08
-2.29322e-08
1.0877e-08
-2.55476e-08
1.1454e-08
-2.82796e-08
1.20003e-08
-3.11216e-08
1.25151e-08
-3.40672e-08
1.29981e-08
-3.71096e-08
1.34488e-08
-4.02421e-08
1.38672e-08
-4.34578e-08
1.42534e-08
-4.67499e-08
1.46073e-08
-5.01116e-08
1.49294e-08
-5.35362e-08
1.52197e-08
-5.70169e-08
1.54789e-08
-6.0547e-08
1.57072e-08
-6.41199e-08
1.59051e-08
-6.77292e-08
1.60731e-08
-7.13683e-08
1.62117e-08
-7.5031e-08
1.63215e-08
-7.8711e-08
1.64029e-08
-8.24022e-08
1.64566e-08
-8.60985e-08
1.6483e-08
-8.97941e-08
1.64828e-08
-9.34831e-08
1.64563e-08
-9.71599e-08
1.64042e-08
-1.00819e-07
1.6327e-08
-1.04454e-07
1.62251e-08
-1.08061e-07
1.60991e-08
-1.11633e-07
1.59495e-08
-1.15167e-07
1.57766e-08
-1.18655e-07
1.5581e-08
-1.22095e-07
1.5363e-08