/*--------------------------------*- C++ -*----------------------------------*\
  =========                 |
  \\      /  F ield         | OpenFOAM: The Open Source CFD Toolbox
   \\    /   O peration     | Website:  https://openfoam.org
    \\  /    A nd           | Version:  7
     \\/     M anipulation  |
\*---------------------------------------------------------------------------*/
FoamFile
{
    version     2.0;
    format      ascii;
    class       volVectorField;
    location    "0.15";
    object      U;
}
// * * * * * * * * * * * * * * * * * * * * * * * * * * * * * * * * * * * * * //

dimensions      [0 1 -1 0 0 0 0];

internalField   nonuniform List<vector> 
25600
(
(8.69577e-07 -5.46264e-07 0)
(3.09527e-06 -1.31432e-06 0)
(6.21759e-06 -1.46062e-06 0)
(8.57596e-06 -1.07979e-06 0)
(9.43932e-06 -4.81704e-07 0)
(8.36534e-06 1.97627e-07 0)
(5.22462e-06 8.87364e-07 0)
(8.45035e-09 1.55059e-06 0)
(-7.22146e-06 2.17328e-06 0)
(-1.63664e-05 2.75275e-06 0)
(-2.73057e-05 3.28673e-06 0)
(-3.99048e-05 3.77278e-06 0)
(-5.40261e-05 4.21126e-06 0)
(-6.95337e-05 4.60515e-06 0)
(-8.62941e-05 4.95717e-06 0)
(-0.000104178 5.26839e-06 0)
(-0.000123061 5.54e-06 0)
(-0.000142826 5.77521e-06 0)
(-0.000163365 5.9787e-06 0)
(-0.000184575 6.15483e-06 0)
(-0.000206361 6.30627e-06 0)
(-0.000228638 6.43359e-06 0)
(-0.000251323 6.5366e-06 0)
(-0.000274341 6.61698e-06 0)
(-0.000297627 6.67766e-06 0)
(-0.000321119 6.72153e-06 0)
(-0.00034476 6.75142e-06 0)
(-0.000368502 6.76948e-06 0)
(-0.000392298 6.77661e-06 0)
(-0.000416108 6.77309e-06 0)
(-0.000439896 6.75945e-06 0)
(-0.000463629 6.73646e-06 0)
(-0.000487277 6.70495e-06 0)
(-0.000510813 6.666e-06 0)
(-0.000534213 6.62123e-06 0)
(-0.000557457 6.5722e-06 0)
(-0.000580525 6.51972e-06 0)
(-0.0006034 6.46367e-06 0)
(-0.000626067 6.40327e-06 0)
(-0.00064851 6.33782e-06 0)
(-0.000670715 6.26759e-06 0)
(-0.00069267 6.19383e-06 0)
(-0.000714363 6.11783e-06 0)
(-0.000735784 6.04012e-06 0)
(-0.000756922 5.96062e-06 0)
(-0.000777767 5.87875e-06 0)
(-0.000798308 5.79365e-06 0)
(-0.000818536 5.70474e-06 0)
(-0.00083844 5.6124e-06 0)
(-0.000858013 5.51771e-06 0)
(-0.000877243 5.42139e-06 0)
(-0.000896122 5.32318e-06 0)
(-0.00091464 5.22235e-06 0)
(-0.000932786 5.11841e-06 0)
(-0.000950552 5.01128e-06 0)
(-0.000967927 4.90098e-06 0)
(-0.0009849 4.78756e-06 0)
(-0.00100146 4.6713e-06 0)
(-0.0010176 4.5525e-06 0)
(-0.00103331 4.43103e-06 0)
(-0.00104857 4.30637e-06 0)
(-0.00106339 4.17808e-06 0)
(-0.00107773 4.0463e-06 0)
(-0.0010916 3.91148e-06 0)
(-0.00110498 3.77385e-06 0)
(-0.00111787 3.6331e-06 0)
(-0.00113024 3.48883e-06 0)
(-0.00114209 3.34092e-06 0)
(-0.00115341 3.18961e-06 0)
(-0.00116419 3.03513e-06 0)
(-0.00117441 2.87748e-06 0)
(-0.00118407 2.71648e-06 0)
(-0.00119314 2.55198e-06 0)
(-0.00120163 2.38399e-06 0)
(-0.00120952 2.21253e-06 0)
(-0.00121679 2.03761e-06 0)
(-0.00122345 1.85932e-06 0)
(-0.00122946 1.67788e-06 0)
(-0.00123483 1.49347e-06 0)
(-0.00123955 1.30608e-06 0)
(-0.0012436 1.11548e-06 0)
(-0.00124697 9.21509e-07 0)
(-0.00124966 7.24327e-07 0)
(-0.00125165 5.24307e-07 0)
(-0.00125294 3.2173e-07 0)
(-0.00125351 1.16652e-07 0)
(-0.00125335 -9.09601e-08 0)
(-0.00125247 -3.01088e-07 0)
(-0.00125085 -5.13684e-07 0)
(-0.00124847 -7.28736e-07 0)
(-0.00124535 -9.46147e-07 0)
(-0.00124146 -1.16557e-06 0)
(-0.0012368 -1.3865e-06 0)
(-0.00123138 -1.60867e-06 0)
(-0.00122517 -1.83218e-06 0)
(-0.00121818 -2.05732e-06 0)
(-0.00121041 -2.28411e-06 0)
(-0.00120185 -2.51212e-06 0)
(-0.00119249 -2.74077e-06 0)
(-0.00118234 -2.9696e-06 0)
(-0.0011714 -3.19842e-06 0)
(-0.00115966 -3.4272e-06 0)
(-0.00114712 -3.65597e-06 0)
(-0.0011338 -3.88469e-06 0)
(-0.00111968 -4.11313e-06 0)
(-0.00110478 -4.34071e-06 0)
(-0.00108909 -4.56667e-06 0)
(-0.00107263 -4.79051e-06 0)
(-0.00105539 -5.01218e-06 0)
(-0.00103739 -5.23186e-06 0)
(-0.00101864 -5.44948e-06 0)
(-0.000999141 -5.66447e-06 0)
(-0.00097891 -5.87605e-06 0)
(-0.000957959 -6.08352e-06 0)
(-0.000936302 -6.28645e-06 0)
(-0.000913954 -6.4845e-06 0)
(-0.000890935 -6.67733e-06 0)
(-0.000867262 -6.8646e-06 0)
(-0.000842958 -7.0459e-06 0)
(-0.000818046 -7.22054e-06 0)
(-0.000792551 -7.38753e-06 0)
(-0.000766501 -7.54583e-06 0)
(-0.000739927 -7.6948e-06 0)
(-0.000712862 -7.83409e-06 0)
(-0.00068534 -7.96325e-06 0)
(-0.0006574 -8.08136e-06 0)
(-0.000629085 -8.18714e-06 0)
(-0.00060044 -8.27933e-06 0)
(-0.000571512 -8.35674e-06 0)
(-0.000542356 -8.4182e-06 0)
(-0.000513028 -8.46256e-06 0)
(-0.000483589 -8.48887e-06 0)
(-0.000454103 -8.49612e-06 0)
(-0.000424642 -8.48282e-06 0)
(-0.000395279 -8.44693e-06 0)
(-0.000366095 -8.38644e-06 0)
(-0.000337174 -8.29981e-06 0)
(-0.000308609 -8.18577e-06 0)
(-0.000280493 -8.04277e-06 0)
(-0.00025293 -7.86898e-06 0)
(-0.000226028 -7.66252e-06 0)
(-0.000199899 -7.42143e-06 0)
(-0.000174664 -7.14327e-06 0)
(-0.000150446 -6.82538e-06 0)
(-0.000127379 -6.46567e-06 0)
(-0.000105597 -6.06285e-06 0)
(-8.52422e-05 -5.61562e-06 0)
(-6.64584e-05 -5.12175e-06 0)
(-4.9394e-05 -4.57861e-06 0)
(-3.41982e-05 -3.98436e-06 0)
(-2.10177e-05 -3.33857e-06 0)
(-9.99314e-06 -2.64197e-06 0)
(-1.25194e-06 -1.89737e-06 0)
(5.10291e-06 -1.11268e-06 0)
(9.01439e-06 -3.05442e-07 0)
(1.05051e-05 4.88666e-07 0)
(9.7265e-06 1.20003e-06 0)
(7.07116e-06 1.69041e-06 0)
(3.50632e-06 1.69237e-06 0)
(8.33378e-07 8.33498e-07 0)
(1.62744e-06 -2.95664e-06 0)
(5.60277e-06 -5.20593e-06 0)
(9.85117e-06 -4.8229e-06 0)
(1.18611e-05 -2.51983e-06 0)
(1.00076e-05 8.08999e-07 0)
(3.42546e-06 4.62873e-06 0)
(-8.30725e-06 8.61563e-06 0)
(-2.53249e-05 1.25758e-05 0)
(-4.75718e-05 1.6396e-05 0)
(-7.48722e-05 2.00137e-05 0)
(-0.00010697 2.33953e-05 0)
(-0.000143561 2.65213e-05 0)
(-0.000184316 2.93837e-05 0)
(-0.000228897 3.19847e-05 0)
(-0.00027696 3.43308e-05 0)
(-0.000328172 3.64314e-05 0)
(-0.000382203 3.82968e-05 0)
(-0.000438743 3.9939e-05 0)
(-0.000497495 4.13725e-05 0)
(-0.00055818 4.26128e-05 0)
(-0.000620536 4.36748e-05 0)
(-0.000684321 4.4572e-05 0)
(-0.000749306 4.53165e-05 0)
(-0.000815284 4.59198e-05 0)
(-0.000882064 4.63945e-05 0)
(-0.00094947 4.67525e-05 0)
(-0.00101734 4.70054e-05 0)
(-0.00108554 4.7164e-05 0)
(-0.00115392 4.72377e-05 0)
(-0.00122238 4.72346e-05 0)
(-0.00129079 4.71622e-05 0)
(-0.00135908 4.7027e-05 0)
(-0.00142714 4.68354e-05 0)
(-0.0014949 4.65929e-05 0)
(-0.00156228 4.63049e-05 0)
(-0.00162923 4.59762e-05 0)
(-0.00169568 4.56112e-05 0)
(-0.00176159 4.52136e-05 0)
(-0.00182689 4.47857e-05 0)
(-0.00189156 4.43291e-05 0)
(-0.00195554 4.38454e-05 0)
(-0.00201879 4.33366e-05 0)
(-0.00208129 4.28048e-05 0)
(-0.002143 4.22515e-05 0)
(-0.00220388 4.16779e-05 0)
(-0.00226391 4.10847e-05 0)
(-0.00232305 4.04718e-05 0)
(-0.00238128 3.98388e-05 0)
(-0.00243856 3.91857e-05 0)
(-0.00249487 3.85132e-05 0)
(-0.00255017 3.78219e-05 0)
(-0.00260445 3.7112e-05 0)
(-0.00265767 3.63829e-05 0)
(-0.0027098 3.56342e-05 0)
(-0.00276082 3.48655e-05 0)
(-0.00281069 3.40765e-05 0)
(-0.00285938 3.32668e-05 0)
(-0.00290688 3.24365e-05 0)
(-0.00295314 3.15855e-05 0)
(-0.00299813 3.07139e-05 0)
(-0.00304183 2.9821e-05 0)
(-0.00308421 2.89063e-05 0)
(-0.00312523 2.79697e-05 0)
(-0.00316486 2.70112e-05 0)
(-0.00320307 2.60308e-05 0)
(-0.00323984 2.50285e-05 0)
(-0.00327512 2.40038e-05 0)
(-0.00330888 2.29565e-05 0)
(-0.0033411 2.18867e-05 0)
(-0.00337175 2.07942e-05 0)
(-0.00340078 1.96793e-05 0)
(-0.00342817 1.85419e-05 0)
(-0.00345389 1.7382e-05 0)
(-0.0034779 1.61996e-05 0)
(-0.00350018 1.49948e-05 0)
(-0.00352069 1.37679e-05 0)
(-0.00353939 1.25191e-05 0)
(-0.00355627 1.12487e-05 0)
(-0.00357129 9.95718e-06 0)
(-0.00358442 8.645e-06 0)
(-0.00359563 7.31249e-06 0)
(-0.0036049 5.95993e-06 0)
(-0.00361219 4.5878e-06 0)
(-0.00361748 3.19674e-06 0)
(-0.00362075 1.78748e-06 0)
(-0.00362196 3.60721e-07 0)
(-0.0036211 -1.08284e-06 0)
(-0.00361814 -2.54245e-06 0)
(-0.00361306 -4.01731e-06 0)
(-0.00360584 -5.50665e-06 0)
(-0.00359646 -7.00966e-06 0)
(-0.0035849 -8.52537e-06 0)
(-0.00357114 -1.00526e-05 0)
(-0.00355518 -1.15899e-05 0)
(-0.00353699 -1.31361e-05 0)
(-0.00351657 -1.46904e-05 0)
(-0.00349391 -1.62517e-05 0)
(-0.003469 -1.78188e-05 0)
(-0.00344182 -1.939e-05 0)
(-0.00341239 -2.09637e-05 0)
(-0.00338069 -2.25383e-05 0)
(-0.00334673 -2.41121e-05 0)
(-0.00331051 -2.56838e-05 0)
(-0.00327203 -2.72515e-05 0)
(-0.00323131 -2.88137e-05 0)
(-0.00318835 -3.03684e-05 0)
(-0.00314317 -3.19134e-05 0)
(-0.00309578 -3.34462e-05 0)
(-0.0030462 -3.49647e-05 0)
(-0.00299446 -3.64667e-05 0)
(-0.00294057 -3.79501e-05 0)
(-0.00288458 -3.94125e-05 0)
(-0.00282651 -4.08508e-05 0)
(-0.00276641 -4.2262e-05 0)
(-0.00270431 -4.36428e-05 0)
(-0.00264025 -4.49901e-05 0)
(-0.0025743 -4.63003e-05 0)
(-0.00250651 -4.757e-05 0)
(-0.00243693 -4.87953e-05 0)
(-0.00236565 -4.99723e-05 0)
(-0.00229272 -5.10964e-05 0)
(-0.00221823 -5.21626e-05 0)
(-0.00214228 -5.31659e-05 0)
(-0.00206494 -5.41008e-05 0)
(-0.00198634 -5.49622e-05 0)
(-0.00190657 -5.5744e-05 0)
(-0.00182575 -5.64395e-05 0)
(-0.00174403 -5.70417e-05 0)
(-0.00166153 -5.7543e-05 0)
(-0.00157841 -5.79359e-05 0)
(-0.00149483 -5.82121e-05 0)
(-0.00141096 -5.8363e-05 0)
(-0.00132699 -5.838e-05 0)
(-0.00124311 -5.8254e-05 0)
(-0.00115955 -5.7975e-05 0)
(-0.00107652 -5.75325e-05 0)
(-0.000994266 -5.69159e-05 0)
(-0.000913041 -5.61145e-05 0)
(-0.000833115 -5.51176e-05 0)
(-0.000754772 -5.39139e-05 0)
(-0.000678312 -5.2492e-05 0)
(-0.000604048 -5.08408e-05 0)
(-0.00053231 -4.89492e-05 0)
(-0.000463439 -4.68058e-05 0)
(-0.000397789 -4.44e-05 0)
(-0.000335727 -4.17227e-05 0)
(-0.000277625 -3.87667e-05 0)
(-0.000223862 -3.55268e-05 0)
(-0.000174817 -3.20003e-05 0)
(-0.00013086 -2.81894e-05 0)
(-9.23444e-05 -2.4105e-05 0)
(-5.95898e-05 -1.97703e-05 0)
(-3.28609e-05 -1.52273e-05 0)
(-1.23337e-05 -1.05489e-05 0)
(1.95582e-06 -5.85955e-06 0)
(1.01853e-05 -1.36908e-06 0)
(1.2841e-05 2.57385e-06 0)
(1.08759e-05 5.38932e-06 0)
(6.13942e-06 6.14018e-06 0)
(1.69238e-06 3.50571e-06 0)
(1.52439e-06 -6.14463e-06 0)
(4.89649e-06 -9.59686e-06 0)
(7.23895e-06 -7.16688e-06 0)
(5.54289e-06 -8.19241e-07 0)
(-2.06359e-06 7.90729e-06 0)
(-1.66751e-05 1.79115e-05 0)
(-3.89001e-05 2.84556e-05 0)
(-6.8982e-05 3.90565e-05 0)
(-0.000106899 4.94011e-05 0)
(-0.00015245 5.92948e-05 0)
(-0.000205305 6.86181e-05 0)
(-0.000265055 7.73e-05 0)
(-0.000331234 8.53054e-05 0)
(-0.000403357 9.26227e-05 0)
(-0.000480922 9.92579e-05 0)
(-0.000563431 0.000105229 0)
(-0.000650394 0.00011056 0)
(-0.000741337 0.000115279 0)
(-0.000835805 0.00011942 0)
(-0.000933367 0.000123018 0)
(-0.00103362 0.00012611 0)
(-0.00113617 0.000128733 0)
(-0.00124068 0.000130921 0)
(-0.00134682 0.00013271 0)
(-0.00145427 0.000134133 0)
(-0.00156276 0.000135221 0)
(-0.00167204 0.000136003 0)
(-0.00178186 0.000136509 0)
(-0.00189203 0.000136764 0)
(-0.00200233 0.000136792 0)
(-0.00211261 0.000136617 0)
(-0.00222269 0.000136257 0)
(-0.00233244 0.000135731 0)
(-0.00244171 0.000135054 0)
(-0.00255041 0.000134243 0)
(-0.00265841 0.000133308 0)
(-0.00276562 0.000132262 0)
(-0.00287196 0.000131115 0)
(-0.00297733 0.000129875 0)
(-0.00308167 0.00012855 0)
(-0.0031849 0.000127146 0)
(-0.00328697 0.000125667 0)
(-0.0033878 0.000124119 0)
(-0.00348735 0.000122504 0)
(-0.00358556 0.000120826 0)
(-0.00368237 0.000119087 0)
(-0.00377774 0.000117289 0)
(-0.00387162 0.000115433 0)
(-0.00396395 0.000113519 0)
(-0.0040547 0.000111548 0)
(-0.00414381 0.00010952 0)
(-0.00423124 0.000107436 0)
(-0.00431694 0.000105294 0)
(-0.00440087 0.000103096 0)
(-0.00448297 0.000100839 0)
(-0.0045632 9.85249e-05 0)
(-0.00464152 9.61512e-05 0)
(-0.00471788 9.37178e-05 0)
(-0.00479222 9.12243e-05 0)
(-0.0048645 8.86702e-05 0)
(-0.00493467 8.6055e-05 0)
(-0.00500268 8.33779e-05 0)
(-0.00506849 8.06385e-05 0)
(-0.00513203 7.78363e-05 0)
(-0.00519327 7.49711e-05 0)
(-0.00525215 7.20425e-05 0)
(-0.00530862 6.90503e-05 0)
(-0.00536264 6.59944e-05 0)
(-0.00541414 6.28745e-05 0)
(-0.00546308 5.96902e-05 0)
(-0.00550941 5.64419e-05 0)
(-0.00555308 5.31296e-05 0)
(-0.00559404 4.97538e-05 0)
(-0.00563224 4.63148e-05 0)
(-0.00566763 4.28129e-05 0)
(-0.00570015 3.92487e-05 0)
(-0.00572977 3.5623e-05 0)
(-0.00575644 3.19365e-05 0)
(-0.0057801 2.81904e-05 0)
(-0.00580072 2.43857e-05 0)
(-0.00581824 2.05239e-05 0)
(-0.00583262 1.66062e-05 0)
(-0.00584382 1.26341e-05 0)
(-0.0058518 8.60919e-06 0)
(-0.00585652 4.53317e-06 0)
(-0.00585794 4.08013e-07 0)
(-0.00585602 -3.76418e-06 0)
(-0.00585073 -7.98114e-06 0)
(-0.00584202 -1.22405e-05 0)
(-0.00582988 -1.65396e-05 0)
(-0.00581428 -2.08761e-05 0)
(-0.00579517 -2.52472e-05 0)
(-0.00577255 -2.96499e-05 0)
(-0.00574638 -3.40808e-05 0)
(-0.00571665 -3.85367e-05 0)
(-0.00568334 -4.3014e-05 0)
(-0.00564644 -4.75092e-05 0)
(-0.00560593 -5.20186e-05 0)
(-0.00556181 -5.65381e-05 0)
(-0.00551406 -6.10635e-05 0)
(-0.0054627 -6.55905e-05 0)
(-0.00540772 -7.01144e-05 0)
(-0.00534912 -7.46303e-05 0)
(-0.00528693 -7.91332e-05 0)
(-0.00522114 -8.36179e-05 0)
(-0.00515178 -8.8079e-05 0)
(-0.00507887 -9.25108e-05 0)
(-0.00500245 -9.69072e-05 0)
(-0.00492253 -0.000101262 0)
(-0.00483916 -0.000105567 0)
(-0.00475238 -0.000109817 0)
(-0.00466224 -0.000114004 0)
(-0.0045688 -0.00011812 0)
(-0.00447211 -0.000122157 0)
(-0.00437225 -0.000126106 0)
(-0.00426928 -0.000129957 0)
(-0.0041633 -0.000133701 0)
(-0.0040544 -0.000137326 0)
(-0.00394266 -0.000140822 0)
(-0.00382821 -0.000144177 0)
(-0.00371117 -0.000147378 0)
(-0.00359165 -0.000150411 0)
(-0.00346981 -0.000153263 0)
(-0.0033458 -0.000155917 0)
(-0.00321978 -0.000158357 0)
(-0.00309193 -0.000160566 0)
(-0.00296244 -0.000162525 0)
(-0.00283153 -0.000164215 0)
(-0.00269941 -0.000165615 0)
(-0.00256633 -0.000166702 0)
(-0.00243254 -0.000167454 0)
(-0.00229833 -0.000167847 0)
(-0.00216399 -0.000167855 0)
(-0.00202983 -0.000167453 0)
(-0.00189619 -0.000166613 0)
(-0.00176343 -0.000165308 0)
(-0.00163193 -0.000163507 0)
(-0.00150209 -0.000161182 0)
(-0.00137434 -0.000158302 0)
(-0.00124911 -0.000154838 0)
(-0.00112688 -0.00015076 0)
(-0.00100814 -0.000146038 0)
(-0.00089339 -0.000140644 0)
(-0.000783163 -0.000134552 0)
(-0.000678001 -0.000127737 0)
(-0.000578459 -0.00012018 0)
(-0.0004851 -0.000111868 0)
(-0.000398485 -0.000102794 0)
(-0.000319171 -9.29643e-05 0)
(-0.00024769 -8.24034e-05 0)
(-0.000184537 -7.11594e-05 0)
(-0.000130145 -5.93181e-05 0)
(-8.4848e-05 -4.70195e-05 0)
(-4.88406e-05 -3.44854e-05 0)
(-2.21071e-05 -2.20614e-05 0)
(-4.33493e-06 -1.02816e-05 0)
(5.1834e-06 3.9495e-08 0)
(7.69956e-06 7.68355e-06 0)
(5.39152e-06 1.08761e-05 0)
(1.68946e-06 7.06682e-06 0)
(1.09406e-06 -8.63041e-06 0)
(2.50912e-06 -1.16546e-05 0)
(7.86084e-07 -5.48314e-06 0)
(-6.90369e-06 6.83748e-06 0)
(-2.2431e-05 2.30564e-05 0)
(-4.69661e-05 4.14897e-05 0)
(-8.11923e-05 6.09441e-05 0)
(-0.00012541 8.05961e-05 0)
(-0.000179619 9.98851e-05 0)
(-0.000243601 0.000118437 0)
(-0.000316983 0.000136011 0)
(-0.000399283 0.000152457 0)
(-0.000489946 0.00016769 0)
(-0.000588374 0.000181673 0)
(-0.000693944 0.0001944 0)
(-0.000806032 0.000205893 0)
(-0.000924018 0.000216188 0)
(-0.0010473 0.000225336 0)
(-0.00117528 0.000233391 0)
(-0.00130741 0.000240414 0)
(-0.00144316 0.000246469 0)
(-0.00158202 0.000251623 0)
(-0.00172353 0.00025594 0)
(-0.00186725 0.000259484 0)
(-0.00201278 0.000262319 0)
(-0.00215975 0.000264502 0)
(-0.00230781 0.00026609 0)
(-0.00245664 0.000267136 0)
(-0.00260596 0.000267689 0)
(-0.0027555 0.000267795 0)
(-0.00290503 0.000267497 0)
(-0.00305432 0.000266833 0)
(-0.00320317 0.000265839 0)
(-0.00335142 0.000264546 0)
(-0.00349889 0.000262982 0)
(-0.00364543 0.000261172 0)
(-0.00379091 0.000259139 0)
(-0.00393521 0.000256902 0)
(-0.00407821 0.000254477 0)
(-0.0042198 0.00025188 0)
(-0.00435989 0.000249123 0)
(-0.00449838 0.000246217 0)
(-0.00463521 0.00024317 0)
(-0.00477027 0.00023999 0)
(-0.0049035 0.000236681 0)
(-0.00503482 0.00023325 0)
(-0.00516416 0.000229699 0)
(-0.00529146 0.000226032 0)
(-0.00541664 0.00022225 0)
(-0.00553964 0.000218355 0)
(-0.00566041 0.000214347 0)
(-0.00577886 0.000210227 0)
(-0.00589494 0.000205994 0)
(-0.00600859 0.000201647 0)
(-0.00611974 0.000197188 0)
(-0.00622832 0.000192613 0)
(-0.00633427 0.000187924 0)
(-0.00643754 0.000183118 0)
(-0.00653804 0.000178194 0)
(-0.00663572 0.000173152 0)
(-0.00673052 0.000167991 0)
(-0.00682235 0.00016271 0)
(-0.00691117 0.000157308 0)
(-0.0069969 0.000151784 0)
(-0.00707947 0.000146138 0)
(-0.00715882 0.000140368 0)
(-0.00723488 0.000134476 0)
(-0.00730759 0.00012846 0)
(-0.00737687 0.000122321 0)
(-0.00744265 0.000116058 0)
(-0.00750488 0.000109672 0)
(-0.00756348 0.000103162 0)
(-0.00761839 9.653e-05 0)
(-0.00766954 8.97764e-05 0)
(-0.00771687 8.29023e-05 0)
(-0.00776031 7.59088e-05 0)
(-0.0077998 6.87976e-05 0)
(-0.00783527 6.15702e-05 0)
(-0.00786666 5.42285e-05 0)
(-0.00789392 4.67747e-05 0)
(-0.00791698 3.92113e-05 0)
(-0.00793578 3.15412e-05 0)
(-0.00795028 2.37674e-05 0)
(-0.00796041 1.5893e-05 0)
(-0.00796612 7.92132e-06 0)
(-0.00796736 -1.43765e-07 0)
(-0.00796409 -8.29822e-06 0)
(-0.00795625 -1.65377e-05 0)
(-0.0079438 -2.48576e-05 0)
(-0.00792671 -3.3253e-05 0)
(-0.00790494 -4.17186e-05 0)
(-0.00787844 -5.02489e-05 0)
(-0.00784719 -5.88381e-05 0)
(-0.00781116 -6.74803e-05 0)
(-0.00777032 -7.6169e-05 0)
(-0.00772466 -8.48973e-05 0)
(-0.00767415 -9.36581e-05 0)
(-0.00761878 -0.000102444 0)
(-0.00755854 -0.000111247 0)
(-0.00749343 -0.000120059 0)
(-0.00742345 -0.000128872 0)
(-0.00734859 -0.000137676 0)
(-0.00726888 -0.000146464 0)
(-0.00718432 -0.000155223 0)
(-0.00709493 -0.000163945 0)
(-0.00700074 -0.000172618 0)
(-0.00690179 -0.000181232 0)
(-0.00679811 -0.000189775 0)
(-0.00668974 -0.000198235 0)
(-0.00657674 -0.000206597 0)
(-0.00645916 -0.000214849 0)
(-0.00633708 -0.000222976 0)
(-0.00621057 -0.000230962 0)
(-0.00607971 -0.000238792 0)
(-0.00594459 -0.000246448 0)
(-0.00580533 -0.000253913 0)
(-0.00566203 -0.000261165 0)
(-0.00551482 -0.000268186 0)
(-0.00536383 -0.000274953 0)
(-0.00520921 -0.000281443 0)
(-0.00505113 -0.00028763 0)
(-0.00488976 -0.000293489 0)
(-0.00472529 -0.000298992 0)
(-0.00455793 -0.000304109 0)
(-0.0043879 -0.000308807 0)
(-0.00421545 -0.000313053 0)
(-0.00404083 -0.000316812 0)
(-0.00386432 -0.000320044 0)
(-0.00368624 -0.000322712 0)
(-0.00350689 -0.000324771 0)
(-0.00332664 -0.000326179 0)
(-0.00314584 -0.000326889 0)
(-0.0029649 -0.000326854 0)
(-0.00278424 -0.000326022 0)
(-0.0026043 -0.000324342 0)
(-0.00242557 -0.000321763 0)
(-0.00224854 -0.000318229 0)
(-0.00207375 -0.000313685 0)
(-0.00190176 -0.000308077 0)
(-0.00173316 -0.000301348 0)
(-0.00156856 -0.000293444 0)
(-0.0014086 -0.000284313 0)
(-0.00125394 -0.000273906 0)
(-0.00110527 -0.000262178 0)
(-0.000963284 -0.000249091 0)
(-0.000828693 -0.000234616 0)
(-0.000702211 -0.000218737 0)
(-0.000584546 -0.000201455 0)
(-0.000476386 -0.0001828 0)
(-0.000378384 -0.000162832 0)
(-0.000291134 -0.000141664 0)
(-0.00021514 -0.000119478 0)
(-0.000150779 -9.65552e-05 0)
(-9.82487e-05 -7.33175e-05 0)
(-5.74991e-05 -5.039e-05 0)
(-2.81493e-05 -2.86881e-05 0)
(-9.39128e-06 -9.53857e-06 0)
(1.36014e-07 5.18199e-06 0)
(2.60177e-06 1.28622e-05 0)
(1.20083e-06 9.72311e-06 0)
(4.88115e-07 -9.45223e-06 0)
(-8.30523e-07 -9.77446e-06 0)
(-7.9742e-06 2.16164e-06 0)
(-2.32001e-05 2.23777e-05 0)
(-4.81661e-05 4.79723e-05 0)
(-8.39966e-05 7.67237e-05 0)
(-0.000131356 0.000106995 0)
(-0.000190537 0.000137619 0)
(-0.00026153 0.000167772 0)
(-0.000344098 0.000196878 0)
(-0.000437827 0.000224553 0)
(-0.000542184 0.000250548 0)
(-0.000656544 0.00027471 0)
(-0.000780228 0.000296965 0)
(-0.000912521 0.000317287 0)
(-0.0010527 0.000335693 0)
(-0.00120003 0.000352228 0)
(-0.00135382 0.000366959 0)
(-0.00151335 0.000379967 0)
(-0.00167797 0.000391342 0)
(-0.00184704 0.000401179 0)
(-0.00201997 0.000409577 0)
(-0.00219617 0.000416633 0)
(-0.00237513 0.000422448 0)
(-0.00255634 0.000427116 0)
(-0.00273936 0.000430731 0)
(-0.00292376 0.000433382 0)
(-0.00310914 0.000435151 0)
(-0.00329516 0.000436118 0)
(-0.00348148 0.000436353 0)
(-0.00366781 0.000435926 0)
(-0.00385386 0.000434897 0)
(-0.0040394 0.000433322 0)
(-0.00422419 0.000431253 0)
(-0.00440803 0.000428735 0)
(-0.00459073 0.000425811 0)
(-0.00477212 0.000422515 0)
(-0.00495203 0.000418879 0)
(-0.00513032 0.000414931 0)
(-0.00530687 0.000410694 0)
(-0.00548153 0.000406189 0)
(-0.0056542 0.000401435 0)
(-0.00582476 0.000396446 0)
(-0.00599313 0.000391234 0)
(-0.00615918 0.000385809 0)
(-0.00632284 0.00038018 0)
(-0.00648401 0.000374351 0)
(-0.00664261 0.000368328 0)
(-0.00679855 0.000362116 0)
(-0.00695174 0.000355716 0)
(-0.00710211 0.00034913 0)
(-0.00724957 0.000342359 0)
(-0.00739404 0.000335403 0)
(-0.00753545 0.000328261 0)
(-0.0076737 0.000320933 0)
(-0.00780873 0.000313419 0)
(-0.00794045 0.000305716 0)
(-0.00806878 0.000297824 0)
(-0.00819364 0.000289741 0)
(-0.00831496 0.000281466 0)
(-0.00843263 0.000272998 0)
(-0.0085466 0.000264335 0)
(-0.00865677 0.000255476 0)
(-0.00876305 0.000246421 0)
(-0.00886538 0.000237168 0)
(-0.00896367 0.000227716 0)
(-0.00905782 0.000218066 0)
(-0.00914777 0.000208217 0)
(-0.00923343 0.000198169 0)
(-0.00931471 0.000187922 0)
(-0.00939153 0.000177477 0)
(-0.00946382 0.000166835 0)
(-0.00953149 0.000155996 0)
(-0.00959446 0.000144963 0)
(-0.00965264 0.000133736 0)
(-0.00970598 0.000122318 0)
(-0.00975437 0.000110712 0)
(-0.00979776 9.89207e-05 0)
(-0.00983605 8.69469e-05 0)
(-0.00986919 7.47943e-05 0)
(-0.0098971 6.2467e-05 0)
(-0.0099197 4.99695e-05 0)
(-0.00993694 3.73067e-05 0)
(-0.00994874 2.44839e-05 0)
(-0.00995504 1.15068e-05 0)
(-0.00995579 -1.61846e-06 0)
(-0.00995092 -1.48852e-05 0)
(-0.00994037 -2.82865e-05 0)
(-0.0099241 -4.18149e-05 0)
(-0.00990206 -5.54625e-05 0)
(-0.0098742 -6.92208e-05 0)
(-0.00984049 -8.30805e-05 0)
(-0.00980087 -9.70322e-05 0)
(-0.00975533 -0.000111066 0)
(-0.00970382 -0.000125172 0)
(-0.00964634 -0.000139339 0)
(-0.00958284 -0.000153555 0)
(-0.00951333 -0.000167809 0)
(-0.00943779 -0.000182087 0)
(-0.00935622 -0.000196376 0)
(-0.00926862 -0.000210663 0)
(-0.00917499 -0.000224934 0)
(-0.00907535 -0.000239172 0)
(-0.00896972 -0.000253363 0)
(-0.00885812 -0.00026749 0)
(-0.00874059 -0.000281536 0)
(-0.00861718 -0.000295481 0)
(-0.00848792 -0.000309307 0)
(-0.00835288 -0.000322995 0)
(-0.00821213 -0.000336523 0)
(-0.00806573 -0.000349868 0)
(-0.00791378 -0.000363008 0)
(-0.00775637 -0.000375916 0)
(-0.0075936 -0.000388568 0)
(-0.00742559 -0.000400935 0)
(-0.00725247 -0.000412988 0)
(-0.00707439 -0.000424695 0)
(-0.0068915 -0.000436022 0)
(-0.00670396 -0.000446935 0)
(-0.00651197 -0.000457396 0)
(-0.00631573 -0.000467363 0)
(-0.00611545 -0.000476795 0)
(-0.00591138 -0.000485647 0)
(-0.00570377 -0.00049387 0)
(-0.0054929 -0.000501412 0)
(-0.00527907 -0.000508221 0)
(-0.0050626 -0.000514236 0)
(-0.00484384 -0.0005194 0)
(-0.00462316 -0.000523646 0)
(-0.00440096 -0.000526907 0)
(-0.00417767 -0.000529115 0)
(-0.00395375 -0.000530195 0)
(-0.00372969 -0.00053007 0)
(-0.00350599 -0.000528663 0)
(-0.00328321 -0.00052589 0)
(-0.00306194 -0.00052167 0)
(-0.00284278 -0.000515917 0)
(-0.00262638 -0.000508546 0)
(-0.00241343 -0.000499471 0)
(-0.00220463 -0.000488608 0)
(-0.00200072 -0.000475875 0)
(-0.00180247 -0.000461193 0)
(-0.00161068 -0.000444491 0)
(-0.00142616 -0.000425705 0)
(-0.00124973 -0.000404785 0)
(-0.00108224 -0.000381697 0)
(-0.000924513 -0.000356429 0)
(-0.000777373 -0.000328999 0)
(-0.000641612 -0.000299471 0)
(-0.00051797 -0.000267961 0)
(-0.000407115 -0.000234667 0)
(-0.000309605 -0.000199889 0)
(-0.000225849 -0.000164077 0)
(-0.000156058 -0.000127879 0)
(-0.000100182 -9.22211e-05 0)
(-5.78375e-05 -5.84046e-05 0)
(-2.82222e-05 -2.8247e-05 0)
(-1.00094e-05 -4.23166e-06 0)
(-1.27829e-06 1.029e-05 0)
(4.97342e-07 1.05233e-05 0)
(-1.86847e-07 -8.35681e-06 0)
(-4.65054e-06 -3.14934e-06 0)
(-1.80243e-05 1.68634e-05 0)
(-4.17621e-05 4.70075e-05 0)
(-7.71591e-05 8.38422e-05 0)
(-0.000125208 0.000124681 0)
(-0.000186477 0.000167491 0)
(-0.00026119 0.000210777 0)
(-0.000349298 0.000253454 0)
(-0.000450523 0.000294745 0)
(-0.00056441 0.000334109 0)
(-0.000690375 0.000371183 0)
(-0.000827738 0.000405741 0)
(-0.000975754 0.000437657 0)
(-0.00113364 0.00046688 0)
(-0.00130058 0.000493417 0)
(-0.00147578 0.000517317 0)
(-0.00165843 0.000538661 0)
(-0.00184775 0.000557553 0)
(-0.00204298 0.000574112 0)
(-0.00224341 0.000588467 0)
(-0.00244834 0.000600753 0)
(-0.00265712 0.000611107 0)
(-0.00286914 0.000619664 0)
(-0.00308383 0.000626558 0)
(-0.00330065 0.000631921 0)
(-0.00351911 0.000635875 0)
(-0.00373876 0.000638541 0)
(-0.00395918 0.000640029 0)
(-0.00417997 0.000640444 0)
(-0.00440079 0.000639881 0)
(-0.00462131 0.000638431 0)
(-0.00484123 0.000636174 0)
(-0.00506028 0.000633182 0)
(-0.00527822 0.000629524 0)
(-0.00549482 0.000625258 0)
(-0.00570986 0.000620437 0)
(-0.00592316 0.000615109 0)
(-0.00613454 0.000609314 0)
(-0.00634384 0.000603087 0)
(-0.00655091 0.000596459 0)
(-0.0067556 0.000589455 0)
(-0.00695779 0.000582099 0)
(-0.00715734 0.000574408 0)
(-0.00735414 0.000566399 0)
(-0.00754808 0.000558083 0)
(-0.00773905 0.00054947 0)
(-0.00792693 0.000540568 0)
(-0.00811163 0.000531382 0)
(-0.00829305 0.000521918 0)
(-0.00847109 0.000512177 0)
(-0.00864564 0.000502162 0)
(-0.00881662 0.000491873 0)
(-0.00898393 0.000481312 0)
(-0.00914748 0.000470476 0)
(-0.00930716 0.000459365 0)
(-0.00946288 0.000447977 0)
(-0.00961455 0.000436312 0)
(-0.00976206 0.000424368 0)
(-0.00990534 0.000412143 0)
(-0.0100443 0.000399636 0)
(-0.0101788 0.000386844 0)
(-0.0103087 0.000373767 0)
(-0.0104341 0.000360403 0)
(-0.0105547 0.000346751 0)
(-0.0106705 0.000332812 0)
(-0.0107813 0.000318583 0)
(-0.0108872 0.000304066 0)
(-0.0109879 0.00028926 0)
(-0.0110834 0.000274166 0)
(-0.0111737 0.000258785 0)
(-0.0112585 0.000243118 0)
(-0.0113378 0.000227168 0)
(-0.0114115 0.000210935 0)
(-0.0114796 0.000194424 0)
(-0.0115419 0.000177638 0)
(-0.0115983 0.00016058 0)
(-0.0116488 0.000143254 0)
(-0.0116933 0.000125666 0)
(-0.0117316 0.000107821 0)
(-0.0117637 8.97244e-05 0)
(-0.0117896 7.13837e-05 0)
(-0.0118091 5.28056e-05 0)
(-0.0118222 3.3998e-05 0)
(-0.0118287 1.49693e-05 0)
(-0.0118287 -4.2715e-06 0)
(-0.011822 -2.37146e-05 0)
(-0.0118086 -4.33495e-05 0)
(-0.0117885 -6.31655e-05 0)
(-0.0117615 -8.31509e-05 0)
(-0.0117277 -0.000103293 0)
(-0.011687 -0.00012358 0)
(-0.0116393 -0.000143996 0)
(-0.0115846 -0.000164528 0)
(-0.0115228 -0.00018516 0)
(-0.0114541 -0.000205876 0)
(-0.0113782 -0.00022666 0)
(-0.0112952 -0.000247493 0)
(-0.0112052 -0.000268359 0)
(-0.011108 -0.000289236 0)
(-0.0110038 -0.000310106 0)
(-0.0108924 -0.000330946 0)
(-0.010774 -0.000351735 0)
(-0.0106485 -0.000372451 0)
(-0.010516 -0.000393068 0)
(-0.0103766 -0.000413562 0)
(-0.0102302 -0.000433905 0)
(-0.010077 -0.000454071 0)
(-0.00991695 -0.000474029 0)
(-0.00975021 -0.000493749 0)
(-0.00957686 -0.000513199 0)
(-0.00939698 -0.000532343 0)
(-0.0092107 -0.000551147 0)
(-0.00901814 -0.00056957 0)
(-0.00881944 -0.000587574 0)
(-0.00861476 -0.000605114 0)
(-0.00840427 -0.000622144 0)
(-0.00818814 -0.000638616 0)
(-0.00796659 -0.000654479 0)
(-0.00773983 -0.000669677 0)
(-0.0075081 -0.000684151 0)
(-0.00727167 -0.00069784 0)
(-0.00703081 -0.000710678 0)
(-0.00678582 -0.000722593 0)
(-0.00653704 -0.000733513 0)
(-0.00628482 -0.000743358 0)
(-0.00602954 -0.000752045 0)
(-0.0057716 -0.000759487 0)
(-0.00551145 -0.00076559 0)
(-0.00524955 -0.000770259 0)
(-0.0049864 -0.000773391 0)
(-0.00472253 -0.000774882 0)
(-0.00445853 -0.000774623 0)
(-0.00419498 -0.000772501 0)
(-0.00393252 -0.000768401 0)
(-0.00367184 -0.000762204 0)
(-0.00341364 -0.00075379 0)
(-0.00315867 -0.000743041 0)
(-0.00290772 -0.000729837 0)
(-0.0026616 -0.000714061 0)
(-0.00242115 -0.000695603 0)
(-0.00218726 -0.000674357 0)
(-0.00196083 -0.000650228 0)
(-0.00174279 -0.000623137 0)
(-0.00153405 -0.000593021 0)
(-0.00133557 -0.000559847 0)
(-0.00114827 -0.000523613 0)
(-0.000973073 -0.000484366 0)
(-0.000810838 -0.000442212 0)
(-0.000662381 -0.000397339 0)
(-0.000528426 -0.00035004 0)
(-0.000409581 -0.000300755 0)
(-0.000306293 -0.00025011 0)
(-0.000218807 -0.000198988 0)
(-0.000147111 -0.000148611 0)
(-9.08815e-05 -0.000100646 0)
(-4.94073e-05 -5.73519e-05 0)
(-2.15028e-05 -2.17336e-05 0)
(-5.66148e-06 2.25841e-06 0)
(-2.80126e-07 9.09661e-06 0)
(-8.71959e-07 -5.20361e-06 0)
(-8.65824e-06 8.65728e-06 0)
(-2.86782e-05 3.92601e-05 0)
(-6.1472e-05 8.1464e-05 0)
(-0.000107881 0.000131409 0)
(-0.000168696 0.000186036 0)
(-0.000244335 0.000242974 0)
(-0.000334908 0.000300437 0)
(-0.000440285 0.000357096 0)
(-0.000560128 0.000411981 0)
(-0.000693931 0.000464398 0)
(-0.000841058 0.000513867 0)
(-0.00100078 0.000560077 0)
(-0.00117228 0.000602847 0)
(-0.00135473 0.000642095 0)
(-0.00154725 0.000677813 0)
(-0.00174896 0.000710052 0)
(-0.001959 0.000738905 0)
(-0.0021765 0.000764498 0)
(-0.00240064 0.000786976 0)
(-0.00263062 0.000806504 0)
(-0.00286567 0.000823253 0)
(-0.00310508 0.0008374 0)
(-0.00334815 0.000849122 0)
(-0.00359426 0.000858594 0)
(-0.0038428 0.000865986 0)
(-0.00409322 0.000871464 0)
(-0.00434499 0.000875184 0)
(-0.00459766 0.000877293 0)
(-0.00485076 0.000877932 0)
(-0.00510391 0.000877228 0)
(-0.00535672 0.000875303 0)
(-0.00560886 0.000872264 0)
(-0.00586002 0.000868212 0)
(-0.00610991 0.000863236 0)
(-0.00635826 0.000857416 0)
(-0.00660484 0.000850826 0)
(-0.00684941 0.000843528 0)
(-0.00709179 0.000835579 0)
(-0.00733177 0.000827028 0)
(-0.00756918 0.000817917 0)
(-0.00780386 0.000808282 0)
(-0.00803565 0.000798154 0)
(-0.00826439 0.000787559 0)
(-0.00848996 0.000776518 0)
(-0.00871223 0.00076505 0)
(-0.00893105 0.000753168 0)
(-0.00914631 0.000740884 0)
(-0.0093579 0.000728207 0)
(-0.00956569 0.000715143 0)
(-0.00976956 0.000701696 0)
(-0.00996941 0.00068787 0)
(-0.0101651 0.000673667 0)
(-0.0103566 0.000659087 0)
(-0.0105437 0.00064413 0)
(-0.0107263 0.000628795 0)
(-0.0109044 0.000613082 0)
(-0.0110778 0.000596988 0)
(-0.0112464 0.000580512 0)
(-0.01141 0.000563653 0)
(-0.0115687 0.000546408 0)
(-0.0117222 0.000528776 0)
(-0.0118706 0.000510755 0)
(-0.0120135 0.000492343 0)
(-0.012151 0.000473541 0)
(-0.012283 0.000454347 0)
(-0.0124093 0.000434761 0)
(-0.0125298 0.000414783 0)
(-0.0126444 0.000394414 0)
(-0.012753 0.000373655 0)
(-0.0128555 0.000352507 0)
(-0.0129518 0.000330973 0)
(-0.0130418 0.000309055 0)