/*--------------------------------*- C++ -*----------------------------------*\
  =========                 |
  \\      /  F ield         | OpenFOAM: The Open Source CFD Toolbox
   \\    /   O peration     | Website:  https://openfoam.org
    \\  /    A nd           | Version:  7
     \\/     M anipulation  |
\*---------------------------------------------------------------------------*/
FoamFile
{
    version     2.0;
    format      ascii;
    class       volScalarField;
    location    "0.3";
    object      p;
}
// * * * * * * * * * * * * * * * * * * * * * * * * * * * * * * * * * * * * * //

dimensions      [0 2 -2 0 0 0 0];

internalField   nonuniform List<scalar> 
25600
(
2.55997e-08
1.93956e-05
2.03078e-05
-6.74898e-06
-6.18762e-05
-0.000143256
-0.000248256
-0.000373812
-0.000516792
-0.000674166
-0.000843125
-0.00102108
-0.00120564
-0.00139466
-0.00158618
-0.00177841
-0.00196974
-0.00215871
-0.00234403
-0.00252452
-0.00269911
-0.00286685
-0.00302688
-0.00317846
-0.0033209
-0.00345361
-0.00357605
-0.00368774
-0.00378829
-0.00387734
-0.00395457
-0.00401973
-0.00407258
-0.00411294
-0.00414065
-0.00415561
-0.00415772
-0.0041469
-0.00412312
-0.00408636
-0.0040366
-0.00397386
-0.00389821
-0.00380968
-0.00370835
-0.00359431
-0.00346766
-0.00332851
-0.00317697
-0.00301318
-0.0028373
-0.0026495
-0.00244993
-0.00223878
-0.00201625
-0.00178255
-0.00153789
-0.00128251
-0.00101664
-0.000740542
-0.000454486
-0.000158746
0.000146388
0.000460603
0.00078358
0.00111499
0.00145447
0.00180169
0.00215624
0.00251775
0.00288582
0.00326001
0.00363992
0.00402507
0.00441501
0.00480927
0.00520734
0.00560873
0.00601292
0.00641937
0.00682755
0.0072369
0.00764684
0.0080568
0.00846619
0.00887441
0.00928088
0.00968496
0.010086
0.0104835
0.0108767
0.011265
0.0116478
0.0120245
0.0123944
0.0127569
0.0131114
0.0134573
0.013794
0.0141208
0.0144373
0.0147429
0.015037
0.015319
0.0155885
0.015845
0.0160881
0.0163172
0.016532
0.0167321
0.0169171
0.0170868
0.0172408
0.017379
0.017501
0.0176067
0.0176961
0.017769
0.0178253
0.0178652
0.0178885
0.0178956
0.0178864
0.0178612
0.0178202
0.0177639
0.0176924
0.0176063
0.0175059
0.0173919
0.0172649
0.0171253
0.0169741
0.0168118
0.0166395
0.0164579
0.016268
0.0160708
0.0158675
0.0156591
0.015447
0.0152324
0.0150168
0.0148016
0.0145884
0.0143789
0.0141749
0.0139783
0.0137909
0.013615
0.0134528
0.0133064
0.0131784
0.0130711
0.0129866
0.0129269
0.0128929
0.0128841
0.0128969
0.0129204
-1.97567e-05
-1.41337e-06
-4.82016e-06
-3.30499e-05
-8.44974e-05
-0.000158111
-0.000252268
-0.000364747
-0.000493058
-0.000634761
-0.000787426
-0.000948803
-0.00111673
-0.00128925
-0.00146456
-0.00164099
-0.00181699
-0.00199121
-0.00216236
-0.00232932
-0.00249105
-0.00264662
-0.00279519
-0.002936
-0.00306838
-0.00319173
-0.00330552
-0.00340926
-0.00350253
-0.00358497
-0.00365625
-0.00371612
-0.00376431
-0.00380064
-0.00382493
-0.00383705
-0.00383689
-0.00382438
-0.00379946
-0.0037621
-0.00371228
-0.00365002
-0.00357533
-0.00348826
-0.00338887
-0.00327724
-0.00315346
-0.00301762
-0.00286985
-0.00271027
-0.00253902
-0.00235626
-0.00216214
-0.00195685
-0.00174057
-0.0015135
-0.00127585
-0.00102785
-0.000769728
-0.000501732
-0.000224123
6.28287e-05
0.000358843
0.000663613
0.000976829
0.00129817
0.00162729
0.00196385
0.00230747
0.00265777
0.00301439
0.00337689
0.00374486
0.00411786
0.00449545
0.00487715
0.00526251
0.00565101
0.00604216
0.00643545
0.00683036
0.00722635
0.00762286
0.00801933
0.00841521
0.00880991
0.00920285
0.00959345
0.00998109
0.0103652
0.0107452
0.0111204
0.0114902
0.0118541
0.0122115
0.0125617
0.0129041
0.0132382
0.0135634
0.0138792
0.0141849
0.0144801
0.0147642
0.0150368
0.0152973
0.0155453
0.0157803
0.016002
0.0162099
0.0164037
0.0165831
0.0167477
0.0168974
0.0170318
0.0171508
0.0172542
0.017342
0.017414
0.0174703
0.0175108
0.0175356
0.0175448
0.0175386
0.0175172
0.0174808
0.0174298
0.0173644
0.0172852
0.0171925
0.0170869
0.016969
0.0168394
0.0166987
0.0165478
0.0163874
0.0162184
0.0160418
0.0158584
0.0156695
0.015476
0.0152792
0.0150803
0.0148807
0.0146818
0.0144851
0.0142921
0.0141045
0.013924
0.0137525
0.0135918
0.0134438
0.0133105
0.0131939
0.0130959
0.013018
0.0129616
0.0129269
0.0129134
0.0129204
0.0129439
-2.23601e-05
-4.54522e-07
-3.99375e-06
-3.19023e-05
-8.06305e-05
-0.000149106
-0.000236026
-0.000339531
-0.000457554
-0.000587967
-0.000728697
-0.000877709
-0.00103306
-0.00119297
-0.00135574
-0.00151983
-0.00168381
-0.00184633
-0.0020062
-0.00216232
-0.00231369
-0.00245941
-0.00259865
-0.00273068
-0.00285482
-0.00297047
-0.00307711
-0.00317427
-0.0032615
-0.00333844
-0.00340477
-0.0034602
-0.00350449
-0.00353742
-0.00355883
-0.00356857
-0.0035665
-0.00355256
-0.00352668
-0.0034888
-0.00343892
-0.00337703
-0.00330315
-0.00321731
-0.00311955
-0.00300996
-0.00288861
-0.00275559
-0.00261101
-0.002455
-0.00228768
-0.0021092
-0.00191971
-0.00171939
-0.00150842
-0.00128699
-0.00105531
-0.000813577
-0.000562039
-0.000300927
-3.04936e-05
0.000248995
0.000537262
0.000834012
0.00113894
0.00145175
0.00177209
0.00209961
0.00243398
0.0027748
0.00312172
0.00347433
0.00383222
0.00419496
0.00456212
0.00493324
0.00530787
0.00568552
0.0060657
0.00644792
0.00683167
0.00721643
0.00760166
0.00798682
0.00837137
0.00875473
0.00913636
0.00951566
0.00989208
0.010265
0.0106339
0.0109982
0.0113573
0.0117105
0.0120574
0.0123973
0.0127297
0.013054
0.0133697
0.0136762
0.013973
0.0142596
0.0145355
0.0148002
0.0150532
0.0152941
0.0155225
0.015738
0.0159402
0.0161288
0.0163035
0.016464
0.01661
0.0167413
0.0168578
0.0169594
0.0170458
0.0171171
0.0171733
0.0172143
0.0172403
0.0172513
0.0172475
0.0172291
0.0171964
0.0171497
0.0170893
0.0170157
0.0169292
0.0168305
0.01672
0.0165984
0.0164663
0.0163245
0.0161738
0.016015
0.0158489
0.0156767
0.0154992
0.0153176
0.015133
0.0149466
0.0147596
0.0145735
0.0143896
0.0142095
0.0140345
0.0138664
0.0137068
0.0135574
0.01342
0.0132962
0.0131878
0.0130962
0.013023
0.0129692
0.012935
0.0129203
0.0129274
0.0129568
1.20163e-06
2.45834e-05
2.09883e-05
-6.68846e-06
-5.38738e-05
-0.000119269
-0.000201574
-0.000299083
-0.000409931
-0.000532237
-0.000664151
-0.000803824
-0.000949529
-0.00109958
-0.00125244
-0.00140666
-0.00156088
-0.00171386
-0.00186445
-0.00201158
-0.00215431
-0.00229177
-0.00242314
-0.00254772
-0.00266484
-0.00277392
-0.00287443
-0.00296592
-0.00304793
-0.00312011
-0.00318213
-0.0032337
-0.00327457
-0.00330453
-0.0033234
-0.00333103
-0.00332729
-0.00331209
-0.00328535
-0.00324703
-0.00319709
-0.00313553
-0.00306236
-0.00297761
-0.00288132
-0.00277354
-0.00265435
-0.00252384
-0.00238211
-0.00222929
-0.00206548
-0.00189082
-0.00170547
-0.0015096
-0.00130337
-0.00108698
-0.000860612
-0.000624492
-0.000378836
-0.000123871
0.000140157
0.000412984
0.000694339
0.000983939
0.00128149
0.00158668
0.00189919
0.00221868
0.00254481
0.00287722
0.00321553
0.00355935
0.0039083
0.00426194
0.00461986
0.00498162
0.00534675
0.0057148
0.00608529
0.00645775
0.00683167
0.00720653
0.00758183
0.00795703
0.00833162
0.00870503
0.00907671
0.00944612
0.0098127
0.0101759
0.0105351
0.0108898
0.0112394
0.0115834
0.0119211
0.0122521
0.0125757
0.0128915
0.0131989
0.0134973
0.0137864
0.0140655
0.0143342
0.0145921
0.0148386
0.0150734
0.0152961
0.0155062
0.0157035
0.0158876
0.0160582
0.016215
0.0163579
0.0164866
0.0166009
0.0167008
0.016786
0.0168567
0.0169127
0.0169542
0.0169811
0.0169936
0.0169918
0.016976
0.0169464
0.0169034
0.0168472
0.0167782
0.016697
0.016604
0.0164998
0.0163849
0.01626
0.0161259
0.0159832
0.0158329
0.0156757
0.0155127
0.0153448
0.0151729
0.0149983
0.0148221
0.0146454
0.0144697
0.0142961
0.0141261
0.0139612
0.0138027
0.0136523
0.0135115
0.0133819
0.0132651
0.0131625
0.0130755
0.0130055
0.0129535
0.0129201
0.0129055
0.0129138
0.012948
5.23129e-05
7.27511e-05
6.69151e-05
3.81315e-05
-8.88528e-06
-7.27123e-05
-0.000152043
-0.000245255
-0.000350673
-0.000466599
-0.000591356
-0.000723308
-0.000860854
-0.00100248
-0.00114674
-0.0012923
-0.00143789
-0.00158235
-0.00172459
-0.0018636
-0.00199847
-0.00212836
-0.0022525
-0.0023702
-0.00248081
-0.00258378
-0.00267857
-0.00276473
-0.00284184
-0.00290954
-0.00296749
-0.00301541
-0.00305305
-0.00308019
-0.00309665
-0.00310227
-0.00309694
-0.00308054
-0.003053
-0.00301425
-0.00296428
-0.00290305
-0.00283057
-0.00274688
-0.002652
-0.00254599
-0.00242891
-0.00230084
-0.00216188
-0.00201215
-0.00185174
-0.00168081
-0.00149948
-0.00130793
-0.00110631
-0.000894811
-0.00067362
-0.000442945
-0.000202999
4.5998e-05
0.000303804
0.000570167
0.000844819
0.00112749
0.00141788
0.00171571
0.00202063
0.00233235
0.00265051
0.00297478
0.00330477
0.00364011
0.00398042
0.0043253
0.00467431
0.00502705
0.00538304
0.00574186
0.00610305
0.00646612
0.00683058
0.00719596
0.00756174
0.00792741
0.00829245
0.00865633
0.00901851
0.00937846
0.00973565
0.0100895
0.0104395
0.0107851
0.0111257
0.0114608
0.0117899
0.0121123
0.0124276
0.0127353
0.0130348
0.0133257
0.0136073
0.0138794
0.0141413
0.0143927
0.014633
0.014862
0.0150793
0.0152844
0.015477
0.0156568
0.0158235
0.0159769
0.0161168
0.016243
0.0163552
0.0164535
0.0165376
0.0166077
0.0166636
0.0167053
0.0167331
0.0167469
0.016747
0.0167336
0.0167069
0.0166672
0.0166148
0.0165502
0.0164738
0.016386
0.0162875
0.0161788
0.0160605
0.0159334
0.0157981
0.0156555
0.0155065
0.0153518
0.0151924
0.0150294
0.0148638
0.0146967
0.0145292
0.0143626
0.0141981
0.014037
0.0138807
0.0137306
0.013588
0.0134544
0.0133312
0.0132199
0.0131218
0.0130383
0.0129705
0.0129196
0.0128863
0.0128712
0.0128793
0.0129144
0.00013012
0.000143603
0.000133083
0.000101508
5.30859e-05
-1.07342e-05
-8.86633e-05
-0.000179198
-0.000280812
-0.000391965
-0.000511158
-0.000636889
-0.000767717
-0.000902272
-0.00103922
-0.00117732
-0.0013154
-0.00145236
-0.00158719
-0.00171895
-0.00184676
-0.00196981
-0.00208738
-0.00219879
-0.00230345
-0.00240078
-0.00249029
-0.00257153
-0.00264409
-0.00270761
-0.00276176
-0.00280627
-0.00284088
-0.00286538
-0.00287958
-0.00288333
-0.0028765
-0.00285897
-0.00283068
-0.00279156
-0.00274156
-0.00268067
-0.00260888
-0.00252622
-0.00243272
-0.00232841
-0.00221338
-0.00208767
-0.0019514
-0.00180465
-0.00164754
-0.0014802
-0.00130277
-0.00111539
-0.000918229
-0.000711458
-0.000495265
-0.000269851
-3.54166e-05
0.000207823
0.000459625
0.000719747
0.000987936
0.00126392
0.00154743
0.00183815
0.00213579
0.00244002
0.00275053
0.00306697
0.00338897
0.00371618
0.00404821
0.00438468
0.00472517
0.00506926
0.00541652
0.00576652
0.00611881
0.00647292
0.00682838
0.00718471
0.00754142
0.00789801
0.00825397
0.0086088
0.00896195
0.00931293
0.00966121
0.0100062
0.0103475
0.0106844
0.0110165
0.0113433
0.0116641
0.0119785
0.012286
0.012586
0.0128781
0.0131618
0.0134365
0.0137019
0.0139574
0.0142027
0.0144373
0.0146608
0.0148729
0.0150733
0.0152615
0.0154373
0.0156004
0.0157506
0.0158877
0.0160114
0.0161217
0.0162184
0.0163015
0.0163709
0.0164266
0.0164687
0.0164972
0.0165122
0.016514
0.0165027
0.0164786
0.0164419
0.016393
0.0163324
0.0162603
0.0161774
0.0160841
0.0159809
0.0158686
0.0157478
0.0156192
0.0154836
0.0153417
0.0151945
0.0150428
0.0148877
0.0147301
0.014571
0.0144116
0.0142529
0.0140963
0.0139429
0.0137939
0.0136507
0.0135145
0.0133868
0.0132687
0.0131616
0.0130668
0.0129856
0.012919
0.0128682
0.012834
0.0128173
0.0128231
0.0128553
0.00023231
0.000235638
0.000218228
0.000182198
0.000130798
6.54515e-05
-1.261e-05
-0.000102017
-0.000201359
-0.000309277
-0.000424397
-0.000545372
-0.000670905
-0.000799722
-0.000930615
-0.00106245
-0.00119413
-0.00132464
-0.00145304
-0.00157843
-0.00169999
-0.00181697
-0.00192867
-0.00203444
-0.00213371
-0.00222594
-0.00231065
-0.00238739
-0.00245578
-0.00251546
-0.00256612
-0.00260748
-0.0026393
-0.00266135
-0.00267347
-0.00267549
-0.00266727
-0.00264872
-0.00261974
-0.00258028
-0.00253029
-0.00246975
-0.00239864
-0.00231699
-0.00222482
-0.00212217
-0.00200909
-0.00188567
-0.00175198
-0.0016081
-0.00145417
-0.00129028
-0.00111658
-0.000933214
-0.000740327
-0.000538097
-0.000326701
-0.000106328
0.000122821
0.00036054
0.000606592
0.000860741
0.00112275
0.00139234
0.00166926
0.0019532
0.00224387
0.00254097
0.00284418
0.00315315
0.00346754
0.003787
0.00411116
0.00443964
0.00477202
0.00510791
0.00544689
0.00578853
0.00613239
0.00647802
0.00682495
0.00717273
0.00752088
0.00786891
0.00821631
0.0085626
0.00890726
0.0092498
0.00958969
0.00992642
0.0102595
0.0105883
0.0109124
0.0112313
0.0115445
0.0118514
0.0121515
0.0124444
0.0127295
0.0130065
0.0132748
0.0135339
0.0137835
0.0140231
0.0142523
0.0144708
0.0146781
0.014874
0.0150581
0.0152302
0.0153899
0.0155371
0.0156716
0.0157931
0.0159015
0.0159968
0.0160788
0.0161476
0.0162031
0.0162454
0.0162745
0.0162906
0.0162939
0.0162844
0.0162626
0.0162287
0.0161829
0.0161258
0.0160576
0.015979
0.0158903
0.0157921
0.0156851
0.0155699
0.0154472
0.0153178
0.0151823
0.0150417
0.0148968
0.0147485
0.0145977
0.0144456
0.0142931
0.0141413
0.0139913
0.0138442
0.0137013
0.0135637
0.0134327
0.0133094
0.0131952
0.0130911
0.0129984
0.0129182
0.0128516
0.0127998
0.0127636
0.012744
0.0127456
0.0127717
0.000355965
0.000346701
0.000320547
0.000278537
0.000222729
0.000154436
7.48349e-05
-1.48198e-05
-0.000113299
-0.000219356
-0.000331756
-0.000449305
-0.000570805
-0.000695109
-0.000821127
-0.000947796
-0.00107412
-0.00119916
-0.00132203
-0.0014419
-0.00155801
-0.00166963
-0.00177612
-0.00187687
-0.00197131
-0.00205895
-0.00213931
-0.00221198
-0.00227658
-0.00233276
-0.00238022
-0.0024187
-0.00244795
-0.00246777
-0.00247797
-0.0024784
-0.00246893
-0.00244944
-0.00241987
-0.00238012
-0.00233017
-0.00226999
-0.00219956
-0.0021189
-0.00202803
-0.00192698
-0.00181581
-0.00169458
-0.00156337
-0.00142227
-0.00127138
-0.00111082
-0.000940707
-0.000761188
-0.000572406
-0.000374533
-0.000167738
4.78007e-05
0.000271886
0.000504313
0.000744858
0.000993293
0.00124939
0.00151287
0.00178348
0.00206095
0.00234497
0.00263527
0.00293152
0.00323338
0.00354053
0.00385263
0.00416931
0.00449019
0.00481488
0.00514299
0.00547411
0.00580784
0.00614373
0.00648133
0.00682022
0.00715993
0.0075
0.00783995
0.00817929
0.00851755
0.00885422
0.00918883
0.00952086
0.0098498
0.0101751
0.0104964
0.0108131
0.0111246
0.0114306
0.0117305
0.0120237
0.01231
0.0125886
0.0128593
0.0131216
0.0133749
0.013619
0.0138533
0.0140775
0.0142913
0.0144942
0.0146859
0.0148663
0.0150348
0.0151914
0.0153358
0.0154678
0.0155872
0.0156939
0.0157878
0.0158689
0.0159371
0.0159923
0.0160347
0.0160644
0.0160814
0.0160859
0.0160782
0.0160584
0.0160268
0.0159839
0.0159298
0.0158652
0.0157903
0.0157057
0.015612
0.0155097
0.0153994
0.0152819
0.0151578
0.015028
0.014893
0.014754
0.0146116
0.0144668
0.0143206
0.0141739
0.0140278
0.0138833
0.0137415
0.0136034
0.0134703
0.0133431
0.0132232
0.0131115
0.0130092
0.0129174
0.0128371
0.0127695
0.0127156
0.0126763
0.0126524
0.012648
0.0126655
0.000498094
0.000474485
0.000438084
0.000388786
0.000327286
0.000254782
0.000172401
8.12295e-05
-1.76344e-05
-0.000123064
-0.000233974
-0.000349274
-0.0004679
-0.000588814
-0.000711011
-0.000833528
-0.000955458
-0.00107593
-0.00119413
-0.00130928
-0.00142067
-0.00152763
-0.00162954
-0.00172584
-0.001816
-0.00189953
-0.001976
-0.002045
-0.00210617
-0.00215919
-0.00220376
-0.00223962
-0.00226654
-0.00228432
-0.00229278
-0.00229177
-0.00228116
-0.00226085
-0.00223074
-0.00219077
-0.00214091
-0.00208111
-0.00201136
-0.00193168
-0.00184207
-0.00174258
-0.00163326
-0.00151415
-0.00138534
-0.00124691
-0.00109896
-0.000941592
-0.000774932
-0.000599113
-0.000414277
-0.000220585
-1.81997e-05
0.000192704
0.000411934
0.000639292
0.000874567
0.00111754
0.00136797
0.00162562
0.00189022
0.0021615
0.00243919
0.002723
0.00301261
0.00330771
0.00360797
0.00391307
0.00422264
0.00453632
0.00485371
0.00517446
0.00549815
0.00582438
0.00615273
0.00648277
0.00681406
0.00714617
0.00747863
0.00781097
0.00814274
0.00847345
0.00880263
0.00912979
0.00945445
0.00977609
0.0100942
0.0104084
0.0107181
0.0110228
0.0113221
0.0116154
0.0119023
0.0121823
0.012455
0.0127198
0.0129765
0.0132245
0.0134633
0.0136928
0.0139124
0.0141217
0.0143205
0.0145085
0.0146853
0.0148506
0.0150043
0.0151461
0.0152758
0.0153932
0.0154983
0.0155909
0.015671
0.0157386
0.0157936
0.0158361
0.0158662
0.0158839
0.0158896
0.0158833
0.0158653
0.0158358
0.0157953
0.015744
0.0156824
0.0156108
0.0155299
0.01544
0.0153418
0.0152358
0.0151228
0.0150034
0.0148784
0.0147484
0.0146143
0.0144769
0.0143372
0.0141959
0.0140541
0.0139126
0.0137725
0.0136349
0.0135006
0.0133707
0.0132464
0.0131286
0.0130184
0.0129168
0.0128248
0.0127435
0.0126738
0.0126167
0.012573
0.0125438
0.0125318
0.0125388
0.000655855
0.000616627
0.00056885
0.000511173
0.00044288
0.000365069
0.000278787
0.000184991
8.46402e-05
-2.12926e-05
-0.000131804
-0.000245936
-0.00036274
-0.00048127
-0.000600632
-0.000719939
-0.000838364
-0.00095511
-0.00106943
-0.0011806
-0.00128798
-0.00139093
-0.00148888
-0.0015813
-0.00166768
-0.00174759
-0.00182059
-0.00188632
-0.00194443
-0.0019946
-0.00203656
-0.00207006
-0.00209488
-0.00211083
-0.00211773
-0.00211543
-0.00210381
-0.00208277
-0.00205222
-0.0020121
-0.00196236
-0.00190297
-0.00183391
-0.0017552
-0.00166684
-0.00156887
-0.00146133
-0.00134428
-0.00121779
-0.00108194
-0.000936814
-0.000782524
-0.000619181
-0.000446918
-0.00026587
-7.61883e-05
0.000121968
0.000328429
0.000543009
0.000765518
0.000995751
0.0012335
0.00147853
0.0017306
0.00198946
0.00225485
0.00252651
0.00280414
0.00308744
0.00337611
0.00366984
0.00396829
0.00427112
0.00457796
0.00488846
0.00520224
0.00551891
0.00583807
0.0061593
0.0064822
0.00680634
0.0071313
0.0074566
0.00778181
0.00810646
0.0084301
0.00875226
0.00907246
0.00939022
0.00970505
0.0100165
0.010324
0.0106272
0.0109256
0.0112186
0.0115058
0.0117868
0.012061
0.0123281
0.0125876
0.0128391
0.0130821
0.0133162
0.0135411
0.0137564
0.0139617
0.0141567
0.0143411
0.0145147
0.014677
0.014828
0.0149674
0.015095
0.0152106
0.0153142
0.0154056
0.0154848
0.0155517
0.0156064
0.0156489
0.0156793
0.0156978
0.0157043
0.0156993
0.0156828
0.0156552
0.0156168
0.0155679
0.0155089
0.0154402
0.0153623
0.0152758
0.0151811
0.0150789
0.0149698
0.0148544
0.0147334
0.0146076
0.0144777
0.0143445
0.0142089
0.0140717
0.0139337
0.013796
0.0136594
0.0135248
0.0133933
0.0132657
0.0131431
0.0130265
0.0129167
0.0128148
0.0127217
0.0126383
0.0125655
0.0125042
0.0124552
0.0124195
0.0123988
0.0123938
0.000826572
0.000770889
0.000710852
0.000643915
0.000567926
0.000483851
0.000392713
0.000295321
0.000192485
8.50756e-05
-2.60299e-05
-0.00013997
-0.000255901
-0.000372979
-0.000490396
-0.000607356
-0.000723099
-0.000836905
-0.000948087
-0.00105599
-0.00116001
-0.00125957
-0.00135412
-0.00144319
-0.0015263
-0.00160303
-0.001673
-0.00173584
-0.00179123
-0.00183888
-0.00187852
-0.00190992
-0.00193287
-0.00194718
-0.00195269
-0.00194926
-0.00193676
-0.0019151
-0.0018842
-0.00184399
-0.00179442
-0.00173547
-0.00166711
-0.00158937
-0.00150224
-0.00140575
-0.00129996
-0.0011849
-0.00106065
-0.000927286
-0.00078489
-0.000633559
-0.000473405
-0.000304557
-0.000127144
5.86922e-05
0.000252799
0.000455003
0.00066513
0.000883005
0.00110842
0.00134118
0.00158105
0.0018278
0.0020812
0.00234099
0.0026069
0.00287865
0.00315596
0.00343853
0.00372606
0.00401822
0.00431466
0.00461504
0.00491902
0.00522622
0.00553627
0.00584876
0.0061633
0.00647949
0.00679692
0.00711515
0.00743374
0.00775226
0.00807026
0.0083873
0.00870289
0.00901659
0.00932792
0.0096364
0.00994158
0.010243
0.0105401
0.0108326
0.0111198
0.0114014
0.0116769
0.0119458
0.0122078
0.0124623
0.0127089
0.0129473
0.0131771
0.0133978
0.0136092
0.0138108
0.0140023
0.0141835
0.014354
0.0145136
0.0146621
0.0147992
0.0149249
0.0150388
0.0151409
0.0152312
0.0153095
0.0153759
0.0154303
0.0154728
0.0155034
0.0155224
0.0155297
0.0155257
0.0155106
0.0154845
0.0154479
0.015401
0.0153443
0.0152781
0.0152029
0.0151192
0.0150275
0.0149284
0.0148225
0.0147105
0.0145929
0.0144705
0.0143441
0.0142143
0.014082
0.013948
0.0138131
0.0136781
0.013544
0.0134117
0.0132819
0.0131557
0.0130339
0.0129175
0.0128072
0.0127041
0.0126089
0.0125225
0.0124457
0.0123793
0.0123242
0.012281
0.0122506
0.0122326
0.00100779
0.000935099
0.000862188
0.000785314
0.000700858
0.000609737
0.000512913
0.000411058
0.000304884
0.000195125
8.25513e-05
-3.20698e-05
-0.000147986
-0.000264448
-0.000380739
-0.000496141
-0.000609965
-0.00072156
-0.000830297
-0.000935582
-0.00103686
-0.0011336
-0.00122531
-0.00131154
-0.00139185
-0.00146585
-0.00153317
-0.0015935
-0.00164651
-0.00169194
-0.00172954
-0.0017591
-0.0017804
-0.00179327
-0.00179757
-0.00179316
-0.00177991
-0.00175774
-0.00172657
-0.00168634
-0.001637
-0.00157852
-0.00151089
-0.00143411
-0.00134819
-0.00125317
-0.00114907
-0.00103595
-0.000913869
-0.000782904
-0.000643133
-0.000494651
-0.000337567
-0.000172
1.93104e-06
0.000184082
0.000374304
0.000572437
0.00077831
0.000991756
0.00121258
0.00144057
0.00167553
0.00191722
0.00216542
0.00241987
0.00268032
0.0029465
0.00321813
0.00349492
0.00377657
0.00406277
0.00435318
0.00464747
0.0049453
0.0052463
0.00555011
0.00585633
0.00616459
0.00647448
0.00678561
0.00709755
0.00740987
0.00772214
0.00803393
0.0083448
0.00865429
0.00896194
0.00926729
0.00956989
0.00986927
0.010165
0.0104566
0.0107435
0.0110254
0.0113018
0.0115722
0.0118363
0.0120935
0.0123434
0.0125857
0.0128199
0.0130456
0.0132625
0.0134702
0.0136684
0.0138568
0.014035
0.0142027
0.0143599
0.0145061
0.0146412
0.014765
0.0148774
0.0149782
0.0150674
0.0151449
0.0152107
0.0152648
0.0153072
0.015338
0.0153573
0.0153653
0.0153622
0.0153481
0.0153233
0.0152882
0.0152431
0.0151882
0.0151241
0.0150511
0.0149698
0.0148806
0.0147841
0.0146809
0.0145716
0.0144568
0.0143372
0.0142134
0.0140863
0.0139566
0.013825
0.0136923
0.0135593
0.0134269
0.0132958
0.013167
0.0130413
0.0129194
0.0128022
0.0126906
0.0125854
0.0124873
0.012397
0.0123155
0.0122433
0.0121811
0.0121299
0.012089
0.0120572
0.00119728
0.00110728
0.00102106
0.000933694
0.000840181
0.000741357
0.000638132
0.000531093
0.000420817
0.000307937
0.000193122
7.70459e-05
-3.96317e-05
-0.000156242
-0.000272142
-0.000386701
-0.000499301
-0.000609352
-0.000716287
-0.000819569
-0.000918685
-0.00101316
-0.00110254
-0.0011864
-0.00126436
-0.00133604
-0.00140111
-0.00145928
-0.00151024
-0.00155375
-0.00158959
-0.00161753
-0.0016374
-0.00164904
-0.0016523
-0.00164706
-0.00163319
-0.00161062
-0.00157928
-0.00153909
-0.00149003
-0.00143206
-0.00136517
-0.00128936
-0.00120465
-0.00111105
-0.00100861
-0.000897378
-0.000777403
-0.000648757
-0.000511521
-0.000365783
-0.000211648
-4.92287e-05
0.00012136
0.000299981
0.000486486
0.000680723
0.000882535
0.00109175
0.00130819
0.00153165
0.00176192
0.0019988
0.00224206
0.00249145
0.00274672
0.00300761
0.00327386
0.00354519
0.00382129
0.00410185
0.00438658
0.00467513
0.00496717
0.00526234
0.00556028
0.00586063
0.006163
0.006467
0.00677224
0.0070783
0.00738477
0.00769122
0.00799724
0.00830238
0.00860619
0.00890823
0.00920806
0.00950522
0.00979925
0.0100897
0.0103761
0.0106581
0.0109351
0.0112067
0.0114725
0.011732
0.0119849
0.0122306
0.0124689
0.0126992
0.0129213
0.0131347
0.0133391
0.0135342
0.0137197
0.0138952
0.0140605
0.0142153
0.0143594
0.0144927
0.0146149
0.0147258
0.0148255
0.0149137
0.0149904
0.0150556
0.0151094
0.0151516
0.0151826
0.0152022
0.0152107
0.0152082
0.015195
0.0151714
0.0151375
0.0150937
0.0150404
0.014978
0.0149069
0.0148274
0.0147403
0.0146459
0.0145448
0.0144376
0.0143249
0.0142075
0.0140858
0.0139607
0.0138328
0.0137028
0.0135716
0.0134398
0.0133082
0.0131777
0.013049
0.0129229
0.0128001
0.0126814
0.0125677
0.0124595
0.0123578
0.012263
0.0121759
0.0120972
0.0120275
0.0119675
0.0119156
0.0118695
0.00139301
0.00128555
0.00118574
0.0010875
0.000984444
0.000877368
0.000767168
0.000654315
0.000539275
0.000422608
0.000304869
0.00018665
6.85242e-05
-4.89188e-05
-0.000165106
-0.000279481
-0.000391492
-0.000500614
-0.000606337
-0.000708176
-0.000805669
-0.000898385
-0.000985911
-0.00106786
-0.00114389
-0.00121365
-0.00127685
-0.00133319
-0.00138242
-0.0014243
-0.00145862
-0.0014852
-0.00150386
-0.00151446
-0.00151685
-0.00151091
-0.00149656
-0.00147371
-0.00144227
-0.00140221
-0.00135348
-0.00129606
-0.00122993
-0.0011551
-0.00107159
-0.000979399
-0.000878582
-0.000769178
-0.000651245
-0.000524841
-0.000390048
-0.000246955
-9.56552e-05
6.37464e-05
0.000231133
0.00040637
0.000589318
0.000779837
0.000977774
0.00118296
0.00139522
0.00161436
0.00184019
0.0020725
0.00231106
0.00255564
0.00280601
0.0030619
0.00332307
0.00358923
0.00386009
0.00413536
0.00441473
0.00469788
0.00498448
0.00527419
0.00556664
0.00586149
0.00615836
0.00645686
0.0067566
0.0070572
0.00735823
0.00765928
0.00795995
0.00825978
0.00855835
0.00885522
0.00914995
0.00944209
0.0097312
0.0100168
0.0102985
0.0105759
0.0108484
0.0111156
0.0113772
0.0116326
0.0118816
0.0121235
0.0123581
0.012585
0.0128038
0.013014
0.0132155
0.0134078
0.0135906
0.0137637
0.0139268
0.0140795
0.0142218
0.0143533
0.014474
0.0145837
0.0146823
0.0147696
0.0148456
0.0149103
0.0149637
0.0150058
0.0150368
0.0150566
0.0150655
0.0150635
0.015051
0.0150282
0.0149953
0.0149527
0.0149006
0.0148395
0.0147698
0.0146919
0.0146063
0.0145135
0.014414
0.0143085
0.0141974
0.0140814
0.0139612
0.0138374
0.0137106
0.0135816
0.0134511
0.0133198
0.0131884
0.0130576
0.0129283
0.012801
0.0126766
0.0125557
0.0124391
0.0123274
0.0122212
0.0121213
0.0120281
0.0119422
0.0118644
0.0117952
0.0117319
0.0116712
0.00159314
0.00146819
0.00135462
0.00124524
0.00113227
0.0010165
0.000898851
0.000779645
0.000659287
0.000538236
0.000416973
0.000296001
0.000175817
5.69316e-05
-6.01501e-05
-0.000174935
-0.000286936
-0.00039569
-0.000500743
-0.000601662
-0.000698036
-0.00078947
-0.000875596
-0.000956068
-0.00103057
-0.00109878
-0.00116044
-0.00121528
-0.00126308
-0.00130361
-0.00133668
-0.00136212
-0.00137978
-0.00138951
-0.0013912
-0.00138473
-0.00137001
-0.00134697
-0.00131555
-0.00127568
-0.00122734
-0.00117051
-0.00110517
-0.00103133
-0.000948997
-0.000858201
-0.000758976
-0.000651356
-0.000535398
-0.000411167
-0.000278736
-0.000138186
1.03923e-05
0.000166897
0.000331211
0.000503209
0.000682763
0.000869734
0.00106397
0.00126532
0.0014736
0.00168864
0.00191025
0.00213822
0.00237233
0.00261237
0.0028581
0.00310927
0.00336564
0.00362693
0.00389286
0.00416315
0.00443749
0.00471559
0.00499709
0.00528168
0.00556901
0.00585873
0.00615047
0.00644385
0.0067385
0.00703402
0.00733002
0.00762608
0.0079218
0.00821674
0.00851048
0.0088026
0.00909265
0.00938021
0.00966482
0.00994605
0.0102235
0.0104966
0.010765
0.0110283
0.0112861
0.0115378
0.0117832
0.0120217
0.0122531
0.0124768
0.0126926
0.0129001
0.0130989
0.0132886
0.0134691
0.0136401
0.0138011
0.013952
0.0140926
0.0142227
0.0143421
0.0144506
0.0145482
0.0146347
0.01471
0.0147742
0.0148273
0.0148693
0.0149002
0.0149201
0.0149293
0.0149277
0.0149158
0.0148936
0.0148614
0.0148196
0.0147685
0.0147084
0.0146398
0.014563
0.0144785
0.0143868
0.0142885
0.0141841
0.014074
0.013959
0.0138396
0.0137165
0.0135903
0.0134616
0.0133312
0.0131996
0.0130677
0.012936
0.0128054
0.0126763
0.0125495
0.0124258
0.0123056
0.0121897
0.0120786
0.0119728
0.011873
0.0117795
0.011693
0.0116143
0.0115393
0.0114638
0.001796
0.00165361
0.00152622
0.00140549
0.00128234
0.00115754
0.00103203
0.000906039
0.000779887
0.00065395
0.000528634
0.000404369
0.000281583
0.000160708
4.21895e-05
-7.35443e-05
-0.000186067
-0.000294968
-0.00039985
-0.000500331
-0.000596044
-0.000686637
-0.000771784
-0.000851175
-0.000924521
-0.000991542
-0.00105199
-0.00110565
-0.00115229
-0.00119173
-0.00122379
-0.00124832
-0.00126517
-0.00127423
-0.00127537
-0.00126851
-0.00125356
-0.00123044
-0.00119911
-0.00115951
-0.00111162
-0.00105541
-0.000990888
-0.000918049
-0.000836905
-0.000747482
-0.000649814
-0.000543935
-0.0004299
-0.000307771
-0.000177619
-3.95161e-05
0.000106446
0.00026017
0.000421543
0.000590445
0.000766756
0.000950344
0.00114106
0.00133875
0.00154325
0.0017544
0.001972
0.00219586
0.00242577
0.00266151
0.00290287
0.0031496
0.00340145
0.00365816
0.00391946
0.00418507
0.00445472
0.00472807
0.00500482
0.00528465
0.0055672
0.00585215
0.00613913
0.00642777
0.0067177
0.00700853
0.00729989
0.00759136
0.00788253
0.00817299
0.00846231
0.00875009
0.00903588
0.00931926
0.00959978
0.00987702
0.0101505
0.0104199
0.0106847
0.0109444
0.0111987
0.0114471
0.0116893
0.0119248
0.0121533
0.0123742
0.0125874
0.0127923
0.0129888
0.0131764
0.0133548
0.0135239
0.0136831
0.0138325
0.0139716
0.0141004
0.0142186
0.0143261
0.0144228
0.0145086
0.0145833
0.0146471
0.0146998
0.0147416
0.0147725
0.0147925
0.0148018
0.0148005
0.0147889
0.0147672
0.0147355
0.0146943
0.0146439
0.0145845
0.0145166
0.0144405
0.0143568
0.0142658
0.0141682
0.0140643
0.0139549
0.0138403
0.0137212
0.0135982
0.0134719
0.013343
0.013212
0.0130796
0.0129465
0.0128133
0.0126806
0.0125491
0.0124194
0.0122921
0.0121678
0.0120471
0.0119305
0.0118185
0.0117115
0.01161
0.0115146
0.011426
0.0113391
0.0112487
0.00200007
0.00184036
0.00169911
0.00156694
0.00143341
0.00129932
0.00116562
0.00103249
0.000900129
0.000768872
0.000639053
0.000511025
0.000385155
0.000261808
0.000141365
2.41959e-05
-8.93258e-05
-0.000198844
-0.000304013
-0.000404496
-0.000499973
-0.000590134
-0.000674694
-0.000753374
-0.000825915
-0.000892078
-0.00095164
-0.0010044
-0.00105016
-0.00108876
-0.00112004
-0.00114387
-0.00116011
-0.00116866
-0.00116942
-0.00116231
-0.00114723
-0.00112415
-0.001093
-0.00105374
-0.00100635
-0.000950818
-0.000887134
-0.000815305
-0.000735349
-0.000647285
-0.000551144
-0.000446965
-0.000334799
-0.000214707
-8.67539e-05
4.89931e-05
0.000192444
0.000343497
0.000502053
0.000667999
0.000841219
0.00102158
0.00120894
0.00140316
0.00160408
0.00181154
0.00202535
0.00224532
0.00247126
0.00270295
0.00294019
0.00318273
0.00343034
0.00368275
0.00393972
0.00420097
0.00446622
0.00473516
0.00500748
0.00528287
0.00556101
0.00584154
0.00612412
0.00640838
0.00669396
0.0069805
0.00726759
0.00755485
0.00784187
0.00812824
0.00841355
0.00869738
0.00897932
0.00925892
0.00953576
0.0098094
0.0100794
0.0103454
0.0106069
0.0108635
0.0111147
0.0113603
0.0115996
0.0118324
0.0120583
0.0122769
0.0124877
0.0126905
0.0128849
0.0130706
0.0132473
0.0134147
0.0135724
0.0137204
0.0138583
0.0139859
0.0141032
0.0142098
0.0143057
0.0143909
0.0144651
0.0145285
0.0145809