/*--------------------------------*- C++ -*----------------------------------*\
  =========                 |
  \\      /  F ield         | OpenFOAM: The Open Source CFD Toolbox
   \\    /   O peration     | Website:  https://openfoam.org
    \\  /    A nd           | Version:  7
     \\/     M anipulation  |
\*---------------------------------------------------------------------------*/
FoamFile
{
    version     2.0;
    format      ascii;
    class       volVectorField;
    location    "0.2875";
    object      U;
}
// * * * * * * * * * * * * * * * * * * * * * * * * * * * * * * * * * * * * * //

dimensions      [0 1 -1 0 0 0 0];

internalField   nonuniform List<vector> 
25600
(
(1.01333e-06 -9.54901e-07 0)
(3.44445e-06 -1.49237e-06 0)
(5.84106e-06 -1.1659e-06 0)
(6.51827e-06 -4.28725e-07 0)
(4.81509e-06 4.28791e-07 0)
(5.47783e-07 1.2843e-06 0)
(-6.26114e-06 2.09779e-06 0)
(-1.5484e-05 2.84976e-06 0)
(-2.69435e-05 3.52692e-06 0)
(-4.04467e-05 4.12596e-06 0)
(-5.57996e-05 4.65378e-06 0)
(-7.28134e-05 5.1205e-06 0)
(-9.13081e-05 5.53247e-06 0)
(-0.000111115 5.89285e-06 0)
(-0.000132077 6.20501e-06 0)
(-0.000154049 6.47284e-06 0)
(-0.0001769 6.7011e-06 0)
(-0.000200508 6.89521e-06 0)
(-0.000224766 7.05905e-06 0)
(-0.000249574 7.19581e-06 0)
(-0.000274843 7.30863e-06 0)
(-0.000300494 7.3997e-06 0)
(-0.000326456 7.47107e-06 0)
(-0.000352664 7.52525e-06 0)
(-0.000379063 7.56446e-06 0)
(-0.000405601 7.59071e-06 0)
(-0.000432235 7.606e-06 0)
(-0.000458925 7.61175e-06 0)
(-0.000485638 7.60881e-06 0)
(-0.000512343 7.59814e-06 0)
(-0.000539013 7.58082e-06 0)
(-0.000565624 7.55772e-06 0)
(-0.000592156 7.52957e-06 0)
(-0.00061859 7.49718e-06 0)
(-0.00064491 7.46119e-06 0)
(-0.000671102 7.42187e-06 0)
(-0.000697152 7.37928e-06 0)
(-0.000723047 7.33349e-06 0)
(-0.000748777 7.28477e-06 0)
(-0.00077433 7.23354e-06 0)
(-0.000799696 7.17997e-06 0)
(-0.000824864 7.12392e-06 0)
(-0.000849826 7.06523e-06 0)
(-0.000874571 7.00382e-06 0)
(-0.000899089 6.93966e-06 0)
(-0.000923369 6.8728e-06 0)
(-0.000947401 6.80314e-06 0)
(-0.000971174 6.73046e-06 0)
(-0.000994677 6.65448e-06 0)
(-0.0010179 6.57504e-06 0)
(-0.00104082 6.49208e-06 0)
(-0.00106344 6.40558e-06 0)
(-0.00108574 6.31542e-06 0)
(-0.00110771 6.2213e-06 0)
(-0.00112932 6.1229e-06 0)
(-0.00115058 6.01999e-06 0)
(-0.00117145 5.91249e-06 0)
(-0.00119193 5.80037e-06 0)
(-0.001212 5.68356e-06 0)
(-0.00123164 5.56192e-06 0)
(-0.00125083 5.43522e-06 0)
(-0.00126957 5.30323e-06 0)
(-0.00128782 5.16573e-06 0)
(-0.00130557 5.02256e-06 0)
(-0.0013228 4.87368e-06 0)
(-0.0013395 4.71915e-06 0)
(-0.00135563 4.55895e-06 0)
(-0.00137119 4.39293e-06 0)
(-0.00138615 4.22086e-06 0)
(-0.00140049 4.04258e-06 0)
(-0.00141419 3.85804e-06 0)
(-0.00142723 3.66727e-06 0)
(-0.00143959 3.4703e-06 0)
(-0.00145124 3.26716e-06 0)
(-0.00146217 3.05786e-06 0)
(-0.00147236 2.84238e-06 0)
(-0.00148178 2.62063e-06 0)
(-0.00149041 2.39254e-06 0)
(-0.00149823 2.15822e-06 0)
(-0.00150523 1.91791e-06 0)
(-0.00151138 1.67184e-06 0)
(-0.00151666 1.42006e-06 0)
(-0.00152105 1.16256e-06 0)
(-0.00152454 8.99401e-07 0)
(-0.0015271 6.30825e-07 0)
(-0.00152872 3.57134e-07 0)
(-0.00152939 7.85726e-08 0)
(-0.00152907 -2.04672e-07 0)
(-0.00152777 -4.92376e-07 0)
(-0.00152547 -7.8424e-07 0)
(-0.00152214 -1.07994e-06 0)
(-0.00151779 -1.37916e-06 0)
(-0.0015124 -1.68154e-06 0)
(-0.00150595 -1.98671e-06 0)
(-0.00149845 -2.29426e-06 0)
(-0.00148988 -2.60381e-06 0)
(-0.00148024 -2.91499e-06 0)
(-0.00146952 -3.22733e-06 0)
(-0.00145772 -3.54024e-06 0)
(-0.00144484 -3.85319e-06 0)
(-0.00143089 -4.16572e-06 0)
(-0.00141585 -4.47743e-06 0)
(-0.00139974 -4.78783e-06 0)
(-0.00138257 -5.09631e-06 0)
(-0.00136433 -5.40221e-06 0)
(-0.00134504 -5.70491e-06 0)
(-0.00132472 -6.00384e-06 0)
(-0.00130337 -6.29845e-06 0)
(-0.00128101 -6.58818e-06 0)
(-0.00125766 -6.87241e-06 0)
(-0.00123334 -7.15049e-06 0)
(-0.00120806 -7.4217e-06 0)
(-0.00118187 -7.68531e-06 0)
(-0.00115477 -7.94064e-06 0)
(-0.00112681 -8.18706e-06 0)
(-0.00109801 -8.42397e-06 0)
(-0.00106841 -8.65066e-06 0)
(-0.00103804 -8.86636e-06 0)
(-0.00100694 -9.07029e-06 0)
(-0.000975154 -9.26166e-06 0)
(-0.000942726 -9.43971e-06 0)
(-0.000909701 -9.6037e-06 0)
(-0.000876129 -9.75288e-06 0)
(-0.000842063 -9.88647e-06 0)
(-0.000807557 -1.00036e-05 0)
(-0.000772671 -1.01033e-05 0)
(-0.000737466 -1.01847e-05 0)
(-0.000702005 -1.02467e-05 0)
(-0.000666358 -1.02886e-05 0)
(-0.000630594 -1.03095e-05 0)
(-0.00059479 -1.03081e-05 0)
(-0.000559022 -1.02834e-05 0)
(-0.000523373 -1.02343e-05 0)
(-0.00048793 -1.01598e-05 0)
(-0.000452781 -1.00586e-05 0)
(-0.000418021 -9.92949e-06 0)
(-0.000383749 -9.7712e-06 0)
(-0.000350066 -9.58236e-06 0)
(-0.00031708 -9.36157e-06 0)
(-0.000284903 -9.10734e-06 0)
(-0.000253651 -8.81801e-06 0)
(-0.000223445 -8.49197e-06 0)
(-0.000194412 -8.12766e-06 0)
(-0.000166683 -7.72344e-06 0)
(-0.000140394 -7.27728e-06 0)
(-0.000115686 -6.78695e-06 0)
(-9.27035e-05 -6.25037e-06 0)
(-7.15966e-05 -5.66574e-06 0)
(-5.25165e-05 -5.03141e-06 0)
(-3.56158e-05 -4.34583e-06 0)
(-2.10451e-05 -3.608e-06 0)
(-8.94825e-06 -2.81844e-06 0)
(5.45935e-07 -1.98053e-06 0)
(7.33607e-06 -1.10257e-06 0)
(1.13716e-05 -2.02654e-07 0)
(1.26939e-05 6.78958e-07 0)
(1.14909e-05 1.45848e-06 0)
(8.22403e-06 1.97968e-06 0)
(4.00139e-06 1.93768e-06 0)
(9.23877e-07 9.24798e-07 0)
(1.57212e-06 -3.46669e-06 0)
(4.6199e-06 -4.52956e-06 0)
(5.93277e-06 -2.26381e-06 0)
(2.90899e-06 1.7211e-06 0)
(-5.80237e-06 6.42085e-06 0)
(-2.07375e-05 1.12871e-05 0)
(-4.19901e-05 1.6042e-05 0)
(-6.93939e-05 2.05424e-05 0)
(-0.000102625 2.47123e-05 0)
(-0.00014128 2.8518e-05 0)
(-0.000184918 3.19565e-05 0)
(-0.000233092 3.50419e-05 0)
(-0.000285355 3.77931e-05 0)
(-0.000341278 4.02297e-05 0)
(-0.000400455 4.23734e-05 0)
(-0.000462506 4.42468e-05 0)
(-0.000527076 4.5872e-05 0)
(-0.000593839 4.72711e-05 0)
(-0.000662496 4.8466e-05 0)
(-0.000732774 4.94767e-05 0)
(-0.000804424 5.03214e-05 0)
(-0.000877221 5.10164e-05 0)
(-0.000950962 5.15773e-05 0)
(-0.00102547 5.20188e-05 0)
(-0.00110057 5.23541e-05 0)
(-0.00117612 5.25952e-05 0)
(-0.001252 5.27534e-05 0)
(-0.00132808 5.28382e-05 0)
(-0.00140427 5.28581e-05 0)
(-0.00148047 5.28208e-05 0)
(-0.00155661 5.27332e-05 0)
(-0.0016326 5.2601e-05 0)
(-0.00170839 5.24293e-05 0)
(-0.00178393 5.22224e-05 0)
(-0.00185915 5.19842e-05 0)
(-0.00193401 5.17179e-05 0)
(-0.00200847 5.14256e-05 0)
(-0.0020825 5.11092e-05 0)
(-0.00215605 5.07701e-05 0)
(-0.0022291 5.04097e-05 0)
(-0.00230161 5.00288e-05 0)
(-0.00237354 4.96276e-05 0)
(-0.00244487 4.92063e-05 0)
(-0.00251557 4.87647e-05 0)
(-0.00258561 4.83028e-05 0)
(-0.00265495 4.782e-05 0)
(-0.00272356 4.73159e-05 0)
(-0.00279142 4.67894e-05 0)
(-0.00285848 4.62399e-05 0)
(-0.00292472 4.56664e-05 0)
(-0.0029901 4.50681e-05 0)
(-0.00305458 4.44441e-05 0)
(-0.00311812 4.37934e-05 0)
(-0.00318069 4.3115e-05 0)
(-0.00324224 4.24077e-05 0)
(-0.00330273 4.16704e-05 0)
(-0.00336212 4.09021e-05 0)
(-0.00342036 4.01019e-05 0)
(-0.00347741 3.92691e-05 0)
(-0.00353322 3.84026e-05 0)
(-0.00358774 3.75015e-05 0)
(-0.00364092 3.65648e-05 0)
(-0.0036927 3.55916e-05 0)
(-0.00374305 3.4581e-05 0)
(-0.0037919 3.35324e-05 0)
(-0.00383919 3.24453e-05 0)
(-0.00388488 3.1319e-05 0)
(-0.00392891 3.01532e-05 0)
(-0.00397123 2.89471e-05 0)
(-0.00401176 2.77003e-05 0)
(-0.00405047 2.64124e-05 0)
(-0.00408728 2.50831e-05 0)
(-0.00412214 2.37124e-05 0)
(-0.004155 2.23002e-05 0)
(-0.00418579 2.08465e-05 0)
(-0.00421445 1.93515e-05 0)
(-0.00424093 1.78154e-05 0)
(-0.00426518 1.62383e-05 0)
(-0.00428712 1.46207e-05 0)
(-0.00430671 1.29633e-05 0)
(-0.0043239 1.12669e-05 0)
(-0.00433862 9.53226e-06 0)
(-0.00435082 7.76022e-06 0)
(-0.00436046 5.95176e-06 0)
(-0.00436748 4.1081e-06 0)
(-0.00437183 2.2307e-06 0)
(-0.00437348 3.21091e-07 0)
(-0.00437236 -1.61917e-06 0)
(-0.00436845 -3.58841e-06 0)
(-0.00436171 -5.58473e-06 0)
(-0.00435209 -7.60606e-06 0)
(-0.00433956 -9.6502e-06 0)
(-0.0043241 -1.17148e-05 0)
(-0.00430568 -1.37975e-05 0)
(-0.00428427 -1.58956e-05 0)
(-0.00425985 -1.80065e-05 0)
(-0.00423242 -2.01273e-05 0)
(-0.00420195 -2.2255e-05 0)
(-0.00416845 -2.43865e-05 0)
(-0.0041319 -2.65184e-05 0)
(-0.00409232 -2.86474e-05 0)
(-0.0040497 -3.07702e-05 0)
(-0.00400405 -3.28834e-05 0)
(-0.00395541 -3.49832e-05 0)
(-0.00390378 -3.70658e-05 0)
(-0.00384919 -3.91273e-05 0)
(-0.00379169 -4.11637e-05 0)
(-0.00373129 -4.31712e-05 0)
(-0.00366806 -4.51455e-05 0)
(-0.00360204 -4.70827e-05 0)
(-0.00353328 -4.89783e-05 0)
(-0.00346184 -5.0828e-05 0)
(-0.00338781 -5.26271e-05 0)
(-0.00331124 -5.43712e-05 0)
(-0.00323222 -5.60556e-05 0)
(-0.00315084 -5.76757e-05 0)
(-0.0030672 -5.92268e-05 0)
(-0.00298139 -6.07039e-05 0)
(-0.00289352 -6.21018e-05 0)
(-0.00280371 -6.34155e-05 0)
(-0.00271208 -6.46397e-05 0)
(-0.00261877 -6.5769e-05 0)
(-0.0025239 -6.6798e-05 0)
(-0.00242764 -6.7721e-05 0)
(-0.00233013 -6.85321e-05 0)
(-0.00223153 -6.92253e-05 0)
(-0.00213202 -6.97941e-05 0)
(-0.00203178 -7.02322e-05 0)
(-0.00193101 -7.05331e-05 0)
(-0.00182989 -7.06899e-05 0)
(-0.00172865 -7.06958e-05 0)
(-0.00162749 -7.05432e-05 0)
(-0.00152666 -7.02248e-05 0)
(-0.00142639 -6.97328e-05 0)
(-0.00132694 -6.90594e-05 0)
(-0.00122857 -6.81963e-05 0)
(-0.00113156 -6.7135e-05 0)
(-0.00103619 -6.58668e-05 0)
(-0.000942759 -6.43828e-05 0)
(-0.000851588 -6.26738e-05 0)
(-0.000762996 -6.07305e-05 0)
(-0.000677321 -5.85434e-05 0)
(-0.000594909 -5.61031e-05 0)
(-0.000516121 -5.34005e-05 0)
(-0.000441326 -5.04267e-05 0)
(-0.000370905 -4.7173e-05 0)
(-0.000305243 -4.36323e-05 0)
(-0.000244731 -3.97995e-05 0)
(-0.000189757 -3.5673e-05 0)
(-0.0001407 -3.12565e-05 0)
(-9.79214e-05 -2.65614e-05 0)
(-6.17436e-05 -2.16128e-05 0)
(-3.24285e-05 -1.64577e-05 0)
(-1.01389e-05 -1.11778e-05 0)
(5.11832e-06 -5.91296e-06 0)
(1.35773e-05 -9.00587e-07 0)
(1.58275e-05 3.45822e-06 0)
(1.29818e-05 6.50514e-06 0)
(7.16129e-06 7.17382e-06 0)
(1.92977e-06 3.99748e-06 0)
(1.19095e-06 -5.8732e-06 0)
(2.29723e-06 -5.88826e-06 0)
(-7.78419e-07 8.07065e-07 0)
(-1.06895e-05 1.11512e-05 0)
(-2.89552e-05 2.3255e-05 0)
(-5.62744e-05 3.59485e-05 0)
(-9.28424e-05 4.85283e-05 0)
(-0.000138509 6.05884e-05 0)
(-0.00019289 7.19023e-05 0)
(-0.000255466 8.23535e-05 0)
(-0.000325644 9.18973e-05 0)
(-0.000402798 0.000100535 0)
(-0.000486295 0.000108292 0)
(-0.000575511 0.000115209 0)
(-0.000669847 0.000121336 0)
(-0.000768734 0.000126725 0)
(-0.000871636 0.000131432 0)
(-0.000978055 0.000135511 0)
(-0.00108753 0.000139017 0)
(-0.00119963 0.000142 0)
(-0.00131398 0.00014451 0)
(-0.00143022 0.000146593 0)
(-0.00154802 0.00014829 0)
(-0.00166709 0.000149642 0)
(-0.00178719 0.000150685 0)
(-0.00190805 0.000151453 0)
(-0.00202949 0.000151976 0)
(-0.00215131 0.000152281 0)
(-0.00227333 0.000152393 0)
(-0.00239542 0.000152334 0)
(-0.00251743 0.000152123 0)
(-0.00263924 0.000151777 0)
(-0.00276076 0.000151311 0)
(-0.00288187 0.000150738 0)
(-0.00300251 0.000150068 0)
(-0.00312258 0.000149311 0)
(-0.00324202 0.000148473 0)
(-0.00336076 0.000147562 0)
(-0.00347874 0.000146581 0)
(-0.0035959 0.000145534 0)
(-0.00371218 0.000144423 0)
(-0.00382754 0.000143251 0)
(-0.00394192 0.000142018 0)
(-0.00405527 0.000140723 0)
(-0.00416753 0.000139368 0)
(-0.00427867 0.00013795 0)
(-0.00438862 0.000136468 0)
(-0.00449732 0.000134921 0)
(-0.00460474 0.000133306 0)
(-0.00471081 0.000131621 0)
(-0.00481547 0.000129864 0)
(-0.00491866 0.000128032 0)
(-0.00502033 0.000126123 0)
(-0.0051204 0.000124134 0)
(-0.00521882 0.000122061 0)
(-0.00531551 0.000119903 0)
(-0.00541041 0.000117656 0)
(-0.00550345 0.000115319 0)
(-0.00559455 0.000112887 0)
(-0.00568363 0.000110359 0)
(-0.00577063 0.000107732 0)
(-0.00585545 0.000105004 0)
(-0.00593802 0.000102172 0)
(-0.00601826 9.92349e-05 0)
(-0.00609609 9.61898e-05 0)
(-0.00617141 9.30351e-05 0)
(-0.00624414 8.97694e-05 0)
(-0.00631419 8.63912e-05 0)
(-0.00638148 8.28991e-05 0)
(-0.00644591 7.9292e-05 0)
(-0.0065074 7.55689e-05 0)
(-0.00656584 7.17293e-05 0)
(-0.00662116 6.77727e-05 0)
(-0.00667326 6.36989e-05 0)
(-0.00672205 5.95082e-05 0)
(-0.00676744 5.52009e-05 0)
(-0.00680933 5.07778e-05 0)
(-0.00684764 4.62398e-05 0)
(-0.00688227 4.15881e-05 0)
(-0.00691315 3.68246e-05 0)
(-0.00694018 3.19512e-05 0)
(-0.00696328 2.69704e-05 0)
(-0.00698237 2.18847e-05 0)
(-0.00699736 1.66971e-05 0)
(-0.00700819 1.14111e-05 0)
(-0.00701477 6.03064e-06 0)
(-0.00701703 5.59903e-07 0)
(-0.0070149 -4.99655e-06 0)
(-0.00700833 -1.06338e-05 0)
(-0.00699725 -1.63466e-05 0)
(-0.0069816 -2.2129e-05 0)
(-0.00696133 -2.79749e-05 0)
(-0.00693641 -3.38778e-05 0)
(-0.00690678 -3.98307e-05 0)
(-0.00687241 -4.58263e-05 0)
(-0.00683327 -5.18569e-05 0)
(-0.00678934 -5.79146e-05 0)
(-0.0067406 -6.3991e-05 0)
(-0.00668704 -7.00772e-05 0)
(-0.00662865 -7.61641e-05 0)
(-0.00656545 -8.22424e-05 0)
(-0.00649744 -8.83024e-05 0)
(-0.00642464 -9.43341e-05 0)
(-0.00634708 -0.000100327 0)
(-0.00626479 -0.000106272 0)
(-0.00617782 -0.000112156 0)
(-0.00608622 -0.000117969 0)
(-0.00599004 -0.0001237 0)
(-0.00588937 -0.000129336 0)
(-0.00578427 -0.000134867 0)
(-0.00567483 -0.00014028 0)
(-0.00556116 -0.000145562 0)
(-0.00544336 -0.000150701 0)
(-0.00532155 -0.000155684 0)
(-0.00519586 -0.000160498 0)
(-0.00506642 -0.00016513 0)
(-0.00493338 -0.000169565 0)
(-0.00479691 -0.00017379 0)
(-0.00465718 -0.000177791 0)
(-0.00451436 -0.000181552 0)
(-0.00436865 -0.000185059 0)
(-0.00422027 -0.000188296 0)
(-0.00406942 -0.000191247 0)
(-0.00391634 -0.000193897 0)
(-0.00376128 -0.000196228 0)
(-0.00360449 -0.000198222 0)
(-0.00344624 -0.000199863 0)
(-0.00328683 -0.000201131 0)
(-0.00312655 -0.000202008 0)
(-0.00296573 -0.000202474 0)
(-0.00280468 -0.000202509 0)
(-0.00264377 -0.000202093 0)
(-0.00248335 -0.000201204 0)
(-0.00232382 -0.00019982 0)
(-0.00216556 -0.000197919 0)
(-0.00200899 -0.000195478 0)
(-0.00185455 -0.000192473 0)
(-0.00170269 -0.000188881 0)
(-0.00155389 -0.000184676 0)
(-0.00140862 -0.000179834 0)
(-0.0012674 -0.000174332 0)
(-0.00113076 -0.000168143 0)
(-0.000999219 -0.000161246 0)
(-0.000873348 -0.000153616 0)
(-0.000753711 -0.000145236 0)
(-0.000640884 -0.000136086 0)
(-0.00053545 -0.000126157 0)
(-0.00043799 -0.000115445 0)
(-0.000349072 -0.000103958 0)
(-0.000269243 -9.17236e-05 0)
(-0.000199003 -7.87954e-05 0)
(-0.000138787 -6.52677e-05 0)
(-8.89191e-05 -5.12964e-05 0)
(-4.95661e-05 -3.71307e-05 0)
(-2.06611e-05 -2.31608e-05 0)
(-1.80415e-06 -9.99123e-06 0)
(7.85644e-06 1.45255e-06 0)
(9.78142e-06 9.78293e-06 0)
(6.48119e-06 1.29857e-05 0)
(1.96299e-06 8.20084e-06 0)
(4.42754e-07 -6.595e-06 0)
(-1.7092e-06 -2.89172e-06 0)
(-1.1172e-05 1.07198e-05 0)
(-2.99989e-05 2.99309e-05 0)
(-5.95412e-05 5.20371e-05 0)
(-0.00010052 7.52287e-05 0)
(-0.000153139 9.83362e-05 0)
(-0.000217234 0.000120641 0)
(-0.000292387 0.000141716 0)
(-0.000378009 0.00016132 0)
(-0.000473408 0.00017934 0)
(-0.000577837 0.000195746 0)
(-0.000690529 0.000210558 0)
(-0.000810718 0.000223833 0)
(-0.000937657 0.000235645 0)
(-0.00107063 0.000246084 0)
(-0.00120895 0.000255242 0)
(-0.00135199 0.000263215 0)
(-0.00149914 0.000270097 0)
(-0.00164986 0.000275981 0)
(-0.00180362 0.000280955 0)
(-0.00195998 0.000285105 0)
(-0.00211849 0.000288508 0)
(-0.00227878 0.00029124 0)
(-0.00244048 0.000293368 0)
(-0.00260329 0.000294955 0)
(-0.00276691 0.000296059 0)
(-0.00293109 0.000296732 0)
(-0.0030956 0.000297022 0)
(-0.00326023 0.000296969 0)
(-0.0034248 0.000296613 0)
(-0.00358913 0.000295985 0)
(-0.00375308 0.000295115 0)
(-0.00391652 0.000294028 0)
(-0.00407933 0.000292744 0)
(-0.00424138 0.000291282 0)
(-0.00440258 0.000289656 0)
(-0.00456285 0.000287878 0)
(-0.00472208 0.000285959 0)
(-0.0048802 0.000283906 0)
(-0.00503713 0.000281724 0)
(-0.0051928 0.000279415 0)
(-0.00534712 0.000276984 0)
(-0.00550004 0.00027443 0)
(-0.00565147 0.000271752 0)
(-0.00580135 0.00026895 0)
(-0.0059496 0.000266021 0)
(-0.00609615 0.000262962 0)
(-0.00624092 0.000259769 0)
(-0.00638384 0.000256439 0)
(-0.00652483 0.000252967 0)
(-0.00666381 0.000249348 0)
(-0.0068007 0.000245578 0)
(-0.0069354 0.000241651 0)
(-0.00706784 0.000237562 0)
(-0.00719792 0.000233307 0)
(-0.00732554 0.000228881 0)
(-0.00745062 0.000224277 0)
(-0.00757305 0.000219492 0)
(-0.00769273 0.00021452 0)
(-0.00780956 0.000209357 0)
(-0.00792343 0.000203999 0)
(-0.00803424 0.000198441 0)
(-0.00814188 0.000192679 0)
(-0.00824623 0.00018671 0)
(-0.00834719 0.00018053 0)
(-0.00844463 0.000174136 0)
(-0.00853844 0.000167526 0)
(-0.0086285 0.000160696 0)
(-0.0087147 0.000153646 0)
(-0.00879691 0.000146373 0)
(-0.00887501 0.000138877 0)
(-0.00894889 0.000131156 0)
(-0.00901842 0.000123211 0)
(-0.00908348 0.000115042 0)
(-0.00914395 0.00010665 0)
(-0.00919971 9.80358e-05 0)
(-0.00925065 8.9202e-05 0)
(-0.00929665 8.01512e-05 0)
(-0.00933758 7.08866e-05 0)
(-0.00937335 6.1412e-05 0)
(-0.00940383 5.17322e-05 0)
(-0.00942892 4.18524e-05 0)
(-0.00944852 3.17785e-05 0)
(-0.00946252 2.15171e-05 0)
(-0.00947082 1.10757e-05 0)
(-0.00947334 4.62354e-07 0)
(-0.00946998 -1.0314e-05 0)
(-0.00946066 -2.12439e-05 0)
(-0.0094453 -3.2317e-05 0)
(-0.00942382 -4.35222e-05 0)
(-0.00939617 -5.48477e-05 0)
(-0.00936228 -6.62809e-05 0)
(-0.0093221 -7.78085e-05 0)
(-0.00927559 -8.94166e-05 0)
(-0.0092227 -0.00010109 0)
(-0.0091634 -0.000112814 0)
(-0.00909768 -0.000124573 0)
(-0.00902552 -0.000136348 0)
(-0.00894692 -0.000148124 0)
(-0.00886189 -0.000159883 0)
(-0.00877043 -0.000171604 0)
(-0.00867259 -0.000183271 0)
(-0.00856838 -0.000194862 0)
(-0.00845787 -0.000206357 0)
(-0.00834111 -0.000217736 0)
(-0.00821817 -0.000228978 0)
(-0.00808913 -0.00024006 0)
(-0.00795408 -0.000250961 0)
(-0.00781313 -0.000261657 0)
(-0.0076664 -0.000272126 0)
(-0.00751402 -0.000282343 0)
(-0.00735612 -0.000292284 0)
(-0.00719288 -0.000301924 0)
(-0.00702445 -0.000311239 0)
(-0.00685103 -0.000320202 0)
(-0.0066728 -0.000328786 0)
(-0.00648999 -0.000336965 0)
(-0.00630282 -0.000344711 0)
(-0.00611154 -0.000351996 0)
(-0.0059164 -0.000358789 0)
(-0.00571767 -0.000365063 0)
(-0.00551566 -0.000370785 0)
(-0.00531067 -0.000375924 0)
(-0.00510302 -0.000380448 0)
(-0.00489306 -0.000384323 0)
(-0.00468115 -0.000387514 0)
(-0.00446768 -0.000389986 0)
(-0.00425304 -0.000391703 0)
(-0.00403766 -0.000392626 0)
(-0.00382198 -0.000392717 0)
(-0.00360645 -0.000391937 0)
(-0.00339158 -0.000390244 0)
(-0.00317786 -0.000387596 0)
(-0.00296582 -0.000383952 0)
(-0.00275602 -0.000379266 0)
(-0.00254903 -0.000373495 0)
(-0.00234544 -0.000366594 0)
(-0.00214589 -0.000358517 0)
(-0.00195101 -0.000349221 0)
(-0.00176147 -0.000338659 0)
(-0.00157796 -0.000326789 0)
(-0.00140117 -0.000313572 0)
(-0.00123182 -0.000298968 0)
(-0.00107066 -0.000282949 0)
(-0.000918418 -0.00026549 0)
(-0.00077583 -0.000246582 0)
(-0.000643628 -0.000226232 0)
(-0.000522518 -0.000204473 0)
(-0.000413164 -0.000181378 0)
(-0.000316165 -0.000157068 0)
(-0.000232023 -0.000131747 0)
(-0.000161096 -0.000105725 0)
(-0.000103542 -7.9476e-05 0)
(-5.92423e-05 -5.37046e-05 0)
(-2.7706e-05 -2.94464e-05 0)
(-7.95911e-06 -8.20598e-06 0)
(1.59223e-06 7.88115e-06 0)
(3.47131e-06 1.58521e-05 0)
(1.44047e-06 1.1446e-05 0)
(-4.1982e-07 -4.89015e-06 0)
(-6.45363e-06 5.86175e-06 0)
(-2.34248e-05 2.90617e-05 0)
(-5.23919e-05 5.95137e-05 0)
(-9.43038e-05 9.38341e-05 0)
(-0.000149776 0.00012967 0)
(-0.000218937 0.000165427 0)
(-0.000301561 0.000200069 0)
(-0.000397181 0.000232949 0)
(-0.00050515 0.000263682 0)
(-0.000624703 0.000292069 0)
(-0.000755009 0.000318031 0)
(-0.000895204 0.000341576 0)
(-0.00104441 0.000362765 0)
(-0.00120178 0.000381695 0)
(-0.00136647 0.000398487 0)
(-0.00153769 0.000413274 0)
(-0.00171469 0.000426194 0)
(-0.00189675 0.00043739 0)
(-0.00208322 0.000446999 0)
(-0.00227348 0.000455156 0)
(-0.00246697 0.000461991 0)
(-0.00266317 0.000467624 0)
(-0.00286161 0.000472171 0)
(-0.00306185 0.000475739 0)
(-0.00326351 0.000478428 0)
(-0.00346622 0.000480327 0)
(-0.00366968 0.000481519 0)
(-0.00387358 0.00048208 0)
(-0.00407767 0.000482076 0)
(-0.00428172 0.000481569 0)
(-0.00448551 0.00048061 0)
(-0.00468885 0.000479247 0)
(-0.00489158 0.000477519 0)
(-0.00509353 0.000475462 0)
(-0.00529456 0.000473106 0)
(-0.00549454 0.000470473 0)
(-0.00569336 0.000467586 0)
(-0.00589089 0.00046446 0)
(-0.00608703 0.000461107 0)
(-0.00628168 0.000457536 0)
(-0.00647474 0.000453755 0)
(-0.00666612 0.000449768 0)
(-0.00685573 0.000445575 0)
(-0.00704346 0.000441177 0)
(-0.00722924 0.000436573 0)
(-0.00741297 0.000431758 0)
(-0.00759456 0.00042673 0)
(-0.0077739 0.000421482 0)
(-0.00795092 0.000416008 0)
(-0.0081255 0.000410303 0)
(-0.00829754 0.000404358 0)
(-0.00846695 0.000398167 0)
(-0.00863361 0.000391721 0)
(-0.00879742 0.000385014 0)
(-0.00895826 0.000378036 0)
(-0.00911602 0.000370781 0)
(-0.00927059 0.00036324 0)
(-0.00942183 0.000355405 0)
(-0.00956962 0.00034727 0)
(-0.00971385 0.000338828 0)
(-0.00985438 0.00033007 0)
(-0.00999107 0.000320991 0)
(-0.0101238 0.000311585 0)
(-0.0102524 0.000301845 0)
(-0.0103768 0.000291768 0)
(-0.0104968 0.000281347 0)
(-0.0106123 0.000270579 0)
(-0.0107231 0.00025946 0)
(-0.0108291 0.000247987 0)
(-0.0109301 0.000236158 0)
(-0.011026 0.000223971 0)
(-0.0111167 0.000211425 0)
(-0.011202 0.000198521 0)
(-0.0112817 0.000185258 0)
(-0.0113558 0.000171639 0)
(-0.011424 0.000157666 0)
(-0.0114863 0.000143343 0)
(-0.0115424 0.000128673 0)
(-0.0115922 0.000113663 0)
(-0.0116357 9.83183e-05 0)
(-0.0116726 8.26466e-05 0)
(-0.0117029 6.66565e-05 0)
(-0.0117264 5.03576e-05 0)
(-0.011743 3.37608e-05 0)
(-0.0117525 1.6878e-05 0)
(-0.011755 -2.7789e-07 0)
(-0.0117501 -1.76925e-05 0)
(-0.011738 -3.53504e-05 0)
(-0.0117184 -5.32351e-05 0)
(-0.0116912 -7.13288e-05 0)
(-0.0116565 -8.96125e-05 0)
(-0.0116141 -0.000108066 0)
(-0.0115639 -0.000126668 0)
(-0.011506 -0.000145397 0)
(-0.0114402 -0.000164228 0)
(-0.0113665 -0.000183137 0)
(-0.011285 -0.000202098 0)
(-0.0111955 -0.000221085 0)
(-0.0110981 -0.00024007 0)
(-0.0109928 -0.000259024 0)
(-0.0108797 -0.000277918 0)
(-0.0107587 -0.000296721 0)
(-0.0106298 -0.0003154 0)
(-0.0104933 -0.000333925 0)
(-0.0103491 -0.000352262 0)
(-0.0101973 -0.000370376 0)
(-0.010038 -0.000388233 0)
(-0.00987131 -0.000405797 0)
(-0.00969741 -0.000423032 0)
(-0.00951642 -0.0004399 0)
(-0.0093285 -0.000456363 0)
(-0.00913381 -0.000472382 0)
(-0.00893257 -0.000487918 0)
(-0.00872496 -0.000502929 0)
(-0.00851123 -0.000517375 0)
(-0.00829161 -0.000531212 0)
(-0.00806637 -0.000544397 0)
(-0.00783578 -0.000556886 0)
(-0.00760014 -0.000568632 0)
(-0.00735977 -0.00057959 0)
(-0.00711501 -0.00058971 0)
(-0.00686621 -0.000598943 0)
(-0.00661375 -0.000607238 0)
(-0.00635803 -0.000614543 0)
(-0.00609947 -0.000620804 0)
(-0.00583852 -0.000625965 0)
(-0.00557565 -0.00062997 0)
(-0.00531133 -0.000632759 0)
(-0.0050461 -0.000634272 0)
(-0.00478048 -0.000634447 0)
(-0.00451505 -0.00063322 0)
(-0.0042504 -0.000630528 0)
(-0.00398715 -0.000626302 0)
(-0.00372593 -0.000620475 0)
(-0.00346743 -0.000612979 0)
(-0.00321235 -0.000603743 0)
(-0.00296139 -0.000592699 0)
(-0.00271533 -0.000579776 0)
(-0.00247494 -0.000564905 0)
(-0.00224101 -0.000548021 0)
(-0.00201438 -0.000529059 0)
(-0.00179587 -0.000507962 0)
(-0.00158636 -0.000484679 0)
(-0.0013867 -0.000459171 0)
(-0.00119776 -0.000431414 0)
(-0.00102042 -0.000401406 0)
(-0.000855504 -0.000369177 0)
(-0.00070383 -0.000334801 0)
(-0.00056615 -0.000298409 0)
(-0.000443131 -0.00026022 0)
(-0.000335321 -0.00022057 0)
(-0.000243104 -0.000179956 0)
(-0.000166642 -0.000139104 0)
(-0.000105803 -9.90547e-05 0)
(-6.00811e-05 -6.12804e-05 0)
(-2.84968e-05 -2.78424e-05 0)
(-9.48094e-06 -1.56431e-06 0)
(-7.64588e-07 1.37453e-05 0)
(6.74881e-07 1.26594e-05 0)
(-1.2862e-06 -5.90211e-07 0)
(-1.14163e-05 2.09408e-05 0)
(-3.64069e-05 5.66296e-05 0)
(-7.61373e-05 0.000100749 0)
(-0.000131007 0.000149419 0)
(-0.000201417 0.000199862 0)
(-0.000287349 0.000250128 0)
(-0.000388471 0.0002989 0)
(-0.000504235 0.000345319 0)
(-0.000633928 0.000388855 0)
(-0.000776722 0.000429211 0)
(-0.000931715 0.000466255 0)
(-0.00109797 0.000499969 0)
(-0.00127452 0.000530416 0)
(-0.00146044 0.000557711 0)
(-0.0016548 0.000582002 0)
(-0.0018567 0.000603462 0)
(-0.00206532 0.000622275 0)
(-0.00227984 0.000638629 0)
(-0.00249951 0.000652712 0)
(-0.00272365 0.000664709 0)
(-0.00295159 0.000674797 0)
(-0.00318275 0.000683148 0)
(-0.00341657 0.000689921 0)
(-0.00365255 0.000695267 0)
(-0.00389024 0.000699326 0)
(-0.00412921 0.000702227 0)
(-0.00436909 0.000704087 0)
(-0.00460954 0.000705015 0)
(-0.00485025 0.000705107 0)
(-0.00509094 0.000704449 0)
(-0.00533135 0.000703118 0)
(-0.00557125 0.000701182 0)
(-0.00581044 0.0006987 0)
(-0.00604873 0.000695723 0)
(-0.00628595 0.000692294 0)
(-0.00652192 0.000688449 0)
(-0.00675652 0.000684219 0)
(-0.00698959 0.000679628 0)
(-0.00722101 0.000674695 0)
(-0.00745065 0.000669434 0)
(-0.0076784 0.000663856 0)
(-0.00790414 0.000657967 0)
(-0.00812776 0.000651771 0)
(-0.00834914 0.000645268 0)
(-0.00856817 0.000638457 0)
(-0.00878475 0.000631333 0)
(-0.00899877 0.000623892 0)
(-0.0092101 0.000616127 0)
(-0.00941863 0.000608029 0)
(-0.00962425 0.000599589 0)
(-0.00982683 0.000590798 0)
(-0.0100263 0.000581645 0)
(-0.0102224 0.00057212 0)
(-0.0104151 0.000562212 0)
(-0.0106043 0.00055191 0)
(-0.0107898 0.000541203 0)
(-0.0109715 0.000530079 0)
(-0.0111492 0.000518529 0)
(-0.0113229 0.000506542 0)
(-0.0114922 0.000494108 0)
(-0.0116572 0.000481217 0)
(-0.0118176 0.00046786 0)
(-0.0119733 0.000454028 0)
(-0.0121241 0.000439714 0)
(-0.0122699 0.00042491 0)
(-0.0124104 0.00040961 0)
(-0.0125457 0.000393807 0)
(-0.0126753 0.000377497 0)
(-0.0127993 0.000360677 0)
(-0.0129175 0.000343341 0)
(-0.0130295 0.00032549 0)
(-0.0131354 0.000307121 0)
(-0.0132349 0.000288234 0)
(-0.0133279 0.000268832 0)
(-0.0134141 0.000248916 0)
(-0.0134935 0.000228491 0)
(-0.0135658 0.000207561 0)
(-0.0136309 0.000186133 0)
(-0.0136887 0.000164215 0)
(-0.0137389 0.000141817 0)
(-0.0137814 0.000118949 0)
(-0.0138161 9.56237e-05 0)
(-0.0138429 7.18555e-05 0)
(-0.0138615 4.766e-05 0)
(-0.0138719 2.30546e-05 0)
(-0.0138739 -1.94184e-06 0)
(-0.0138674 -2.73085e-05 0)
(-0.0138522 -5.30232e-05 0)
(-0.0138284 -7.90617e-05 0)
(-0.0137957 -0.000105398 0)
(-0.0137542 -0.000132006 0)
(-0.0137036 -0.000158855 0)
(-0.013644 -0.000185914 0)
(-0.0135752 -0.000213153 0)
(-0.0134973 -0.000240535 0)
(-0.0134102 -0.000268027 0)
(-0.0133138 -0.000295591 0)
(-0.0132082 -0.000323188 0)
(-0.0130933 -0.000350779 0)
(-0.0129692 -0.000378321 0)
(-0.0128359 -0.000405772 0)
(-0.0126934 -0.000433088 0)
(-0.0125418 -0.000460224 0)
(-0.0123812 -0.000487133 0)
(-0.0122116 -0.000513766 0)
(-0.0120331 -0.000540074 0)
(-0.011846 -0.000566008 0)
(-0.0116502 -0.000591516 0)
(-0.0114459 -0.000616544 0)
(-0.0112334 -0.000641039 0)
(-0.0110128 -0.000664947 0)
(-0.0107843 -0.00068821 0)
(-0.0105481 -0.000710771 0)
(-0.0103046 -0.000732571 0)
(-0.0100539 -0.00075355 0)
(-0.00979627 -0.000773646 0)
(-0.00953212 -0.000792796 0)
(-0.00926173 -0.000810937 0)
(-0.00898546 -0.000828 0)
(-0.00870367 -0.000843919 0)
(-0.00841675 -0.000858623 0)
(-0.00812513 -0.000872041 0)
(-0.00782924 -0.000884098 0)
(-0.00752954 -0.000894719 0)
(-0.00722654 -0.000903826 0)
(-0.00692074 -0.000911339 0)
(-0.00661269 -0.000917174 0)
(-0.00630296 -0.000921247 0)
(-0.00599215 -0.000923472 0)
(-0.00568089 -0.000923758 0)
(-0.00536983 -0.000922014 0)
(-0.00505967 -0.000918148 0)
(-0.00475112 -0.000912063 0)
(-0.00444492 -0.000903664 0)
(-0.00414185 -0.000892853 0)
(-0.00384273 -0.000879533 0)
(-0.00354838 -0.000863604 0)
(-0.00325967 -0.000844972 0)
(-0.0029775 -0.000823541 0)
(-0.00270277 -0.000799222 0)
(-0.00243643 -0.00077193 0)
(-0.00217944 -0.000741592 0)
(-0.00193276 -0.000708145 0)
(-0.00169737 -0.000671545 0)
(-0.00147425 -0.000631774 0)
(-0.00126435 -0.000588847 0)
(-0.00106862 -0.000542825 0)
(-0.000887931 -0.000493833 0)
(-0.000723112 -0.000442083 0)
(-0.000574883 -0.000387903 0)
(-0.000443834 -0.000331778 0)
(-0.000330379 -0.000274408 0)
(-0.000234703 -0.00021678 0)
(-0.000156707 -0.000160265 0)
(-9.59384e-05 -0.000106749 0)
(-5.15056e-05 -5.87933e-05 0)
(-2.19833e-05 -1.98155e-05 0)
(-5.54149e-06 5.68515e-06 0)
(-1.73365e-07 1.14332e-05 0)
(-2.12024e-06 6.30693e-06 0)
(-1.63296e-05 4.25212e-05 0)
(-4.94451e-05 9.37361e-05 0)
(-0.000100122 0.000153995 0)
(-0.00016814 0.000219113 0)
(-0.000253609 0.000286012 0)
(-0.000356303 0.000352472 0)
(-0.000475738 0.000416947 0)
(-0.000611256 0.000478397 0)
(-0.000762063 0.00053616 0)
(-0.000927261 0.000589844 0)
(-0.00110588 0.00063926 0)
(-0.00129692 0.000684366 0)
(-0.00149936 0.000725217 0)
(-0.00171218 0.000761945 0)
(-0.00193439 0.000794725 0)
(-0.00216504 0.000823767 0)
(-0.00240319 0.000849298 0)
(-0.00264799 0.000871555 0)
(-0.00289859 0.000890777 0)
(-0.00315425 0.000907201 0)
(-0.00341422 0.000921057 0)
(-0.00367786 0.000932566 0)
(-0.00394455 0.000941939 0)
(-0.00421372 0.000949372 0)
(-0.00448485 0.000955051 0)
(-0.00475749 0.000959146 0)
(-0.00503119 0.000961815 0)
(-0.00530556 0.0009632 0)
(-0.00558026 0.000963432 0)
(-0.00585495 0.000962626 0)
(-0.00612935 0.000960887 0)
(-0.0064032 0.000958306 0)
(-0.00667624 0.000954963 0)
(-0.00694826 0.000950927 0)
(-0.00721906 0.000946259 0)
(-0.00748844 0.000941008 0)
(-0.00775624 0.000935215 0)
(-0.00802229 0.000928915 0)
(-0.00828644 0.000922134 0)
(-0.00854854 0.000914893 0)
(-0.00880845 0.000907208 0)
(-0.00906604 0.000899087 0)
(-0.00932118 0.000890538 0)
(-0.00957372 0.000881561 0)
(-0.00982356 0.000872155 0)
(-0.0100705 0.000862316 0)
(-0.0103146 0.000852037 0)
(-0.0105555 0.000841311 0)
(-0.0107931 0.000830127 0)
(-0.0110274 0.000818472 0)
(-0.0112582 0.000806336 0)
(-0.0114853 0.000793705 0)
(-0.0117087 0.000780564 0)
(-0.0119281 0.0007669 0)
(-0.0121433 0.000752698 0)
(-0.0123544 0.000737945 0)
(-0.012561 0.000722625 0)
(-0.0127631 0.000706725 0)
(-0.0129604 0.000690231 0)
(-0.0131529 0.00067313 0)
(-0.0133402 0.000655409 0)
(-0.0135223 0.000637057 0)
(-0.013699 0.000618062 0)
(-0.0138701 0.000598414 0)
(-0.0140354 0.000578102 0)
(-0.0141948 0.00055712 0)
(-0.014348 0.000535458 0)
(-0.0144948 0.000513112 0)
(-0.0146352 0.000490075 0)
(-0.0147688 0.000466343 0)
(-0.0148955 0.000441916 0)
(-0.0150151 0.00041679 0)
(-0.0151274 0.000390967 0)
(-0.0152323 0.000364449 0)
(-0.0153295 0.00033724 0)