/*--------------------------------*- C++ -*----------------------------------*\
  =========                 |
  \\      /  F ield         | OpenFOAM: The Open Source CFD Toolbox
   \\    /   O peration     | Website:  https://openfoam.org
    \\  /    A nd           | Version:  7
     \\/     M anipulation  |
\*---------------------------------------------------------------------------*/
FoamFile
{
    version     2.0;
    format      ascii;
    class       volScalarField;
    location    "0.325";
    object      p;
}
// * * * * * * * * * * * * * * * * * * * * * * * * * * * * * * * * * * * * * //

dimensions      [0 2 -2 0 0 0 0];

internalField   nonuniform List<scalar> 
25600
(
2.29817e-06
0.000115507
0.000144326
3.60295e-05
-0.000217449
-0.000612018
-0.00113669
-0.00177688
-0.00251707
-0.00334207
-0.00423737
-0.00518942
-0.00618563
-0.00721435
-0.00826481
-0.00932719
-0.0103925
-0.0114524
-0.0124995
-0.0135267
-0.0145277
-0.0154968
-0.0164287
-0.0173184
-0.0181618
-0.0189549
-0.019694
-0.020376
-0.0209979
-0.0215572
-0.0220516
-0.0224792
-0.022838
-0.0231267
-0.0233441
-0.0234889
-0.0235605
-0.0235581
-0.0234812
-0.0233296
-0.0231032
-0.022802
-0.0224261
-0.021976
-0.0214519
-0.0208547
-0.0201848
-0.0194433
-0.0186309
-0.0177489
-0.0167983
-0.0157803
-0.0146964
-0.0135479
-0.0123364
-0.0110634
-0.00973073
-0.00834004
-0.00689317
-0.00539202
-0.00383854
-0.00223477
-0.000582786
0.00111526
0.00285717
0.00464067
0.00646348
0.00832322
0.0102175
0.0121439
0.0140999
0.016083
0.0180906
0.0201201
0.0221689
0.0242343
0.0263137
0.0284043
0.0305035
0.0326083
0.0347162
0.0368242
0.0389297
0.0410298
0.0431216
0.0452025
0.0472696
0.04932
0.051351
0.0533598
0.0553437
0.0572998
0.0592254
0.0611179
0.0629745
0.0647926
0.0665697
0.0683031
0.0699905
0.0716292
0.0732169
0.0747513
0.0762302
0.0776512
0.0790125
0.0803118
0.0815472
0.082717
0.0838193
0.0848525
0.0858151
0.0867057
0.0875229
0.0882656
0.0889328
0.0895236
0.0900372
0.090473
0.0908306
0.0911097
0.0913104
0.0914326
0.0914767
0.0914431
0.0913326
0.091146
0.0908845
0.0905495
0.0901426
0.0896656
0.0891208
0.0885105
0.0878375
0.0871046
0.0863154
0.0854734
0.0845826
0.0836475
0.0826729
0.0816641
0.0806266
0.0795667
0.078491
0.0774068
0.0763219
0.0752448
0.0741846
0.0731512
0.0721553
0.0712084
0.0703229
0.069512
0.0687895
0.0681699
0.0676677
0.067296
0.067064
0.0669738
0.0670141
0.0671294
-0.000107759
4.07991e-06
8.23221e-06
-0.000112764
-0.000354994
-0.000716704
-0.00119126
-0.00176818
-0.00243549
-0.00318084
-0.00399204
-0.00485732
-0.00576543
-0.0067058
-0.00766858
-0.00864461
-0.00962544
-0.0106033
-0.0115709
-0.0125216
-0.0134494
-0.0143485
-0.0152138
-0.0160406
-0.0168248
-0.0175623
-0.0182496
-0.0188836
-0.0194613
-0.0199801
-0.0204378
-0.0208324
-0.0211619
-0.0214251
-0.0216204
-0.0217468
-0.0218035
-0.0217897
-0.0217049
-0.0215487
-0.021321
-0.0210216
-0.0206509
-0.0202089
-0.0196961
-0.0191129
-0.0184601
-0.0177384
-0.0169487
-0.0160919
-0.0151692
-0.0141816
-0.0131305
-0.0120172
-0.0108431
-0.00960989
-0.00831903
-0.00697223
-0.00557124
-0.00411786
-0.00261399
-0.00106157
0.000537398
0.00218084
0.00386663
0.00559259
0.0073565
0.0091561
0.0109891
0.012853
0.0147456
0.0166643
0.0186066
0.0205701
0.0225522
0.0245504
0.026562
0.0285844
0.030615
0.0326511
0.03469
0.0367291
0.0387656
0.0407969
0.0428202
0.0448327
0.0468319
0.048815
0.0507792
0.052722
0.0546405
0.0565322
0.0583944
0.0602246
0.06202
0.0637783
0.0654969
0.0671734
0.0688053
0.0703903
0.0719261
0.0734105
0.0748412
0.0762163
0.0775337
0.0787915
0.0799878
0.0811208
0.082189
0.0831906
0.0841245
0.084989
0.0857832
0.0865059
0.087156
0.0877329
0.0882359
0.0886644
0.089018
0.0892967
0.0895003
0.089629
0.0896832
0.0896634
0.0895703
0.089405
0.0891685
0.0888623
0.0884879
0.0880474
0.0875428
0.0869766
0.0863514
0.0856702
0.0849363
0.0841534
0.0833252
0.0824563
0.0815513
0.0806152
0.0796536
0.0786724
0.077678
0.0766773
0.0756778
0.0746875
0.073715
0.0727693
0.0718604
0.0709986
0.0701949
0.0694606
0.0688074
0.0682471
0.0677905
0.0674471
0.0672221
0.0671155
0.0671294
0.0672448
-0.000136273
1.72697e-07
4.42028e-06
-0.000117834
-0.000350157
-0.000689392
-0.00113003
-0.00166331
-0.00227914
-0.00296706
-0.00371652
-0.00451705
-0.00535853
-0.00623133
-0.00712637
-0.00803512
-0.00894966
-0.00986261
-0.0107671
-0.0116568
-0.0125256
-0.0133683
-0.0141799
-0.0149557
-0.0156916
-0.0163837
-0.0170287
-0.0176232
-0.0181646
-0.0186501
-0.0190775
-0.0194447
-0.01975
-0.0199919
-0.020169
-0.0202801
-0.0203244
-0.0203011
-0.0202096
-0.0200495
-0.0198206
-0.0195229
-0.0191563
-0.0187211
-0.0182177
-0.0176464
-0.0170079
-0.0163028
-0.015532
-0.0146965
-0.0137971
-0.0128351
-0.0118115
-0.0107278
-0.00958531
-0.00838547
-0.00712983
-0.00581999
-0.00445764
-0.00304453
-0.00158246
-7.33243e-05
0.00148094
0.00307833
0.0047168
0.00639423
0.00810846
0.00985731
0.0116385
0.0134498
0.0152888
0.0171532
0.0190405
0.0209484
0.0228742
0.0248156
0.0267701
0.028735
0.0307078
0.0326859
0.0346667
0.0366477
0.0386261
0.0405993
0.0425648
0.0445199
0.0464619
0.0483882
0.0502963
0.0521834
0.054047
0.0558845
0.0576934
0.0594712
0.0612153
0.0629233
0.0645928
0.0662214
0.0678068
0.0693467
0.070839
0.0722814
0.0736719
0.0750084
0.0762891
0.0775121
0.0786756
0.0797779
0.0808175
0.0817928
0.0827026
0.0835455
0.0843204
0.0850263
0.0856623
0.0862276
0.0867217
0.0871441
0.0874945
0.0877727
0.0879787
0.0881128
0.0881754
0.088167
0.0880884
0.0879406
0.0877247
0.0874422
0.0870947
0.0866841
0.0862125
0.0856824
0.0850964
0.0844574
0.0837686
0.0830336
0.0822563
0.0814408
0.0805919
0.0797143
0.0788134
0.0778949
0.076965
0.0760302
0.0750977
0.074175
0.0732702
0.0723917
0.0715485
0.0707503
0.0700066
0.0693277
0.0687236
0.0682043
0.067779
0.0674555
0.0672383
0.067129
0.0671431
0.0672852
-2.84378e-05
0.000121225
0.000127019
4.81362e-06
-0.00022159
-0.000547037
-0.000965775
-0.00146957
-0.00204943
-0.002696
-0.00339983
-0.00415149
-0.00494179
-0.0057619
-0.00660343
-0.00745847
-0.00831958
-0.00917981
-0.0100326
-0.0108719
-0.011692
-0.0124877
-0.0132542
-0.013987
-0.0146822
-0.015336
-0.0159449
-0.0165059
-0.0170162
-0.0174731
-0.0178745
-0.0182183
-0.0185027
-0.0187262
-0.0188875
-0.0189854
-0.019019
-0.0189874
-0.0188901
-0.0187266
-0.0184968
-0.0182004
-0.0178376
-0.0174084
-0.0169131
-0.0163522
-0.0157262
-0.0150358
-0.0142817
-0.0134648
-0.012586
-0.0116465
-0.0106473
-0.00958963
-0.00847494
-0.00730458
-0.00608002
-0.00480282
-0.00347459
-0.00209704
-0.000671906
0.000798977
0.00231373
0.00387042
0.00546705
0.00710156
0.00877188
0.0104759
0.0122113
0.013976
0.0157677
0.017584
0.0194227
0.0212813
0.0231574
0.0250486
0.0269525
0.0288666
0.0307883
0.0327152
0.0346447
0.0365743
0.0385014
0.0404234
0.0423379
0.0442422
0.0461338
0.0480101
0.0498685
0.0517066
0.0535218
0.0553116
0.0570735
0.0588051
0.060504
0.0621677
0.063794
0.0653806
0.0669251
0.0684254
0.0698794
0.0712849
0.0726401
0.0739428
0.0751913
0.0763838
0.0775185
0.0785939
0.0796085
0.0805608
0.0814495
0.0822734
0.0830315
0.0837227
0.0843464
0.0849016
0.085388
0.085805
0.0861524
0.0864302
0.0866383
0.0867771
0.0868468
0.0868482
0.086782
0.0866492
0.086451
0.0861888
0.0858642
0.0854792
0.0850358
0.0845364
0.0839836
0.0833803
0.0827296
0.0820351
0.0813005
0.0805298
0.0797276
0.0788986
0.0780479
0.077181
0.0763037
0.0754225
0.0745439
0.0736752
0.0728237
0.0719976
0.0712051
0.0704548
0.0697557
0.0691168
0.0685473
0.0680559
0.0676511
0.0673403
0.0671283
0.0670193
0.0670365
0.0671955
0.000224173
0.000363374
0.000359589
0.000231521
5.06737e-06
-0.000313396
-0.000717821
-0.00120038
-0.00175284
-0.00236674
-0.00303351
-0.00374461
-0.00449171
-0.00526671
-0.00606189
-0.00686992
-0.00768388
-0.00849719
-0.00930368
-0.0100976
-0.0108734
-0.0116264
-0.0123517
-0.0130452
-0.013703
-0.0143213
-0.0148969
-0.0154267
-0.015908
-0.0163384
-0.0167154
-0.0170373
-0.0173021
-0.0175085
-0.0176549
-0.0177404
-0.0177638
-0.0177245
-0.0176218
-0.0174552
-0.0172245
-0.0169295
-0.0165703
-0.0161468
-0.0156595
-0.0151086
-0.0144946
-0.0138182
-0.0130801
-0.0122811
-0.0114221
-0.0105042
-0.0095283
-0.00849575
-0.00740779
-0.00626576
-0.00507108
-0.00382525
-0.00252985
-0.0011865
0.000203099
0.00163718
0.00311392
0.00463143
0.00618778
0.00778099
0.00940903
0.0110698
0.0127612
0.0144811
0.0162272
0.0179973
0.0197891
0.0216003
0.0234286
0.0252715
0.0271268
0.0289919
0.0308645
0.0327421
0.0346222
0.0365024
0.0383802
0.040253
0.0421184
0.0439739
0.045817
0.0476453
0.0494561
0.0512471
0.0530158
0.0547598
0.0564766
0.058164
0.0598195
0.0614408
0.0630257
0.0645719
0.0660773
0.0675397
0.068957
0.0703273
0.0716486
0.072919
0.0741367
0.0753001
0.0764073
0.077457
0.0784477
0.0793779
0.0802466
0.0810524
0.0817944
0.0824717
0.0830834
0.083629
0.084108
0.0845198
0.0848644
0.0851417
0.0853517
0.0854947
0.0855711
0.0855816
0.085527
0.0854082
0.0852265
0.0849832
0.08468
0.0843187
0.0839015
0.0834306
0.0829085
0.0823382
0.0817227
0.0810654
0.0803699
0.0796402
0.0788806
0.0780956
0.0772902
0.0764696
0.0756395
0.0748058
0.0739748
0.0731532
0.0723481
0.0715668
0.070817
0.0701066
0.0694438
0.0688367
0.0682937
0.0678226
0.0674314
0.0671273
0.0669154
0.0668015
0.0668116
0.0669647
0.000617682
0.000725064
0.00069928
0.000557458
0.000323742
4.99564e-06
-0.000392674
-0.000861879
-0.00139501
-0.00198433
-0.00262207
-0.00330048
-0.00401196
-0.00474914
-0.00550492
-0.00627254
-0.00704552
-0.00781771
-0.00858328
-0.00933681
-0.0100732
-0.0107877
-0.0114759
-0.0121337
-0.0127574
-0.0133433
-0.0138884
-0.0143896
-0.0148443
-0.0152501
-0.0156047
-0.0159063
-0.016153
-0.0163434
-0.0164761
-0.01655
-0.0165641
-0.0165175
-0.0164098
-0.0162404
-0.016009
-0.0157154
-0.0153597
-0.0149418
-0.014462
-0.0139207
-0.0133182
-0.0126553
-0.0119325
-0.0111506
-0.0103105
-0.00941311
-0.00845956
-0.00745096
-0.00638854
-0.00527358
-0.00410747
-0.00289164
-0.00162762
-0.000316973
0.00103864
0.00243752
0.00387789
0.00535793
0.00687576
0.00842945
0.010017
0.0116365
0.0132858
0.0149627
0.0166652
0.0183911
0.0201381
0.0219039
0.0236864
0.0254832
0.0272919
0.0291103
0.0309359
0.0327664
0.0345993
0.0364323
0.0382629
0.0400887
0.0419073
0.0437162
0.045513
0.0472954
0.0490608
0.0508068
0.0525312
0.0542315
0.0559054
0.0575505
0.0591647
0.0607456
0.062291
0.0637989
0.065267
0.0666933
0.0680758
0.0694125
0.0707016
0.0719413
0.0731297
0.0742654
0.0753466
0.0763719
0.0773398
0.0782492
0.0790987
0.0798873
0.080614
0.081278
0.0818785
0.0824149
0.0828868
0.0832937
0.0836355
0.0839121
0.0841237
0.0842706
0.0843532
0.0843721
0.0843281
0.0842222
0.0840557
0.0838298
0.0835463
0.0832069
0.0828137
0.0823689
0.081875
0.0813349
0.0807514
0.0801278
0.0794678
0.0787751
0.0780538
0.0773083
0.0765433
0.0757639
0.0749753
0.0741832
0.0733935
0.0726125
0.0718467
0.071103
0.0703884
0.0697103
0.069076
0.068493
0.0679688
0.0675107
0.0671261
0.0668219
0.0666036
0.0664775
0.0664685
0.0665946
0.00114157
0.0012002
0.00114109
0.000977327
0.000728831
0.00040238
3.95652e-06
-0.000459532
-0.000981058
-0.00155358
-0.00217001
-0.00282332
-0.0035066
-0.00421312
-0.00493639
-0.00567012
-0.00640831
-0.00714522
-0.0078754
-0.00859374
-0.00929543
-0.00997599
-0.0106312
-0.0112572
-0.0118503
-0.0124072
-0.0129247
-0.0134
-0.0138306
-0.0142141
-0.0145483
-0.0148313
-0.0150614
-0.0152373
-0.0153574
-0.0154207
-0.0154262
-0.0153732
-0.0152609
-0.015089
-0.0148571
-0.0145651
-0.0142127
-0.0138002
-0.0133276
-0.0127953
-0.0122038
-0.0115536
-0.0108453
-0.0100797
-0.00925747
-0.00837966
-0.00744727
-0.00646138
-0.00542317
-0.0043339
-0.00319487
-0.00200749
-0.000773234
0.000506381
0.00182976
0.00319524
0.0046011
0.00604558
0.00752685
0.00904304
0.0105922
0.0121725
0.0137818
0.015418
0.0170791
0.018763
0.0204674
0.0221903
0.0239293
0.0256823
0.0274469
0.0292209
0.031002
0.0327878
0.034576
0.0363642
0.0381501
0.0399314
0.0417056
0.0434704
0.0452234
0.0469623
0.0486847
0.0503882
0.0520706
0.0537296
0.0553629
0.0569682
0.0585432
0.060086
0.0615942
0.0630657
0.0644987
0.0658909
0.0672405
0.0685456
0.0698044
0.0710151
0.072176
0.0732855
0.0743421
0.0753444
0.076291
0.0771806
0.0780122
0.0787846
0.079497
0.0801484
0.0807383
0.081266
0.081731
0.0821331
0.0824722
0.0827481
0.0829611
0.0831114
0.0831995
0.0832259
0.0831916
0.0830975
0.0829448
0.0827348
0.0824691
0.0821495
0.081778
0.0813568
0.0808884
0.0803753
0.0798206
0.0792273
0.0785989
0.077939
0.0772516
0.0765409
0.0758113
0.0750676
0.0743149
0.0735584
0.0728037
0.0720566
0.0713233
0.0706101
0.0699235
0.0692702
0.0686569
0.0680904
0.0675777
0.0671254
0.0667404
0.0664292
0.0661973
0.0660512
0.0660121
0.0660943
0.00178212
0.00177904
0.00167688
0.00148349
0.00121297
0.000871741
0.000465575
8.12484e-07
-0.000516144
-0.0010789
-0.00168103
-0.00231615
-0.002978
-0.00366044
-0.0043575
-0.0050634
-0.00577256
-0.00647964
-0.00717958
-0.00786759
-0.00853915
-0.00919003
-0.00981625
-0.0104141
-0.01098
-0.0115109
-0.0120038
-0.0124559
-0.0128648
-0.0132281
-0.0135438
-0.01381
-0.0140252
-0.0141877
-0.0142965
-0.0143502
-0.014348
-0.0142891
-0.0141728
-0.0139988
-0.0137666
-0.013476
-0.013127
-0.0127196
-0.012254
-0.0117304
-0.0111493
-0.0105112
-0.00981669
-0.00906641
-0.0082612
-0.00740193
-0.00648959
-0.00552522
-0.00450996
-0.00344502
-0.00233166
-0.00117126
3.47907e-05
0.00128499
0.00257781
0.00391162
0.00528477
0.00669553
0.00814214
0.00962278
0.0111356
0.0126786
0.01425
0.0158476
0.0174695
0.0191136
0.0207777
0.0224598
0.0241577
0.0258691
0.0275919
0.0293239
0.0310628
0.0328063
0.0345521
0.036298
0.0380416
0.0397806
0.0415129
0.0432359
0.0449475
0.0466453
0.048327
0.0499904
0.0516332
0.0532531
0.054848
0.0564156
0.0579539
0.0594605
0.0609336
0.062371
0.0637707
0.0651309
0.0664495
0.0677248
0.068955
0.0701384
0.0712733
0.0723583
0.0733918
0.0743724
0.0752989
0.07617
0.0769846
0.0777418
0.0784406
0.0790802
0.07966
0.0801794
0.080638
0.0810356
0.0813719
0.081647
0.081861
0.0820143
0.0821072
0.0821405
0.0821149
0.0820313
0.081891
0.0816953
0.0814457
0.081144
0.0807921
0.080392
0.0799463
0.0794575
0.0789284
0.0783619
0.0777615
0.0771305
0.0764728
0.0757923
0.0750934
0.0743804
0.0736582
0.0729317
0.0722062
0.071487
0.0707799
0.0700907
0.0694253
0.06879
0.0681909
0.0676342
0.0671262
0.066673
0.0662809
0.065956
0.0657036
0.06553
0.0654511
0.0654763
0.00252477
0.00245042
0.00229731
0.0020675
0.00176838
0.00140594
0.000985687
0.000513307
-5.45036e-06
-0.000564811
-0.00115897
-0.00178218
-0.00242875
-0.0030931
-0.00376976
-0.00445338
-0.00513882
-0.00582115
-0.00649567
-0.0071579
-0.00780362
-0.00842883
-0.00902978
-0.00960293
-0.010145
-0.010653
-0.011124
-0.0115554
-0.0119448
-0.01229
-0.0125891
-0.0128403
-0.0130419
-0.0131926
-0.013291
-0.0133361
-0.013327
-0.0132629
-0.0131431
-0.0129673
-0.012735
-0.0124461
-0.0121004
-0.011698
-0.011239
-0.0107237
-0.0101526
-0.00952597
-0.0088445
-0.00810882
-0.00731971
-0.00647801
-0.00558467
-0.00464069
-0.00364717
-0.00260528
-0.00151624
-0.000381377
0.000797946
0.00202029
0.00328416
0.00458798
0.00593013
0.00730895
0.00872272
0.0101697
0.011648
0.0131558
0.0146913
0.0162523
0.0178371
0.0194434
0.0210694
0.0227129
0.0243718
0.0260439
0.0277272
0.0294194
0.0311183
0.0328217
0.0345275
0.0362333
0.0379369
0.0396361
0.0413286
0.0430122
0.0446846
0.0463436
0.047987
0.0496124
0.0512178
0.0528009
0.0543596
0.0558917
0.0573951
0.0588679
0.0603078
0.061713
0.0630815
0.0644114
0.0657009
0.0669481
0.0681514
0.0693091
0.0704197
0.0714816
0.0724933
0.0734536
0.0743612
0.0752149
0.0760136
0.0767564
0.0774424
0.0780708
0.0786411
0.0791527
0.0796051
0.0799982
0.0803318
0.080606
0.0808208
0.0809765
0.0810738
0.081113
0.0810952
0.0810211
0.0808919
0.080709
0.0804738
0.080188
0.0798535
0.0794723
0.0790468
0.0785794
0.0780729
0.07753
0.0769541
0.0763483
0.0757163
0.0750619
0.0743891
0.0737022
0.0730055
0.0723039
0.0716021
0.0709052
0.0702185
0.0695473
0.0688971
0.0682736
0.0676824
0.0671293
0.0666198
0.0661596
0.0657543
0.0654095
0.0651303
0.0649225
0.0647958
0.0647543
0.00335534
0.00320286
0.00299259
0.0027206
0.0023872
0.00199788
0.00155787
0.00107216
0.000545864
-1.58571e-05
-0.000607809
-0.00122482
-0.00186175
-0.0025135
-0.00317505
-0.00384153
-0.0045082
-0.00517051
-0.0058241
-0.00646483
-0.00708874
-0.00769208
-0.00827132
-0.00882313
-0.00934442
-0.00983228
-0.010284
-0.0106971
-0.0110694
-0.0113986
-0.0116829
-0.0119206
-0.0121102
-0.0122502
-0.0123395
-0.012377
-0.0123617
-0.012293
-0.0121703
-0.0119931
-0.0117609
-0.0114737
-0.0111313
-0.0107338
-0.0102812
-0.00977389
-0.00921218
-0.00859653
-0.00792746
-0.00720564
-0.00643178
-0.00560672
-0.00473136
-0.00380668
-0.00283372
-0.00181363
-0.000747602
0.000363101
0.00151715
0.00271314
0.00394963
0.00522507
0.00653792
0.00788653
0.00926924
0.0106843
0.0121301
0.0136046
0.015106
0.0166325
0.0181821
0.0197529
0.0213427
0.0229497
0.0245717
0.0262067
0.0278526
0.0295072
0.0311684
0.0328341
0.034502
0.0361699
0.0378358
0.0394974
0.0411524
0.0427988
0.0444343
0.0460567
0.0476639
0.0492536
0.0508237
0.0523721
0.0538967
0.0553954
0.0568662
0.0583069
0.0597157
0.0610907
0.0624298
0.0637313
0.0649934
0.0662143
0.0673923
0.068526
0.0696136
0.0706538
0.0716452
0.0725864
0.0734762
0.0743135
0.0750973
0.0758265
0.0765005
0.0771185
0.0776797
0.0781839
0.0786305
0.0790193
0.0793501
0.0796232
0.0798384
0.0799963
0.0800972
0.0801417
0.0801307
0.080065
0.0799457
0.0797741
0.0795516
0.0792799
0.0789608
0.0785963
0.0781885
0.0777399
0.0772531
0.0767308
0.076176
0.0755918
0.0749818
0.0743495
0.0736987
0.0730333
0.0723576
0.0716759
0.0709928
0.070313
0.0696413
0.0689827
0.0683421
0.0677248
0.0671359
0.0665807
0.0660641
0.0655913
0.0651673
0.064797
0.0644854
0.0642378
0.0640571
0.0639417
0.00426043
0.00402505
0.00375291
0.00343406
0.00306158
0.00264046
0.0021757
0.00167161
0.00113263
0.000563354
-3.16104e-05
-0.000647613
-0.00128
-0.00192414
-0.00257548
-0.00322954
-0.00388201
-0.00452869
-0.00516557
-0.00578879
-0.00639467
-0.00697972
-0.00754061
-0.00807425
-0.00857769
-0.0090482
-0.00948323
-0.0098804
-0.0102376
-0.0105527
-0.010824
-0.0110499
-0.0112289
-0.0113595
-0.0114407
-0.0114715
-0.0114509
-0.0113783
-0.0112531
-0.0110748
-0.010843
-0.0105577
-0.0102186
-0.00982574
-0.00937935
-0.00887965
-0.00832696
-0.0077217
-0.00706441
-0.0063557
-0.00559629
-0.00478696
-0.0039286
-0.00302215
-0.00206863
-0.00106914
-2.48358e-05
0.00106305
0.00219323
0.00336434
0.00457497
0.00582363
0.00710879
0.00842888
0.00978228
0.0111673
0.0125822
0.0140253
0.0154947
0.0169886
0.018505
0.0200421
0.0215979
0.0231705
0.0247578
0.0263577
0.0279683
0.0295875
0.0312131
0.0328431
0.0344753
0.0361077
0.037738
0.0393641
0.0409839
0.0425953
0.044196
0.045784
0.0473571
0.0489132
0.0504502
0.0519661
0.0534587
0.054926
0.056366
0.0577768
0.0591564
0.0605029
0.0618145
0.0630894
0.0643258
0.065522
0.0666764
0.0677875
0.0688537
0.0698736
0.0708458
0.0717691
0.0726423
0.0734643
0.0742341
0.0749507
0.0756134
0.0762214
0.0767742
0.0772713
0.0777123
0.0780969
0.0784251
0.0786968
0.0789123
0.0790719
0.0791759
0.0792249
0.0792198
0.0791613
0.0790507
0.078889
0.0786777
0.0784183
0.0781127
0.0777626
0.0773703
0.076938
0.0764681
0.0759634
0.0754266
0.0748608
0.0742692
0.0736552
0.0730224
0.0723745
0.0717154
0.0710492
0.0703801
0.0697126
0.0690509
0.0683998
0.0677638
0.0671476
0.0665559
0.0659934
0.0654646
0.0649743
0.0645266
0.064126
0.0637772
0.063485
0.0632456
0.0630513
0.00522762
0.00490617
0.00456872
0.00419936
0.00378382
0.00332673
0.00283288
0.00230592
0.00174969
0.00116819
0.000565527
-5.41321e-05
-0.000686594
-0.00132768
-0.00197325
-0.00261925
-0.00326173
-0.00389686
-0.00452093
-0.00513037
-0.00572178
-0.00629189
-0.00683761
-0.00735604
-0.00784443
-0.00830018
-0.00872091
-0.00910437
-0.00944851
-0.00975147
-0.0100115
-0.0102271
-0.0103968
-0.0105193
-0.0105935
-0.0106184
-0.0105933
-0.0105174
-0.0103902
-0.0102112
-0.00998007
-0.00969665
-0.00936084
-0.00897265
-0.00853224
-0.00803982
-0.00749571
-0.00690034
-0.0062542
-0.00555791
-0.00481216
-0.0040177
-0.00317539
-0.00228614
-0.00135095
-0.000370887
0.000652932
0.00171931
0.00282699
0.00397465
0.00516091
0.00638432
0.0076434
0.00893662
0.0102624
0.0116191
0.013005
0.0144185
0.0158577
0.0173208
0.018806
0.0203114
0.0218352
0.0233753
0.0249299
0.0264969
0.0280743
0.0296601
0.0312523
0.0328488
0.0344474
0.0360463
0.0376431
0.039236
0.0408227
0.0424012
0.0439693
0.045525
0.0470661
0.0485907
0.0500966
0.0515819
0.0530445
0.0544824
0.0558937
0.0572764
0.0586286
0.0599486
0.0612344
0.0624844
0.0636968
0.06487
0.0660023
0.0670923
0.0681385
0.0691394
0.0700938
0.0710005
0.0718581
0.0726658
0.0734225
0.0741272
0.0747793
0.0753781
0.0759229
0.0764133
0.0768489
0.0772295
0.0775549
0.0778253
0.0780408
0.0782015
0.0783081
0.078361
0.0783609
0.0783087
0.0782055
0.0780524
0.0778507
0.077602
0.0773079
0.0769703
0.0765912
0.0761728
0.0757173
0.0752274
0.0747056
0.074155
0.0735785
0.0729793
0.0723607
0.0717264
0.0710799
0.0704251
0.0697657
0.069106
0.0684499
0.0678017
0.0671656
0.0665459
0.0659467
0.0653723
0.0648269
0.0643144
0.0638388
0.0634038
0.0630138
0.0626733
0.0623715
0.0620951
0.00624556
0.00583613
0.00543097
0.00500823
0.00454642
0.00404985
0.00352319
0.00296947
0.00239192
0.00179406
0.00117953
0.000552033
-8.46701e-05
-0.000726828
-0.00137071
-0.00201263
-0.00264902
-0.00327635
-0.00389122
-0.00449036
-0.00507059
-0.00562891
-0.00616245
-0.00666848
-0.00714444
-0.0075879
-0.00799661
-0.00836847
-0.00870157
-0.00899413
-0.00924453
-0.00945126
-0.00961297
-0.00972845
-0.00979666
-0.00981668
-0.00978774
-0.00970918
-0.00958046
-0.00940113
-0.0091709
-0.00888957
-0.00855706
-0.00817342
-0.00773876
-0.00725331
-0.00671739
-0.0061314
-0.00549583
-0.00481129
-0.00407842
-0.00329799
-0.0024708
-0.00159776
-0.000679829
0.000281955
0.0012865
0.00233264
0.00341916
0.00454476
0.00570809
0.00690776
0.00814232
0.00941027
0.0107101
0.0120401
0.0133988
0.0147844
0.0161952
0.0176294
0.0190853
0.020561
0.0220546
0.0235643
0.0250881
0.0266242
0.0281704
0.029725
0.0312858
0.0328508
0.034418
0.0359854
0.037551
0.0391126
0.0406683
0.0422159
0.0437535
0.0452789
0.0467902
0.0482853
0.0497622
0.0512189
0.0526535
0.0540639
0.0554483
0.0568048
0.0581316
0.0594267
0.0606886
0.0619154
0.0631054
0.0642571
0.0653689
0.0664392
0.0674667
0.06845
0.0693878
0.0702789
0.0711221
0.0719165
0.0726609
0.0733546
0.0739968
0.0745869
0.0751242
0.0756082
0.0760387
0.0764154
0.0767382
0.0770071
0.0772222
0.0773838
0.0774924
0.0775484
0.0775526
0.0775057
0.0774088
0.077263
0.0770695
0.0768299
0.0765456
0.0762185
0.0758505
0.0754436
0.0750001
0.0745223
0.0740129
0.0734744
0.0729099
0.0723222
0.0717145
0.0710901
0.0704525
0.0698051
0.0691515
0.0684955
0.0678409
0.0671914
0.066551
0.0659235
0.0653127
0.0647223
0.0641562
0.0636178
0.0631105
0.0626374
0.0622029
0.0618112
0.0614445
0.0610838
0.00730399
0.00680561
0.00633109
0.00585282
0.00534216
0.00480322
0.00424056
0.00365668
0.00305428
0.00243644
0.00180635
0.00116728
0.000522584
-0.00012439
-0.000770286
-0.00141179
-0.00204564
-0.00266863
-0.00327766
-0.00386969
-0.00444184
-0.00499131
-0.00551544
-0.00601171
-0.0064777
-0.00691119
-0.00731005
-0.00767234
-0.00799626
-0.00828013
-0.00852241
-0.0087217
-0.0088767
-0.0089863
-0.00904951
-0.00906546
-0.00903343
-0.00895279
-0.00882301
-0.0086437
-0.00841456
-0.00813543
-0.00780624
-0.00742704
-0.00699794
-0.00651917
-0.00599103
-0.00541394
-0.00478837
-0.00411491
-0.0033942
-0.00262696
-0.001814
-0.000956192
-5.44785e-05
0.000890137
0.00187659
0.00290374
0.00397039
0.00507529
0.00621711
0.00739451
0.00860607
0.00985033
0.0111258
0.0124309
0.013764
0.0151235
0.0165076
0.0179148
0.0193432
0.020791
0.0222564
0.0237375
0.0252326
0.0267396
0.0282568
0.029782
0.0313134
0.032849
0.0343868
0.0359249
0.0374611
0.0389936
0.0405203
0.0420392
0.0435482
0.0450454
0.0465288
0.0479964
0.0494463
0.0508764
0.0522848
0.0536697
0.0550291
0.0563612
0.0576642
0.0589363
0.0601759
0.0613811
0.0625504
0.0636821
0.0647748
0.0658269
0.0668371
0.0678041
0.0687265
0.0696032
0.070433
0.0712149
0.071948
0.0726315
0.0732645
0.0738464
0.0743766
0.0748547
0.0752804
0.0756533
0.0759734
0.0762407
0.0764553
0.0766174
0.0767275
0.076786
0.0767936
0.0767511
0.0766595
0.0765197
0.0763331
0.076101
0.0758249
0.0755065
0.0751475
0.0747501
0.0743162
0.0738481
0.0733483
0.0728192
0.0722637
0.0716844
0.0710844
0.0704667
0.0698344
0.0691909
0.0685394
0.0678835
0.0672265
0.0665719
0.0659234
0.0652843
0.0646581
0.0640482
0.0634578
0.0628901
0.0623479
0.0618338
0.0613522
0.0609071
0.0604737
0.0600275
0.00839358
0.00780594
0.00726106
0.00672569
0.00616415
0.00558045
0.00497912
0.00436219
0.0037319
0.0030909
0.00244198
0.00178801
0.00113195
0.000476781
-0.000174497
-0.000818899
-0.00145347
-0.00207531
-0.00268156
-0.00326947
-0.00383639
-0.00437973
-0.00489705
-0.00538601
-0.00584437
-0.00627006
-0.00666113
-0.00701575
-0.00733224
-0.00760903
-0.00784468
-0.00803784
-0.00818734
-0.00829213
-0.00835128
-0.00836398
-0.00832954
-0.00824737
-0.00811698
-0.007938
-0.00771018
-0.00743337
-0.00710751
-0.00673265
-0.00630891
-0.00583652
-0.00531579
-0.00474712
-0.004131
-0.00346798
-0.00275869
-0.00200385
-0.00120424
-0.00036072
0.000525798
0.00145433
0.00242384
0.00343321
0.00448127
0.00556679
0.0066885
0.00784507
0.00903511
0.0102572
0.0115099
0.0127916
0.0141008
0.0154359
0.0167952
0.0181771
0.0195797
0.0210015
0.0224405
0.0238951
0.0253633
0.0268432
0.0283331
0.029831
0.031335
0.0328432
0.0343536
0.0358643
0.0373733
0.0388786
0.0403783
0.0418704
0.0433529
0.0448239
0.0462814
0.0477234
0.0491481
0.0505535
0.0519377
0.0532988
0.054635
0.0559446
0.0572256
0.0584764
0.0596953
0.0608806
0.0620306
0.0631439
0.064219
0.0652543
0.0662485
0.0672004
0.0681086
0.0689719
0.0697894
0.0705599
0.0712825
0.0719564
0.0725809
0.0731552
0.0736789
0.0741514
0.0745725
0.0749418
0.0752592
0.0755248
0.0757386
0.0759009
0.0760121
0.0760725
0.0760829
0.0760439
0.0759565
0.0758217
0.0756406
0.0754146
0.075145
0.0748335
0.0744818
0.0740918
0.0736653
0.0732046
0.072712
0.0721897
0.0716405
0.0710668
0.0704714
0.0698572
0.0692271
0.0685842
0.0679315
0.0672722
0.0666094
0.0659463
0.0652862
0.0646322
0.0639873
0.0633545
0.0627368
0.0621368
0.061557
0.0609996
0.0604688
0.0599685
0.0594672
0.0589351
0.00950581
0.00882911
0.00821338
0.00761977
0.0070058
0.00637541
0.00573322
0.00508082
0.00442003
0.00375312
0.00308249
0.00241065
0.00174021
0.0010738
0.000414092
-0.000236223
-0.000874484
-0.00149806
-0.00210437
-0.0026909
-0.00325523
-0.00379498
-0.00430791
-0.00479184
-0.00524475
-0.0056647
-0.00604989
-0.00639863
-0.00670935
-0.00698058
-0.00721097
-0.00739928
-0.00754442
-0.00764541
-0.00770139
-0.0077116
-0.0076754
-0.00759223
-0.00746165
-0.00728333
-0.00705703
-0.00678264
-0.00646011
-0.00608948
-0.0056709
-0.00520461
-0.00469091
-0.00413021
-0.00352298
-0.00286977
-0.0021712
-0.00142798
-0.000640861
0.000189304
0.00106162
0.00197514
0.00292883
0.0039216
0.00495232
0.00601977
0.00712272
0.00825986
0.00942985
0.0106313
0.0118628
0.0131227
0.0144097
0.015722
0.0170581
0.0184164
0.0197951
0.0211926
0.0226072
0.0240369
0.0254801
0.0269349
0.0283995
0.029872
0.0313505
0.0328332
0.0343181
0.0358034
0.037287
0.0387672
0.0402418
0.0417091
0.0431671
0.0446137
0.0460472
0.0474656
0.0488671
0.0502496
0.0516114
0.0529506
0.0542655
0.0555541
0.0568149
0.058046
0.0592459
0.0604128
0.0615452
0.0626415
0.0637004
0.0647202
0.0656998
0.0666378
0.0675329
0.068384
0.0691901
0.0699501
0.0706631
0.0713282
0.0719448
0.0725122
0.0730297
0.0734971
0.0739138
0.0742796
0.0745945
0.0748583
0.0750712
0.0752334
0.0753451
0.0754069
0.0754194
0.0753831
0.075299
0.075168
0.0749913
0.07477
0.0745055
0.0741993
0.0738531
0.0734685
0.0730475
0.072592
0.0721042
0.0715863
0.0710408
0.07047
0.0698766
0.069263
0.0686322
0.0679868
0.0673298
0.066664
0.0659923
0.0653176
0.0646428
0.0639708
0.0633042
0.0626458
0.061998
0.0613633
0.0607437
0.0601409
0.0595592
0.0590026
0.0584329
0.0578148
0.0106329
0.00986777
0.00918103
0.00852845
0.0078609
0.00718234
0.0064975
0.0058076
0.00511409
0.00441886
0.003724
0.00303167
0.00234415
0.00166376
0.000992893
0.000333938
-0.000310706
-0.000938672
-0.00154763
-0.00213531
-0.00269947
-0.00323797
-0.00374874
-0.00422979
-0.00467927
-0.0050954
-0.00547651
-0.00582105
-0.00612755
-0.00639464
-0.00662107
-0.00680572
-0.00694758
-0.00704573
-0.00709939
-0.00710784
-0.00707048
-0.00698681
-0.00685644
-0.00667906
-0.00645448
-0.00618259
-0.00586337
-0.00549688
-0.00508327
-0.00462278
-0.00411575
-0.00356256
-0.00296368
-0.00231966
-0.00163111
-0.000898731
-0.00012327
0.000694451
0.00155355
0.00245309
0.00339207
0.00436941
0.005384
0.00643466
0.00752017
0.00863927
0.00979064
0.0109729
0.0121846
0.0134244
0.0146907
0.0159819
0.0172965
0.0186329
0.0199895
0.0213645
0.0227563
0.024163
0.025583
0.0270145
0.0284557
0.0299046
0.0313596
0.0328187
0.0342801
0.0357418
0.0372021
0.038659
0.0401105
0.0415549
0.0429902
0.0444144
0.0458258
0.0472225
0.0486025
0.049964
0.0513052
0.0526243
0.0539195
0.055189
0.0564312
0.0576443
0.0588268
0.0599769
0.0610931
0.0621739
0.0632179
0.0642237
0.0651898
0.0661151
0.0669983
0.0678383
0.068634
0.0693844
0.0700886
0.0707458
0.0713551
0.0719161
0.072428
0.0728905
0.0733032
0.0736657
0.073978
0.0742401
0.0744519
0.0746136
0.0747256
0.0747883
0.0748022
0.0747679
0.0746862
0.0745581
0.0743845
0.0741667
0.0739059
0.0736035
0.073261
0.0728802
0.0724626
0.0720104
0.0715253
0.0710096
0.0704654
0.0698951
0.069301
0.0686855
0.0680512
0.0674006
0.0667365
0.0660614
0.0653779
0.0646888
0.0639966
0.0633038
0.0626129
0.0619263
0.0612462
0.0605747
0.0599134
0.0592636
0.0586299
0.0580161
0.0573777
0.0566741
0.0117679
0.0109151
0.0101575
0.00944556
0.00872363
0.00799577
0.00726686
0.00653778
0.00580964
0.00508402
0.00436272
0.00364758
0.00294059
0.00224379
0.00155931
0.000889256
0.000235782
-0.000398991
-0.00101297
-0.00160409
-0.00217033
-0.00270973
-0.00322041
-0.00370057
-0.0041485
-0.00456259
-0.00494131
-0.0052832
-0.00558692
-0.0058512
-0.00607492
-0.00625703
-0.00639661
-0.00649283
-0.00654495
-0.00655231
-0.00651436
-0.00643066
-0.00630086
-0.0061247
-0.005902
-0.00563269
-0.00531675
-0.00495428
-0.00454543
-0.00409048
-0.00358973
-0.00304359
-0.00245253
-0.00181709
-0.00113788
-0.00041559
0.000349046
0.00115522
0.00200206
0.00288865
0.00381399
0.00477704
0.0057767
0.00681182
0.00788121