/*--------------------------------*- C++ -*----------------------------------*\
  =========                 |
  \\      /  F ield         | OpenFOAM: The Open Source CFD Toolbox
   \\    /   O peration     | Website:  https://openfoam.org
    \\  /    A nd           | Version:  7
     \\/     M anipulation  |
\*---------------------------------------------------------------------------*/
FoamFile
{
    version     2.0;
    format      ascii;
    class       surfaceScalarField;
    location    "0.325";
    object      phi;
}
// * * * * * * * * * * * * * * * * * * * * * * * * * * * * * * * * * * * * * //

dimensions      [0 3 -1 0 0 0 0];

internalField   nonuniform List<scalar> 
50880
(
5.96208e-12
-6.26983e-12
3.62053e-11
-3.02338e-11
8.11052e-11
-4.49081e-11
1.30744e-10
-4.96375e-11
1.7798e-10
-4.72348e-11
2.17843e-10
-3.98582e-11
2.46901e-10
-2.9057e-11
2.6284e-10
-1.59432e-11
2.6414e-10
-1.30429e-12
2.49837e-10
1.42989e-11
2.19372e-10
3.04639e-11
1.72483e-10
4.68913e-11
1.09131e-10
6.33534e-11
2.94482e-11
7.96818e-11
-6.63004e-11
9.57477e-11
-1.77749e-10
1.11449e-10
-3.04457e-10
1.26707e-10
-4.45919e-10
1.41463e-10
-6.01587e-10
1.5567e-10
-7.70875e-10
1.69289e-10
-9.53168e-10
1.82292e-10
-1.14783e-09
1.9466e-10
-1.35421e-09
2.06375e-10
-1.57163e-09
2.17429e-10
-1.79945e-09
2.27812e-10
-2.03697e-09
2.37522e-10
-2.28352e-09
2.46556e-10
-2.53844e-09
2.54915e-10
-2.80104e-09
2.62602e-10
-3.07066e-09
2.6962e-10
-3.34664e-09
2.75976e-10
-3.62831e-09
2.81675e-10
-3.91504e-09
2.86725e-10
-4.20617e-09
2.91135e-10
-4.50108e-09
2.94913e-10
-4.79915e-09
2.98069e-10
-5.09977e-09
3.00614e-10
-5.40233e-09
3.02558e-10
-5.70624e-09
3.03911e-10
-6.01093e-09
3.04686e-10
-6.31582e-09
3.04895e-10
-6.62037e-09
3.04548e-10
-6.92403e-09
3.03659e-10
-7.22626e-09
3.02239e-10
-7.52657e-09
3.00301e-10
-7.82442e-09
2.97857e-10
-8.11934e-09
2.9492e-10
-8.41085e-09
2.91502e-10
-8.69846e-09
2.87617e-10
-8.98174e-09
2.83278e-10
-9.26024e-09
2.78497e-10
-9.53353e-09
2.73288e-10
-9.80119e-09
2.67663e-10
-1.00628e-08
2.61635e-10
-1.0318e-08
2.55218e-10
-1.05665e-08
2.48426e-10
-1.08077e-08
2.4127e-10
-1.10415e-08
2.33764e-10
-1.12674e-08
2.25922e-10
-1.14852e-08
2.17756e-10
-1.16945e-08
2.0928e-10
-1.1895e-08
2.00507e-10
-1.20864e-08
1.91452e-10
-1.22685e-08
1.82126e-10
-1.24411e-08
1.72544e-10
-1.26038e-08
1.6272e-10
-1.27565e-08
1.52667e-10
-1.28989e-08
1.42399e-10
-1.30308e-08
1.31929e-10
-1.31521e-08
1.21271e-10
-1.32625e-08
1.1044e-10
-1.3362e-08
9.94498e-11
-1.34503e-08
8.83145e-11
-1.35273e-08
7.70485e-11
-1.3593e-08
6.56661e-11
-1.36472e-08
5.41818e-11
-1.36898e-08
4.26104e-11
-1.37208e-08
3.09668e-11
-1.374e-08
1.92659e-11
-1.37475e-08
7.52291e-12
-1.37433e-08
-4.24706e-12
-1.37273e-08
-1.60286e-11
-1.36995e-08
-2.78061e-11
-1.36599e-08
-3.95639e-11
-1.36086e-08
-5.12864e-11
-1.35457e-08
-6.29575e-11
-1.34711e-08
-7.45611e-11
-1.3385e-08
-8.60809e-11
-1.32875e-08
-9.75006e-11
-1.31787e-08
-1.08804e-10
-1.30587e-08
-1.19974e-10
-1.29277e-08
-1.30994e-10
-1.27859e-08
-1.41848e-10
-1.26334e-08
-1.52519e-10
-1.24704e-08
-1.62989e-10
-1.22971e-08
-1.73242e-10
-1.21139e-08
-1.8326e-10
-1.19209e-08
-1.93027e-10
-1.17183e-08
-2.02526e-10
-1.15066e-08
-2.11738e-10
-1.12859e-08
-2.20648e-10
-1.10567e-08
-2.29239e-10
-1.08192e-08
-2.37492e-10
-1.05738e-08
-2.45392e-10
-1.03209e-08
-2.52922e-10
-1.00608e-08
-2.60064e-10
-9.79403e-09
-2.66803e-10
-9.5209e-09
-2.73121e-10
-9.2419e-09
-2.79004e-10
-8.95747e-09
-2.84434e-10
-8.66807e-09
-2.89397e-10
-8.37419e-09
-2.93876e-10
-8.07634e-09
-2.97858e-10
-7.77501e-09
-3.01326e-10
-7.47075e-09
-3.04267e-10
-7.16408e-09
-3.06666e-10
-6.85557e-09
-3.08511e-10
-6.54578e-09
-3.09787e-10
-6.2353e-09
-3.10483e-10
-5.92471e-09
-3.10587e-10
-5.61462e-09
-3.10086e-10
-5.30565e-09
-3.0897e-10
-4.99842e-09
-3.0723e-10
-4.69356e-09
-3.04856e-10
-4.39172e-09
-3.01839e-10
-4.09355e-09
-2.98171e-10
-3.79971e-09
-2.93845e-10
-3.51085e-09
-2.88856e-10
-3.22765e-09
-2.83199e-10
-2.95078e-09
-2.76869e-10
-2.68092e-09
-2.69865e-10
-2.41874e-09
-2.62185e-10
-2.16491e-09
-2.53829e-10
-1.92011e-09
-2.448e-10
-1.685e-09
-2.35102e-10
-1.46026e-09
-2.2474e-10
-1.24654e-09
-2.13723e-10
-1.04448e-09
-2.02064e-10
-8.54701e-10
-1.89776e-10
-6.77823e-10
-1.76879e-10
-5.14428e-10
-1.63396e-10
-3.65072e-10
-1.49356e-10
-2.30277e-10
-1.34794e-10
-1.10519e-10
-1.19758e-10
-6.21923e-12
-1.043e-10
8.22724e-11
-8.84903e-11
1.54689e-10
-7.24151e-11
2.10873e-10
-5.61831e-11
2.50804e-10
-3.99311e-11
2.7464e-10
-2.38354e-11
2.82768e-10
-8.12603e-12
2.75876e-10
6.89313e-12
2.55062e-10
2.08149e-11
2.2198e-10
3.30815e-11
1.79066e-10
4.29142e-11
1.29845e-10
4.92222e-11
7.93369e-11
5.051e-11
3.46131e-11
4.47247e-11
5.3279e-12
2.92838e-11
5.32232e-12
3.00676e-11
-3.63287e-11
1.01188e-10
-1.01369e-10
1.95432e-10
-1.39153e-10
2.95737e-10
-1.49934e-10
3.87737e-10
-1.39228e-10
4.60195e-10
-1.12315e-10
5.04656e-10
-7.35176e-11
5.14933e-10
-2.62235e-11
4.86638e-10
2.69844e-11
4.16779e-10
8.41579e-11
3.03431e-10
1.43814e-10
1.45506e-10
2.04816e-10
-5.74281e-11
2.66287e-10
-3.05294e-10
3.27548e-10
-5.97613e-10
3.88066e-10
-9.33588e-10
4.47422e-10
-1.31217e-09
5.05287e-10
-1.7321e-09
5.61399e-10
-2.19198e-09
6.1555e-10
-2.69026e-09
6.67576e-10
-3.22532e-09
7.1735e-10
-3.79544e-09
7.64773e-10
-4.39884e-09
8.0977e-10
-5.03369e-09
8.52285e-10
-5.69816e-09
8.92276e-10
-6.39035e-09
9.29719e-10
-7.10839e-09
9.64596e-10
-7.85037e-09
9.96901e-10
-8.61441e-09
1.02664e-09
-9.3986e-09
1.05381e-09
-1.02011e-08
1.07845e-09
-1.10199e-08
1.10055e-09
-1.18534e-08
1.12016e-09
-1.26995e-08
1.13729e-09
-1.35566e-08
1.15198e-09
-1.44228e-08
1.16426e-09
-1.52964e-08
1.17418e-09
-1.61756e-08
1.18176e-09
-1.70587e-08
1.18705e-09
-1.79441e-08
1.19009e-09
-1.88301e-08
1.19092e-09
-1.97152e-08
1.18959e-09
-2.05977e-08
1.18615e-09
-2.14761e-08
1.18064e-09
-2.23489e-08
1.1731e-09
-2.32146e-08
1.16359e-09
-2.40718e-08
1.15215e-09
-2.49192e-08
1.13884e-09
-2.57552e-08
1.12369e-09
-2.65787e-08
1.10677e-09
-2.73884e-08
1.08812e-09
-2.81829e-08
1.0678e-09
-2.8961e-08
1.04584e-09
-2.97217e-08
1.02231e-09
-3.04638e-08
9.97258e-10
-3.11861e-08
9.70728e-10
-3.18876e-08
9.42776e-10
-3.25673e-08
9.13453e-10
-3.32241e-08
8.8281e-10
-3.38573e-08
8.509e-10
-3.44658e-08
8.17775e-10
-3.50488e-08
7.83487e-10
-3.56054e-08
7.48088e-10
-3.61349e-08
7.11633e-10
-3.66365e-08
6.74174e-10
-3.71096e-08
6.35764e-10
-3.75534e-08
5.96457e-10
-3.79673e-08
5.56306e-10
-3.83507e-08
5.15368e-10
-3.87032e-08
4.73695e-10
-3.90241e-08
4.31344e-10
-3.9313e-08
3.8837e-10
-3.95695e-08
3.44829e-10
-3.97932e-08
3.00777e-10
-3.99838e-08
2.5627e-10
-4.0141e-08
2.11368e-10
-4.02645e-08
1.66126e-10
-4.03542e-08
1.20604e-10
-4.04098e-08
7.48604e-11
-4.04312e-08
2.89544e-11
-4.04184e-08
-1.70539e-11
-4.03713e-08
-6.31042e-11
-4.029e-08
-1.09136e-10
-4.01745e-08
-1.55086e-10
-4.00248e-08
-2.00895e-10
-3.98413e-08
-2.46498e-10
-3.9624e-08
-2.91833e-10
-3.93733e-08
-3.36836e-10
-3.90893e-08
-3.81444e-10
-3.87725e-08
-4.25592e-10
-3.84233e-08
-4.69215e-10
-3.8042e-08
-5.12247e-10
-3.76293e-08
-5.54624e-10
-3.71855e-08
-5.9628e-10
-3.67113e-08
-6.37148e-10
-3.62074e-08
-6.77162e-10
-3.56744e-08
-7.16256e-10
-3.51131e-08
-7.54362e-10
-3.45242e-08
-7.91416e-10
-3.39086e-08
-8.27349e-10
-3.32671e-08
-8.62095e-10
-3.26008e-08
-8.95589e-10
-3.19105e-08
-9.27765e-10
-3.11974e-08
-9.58556e-10
-3.04624e-08
-9.87897e-10
-2.97067e-08
-1.01572e-09
-2.89316e-08
-1.04197e-09
-2.81381e-08
-1.06658e-09
-2.73276e-08
-1.08948e-09
-2.65014e-08
-1.11062e-09
-2.56609e-08
-1.12994e-09
-2.48074e-08
-1.14736e-09
-2.39424e-08
-1.16285e-09
-2.30674e-08
-1.17633e-09
-2.21839e-08
-1.18776e-09
-2.12935e-08
-1.19708e-09
-2.03978e-08
-1.20425e-09
-1.94983e-08
-1.2092e-09
-1.85969e-08
-1.21189e-09
-1.76952e-08
-1.21229e-09
-1.6795e-08
-1.21034e-09
-1.58979e-08
-1.206e-09
-1.50059e-08
-1.19924e-09
-1.41208e-08
-1.19003e-09
-1.32443e-08
-1.17832e-09
-1.23783e-08
-1.1641e-09
-1.15249e-08
-1.14734e-09
-1.06857e-08
-1.12802e-09
-9.86276e-09
-1.10613e-09
-9.05799e-09
-1.08165e-09
-8.27328e-09
-1.05457e-09
-7.51056e-09
-1.02491e-09
-6.77172e-09
-9.92662e-10
-6.05868e-09
-9.57845e-10
-5.3733e-09
-9.2048e-10
-4.71744e-09
-8.80599e-10
-4.09292e-09
-8.38245e-10
-3.50151e-09
-7.9347e-10
-2.94494e-09
-7.46345e-10
-2.42487e-09
-6.96954e-10
-1.94286e-09
-6.45401e-10
-1.5004e-09
-5.91816e-10
-1.09884e-09
-5.36356e-10
-7.3938e-10
-4.79215e-10
-4.2305e-10
-4.20628e-10
-1.50653e-10
-3.60885e-10
7.72772e-11
-3.00345e-10
2.60547e-10
-2.39452e-10
3.99378e-10
-1.78761e-10
4.94515e-10
-1.18972e-10
5.47364e-10
-6.09746e-11
5.60171e-10
-5.9117e-12
5.36251e-10
4.47385e-11
4.80291e-10
8.90453e-11
3.98729e-10
1.24479e-10
3.00192e-10
1.47758e-10
1.95948e-10
1.54753e-10
1.00152e-10
1.40528e-10
2.92727e-11
1.00173e-10
3.45946e-11
4.48355e-11
-8.11715e-11
1.39108e-10
-1.95639e-10
2.56326e-10
-2.56365e-10
3.74866e-10
-2.68463e-10
4.76443e-10
-2.408e-10
5.46187e-10
-1.82058e-10
5.72394e-10
-9.97287e-11
5.46111e-10
5.11549e-14
4.60709e-10
1.12381e-10
3.11454e-10
2.33416e-10
9.51467e-11
3.60125e-10
-1.90166e-10
4.90128e-10
-5.45427e-10
6.21549e-10
-9.7078e-10
7.52901e-10
-1.46572e-09
8.83002e-10
-2.0292e-09
1.01091e-09
-2.65978e-09
1.13586e-09
-3.35564e-09
1.25726e-09
-4.11471e-09
1.37462e-09
-4.93469e-09
1.48755e-09
-5.8131e-09
1.59575e-09
-6.74729e-09
1.69897e-09
-7.73454e-09
1.79702e-09
-8.77201e-09
1.88976e-09
-9.85682e-09
1.97708e-09
-1.0986e-08
2.05891e-09
-1.21566e-08
2.13519e-09
-1.33656e-08
2.2059e-09
-1.461e-08
2.27104e-09
-1.58868e-08
2.33061e-09
-1.7193e-08
2.38463e-09
-1.85256e-08
2.43314e-09
-1.98816e-08
2.47618e-09
-2.12581e-08
2.51381e-09
-2.26522e-08
2.5461e-09
-2.40611e-08
2.5731e-09
-2.54818e-08
2.5949e-09
-2.69116e-08
2.61158e-09
-2.83478e-08
2.62322e-09
-2.97876e-08
2.62991e-09
-3.12284e-08
2.63173e-09
-3.26676e-08
2.6288e-09
-3.41027e-08
2.6212e-09
-3.55311e-08
2.60904e-09
-3.69504e-08
2.59241e-09
-3.83582e-08
2.57142e-09
-3.97522e-08
2.54618e-09
-4.11302e-08
2.51679e-09
-4.24899e-08
2.48336e-09
-4.38291e-08
2.446e-09
-4.51458e-08
2.40482e-09
-4.64379e-08
2.35993e-09
-4.77035e-08
2.31143e-09
-4.89407e-08
2.25945e-09
-5.01475e-08
2.20409e-09
-5.13222e-08
2.14547e-09
-5.24631e-08
2.0837e-09
-5.35686e-08
2.01889e-09
-5.46369e-08
1.95116e-09
-5.56667e-08
1.88062e-09
-5.66563e-08
1.8074e-09
-5.76044e-08
1.7316e-09
-5.85096e-08
1.65334e-09
-5.93707e-08
1.57274e-09
-6.01865e-08
1.48991e-09
-6.09557e-08
1.40498e-09
-6.16773e-08
1.31807e-09
-6.23503e-08
1.22929e-09
-6.29737e-08
1.13877e-09
-6.35466e-08
1.04662e-09
-6.40682e-08
9.52971e-10
-6.45378e-08
8.57945e-10
-6.49547e-08
7.61666e-10
-6.53181e-08
6.64259e-10
-6.56277e-08
5.6585e-10
-6.58829e-08
4.66567e-10
-6.60833e-08
3.66537e-10
-6.62286e-08
2.65891e-10
-6.63185e-08
1.64758e-10
-6.63528e-08
6.32711e-11
-6.63314e-08
-3.84376e-11
-6.62543e-08
-1.40234e-10
-6.61215e-08
-2.41983e-10
-6.5933e-08
-3.43548e-10
-6.56891e-08
-4.44791e-10
-6.539e-08
-5.45575e-10
-6.50361e-08
-6.45759e-10
-6.46277e-08
-7.45203e-10
-6.41654e-08
-8.43765e-10
-6.36497e-08
-9.41304e-10
-6.30812e-08
-1.03767e-09
-6.24608e-08
-1.13273e-09
-6.1789e-08
-1.22634e-09
-6.1067e-08
-1.31834e-09
-6.02955e-08
-1.40859e-09
-5.94758e-08
-1.49695e-09
-5.86088e-08
-1.58327e-09
-5.76957e-08
-1.66739e-09
-5.67379e-08
-1.74919e-09
-5.57368e-08
-1.8285e-09
-5.46937e-08
-1.90519e-09
-5.36102e-08
-1.97911e-09
-5.24878e-08
-2.0501e-09
-5.13284e-08
-2.11804e-09
-5.01335e-08
-2.18276e-09
-4.89051e-08
-2.24415e-09
-4.7645e-08
-2.30204e-09
-4.63553e-08
-2.35631e-09
-4.5038e-08
-2.40681e-09
-4.36952e-08
-2.45341e-09
-4.23291e-08
-2.49599e-09
-4.09421e-08
-2.5344e-09
-3.95364e-08
-2.56853e-09
-3.81145e-08
-2.59825e-09
-3.66788e-08
-2.62344e-09
-3.52319e-08
-2.64399e-09
-3.37763e-08
-2.65978e-09
-3.23148e-08
-2.67071e-09
-3.08501e-08
-2.67666e-09
-2.93848e-08
-2.67756e-09
-2.79218e-08
-2.6733e-09
-2.6464e-08
-2.6638e-09
-2.50143e-08
-2.64898e-09
-2.35755e-08
-2.62877e-09
-2.21508e-08
-2.6031e-09
-2.07429e-08
-2.57192e-09
-1.93551e-08
-2.53517e-09
-1.79903e-08
-2.49283e-09
-1.66516e-08
-2.44486e-09
-1.5342e-08
-2.39124e-09
-1.40646e-08
-2.33198e-09
-1.28224e-08
-2.26707e-09
-1.16185e-08
-2.19655e-09
-1.04559e-08
-2.12046e-09
-9.33754e-09
-2.03884e-09
-8.26634e-09
-1.9518e-09
-7.24516e-09
-1.85943e-09
-6.27677e-09
-1.76186e-09
-5.36384e-09
-1.65927e-09
-4.50894e-09
-1.55186e-09
-3.71446e-09
-1.43988e-09
-2.98264e-09
-1.32363e-09
-2.3155e-09
-1.2035e-09
-1.7148e-09
-1.07991e-09
-1.182e-09
-9.53428e-10
-7.18178e-10
-8.24708e-10
-3.23962e-10
-6.94561e-10
5.67307e-13
-5.63982e-10
2.56004e-10
-4.34195e-10
4.43757e-10
-3.06722e-10
5.66249e-10
-1.83462e-10
6.27141e-10
-6.6799e-11
6.31617e-10
4.02649e-11
5.86721e-10
1.3394e-10
5.01739e-10
2.09458e-10
3.8859e-10
2.60901e-10
2.6218e-10
2.81158e-10
1.40548e-10
2.62161e-10
4.47076e-11
1.9602e-10
7.93045e-11
4.96905e-11
-1.30862e-10
1.5025e-10
-2.96194e-10
2.69071e-10
-3.75179e-10
3.80967e-10
-3.80352e-10
4.65128e-10
-3.24963e-10
5.04494e-10
-2.21429e-10
4.85347e-10
-8.05897e-11
3.9692e-10
8.84725e-11
2.30984e-10
2.78316e-10
-1.85115e-11
4.82914e-10
-3.558e-10
6.97414e-10
-7.83589e-10
9.17916e-10
-1.30333e-09
1.14129e-09
-1.91542e-09
1.365e-09
-2.61943e-09
1.58701e-09
-3.4142e-09
1.80567e-09
-4.29799e-09
2.01965e-09
-5.26859e-09
2.22787e-09
-6.3234e-09
2.42943e-09
-7.45949e-09
2.62365e-09
-8.67368e-09
2.80994e-09
-9.96256e-09
2.98785e-09
-1.13226e-08
3.15702e-09
-1.275e-08
3.31718e-09
-1.4241e-08
3.4681e-09
-1.57917e-08
3.60963e-09
-1.73982e-08
3.74167e-09
-1.90565e-08
3.86415e-09
-2.07624e-08
3.97703e-09
-2.25122e-08
4.08032e-09
-2.43016e-08
4.17403e-09
-2.61267e-08
4.25822e-09
-2.79834e-08
4.33295e-09
-2.98679e-08
4.39831e-09
-3.17762e-08
4.45439e-09
-3.37044e-08
4.50131e-09
-3.56487e-08
4.53918e-09
-3.76053e-08
4.56815e-09
-3.95704e-08
4.58834e-09
-4.15404e-08
4.59992e-09
-4.35117e-08
4.60303e-09
-4.54808e-08
4.59784e-09
-4.74441e-08
4.58452e-09
-4.93982e-08
4.56322e-09
-5.134e-08
4.53413e-09
-5.3266e-08
4.49743e-09
-5.51731e-08
4.4533e-09
-5.70582e-08
4.40192e-09
-5.89183e-08
4.34347e-09
-6.07505e-08
4.27815e-09
-6.25518e-08
4.20614e-09
-6.43195e-08
4.12764e-09
-6.60509e-08
4.04284e-09
-6.77434e-08
3.95193e-09
-6.93944e-08
3.85511e-09
-7.10015e-08
3.75258e-09
-7.25624e-08
3.64453e-09
-7.40747e-08
3.53117e-09
-7.55362e-08
3.41269e-09
-7.69449e-08
3.2893e-09
-7.82987e-08
3.16119e-09
-7.95956e-08
3.02857e-09
-8.08339e-08
2.89165e-09
-8.20118e-08
2.75062e-09
-8.31276e-08
2.60571e-09
-8.41797e-08
2.45711e-09
-8.51667e-08
2.30503e-09
-8.60871e-08
2.14968e-09
-8.69396e-08
1.99129e-09
-8.77231e-08
1.83005e-09
-8.84363e-08
1.66619e-09
-8.90782e-08
1.49991e-09
-8.9648e-08
1.33145e-09
-9.01448e-08
1.16102e-09
-9.05678e-08
9.88831e-10
-9.09163e-08
8.15121e-10
-9.11899e-08
6.40109e-10
-9.1388e-08
4.64024e-10
-9.15103e-08
2.87094e-10
-9.15566e-08
1.09552e-10
-9.15267e-08
-6.83718e-11
-9.14205e-08
-2.4644e-10
-9.12381e-08
-4.24417e-10
-9.09795e-08
-6.02064e-10
-9.06452e-08
-7.79139e-10
-9.02354e-08
-9.55399e-10
-8.97505e-08
-1.1306e-09
-8.91912e-08
-1.3045e-09
-8.85581e-08
-1.47684e-09
-8.78521e-08
-1.64739e-09
-8.70739e-08
-1.81588e-09
-8.62245e-08
-1.98206e-09
-8.53052e-08
-2.14569e-09
-8.4317e-08
-2.3065e-09
-8.32614e-08
-2.46425e-09
-8.21396e-08
-2.61867e-09
-8.09534e-08
-2.76952e-09
-7.97042e-08
-2.91653e-09
-7.8394e-08
-3.05945e-09
-7.70245e-08
-3.19802e-09
-7.55977e-08
-3.332e-09
-7.41157e-08
-3.46111e-09
-7.25806e-08
-3.58512e-09
-7.09949e-08
-3.70377e-09
-6.93608e-08
-3.81682e-09
-6.7681e-08
-3.92401e-09
-6.59579e-08
-4.0251e-09
-6.41944e-08
-4.11986e-09
-6.23931e-08
-4.20803e-09
-6.05571e-08
-4.2894e-09
-5.86894e-08
-4.36373e-09
-5.6793e-08
-4.4308e-09
-5.48712e-08
-4.49039e-09
-5.29271e-08
-4.54228e-09
-5.09643e-08
-4.58628e-09
-4.89861e-08
-4.62217e-09
-4.69961e-08
-4.64978e-09
-4.49979e-08
-4.66891e-09
-4.29952e-08
-4.6794e-09
-4.09917e-08
-4.68106e-09
-3.89912e-08
-4.67376e-09
-3.69976e-08
-4.65735e-09
-3.50149e-08
-4.63169e-09
-3.3047e-08
-4.59666e-09
-3.1098e-08
-4.55216e-09
-2.91718e-08
-4.49809e-09
-2.72726e-08
-4.43439e-09
-2.54044e-08
-4.36098e-09
-2.35715e-08
-4.27784e-09
-2.17778e-08
-4.18494e-09
-2.00275e-08
-4.08228e-09
-1.83246e-08
-3.9699e-09
-1.66734e-08
-3.84784e-09
-1.50776e-08
-3.7162e-09
-1.35413e-08
-3.5751e-09
-1.20685e-08
-3.4247e-09
-1.06627e-08
-3.26519e-09
-9.32771e-09
-3.09684e-09
-8.06702e-09
-2.91996e-09
-6.88394e-09
-2.73494e-09
-5.78158e-09
-2.54223e-09
-4.76281e-09
-2.34241e-09
-3.83016e-09
-2.13614e-09
-2.98585e-09
-1.92423e-09
-2.23162e-09
-1.70766e-09
-1.56872e-09
-1.4876e-09
-9.97797e-10
-1.26549e-09
-5.18736e-10
-1.04304e-09
-1.3056e-10
-8.22368e-10
1.68763e-10
-6.06044e-10
3.8253e-10
-3.9723e-10
5.15546e-10
-1.99816e-10
5.74415e-10
-1.86019e-11
5.67854e-10
1.40506e-10
5.07037e-10
2.70278e-10
4.05953e-10
3.61989e-10
2.81746e-10
4.05369e-10
1.55044e-10
3.88861e-10
5.05506e-11
3.0051e-10
1.29858e-10
4.74816e-11
-1.78337e-10
1.40171e-10
-3.88873e-10
2.42595e-10
-4.77598e-10
3.27378e-10
-4.65132e-10
3.72153e-10
-3.6974e-10
3.58563e-10
-2.07847e-10
2.71701e-10
6.2635e-12
9.96744e-11
2.605e-10
-1.66786e-10
5.4478e-10
-5.3465e-10
8.50779e-10
-1.0089e-09
1.17167e-09
-1.59285e-09
1.50186e-09
-2.28835e-09
1.83678e-09
-3.09605e-09
2.1727e-09
-4.01561e-09
2.50657e-09
-5.0458e-09
2.83586e-09
-6.18469e-09
3.15855e-09
-7.42976e-09
3.47294e-09
-8.77798e-09
3.77766e-09
-1.02259e-08
4.07159e-09
-1.17698e-08
4.35381e-09
-1.34056e-08
4.62361e-09
-1.51289e-08
4.88037e-09
-1.69354e-08
5.12364e-09
-1.88203e-08
5.35306e-09
-2.0779e-08
5.56835e-09
-2.28067e-08
5.76932e-09
-2.48984e-08
5.95584e-09
-2.70492e-08
6.12784e-09
-2.92542e-08
6.28528e-09
-3.15083e-08
6.42819e-09
-3.38067e-08
6.55662e-09
-3.61444e-08
6.67064e-09
-3.85165e-08
6.77039e-09
-4.09181e-08
6.85598e-09
-4.33443e-08
6.92758e-09
-4.57905e-08
6.98536e-09
-4.82519e-08
7.02952e-09
-5.07238e-08
7.06026e-09
-5.32017e-08
7.0778e-09
-5.5681e-08
7.08237e-09
-5.81574e-08
7.07421e-09
-6.06264e-08
7.05357e-09
-6.30839e-08
7.02071e-09
-6.55257e-08
6.97588e-09
-6.79476e-08
6.91937e-09
-7.03457e-08
6.85143e-09
-7.27162e-08
6.77235e-09
-7.50551e-08
6.68242e-09
-7.73589e-08
6.58191e-09
-7.96239e-08
6.47112e-09
-8.18466e-08
6.35034e-09
-8.40236e-08
6.21987e-09
-8.61517e-08
6.08e-09
-8.82276e-08
5.93103e-09
-9.02483e-08
5.77327e-09
-9.22108e-08
5.60702e-09
-9.41122e-08
5.43258e-09
-9.59498e-08
5.25026e-09
-9.77208e-08
5.06037e-09
-9.94229e-08
4.86323e-09
-1.01053e-07
4.65914e-09
-1.0261e-07
4.44842e-09
-1.04091e-07
4.23139e-09
-1.05494e-07
4.00837e-09
-1.06816e-07
3.77967e-09
-1.08057e-07
3.54562e-09
-1.09214e-07
3.30654e-09
-1.10285e-07
3.06276e-09
-1.1127e-07
2.81461e-09
-1.12166e-07
2.56242e-09
-1.12973e-07
2.30653e-09
-1.13688e-07
2.04727e-09
-1.14312e-07
1.78497e-09
-1.14843e-07
1.52e-09
-1.15281e-07
1.25268e-09
-1.15624e-07
9.83361e-10
-1.15873e-07
7.12402e-10
-1.16026e-07
4.40152e-10
-1.16083e-07
1.66968e-10
-1.16045e-07
-1.06791e-10
-1.1591e-07
-3.80763e-10
-1.1568e-07
-6.54581e-10
-1.15354e-07
-9.27879e-10
-1.14933e-07
-1.20028e-09
-1.14417e-07
-1.47142e-09
-1.13807e-07
-1.74092e-09
-1.13103e-07
-2.0084e-09
-1.12306e-07
-2.27347e-09
-1.11418e-07
-2.53575e-09
-1.10439e-07
-2.79487e-09
-1.09371e-07
-3.05042e-09
-1.08214e-07
-3.30203e-09
-1.06972e-07
-3.54929e-09
-1.05644e-07
-3.79182e-09
-1.04233e-07
-4.02923e-09
-1.02742e-07
-4.26112e-09
-1.01171e-07
-4.4871e-09
-9.95239e-08
-4.70678e-09
-9.78022e-08
-4.91977e-09
-9.60085e-08
-5.12567e-09
-9.41455e-08
-5.3241e-09
-9.22159e-08
-5.51467e-09
-9.02227e-08
-5.69699e-09
-8.81689e-08
-5.87069e-09
-8.60575e-08
-6.03538e-09
-8.38919e-08
-6.19071e-09
-8.16755e-08
-6.33628e-09
-7.94117e-08
-6.47176e-09
-7.71044e-08
-6.59678e-09
-7.47571e-08
-6.71098e-09
-7.23739e-08
-6.81404e-09
-6.99586e-08
-6.90562e-09
-6.75155e-08
-6.98539e-09
-6.50488e-08
-7.05305e-09
-6.25626e-08
-7.10828e-09
-6.00616e-08
-7.15082e-09
-5.75502e-08
-7.18036e-09
-5.50329e-08
-7.19666e-09
-5.25145e-08
-7.19946e-09
-4.99997e-08
-7.18854e-09
-4.74934e-08
-7.16368e-09
-4.50004e-08
-7.12468e-09
-4.25257e-08
-7.07136e-09
-4.00743e-08
-7.00359e-09
-3.76511e-08
-6.92121e-09
-3.52614e-08
-6.82413e-09
-3.29101e-08
-6.71228e-09
-3.06023e-08
-6.5856e-09
-2.83432e-08
-6.44407e-09
-2.61378e-08
-6.28773e-09
-2.3991e-08
-6.11662e-09
-2.1908e-08
-5.93085e-09
-1.98937e-08
-5.73059e-09
-1.79527e-08
-5.51602e-09
-1.609e-08
-5.28743e-09
-1.431e-08
-5.04515e-09
-1.26173e-08
-4.78961e-09
-1.10159e-08
-4.52131e-09
-9.50999e-09
-4.24087e-09
-8.10318e-09
-3.94904e-09
-6.79888e-09
-3.64671e-09
-5.60007e-09
-3.33495e-09
-4.50928e-09
-3.01501e-09
-3.52851e-09
-2.68843e-09
-2.6591e-09
-2.35701e-09
-1.90165e-09
-2.02293e-09
-1.25589e-09
-1.68881e-09
-7.20474e-10
-1.35778e-09
-2.9287e-10
-1.03364e-09
3.09058e-11
-7.21004e-10
2.56507e-10
-4.25419e-10
3.91531e-10
-1.53628e-10
4.4581e-10
8.6228e-11
4.31716e-10
2.84374e-10
3.64507e-10
4.29204e-10
2.62708e-10
5.07171e-10
1.48641e-10
5.02924e-10
4.94213e-11
3.99727e-10
1.79281e-10
4.03802e-11
-2.18711e-10
1.14149e-10
-4.62637e-10
1.85561e-10
-5.49013e-10
2.26469e-10
-5.06042e-10
2.13831e-10
-3.5711e-10
1.28694e-10
-1.22717e-10
-4.44443e-11
1.79398e-10
-3.18082e-10
5.3414e-10
-7.02079e-10
9.28779e-10
-1.20396e-09
1.35266e-09
-1.82921e-09
1.79692e-09
-2.58153e-09
2.25418e-09
-3.46307e-09
2.71833e-09
-4.47468e-09
3.18431e-09
-5.61605e-09
3.64794e-09
-6.88592e-09
4.10574e-09
-8.2822e-09
4.55483e-09
-9.80212e-09
4.99285e-09
-1.14423e-08
5.41783e-09
-1.31989e-08
5.82815e-09
-1.50675e-08
6.22249e-09
-1.70437e-08
6.59977e-09
-1.91224e-08
6.9591e-09
-2.12986e-08
7.2998e-09
-2.35668e-08
7.6213e-09
-2.59217e-08
7.92319e-09
-2.83575e-08
8.20515e-09
-3.08686e-08
8.46696e-09
-3.34493e-08
8.70849e-09
-3.60937e-08
8.92966e-09
-3.87959e-08
9.13048e-09
-4.15503e-08
9.31099e-09
-4.4351e-08
9.47129e-09
-4.71921e-08
9.61151e-09
-5.0068e-08
9.73183e-09
-5.29728e-08
9.83246e-09
-5.59011e-08
9.91361e-09
-5.88471e-08
9.97556e-09
-6.18055e-08
1.00186e-08
-6.47706e-08
1.0043e-08
-6.77373e-08
1.0049e-08
-7.07002e-08
1.00371e-08
-7.36542e-08
1.00075e-08
-7.65942e-08
9.96069e-09
-7.95152e-08
9.89691e-09
-8.24124e-08
9.81657e-09
-8.5281e-08
9.72007e-09
-8.81165e-08
9.60778e-09
-9.09141e-08
9.48011e-09
-9.36697e-08
9.33745e-09
-9.63788e-08
9.18022e-09
-9.90373e-08
9.00882e-09
-1.01641e-07
8.82368e-09
-1.04186e-07
8.6252e-09
-1.06669e-07
8.41382e-09
-1.09086e-07
8.18996e-09
-1.11433e-07
7.95405e-09
-1.13707e-07
7.70652e-09
-1.15904e-07
7.44782e-09
-1.18022e-07
7.17837e-09
-1.20058e-07
6.89861e-09
-1.22008e-07
6.60901e-09
-1.23869e-07
6.30999e-09
-1.2564e-07
6.00201e-09
-1.27317e-07
5.68552e-09
-1.28898e-07
5.36098e-09
-1.30381e-07
5.02884e-09
-1.31764e-07
4.68958e-09
-1.33045e-07
4.34364e-09
-1.34222e-07
3.99151e-09
-1.35293e-07
3.63365e-09
-1.36257e-07
3.27053e-09
-1.37113e-07
2.90264e-09
-1.37858e-07
2.53046e-09
-1.38493e-07
2.15448e-09
-1.39015e-07
1.77518e-09
-1.39425e-07
1.39306e-09
-1.39721e-07
1.00862e-09
-1.39903e-07
6.22356e-10
-1.39971e-07
2.34782e-10
-1.39924e-07
-1.53592e-10
-1.39763e-07
-5.42254e-10
-1.39487e-07
-9.30683e-10
-1.39096e-07
-1.31836e-09
-1.38592e-07
-1.70475e-09
-1.37974e-07
-2.08933e-09
-1.37243e-07
-2.47156e-09
-1.36401e-07
-2.85091e-09
-1.35447e-07
-3.22683e-09
-1.34384e-07
-3.59878e-09
-1.33213e-07
-3.96621e-09
-1.31935e-07
-4.32857e-09
-1.30552e-07
-4.68532e-09
-1.29065e-07
-5.03589e-09
-1.27477e-07
-5.37974e-09
-1.2579e-07
-5.7163e-09
-1.24006e-07
-6.04503e-09
-1.22128e-07
-6.36536e-09
-1.20158e-07
-6.67674e-09
-1.18099e-07
-6.97862e-09
-1.15954e-07
-7.27045e-09
-1.13727e-07
-7.55167e-09
-1.1142e-07
-7.82174e-09
-1.09037e-07
-8.08012e-09
-1.06581e-07
-8.32627e-09
-1.04057e-07
-8.55967e-09
-1.01468e-07
-8.77977e-09
-9.88178e-08
-8.98607e-09
-9.61115e-08
-9.17807e-09
-9.33531e-08
-9.35525e-09
-9.05469e-08
-9.51713e-09
-8.76977e-08
-9.66323e-09
-8.48103e-08
-9.79308e-09
-8.18894e-08
-9.90624e-09
-7.89402e-08
-1.00023e-08
-7.59678e-08
-1.00807e-08
-7.29773e-08
-1.01412e-08
-6.99743e-08
-1.01834e-08
-6.6964e-08
-1.02069e-08
-6.39522e-08
-1.02113e-08
-6.09444e-08
-1.01963e-08
-5.79463e-08
-1.01617e-08
-5.49638e-08
-1.01072e-08
-5.20027e-08
-1.00325e-08
-4.90689e-08
-9.93741e-09
-4.61683e-08
-9.8218e-09
-4.33069e-08
-9.68551e-09
-4.04907e-08
-9.52846e-09
-3.77257e-08
-9.35059e-09
-3.50179e-08
-9.15189e-09
-3.23732e-08
-8.93243e-09
-2.97975e-08
-8.69231e-09
-2.72967e-08
-8.43169e-09
-2.48764e-08
-8.15083e-09
-2.25424e-08
-7.85004e-09
-2.03001e-08
-7.52973e-09
-1.81548e-08
-7.19042e-09
-1.61117e-08
-6.83274e-09
-1.41756e-08
-6.45744e-09
-1.2351e-08
-6.06543e-09
-1.06423e-08
-5.6578e-09
-9.05313e-09
-5.23584e-09
-7.58699e-09
-4.80109e-09
-6.24664e-09
-4.35536e-09
-5.03425e-09
-3.90081e-09
-3.95127e-09
-3.44e-09
-2.99826e-09
-2.97595e-09
-2.17478e-09
-2.51228e-09
-1.47926e-09
-2.0533e-09
-9.08774e-10
-1.60413e-09
-4.58855e-10
-1.17092e-09
-1.23285e-10
-7.60985e-10
1.06168e-10
-3.83078e-10
2.40002e-10
-4.76065e-11
2.91274e-10
2.331e-10
2.7593e-10
4.4455e-10
2.13225e-10
5.69879e-10
1.2633e-10
5.89817e-10
4.3388e-11
4.82671e-10
2.22668e-10
2.99246e-11
-2.48634e-10
7.64745e-11
-5.09191e-10
1.05377e-10
-5.77921e-10
8.89122e-11
-4.89586e-10
4.1763e-12
-2.72381e-10
-1.67792e-10
4.92509e-11
-4.42602e-10
4.54211e-10
-8.32935e-10
9.24474e-10
-1.34888e-09
1.44472e-09
-1.99821e-09
2.00199e-09
-2.78665e-09
2.58536e-09
-3.71812e-09
3.18565e-09
-4.79494e-09
3.79514e-09
-6.01803e-09
4.40741e-09
-7.38712e-09
5.01702e-09
-8.90086e-09
5.61948e-09
-1.0557e-08
6.211e-09
-1.23526e-08
6.78843e-09
-1.42839e-08
7.34914e-09
-1.63467e-08
7.89095e-09
-1.85363e-08
8.41206e-09
-2.08475e-08
8.91098e-09
-2.32749e-08
9.3865e-09
-2.58127e-08
9.83763e-09
-2.8455e-08
1.02636e-08
-3.11956e-08
1.06638e-08
-3.40281e-08
1.10377e-08
-3.69462e-08
1.13851e-08
-3.99434e-08
1.17056e-08
-4.3013e-08
1.19993e-08
-4.61485e-08
1.2266e-08
-4.93432e-08
1.25057e-08
-5.25906e-08
1.27186e-08
-5.5884e-08
1.29049e-08
-5.92168e-08
1.30647e-08
-6.25825e-08
1.31982e-08
-6.59747e-08
1.33058e-08
-6.9387e-08
1.33879e-08
-7.28131e-08
1.34446e-08
-7.62466e-08
1.34765e-08
-7.96816e-08
1.3484e-08
-8.31119e-08
1.34674e-08
-8.65315e-08
1.34272e-08
-8.99348e-08
1.33639e-08
-9.33159e-08
1.3278e-08
-9.66692e-08
1.31699e-08
-9.99893e-08
1.30402e-08
-1.03271e-07
1.28893e-08
-1.06509e-07
1.27179e-08
-1.09697e-07
1.25263e-08
-1.12833e-07
1.23152e-08
-1.15909e-07
1.20852e-08
-1.18922e-07
1.18367e-08
-1.21867e-07
1.15703e-08
-1.2474e-07
1.12866e-08
-1.27536e-07
1.09862e-08
-1.30252e-07
1.06697e-08
-1.32883e-07
1.03375e-08
-1.35425e-07
9.99035e-09
-1.37876e-07
9.62878e-09
-1.4023e-07
9.25339e-09
-1.42486e-07
8.86477e-09
-1.4464e-07
8.46353e-09
-1.46688e-07
8.05027e-09
-1.48628e-07
7.62559e-09
-1.50457e-07
7.19011e-09
-1.52173e-07
6.74444e-09
-1.53772e-07
6.2892e-09
-1.55254e-07
5.82502e-09
-1.56615e-07
5.35253e-09
-1.57854e-07
4.87236e-09
-1.58968e-07
4.38515e-09
-1.59957e-07
3.89154e-09
-1.60819e-07
3.39219e-09
-1.61552e-07
2.88774e-09
-1.62156e-07
2.37886e-09
-1.62629e-07
1.8662e-09
-1.62971e-07
1.35045e-09
-1.63181e-07
8.3227e-10
-1.63258e-07
3.12347e-10
-1.63203e-07
-2.08634e-10
-1.63015e-07
-7.29981e-10
-1.62695e-07
-1.251e-09
-1.62242e-07
-1.77098e-09
-1.61658e-07
-2.28923e-09
-1.60942e-07
-2.80502e-09
-1.60096e-07
-3.31764e-09
-1.59121e-07
-3.82637e-09
-1.58017e-07
-4.33048e-09
-1.56787e-07
-4.82925e-09
-1.55431e-07
-5.32193e-09
-1.53952e-07
-5.8078e-09
-1.52351e-07
-6.28612e-09
-1.50631e-07
-6.75614e-09
-1.48793e-07
-7.21712e-09
-1.46841e-07
-7.66831e-09
-1.44777e-07
-8.10899e-09
-1.42604e-07
-8.53839e-09
-1.40325e-07
-8.95578e-09
-1.37943e-07
-9.36042e-09
-1.35462e-07
-9.75157e-09
-1.32885e-07
-1.01285e-08
-1.30217e-07
-1.04905e-08
-1.2746e-07
-1.08368e-08
-1.2462e-07
-1.11667e-08
-1.217e-07
-1.14795e-08
-1.18705e-07
-1.17745e-08
-1.1564e-07
-1.20511e-08
-1.1251e-07
-1.23084e-08
-1.09319e-07
-1.2546e-08
-1.06073e-07
-1.2763e-08
-1.02777e-07
-1.2959e-08
-9.94372e-08
-1.31332e-08
-9.60583e-08
-1.32851e-08
-9.26465e-08
-1.34141e-08
-8.92076e-08
-1.35196e-08
-8.57477e-08
-1.36011e-08
-8.2273e-08
-1.36582e-08
-7.87896e-08
-1.36902e-08
-7.5304e-08
-1.36969e-08
-7.18227e-08
-1.36777e-08
-6.83522e-08
-1.36323e-08
-6.48991e-08
-1.35603e-08
-6.14701e-08
-1.34615e-08
-5.8072e-08
-1.33355e-08
-5.47116e-08
-1.31822e-08
-5.13957e-08
-1.30014e-08
-4.81311e-08
-1.27931e-08
-4.49247e-08
-1.2557e-08
-4.17832e-08
-1.22934e-08
-3.87134e-08
-1.20022e-08
-3.5722e-08
-1.16837e-08
-3.28156e-08
-1.13381e-08
-3.00007e-08
-1.09657e-08
-2.72837e-08
-1.05671e-08
-2.46707e-08
-1.01427e-08
-2.21678e-08
-9.6934e-09
-1.97805e-08
-9.21998e-09
-1.75144e-08
-8.72352e-09
-1.53746e-08
-8.20527e-09
-1.33657e-08
-7.66672e-09
-1.14919e-08
-7.10962e-09
-9.75694e-09
-6.53604e-09
-8.16387e-09
-5.94843e-09
-6.71502e-09
-5.34966e-09
-5.41191e-09
-4.74311e-09
-4.25511e-09
-4.13275e-09
-3.24411e-09
-3.52328e-09
-2.37717e-09
-2.92024e-09
-1.65113e-09
-2.33017e-09
-1.06125e-09
-1.7608e-09
-6.00983e-10
-1.22125e-09
-2.61778e-10
-7.22282e-10
-3.28238e-11
-2.76563e-10
9.92109e-11
1.01064e-10
1.50488e-10
3.93274e-10
1.4042e-10
5.7995e-10
9.22479e-11
6.3799e-10
3.39459e-11
5.40977e-10
2.56613e-10
1.72123e-11
-2.65847e-10
3.047e-11
-5.22456e-10
8.03445e-12
-5.55495e-10
-7.64645e-11
-4.05094e-10
-2.45121e-10
-1.03727e-10
-5.1639e-10
3.20524e-10
-9.05569e-10
8.43392e-10
-1.42516e-09
1.44407e-09
-2.08517e-09
2.10473e-09
-2.89338e-09
2.81019e-09
-3.85552e-09
3.5475e-09
-4.97555e-09
4.30568e-09
-6.25582e-09
5.07541e-09
-7.69723e-09
5.84882e-09
-9.29945e-09
6.61925e-09
-1.1061e-08
7.38107e-09
-1.29796e-08
8.12956e-09
-1.50519e-08
8.86072e-09
-1.7274e-08
9.5712e-09
-1.96412e-08
1.02582e-08
-2.21485e-08
1.09194e-08
-2.47903e-08
1.15528e-08
-2.75607e-08
1.21568e-08
-3.04533e-08
1.27302e-08
-3.34616e-08
1.32719e-08
-3.65789e-08
1.3781e-08
-3.97981e-08
1.42569e-08
-4.31122e-08
1.46992e-08
-4.6514e-08
1.51074e-08
-4.99962e-08
1.54815e-08
-5.35515e-08
1.58212e-08
-5.71725e-08
1.61267e-08
-6.08518e-08
1.6398e-08
-6.45822e-08
1.66353e-08
-6.83563e-08
1.68387e-08
-7.21667e-08
1.70087e-08
-7.60064e-08
1.71455e-08
-7.98681e-08
1.72495e-08
-8.37447e-08
1.73213e-08
-8.76293e-08
1.73611e-08
-9.1515e-08
1.73697e-08
-9.5395e-08
1.73474e-08
-9.92627e-08
1.72949e-08
-1.03111e-07
1.72127e-08
-1.06935e-07
1.71014e-08
-1.10727e-07
1.69617e-08
-1.14481e-07
1.67942e-08
-1.18191e-07
1.65995e-08
-1.21851e-07
1.63783e-08
-1.25456e-07
1.61314e-08