/*--------------------------------*- C++ -*----------------------------------*\
  =========                 |
  \\      /  F ield         | OpenFOAM: The Open Source CFD Toolbox
   \\    /   O peration     | Website:  https://openfoam.org
    \\  /    A nd           | Version:  7
     \\/     M anipulation  |
\*---------------------------------------------------------------------------*/
FoamFile
{
    version     2.0;
    format      ascii;
    class       volVectorField;
    location    "0.325";
    object      U;
}
// * * * * * * * * * * * * * * * * * * * * * * * * * * * * * * * * * * * * * //

dimensions      [0 1 -1 0 0 0 0];

internalField   nonuniform List<vector> 
25600
(
(1.78952e-07 -2.06002e-07 0)
(2.83853e-06 -1.79492e-06 0)
(9.07654e-06 -2.83363e-06 0)
(1.69275e-05 -3.20661e-06 0)
(2.48851e-05 -3.1227e-06 0)
(3.19998e-05 -2.74474e-06 0)
(3.76189e-05 -2.18004e-06 0)
(4.12924e-05 -1.49963e-06 0)
(4.27214e-05 -7.49869e-07 0)
(4.1713e-05 3.88138e-08 0)
(3.81501e-05 8.4624e-07 0)
(3.19702e-05 1.65815e-06 0)
(2.31515e-05 2.46428e-06 0)
(1.17033e-05 3.25754e-06 0)
(-2.34136e-06 4.03267e-06 0)
(-1.8931e-05 4.78552e-06 0)
(-3.80004e-05 5.51313e-06 0)
(-5.94731e-05 6.21343e-06 0)
(-8.32644e-05 6.88482e-06 0)
(-0.000109283 7.52596e-06 0)
(-0.000137433 8.13595e-06 0)
(-0.000167614 8.71428e-06 0)
(-0.000199722 9.26058e-06 0)
(-0.000233651 9.77463e-06 0)
(-0.000269296 1.02564e-05 0)
(-0.000306549 1.07058e-05 0)
(-0.000345301 1.11232e-05 0)
(-0.000385445 1.15086e-05 0)
(-0.000426872 1.18624e-05 0)
(-0.000469475 1.21848e-05 0)
(-0.000513149 1.24763e-05 0)
(-0.000557786 1.27373e-05 0)
(-0.000603283 1.29683e-05 0)
(-0.000649537 1.31696e-05 0)
(-0.000696445 1.33418e-05 0)
(-0.000743907 1.34854e-05 0)
(-0.000791826 1.3601e-05 0)
(-0.000840103 1.36891e-05 0)
(-0.000888643 1.37502e-05 0)
(-0.000937354 1.37849e-05 0)
(-0.000986142 1.37939e-05 0)
(-0.00103492 1.37776e-05 0)
(-0.0010836 1.37366e-05 0)
(-0.00113209 1.36716e-05 0)
(-0.00118031 1.35831e-05 0)
(-0.00122818 1.34717e-05 0)
(-0.00127563 1.33381e-05 0)
(-0.00132256 1.31827e-05 0)
(-0.00136891 1.30062e-05 0)
(-0.0014146 1.28092e-05 0)
(-0.00145955 1.25924e-05 0)
(-0.00150371 1.23562e-05 0)
(-0.00154701 1.21013e-05 0)
(-0.00158937 1.18283e-05 0)
(-0.00163073 1.15378e-05 0)
(-0.00167103 1.12304e-05 0)
(-0.00171022 1.09067e-05 0)
(-0.00174824 1.05673e-05 0)
(-0.00178503 1.02127e-05 0)
(-0.00182053 9.84359e-06 0)
(-0.00185471 9.46054e-06 0)
(-0.0018875 9.06416e-06 0)
(-0.00191887 8.65505e-06 0)
(-0.00194877 8.23383e-06 0)
(-0.00197715 7.80109e-06 0)
(-0.00200398 7.35743e-06 0)
(-0.00202922 6.90349e-06 0)
(-0.00205284 6.43984e-06 0)
(-0.00207479 5.96712e-06 0)
(-0.00209505 5.48594e-06 0)
(-0.0021136 4.99695e-06 0)
(-0.00213039 4.50077e-06 0)
(-0.00214542 3.99803e-06 0)
(-0.00215865 3.48939e-06 0)
(-0.00217008 2.97546e-06 0)
(-0.00217967 2.4569e-06 0)
(-0.00218741 1.93438e-06 0)
(-0.0021933 1.40855e-06 0)
(-0.00219732 8.80089e-07 0)
(-0.00219947 3.49666e-07 0)
(-0.00219973 -1.82038e-07 0)
(-0.00219811 -7.14331e-07 0)
(-0.0021946 -1.24652e-06 0)
(-0.00218921 -1.7779e-06 0)
(-0.00218194 -2.30776e-06 0)
(-0.0021728 -2.83539e-06 0)
(-0.00216179 -3.36006e-06 0)
(-0.00214894 -3.88104e-06 0)
(-0.00213425 -4.3976e-06 0)
(-0.00211774 -4.909e-06 0)
(-0.00209943 -5.41449e-06 0)
(-0.00207935 -5.91332e-06 0)
(-0.00205751 -6.40472e-06 0)
(-0.00203396 -6.88793e-06 0)
(-0.00200871 -7.3622e-06 0)
(-0.0019818 -7.82675e-06 0)
(-0.00195327 -8.2808e-06 0)
(-0.00192316 -8.72358e-06 0)
(-0.0018915 -9.15431e-06 0)
(-0.00185835 -9.57222e-06 0)
(-0.00182374 -9.97652e-06 0)
(-0.00178774 -1.03664e-05 0)
(-0.00175039 -1.07412e-05 0)
(-0.00171174 -1.11001e-05 0)
(-0.00167186 -1.14422e-05 0)
(-0.00163081 -1.17668e-05 0)
(-0.00158864 -1.20733e-05 0)
(-0.00154543 -1.23607e-05 0)
(-0.00150125 -1.26285e-05 0)
(-0.00145615 -1.28757e-05 0)
(-0.00141023 -1.31018e-05 0)
(-0.00136355 -1.3306e-05 0)
(-0.00131619 -1.34876e-05 0)
(-0.00126823 -1.36459e-05 0)
(-0.00121976 -1.37802e-05 0)
(-0.00117087 -1.38899e-05 0)
(-0.00112163 -1.39743e-05 0)
(-0.00107215 -1.40329e-05 0)
(-0.0010225 -1.40649e-05 0)
(-0.000972793 -1.40699e-05 0)
(-0.000923115 -1.40473e-05 0)
(-0.000873566 -1.39965e-05 0)
(-0.000824245 -1.3917e-05 0)
(-0.000775254 -1.38085e-05 0)
(-0.000726693 -1.36703e-05 0)
(-0.000678666 -1.35022e-05 0)
(-0.000631279 -1.33037e-05 0)
(-0.000584637 -1.30746e-05 0)
(-0.000538847 -1.28144e-05 0)
(-0.000494015 -1.2523e-05 0)
(-0.000450251 -1.22001e-05 0)
(-0.000407661 -1.18456e-05 0)
(-0.000366354 -1.14594e-05 0)
(-0.000326437 -1.10414e-05 0)
(-0.00028802 -1.05917e-05 0)
(-0.000251207 -1.01103e-05 0)
(-0.000216105 -9.59759e-06 0)
(-0.000182818 -9.05377e-06 0)
(-0.000151447 -8.47932e-06 0)
(-0.000122092 -7.87483e-06 0)
(-9.48493e-05 -7.24105e-06 0)
(-6.98092e-05 -6.57894e-06 0)
(-4.7059e-05 -5.88981e-06 0)
(-2.66787e-05 -5.17531e-06 0)
(-8.74052e-06 -4.43749e-06 0)
(6.69316e-06 -3.67896e-06 0)
(1.95722e-05 -2.90311e-06 0)
(2.98616e-05 -2.11438e-06 0)
(3.75459e-05 -1.3185e-06 0)
(4.26343e-05 -5.23218e-07 0)
(4.51682e-05 2.6097e-07 0)
(4.52304e-05 1.01949e-06 0)
(4.29596e-05 1.73159e-06 0)
(3.857e-05 2.36668e-06 0)
(3.23814e-05 2.87839e-06 0)
(2.48618e-05 3.1963e-06 0)
(1.66771e-05 3.21547e-06 0)
(8.77956e-06 2.77968e-06 0)
(2.64422e-06 1.69671e-06 0)
(1.22602e-07 1.22341e-07 0)
(1.7769e-06 -2.87673e-06 0)
(9.38135e-06 -9.41266e-06 0)
(2.31352e-05 -1.34172e-05 0)
(3.93724e-05 -1.47262e-05 0)
(5.52499e-05 -1.39604e-05 0)
(6.87741e-05 -1.16917e-05 0)
(7.84065e-05 -8.36075e-06 0)
(8.29897e-05 -4.29674e-06 0)
(8.16923e-05 2.60027e-07 0)
(7.39369e-05 5.13502e-06 0)
(5.93403e-05 1.01998e-05 0)
(3.76697e-05 1.53584e-05 0)
(8.80964e-06 2.05379e-05 0)
(-2.72636e-05 2.56833e-05 0)
(-7.0502e-05 3.07524e-05 0)
(-0.0001208 3.57117e-05 0)
(-0.000178009 4.05357e-05 0)
(-0.000241941 4.52046e-05 0)
(-0.000312383 4.97026e-05 0)
(-0.000389098 5.40172e-05 0)
(-0.000471831 5.81391e-05 0)
(-0.000560313 6.20613e-05 0)
(-0.000654264 6.57785e-05 0)
(-0.000753396 6.92869e-05 0)
(-0.000857415 7.25839e-05 0)
(-0.000966022 7.56679e-05 0)
(-0.00107892 7.85383e-05 0)
(-0.00119579 8.1195e-05 0)
(-0.00131635 8.36386e-05 0)
(-0.00144028 8.58704e-05 0)
(-0.00156729 8.78918e-05 0)
(-0.00169707 8.9705e-05 0)
(-0.00182933 9.13121e-05 0)
(-0.00196377 9.27158e-05 0)
(-0.00210009 9.39188e-05 0)
(-0.00223803 9.49242e-05 0)
(-0.00237728 9.57351e-05 0)
(-0.00251757 9.63548e-05 0)
(-0.00265862 9.67867e-05 0)
(-0.00280017 9.70346e-05 0)
(-0.00294195 9.71022e-05 0)
(-0.0030837 9.6993e-05 0)
(-0.00322516 9.6711e-05 0)
(-0.00336609 9.626e-05 0)
(-0.00350625 9.56439e-05 0)
(-0.00364539 9.48666e-05 0)
(-0.00378328 9.39323e-05 0)
(-0.0039197 9.2845e-05 0)
(-0.00405442 9.16087e-05 0)
(-0.00418724 9.02276e-05 0)
(-0.00431794 8.87058e-05 0)
(-0.00444632 8.70473e-05 0)
(-0.00457218 8.52564e-05 0)
(-0.00469534 8.33372e-05 0)
(-0.0048156 8.12938e-05 0)
(-0.00493279 7.91306e-05 0)
(-0.00504674 7.68516e-05 0)
(-0.00515727 7.4461e-05 0)
(-0.00526424 7.19631e-05 0)
(-0.00536748 6.93621e-05 0)
(-0.00546684 6.66623e-05 0)
(-0.00556219 6.38679e-05 0)
(-0.0056534 6.09832e-05 0)
(-0.00574032 5.80125e-05 0)
(-0.00582284 5.49601e-05 0)
(-0.00590084 5.18303e-05 0)
(-0.00597421 4.86276e-05 0)
(-0.00604285 4.53562e-05 0)
(-0.00610666 4.20207e-05 0)
(-0.00616555 3.86253e-05 0)
(-0.00621944 3.51747e-05 0)
(-0.00626824 3.16734e-05 0)
(-0.00631189 2.81258e-05 0)
(-0.00635033 2.45366e-05 0)
(-0.00638348 2.09103e-05 0)
(-0.00641132 1.72516e-05 0)
(-0.00643378 1.35651e-05 0)
(-0.00645084 9.85574e-06 0)
(-0.00646247 6.12814e-06 0)
(-0.00646863 2.38716e-06 0)
(-0.00646933 -1.36233e-06 0)
(-0.00646453 -5.11544e-06 0)
(-0.00645426 -8.8672e-06 0)
(-0.00643851 -1.26126e-05 0)
(-0.00641729 -1.63467e-05 0)
(-0.00639063 -2.00642e-05 0)
(-0.00635856 -2.37602e-05 0)
(-0.00632111 -2.74294e-05 0)
(-0.00627832 -3.10667e-05 0)
(-0.00623025 -3.46667e-05 0)
(-0.00617695 -3.82242e-05 0)
(-0.00611849 -4.17339e-05 0)
(-0.00605495 -4.51904e-05 0)
(-0.0059864 -4.85884e-05 0)
(-0.00591294 -5.19225e-05 0)
(-0.00583467 -5.51872e-05 0)
(-0.00575169 -5.83772e-05 0)
(-0.00566411 -6.1487e-05 0)
(-0.00557206 -6.45112e-05 0)
(-0.00547567 -6.74442e-05 0)
(-0.00537507 -7.02808e-05 0)
(-0.0052704 -7.30154e-05 0)
(-0.00516183 -7.56427e-05 0)
(-0.00504952 -7.81572e-05 0)
(-0.00493362 -8.05537e-05 0)
(-0.00481433 -8.28268e-05 0)
(-0.00469181 -8.49713e-05 0)
(-0.00456627 -8.6982e-05 0)
(-0.00443791 -8.88537e-05 0)
(-0.00430692 -9.05814e-05 0)
(-0.00417353 -9.21602e-05 0)
(-0.00403795 -9.35851e-05 0)
(-0.00390041 -9.48513e-05 0)
(-0.00376115 -9.59542e-05 0)
(-0.00362041 -9.68892e-05 0)
(-0.00347844 -9.76518e-05 0)
(-0.00333548 -9.82378e-05 0)
(-0.0031918 -9.86431e-05 0)
(-0.00304767 -9.88637e-05 0)
(-0.00290335 -9.88958e-05 0)
(-0.00275912 -9.87357e-05 0)
(-0.00261527 -9.83802e-05 0)
(-0.00247208 -9.7826e-05 0)
(-0.00232983 -9.70701e-05 0)
(-0.00218882 -9.61099e-05 0)
(-0.00204936 -9.4943e-05 0)
(-0.00191173 -9.35671e-05 0)
(-0.00177624 -9.19805e-05 0)
(-0.0016432 -9.01818e-05 0)
(-0.0015129 -8.81697e-05 0)
(-0.00138567 -8.59436e-05 0)
(-0.0012618 -8.35032e-05 0)
(-0.0011416 -8.08488e-05 0)
(-0.00102538 -7.79811e-05 0)
(-0.000913429 -7.49015e-05 0)
(-0.000806058 -7.16122e-05 0)
(-0.000703556 -6.81161e-05 0)
(-0.000606214 -6.44171e-05 0)
(-0.00051431 -6.05202e-05 0)
(-0.000428115 -5.64316e-05 0)
(-0.000347889 -5.21591e-05 0)
(-0.000273877 -4.77123e-05 0)
(-0.000206306 -4.31032e-05 0)
(-0.000145381 -3.83466e-05 0)
(-9.12831e-05 -3.34606e-05 0)
(-4.416e-05 -2.84679e-05 0)
(-4.12087e-06 -2.33966e-05 0)
(2.87732e-05 -1.82821e-05 0)
(5.45207e-05 -1.3169e-05 0)
(7.31946e-05 -8.11444e-06 0)
(8.4961e-05 -3.19256e-06 0)
(9.01043e-05 1.49968e-06 0)
(8.90596e-05 5.83342e-06 0)
(8.24546e-05 9.63492e-06 0)
(7.11659e-05 1.26675e-05 0)
(5.63862e-05 1.46101e-05 0)
(3.96741e-05 1.50392e-05 0)
(2.30141e-05 1.34162e-05 0)
(9.18251e-06 9.18488e-06 0)
(1.69525e-06 2.6422e-06 0)
(2.82433e-06 -9.09093e-06 0)
(1.34049e-05 -2.31616e-05 0)
(3.10651e-05 -3.10659e-05 0)
(5.08309e-05 -3.31277e-05 0)
(6.91017e-05 -3.04467e-05 0)
(8.3317e-05 -2.41165e-05 0)
(9.13944e-05 -1.50651e-05 0)
(9.1693e-05 -4.03757e-06 0)
(8.29807e-05 8.38613e-06 0)
(6.43637e-05 2.17586e-05 0)
(3.52199e-05 3.57351e-05 0)
(-4.85219e-06 5.0049e-05 0)
(-5.6076e-05 6.4493e-05 0)
(-0.000118532 7.8905e-05 0)
(-0.000192185 9.31573e-05 0)
(-0.000276907 0.000107149 0)
(-0.000372495 0.0001208 0)
(-0.000478687 0.000134047 0)
(-0.000595168 0.000146839 0)
(-0.000721586 0.000159137 0)
(-0.000857558 0.000170908 0)
(-0.00100267 0.000182129 0)
(-0.0011565 0.00019278 0)
(-0.00131859 0.000202847 0)
(-0.00148849 0.00021232 0)
(-0.00166572 0.000221192 0)
(-0.00184982 0.000229458 0)
(-0.00204031 0.000237118 0)
(-0.0022367 0.00024417 0)
(-0.00243852 0.000250616 0)
(-0.00264527 0.00025646 0)
(-0.00285649 0.000261706 0)
(-0.0030717 0.00026636 0)
(-0.00329042 0.000270427 0)
(-0.00351218 0.000273916 0)
(-0.00373653 0.000276833 0)
(-0.00396301 0.000279188 0)
(-0.00419116 0.00028099 0)
(-0.00442055 0.000282247 0)
(-0.00465074 0.00028297 0)
(-0.00488129 0.000283169 0)
(-0.0051118 0.000282855 0)
(-0.00534184 0.000282037 0)
(-0.00557101 0.000280728 0)
(-0.00579893 0.000278938 0)
(-0.00602519 0.000276678 0)
(-0.00624943 0.000273961 0)
(-0.00647128 0.000270797 0)
(-0.00669038 0.000267198 0)
(-0.00690637 0.000263176 0)
(-0.00711893 0.000258744 0)
(-0.00732772 0.000253912 0)
(-0.00753241 0.000248693 0)
(-0.0077327 0.000243099 0)
(-0.00792829 0.000237142 0)
(-0.00811889 0.000230834 0)
(-0.00830421 0.000224188 0)
(-0.00848398 0.000217215 0)
(-0.00865795 0.000209928 0)
(-0.00882586 0.00020234 0)
(-0.00898746 0.000194463 0)
(-0.00914253 0.000186309 0)
(-0.00929086 0.00017789 0)
(-0.00943221 0.00016922 0)
(-0.00956641 0.000160312 0)
(-0.00969325 0.000151177 0)
(-0.00981256 0.000141828 0)
(-0.00992416 0.000132279 0)
(-0.0100279 0.000122543 0)
(-0.0101237 0.000112631 0)
(-0.0102112 0.000102559 0)
(-0.0102906 9.2338e-05 0)
(-0.0103615 8.19823e-05 0)
(-0.010424 7.15052e-05 0)
(-0.0104778 6.09201e-05 0)
(-0.010523 5.02409e-05 0)
(-0.0105595 3.94811e-05 0)
(-0.0105872 2.86548e-05 0)
(-0.010606 1.77759e-05 0)
(-0.0106159 6.85851e-06 0)
(-0.010617 -4.08301e-06 0)
(-0.0106091 -1.50343e-05 0)
(-0.0105923 -2.59809e-05 0)
(-0.0105666 -3.69081e-05 0)
(-0.010532 -4.78012e-05 0)
(-0.0104885 -5.86452e-05 0)
(-0.0104363 -6.94252e-05 0)
(-0.0103753 -8.01261e-05 0)
(-0.0103056 -9.07326e-05 0)
(-0.0102273 -0.000101229 0)
(-0.0101406 -0.000111601 0)
(-0.0100454 -0.000121832 0)
(-0.00994201 -0.000131907 0)
(-0.00983047 -0.00014181 0)
(-0.00971095 -0.000151526 0)
(-0.00958361 -0.000161038 0)
(-0.00944862 -0.000170331 0)
(-0.00930616 -0.000179389 0)
(-0.00915645 -0.000188196 0)
(-0.00899968 -0.000196737 0)
(-0.00883608 -0.000204995 0)
(-0.00866589 -0.000212955 0)
(-0.00848935 -0.000220602 0)
(-0.00830674 -0.000227919 0)
(-0.00811832 -0.000234891 0)
(-0.00792438 -0.000241504 0)
(-0.00772523 -0.000247741 0)
(-0.00752116 -0.000253587 0)
(-0.00731251 -0.000259029 0)
(-0.00709962 -0.00026405 0)
(-0.00688282 -0.000268638 0)
(-0.00666248 -0.000272778 0)
(-0.00643897 -0.000276456 0)
(-0.00621266 -0.000279658 0)
(-0.00598396 -0.000282373 0)
(-0.00575325 -0.000284587 0)
(-0.00552095 -0.000286287 0)
(-0.00528748 -0.000287463 0)
(-0.00505327 -0.000288103 0)
(-0.00481875 -0.000288196 0)
(-0.00458438 -0.000287733 0)
(-0.0043506 -0.000286703 0)
(-0.00411789 -0.000285099 0)
(-0.00388669 -0.000282912 0)
(-0.00365749 -0.000280134 0)
(-0.00343076 -0.00027676 0)
(-0.00320699 -0.000272784 0)
(-0.00298666 -0.000268201 0)
(-0.00277025 -0.000263008 0)
(-0.00255827 -0.000257203 0)
(-0.00235119 -0.000250784 0)
(-0.0021495 -0.000243753 0)
(-0.0019537 -0.00023611 0)
(-0.00176426 -0.00022786 0)
(-0.00158166 -0.000219008 0)
(-0.00140638 -0.000209563 0)
(-0.00123888 -0.000199535 0)
(-0.00107961 -0.000188937 0)
(-0.000928998 -0.000177786 0)
(-0.000787474 -0.000166104 0)
(-0.000655431 -0.000153915 0)
(-0.000533244 -0.000141252 0)
(-0.000421253 -0.000128154 0)
(-0.000319763 -0.000114666 0)
(-0.000229033 -0.000100846 0)
(-0.00014927 -8.67643e-05 0)
(-8.06136e-05 -7.25075e-05 0)
(-2.31246e-05 -5.8182e-05 0)
(2.32327e-05 -4.39206e-05 0)
(5.86119e-05 -2.98897e-05 0)
(8.33117e-05 -1.62998e-05 0)
(9.78089e-05 -3.41855e-06 0)
(0.000102799 8.41123e-06 0)
(9.92462e-05 1.87485e-05 0)
(8.84436e-05 2.70259e-05 0)
(7.20784e-05 3.25237e-05 0)
(5.22557e-05 3.4359e-05 0)
(3.1523e-05 3.1514e-05 0)
(1.34151e-05 2.30169e-05 0)
(2.77658e-06 8.77389e-06 0)
(3.20622e-06 -1.69366e-05 0)
(1.47501e-05 -3.94127e-05 0)
(3.32061e-05 -5.08424e-05 0)
(5.27107e-05 -5.25955e-05 0)
(6.91584e-05 -4.64091e-05 0)
(7.96376e-05 -3.39565e-05 0)
(8.17361e-05 -1.6697e-05 0)
(7.35046e-05 4.15712e-06 0)
(5.34366e-05 2.76262e-05 0)
(2.04045e-05 5.29274e-05 0)
(-2.64017e-05 7.94387e-05 0)
(-8.7526e-05 0.000106667 0)
(-0.000163291 0.000134219 0)
(-0.000253839 0.000161783 0)
(-0.000359159 0.000189107 0)
(-0.000479118 0.000215992 0)
(-0.00061348 0.000242275 0)
(-0.000761926 0.000267827 0)
(-0.000924069 0.000292543 0)
(-0.00109946 0.000316338 0)
(-0.00128762 0.000339147 0)
(-0.001488 0.000360916 0)
(-0.00170005 0.000381603 0)
(-0.0019232 0.000401176 0)
(-0.00215683 0.000419613 0)
(-0.00240032 0.000436894 0)
(-0.00265306 0.000453009 0)
(-0.00291439 0.000467952 0)
(-0.00318369 0.000481718 0)
(-0.00346031 0.000494311 0)
(-0.0037436 0.000505734 0)
(-0.00403292 0.000515993 0)
(-0.00432762 0.000525098 0)
(-0.00462708 0.000533059 0)
(-0.00493066 0.00053989 0)
(-0.00523774 0.000545604 0)
(-0.00554769 0.000550217 0)
(-0.0058599 0.000553747 0)
(-0.00617379 0.000556209 0)
(-0.00648874 0.000557624 0)
(-0.00680419 0.00055801 0)
(-0.00711956 0.000557387 0)
(-0.00743428 0.000555776 0)
(-0.00774782 0.000553198 0)
(-0.00805962 0.000549673 0)
(-0.00836917 0.000545225 0)
(-0.00867594 0.000539875 0)
(-0.00897944 0.000533645 0)
(-0.00927918 0.000526559 0)
(-0.00957468 0.00051864 0)
(-0.00986547 0.000509909 0)
(-0.0101511 0.000500392 0)
(-0.0104311 0.000490111 0)
(-0.0107051 0.00047909 0)
(-0.0109727 0.000467353 0)
(-0.0112335 0.000454923 0)
(-0.011487 0.000441825 0)
(-0.0117329 0.000428084 0)
(-0.0119709 0.000413722 0)
(-0.0122006 0.000398765 0)
(-0.0124217 0.000383237 0)
(-0.0126338 0.000367162 0)
(-0.0128367 0.000350567 0)
(-0.0130301 0.000333474 0)
(-0.0132137 0.00031591 0)
(-0.0133872 0.000297899 0)
(-0.0135503 0.000279467 0)
(-0.013703 0.00026064 0)
(-0.0138449 0.000241442 0)
(-0.0139758 0.0002219 0)
(-0.0140956 0.00020204 0)
(-0.014204 0.000181888 0)
(-0.014301 0.000161469 0)
(-0.0143864 0.000140812 0)
(-0.01446 0.000119943 0)
(-0.0145217 9.8888e-05 0)
(-0.0145715 7.76751e-05 0)
(-0.0146092 5.63317e-05 0)
(-0.0146349 3.48855e-05 0)
(-0.0146484 1.33645e-05 0)
(-0.0146497 -8.20326e-06 0)
(-0.0146388 -2.97892e-05 0)
(-0.0146157 -5.13646e-05 0)
(-0.0145804 -7.29007e-05 0)
(-0.014533 -9.43681e-05 0)
(-0.0144734 -0.000115738 0)
(-0.0144019 -0.000136979 0)
(-0.0143183 -0.000158064 0)
(-0.0142229 -0.000178961 0)
(-0.0141157 -0.00019964 0)
(-0.0139969 -0.000220071 0)
(-0.0138667 -0.000240224 0)
(-0.0137251 -0.000260067 0)
(-0.0135725 -0.00027957 0)
(-0.0134089 -0.000298702 0)
(-0.0132347 -0.000317432 0)
(-0.01305 -0.000335728 0)
(-0.0128551 -0.000353561 0)
(-0.0126503 -0.000370897 0)
(-0.0124358 -0.000387708 0)
(-0.012212 -0.000403961 0)
(-0.0119792 -0.000419626 0)
(-0.0117378 -0.000434671 0)
(-0.011488 -0.000449068 0)
(-0.0112303 -0.000462784 0)
(-0.0109651 -0.000475791 0)
(-0.0106928 -0.000488058 0)
(-0.0104137 -0.000499556 0)
(-0.0101284 -0.000510257 0)
(-0.00983735 -0.000520131 0)
(-0.00954093 -0.000529151 0)
(-0.00923967 -0.00053729 0)
(-0.00893408 -0.000544521 0)
(-0.00862468 -0.000550817 0)
(-0.008312 -0.000556154 0)
(-0.00799657 -0.000560507 0)
(-0.00767898 -0.000563853 0)
(-0.00735978 -0.000566169 0)
(-0.00703955 -0.000567434 0)
(-0.0067189 -0.000567626 0)
(-0.00639843 -0.000566728 0)
(-0.00607876 -0.00056472 0)
(-0.0057605 -0.000561587 0)
(-0.00544429 -0.000557314 0)
(-0.00513077 -0.000551887 0)
(-0.00482059 -0.000545294 0)
(-0.0045144 -0.000537526 0)
(-0.00421284 -0.000528575 0)
(-0.00391659 -0.000518435 0)
(-0.00362629 -0.000507104 0)
(-0.00334261 -0.000494581 0)
(-0.0030662 -0.000480867 0)
(-0.00279771 -0.00046597 0)
(-0.00253779 -0.000449898 0)
(-0.00228707 -0.000432666 0)
(-0.00204619 -0.00041429 0)
(-0.00181575 -0.000394795 0)
(-0.00159635 -0.00037421 0)
(-0.00138856 -0.000352571 0)
(-0.00119293 -0.000329924 0)
(-0.00100998 -0.000306323 0)
(-0.000840177 -0.000281834 0)
(-0.00068397 -0.000256537 0)
(-0.000541735 -0.000230529 0)
(-0.000413792 -0.000203926 0)
(-0.000300385 -0.000176871 0)
(-0.000201669 -0.000149536 0)
(-0.000117691 -0.000122133 0)
(-4.83718e-05 -9.49205e-05 0)
(6.52292e-06 -6.8218e-05 0)
(4.74104e-05 -4.24221e-05 0)
(7.49283e-05 -1.80261e-05 0)
(8.99775e-05 4.35397e-06 0)
(9.37699e-05 2.39499e-05 0)
(8.78852e-05 3.98081e-05 0)
(7.4329e-05 5.07627e-05 0)
(5.55438e-05 5.54307e-05 0)
(3.44331e-05 5.22586e-05 0)
(1.50594e-05 3.96932e-05 0)
(3.21408e-06 1.66712e-05 0)
(3.13416e-06 -2.49149e-05 0)
(1.4043e-05 -5.53574e-05 0)
(3.06656e-05 -6.91926e-05 0)
(4.67624e-05 -6.90795e-05 0)
(5.79489e-05 -5.75315e-05 0)
(6.10928e-05 -3.68495e-05 0)
(5.35861e-05 -9.04084e-06 0)
(3.3294e-05 2.4202e-05 0)
(-1.46432e-06 6.14788e-05 0)
(-5.19743e-05 0.000101645 0)
(-0.00011918 0.000143769 0)
(-0.000203734 0.000187098 0)
(-0.00030604 0.000231021 0)
(-0.000426291 0.000275043 0)
(-0.000564504 0.00031876 0)
(-0.000720546 0.000361847 0)
(-0.00089416 0.000404037 0)
(-0.00108499 0.000445113 0)
(-0.00129258 0.000484899 0)
(-0.00151642 0.000523252 0)
(-0.00175592 0.000560057 0)
(-0.00201045 0.000595221 0)
(-0.00227936 0.00062867 0)
(-0.00256192 0.000660347 0)
(-0.00285742 0.000690207 0)
(-0.00316511 0.000718218 0)
(-0.00348421 0.000744356 0)
(-0.00381395 0.000768608 0)
(-0.00415355 0.000790964 0)
(-0.00450221 0.000811424 0)
(-0.00485914 0.000829991 0)
(-0.00522354 0.000846673 0)
(-0.00559462 0.000861484 0)
(-0.0059716 0.000874437 0)
(-0.00635369 0.000885553 0)
(-0.00674011 0.000894853 0)
(-0.00713009 0.00090236 0)
(-0.00752288 0.0009081 0)
(-0.00791773 0.000912101 0)
(-0.00831389 0.000914391 0)
(-0.00871065 0.000915002 0)
(-0.00910728 0.000913964 0)
(-0.00950308 0.00091131 0)
(-0.00989737 0.000907074 0)
(-0.0102895 0.000901291 0)
(-0.0106787 0.000893995 0)
(-0.0110645 0.000885222 0)
(-0.0114461 0.000875008 0)
(-0.011823 0.000863391 0)
(-0.0121946 0.000850408 0)
(-0.0125602 0.000836095 0)
(-0.0129194 0.000820492 0)
(-0.0132715 0.000803635 0)
(-0.013616 0.000785565 0)
(-0.0139525 0.00076632 0)
(-0.0142803 0.000745939 0)
(-0.0145991 0.00072446 0)
(-0.0149083 0.000701925 0)
(-0.0152076 0.000678372 0)
(-0.0154964 0.000653841 0)
(-0.0157743 0.000628374 0)
(-0.016041 0.000602009 0)
(-0.0162961 0.000574788 0)
(-0.0165392 0.000546752 0)
(-0.0167699 0.000517942 0)
(-0.016988 0.000488399 0)
(-0.0171931 0.000458164 0)
(-0.017385 0.000427281 0)
(-0.0175633 0.00039579 0)
(-0.0177279 0.000363734 0)
(-0.0178784 0.000331156 0)
(-0.0180147 0.0002981 0)
(-0.0181365 0.000264608 0)
(-0.0182437 0.000230724 0)
(-0.0183362 0.000196493 0)
(-0.0184137 0.000161959 0)
(-0.0184762 0.000127166 0)
(-0.0185236 9.21608e-05 0)
(-0.0185557 5.69879e-05 0)
(-0.0185725 2.16935e-05 0)
(-0.0185741 -1.36759e-05 0)
(-0.0185602 -4.90736e-05 0)
(-0.0185311 -8.44525e-05 0)
(-0.0184866 -0.000119765 0)
(-0.0184268 -0.000154963 0)
(-0.0183518 -0.000189999 0)
(-0.0182617 -0.000224823 0)
(-0.0181565 -0.000259388 0)
(-0.0180364 -0.000293643 0)
(-0.0179016 -0.000327538 0)
(-0.0177522 -0.000361025 0)
(-0.0175883 -0.000394054 0)
(-0.0174103 -0.000426572 0)
(-0.0172183 -0.000458531 0)
(-0.0170126 -0.00048988 0)
(-0.0167935 -0.000520567 0)
(-0.0165612 -0.000550543 0)
(-0.0163162 -0.000579755 0)
(-0.0160586 -0.000608154 0)
(-0.015789 -0.000635688 0)
(-0.0155077 -0.000662308 0)
(-0.015215 -0.000687962 0)
(-0.0149115 -0.0007126 0)
(-0.0145976 -0.000736173 0)
(-0.0142737 -0.000758632 0)
(-0.0139403 -0.000779927 0)
(-0.013598 -0.00080001 0)
(-0.0132473 -0.000818834 0)
(-0.0128888 -0.000836351 0)
(-0.012523 -0.000852515 0)
(-0.0121504 -0.000867281 0)
(-0.0117718 -0.000880604 0)
(-0.0113878 -0.000892442 0)
(-0.010999 -0.000902752 0)
(-0.010606 -0.000911494 0)
(-0.0102096 -0.000918628 0)
(-0.00981045 -0.000924116 0)
(-0.00940927 -0.000927923 0)
(-0.00900679 -0.000930013 0)
(-0.00860374 -0.000930354 0)
(-0.0082009 -0.000928916 0)
(-0.00779902 -0.00092567 0)
(-0.00739887 -0.000920591 0)
(-0.00700126 -0.000913654 0)
(-0.00660697 -0.000904841 0)
(-0.00621681 -0.000894132 0)
(-0.00583157 -0.000881513 0)
(-0.00545209 -0.000866974 0)
(-0.00507916 -0.000850507 0)
(-0.00471361 -0.000832109 0)
(-0.00435624 -0.000811781 0)
(-0.00400787 -0.000789531 0)
(-0.00366929 -0.00076537 0)
(-0.00334131 -0.000739316 0)
(-0.00302469 -0.000711395 0)
(-0.00272021 -0.00068164 0)
(-0.00242862 -0.000650092 0)
(-0.00215063 -0.000616804 0)
(-0.00188693 -0.000581841 0)
(-0.0016382 -0.00054528 0)
(-0.00140504 -0.000507215 0)
(-0.00118802 -0.00046776 0)
(-0.000987665 -0.00042705 0)
(-0.000804407 -0.000385247 0)
(-0.000638615 -0.000342548 0)
(-0.000490562 -0.000299187 0)
(-0.000360407 -0.000255446 0)
(-0.000248182 -0.000211669 0)
(-0.000153764 -0.000168269 0)
(-7.68514e-05 -0.000125751 0)
(-1.69313e-05 -8.47304e-05 0)
(2.6757e-05 -4.59581e-05 0)
(5.52624e-05 -1.03533e-05 0)
(6.99668e-05 2.09632e-05 0)
(7.26358e-05 4.6633e-05 0)
(6.54723e-05 6.50312e-05 0)
(5.11263e-05 7.42561e-05 0)
(3.27365e-05 7.21636e-05 0)
(1.46811e-05 5.64701e-05 0)
(3.20251e-06 2.48719e-05 0)
(2.77232e-06 -3.20873e-05 0)
(1.18571e-05 -6.90343e-05 0)
(2.45368e-05 -8.35999e-05 0)
(3.46541e-05 -7.97214e-05 0)
(3.77624e-05 -6.07414e-05 0)
(3.06159e-05 -2.96166e-05 0)
(1.05083e-05 1.10898e-05 0)
(-2.479e-05 5.92008e-05 0)
(-7.70565e-05 0.000112891 0)
(-0.00014767 0.000170642 0)
(-0.000237659 0.0002312 0)
(-0.000347748 0.00029353 0)
(-0.000478398 0.000356781 0)
(-0.00062984 0.000420253 0)
(-0.00080211 0.00048337 0)
(-0.000995076 0.000545659 0)
(-0.00120847 0.000606728 0)
(-0.00144188 0.000666257 0)
(-0.00169484 0.000723982 0)
(-0.00196674 0.000779687 0)
(-0.00225694 0.000833197 0)
(-0.00256471 0.000884367 0)
(-0.00288931 0.000933084 0)
(-0.00322991 0.000979255 0)
(-0.00358567 0.00102281 0)
(-0.00395574 0.00106369 0)
(-0.00433922 0.00110187 0)
(-0.0047352 0.0011373 0)
(-0.00514278 0.00116999 0)
(-0.00556101 0.00119991 0)
(-0.00598898 0.00122708 0)
(-0.00642574 0.00125149 0)
(-0.00687037 0.00127317 0)
(-0.00732195 0.00129214 0)
(-0.00777953 0.00130841 0)
(-0.00824222 0.00132202 0)
(-0.00870909 0.00133301 0)
(-0.00917926 0.0013414 0)
(-0.00965183 0.00134723 0)
(-0.0101259 0.00135056 0)
(-0.0106007 0.00135141 0)
(-0.0110753 0.00134984 0)
(-0.0115488 0.00134589 0)
(-0.0120205 0.00133961 0)
(-0.0124896 0.00133105 0)
(-0.0129553 0.00132026 0)
(-0.0134167 0.00130729 0)
(-0.0138732 0.0012922 0)
(-0.014324 0.00127503 0)
(-0.0147685 0.00125585 0)
(-0.0152058 0.00123471 0)
(-0.0156354 0.00121167 0)
(-0.0160565 0.00118677 0)
(-0.0164686 0.00116008 0)
(-0.016871 0.00113166 0)
(-0.0172631 0.00110155 0)
(-0.0176443 0.00106983 0)
(-0.0180141 0.00103654 0)
(-0.018372 0.00100175 0)
(-0.0187174 0.000965519 0)
(-0.0190498 0.000927899 0)
(-0.0193687 0.000888953 0)
(-0.0196737 0.000848743 0)
(-0.0199644 0.000807327 0)
(-0.0202403 0.000764768 0)
(-0.0205011 0.000721125 0)
(-0.0207463 0.000676461 0)
(-0.0209757 0.000630838 0)
(-0.0211889 0.000584318 0)
(-0.0213856 0.000536964 0)
(-0.0215655 0.000488839 0)
(-0.0217284 0.000440008 0)
(-0.021874 0.000390534 0)
(-0.0220021 0.000340482 0)
(-0.0221125 0.000289918 0)
(-0.0222051 0.000238908 0)
(-0.0222797 0.000187518 0)
(-0.0223362 0.000135814 0)
(-0.0223745 8.38648e-05 0)
(-0.0223945 3.17381e-05 0)
(-0.0223962 -2.04974e-05 0)
(-0.0223796 -7.27727e-05 0)
(-0.0223446 -0.000125018 0)
(-0.0222912 -0.000177163 0)
(-0.0222196 -0.000229136 0)
(-0.0221298 -0.000280868 0)
(-0.0220219 -0.000332284 0)
(-0.021896 -0.000383314 0)
(-0.0217523 -0.000433884 0)
(-0.0215909 -0.000483922 0)
(-0.0214121 -0.000533353 0)
(-0.0212161 -0.000582104 0)
(-0.0210031 -0.000630101 0)
(-0.0207734 -0.000677268 0)
(-0.0205274 -0.000723532 0)
(-0.0202653 -0.000768817 0)
(-0.0199875 -0.000813048 0)
(-0.0196944 -0.000856152 0)
(-0.0193865 -0.000898052 0)
(-0.0190641 -0.000938675 0)
(-0.0187276 -0.000977945 0)
(-0.0183777 -0.00101579 0)
(-0.0180148 -0.00105213 0)
(-0.0176395 -0.00108691 0)
(-0.0172522 -0.00112003 0)
(-0.0168537 -0.00115144 0)
(-0.0164445 -0.00118106 0)
(-0.0160252 -0.00120882 0)
(-0.0155965 -0.00123466 0)
(-0.0151592 -0.0012585 0)
(-0.0147138 -0.00128028 0)
(-0.0142612 -0.00129994 0)
(-0.0138021 -0.00131741 0)
(-0.0133372 -0.00133262 0)
(-0.0128674 -0.00134553 0)
(-0.0123935 -0.00135607 0)
(-0.0119162 -0.0013642 0)
(-0.0114365 -0.00136984 0)
(-0.0109552 -0.00137297 0)
(-0.0104733 -0.00137353 0)
(-0.00999146 -0.00137147 0)
(-0.00951076 -0.00136676 0)
(-0.00903208 -0.00135936 0)
(-0.00855635 -0.00134923 0)
(-0.00808452 -0.00133636 0)
(-0.00761753 -0.0013207 0)
(-0.00715633 -0.00130226 0)
(-0.00670189 -0.001281 0)
(-0.00625516 -0.00125693 0)
(-0.00581709 -0.00123004 0)
(-0.00538866 -0.00120033 0)
(-0.00497079 -0.00116783 0)
(-0.00456444 -0.00113254 0)
(-0.00417052 -0.00109451 0)
(-0.00378996 -0.00105377 0)
(-0.00342364 -0.00101038 0)
(-0.00307243 -0.000964393 0)
(-0.00273715 -0.000915905 0)
(-0.00241863 -0.00086501 0)
(-0.0021176 -0.000811831 0)
(-0.00183477 -0.00075651 0)
(-0.0015708 -0.000699219 0)
(-0.00132625 -0.000640163 0)
(-0.00110163 -0.000579586 0)
(-0.000897341 -0.000517779 0)
(-0.000713672 -0.000455087 0)
(-0.000550788 -0.000391922 0)
(-0.000408709 -0.00032878 0)
(-0.000287278 -0.000266252 0)
(-0.000186144 -0.000205049 0)
(-0.000104723 -0.000146027 0)
(-4.21697e-05 -9.02141e-05 0)
(2.66092e-06 -3.88477e-05 0)
(3.1256e-05 6.58832e-06 0)
(4.549e-05 4.43254e-05 0)
(4.76745e-05 7.22748e-05 0)
(4.05742e-05 8.80032e-05 0)
(2.74626e-05 8.87403e-05 0)
(1.28236e-05 7.14045e-05 0)
(2.89916e-06 3.24417e-05 0)
(2.22813e-06 -3.78144e-05 0)
(8.6308e-06 -7.89335e-05 0)
(1.57387e-05 -9.20207e-05 0)
(1.78262e-05 -8.21522e-05 0)
(1.05727e-05 -5.34762e-05 0)
(-9.28302e-06 -9.59821e-06 0)
(-4.44643e-05 4.63685e-05 0)
(-9.72234e-05 0.00011177 0)
(-0.000169371 0.000184359 0)
(-0.000262325 0.000262244 0)
(-0.000377156 0.000343843 0)
(-0.000514626 0.00042783 0)
(-0.000675226 0.000513102 0)
(-0.000859207 0.00059874 0)
(-0.00106661 0.000683979 0)
(-0.00129731 0.000768183 0)
(-0.00155101 0.000850821 0)
(-0.00182728 0.000931455 0)
(-0.00212559 0.00100972 0)
(-0.0024453 0.00108532 0)
(-0.00278568 0.00115799 0)
(-0.00314596 0.00122755 0)
(-0.00352527 0.00129382 0)
(-0.00392272 0.00135667 0)
(-0.00433737 0.00141599 0)
(-0.00476825 0.00147171 0)
(-0.00521435 0.00152376 0)
(-0.00567467 0.00157211 0)
(-0.00614815 0.00161671 0)
(-0.00663376 0.00165756 0)
(-0.00713043 0.00169466 0)
(-0.00763711 0.00172801 0)
(-0.00815274 0.00175762 0)
(-0.00867626 0.00178353 0)
(-0.00920662 0.00180576 0)
(-0.00974276 0.00182434 0)
(-0.0102837 0.00183933 0)
(-0.0108283 0.00185076 0)
(-0.0113756 0.00185869 0)
(-0.0119246 0.00186317 0)
(-0.0124743 0.00186426 0)
(-0.0130238 0.00186202 0)
(-0.013572 0.00185651 0)
(-0.0141181 0.0018478 0)
(-0.0146611 0.00183595 0)
(-0.0152 0.00182103 0)
(-0.0157341 0.00180312 0)
(-0.0162625 0.00178228 0)
(-0.0167842 0.00175858 0)
(-0.0172985 0.00173211 0)
(-0.0178046 0.00170294 0)
(-0.0183017 0.00167114 0)
(-0.0187891 0.00163679 0)
(-0.0192659 0.00159997 0)
(-0.0197315 0.00156075 0)
(-0.0201852 0.00151922 0)
(-0.0206263 0.00147545 0)
(-0.0210542 0.00142953 0)
(-0.0214682 0.00138154 0)
(-0.0218678 0.00133155 0)
(-0.0222524 0.00127965 0)
(-0.0226213 0.00122592 0)
(-0.0229742 0.00117044 0)
(-0.0233105 0.00111331 0)
(-0.0236297 0.00105459 0)
(-0.0239313 0.00099438 0)
(-0.024215 0.000932762 0)
(-0.0244803 0.00086982 0)
(-0.0247269 0.000805642 0)
(-0.0249543 0.000740313 0)
(-0.0251624 0.000673923 0)
(-0.0253507 0.000606558 0)
(-0.0255191 0.000538308 0)
(-0.0256672 0.000469262 0)
(-0.0257948 0.000399512 0)
(-0.0259018 0.000329147 0)
(-0.025988 0.00025826 0)
(-0.0260532 0.000186942 0)
(-0.0260974 0.000115289 0)
(-0.0261204 4.33927e-05 0)
(-0.0261222 -2.8651e-05 0)
(-0.0261028 -0.000100747 0)
(-0.0260621 -0.000172798 0)
(-0.0260003 -0.000244709 0)
(-0.0259173 -0.00031638 0)
(-0.0258132 -0.000387713 0)