/*--------------------------------*- C++ -*----------------------------------*\
  =========                 |
  \\      /  F ield         | OpenFOAM: The Open Source CFD Toolbox
   \\    /   O peration     | Website:  https://openfoam.org
    \\  /    A nd           | Version:  7
     \\/     M anipulation  |
\*---------------------------------------------------------------------------*/
FoamFile
{
    version     2.0;
    format      ascii;
    class       volScalarField;
    location    "0.075";
    object      p;
}
// * * * * * * * * * * * * * * * * * * * * * * * * * * * * * * * * * * * * * //

dimensions      [0 2 -2 0 0 0 0];

internalField   nonuniform List<scalar> 
25600
(
-3.37282e-07
0.000104127
0.000121635
9.40847e-06
-0.000236452
-0.000610874
-0.00110204
-0.0016955
-0.0023767
-0.00313261
-0.00395032
-0.00481806
-0.00572482
-0.00666078
-0.00761724
-0.00858648
-0.00956058
-0.0105326
-0.0114961
-0.0124443
-0.0133715
-0.0142722
-0.0151409
-0.0159733
-0.0167647
-0.0175108
-0.0182079
-0.018852
-0.0194395
-0.0199674
-0.020433
-0.0208337
-0.0211676
-0.0214331
-0.0216285
-0.0217523
-0.0218041
-0.0217829
-0.0216882
-0.0215197
-0.0212773
-0.0209612
-0.0205718
-0.02011
-0.0195763
-0.0189711
-0.0182952
-0.0175493
-0.0167344
-0.0158514
-0.0149015
-0.0138862
-0.0128065
-0.0116635
-0.0104586
-0.0091932
-0.0078688
-0.00648697
-0.0050494
-0.00355814
-0.00201538
-0.000423256
0.00121594
0.00289966
0.00462528
0.00639039
0.00819275
0.01003
0.0118997
0.0137993
0.0157266
0.0176792
0.0196546
0.0216504
0.0236641
0.0256934
0.0277358
0.0297888
0.0318497
0.0339157
0.0359841
0.0380521
0.0401169
0.0421752
0.0442243
0.0462615
0.0482843
0.0502901
0.0522762
0.0542403
0.0561799
0.0580925
0.0599757
0.0618271
0.0636441
0.0654242
0.0671653
0.0688649
0.0705209
0.0721309
0.073693
0.0752048
0.0766642
0.0780687
0.079416
0.0807039
0.0819305
0.083094
0.0841928
0.0852254
0.0861898
0.0870845
0.0879082
0.0886596
0.0893378
0.0899417
0.0904705
0.0909237
0.0913007
0.0916012
0.0918247
0.0919713
0.0920411
0.0920343
0.0919517
0.0917945
0.091564
0.0912615
0.0908882
0.0904459
0.0899366
0.0893631
0.0887284
0.0880353
0.0872869
0.0864866
0.0856385
0.084747
0.083817
0.0828538
0.0818628
0.08085
0.0798217
0.0787848
0.077747
0.0767165
0.0757024
0.074714
0.0737613
0.0728553
0.0720079
0.0712321
0.0705414
0.0699497
0.0694706
0.0691165
0.0688965
0.0688128
0.068855
0.0689673
-0.000115171
2.1636e-06
1.00177e-05
-0.000101844
-0.000327319
-0.000664031
-0.00110426
-0.00163674
-0.00225036
-0.0029337
-0.00367624
-0.00446734
-0.00529685
-0.00615553
-0.00703547
-0.00792866
-0.00882818
-0.00972687
-0.0106184
-0.0114967
-0.012356
-0.013191
-0.0139969
-0.014769
-0.0155029
-0.0161949
-0.0168407
-0.0174367
-0.0179797
-0.0184665
-0.0188942
-0.0192608
-0.0195643
-0.0198026
-0.0199743
-0.0200783
-0.0201135
-0.0200792
-0.0199751
-0.0198009
-0.0195565
-0.0192417
-0.0188567
-0.0184019
-0.0178781
-0.0172858
-0.0166257
-0.0158988
-0.0151055
-0.0142468
-0.0133238
-0.0123378
-0.0112899
-0.0101811
-0.00901279
-0.00778637
-0.00650318
-0.00516463
-0.00377243
-0.00232858
-0.000835109
0.000705995
0.00229256
0.00392208
0.0055921
0.00730049
0.00904508
0.0108235
0.0126334
0.0144725
0.0163385
0.0182291
0.0201418
0.0220742
0.024024
0.0259889
0.0279664
0.029954
0.0319492
0.0339492
0.0359515
0.0379534
0.0399521
0.0419445
0.043928
0.0459002
0.0478584
0.0498001
0.0517229
0.0536244
0.0555022
0.057354
0.0591772
0.0609695
0.0627283
0.0644513
0.0661365
0.0677815
0.0693842
0.0709424
0.0724541
0.0739175
0.0753301
0.0766896
0.0779939
0.0792409
0.0804289
0.0815561
0.0826211
0.0836224
0.0845581
0.0854268
0.0862273
0.0869586
0.0876196
0.0882095
0.0887275
0.0891731
0.089546
0.0898458
0.0900722
0.0902251
0.0903046
0.0903112
0.0902457
0.0901094
0.0899036
0.0896293
0.089288
0.0888812
0.0884113
0.0878809
0.087293
0.0866502
0.0859556
0.0852127
0.0844252
0.0835978
0.0827351
0.0818424
0.0809248
0.079988
0.0790383
0.0780821
0.0771268
0.0761803
0.0752508
0.0743469
0.073478
0.0726538
0.071885
0.0711828
0.0705586
0.0700236
0.0695883
0.0692611
0.0690469
0.068946
0.0689612
0.0690734
-0.000150299
2.76909e-06
2.16768e-05
-8.17023e-05
-0.000290094
-0.000600113
-0.00100542
-0.00149603
-0.00206183
-0.0026931
-0.0033802
-0.00411417
-0.0048855
-0.00568535
-0.00650616
-0.0073406
-0.00818172
-0.00902275
-0.00985758
-0.0106802
-0.0114852
-0.0122677
-0.0130231
-0.0137466
-0.0144342
-0.0150821
-0.0156859
-0.0162427
-0.016749
-0.0172019
-0.0175986
-0.0179369
-0.0182149
-0.0184308
-0.0185832
-0.0186705
-0.0186921
-0.0186469
-0.0185348
-0.0183556
-0.0181091
-0.017795
-0.0174135
-0.0169648
-0.0164493
-0.0158677
-0.0152209
-0.0145097
-0.0137346
-0.0128963
-0.0119959
-0.0110346
-0.0100134
-0.00893331
-0.00779586
-0.00660226
-0.0053537
-0.00405154
-0.00269753
-0.00129357
0.000158508
0.00165676
0.00319903
0.00478295
0.00640625
0.00806692
0.00976286
0.0114917
0.0132512
0.0150391
0.0168534
0.0186916
0.0205514
0.0224303
0.0243261
0.0262368
0.0281597
0.0300922
0.032032
0.0339765
0.0359232
0.0378695
0.0398125
0.0417495
0.043678
0.0455953
0.0474992
0.0493871
0.0512565
0.0531052
0.0549311
0.0567315
0.0585042
0.0602466
0.0619564
0.0636315
0.0652696
0.0668686
0.0684264
0.069941
0.0714106
0.0728333
0.0742066
0.0755285
0.0767967
0.0780094
0.079165
0.0802619
0.0812987
0.0822738
0.0831855
0.0840326
0.0848138
0.0855284
0.0861752
0.0867535
0.0872625
0.0877019
0.0880714
0.0883706
0.0885994
0.0887574
0.088845
0.0888626
0.0888114
0.0886924
0.0885069
0.0882559
0.0879407
0.0875632
0.0871256
0.0866306
0.0860809
0.0854793
0.0848285
0.084132
0.0833937
0.082618
0.0818096
0.0809735
0.0801146
0.0792385
0.078351
0.0774585
0.0765678
0.0756865
0.0748221
0.0739828
0.073177
0.0724139
0.071703
0.071054
0.0704767
0.0699808
0.0695752
0.0692673
0.0690607
0.0689568
0.0689714
0.0691094
-4.85323e-05
0.000127377
0.000156474
6.07424e-05
-0.000136089
-0.000429217
-0.0008115
-0.00127411
-0.00180689
-0.00240097
-0.0030477
-0.00373875
-0.00446586
-0.0052203
-0.00599493
-0.00678307
-0.00757746
-0.00837226
-0.00916095
-0.00993817
-0.0106987
-0.0114379
-0.0121511
-0.0128341
-0.0134828
-0.014093
-0.0146618
-0.0151851
-0.0156601
-0.0160839
-0.016454
-0.016768
-0.017024
-0.0172205
-0.017356
-0.0174291
-0.017439
-0.0173847
-0.0172658
-0.0170822
-0.0168336
-0.0165199
-0.0161412
-0.0156977
-0.0151896
-0.0146176
-0.0139826
-0.0132851
-0.0125258
-0.0117054
-0.0108249
-0.00988537
-0.00888756
-0.00783281
-0.00672253
-0.00555775
-0.00433959
-0.00306953
-0.00174925
-0.000380472
0.00103508
0.0024955
0.00399862
0.00554223
0.00712429
0.00874283
0.0103957
0.0120807
0.0137955
0.0155382
0.0173066
0.0190984
0.0209112
0.0227428
0.0245911
0.0264537
0.0283282
0.0302121
0.032103
0.0339985
0.0358962
0.0377934
0.0396873
0.0415754
0.0434553
0.0453245
0.0471806
0.049021
0.0508434
0.0526459
0.0544259
0.0561811
0.0579092
0.0596077
0.0612745
0.0629074
0.0645041
0.0660627
0.0675811
0.0690575
0.07049
0.0718769
0.0732157
0.0745044
0.0757409
0.0769235
0.0780507
0.0791211
0.0801331
0.0810852
0.0819759
0.082804
0.0835685
0.0842684
0.0849028
0.0854708
0.0859719
0.0864058
0.0867724
0.0870711
0.0873017
0.0874641
0.0875585
0.0875858
0.0875468
0.0874427
0.0872745
0.0870434
0.0867507
0.0863982
0.0859882
0.0855234
0.0850063
0.0844395
0.0838258
0.0831685
0.0824715
0.0817392
0.0809762
0.0801871
0.0793768
0.0785505
0.0777138
0.0768729
0.0760343
0.0752049
0.0743918
0.0736026
0.0728453
0.0721283
0.0714603
0.0708498
0.0703054
0.0698357
0.069449
0.0691528
0.0689518
0.068849
0.0688667
0.0690208
0.000199887
0.00037266
0.000398913
0.00030289
0.000110063
-0.000174013
-0.000541545
-0.000983693
-0.00149184
-0.00205668
-0.00267068
-0.003326
-0.0040153
-0.00473088
-0.00546539
-0.00621226
-0.00696542
-0.0077187
-0.00846631
-0.00920281
-0.00992313
-0.0106229
-0.0112979
-0.0119437
-0.0125565
-0.0131327
-0.0136688
-0.0141613
-0.0146075
-0.0150045
-0.0153498
-0.0156415
-0.0158774
-0.0160559
-0.0161757
-0.0162356
-0.0162345
-0.0161718
-0.016047
-0.0158596
-0.0156093
-0.0152962
-0.0149203
-0.0144817
-0.0139808
-0.0134182
-0.0127946
-0.0121103
-0.0113661
-0.0105629
-0.00970149
-0.00878262
-0.00780733
-0.00677691
-0.00569255
-0.00455522
-0.00336611
-0.00212681
-0.000838837
0.000496318
0.00187693
0.00330105
0.00476665
0.00627168
0.00781423
0.00939235
0.0110038
0.0126465
0.0143184
0.0160176
0.0177418
0.0194889
0.0212565
0.0230426
0.024845
0.0266614
0.0284893
0.0303262
0.03217
0.0340185
0.0358689
0.0377189
0.0395657
0.0414069
0.0432402
0.0450631
0.0468733
0.0486682
0.0504457
0.0522036
0.0539397
0.0556515
0.0573367
0.0589932
0.0606187
0.062211
0.0637682
0.065288
0.0667687
0.0682085
0.0696057
0.0709583
0.0722641
0.073521
0.0747272
0.0758811
0.0769813
0.0780263
0.0790146
0.0799448
0.0808154
0.0816254
0.082374
0.0830599
0.0836823
0.0842404
0.084734
0.0851627
0.0855263
0.0858244
0.0860565
0.0862228
0.0863237
0.0863599
0.0863323
0.0862419
0.0860899
0.0858773
0.0856055
0.0852763
0.0848919
0.084455
0.083968
0.0834335
0.0828539
0.0822326
0.0815736
0.0808811
0.0801595
0.0794131
0.0786466
0.0778649
0.0770737
0.0762787
0.0754859
0.0747018
0.0739329
0.0731865
0.0724702
0.0717916
0.0711584
0.0705784
0.0700592
0.0696084
0.0692339
0.0689433
0.0687424
0.0686358
0.0686473
0.0687958
0.000591012
0.000736829
0.000745623
0.000639241
0.000441307
0.000158384
-0.000202544
-0.000632347
-0.00112295
-0.00166628
-0.00225458
-0.00288122
-0.00353904
-0.00422119
-0.00492105
-0.0056323
-0.00634896
-0.0070653
-0.0077764
-0.0084764
-0.00916086
-0.00982541
-0.0104656
-0.0110779
-0.0116582
-0.0122033
-0.0127097
-0.0131744
-0.0135941
-0.0139666
-0.0142895
-0.0145606
-0.0147781
-0.0149405
-0.0150462
-0.0150941
-0.0150833
-0.015013
-0.0148828
-0.0146922
-0.0144408
-0.0141287
-0.0137557
-0.013322
-0.0128281
-0.0122746
-0.0116618
-0.0109903
-0.0102607
-0.00947385
-0.00863044
-0.00773126
-0.00677745
-0.00577016
-0.00471036
-0.0035991
-0.00243768
-0.00122761
2.97043e-05
0.0013329
0.00268027
0.00406984
0.00549974
0.00696817
0.00847314
0.0100126
0.0115846
0.013187
0.0148179
0.0164754
0.0181574
0.0198617
0.0215861
0.0233286
0.0250871
0.0268592
0.0286424
0.0304344
0.0322333
0.0340366
0.0358419
0.0376466
0.0394484
0.041245
0.0430338
0.0448126
0.0465789
0.0483304
0.0500649
0.0517804
0.0534744
0.0551447
0.0567891
0.0584054
0.0599916
0.0615454
0.0630648
0.0645478
0.0659926
0.0673977
0.0687612
0.0700812
0.0713555
0.0725823
0.0737598
0.0748865
0.0759611
0.076982
0.0779478
0.0788572
0.0797089
0.080502
0.0812353
0.081908
0.082519
0.0830677
0.083554
0.0839776
0.0843383
0.0846355
0.084869
0.0850388
0.0851456
0.08519
0.0851728
0.0850952
0.084958
0.0847624
0.0845097
0.0842017
0.0838409
0.0834296
0.0829702
0.082465
0.0819166
0.0813281
0.0807035
0.0800471
0.0793627
0.0786545
0.0779268
0.0771847
0.0764335
0.0756786
0.0749255
0.0741801
0.0734487
0.0727382
0.0720557
0.0714081
0.0708022
0.0702449
0.0697433
0.0693046
0.068936
0.0686447
0.068437
0.0683187
0.0683123
0.068435
0.00111505
0.00121459
0.0011923
0.00106603
0.00085426
0.00056357
0.000201755
-0.000223161
-0.000703938
-0.00123306
-0.00180303
-0.0024077
-0.0030405
-0.00369548
-0.0043664
-0.0050472
-0.00573257
-0.00641728
-0.00709604
-0.00776418
-0.00841692
-0.00904993
-0.00965959
-0.0102418
-0.0107931
-0.0113102
-0.0117902
-0.0122298
-0.0126259
-0.0129763
-0.0132789
-0.0135316
-0.0137325
-0.0138803
-0.0139735
-0.0140109
-0.0139915
-0.0139147
-0.0137798
-0.0135864
-0.0133344
-0.0130234
-0.0126535
-0.0122247
-0.0117377
-0.0111928
-0.0105904
-0.00993102
-0.00921539
-0.00844402
-0.00761763
-0.00673712
-0.00580357
-0.00481803
-0.00378135
-0.00269468
-0.00155947
-0.000377008
0.000851488
0.00212453
0.00344042
0.00479738
0.00619368
0.00762752
0.00909696
0.0106
0.0121345
0.0136988
0.0152909
0.016909
0.0185508
0.0202144
0.0218978
0.023599
0.0253158
0.0270456
0.0287864
0.0305359
0.0322921
0.0340526
0.035815
0.0375769
0.0393361
0.0410903
0.0428371
0.044574
0.0462988
0.0480092
0.049703
0.0513782
0.0530324
0.0546634
0.0562692
0.0578476
0.0593966
0.060914
0.0623977
0.063846
0.0652571
0.0666294
0.0679612
0.0692504
0.0704951
0.0716935
0.072844
0.0739453
0.0749958
0.075994
0.0769387
0.0778286
0.0786627
0.0794398
0.0801589
0.0808189
0.0814192
0.0819591
0.0824385
0.0828572
0.0832149
0.0835112
0.0837458
0.0839188
0.0840307
0.0840825
0.0840749
0.0840087
0.0838849
0.0837046
0.0834692
0.0831806
0.0828411
0.0824529
0.0820183
0.0815394
0.0810188
0.0804599
0.0798663
0.0792418
0.0785902
0.0779153
0.0772216
0.0765138
0.0757971
0.0750764
0.0743568
0.0736436
0.0729431
0.0722616
0.0716058
0.0709819
0.070396
0.0698542
0.069363
0.0689292
0.0685597
0.0682614
0.0680401
0.0679021
0.0678664
0.0679466
0.00175853
0.00179694
0.00173203
0.00157623
0.00134281
0.00103693
0.000666749
0.000239151
-0.000238379
-0.000759746
-0.00131829
-0.00190737
-0.00252133
-0.00315489
-0.00380232
-0.00445839
-0.00511766
-0.00577523
-0.00642646
-0.00706676
-0.00769162
-0.00829715
-0.00887978
-0.00943525
-0.00996086
-0.0104531
-0.0109093
-0.0113262
-0.0117014
-0.0120322
-0.0123165
-0.0125527
-0.0127389
-0.0128737
-0.0129556
-0.0129837
-0.0129569
-0.0128744
-0.0127356
-0.0125402
-0.0122878
-0.0119781
-0.0116113
-0.0111876
-0.0107073
-0.0101706
-0.00957808
-0.00893032
-0.00822787
-0.00747112
-0.00666085
-0.00579807
-0.00488363
-0.00391845
-0.0029036
-0.00184025
-0.000729723
0.000426743
0.001628
0.00287261
0.00415879
0.00548492
0.00684954
0.00825083
0.00968661
0.011155
0.0126543
0.0141825
0.0157379
0.0173184
0.0189222
0.0205474
0.0221919
0.0238539
0.025531
0.0272209
0.0289214
0.0306305
0.0323462
0.0340661
0.0357878
0.0375092
0.0392281
0.0409423
0.0426493
0.0443466
0.046032
0.0477035
0.0493589
0.050996
0.0526124
0.0542063
0.0557756
0.0573182
0.0588321
0.0603152
0.0617654
0.063181
0.0645603
0.0659019
0.0672038
0.0684641
0.0696809
0.0708527
0.071978
0.0730554
0.0740833
0.0750603
0.0759852
0.076857
0.0776746
0.0784367
0.0791424
0.0797906
0.0803807
0.0809122
0.081385
0.081799
0.0821539
0.0824491
0.0826845
0.0828601
0.0829767
0.0830351
0.083036
0.0829801
0.0828683
0.0827016
0.0824818
0.0822106
0.0818902
0.0815227
0.0811101
0.0806546
0.080159
0.0796264
0.0790602
0.0784638
0.0778406
0.0771946
0.0765301
0.0758519
0.0751645
0.0744726
0.0737807
0.0730939
0.072418
0.0717593
0.0711237
0.0705169
0.0699443
0.0694114
0.0689241
0.0684886
0.0681117
0.0677997
0.0675583
0.0673931
0.0673185
0.0673432
0.00250673
0.00247237
0.00235568
0.00216269
0.00189975
0.00157209
0.00118665
0.000750482
0.000269459
-0.000250279
-0.000802602
-0.00138202
-0.00198308
-0.00260066
-0.00323028
-0.00386664
-0.00450469
-0.00513999
-0.00576816
-0.00638472
-0.0069856
-0.00756734
-0.00812607
-0.00865855
-0.00916135
-0.00963155
-0.0100666
-0.0104635
-0.0108197
-0.0111329
-0.0114011
-0.0116226
-0.0117958
-0.011919
-0.011991
-0.0120109
-0.0119775
-0.0118901
-0.0117482
-0.0115512
-0.0112988
-0.0109907
-0.0106271
-0.0102083
-0.00973436
-0.00920562
-0.00862266
-0.00798593
-0.00729587
-0.006553
-0.00575804
-0.00491196
-0.00401556
-0.00306961
-0.00207532
-0.00103406
5.31047e-05
0.00118515
0.00236073
0.00357831
0.00483645
0.00613366
0.00746834
0.00883869
0.0102427
0.0116785
0.0131443
0.0146385
0.016159
0.0177041
0.0192719
0.0208606
0.0224685
0.0240933
0.0257327
0.0273846
0.0290471
0.0307181
0.0323954
0.0340768
0.0357601
0.0374432
0.0391241
0.0408003
0.0424696
0.0441295
0.0457778
0.0474125
0.0490315
0.0506325
0.0522133
0.0537722
0.0553071
0.056816
0.0582969
0.0597476
0.0611663
0.0625512
0.0639009
0.0652135
0.0664873
0.0677204
0.0689112
0.0700582
0.0711599
0.0722148
0.0732216
0.0741787
0.0750853
0.0759401
0.0767423
0.0774905
0.0781836
0.0788206
0.079401
0.0799246
0.0803913
0.0808008
0.0811528
0.0814468
0.0816825
0.0818605
0.0819811
0.0820453
0.0820536
0.0820068
0.0819055
0.0817511
0.0815451
0.0812895
0.080986
0.0806366
0.0802434
0.0798087
0.0793352
0.0788258
0.0782835
0.0777114
0.0771128
0.0764916
0.0758521
0.0751989
0.0745361
0.0738679
0.0731985
0.0725326
0.0718758
0.071234
0.0706127
0.0700169
0.0694517
0.0689217
0.0684323
0.0679892
0.0675989
0.0672672
0.0669993
0.0668005
0.066679
0.0666385
0.00334403
0.00322933
0.00305358
0.00281674
0.00251834
0.00216261
0.00175605
0.00130509
0.000815137
0.000291963
-0.000260065
-0.000834892
-0.00142799
-0.00203514
-0.00265174
-0.00327314
-0.00389487
-0.00451239
-0.00512148
-0.00571835
-0.00629915
-0.0068605
-0.00739885
-0.00791137
-0.00839447
-0.00884555
-0.00926197
-0.00964124
-0.00998073
-0.0102783
-0.0105322
-0.0107407
-0.0109023
-0.0110154
-0.0110788
-0.0110915
-0.0110524
-0.0109608
-0.0108162
-0.0106181
-0.010366
-0.0100597
-0.00969939
-0.00928526
-0.00881749
-0.00829638
-0.00772256
-0.00709636
-0.00641801
-0.00568821
-0.00490786
-0.00407753
-0.00319797
-0.00227029
-0.00129562
-0.00027508
0.000790147
0.00189899
0.00305027
0.00424248
0.00547414
0.00674397
0.00805046
0.00939166
0.0107656
0.0121705
0.0136049
0.0150669
0.0165545
0.018066
0.0195998
0.0211543
0.0227273
0.0243168
0.0259207
0.027537
0.0291635
0.0307984
0.0324394
0.0340844
0.0357315
0.0373785
0.0390234
0.0406639
0.0422975
0.0439221
0.0455354
0.0471355
0.0487201
0.050287
0.0518343
0.0533603
0.0548629
0.0563402
0.0577901
0.0592105
0.0605996
0.0619559
0.0632777
0.0645631
0.0658106
0.0670183
0.0681849
0.0693087
0.0703884
0.0714224
0.0724093
0.073348
0.0742374
0.0750765
0.0758643
0.0765994
0.0772807
0.0779072
0.0784785
0.0789947
0.0794555
0.0798607
0.0802097
0.0805021
0.0807381
0.0809178
0.081042
0.0811111
0.0811258
0.0810866
0.0809947
0.0808512
0.0806575
0.0804154
0.0801266
0.0797931
0.0794169
0.0790005
0.0785463
0.0780571
0.0775354
0.0769841
0.0764064
0.0758062
0.0751878
0.0745553
0.0739128
0.0732637
0.0726118
0.0719619
0.071319
0.0706887
0.0700763
0.0694863
0.0689228
0.0683901
0.0678932
0.0674374
0.0670284
0.0666715
0.0663717
0.0661335
0.0659589
0.0658459
0.00425657
0.00405553
0.0038157
0.00352978
0.00319042
0.00280174
0.00236921
0.0018982
0.00139437
0.000862021
0.000306011
-0.000269276
-0.000859559
-0.00146079
-0.00206905
-0.00268015
-0.00328961
-0.00389325
-0.00448745
-0.00506847
-0.00563279
-0.00617702
-0.0066985
-0.00719385
-0.00766015
-0.00809484
-0.00849516
-0.00885905
-0.00918405
-0.0094681
-0.00970951
-0.00990664
-0.010058
-0.0101622
-0.0102181
-0.0102246
-0.0101807
-0.0100856
-0.00993882
-0.00973982
-0.00948814
-0.00918382
-0.00882685
-0.00841721
-0.00795534
-0.00744167
-0.00687646
-0.00626011
-0.00559302
-0.0048757
-0.00410899
-0.00329355
-0.00243001
-0.00151951
-0.000563363
0.000437479
0.00148209
0.00256919
0.00369742
0.00486558
0.00607245
0.0073166
0.00859634
0.00990991
0.0112555
0.0126315
0.0140362
0.0154677
0.0169243
0.0184043
0.0199062
0.0214282
0.0229684
0.0245248
0.0260952
0.0276777
0.0292704
0.0308712
0.032478
0.0340887
0.0357017
0.0373148
0.0389258
0.0405325
0.0421325
0.0437238
0.0453043
0.0468717
0.0484239
0.0499589
0.0514749
0.05297
0.0544424
0.0558901
0.0573108
0.0587029
0.0600645
0.061394
0.0626896
0.0639498
0.0651727
0.0663568
0.0675008
0.0686031
0.0696622
0.0706766
0.0716451
0.0725666
0.07344
0.0742645
0.0750388
0.0757617
0.0764318
0.0770485
0.0776114
0.0781205
0.0785757
0.0789766
0.0793226
0.0796134
0.0798492
0.0800304
0.0801574
0.0802306
0.0802506
0.0802181
0.0801344
0.0800004
0.0798175
0.0795871
0.079311
0.0789912
0.0786298
0.0782292
0.0777917
0.0773197
0.0768154
0.0762816
0.0757214
0.0751387
0.0745376
0.073922
0.0732955
0.072661
0.0720223
0.0713835
0.0707498
0.0701264
0.0695181
0.0689287
0.0683619
0.0678216
0.0673124
0.0668391
0.0664069
0.0660203
0.0656836
0.0654014
0.0651687
0.0649782
0.005231
0.0049399
0.00463163
0.00429277
0.00390847
0.00348219
0.00301948
0.00252464
0.0020024
0.00145682
0.000891904
0.000311436
-0.000280432
-0.000880257
-0.00148455
-0.00208928
-0.00269046
-0.00328421
-0.00386718
-0.00443583
-0.00498707
-0.0055178
-0.00602531
-0.00650641
-0.00695864
-0.00737931
-0.00776613
-0.00811678
-0.00842924
-0.00870171
-0.00893237
-0.00911969
-0.00926227
-0.0093588
-0.00940815
-0.00940918
-0.00936111
-0.00926319
-0.00911469
-0.00891511
-0.00866418
-0.00836179
-0.00800804
-0.0076029
-0.00714671
-0.00664007
-0.00608315
-0.0054761
-0.00481958
-0.00411425
-0.00336048
-0.0025589
-0.00171056
-0.000816547
0.000122212
0.0011047
0.00212976
0.0031962
0.00430284
0.00544851
0.00663197
0.00785183
0.00910644
0.0103941
0.011713
0.0130618
0.0144385
0.0158414
0.0172688
0.0187192
0.0201911
0.0216827
0.023192
0.0247171
0.0262561
0.027807
0.0293678
0.0309365
0.032511
0.0340896
0.0356705
0.0372517
0.0388308
0.0404057
0.0419742
0.0435343
0.0450838
0.0466206
0.0481425
0.0496476
0.0511342
0.0526006
0.0540447
0.0554646
0.0568583
0.0582239
0.0595598
0.0608643
0.0621356
0.0633721
0.0645722
0.0657345
0.0668574
0.0679397
0.0689797
0.069976
0.0709272
0.0718327
0.0726914
0.0735023
0.0742641
0.0749754
0.0756351
0.0762426
0.0767977
0.0773002
0.0777501
0.0781467
0.0784897
0.0787789
0.0790143
0.0791965
0.0793256
0.0794021
0.0794266
0.0793999
0.0793232
0.0791974
0.0790238
0.0788035
0.0785382
0.07823
0.0778812
0.0774941
0.0770707
0.0766131
0.0761233
0.0756038
0.0750579
0.0744894
0.0739022
0.0732998
0.0726851
0.0720611
0.0714312
0.0707995
0.0701709
0.0695501
0.0689412
0.0683477
0.067773
0.0672206
0.0666949
0.0662003
0.0657409
0.0653204
0.0649429
0.0646127
0.0643184
0.0640469
0.00625544
0.00587205
0.00549258
0.00509707
0.00466447
0.00419739
0.00370095
0.00317865
0.00263423
0.00207157
0.00149361
0.000904065
0.000306421
-0.000296165
-0.000900378
-0.00150263
-0.00209913
-0.0026865
-0.00326158
-0.00382134
-0.00436273
-0.00488313
-0.00537944
-0.00584928
-0.00629003
-0.00669902
-0.00707454
-0.00741418
-0.00771609
-0.00797869
-0.00820022
-0.00837919
-0.00851429
-0.00860425
-0.00864797
-0.00864441
-0.00859281
-0.00849256
-0.00834272
-0.00814282
-0.00789286
-0.00759254
-0.00724178
-0.00684101
-0.00639054
-0.00589051
-0.00534129
-0.00474329
-0.00409692
-0.0034027
-0.00266114
-0.00187287
-0.00103889
-0.000160319
0.000762002
0.00172714
0.00273387
0.00378089
0.00486721
0.00599178
0.00715332
0.0083503
0.0095812
0.0108445
0.0121386
0.0134618
0.0148122
0.0161883
0.0175883
0.0190111
0.0204549
0.0219179
0.0233982
0.0248941
0.0264036
0.0279249
0.0294557
0.0309942
0.0325385
0.034087
0.0356378
0.0371889
0.038738
0.0402831
0.0418221
0.043353
0.0448735
0.0463815
0.0478751
0.0493524
0.0508117
0.0522512
0.0536689
0.055063
0.0564314
0.0577725
0.0590844
0.0603657
0.0616144
0.062829
0.0640079
0.0651499
0.0662535
0.0673173
0.0683395
0.0693188
0.0702542
0.0711449
0.07199
0.0727883
0.0735384
0.0742389
0.074889
0.075488
0.0760359
0.0765323
0.076977
0.0773695
0.0777095
0.077997
0.078232
0.0784147
0.0785454
0.0786245
0.0786526
0.0786308
0.07856
0.0784412
0.0782753
0.0780633
0.0778071
0.0775087
0.0771704
0.0767945
0.0763828
0.0759368
0.0754587
0.0749507
0.0744162
0.0738588
0.0732821
0.0726892
0.0720827
0.0714653
0.0708404
0.0702121
0.0695847
0.0689625
0.0683489
0.0677471
0.0671602
0.0665919
0.0660461
0.0655265
0.0650364
0.0645786
0.0641571
0.063776
0.0634176
0.0630631
0.00731887
0.00684224
0.00638984
0.00593553
0.0054513
0.00494058
0.00440726
0.00385423
0.0032846
0.0027011
0.00210675
0.00150452
0.000897427
0.000288518
-0.000318992
-0.000922107
-0.00151739
-0.0021017
-0.00267209
-0.00322599
-0.00376067
-0.00427344
-0.00476151
-0.00522258
-0.00565414
-0.00605402
-0.0064202
-0.00675086
-0.00704422
-0.00729861
-0.00751249
-0.00768446
-0.00781329
-0.00789771
-0.00793664
-0.00792931
-0.00787489
-0.00777261
-0.00762187
-0.00742212
-0.00717314
-0.00687488
-0.0065273
-0.00613072
-0.00568558
-0.00519198
-0.00465014
-0.00406064
-0.00342393
-0.00274024
-0.00201012
-0.00123445
-0.000414161
0.000449926
0.00135692
0.00230571
0.00329508
0.00432396
0.00539136
0.00649616
0.00763703
0.00881254
0.0100213
0.0112619
0.0125327
0.0138318
0.0151577
0.0165087
0.0178833
0.0192802
0.0206977
0.022134
0.0235873
0.0250558
0.0265379
0.0280313
0.029534
0.0310443
0.0325604
0.0340807
0.0356034
0.0371263
0.0386473
0.0401645
0.041676
0.0431795
0.0446729
0.0461541
0.0476213
0.0490727
0.0505066
0.0519211
0.0533144
0.0546843
0.0560293
0.0573476
0.0586375
0.0598971
0.0611249
0.0623192
0.0634787
0.0646021
0.0656879
0.0667345
0.0677403
0.068704
0.0696248
0.070502
0.0713346
0.0721212
0.0728605
0.0735511
0.0741923
0.0747836
0.0753248
0.0758154
0.0762552
0.0766437
0.0769808
0.0772666
0.077501
0.0776839
0.0778155
0.0778964
0.0779274
0.0779096
0.0778438
0.0777306
0.0775709
0.0773656
0.0771167
0.0768264
0.0764968
0.0761299
0.0757274
0.0752907
0.0748216
0.0743225
0.0737967
0.0732474
0.072678
0.0720912
0.0714893
0.0708751
0.0702519
0.0696236
0.068994
0.0683666
0.0677445
0.0671305
0.0665279
0.0659404
0.0653712
0.0648234
0.0642994
0.0638015
0.0633336
0.0628996
0.0624756
0.0620371
0.00841069
0.00784082
0.00731469
0.00680018
0.00626247
0.00570544
0.00513274
0.00454632
0.00394809
0.00334083
0.00272692
0.00210873
0.00148915
0.000870992
0.000256853
-0.0003503
-0.000947353
-0.00153152
-0.00210029
-0.00265116
-0.00318182
-0.00368948
-0.00417196
-0.00462664
-0.0050512
-0.00544405
-0.00580299
-0.00612656
-0.00641308
-0.00666089
-0.00686862
-0.00703485
-0.00715845
-0.00723834
-0.00727342
-0.00726303
-0.00720645
-0.0071027
-0.00695132
-0.00675202
-0.0065043
-0.00620808
-0.00586366
-0.00547131
-0.0050312
-0.00454362
-0.00400893
-0.00342752
-0.00279975
-0.00212597
-0.00140677
-0.000642966
0.000164567
0.00101505
0.00190761
0.00284108
0.00381425
0.00482616
0.00587586
0.00696218
0.00808373
0.00923918
0.0104273
0.0116467
0.0128957
0.0141724
0.0154754
0.0168031
0.0181541
0.0195269
0.0209198
0.0223312
0.0237594
0.0252026
0.026659
0.0281264
0.0296029
0.0310869
0.0325768
0.0340708
0.0355672
0.0370638
0.0385586
0.0400499
0.0415356
0.0430136
0.0444818
0.0459381
0.0473808
0.0488082
0.0502185
0.0516099
0.0529803
0.054328
0.0556514
0.0569487
0.0582181
0.0594578
0.0606662
0.0618419
0.0629836
0.06409
0.0651595
0.0661903
0.067181
0.0681305
0.0690381
0.069903
0.070724
0.0714998
0.0722291
0.0729106
0.0735438
0.0741281
0.0746631
0.0751483
0.0755833
0.075968
0.0763025
0.0765866
0.0768201
0.0770027
0.0771348
0.0772168
0.07725
0.0772353
0.0771733
0.0770645
0.0769094
0.0767094
0.0764663
0.0761824
0.0758597
0.0754999
0.0751043
0.0746743
0.0742119
0.0737195
0.0731997
0.0726558
0.0720906
0.0715065
0.0709062
0.0702923
0.069668
0.0690365
0.0684013
0.0677653
0.0671312
0.0665019
0.0658808
0.065271
0.0646755
0.0640966
0.0635362
0.0629958
0.0624796
0.0619914
0.0615009
0.0609781
0.00952095
0.00885917
0.00825926
0.00768337
0.00709127
0.00648613
0.00587198
0.00524951
0.00462031
0.00398658
0.00335015
0.00271343
0.00207857
0.00144827
0.000824826
0.000210919
-0.000390766
-0.000977656
-0.00154749
-0.00209803
-0.00262706
-0.0031322
-0.00361116
-0.00406162
-0.00448154
-0.00486913
-0.0052228
-0.00554108
-0.00582235
-0.00606506
-0.00626799
-0.00642981
-0.00654922
-0.00662539
-0.00665762
-0.00664498
-0.00658668
-0.00648206
-0.0063306
-0.00613187
-0.00588553
-0.00559157
-0.0052503
-0.00486199
-0.00442674
-0.00394487
-0.00341691
-0.00284317
-0.0022238
-0.00155924
-0.000850306
-9.77345e-05
0.000697869
0.00153573
0.00241479
0.00333386
0.00429192
0.00528808
0.00632132
0.00739034
0.00849381
0.00963061
0.0107996
0.0119993
0.0132279
0.0144838
0.0157656
0.0170718
0.0184009
0.0197513
0.0211215
0.0225099
0.0239148
0.0253346
0.0267671
0.0282103
0.0296625
0.0311222
0.0325878
0.0340575
0.0355293
0.0370015
0.038472
0.0399392
0.0414011
0.0428554
0.0443001
0.0457333
0.0471534
0.0485586
0.0499471
0.051317
0.0526664
0.0539936
0.0552971
0.0565751
0.0578257
0.0590471
0.0602377
0.0613964
0.062522
0.0636129
0.0646674
0.0656837
0.0666607
0.0675974
0.068493
0.0693467
0.0701571
0.0709229
0.071643
0.0723165
0.0729425
0.0735203
0.0740494
0.0745293
0.0749599
0.0753412
0.0756732
0.0759555
0.0761879
0.0763699
0.0765019
0.0765847
0.0766194
0.0766069
0.0765476
0.0764418
0.0762901
0.0760941
0.0758556
0.0755766
0.075259
0.0749042
0.0745133
0.074088
0.0736302
0.073142
0.072626
0.0720847
0.0715207
0.0709367
0.0703351
0.0697188
0.0690906
0.0684532
0.0678093
0.0671616
0.0665126
0.0658654
0.065223
0.0645884
0.0639639
0.0633514
0.0627522
0.0621676
0.0616017
0.0610586
0.0605013
0.0598945
0.0106418
0.00988884
0.00921581
0.0085788
0.00793109
0.00727666
0.00661936
0.00595905
0.00529682
0.00463417
0.003973
0.00331524
0.00266283
0.00201789
0.00138263
0.00075938
0.000150546
-0.000441657
-0.00101507
-0.00156774
-0.00209741
-0.0026023
-0.00307988
-0.00352809
-0.00394531
-0.0043296
-0.00467983
-0.0049944
-0.00527187
-0.005511
-0.00571036
-0.00586873
-0.00598512
-0.00605865
-0.00608872
-0.00607447
-0.00601511
-0.00591018
-0.00575906
-0.00556109
-0.00531626
-0.00502477
-0.00468668
-0.00430209
-0.00387143
-0.00339517
-0.00287357
-0.00230681
-0.00169525
-0.0010395
-0.000340241
0.000401986
0.00118655
0.00201254
0.00287889
0.0037846
0.00472872
0.00571029
0.00672814
0.00778099
0.00886772
0.00998733
0.0111386
0.01232
0.0135298
0.0147664
0.0160287
0.017315
0.0186239
0.0199537
0.0213029
0.0226701
0.0240537
0.0254517
0.0268621
0.028283
0.0297129
0.0311503
0.0325934
0.0340405
0.0354898
0.0369393
0.0383875
0.0398325
0.0412723
0.0427046
0.0441275
0.0455395
0.0469388
0.0483236
0.049692
0.051042
0.0523721
0.0536806
0.054966
0.0562263
0.0574596
0.0586641
0.0598386
0.060982
0.0620929
0.0631696
0.0642104
0.0652136
0.0661783
0.0671035
0.0679884
0.0688318
0.0696324
0.0703891
0.071101
0.0717672
0.0723868
0.0729586
0.0734822
0.0739572
0.0743837
0.0747619
0.0750916
0.0753721
0.075603
0.0757841
0.0759157
0.075999
0.0760346
0.0760235
0.0759658
0.0758619
0.0757127
0.0755195
0.0752843
0.0750088
0.0746945
0.0743427
0.0739547
0.0735322
0.0730769
0.0725908
0.0720761
0.0715349
0.0709697
0.0703831
0.0697779
0.0691566
0.0685218
0.0678757
0.0672204
0.0665583
0.0658921
0.0652246
0.0645586
0.0638967
0.0632408
0.0625924
0.0619526
0.0613224
0.060706
0.0601075
0.0594835
0.0587935
0.0117658
0.0109234
0.0101778
0.00947955
0.00877616
0.00807172
0.00736966
0.00667011
0.00597305
0.00527971
0.00459195
0.00391103
0.00323873
0.00257691
0.00192757
0.00129266
0.000674312
7.45543e-05
-0.000504687
-0.00106157
-0.00159425
-0.00210071
-0.00257888
-0.00302691
-0.00344308
-0.00382594
-0.00417427
-0.0044867
-0.00476185
-0.00499855
-0.00519552
-0.00535157
-0.00546584
-0.00553766
-0.00556632
-0.00555115
-0.00549141
-0.00538654
-0.00523595
-0.00503917
-0.00479614
-0.004507
-0.00417192
-0.00379107
-0.00336491
-0.00289385
-0.0023781
-0.00181788
-0.00121373
-0.000566229
0.000124112
0.00085679
0.00163103
0.00244588
0.00330044
0.00419383
0.00512509
0.00609308