/*--------------------------------*- C++ -*----------------------------------*\
  =========                 |
  \\      /  F ield         | OpenFOAM: The Open Source CFD Toolbox
   \\    /   O peration     | Website:  https://openfoam.org
    \\  /    A nd           | Version:  7
     \\/     M anipulation  |
\*---------------------------------------------------------------------------*/
FoamFile
{
    version     2.0;
    format      ascii;
    class       surfaceScalarField;
    location    "0.075";
    object      phi;
}
// * * * * * * * * * * * * * * * * * * * * * * * * * * * * * * * * * * * * * //

dimensions      [0 3 -1 0 0 0 0];

internalField   nonuniform List<scalar> 
50880
(
6.50002e-12
-6.45195e-12
3.54267e-11
-2.89309e-11
7.64296e-11
-4.10007e-11
1.20382e-10
-4.3947e-11
1.60999e-10
-4.06156e-11
1.93893e-10
-3.28937e-11
2.16176e-10
-2.22841e-11
2.25913e-10
-9.7395e-12
2.21919e-10
3.99898e-12
2.03418e-10
1.84957e-11
1.70042e-10
3.33785e-11
1.21632e-10
4.84132e-11
5.82263e-11
6.34066e-11
-2.00475e-11
7.82744e-11
-1.1297e-10
9.29229e-11
-2.20281e-10
1.07313e-10
-3.41616e-10
1.21333e-10
-4.76625e-10
1.35004e-10
-6.24889e-10
1.4826e-10
-7.85966e-10
1.61075e-10
-9.59372e-10
1.7341e-10
-1.14458e-09
1.85218e-10
-1.34107e-09
1.96484e-10
-1.54825e-09
2.07184e-10
-1.76556e-09
2.17304e-10
-1.99238e-09
2.26814e-10
-2.22809e-09
2.35723e-10
-2.47207e-09
2.43975e-10
-2.72369e-09
2.51625e-10
-2.9823e-09
2.58605e-10
-3.24725e-09
2.64949e-10
-3.51792e-09
2.7067e-10
-3.79368e-09
2.75755e-10
-4.07387e-09
2.80198e-10
-4.3579e-09
2.84019e-10
-4.64512e-09
2.87219e-10
-4.93491e-09
2.89794e-10
-5.22669e-09
2.91773e-10
-5.51985e-09
2.93163e-10
-5.81381e-09
2.93959e-10
-6.108e-09
2.94192e-10
-6.40188e-09
2.93883e-10
-6.69492e-09
2.93037e-10
-6.98659e-09
2.91678e-10
-7.27643e-09
2.89833e-10
-7.56393e-09
2.87509e-10
-7.84863e-09
2.84701e-10
-8.13005e-09
2.81423e-10
-8.40775e-09
2.77699e-10
-8.68129e-09
2.73542e-10
-8.95025e-09
2.68956e-10
-9.21422e-09
2.63963e-10
-9.47279e-09
2.58574e-10
-9.72557e-09
2.52782e-10
-9.97215e-09
2.46589e-10
-1.02122e-08
2.40008e-10
-1.04452e-08
2.33054e-10
-1.0671e-08
2.25737e-10
-1.0889e-08
2.18067e-10
-1.10991e-08
2.10061e-10
-1.13008e-08
2.01738e-10
-1.14939e-08
1.93114e-10
-1.16781e-08
1.84209e-10
-1.18532e-08
1.75047e-10
-1.20189e-08
1.65658e-10
-1.21749e-08
1.56062e-10
-1.23212e-08
1.46274e-10
-1.24575e-08
1.36308e-10
-1.25837e-08
1.2618e-10
-1.26996e-08
1.15904e-10
-1.28051e-08
1.05487e-10
-1.29e-08
9.49315e-11
-1.29842e-08
8.42447e-11
-1.30577e-08
7.34387e-11
-1.31202e-08
6.25217e-11
-1.31717e-08
5.15041e-11
-1.32121e-08
4.03988e-11
-1.32413e-08
2.92124e-11
-1.32593e-08
1.79551e-11
-1.32659e-08
6.64919e-12
-1.32612e-08
-4.68686e-12
-1.32452e-08
-1.60421e-11
-1.32178e-08
-2.73927e-11
-1.31791e-08
-3.87044e-11
-1.31291e-08
-4.99564e-11
-1.3068e-08
-6.11378e-11
-1.29958e-08
-7.22312e-11
-1.29126e-08
-8.32186e-11
-1.28185e-08
-9.40918e-11
-1.27136e-08
-1.04843e-10
-1.25981e-08
-1.15458e-10
-1.24722e-08
-1.25927e-10
-1.2336e-08
-1.36246e-10
-1.21896e-08
-1.46402e-10
-1.20332e-08
-1.56373e-10
-1.18671e-08
-1.66148e-10
-1.16913e-08
-1.75722e-10
-1.15063e-08
-1.85079e-10
-1.13121e-08
-1.94198e-10
-1.1109e-08
-2.03065e-10
-1.08973e-08
-2.11668e-10
-1.06773e-08
-2.1999e-10
-1.04493e-08
-2.28005e-10
-1.02136e-08
-2.35691e-10
-9.97061e-09
-2.43034e-10
-9.72059e-09
-2.50016e-10
-9.46398e-09
-2.5661e-10
-9.20118e-09
-2.62802e-10
-8.9326e-09
-2.68583e-10
-8.65865e-09
-2.73943e-10
-8.3798e-09
-2.78857e-10
-8.09649e-09
-2.83302e-10
-7.80923e-09
-2.87264e-10
-7.5185e-09
-2.9073e-10
-7.22482e-09
-2.93682e-10
-6.92872e-09
-2.96102e-10
-6.63074e-09
-2.97974e-10
-6.33145e-09
-2.9929e-10
-6.03141e-09
-3.0004e-10
-5.7312e-09
-3.00208e-10
-5.43143e-09
-2.99778e-10
-5.13269e-09
-2.9874e-10
-4.8356e-09
-2.97087e-10
-4.54079e-09
-2.9481e-10
-4.24889e-09
-2.91899e-10
-3.96054e-09
-2.8835e-10
-3.67637e-09
-2.84165e-10
-3.39703e-09
-2.79342e-10
-3.12316e-09
-2.7387e-10
-2.85542e-09
-2.67738e-10
-2.59448e-09
-2.60943e-10
-2.34099e-09
-2.53492e-10
-2.0956e-09
-2.45391e-10
-1.85895e-09
-2.36648e-10
-1.63169e-09
-2.27262e-10
-1.41446e-09
-2.17235e-10
-1.20788e-09
-2.06573e-10
-1.01259e-09
-1.95289e-10
-8.29192e-10
-1.83402e-10
-6.5826e-10
-1.70933e-10
-5.00355e-10
-1.57904e-10
-3.5601e-10
-1.44344e-10
-2.25729e-10
-1.30281e-10
-1.09977e-10
-1.15752e-10
-9.16895e-12
-1.00808e-10
7.63507e-11
-8.55204e-11
1.46328e-10
-6.99786e-11
2.0062e-10
-5.4293e-11
2.39215e-10
-3.85944e-11
2.62268e-10
-2.30513e-11
2.70157e-10
-7.89025e-12
2.63563e-10
6.59304e-12
2.43563e-10
1.99977e-11
2.11781e-10
3.17818e-11
1.70574e-10
4.12064e-11
1.23346e-10
4.72252e-11
7.49545e-11
4.83918e-11
3.22869e-11
4.26674e-11
4.70092e-12
2.75855e-11
4.70044e-12
3.06887e-11
-3.71438e-11
9.99925e-11
-9.82294e-11
1.88444e-10
-1.29461e-10
2.80159e-10
-1.35665e-10
3.62186e-10
-1.22647e-10
4.24409e-10
-9.51126e-11
4.59166e-10
-5.70421e-11
4.60975e-10
-1.15513e-11
4.25923e-10
3.90472e-11
3.51441e-10
9.29811e-11
2.35867e-10
1.48947e-10
7.83186e-11
2.05965e-10
-1.21572e-10
2.63288e-10
-3.63677e-10
3.20382e-10
-6.47584e-10
3.76821e-10
-9.72538e-10
4.32272e-10
-1.33768e-09
4.86482e-10
-1.74189e-09
5.39215e-10
-2.18397e-09
5.90344e-10
-2.66255e-09
6.3965e-10
-3.17619e-09
6.87043e-10
-3.72335e-09
7.32378e-10
-4.30245e-09
7.75579e-10
-4.91181e-09
8.16546e-10
-5.54973e-09
8.55225e-10
-6.21448e-09
8.9156e-10
-6.90425e-09
9.2549e-10
-7.61728e-09
9.57008e-10
-8.35174e-09
9.86088e-10
-9.10585e-09
1.01271e-09
-9.8778e-09
1.0369e-09
-1.06658e-08
1.05865e-09
-1.1468e-08
1.07796e-09
-1.22826e-08
1.09487e-09
-1.3108e-08
1.10939e-09
-1.39423e-08
1.12153e-09
-1.47839e-08
1.13133e-09
-1.56309e-08
1.13885e-09
-1.64819e-08
1.1441e-09
-1.7335e-08
1.14712e-09
-1.81888e-08
1.14799e-09
-1.90417e-08
1.14675e-09
-1.98921e-08
1.14345e-09
-2.07386e-08
1.13815e-09
-2.15797e-08
1.13093e-09
-2.2414e-08
1.12181e-09
-2.32401e-08
1.11083e-09
-2.40567e-08
1.09804e-09
-2.48625e-08
1.0835e-09
-2.56562e-08
1.06725e-09
-2.64366e-08
1.04933e-09
-2.72024e-08
1.0298e-09
-2.79526e-08
1.0087e-09
-2.86859e-08
9.8606e-10
-2.94012e-08
9.61905e-10
-3.00974e-08
9.36282e-10
-3.07736e-08
9.09238e-10
-3.14287e-08
8.80816e-10
-3.20617e-08
8.51068e-10
-3.26717e-08
8.2005e-10
-3.32578e-08
7.87827e-10
-3.38191e-08
7.54458e-10
-3.43549e-08
7.20007e-10
-3.48644e-08
6.84547e-10
-3.53469e-08
6.48158e-10
-3.58018e-08
6.10908e-10
-3.62284e-08
5.72857e-10
-3.66261e-08
5.3406e-10
-3.69945e-08
4.94572e-10
-3.7333e-08
4.54443e-10
-3.76413e-08
4.13717e-10
-3.79188e-08
3.72428e-10
-3.81651e-08
3.30611e-10
-3.838e-08
2.88317e-10
-3.85631e-08
2.45594e-10
-3.87141e-08
2.02483e-10
-3.88327e-08
1.59029e-10
-3.89188e-08
1.1529e-10
-3.89721e-08
7.13201e-11
-3.89927e-08
2.71717e-11
-3.89803e-08
-1.70916e-11
-3.89349e-08
-6.13984e-11
-3.88566e-08
-1.05676e-10
-3.87455e-08
-1.49848e-10
-3.86016e-08
-1.93839e-10
-3.84251e-08
-2.37585e-10
-3.82163e-08
-2.81028e-10
-3.79755e-08
-3.24111e-10
-3.77028e-08
-3.66775e-10
-3.73987e-08
-4.0897e-10
-3.70635e-08
-4.50647e-10
-3.66976e-08
-4.91759e-10
-3.63016e-08
-5.32256e-10
-3.58759e-08
-5.72085e-10
-3.54211e-08
-6.11191e-10
-3.49378e-08
-6.49517e-10
-3.44265e-08
-6.87005e-10
-3.3888e-08
-7.23598e-10
-3.33229e-08
-7.59233e-10
-3.27321e-08
-7.93849e-10
-3.21164e-08
-8.27383e-10
-3.14767e-08
-8.59768e-10
-3.08137e-08
-8.90931e-10
-3.01286e-08
-9.20803e-10
-2.94223e-08
-9.49312e-10
-2.8696e-08
-9.76388e-10
-2.79506e-08
-1.00197e-09
-2.71874e-08
-1.02598e-09
-2.64076e-08
-1.04838e-09
-2.56125e-08
-1.0691e-09
-2.48033e-08
-1.08808e-09
-2.39813e-08
-1.10524e-09
-2.3148e-08
-1.12053e-09
-2.23049e-08
-1.13389e-09
-2.14533e-08
-1.14526e-09
-2.05948e-08
-1.15458e-09
-1.9731e-08
-1.1618e-09
-1.88634e-08
-1.16687e-09
-1.79937e-08
-1.16974e-09
-1.71236e-08
-1.17037e-09
-1.62546e-08
-1.16871e-09
-1.53887e-08
-1.16472e-09
-1.45274e-08
-1.15836e-09
-1.36726e-08
-1.14961e-09
-1.2826e-08
-1.13844e-09
-1.19896e-08
-1.12481e-09
-1.1165e-08
-1.10873e-09
-1.03542e-08
-1.09017e-09
-9.55895e-09
-1.06911e-09
-8.78116e-09
-1.04553e-09
-8.02267e-09
-1.01944e-09
-7.28533e-09
-9.90832e-10
-6.57099e-09
-9.59725e-10
-5.8815e-09
-9.26141e-10
-5.21866e-09
-8.90099e-10
-4.58427e-09
-8.51626e-10
-3.98008e-09
-8.10761e-10
-3.40782e-09
-7.67553e-10
-2.86915e-09
-7.22072e-10
-2.36567e-09
-6.74409e-10
-1.89891e-09
-6.24666e-10
-1.47029e-09
-5.72963e-10
-1.08113e-09
-5.19442e-10
-7.3261e-10
-4.64276e-10
-4.25726e-10
-4.07692e-10
-1.61273e-10
-3.49974e-10
6.02257e-11
-2.91477e-10
2.38572e-10
-2.3264e-10
3.73977e-10
-1.74e-10
4.67155e-10
-1.16231e-10
5.1946e-10
-6.01974e-11
5.33058e-10
-7.00518e-12
5.11141e-10
4.19126e-11
4.58234e-10
8.46875e-11
3.80552e-10
1.18888e-10
2.86427e-10
1.41349e-10
1.86743e-10
1.48077e-10
9.51726e-11
1.34237e-10
2.76824e-11
9.50758e-11
3.23837e-11
4.6241e-11
-8.33827e-11
1.39725e-10
-1.91719e-10
2.52127e-10
-2.41865e-10
3.63245e-10
-2.46781e-10
4.56317e-10
-2.15716e-10
5.17679e-10
-1.56481e-10
5.36526e-10
-7.58861e-11
5.0458e-10
2.03997e-11
4.15732e-10
1.27896e-10
2.65608e-10
2.43102e-10
5.12958e-11
3.63253e-10
-2.28979e-10
4.8624e-10
-5.76058e-10
6.1037e-10
-9.90018e-10
7.34344e-10
-1.47039e-09
8.5719e-10
-2.01617e-09
9.78051e-10
-2.626e-09
1.0963e-09
-3.29816e-09
1.21138e-09
-4.03071e-09
1.32289e-09
-4.82148e-09
1.43043e-09
-5.66818e-09
1.53374e-09
-6.5683e-09
1.63251e-09
-7.51927e-09
1.72655e-09
-8.51845e-09
1.81572e-09
-9.56306e-09
1.89984e-09
-1.06503e-08
1.97884e-09
-1.17774e-08
2.05258e-09
-1.29415e-08
2.12108e-09
-1.41396e-08
2.18424e-09
-1.5369e-08
2.24208e-09
-1.66267e-08
2.29459e-09
-1.79098e-08
2.34179e-09
-1.92156e-08
2.38372e-09
-2.05411e-08
2.42039e-09
-2.18836e-08
2.45187e-09
-2.32403e-08
2.47821e-09
-2.46084e-08
2.49947e-09
-2.59853e-08
2.51574e-09
-2.73683e-08
2.52709e-09
-2.87548e-08
2.53361e-09
-3.01422e-08
2.53542e-09
-3.15281e-08
2.5326e-09
-3.29099e-08
2.52527e-09
-3.42853e-08
2.51355e-09
-3.56519e-08
2.49755e-09
-3.70075e-08
2.47735e-09
-3.83497e-08
2.45306e-09
-3.96765e-08
2.42479e-09
-4.09856e-08
2.39265e-09
-4.22751e-08
2.35671e-09
-4.35428e-08
2.31711e-09
-4.4787e-08
2.27394e-09
-4.60056e-08
2.22729e-09
-4.71967e-08
2.17725e-09
-4.83588e-08
2.12392e-09
-4.94899e-08
2.0674e-09
-5.05884e-08
2.00778e-09
-5.16528e-08
1.94518e-09
-5.26814e-08
1.8797e-09
-5.36728e-08
1.81147e-09
-5.46256e-08
1.74061e-09
-5.55384e-08
1.66725e-09
-5.64099e-08
1.59151e-09
-5.72389e-08
1.51353e-09
-5.80242e-08
1.43347e-09
-5.87648e-08
1.35144e-09
-5.94595e-08
1.26757e-09
-6.01074e-08
1.182e-09
-6.07077e-08
1.09483e-09
-6.12594e-08
1.00618e-09
-6.17618e-08
9.16146e-10
-6.22142e-08
8.24836e-10
-6.2616e-08
7.32354e-10
-6.29665e-08
6.38808e-10
-6.32652e-08
5.44303e-10
-6.35116e-08
4.48952e-10
-6.37055e-08
3.52872e-10
-6.38464e-08
2.56177e-10
-6.3934e-08
1.58989e-10
-6.39683e-08
6.14418e-11
-6.39491e-08
-3.63328e-11
-6.38763e-08
-1.342e-10
-6.37499e-08
-2.3201e-10
-6.35702e-08
-3.29607e-10
-6.33372e-08
-4.26849e-10
-6.30512e-08
-5.23601e-10
-6.27125e-08
-6.19728e-10
-6.23215e-08
-7.15096e-10
-6.18787e-08
-8.09579e-10
-6.13846e-08
-9.03055e-10
-6.08398e-08
-9.95397e-10
-6.02451e-08
-1.08648e-09
-5.96012e-08
-1.17619e-09
-5.89088e-08
-1.26441e-09
-5.8169e-08
-1.35099e-09
-5.73827e-08
-1.43581e-09
-5.6551e-08
-1.51874e-09
-5.5675e-08
-1.59964e-09
-5.47558e-08
-1.67838e-09
-5.37949e-08
-1.75482e-09
-5.27934e-08
-1.82881e-09
-5.1753e-08
-1.90022e-09
-5.0675e-08
-1.9689e-09
-4.95611e-08
-2.03469e-09
-4.8413e-08
-2.09745e-09
-4.72323e-08
-2.15704e-09
-4.6021e-08
-2.21332e-09
-4.47808e-08
-2.26614e-09
-4.35138e-08
-2.31538e-09
-4.2222e-08
-2.36089e-09
-4.09076e-08
-2.40255e-09
-3.95726e-08
-2.44022e-09
-3.82193e-08
-2.47377e-09
-3.68501e-08
-2.50307e-09
-3.54674e-08
-2.52801e-09
-3.40735e-08
-2.54845e-09
-3.26711e-08
-2.56428e-09
-3.12625e-08
-2.57541e-09
-2.98505e-08
-2.58172e-09
-2.84378e-08
-2.58313e-09
-2.70269e-08
-2.57953e-09
-2.56208e-08
-2.57085e-09
-2.42222e-08
-2.557e-09
-2.28339e-08
-2.53792e-09
-2.14587e-08
-2.51355e-09
-2.00997e-08
-2.48383e-09
-1.87597e-08
-2.44873e-09
-1.74417e-08
-2.4082e-09
-1.61486e-08
-2.36223e-09
-1.48833e-08
-2.31078e-09
-1.36489e-08
-2.25385e-09
-1.24483e-08
-2.19145e-09
-1.12844e-08
-2.12362e-09
-1.01602e-08
-2.05039e-09
-9.07843e-09
-1.97184e-09
-8.04203e-09
-1.88803e-09
-7.05374e-09
-1.79905e-09
-6.11625e-09
-1.70505e-09
-5.23215e-09
-1.60617e-09
-4.40392e-09
-1.50264e-09
-3.6339e-09
-1.39468e-09
-2.92426e-09
-1.28259e-09
-2.27699e-09
-1.16672e-09
-1.6938e-09
-1.04747e-09
-1.17611e-09
-9.25382e-10
-7.24988e-10
-8.01092e-10
-3.41075e-10
-6.75389e-10
-2.44759e-11
-5.4924e-10
2.25351e-10
-4.23828e-10
4.09741e-10
-3.00621e-10
5.31e-10
-1.81458e-10
5.92632e-10
-6.86376e-11
5.996e-10
3.49433e-11
5.58657e-10
1.25629e-10
4.78726e-10
1.9882e-10
3.71285e-10
2.48789e-10
2.50714e-10
2.68647e-10
1.34431e-10
2.50522e-10
4.27596e-11
1.86746e-10
7.51442e-11
5.18197e-11
-1.35199e-10
1.52752e-10
-2.92649e-10
2.6801e-10
-3.57119e-10
3.74036e-10
-3.52821e-10
4.51693e-10
-2.93366e-10
4.85114e-10
-1.89905e-10
4.61552e-10
-5.23238e-11
3.70885e-10
1.11062e-10
2.05423e-10
2.93361e-10
-4.05326e-11
4.89062e-10
-3.70938e-10
6.93661e-10
-7.88316e-10
9.03612e-10
-1.29402e-09
1.11607e-09
-1.8884e-09
1.32873e-09
-2.57097e-09
1.53976e-09
-3.3406e-09
1.74769e-09
-4.19559e-09
1.95129e-09
-5.13386e-09
2.14964e-09
-6.15283e-09
2.34186e-09
-7.24975e-09
2.52735e-09
-8.4215e-09
2.70549e-09
-9.66487e-09
2.87587e-09
-1.09764e-08
3.03812e-09
-1.23526e-08
3.19191e-09
-1.37898e-08
3.33704e-09
-1.52843e-08
3.47329e-09
-1.68322e-08
3.60053e-09
-1.84298e-08
3.71867e-09
-2.00732e-08
3.82765e-09
-2.17586e-08
3.92744e-09
-2.3482e-08
4.01803e-09
-2.52397e-08
4.09946e-09
-2.70278e-08
4.17178e-09
-2.88424e-08
4.23504e-09
-3.06799e-08
4.28932e-09
-3.25364e-08
4.33472e-09
-3.44083e-08
4.37137e-09
-3.62919e-08
4.39937e-09
-3.81837e-08
4.41887e-09
-4.00801e-08
4.43003e-09
-4.19777e-08
4.433e-09
-4.3873e-08
4.42794e-09
-4.57628e-08
4.41503e-09
-4.76437e-08
4.39446e-09
-4.95125e-08
4.3664e-09
-5.13662e-08
4.33103e-09
-5.32017e-08
4.28852e-09
-5.50159e-08
4.23905e-09
-5.68061e-08
4.1828e-09
-5.85693e-08
4.11994e-09
-6.03029e-08
4.05066e-09
-6.20041e-08
3.97514e-09
-6.36703e-08
3.89355e-09
-6.52991e-08
3.80605e-09
-6.6888e-08
3.71284e-09
-6.84347e-08
3.61407e-09
-6.99369e-08
3.50995e-09
-7.13924e-08
3.40066e-09
-7.2799e-08
3.28639e-09
-7.41549e-08
3.16735e-09
-7.5458e-08
3.04374e-09
-7.67066e-08
2.91577e-09
-7.78987e-08
2.78366e-09
-7.90328e-08
2.64763e-09
-8.01073e-08
2.50791e-09
-8.11205e-08
2.36471e-09
-8.20712e-08
2.21824e-09
-8.29579e-08
2.06871e-09
-8.37794e-08
1.91634e-09
-8.45346e-08
1.76131e-09
-8.52222e-08
1.60383e-09
-8.58415e-08
1.44408e-09
-8.63914e-08
1.28226e-09
-8.68711e-08
1.11856e-09
-8.728e-08
9.532e-10
-8.76174e-08
7.86363e-10
-8.78828e-08
6.18257e-10
-8.80758e-08
4.49104e-10
-8.81959e-08
2.79122e-10
-8.8243e-08
1.08525e-10
-8.82168e-08
-6.24558e-11
-8.81175e-08
-2.33581e-10
-8.79449e-08
-4.04607e-10
-8.76992e-08
-5.75292e-10
-8.73806e-08
-7.45392e-10
-8.69896e-08
-9.14668e-10
-8.65264e-08
-1.08289e-09
-8.59917e-08
-1.24981e-09
-8.53861e-08
-1.41522e-09
-8.47102e-08
-1.57889e-09
-8.3965e-08
-1.74058e-09
-8.31514e-08
-1.90008e-09
-8.22705e-08
-2.05715e-09
-8.13233e-08
-2.21157e-09
-8.03112e-08
-2.36311e-09
-7.92355e-08
-2.51154e-09
-7.80976e-08
-2.65661e-09
-7.68991e-08
-2.79809e-09
-7.56418e-08
-2.93575e-09
-7.43273e-08
-3.06932e-09
-7.29575e-08
-3.19858e-09
-7.15345e-08
-3.32327e-09
-7.00602e-08
-3.44315e-09
-6.85369e-08
-3.55796e-09
-6.69669e-08
-3.66745e-09
-6.53526e-08
-3.77138e-09
-6.36964e-08
-3.86951e-09
-6.2001e-08
-3.96159e-09
-6.0269e-08
-4.0474e-09
-5.85031e-08
-4.1267e-09
-5.67064e-08
-4.19927e-09
-5.48818e-08
-4.26487e-09
-5.30323e-08
-4.32329e-09
-5.1161e-08
-4.37431e-09
-4.92713e-08
-4.41773e-09
-4.73664e-08
-4.45334e-09
-4.54497e-08
-4.48095e-09
-4.35248e-08
-4.50037e-09
-4.15951e-08
-4.51144e-09
-3.96642e-08
-4.51399e-09
-3.77359e-08
-4.50786e-09
-3.58138e-08
-4.49292e-09
-3.39018e-08
-4.46902e-09
-3.20036e-08
-4.43606e-09
-3.01233e-08
-4.39393e-09
-2.82645e-08
-4.34255e-09
-2.64314e-08
-4.28184e-09
-2.46279e-08
-4.21174e-09
-2.28579e-08
-4.13222e-09
-2.11254e-08
-4.04325e-09
-1.94345e-08
-3.94482e-09
-1.77889e-08
-3.83698e-09
-1.61928e-08
-3.71977e-09
-1.46499e-08
-3.59328e-09
-1.31641e-08
-3.45763e-09
-1.17392e-08
-3.31296e-09
-1.03787e-08
-3.15948e-09
-9.08636e-09
-2.99743e-09
-7.86543e-09
-2.8271e-09
-6.71919e-09
-2.64888e-09
-5.65068e-09
-2.4632e-09
-4.66267e-09
-2.2706e-09
-3.75767e-09
-2.07172e-09
-2.93782e-09
-1.86732e-09
-2.20486e-09
-1.65835e-09
-1.56002e-09
-1.44593e-09
-1.00395e-09
-1.23145e-09
-5.36614e-10
-1.01658e-09
-1.57102e-10
-8.03341e-10
1.36497e-10
-5.9422e-10
3.47308e-10
-3.92271e-10
4.79919e-10
-2.01248e-10
5.4064e-10
-2.57777e-11
5.37821e-10
1.28446e-10
4.82188e-10
2.54454e-10
3.87178e-10
3.43798e-10
2.69308e-10
3.86517e-10
1.48465e-10
3.71363e-10
4.84879e-11
2.86722e-10
1.23632e-10
5.01495e-11
-1.8535e-10
1.44226e-10
-3.86728e-10
2.44409e-10
-4.573e-10
3.25001e-10
-4.33407e-10
3.65393e-10
-3.33763e-10
3.48511e-10
-1.73021e-10
2.60372e-10
3.58122e-11
8.97628e-11
2.8167e-10
-1.72062e-10
5.5518e-10
-5.3164e-10
8.48642e-10
-9.93771e-10
1.15579e-09
-1.5615e-09
1.47135e-09
-2.23663e-09
1.7912e-09
-3.01968e-09
2.11178e-09
-3.91029e-09
2.43037e-09
-4.90728e-09
2.74467e-09
-6.00871e-09
3.05272e-09
-7.21211e-09
3.35304e-09
-8.51456e-09
3.64431e-09
-9.91272e-09
3.92549e-09
-1.14029e-08
4.1957e-09
-1.29813e-08
4.45423e-09
-1.46436e-08
4.70048e-09
-1.63857e-08
4.93397e-09
-1.8203e-08
5.15436e-09
-2.0091e-08
5.36129e-09
-2.20451e-08
5.55462e-09
-2.40606e-08
5.73412e-09
-2.61327e-08
5.89974e-09
-2.82566e-08
6.05141e-09
-3.04277e-08
6.18912e-09
-3.26412e-08
6.31291e-09
-3.48922e-08
6.42283e-09
-3.71762e-08
6.51898e-09
-3.94883e-08
6.60148e-09
-4.1824e-08
6.67046e-09
-4.41788e-08
6.7261e-09
-4.6548e-08
6.76857e-09
-4.89272e-08
6.79808e-09
-5.1312e-08
6.81484e-09
-5.36981e-08
6.8191e-09
-5.60812e-08
6.81108e-09
-5.84573e-08
6.79105e-09
-6.08221e-08
6.75926e-09
-6.31716e-08
6.71597e-09
-6.5502e-08
6.66146e-09
-6.78095e-08
6.59599e-09
-7.00903e-08
6.51982e-09
-7.23407e-08
6.43322e-09
-7.45572e-08
6.33648e-09
-7.67364e-08
6.22987e-09
-7.8875e-08
6.11366e-09
-8.09695e-08
5.98812e-09
-8.3017e-08
5.85353e-09
-8.50143e-08
5.71017e-09
-8.69586e-08
5.55831e-09
-8.88469e-08
5.39825e-09
-9.06765e-08
5.23027e-09
-9.24448e-08
5.05468e-09
-9.41492e-08
4.87178e-09
-9.57874e-08
4.68188e-09
-9.73569e-08
4.48529e-09
-9.88556e-08
4.28234e-09
-1.00281e-07
4.07334e-09
-1.01632e-07
3.85863e-09
-1.02906e-07
3.63854e-09
-1.04101e-07
3.41337e-09
-1.05216e-07
3.18344e-09
-1.06248e-07
2.94909e-09
-1.07198e-07
2.71061e-09
-1.08062e-07
2.4683e-09
-1.08841e-07
2.22249e-09
-1.09532e-07
1.97347e-09
-1.10135e-07
1.72157e-09
-1.10649e-07
1.46709e-09
-1.11073e-07
1.21036e-09
-1.11406e-07
9.51694e-10
-1.11648e-07
6.91434e-10
-1.11799e-07
4.29908e-10
-1.11858e-07
1.67464e-10
-1.11825e-07
-9.55484e-11
-1.117e-07
-3.58777e-10
-1.11483e-07
-6.2186e-10
-1.11174e-07
-8.84428e-10
-1.10773e-07
-1.14612e-09
-1.10281e-07
-1.40657e-09
-1.09698e-07
-1.66542e-09
-1.09026e-07
-1.92231e-09
-1.08264e-07
-2.17688e-09
-1.07414e-07
-2.42878e-09
-1.06477e-07
-2.67765e-09
-1.05454e-07
-2.92313e-09
-1.04346e-07
-3.16488e-09
-1.03156e-07
-3.40251e-09
-1.01883e-07
-3.63569e-09
-1.0053e-07
-3.86403e-09
-9.90999e-08
-4.08718e-09
-9.75932e-08
-4.30477e-09
-9.60125e-08
-4.51642e-09
-9.43601e-08
-4.72175e-09
-9.26383e-08
-4.9204e-09
-9.08496e-08
-5.11198e-09
-8.89966e-08
-5.29613e-09
-8.70821e-08
-5.47245e-09
-8.5109e-08
-5.64058e-09
-8.30802e-08
-5.80015e-09
-8.09989e-08
-5.95078e-09
-7.88684e-08
-6.09212e-09
-7.6692e-08
-6.22381e-09
-7.44732e-08
-6.3455e-09
-7.22156e-08
-6.45685e-09
-6.9923e-08
-6.5575e-09
-6.75991e-08
-6.64714e-09
-6.5248e-08
-6.72543e-09
-6.28737e-08
-6.79208e-09
-6.04802e-08
-6.84677e-09
-5.8072e-08
-6.88922e-09
-5.56532e-08
-6.91916e-09
-5.32283e-08
-6.93632e-09
-5.08018e-08
-6.94045e-09
-4.83783e-08
-6.93134e-09
-4.59625e-08
-6.90876e-09
-4.3559e-08
-6.87252e-09
-4.11726e-08
-6.82245e-09
-3.88082e-08
-6.75839e-09
-3.64705e-08
-6.68023e-09
-3.41645e-08
-6.58785e-09
-3.18951e-08
-6.48118e-09
-2.96671e-08
-6.36016e-09
-2.74856e-08
-6.22478e-09
-2.53554e-08
-6.07505e-09
-2.32813e-08
-5.91102e-09
-2.12683e-08
-5.73281e-09
-1.9321e-08
-5.54054e-09
-1.74442e-08
-5.33443e-09
-1.56424e-08
-5.11472e-09
-1.39202e-08
-4.88174e-09
-1.22817e-08
-4.6359e-09
-1.07311e-08
-4.37767e-09
-9.27236e-09
-4.10766e-09
-7.90899e-09
-3.82657e-09
-6.64432e-09
-3.53526e-09
-5.4813e-09
-3.23474e-09
-4.4224e-09
-2.92622e-09
-3.46958e-09
-2.61117e-09
-2.62419e-09
-2.29132e-09
-1.88687e-09
-1.96878e-09
-1.2574e-09
-1.64605e-09
-7.34556e-10
-1.32618e-09
-3.15952e-10
-1.01282e-09
2.18373e-12
-7.10408e-10
2.2524e-10
-4.24306e-10
3.60475e-10
-1.61013e-10
4.17304e-10
7.16159e-11
4.076e-10
2.64158e-10
3.46008e-10
4.05387e-10
2.50358e-10
4.82165e-10
1.42142e-10
4.7958e-10
4.7435e-11
3.81426e-10
1.71066e-10
4.34716e-11
-2.28825e-10
1.1954e-10
-4.6279e-10
1.90109e-10
-5.27873e-10
2.28764e-10
-4.72066e-10
2.14176e-10
-3.1918e-10
1.28701e-10
-8.75439e-11
-4.22509e-11
2.06765e-10
-3.10402e-10
5.49815e-10
-6.8517e-10
9.29953e-10
-1.17369e-09
1.33716e-09
-1.7811e-09
1.7632e-09
-2.51097e-09
2.20122e-09
-3.3653e-09
2.64552e-09
-4.34487e-09
3.09135e-09
-5.44934e-09
3.53484e-09
-6.67739e-09
3.97272e-09
-8.02704e-09
4.40237e-09
-9.49551e-09
4.82152e-09
-1.10795e-08
5.22835e-09
-1.27754e-08
5.62131e-09
-1.45788e-08
5.99915e-09
-1.64854e-08
6.36083e-09
-1.84904e-08
6.70547e-09
-2.05889e-08
7.03242e-09
-2.27756e-08
7.34106e-09
-2.50453e-08
7.63103e-09
-2.73926e-08
7.90195e-09
-2.98121e-08
8.15359e-09
-3.22982e-08
8.38581e-09
-3.48453e-08
8.59849e-09
-3.74478e-08
8.79163e-09
-4.01001e-08
8.96525e-09
-4.27967e-08
9.11942e-09
-4.5532e-08
9.25426e-09
-4.83004e-08
9.36992e-09
-5.10966e-08
9.46661e-09
-5.3915e-08
9.54452e-09
-5.67503e-08
9.60391e-09
-5.95973e-08
9.64506e-09
-6.24507e-08
9.66824e-09
-6.53054e-08
9.67378e-09
-6.81563e-08
9.66201e-09
-7.09985e-08
9.63327e-09
-7.38272e-08
9.58791e-09
-7.66375e-08
9.52629e-09
-7.94248e-08
9.44877e-09
-8.21846e-08
9.35573e-09
-8.49123e-08
9.24755e-09
-8.76037e-08
9.12461e-09
-9.02545e-08
8.98729e-09
-9.28606e-08
8.83597e-09
-9.5418e-08
8.67105e-09
-9.79228e-08
8.49293e-09
-1.00371e-07
8.30199e-09
-1.0276e-07
8.09863e-09
-1.05085e-07
7.88326e-09
-1.07343e-07
7.65627e-09
-1.0953e-07
7.4181e-09
-1.11645e-07
7.16916e-09
-1.13683e-07
6.90987e-09
-1.15642e-07
6.64068e-09
-1.17519e-07
6.36201e-09
-1.19311e-07
6.07431e-09
-1.21015e-07
5.77805e-09
-1.2263e-07
5.47365e-09
-1.24153e-07
5.16157e-09
-1.25582e-07
4.84227e-09
-1.26915e-07
4.51619e-09
-1.2815e-07
4.18377e-09
-1.29284e-07
3.84546e-09
-1.30318e-07
3.50171e-09
-1.31248e-07
3.15296e-09
-1.32075e-07
2.79965e-09
-1.32795e-07
2.44223e-09
-1.33409e-07
2.08118e-09
-1.33916e-07
1.71693e-09
-1.34314e-07
1.34995e-09
-1.34603e-07
9.80722e-10
-1.34783e-07
6.09729e-10
-1.34853e-07
2.37447e-10
-1.34813e-07
-1.35634e-10
-1.34663e-07
-5.09008e-10
-1.34403e-07
-8.82165e-10
-1.34032e-07
-1.2546e-09
-1.33553e-07
-1.6258e-09
-1.32964e-07
-1.99527e-09
-1.32267e-07
-2.36248e-09
-1.31462e-07
-2.72692e-09
-1.30551e-07
-3.08808e-09
-1.29534e-07
-3.44546e-09
-1.28414e-07
-3.79854e-09
-1.2719e-07
-4.1468e-09
-1.25865e-07
-4.48974e-09
-1.24441e-07
-4.82684e-09
-1.22919e-07
-5.15757e-09
-1.21301e-07
-5.48142e-09
-1.19591e-07
-5.79787e-09
-1.17789e-07
-6.10638e-09
-1.15899e-07
-6.40644e-09
-1.13923e-07
-6.6975e-09
-1.11865e-07
-6.97904e-09
-1.09726e-07
-7.25053e-09
-1.07511e-07
-7.51144e-09
-1.05222e-07
-7.76124e-09
-1.02863e-07
-7.99941e-09
-1.00438e-07
-8.22542e-09
-9.79501e-08
-8.43876e-09
-9.54032e-08
-8.63893e-09
-9.28016e-08
-8.82542e-09
-9.01494e-08
-8.99775e-09
-8.74508e-08
-9.15542e-09
-8.47103e-08
-9.29798e-09
-8.19325e-08
-9.42495e-09
-7.91221e-08
-9.53589e-09
-7.62838e-08
-9.63037e-09
-7.34226e-08
-9.70797e-09
-7.05435e-08
-9.76828e-09
-6.76517e-08
-9.81094e-09
-6.47525e-08
-9.83557e-09
-6.18511e-08
-9.84184e-09
-5.8953e-08
-9.82943e-09
-5.60637e-08
-9.79806e-09
-5.31888e-08
-9.74745e-09
-5.03339e-08
-9.67737e-09
-4.75046e-08
-9.58761e-09
-4.47068e-08
-9.47802e-09
-4.19462e-08
-9.34845e-09
-3.92286e-08
-9.1988e-09
-3.65598e-08
-9.02902e-09
-3.39455e-08
-8.83909e-09
-3.13914e-08
-8.62906e-09
-2.89034e-08
-8.39904e-09
-2.64871e-08
-8.14917e-09
-2.41479e-08
-7.87968e-09
-2.18915e-08
-7.59089e-09
-1.9723e-08
-7.28318e-09
-1.76477e-08
-6.95703e-09
-1.56706e-08
-6.61305e-09
-1.37963e-08
-6.25196e-09
-1.20293e-08
-5.87464e-09
-1.03738e-08
-5.48212e-09
-8.8334e-09
-5.07562e-09
-7.41151e-09
-4.65663e-09
-6.11084e-09
-4.22688e-09
-4.93356e-09
-3.78845e-09
-3.88109e-09
-3.34379e-09
-2.95406e-09
-2.89581e-09
-2.15211e-09
-2.448e-09
-1.47379e-09
-2.0045e-09
-9.1635e-10
-1.57027e-09
-4.7556e-10
-1.1512e-09
-1.45496e-10
-7.54372e-10
8.17059e-11
-3.88214e-10
2.16095e-10
-6.27734e-11
2.70194e-10
2.10057e-10
2.59305e-10
4.16274e-10
2.01934e-10
5.39535e-10
1.20359e-10
5.61155e-10
4.15866e-11
4.60195e-10
2.12652e-10
3.32329e-11
-2.6206e-10
8.29816e-11
-5.12537e-10
1.12602e-10
-5.57492e-10
9.6066e-11
-4.55525e-10
1.21678e-11
-2.35287e-10
-1.56763e-10
8.13879e-11
-4.25444e-10
4.7545e-10
-8.05878e-10
9.30249e-10
-1.30757e-09
1.43164e-09
-1.93794e-09
1.96752e-09
-2.70243e-09
2.5277e-09
-3.60478e-09
3.10357e-09
-4.64713e-09
3.68787e-09
-5.83035e-09
4.27458e-09
-7.15411e-09
4.85859e-09
-8.6171e-09
5.43571e-09
-1.02171e-08
6.00235e-09
-1.19511e-08
6.55555e-09
-1.38156e-08
7.09284e-09
-1.58064e-08
7.61213e-09
-1.7919e-08
8.11172e-09
-2.01483e-08
8.59018e-09
-2.24892e-08
9.04632e-09
-2.4936e-08
9.4792e-09
-2.74829e-08
9.88802e-09
-3.01241e-08
1.02722e-08
-3.28534e-08
1.06313e-08
-3.56647e-08
1.09649e-08
-3.85517e-08
1.12728e-08
-4.15081e-08
1.15549e-08
-4.45275e-08
1.1811e-08
-4.76035e-08
1.20413e-08
-5.07299e-08
1.22458e-08
-5.39002e-08
1.24246e-08
-5.71082e-08
1.25779e-08
-6.03476e-08
1.2706e-08
-6.36123e-08
1.28092e-08
-6.6896e-08
1.28876e-08
-7.01927e-08
1.29418e-08
-7.34965e-08
1.2972e-08
-7.68014e-08
1.29787e-08
-8.01017e-08
1.29623e-08
-8.33917e-08
1.29232e-08
-8.66657e-08
1.28619e-08
-8.99183e-08
1.27789e-08
-9.3144e-08
1.26746e-08
-9.63378e-08
1.25495e-08
-9.94944e-08
1.24041e-08
-1.02609e-07
1.2239e-08
-1.05676e-07
1.20546e-08
-1.08692e-07
1.18515e-08
-1.11651e-07
1.16302e-08
-1.14549e-07
1.13911e-08
-1.17382e-07
1.11349e-08
-1.20145e-07
1.08621e-08
-1.22835e-07
1.05732e-08
-1.25448e-07
1.02687e-08
-1.27979e-07
9.94926e-09
-1.30425e-07
9.6154e-09
-1.32783e-07
9.26769e-09
-1.35049e-07
8.90671e-09
-1.3722e-07
8.53304e-09
-1.39293e-07
8.14726e-09
-1.41265e-07
7.74997e-09
-1.43133e-07
7.34176e-09
-1.44895e-07
6.92324e-09
-1.46547e-07
6.49499e-09
-1.48089e-07
6.05761e-09
-1.49517e-07
5.61172e-09
-1.50829e-07
5.1579e-09
-1.52024e-07
4.69674e-09
-1.531e-07
4.22887e-09
-1.54055e-07
3.75488e-09
-1.54888e-07
3.27539e-09
-1.55598e-07
2.791e-09
-1.56184e-07
2.30235e-09
-1.56644e-07
1.81006e-09
-1.56978e-07
1.31477e-09
-1.57185e-07
8.17112e-10
-1.57265e-07
3.17747e-10
-1.57218e-07
-1.82661e-10
-1.57044e-07
-6.83449e-10
-1.56742e-07
-1.18395e-09
-1.56313e-07
-1.68348e-09
-1.55758e-07
-2.18137e-09
-1.55076e-07
-2.67691e-09
-1.54269e-07
-3.16944e-09
-1.53338e-07
-3.65827e-09
-1.52283e-07
-4.1427e-09
-1.51107e-07
-4.62205e-09
-1.4981e-07
-5.09563e-09
-1.48394e-07
-5.56275e-09
-1.46861e-07
-6.0227e-09
-1.45213e-07
-6.47478e-09
-1.43452e-07
-6.91831e-09
-1.41581e-07
-7.35258e-09
-1.39602e-07
-7.77689e-09
-1.37518e-07
-8.19052e-09
-1.35331e-07
-8.59277e-09
-1.33046e-07
-8.98292e-09
-1.30665e-07
-9.36028e-09
-1.28191e-07
-9.72414e-09
-1.25629e-07
-1.00738e-08
-1.22981e-07
-1.04085e-08
-1.20253e-07
-1.07277e-08
-1.17448e-07
-1.10305e-08
-1.1457e-07
-1.13163e-08
-1.11625e-07
-1.15845e-08
-1.08616e-07
-1.18344e-08
-1.05548e-07
-1.20653e-08
-1.02427e-07
-1.22766e-08
-9.92575e-08
-1.24677e-08
-9.60446e-08
-1.26379e-08
-9.27938e-08
-1.27867e-08
-8.95106e-08
-1.29135e-08
-8.62008e-08
-1.30178e-08
-8.28702e-08
-1.30989e-08
-7.95246e-08
-1.31565e-08
-7.61701e-08
-1.31901e-08
-7.28127e-08
-1.31992e-08
-6.94588e-08
-1.31834e-08
-6.61146e-08
-1.31423e-08
-6.27865e-08
-1.30755e-08
-5.9481e-08
-1.29829e-08
-5.62045e-08
-1.28641e-08
-5.29637e-08
-1.27189e-08
-4.9765e-08
-1.25471e-08
-4.66152e-08
-1.23487e-08
-4.35207e-08
-1.21235e-08
-4.04882e-08
-1.18716e-08
-3.75242e-08
-1.15931e-08
-3.46351e-08
-1.12881e-08
-3.18274e-08
-1.09569e-08
-2.91073e-08
-1.05997e-08
-2.64811e-08
-1.02171e-08
-2.39547e-08
-9.80958e-09
-2.15339e-08
-9.37782e-09
-1.92243e-08
-8.92267e-09
-1.70311e-08
-8.44513e-09
-1.49594e-08
-7.9464e-09
-1.30136e-08
-7.4279e-09
-1.11979e-08
-6.89131e-09
-9.51593e-09
-6.3386e-09
-7.97067e-09
-5.77214e-09
-6.56446e-09
-5.19466e-09
-5.29881e-09
-4.60943e-09
-4.17436e-09
-4.02026e-09
-3.19068e-09
-3.43168e-09
-2.34618e-09
-2.84901e-09
-1.63787e-09
-2.27857e-09
-1.06128e-09
-1.72779e-09
-6.10175e-10
-1.20548e-09
-2.76375e-10
-7.22014e-10
-4.95397e-11
-2.8961e-10
8.31115e-11
7.74061e-11
1.37081e-10
3.62304e-10
1.30999e-10
5.45615e-10
8.71746e-11
6.04981e-10
3.24079e-11
5.14958e-10
2.4506e-10
2.06211e-11
-2.82686e-10
3.78691e-11
-5.29786e-10
1.78643e-11
-5.37485e-10
-6.42178e-11
-3.73445e-10
-2.2886e-10
-7.06425e-11
-4.93387e-10
3.45906e-10
-8.72082e-10
8.54144e-10
-1.37684e-09
1.43501e-09
-2.01713e-09
2.07194e-09
-2.80041e-09
2.7508e-09
-3.73205e-09
3.45934e-09
-4.81584e-09
4.18737e-09
-6.054e-09
4.92602e-09
-7.44736e-09
5.66794e-09
-8.99553e-09
6.40677e-09
-1.06971e-08
7.13726e-09
-1.25496e-08
7.8549e-09
-1.455e-08
8.55596e-09
-1.66944e-08
9.23722e-09
-1.89783e-08
9.89604e-09
-2.13968e-08
1.05302e-08
-2.39444e-08
1.11378e-08
-2.66154e-08
1.17173e-08
-2.94036e-08
1.22675e-08
-3.23029e-08
1.27873e-08
-3.53066e-08
1.32759e-08
-3.84081e-08
1.37327e-08
-4.16004e-08
1.41572e-08
-4.48768e-08
1.45491e-08
-4.82301e-08
1.49082e-08
-5.16534e-08
1.52343e-08
-5.51395e-08
1.55275e-08
-5.86815e-08
1.57877e-08
-6.22722e-08
1.60153e-08
-6.59046e-08
1.62103e-08
-6.95717e-08
1.63732e-08
-7.32666e-08
1.65041e-08
-7.69825e-08
1.66035e-08
-8.07125e-08
1.66718e-08
-8.445e-08
1.67095e-08
-8.81883e-08
1.6717e-08
-9.1921e-08
1.6695e-08
-9.56416e-08
1.66438e-08
-9.93439e-08
1.65642e-08
-1.03022e-07
1.64567e-08
-1.06669e-07
1.63218e-08
-1.1028e-07
1.61603e-08
-1.13848e-07
1.59728e-08
-1.17369e-07
1.57598e-08