/*--------------------------------*- C++ -*----------------------------------*\
  =========                 |
  \\      /  F ield         | OpenFOAM: The Open Source CFD Toolbox
   \\    /   O peration     | Website:  https://openfoam.org
    \\  /    A nd           | Version:  7
     \\/     M anipulation  |
\*---------------------------------------------------------------------------*/
FoamFile
{
    version     2.0;
    format      ascii;
    class       volVectorField;
    location    "0.075";
    object      U;
}
// * * * * * * * * * * * * * * * * * * * * * * * * * * * * * * * * * * * * * //

dimensions      [0 1 -1 0 0 0 0];

internalField   nonuniform List<vector> 
25600
(
(2.66907e-07 -2.19479e-07 0)
(2.8935e-06 -1.65293e-06 0)
(8.71194e-06 -2.45107e-06 0)
(1.57706e-05 -2.65681e-06 0)
(2.272e-05 -2.46953e-06 0)
(2.8726e-05 -2.04113e-06 0)
(3.32295e-05 -1.47387e-06 0)
(3.58556e-05 -8.30919e-07 0)
(3.63549e-05 -1.52153e-07 0)
(3.45782e-05 5.4762e-07 0)
(3.04417e-05 1.24481e-06 0)
(2.39027e-05 1.93734e-06 0)
(1.49578e-05 2.61229e-06 0)
(3.61997e-06 3.27715e-06 0)
(-1.00835e-05 3.92729e-06 0)
(-2.61166e-05 4.56743e-06 0)
(-4.44167e-05 5.18858e-06 0)
(-6.49414e-05 5.79926e-06 0)
(-8.76199e-05 6.39664e-06 0)
(-0.000112381 6.9799e-06 0)
(-0.000139162 7.54214e-06 0)
(-0.00016787 8.08933e-06 0)
(-0.000198425 8.61244e-06 0)
(-0.000230746 9.11129e-06 0)
(-0.000264724 9.58845e-06 0)
(-0.000300278 1.00409e-05 0)
(-0.000337308 1.04632e-05 0)
(-0.000375705 1.08605e-05 0)
(-0.000415376 1.12307e-05 0)
(-0.000456222 1.15664e-05 0)
(-0.00049813 1.18753e-05 0)
(-0.000541 1.21566e-05 0)
(-0.000584744 1.24065e-05 0)
(-0.000629245 1.2628e-05 0)
(-0.000674403 1.28225e-05 0)
(-0.000720128 1.29855e-05 0)
(-0.000766315 1.31175e-05 0)
(-0.000812862 1.32226e-05 0)
(-0.00085968 1.32972e-05 0)
(-0.000906673 1.33378e-05 0)
(-0.000953746 1.33504e-05 0)
(-0.00100081 1.33397e-05 0)
(-0.00104779 1.33048e-05 0)
(-0.00109458 1.32473e-05 0)
(-0.00114112 1.31697e-05 0)
(-0.00118733 1.30706e-05 0)
(-0.00123312 1.29459e-05 0)
(-0.00127843 1.27964e-05 0)
(-0.00132318 1.26275e-05 0)
(-0.00136729 1.24398e-05 0)
(-0.00141071 1.22321e-05 0)
(-0.00145336 1.20062e-05 0)
(-0.00149518 1.17624e-05 0)
(-0.0015361 1.14996e-05 0)
(-0.00157607 1.12165e-05 0)
(-0.00161501 1.09132e-05 0)
(-0.00165287 1.05918e-05 0)
(-0.00168959 1.02534e-05 0)
(-0.00172511 9.89735e-06 0)
(-0.00175937 9.52421e-06 0)
(-0.00179233 9.13511e-06 0)
(-0.00182392 8.73213e-06 0)
(-0.00185412 8.31614e-06 0)
(-0.00188287 7.88801e-06 0)
(-0.00191014 7.4507e-06 0)
(-0.00193588 7.00602e-06 0)
(-0.00196008 6.55439e-06 0)
(-0.00198269 6.097e-06 0)
(-0.00200369 5.63419e-06 0)
(-0.00202307 5.16618e-06 0)
(-0.00204078 4.6942e-06 0)
(-0.00205682 4.2177e-06 0)
(-0.00207116 3.73528e-06 0)
(-0.00208378 3.24772e-06 0)
(-0.00209466 2.75609e-06 0)
(-0.00210379 2.26006e-06 0)
(-0.00211114 1.75968e-06 0)
(-0.00211671 1.25531e-06 0)
(-0.00212049 7.46805e-07 0)
(-0.00212246 2.35053e-07 0)
(-0.00212262 -2.7804e-07 0)
(-0.00212096 -7.91485e-07 0)
(-0.00211748 -1.30455e-06 0)
(-0.00211219 -1.81533e-06 0)
(-0.0021051 -2.32204e-06 0)
(-0.00209621 -2.82407e-06 0)
(-0.00208553 -3.321e-06 0)
(-0.00207309 -3.812e-06 0)
(-0.00205891 -4.29655e-06 0)
(-0.00204299 -4.77458e-06 0)
(-0.00202535 -5.24596e-06 0)
(-0.00200604 -5.71084e-06 0)
(-0.00198506 -6.16971e-06 0)
(-0.00196244 -6.6223e-06 0)
(-0.00193821 -7.06749e-06 0)
(-0.0019124 -7.50479e-06 0)
(-0.00188504 -7.93424e-06 0)
(-0.00185617 -8.35528e-06 0)
(-0.00182582 -8.76699e-06 0)
(-0.00179403 -9.16892e-06 0)
(-0.00176084 -9.5605e-06 0)
(-0.00172629 -9.94028e-06 0)
(-0.00169044 -1.03067e-05 0)
(-0.00165333 -1.06591e-05 0)
(-0.00161502 -1.09973e-05 0)
(-0.00157556 -1.13197e-05 0)
(-0.00153502 -1.16242e-05 0)
(-0.00149345 -1.19101e-05 0)
(-0.00145092 -1.21779e-05 0)
(-0.0014075 -1.24275e-05 0)
(-0.00136326 -1.26571e-05 0)
(-0.00131827 -1.28648e-05 0)
(-0.0012726 -1.30503e-05 0)
(-0.00122634 -1.32132e-05 0)
(-0.00117957 -1.33522e-05 0)
(-0.00113237 -1.34658e-05 0)
(-0.00108482 -1.35533e-05 0)
(-0.00103702 -1.36151e-05 0)
(-0.000989046 -1.36507e-05 0)
(-0.000941003 -1.36585e-05 0)
(-0.000892981 -1.36373e-05 0)
(-0.000845076 -1.35871e-05 0)
(-0.000797386 -1.35085e-05 0)
(-0.00075001 -1.34011e-05 0)
(-0.000703049 -1.32634e-05 0)
(-0.000656603 -1.30946e-05 0)
(-0.000610776 -1.28958e-05 0)
(-0.000565671 -1.26679e-05 0)
(-0.000521389 -1.24106e-05 0)
(-0.000478036 -1.21225e-05 0)
(-0.000435716 -1.18025e-05 0)
(-0.000394536 -1.14511e-05 0)
(-0.0003546 -1.10698e-05 0)
(-0.000316012 -1.06595e-05 0)
(-0.000278875 -1.02195e-05 0)
(-0.000243291 -9.74916e-06 0)
(-0.000209363 -9.2484e-06 0)
(-0.00017719 -8.71769e-06 0)
(-0.000146872 -8.15811e-06 0)
(-0.000118504 -7.57055e-06 0)
(-9.21763e-05 -6.95551e-06 0)
(-6.79772e-05 -6.314e-06 0)
(-4.59896e-05 -5.64684e-06 0)
(-2.62914e-05 -4.95483e-06 0)
(-8.95319e-06 -4.24002e-06 0)
(5.96363e-06 -3.50508e-06 0)
(1.84097e-05 -2.754e-06 0)
(2.83524e-05 -1.99224e-06 0)
(3.5778e-05 -1.2248e-06 0)
(4.06961e-05 -4.59267e-07 0)
(4.31488e-05 2.93835e-07 0)
(4.32167e-05 1.02112e-06 0)
(4.10365e-05 1.7011e-06 0)
(3.68189e-05 2.30506e-06 0)
(3.08732e-05 2.78935e-06 0)
(2.36534e-05 3.08327e-06 0)
(1.58037e-05 3.08426e-06 0)
(8.2469e-06 2.63666e-06 0)
(2.43276e-06 1.56119e-06 0)
(8.84641e-08 6.207e-08 0)
(1.93187e-06 -2.93426e-06 0)
(9.4709e-06 -9.04157e-06 0)
(2.26085e-05 -1.23309e-05 0)
(3.76467e-05 -1.31314e-05 0)
(5.19857e-05 -1.21012e-05 0)
(6.38538e-05 -9.73809e-06 0)
(7.18694e-05 -6.46747e-06 0)
(7.49769e-05 -2.56599e-06 0)
(7.24456e-05 1.72845e-06 0)
(6.3767e-05 6.28127e-06 0)
(4.86108e-05 1.09714e-05 0)
(2.67869e-05 1.57222e-05 0)
(-1.79752e-06 2.04778e-05 0)
(-3.71674e-05 2.51989e-05 0)
(-7.9272e-05 2.98512e-05 0)
(-0.000128009 3.44272e-05 0)
(-0.000183259 3.88856e-05 0)
(-0.000244849 4.3231e-05 0)
(-0.000312602 4.74439e-05 0)
(-0.000386313 5.15103e-05 0)
(-0.000465745 5.54249e-05 0)
(-0.000550671 5.91715e-05 0)
(-0.00064084 6.27409e-05 0)
(-0.000735977 6.61333e-05 0)
(-0.00083583 6.93409e-05 0)
(-0.000940116 7.23462e-05 0)
(-0.00104854 7.51687e-05 0)
(-0.00116084 7.7781e-05 0)
(-0.00127671 8.01976e-05 0)
(-0.00139587 8.24073e-05 0)
(-0.00151802 8.44188e-05 0)
(-0.00164289 8.62252e-05 0)
(-0.00177017 8.78311e-05 0)
(-0.00189959 8.9239e-05 0)
(-0.00203086 9.04465e-05 0)
(-0.00216371 9.14569e-05 0)
(-0.00229784 9.22748e-05 0)
(-0.002433 9.29027e-05 0)
(-0.0025689 9.33413e-05 0)
(-0.00270529 9.35946e-05 0)
(-0.00284191 9.36691e-05 0)
(-0.00297851 9.35691e-05 0)
(-0.00311483 9.32994e-05 0)
(-0.00325064 9.28681e-05 0)
(-0.0033857 9.22819e-05 0)
(-0.00351979 9.15408e-05 0)
(-0.00365268 9.06472e-05 0)
(-0.00378415 8.96049e-05 0)
(-0.00391399 8.84188e-05 0)
(-0.004042 8.70939e-05 0)
(-0.00416798 8.56329e-05 0)
(-0.00429172 8.40416e-05 0)
(-0.00441305 8.23234e-05 0)
(-0.00453177 8.04771e-05 0)
(-0.0046477 7.85051e-05 0)
(-0.00476067 7.6411e-05 0)
(-0.0048705 7.41987e-05 0)
(-0.00497704 7.18721e-05 0)
(-0.00508013 6.94343e-05 0)
(-0.0051796 6.6891e-05 0)
(-0.00527532 6.42477e-05 0)
(-0.00536715 6.15093e-05 0)
(-0.00545495 5.86822e-05 0)
(-0.00553861 5.57731e-05 0)
(-0.00561799 5.27898e-05 0)
(-0.00569301 4.97397e-05 0)
(-0.00576354 4.66273e-05 0)
(-0.00582951 4.34566e-05 0)
(-0.00589083 4.0233e-05 0)
(-0.0059474 3.69607e-05 0)
(-0.00599916 3.36418e-05 0)
(-0.00604603 3.02783e-05 0)
(-0.00608796 2.68733e-05 0)
(-0.00612487 2.34294e-05 0)
(-0.00615672 1.995e-05 0)
(-0.00618345 1.64394e-05 0)
(-0.00620503 1.29006e-05 0)
(-0.00622141 9.33668e-06 0)
(-0.00623257 5.75188e-06 0)
(-0.00623849 2.15183e-06 0)
(-0.00623914 -1.45829e-06 0)
(-0.00623452 -5.07322e-06 0)
(-0.00622463 -8.68573e-06 0)
(-0.00620947 -1.22876e-05 0)
(-0.00618906 -1.58726e-05 0)
(-0.00616343 -1.94359e-05 0)
(-0.0061326 -2.29723e-05 0)
(-0.00609661 -2.6477e-05 0)
(-0.00605551 -2.9946e-05 0)
(-0.00600935 -3.33758e-05 0)
(-0.00595819 -3.67626e-05 0)
(-0.0059021 -4.0103e-05 0)
(-0.00584113 -4.33944e-05 0)
(-0.00577537 -4.6633e-05 0)
(-0.00570491 -4.98138e-05 0)
(-0.00562983 -5.2932e-05 0)
(-0.00555023 -5.59841e-05 0)
(-0.00546622 -5.89656e-05 0)
(-0.00537791 -6.18712e-05 0)
(-0.00528541 -6.46956e-05 0)
(-0.00518886 -6.74342e-05 0)
(-0.00508838 -7.00812e-05 0)
(-0.00498413 -7.26301e-05 0)
(-0.00487625 -7.50746e-05 0)
(-0.00476489 -7.74089e-05 0)
(-0.00465024 -7.96271e-05 0)
(-0.00453246 -8.17231e-05 0)
(-0.00441173 -8.36917e-05 0)
(-0.00428824 -8.55287e-05 0)
(-0.00416219 -8.72295e-05 0)
(-0.00403379 -8.87883e-05 0)
(-0.00390324 -9.0199e-05 0)
(-0.00377077 -9.14564e-05 0)
(-0.0036366 -9.25554e-05 0)
(-0.00350096 -9.34908e-05 0)
(-0.00336409 -9.42574e-05 0)
(-0.00322625 -9.4851e-05 0)
(-0.00308767 -9.52681e-05 0)
(-0.00294862 -9.55044e-05 0)
(-0.00280937 -9.55557e-05 0)
(-0.00267017 -9.54178e-05 0)
(-0.00253131 -9.50878e-05 0)
(-0.00239306 -9.45629e-05 0)
(-0.00225571 -9.38402e-05 0)
(-0.00211953 -9.2917e-05 0)
(-0.00198482 -9.17917e-05 0)
(-0.00185186 -9.04638e-05 0)
(-0.00172096 -8.89323e-05 0)
(-0.0015924 -8.7195e-05 0)
(-0.00146648 -8.52495e-05 0)
(-0.00134351 -8.30948e-05 0)
(-0.00122377 -8.07319e-05 0)
(-0.00110756 -7.81626e-05 0)
(-0.000995181 -7.53887e-05 0)
(-0.000886925 -7.24111e-05 0)
(-0.000783078 -6.92312e-05 0)
(-0.000683923 -6.58513e-05 0)
(-0.00058974 -6.22752e-05 0)
(-0.000500801 -5.85085e-05 0)
(-0.000417368 -5.45579e-05 0)
(-0.000339692 -5.04314e-05 0)
(-0.000268008 -4.61377e-05 0)
(-0.000202538 -4.16872e-05 0)
(-0.000143482 -3.70923e-05 0)
(-9.10147e-05 -3.23701e-05 0)
(-4.52823e-05 -2.75436e-05 0)
(-6.39283e-06 -2.26411e-05 0)
(2.55931e-05 -1.76984e-05 0)
(5.06729e-05 -1.27591e-05 0)
(6.89167e-05 -7.87754e-06 0)
(8.04853e-05 -3.12623e-06 0)
(8.56528e-05 1.40035e-06 0)
(8.48378e-05 5.57747e-06 0)
(7.8646e-05 9.23608e-06 0)
(6.79222e-05 1.21504e-05 0)
(5.38174e-05 1.40111e-05 0)
(3.78358e-05 1.44052e-05 0)
(2.19009e-05 1.28034e-05 0)
(8.7024e-06 8.67802e-06 0)
(1.61254e-06 2.42789e-06 0)
(3.08238e-06 -9.30766e-06 0)
(1.37104e-05 -2.25577e-05 0)
(3.09105e-05 -2.90937e-05 0)
(4.96358e-05 -3.02085e-05 0)
(6.65763e-05 -2.70557e-05 0)
(7.93957e-05 -2.06174e-05 0)
(8.61839e-05 -1.17377e-05 0)
(8.54256e-05 -1.12322e-06 0)
(7.59643e-05 1.07351e-05 0)
(5.69946e-05 2.33971e-05 0)
(2.79295e-05 3.65791e-05 0)
(-1.15892e-05 5.00327e-05 0)
(-6.17533e-05 6.35803e-05 0)
(-0.000122645 7.70897e-05 0)
(-0.000194219 9.04629e-05 0)
(-0.00027636 0.000103593 0)
(-0.000368868 0.000116447 0)
(-0.000471499 0.000128943 0)
(-0.000583959 0.000141055 0)
(-0.000705909 0.000152735 0)
(-0.000837003 0.000163958 0)
(-0.000976851 0.000174684 0)
(-0.00112504 0.000184909 0)
(-0.00128116 0.000194598 0)
(-0.00144478 0.000203738 0)
(-0.00161544 0.000212334 0)
(-0.0017927 0.000220348 0)
(-0.00197611 0.000227797 0)
(-0.00216519 0.000234668 0)
(-0.00235951 0.000240961 0)
(-0.00255859 0.000246668 0)
(-0.00276197 0.000251807 0)
(-0.0029692 0.00025637 0)
(-0.00317981 0.000260358 0)
(-0.00339336 0.000263785 0)
(-0.0036094 0.000266652 0)
(-0.0038275 0.000268964 0)
(-0.00404721 0.000270737 0)
(-0.0042681 0.000271976 0)
(-0.00448976 0.000272691 0)
(-0.00471178 0.000272894 0)
(-0.00493374 0.000272598 0)
(-0.00515525 0.000271813 0)
(-0.00537592 0.000270553 0)
(-0.00559537 0.000268833 0)
(-0.00581324 0.000266663 0)
(-0.00602915 0.000264051 0)
(-0.00624275 0.000261011 0)
(-0.00645371 0.000257554 0)
(-0.00666168 0.000253688 0)
(-0.00686634 0.000249428 0)
(-0.00706736 0.000244783 0)
(-0.00726446 0.000239764 0)
(-0.00745731 0.00023438 0)
(-0.00764564 0.000228638 0)
(-0.00782916 0.00022255 0)
(-0.00800759 0.000216127 0)
(-0.00818069 0.000209379 0)
(-0.00834819 0.000202318 0)
(-0.00850985 0.000194958 0)
(-0.00866544 0.000187313 0)
(-0.00881474 0.000179398 0)
(-0.00895754 0.000171226 0)
(-0.00909362 0.000162813 0)
(-0.00922281 0.000154179 0)
(-0.00934492 0.000145335 0)
(-0.00945978 0.000136299 0)
(-0.00956723 0.000127082 0)
(-0.00966712 0.000117697 0)
(-0.00975931 0.000108157 0)
(-0.00984368 9.84717e-05 0)
(-0.00992009 8.86508e-05 0)
(-0.00998845 7.87036e-05 0)
(-0.0100486 6.86429e-05 0)
(-0.0101006 5.848e-05 0)
(-0.0101442 4.8225e-05 0)
(-0.0101795 3.78902e-05 0)
(-0.0102063 2.74886e-05 0)
(-0.0102246 1.70326e-05 0)
(-0.0102343 6.5359e-06 0)
(-0.0102355 -3.98637e-06 0)
(-0.0102282 -1.45191e-05 0)
(-0.0102122 -2.50457e-05 0)
(-0.0101877 -3.5548e-05 0)
(-0.0101547 -4.60096e-05 0)
(-0.0101132 -5.64158e-05 0)
(-0.0100632 -6.6752e-05 0)
(-0.0100048 -7.70044e-05 0)
(-0.00993806 -8.716e-05 0)
(-0.00986309 -9.72058e-05 0)
(-0.00977995 -0.000107128 0)
(-0.00968877 -0.000116916 0)
(-0.00958964 -0.000126557 0)
(-0.00948271 -0.000136039 0)
(-0.0093681 -0.000145346 0)
(-0.00924597 -0.000154466 0)
(-0.00911649 -0.000163385 0)
(-0.00897982 -0.00017209 0)
(-0.00883616 -0.000180564 0)
(-0.00868569 -0.000188793 0)
(-0.00852865 -0.000196762 0)
(-0.00836524 -0.000204456 0)
(-0.0081957 -0.000211858 0)
(-0.00802029 -0.00021895 0)
(-0.00783926 -0.000225719 0)
(-0.00765288 -0.000232146 0)
(-0.00746145 -0.000238218 0)
(-0.00726525 -0.000243917 0)
(-0.0070646 -0.000249231 0)
(-0.00685981 -0.000254145 0)
(-0.00665123 -0.000258644 0)
(-0.00643918 -0.000262714 0)
(-0.00622403 -0.000266338 0)
(-0.00600615 -0.000269504 0)
(-0.0057859 -0.000272198 0)
(-0.00556367 -0.000274406 0)
(-0.00533986 -0.000276116 0)
(-0.00511487 -0.000277317 0)
(-0.00488913 -0.000277997 0)
(-0.00466304 -0.000278145 0)
(-0.00443704 -0.000277752 0)
(-0.00421158 -0.000276807 0)
(-0.00398709 -0.000275303 0)
(-0.00376402 -0.000273232 0)
(-0.00354283 -0.000270587 0)
(-0.00332398 -0.000267362 0)
(-0.00310794 -0.000263554 0)
(-0.00289518 -0.000259158 0)
(-0.00268618 -0.000254172 0)
(-0.00248139 -0.00024859 0)
(-0.0022813 -0.000242413 0)
(-0.00208638 -0.000235641 0)
(-0.0018971 -0.000228278 0)
(-0.00171394 -0.000220329 0)
(-0.00153734 -0.000211798 0)
(-0.00136778 -0.000202694 0)
(-0.0012057 -0.000193026 0)
(-0.00105153 -0.000182806 0)
(-0.000905705 -0.000172052 0)
(-0.000768622 -0.000160784 0)
(-0.000640673 -0.000149028 0)
(-0.00052222 -0.000136813 0)
(-0.000413595 -0.000124175 0)
(-0.000315096 -0.000111156 0)
(-0.000226976 -9.78125e-05 0)
(-0.000149438 -8.42115e-05 0)
(-8.26213e-05 -7.04384e-05 0)
(-2.65895e-05 -5.65979e-05 0)
(1.86866e-05 -4.2818e-05 0)
(5.33514e-05 -2.92593e-05 0)
(7.76894e-05 -1.61253e-05 0)
(9.21543e-05 -3.67521e-06 0)
(9.74128e-05 7.75867e-06 0)
(9.4389e-05 1.7751e-05 0)
(8.43239e-05 2.57563e-05 0)
(6.88398e-05 3.10805e-05 0)
(4.99596e-05 3.28693e-05 0)
(3.01465e-05 3.01219e-05 0)
(1.28326e-05 2.18932e-05 0)
(2.67349e-06 8.27432e-06 0)
(3.55013e-06 -1.74352e-05 0)
(1.52669e-05 -3.87661e-05 0)
(3.34439e-05 -4.81817e-05 0)
(5.21344e-05 -4.85846e-05 0)
(6.75196e-05 -4.1781e-05 0)
(7.69667e-05 -2.92796e-05 0)
(7.8201e-05 -1.23972e-05 0)
(6.94165e-05 7.75032e-06 0)
(4.91974e-05 3.02405e-05 0)
(1.64702e-05 5.43903e-05 0)
(-2.95059e-05 7.95989e-05 0)
(-8.92592e-05 0.000105446 0)
(-0.00016307 0.000131561 0)
(-0.000251071 0.00015767 0)
(-0.00035327 0.000183554 0)
(-0.000469497 0.000209041 0)
(-0.000599542 0.000233979 0)
(-0.000743098 0.000258256 0)
(-0.000899778 0.000281784 0)
(-0.00106917 0.000304473 0)
(-0.00125079 0.000326263 0)
(-0.00144413 0.000347105 0)
(-0.00164866 0.000366941 0)
(-0.00186383 0.000385749 0)
(-0.00208904 0.000403491 0)
(-0.00232373 0.000420151 0)
(-0.00256727 0.000435702 0)
(-0.00281906 0.000450148 0)
(-0.0030785 0.000463464 0)
(-0.00334495 0.000475662 0)
(-0.00361781 0.000486736 0)
(-0.00389645 0.000496688 0)
(-0.00418026 0.000505526 0)
(-0.00446863 0.000513262 0)
(-0.00476095 0.000519899 0)
(-0.00505661 0.00052545 0)
(-0.00535503 0.000529932 0)
(-0.00565561 0.00053336 0)
(-0.00595779 0.000535748 0)
(-0.00626099 0.00053712 0)
(-0.00656464 0.000537497 0)
(-0.00686821 0.000536896 0)
(-0.00717115 0.00053534 0)
(-0.00747293 0.000532854 0)
(-0.00777304 0.000529457 0)
(-0.00807097 0.000525172 0)
(-0.00836622 0.000520021 0)
(-0.00865831 0.000514027 0)
(-0.00894678 0.00050721 0)
(-0.00923116 0.000499591 0)
(-0.00951101 0.000491193 0)
(-0.0097859 0.000482039 0)
(-0.0100554 0.000472147 0)
(-0.0103191 0.000461538 0)
(-0.0105766 0.000450234 0)
(-0.0108275 0.000438255 0)
(-0.0110715 0.000425624 0)
(-0.0113082 0.000412362 0)
(-0.0115373 0.000398493 0)
(-0.0117584 0.000384045 0)
(-0.0119712 0.00036904 0)
(-0.0121754 0.000353506 0)
(-0.0123707 0.000337469 0)
(-0.0125569 0.000320957 0)
(-0.0127336 0.000303999 0)
(-0.0129007 0.000286624 0)
(-0.0130579 0.000268855 0)
(-0.0132049 0.000250718 0)
(-0.0133416 0.00023224 0)
(-0.0134678 0.000213445 0)
(-0.0135833 0.000194353 0)
(-0.0136878 0.000174989 0)
(-0.0137814 0.000155376 0)
(-0.0138638 0.000135535 0)
(-0.0139349 0.000115493 0)
(-0.0139947 9.5271e-05 0)
(-0.0140429 7.48946e-05 0)
(-0.0140796 5.43897e-05 0)
(-0.0141046 3.37828e-05 0)
(-0.014118 1.31006e-05 0)
(-0.0141197 -7.6289e-06 0)
(-0.0141097 -2.83767e-05 0)
(-0.0140879 -4.9113e-05 0)
(-0.0140544 -6.98067e-05 0)
(-0.0140093 -9.04269e-05 0)
(-0.0139525 -0.000110945 0)
(-0.0138841 -0.000131333 0)
(-0.0138043 -0.000151563 0)
(-0.013713 -0.000171608 0)
(-0.0136105 -0.000191439 0)
(-0.0134968 -0.000211031 0)
(-0.013372 -0.000230358 0)
(-0.0132364 -0.000249391 0)
(-0.0130901 -0.000268105 0)
(-0.0129333 -0.000286471 0)
(-0.0127662 -0.000304462 0)
(-0.0125891 -0.000322049 0)
(-0.0124021 -0.000339204 0)
(-0.0122056 -0.000355898 0)
(-0.0119998 -0.0003721 0)
(-0.0117849 -0.000387782 0)
(-0.0115614 -0.000402912 0)
(-0.0113296 -0.000417461 0)
(-0.0110897 -0.000431397 0)
(-0.0108421 -0.000444691 0)
(-0.0105873 -0.00045731 0)
(-0.0103255 -0.000469226 0)
(-0.0100573 -0.000480409 0)
(-0.009783 -0.000490832 0)
(-0.00950306 -0.000500467 0)
(-0.00921794 -0.000509283 0)
(-0.00892811 -0.000517255 0)
(-0.00863405 -0.000524353 0)
(-0.00833626 -0.000530552 0)
(-0.00803526 -0.000535827 0)
(-0.00773156 -0.000540152 0)
(-0.00742569 -0.000543503 0)
(-0.00711822 -0.000545858 0)
(-0.0068097 -0.000547196 0)
(-0.00650071 -0.000547496 0)
(-0.00619183 -0.00054674 0)
(-0.00588365 -0.000544909 0)
(-0.00557677 -0.000541987 0)
(-0.00527181 -0.000537959 0)
(-0.00496937 -0.000532814 0)
(-0.00467008 -0.000526539 0)
(-0.00437458 -0.000519128 0)
(-0.00408349 -0.00051057 0)
(-0.00379745 -0.000500862 0)
(-0.0035171 -0.000489998 0)
(-0.00324306 -0.00047798 0)
(-0.00297598 -0.000464808 0)
(-0.00271649 -0.00045049 0)
(-0.00246522 -0.000435036 0)
(-0.00222278 -0.000418458 0)
(-0.00198977 -0.000400774 0)
(-0.0017668 -0.000382006 0)
(-0.00155443 -0.000362181 0)
(-0.00135324 -0.000341335 0)
(-0.00116374 -0.000319512 0)
(-0.000986444 -0.000296764 0)
(-0.000821817 -0.000273155 0)
(-0.000670284 -0.00024876 0)
(-0.00053222 -0.000223669 0)
(-0.000407936 -0.000197994 0)
(-0.000297675 -0.000171874 0)
(-0.000201591 -0.000145476 0)
(-0.000119737 -0.000119005 0)
(-5.20446e-05 -9.27089e-05 0)
(1.70495e-06 -6.68973e-05 0)
(4.19065e-05 -4.19533e-05 0)
(6.91655e-05 -1.83527e-05 0)
(8.4342e-05 3.30981e-06 0)
(8.85972e-05 2.22923e-05 0)
(8.34465e-05 3.76753e-05 0)
(7.08183e-05 4.8332e-05 0)
(5.30553e-05 5.29258e-05 0)
(3.29482e-05 4.99418e-05 0)
(1.44367e-05 3.78629e-05 0)
(3.10388e-06 1.5845e-05 0)
(3.54147e-06 -2.58039e-05 0)
(1.47178e-05 -5.48676e-05 0)
(3.12469e-05 -6.60701e-05 0)
(4.67652e-05 -6.42755e-05 0)
(5.71916e-05 -5.20412e-05 0)
(5.96739e-05 -3.14346e-05 0)
(5.17807e-05 -4.29201e-06 0)
(3.14712e-05 2.78482e-05 0)
(-2.81957e-06 6.36835e-05 0)
(-5.22993e-05 0.000102157 0)
(-0.000117887 0.000142415 0)
(-0.000200178 0.000183751 0)
(-0.000299564 0.000225622 0)
(-0.000416216 0.000267554 0)
(-0.000550135 0.000309197 0)
(-0.000701206 0.00035025 0)
(-0.000869172 0.000390461 0)
(-0.00105366 0.000429654 0)
(-0.00125426 0.000467633 0)
(-0.00147044 0.000504295 0)
(-0.00170166 0.000539513 0)
(-0.00194731 0.000573193 0)
(-0.00220674 0.000605274 0)
(-0.00247926 0.000635681 0)
(-0.00276419 0.000664383 0)
(-0.0030608 0.000691318 0)
(-0.00336835 0.00071649 0)
(-0.0036861 0.000739851 0)
(-0.0040133 0.000761406 0)
(-0.00434917 0.000781142 0)
(-0.00469297 0.00079906 0)
(-0.00504392 0.000815166 0)
(-0.00540126 0.000829468 0)
(-0.00576425 0.000841979 0)
(-0.00613213 0.000852714 0)
(-0.00650414 0.000861695 0)
(-0.00687956 0.000868941 0)
(-0.00725765 0.000874475 0)
(-0.0076377 0.000878326 0)
(-0.008019 0.000880523 0)
(-0.00840084 0.000881098 0)
(-0.00878255 0.000880081 0)
(-0.00916345 0.000877508 0)
(-0.00954287 0.000873415 0)
(-0.00992018 0.000867833 0)
(-0.0102947 0.000860797 0)
(-0.0106659 0.000852344 0)
(-0.0110331 0.000842508 0)
(-0.0113958 0.000831324 0)
(-0.0117533 0.000818828 0)
(-0.0121051 0.000805056 0)
(-0.0124506 0.000790044 0)
(-0.0127894 0.000773825 0)
(-0.0131209 0.000756434 0)
(-0.0134446 0.000737909 0)
(-0.01376 0.000718284 0)
(-0.0140667 0.000697596 0)
(-0.0143643 0.000675883 0)
(-0.0146522 0.000653183 0)
(-0.0149301 0.000629538 0)
(-0.0151976 0.000604987 0)
(-0.0154543 0.000579569 0)
(-0.0156999 0.000553329 0)
(-0.0159339 0.00052631 0)
(-0.0161561 0.000498554 0)
(-0.0163661 0.000470104 0)
(-0.0165637 0.000441001 0)
(-0.0167486 0.000411288 0)
(-0.0169204 0.000381003 0)
(-0.0170791 0.000350189 0)
(-0.0172242 0.000318884 0)
(-0.0173557 0.000287126 0)
(-0.0174733 0.000254955 0)
(-0.0175769 0.000222412 0)
(-0.0176663 0.000189537 0)
(-0.0177413 0.000156369 0)
(-0.0178019 0.000122951 0)
(-0.017848 8.93245e-05 0)
(-0.0178795 5.55345e-05 0)
(-0.0178963 2.16248e-05 0)
(-0.0178983 -1.23602e-05 0)
(-0.0178857 -4.63741e-05 0)
(-0.0178583 -8.03684e-05 0)
(-0.0178162 -0.000114295 0)
(-0.0177594 -0.000148108 0)
(-0.0176879 -0.000181759 0)
(-0.0176019 -0.000215203 0)
(-0.0175015 -0.00024839 0)
(-0.0173867 -0.000281278 0)
(-0.0172578 -0.00031382 0)
(-0.0171148 -0.000345971 0)
(-0.0169579 -0.000377684 0)
(-0.0167874 -0.000408915 0)
(-0.0166034 -0.000439619 0)
(-0.0164063 -0.000469746 0)
(-0.0161962 -0.000499252 0)
(-0.0159735 -0.000528089 0)
(-0.0157384 -0.000556211 0)
(-0.0154914 -0.000583567 0)
(-0.0152326 -0.000610111 0)
(-0.0149626 -0.000635792 0)
(-0.0146816 -0.000660564 0)
(-0.0143902 -0.000684376 0)
(-0.0140887 -0.00070718 0)
(-0.0137776 -0.000728926 0)
(-0.0134573 -0.000749565 0)
(-0.0131284 -0.00076905 0)
(-0.0127913 -0.000787335 0)
(-0.0124466 -0.000804372 0)
(-0.0120948 -0.000820116 0)
(-0.0117366 -0.000834521 0)
(-0.0113724 -0.000847543 0)
(-0.0110029 -0.000859139 0)
(-0.0106288 -0.000869268 0)
(-0.0102506 -0.000877887 0)
(-0.00986899 -0.000884957 0)
(-0.00948468 -0.00089044 0)
(-0.00909834 -0.000894301 0)
(-0.00871067 -0.000896505 0)
(-0.00832238 -0.00089702 0)
(-0.0079342 -0.000895816 0)
(-0.00754687 -0.000892865 0)
(-0.00716114 -0.000888141 0)
(-0.00677776 -0.00088162 0)
(-0.00639749 -0.000873284 0)
(-0.00602113 -0.000863115 0)
(-0.00564944 -0.000851099 0)
(-0.00528321 -0.000837225 0)
(-0.00492322 -0.000821485 0)
(-0.00457027 -0.000803876 0)
(-0.00422513 -0.000784398 0)
(-0.0038886 -0.000763058 0)
(-0.00356144 -0.000739867 0)
(-0.00324443 -0.000714843 0)
(-0.00293832 -0.000688012 0)
(-0.00264385 -0.000659403 0)
(-0.00236176 -0.000629057 0)
(-0.00209273 -0.000597023 0)
(-0.00183745 -0.000563363 0)
(-0.00159655 -0.000528153 0)
(-0.00137064 -0.000491483 0)
(-0.00116028 -0.00045346 0)
(-0.000965953 -0.000414212 0)
(-0.00078811 -0.000373896 0)
(-0.000627107 -0.000332699 0)
(-0.000483211 -0.000290847 0)
(-0.000356587 -0.000248614 0)
(-0.000247271 -0.000206329 0)
(-0.000155156 -0.000164391 0)
(-7.99619e-05 -0.000123287 0)
(-2.12033e-05 -8.36103e-05 0)
(2.18422e-05 -4.60865e-05 0)
(5.01747e-05 -1.16003e-05 0)
(6.51167e-05 1.87671e-05 0)
(6.83606e-05 4.37042e-05 0)
(6.20265e-05 6.16374e-05 0)
(4.86605e-05 7.0724e-05 0)
(3.1267e-05 6.88826e-05 0)
(1.40724e-05 5.38966e-05 0)
(3.09939e-06 2.37139e-05 0)
(3.22085e-06 -3.3447e-05 0)
(1.26585e-05 -6.88438e-05 0)
(2.54251e-05 -8.0232e-05 0)
(3.52254e-05 -7.4385e-05 0)
(3.79279e-05 -5.47359e-05 0)
(3.05543e-05 -2.38974e-05 0)
(1.05591e-05 1.57816e-05 0)
(-2.41423e-05 6.23109e-05 0)
(-7.5249e-05 0.000114004 0)
(-0.000144066 0.000169435 0)
(-0.000231566 0.000227466 0)
(-0.000338443 0.000287108 0)
(-0.000465122 0.000347587 0)
(-0.000611825 0.000408249 0)
(-0.000778583 0.000468557 0)
(-0.000965253 0.000528075 0)
(-0.00117156 0.000586446 0)
(-0.00139713 0.00064336 0)
(-0.00164148 0.000698583 0)
(-0.00190401 0.000751903 0)
(-0.00218413 0.000803152 0)
(-0.00248112 0.000852197 0)
(-0.00279424 0.00089892 0)
(-0.00312272 0.000943227 0)
(-0.00346574 0.000985052 0)
(-0.00382247 0.00102434 0)
(-0.00419205 0.00106103 0)
(-0.00457362 0.00109511 0)
(-0.00496628 0.00112656 0)
(-0.00536915 0.00115536 0)
(-0.00578134 0.00118151 0)
(-0.00620195 0.00120501 0)
(-0.00663009 0.00122589 0)
(-0.00706486 0.00124414 0)
(-0.00750538 0.0012598 0)
(-0.00795076 0.0012729 0)
(-0.00840014 0.00128346 0)
(-0.00885266 0.00129152 0)
(-0.00930745 0.00129711 0)
(-0.00976369 0.00130028 0)
(-0.0102205 0.00130106 0)
(-0.0106772 0.00129951 0)
(-0.0111328 0.00129567 0)
(-0.0115867 0.0012896 0)
(-0.012038 0.00128133 0)
(-0.012486 0.00127092 0)
(-0.0129299 0.00125842 0)
(-0.0133691 0.00124388 0)
(-0.0138028 0.00122735 0)
(-0.0142304 0.00120889 0)
(-0.0146511 0.00118855 0)
(-0.0150643 0.00116637 0)
(-0.0154694 0.00114242 0)
(-0.0158658 0.00111674 0)
(-0.0162529 0.00108939 0)
(-0.0166302 0.00106042 0)
(-0.0169969 0.00102988 0)
(-0.0173527 0.000997844 0)
(-0.017697 0.000964354 0)
(-0.0180293 0.00092947 0)
(-0.0183492 0.000893252 0)
(-0.0186562 0.000855759 0)
(-0.0189498 0.000817052 0)
(-0.0192296 0.000777191 0)
(-0.0194953 0.00073624 0)
(-0.0197464 0.000694258 0)
(-0.0199826 0.000651304 0)
(-0.0202037 0.000607441 0)
(-0.0204091 0.00056273 0)
(-0.0205987 0.000517228 0)
(-0.0207723 0.000470994 0)
(-0.0209294 0.000424089 0)
(-0.02107 0.000376573 0)
(-0.0211938 0.000328505 0)
(-0.0213006 0.000279946 0)
(-0.0213903 0.000230956 0)
(-0.0214627 0.0001816 0)
(-0.0215178 0.000131941 0)
(-0.0215553 8.20415e-05 0)
(-0.0215753 3.19671e-05 0)
(-0.0215777 -1.82148e-05 0)
(-0.0215625 -6.84364e-05 0)
(-0.0215296 -0.00011863 0)
(-0.0214792 -0.000168727 0)
(-0.0214112 -0.000218657 0)
(-0.0213257 -0.000268351 0)
(-0.0212228 -0.000317742 0)
(-0.0211026 -0.000366761 0)
(-0.0209653 -0.000415338 0)
(-0.020811 -0.000463405 0)
(-0.02064 -0.000510894 0)
(-0.0204524 -0.000557738 0)
(-0.0202484 -0.000603866 0)
(-0.0200284 -0.00064921 0)
(-0.0197926 -0.0006937 0)
(-0.0195414 -0.000737266 0)
(-0.0192751 -0.000779839 0)
(-0.018994 -0.000821347 0)
(-0.0186985 -0.000861719 0)
(-0.0183892 -0.000900884 0)
(-0.0180663 -0.00093877 0)
(-0.0177304 -0.000975307 0)
(-0.017382 -0.00101042 0)
(-0.0170215 -0.00104405 0)
(-0.0166496 -0.0010761 0)
(-0.0162667 -0.00110653 0)
(-0.0158735 -0.00113524 0)
(-0.0154705 -0.00116219 0)
(-0.0150585 -0.0011873 0)
(-0.014638 -0.00121049 0)
(-0.0142098 -0.00123172 0)
(-0.0137745 -0.00125091 0)
(-0.0133328 -0.00126799 0)
(-0.0128856 -0.00128292 0)
(-0.0124335 -0.00129563 0)
(-0.0119773 -0.00130606 0)
(-0.0115179 -0.00131416 0)
(-0.011056 -0.00131988 0)
(-0.0105925 -0.00132317 0)
(-0.0101283 -0.00132398 0)
(-0.00966409 -0.00132226 0)
(-0.00920088 -0.00131799 0)
(-0.00873951 -0.00131112 0)
(-0.0082809 -0.00130161 0)
(-0.00782594 -0.00128945 0)
(-0.00737555 -0.00127461 0)
(-0.00693065 -0.00125706 0)
(-0.00649216 -0.0012368 0)
(-0.00606101 -0.00121381 0)
(-0.00563813 -0.0011881 0)
(-0.00522443 -0.00115966 0)
(-0.00482084 -0.00112851 0)
(-0.00442827 -0.00109467 0)
(-0.00404761 -0.00105817 0)
(-0.00367975 -0.00101905 0)
(-0.00332555 -0.000977348 0)
(-0.00298585 -0.000933139 0)
(-0.00266146 -0.000886499 0)
(-0.00235316 -0.000837524 0)
(-0.00206169 -0.000786329 0)
(-0.00178773 -0.000733052 0)
(-0.00153192 -0.000677855 0)
(-0.00129481 -0.000620934 0)
(-0.00107691 -0.000562524 0)
(-0.000878604 -0.000502903 0)
(-0.000700184 -0.000442404 0)
(-0.000541819 -0.000381425 0)
(-0.000403535 -0.000320439 0)
(-0.000285195 -0.000260019 0)
(-0.000186472 -0.00020085 0)
(-0.000106815 -0.000143756 0)
(-4.54199e-05 -8.97297e-05 0)
(-1.19439e-06 -3.99638e-05 0)
(2.72841e-05 4.11144e-06 0)
(4.18093e-05 4.07903e-05 0)
(4.46039e-05 6.80513e-05 0)
(3.83289e-05 8.35334e-05 0)
(2.61136e-05 8.45493e-05 0)
(1.22678e-05 6.81221e-05 0)
(2.8099e-06 3.09749e-05 0)
(2.68836e-06 -3.9693e-05 0)
(9.50729e-06 -7.91786e-05 0)
(1.69087e-05 -8.86332e-05 0)
(1.89797e-05 -7.66211e-05 0)
(1.171e-05 -4.73537e-05 0)
(-7.87653e-06 -4.08006e-06 0)
(-4.235e-05 5.04196e-05 0)
(-9.38485e-05 0.000113667 0)
(-0.000164091 0.000183609 0)
(-0.000254389 0.000258477 0)
(-0.000365798 0.000336777 0)
(-0.000499032 0.000417297 0)
(-0.000654545 0.000498991 0)
(-0.000832586 0.000580992 0)
(-0.00103317 0.000662599 0)
(-0.00125618 0.000743207 0)
(-0.00150133 0.000822323 0)
(-0.00176818 0.00089953 0)
(-0.00205621 0.000974497 0)
(-0.00236482 0.00104692 0)
(-0.00269327 0.00111658 0)
(-0.00304083 0.00118327 0)
(-0.00340667 0.00124683 0)
(-0.0037899 0.00130715 0)
(-0.00418963 0.00136409 0)
(-0.00460492 0.00141759 0)
(-0.00503481 0.00146758 0)
(-0.00547831 0.00151403 0)
(-0.00593442 0.00155689 0)
(-0.00640214 0.00159615 0)
(-0.00688045 0.0016318 0)
(-0.00736834 0.00166385 0)
(-0.00786479 0.00169232 0)
(-0.00836878 0.00171721 0)
(-0.0088793 0.00173856 0)
(-0.00939534 0.0017564 0)
(-0.00991591 0.00177077 0)
(-0.01044 0.00178172 0)
(-0.0109667 0.00178929 0)
(-0.011495 0.00179354 0)
(-0.0120239 0.00179453 0)
(-0.0125526 0.00179231 0)
(-0.01308 0.00178695 0)
(-0.0136053 0.00177851 0)
(-0.0141277 0.00176706 0)
(-0.0146462 0.00175267 0)
(-0.0151599 0.0017354 0)
(-0.0156682 0.00171532 0)
(-0.01617 0.0016925 0)
(-0.0166648 0.00166702 0)
(-0.0171516 0.00163895 0)
(-0.0176297 0.00160835 0)
(-0.0180985 0.0015753 0)
(-0.0185572 0.00153988 0)
(-0.019005 0.00150216 0)
(-0.0194415 0.00146221 0)
(-0.0198658 0.00142011 0)
(-0.0202774 0.00137593 0)
(-0.0206758 0.00132976 0)
(-0.0210602 0.00128168 0)
(-0.0214303 0.00123175 0)
(-0.0217854 0.00118007 0)
(-0.022125 0.00112672 0)
(-0.0224487 0.00107178 0)
(-0.022756 0.00101532 0)
(-0.0230465 0.00095744 0)
(-0.0233197 0.000898216 0)
(-0.0235754 0.000837734 0)
(-0.023813 0.000776073 0)
(-0.0240323 0.000713317 0)
(-0.024233 0.00064955 0)
(-0.0244147 0.000584854 0)
(-0.0245773 0.000519313 0)
(-0.0247204 0.00045301 0)
(-0.0248439 0.00038603 0)
(-0.0249475 0.000318459 0)
(-0.0250312 0.000250383 0)
(-0.0250948 0.000181892 0)
(-0.0251381 0.000113073 0)
(-0.0251611 4.40172e-05 0)
(-0.0251638 -2.51854e-05 0)
(-0.0251461 -9.44423e-05 0)
(-0.025108 -0.000163659 0)
(-0.0250495 -0.000232741 0)
(-0.0249707 -0.000301596 0)