/*--------------------------------*- C++ -*----------------------------------*\
  =========                 |
  \\      /  F ield         | OpenFOAM: The Open Source CFD Toolbox
   \\    /   O peration     | Website:  https://openfoam.org
    \\  /    A nd           | Version:  7
     \\/     M anipulation  |
\*---------------------------------------------------------------------------*/
FoamFile
{
    version     2.0;
    format      ascii;
    class       volScalarField;
    location    "0.15";
    object      p;
}
// * * * * * * * * * * * * * * * * * * * * * * * * * * * * * * * * * * * * * //

dimensions      [0 2 -2 0 0 0 0];

internalField   nonuniform List<scalar> 
1600
(
-2.27614e-07
-0.00119002
-0.00391641
-0.00758362
-0.0115207
-0.015233
-0.0183634
-0.0206598
-0.021955
-0.0221495
-0.0211978
-0.0190979
-0.0158833
-0.0116168
-0.00638546
-0.000296993
0.00652395
0.0139381
0.0217943
0.0299319
0.0381829
0.0463745
0.0543328
0.061885
0.0688638
0.0751108
0.0804816
0.0848505
0.0881159
0.0902063
0.091087
0.0907665
0.0893049
0.0868229
0.0835137
0.0796561
0.0756297
0.0719424
0.0692612
0.0681468
0.00118611
-3.31512e-06
-0.0022161
-0.00506198
-0.00809828
-0.0109605
-0.0133645
-0.0150976
-0.0160098
-0.0160055
-0.0150346
-0.0130858
-0.0101798
-0.0063646
-0.00171123
0.00368963
0.00973102
0.0162922
0.0232408
0.0304358
0.0377292
0.0449691
0.0520024
0.0586783
0.064851
0.070384
0.075154
0.0790554
0.0820054
0.0839491
0.0848644
0.0847682
0.0837221
0.081839
0.0792892
0.0763066
0.0731926
0.0703226
0.0681432
0.0670343
0.00392459
0.0022001
-4.26749e-05
-0.00259707
-0.00522024
-0.00764268
-0.00964125
-0.0110446
-0.0117273
-0.0116057
-0.010634
-0.0087991
-0.00611612
-0.00262484
0.00161399
0.00652145
0.0120033
0.017952
0.0242496
0.0307694
0.0373785
0.0439401
0.0503169
0.056373
0.0619781
0.0670103
0.0713602
0.0749353
0.0776638
0.0794991
0.0804247
0.0804581
0.0796555
0.0781157
0.0759827
0.0734472
0.070749
0.0681691
0.0659658
0.0643507
0.00768067
0.00507431
0.00243821
-0.000185604
-0.00273527
-0.00501112
-0.00683913
-0.00808782
-0.00865901
-0.00848604
-0.00753229
-0.00578841
-0.00326925
-1.08964e-05
0.00393175
0.00848739
0.0135706
0.0190838
0.0249191
0.0309609
0.0370873
0.0431727
0.0490908
0.0547165
0.0599297
0.064618
0.0686807
0.0720323
0.0746063
0.0763592
0.077274
0.0773638
0.076675
0.0752892
0.0733234
0.0709291
0.0682986
0.0656463
0.0630595
0.0605948
0.0118609
0.00822794
0.00502535
0.00215041
-0.000501676
-0.00278717
-0.00457357
-0.00576635
-0.00629446
-0.00610973
-0.00518729
-0.00352412
-0.00113727
0.00193806
0.00565032
0.00993351
0.014709
0.0198866
0.0253671
0.0310432
0.0368021
0.0425271
0.0481002
0.0534046
0.0583273
0.0627627
0.0666154
0.0698036
0.0722628
0.0739489
0.0748418
0.0749472
0.0742997
0.0729626
0.071027
0.0686094
0.0658631
0.0629511
0.0598029
0.0563385
0.0160401
0.0113376
0.0074758
0.00423203
0.00135538
-0.00105324
-0.00289474
-0.00410724
-0.00464506
-0.00447823
-0.00359447
-0.00199874
0.000287745
0.0032288
0.00677434
0.0108616
0.0154165
0.0203547
0.0255831
0.0310015
0.0365035
0.041979
0.0473163
0.052404
0.0571343
0.0614049
0.0651231
0.068208
0.0705941
0.0722344
0.0731029
0.0731964
0.0725364
0.0711688
0.0691608
0.0665992
0.0636073
0.0603106
0.0565012
0.0519867
0.0199097
0.0141425
0.0095749
0.00588624
0.0027004
8.69274e-05
-0.00188118
-0.00316964
-0.0037553
-0.00362542
-0.00278052
-0.00123423
0.000986921
0.00384428
0.00728744
0.0112552
0.0156763
0.0204703
0.0255487
0.0308159
0.0361703
0.0415063
0.046716
0.0516917
0.0563275
0.0605225
0.0641838
0.0672289
0.069589
0.0712117
0.0720634
0.0721308
0.0714221
0.0699665
0.0678105
0.0650165
0.0616866
0.0579205
0.0533944
0.0478255
0.0232371
0.0164292
0.0111379
0.00696082
0.00341309
0.00054193
-0.00159924
-0.00299936
-0.0036552
-0.00356974
-0.0027556
-0.00123541
0.00095824
0.00378306
0.00718719
0.0111096
0.0154805
0.0202218
0.0252477
0.0304656
0.0357769
0.0410788
0.0462654
0.0512301
0.0558673
0.0600751
0.063758
0.0668298
0.0692163
0.070858
0.071712
0.0717539
0.0709786
0.0694002
0.0670473
0.0639628
0.0602342
0.0559457
0.0506739
0.0440626
0.0258406
0.0180189
0.0120005
0.00731249
0.00337315
0.000213847
-0.00212675
-0.00365698
-0.00439098
-0.00434595
-0.00354599
-0.00202266
0.000185003
0.00303042
0.00645933
0.0104098
0.0148124
0.0195898
0.0246577
0.0299252
0.0352952
0.0406658
0.0459316
0.0509853
0.0557196
0.0600297
0.0638157
0.0669857
0.0694582
0.0711647
0.0720519
0.0720835
0.0712414
0.0695253
0.0669485
0.0635382
0.0593733
0.0545292
0.0484956
0.0408531
0.0275701
0.018756
0.0120133
0.00680443
0.00245924
-0.00100243
-0.00355303
-0.0052174
-0.00602495
-0.00600588
-0.00519512
-0.00363298
-0.00136513
0.00155716
0.00507653
0.00912925
0.0136451
0.0185467
0.0237502
0.029165
0.0346943
0.040236
0.0456833
0.0509269
0.0558561
0.0603616
0.0643373
0.0676837
0.0703102
0.0721378
0.0731016
0.0731526
0.0722592
0.0704079
0.067598
0.0638444
0.0592209
0.0538
0.0469915
0.0383198
0.0282928
0.0184993
0.0110356
0.0053036
0.000548936
-0.00321708
-0.00597558
-0.00776593
-0.00863127
-0.0086139
-0.00775912
-0.00611575
-0.00373623
-0.000676915
0.0030012
0.00723197
0.0119436
0.017058
0.0224908
0.0281508
0.0339405
0.0397561
0.0454888
0.0510257
0.0562516
0.0610506
0.0653092
0.0689185
0.0717771
0.0737938
0.0748907
0.0750049
0.0740913
0.0721227
0.0690859
0.0649849
0.0598917
0.0538792
0.0462813
0.0365687
0.0278834
0.0171137
0.00893091
0.00267747
-0.00248284
-0.00654572
-0.00949959
-0.0113971
-0.0122944
-0.0122452
-0.0113049
-0.00953094
-0.00698257
-0.00372159
0.000186946
0.00467402
0.00966584
0.0150829
0.0208397
0.0268438
0.0329961
0.0391907
0.0453155
0.051253
0.0568821
0.0620795
0.0667224
0.0706907
0.0738706
0.0761572
0.0774576
0.077694
0.0768062
0.0747533
0.0715092
0.0670684
0.0615025
0.0548873
0.0464808
0.0357009
0.0262162
0.014464
0.00556125
-0.0012094
-0.00676608
-0.0111107
-0.0142384
-0.0162147
-0.0171084
-0.0169848
-0.0159093
-0.013948
-0.0111674
-0.00763513
-0.00342043
0.00140443
0.00676329
0.0125749
0.0187521
0.0252011
0.0318206
0.0385019
0.045129
0.0515793
0.0577247
0.063433
0.0685708
0.0730054
0.0766087
0.0792599
0.0808495
0.0812826
0.0804825
0.0783929
0.0749745
0.0702119
0.0641771
0.05695
0.0477103
0.0358214
0.0231605
0.0104104
0.000783411
-0.00649873
-0.0124379
-0.0170423
-0.0203138
-0.0223312
-0.0231764
-0.0229263
-0.0216572
-0.0194443
-0.0163615
-0.0124825
-0.0078813
-0.00263346
0.00318227
0.00948273
0.0161792
0.0231761
0.0303699
0.0376491
0.0448933
0.0519741
0.0587558
0.0650965
0.0708506
0.0758714
0.0800142
0.0831406
0.0851217
0.0858431
0.0852093
0.0831465
0.0796006
0.0745448
0.0680515
0.0602047
0.0501012
0.0370472
0.0185758
0.00480389
-0.00555494
-0.0133417
-0.0196452
-0.0244807
-0.0278574
-0.0298685
-0.03061
-0.0301717
-0.0286413
-0.0261037
-0.0226413
-0.0183339
-0.0132605
-0.0075003
-0.00113447
0.00575201
0.013069
0.0207193
0.0285977
0.0365895
0.0445702
0.0524056
0.0599515
0.0670557
0.0735594
0.0792999
0.0841144
0.0878437
0.0903371
0.0914577
0.0910876
0.0891328
0.0855211
0.0802124
0.0732781
0.0648057
0.0538026
0.0395131
0.0123084
-0.00251763
-0.013619
-0.021902
-0.0285469
-0.0335771
-0.0370111
-0.0389577
-0.0395291
-0.0388295
-0.0369594
-0.0340146
-0.0300865
-0.025262
-0.0196249
-0.0132583
-0.00624542
0.00132721
0.0093685
0.0177804
0.0264563
0.0352791
0.0441206
0.0528407
0.061287
0.0692961
0.0766952
0.0833042
0.0889397
0.0934193
0.0965669
0.0982191
0.0982317
0.096486
0.092888
0.0873803
0.0800314
0.0709308
0.0589873
0.0433785
0.00418818
-0.0117328
-0.0235905
-0.0323593
-0.0393167
-0.0444964
-0.047928
-0.0497394
-0.050061
-0.0490138
-0.0467131
-0.0432674
-0.038778
-0.0333391
-0.0270404
-0.019968
-0.0122074
-0.00384555
0.00502626
0.0143101
0.0238988
0.0336741
0.0435049
0.0532458
0.0627366
0.0718028
0.0802565
0.087899
0.0945241
0.0999229
0.10389
0.106231
0.10677
0.105359
0.101875
0.0962389
0.0885132
0.0787864
0.0658581
0.048833
-0.00597481
-0.0230413
-0.0356721
-0.0449131
-0.0521464
-0.0574188
-0.0607744
-0.0623637
-0.0623393
-0.0608424
-0.0580054
-0.0539516
-0.0487935
-0.0426339
-0.035568
-0.027685
-0.0190717
-0.00981485
-4.46799e-06
0.0102629
0.0208815
0.031733
0.042685
0.053588
0.0642751
0.0745608
0.0842421
0.0931001
0.100904
0.107415
0.112394
0.11561
0.116849
0.115925
0.112681
0.107009
0.0989587
0.0886152
0.0746551
0.0561035
-0.0183944
-0.0366685
-0.0500922
-0.0597872
-0.0672492
-0.0725424
-0.07573
-0.0769902
-0.0765031
-0.0744341
-0.0709368
-0.0661515
-0.0602038
-0.053206
-0.0452587
-0.0364542
-0.0268794
-0.0166194
-0.00576131
0.00560178
0.0173673
0.0294195
0.0416265
0.053837
0.0658784
0.0775557
0.0886508
0.0989243
0.108118
0.115961
0.122175
0.126485
0.128631
0.128382
0.125536
0.119946
0.111644
0.100704
0.085664
0.0654618
-0.0333135
-0.0528717
-0.0671115
-0.0772353
-0.0848644
-0.090086
-0.092989
-0.0937871
-0.0926941
-0.0899058
-0.0856013
-0.0799413
-0.0730667
-0.0651
-0.0561478
-0.0463043
-0.0356553
-0.0242823
-0.0122675
0.000302246
0.0133304
0.0267065
0.0403022
0.0539671
0.0675256
0.0807747
0.0934826
0.105389
0.116208
0.12563
0.133336
0.138997
0.142301
0.142956
0.140704
0.13535
0.126894
0.115392
0.0992257
0.0772336
-0.0510107
-0.0719487
-0.0870317
-0.0975486
-0.105263
-0.110293
-0.112762
-0.11293
-0.111054
-0.107367
-0.10208
-0.0953783
-0.0874198
-0.0783386
-0.0682469
-0.05724
-0.0454006
-0.0328044
-0.0195254
-0.00564124
0.00876122
0.0235806
0.0386957
0.0539609
0.069201
0.0842082
0.0987389
0.112513
0.125215
0.136497
0.145989
0.153305
0.158064
0.159903
0.158494
0.15357
0.145093
0.133087
0.115748
0.0918101
-0.0718105
-0.0942494
-0.110206
-0.121065
-0.128753
-0.133433
-0.135276
-0.134601
-0.131721
-0.126916
-0.120436
-0.112495
-0.103272
-0.0929132
-0.0815357
-0.0692339
-0.0560853
-0.0421564
-0.0275095
-0.0122088
0.00367267
0.0200472
0.036806
0.0538125
0.070897
0.087851
0.104423
0.120315
0.135183
0.148637
0.160253
0.169578
0.176148
0.179516
0.179257
0.175019
0.166698
0.154273
0.135724
0.109662
-0.0960965
-0.120192
-0.137057
-0.148183
-0.155693
-0.15981
-0.160774
-0.158983
-0.15482
-0.148626
-0.140699
-0.131287
-0.120593
-0.108773
-0.095951
-0.0822165
-0.0676385
-0.0522703
-0.0361582
-0.019348
-0.0018936
0.0161367
0.034652
0.0535314
0.0726164
0.0917041
0.11054
0.128813
0.146152
0.162127
0.176252
0.187997
0.196807
0.202123
0.203404
0.200179
0.192255
0.179537
0.159749
0.131361
-0.124332
-0.150285
-0.168095
-0.179377
-0.186496
-0.189764
-0.189516
-0.186255
-0.180458
-0.172542
-0.162861
-0.151704
-0.139299
-0.125815
-0.111376
-0.0960655
-0.0799387
-0.0630308
-0.0453661
-0.0269667
-0.00786072
0.0119093
0.0322774
0.0531458
0.0743752
0.0957756
0.117098
0.138023
0.15816
0.177037
0.194107
0.208755
0.220314
0.228095
0.231406
0.229622
0.222418
0.209592
0.18855
0.157601
-0.15709
-0.185165
-0.203952
-0.215224
-0.221651
-0.223677
-0.221775
-0.216586
-0.20871
-0.198658
-0.186852
-0.173629
-0.15924
-0.143867
-0.127628
-0.110595
-0.0928047
-0.0742666
-0.0549768
-0.0349266
-0.0141113
0.00745989
0.0297542
0.0527056
0.0762032
0.100081
0.124103
0.147955
0.171232
0.193427
0.213933
0.232042
0.246962
0.257844
0.263806
0.26402
0.257977
0.24531
0.223028
0.189238
-0.195095
-0.225638
-0.245424
-0.25643
-0.261733
-0.261978
-0.257828
-0.250117
-0.239598
-0.2269
-0.212527
-0.196863
-0.180184
-0.162674
-0.144445
-0.125546
-0.105987
-0.0857439
-0.0647772
-0.0430389
-0.0204838
0.00292065
0.0271842
0.0522823
0.0781441
0.104638
0.131559
0.158607
0.185376
0.211337
0.235826
0.258041
0.277051
0.291817
0.301224
0.30417
0.299893
0.287775
0.264308
0.227339
-0.239293
-0.27276
-0.293532
-0.303872
-0.307428
-0.305139
-0.297947
-0.286938
-0.273067
-0.257102
-0.239636
-0.221101
-0.201792
-0.181888
-0.161476
-0.140578
-0.119161
-0.0971625
-0.0744951
-0.0510635
-0.026773
-0.00154003
0.0246971
0.0519669
0.0802507
0.109468
0.139456
0.169952
0.200567
0.230766
0.259842
0.286904
0.310871
0.330491
0.344356
0.351013
0.349339
0.338344
0.313819
0.273259
-0.290952
-0.327941
-0.34961
-0.358656
-0.359545
-0.353671
-0.342367
-0.327059
-0.308949
-0.288967
-0.267797
-0.245912
-0.22361
-0.201046
-0.178272
-0.15526
-0.131928
-0.108157
-0.0838023
-0.0587126
-0.0327342
-0.00572318
0.0224446
0.0518619
0.0825768
0.114575
0.14776
0.181925
0.216727
0.251649
0.285968
0.318719
0.348676
0.374346
0.393974
0.405653
0.407756
0.398742
0.373414
0.32875
-0.35183
-0.393115
-0.415429
-0.422171
-0.419034
-0.408099
-0.391249
-0.370353
-0.34691
-0.322022
-0.296457
-0.270705
-0.245039
-0.219568
-0.19428
-0.16908
-0.143817
-0.118302
-0.0923235
-0.0656618
-0.0380955
-0.00941147
0.0205868
0.0520685
0.0851623
0.11994
0.156391
0.194398
0.233694
0.273822
0.31408
0.353465
0.390627
0.423824
0.450898
0.469369
0.476922
0.471191
0.445547
0.396147
-0.42445
-0.471
-0.493372
-0.496174
-0.48698
-0.468908
-0.4446
-0.416479
-0.38638
-0.355567
-0.324854
-0.294707
-0.265331
-0.236746
-0.208848
-0.181446
-0.154299
-0.127132
-0.0996544
-0.0715685
-0.0425769
-0.0123889
0.0192731
0.0526654
0.0880121
0.125489
0.1652
0.207148
0.251188
0.296972
0.343882
0.390939
0.436716
0.479249
0.515941
0.543613
0.559025
0.558593
0.533545
0.478658
-0.512576
-0.56551
-0.586674
-0.582853
-0.564557
-0.536439
-0.502149
-0.464766
-0.426459
-0.388598
-0.351969
-0.316937
-0.283573
-0.251754
-0.221238
-0.191709
-0.162809
-0.134164
-0.105388
-0.0760998
-0.0459178
-0.0144682
0.0186144
0.0536823
0.0910676
0.131069
0.173932
0.219816
0.268751
0.32057
0.37482
0.430643
0.486641
0.540698
0.589796
0.629952
0.656727
0.664774
0.642046
0.580882
-0.62208
-0.682416
-0.699741
-0.684859
-0.652892
-0.610688
-0.56315
-0.514047
-0.465793
-0.419731
-0.376483
-0.336191
-0.298696
-0.263662
-0.230655
-0.199194
-0.168785
-0.138933
-0.109153
-0.0789675
-0.0479115
-0.0155242
0.0186508
0.0550671
0.094174
0.136409
0.182185
0.231859
0.285696
0.34379
0.405971
0.471649
0.539617
0.607784
0.672823
0.729926
0.773192
0.794804
0.777684
0.709733
-0.762576
-0.830394
-0.838507
-0.805224
-0.752776
-0.69097
-0.626083
-0.562435
-0.50243
-0.447124
-0.396746
-0.351044
-0.309502
-0.271477
-0.236288
-0.203251
-0.171711
-0.141043
-0.110652
-0.0799698
-0.048444
-0.0155304
0.0193168
0.0566528
0.0970477
0.141089
0.189376
0.242506
0.301034
0.36542
0.435915
0.512398
0.594119
0.679322
0.764677
0.844726
0.911983
0.955357
0.950174
0.876199
-0.950752
-1.02271
-1.01071
-0.946922
-0.86402
-0.775313
-0.688192
-0.607016
-0.533647
-0.468398
-0.410771
-0.359883
-0.314708
-0.274201
-0.237373
-0.203308
-0.171174
-0.14021
-0.109715
-0.0790324
-0.0475317
-0.0145928
0.0204111
0.0581295
0.0992496
0.14451
0.194711
0.250712
0.313424
0.383765
0.462577
0.550463
0.647509
0.752804
0.863633
0.97448
1.07657
1.15495
1.17406
1.0989
-1.21712
-1.27966
-1.22546
-1.1115
-0.984042
-0.859349
-0.744738
-0.643418
-0.555733
-0.480563
-0.416233
-0.360951
-0.313016
-0.270898
-0.233258
-0.198933
-0.166913
-0.136311
-0.106331
-0.0762408
-0.0453485
-0.0129736
0.0215755
0.0590266
0.10017
0.145883
0.19716
0.255139
0.321117
0.39656
0.483061
0.582242
0.695509
0.823555
0.965363
1.11671
1.26883
1.40346
1.47112
1.41119
-1.61767
-1.63091
-1.49149
-1.29669
-1.10587
-0.934993
-0.788306
-0.665545
-0.563985
-0.480144
-0.410644
-0.352517
-0.303265
-0.260825
-0.223506
-0.189914
-0.158884
-0.129428
-0.100679
-0.0718587
-0.0422339
-0.0110888
0.0223083
0.0587376
0.0990633
0.144275
0.195533
0.254229
0.322049
0.40104
0.493671
0.602856
0.731864
0.883976
1.06155
1.26422
1.48649
1.71006
1.87237
1.87271
-2.25443
-2.11584
-1.81356
-1.4944
-1.21741
-0.990509
-0.809417
-0.66646
-0.553635
-0.464024
-0.392078
-0.33348
-0.284908
-0.243805
-0.208183
-0.176474
-0.147412
-0.119951
-0.0931952
-0.0663505
-0.0386774
-0.0094549
0.0220568
0.0566546
0.0952363
0.138854
0.188781
0.246599
0.314318
0.394525
0.490584
0.606869
0.748996
0.923946
1.13977
1.4042
1.72093
2.07937
2.41782
2.58908
-3.35589
-2.78315
-2.17268
-1.67583
-1.29257
-1.00573
-0.794156
-0.637286
-0.519346
-0.429192
-0.358991
-0.303199
-0.257851
-0.220067
-0.187705
-0.159132
-0.133069
-0.108477
-0.0844829
-0.0603204
-0.0352809
-0.00867498
0.020207
0.0521348
0.0879869
0.12881
0.175899
0.230913
0.296032
0.3742
0.469478
0.587567
0.736542
0.927901
1.17797
1.50834
1.94098
2.49107
3.15794
3.79442
-5.52064
-3.66079
-2.43093
-1.71416
-1.24179
-0.92182
-0.704881
-0.553989
-0.445517
-0.365236
-0.304214
-0.256596
-0.218425
-0.186937
-0.160139
-0.136539
-0.114984
-0.0945468
-0.0744536
-0.0540265
-0.0326408
-0.00968876
0.0154556
0.0434738
0.0751467
0.111412
0.153442
0.202759
0.261408
0.332229
0.419305
0.5287
0.669698
0.857085
1.11542
1.48391
2.01597
2.80539
4.1234
6.09138
-9.2066
-4.51954
-2.30621
-1.42118
-0.958943
-0.682918
-0.512273
-0.40061
-0.322949
-0.266453
-0.22393
-0.19095
-0.164604
-0.142882
-0.124331
-0.10785
-0.0925829
-0.0778301
-0.0630021
-0.0475782
-0.0310758
-0.0130239
0.00706229
0.0297082
0.0555124
0.0851878
0.119618
0.159942
0.20768
0.264943
0.334791
0.421889
0.533785
0.683766
0.897462
1.22412
1.75391
2.73325
5.06141
9.86892
)
;

boundaryField
{
    movingWall
    {
        type            zeroGradient;
    }
    fixedWalls
    {
        type            zeroGradient;
    }
    frontAndBack
    {
        type            empty;
    }
}


// ************************************************************************* //
