/*--------------------------------*- C++ -*----------------------------------*\
  =========                 |
  \\      /  F ield         | OpenFOAM: The Open Source CFD Toolbox
   \\    /   O peration     | Website:  https://openfoam.org
    \\  /    A nd           | Version:  7
     \\/     M anipulation  |
\*---------------------------------------------------------------------------*/
FoamFile
{
    version     2.0;
    format      ascii;
    class       surfaceScalarField;
    location    "0.15";
    object      phi;
}
// * * * * * * * * * * * * * * * * * * * * * * * * * * * * * * * * * * * * * //

dimensions      [0 3 -1 0 0 0 0];

internalField   nonuniform List<scalar> 
3120
(
2.53755e-09
-2.53706e-09
4.09134e-09
-1.5539e-09
2.24734e-09
1.84393e-09
-3.55366e-09
5.80088e-09
-1.31229e-08
9.56928e-09
-2.59529e-08
1.283e-08
-4.14053e-08
1.54523e-08
-5.88048e-08
1.73994e-08
-7.74848e-08
1.86799e-08
-9.68096e-08
1.93248e-08
-1.16186e-07
1.93762e-08
-1.35068e-07
1.88825e-08
-1.52963e-07
1.78949e-08
-1.69429e-07
1.64658e-08
-1.84077e-07
1.46484e-08
-1.96574e-07
1.24964e-08
-2.06638e-07
1.00642e-08
-2.14044e-07
7.40646e-09
-2.18624e-07
4.57938e-09
-2.20265e-07
1.64075e-09
-2.18915e-07
-1.34974e-09
-2.14585e-07
-4.33003e-09
-2.07349e-07
-7.23568e-09
-1.97349e-07
-1.00003e-08
-1.84793e-07
-1.25556e-08
-1.69961e-07
-1.48324e-08
-1.532e-07
-1.67609e-08
-1.34927e-07
-1.82731e-08
-1.15624e-07
-1.93032e-08
-9.58332e-08
-1.97905e-08
-7.61527e-08
-1.96805e-08
-5.72239e-08
-1.89288e-08
-3.97203e-08
-1.75035e-08
-2.43289e-08
-1.53914e-08
-1.17208e-08
-1.26082e-08
-2.50117e-09
-9.21969e-09
2.88697e-09
-5.38815e-09
4.34893e-09
-1.46201e-09
2.55686e-09
1.79208e-09
2.55683e-09
1.6148e-09
-4.15183e-09
-1.1716e-09
1.23251e-09
-1.17021e-08
1.23744e-08
-3.10333e-08
2.51318e-08
-5.89635e-08
3.74993e-08
-9.45506e-08
4.84171e-08
-1.36448e-07
5.73496e-08
-1.83118e-07
6.40698e-08
-2.32965e-07
6.85265e-08
-2.84409e-07
7.07689e-08
-3.35939e-07
7.09064e-08
-3.86141e-07
6.9084e-08
-4.33715e-07
6.54685e-08
-4.77489e-07
6.024e-08
-5.16427e-07
5.35866e-08
-5.49633e-07
4.57024e-08
-5.76355e-07
3.67862e-08
-5.9599e-07
2.70419e-08
-6.08089e-07
1.66785e-08
-6.1236e-07
5.91139e-09
-6.08672e-07
-5.03697e-09
-5.97065e-07
-1.59366e-08
-5.77751e-07
-2.65504e-08
-5.51116e-07
-3.66345e-08
-5.17731e-07
-4.59406e-08
-4.78345e-07
-5.42187e-08
-4.33885e-07
-6.12207e-08
-3.85452e-07
-6.6706e-08
-3.34308e-07
-7.04473e-08
-2.8186e-07
-7.22388e-08
-2.29635e-07
-7.19054e-08
-1.79249e-07
-6.93144e-08
-1.32361e-07
-6.43916e-08
-9.06074e-08
-5.71447e-08
-5.55143e-08
-4.77012e-08
-2.83566e-08
-3.63773e-08
-9.94432e-09
-2.38003e-08
-2.97036e-10
-1.11092e-08
1.84977e-09
-3.54784e-10
4.40658e-09
-1.66517e-09
-2.48678e-09
-1.20989e-08
1.16661e-08
-3.40389e-08
3.43145e-08
-6.83456e-08
5.94385e-08
-1.14606e-07
8.37595e-08
-1.71536e-07
1.05347e-07
-2.37306e-07
1.23119e-07
-3.09782e-07
1.36546e-07
-3.867e-07
1.45444e-07
-4.65778e-07
1.49847e-07
-5.448e-07
1.49929e-07
-6.21669e-07
1.45953e-07
-6.94441e-07
1.3824e-07
-7.61351e-07
1.2715e-07
-8.20833e-07
1.13068e-07
-8.71528e-07
9.63968e-08
-9.12294e-07
7.75528e-08
-9.42219e-07
5.69667e-08
-9.60622e-07
3.50816e-08
-9.67065e-07
1.23547e-08
-9.6136e-07
-1.07425e-08
-9.43573e-07
-3.37235e-08
-9.14035e-07
-5.60884e-08
-8.73344e-07
-7.73255e-08
-8.22368e-07
-9.6916e-08
-7.62247e-07
-1.1434e-07
-6.94381e-07
-1.29086e-07
-6.20425e-07
-1.40662e-07
-5.42263e-07
-1.48609e-07
-4.61985e-07
-1.52517e-07
-3.8184e-07
-1.52051e-07
-3.04184e-07
-1.4697e-07
-2.31406e-07
-1.3717e-07
-1.65826e-07
-1.22724e-07
-1.09567e-07
-1.03961e-07
-6.43684e-08
-8.15758e-08
-3.13469e-08
-5.68218e-08
-1.06808e-08
-3.17752e-08
-1.23873e-09
-9.79696e-09
3.16785e-09
-5.55946e-09
3.07261e-09
-2.49372e-08
3.10439e-08
-5.9589e-08
6.89664e-08
-1.0969e-07
1.0954e-07
-1.74352e-07
1.48421e-07
-2.5187e-07
1.82865e-07
-3.39976e-07
2.11225e-07
-4.36057e-07
2.32627e-07
-5.37327e-07
2.46714e-07
-6.40962e-07
2.53482e-07
-7.44197e-07
2.53164e-07
-8.44396e-07
2.46152e-07
-9.39102e-07
2.32947e-07
-1.02608e-06
2.14125e-07
-1.10332e-06
1.90314e-07
-1.16911e-06
1.6218e-07
-1.22197e-06
1.30416e-07
-1.26075e-06
9.57432e-08
-1.28457e-06
5.89039e-08
-1.29288e-06
2.06664e-08
-1.28544e-06
-1.8178e-08
-1.26235e-06
-5.68142e-08
-1.22404e-06
-9.44059e-08
-1.17126e-06
-1.301e-07
-1.10514e-06
-1.63035e-07
-1.02713e-06
-1.92351e-07
-9.39014e-07
-2.17205e-07
-8.42884e-07
-2.36792e-07
-7.41125e-07
-2.50368e-07
-6.36363e-07
-2.57279e-07
-5.31417e-07
-2.56997e-07
-4.29219e-07
-2.49168e-07
-3.32728e-07
-2.33661e-07
-2.44803e-07
-2.1065e-07
-1.68053e-07
-1.8071e-07
-1.04654e-07
-1.44975e-07
-5.6122e-08
-1.05354e-07
-2.30702e-08
-6.4827e-08
-4.98014e-09
-2.78872e-08
-1.81232e-09
-9.45202e-09
1.25246e-08
-3.811e-08
5.97015e-08
-8.59336e-08
1.1679e-07
-1.52139e-07
1.75745e-07
-2.35159e-07
2.31442e-07
-3.3276e-07
2.80466e-07
-4.42208e-07
3.20673e-07
-5.60441e-07
3.50859e-07
-6.84227e-07
3.70501e-07
-8.10295e-07
3.7955e-07
-9.35433e-07
3.78302e-07
-1.05657e-06
3.67292e-07
-1.17085e-06
3.47222e-07
-1.27564e-06
3.18915e-07
-1.3686e-06
2.83279e-07
-1.44771e-06
2.41282e-07
-1.51123e-06
1.93944e-07
-1.55781e-06
1.42324e-07
-1.58643e-06
8.75201e-08
-1.59643e-06
3.0664e-08
-1.58753e-06
-2.70755e-08
-1.55985e-06
-8.44968e-08
-1.51389e-06
-1.40369e-07
-1.45055e-06
-1.93439e-07
-1.37114e-06
-2.42444e-07
-1.27736e-06
-2.86127e-07
-1.1713e-06
-3.23262e-07
-1.05542e-06
-3.5268e-07
-9.32476e-07
-3.73308e-07
-8.05544e-07
-3.8421e-07
-6.77897e-07
-3.84644e-07
-5.52943e-07
-3.74122e-07
-4.34116e-07
-3.52488e-07
-3.24748e-07
-3.20018e-07
-2.27915e-07
-2.77543e-07
-1.46263e-07
-2.26626e-07
-8.18281e-08
-1.69789e-07
-3.58643e-08
-1.10791e-07
-8.74327e-09
-5.50084e-08
-1.05556e-08
-1.31394e-08
2.56641e-08
-5.09408e-08
9.75029e-08
-1.11907e-07
1.77756e-07
-1.94181e-07
2.5802e-07
-2.95395e-07
3.32655e-07
-4.12686e-07
3.97757e-07
-5.42802e-07
4.50788e-07
-6.82223e-07
4.90281e-07
-8.27296e-07
5.15574e-07
-9.7435e-07
5.26604e-07
-1.1198e-06
5.23747e-07
-1.2602e-06
5.077e-07
-1.39237e-06
4.7939e-07
-1.51337e-06
4.39915e-07
-1.62058e-06
3.90493e-07
-1.71174e-06
3.32433e-07
-1.78491e-06
2.67115e-07
-1.83856e-06
1.95979e-07
-1.87156e-06
1.20516e-07
-1.88316e-06
4.22678e-08
-1.87306e-06
-3.71764e-08
-1.84137e-06
-1.16184e-07
-1.78866e-06
-1.93082e-07
-1.71592e-06
-2.66174e-07
-1.62462e-06
-3.33747e-07
-1.51665e-06
-3.94102e-07
-1.39432e-06
-4.45584e-07
-1.26039e-06
-4.86616e-07
-1.11794e-06
-5.15758e-07
-9.70393e-07
-5.31756e-07
-8.21416e-07
-5.33621e-07
-6.7483e-07
-5.20708e-07
-5.34507e-07
-4.92812e-07
-4.04235e-07
-4.5029e-07
-2.87576e-07
-3.94201e-07
-1.87714e-07
-3.26488e-07
-1.07307e-07
-2.50197e-07
-4.83825e-08
-1.69715e-07
-1.23178e-08
-9.10732e-08
-2.28735e-08
-1.65819e-08
4.2246e-08
-6.32054e-08
1.44126e-07
-1.37048e-07
2.51598e-07
-2.35171e-07
3.56143e-07
-3.54337e-07
4.51821e-07
-4.90988e-07
5.34408e-07
-6.41297e-07
6.01097e-07
-8.01261e-07
6.50245e-07
-9.66803e-07
6.81116e-07
-1.13387e-06
6.93674e-07
-1.29854e-06
6.88413e-07
-1.45706e-06
6.66222e-07
-1.60596e-06
6.28285e-07
-1.74204e-06
5.76001e-07
-1.86248e-06
5.10929e-07
-1.96479e-06
4.34747e-07
-2.04691e-06
3.49228e-07
-2.10715e-06
2.56222e-07
-2.14428e-06
1.57647e-07
-2.1575e-06
5.5485e-08
-2.14645e-06
-4.82212e-08
-2.11126e-06
-1.51373e-07
-2.05252e-06
-2.51825e-07
-1.9713e-06
-3.47394e-07
-1.86916e-06
-4.35885e-07
-1.74815e-06
-5.15117e-07
-1.61077e-06
-5.82964e-07
-1.45998e-06
-6.37405e-07
-1.29915e-06
-6.76587e-07
-1.132e-06
-6.98902e-07
-9.6255e-07
-7.03073e-07
-7.95001e-07
-6.88256e-07
-6.33653e-07
-6.5416e-07
-4.82766e-07
-6.01176e-07
-3.46431e-07
-5.30536e-07
-2.28433e-07
-4.44486e-07
-1.32137e-07
-3.46494e-07
-6.04142e-08
-2.41437e-07
-1.56656e-08
-1.35822e-07
-3.8539e-08
-1.98086e-08
6.20546e-08
-7.49083e-08
1.99226e-07
-1.61295e-07
3.37985e-07
-2.74981e-07
4.69829e-07
-4.1184e-07
5.88679e-07
-5.67569e-07
6.90138e-07
-7.37728e-07
7.71256e-07
-9.17796e-07
8.30313e-07
-1.10326e-06
8.6658e-07
-1.2897e-06
8.80111e-07
-1.47285e-06
8.71567e-07
-1.6487e-06
8.42073e-07
-1.81352e-06
7.93104e-07
-1.96391e-06
7.26395e-07
-2.09686e-06
6.43876e-07
-2.20973e-06
5.4762e-07
-2.30032e-06
4.39819e-07
-2.36686e-06
3.22756e-07
-2.40801e-06
1.98799e-07
-2.42292e-06
7.03943e-08
-2.4112e-06
-5.99401e-08
-2.37296e-06
-1.89617e-07
-2.3088e-06
-3.15988e-07
-2.21983e-06
-4.36363e-07
-2.10768e-06
-5.4803e-07
-1.9745e-06
-6.48294e-07
-1.82295e-06
-7.34521e-07
-1.65615e-06
-8.04204e-07
-1.4777e-06
-8.55036e-07
-1.2916e-06
-8.85005e-07
-1.10217e-06
-8.92496e-07
-9.14017e-07
-8.76413e-07
-7.3186e-07
-8.36317e-07
-5.60465e-07
-7.72571e-07
-4.04498e-07
-6.86503e-07
-2.68407e-07
-5.80576e-07
-1.56322e-07
-4.58579e-07
-7.19943e-08
-3.25764e-07
-1.88234e-08
-1.88993e-07
-5.73625e-08
-2.28721e-08
8.49267e-08
-8.61557e-08
2.6251e-07
-1.84784e-07
4.36614e-07
-3.13766e-07
5.98811e-07
-4.68083e-07
7.42996e-07
-6.42666e-07
8.64721e-07
-8.32424e-07
9.61014e-07
-1.03229e-06
1.03018e-06
-1.23731e-06
1.07159e-06
-1.44266e-06
1.08547e-06
-1.6438e-06
1.0727e-06
-1.83642e-06
1.0347e-06
-2.0166e-06
9.73281e-07
-2.18076e-06
8.9055e-07
-2.32572e-06
7.88838e-07
-2.44874e-06
6.70641e-07
-2.54751e-06
5.38587e-07
-2.62016e-06
3.95414e-07
-2.66532e-06
2.43956e-07
-2.68206e-06
8.7133e-08
-2.66996e-06
-7.20442e-08
-2.62909e-06
-2.30485e-07
-2.56005e-06
-3.85025e-07
-2.46397e-06
-5.32444e-07
-2.34251e-06
-6.69491e-07
-2.19788e-06
-7.92924e-07
-2.03283e-06
-8.9957e-07
-1.85064e-06
-9.86391e-07
-1.6551e-06
-1.05058e-06
-1.45045e-06
-1.08966e-06
-1.24133e-06
-1.10161e-06
-1.03271e-06
-1.08503e-06
-8.29774e-07
-1.03925e-06
-6.37828e-07
-9.64517e-07
-4.62159e-07
-8.62171e-07
-3.07932e-07
-7.34804e-07
-1.80085e-07
-5.86426e-07
-8.32719e-08
-4.22578e-07
-2.18559e-08
-2.50409e-07
-7.92184e-08
-2.58282e-08
1.10755e-07
-9.70893e-08
3.33771e-07
-2.07736e-07
5.4726e-07
-3.51811e-07
7.42887e-07
-5.23411e-07
9.14595e-07
-7.16682e-07
1.05799e-06
-9.2586e-07
1.17019e-06
-1.14531e-06
1.24964e-06
-1.36961e-06
1.29589e-06
-1.59356e-06
1.30942e-06
-1.81229e-06
1.29143e-06
-2.02127e-06
1.24369e-06
-2.21638e-06
1.16839e-06
-2.39388e-06
1.06805e-06
-2.55048e-06
9.45442e-07
-2.68335e-06
8.03508e-07
-2.79009e-06
6.45331e-07
-2.86879e-06
4.74114e-07
-2.918e-06
2.93163e-07
-2.93675e-06
1.05884e-07
-2.92457e-06
-8.42186e-08
-2.88151e-06
-2.73545e-07
-2.80813e-06
-4.58406e-07
-2.70554e-06
-6.35037e-07
-2.5754e-06
-7.99632e-07
-2.41995e-06
-9.48377e-07
-2.242e-06
-1.07752e-06
-2.04493e-06
-1.18346e-06
-1.8327e-06
-1.26281e-06
-1.60977e-06
-1.31258e-06
-1.3811e-06
-1.33029e-06
-1.15202e-06
-1.31411e-06
-9.28218e-07
-1.26306e-06
-7.15554e-07
-1.17718e-06
-5.19991e-07
-1.05773e-06
-3.47461e-07
-9.07334e-07
-2.03754e-07
-7.30133e-07
-9.4441e-08
-5.31891e-07
-2.48339e-08
-3.20016e-07
-1.04052e-07
-2.87291e-08
1.39484e-07
-1.07856e-07
4.12897e-07
-2.30396e-07
6.698e-07
-3.89452e-07
9.01943e-07
-5.78231e-07
1.10337e-06
-7.90085e-07
1.26985e-06
-1.01855e-06
1.39866e-06
-1.25742e-06
1.4885e-06
-1.50076e-06
1.53923e-06
-1.74302e-06
1.55168e-06
-1.97902e-06
1.52742e-06
-2.20399e-06
1.46866e-06
-2.41364e-06
1.37803e-06
-2.60411e-06
1.25852e-06
-2.77203e-06
1.11336e-06
-2.91448e-06
9.45963e-07
-3.02904e-06
7.59888e-07
-3.11373e-06
5.58807e-07
-3.16707e-06
3.46504e-07
-3.18805e-06
1.26864e-07
-3.17615e-06
-9.61176e-08
-3.13136e-06
-3.18335e-07
-3.0542e-06
-5.35574e-07
-2.94571e-06
-7.43524e-07
-2.80753e-06
-9.37806e-07
-2.6419e-06
-1.11402e-06
-2.45163e-06
-1.26779e-06
-2.24018e-06
-1.3949e-06
-2.01164e-06
-1.49135e-06
-1.77068e-06
-1.55355e-06
-1.52253e-06
-1.57844e-06
-1.27295e-06
-1.56369e-06
-1.02808e-06
-1.50792e-06
-7.94426e-07
-1.41084e-06
-5.78654e-07
-1.27351e-06
-3.87513e-07
-1.09848e-06
-2.27691e-07
-8.89955e-07
-1.05707e-07
-6.53874e-07
-2.78269e-08
-3.97897e-07
-1.31879e-07
-3.16211e-08
1.71105e-07
-1.18594e-07
4.9987e-07
-2.53008e-07
8.04214e-07
-4.27025e-07
1.07596e-06
-6.32956e-07
1.30931e-06
-8.63337e-07
1.50023e-06
-1.11099e-06
1.64632e-06
-1.36911e-06
1.74662e-06
-1.63128e-06
1.8014e-06
-1.89154e-06
1.81194e-06
-2.14443e-06
1.78032e-06
-2.38499e-06
1.70922e-06
-2.60876e-06
1.6018e-06
-2.81179e-06
1.46156e-06
-2.99067e-06
1.29223e-06
-3.14243e-06
1.09772e-06
-3.26462e-06
8.82079e-07
-3.35525e-06
6.49444e-07
-3.41282e-06
4.04068e-07
-3.43626e-06
1.50309e-07
-3.42502e-06
-1.07363e-07
-3.379e-06
-3.64347e-07
-3.29866e-06
-6.15916e-07
-3.18497e-06
-8.57215e-07
-3.03949e-06
-1.08329e-06
-2.86438e-06
-1.28912e-06
-2.66246e-06
-1.46971e-06
-2.43721e-06
-1.62015e-06
-2.1928e-06
-1.73576e-06
-1.93407e-06
-1.81227e-06
-1.66656e-06
-1.84595e-06
-1.39639e-06
-1.83387e-06
-1.13024e-06
-1.77407e-06
-8.75237e-07
-1.66584e-06
-6.38825e-07
-1.50992e-06
-4.28622e-07
-1.30868e-06
-2.52266e-07
-1.06631e-06
-1.17274e-07
-7.88866e-07
-3.08999e-08
-4.84271e-07
-1.62779e-07
-3.45442e-08
2.05649e-07
-1.29429e-07
5.94755e-07
-2.75797e-07
9.50582e-07
-4.64846e-07
1.26501e-06
-6.87968e-07
1.53243e-06
-9.36858e-07
1.74912e-06
-1.20361e-06
1.91307e-06
-1.48078e-06
2.02379e-06
-1.76148e-06
2.0821e-06
-2.03937e-06
2.08983e-06
-2.3087e-06
2.04965e-06
-2.56432e-06
1.96484e-06
-2.80168e-06
1.83915e-06
-3.01676e-06
1.67664e-06
-3.20612e-06
1.48159e-06
-3.36682e-06
1.25842e-06
-3.49639e-06
1.01165e-06
-3.59287e-06
7.4592e-07
-3.65472e-06
4.65919e-07
-3.68087e-06
1.76456e-07
-3.67069e-06
-1.17543e-07
-3.62402e-06
-4.11012e-07
-3.54121e-06
-6.98728e-07
-3.42312e-06
-9.75308e-07
-3.27118e-06
-1.23522e-06
-3.08748e-06
-1.47283e-06
-2.87473e-06
-1.68246e-06
-2.63639e-06
-1.85848e-06
-2.37669e-06
-1.99547e-06
-2.10061e-06
-2.08835e-06
-1.81392e-06
-2.13264e-06
-1.52314e-06
-2.12464e-06
-1.23548e-06
-2.06173e-06
-9.58734e-07
-1.94259e-06
-7.01159e-07
-1.76749e-06
-4.71305e-07
-1.53853e-06
-2.77836e-07
-1.25978e-06
-1.29335e-07
-9.37368e-07
-3.41134e-08
-5.79492e-07
-1.96893e-07
-3.75336e-08
2.43183e-07
-1.40473e-07
6.97695e-07
-2.98965e-07
1.10907e-06
-5.032e-07
1.46924e-06
-7.43606e-07
1.77283e-06
-1.011e-06
2.01651e-06
-1.29672e-06
2.19878e-06
-1.59269e-06
2.31977e-06
-1.89152e-06
2.38093e-06
-2.1865e-06
2.38481e-06
-2.47165e-06
2.33479e-06
-2.74165e-06
2.23484e-06
-2.99186e-06
2.08937e-06
-3.21829e-06
1.90307e-06
-3.4175e-06
1.6808e-06
-3.5866e-06
1.42751e-06
-3.72318e-06
1.14823e-06
-3.8253e-06
8.48039e-07
-3.89144e-06
5.32064e-07
-3.92052e-06
2.0553e-07
-3.91184e-06
-1.2622e-07
-3.86516e-06
-4.57689e-07
-3.7807e-06
-7.83192e-07
-3.65916e-06
-1.09684e-06
-3.50183e-06
-1.39255e-06
-3.31061e-06
-1.66406e-06
-3.08809e-06
-1.90498e-06
-2.83764e-06
-2.10893e-06
-2.56346e-06
-2.26965e-06
-2.27062e-06
-2.38119e-06
-1.96511e-06
-2.43815e-06
-1.65382e-06
-2.43593e-06
-1.34448e-06
-2.37107e-06
-1.04559e-06
-2.24148e-06
-7.6626e-07
-2.04682e-06
-5.16052e-07
-1.78874e-06
-3.04739e-07
-1.47109e-06
-1.42071e-07
-1.10004e-06
-3.75236e-08
-6.8404e-07
-2.34416e-07
-4.06214e-08
2.83804e-07
-1.5183e-07
8.08903e-07
-3.227e-07
1.27994e-06
-5.42343e-07
1.68889e-06
-8.00162e-07
2.03065e-06
-1.08605e-06
2.3024e-06
-1.39055e-06
2.50328e-06
-1.70494e-06
2.63416e-06
-2.02133e-06
2.69732e-06
-2.33267e-06
2.69615e-06
-2.63276e-06
2.63487e-06
-2.91617e-06
2.51825e-06
-3.17826e-06
2.35146e-06
-3.41506e-06
2.13988e-06
-3.62324e-06
1.88897e-06
-3.79998e-06
1.60426e-06
-3.943e-06
1.29125e-06
-4.05042e-06
9.55458e-07
-4.12077e-06
6.02413e-07
-4.15295e-06
2.37712e-07
-4.14623e-06
-1.32936e-07
-4.10027e-06
-5.03655e-07
-4.01511e-06
-8.68348e-07
-3.89129e-06
-1.22067e-06
-3.72985e-06
-1.55399e-06
-3.53248e-06
-1.86143e-06
-3.30156e-06
-2.1359e-06
-3.04028e-06
-2.37021e-06
-2.75275e-06
-2.55718e-06
-2.44406e-06
-2.68988e-06
-2.12035e-06
-2.76186e-06
-1.78884e-06
-2.76745e-06
-1.45777e-06
-2.70213e-06
-1.13637e-06
-2.56288e-06
-8.34671e-07
-2.34852e-06
-5.63313e-07
-2.0601e-06
-3.33293e-07
-1.70111e-06
-1.55658e-07
-1.27767e-06
-4.11839e-08
-7.98513e-07
-2.756e-07
-4.38379e-08
3.27642e-07
-1.63598e-07
9.28663e-07
-3.47177e-07
1.46352e-06
-5.82509e-07
1.92422e-06
-8.57889e-07
2.30603e-06
-1.16222e-06
2.60673e-06
-1.4852e-06
2.82626e-06
-1.81746e-06
2.96641e-06
-2.15061e-06
3.03047e-06
-2.47729e-06
3.02283e-06
-2.79112e-06
2.94869e-06
-3.08664e-06
2.81377e-06
-3.35925e-06
2.62408e-06
-3.60511e-06
2.38574e-06
-3.82102e-06
2.10489e-06
-4.00437e-06
1.78761e-06
-4.15301e-06
1.43988e-06
-4.26518e-06
1.06764e-06
-4.33951e-06
6.76744e-07
-4.37492e-06
2.7312e-07
-4.37063e-06
-1.37227e-07
-4.32618e-06
-5.48108e-07
-4.24144e-06
-9.53082e-07
-4.11672e-06
-1.34539e-06
-3.95277e-06
-1.71793e-06
-3.75097e-06
-2.06323e-06
-3.5134e-06
-2.37347e-06
-3.24299e-06
-2.64062e-06
-2.94366e-06
-2.85652e-06
-2.62041e-06
-3.01313e-06
-2.27947e-06
-3.1028e-06
-1.92831e-06
-3.11861e-06
-1.57568e-06
-3.05476e-06
-1.23153e-06
-2.90703e-06
-9.06864e-07
-2.67319e-06
-6.13504e-07
-2.35346e-06
-3.63801e-07
-1.95082e-06
-1.70261e-07
-1.47121e-06
-4.51465e-08
-9.23628e-07
-3.20747e-07
-4.72147e-08
3.74857e-07
-1.75878e-07
1.05733e-06
-3.72573e-07
1.66022e-06
-6.23926e-07
2.17557e-06
-9.1701e-07
2.59912e-06
-1.23965e-06
2.92938e-06
-1.58067e-06
3.16728e-06
-1.93001e-06
3.31575e-06
-2.27881e-06
3.37927e-06
-2.61943e-06
3.36345e-06
-2.94539e-06
3.27465e-06
-3.25126e-06
3.11965e-06
-3.5326e-06
2.90541e-06
-3.78575e-06
2.63889e-06
-4.00777e-06
2.32691e-06
-4.1963e-06
1.97613e-06
-4.34941e-06
1.59299e-06
-4.46555e-06
1.18378e-06
-4.54346e-06
7.54652e-07
-4.58211e-06
3.11771e-07
-4.5807e-06
-1.38639e-07
-4.53864e-06
-5.90167e-07
-4.45561e-06
-1.03611e-06
-4.33162e-06
-1.46939e-06
-4.16709e-06
-1.88246e-06
-3.963e-06
-2.26732e-06
-3.72102e-06
-2.61545e-06
-3.4437e-06
-2.91794e-06
-3.13464e-06
-3.16558e-06
-2.79864e-06
-3.34913e-06
-2.44189e-06
-3.45955e-06
-2.07206e-06
-3.48844e-06
-1.69833e-06
-3.42849e-06
-1.33138e-06
-3.27398e-06
-9.83232e-07
-3.02134e-06
-6.67003e-07
-2.66969e-06
-3.96553e-07
-2.22127e-06
-1.86048e-07
-1.68171e-06
-4.94639e-08
-1.06021e-06
-3.7021e-07
-5.07874e-08
4.25644e-07
-1.88783e-07
1.19532e-06
-3.99081e-07
1.87052e-06
-6.66831e-07
2.44332e-06
-9.7774e-07
2.91003e-06
-1.31846e-06
3.2701e-06
-1.67685e-06
3.52567e-06
-2.04216e-06
3.68106e-06
-2.40509e-06
3.74221e-06
-2.75779e-06
3.71615e-06
-3.09375e-06
3.61061e-06
-3.40768e-06
3.43359e-06
-3.69538e-06
3.19311e-06
-3.95352e-06
2.89703e-06
-4.17952e-06
2.55291e-06
-4.37134e-06
2.16796e-06
-4.52739e-06
1.74905e-06
-4.64638e-06
1.30277e-06
-4.72723e-06
8.35499e-07
-4.769e-06
3.53542e-07
-4.77088e-06
-1.3676e-07
-4.73217e-06
-6.2888e-07
-4.65231e-06
-1.11597e-06
-4.53098e-06
-1.59071e-06
-4.36819e-06
-2.04525e-06
-4.16442e-06
-2.47109e-06
-3.92083e-06
-2.85904e-06
-3.63943e-06
-3.19933e-06
-3.32335e-06
-3.48166e-06
-2.97705e-06
-3.69543e-06
-2.60653e-06
-3.83007e-06
-2.21953e-06
-3.87545e-06
-1.82558e-06
-3.82243e-06
-1.43607e-06
-3.66348e-06
-1.06409e-06
-3.39332e-06
-7.2416e-07
-3.00962e-06
-4.31835e-07
-2.51359e-06
-2.03187e-07
-1.91036e-06
-5.41914e-08
-1.20921e-06
-4.24402e-07
-5.45993e-08
4.80243e-07
-2.02449e-07
1.34317e-06
-4.26931e-07
2.095e-06
-7.11496e-07
2.72789e-06
-1.04031e-06
3.23884e-06
-1.3987e-06
3.62849e-06
-1.77351e-06
3.90049e-06
-2.1533e-06
4.06084e-06
-2.52835e-06
4.11726e-06
-2.89067e-06
4.07847e-06
-3.23385e-06
3.95379e-06
-3.55287e-06
3.75261e-06
-3.84391e-06
3.48414e-06
-4.10409e-06
3.15721e-06
-4.33131e-06
2.78013e-06
-4.52401e-06
2.36065e-06
-4.681e-06
1.90604e-06
-4.80135e-06
1.42311e-06
-4.88421e-06
9.18361e-07
-4.9288e-06
3.98133e-07
-4.93432e-06
-1.31241e-07
-4.89995e-06
-6.63247e-07
-4.8249e-06
-1.19102e-06
-4.70847e-06
-1.70715e-06
-4.55016e-06
-2.20356e-06
-4.34988e-06
-2.67137e-06
-4.10811e-06
-3.10081e-06
-3.82619e-06
-3.48125e-06
-3.50659e-06
-3.80126e-06
-3.15322e-06
-4.0488e-06
-2.77172e-06
-4.21157e-06
-2.36972e-06
-4.27745e-06
-1.957e-06
-4.23515e-06
-1.54559e-06
-4.07489e-06
-1.14968e-06
-3.78924e-06
-7.85299e-07
-3.374e-06
-4.69937e-07
-2.82895e-06
-2.2186e-07
-2.15844e-06
-5.93898e-08
-1.37168e-06
-4.83792e-07
-5.87064e-08
5.3895e-07
-2.1705e-07
1.50151e-06
-4.56408e-07
2.33436e-06
-7.58255e-07
3.02973e-06
-1.10497e-06
3.58555e-06
-1.48042e-06
4.00394e-06
-1.87034e-06
4.29041e-06
-2.26259e-06
4.45309e-06
-2.6471e-06
4.50177e-06
-3.01587e-06
4.44725e-06
-3.36272e-06
4.30064e-06
-3.68307e-06
4.07295e-06
-3.97363e-06
3.7747e-06
-4.23215e-06
3.41573e-06
-4.45715e-06
3.00513e-06
-4.64767e-06
2.55117e-06
-4.80305e-06
2.06143e-06
-4.9228e-06
1.54286e-06
-5.00641e-06
1.00197e-06
-5.0533e-06
4.45013e-07
-5.0627e-06
-1.21838e-07
-5.03371e-06
-6.92236e-07
-4.96527e-06
-1.25945e-06
-4.85628e-06
-1.81615e-06
-4.70566e-06
-2.35418e-06
-4.51262e-06
-2.86441e-06
-4.27683e-06
-3.3366e-06
-3.99878e-06
-3.75931e-06
-3.68007e-06
-4.11997e-06
-3.32382e-06
-4.40505e-06
-2.93506e-06
-4.60032e-06
-2.5211e-06
-4.69142e-06
-2.09179e-06
-4.66446e-06
-1.65971e-06
-4.50697e-06
-1.24012e-06
-4.20883e-06
-8.50728e-07
-3.76339e-06
-5.11169e-07
-3.16851e-06
-2.42269e-07
-2.42734e-06
-6.51287e-08
-1.54882e-06
-5.4892e-07
-6.31842e-08
6.02134e-07
-2.32816e-07
1.67115e-06
-4.87891e-07
2.58943e-06
-8.07537e-07
3.34938e-06
-1.17206e-06
3.95007e-06
-1.56366e-06
4.39554e-06
-1.96691e-06
4.69366e-06
-2.36894e-06
4.85512e-06
-2.75947e-06
4.8923e-06
-3.13064e-06
4.81841e-06
-3.47668e-06
4.64668e-06
-3.79363e-06
4.38991e-06
-4.07898e-06
4.06005e-06
-4.33126e-06
3.66802e-06
-4.5498e-06
3.22366e-06
-4.73437e-06
2.73574e-06
-4.88499e-06
2.21205e-06
-5.00169e-06
1.65956e-06
-5.0844e-06
1.08468e-06
-5.13276e-06
4.93381e-07
-5.14615e-06
-1.08452e-07
-5.12356e-06
-7.14822e-07
-5.06369e-06
-1.31932e-06
-4.96497e-06
-1.91487e-06
-4.82571e-06
-2.49344e-06
-4.6443e-06
-3.04582e-06
-4.41947e-06
-3.56143e-06
-4.15062e-06
-4.02815e-06
-3.83826e-06
-4.43234e-06
-3.48444e-06
-4.75887e-06
-3.09329e-06
-4.99147e-06
-2.67149e-06
-5.11321e-06
-2.22872e-06
-5.10723e-06
-1.77794e-06
-4.95775e-06
-1.33546e-06
-4.65131e-06
-9.20746e-07
-4.1781e-06
-5.55871e-07
-3.53339e-06
-2.64649e-07
-2.71856e-06
-7.14922e-08
-1.74198e-06
-6.20412e-07
-6.81357e-08
6.7027e-07
-2.5006e-07
1.85307e-06
-5.21881e-07
2.86125e-06
-8.59907e-07
3.68741e-06
-1.242e-06
4.33216e-06
-1.64846e-06
4.802e-06
-2.0626e-06
5.1078e-06
-2.47093e-06
5.26345e-06
-2.86307e-06
5.28445e-06
-3.2315e-06
5.18684e-06
-3.57113e-06
4.98631e-06
-3.87889e-06
4.69767e-06
-4.15323e-06
4.33439e-06
-4.39373e-06
3.90852e-06
-4.60067e-06
3.43061e-06
-4.77475e-06
2.90982e-06
-4.91677e-06
2.35407e-06
-5.02743e-06
1.77022e-06
-5.10712e-06
1.16437e-06
-5.15586e-06
5.42118e-07
-5.17314e-06
-9.11707e-08
-5.15793e-06
-7.30028e-07
-5.10868e-06
-1.36858e-06
-5.02335e-06
-2.0002e-06
-4.89957e-06
-2.61721e-06
-4.73484e-06
-3.21055e-06
-4.52677e-06
-3.7695e-06
-4.27349e-06
-4.28143e-06
-3.97414e-06
-4.73169e-06
-3.62939e-06
-5.10363e-06
-3.24208e-06
-5.37878e-06
-2.81791e-06
-5.53738e-06
-2.36602e-06
-5.55911e-06
-1.89951e-06
-5.42427e-06
-1.43561e-06
-5.1152e-06
-9.95653e-07
-4.61806e-06
-6.04442e-07
-3.9246e-06
-2.89288e-07
-3.03371e-06
-7.85853e-08
-1.95268e-06
-6.98998e-07
-7.37041e-08
7.43974e-07
-2.69207e-07
2.04857e-06
-5.59055e-07
3.1511e-06
-9.16106e-07
4.04446e-06
-1.3153e-06
4.73136e-06
-1.73481e-06
5.22151e-06
-2.15662e-06
5.52961e-06
-2.56671e-06
5.67353e-06
-2.95483e-06
5.67257e-06
-3.3141e-06
5.54611e-06
-3.64043e-06
5.31264e-06
-3.93191e-06
4.98915e-06
-4.18829e-06
4.59076e-06
-4.41038e-06
4.1306e-06
-4.59966e-06
3.61989e-06
-4.75788e-06
3.06805e-06
-4.88677e-06
2.48295e-06
-4.98777e-06
1.87122e-06
-5.06189e-06
1.23849e-06
-5.10953e-06
5.89751e-07
-5.13038e-06
-7.03123e-08
-5.12344e-06
-7.36975e-07
-5.08691e-06
-1.40511e-06
-5.01831e-06
-2.0688e-06
-4.91456e-06
-2.72096e-06
-4.77218e-06
-3.35294e-06
-4.58754e-06
-3.95413e-06
-4.35732e-06
-4.51165e-06
-4.07897e-06
-5.01004e-06
-3.75142e-06
-5.43118e-06
-3.3758e-06
-5.7544e-06
-2.95634e-06
-5.95684e-06
-2.5012e-06
-6.01425e-06
-2.02321e-06
-5.90226e-06
-1.54033e-06
-5.59808e-06
-1.07576e-06
-5.08264e-06
-6.57361e-07
-4.343e-06
-3.16552e-07
-3.37452e-06
-8.65441e-08
-2.18269e-06
-7.85542e-07
-8.00892e-08
8.24063e-07
-2.90843e-07
2.25933e-06
-6.0032e-07
3.46058e-06
-9.77097e-07
4.42123e-06
-1.39263e-06
5.14689e-06
-1.82264e-06
5.65152e-06
-2.24779e-06
5.95477e-06
-2.65375e-06
6.07949e-06
-3.03073e-06
6.04955e-06
-3.37288e-06
5.88826e-06
-3.67749e-06
5.61726e-06
-3.94423e-06
5.25589e-06
-4.17439e-06
4.82092e-06
-4.37033e-06
4.32654e-06
-4.53489e-06
3.78445e-06
-4.67106e-06
3.20421e-06
-4.78158e-06
2.59348e-06
-4.86877e-06
1.95841e-06
-4.93428e-06
1.304e-06
-4.97897e-06
6.34438e-07
-5.00281e-06
-4.64638e-08
-5.00485e-06
-7.34938e-07
-4.98313e-06
-1.42683e-06
-4.93473e-06
-2.11719e-06
-4.85589e-06
-2.79981e-06
-4.74209e-06
-3.46673e-06
-4.58841e-06
-4.10782e-06
-4.38983e-06
-4.71022e-06
-4.1419e-06
-5.25797e-06
-3.84136e-06
-5.73172e-06
-3.48717e-06
-6.1086e-06
-3.08148e-06
-6.36252e-06
-2.63086e-06
-6.46487e-06
-2.14731e-06
-6.3858e-06
-1.64917e-06
-6.09622e-06
-1.1614e-06
-5.57041e-06
-7.15229e-07
-4.78916e-06
-3.46916e-07
-3.74284e-06
-9.5551e-08
-2.43405e-06
-8.81093e-07
-8.75723e-08
9.11636e-07
-3.15773e-07
2.48753e-06
-6.4689e-07
3.7917e-06
-1.04411e-06
4.81846e-06
-1.47468e-06
5.57746e-06
-1.91162e-06
6.08846e-06
-2.33437e-06
6.37751e-06
-2.72858e-06
6.4737e-06
-3.08545e-06
6.40642e-06
-3.40068e-06
6.20349e-06
-3.67345e-06
5.89003e-06
-3.9054e-06
5.48784e-06
-4.09977e-06
5.01529e-06
-4.26067e-06
4.48743e-06
-4.39253e-06
3.91631e-06
-4.49967e-06
3.31135e-06
-4.58597e-06
2.67979e-06
-4.65465e-06
2.0271e-06
-4.70807e-06
1.35742e-06
-4.74761e-06
6.73977e-07
-4.77357e-06
-2.05056e-08
-4.7851e-06
-7.23412e-07
-4.78014e-06
-1.43179e-06
-4.75544e-06
-2.14189e-06
-4.70657e-06
-2.84868e-06
-4.62804e-06
-3.54526e-06
-4.51353e-06
-4.22232e-06
-4.35628e-06
-4.86747e-06
-4.14961e-06
-5.46465e-06
-3.88773e-06
-5.99359e-06
-3.56683e-06
-6.4295e-06
-3.18631e-06
-6.74305e-06
-2.75032e-06
-6.90085e-06
-2.26932e-06
-6.86681e-06
-1.76134e-06
-6.6042e-06
-1.25289e-06
-6.07886e-06
-7.78811e-07
-5.26324e-06
-3.81021e-07
-4.14063e-06
-1.05857e-07
-2.70922e-06
-9.8695e-07
-9.65528e-08
1.00819e-06
-3.45106e-07
2.73608e-06
-7.00367e-07
4.14696e-06
-1.11866e-06
5.23675e-06
-1.56218e-06
6.02098e-06
-2.00102e-06
6.52729e-06
-2.41363e-06
6.79012e-06
-2.78627e-06
6.84635e-06
-3.1118e-06
6.73194e-06
-3.38816e-06
6.47986e-06
-3.61704e-06
6.11891e-06
-3.80254e-06
5.67334e-06
-3.95019e-06
5.16294e-06
-4.06611e-06
4.60336e-06
-4.15646e-06
4.00666e-06
-4.22698e-06
3.38188e-06
-4.28272e-06
2.73553e-06
-4.32781e-06
2.07218e-06
-4.36533e-06
1.39494e-06
-4.3972e-06
7.05848e-07
-4.42409e-06
6.38371e-09
-4.44533e-06
-7.02168e-07
-4.45887e-06
-1.41825e-06
-4.4612e-06
-2.13956e-06
-4.44736e-06
-2.86252e-06
-4.41097e-06
-3.58165e-06
-4.3444e-06
-4.28889e-06
-4.23905e-06
-4.97282e-06
-4.08587e-06
-5.61783e-06
-3.87617e-06
-6.20329e-06
-3.60278e-06
-6.7029e-06
-3.26154e-06
-7.08428e-06
-2.85323e-06
-7.30917e-06
-2.38562e-06
-7.33441e-06
-1.87558e-06
-7.11424e-06
-1.35055e-06
-6.60389e-06
-8.49098e-07
-5.76469e-06
-4.19743e-07
-4.56998e-06
-1.17816e-07
-3.01114e-06
-1.10477e-06
-1.07605e-07
1.11579e-06
-3.80375e-07
3.00885e-06
-7.62849e-07
4.52943e-06
-1.20254e-06
5.67644e-06
-1.65561e-06
6.47405e-06
-2.08915e-06
6.96084e-06
-2.48126e-06
7.18223e-06
-2.81967e-06
7.18476e-06
-3.09987e-06
7.01214e-06
-3.32297e-06
6.70295e-06
-3.49385e-06
6.28979e-06
-3.61962e-06
5.79911e-06
-3.70842e-06
5.25174e-06
-3.76858e-06
4.66352e-06
-3.80805e-06
4.04613e-06
-3.83399e-06
3.40782e-06
-3.85258e-06
2.75411e-06
-3.8688e-06
2.08841e-06
-3.88643e-06
1.41257e-06
-3.9079e-06
7.27321e-07
-3.93427e-06
3.27524e-08
-3.96513e-06
-6.71312e-07
-3.99852e-06
-1.38486e-06
-4.03085e-06
-2.10723e-06
-4.05681e-06
-2.83656e-06
-4.06933e-06
-3.56913e-06
-4.05961e-06
-4.29861e-06
-4.01733e-06
-5.01511e-06
-3.93101e-06
-5.70415e-06
-3.7888e-06
-6.3455e-06
-3.57961e-06
-6.91208e-06
-3.29487e-06
-7.36903e-06
-2.93075e-06
-7.67329e-06
-2.49097e-06
-7.77419e-06
-1.98977e-06
-7.61544e-06
-1.45455e-06
-7.13911e-06
-9.2736e-07
-6.29188e-06
-4.64302e-07
-5.03304e-06
-1.31941e-07
-3.3435e-06
-1.23671e-06
-1.21569e-07
1.23736e-06
-4.23708e-07
3.31099e-06
-8.37033e-07
4.94275e-06
-1.29766e-06
6.13707e-06
-1.75476e-06
6.93115e-06
-2.17273e-06
7.37881e-06
-2.53036e-06
7.53985e-06
-2.81826e-06
7.47266e-06
-3.03588e-06
7.22976e-06
-3.1886e-06
6.85567e-06
-3.28531e-06
6.3865e-06
-3.33662e-06
5.85042e-06
-3.35355e-06
5.26867e-06
-3.34672e-06
4.65668e-06
-3.3258e-06
4.02521e-06
-3.29926e-06
3.38128e-06
-3.27425e-06
2.72909e-06
-3.25649e-06
2.07065e-06
-3.25031e-06
1.40639e-06
-3.25861e-06
7.35613e-07
-3.28279e-06
5.69416e-08
-3.32278e-06
-6.31322e-07
-3.37685e-06
-1.33079e-06
-3.44152e-06
-2.04257e-06
-3.51139e-06
-2.76669e-06
-3.579e-06
-3.50152e-06
-3.63472e-06
-4.24289e-06
-3.66675e-06
-4.98308e-06
-3.66135e-06
-5.70954e-06
-3.60342e-06
-6.40343e-06
-3.47757e-06
-7.03794e-06
-3.2699e-06
-7.5767e-06
-2.97063e-06
-7.97255e-06
-2.57761e-06
-8.16721e-06
-2.10044e-06
-8.09261e-06
-1.56472e-06
-7.67484e-06
-1.0152e-06
-6.8414e-06
-5.16413e-07
-5.53183e-06
-1.48996e-07
-3.71092e-06
-1.3857e-06
-1.39706e-07
1.37707e-06
-4.78073e-07
3.64936e-06
-9.26286e-07
5.39097e-06
-1.40578e-06
6.61656e-06
-1.85794e-06
7.3833e-06
-2.2455e-06
7.76638e-06
-2.54981e-06
7.84417e-06
-2.76641e-06
7.68926e-06
-2.90047e-06
7.36381e-06
-2.9629e-06
6.9181e-06
-2.96743e-06
6.39104e-06
-2.92857e-06
5.81156e-06
-2.86031e-06
5.20041e-06
-2.77542e-06
4.5718e-06
-2.6851e-06
3.93489e-06
-2.59886e-06
3.29504e-06
-2.5245e-06
2.65473e-06
-2.46824e-06
2.01439e-06
-2.43476e-06
1.37291e-06
-2.42728e-06
7.28128e-07
-2.44754e-06
7.72012e-08
-2.49579e-06
-5.83066e-07
-2.57069e-06
-1.2559e-06
-2.66909e-06
-1.94416e-06
-2.78586e-06
-2.64992e-06
-2.91358e-06
-3.37381e-06
-3.04225e-06
-4.11422e-06
-3.15912e-06
-4.8662e-06
-3.24862e-06
-5.62004e-06
-3.29261e-06
-6.35944e-06
-3.27125e-06
-7.0593e-06
-3.16464e-06
-7.68331e-06
-2.9556e-06
-8.18159e-06
-2.63389e-06
-8.48892e-06
-2.20172e-06
-8.52479e-06
-1.68006e-06
-8.19649e-06
-1.11456e-06
-7.40691e-06
-5.78512e-07
-6.06787e-06
-1.70146e-07
-4.11929e-06
-1.55585e-06
-1.63956e-07
1.54102e-06
-5.47619e-07
4.03302e-06
-1.03459e-06
5.87794e-06
-1.52764e-06
7.10961e-06
-1.96034e-06
7.81601e-06
-2.29608e-06
8.10212e-06
-2.52185e-06
8.06993e-06
-2.64094e-06
7.80836e-06
-2.66643e-06
7.3893e-06
-2.61613e-06
6.86781e-06
-2.50927e-06
6.28417e-06
-2.36438e-06
5.66667e-06
-2.19826e-06
5.03428e-06
-2.02543e-06
4.39897e-06
-1.85814e-06