/*--------------------------------*- C++ -*----------------------------------*\
  =========                 |
  \\      /  F ield         | OpenFOAM: The Open Source CFD Toolbox
   \\    /   O peration     | Website:  https://openfoam.org
    \\  /    A nd           | Version:  7
     \\/     M anipulation  |
\*---------------------------------------------------------------------------*/
FoamFile
{
    version     2.0;
    format      ascii;
    class       volScalarField;
    location    "0.1";
    object      p;
}
// * * * * * * * * * * * * * * * * * * * * * * * * * * * * * * * * * * * * * //

dimensions      [0 2 -2 0 0 0 0];

internalField   nonuniform List<scalar> 
6400
(
-1.73712e-08
1.00489e-05
-0.000497566
-0.00153479
-0.00298131
-0.00472351
-0.0066606
-0.00870347
-0.0107757
-0.0128127
-0.0147599
-0.0165719
-0.0182109
-0.0196455
-0.0208505
-0.0218059
-0.0224957
-0.0229082
-0.0230347
-0.0228702
-0.0224121
-0.0216609
-0.020619
-0.0192911
-0.0176834
-0.015804
-0.0136626
-0.0112704
-0.00864
-0.00578515
-0.00272079
0.000537248
0.00397217
0.00756623
0.0113009
0.015157
0.0191148
0.0231539
0.0272534
0.031392
0.0355479
0.0396996
0.0438249
0.0479017
0.0519081
0.0558221
0.0596225
0.063288
0.0667979
0.070132
0.0732712
0.0761972
0.0788927
0.0813418
0.0835299
0.0854442
0.0870734
0.0884085
0.0894424
0.0901704
0.0905907
0.0907041
0.0905145
0.090029
0.0892586
0.0882177
0.0869254
0.0854055
0.0836871
0.0818051
0.0798006
0.0777224
0.0756272
0.0735814
0.0716618
0.0699561
0.0685603
0.0675777
0.0671143
0.0671517
-1.16784e-05
-1.31138e-05
-0.000474453
-0.00136445
-0.00258284
-0.00404849
-0.00568563
-0.00742281
-0.00919524
-0.0109465
-0.0126274
-0.0141962
-0.0156171
-0.0168604
-0.0179013
-0.0187198
-0.0193001
-0.01963
-0.0197005
-0.0195058
-0.0190424
-0.0183099
-0.0173098
-0.0160456
-0.0145228
-0.0127483
-0.0107307
-0.00848002
-0.00600761
-0.00332614
-0.000449327
0.0026082
0.00583084
0.00920203
0.0127045
0.0163204
0.0200313
0.023818
0.0276609
0.03154
0.0354351
0.0393259
0.0431917
0.0470117
0.0507655
0.0544328
0.0579936
0.0614281
0.0647171
0.067842
0.0707852
0.0735298
0.07606
0.0783613
0.0804205
0.0822261
0.0837683
0.0850392
0.0860328
0.0867455
0.0871764
0.087327
0.0872021
0.0868091
0.0861591
0.0852667
0.0841505
0.0828338
0.0813442
0.0797147
0.0779837
0.0761955
0.0744013
0.0726587
0.0710327
0.0695939
0.0684147
0.0675693
0.0671505
0.0671888
0.000482507
0.00042414
-4.04845e-05
-0.000863798
-0.00195882
-0.00326119
-0.00471033
-0.0062468
-0.00781555
-0.0093675
-0.0108586
-0.0122508
-0.0135114
-0.0146122
-0.0155297
-0.0162447
-0.0167415
-0.017008
-0.0170354
-0.0168173
-0.0163503
-0.0156329
-0.014666
-0.0134526
-0.0119973
-0.0103063
-0.00838739
-0.00624961
-0.00390349
-0.00136074
0.00136596
0.00426291
0.00731541
0.0105079
0.0138242
0.0172476
0.0207605
0.0243449
0.0279821
0.0316535
0.0353399
0.039022
0.0426803
0.0462952
0.0498475
0.0533179
0.0566878
0.0599385
0.063052
0.0660109
0.0687986
0.0713996
0.073799
0.0759835
0.077941
0.079661
0.0811347
0.0823549
0.0833166
0.0840168
0.0844552
0.0846339
0.0845579
0.0842347
0.0836753
0.082894
0.0819088
0.0807418
0.0794191
0.0779714
0.0764341
0.0748476
0.0732572
0.0717136
0.0702721
0.0689914
0.0679303
0.0671483
0.0667304
0.0667274
0.00148571
0.0012815
0.00074788
-7.71509e-05
-0.00112762
-0.00234999
-0.0036928
-0.0051059
-0.00654244
-0.00795917
-0.00931755
-0.0105833
-0.0117264
-0.0127211
-0.0135457
-0.0141819
-0.0146148
-0.0148328
-0.014827
-0.0145914
-0.0141223
-0.0134181
-0.0124791
-0.0113079
-0.00990855
-0.00828666
-0.00644932
-0.00440503
-0.00216356
0.000264185
0.00286634
0.00562999
0.0085412
0.0115853
0.014747
0.0180105
0.021359
0.0247754
0.0282421
0.0317412
0.0352546
0.0387639
0.0422505
0.0456959
0.0490818
0.0523901
0.0556027
0.0587022
0.0616714
0.0644941
0.0671545
0.0696379
0.0719304
0.0740195
0.075894
0.0775442
0.0789619
0.0801405
0.0810756
0.0817647
0.0822078
0.0824073
0.0823681
0.0820976
0.0816064
0.0809082
0.0800201
0.078963
0.077761
0.0764424
0.0750395
0.0735886
0.0721301
0.0707083
0.0693708
0.0681675
0.0671484
0.0663645
0.0658834
0.0657483
0.00289367
0.00246815
0.00180993
0.000935029
-0.000120671
-0.00131184
-0.00259523
-0.00392912
-0.00527353
-0.0065915
-0.00784936
-0.00901676
-0.0100667
-0.010976
-0.0117247
-0.012296
-0.0126761
-0.0128539
-0.012821
-0.0125716
-0.0121021
-0.0114108
-0.0104979
-0.00936546
-0.00801721
-0.00645822
-0.00469508
-0.00273578
-0.000589467
0.00173375
0.00422268
0.00686506
0.00964775
0.0125569
0.0155781
0.0186962
0.0218952
0.025159
0.0284708
0.0318136
0.0351701
0.0385227
0.0418538
0.0451459
0.0483815
0.0515432
0.054614
0.0575771
0.0604165
0.0631167
0.0656627
0.0680405
0.0702371
0.0722407
0.0740408
0.0756283
0.0769955
0.0781364
0.0790469
0.0797249
0.0801706
0.0803863
0.0803768
0.0801492
0.0797136
0.0790828
0.0782731
0.0773034
0.0761961
0.0749768
0.0736747
0.0723221
0.0709546
0.0696105
0.0683305
0.0671565
0.0661313
0.0652983
0.0646981
0.0643529
0.00461024
0.00391487
0.00309013
0.0021253
0.00102359
-0.000177831
-0.00144197
-0.00273474
-0.00402281
-0.00527468
-0.00646136
-0.00755641
-0.00853609
-0.0093795
-0.0100688
-0.0105887
-0.0109268
-0.0110728
-0.011019
-0.0107598
-0.0102918
-0.00961337
-0.0087248
-0.00762793
-0.006326
-0.00482383
-0.00312767
-0.00124497
0.000815778
0.00304498
0.005432
0.00796526
0.0106324
0.0134203
0.0163151
0.0193024
0.0223672
0.0254939
0.0286667
0.0318694
0.0350852
0.0382975
0.0414896
0.0446446
0.047746
0.0507769
0.0537213
0.0565632
0.0592872
0.0618786
0.0643232
0.0666074
0.068719
0.0706469
0.0723811
0.0739129
0.0752351
0.0763421
0.07723
0.0778968
0.0783428
0.0785703
0.0785835
0.0783894
0.0779971
0.0774189
0.0766694
0.075766
0.0747291
0.0735818
0.0723499
0.071062
0.0697492
0.0684444
0.0671818
0.0659965
0.064925
0.0640037
0.0632423
0.0626366
0.00654764
0.00555472
0.00453399
0.00344796
0.00226645
0.0010201
-0.000259589
-0.00154482
-0.00280846
-0.0040239
-0.00516642
-0.00621339
-0.00714417
-0.00794046
-0.00858631
-0.00906823
-0.00937498
-0.00949741
-0.00942863
-0.00916356
-0.008699
-0.00803364
-0.00716773
-0.00610297
-0.00484257
-0.0033911
-0.00175446
6.03479e-05
0.00204528
0.00419121
0.00648802
0.00892473
0.0114896
0.0141703
0.0169534
0.0198252
0.0227714
0.0257773
0.0288275
0.0319066
0.0349986
0.0380875
0.0411574
0.0441923
0.047176
0.0500925
0.0529264
0.0556625
0.058286
0.0607827
0.063139
0.0653419
0.0673798
0.0692419
0.0709189
0.0724022
0.0736851
0.0747619
0.0756292
0.076285
0.0767293
0.0769641
0.0769935
0.0768236
0.076463
0.0759228
0.0752164
0.0743595
0.0733702
0.0722691
0.0710792
0.0698255
0.0685348
0.0672353
0.0659555
0.0647242
0.063573
0.0625323
0.0615799
0.0606851
0.00862844
0.00732407
0.00608843
0.00485818
0.00357076
0.00225187
0.000928636
-0.000376959
-0.0016429
-0.00284719
-0.00396903
-0.00498917
-0.00588991
-0.00665559
-0.00727232
-0.00772826
-0.00801345
-0.00811997
-0.00804173
-0.00777431
-0.007315
-0.00666276
-0.00581794
-0.00478224
-0.00355885
-0.00215228
-0.000568124
0.001187
0.00310538
0.00517822
0.0073959
0.00974804
0.0122235
0.0148102
0.0174956
0.0202664
0.023109
0.0260093
0.0289526
0.0319239
0.0349081
0.0378898
0.0408538
0.0437844
0.0466662
0.0494839
0.0522225
0.0548674
0.0574045
0.0598199
0.0621005
0.0642338
0.0662086
0.0680146
0.0696425
0.0710843
0.0723331
0.0733837
0.0742325
0.0748774
0.0753182
0.0755566
0.0755961
0.0754423
0.0751029
0.0745879
0.0739093
0.073081
0.0721191
0.071042
0.0698698
0.0686241
0.067328
0.0660053
0.0646798
0.0633747
0.0621177
0.0609345
0.0597718
0.0585734
0.0107867
0.00916666
0.00770485
0.00631379
0.00490118
0.00348826
0.00209887
0.000750237
-0.000540216
-0.00175456
-0.0028756
-0.00388718
-0.00477444
-0.00552403
-0.00612415
-0.00656467
-0.00683711
-0.00693458
-0.0068518
-0.00658524
-0.00613278
-0.00549357
-0.00466818
-0.00365857
-0.00246799
-0.00110077
0.000437701
0.00214095
0.00400149
0.00601094
0.00816014
0.0104391
0.0128372
0.0153427
0.0179436
0.0206273
0.0233806
0.02619
0.0290413
0.0319201
0.0348117
0.0377017
0.040575
0.0434166
0.0462116
0.0489451
0.0516029
0.0541707
0.0566348
0.0589817
0.0611986
0.0632735
0.0651955
0.0669544
0.0685414
0.0699482
0.0711683
0.0721965
0.0730289
0.0736635
0.0740995
0.0743383
0.0743828
0.0742379
0.0739105
0.0734094
0.072745
0.0719299
0.0709781
0.0699057
0.0687302
0.0674704
0.0661459
0.0647767
0.0633823
0.0619815
0.060599
0.0592566
0.0578719
0.056365
0.0129673
0.0110329
0.00933907
0.0077765
0.00622435
0.00470098
0.00322769
0.00181761
0.000484287
-0.000757867
-0.00189495
-0.0029137
-0.00380173
-0.00454787
-0.00514243
-0.0055769
-0.00584415
-0.00593844
-0.00585557
-0.0055927
-0.00514819
-0.00452167
-0.00371411
-0.00272768
-0.00156565
-0.000232315
0.00126697
0.00292585
0.00473705
0.00669252
0.00878347
0.0110003
0.0133326
0.0157692
0.0182985
0.0209084
0.0235862
0.0263188
0.0290924
0.0318932
0.0347072
0.0375201
0.0403175
0.0430849
0.0458075
0.0484713
0.0510622
0.0535664
0.0559704
0.058261
0.0604259
0.0624533
0.0643324
0.0660533
0.067607
0.0689856
0.0701823
0.071192
0.0720106
0.0726356
0.0730661
0.0733028
0.073348
0.073206
0.0728826
0.0723855
0.0717238
0.0709084
0.0699517
0.0688675
0.067671
0.0663784
0.0650062
0.0635714
0.0620896
0.060576
0.059053
0.05754
0.055927
0.0541126
0.0151241
0.0128798
0.0109522
0.00921097
0.00750903
0.00586281
0.00429184
0.00280566
0.00141452
0.000129789
-0.00103738
-0.00207644
-0.00297735
-0.00373104
-0.00432951
-0.00476596
-0.00503461
-0.00513085
-0.0050515
-0.0047945
-0.00435874
-0.00374437
-0.00295281
-0.00198648
-0.000848752
0.000456038
0.00192251
0.00354435
0.00531446
0.0072251
0.00926776
0.011433
0.0137109
0.0160905
0.0185607
0.0211097
0.0237253
0.0263945
0.0291044
0.0318414
0.034592
0.0373422
0.040078
0.0427853
0.0454497
0.0480575
0.0505951
0.0530487
0.0554052
0.0576516
0.0597759
0.0617663
0.0636123
0.0653039
0.0668322
0.0681891
0.069368
0.0703633
0.0711708
0.0717876
0.0722124
0.0724452
0.0724878
0.0723436
0.0720176
0.0715162
0.0708473
0.0700202
0.0690456
0.0679357
0.0667033
0.0653623
0.0639267
0.0624105
0.0608265
0.0591869
0.0575126
0.0558212
0.0539775
0.0518598
0.0172181
0.0146703
0.0125093
0.0105853
0.0087265
0.00694825
0.00526889
0.00369501
0.00223412
0.000894848
-0.000314148
-0.00138453
-0.0023084
-0.00307875
-0.00368925
-0.00413446
-0.00440996
-0.00451243
-0.00443958
-0.00418998
-0.00376326
-0.00316021
-0.00238265
-0.0014332
-0.0003154
0.000966199
0.0024061
0.0039981
0.00573529
0.00761008
0.00961409
0.0117382
0.0139725
0.0163067
0.0187299
0.0212305
0.0237968
0.026416
0.0290756
0.0317626
0.0344636
0.037165
0.0398531
0.042514
0.0451339
0.0476993
0.0501966
0.0526124
0.0549336
0.0571476
0.0592423
0.0612063
0.0630288
0.0646999
0.0662105
0.0675526
0.0687192
0.0697046
0.0705043
0.0711148
0.0715342
0.0717621
0.0717997
0.0716494
0.0713153
0.0708028
0.0701183
0.0692699
0.0682669
0.0671194
0.0658387
0.0644364
0.0629243
0.0613142
0.0596165
0.0578407
0.0560071
0.0541326
0.0520578
0.0496425
0.0192165
0.0163722
0.0139795
0.0118707
0.00985047
0.00793343
0.00613755
0.00446704
0.00292674
0.00152318
0.000262963
-0.000847788
-0.00180317
-0.00259773
-0.00322676
-0.0036863
-0.00397325
-0.00408532
-0.00402102
-0.00377978
-0.00336205
-0.00276915
-0.00200319
-0.00106713
3.51422e-05
0.00129885
0.00271848
0.00428786
0.00600018
0.00784788
0.0098227
0.0119157
0.0141173
0.0164174
0.0188054
0.0212699
0.0237993
0.0263815
0.029004
0.0316543
0.0343192
0.0369853
0.0396392
0.0422673
0.0448561
0.0473921
0.049862
0.0522524
0.0545504
0.0567436
0.0588199
0.0607677
0.0625763
0.0642357
0.0657365
0.0670707
0.068231
0.0692114
0.0700068
0.0706134
0.0710286
0.0712515
0.0712825
0.0711233
0.070777
0.0702477
0.0695409
0.0686634
0.067623
0.0664284
0.0650891
0.063615
0.0620159
0.0603017
0.0584811
0.0565615
0.0545631
0.0525023
0.0501975
0.0474909
0.021091
0.0179569
0.0153353
0.0130409
0.0108564
0.00879597
0.00687738
0.00510315
0.0034761
0.00200062
0.00068142
-0.000477069
-0.00147068
-0.00229553
-0.00294845
-0.00342685
-0.00372873
-0.00385278
-0.00379843
-0.00356604
-0.00315672
-0.00257224
-0.00181515
-0.000888858
0.000202403
0.00145369
0.00285941
0.00441339
0.00610879
0.00793805
0.00989301
0.0119649
0.0141444
0.0164215
0.0187858
0.0212261
0.023731
0.0262887
0.0288872
0.0315138
0.0341558
0.0367999
0.0394328
0.0420414
0.0446122
0.0471317
0.0495868
0.0519642
0.054251
0.0564348
0.0585036
0.0604457
0.06225
0.0639065
0.0654057
0.0667392
0.0678995
0.0688801
0.0696753
0.0702809
0.0706938
0.0709124
0.0709363
0.0707664
0.0704047
0.0698545
0.0691201
0.0682072
0.0671223
0.0658727
0.0644665
0.0629119
0.0612174
0.0593913
0.0574405
0.0553714
0.0532041
0.0509553
0.0484221
0.0454302
0.0228167
0.0193995
0.0165517
0.0140719
0.0117214
0.00951438
0.00746885
0.00558558
0.0038659
0.0023125
0.000928359
-0.000283645
-0.00132082
-0.00218081
-0.00286179
-0.0033624
-0.0036817
-0.00381931
-0.00377569
-0.00355198
-0.00314988
-0.00257168
-0.00182045
-0.000900072
0.000184915
0.00142941
0.00282771
0.00437353
0.00605991
0.00787932
0.00982368
0.0118844
0.0140522
0.0163173
0.0186692
0.021097
0.0235896
0.0261354
0.0287224
0.0313382
0.0339702
0.0366052
0.0392304
0.0418325
0.0443982
0.046914
0.0493668
0.0517434
0.0540309
0.0562169
0.0582892
0.0602358
0.0620457
0.0637083
0.0652143
0.0665547
0.0677216
0.068708
0.0695077
0.070116
0.0705292
0.0707449
0.0707621
0.0705807
0.0702017
0.0696276
0.0688617
0.0679085
0.0667735
0.0654628
0.0639831
0.0623412
0.0605444
0.0586
0.0565137
0.0542905
0.0519514
0.0495134
0.0467536
0.0434818
0.0243716
0.0206773
0.0176064
0.0149417
0.0124243
0.0100686
0.00789295
0.00589683
0.00408014
0.00244421
0.000990546
-0.000279371
-0.00136419
-0.00226298
-0.00297509
-0.00350024
-0.00383849
-0.00399052
-0.00395772
-0.00374188
-0.00334524
-0.00277075
-0.00202206
-0.00110346
-1.97388e-05
0.00122382
0.00262131
0.00416622
0.00585149
0.00766964
0.00961269
0.0116721
0.0138386
0.0161023
0.018453
0.02088
0.0233722
0.0259183
0.0285064
0.0311241
0.0337588
0.0363978
0.0390282
0.0416368
0.0442101
0.0467349
0.0491979
0.0515859
0.0538861
0.0560858
0.0581726
0.0601343
0.0619597
0.0636379
0.0651593
0.0665145
0.0676951
0.0686934
0.0695029
0.0701181
0.0705349
0.0707502
0.0707619
0.0705691
0.0701721
0.0695722
0.0687721
0.0677752
0.0665859
0.0652093
0.0636508
0.0619162
0.060012
0.0579444
0.0557181
0.0533376
0.0508244
0.0481964
0.0452116
0.0416641
0.0257359
0.0217697
0.0184787
0.0156299
0.0129451
0.0104394
0.0081315
0.00601983
0.00410292
0.00238103
0.000854496
-0.000476512
-0.00161201
-0.00255217
-0.00329739
-0.00384841
-0.00420639
-0.00437303
-0.00435038
-0.00414087
-0.00374744
-0.00317374
-0.00242393
-0.00150259
-0.000414785
0.0008339
0.00223724
0.00378855
0.00548072
0.00730632
0.00925736
0.0113252
0.0135005
0.0157736
0.0181342
0.0205719
0.0230758
0.0256343
0.0282357
0.0308677
0.033518
0.0361738
0.0388223
0.0414502
0.044044
0.0465903
0.049076
0.0514879
0.0538127
0.0560378
0.0581502
0.0601379
0.061989
0.0636926
0.0652384
0.0666167
0.0678183
0.0688353
0.0696604
0.0702877
0.0707122
0.0709301
0.0709384
0.0707354
0.0703206
0.0696944
0.0688585
0.0678157
0.0665692
0.065123
0.0634818
0.0616505
0.0596347
0.05744
0.0550705
0.0525297
0.0498406
0.0470221
0.0438133
0.0399934
0.0268916
0.0226577
0.0191491
0.0161173
0.0132652
0.0106086
0.00816698
0.00593774
0.00391843
0.0021083
0.000506544
-0.000887861
-0.00207599
-0.003059
-0.00383833
-0.00441582
-0.00479364
-0.00497421
-0.00496027
-0.00475501
-0.00436215
-0.0037859
-0.00303081
-0.00210178
-0.00100428
0.00025571
0.00167171
0.00323691
0.0049442
0.00678604
0.00875431
0.0108403
0.0130346
0.0153277
0.0177094
0.0201694
0.0226965
0.0252794
0.0279064
0.0305654
0.033244
0.0359294
0.0386088
0.0412687
0.0438957
0.0464764
0.0489975
0.0514455
0.0538072
0.0560693
0.058219
0.0602435
0.062131
0.0638701
0.0654498
0.0668598
0.0680906
0.0691336
0.0699809
0.070626
0.0710631
0.0712875
0.0712954
0.0710843
0.0706528
0.0700007
0.0691288
0.0680388
0.0667331
0.065215
0.0634883
0.0615573
0.0594268
0.0571021
0.0545865
0.0518833
0.0490166
0.0460067
0.0425744
0.0384842
0.0278219
0.0233235
0.0195992
0.0163854
0.0133662
0.0105583
0.00798208
0.00563412
0.00351105
0.00161115
-6.73815e-05
-0.00152649
-0.00276819
-0.00379465
-0.00460841
-0.00521224
-0.0056091
-0.00580213
-0.00579487
-0.00559135
-0.00519592
-0.00461321
-0.00384817
-0.0029062
-0.0017932
-0.000515512
0.000920222
0.0025071
0.00423784
0.00610472
0.00809946
0.0102132
0.0124368
0.0147606
0.0171746
0.0196682
0.0222303
0.0248496
0.0275145
0.0302129
0.0329325
0.0356603
0.0383834
0.0410882
0.0437613
0.0463892
0.0489584
0.0514552
0.053866
0.0561773
0.0583758
0.0604487
0.0623836
0.0641686
0.065792
0.0672432
0.0685118
0.0695887
0.0704655
0.0711348
0.0715901
0.0718257
0.0718372
0.071621
0.0711752
0.0704986
0.0695912
0.0684539
0.0670883
0.0654968
0.0636828
0.0616498
0.0594025
0.0569453
0.0542813
0.0514137
0.0483678
0.0451656
0.0415097
0.0371498
0.0285108
0.0237502
0.0198116
0.0164165
0.0132306
0.0102713
0.00755996
0.00509264
0.00286501
0.000874492
-0.000881484
-0.00240571
-0.00370113
-0.004771
-0.00561874
-0.00624792
-0.00666223
-0.00686565
-0.00686258
-0.00665773
-0.00625595
-0.00566232
-0.00488231
-0.00392186
-0.00278729
-0.00148516
-2.22773e-05
0.00159424
0.00335686
0.00525763
0.00728816
0.00943963
0.0117028
0.0140682
0.0165254
0.0190639
0.0216727
0.0243405
0.0270556
0.029806
0.0325792
0.0353621
0.0381417
0.0409043
0.0436366
0.0463247
0.0489549
0.0515133
0.0539857
0.0563585
0.0586181
0.0607512
0.0627449
0.0645867
0.0662643
0.0677664
0.0690821
0.0702017
0.071116
0.0718168
0.0722966
0.072549
0.0725688
0.0723517
0.0718947
0.071196
0.0702547
0.0690709
0.0676454
0.0659801
0.0640777
0.0619416
0.0595756
0.0569841
0.0541699
0.0511359
0.0479092
0.0445133
0.0406328
0.0360026
0.0289429
0.0239215
0.0197694
0.0161934
0.012841
0.00973042
0.00688392
0.00429693
0.00196443
-0.000116803
-0.00195013
-0.00353924
-0.00488799
-0.00600049
-0.00688094
-0.00753369
-0.00796326
-0.00817451
-0.00817255
-0.00796263
-0.00755012
-0.00694068
-0.00614036
-0.00515558
-0.00399293
-0.0026592
-0.00116149
0.000492768
0.00229579
0.00423946
0.00631532
0.00851452
0.0108278
0.0132453
0.0157569
0.0183518
0.0210191
0.0237474
0.026525
0.0293399
0.0321794
0.0350302
0.0378793
0.040713
0.0435175
0.0462791
0.0489833
0.0516161
0.0541631
0.0566102
0.0589434
0.061149
0.0632133
0.0651233
0.0668661
0.0684297
0.0698026
0.0709742
0.0719347
0.0726749
0.0731865
0.0734622
0.073496
0.0732829
0.0728189
0.0721015
0.0711288
0.0699001
0.0684158
0.0666771
0.0646862
0.0624461
0.0599603
0.057233
0.0542668
0.0510647
0.0476554
0.044064
0.0399571
0.0350548
0.0291027
0.0238211
0.0194559
0.0156993
0.0121805
0.00891874
0.00593712
0.00323058
0.000793479
-0.00137804
-0.00328815
-0.00494135
-0.00634235
-0.00749596
-0.00840715
-0.00908111
-0.00952325
-0.00973915
-0.00973453
-0.00951518
-0.00908709
-0.00845659
-0.00763023
-0.00661475
-0.00541707
-0.00404428
-0.00250386
-0.000803558
0.00104862
0.00304444
0.00517537
0.00743244
0.00980622
0.0122868
0.0148639
0.0175267
0.0202643
0.0230653
0.0259179
0.0288098
0.0317283
0.03466
0.0375917
0.0405097
0.0433999
0.0462481
0.0490398
0.0517603
0.0543951
0.0569296
0.0593493
0.06164
0.0637874
0.0657776
0.0675972
0.0692335
0.0706744
0.0719083
0.0729244
0.0737128
0.0742643
0.0745708
0.0746253
0.074422
0.0739562
0.0732242
0.0722235
0.0709526
0.0694113
0.0676003
0.0655215
0.0631772
0.060571
0.0577068
0.054587
0.0512149
0.0476209
0.0438319
0.039496
0.0343184
0.0289747
0.0234328
0.0188544
0.0149172
0.0112321
0.0078192
0.00470272
0.00187709
-0.00066395
-0.00292496
-0.00491082
-0.00662679
-0.00807825
-0.00927077
-0.0102102
-0.0109025
-0.0113539
-0.0115706
-0.0115589
-0.0113252
-0.0108763
-0.0102191
-0.00936037
-0.00830737
-0.00706732
-0.00564774
-0.00405649
-0.00230159
-0.000391213
0.00166628
0.00386219
0.00618739
0.00863227
0.0111868
0.0138407
0.0165831
0.019403
0.0222889
0.0252289
0.0282105
0.0312208
0.0342466
0.0372743
0.0402899
0.0432793
0.0462277
0.0491204
0.0519423
0.0546785
0.057314
0.0598337
0.0622226
0.0644659
0.066549
0.0684579
0.0701789
0.0716992
0.0730062
0.0740884
0.0749347
0.0755351
0.0758807
0.0759636
0.0757771
0.0753153
0.074574
0.0735496
0.07224
0.0706444
0.0687631
0.0665974
0.0641494
0.0614225
0.0584203
0.0551455
0.0516014
0.0478204
0.043831
0.0392627
0.0338054
0.0285437
0.0227405
0.0179484
0.0138302
0.00997853
0.00641466
0.00316376
0.000219725
-0.00242437
-0.00477373
-0.00683383
-0.00861061
-0.0101102
-0.011339
-0.0123035
-0.0130107
-0.0134674
-0.0136804
-0.0136566
-0.0134034
-0.0129279
-0.0122376
-0.0113398
-0.010242
-0.00895193
-0.00747755
-0.00582704
-0.00400864
-0.0020307
9.82247e-05
0.00236921
0.00477291
0.00729963
0.00993926
0.0126814
0.0155152
0.0184295
0.0214126
0.0244525
0.0275366
0.0306519
0.033785
0.0369221
0.0400491
0.0431513
0.0462138
0.0492214
0.0521587
0.0550104
0.0577608
0.0603943
0.0628952
0.0652479
0.0674373
0.0694484
0.0712669
0.0728788
0.0742709
0.0754303
0.0763452
0.0770046
0.0773986
0.0775185
0.0773564
0.0769057
0.0761611
0.0751182
0.0737744
0.0721281
0.0701791
0.0679283
0.0653775
0.0625298
0.0593891
0.0559579
0.0522398
0.048269
0.0440759
0.039271
0.0335284
0.0277941
0.0217276
0.0167207
0.0124209
0.00840254
0.0046878
0.00130293
-0.00175873
-0.00450475
-0.00694089
-0.00907322
-0.0109084
-0.0124533
-0.0137151
-0.0147013
-0.0154193
-0.0158765
-0.0160807
-0.0160396
-0.0157609
-0.0152526
-0.0145224
-0.0135781
-0.0124278
-0.0110798
-0.00954221
-0.0078236
-0.00593243
-0.00387729
-0.00166698
0.000689337
0.00318215
0.00580165
0.0085377
0.0113798
0.0143169
0.0173378
0.0204306
0.0235831
0.0267827
0.0300162
0.0332701
0.0365303
0.0397824
0.0430114
0.0462021
0.0493389
0.052406
0.0553876
0.0582673
0.061029
0.0636561
0.0661325
0.0684422
0.0705694
0.0724988
0.0742155
0.0757052
0.076954
0.0779491
0.0786786
0.0791315
0.0792979
0.0791691
0.0787375
0.0779966
0.0769415
0.0755687
0.073876
0.0718627
0.0695292
0.066877
0.0639091
0.0606292
0.0570402
0.0531459
0.0489824
0.0445818
0.0395351
0.0335006
0.0267097
0.0203775
0.015154
0.0106718
0.00648637
0.00262082
-0.000897597
-0.00407597
-0.00692247
-0.00944342
-0.0116456
-0.0135363
-0.0151233
-0.0164145
-0.017418
-0.018142
-0.0185947
-0.0187845
-0.01872
-0.0184095
-0.0178613
-0.0170838
-0.0160854
-0.0148747
-0.0134602
-0.0118506
-0.0100547
-0.00808116
-0.00593892
-0.00363703
-0.00118488
0.0014079
0.0041314
0.00697538
0.00992921
0.0129818
0.0161215
0.0193366
0.0226146
0.0259429
0.0293081
0.0326964
0.0360936
0.0394849
0.042855
0.0461883
0.049469
0.0526808
0.0558071
0.058831
0.0617357
0.064504
0.067119
0.0695637
0.0718216
0.0738763
0.0757118
0.0773126
0.0786641
0.0797521
0.0805638
0.0810869
0.0813106
0.0812249
0.0808213
0.0800923
0.0790322
0.0776366
0.0759027
0.0738292
0.071416
0.0686643
0.0655769
0.0621577
0.0584096
0.0543366
0.049977
0.0453646
0.0400702
0.0337359
0.0252738
0.0186727
0.0132307
0.00856484
0.00421171
0.000195262
-0.00345615
-0.00675012
-0.00969538
-0.0122989
-0.0145681
-0.0165112
-0.0181365
-0.0194528
-0.0204687
-0.0211934
-0.0216358
-0.0218052
-0.0217107
-0.0213612
-0.0207657
-0.0199331
-0.0188724
-0.0175927
-0.0161029
-0.0144121
-0.0125292
-0.0104634
-0.00822386
-0.00581995
-0.00326117
-0.000557306
0.00228163
0.00524527
0.00832279
0.011503
0.0147741
0.0181242
0.0215409
0.0250113
0.0285219
0.0320585
0.0356067
0.0391515
0.0426772
0.0461681
0.0496078
0.0529793
0.0562657
0.0594493
0.0625126
0.0654376
0.0682067
0.070802
0.0732059
0.075401
0.0773702
0.079097
0.0805653
0.0817601
0.082667
0.083273
0.0835657
0.0835341
0.0831685
0.0824606
0.0814037
0.0799925
0.0782235
0.0760946
0.0736053
0.0707565
0.0675508
0.0639923
0.0600838
0.0558298
0.0512703
0.0464413
0.0408926
0.0342494
0.0234691
0.0165953
0.0109322
0.00608127
0.00155957
-0.0026079
-0.00639168
-0.00979989
-0.012842
-0.0155256
-0.0178588
-0.0198505
-0.0215098
-0.0228461
-0.0238691
-0.0245886
-0.0250145
-0.0251567
-0.0250249
-0.0246287
-0.0239778
-0.0230818
-0.0219502
-0.0205925
-0.019018
-0.0172361
-0.0152563
-0.013088
-0.0107407
-0.00822399
-0.00554749
-0.00272114
0.000244878
0.00334004
0.00655339
0.00987355
0.0132888
0.016787
0.0203557
0.0239818
0.0276514
0.0313505
0.035064
0.0387769
0.0424733
0.046137
0.049751
0.053298
0.0567602
0.0601195
0.0633574
0.0664555
0.069395
0.0721573
0.0747235
0.0770751
0.0791939
0.0810622
0.0826627
0.0839791
0.0849959
0.0856983
0.086073
0.0861077
0.0857915
0.085115
0.0840705
0.0826518
0.0808546
0.078676
0.0761149
0.073172
0.0698497
0.066152
0.062082
0.0576442
0.052881
0.04783
0.0420197
0.0350576
0.0212771
0.0141265
0.00823937
0.00320147
-0.00148974
-0.00580832
-0.00972377
-0.0132448
-0.0163816
-0.0191424
-0.021536
-0.0235721
-0.0252604
-0.0266114
-0.0276355
-0.0283434
-0.0287458
-0.0288532
-0.0286761
-0.028225
-0.0275102
-0.0265418
-0.0253301
-0.0238847
-0.0222156
-0.0203326
-0.0182455
-0.0159641
-0.0134982
-0.0108575
-0.00805192
-0.00509145
-0.00198651
0.00125224
0.00461371
0.00808648
0.0116587
0.0153182
0.0190524
0.0228478
0.0266906
0.0305663
0.0344599
0.0383559
0.0422382
0.0460902
0.0498944
0.0536328
0.0572873
0.0608388
0.0642683
0.0675564
0.0706835
0.0736298
0.0763754
0.0789006
0.081186
0.0832126
0.0849619
0.0864161
0.0875581
0.088372
0.0888429
0.0889573
0.088703
0.0880694
0.0870478
0.0856308
0.0838132
0.0815914
0.0789637
0.0759303
0.0724935
0.0686572
0.0644246
0.0598004
0.0548291
0.0495503
0.0434704
0.0361784
0.0186789
0.0112463
0.0051319
-9.49046e-05
-0.00495668
-0.00942653
-0.0134729
-0.0171053
-0.0203344
-0.0231691
-0.0256191
-0.0276946
-0.0294067
-0.0307663
-0.0317849
-0.032474
-0.0328451
-0.0329095
-0.0326786
-0.0321637
-0.0313757
-0.0303255
-0.0290236
-0.0274804
-0.0257063
-0.0237116
-0.0215064
-0.019101
-0.0165052
-0.013729
-0.0107826
-0.00767616
-0.00442025
-0.00102567
0.00249644
0.00613461
0.00987693
0.0137111
0.0176242
0.0216029
0.025633
0.0296999
0.0337885
0.0378829
0.0419667
0.0460228
0.0500334
0.05398
0.0578435
0.0616045
0.0652431
0.068739
0.0720715
0.0752198
0.0781629
0.0808799
0.08335
0.0855529
0.0874686
0.0890779
0.0903621
0.0913037
0.0918865
0.0920954
0.0919168
0.091339
0.0903519
0.0889469
0.0871179
0.0848604
0.0821719
0.0790523
0.0755036
0.0715296
0.0671335
0.0623202
0.0571363
0.0516237
0.0452652
0.0376313
0.0156543
0.00793425
0.00158874
-0.00382917
-0.00886273
-0.0134841
-0.0176608
-0.0214026
-0.0247212
-0.0276262
-0.030128
-0.0322378
-0.0339675
-0.0353291
-0.0363348
-0.0369972
-0.0373285
-0.037341
-0.037047
-0.0364586
-0.0355875
-0.0344451
-0.0330425
-0.0313908
-0.0295008
-0.0273832
-0.0250488
-0.0225077
-0.0197703
-0.0168469
-0.0137477
-0.0104832
-0.00706401
-0.00350111
0.000194379
0.00401091
0.00793652
0.0119588
0.0160647
0.0202406
0.0244724
0.0287453
0.0330439
0.0373522
0.0416534
0.04593
0.0501636
0.0543353
0.0584254
0.0624137
0.0662796
0.0700017
0.0735584
0.0769277
0.0800874
0.0830153
0.0856894
0.0880877
0.0901889
0.091972
0.0934166
0.0945038
0.0952155
0.0955351
0.0954477
0.0949398
0.0940001
0.0926188
0.0907884
0.0885036
0.0857612
0.0825605
0.078903
0.0747927
0.0702323
0.0652271
0.059826
0.054073
0.0474266
0.0394376
0.0121821
0.00416847
-0.00241225
-0.00802383
-0.0132306
-0.0180038
-0.0223098
-0.026159
-0.029564
-0.0325351
-0.0350837
-0.0372219
-0.0389626
-0.0403187
-0.0413034
-0.0419302
-0.0422124
-0.0421634
-0.0417964
-0.0411241
-0.040159
-0.0389133
-0.0373988
-0.0356271
-0.0336097
-0.0313577
-0.028882
-0.0261934
-0.0233024
-0.0202194
-0.0169552
-0.0135202
-0.00992525
-0.00618128
-0.00229949
0.00170853
0.00583073
0.0100546
0.0143671
0.0187545
0.0232025
0.0276963
0.0322204
0.0367583
0.041293
0.0458066
0.0502803
0.0546946
0.0590293
0.0632635
0.0673754
0.0713431
0.0751436
0.0787537
0.0821502
0.0853095
0.088208
0.0908223
0.0931293
0.0951062
0.0967311
0.097983
0.0988422
0.0992904
0.0993109
0.0988887
0.0980108
0.096666
0.0948456
0.0925432
0.0897547
0.0864787
0.0827164
0.0784714
0.0737464
0.0685467
0.0629236
0.0569232
0.0499788
0.0416208
0.00824003
-7.40161e-05
-0.00689457
-0.0127027
-0.0180842
-0.0230095
-0.0274436
-0.031398
-0.0348858
-0.0379185
-0.0405083
-0.0426684
-0.0444125
-0.0457548
-0.0467095
-0.0472911
-0.0475142
-0.0473931
-0.046942
-0.0461744
-0.0451037
-0.0437429
-0.0421045
-0.0402009
-0.0380438
-0.035645
-0.0330157
-0.0301669
-0.0271097
-0.0238547
-0.0204128
-0.0167947
-0.0130111
-0.0090731
-0.0049919
-0.000779152
0.00355306
0.00799221
0.0125252
0.0171384
0.0218174
0.0265472
0.0313122
0.0360956
0.0408803
0.0456478
0.050379
0.0550539
0.0596517
0.0641507
0.0685284
0.0727615
0.0768263
0.0806983
0.0843529
0.0877651
0.0909098
0.0937619
0.0962964
0.0984888
0.100315
0.101753
0.10278
0.103376
0.103523
0.103204
0.102404
0.10111
0.0993121
0.097003
0.0941774
0.090833
0.0869705
0.0825931
0.0777033
0.0723066
0.0664565
0.0602016
0.0529485
0.0442062
0.00380439
-0.00481761
-0.0118831
-0.0178908
-0.0234487
-0.0285262
-0.0330873
-0.0371441
-0.040711
-0.0438002
-0.0464249
-0.0485995
-0.0503387
-0.0516579
-0.0525726
-0.0530986
-0.0532516
-0.0530468
-0.0524995
-0.0516243
-0.0504355
-0.0489469
-0.0471718
-0.0451233
-0.0428136
-0.0402548
-0.0374588
-0.034437
-0.0312006
-0.0277606
-0.024128
-0.0203137
-0.0163284
-0.0121831
-0.00788924
-0.0034584
0.00109736
0.00576555
0.0105332
0.0153865
0.0203113
0.0252923
0.0303137
0.0353588
0.0404099
0.0454485
0.050455
0.055409
0.0602889
0.0650724
0.069736
0.0742555
0.078606
0.0827618
0.0866969
0.0903848
0.0937987
0.0969119
0.0996973
0.102128
0.104179
0.105825
0.107042
0.107808
0.108102
0.107904
0.1072
0.105973
0.104212
0.101909
0.099056
0.0956512
0.0916939
0.0871871
0.0821329
0.0765367
0.0704548
0.0639378
0.0563645
0.0472218
-0.00114992
-0.0100881
-0.0174041
-0.0236147
-0.0293507
-0.0345806
-0.0392673
-0.0434238
-0.0470653
-0.0502051
-0.0528577
-0.0550384
-0.0567634
-0.0580494
-0.0589133
-0.0593721
-0.0594426
-0.0591414
-0.0584848
-0.0574885
-0.056168
-0.054538
-0.0526125
-0.0504052
-0.0479291
-0.0451966
-0.0422203
-0.0390118
-0.0355827
-0.0319444
-0.0281077
-0.0240836
-0.0198832
-0.0155173
-0.0109974
-0.00633497
-0.00154201
0.00336911
0.00838549
0.0134935
0.0186788
0.0239262
0.0292198
0.0345427
0.0398771
0.0452041
0.050504
0.0557558
0.0609373
0.0660254
0.0709958
0.0758233
0.0804818
0.0849444
0.0891836
0.0931714
0.0968791
0.100278
0.103339
0.106034
0.108334
0.110213
0.111644
0.112602
0.113065
0.113011
0.112421
0.111279
0.109571
0.107288
0.10442
0.100963
0.0969178
0.0922852
0.0870674
0.0812697
0.0749509
0.068164
0.0602585
0.0506981
-0.00664947
-0.0159129
-0.0234855
-0.0299026
-0.0358187
-0.0412012
-0.0460118
-0.0502646