/*--------------------------------*- C++ -*----------------------------------*\
  =========                 |
  \\      /  F ield         | OpenFOAM: The Open Source CFD Toolbox
   \\    /   O peration     | Website:  https://openfoam.org
    \\  /    A nd           | Version:  7
     \\/     M anipulation  |
\*---------------------------------------------------------------------------*/
FoamFile
{
    version     2.0;
    format      ascii;
    class       surfaceScalarField;
    location    "0.3875";
    object      phi;
}
// * * * * * * * * * * * * * * * * * * * * * * * * * * * * * * * * * * * * * //

dimensions      [0 3 -1 0 0 0 0];

internalField   nonuniform List<scalar> 
50880
(
5.98277e-12
-6.24042e-12
3.62053e-11
-3.02198e-11
8.11135e-11
-4.49036e-11
1.30755e-10
-4.96472e-11
1.77995e-10
-4.72509e-11
2.17869e-10
-3.98759e-11
2.4695e-10
-2.90747e-11
2.6292e-10
-1.59636e-11
2.64249e-10
-1.3282e-12
2.49969e-10
1.42753e-11
2.19526e-10
3.04412e-11
1.72659e-10
4.68682e-11
1.0933e-10
6.3331e-11
2.96709e-11
7.96601e-11
-6.60558e-11
9.57263e-11
-1.77486e-10
1.11429e-10
-3.04176e-10
1.2669e-10
-4.45623e-10
1.41448e-10
-6.01278e-10
1.55655e-10
-7.70553e-10
1.69275e-10
-9.52834e-10
1.82281e-10
-1.14749e-09
1.9465e-10
-1.35385e-09
2.06368e-10
-1.57128e-09
2.17424e-10
-1.79909e-09
2.27809e-10
-2.03661e-09
2.3752e-10
-2.28316e-09
2.46556e-10
-2.53808e-09
2.54916e-10
-2.80068e-09
2.62604e-10
-3.0703e-09
2.69624e-10
-3.34628e-09
2.75981e-10
-3.62796e-09
2.81681e-10
-3.9147e-09
2.86732e-10
-4.20584e-09
2.91143e-10
-4.50076e-09
2.94922e-10
-4.79884e-09
2.98079e-10
-5.09946e-09
3.00625e-10
-5.40203e-09
3.0257e-10
-5.70596e-09
3.03924e-10
-6.01066e-09
3.047e-10
-6.31556e-09
3.04909e-10
-6.62013e-09
3.04563e-10
-6.9238e-09
3.03674e-10
-7.22605e-09
3.02254e-10
-7.52637e-09
3.00316e-10
-7.82424e-09
2.97872e-10
-8.11917e-09
2.94935e-10
-8.41069e-09
2.91518e-10
-8.69833e-09
2.87633e-10
-8.98162e-09
2.83294e-10
-9.26013e-09
2.78513e-10
-9.53343e-09
2.73303e-10
-9.80111e-09
2.67678e-10
-1.00628e-08
2.61651e-10
-1.0318e-08
2.55234e-10
-1.05664e-08
2.4844e-10
-1.08077e-08
2.41284e-10
-1.10415e-08
2.33778e-10
-1.12674e-08
2.25935e-10
-1.14852e-08
2.17769e-10
-1.16945e-08
2.09293e-10
-1.1895e-08
2.0052e-10
-1.20865e-08
1.91464e-10
-1.22686e-08
1.82138e-10
-1.24412e-08
1.72556e-10
-1.26039e-08
1.62731e-10
-1.27566e-08
1.52677e-10
-1.2899e-08
1.42408e-10
-1.30309e-08
1.31937e-10
-1.31522e-08
1.21279e-10
-1.32626e-08
1.10448e-10
-1.33621e-08
9.9457e-11
-1.34504e-08
8.8321e-11
-1.35275e-08
7.70541e-11
-1.35932e-08
6.56708e-11
-1.36473e-08
5.41857e-11
-1.369e-08
4.26135e-11
-1.37209e-08
3.09692e-11
-1.37402e-08
1.92675e-11
-1.37477e-08
7.52366e-12
-1.37435e-08
-4.24712e-12
-1.37274e-08
-1.60295e-11
-1.36996e-08
-2.78078e-11
-1.36601e-08
-3.95666e-11
-1.36088e-08
-5.12898e-11
-1.35458e-08
-6.29616e-11
-1.34713e-08
-7.45658e-11
-1.33852e-08
-8.60864e-11
-1.32877e-08
-9.7507e-11
-1.31788e-08
-1.08811e-10
-1.30589e-08
-1.19982e-10
-1.29279e-08
-1.31003e-10
-1.2786e-08
-1.41858e-10
-1.26335e-08
-1.52529e-10
-1.24705e-08
-1.63e-10
-1.22972e-08
-1.73253e-10
-1.21139e-08
-1.83273e-10
-1.19209e-08
-1.9304e-10
-1.17184e-08
-2.02539e-10
-1.15066e-08
-2.11753e-10
-1.1286e-08
-2.20663e-10
-1.10567e-08
-2.29254e-10
-1.08192e-08
-2.37508e-10
-1.05738e-08
-2.45409e-10
-1.03209e-08
-2.52939e-10
-1.00608e-08
-2.60081e-10
-9.79395e-09
-2.6682e-10
-9.52081e-09
-2.73139e-10
-9.24179e-09
-2.79022e-10
-8.95734e-09
-2.84453e-10
-8.66792e-09
-2.89416e-10
-8.37403e-09
-2.93895e-10
-8.07615e-09
-2.97876e-10
-7.77481e-09
-3.01345e-10
-7.47053e-09
-3.04285e-10
-7.16384e-09
-3.06684e-10
-6.85532e-09
-3.08529e-10
-6.54551e-09
-3.09805e-10
-6.23501e-09
-3.10501e-10
-5.92441e-09
-3.10604e-10
-5.61431e-09
-3.10103e-10
-5.30532e-09
-3.08987e-10
-4.99808e-09
-3.07246e-10
-4.69321e-09
-3.0487e-10
-4.39136e-09
-3.01852e-10
-4.09318e-09
-2.98183e-10
-3.79932e-09
-2.93857e-10
-3.51045e-09
-2.88867e-10
-3.22725e-09
-2.83208e-10
-2.95037e-09
-2.76877e-10
-2.6805e-09
-2.69871e-10
-2.41831e-09
-2.62189e-10
-2.16448e-09
-2.53832e-10
-1.91968e-09
-2.44801e-10
-1.68459e-09
-2.351e-10
-1.45985e-09
-2.24737e-10
-1.24613e-09
-2.13718e-10
-1.04408e-09
-2.02057e-10
-8.54312e-10
-1.89768e-10
-6.77446e-10
-1.76868e-10
-5.14066e-10
-1.63382e-10
-3.64729e-10
-1.49339e-10
-2.29953e-10
-1.34776e-10
-1.10216e-10
-1.19738e-10
-5.93748e-12
-1.0428e-10
8.25292e-11
-8.847e-11
1.54919e-10
-7.23935e-11
2.11075e-10
-5.61587e-11
2.5098e-10
-3.99047e-11
2.7479e-10
-2.38097e-11
2.82892e-10
-8.10298e-12
2.75972e-10
6.91385e-12
2.5513e-10
2.08358e-11
2.22022e-10
3.31055e-11
1.79087e-10
4.29411e-11
1.29857e-10
4.92444e-11
7.93527e-11
5.05142e-11
3.46336e-11
4.47037e-11
5.34173e-12
2.92464e-11
5.29937e-12
3.00793e-11
-3.63224e-11
1.01208e-10
-1.01354e-10
1.9547e-10
-1.39155e-10
2.95799e-10
-1.49964e-10
3.8783e-10
-1.39284e-10
4.60328e-10
-1.12385e-10
5.0484e-10
-7.35942e-11
5.15181e-10
-2.6303e-11
4.86956e-10
2.69026e-11
4.17161e-10
8.40733e-11
3.03872e-10
1.43728e-10
1.46009e-10
2.0473e-10
-5.68641e-11
2.66204e-10
-3.04671e-10
3.27468e-10
-5.96933e-10
3.8799e-10
-9.32856e-10
4.47351e-10
-1.31139e-09
5.05222e-10
-1.73128e-09
5.61339e-10
-2.19112e-09
6.15495e-10
-2.68937e-09
6.67528e-10
-3.2244e-09
7.1731e-10
-3.79449e-09
7.6474e-10
-4.39787e-09
8.09745e-10
-5.03271e-09
8.52266e-10
-5.69717e-09
8.92265e-10
-6.38936e-09
9.29713e-10
-7.1074e-09
9.64595e-10
-7.84939e-09
9.96906e-10
-8.61343e-09
1.02665e-09
-9.39764e-09
1.05383e-09
-1.02001e-08
1.07847e-09
-1.1019e-08
1.10058e-09
-1.18525e-08
1.12019e-09
-1.26986e-08
1.13732e-09
-1.35557e-08
1.15202e-09
-1.4422e-08
1.16431e-09
-1.52956e-08
1.17422e-09
-1.61748e-08
1.18181e-09
-1.7058e-08
1.1871e-09
-1.79434e-08
1.19014e-09
-1.88295e-08
1.19098e-09
-1.97146e-08
1.18965e-09
-2.05971e-08
1.18621e-09
-2.14755e-08
1.18069e-09
-2.23484e-08
1.17316e-09
-2.32142e-08
1.16365e-09
-2.40714e-08
1.15221e-09
-2.49188e-08
1.1389e-09
-2.57549e-08
1.12375e-09
-2.65785e-08
1.10683e-09
-2.73881e-08
1.08818e-09
-2.81827e-08
1.06786e-09
-2.89609e-08
1.0459e-09
-2.97216e-08
1.02237e-09
-3.04637e-08
9.97317e-10
-3.11861e-08
9.70786e-10
-3.18876e-08
9.42833e-10
-3.25673e-08
9.13508e-10
-3.32243e-08
8.82864e-10
-3.38575e-08
8.50953e-10
-3.4466e-08
8.17826e-10
-3.5049e-08
7.83536e-10
-3.56057e-08
7.48136e-10
-3.61352e-08
7.11679e-10
-3.66369e-08
6.74218e-10
-3.711e-08
6.35805e-10
-3.75538e-08
5.96496e-10
-3.79677e-08
5.56343e-10
-3.83512e-08
5.15402e-10
-3.87036e-08
4.73727e-10
-3.90245e-08
4.31374e-10
-3.93135e-08
3.88397e-10
-3.957e-08
3.44853e-10
-3.97938e-08
3.00797e-10
-3.99844e-08
2.56288e-10
-4.01416e-08
2.11383e-10
-4.02651e-08
1.66138e-10
-4.03547e-08
1.20613e-10
-4.04103e-08
7.48663e-11
-4.04318e-08
2.89573e-11
-4.0419e-08
-1.70541e-11
-4.03719e-08
-6.31074e-11
-4.02906e-08
-1.09142e-10
-4.0175e-08
-1.55096e-10
-4.00254e-08
-2.00907e-10
-3.98419e-08
-2.46513e-10
-3.96246e-08
-2.91851e-10
-3.93738e-08
-3.36858e-10
-3.90899e-08
-3.81469e-10
-3.8773e-08
-4.2562e-10
-3.84238e-08
-4.69246e-10
-3.80425e-08
-5.12281e-10
-3.76297e-08
-5.54662e-10
-3.71859e-08
-5.9632e-10
-3.67117e-08
-6.37191e-10
-3.62078e-08
-6.77208e-10
-3.56747e-08
-7.16304e-10
-3.51134e-08
-7.54413e-10
-3.45244e-08
-7.91469e-10
-3.39088e-08
-8.27405e-10
-3.32673e-08
-8.62154e-10
-3.26009e-08
-8.9565e-10
-3.19106e-08
-9.27827e-10
-3.11974e-08
-9.5862e-10
-3.04624e-08
-9.87963e-10
-2.97066e-08
-1.01579e-09
-2.89314e-08
-1.04204e-09
-2.81379e-08
-1.06665e-09
-2.73274e-08
-1.08956e-09
-2.65011e-08
-1.11069e-09
-2.56606e-08
-1.13001e-09
-2.4807e-08
-1.14744e-09
-2.3942e-08
-1.16292e-09
-2.30669e-08
-1.17641e-09
-2.21834e-08
-1.18783e-09
-2.12929e-08
-1.19716e-09
-2.03971e-08
-1.20432e-09
-1.94977e-08
-1.20927e-09
-1.85962e-08
-1.21196e-09
-1.76944e-08
-1.21235e-09
-1.67942e-08
-1.2104e-09
-1.58971e-08
-1.20606e-09
-1.5005e-08
-1.1993e-09
-1.41198e-08
-1.19008e-09
-1.32433e-08
-1.17837e-09
-1.23773e-08
-1.16415e-09
-1.15238e-08
-1.14739e-09
-1.06846e-08
-1.12806e-09
-9.86167e-09
-1.10616e-09
-9.05687e-09
-1.08167e-09
-8.27215e-09
-1.05459e-09
-7.50942e-09
-1.02493e-09
-6.77058e-09
-9.92672e-10
-6.05754e-09
-9.57848e-10
-5.37216e-09
-9.20476e-10
-4.71632e-09
-8.80588e-10
-4.09181e-09
-8.38225e-10
-3.50043e-09
-7.93443e-10
-2.94389e-09
-7.46309e-10
-2.42385e-09
-6.9691e-10
-1.94188e-09
-6.45351e-10
-1.49947e-09
-5.91758e-10
-1.09796e-09
-5.36291e-10
-7.38555e-10
-4.79143e-10
-4.22286e-10
-4.2055e-10
-1.49953e-10
-3.60804e-10
7.79103e-11
-3.0026e-10
2.61108e-10
-2.39363e-10
3.99866e-10
-1.78668e-10
4.9493e-10
-1.18877e-10
5.4771e-10
-6.0881e-11
5.6045e-10
-5.82401e-12
5.36467e-10
4.48159e-11
4.80446e-10
8.91119e-11
3.98825e-10
1.2454e-10
3.00237e-10
1.47817e-10
1.95965e-10
1.54806e-10
1.00167e-10
1.40561e-10
2.93057e-11
1.00172e-10
3.45684e-11
4.48572e-11
-8.11778e-11
1.39143e-10
-1.95657e-10
2.56391e-10
-2.56406e-10
3.74976e-10
-2.68539e-10
4.76616e-10
-2.40913e-10
5.4643e-10
-1.822e-10
5.72715e-10
-9.9888e-11
5.46522e-10
-1.1478e-13
4.61218e-10
1.12209e-10
3.12057e-10
2.33238e-10
9.58428e-11
3.59944e-10
-1.89376e-10
4.89948e-10
-5.44547e-10
6.21374e-10
-9.69812e-10
7.52734e-10
-1.46466e-09
8.82844e-10
-2.02807e-09
1.01076e-09
-2.65858e-09
1.13573e-09
-3.35438e-09
1.25714e-09
-4.1134e-09
1.37451e-09
-4.93333e-09
1.48746e-09
-5.81169e-09
1.59567e-09
-6.74585e-09
1.6989e-09
-7.73307e-09
1.79697e-09
-8.77052e-09
1.88972e-09
-9.85532e-09
1.97706e-09
-1.09845e-08
2.0589e-09
-1.21551e-08
2.13519e-09
-1.33641e-08
2.20592e-09
-1.46085e-08
2.27107e-09
-1.58853e-08
2.33064e-09
-1.71915e-08
2.38467e-09
-1.85242e-08
2.43319e-09
-1.98802e-08
2.47625e-09
-2.12568e-08
2.51389e-09
-2.26509e-08
2.54618e-09
-2.40598e-08
2.5732e-09
-2.54806e-08
2.595e-09
-2.69105e-08
2.61169e-09
-2.83467e-08
2.62333e-09
-2.97866e-08
2.63002e-09
-3.12275e-08
2.63186e-09
-3.26668e-08
2.62893e-09
-3.41019e-08
2.62133e-09
-3.55304e-08
2.60917e-09
-3.69497e-08
2.59254e-09
-3.83577e-08
2.57156e-09
-3.97518e-08
2.54632e-09
-4.11298e-08
2.51693e-09
-4.24895e-08
2.4835e-09
-4.38288e-08
2.44614e-09
-4.51456e-08
2.40496e-09
-4.64378e-08
2.36006e-09
-4.77035e-08
2.31157e-09
-4.89407e-08
2.25958e-09
-5.01476e-08
2.20422e-09
-5.13224e-08
2.1456e-09
-5.24634e-08
2.08382e-09
-5.35689e-08
2.01901e-09
-5.46373e-08
1.95128e-09
-5.56671e-08
1.88074e-09
-5.66568e-08
1.80751e-09
-5.76049e-08
1.73171e-09
-5.85102e-08
1.65344e-09
-5.93714e-08
1.57284e-09
-6.01872e-08
1.49001e-09
-6.09565e-08
1.40508e-09
-6.16781e-08
1.31816e-09
-6.23511e-08
1.22937e-09
-6.29746e-08
1.13884e-09
-6.35476e-08
1.04669e-09
-6.40692e-08
9.53035e-10
-6.45388e-08
8.58004e-10
-6.49557e-08
7.61719e-10
-6.53192e-08
6.64306e-10
-6.56288e-08
5.6589e-10
-6.5884e-08
4.666e-10
-6.60844e-08
3.66564e-10
-6.62297e-08
2.65911e-10
-6.63197e-08
1.64772e-10
-6.6354e-08
6.32782e-11
-6.63326e-08
-3.84373e-11
-6.62555e-08
-1.4024e-10
-6.61226e-08
-2.41996e-10
-6.59341e-08
-3.43567e-10
-6.56902e-08
-4.44818e-10
-6.53911e-08
-5.45608e-10
-6.50372e-08
-6.458e-10
-6.46288e-08
-7.45251e-10
-6.41664e-08
-8.4382e-10
-6.36507e-08
-9.41365e-10
-6.30822e-08
-1.03774e-09
-6.24617e-08
-1.13281e-09
-6.17899e-08
-1.22642e-09
-6.10678e-08
-1.31842e-09
-6.02963e-08
-1.40868e-09
-5.94765e-08
-1.49705e-09
-5.86094e-08
-1.58337e-09
-5.76963e-08
-1.66751e-09
-5.67385e-08
-1.74931e-09
-5.57373e-08
-1.82863e-09
-5.46941e-08
-1.90532e-09
-5.36105e-08
-1.97924e-09
-5.24881e-08
-2.05024e-09
-5.13285e-08
-2.11818e-09
-5.01336e-08
-2.18291e-09
-4.89051e-08
-2.24429e-09
-4.7645e-08
-2.30219e-09
-4.63551e-08
-2.35646e-09
-4.50377e-08
-2.40697e-09
-4.36949e-08
-2.45357e-09
-4.23287e-08
-2.49615e-09
-4.09416e-08
-2.53457e-09
-3.95358e-08
-2.56869e-09
-3.81138e-08
-2.59841e-09
-3.6678e-08
-2.6236e-09
-3.52311e-08
-2.64415e-09
-3.37754e-08
-2.65994e-09
-3.23139e-08
-2.67086e-09
-3.0849e-08
-2.67681e-09
-2.93837e-08
-2.67771e-09
-2.79206e-08
-2.67344e-09
-2.64627e-08
-2.66394e-09
-2.50129e-08
-2.64911e-09
-2.35741e-08
-2.62889e-09
-2.21493e-08
-2.60321e-09
-2.07414e-08
-2.57202e-09
-1.93535e-08
-2.53527e-09
-1.79887e-08
-2.49291e-09
-1.66499e-08
-2.44493e-09
-1.53403e-08
-2.39131e-09
-1.40629e-08
-2.33203e-09
-1.28207e-08
-2.26711e-09
-1.16168e-08
-2.19657e-09
-1.04542e-08
-2.12046e-09
-9.33581e-09
-2.03884e-09
-8.26463e-09
-1.95178e-09
-7.24347e-09
-1.85939e-09
-6.27511e-09
-1.7618e-09
-5.36223e-09
-1.6592e-09
-4.50737e-09
-1.55177e-09
-3.71295e-09
-1.43977e-09
-2.9812e-09
-1.32351e-09
-2.31414e-09
-1.20336e-09
-1.71353e-09
-1.07976e-09
-1.18082e-09
-9.53263e-10
-7.17094e-10
-8.24531e-10
-3.22978e-10
-6.94376e-10
1.44636e-12
-5.63791e-10
2.56772e-10
-4.34001e-10
4.44414e-10
-3.06526e-10
5.66797e-10
-1.83268e-10
6.27585e-10
-6.66098e-11
6.31966e-10
4.04418e-11
5.86986e-10
1.34096e-10
5.01925e-10
2.09588e-10
3.887e-10
2.61009e-10
2.62226e-10
2.81247e-10
1.40563e-10
2.62226e-10
4.47339e-11
1.9605e-10
7.92932e-11
4.97135e-11
-1.30881e-10
1.503e-10
-2.96256e-10
2.69162e-10
-3.75282e-10
3.8112e-10
-3.80498e-10
4.65368e-10
-3.25151e-10
5.04834e-10
-2.21658e-10
4.85793e-10
-8.08486e-11
3.97477e-10
8.81956e-11
2.31657e-10
2.78027e-10
-1.77201e-11
4.82618e-10
-3.54888e-10
6.97115e-10
-7.82559e-10
9.1762e-10
-1.30218e-09
1.141e-09
-1.91417e-09
1.36472e-09
-2.61808e-09
1.58675e-09
-3.41275e-09
1.80543e-09
-4.29645e-09
2.01943e-09
-5.26697e-09
2.22766e-09
-6.32172e-09
2.42925e-09
-7.45775e-09
2.62349e-09
-8.67189e-09
2.80981e-09
-9.96073e-09
2.98774e-09
-1.13207e-08
3.15694e-09
-1.27481e-08
3.31712e-09
-1.42391e-08
3.46807e-09
-1.57898e-08
3.60962e-09
-1.73963e-08
3.74169e-09
-1.90546e-08
3.86418e-09
-2.07606e-08
3.97709e-09
-2.25104e-08
4.08039e-09
-2.42998e-08
4.17412e-09
-2.61249e-08
4.25833e-09
-2.79818e-08
4.33308e-09
-2.98663e-08
4.39845e-09
-3.17747e-08
4.45455e-09
-3.3703e-08
4.50148e-09
-3.56473e-08
4.53936e-09
-3.7604e-08
4.56834e-09
-3.95692e-08
4.58854e-09
-4.15393e-08
4.60013e-09
-4.35107e-08
4.60325e-09
-4.54798e-08
4.59807e-09
-4.74432e-08
4.58474e-09
-4.93975e-08
4.56345e-09
-5.13393e-08
4.53437e-09
-5.32655e-08
4.49767e-09
-5.51727e-08
4.45354e-09
-5.70579e-08
4.40216e-09
-5.89181e-08
4.34371e-09
-6.07504e-08
4.27839e-09
-6.25518e-08
4.20638e-09
-6.43196e-08
4.12788e-09
-6.60511e-08
4.04307e-09
-6.77437e-08
3.95216e-09
-6.93948e-08
3.85534e-09
-7.1002e-08
3.75281e-09
-7.2563e-08
3.64476e-09
-7.40753e-08
3.53139e-09
-7.5537e-08
3.4129e-09
-7.69457e-08
3.2895e-09
-7.82996e-08
3.16139e-09
-7.95967e-08
3.02876e-09
-8.08351e-08
2.89183e-09
-8.2013e-08
2.7508e-09
-8.31289e-08
2.60588e-09
-8.41811e-08
2.45727e-09
-8.51681e-08
2.30518e-09
-8.60886e-08
2.14983e-09
-8.69411e-08
1.99142e-09
-8.77246e-08
1.83017e-09
-8.84379e-08
1.6663e-09
-8.90799e-08
1.50002e-09
-8.96497e-08
1.33154e-09
-9.01465e-08
1.1611e-09
-9.05695e-08
9.88901e-10
-9.09181e-08
8.15179e-10
-9.11917e-08
6.40157e-10
-9.13898e-08
4.6406e-10
-9.15122e-08
2.87119e-10
-9.15585e-08
1.09564e-10
-9.15286e-08
-6.83711e-11
-9.14223e-08
-2.46452e-10
-9.12399e-08
-4.24441e-10
-9.09814e-08
-6.02099e-10
-9.0647e-08
-7.79186e-10
-9.02371e-08
-9.55459e-10
-8.97523e-08
-1.13067e-09
-8.91929e-08
-1.30458e-09
-8.85598e-08
-1.47694e-09
-8.78537e-08
-1.64749e-09
-8.70754e-08
-1.816e-09
-8.62261e-08
-1.98219e-09
-8.53066e-08
-2.14583e-09
-8.43184e-08
-2.30666e-09
-8.32627e-08
-2.46441e-09
-8.21409e-08
-2.61885e-09
-8.09546e-08
-2.7697e-09
-7.97053e-08
-2.91672e-09
-7.8395e-08
-3.05965e-09
-7.70254e-08
-3.19824e-09
-7.55985e-08
-3.33222e-09
-7.41164e-08
-3.46135e-09
-7.25813e-08
-3.58536e-09
-7.09954e-08
-3.70402e-09
-6.93613e-08
-3.81707e-09
-6.76813e-08
-3.92427e-09
-6.59581e-08
-4.02537e-09
-6.41944e-08
-4.12013e-09
-6.23931e-08
-4.20831e-09
-6.0557e-08
-4.28968e-09
-5.86891e-08
-4.36401e-09
-5.67926e-08
-4.43108e-09
-5.48706e-08
-4.49067e-09
-5.29265e-08
-4.54256e-09
-5.09635e-08
-4.58656e-09
-4.89852e-08
-4.62245e-09
-4.69951e-08
-4.65006e-09
-4.49968e-08
-4.66918e-09
-4.2994e-08
-4.67966e-09
-4.09903e-08
-4.68132e-09
-3.89898e-08
-4.67401e-09
-3.69961e-08
-4.65759e-09
-3.50133e-08
-4.63192e-09
-3.30453e-08
-4.59688e-09
-3.10962e-08
-4.55236e-09
-2.91699e-08
-4.49828e-09
-2.72706e-08
-4.43456e-09
-2.54024e-08
-4.36113e-09
-2.35694e-08
-4.27797e-09
-2.17757e-08
-4.18505e-09
-2.00253e-08
-4.08237e-09
-1.83225e-08
-3.96996e-09
-1.66712e-08
-3.84788e-09
-1.50754e-08
-3.71622e-09
-1.35391e-08
-3.57509e-09
-1.20663e-08
-3.42466e-09
-1.06605e-08
-3.26512e-09
-9.32559e-09
-3.09675e-09
-8.06495e-09
-2.91984e-09
-6.88193e-09
-2.73479e-09
-5.77965e-09
-2.54206e-09
-4.76095e-09
-2.3422e-09
-3.82841e-09
-2.13591e-09
-2.9842e-09
-1.92397e-09
-2.23009e-09
-1.70738e-09
-1.56731e-09
-1.48731e-09
-9.96515e-10
-1.26518e-09
-5.17587e-10
-1.04272e-09
-1.29549e-10
-8.22041e-10
1.69634e-10
-6.05715e-10
3.83262e-10
-3.96904e-10
5.16144e-10
-1.99499e-10
5.74887e-10
-1.83002e-11
5.68214e-10
1.40781e-10
5.07301e-10
2.70514e-10
4.06127e-10
3.62177e-10
2.81834e-10
4.05509e-10
1.5507e-10
3.8896e-10
5.05654e-11
3.00569e-10
1.29866e-10
4.75012e-11
-1.78372e-10
1.40231e-10
-3.88983e-10
2.42714e-10
-4.77776e-10
3.27574e-10
-4.6537e-10
3.7245e-10
-3.70029e-10
3.58982e-10
-2.08182e-10
2.72251e-10
5.88858e-12
1.00352e-10
2.60093e-10
-1.65978e-10
5.44353e-10
-5.33704e-10
8.50343e-10
-1.00782e-09
1.17123e-09
-1.59163e-09
1.50143e-09
-2.28699e-09
1.83637e-09
-3.09458e-09
2.1723e-09
-4.01402e-09
2.50619e-09
-5.0441e-09
2.83551e-09
-6.1829e-09
3.15823e-09
-7.42788e-09
3.47265e-09
-8.77603e-09
3.7774e-09
-1.02239e-08
4.07137e-09
-1.17677e-08
4.35363e-09
-1.34035e-08
4.62346e-09
-1.51268e-08
4.88026e-09
-1.69332e-08
5.12357e-09
-1.88182e-08
5.35302e-09
-2.07769e-08
5.56835e-09
-2.28046e-08
5.76936e-09
-2.48963e-08
5.95591e-09
-2.70471e-08
6.12793e-09
-2.92522e-08
6.28541e-09
-3.15064e-08
6.42834e-09
-3.38048e-08
6.5568e-09
-3.61426e-08
6.67085e-09
-3.85148e-08
6.77061e-09
-4.09165e-08
6.85623e-09
-4.33428e-08
6.92785e-09
-4.57891e-08
6.98565e-09
-4.82506e-08
7.02982e-09
-5.07226e-08
7.06057e-09
-5.32006e-08
7.07813e-09
-5.56801e-08
7.08271e-09
-5.81566e-08
7.07456e-09
-6.06258e-08
7.05393e-09
-6.30834e-08
7.02107e-09
-6.55253e-08
6.97625e-09
-6.79473e-08
6.91974e-09
-7.03456e-08
6.85181e-09
-7.27162e-08
6.77273e-09
-7.50552e-08
6.6828e-09
-7.73591e-08
6.58229e-09
-7.96243e-08
6.4715e-09
-8.18471e-08
6.35072e-09
-8.40243e-08
6.22024e-09
-8.61525e-08
6.08037e-09
-8.82285e-08
5.93139e-09
-9.02493e-08
5.77362e-09
-9.22119e-08
5.60736e-09
-9.41135e-08
5.43292e-09
-9.59512e-08
5.25059e-09
-9.77223e-08
5.06069e-09
-9.94245e-08
4.86354e-09
-1.01055e-07
4.65944e-09
-1.02612e-07
4.44871e-09
-1.04093e-07
4.23167e-09
-1.05496e-07
4.00863e-09
-1.06818e-07
3.77992e-09
-1.08059e-07
3.54585e-09
-1.09216e-07
3.30676e-09
-1.10287e-07
3.06296e-09
-1.11272e-07
2.8148e-09
-1.12168e-07
2.5626e-09
-1.12975e-07
2.30669e-09
-1.13691e-07
2.04741e-09
-1.14315e-07
1.7851e-09
-1.14846e-07
1.52011e-09
-1.15284e-07
1.25277e-09
-1.15627e-07
9.83435e-10
-1.15875e-07
7.12457e-10
-1.16028e-07
4.40189e-10
-1.16086e-07
1.66987e-10
-1.16047e-07
-1.06791e-10
-1.15913e-07
-3.80781e-10
-1.15683e-07
-6.54618e-10
-1.15357e-07
-9.27934e-10
-1.14936e-07
-1.20036e-09
-1.1442e-07
-1.47152e-09
-1.1381e-07
-1.74103e-09
-1.13106e-07
-2.00853e-09
-1.12309e-07
-2.27362e-09
-1.11421e-07
-2.53592e-09
-1.10441e-07
-2.79505e-09
-1.09373e-07
-3.05063e-09
-1.08217e-07
-3.30225e-09
-1.06974e-07
-3.54953e-09
-1.05646e-07
-3.79208e-09
-1.04235e-07
-4.0295e-09
-1.02744e-07
-4.26141e-09
-1.01173e-07
-4.48741e-09
-9.95256e-08
-4.7071e-09
-9.78037e-08
-4.9201e-09
-9.60099e-08
-5.12602e-09
-9.41468e-08
-5.32446e-09
-9.22171e-08
-5.51504e-09
-9.02238e-08
-5.69737e-09
-8.81698e-08
-5.87108e-09
-8.60582e-08
-6.03579e-09
-8.38925e-08
-6.19112e-09
-8.16759e-08
-6.3367e-09
-7.9412e-08
-6.47219e-09
-7.71045e-08
-6.59721e-09
-7.47571e-08
-6.71142e-09
-7.23737e-08
-6.81448e-09
-6.99583e-08
-6.90606e-09
-6.75151e-08
-6.98583e-09
-6.50482e-08
-7.05348e-09
-6.25619e-08
-7.10872e-09
-6.00607e-08
-7.15124e-09
-5.75491e-08
-7.18078e-09
-5.50317e-08
-7.19707e-09
-5.25132e-08
-7.19986e-09
-4.99983e-08
-7.18893e-09
-4.74918e-08
-7.16405e-09
-4.49987e-08
-7.12503e-09
-4.25239e-08
-7.0717e-09
-4.00723e-08
-7.0039e-09
-3.76491e-08
-6.9215e-09
-3.52592e-08
-6.8244e-09
-3.29079e-08
-6.71252e-09
-3.06e-08
-6.58581e-09
-2.83408e-08
-6.44425e-09
-2.61353e-08
-6.28787e-09
-2.39886e-08
-6.11673e-09
-2.19055e-08
-5.93093e-09
-1.98911e-08
-5.73062e-09
-1.79502e-08
-5.51602e-09
-1.60875e-08
-5.28739e-09
-1.43075e-08
-5.04507e-09
-1.26148e-08
-4.78948e-09
-1.10135e-08
-4.52114e-09
-9.50765e-09
-4.24066e-09
-8.10092e-09
-3.94879e-09
-6.79671e-09
-3.64642e-09
-5.59801e-09
-3.33461e-09
-4.50734e-09
-3.01464e-09
-3.5267e-09
-2.68803e-09
-2.65743e-09
-2.35658e-09
-1.90013e-09
-2.02248e-09
-1.25452e-09
-1.68833e-09
-7.19264e-10
-1.35729e-09
-2.9182e-10
-1.03316e-09
3.17956e-11
-7.20524e-10
2.5724e-10
-4.24953e-10
3.92114e-10
-1.53185e-10
4.46254e-10
8.66377e-11
4.32042e-10
2.84737e-10
3.64731e-10
4.29504e-10
2.62837e-10
5.07397e-10
1.48692e-10
5.03078e-10
4.94312e-11
3.99817e-10
1.79306e-10
4.03937e-11
-2.18766e-10
1.14217e-10
-4.62793e-10
1.85707e-10
-5.49263e-10
2.26707e-10
-5.06377e-10
2.14183e-10
-3.57513e-10
1.29177e-10
-1.23177e-10
-4.38194e-11
1.7889e-10
-3.17313e-10
5.33591e-10
-7.01164e-10
9.28204e-10
-1.2029e-09
1.35208e-09
-1.828e-09
1.79633e-09
-2.58017e-09
2.2536e-09
-3.46157e-09
2.71777e-09
-4.47305e-09
3.18378e-09
-5.6143e-09
3.64744e-09
-6.88406e-09
4.10527e-09
-8.28025e-09
4.55441e-09
-9.80007e-09
4.99248e-09
-1.14402e-08
5.4175e-09
-1.31967e-08
5.82788e-09
-1.50653e-08
6.22227e-09
-1.70415e-08
6.59959e-09
-1.91202e-08
6.95898e-09
-2.12963e-08
7.29972e-09
-2.35646e-08
7.62128e-09
-2.59194e-08
7.92321e-09
-2.83553e-08
8.20522e-09
-3.08665e-08
8.46708e-09
-3.34472e-08
8.70864e-09
-3.60916e-08
8.92986e-09
-3.8794e-08
9.13072e-09
-4.15485e-08
9.31126e-09
-4.43492e-08
9.4716e-09
-4.71905e-08
9.61185e-09
-5.00664e-08
9.7322e-09
-5.29715e-08
9.83285e-09
-5.58998e-08
9.91404e-09
-5.8846e-08
9.97601e-09
-6.18045e-08
1.0019e-08
-6.47698e-08
1.00434e-08
-6.77366e-08
1.00495e-08
-7.06997e-08
1.00376e-08
-7.36538e-08
1.00081e-08
-7.6594e-08
9.96122e-09
-7.95152e-08
9.89745e-09
-8.24126e-08
9.81711e-09
-8.52814e-08
9.72061e-09
-8.8117e-08
9.60833e-09
-9.09148e-08
9.48065e-09
-9.36705e-08
9.338e-09
-9.63798e-08
9.18076e-09
-9.90384e-08
9.00936e-09
-1.01642e-07
8.82421e-09
-1.04188e-07
8.62573e-09
-1.06671e-07
8.41434e-09
-1.09088e-07
8.19047e-09
-1.11435e-07
7.95455e-09
-1.13709e-07
7.70701e-09
-1.15907e-07
7.44829e-09
-1.18025e-07
7.17883e-09
-1.2006e-07
6.89906e-09
-1.2201e-07
6.60944e-09
-1.23872e-07
6.3104e-09
-1.25643e-07
6.0024e-09
-1.2732e-07
5.6859e-09
-1.28901e-07
5.36134e-09
-1.30385e-07
5.02918e-09
-1.31768e-07
4.6899e-09
-1.33049e-07
4.34394e-09
-1.34226e-07
3.99178e-09
-1.35297e-07
3.6339e-09
-1.36261e-07
3.27076e-09
-1.37117e-07
2.90285e-09
-1.37862e-07
2.53064e-09
-1.38497e-07
2.15463e-09
-1.39019e-07
1.77531e-09
-1.39429e-07
1.39316e-09
-1.39725e-07
1.0087e-09
-1.39907e-07
6.22409e-10
-1.39975e-07
2.34809e-10
-1.39928e-07
-1.53592e-10
-1.39767e-07
-5.42281e-10
-1.39491e-07
-9.30737e-10
-1.391e-07
-1.31844e-09
-1.38596e-07
-1.70486e-09
-1.37978e-07
-2.08946e-09
-1.37247e-07
-2.47172e-09
-1.36405e-07
-2.85109e-09
-1.35451e-07
-3.22704e-09
-1.34388e-07
-3.59902e-09
-1.33217e-07
-3.96647e-09
-1.31938e-07
-4.32886e-09
-1.30555e-07
-4.68563e-09
-1.29068e-07
-5.03623e-09
-1.2748e-07
-5.3801e-09
-1.25793e-07
-5.71669e-09
-1.24009e-07
-6.04544e-09
-1.22131e-07
-6.3658e-09
-1.20161e-07
-6.6772e-09
-1.18102e-07
-6.9791e-09
-1.15957e-07
-7.27095e-09
-1.13729e-07
-7.55219e-09
-1.11422e-07
-7.82228e-09
-1.09038e-07
-8.08067e-09
-1.06583e-07
-8.32684e-09
-1.04058e-07
-8.56025e-09
-1.01469e-07
-8.78036e-09
-9.88189e-08
-8.98668e-09
-9.61124e-08
-9.17868e-09
-9.33538e-08
-9.35587e-09
-9.05475e-08
-9.51775e-09
-8.76981e-08
-9.66385e-09
-8.48104e-08
-9.79371e-09
-8.18894e-08
-9.90687e-09
-7.894e-08
-1.00029e-08
-7.59673e-08
-1.00814e-08
-7.29767e-08
-1.01419e-08
-6.99735e-08
-1.0184e-08
-6.69631e-08
-1.02075e-08
-6.39511e-08
-1.02119e-08
-6.09431e-08
-1.01969e-08
-5.79449e-08
-1.01623e-08
-5.49622e-08
-1.01077e-08
-5.20009e-08
-1.0033e-08
-4.90669e-08
-9.93788e-09
-4.61662e-08
-9.82223e-09
-4.33047e-08
-9.68591e-09
-4.04884e-08
-9.52882e-09
-3.77233e-08
-9.3509e-09
-3.50154e-08
-9.15217e-09
-3.23706e-08
-8.93266e-09
-2.97949e-08
-8.69248e-09
-2.7294e-08
-8.43182e-09
-2.48737e-08
-8.1509e-09
-2.25397e-08
-7.85006e-09
-2.02974e-08
-7.52969e-09
-1.81521e-08
-7.19033e-09
-1.6109e-08
-6.83258e-09
-1.41729e-08
-6.45722e-09
-1.23485e-08
-6.06515e-09
-1.06398e-08
-5.65747e-09
-9.05074e-09
-5.23545e-09
-7.58471e-09
-4.80065e-09
-6.24449e-09
-4.35487e-09
-5.03224e-09
-3.90028e-09
-3.94941e-09
-3.43942e-09
-2.99655e-09
-2.97534e-09
-2.17325e-09
-2.51164e-09
-1.4779e-09
-2.05264e-09
-9.07584e-10
-1.60347e-09
-4.5784e-10
-1.17027e-09
-1.22441e-10
-7.60354e-10
1.06844e-10
-3.82479e-10
2.4052e-10
-4.70508e-11
2.91652e-10
2.336e-10
2.76189e-10
4.44976e-10
2.13384e-10
5.70214e-10
1.26403e-10
5.9005e-10
4.34011e-11
4.82804e-10
2.22709e-10
2.99374e-11
-2.48713e-10
7.65473e-11
-5.09397e-10
1.0554e-10
-5.78246e-10
8.91842e-11
-4.90019e-10
4.57149e-12
-2.72906e-10
-1.67262e-10
4.86519e-11
-4.41926e-10
4.53554e-10
-8.32105e-10
9.23773e-10
-1.34789e-09
1.44399e-09
-1.99707e-09
2.00125e-09
-2.78536e-09
2.58462e-09
-3.71668e-09
3.18492e-09
-4.79336e-09
3.79445e-09
-6.01632e-09
4.40674e-09
-7.38529e-09
5.0164e-09
-8.89892e-09
5.61891e-09
-1.0555e-08
6.21048e-09
-1.23505e-08
6.78797e-09
-1.42817e-08
7.34874e-09
-1.63445e-08
7.89062e-09
-1.8534e-08
8.4118e-09
-2.08452e-08
8.91079e-09
-2.32726e-08
9.38637e-09
-2.58104e-08
9.83757e-09
-2.84528e-08
1.02636e-08
-3.11934e-08
1.06638e-08
-3.4026e-08
1.10378e-08
-3.69442e-08
1.13853e-08
-3.99414e-08
1.17059e-08
-4.30112e-08
1.19996e-08
-4.61468e-08
1.22663e-08
-4.93416e-08
1.25061e-08
-5.25891e-08
1.27191e-08
-5.58826e-08
1.29054e-08
-5.92156e-08
1.30652e-08
-6.25815e-08
1.31988e-08
-6.59739e-08
1.33064e-08
-6.93863e-08
1.33885e-08
-7.28126e-08
1.34453e-08
-7.62463e-08
1.34772e-08
-7.96815e-08
1.34847e-08
-8.31119e-08
1.34681e-08
-8.65318e-08
1.34279e-08
-8.99352e-08
1.33647e-08
-9.33165e-08
1.32787e-08
-9.66701e-08
1.31707e-08
-9.99904e-08
1.30409e-08
-1.03272e-07
1.28901e-08
-1.0651e-07
1.27186e-08
-1.09699e-07
1.25271e-08
-1.12834e-07
1.2316e-08
-1.15911e-07
1.20859e-08
-1.18924e-07
1.18374e-08
-1.21869e-07
1.1571e-08
-1.24742e-07
1.12874e-08
-1.27539e-07
1.09869e-08
-1.30255e-07
1.06703e-08
-1.32886e-07
1.03382e-08
-1.35429e-07
9.991e-09
-1.37879e-07
9.62941e-09
-1.40234e-07
9.254e-09
-1.4249e-07
8.86536e-09
-1.44644e-07
8.4641e-09
-1.46692e-07
8.05081e-09
-1.48632e-07
7.6261e-09
-1.50462e-07
7.19059e-09
-1.52177e-07
6.7449e-09
-1.53777e-07
6.28963e-09
-1.55259e-07
5.82542e-09
-1.5662e-07
5.3529e-09
-1.57858e-07
4.8727e-09
-1.58973e-07
4.38546e-09
-1.59962e-07
3.89182e-09
-1.60824e-07
3.39243e-09
-1.61557e-07
2.88795e-09
-1.62161e-07
2.37903e-09
-1.62634e-07
1.86634e-09
-1.62976e-07
1.35056e-09
-1.63186e-07
8.32341e-10
-1.63264e-07
3.12382e-10
-1.63208e-07
-2.08636e-10
-1.63021e-07
-7.30019e-10
-1.627e-07
-1.25107e-09
-1.62248e-07
-1.77109e-09
-1.61663e-07
-2.28937e-09
-1.60947e-07
-2.8052e-09
-1.60101e-07
-3.31786e-09
-1.59126e-07
-3.82663e-09
-1.58022e-07
-4.33077e-09
-1.56792e-07
-4.82958e-09
-1.55436e-07
-5.3223e-09
-1.53956e-07
-5.8082e-09
-1.52355e-07
-6.28655e-09
-1.50635e-07
-6.7566e-09
-1.48798e-07
-7.21762e-09
-1.46845e-07
-7.66885e-09
-1.44781e-07
-8.10955e-09
-1.42608e-07
-8.53898e-09
-1.40329e-07
-8.9564e-09
-1.37947e-07
-9.36107e-09
-1.35466e-07
-9.75225e-09
-1.32889e-07
-1.01292e-08
-1.3022e-07
-1.04912e-08
-1.27463e-07
-1.08375e-08
-1.24622e-07
-1.11675e-08
-1.21702e-07
-1.14803e-08
-1.18707e-07
-1.17753e-08
-1.15642e-07
-1.20519e-08
-1.12511e-07
-1.23093e-08
-1.0932e-07
-1.25468e-08
-1.06074e-07
-1.27639e-08
-1.02778e-07
-1.29598e-08
-9.9438e-08
-1.31341e-08
-9.60589e-08
-1.3286e-08
-9.26469e-08
-1.34149e-08
-8.92078e-08
-1.35205e-08
-8.57476e-08
-1.3602e-08
-8.22727e-08
-1.3659e-08
-7.87891e-08
-1.36911e-08
-7.53033e-08
-1.36977e-08
-7.18218e-08
-1.36784e-08
-6.8351e-08
-1.3633e-08
-6.48977e-08
-1.3561e-08
-6.14686e-08
-1.34621e-08
-5.80703e-08
-1.33361e-08
-5.47098e-08
-1.31828e-08
-5.13937e-08
-1.3002e-08
-4.8129e-08
-1.27936e-08
-4.49224e-08
-1.25575e-08
-4.17808e-08
-1.22938e-08
-3.87109e-08
-1.20026e-08
-3.57194e-08
-1.1684e-08
-3.28129e-08
-1.13383e-08
-2.9998e-08
-1.09658e-08
-2.7281e-08
-1.05671e-08
-2.4668e-08
-1.01427e-08
-2.2165e-08
-9.6933e-09
-1.97778e-08
-9.21981e-09
-1.75117e-08
-8.72327e-09
-1.53719e-08
-8.20494e-09
-1.33631e-08
-7.66631e-09
-1.14894e-08
-7.10914e-09
-9.75454e-09
-6.5355e-09
-8.1616e-09
-5.94782e-09
-6.71289e-09
-5.34899e-09
-5.40993e-09
-4.74238e-09
-4.25329e-09
-4.13198e-09
-3.24246e-09
-3.52248e-09
-2.3757e-09
-2.91941e-09
-1.64984e-09
-2.32933e-09
-1.06015e-09
-1.75997e-09
-6.00061e-10
-1.22044e-09
-2.61031e-10
-7.21509e-10
-3.22442e-11
-2.75845e-10
9.96337e-11
1.01711e-10
1.50775e-10
3.93831e-10
1.40597e-10
5.80399e-10
9.23357e-11
6.38313e-10
3.39655e-11
5.41166e-10
2.56672e-10
1.72297e-11
-2.6595e-10
3.05483e-11
-5.2272e-10
8.20812e-12
-5.55901e-10
-7.61737e-11
-4.0563e-10
-2.44701e-10
-1.04377e-10
-5.15833e-10
3.19781e-10
-9.04863e-10
8.42582e-10
-1.4243e-09
1.44321e-09
-2.08416e-09
2.10385e-09
-2.8922e-09
2.8093e-09
-3.8542e-09
3.54662e-09
-4.97409e-09
4.30482e-09
-6.25422e-09
5.07458e-09
-7.69551e-09
5.84804e-09
-9.29762e-09
6.61852e-09
-1.10591e-08
7.38041e-09
-1.29776e-08
8.12896e-09
-1.50498e-08
8.8602e-09
-1.72718e-08
9.57076e-09
-1.96391e-08
1.02578e-08
-2.21464e-08
1.09191e-08
-2.47882e-08
1.15526e-08
-2.75586e-08
1.21567e-08
-3.04512e-08
1.27302e-08
-3.34596e-08
1.3272e-08
-3.65769e-08
1.37812e-08
-3.97962e-08
1.42572e-08
-4.31104e-08
1.46995e-08
-4.65123e-08
1.51078e-08
-4.99947e-08
1.54819e-08
-5.35501e-08
1.58217e-08
-5.71712e-08
1.61273e-08
-6.08508e-08
1.63986e-08
-6.45813e-08
1.66359e-08
-6.83556e-08
1.68394e-08
-7.21662e-08
1.70094e-08
-7.60061e-08
1.71463e-08
-7.9868e-08
1.72504e-08
-8.37449e-08
1.73221e-08
-8.76297e-08
1.7362e-08
-9.15156e-08
1.73706e-08
-9.53959e-08
1.73483e-08
-9.92638e-08
1.72958e-08
-1.03113e-07
1.72136e-08
-1.06936e-07
1.71024e-08
-1.10728e-07
1.69627e-08
-1.14483e-07
1.67952e-08
-1.18193e-07
1.66005e-08
-1.21854e-07
1.63793e-08
-1.25459e-07