/*--------------------------------*- C++ -*----------------------------------*\
  =========                 |
  \\      /  F ield         | OpenFOAM: The Open Source CFD Toolbox
   \\    /   O peration     | Website:  https://openfoam.org
    \\  /    A nd           | Version:  7
     \\/     M anipulation  |
\*---------------------------------------------------------------------------*/
FoamFile
{
    version     2.0;
    format      ascii;
    class       surfaceScalarField;
    location    "0.1875";
    object      phi;
}
// * * * * * * * * * * * * * * * * * * * * * * * * * * * * * * * * * * * * * //

dimensions      [0 3 -1 0 0 0 0];

internalField   nonuniform List<scalar> 
50880
(
6.11945e-12
-6.12428e-12
3.62096e-11
-3.00934e-11
8.10214e-11
-4.48094e-11
1.30553e-10
-4.95353e-11
1.77681e-10
-4.71227e-11
2.17411e-10
-3.97331e-11
2.46328e-10
-2.89156e-11
2.62109e-10
-1.57839e-11
2.63238e-10
-1.13017e-12
2.48754e-10
1.44847e-11
2.18098e-10
3.06566e-11
1.71013e-10
4.70881e-11
1.07463e-10
6.35504e-11
2.7588e-11
7.98768e-11
-6.83523e-11
9.59376e-11
-1.79988e-10
1.11635e-10
-3.06878e-10
1.26889e-10
-4.4852e-10
1.41639e-10
-6.0436e-10
1.55838e-10
-7.73812e-10
1.69451e-10
-9.56259e-10
1.82448e-10
-1.15107e-09
1.94809e-10
-1.35758e-09
2.06516e-10
-1.57515e-09
2.17563e-10
-1.80309e-09
2.2794e-10
-2.04074e-09
2.37647e-10
-2.28742e-09
2.46675e-10
-2.54244e-09
2.5503e-10
-2.80515e-09
2.6271e-10
-3.07488e-09
2.69724e-10
-3.35095e-09
2.76074e-10
-3.63272e-09
2.8177e-10
-3.91954e-09
2.86814e-10
-4.21076e-09
2.91222e-10
-4.50576e-09
2.94997e-10
-4.80391e-09
2.98148e-10
-5.1046e-09
3.0069e-10
-5.40723e-09
3.02632e-10
-5.71122e-09
3.03984e-10
-6.01597e-09
3.04757e-10
-6.32094e-09
3.04964e-10
-6.62555e-09
3.04615e-10
-6.92928e-09
3.03724e-10
-7.23158e-09
3.02303e-10
-7.53194e-09
3.00363e-10
-7.82985e-09
2.97917e-10
-8.12483e-09
2.94978e-10
-8.41638e-09
2.91557e-10
-8.70405e-09
2.87669e-10
-8.98738e-09
2.83327e-10
-9.26592e-09
2.78544e-10
-9.53926e-09
2.73332e-10
-9.80696e-09
2.67703e-10
-1.00686e-08
2.61672e-10
-1.03239e-08
2.55254e-10
-1.05724e-08
2.48461e-10
-1.08137e-08
2.41304e-10
-1.10475e-08
2.33797e-10
-1.12734e-08
2.25953e-10
-1.14912e-08
2.17784e-10
-1.17005e-08
2.09306e-10
-1.1901e-08
2.0053e-10
-1.20925e-08
1.91471e-10
-1.22746e-08
1.82143e-10
-1.24472e-08
1.72558e-10
-1.26099e-08
1.62732e-10
-1.27626e-08
1.52676e-10
-1.2905e-08
1.42405e-10
-1.30369e-08
1.31934e-10
-1.31582e-08
1.21277e-10
-1.32687e-08
1.10445e-10
-1.33681e-08
9.94534e-11
-1.34564e-08
8.83161e-11
-1.35335e-08
7.70477e-11
-1.35991e-08
6.56629e-11
-1.36533e-08
5.41768e-11
-1.36959e-08
4.2605e-11
-1.37269e-08
3.0962e-11
-1.37462e-08
1.92617e-11
-1.37537e-08
7.51826e-12
-1.37494e-08
-4.25314e-12
-1.37334e-08
-1.60362e-11
-1.37056e-08
-2.78142e-11
-1.3666e-08
-3.95714e-11
-1.36147e-08
-5.12931e-11
-1.35517e-08
-6.29643e-11
-1.34772e-08
-7.45687e-11
-1.33911e-08
-8.60894e-11
-1.32936e-08
-9.75087e-11
-1.31848e-08
-1.0881e-10
-1.30648e-08
-1.19977e-10
-1.29338e-08
-1.30996e-10
-1.27919e-08
-1.41848e-10
-1.26394e-08
-1.52518e-10
-1.24764e-08
-1.62987e-10
-1.23032e-08
-1.73239e-10
-1.21199e-08
-1.83256e-10
-1.19269e-08
-1.93022e-10
-1.17244e-08
-2.02519e-10
-1.15127e-08
-2.11729e-10
-1.1292e-08
-2.20638e-10
-1.10628e-08
-2.29228e-10
-1.08253e-08
-2.37482e-10
-1.05799e-08
-2.45382e-10
-1.0327e-08
-2.52912e-10
-1.0067e-08
-2.60054e-10
-9.80018e-09
-2.66791e-10
-9.52707e-09
-2.73109e-10
-9.24808e-09
-2.78991e-10
-8.96365e-09
-2.84422e-10
-8.67426e-09
-2.89386e-10
-8.3804e-09
-2.93868e-10
-8.08255e-09
-2.9785e-10
-7.78123e-09
-3.0132e-10
-7.47697e-09
-3.04261e-10
-7.17031e-09
-3.06662e-10
-6.8618e-09
-3.08508e-10
-6.55201e-09
-3.09788e-10
-6.24152e-09
-3.10489e-10
-5.93093e-09
-3.10597e-10
-5.62083e-09
-3.10101e-10
-5.31184e-09
-3.08989e-10
-5.00459e-09
-3.07251e-10
-4.6997e-09
-3.0488e-10
-4.39784e-09
-3.01867e-10
-4.09963e-09
-2.98204e-10
-3.80575e-09
-2.93884e-10
-3.51685e-09
-2.88901e-10
-3.2336e-09
-2.83249e-10
-2.95668e-09
-2.76926e-10
-2.68675e-09
-2.69928e-10
-2.42449e-09
-2.62256e-10
-2.17058e-09
-2.53909e-10
-1.92569e-09
-2.44891e-10
-1.69048e-09
-2.35207e-10
-1.46563e-09
-2.24859e-10
-1.25177e-09
-2.13855e-10
-1.04957e-09
-2.02207e-10
-8.59637e-10
-1.8993e-10
-6.8259e-10
-1.77045e-10
-5.19013e-10
-1.63574e-10
-3.69462e-10
-1.49549e-10
-2.34458e-10
-1.35004e-10
-1.14475e-10
-1.19984e-10
-9.93188e-12
-1.04544e-10
7.88192e-11
-8.87511e-11
1.51512e-10
-7.26921e-11
2.07988e-10
-5.64747e-11
2.48226e-10
-4.02362e-11
2.7238e-10
-2.41527e-11
2.80831e-10
-8.45235e-12
2.74266e-10
6.56363e-12
2.53777e-10
2.04886e-11
2.21011e-10
3.27657e-11
1.78395e-10
4.26186e-11
1.29437e-10
4.89592e-11
7.91412e-11
5.02968e-11
3.4561e-11
4.45798e-11
5.34247e-12
2.92198e-11
5.34394e-12
3.01887e-11
-3.63142e-11
1.01278e-10
-1.01174e-10
1.95393e-10
-1.38928e-10
2.9552e-10
-1.49661e-10
3.8729e-10
-1.38894e-10
4.59468e-10
-1.1191e-10
5.03595e-10
-7.30381e-11
5.13496e-10
-2.56803e-11
4.8478e-10
2.75805e-11
4.1447e-10
8.4797e-11
3.00643e-10
1.44482e-10
1.42226e-10
2.055e-10
-6.1207e-11
2.66979e-10
-3.09571e-10
3.28238e-10
-6.02381e-10
3.88749e-10
-9.3884e-10
4.48094e-10
-1.31789e-09
5.05941e-10
-1.73828e-09
5.6203e-10
-2.1986e-09
6.16158e-10
-2.6973e-09
6.68157e-10
-3.23276e-09
7.17904e-10
-3.80325e-09
7.65304e-10
-4.40701e-09
8.10273e-10
-5.0422e-09
8.52761e-10
-5.70699e-09
8.92725e-10
-6.39949e-09
9.30143e-10
-7.11782e-09
9.64998e-10
-7.86007e-09
9.97285e-10
-8.62437e-09
1.027e-09
-9.4088e-09
1.05416e-09
-1.02115e-08
1.07878e-09
-1.10306e-08
1.10087e-09
-1.18642e-08
1.12046e-09
-1.27106e-08
1.13757e-09
-1.35678e-08
1.15225e-09
-1.44342e-08
1.16452e-09
-1.53079e-08
1.17442e-09
-1.61873e-08
1.18199e-09
-1.70706e-08
1.18727e-09
-1.79561e-08
1.1903e-09
-1.88423e-08
1.19113e-09
-1.97275e-08
1.18979e-09
-2.06101e-08
1.18634e-09
-2.14886e-08
1.18082e-09
-2.23615e-08
1.17328e-09
-2.32274e-08
1.16376e-09
-2.40847e-08
1.15231e-09
-2.49321e-08
1.13899e-09
-2.57683e-08
1.12384e-09
-2.65919e-08
1.10691e-09
-2.74016e-08
1.08826e-09
-2.81962e-08
1.06792e-09
-2.89745e-08
1.04596e-09
-2.97352e-08
1.02242e-09
-3.04773e-08
9.97362e-10
-3.11997e-08
9.70827e-10
-3.19012e-08
9.42869e-10
-3.2581e-08
9.1354e-10
-3.32379e-08
8.8289e-10
-3.38711e-08
8.50972e-10
-3.44797e-08
8.17838e-10
-3.50627e-08
7.8354e-10
-3.56193e-08
7.48134e-10
-3.61489e-08
7.11672e-10
-3.66505e-08
6.74205e-10
-3.71236e-08
6.35788e-10
-3.75674e-08
5.96473e-10
-3.79813e-08
5.56316e-10
-3.83647e-08
5.15373e-10
-3.87171e-08
4.73696e-10
-3.9038e-08
4.3134e-10
-3.93269e-08
3.88361e-10
-3.95834e-08
3.44816e-10
-3.98071e-08
3.00762e-10
-3.99977e-08
2.56254e-10
-4.01549e-08
2.11348e-10
-4.02784e-08
1.66105e-10
-4.0368e-08
1.20582e-10
-4.04236e-08
7.48393e-11
-4.0445e-08
2.89345e-11
-4.04322e-08
-1.70738e-11
-4.03851e-08
-6.31251e-11
-4.03038e-08
-1.09157e-10
-4.01882e-08
-1.55108e-10
-4.00386e-08
-2.00915e-10
-3.98551e-08
-2.46516e-10
-3.96378e-08
-2.91847e-10
-3.9387e-08
-3.36844e-10
-3.91031e-08
-3.81444e-10
-3.87863e-08
-4.25584e-10
-3.84371e-08
-4.692e-10
-3.80558e-08
-5.12227e-10
-3.76431e-08
-5.54599e-10
-3.71994e-08
-5.96249e-10
-3.67252e-08
-6.37111e-10
-3.62214e-08
-6.77119e-10
-3.56884e-08
-7.16206e-10
-3.51271e-08
-7.54306e-10
-3.45383e-08
-7.91353e-10
-3.39227e-08
-8.27278e-10
-3.32814e-08
-8.62017e-10
-3.26151e-08
-8.95504e-10
-3.19249e-08
-9.27674e-10
-3.12118e-08
-9.58462e-10
-3.04769e-08
-9.87802e-10
-2.97213e-08
-1.01563e-09
-2.89463e-08
-1.04188e-09
-2.81529e-08
-1.06649e-09
-2.73425e-08
-1.08939e-09
-2.65164e-08
-1.11053e-09
-2.56759e-08
-1.12984e-09
-2.48225e-08
-1.14727e-09
-2.39576e-08
-1.16275e-09
-2.30827e-08
-1.17624e-09
-2.21993e-08
-1.18768e-09
-2.13089e-08
-1.19701e-09
-2.04133e-08
-1.20418e-09
-1.95139e-08
-1.20914e-09
-1.86125e-08
-1.21185e-09
-1.77109e-08
-1.21226e-09
-1.68107e-08
-1.21032e-09
-1.59136e-08
-1.206e-09
-1.50216e-08
-1.19926e-09
-1.41365e-08
-1.19006e-09
-1.326e-08
-1.17837e-09
-1.2394e-08
-1.16417e-09
-1.15405e-08
-1.14743e-09
-1.07012e-08
-1.12813e-09
-9.87821e-09
-1.10626e-09
-9.07333e-09
-1.08181e-09
-8.2885e-09
-1.05476e-09
-7.52562e-09
-1.02513e-09
-6.78661e-09
-9.92922e-10
-6.07336e-09
-9.58145e-10
-5.38774e-09
-9.20824e-10
-4.7316e-09
-8.8099e-10
-4.10677e-09
-8.38684e-10
-3.51502e-09
-7.93959e-10
-2.95807e-09
-7.46883e-10
-2.43757e-09
-6.97543e-10
-1.9551e-09
-6.46044e-10
-1.51214e-09
-5.92515e-10
-1.11003e-09
-5.37114e-10
-7.49978e-10
-4.80033e-10
-4.33012e-10
-4.21509e-10
-1.59936e-10
-3.61828e-10
6.8718e-11
-3.01348e-10
2.52749e-10
-2.40509e-10
3.92376e-10
-1.79864e-10
4.88338e-10
-1.20113e-10
5.42029e-10
-6.21429e-11
5.55684e-10
-7.0903e-12
5.32603e-10
4.35696e-11
4.77456e-10
8.79127e-11
3.96656e-10
1.23417e-10
2.98806e-10
1.46808e-10
1.95141e-10
1.53962e-10
9.97825e-11
1.3994e-10
2.918e-11
9.98249e-11
3.45225e-11
4.48785e-11
-8.11907e-11
1.39138e-10
-1.95443e-10
2.56245e-10
-2.56033e-10
3.74584e-10
-2.68006e-10
4.75885e-10
-2.40192e-10
5.45273e-10
-1.81292e-10
5.71047e-10
-9.88124e-11
5.4426e-10
1.101e-12
4.583e-10
1.13547e-10
3.08431e-10
2.34668e-10
9.14723e-11
3.61438e-10
-1.94511e-10
4.91483e-10
-5.50457e-10
6.22922e-10
-9.76492e-10
7.54277e-10
-1.47211e-09
8.84364e-10
-2.03626e-09
1.01224e-09
-2.66748e-09
1.13716e-09
-3.36396e-09
1.25851e-09
-4.12363e-09
1.37582e-09
-4.94418e-09
1.4887e-09
-5.82311e-09
1.59684e-09
-6.75781e-09
1.69999e-09
-7.74552e-09
1.79799e-09
-8.78343e-09
1.89067e-09
-9.86864e-09
1.97794e-09
-1.09982e-08
2.05971e-09
-1.21692e-08
2.13595e-09
-1.33785e-08
2.20661e-09
-1.46232e-08
2.2717e-09
-1.59003e-08
2.33123e-09
-1.72067e-08
2.38522e-09
-1.85395e-08
2.43369e-09
-1.98958e-08
2.4767e-09
-2.12725e-08
2.5143e-09
-2.26668e-08
2.54656e-09
-2.40758e-08
2.57353e-09
-2.54967e-08
2.59531e-09
-2.69267e-08
2.61196e-09
-2.8363e-08
2.62358e-09
-2.98029e-08
2.63025e-09
-3.12439e-08
2.63206e-09
-3.26832e-08
2.62911e-09
-3.41183e-08
2.6215e-09
-3.55468e-08
2.60932e-09
-3.69662e-08
2.59268e-09
-3.83742e-08
2.57168e-09
-3.97683e-08
2.54642e-09
-4.11463e-08
2.51702e-09
-4.2506e-08
2.48357e-09
-4.38453e-08
2.4462e-09
-4.5162e-08
2.405e-09
-4.64542e-08
2.36009e-09
-4.77198e-08
2.31159e-09
-4.8957e-08
2.25959e-09
-5.01639e-08
2.20423e-09
-5.13386e-08
2.14559e-09
-5.24796e-08
2.08381e-09
-5.3585e-08
2.01899e-09
-5.46534e-08
1.95125e-09
-5.56831e-08
1.8807e-09
-5.66728e-08
1.80746e-09
-5.76209e-08
1.73164e-09
-5.85261e-08
1.65337e-09
-5.93872e-08
1.57276e-09
-6.02029e-08
1.48992e-09
-6.09721e-08
1.40498e-09
-6.16937e-08
1.31806e-09
-6.23666e-08
1.22927e-09
-6.299e-08
1.13874e-09
-6.35629e-08
1.04658e-09
-6.40845e-08
9.52928e-10
-6.4554e-08
8.57895e-10
-6.49708e-08
7.61611e-10
-6.53342e-08
6.64201e-10
-6.56438e-08
5.65791e-10
-6.58989e-08
4.66508e-10
-6.60993e-08
3.66481e-10
-6.62446e-08
2.65838e-10
-6.63344e-08
1.6471e-10
-6.63687e-08
6.32276e-11
-6.63473e-08
-3.84763e-11
-6.62702e-08
-1.40267e-10
-6.61373e-08
-2.42009e-10
-6.59489e-08
-3.43567e-10
-6.5705e-08
-4.44803e-10
-6.54059e-08
-5.45579e-10
-6.5052e-08
-6.45753e-10
-6.46437e-08
-7.45181e-10
-6.41814e-08
-8.43724e-10
-6.36657e-08
-9.41242e-10
-6.30973e-08
-1.03759e-09
-6.24769e-08
-1.13263e-09
-6.18053e-08
-1.22622e-09
-6.10834e-08
-1.3182e-09
-6.0312e-08
-1.40844e-09
-5.94924e-08
-1.49678e-09
-5.86255e-08
-1.58308e-09
-5.77126e-08
-1.66719e-09
-5.6755e-08
-1.74897e-09
-5.5754e-08
-1.82827e-09
-5.47111e-08
-1.90493e-09
-5.36278e-08
-1.97883e-09
-5.25056e-08
-2.04982e-09
-5.13463e-08
-2.11774e-09
-5.01517e-08
-2.18246e-09
-4.89235e-08
-2.24383e-09
-4.76636e-08
-2.30172e-09
-4.63741e-08
-2.35598e-09
-4.50571e-08
-2.40648e-09
-4.37145e-08
-2.45309e-09
-4.23487e-08
-2.49566e-09
-4.09619e-08
-2.53408e-09
-3.95564e-08
-2.56821e-09
-3.81347e-08
-2.59794e-09
-3.66992e-08
-2.62314e-09
-3.52525e-08
-2.64371e-09
-3.37972e-08
-2.65952e-09
-3.23359e-08
-2.67046e-09
-3.08713e-08
-2.67645e-09
-2.94062e-08
-2.67737e-09
-2.79434e-08
-2.67314e-09
-2.64857e-08
-2.66367e-09
-2.50361e-08
-2.64888e-09
-2.35975e-08
-2.6287e-09
-2.21727e-08
-2.60307e-09
-2.0765e-08
-2.57193e-09
-1.93772e-08
-2.53524e-09
-1.80124e-08
-2.49294e-09
-1.66736e-08
-2.44503e-09
-1.53639e-08
-2.39147e-09
-1.40864e-08
-2.33227e-09
-1.28441e-08
-2.26744e-09
-1.164e-08
-2.197e-09
-1.04772e-08
-2.121e-09
-9.35853e-09
-2.03948e-09
-8.28699e-09
-1.95253e-09
-7.26541e-09
-1.86026e-09
-6.29656e-09
-1.7628e-09
-5.38312e-09
-1.66032e-09
-4.52763e-09
-1.55303e-09
-3.73251e-09
-1.44117e-09
-2.99998e-09
-1.32505e-09
-2.33206e-09
-1.20504e-09
-1.73051e-09
-1.08158e-09
-1.19679e-09
-9.5523e-10
-7.31977e-10
-8.26638e-10
-3.3671e-10
-6.96614e-10
-1.10706e-11
-5.66148e-10
2.45523e-10
-4.3646e-10
4.34476e-10
-3.09068e-10
5.58194e-10
-1.85863e-10
6.20323e-10
-6.92193e-11
6.26026e-10
3.78684e-11
5.82322e-10
1.31619e-10
4.98462e-10
2.07276e-10
3.86332e-10
2.58936e-10
2.60803e-10
2.79492e-10
1.39871e-10
2.60874e-10
4.45102e-11
1.95182e-10
7.9032e-11
4.96715e-11
-1.30862e-10
1.50137e-10
-2.95901e-10
2.6877e-10
-3.74673e-10
3.80396e-10
-3.79627e-10
4.64203e-10
-3.24e-10
5.03136e-10
-2.20227e-10
4.83478e-10
-7.91605e-11
3.94472e-10
9.01078e-11
2.27895e-10
2.80125e-10
-2.22913e-11
4.84858e-10
-3.60306e-10
6.99455e-10
-7.88843e-10
9.20017e-10
-1.30934e-09
1.14342e-09
-1.92219e-09
1.36713e-09
-2.62694e-09
1.58912e-09
-3.42243e-09
1.80773e-09
-4.30693e-09
2.02165e-09
-5.27819e-09
2.22978e-09
-6.33363e-09
2.43126e-09
-7.47031e-09
2.62538e-09
-8.68505e-09
2.81157e-09
-9.97444e-09
2.98938e-09
-1.13349e-08
3.15846e-09
-1.27628e-08
3.31851e-09
-1.42542e-08
3.46934e-09
-1.58052e-08
3.61079e-09
-1.7412e-08
3.74274e-09
-1.90705e-08
3.86514e-09
-2.07768e-08
3.97794e-09
-2.25267e-08
4.08116e-09
-2.43163e-08
4.17481e-09
-2.61416e-08
4.25894e-09
-2.79985e-08
4.33361e-09
-2.98831e-08
4.39892e-09
-3.17915e-08
4.45495e-09
-3.37198e-08
4.50182e-09
-3.56641e-08
4.53965e-09
-3.76207e-08
4.56858e-09
-3.95859e-08
4.58874e-09
-4.15559e-08
4.60028e-09
-4.35272e-08
4.60337e-09
-4.54962e-08
4.59815e-09
-4.74596e-08
4.5848e-09
-4.94137e-08
4.56349e-09
-5.13554e-08
4.53438e-09
-5.32814e-08
4.49765e-09
-5.51885e-08
4.4535e-09
-5.70735e-08
4.40209e-09
-5.89336e-08
4.34362e-09
-6.07657e-08
4.27828e-09
-6.25669e-08
4.20626e-09
-6.43346e-08
4.12774e-09
-6.60659e-08
4.04292e-09
-6.77583e-08
3.952e-09
-6.94093e-08
3.85517e-09
-7.10163e-08
3.75263e-09
-7.25771e-08
3.64457e-09
-7.40893e-08
3.53119e-09
-7.55507e-08
3.4127e-09
-7.69593e-08
3.28929e-09
-7.8313e-08
3.16116e-09
-7.96099e-08
3.02853e-09
-8.08481e-08
2.89159e-09
-8.20259e-08
2.75055e-09
-8.31416e-08
2.60562e-09
-8.41936e-08
2.457e-09
-8.51805e-08
2.30491e-09
-8.61008e-08
2.14956e-09
-8.69532e-08
1.99116e-09
-8.77365e-08
1.82992e-09
-8.84496e-08
1.66605e-09
-8.90915e-08
1.49977e-09
-8.96612e-08
1.33131e-09
-9.01579e-08
1.16088e-09
-9.05808e-08
9.88696e-10
-9.09293e-08
8.14993e-10
-9.12028e-08
6.39994e-10
-9.14009e-08
4.63923e-10
-9.15232e-08
2.8701e-10
-9.15694e-08
1.09482e-10
-9.15395e-08
-6.84257e-11
-9.14333e-08
-2.46477e-10
-9.12509e-08
-4.24433e-10
-9.09924e-08
-6.02057e-10
-9.06581e-08
-7.79109e-10
-9.02483e-08
-9.55346e-10
-8.97635e-08
-1.13052e-09
-8.92043e-08
-1.30439e-09
-8.85713e-08
-1.47669e-09
-8.78654e-08
-1.6472e-09
-8.70873e-08
-1.81565e-09
-8.62382e-08
-1.98179e-09
-8.5319e-08
-2.14538e-09
-8.4331e-08
-2.30616e-09
-8.32756e-08
-2.46387e-09
-8.21541e-08
-2.61826e-09
-8.09681e-08
-2.76907e-09
-7.97193e-08
-2.91604e-09
-7.84093e-08
-3.05892e-09
-7.70401e-08
-3.19746e-09
-7.56137e-08
-3.3314e-09
-7.4132e-08
-3.46049e-09
-7.25974e-08
-3.58447e-09
-7.1012e-08
-3.7031e-09
-6.93783e-08
-3.81612e-09
-6.76989e-08
-3.92329e-09
-6.59762e-08
-4.02437e-09
-6.42131e-08
-4.11911e-09
-6.24123e-08
-4.20728e-09
-6.05767e-08
-4.28864e-09
-5.87094e-08
-4.36297e-09
-5.68135e-08
-4.43004e-09
-5.48921e-08
-4.48963e-09
-5.29485e-08
-4.54154e-09
-5.09861e-08
-4.58555e-09
-4.90083e-08
-4.62147e-09
-4.70187e-08
-4.64911e-09
-4.50209e-08
-4.66827e-09
-4.30185e-08
-4.6788e-09
-4.10154e-08
-4.68051e-09
-3.90153e-08
-4.67325e-09
-3.7022e-08
-4.65689e-09
-3.50396e-08
-4.63129e-09
-3.3072e-08
-4.59632e-09
-3.11232e-08
-4.55189e-09
-2.91972e-08
-4.4979e-09
-2.72982e-08
-4.43427e-09
-2.54302e-08
-4.36096e-09
-2.35973e-08
-4.27792e-09
-2.18037e-08
-4.18512e-09
-2.00533e-08
-4.08258e-09
-1.83505e-08
-3.97033e-09
-1.6699e-08
-3.84841e-09
-1.51031e-08
-3.71693e-09
-1.35666e-08
-3.57599e-09
-1.20934e-08
-3.42575e-09
-1.06872e-08
-3.26642e-09
-9.35177e-09
-3.09826e-09
-8.09052e-09
-2.92158e-09
-6.9068e-09
-2.73676e-09
-5.8037e-09
-2.54426e-09
-4.7841e-09
-2.34465e-09
-3.85053e-09
-2.1386e-09
-3.00521e-09
-1.92691e-09
-2.24988e-09
-1.71056e-09
-1.5858e-09
-1.49072e-09
-1.01361e-09
-1.26881e-09
-5.33205e-10
-1.04655e-09
-1.43623e-10
-8.26043e-10
1.5716e-10
-6.09852e-10
3.72425e-10
-4.01128e-10
5.06958e-10
-2.03752e-10
5.67332e-10
-2.25076e-11
5.62237e-10
1.36714e-10
5.02811e-10
2.66701e-10
4.03003e-10
3.58745e-10
2.79912e-10
4.02585e-10
1.54121e-10
3.86662e-10
5.02753e-11
2.99024e-10
1.29309e-10
4.73761e-11
-1.78242e-10
1.3984e-10
-3.88365e-10
2.41945e-10
-4.76777e-10
3.26329e-10
-4.64006e-10
3.70633e-10
-3.68302e-10
3.56508e-10
-2.06107e-10
2.69063e-10
8.28657e-12
9.63975e-11
2.62776e-10
-1.70742e-10
5.47265e-10
-5.39317e-10
8.53429e-10
-1.0143e-09
1.17444e-09
-1.59898e-09
1.5047e-09
-2.29522e-09
1.83965e-09
-3.10365e-09
2.17556e-09
-4.02391e-09
2.50938e-09
-5.05478e-09
2.8386e-09
-6.19431e-09
3.16118e-09
-7.43998e-09
3.47545e-09
-8.78875e-09
3.78004e-09
-1.02372e-08
4.07383e-09
-1.17815e-08
4.35591e-09
-1.34177e-08
4.62555e-09
-1.51414e-08
4.88216e-09
-1.69482e-08
5.12528e-09
-1.88334e-08
5.35456e-09
-2.07923e-08
5.56971e-09
-2.28201e-08
5.77056e-09
-2.49119e-08
5.95696e-09
-2.70628e-08
6.12884e-09
-2.92679e-08
6.28618e-09
-3.1522e-08
6.42899e-09
-3.38204e-08
6.55732e-09
-3.61581e-08
6.67127e-09
-3.85301e-08
6.77093e-09
-4.09316e-08
6.85645e-09
-4.33577e-08
6.92798e-09
-4.58038e-08
6.9857e-09
-4.8265e-08
7.0298e-09
-5.07368e-08
7.06049e-09
-5.32145e-08
7.07798e-09
-5.56936e-08
7.08252e-09
-5.81698e-08
7.07432e-09
-6.06386e-08
7.05365e-09
-6.30959e-08
7.02076e-09
-6.55374e-08
6.97591e-09
-6.79591e-08
6.91936e-09
-7.0357e-08
6.8514e-09
-7.27272e-08
6.77229e-09
-7.5066e-08
6.68233e-09
-7.73695e-08
6.5818e-09
-7.96342e-08
6.47099e-09
-8.18567e-08
6.3502e-09
-8.40335e-08
6.21971e-09
-8.61613e-08
6.07983e-09
-8.8237e-08
5.93085e-09
-9.02574e-08
5.77308e-09
-9.22197e-08
5.60681e-09
-9.41208e-08
5.43236e-09
-9.59582e-08
5.25003e-09
-9.7729e-08
5.06013e-09
-9.94308e-08
4.86297e-09
-1.01061e-07
4.65887e-09
-1.02618e-07
4.44814e-09
-1.04098e-07
4.2311e-09
-1.05501e-07
4.00806e-09
-1.06823e-07
3.77935e-09
-1.08063e-07
3.5453e-09
-1.0922e-07
3.30622e-09
-1.10291e-07
3.06244e-09
-1.11276e-07
2.81429e-09
-1.12172e-07
2.56211e-09
-1.12978e-07
2.30623e-09
-1.13694e-07
2.04698e-09
-1.14318e-07
1.7847e-09
-1.14849e-07
1.51974e-09
-1.15286e-07
1.25245e-09
-1.15629e-07
9.8316e-10
-1.15878e-07
7.12235e-10
-1.16031e-07
4.40021e-10
-1.16088e-07
1.66873e-10
-1.1605e-07
-1.06848e-10
-1.15915e-07
-3.8078e-10
-1.15685e-07
-6.54556e-10
-1.1536e-07
-9.27809e-10
-1.14938e-07
-1.20017e-09
-1.14423e-07
-1.47126e-09
-1.13812e-07
-1.7407e-09
-1.13109e-07
-2.00811e-09
-1.12312e-07
-2.27312e-09
-1.11424e-07
-2.53534e-09
-1.10445e-07
-2.79439e-09
-1.09377e-07
-3.04987e-09
-1.08221e-07
-3.30141e-09
-1.06979e-07
-3.54861e-09
-1.05652e-07
-3.79108e-09
-1.04241e-07
-4.02842e-09
-1.0275e-07
-4.26025e-09
-1.0118e-07
-4.48616e-09
-9.95333e-08
-4.70578e-09
-9.78121e-08
-4.9187e-09
-9.60189e-08
-5.12454e-09
-9.41565e-08
-5.32291e-09
-9.22275e-08
-5.51343e-09
-9.02349e-08
-5.69571e-09
-8.81816e-08
-5.86937e-09
-8.60709e-08
-6.03404e-09
-8.39059e-08
-6.18933e-09
-8.16902e-08
-6.33488e-09
-7.94271e-08
-6.47034e-09
-7.71204e-08
-6.59533e-09
-7.47739e-08
-6.70953e-09
-7.23913e-08
-6.81259e-09
-6.99768e-08
-6.90417e-09
-6.75344e-08
-6.98395e-09
-6.50683e-08
-7.05163e-09
-6.25829e-08
-7.1069e-09
-6.00825e-08
-7.14947e-09
-5.75717e-08
-7.17906e-09
-5.50551e-08
-7.19541e-09
-5.25373e-08
-7.19828e-09
-5.00232e-08
-7.18742e-09
-4.75174e-08
-7.16264e-09
-4.5025e-08
-7.12372e-09
-4.25508e-08
-7.07051e-09
-4.00998e-08
-7.00283e-09
-3.76772e-08
-6.92057e-09
-3.52878e-08
-6.82363e-09
-3.29369e-08
-6.71191e-09
-3.06294e-08
-6.58538e-09
-2.83705e-08
-6.44403e-09
-2.61652e-08
-6.28786e-09
-2.40186e-08
-6.11695e-09
-2.19356e-08
-5.9314e-09
-1.99212e-08
-5.73136e-09
-1.79801e-08
-5.51704e-09
-1.61172e-08
-5.28871e-09
-1.43369e-08
-5.04671e-09
-1.26437e-08
-4.79145e-09
-1.10418e-08
-4.52344e-09
-9.53526e-09
-4.24332e-09
-8.12771e-09
-3.95181e-09
-6.82255e-09
-3.64981e-09
-5.62278e-09
-3.33837e-09
-4.53092e-09
-3.01877e-09
-3.54897e-09
-2.69251e-09
-2.67828e-09
-2.36141e-09
-1.91945e-09
-2.02763e-09
-1.27221e-09
-1.69379e-09
-7.35253e-10
-1.363e-09
-3.06033e-10
-1.03907e-09
1.94071e-11
-7.26567e-10
2.46699e-10
-4.31043e-10
3.8341e-10
-1.5922e-10
4.39339e-10
8.07838e-11
4.2682e-10
2.79219e-10
3.61064e-10
4.24502e-10
2.6055e-10
5.03099e-10
1.47548e-10
4.99663e-10
4.9095e-11
3.97477e-10
1.78405e-10
4.01981e-11
-2.18439e-10
1.13599e-10
-4.61765e-10
1.84536e-10
-5.47715e-10
2.24891e-10
-5.04358e-10
2.11645e-10
-3.55061e-10
1.2587e-10
-1.20331e-10
-4.79295e-11
1.82089e-10
-3.22248e-10
5.37091e-10
-7.06929e-10
9.31949e-10
-1.2095e-09
1.356e-09
-1.83543e-09
1.80036e-09
-2.58841e-09
2.25768e-09
-3.4706e-09
2.72184e-09
-4.48282e-09
3.18778e-09
-5.62477e-09
3.65133e-09
-6.89518e-09
4.10901e-09
-8.29195e-09
4.55796e-09
-9.8123e-09
4.99581e-09
-1.14529e-08
5.42059e-09
-1.32098e-08
5.83072e-09
-1.50787e-08
6.22485e-09
-1.70551e-08
6.60192e-09
-1.9134e-08
6.96104e-09
-2.13102e-08
7.30153e-09
-2.35785e-08
7.62284e-09
-2.59333e-08
7.92454e-09
-2.83691e-08
8.20632e-09
-3.08801e-08
8.46796e-09
-3.34606e-08
8.70933e-09
-3.61047e-08
8.93036e-09
-3.88068e-08
9.13104e-09
-4.15609e-08
9.31143e-09
-4.43612e-08
9.47161e-09
-4.7202e-08
9.61173e-09
-5.00775e-08
9.73195e-09
-5.2982e-08
9.83248e-09
-5.59099e-08
9.91355e-09
-5.88555e-08
9.97543e-09
-6.18134e-08
1.00184e-08
-6.47781e-08
1.00427e-08
-6.77443e-08
1.00487e-08
-7.07068e-08
1.00368e-08
-7.36603e-08
1.00072e-08
-7.65998e-08
9.96026e-09
-7.95203e-08
9.89644e-09
-8.2417e-08
9.81607e-09
-8.52852e-08
9.71954e-09
-8.81201e-08
9.60722e-09
-9.09173e-08
9.47953e-09
-9.36724e-08
9.33685e-09
-9.6381e-08
9.1796e-09
-9.9039e-08
9.00819e-09
-1.01642e-07
8.82304e-09
-1.04187e-07
8.62456e-09
-1.06669e-07
8.41317e-09
-1.09086e-07
8.18931e-09
-1.11432e-07
7.95339e-09
-1.13706e-07
7.70587e-09
-1.15903e-07
7.44716e-09
-1.1802e-07
7.1777e-09
-1.20055e-07
6.89794e-09
-1.22005e-07
6.60833e-09
-1.23866e-07
6.30931e-09
-1.25636e-07
6.00133e-09
-1.27313e-07
5.68485e-09
-1.28894e-07
5.36032e-09
-1.30377e-07
5.02819e-09
-1.3176e-07
4.68894e-09
-1.3304e-07
4.34302e-09
-1.34217e-07
3.99091e-09
-1.35288e-07
3.63307e-09
-1.36251e-07
3.26999e-09
-1.37107e-07
2.90214e-09
-1.37852e-07
2.53e-09
-1.38486e-07
2.15406e-09
-1.39009e-07
1.77481e-09
-1.39418e-07
1.39274e-09
-1.39714e-07
1.00836e-09
-1.39896e-07
6.22169e-10
-1.39964e-07
2.34665e-10
-1.39917e-07
-1.53638e-10
-1.39756e-07
-5.42224e-10
-1.3948e-07
-9.30576e-10
-1.3909e-07
-1.31817e-09
-1.38585e-07
-1.70448e-09
-1.37968e-07
-2.08897e-09
-1.37237e-07
-2.47111e-09
-1.36395e-07
-2.85036e-09
-1.35442e-07
-3.22617e-09
-1.34379e-07
-3.59802e-09
-1.33208e-07
-3.96534e-09
-1.31931e-07
-4.3276e-09
-1.30548e-07
-4.68424e-09
-1.29062e-07
-5.03471e-09
-1.27474e-07
-5.37845e-09
-1.25788e-07
-5.71491e-09
-1.24004e-07
-6.04353e-09
-1.22127e-07
-6.36376e-09
-1.20158e-07
-6.67505e-09
-1.18099e-07
-6.97683e-09
-1.15955e-07
-7.26856e-09
-1.13729e-07
-7.5497e-09
-1.11422e-07
-7.81969e-09
-1.0904e-07
-8.078e-09
-1.06585e-07
-8.32408e-09
-1.04062e-07
-8.55741e-09
-1.01474e-07
-8.77747e-09
-9.8825e-08
-8.98373e-09
-9.61197e-08
-9.17568e-09
-9.33622e-08
-9.35283e-09
-9.0557e-08
-9.51469e-09
-8.77088e-08
-9.66078e-09
-8.48224e-08
-9.79063e-09
-8.19025e-08
-9.9038e-09
-7.89543e-08
-9.99985e-09
-7.59829e-08
-1.00784e-08
-7.29934e-08
-1.01389e-08
-6.99913e-08
-1.01811e-08
-6.69821e-08
-1.02047e-08
-6.39712e-08
-1.02092e-08
-6.09643e-08
-1.01943e-08
-5.79671e-08
-1.01598e-08
-5.49855e-08
-1.01054e-08
-5.20252e-08
-1.00308e-08
-4.90921e-08
-9.93588e-09
-4.61923e-08
-9.82043e-09
-4.33316e-08
-9.68433e-09
-4.0516e-08
-9.52747e-09
-3.77516e-08
-9.34982e-09
-3.50442e-08
-9.15136e-09
-3.23999e-08
-8.93216e-09
-2.98246e-08
-8.69231e-09
-2.7324e-08
-8.432e-09
-2.49039e-08
-8.15146e-09
-2.25699e-08
-7.85101e-09
-2.03275e-08
-7.53107e-09
-1.81821e-08
-7.19215e-09
-1.61387e-08
-6.83486e-09
-1.42021e-08
-6.45998e-09
-1.23771e-08
-6.06841e-09
-1.06676e-08
-5.66123e-09
-9.07772e-09
-5.23973e-09
-7.61066e-09
-4.80543e-09
-6.26926e-09
-4.36016e-09
-5.05571e-09
-3.90606e-09
-3.97145e-09
-3.44568e-09
-3.01703e-09
-2.98205e-09
-2.19205e-09
-2.51876e-09
-1.49494e-09
-2.06012e-09
-9.22772e-10
-1.61123e-09
-4.71119e-10
-1.17822e-09
-1.33779e-10
-7.68383e-10
9.74487e-11
-3.90448e-10
2.3303e-10
-5.47975e-11
2.85981e-10
2.26268e-10
2.72196e-10
4.38285e-10
2.10876e-10
5.64416e-10
1.25138e-10
5.85403e-10
4.30325e-11
4.79587e-10
2.21436e-10
2.96831e-11
-2.48121e-10
7.57507e-11
-5.07826e-10
1.04035e-10
-5.75998e-10
8.68808e-11
-4.87207e-10
1.41778e-12
-2.69602e-10
-1.71282e-10
5.23737e-11
-4.46812e-10
4.57623e-10
-8.37841e-10
9.28123e-10
-1.35445e-09
1.44855e-09
-2.0044e-09
2.00595e-09
-2.79343e-09
2.5894e-09
-3.72545e-09
3.1897e-09
-4.80276e-09
3.79915e-09
-6.0263e-09
4.41132e-09
-7.39578e-09
5.0208e-09
-8.90985e-09
5.62308e-09
-1.05663e-08
6.21439e-09
-1.23621e-08
6.79158e-09
-1.42935e-08
7.35204e-09
-1.63564e-08
7.89358e-09
-1.85459e-08
8.41441e-09
-2.08571e-08
8.91306e-09
-2.32843e-08
9.3883e-09
-2.58219e-08
9.83916e-09
-2.8464e-08
1.02649e-08
-3.12042e-08
1.06648e-08
-3.40364e-08
1.10385e-08
-3.69541e-08
1.13856e-08
-3.99508e-08
1.1706e-08
-4.30199e-08
1.19995e-08
-4.61548e-08
1.2266e-08
-4.93489e-08
1.25056e-08
-5.25956e-08
1.27183e-08
-5.58883e-08
1.29044e-08
-5.92204e-08
1.30641e-08
-6.25855e-08
1.31975e-08
-6.59769e-08
1.3305e-08
-6.93885e-08
1.3387e-08
-7.28138e-08
1.34437e-08
-7.62465e-08
1.34755e-08
-7.96807e-08
1.34829e-08
-8.31102e-08
1.34662e-08
-8.6529e-08
1.3426e-08
-8.99314e-08
1.33627e-08
-9.33117e-08
1.32767e-08
-9.66643e-08
1.31686e-08
-9.99836e-08
1.30388e-08
-1.03264e-07
1.2888e-08
-1.06501e-07
1.27165e-08
-1.09689e-07
1.25249e-08
-1.12824e-07
1.23138e-08
-1.15899e-07
1.20838e-08
-1.18911e-07
1.18353e-08
-1.21856e-07
1.15689e-08
-1.24728e-07
1.12853e-08
-1.27523e-07
1.09849e-08
-1.30238e-07
1.06683e-08
-1.32869e-07
1.03362e-08
-1.3541e-07
9.98902e-09
-1.3786e-07
9.62746e-09
-1.40214e-07
9.25209e-09
-1.4247e-07
8.86349e-09
-1.44622e-07
8.46227e-09
-1.4667e-07
8.04903e-09
-1.4861e-07
7.62438e-09
-1.50438e-07
7.18893e-09
-1.52153e-07
6.7433e-09
-1.53753e-07
6.2881e-09
-1.55234e-07
5.82397e-09
-1.56594e-07
5.35153e-09
-1.57832e-07
4.87142e-09
-1.58947e-07
4.38427e-09
-1.59935e-07
3.89073e-09
-1.60797e-07
3.39146e-09
-1.6153e-07
2.88709e-09
-1.62133e-07
2.3783e-09
-1.62606e-07
1.86574e-09
-1.62948e-07
1.35009e-09
-1.63158e-07
8.32021e-10
-1.63235e-07
3.12212e-10
-1.6318e-07
-2.0865e-10
-1.62993e-07
-7.29874e-10
-1.62673e-07
-1.25076e-09
-1.6222e-07
-1.77062e-09
-1.61636e-07
-2.28873e-09
-1.60921e-07
-2.80438e-09
-1.60075e-07
-3.31686e-09
-1.591e-07
-3.82544e-09
-1.57996e-07
-4.3294e-09
-1.56766e-07
-4.82801e-09
-1.55411e-07
-5.32054e-09
-1.53933e-07
-5.80626e-09
-1.52332e-07
-6.28441e-09
-1.50613e-07
-6.75428e-09
-1.48776e-07
-7.2151e-09
-1.46825e-07
-7.66614e-09
-1.44762e-07
-8.10666e-09
-1.4259e-07
-8.53591e-09
-1.40312e-07
-8.95316e-09
-1.37931e-07
-9.35765e-09
-1.35451e-07
-9.74867e-09
-1.32875e-07
-1.01255e-08
-1.30207e-07
-1.04873e-08
-1.27452e-07
-1.08335e-08
-1.24612e-07
-1.11633e-08
-1.21694e-07
-1.14761e-08
-1.187e-07
-1.1771e-08
-1.15637e-07
-1.20475e-08
-1.12507e-07
-1.23048e-08
-1.09318e-07
-1.25423e-08
-1.06073e-07
-1.27593e-08
-1.02779e-07
-1.29552e-08
-9.94403e-08
-1.31294e-08
-9.60628e-08
-1.32813e-08
-9.26523e-08
-1.34103e-08
-8.92148e-08
-1.35159e-08
-8.57563e-08
-1.35975e-08
-8.22828e-08
-1.36546e-08
-7.88008e-08
-1.36867e-08
-7.53165e-08
-1.36934e-08
-7.18365e-08
-1.36744e-08
-6.83672e-08
-1.36291e-08
-6.49153e-08
-1.35573e-08
-6.14875e-08
-1.34586e-08
-5.80906e-08
-1.33328e-08
-5.47312e-08
-1.31798e-08
-5.14163e-08
-1.29992e-08
-4.81527e-08
-1.27911e-08
-4.49471e-08
-1.25554e-08
-4.18064e-08
-1.22921e-08
-3.87373e-08
-1.20012e-08
-3.57465e-08
-1.16831e-08
-3.28407e-08
-1.13379e-08
-3.00262e-08
-1.09659e-08
-2.73095e-08
-1.05677e-08
-2.46967e-08
-1.01439e-08
-2.21937e-08
-9.69507e-09
-1.98064e-08
-9.22219e-09
-1.75401e-08
-8.72629e-09
-1.53999e-08
-8.20861e-09
-1.33905e-08
-7.67065e-09
-1.1516e-08
-7.11415e-09
-9.7803e-09
-6.54118e-09
-8.18629e-09
-5.95416e-09
-6.73638e-09
-5.35598e-09
-5.43206e-09
-4.74999e-09
-4.27393e-09
-4.14018e-09
-3.26148e-09
-3.53121e-09
-2.39298e-09
-2.92862e-09
-1.66529e-09
-2.33892e-09
-1.07369e-09
-1.76982e-09
-6.11666e-10
-1.23041e-09
-2.70681e-10
-7.31433e-10
-3.99618e-11
-2.85515e-10
9.37777e-11
9.25311e-11
1.46647e-10
3.85414e-10
1.38003e-10
5.73057e-10
9.10219e-11
6.32384e-10
3.35796e-11
5.37031e-10
2.55014e-10
1.69386e-11
-2.6506e-10
2.96323e-11
-5.20523e-10
6.48129e-12
-5.52855e-10
-7.8801e-11
-4.01922e-10
-2.48262e-10
-1.00138e-10
-5.2032e-10
3.24432e-10
-9.10242e-10
8.47544e-10
-1.43052e-09
1.44839e-09
-2.09114e-09
2.10918e-09
-2.89988e-09
2.81469e-09
-3.86248e-09
3.552e-09
-4.9829e-09
4.31011e-09
-6.26347e-09
5.07973e-09
-7.70511e-09
5.85296e-09
-9.30749e-09
6.62317e-09
-1.10691e-08
7.38474e-09
-1.29877e-08
8.13293e-09
-1.50599e-08
8.86378e-09
-1.72818e-08
9.57392e-09
-1.96488e-08
1.02606e-08
-2.21558e-08
1.09214e-08
-2.47972e-08
1.15545e-08
-2.7567e-08
1.21582e-08
-3.04591e-08
1.27312e-08
-3.34668e-08
1.32725e-08
-3.65833e-08
1.37813e-08
-3.98018e-08
1.4257e-08
-4.31151e-08
1.46989e-08
-4.6516e-08
1.51069e-08
-4.99973e-08
1.54807e-08
-5.35516e-08
1.58203e-08
-5.71716e-08
1.61256e-08
-6.08499e-08
1.63966e-08
-6.45792e-08
1.66337e-08
-6.83522e-08
1.6837e-08
-7.21616e-08
1.70069e-08
-7.60001e-08
1.71435e-08
-7.98606e-08
1.72475e-08
-8.37361e-08
1.73191e-08
-8.76195e-08
1.73589e-08
-9.1504e-08
1.73674e-08
-9.53828e-08
1.73451e-08
-9.92493e-08
1.72925e-08
-1.03097e-07
1.72102e-08
-1.06919e-07
1.70989e-08
-1.1071e-07
1.69592e-08
-1.14462e-07
1.67916e-08
-1.18171e-07
1.6597e-08
-1.21831e-07
1.63758e-08
-1.25435e-07