/*--------------------------------*- C++ -*----------------------------------*\
  =========                 |
  \\      /  F ield         | OpenFOAM: The Open Source CFD Toolbox
   \\    /   O peration     | Website:  https://openfoam.org
    \\  /    A nd           | Version:  7
     \\/     M anipulation  |
\*---------------------------------------------------------------------------*/
FoamFile
{
    version     2.0;
    format      ascii;
    class       volVectorField;
    location    "0.1875";
    object      U;
}
// * * * * * * * * * * * * * * * * * * * * * * * * * * * * * * * * * * * * * //

dimensions      [0 1 -1 0 0 0 0];

internalField   nonuniform List<vector> 
25600
(
(2.00005e-07 -1.85349e-07 0)
(2.85451e-06 -1.77409e-06 0)
(9.07621e-06 -2.82142e-06 0)
(1.6904e-05 -3.19687e-06 0)
(2.48467e-05 -3.11397e-06 0)
(3.19413e-05 -2.73639e-06 0)
(3.75395e-05 -2.17166e-06 0)
(4.11882e-05 -1.49075e-06 0)
(4.25911e-05 -7.40676e-07 0)
(4.15542e-05 4.86586e-08 0)
(3.79619e-05 8.5621e-07 0)
(3.17506e-05 1.66837e-06 0)
(2.29005e-05 2.47472e-06 0)
(1.14211e-05 3.26746e-06 0)
(-2.65447e-06 4.04197e-06 0)
(-1.92744e-05 4.79459e-06 0)
(-3.83734e-05 5.52168e-06 0)
(-5.9875e-05 6.22157e-06 0)
(-8.36944e-05 6.8926e-06 0)
(-0.00010974 7.53351e-06 0)
(-0.000137916 8.14365e-06 0)
(-0.00016812 8.72171e-06 0)
(-0.000200251 9.26793e-06 0)
(-0.000234203 9.78153e-06 0)
(-0.00026987 1.02633e-05 0)
(-0.000307143 1.07128e-05 0)
(-0.000345914 1.113e-05 0)
(-0.000386077 1.15152e-05 0)
(-0.000427521 1.18684e-05 0)
(-0.000470142 1.21906e-05 0)
(-0.000513832 1.24816e-05 0)
(-0.000558484 1.27423e-05 0)
(-0.000603996 1.29728e-05 0)
(-0.000650265 1.31741e-05 0)
(-0.000697186 1.33464e-05 0)
(-0.000744662 1.349e-05 0)
(-0.000792593 1.36055e-05 0)
(-0.000840882 1.36934e-05 0)
(-0.000889434 1.37543e-05 0)
(-0.000938156 1.37889e-05 0)
(-0.000986955 1.37978e-05 0)
(-0.00103574 1.37814e-05 0)
(-0.00108443 1.37405e-05 0)
(-0.00113293 1.36755e-05 0)
(-0.00118117 1.35868e-05 0)
(-0.00122905 1.34753e-05 0)
(-0.0012765 1.33416e-05 0)
(-0.00132344 1.31861e-05 0)
(-0.0013698 1.30095e-05 0)
(-0.00141549 1.28123e-05 0)
(-0.00146046 1.25953e-05 0)
(-0.00150463 1.2359e-05 0)
(-0.00154793 1.21038e-05 0)
(-0.00159029 1.18306e-05 0)
(-0.00163166 1.154e-05 0)
(-0.00167197 1.12327e-05 0)
(-0.00171117 1.0909e-05 0)
(-0.00174919 1.05694e-05 0)
(-0.00178598 1.02146e-05 0)
(-0.00182149 9.84517e-06 0)
(-0.00185567 9.46192e-06 0)
(-0.00188847 9.06542e-06 0)
(-0.00191984 8.65633e-06 0)
(-0.00194974 8.23523e-06 0)
(-0.00197813 7.80248e-06 0)
(-0.00200496 7.35854e-06 0)
(-0.0020302 6.90412e-06 0)
(-0.00205382 6.4401e-06 0)
(-0.00207577 5.96735e-06 0)
(-0.00209604 5.48642e-06 0)
(-0.00211458 4.99765e-06 0)
(-0.00213138 4.50147e-06 0)
(-0.0021464 3.99851e-06 0)
(-0.00215964 3.48953e-06 0)
(-0.00217106 2.97535e-06 0)
(-0.00218065 2.45671e-06 0)
(-0.0021884 1.93423e-06 0)
(-0.00219428 1.40847e-06 0)
(-0.0021983 8.79981e-07 0)
(-0.00220045 3.49469e-07 0)
(-0.00220071 -1.82297e-07 0)
(-0.00219909 -7.14559e-07 0)
(-0.00219558 -1.24666e-06 0)
(-0.00219019 -1.77805e-06 0)
(-0.00218291 -2.30812e-06 0)
(-0.00217377 -2.836e-06 0)
(-0.00216277 -3.36077e-06 0)
(-0.00214991 -3.88162e-06 0)
(-0.00213522 -4.39793e-06 0)
(-0.00211871 -4.90912e-06 0)
(-0.0021004 -5.41462e-06 0)
(-0.00208031 -5.91364e-06 0)
(-0.00205848 -6.40523e-06 0)
(-0.00203492 -6.88846e-06 0)
(-0.00200967 -7.36255e-06 0)
(-0.00198277 -7.82688e-06 0)
(-0.00195424 -8.28082e-06 0)
(-0.00192413 -8.72369e-06 0)
(-0.00189247 -9.15462e-06 0)
(-0.00185932 -9.57266e-06 0)
(-0.00182472 -9.9769e-06 0)
(-0.00178872 -1.03666e-05 0)
(-0.00175137 -1.07412e-05 0)
(-0.00171272 -1.11001e-05 0)
(-0.00167284 -1.14424e-05 0)
(-0.00163179 -1.17673e-05 0)
(-0.00158963 -1.20738e-05 0)
(-0.00154642 -1.23611e-05 0)
(-0.00150223 -1.26288e-05 0)
(-0.00145714 -1.28762e-05 0)
(-0.00141122 -1.31025e-05 0)
(-0.00136454 -1.33068e-05 0)
(-0.00131718 -1.34885e-05 0)
(-0.00126923 -1.36467e-05 0)
(-0.00122076 -1.3781e-05 0)
(-0.00117187 -1.38906e-05 0)
(-0.00112263 -1.39751e-05 0)
(-0.00107314 -1.40339e-05 0)
(-0.0010235 -1.40663e-05 0)
(-0.000973788 -1.40717e-05 0)
(-0.000924109 -1.40493e-05 0)
(-0.000874557 -1.39985e-05 0)
(-0.000825234 -1.39189e-05 0)
(-0.000776238 -1.38105e-05 0)
(-0.000727673 -1.36728e-05 0)
(-0.000679642 -1.35051e-05 0)
(-0.000632249 -1.33069e-05 0)
(-0.000585601 -1.30778e-05 0)
(-0.000539803 -1.28177e-05 0)
(-0.000494963 -1.25262e-05 0)
(-0.000451188 -1.22034e-05 0)
(-0.000408588 -1.18493e-05 0)
(-0.000367269 -1.14638e-05 0)
(-0.000327339 -1.10467e-05 0)
(-0.000288905 -1.05978e-05 0)
(-0.000252075 -1.01172e-05 0)
(-0.000216953 -9.60492e-06 0)
(-0.000183644 -9.06159e-06 0)
(-0.00015225 -8.48771e-06 0)
(-0.000122869 -7.88375e-06 0)
(-9.5598e-05 -7.25035e-06 0)
(-7.05279e-05 -6.58866e-06 0)
(-4.77453e-05 -5.90017e-06 0)
(-2.73302e-05 -5.18658e-06 0)
(-9.35452e-06 -4.4498e-06 0)
(6.11929e-06 -3.69229e-06 0)
(1.90411e-05 -2.91734e-06 0)
(2.93761e-05 -2.12933e-06 0)
(3.71084e-05 -1.33415e-06 0)
(4.22469e-05 -5.39608e-07 0)
(4.48323e-05 2.43946e-07 0)
(4.49467e-05 1.00215e-06 0)
(4.27283e-05 1.71429e-06 0)
(3.83903e-05 2.3499e-06 0)
(3.22512e-05 2.86277e-06 0)
(2.47768e-05 3.18267e-06 0)
(1.66307e-05 3.20507e-06 0)
(8.76189e-06 2.77374e-06 0)
(2.64402e-06 1.69552e-06 0)
(1.24746e-07 1.25442e-07 0)
(1.79438e-06 -2.8613e-06 0)
(9.40851e-06 -9.37858e-06 0)
(2.3141e-05 -1.33885e-05 0)
(3.93554e-05 -1.46963e-05 0)
(5.51971e-05 -1.39271e-05 0)
(6.86837e-05 -1.16531e-05 0)
(7.82645e-05 -8.31652e-06 0)
(8.27921e-05 -4.24715e-06 0)
(8.14294e-05 3.14059e-07 0)
(7.36048e-05 5.19267e-06 0)
(5.8933e-05 1.02598e-05 0)
(3.71848e-05 1.54198e-05 0)
(8.24524e-06 2.05997e-05 0)
(-2.79083e-05 2.57448e-05 0)
(-7.12258e-05 3.0813e-05 0)
(-0.000121603 3.5771e-05 0)
(-0.000178887 4.05938e-05 0)
(-0.000242894 4.52605e-05 0)
(-0.000313408 4.97564e-05 0)
(-0.000390191 5.40688e-05 0)
(-0.00047299 5.81885e-05 0)
(-0.000561534 6.2109e-05 0)
(-0.000655544 6.58236e-05 0)
(-0.000754732 6.93301e-05 0)
(-0.000858803 7.26245e-05 0)
(-0.00096746 7.57073e-05 0)
(-0.0010804 7.85755e-05 0)
(-0.00119732 8.1231e-05 0)
(-0.00131792 8.3673e-05 0)
(-0.00144189 8.59032e-05 0)
(-0.00156894 8.79233e-05 0)
(-0.00169876 8.97352e-05 0)
(-0.00183105 9.13406e-05 0)
(-0.00196552 9.2743e-05 0)
(-0.00210188 9.39451e-05 0)
(-0.00223984 9.49493e-05 0)
(-0.00237911 9.57591e-05 0)
(-0.00251943 9.63781e-05 0)
(-0.00266051 9.68095e-05 0)
(-0.00280208 9.70567e-05 0)
(-0.00294388 9.71235e-05 0)
(-0.00308565 9.70136e-05 0)
(-0.00322714 9.6731e-05 0)
(-0.00336809 9.62794e-05 0)
(-0.00350826 9.56626e-05 0)
(-0.00364742 9.48848e-05 0)
(-0.00378533 9.39499e-05 0)
(-0.00392177 9.28619e-05 0)
(-0.00405651 9.16247e-05 0)
(-0.00418934 9.02427e-05 0)
(-0.00432006 8.87202e-05 0)
(-0.00444845 8.7061e-05 0)
(-0.00457432 8.52693e-05 0)
(-0.00469749 8.33492e-05 0)
(-0.00481776 8.13053e-05 0)
(-0.00493496 7.91417e-05 0)
(-0.00504892 7.68622e-05 0)
(-0.00515946 7.44711e-05 0)
(-0.00526644 7.19726e-05 0)
(-0.00536968 6.93707e-05 0)
(-0.00546906 6.66699e-05 0)
(-0.00556441 6.38744e-05 0)
(-0.00565562 6.09889e-05 0)
(-0.00574255 5.80175e-05 0)
(-0.00582507 5.49646e-05 0)
(-0.00590307 5.18341e-05 0)
(-0.00597645 4.86305e-05 0)
(-0.00604509 4.53584e-05 0)
(-0.0061089 4.20223e-05 0)
(-0.00616779 3.86266e-05 0)
(-0.00622167 3.51757e-05 0)
(-0.00627047 3.16739e-05 0)
(-0.00631412 2.81258e-05 0)
(-0.00635256 2.45362e-05 0)
(-0.00638571 2.09094e-05 0)
(-0.00641354 1.72503e-05 0)
(-0.00643601 1.35636e-05 0)
(-0.00645306 9.85409e-06 0)
(-0.00646468 6.12651e-06 0)
(-0.00647085 2.38544e-06 0)
(-0.00647154 -1.36431e-06 0)
(-0.00646674 -5.1177e-06 0)
(-0.00645647 -8.8696e-06 0)
(-0.00644071 -1.2615e-05 0)
(-0.0064195 -1.63491e-05 0)
(-0.00639284 -2.00668e-05 0)
(-0.00636076 -2.37628e-05 0)
(-0.00632331 -2.74317e-05 0)
(-0.00628052 -3.10684e-05 0)
(-0.00623245 -3.46677e-05 0)
(-0.00617915 -3.82246e-05 0)
(-0.00612069 -4.17339e-05 0)
(-0.00605716 -4.51903e-05 0)
(-0.00598861 -4.85881e-05 0)
(-0.00591516 -5.19219e-05 0)
(-0.0058369 -5.51862e-05 0)
(-0.00575392 -5.83757e-05 0)
(-0.00566635 -6.1485e-05 0)
(-0.00557431 -6.45087e-05 0)
(-0.00547793 -6.74413e-05 0)
(-0.00537734 -7.02774e-05 0)
(-0.00527269 -7.30116e-05 0)
(-0.00516413 -7.56386e-05 0)
(-0.00505182 -7.81529e-05 0)
(-0.00493594 -8.05494e-05 0)
(-0.00481666 -8.28228e-05 0)
(-0.00469416 -8.49674e-05 0)
(-0.00456863 -8.69779e-05 0)
(-0.00444028 -8.88495e-05 0)
(-0.00430931 -9.05772e-05 0)
(-0.00417593 -9.21562e-05 0)
(-0.00404036 -9.35813e-05 0)
(-0.00390284 -9.48479e-05 0)
(-0.0037636 -9.59512e-05 0)
(-0.00362287 -9.68867e-05 0)
(-0.0034809 -9.76499e-05 0)
(-0.00333796 -9.82366e-05 0)
(-0.00319429 -9.86428e-05 0)
(-0.00305016 -9.88647e-05 0)
(-0.00290585 -9.88982e-05 0)
(-0.00276163 -9.87396e-05 0)
(-0.00261778 -9.83852e-05 0)
(-0.00247459 -9.78319e-05 0)
(-0.00233234 -9.7077e-05 0)
(-0.00219133 -9.61182e-05 0)
(-0.00205186 -9.49529e-05 0)
(-0.00191423 -9.35789e-05 0)
(-0.00177873 -9.19941e-05 0)
(-0.00164568 -9.01972e-05 0)
(-0.00151537 -8.81871e-05 0)
(-0.00138812 -8.59632e-05 0)
(-0.00126422 -8.35254e-05 0)
(-0.001144 -8.08739e-05 0)
(-0.00102774 -7.80097e-05 0)
(-0.00091576 -7.49342e-05 0)
(-0.000808347 -7.1649e-05 0)
(-0.000705799 -6.81568e-05 0)
(-0.000608404 -6.44617e-05 0)
(-0.000516442 -6.05688e-05 0)
(-0.000430183 -5.64842e-05 0)
(-0.000349886 -5.2216e-05 0)
(-0.000275797 -4.77738e-05 0)
(-0.000208142 -4.31695e-05 0)
(-0.000147126 -3.8418e-05 0)
(-9.29296e-05 -3.35375e-05 0)
(-4.57012e-05 -2.85502e-05 0)
(-5.54979e-06 -2.3484e-05 0)
(2.74632e-05 -1.83741e-05 0)
(5.33356e-05 -1.32651e-05 0)
(7.21395e-05 -8.21396e-06 0)
(8.40395e-05 -3.29456e-06 0)
(8.93185e-05 1.39664e-06 0)
(8.84094e-05 5.73118e-06 0)
(8.19375e-05 9.53583e-06 0)
(7.07758e-05 1.25747e-05 0)
(5.61131e-05 1.45277e-05 0)
(3.95033e-05 1.49718e-05 0)
(2.29257e-05 1.33683e-05 0)
(9.15206e-06 9.15993e-06 0)
(1.69054e-06 2.64178e-06 0)
(2.83249e-06 -9.08706e-06 0)
(1.34142e-05 -2.31297e-05 0)
(3.10674e-05 -3.10208e-05 0)
(5.08029e-05 -3.30699e-05 0)
(6.90398e-05 -3.0373e-05 0)
(8.3201e-05 -2.40255e-05 0)
(9.12177e-05 -1.49566e-05 0)
(9.14388e-05 -3.91366e-06 0)
(8.26425e-05 8.52287e-06 0)
(6.39304e-05 2.1905e-05 0)
(3.46857e-05 3.58885e-05 0)
(-5.49316e-06 5.02069e-05 0)
(-5.68259e-05 6.46529e-05 0)
(-0.000119391 7.9065e-05 0)
(-0.000193153 9.33156e-05 0)
(-0.000277983 0.000107305 0)
(-0.000373677 0.000120952 0)
(-0.00047997 0.000134194 0)
(-0.000596548 0.00014698 0)
(-0.00072306 0.000159271 0)
(-0.000859119 0.000171036 0)
(-0.00100432 0.00018225 0)
(-0.00115822 0.000192895 0)
(-0.00132038 0.000202956 0)
(-0.00149035 0.000212423 0)
(-0.00166765 0.000221289 0)
(-0.00185181 0.000229551 0)
(-0.00204235 0.000237204 0)
(-0.00223879 0.000244252 0)
(-0.00244065 0.000250694 0)
(-0.00264745 0.000256535 0)
(-0.00285871 0.000261777 0)
(-0.00307395 0.000266427 0)
(-0.00329271 0.000270491 0)
(-0.0035145 0.000273976 0)
(-0.00373888 0.00027689 0)
(-0.00396539 0.000279242 0)
(-0.00419357 0.000281041 0)
(-0.00442298 0.000282296 0)
(-0.00465318 0.000283017 0)
(-0.00488376 0.000283215 0)
(-0.00511428 0.000282898 0)
(-0.00534434 0.000282079 0)
(-0.00557353 0.000280768 0)
(-0.00580146 0.000278976 0)
(-0.00602774 0.000276715 0)
(-0.00625199 0.000273996 0)
(-0.00647385 0.00027083 0)
(-0.00669296 0.000267229 0)
(-0.00690896 0.000263206 0)
(-0.00712153 0.000258771 0)
(-0.00733032 0.000253938 0)
(-0.00753502 0.000248717 0)
(-0.00773532 0.000243122 0)
(-0.00793091 0.000237164 0)
(-0.00812151 0.000230855 0)
(-0.00830684 0.000224207 0)
(-0.00848662 0.000217233 0)
(-0.00866058 0.000209945 0)
(-0.00882849 0.000202355 0)
(-0.0089901 0.000194476 0)
(-0.00914517 0.000186319 0)
(-0.00929349 0.000177899 0)
(-0.00943485 0.000169227 0)
(-0.00956904 0.000160317 0)
(-0.00969587 0.000151181 0)
(-0.00981518 0.000141831 0)
(-0.00992678 0.000132281 0)
(-0.0100305 0.000122543 0)
(-0.0101263 0.000112631 0)
(-0.0102138 0.000102557 0)
(-0.0102932 9.23348e-05 0)
(-0.0103641 8.19783e-05 0)
(-0.0104265 7.15007e-05 0)
(-0.0104804 6.09153e-05 0)
(-0.0105256 5.02357e-05 0)
(-0.010562 3.94757e-05 0)
(-0.0105897 2.86494e-05 0)
(-0.0106085 1.77708e-05 0)
(-0.0106185 6.85374e-06 0)
(-0.0106195 -4.08771e-06 0)
(-0.0106116 -1.50389e-05 0)
(-0.0105948 -2.59853e-05 0)
(-0.0105691 -3.6912e-05 0)
(-0.0105345 -4.78046e-05 0)
(-0.0104911 -5.86482e-05 0)
(-0.0104388 -6.94274e-05 0)
(-0.0103778 -8.01269e-05 0)
(-0.0103081 -9.07316e-05 0)
(-0.0102299 -0.000101226 0)
(-0.0101431 -0.000111596 0)
(-0.010048 -0.000121825 0)
(-0.0099446 -0.000131899 0)
(-0.00983308 -0.000141801 0)
(-0.00971358 -0.000151515 0)
(-0.00958625 -0.000161025 0)
(-0.00945128 -0.000170317 0)
(-0.00930885 -0.000179373 0)
(-0.00915916 -0.000188178 0)
(-0.00900242 -0.000196717 0)
(-0.00883885 -0.000204974 0)
(-0.00866869 -0.000212933 0)
(-0.00849218 -0.000220578 0)
(-0.0083096 -0.000227894 0)
(-0.00812122 -0.000234866 0)
(-0.00792731 -0.000241478 0)
(-0.00772819 -0.000247714 0)
(-0.00752416 -0.000253561 0)
(-0.00731555 -0.000259002 0)
(-0.00710269 -0.000264024 0)
(-0.00688593 -0.000268611 0)
(-0.00666563 -0.000272751 0)
(-0.00644216 -0.00027643 0)
(-0.00621589 -0.000279634 0)
(-0.00598721 -0.00028235 0)
(-0.00575654 -0.000284565 0)
(-0.00552427 -0.000286268 0)
(-0.00529083 -0.000287446 0)
(-0.00505665 -0.000288089 0)
(-0.00482217 -0.000288185 0)
(-0.00458782 -0.000287725 0)
(-0.00435407 -0.0002867 0)
(-0.00412137 -0.000285099 0)
(-0.00389019 -0.000282915 0)
(-0.003661 -0.000280141 0)
(-0.00343429 -0.000276772 0)
(-0.00321052 -0.000272801 0)
(-0.00299019 -0.000268223 0)
(-0.00277378 -0.000263036 0)
(-0.00256179 -0.000257237 0)
(-0.00235469 -0.000250826 0)
(-0.00215299 -0.000243802 0)
(-0.00195715 -0.000236168 0)
(-0.00176768 -0.000227927 0)
(-0.00158504 -0.000219086 0)
(-0.00140972 -0.000209652 0)
(-0.00124215 -0.000199635 0)
(-0.00108281 -0.000189048 0)
(-0.000932126 -0.000177909 0)
(-0.000790514 -0.00016624 0)
(-0.000658374 -0.000154064 0)
(-0.000536078 -0.000141415 0)
(-0.000423967 -0.00012833 0)
(-0.000322346 -0.000114856 0)
(-0.000231475 -0.000101051 0)
(-0.00015156 -8.69835e-05 0)
(-8.27398e-05 -7.27404e-05 0)
(-2.50776e-05 -5.84275e-05 0)
(2.14613e-05 -4.41771e-05 0)
(5.70295e-05 -3.01552e-05 0)
(8.1924e-05 -1.65714e-05 0)
(9.6619e-05 -3.6923e-06 0)
(0.000101807 8.14015e-06 0)
(9.8449e-05 1.8486e-05 0)
(8.78329e-05 2.67797e-05 0)
(7.16404e-05 3.23028e-05 0)
(5.19712e-05 3.41736e-05 0)
(3.13667e-05 3.13735e-05 0)
(1.33547e-05 2.2929e-05 0)
(2.76494e-06 8.74929e-06 0)
(3.20604e-06 -1.69414e-05 0)
(1.47445e-05 -3.93769e-05 0)
(3.31751e-05 -5.07788e-05 0)
(5.26465e-05 -5.25045e-05 0)
(6.90403e-05 -4.62868e-05 0)
(7.94599e-05 -3.38022e-05 0)
(8.14799e-05 -1.65121e-05 0)
(7.31627e-05 4.36996e-06 0)
(5.29952e-05 2.78622e-05 0)
(1.98568e-05 5.31817e-05 0)
(-2.70635e-05 7.97055e-05 0)
(-8.83062e-05 0.000106942 0)
(-0.000164192 0.000134498 0)
(-0.000254861 0.000162063 0)
(-0.000360302 0.000189384 0)
(-0.000480378 0.000216263 0)
(-0.000614855 0.000242539 0)
(-0.000763411 0.000268081 0)
(-0.000925658 0.000292786 0)
(-0.00110115 0.00031657 0)
(-0.00128939 0.000339366 0)
(-0.00148986 0.000361122 0)
(-0.00170199 0.000381798 0)
(-0.00192521 0.000401358 0)
(-0.0021589 0.000419784 0)
(-0.00240245 0.000437054 0)
(-0.00265524 0.000453159 0)
(-0.00291663 0.000468091 0)
(-0.00318597 0.000481849 0)
(-0.00346262 0.000494433 0)
(-0.00374594 0.000505848 0)
(-0.00403529 0.0005161 0)
(-0.00433002 0.000525197 0)
(-0.0046295 0.000533152 0)
(-0.0049331 0.000539976 0)
(-0.00524018 0.000545685 0)
(-0.00555014 0.000550293 0)
(-0.00586237 0.000553817 0)
(-0.00617626 0.000556276 0)
(-0.00649122 0.000557687 0)
(-0.00680667 0.000558069 0)
(-0.00712204 0.000557443 0)
(-0.00743676 0.000555829 0)
(-0.00775029 0.000553248 0)
(-0.00806209 0.00054972 0)
(-0.00837163 0.000545269 0)
(-0.0086784 0.000539916 0)
(-0.0089819 0.000533684 0)
(-0.00928163 0.000526594 0)
(-0.00957712 0.000518672 0)
(-0.0098679 0.000509939 0)
(-0.0101535 0.000500419 0)
(-0.0104335 0.000490135 0)
(-0.0107075 0.000479113 0)
(-0.0109751 0.000467374 0)
(-0.0112358 0.000454942 0)
(-0.0114894 0.000441843 0)
(-0.0117353 0.000428099 0)
(-0.0119733 0.000413735 0)
(-0.012203 0.000398775 0)
(-0.012424 0.000383245 0)
(-0.0126361 0.000367167 0)
(-0.012839 0.000350569 0)
(-0.0130324 0.000333474 0)
(-0.0132159 0.000315907 0)
(-0.0133894 0.000297894 0)
(-0.0135526 0.000279461 0)
(-0.0137052 0.000260632 0)
(-0.013847 0.000241433 0)
(-0.013978 0.00022189 0)
(-0.0140977 0.000202028 0)
(-0.0142062 0.000181875 0)
(-0.0143031 0.000161456 0)
(-0.0143885 0.000140798 0)
(-0.0144621 0.000119929 0)
(-0.0145238 9.88744e-05 0)
(-0.0145736 7.76623e-05 0)
(-0.0146113 5.63201e-05 0)
(-0.014637 3.48753e-05 0)
(-0.0146504 1.33556e-05 0)
(-0.0146518 -8.21077e-06 0)
(-0.0146409 -2.97953e-05 0)
(-0.0146178 -5.1369e-05 0)
(-0.0145825 -7.29031e-05 0)
(-0.014535 -9.43684e-05 0)
(-0.0144755 -0.000115736 0)
(-0.0144039 -0.000136975 0)
(-0.0143204 -0.000158056 0)
(-0.014225 -0.000178949 0)
(-0.0141178 -0.000199624 0)
(-0.0139991 -0.000220051 0)
(-0.0138689 -0.000240199 0)
(-0.0137273 -0.000260038 0)
(-0.0135747 -0.000279537 0)
(-0.0134112 -0.000298665 0)
(-0.013237 -0.000317391 0)
(-0.0130523 -0.000335684 0)
(-0.0128575 -0.000353512 0)
(-0.0126527 -0.000370844 0)
(-0.0124383 -0.00038765 0)
(-0.0122145 -0.0004039 0)
(-0.0119818 -0.000419561 0)
(-0.0117404 -0.000434604 0)
(-0.0114907 -0.000448998 0)
(-0.0112331 -0.000462712 0)
(-0.010968 -0.000475717 0)
(-0.0106957 -0.000487983 0)
(-0.0104167 -0.00049948 0)
(-0.0101315 -0.00051018 0)
(-0.00984045 -0.000520054 0)
(-0.0095441 -0.000529074 0)
(-0.00924291 -0.000537213 0)
(-0.00893739 -0.000544444 0)
(-0.00862806 -0.000550742 0)
(-0.00831544 -0.000556082 0)
(-0.00800009 -0.000560438 0)
(-0.00768256 -0.000563788 0)
(-0.00736342 -0.000566108 0)
(-0.00704326 -0.000567377 0)
(-0.00672267 -0.000567575 0)
(-0.00640226 -0.000566683 0)
(-0.00608263 -0.000564682 0)
(-0.00576443 -0.000561556 0)
(-0.00544826 -0.000557291 0)
(-0.00513479 -0.000551871 0)
(-0.00482465 -0.000545288 0)
(-0.00451848 -0.00053753 0)
(-0.00421695 -0.00052859 0)
(-0.00392072 -0.000518462 0)
(-0.00363043 -0.000507143 0)
(-0.00334675 -0.000494634 0)
(-0.00307034 -0.000480936 0)
(-0.00280183 -0.000466056 0)
(-0.00254189 -0.000450003 0)
(-0.00229114 -0.00043279 0)
(-0.00205021 -0.000414435 0)
(-0.00181971 -0.000394962 0)
(-0.00160024 -0.000374399 0)
(-0.00139237 -0.000352784 0)
(-0.00119664 -0.000330162 0)
(-0.00101358 -0.000306587 0)
(-0.000843654 -0.000282124 0)
(-0.000687306 -0.000256854 0)
(-0.000544917 -0.000230873 0)
(-0.000416805 -0.000204297 0)
(-0.000303216 -0.000177269 0)
(-0.000204303 -0.000149959 0)
(-0.000120116 -0.00012258 0)
(-5.05767e-05 -9.53878e-05 0)
(4.54775e-06 -6.87019e-05 0)
(4.56726e-05 -4.29172e-05 0)
(7.34327e-05 -1.85255e-05 0)
(8.87247e-05 3.85915e-06 0)
(9.27561e-05 2.34703e-05 0)
(8.71014e-05 3.93567e-05 0)
(7.37603e-05 5.03547e-05 0)
(5.51682e-05 5.50828e-05 0)
(3.42224e-05 5.19867e-05 0)
(1.49757e-05 3.95128e-05 0)
(3.19758e-06 1.66078e-05 0)
(3.12819e-06 -2.491e-05 0)
(1.40115e-05 -5.52989e-05 0)
(3.05923e-05 -6.90921e-05 0)
(4.66281e-05 -6.89369e-05 0)
(5.77477e-05 -5.73443e-05 0)
(6.08081e-05 -3.66179e-05 0)
(5.32138e-05 -8.76733e-06 0)
(3.28219e-05 2.45133e-05 0)
(-2.041e-06 6.18219e-05 0)
(-5.26632e-05 0.000102013 0)
(-0.000119985 0.000144155 0)
(-0.000204657 0.000187495 0)
(-0.000307081 0.000231424 0)
(-0.000427449 0.000275445 0)
(-0.000565777 0.000319158 0)
(-0.00072193 0.000362235 0)
(-0.00089565 0.000404412 0)
(-0.00108658 0.000445472 0)
(-0.00129426 0.000485241 0)
(-0.00151818 0.000523576 0)
(-0.00175776 0.000560361 0)
(-0.00201237 0.000595505 0)
(-0.00228133 0.000628934 0)
(-0.00256395 0.000660592 0)
(-0.00285949 0.000690433 0)
(-0.00316722 0.000718427 0)
(-0.00348635 0.000744548 0)
(-0.00381611 0.000768784 0)
(-0.00415573 0.000791125 0)
(-0.0045044 0.000811571 0)
(-0.00486133 0.000830125 0)
(-0.00522573 0.000846796 0)
(-0.00559681 0.000861595 0)
(-0.00597378 0.000874538 0)
(-0.00635586 0.000885645 0)
(-0.00674226 0.000894935 0)
(-0.00713223 0.000902434 0)
(-0.00752499 0.000908166 0)
(-0.00791982 0.000912161 0)
(-0.00831595 0.000914445 0)
(-0.00871268 0.00091505 0)
(-0.00910928 0.000914007 0)
(-0.00950505 0.000911349 0)
(-0.00989931 0.000907109 0)
(-0.0102914 0.000901321 0)
(-0.0106806 0.000894021 0)
(-0.0110663 0.000885244 0)
(-0.0114479 0.000875027 0)
(-0.0118248 0.000863406 0)
(-0.0121963 0.000850419 0)
(-0.0125619 0.000836103 0)
(-0.012921 0.000820496 0)
(-0.0132731 0.000803638 0)
(-0.0136176 0.000785565 0)
(-0.013954 0.000766318 0)
(-0.0142818 0.000745935 0)
(-0.0146005 0.000724454 0)
(-0.0149097 0.000701917 0)
(-0.0152089 0.000678361 0)
(-0.0154977 0.000653828 0)
(-0.0157756 0.000628358 0)
(-0.0160423 0.00060199 0)
(-0.0162973 0.000574767 0)
(-0.0165404 0.000546728 0)
(-0.0167711 0.000517916 0)
(-0.0169891 0.000488371 0)
(-0.0171942 0.000458134 0)
(-0.0173861 0.00042725 0)
(-0.0175644 0.000395758 0)
(-0.0177289 0.000363702 0)
(-0.0178794 0.000331124 0)
(-0.0180156 0.000298068 0)
(-0.0181374 0.000264576 0)
(-0.0182446 0.000230694 0)
(-0.018337 0.000196464 0)
(-0.0184146 0.000161932 0)
(-0.018477 0.000127142 0)
(-0.0185244 9.21401e-05 0)
(-0.0185565 5.69709e-05 0)
(-0.0185733 2.16803e-05 0)
(-0.0185749 -1.36852e-05 0)
(-0.018561 -4.90787e-05 0)
(-0.0185319 -8.44531e-05 0)
(-0.0184874 -0.000119761 0)
(-0.0184276 -0.000154954 0)
(-0.0183527 -0.000189984 0)
(-0.0182625 -0.000224802 0)
(-0.0181574 -0.000259359 0)
(-0.0180374 -0.000293606 0)
(-0.0179025 -0.000327494 0)
(-0.0177531 -0.000360974 0)
(-0.0175894 -0.000393994 0)
(-0.0174114 -0.000426505 0)
(-0.0172194 -0.000458456 0)
(-0.0170138 -0.000489797 0)
(-0.0167947 -0.000520476 0)
(-0.0165625 -0.000550444 0)
(-0.0163175 -0.000579649 0)
(-0.0160601 -0.00060804 0)
(-0.0157905 -0.000635566 0)
(-0.0155093 -0.000662178 0)
(-0.0152167 -0.000687826 0)
(-0.0149133 -0.000712458 0)
(-0.0145995 -0.000736027 0)
(-0.0142757 -0.000758481 0)
(-0.0139424 -0.000779772 0)
(-0.0136002 -0.000799852 0)
(-0.0132496 -0.000818673 0)
(-0.0128912 -0.000836187 0)
(-0.0125255 -0.00085235 0)
(-0.0121531 -0.000867115 0)
(-0.0117746 -0.000880438 0)
(-0.0113906 -0.000892277 0)
(-0.0110019 -0.00090259 0)
(-0.0106091 -0.000911335 0)
(-0.0102128 -0.000918473 0)
(-0.00981374 -0.000923967 0)
(-0.00941266 -0.000927779 0)
(-0.00901029 -0.000929877 0)
(-0.00860735 -0.000930226 0)
(-0.0082046 -0.000928797 0)
(-0.00780281 -0.000925561 0)
(-0.00740276 -0.000920493 0)
(-0.00700523 -0.00091357 0)
(-0.00661102 -0.00090477 0)
(-0.00622093 -0.000894076 0)
(-0.00583577 -0.000881474 0)
(-0.00545634 -0.000866952 0)
(-0.00508347 -0.000850505 0)
(-0.00471796 -0.000832129 0)
(-0.00436062 -0.000811824 0)
(-0.00401227 -0.0007896 0)
(-0.0036737 -0.000765466 0)
(-0.00334572 -0.000739443 0)
(-0.00302909 -0.000711553 0)
(-0.00272458 -0.000681832 0)
(-0.00243294 -0.000650319 0)
(-0.00215489 -0.000617069 0)
(-0.00189112 -0.000582144 0)
(-0.0016423 -0.000545624 0)
(-0.00140903 -0.0005076 0)
(-0.00119188 -0.000468188 0)
(-0.00099138 -0.000427521 0)
(-0.000807959 -0.000385762 0)
(-0.000641988 -0.000343105 0)
(-0.000493737 -0.000299786 0)
(-0.000363369 -0.000256085 0)
(-0.000250915 -0.000212345 0)
(-0.000156255 -0.000168977 0)
(-7.90891e-05 -0.000126486 0)
(-1.89058e-05 -8.54826e-05 0)
(2.50521e-05 -4.67179e-05 0)
(5.38289e-05 -1.11077e-05 0)
(6.88015e-05 2.023e-05 0)
(7.17301e-05 4.59403e-05 0)
(6.48107e-05 6.44012e-05 0)
(5.0686e-05 7.3713e-05 0)
(3.24876e-05 7.17316e-05 0)
(1.45816e-05 5.61746e-05 0)
(3.18302e-06 2.47594e-05 0)
(2.75997e-06 -3.20606e-05 0)
(1.18045e-05 -6.89292e-05 0)
(2.44143e-05 -8.34365e-05 0)
(3.44495e-05 -7.95021e-05 0)
(3.7462e-05 -6.04673e-05 0)
(3.02173e-05 -2.92901e-05 0)
(1.00036e-05 1.14646e-05 0)
(-2.54009e-05 5.96181e-05 0)
(-7.7778e-05 0.000113344 0)
(-0.000148501 0.000171123 0)
(-0.000238599 0.0002317 0)
(-0.000348797 0.000294042 0)
(-0.000479552 0.000357296 0)
(-0.000631094 0.000420765 0)
(-0.00080346 0.000483873 0)
(-0.000996516 0.000546146 0)
(-0.00120999 0.000607196 0)
(-0.00144348 0.000666702 0)
(-0.0016965 0.000724402 0)
(-0.00196846 0.00078008 0)
(-0.0022587 0.000833562 0)
(-0.00256652 0.000884704 0)
(-0.00289114 0.000933392 0)
(-0.00323176 0.000979536 0)
(-0.00358753 0.00102306 0)
(-0.0039576 0.00106392 0)
(-0.00434108 0.00110207 0)
(-0.00473705 0.00113748 0)
(-0.00514459 0.00117015 0)
(-0.0055628 0.00120005 0)
(-0.00599073 0.0012272 0)
(-0.00642746 0.00125159 0)
(-0.00687204 0.00127326 0)
(-0.00732356 0.00129221 0)
(-0.0077811 0.00130847 0)
(-0.00824372 0.00132207 0)
(-0.00871054 0.00133304 0)
(-0.00918063 0.00134142 0)
(-0.00965313 0.00134725 0)
(-0.0101272 0.00135056 0)
(-0.0106018 0.00135141 0)
(-0.0110763 0.00134983 0)
(-0.0115498 0.00134587 0)
(-0.0120215 0.00133959 0)
(-0.0124905 0.00133102 0)
(-0.012956 0.00132023 0)
(-0.0134174 0.00130726 0)
(-0.0138738 0.00129216 0)
(-0.0143246 0.00127499 0)
(-0.0147689 0.00125581 0)
(-0.0152062 0.00123467 0)
(-0.0156357 0.00121162 0)
(-0.0160568 0.00118672 0)
(-0.0164688 0.00116003 0)
(-0.0168711 0.0011316 0)
(-0.0172631 0.0011015 0)
(-0.0176443 0.00106977 0)
(-0.018014 0.00103648 0)
(-0.0183718 0.00100169 0)
(-0.0187171 0.000965455 0)
(-0.0190494 0.000927833 0)
(-0.0193683 0.000888886 0)
(-0.0196732 0.000848674 0)
(-0.0199639 0.000807257 0)
(-0.0202397 0.000764696 0)
(-0.0205004 0.000721053 0)
(-0.0207456 0.00067639 0)
(-0.020975 0.000630767 0)
(-0.0211881 0.000584248 0)
(-0.0213847 0.000536895 0)
(-0.0215646 0.000488773 0)
(-0.0217274 0.000439944 0)
(-0.021873 0.000390474 0)
(-0.0220011 0.000340426 0)
(-0.0221115 0.000289867 0)
(-0.0222041 0.000238862 0)
(-0.0222787 0.000187478 0)
(-0.0223351 0.000135781 0)
(-0.0223734 8.38397e-05 0)
(-0.0223934 3.17209e-05 0)
(-0.0223951 -2.05063e-05 0)
(-0.0223785 -7.27729e-05 0)
(-0.0223435 -0.000125009 0)
(-0.0222901 -0.000177144 0)
(-0.0222185 -0.000229108 0)
(-0.0221287 -0.000280829 0)
(-0.0220209 -0.000332234 0)
(-0.021895 -0.000383252 0)
(-0.0217513 -0.000433809 0)
(-0.02159 -0.000483833 0)
(-0.0214113 -0.000533251 0)
(-0.0212153 -0.000581989 0)
(-0.0210024 -0.000629972 0)
(-0.0207728 -0.000677126 0)
(-0.0205269 -0.000723377 0)
(-0.0202649 -0.000768649 0)
(-0.0199872 -0.000812867 0)
(-0.0196942 -0.000855958 0)
(-0.0193864 -0.000897845 0)
(-0.0190641 -0.000938455 0)
(-0.0187278 -0.000977714 0)
(-0.018378 -0.00101555 0)
(-0.0180152 -0.00105188 0)
(-0.01764 -0.00108664 0)
(-0.0172529 -0.00111976 0)
(-0.0168545 -0.00115116 0)
(-0.0164454 -0.00118078 0)
(-0.0160263 -0.00120854 0)
(-0.0155977 -0.00123437 0)
(-0.0151605 -0.00125821 0)
(-0.0147153 -0.00127998 0)
(-0.0142629 -0.00129964 0)
(-0.0138039 -0.00131711 0)
(-0.0133392 -0.00133233 0)
(-0.0128696 -0.00134524 0)
(-0.0123958 -0.00135579 0)
(-0.0119187 -0.00136392 0)
(-0.0114392 -0.00136957 0)
(-0.0109581 -0.00137271 0)
(-0.0104762 -0.00137327 0)
(-0.00999457 -0.00137123 0)
(-0.00951401 -0.00136653 0)
(-0.00903548 -0.00135915 0)
(-0.00855989 -0.00134904 0)
(-0.00808818 -0.00133619 0)
(-0.00762131 -0.00132056 0)
(-0.00716023 -0.00130213 0)
(-0.00670589 -0.00128091 0)
(-0.00625925 -0.00125686 0)
(-0.00582127 -0.00123 0)
(-0.0053929 -0.00120033 0)
(-0.0049751 -0.00116787 0)
(-0.00456879 -0.00113262 0)
(-0.00417491 -0.00109463 0)
(-0.00379436 -0.00105394 0)
(-0.00342804 -0.00101059 0)
(-0.00307681 -0.000964662 0)
(-0.0027415 -0.000916228 0)
(-0.00242291 -0.000865391 0)
(-0.00212181 -0.00081227 0)
(-0.00183889 -0.00075701 0)
(-0.0015748 -0.000699781 0)
(-0.00133012 -0.000640788 0)
(-0.00110534 -0.000580273 0)
(-0.000900873 -0.000518527 0)
(-0.000717007 -0.000455895 0)
(-0.000553909 -0.000392787 0)
(-0.000411597 -0.000329698 0)
(-0.000289917 -0.000267216 0)
(-0.00018852 -0.000206051 0)
(-0.000106825 -0.000147055 0)
(-4.3991e-05 -9.12542e-05 0)
(1.12432e-06 -3.98828e-05 0)
(3.00027e-05 5.57981e-06 0)
(4.45125e-05 4.33691e-05 0)
(4.69579e-05 7.14003e-05 0)
(4.00955e-05 8.72432e-05 0)
(2.71913e-05 8.81288e-05 0)
(1.27152e-05 7.09795e-05 0)
(2.8781e-06 3.22738e-05 0)
(2.21245e-06 -3.77535e-05 0)
(8.56017e-06 -7.87587e-05 0)
(1.55785e-05 -9.17679e-05 0)
(1.7558e-05 -8.18321e-05 0)
(1.01909e-05 -5.30938e-05 0)
(-9.7837e-06 -9.16057e-06 0)
(-4.50804e-05 4.68551e-05 0)
(-9.79538e-05 0.000112298 0)
(-0.00017021 0.00018492 0)
(-0.000263268 0.000262831 0)
(-0.000378196 0.000344446 0)
(-0.000515757 0.00042844 0)
(-0.000676439 0.00051371 0)
(-0.000860496 0.000599339 0)
(-0.00106797 0.000684561 0)
(-0.00129873 0.000768742 0)
(-0.00155247 0.000851352 0)
(-0.00182878 0.000931954 0)
(-0.00212712 0.00101018 0)
(-0.00244684 0.00108574 0)
(-0.00278723 0.00115838 0)
(-0.0031475 0.0012279 0)
(-0.00352679 0.00129413 0)
(-0.00392422 0.00135694 0)
(-0.00433883 0.00141623 0)
(-0.00476966 0.00147191 0)
(-0.00521571 0.00152393 0)
(-0.00567596 0.00157225 0)
(-0.00614937 0.00161682 0)
(-0.00663489 0.00165765 0)
(-0.00713148 0.00169472 0)
(-0.00763807 0.00172804 0)
(-0.0081536 0.00175764 0)
(-0.00867701 0.00178353 0)
(-0.00920726 0.00180574 0)
(-0.00974329 0.00182431 0)
(-0.0102841 0.00183928 0)
(-0.0108286 0.0018507 0)
(-0.0113758 0.00185861 0)
(-0.0119246 0.00186308 0)
(-0.0124742 0.00186416 0)
(-0.0130236 0.00186191 0)
(-0.0135717 0.0018564 0)
(-0.0141176 0.00184768 0)
(-0.0146605 0.00183582 0)
(-0.0151993 0.0018209 0)
(-0.0157333 0.00180298 0)
(-0.0162615 0.00178214 0)
(-0.0167831 0.00175844 0)
(-0.0172973 0.00173197 0)
(-0.0178033 0.00170279 0)
(-0.0183003 0.00167099 0)
(-0.0187875 0.00163664 0)
(-0.0192642 0.00159982 0)
(-0.0197297 0.0015606 0)
(-0.0201832 0.00151907 0)
(-0.0206242 0.0014753 0)
(-0.021052 0.00142938 0)
(-0.0214659 0.00138139 0)
(-0.0218654 0.0013314 0)
(-0.0222499 0.0012795 0)
(-0.0226187 0.00122577 0)
(-0.0229715 0.0011703 0)
(-0.0233077 0.00111316 0)
(-0.0236268 0.00105445 0)
(-0.0239283 0.00099424 0)
(-0.0242119 0.000932625 0)
(-0.0244772 0.000869687 0)
(-0.0247237 0.000805514 0)
(-0.0249511 0.00074019 0)
(-0.0251591 0.000673806 0)
(-0.0253473 0.000606448 0)
(-0.0255156 0.000538206 0)
(-0.0256637 0.000469169 0)
(-0.0257913 0.000399428 0)
(-0.0258983 0.000329074 0)
(-0.0259844 0.000258199 0)
(-0.0260496 0.000186895 0)
(-0.0260938 0.000115254 0)
(-0.0261168 4.33723e-05 0)
(-0.0261186 -2.86568e-05 0)
(-0.0260992 -0.000100737 0)
(-0.0260585 -0.000172773 0)
(-0.0259967 -0.000244667 0)
(-0.0259137 -0.000316322 0)