/*--------------------------------*- C++ -*----------------------------------*\
  =========                 |
  \\      /  F ield         | OpenFOAM: The Open Source CFD Toolbox
   \\    /   O peration     | Website:  https://openfoam.org
    \\  /    A nd           | Version:  7
     \\/     M anipulation  |
\*---------------------------------------------------------------------------*/
FoamFile
{
    version     2.0;
    format      ascii;
    class       volScalarField;
    location    "0.45";
    object      p;
}
// * * * * * * * * * * * * * * * * * * * * * * * * * * * * * * * * * * * * * //

dimensions      [0 2 -2 0 0 0 0];

internalField   nonuniform List<scalar> 
25600
(
-2.08947e-08
2.12943e-05
2.40067e-05
-2.01422e-06
-5.76838e-05
-0.000141613
-0.000251158
-0.000383081
-0.000534041
-0.000700823
-0.000880407
-0.00107001
-0.00126706
-0.00146925
-0.00167447
-0.00188081
-0.00208653
-0.00229006
-0.00249
-0.00268507
-0.00287417
-0.00305626
-0.00323044
-0.0033959
-0.00355192
-0.00369786
-0.00383315
-0.00395729
-0.00406984
-0.00417043
-0.00425871
-0.0043344
-0.00439727
-0.00444711
-0.00448379
-0.00450715
-0.0045171
-0.00451356
-0.00449648
-0.00446585
-0.00442166
-0.00436393
-0.00429272
-0.00420807
-0.00411006
-0.00399877
-0.00387429
-0.00373674
-0.00358622
-0.00342287
-0.00324684
-0.00305829
-0.00285742
-0.00264442
-0.0024195
-0.00218287
-0.00193475
-0.00167538
-0.00140502
-0.00112392
-0.000832381
-0.000530679
-0.000219116
0.000101999
0.00043233
0.000771515
0.00111919
0.00147496
0.00183846
0.00220925
0.00258693
0.00297103
0.00336112
0.00375671
0.00415734
0.00456249
0.00497164
0.00538425
0.00579978
0.00621765
0.00663731
0.00705816
0.0074796
0.007901
0.00832175
0.0087412
0.00915874
0.00957374
0.00998555
0.0103935
0.0107969
0.0111952
0.0115875
0.0119734
0.012352
0.0127229
0.0130852
0.0134384
0.0137818
0.0141149
0.014437
0.0147474
0.0150457
0.0153313
0.0156037
0.0158623
0.0161067
0.0163364
0.0165509
0.01675
0.0169332
0.0171003
0.0172509
0.0173848
0.0175018
0.0176018
0.0176846
0.0177501
0.0177983
0.0178293
0.0178431
0.0178398
0.0178197
0.0177828
0.0177296
0.0176604
0.0175755
0.0174754
0.0173608
0.017232
0.0170898
0.0169348
0.0167679
0.0165898
0.0164014
0.0162038
0.0159978
0.0157847
0.0155656
0.0153418
0.0151144
0.014885
0.0146551
0.0144261
0.0141998
0.0139778
0.0137622
0.0135548
0.0133577
0.0131731
0.0130033
0.0128507
0.0127176
0.0126066
0.0125198
0.0124591
0.0124254
0.0124177
0.0124322
0.0124573
-2.10949e-05
2.36095e-07
-1.39499e-06
-2.90179e-05
-8.13343e-05
-0.000157568
-0.000256061
-0.000374437
-0.000510085
-0.000660379
-0.000822761
-0.000994797
-0.0011742
-0.00135886
-0.00154684
-0.00173635
-0.00192575
-0.00211355
-0.00229838
-0.00247904
-0.00265441
-0.00282352
-0.00298545
-0.00313942
-0.0032847
-0.00342066
-0.00354671
-0.00366235
-0.00376714
-0.00386068
-0.00394263
-0.00401268
-0.00407058
-0.00411612
-0.00414913
-0.00416947
-0.00417701
-0.00417168
-0.0041534
-0.00412214
-0.00407788
-0.00402066
-0.00395048
-0.0038674
-0.00377148
-0.00366278
-0.00354139
-0.0034074
-0.00326091
-0.00310206
-0.00293098
-0.00274784
-0.00255281
-0.00234607
-0.00212784
-0.00189831
-0.00165769
-0.00140623
-0.00114416
-0.000871726
-0.000589221
-0.000296917
4.88747e-06
0.000315898
0.000635791
0.000964215
0.00130081
0.0016452
0.001997
0.00235583
0.00272126
0.00309287
0.00347022
0.00385285
0.00424029
0.00463205
0.00502762
0.00542648
0.0058281
0.00623195
0.00663748
0.00704411
0.00745125
0.0078583
0.00826467
0.00866975
0.00907293
0.00947361
0.00987118
0.010265
0.0106544
0.0110388
0.0114174
0.0117897
0.0121551
0.0125129
0.0128626
0.0132034
0.0135348
0.0138561
0.0141669
0.0144665
0.0147544
0.0150301
0.015293
0.0155428
0.0157789
0.0160009
0.0162084
0.016401
0.0165784
0.0167403
0.0168866
0.0170168
0.0171309
0.0172287
0.0173101
0.017375
0.0174234
0.0174553
0.0174709
0.0174703
0.0174535
0.017421
0.0173728
0.0173095
0.0172313
0.0171388
0.0170325
0.0169129
0.0167806
0.0166363
0.0164808
0.0163148
0.0161393
0.0159551
0.0157633
0.015565
0.0153611
0.015153
0.0149419
0.0147291
0.0145161
0.0143042
0.0140952
0.0138906
0.0136921
0.0135016
0.013321
0.0131521
0.0129971
0.0128579
0.0127365
0.0126349
0.0125546
0.0124969
0.0124621
0.0124491
0.0124574
0.0124825
-2.34629e-05
2.19406e-06
5.26989e-07
-2.70021e-05
-7.68e-05
-0.000147938
-0.00023905
-0.000348153
-0.00047306
-0.00061152
-0.000761309
-0.000920271
-0.00108635
-0.00125762
-0.00143227
-0.00160866
-0.00178523
-0.00196057
-0.00213337
-0.00230247
-0.0024668
-0.0026254
-0.00277739
-0.00292198
-0.00305846
-0.0031862
-0.00330464
-0.00341326
-0.00351162
-0.0035993
-0.00367595
-0.00374128
-0.00379501
-0.00383694
-0.00386687
-0.00388466
-0.00389018
-0.00388333
-0.00386403
-0.00383223
-0.00378792
-0.0037311
-0.0036618
-0.00358004
-0.00348588
-0.00337938
-0.0032606
-0.00312963
-0.00298658
-0.00283155
-0.00266469
-0.00248614
-0.00229607
-0.00209468
-0.00188213
-0.00165864
-0.00142442
-0.00117968
-0.000924664
-0.000659611
-0.00038479
-0.000100476
0.000193041
0.000495469
0.000806496
0.00112578
0.00145298
0.00178772
0.00212962
0.00247831
0.00283337
0.00319441
0.00356099
0.00393267
0.00430898
0.00468944
0.00507355
0.00546083
0.00585075
0.0062428
0.00663644
0.00703111
0.00742624
0.00782125
0.00821556
0.00860858
0.00899974
0.00938845
0.0097741
0.0101561
0.0105338
0.0109065
0.0112738
0.0116348
0.0119892
0.0123361
0.0126752
0.0130057
0.013327
0.0136386
0.01394
0.0142306
0.0145099
0.0147773
0.0150325
0.0152749
0.0155041
0.0157197
0.0159214
0.0161086
0.0162813
0.016439
0.0165816
0.0167088
0.0168204
0.0169164
0.0169966
0.0170609
0.0171095
0.0171422
0.0171592
0.0171607
0.0171467
0.0171176
0.0170736
0.0170151
0.0169424
0.016856
0.0167564
0.0166442
0.01652
0.0163844
0.0162381
0.0160819
0.0159168
0.0157435
0.015563
0.0153765
0.0151849
0.0149894
0.0147912
0.0145915
0.0143918
0.0141935
0.0139979
0.0138068
0.0136215
0.013444
0.0132758
0.0131187
0.0129745
0.0128451
0.0127321
0.0126371
0.0125614
0.0125062
0.0124716
0.0124573
0.0124657
0.0124971
2.807e-06
3.00884e-05
2.82767e-05
7.02425e-07
-4.77837e-05
-0.000115932
-0.000202381
-0.000305307
-0.000422756
-0.00055273
-0.000693239
-0.000842346
-0.000998193
-0.00115901
-0.00132314
-0.00148903
-0.00165522
-0.00182039
-0.00198329
-0.00214281
-0.00229793
-0.00244772
-0.00259132
-0.00272796
-0.00285695
-0.00297768
-0.00308958
-0.00319215
-0.00328494
-0.00336754
-0.00343959
-0.0035008
-0.0035509
-0.00358966
-0.0036169
-0.00363245
-0.00363618
-0.00362799
-0.00360779
-0.00357553
-0.00353117
-0.00347472
-0.0034062
-0.00332562
-0.00323303
-0.00312849
-0.00301204
-0.00288378
-0.00274379
-0.00259218
-0.00242909
-0.00225465
-0.00206904
-0.00187243
-0.00166498
-0.0014469
-0.00121839
-0.000979666
-0.00073096
-0.000472508
-0.000204563
7.26089e-05
0.000358726
0.000653496
0.000956611
0.00126774
0.00158656
0.0019127
0.00224579
0.00258546
0.00293132
0.00328297
0.00363999
0.00400194
0.00436838
0.00473883
0.00511281
0.00548985
0.00586943
0.00625106
0.00663422
0.00701835
0.00740289
0.0077873
0.008171
0.00855343
0.00893403
0.00931224
0.00968746
0.0100591
0.0104265
0.0107891
0.0111464
0.0114976
0.0118423
0.0121798
0.0125096
0.0128311
0.0131437
0.0134469
0.0137401
0.0140228
0.0142946
0.0145549
0.0148033
0.0150394
0.0152626
0.0154727
0.0156692
0.0158519
0.0160203
0.0161744
0.0163138
0.0164383
0.0165479
0.0166422
0.0167214
0.0167852
0.0168338
0.0168672
0.0168854
0.0168886
0.016877
0.0168508
0.0168103
0.0167558
0.0166878
0.0166065
0.0165127
0.0164067
0.0162892
0.0161609
0.0160223
0.0158744
0.0157179
0.0155537
0.0153827
0.015206
0.0150245
0.0148394
0.0146518
0.0144629
0.0142741
0.0140866
0.0139019
0.0137215
0.0135467
0.0133793
0.0132206
0.0130725
0.0129365
0.0128142
0.0127072
0.0126168
0.0125444
0.012491
0.0124571
0.0124429
0.0124527
0.0124896
5.8669e-05
8.26858e-05
7.83204e-05
4.93077e-05
7.23052e-07
-6.5995e-05
-0.000149471
-0.000248005
-0.000359821
-0.000483125
-0.000616128
-0.000757081
-0.000904301
-0.00105617
-0.00121117
-0.00136786
-0.00152487
-0.00168096
-0.00183496
-0.00198582
-0.00213255
-0.00227427
-0.00241015
-0.00253945
-0.0026615
-0.00277571
-0.00288151
-0.00297841
-0.00306597
-0.00314378
-0.0032115
-0.00326882
-0.00331547
-0.00335123
-0.00337591
-0.00338934
-0.00339137
-0.00338191
-0.00336086
-0.00332816
-0.00328378
-0.0032277
-0.00315994
-0.00308052
-0.00298946
-0.00288682
-0.00277265
-0.00264702
-0.00251001
-0.00236174
-0.00220232
-0.0020319
-0.00185062
-0.00165866
-0.00145618
-0.00124337
-0.00102042
-0.000787546
-0.000544971
-0.00029293
-3.16678e-05
0.000238565
0.000517495
0.000804836
0.00110028
0.00140351
0.0017142
0.002032
0.00235656
0.00268752
0.00302448
0.00336705
0.00371483
0.0040674
0.00442431
0.00478511
0.00514934
0.00551652
0.00588617
0.00625779
0.00663086
0.00700487
0.00737927
0.00775351
0.00812706
0.00849936
0.00886986
0.00923803
0.00960327
0.00996501
0.0103226
0.0106756
0.0110233
0.0113652
0.0117007
0.0120292
0.0123502
0.0126632
0.0129675
0.0132626
0.0135481
0.0138234
0.0140881
0.0143416
0.0145836
0.0148136
0.0150312
0.0152361
0.0154278
0.015606
0.0157706
0.0159211
0.0160575
0.0161796
0.016287
0.0163799
0.016458
0.0165213
0.01657
0.0166039
0.0166232
0.016628
0.0166186
0.016595
0.0165577
0.0165069
0.0164431
0.0163667
0.016278
0.0161778
0.0160665
0.0159448
0.0158134
0.015673
0.0155244
0.0153685
0.0152061
0.0150383
0.014866
0.0146902
0.0145122
0.0143329
0.0141538
0.013976
0.0138009
0.0136298
0.0134641
0.0133053
0.0131548
0.0130142
0.0128849
0.0127683
0.0126659
0.012579
0.0125089
0.0124566
0.0124228
0.0124082
0.012418
0.0124562
0.000142884
0.000159324
0.000149813
0.000117639
6.73625e-05
4.66499e-07
-8.16847e-05
-0.000177508
-0.000285388
-0.000403709
-0.000530863
-0.000665267
-0.000805398
-0.000949778
-0.00109701
-0.00124576
-0.00139477
-0.00154288
-0.001689
-0.00183212
-0.00197131
-0.00210573
-0.0022346
-0.0023572
-0.00247289
-0.00258108
-0.00268126
-0.00277291
-0.00285561
-0.00292896
-0.00299263
-0.00304631
-0.00308974
-0.00312269
-0.00314497
-0.0031564
-0.00315685
-0.00314621
-0.00312437
-0.00309128
-0.00304689
-0.0029912
-0.0029242
-0.0028459
-0.00275634
-0.00265555
-0.00254359
-0.00242051
-0.0022864
-0.00214136
-0.00198551
-0.00181897
-0.0016419
-0.00145444
-0.00125676
-0.00104905
-0.000831487
-0.000604277
-0.000367632
-0.000121785
0.000133027
0.000396558
0.000668545
0.000948712
0.00123676
0.00153237
0.00183523
0.00214501
0.00246136
0.00278392
0.00311233
0.00344619
0.00378511
0.00412867
0.00447646
0.00482801
0.0051829
0.00554066
0.0059008
0.00626286
0.00662632
0.00699067
0.00735539
0.00771996
0.00808385
0.00844651
0.00880742
0.00916605
0.00952182
0.00987418
0.0102225
0.0105663
0.010905
0.0112381
0.0115649
0.0118849
0.0121976
0.0125025
0.012799
0.0130866
0.0133648
0.0136331
0.0138911
0.0141382
0.0143742
0.0145985
0.0148108
0.0150107
0.0151979
0.015372
0.0155329
0.0156802
0.0158137
0.0159333
0.0160389
0.0161302
0.0162074
0.0162702
0.0163188
0.0163532
0.0163734
0.0163797
0.0163722
0.0163511
0.0163167
0.0162693
0.0162093
0.0161372
0.0160534
0.0159583
0.0158527
0.015737
0.015612
0.0154784
0.015337
0.0151885
0.0150339
0.0148741
0.0147099
0.0145425
0.0143729
0.0142022
0.0140316
0.0138622
0.0136954
0.0135323
0.0133743
0.0132228
0.0130791
0.0129445
0.0128205
0.0127083
0.0126093
0.0125248
0.0124558
0.0124037
0.012369
0.0123529
0.0123605
0.0123961
0.000252982
0.000258467
0.000241494
0.000204431
0.000150848
8.21853e-05
-2.41571e-07
-9.4973e-05
-0.000200542
-0.000315491
-0.000438377
-0.000567774
-0.000702301
-0.000840614
-0.00098142
-0.0011235
-0.0012657
-0.00140694
-0.0015462
-0.00168254
-0.00181508
-0.00194301
-0.00206561
-0.00218218
-0.00229212
-0.00239487
-0.00248991
-0.00257677
-0.00265502
-0.00272428
-0.00278422
-0.00283455
-0.002875
-0.00290536
-0.00292542
-0.00293502
-0.00293401
-0.00292228
-0.00289973
-0.0028663
-0.00282195
-0.00276665
-0.0027004
-0.00262321
-0.0025351
-0.00243611
-0.00232628
-0.00220567
-0.00207435
-0.00193243
-0.00178001
-0.00161722
-0.00144419
-0.00126107
-0.00106801
-0.000865196
-0.000652807
-0.000431038
-0.000200092
3.98112e-05
0.000288439
0.000545549
0.000810882
0.00108417
0.00136513
0.00165346
0.00194884
0.00225095
0.00255946
0.00287402
0.00319426
0.00351981
0.00385029
0.00418528
0.00452438
0.00486716
0.00521319
0.005562
0.00591313
0.00626612
0.00662048
0.0069757
0.00733128
0.00768671
0.00804148
0.00839506
0.00874694
0.00909658
0.00944345
0.00978698
0.0101266
0.0104618
0.0107921
0.0111168
0.0114354
0.0117475
0.0120525
0.0123498
0.012639
0.0129195
0.0131909
0.0134527
0.0137045
0.0139457
0.0141761
0.0143951
0.0146024
0.0147977
0.0149807
0.015151
0.0153084
0.0154526
0.0155835
0.0157009
0.0158046
0.0158946
0.0159707
0.0160331
0.0160816
0.0161163
0.0161374
0.016145
0.0161392
0.0161202
0.0160884
0.0160441
0.0159875
0.0159193
0.0158397
0.0157493
0.0156487
0.0155385
0.0154192
0.0152916
0.0151565
0.0150147
0.0148669
0.0147141
0.0145571
0.014397
0.0142348
0.0140715
0.0139081
0.013746
0.0135861
0.0134298
0.0132782
0.0131326
0.0129942
0.0128644
0.0127443
0.0126352
0.0125384
0.0124549
0.0123861
0.0123329
0.0122963
0.0122772
0.0122806
0.0123103
0.000385917
0.000377903
0.000351517
0.000307974
0.000249575
0.000177668
9.35071e-05
-1.59472e-06
-0.000106324
-0.000219364
-0.000339414
-0.000465201
-0.000595472
-0.000729009
-0.000864632
-0.00100122
-0.00113772
-0.00127313
-0.0014065
-0.00153695
-0.00166366
-0.00178588
-0.00190292
-0.00201412
-0.00211891
-0.00221675
-0.00230714
-0.00238965
-0.00246384
-0.00252937
-0.00258591
-0.00263318
-0.00267091
-0.00269888
-0.00271691
-0.00272483
-0.00272249
-0.00270978
-0.00268661
-0.00265291
-0.00260862
-0.00255374
-0.00248824
-0.00241214
-0.00232546
-0.00222821
-0.00212045
-0.00200223
-0.00187361
-0.0017347
-0.00158559
-0.0014264
-0.00125726
-0.00107832
-0.000889705
-0.000691601
-0.000484182
-0.000267636
-4.21617e-05
0.000192032
0.000434725
0.000685681
0.000944644
0.00121135
0.00148553
0.00176688
0.00205511
0.0023499
0.00265092
0.00295784
0.0032703
0.00358794
0.00391038
0.00423723
0.00456809
0.00490253
0.00524015
0.00558048
0.00592308
0.00626749
0.00661323
0.00695983
0.00730678
0.00765359
0.00799976
0.00834479
0.00868816
0.00902936
0.00936785
0.0097031
0.0100346
0.0103617
0.0106841
0.011001
0.011312
0.0116167
0.0119144
0.0122047
0.0124871
0.0127611
0.0130261
0.0132818
0.0135278
0.0137635
0.0139886
0.0142027
0.0144055
0.0145965
0.0147755
0.0149422
0.0150964
0.0152378
0.0153662
0.0154815
0.0155835
0.0156721
0.0157474
0.0158092
0.0158576
0.0158926
0.0159144
0.015923
0.0159187
0.0159017
0.0158722
0.0158305
0.0157771
0.0157122
0.0156365
0.0155502
0.0154541
0.0153486
0.0152344
0.0151122
0.0149827
0.0148466
0.0147048
0.0145581
0.0144074
0.0142536
0.0140977
0.0139407
0.0137835
0.0136274
0.0134734
0.0133225
0.0131761
0.0130351
0.0129009
0.0127745
0.0126571
0.0125499
0.012454
0.0123706
0.0123006
0.0122453
0.0122054
0.0121821
0.0121794
0.0122004
0.000538563
0.000515189
0.000477825
0.000426427
0.000361873
0.0002854
0.00019819
0.000101401
-3.79841e-06
-0.000116239
-0.000234751
-0.000358188
-0.000485425
-0.000615364
-0.000746933
-0.000879111
-0.00101093
-0.00114146
-0.00126985
-0.00139526
-0.00151694
-0.00163417
-0.00174632
-0.00185278
-0.00195298
-0.00204644
-0.00213267
-0.00221125
-0.00228178
-0.00234393
-0.00239739
-0.00244186
-0.00247712
-0.00250293
-0.00251911
-0.00252551
-0.00252197
-0.0025084
-0.00248469
-0.00245078
-0.00240661
-0.00235217
-0.00228744
-0.00221242
-0.00212713
-0.00203159
-0.00192584
-0.00180993
-0.00168394
-0.00154793
-0.00140202
-0.0012463
-0.00108091
-0.000905977
-0.000721647
-0.000528076
-0.000325434
-0.000113905
0.000106318
0.000335035
0.000572035
0.000817087
0.00106994
0.00133035
0.00159804
0.00187272
0.00215412
0.00244192
0.0027358
0.00303544
0.00334049
0.00365059
0.00396538
0.0042845
0.00460753
0.00493407
0.00526371
0.00559602
0.00593054
0.00626683
0.00660444
0.00694289
0.00728171
0.0076204
0.00795849
0.00829547
0.00863084
0.00896411
0.00929475
0.00962225
0.00994606
0.0102657
0.0105806
0.0108903
0.0111942
0.011492
0.011783
0.0120667
0.0123427
0.0126106
0.0128698
0.0131198
0.0133604
0.013591
0.0138112
0.0140208
0.0142192
0.0144063
0.0145817
0.0147451
0.0148963
0.015035
0.0151611
0.0152744
0.0153748
0.0154622
0.0155366
0.0155979
0.0156461
0.0156813
0.0157037
0.0157133
0.0157103
0.0156949
0.0156674
0.0156281
0.0155773
0.0155155
0.0154431
0.0153605
0.0152683
0.015167
0.0150572
0.0149397
0.014815
0.014684
0.0145474
0.0144059
0.0142606
0.0141122
0.0139616
0.0138098
0.0136579
0.0135067
0.0133573
0.0132109
0.0130684
0.012931
0.0127996
0.0126755
0.0125597
0.0124533
0.0123573
0.0122727
0.0122006
0.012142
0.0120977
0.0120688
0.0120585
0.0120688
0.000707929
0.000667878
0.000618321
0.000557926
0.000486063
0.000403866
0.000312442
0.000212797
0.000105952
-7.06084e-06
-0.000125197
-0.000247427
-0.000372743
-0.000500159
-0.000628712
-0.000757475
-0.000885561
-0.00101212
-0.00113636
-0.00125753
-0.00137491
-0.00148786
-0.00159576
-0.00169806
-0.00179424
-0.00188381
-0.00196634
-0.00204142
-0.00210868
-0.0021678
-0.00221848
-0.00226045
-0.00229347
-0.00231733
-0.00233186
-0.00233689
-0.0023323
-0.00231797
-0.00229382
-0.00225977
-0.00221578
-0.00216181
-0.00209786
-0.00202392
-0.00194
-0.00184614
-0.00174235
-0.00162869
-0.00150523
-0.00137203
-0.0012292
-0.00107683
-0.000915054
-0.000743987
-0.000563772
-0.000374561
-0.000176515
3.01943e-05
0.000245383
0.000468849
0.00070039
0.000939787
0.0011868
0.00144118
0.00170266
0.00197098
0.00224586
0.00252699
0.00281406
0.00310676
0.00340476
0.0037077
0.00401524
0.00432701
0.00464263
0.00496169
0.00528378
0.00560849
0.00593537
0.00626401
0.00659394
0.00692473
0.00725588
0.00758694
0.00791743
0.00824686
0.00857474
0.00890059
0.00922388
0.00954412
0.00986079
0.0101734
0.0104814
0.0107843
0.0110817
0.011373
0.0116577
0.0119354
0.0122055
0.0124677
0.0127214
0.0129662
0.0132018
0.0134276
0.0136434
0.0138487
0.0140433
0.0142267
0.0143987
0.014559
0.0147074
0.0148437
0.0149677
0.0150792
0.015178
0.0152643
0.0153378
0.0153985
0.0154465
0.0154819
0.0155047
0.0155151
0.0155132
0.0154993
0.0154735
0.0154363
0.0153879
0.0153287
0.0152591
0.0151797
0.0150909
0.0149932
0.0148873
0.0147738
0.0146533
0.0145266
0.0143944
0.0142574
0.0141166
0.0139726
0.0138265
0.0136791
0.0135313
0.013384
0.0132383
0.0130952
0.0129556
0.0128206
0.0126912
0.0125683
0.012453
0.0123463
0.0122491
0.0121624
0.0120871
0.0120242
0.0119745
0.0119389
0.0119196
0.0119176
0.000891214
0.00083359
0.000770928
0.00070061
0.000620475
0.000531557
0.000434902
0.000331368
0.000221834
0.00010721
-1.15888e-05
-0.000133639
-0.000258043
-0.00038392
-0.000510408
-0.000636669
-0.0007619
-0.000885323
-0.00100621
-0.00112387
-0.00123766
-0.00134698
-0.00145125
-0.00154996
-0.00164263
-0.00172881
-0.00180808
-0.00188007
-0.00194443
-0.00200086
-0.00204906
-0.0020888
-0.00211983
-0.00214196
-0.00215502
-0.00215886
-0.00215335
-0.00213839
-0.00211389
-0.00207978
-0.00203602
-0.00198256
-0.00191941
-0.00184655
-0.00176399
-0.00167177
-0.0015699
-0.00145843
-0.00133741
-0.00120694
-0.00106708
-0.000917951
-0.000759652
-0.000592309
-0.000416055
-0.000231033
-3.73978e-05
0.000164682
0.000375035
0.000593472
0.00081979
0.00105378
0.0012952
0.00154381
0.00179938
0.00206163
0.00233029
0.00260506
0.00288565
0.00317176
0.00346305
0.0037592
0.00405986
0.00436467
0.00467327
0.00498524
0.00530021
0.00561774
0.00593743
0.00625885
0.00658157
0.00690515
0.00722911
0.00755301
0.00787639
0.00819875
0.00851962
0.00883852
0.00915496
0.00946844
0.00977845
0.0100845
0.0103861
0.0106828
0.010974
0.0112593
0.0115382
0.0118103
0.012075
0.0123319
0.0125806
0.0128206
0.0130515
0.013273
0.0134847
0.0136861
0.013877
0.0140571
0.014226
0.0143835
0.0145294
0.0146634
0.0147853
0.0148951
0.0149926
0.0150777
0.0151504
0.0152106
0.0152584
0.0152939
0.015317
0.0153281
0.0153271
0.0153144
0.0152901
0.0152546
0.0152082
0.0151513
0.0150842
0.0150075
0.0149216
0.0148271
0.0147244
0.0146143
0.0144974
0.0143743
0.0142457
0.0141125
0.0139754
0.0138351
0.0136925
0.0135485
0.0134039
0.0132597
0.0131167
0.012976
0.0128383
0.0127047
0.0125761
0.0124535
0.0123377
0.0122297
0.0121304
0.0120406
0.0119612
0.0118931
0.011837
0.0117938
0.0117645
0.011749
0.00108584
0.00101006
0.000933634
0.000852665
0.000763463
0.000666984
0.000564225
0.0004559
0.000342762
0.000225603
0.000105223
-1.75678e-05
-0.000141971
-0.000267204
-0.000392494
-0.000517089
-0.000640265
-0.000761318
-0.000879585
-0.000994441
-0.0011053
-0.0012116
-0.00131283
-0.00140849
-0.00149815
-0.00158139
-0.00165783
-0.00172713
-0.00178895
-0.00184302
-0.00188905
-0.00192682
-0.00195611
-0.00197672
-0.00198851
-0.00199131
-0.00198503
-0.00196956
-0.00194481
-0.00191071
-0.00186723
-0.00181433
-0.001752
-0.00168023
-0.00159903
-0.00150841
-0.00140842
-0.00129908
-0.00118045
-0.00105261
-0.000915629
-0.00076962
-0.000614683
-0.000450926
-0.000278478
-9.74819e-05
9.1914e-05
0.000289554
0.000495275
0.000708893
0.000930211
0.00115902
0.0013951
0.00163823
0.00188815
0.0021446
0.00240734
0.00267607
0.0029505
0.00323034
0.00351528
0.00380498
0.00409913
0.00439736
0.00469932
0.00500461
0.00531284
0.00562362
0.00593654
0.00625118
0.00656713
0.00688394
0.00720118
0.00751838
0.0078351
0.00815086
0.00846519
0.00877763
0.00908769
0.00939488
0.00969871
0.0099987
0.0102944
0.0105852
0.0108708
0.0111506
0.0114241
0.011691
0.0119507
0.0122028
0.0124469
0.0126825
0.0129092
0.0131267
0.0133345
0.0135324
0.01372
0.013897
0.0140631
0.014218
0.0143615
0.0144934
0.0146136
0.0147218
0.014818
0.0149021
0.014974
0.0150337
0.0150813
0.0151167
0.0151401
0.0151517
0.0151515
0.0151398
0.0151168
0.0150828
0.015038
0.014983
0.0149181
0.0148436
0.0147602
0.0146682
0.0145683
0.014461
0.014347
0.0142269
0.0141013
0.0139711
0.0138369
0.0136995
0.0135597
0.0134183
0.0132761
0.013134
0.0129928
0.0128535
0.0127168
0.0125838
0.0124551
0.0123318
0.0122147
0.0121045
0.0120022
0.0119085
0.0118241
0.0117499
0.0116866
0.0116351
0.0115949
0.0115652
0.00128944
0.00119516
0.00110451
0.00101234
0.000913426
0.000808685
0.000699081
0.000585195
0.000467655
0.000347147
0.000224366
0.000100014
-2.52057e-05
-0.000150601
-0.000275481
-0.000399175
-0.000521035
-0.000640426
-0.000756754
-0.000869454
-0.000977991
-0.00108186
-0.00118058
-0.00127371
-0.00136084
-0.00144159
-0.00151561
-0.00158259
-0.00164223
-0.00169425
-0.00173841
-0.00177447
-0.00180225
-0.00182156
-0.00183225
-0.00183419
-0.00182727
-0.00181141
-0.00178651
-0.00175251
-0.00170937
-0.00165707
-0.00159559
-0.00152491
-0.00144506
-0.00135604
-0.00125788
-0.00115062
-0.00103431
-0.000909024
-0.000774835
-0.000631839
-0.000480135
-0.000319835
-0.000151056
2.60709e-05
0.000211403
0.00040479
0.000606072
0.000815073
0.00103161
0.00125548
0.00148647
0.00172435
0.00196889
0.00221984
0.00247694
0.00273993
0.00300851
0.00328241
0.00356132
0.00384493
0.00413292
0.00442494
0.00472063
0.00501962
0.00532152
0.00562595
0.00593251
0.0062408
0.00655041
0.0068609
0.00717185
0.0074828
0.00779332
0.00810293
0.00841118
0.00871762
0.00902176
0.00932313
0.00962124
0.00991563
0.0102058
0.0104913
0.0107717
0.0110464
0.0113151
0.0115772
0.0118323
0.01208
0.0123198
0.0125514
0.0127742
0.0129881
0.0131925
0.0133872
0.0135717
0.0137459
0.0139094
0.014062
0.0142034
0.0143334
0.0144519
0.0145588
0.0146538
0.0147369
0.014808
0.0148672
0.0149145
0.0149499
0.0149735
0.0149855
0.0149859
0.014975
0.0149531
0.0149202
0.0148769
0.0148235
0.0147603
0.0146877
0.0146063
0.0145164
0.0144187
0.0143137
0.014202
0.0140843
0.0139611
0.0138332
0.0137013
0.013566
0.0134281
0.0132885
0.0131479
0.0130071
0.012867
0.0127282
0.0125918
0.0124583
0.0123288
0.012204
0.0120846
0.0119715
0.0118654
0.0117669
0.0116769
0.0115959
0.0115247
0.0114641
0.0114126
0.0113679
0.00149989
0.00138693
0.00128175
0.00117796
0.00106883
0.000955255
0.00083818
0.000718074
0.000595444
0.000470876
0.000344966
0.00021832
9.15519e-05
-3.47322e-05
-0.000159914
-0.000283402
-0.000404619
-0.000523001
-0.000638018
-0.000749161
-0.000855947
-0.000957925
-0.00105465
-0.00114572
-0.00123077
-0.00130945
-0.00138146
-0.00144649
-0.00150427
-0.00155455
-0.00159711
-0.00163173
-0.00165822
-0.00167644
-0.00168622
-0.00168746
-0.00168005
-0.00166391
-0.00163896
-0.00160514
-0.00156242
-0.00151076
-0.00145015
-0.00138059
-0.00130208
-0.00121464
-0.00111828
-0.00101305
-0.000899001
-0.000776192
-0.0006447
-0.000504615
-0.000356033
-0.00019906
-3.38084e-05
0.000139601
0.000321031
0.000510338
0.00070737
0.000911961
0.00112393
0.00134308
0.0015692
0.00180209
0.00204151
0.00228722
0.00253898
0.00279652
0.00305956
0.00332784
0.00360106
0.00387891
0.00416108
0.00444724
0.00473704
0.0050301
0.00532607
0.00562455
0.00592515
0.0062275
0.00653118
0.00683578
0.00714087
0.007446
0.00775075
0.00805466
0.00835728
0.00865817
0.00895685
0.00925284
0.00954569
0.00983493
0.0101201
0.0104007
0.0106763
0.0109464
0.0112105
0.0114683
0.0117193
0.011963
0.012199
0.0124268
0.0126462
0.0128568
0.0130581
0.0132498
0.0134317
0.0136033
0.0137645
0.013915
0.0140545
0.0141828
0.0142999
0.0144054
0.0144993
0.0145815
0.014652
0.0147108
0.0147578
0.0147931
0.0148168
0.014829
0.01483
0.0148197
0.0147986
0.0147667
0.0147245
0.0146723
0.0146105
0.0145395
0.0144596
0.0143715
0.0142755
0.0141723
0.0140624
0.0139464
0.013825
0.0136988
0.0135684
0.0134346
0.013298
0.0131595
0.0130197
0.0128795
0.0127395
0.0126006
0.0124635
0.012329
0.0121978
0.0120706
0.0119483
0.0118315
0.0117208
0.011617
0.0115206
0.0114322
0.0113526
0.0112825
0.011219
0.0111592
0.00171522
0.00158354
0.00146364
0.00134793
0.00122821
0.00110534
0.000980282
0.000853395
0.000725082
0.000595831
0.000466152
0.000336566
0.000207602
7.97852e-05
-4.63392e-05
-0.00017025
-0.000291441
-0.000409415
-0.000523702
-0.000633843
-0.000739411
-0.000839993
-0.000935201
-0.00102466
-0.00110806
-0.00118508
-0.00125543
-0.00131886
-0.00137511
-0.00142395
-0.00146518
-0.0014986
-0.00152404
-0.00154136
-0.00155042
-0.00155112
-0.00154335
-0.00152706
-0.00150216
-0.0014686
-0.00142635
-0.00137538
-0.00131569
-0.00124725
-0.00117009
-0.0010842
-0.000989625
-0.000886384
-0.00077453
-0.000654128
-0.000525251
-0.000387983
-0.000242414
-8.86435e-05
7.32189e-05
0.000243055
0.00042074
0.000606138
0.000799104
0.000999476
0.00120708
0.00142173
0.00164322
0.00187136
0.00210591
0.00234664
0.00259333
0.00284571
0.00310351
0.00336648
0.00363432
0.00390675
0.00418345
0.0044641
0.00474836
0.00503587
0.00532627
0.00561918
0.00591423
0.00621103
0.0065092
0.00680832
0.00710797
0.00740771
0.00770713
0.00800577
0.0083032
0.00859896
0.00889261
0.00918368
0.00947171
0.00975625
0.0100368
0.0103129
0.0105842
0.0108501
0.0111102
0.0113641
0.0116112
0.0118513
0.0120839
0.0123085
0.0125247
0.0127323
0.0129309
0.01312
0.0132994
0.0134688
0.013628
0.0137765
0.0139144
0.0140412
0.0141569
0.0142612
0.0143542
0.0144356
0.0145055
0.0145638
0.0146105
0.0146457
0.0146695
0.0146819
0.0146832
0.0146735
0.0146529
0.0146218
0.0145805
0.0145293
0.0144685
0.0143986
0.01432
0.0142331
0.0141384
0.0140365
0.0139279
0.0138132
0.0136929
0.0135678
0.0134384
0.0133054
0.0131694
0.0130313
0.0128917
0.0127513
0.0126108
0.012471
0.0123325
0.0121962
0.0120626
0.0119325
0.0118065
0.0116853
0.0115695
0.0114596
0.0113563
0.01126
0.0111715
0.0110913
0.0110157
0.0109404
0.00193366
0.00178331
0.0016486
0.00152075
0.00139016
0.00125764
0.00112418
0.000990041
0.000855538
0.000721067
0.000587059
0.000453964
0.000322228
0.000192306
6.46655e-05
-6.0239e-05
-0.000181962
-0.000300074
-0.000414159
-0.00052381
-0.000628649
-0.000728308
-0.000822443
-0.000910727
-0.000992866
-0.0010686
-0.00113766
-0.00119981
-0.00125484
-0.00130252
-0.00134268
-0.00137514
-0.00139974
-0.00141636
-0.00142486
-0.00142517
-0.0014172
-0.00140087
-0.00137612
-0.00134291
-0.0013012
-0.00125098
-0.00119222
-0.00112493
-0.00104911
-0.000964774
-0.000871942
-0.000770649
-0.00066094
-0.000542881
-0.000416538
-0.000281992
-0.000139329
1.13535e-05
0.000169954
0.000336361
0.000510456
0.00069211
0.000881183
0.00107752
0.00128096
0.00149132
0.0017084
0.00193201
0.00216195
0.00239797
0.00263985
0.00288735
0.00314021
0.00339817
0.00366095
0.00392827
0.00419984
0.00447533
0.0047544
0.00503671
0.00532191
0.00560963
0.0058995
0.00619116
0.00648422
0.00677826
0.00707287
0.00736764
0.00766214
0.00795594
0.00824859
0.00853968
0.00882873
0.00911531
0.00939896
0.00967922
0.00995562
0.0102277
0.010495
0.0107571
0.0110136
0.011264
0.0115078
0.0117446
0.0119741
0.0121958
0.0124093
0.0126142
0.0128103
0.0129972
0.0131745
0.0133419
0.0134992
0.0136462
0.0137825
0.013908
0.0140225
0.0141259
0.0142179
0.0142987
0.014368
0.0144259
0.0144723
0.0145074
0.0145312
0.0145438
0.0145453
0.0145359
0.0145158
0.0144852
0.0144446
0.0143941
0.0143341
0.014265
0.0141872
0.0141012
0.0140074
0.0139063
0.0137985
0.0136845
0.0135649
0.0134403
0.0133113
0.0131785
0.0130426
0.0129042
0.0127641
0.0126229
0.0124812
0.0123398
0.0121993
0.0120604
0.0119238
0.0117901
0.0116598
0.0115336
0.0114121
0.0112957
0.011185
0.0110803
0.0109825
0.0108921
0.010804
0.0107132
0.00215356
0.00198469
0.00183515
0.00169504
0.00155335
0.00141091
0.0012687
0.00112692
0.000985799
0.00084565
0.000706832
0.000569728
0.000434713
0.000302176
0.000172508
4.60996e-05
-7.66631e-05
-0.000195406
-0.00030977
-0.000419399
-0.000523956
-0.00062313
-0.000716609
-0.000804112
-0.000885377
-0.000960171
-0.00102828
-0.00108947
-0.00114355
-0.00119035
-0.00122969
-0.00126141
-0.00128538
-0.00130149
-0.00130962
-0.00130969
-0.00130163
-0.00128538
-0.00126089
-0.00122811
-0.00118701
-0.00113757
-0.00107979
-0.00101366
-0.000939195
-0.000856395
-0.000765287
-0.000665907
-0.000558297
-0.000442515
-0.000318629
-0.000186717
-4.68635e-05
0.000100844
0.000256311
0.000419427
0.000590079
0.000768148
0.000953502
0.00114599
0.00134546
0.00155173
0.00176462
0.00198394
0.00220949
0.00244104
0.00267839
0.00292129
0.00316948
0.00342273
0.00368076
0.00394329
0.00421004
0.00448069
0.00475492
0.00503239
0.00531274
0.00559565
0.00588073
0.00616762
0.00645594
0.0067453
0.00703528
0.00732549
0.00761549
0.00790486
0.00819316
0.00847998
0.00876488
0.00904739
0.00932707
0.00960347
0.00987612
0.0101446
0.0104084
0.0106671
0.0109203
0.0111676
0.0114084
0.0116424
0.0118692
0.0120883
0.0122994
0.0125021
0.0126961
0.0128809
0.0130564
0.0132221
0.0133779
0.0135234
0.0136584
0.0137828
0.0138963
0.0139988
0.0140902
0.0141703
0.0142391
0.0142966
0.0143428