/*--------------------------------*- C++ -*----------------------------------*\
  =========                 |
  \\      /  F ield         | OpenFOAM: The Open Source CFD Toolbox
   \\    /   O peration     | Website:  https://openfoam.org
    \\  /    A nd           | Version:  7
     \\/     M anipulation  |
\*---------------------------------------------------------------------------*/
FoamFile
{
    version     2.0;
    format      ascii;
    class       surfaceScalarField;
    location    "0.45";
    object      phi;
}
// * * * * * * * * * * * * * * * * * * * * * * * * * * * * * * * * * * * * * //

dimensions      [0 3 -1 0 0 0 0];

internalField   nonuniform List<scalar> 
50880
(
7.1132e-12
-7.09749e-12
3.80277e-11
-3.09156e-11
8.25799e-11
-4.45452e-11
1.30476e-10
-4.78973e-11
1.74562e-10
-4.40879e-11
2.09972e-10
-3.54099e-11
2.33441e-10
-2.34701e-11
2.42849e-10
-9.40725e-12
2.36871e-10
5.97977e-12
2.14736e-10
2.2135e-11
1.76078e-10
3.86581e-11
1.20816e-10
5.52608e-11
4.90861e-11
7.17291e-11
-3.88189e-11
8.79045e-11
-1.42487e-10
1.0367e-10
-2.61424e-10
1.18936e-10
-3.95063e-10
1.33639e-10
-5.42792e-10
1.4773e-10
-7.03969e-10
1.61177e-10
-8.77926e-10
1.73956e-10
-1.06398e-09
1.86052e-10
-1.26144e-09
1.97458e-10
-1.46961e-09
2.0817e-10
-1.6878e-09
2.1819e-10
-1.91532e-09
2.27522e-10
-2.1515e-09
2.36178e-10
-2.39566e-09
2.44164e-10
-2.64715e-09
2.51491e-10
-2.90532e-09
2.58171e-10
-3.16954e-09
2.64219e-10
-3.4392e-09
2.6965e-10
-3.71368e-09
2.74477e-10
-3.99239e-09
2.78719e-10
-4.27477e-09
2.82383e-10
-4.56026e-09
2.85487e-10
-4.8483e-09
2.88043e-10
-5.13836e-09
2.90067e-10
-5.42993e-09
2.91571e-10
-5.7225e-09
2.9257e-10
-6.01557e-09
2.93075e-10
-6.30868e-09
2.93101e-10
-6.60134e-09
2.92659e-10
-6.8931e-09
2.91761e-10
-7.18351e-09
2.90416e-10
-7.47215e-09
2.88636e-10
-7.75859e-09
2.86431e-10
-8.0424e-09
2.83813e-10
-8.32319e-09
2.80788e-10
-8.60055e-09
2.77363e-10
-8.8741e-09
2.73546e-10
-9.14345e-09
2.69346e-10
-9.40821e-09
2.64769e-10
-9.66804e-09
2.59824e-10
-9.92256e-09
2.54518e-10
-1.01714e-08
2.48859e-10
-1.04143e-08
2.42851e-10
-1.06508e-08
2.36501e-10
-1.08806e-08
2.29817e-10
-1.11034e-08
2.22803e-10
-1.13189e-08
2.15468e-10
-1.15267e-08
2.07819e-10
-1.17265e-08
1.9986e-10
-1.19181e-08
1.91598e-10
-1.21012e-08
1.83041e-10
-1.22754e-08
1.74194e-10
-1.24404e-08
1.65069e-10
-1.25961e-08
1.55672e-10
-1.27421e-08
1.46009e-10
-1.28782e-08
1.36091e-10
-1.30041e-08
1.25926e-10
-1.31197e-08
1.15525e-10
-1.32246e-08
1.049e-10
-1.33186e-08
9.40609e-11
-1.34016e-08
8.3018e-11
-1.34734e-08
7.17846e-11
-1.35338e-08
6.03732e-11
-1.35826e-08
4.87965e-11
-1.36197e-08
3.70715e-11
-1.36449e-08
2.52141e-11
-1.36581e-08
1.32379e-11
-1.36593e-08
1.15942e-12
-1.36483e-08
-1.10042e-11
-1.3625e-08
-2.3237e-11
-1.35895e-08
-3.552e-11
-1.35417e-08
-4.78319e-11
-1.34815e-08
-6.01522e-11
-1.34091e-08
-7.24611e-11
-1.33243e-08
-8.47393e-11
-1.32274e-08
-9.69675e-11
-1.31182e-08
-1.09122e-10
-1.29971e-08
-1.21178e-10
-1.28639e-08
-1.33113e-10
-1.2719e-08
-1.44903e-10
-1.25625e-08
-1.56524e-10
-1.23946e-08
-1.67951e-10
-1.22154e-08
-1.79162e-10
-1.20253e-08
-1.90133e-10
-1.18244e-08
-2.00835e-10
-1.16132e-08
-2.11245e-10
-1.13918e-08
-2.21338e-10
-1.11608e-08
-2.31088e-10
-1.09203e-08
-2.40467e-10
-1.06708e-08
-2.49454e-10
-1.04128e-08
-2.58026e-10
-1.01467e-08
-2.66157e-10
-9.87284e-09
-2.73822e-10
-9.59184e-09
-2.81e-10
-9.30417e-09
-2.87667e-10
-9.01037e-09
-2.93802e-10
-8.71099e-09
-2.99386e-10
-8.40659e-09
-3.04399e-10
-8.09777e-09
-3.08821e-10
-7.78514e-09
-3.12634e-10
-7.46932e-09
-3.1582e-10
-7.15095e-09
-3.18364e-10
-6.8307e-09
-3.20251e-10
-6.50924e-09
-3.21466e-10
-6.18724e-09
-3.21999e-10
-5.8654e-09
-3.2184e-10
-5.54442e-09
-3.20977e-10
-5.22502e-09
-3.19402e-10
-4.9079e-09
-3.17113e-10
-4.5938e-09
-3.14108e-10
-4.28342e-09
-3.10379e-10
-3.97749e-09
-3.05924e-10
-3.67674e-09
-3.00746e-10
-3.3819e-09
-2.94848e-10
-3.09366e-09
-2.88235e-10
-2.81275e-09
-2.80913e-10
-2.53986e-09
-2.72888e-10
-2.27569e-09
-2.64173e-10
-2.02091e-09
-2.5478e-10
-1.77618e-09
-2.44725e-10
-1.54216e-09
-2.34023e-10
-1.31946e-09
-2.22697e-10
-1.1087e-09
-2.10769e-10
-9.10435e-10
-1.98263e-10
-7.25223e-10
-1.8521e-10
-5.53576e-10
-1.71645e-10
-3.95974e-10
-1.57603e-10
-2.52852e-10
-1.43126e-10
-1.24595e-10
-1.28259e-10
-1.15358e-11
-1.13059e-10
8.60568e-11
-9.7591e-11
1.67986e-10
-8.19299e-11
2.34146e-10
-6.61619e-11
2.84537e-10
-5.03914e-11
3.19284e-10
-3.47456e-11
3.38666e-10
-1.93802e-11
3.43155e-10
-4.48786e-12
3.33466e-10
9.68844e-12
3.10631e-10
2.28352e-11
2.7609e-10
3.45417e-11
2.31832e-10
4.42574e-11
1.80596e-10
5.12345e-11
1.26136e-10
5.44591e-11
7.35397e-11
5.25963e-11
2.96222e-11
4.39184e-11
3.09575e-12
2.65261e-11
3.09427e-12
3.09491e-11
-3.80435e-11
1.01611e-10
-1.01591e-10
1.92743e-10
-1.35673e-10
2.8674e-10
-1.41893e-10
3.69142e-10
-1.26492e-10
4.28892e-10
-9.51573e-11
4.5786e-10
-5.24382e-11
4.50283e-10
-1.83557e-12
4.02242e-10
5.40195e-11
3.11219e-10
1.13157e-10
1.75777e-10
1.74102e-10
-4.70041e-12
2.35741e-10
-2.30197e-10
2.97228e-10
-5.00213e-10
3.57922e-10
-8.13872e-10
4.1733e-10
-1.17001e-09
4.75078e-10
-1.56726e-09
5.30884e-10
-2.00406e-09
5.84532e-10
-2.47875e-09
6.35867e-10
-2.98957e-09
6.84773e-10
-3.53469e-09
7.31173e-10
-4.11225e-09
7.75015e-10
-4.72035e-09
8.1627e-10
-5.35708e-09
8.54929e-10
-6.02055e-09
8.90996e-10
-6.70887e-09
9.24491e-10
-7.42015e-09
9.55442e-10
-8.15254e-09
9.83882e-10
-8.90421e-09
1.00985e-09
-9.67337e-09
1.03339e-09
-1.04583e-08
1.05454e-09
-1.12571e-08
1.07336e-09
-1.20683e-08
1.08991e-09
-1.28902e-08
1.10422e-09
-1.37211e-08
1.11636e-09
-1.45594e-08
1.12638e-09
-1.54037e-08
1.13432e-09
-1.62523e-08
1.14023e-09
-1.71039e-08
1.14417e-09
-1.7957e-08
1.14619e-09
-1.88102e-08
1.14632e-09
-1.96622e-08
1.14461e-09
-2.05116e-08
1.14112e-09
-2.1357e-08
1.13587e-09
-2.21973e-08
1.12891e-09
-2.30311e-08
1.12028e-09
-2.38573e-08
1.11001e-09
-2.46747e-08
1.09814e-09
-2.5482e-08
1.0847e-09
-2.62782e-08
1.06973e-09
-2.70621e-08
1.05325e-09
-2.78326e-08
1.03528e-09
-2.85887e-08
1.01587e-09
-2.93292e-08
9.95042e-10
-3.00531e-08
9.72818e-10
-3.07595e-08
9.49228e-10
-3.14473e-08
9.24297e-10
-3.21155e-08
8.98049e-10
-3.27633e-08
8.70512e-10
-3.33895e-08
8.41712e-10
-3.39934e-08
8.11676e-10
-3.45739e-08
7.80431e-10
-3.51303e-08
7.48003e-10
-3.56617e-08
7.14423e-10
-3.61672e-08
6.79718e-10
-3.66461e-08
6.4392e-10
-3.70975e-08
6.07063e-10
-3.75206e-08
5.6918e-10
-3.79149e-08
5.30306e-10
-3.82794e-08
4.9048e-10
-3.86136e-08
4.49739e-10
-3.89169e-08
4.08127e-10
-3.91885e-08
3.65686e-10
-3.94279e-08
3.22463e-10
-3.96347e-08
2.78507e-10
-3.98081e-08
2.33869e-10
-3.9948e-08
1.88605e-10
-4.00537e-08
1.42769e-10
-4.01249e-08
9.64224e-11
-4.01613e-08
4.96264e-11
-4.01625e-08
2.44423e-12
-4.01285e-08
-4.50555e-11
-4.00589e-08
-9.2804e-11
-3.99537e-08
-1.40732e-10
-3.98128e-08
-1.88763e-10
-3.96361e-08
-2.36819e-10
-3.94237e-08
-2.84819e-10
-3.91758e-08
-3.32684e-10
-3.88924e-08
-3.80329e-10
-3.85739e-08
-4.2767e-10
-3.82204e-08
-4.74619e-10
-3.78325e-08
-5.21083e-10
-3.74104e-08
-5.6697e-10
-3.69548e-08
-6.12188e-10
-3.64661e-08
-6.56642e-10
-3.5945e-08
-7.00237e-10
-3.53922e-08
-7.42879e-10
-3.48086e-08
-7.84473e-10
-3.41949e-08
-8.2492e-10
-3.35521e-08
-8.64123e-10
-3.28812e-08
-9.01986e-10
-3.21833e-08
-9.38413e-10
-3.14595e-08
-9.73306e-10
-3.07109e-08
-1.00657e-09
-2.99389e-08
-1.03813e-09
-2.91449e-08
-1.06788e-09
-2.83301e-08
-1.09573e-09
-2.74962e-08
-1.12159e-09
-2.66446e-08
-1.1454e-09
-2.5777e-08
-1.16706e-09
-2.48949e-08
-1.1865e-09
-2.4e-08
-1.20365e-09
-2.30942e-08
-1.21844e-09
-2.21792e-08
-1.23081e-09
-2.12569e-08
-1.24068e-09
-2.03291e-08
-1.24801e-09
-1.93979e-08
-1.25275e-09
-1.8465e-08
-1.25485e-09
-1.75326e-08
-1.25426e-09
-1.66026e-08
-1.25097e-09
-1.56771e-08
-1.24494e-09
-1.4758e-08
-1.23614e-09
-1.38476e-08
-1.22457e-09
-1.29477e-08
-1.21021e-09
-1.20606e-08
-1.19306e-09
-1.11882e-08
-1.17313e-09
-1.03326e-08
-1.15043e-09
-9.4959e-09
-1.12498e-09
-8.68e-09
-1.0968e-09
-7.88695e-09
-1.06594e-09
-7.11869e-09
-1.03243e-09
-6.37714e-09
-9.96335e-10
-5.66415e-09
-9.57707e-10
-4.98155e-09
-9.16624e-10
-4.33108e-09
-8.73168e-10
-3.71442e-09
-8.27433e-10
-3.13316e-09
-7.79525e-10
-2.58881e-09
-7.29563e-10
-2.08277e-09
-6.77685e-10
-1.61633e-09
-6.24043e-10
-1.19064e-09
-5.68811e-10
-8.06714e-10
-5.12186e-10
-4.65378e-10
-4.54396e-10
-1.67268e-10
-3.95701e-10
8.72087e-11
-3.36406e-10
2.97916e-10
-2.76868e-10
4.65034e-10
-2.17509e-10
5.89118e-10
-1.58833e-10
6.71181e-10
-1.01448e-10
7.12789e-10
-4.60984e-11
7.16184e-10
6.29226e-12
6.8445e-10
5.45702e-11
6.21713e-10
9.72776e-11
5.33405e-10
1.32561e-10
4.2658e-10
1.58056e-10
3.1024e-10
1.70796e-10
1.95615e-10
1.67223e-10
9.61337e-11
1.434e-10
2.64953e-11
9.61616e-11
2.95902e-11
4.45995e-11
-8.26378e-11
1.35839e-10
-1.92835e-10
2.46012e-10
-2.45843e-10
3.52944e-10
-2.48827e-10
4.38273e-10
-2.11823e-10
4.87357e-10
-1.44242e-10
4.88934e-10
-5.40145e-11
4.34633e-10
5.24679e-11
3.18467e-10
1.70183e-10
1.36396e-10
2.95226e-10
-1.1407e-10
4.24568e-10
-4.34186e-10
5.55857e-10
-8.24231e-10
6.87273e-10
-1.28371e-09
8.17394e-10
-1.8115e-09
9.45124e-10
-2.40603e-09
1.06961e-09
-3.06532e-09
1.19018e-09
-3.78712e-09
1.30633e-09
-4.56895e-09
1.41769e-09
-5.40815e-09
1.52397e-09
-6.30195e-09
1.62497e-09
-7.24747e-09
1.72054e-09
-8.2418e-09
1.8106e-09
-9.28197e-09
1.8951e-09
-1.0365e-08
1.97403e-09
-1.14879e-08
2.04742e-09
-1.26478e-08
2.1153e-09
-1.38416e-08
2.17772e-09
-1.50666e-08
2.23478e-09
-1.63197e-08
2.28654e-09
-1.75983e-08
2.3331e-09
-1.88995e-08
2.37457e-09
-2.02206e-08
2.41103e-09
-2.1559e-08
2.4426e-09
-2.2912e-08
2.46939e-09
-2.42771e-08
2.4915e-09
-2.56518e-08
2.50903e-09
-2.70337e-08
2.52211e-09
-2.84203e-08
2.53082e-09
-2.98094e-08
2.53527e-09
-3.11987e-08
2.53557e-09
-3.25859e-08
2.53179e-09
-3.39688e-08
2.52405e-09
-3.53454e-08
2.51243e-09
-3.67135e-08
2.49701e-09
-3.80711e-08
2.47788e-09
-3.94162e-08
2.45511e-09
-4.07468e-08
2.42879e-09
-4.20611e-08
2.39899e-09
-4.33571e-08
2.36577e-09
-4.46331e-08
2.32921e-09
-4.58872e-08
2.28936e-09
-4.71176e-08
2.2463e-09
-4.83227e-08
2.20009e-09
-4.95006e-08
2.15078e-09
-5.06498e-08
2.09844e-09
-5.17687e-08
2.04312e-09
-5.28555e-08
1.9849e-09
-5.39088e-08
1.92381e-09
-5.4927e-08
1.85993e-09
-5.59087e-08
1.79331e-09
-5.68522e-08
1.72401e-09
-5.77563e-08
1.65211e-09
-5.86196e-08
1.57766e-09
-5.94406e-08
1.50072e-09
-6.0218e-08
1.42138e-09
-6.09507e-08
1.3397e-09
-6.16373e-08
1.25577e-09
-6.22766e-08
1.16965e-09
-6.28676e-08
1.08145e-09
-6.34091e-08
9.91234e-10
-6.39001e-08
8.99112e-10
-6.43395e-08
8.05175e-10
-6.47266e-08
7.0953e-10
-6.50604e-08
6.12284e-10
-6.53401e-08
5.13552e-10
-6.55649e-08
4.13455e-10
-6.57343e-08
3.1212e-10
-6.58475e-08
2.09676e-10
-6.59042e-08
1.0626e-10
-6.59037e-08
2.01498e-12
-6.58459e-08
-1.02913e-10
-6.57303e-08
-2.08367e-10
-6.55569e-08
-3.14188e-10
-6.53254e-08
-4.20214e-10
-6.50359e-08
-5.26273e-10
-6.46886e-08
-6.32187e-10
-6.42835e-08
-7.37779e-10
-6.3821e-08
-8.42863e-10
-6.33014e-08
-9.47249e-10
-6.27252e-08
-1.05074e-09
-6.20932e-08
-1.15315e-09
-6.14059e-08
-1.25427e-09
-6.06642e-08
-1.35389e-09
-5.9869e-08
-1.45182e-09
-5.90214e-08
-1.54783e-09
-5.81225e-08
-1.64173e-09
-5.71737e-08
-1.7333e-09
-5.61763e-08
-1.82232e-09
-5.51318e-08
-1.9086e-09
-5.40419e-08
-1.99192e-09
-5.29083e-08
-2.07206e-09
-5.17327e-08
-2.14883e-09
-5.05173e-08
-2.22201e-09
-4.9264e-08
-2.29141e-09
-4.79751e-08
-2.35683e-09
-4.66527e-08
-2.41808e-09
-4.52993e-08
-2.47497e-09
-4.39174e-08
-2.52732e-09
-4.25095e-08
-2.57496e-09
-4.10783e-08
-2.61772e-09
-3.96265e-08
-2.65545e-09
-3.8157e-08
-2.68799e-09
-3.66726e-08
-2.7152e-09
-3.51763e-08
-2.73695e-09
-3.36712e-08
-2.75313e-09
-3.21603e-08
-2.76362e-09
-3.06468e-08
-2.76832e-09
-2.9134e-08
-2.76715e-09
-2.76249e-08
-2.76004e-09
-2.61229e-08
-2.74693e-09
-2.46313e-08
-2.72777e-09
-2.31533e-08
-2.70254e-09
-2.16923e-08
-2.67122e-09
-2.02515e-08
-2.63381e-09
-1.88343e-08
-2.59031e-09
-1.7444e-08
-2.54076e-09
-1.60838e-08
-2.48522e-09
-1.47568e-08
-2.42373e-09
-1.34664e-08
-2.3564e-09
-1.22155e-08
-2.28331e-09
-1.10072e-08
-2.2046e-09
-9.84456e-09
-2.12039e-09
-8.73032e-09
-2.03087e-09
-7.66727e-09
-1.93621e-09
-6.65806e-09
-1.83664e-09
-5.70518e-09
-1.7324e-09
-4.81097e-09
-1.62377e-09
-3.97762e-09
-1.51104e-09
-3.20709e-09
-1.39457e-09
-2.50113e-09
-1.27477e-09
-1.86124e-09
-1.15208e-09
-1.28863e-09
-1.02701e-09
-7.84172e-10
-9.00156e-10
-3.48372e-10
-7.72205e-10
1.87148e-11
-6.43953e-10
3.17544e-10
-5.16336e-10
5.49177e-10
-3.90463e-10
7.15389e-10
-2.67657e-10
8.18805e-10
-1.49514e-10
8.63071e-10
-3.79733e-11
8.5305e-10
6.45916e-11
7.95065e-10
1.55264e-10
6.97173e-10
2.30453e-10
5.69459e-10
2.85771e-10
4.24299e-10
3.15957e-10
2.76524e-10
3.14999e-10
1.43333e-10
2.76591e-10
4.38559e-11
1.95639e-10
7.34474e-11
4.80755e-11
-1.30708e-10
1.42441e-10
-2.87207e-10
2.49684e-10
-3.53084e-10
3.44252e-10
-3.43395e-10
4.05371e-10
-2.72943e-10
4.16306e-10
-1.55177e-10
3.63887e-10
-1.59687e-12
2.38044e-10
1.78311e-10
3.13471e-11
3.7688e-10
-2.61405e-10
5.87976e-10
-6.43565e-10
8.06727e-10
-1.11697e-09
1.02926e-09
-1.68222e-09
1.25252e-09
-2.33891e-09
1.47409e-09
-3.08583e-09
1.69204e-09
-3.9211e-09
1.90488e-09
-4.84234e-09
2.11141e-09
-5.84675e-09
2.31074e-09
-6.93118e-09
2.50213e-09
-8.09227e-09
2.68506e-09
-9.32644e-09
2.85914e-09
-1.063e-08
3.02407e-09
-1.19991e-08
3.17968e-09
-1.34298e-08
3.32585e-09
-1.49183e-08
3.46252e-09
-1.64606e-08
3.58971e-09
-1.80528e-08
3.70746e-09
-1.96909e-08
3.81585e-09
-2.13711e-08
3.91497e-09
-2.30895e-08
4.00497e-09
-2.48424e-08
4.08597e-09
-2.66259e-08
4.15814e-09
-2.84366e-08
4.22165e-09
-3.02706e-08
4.27666e-09
-3.21246e-08
4.32334e-09
-3.3995e-08
4.36189e-09
-3.58784e-08
4.39247e-09
-3.77716e-08
4.41525e-09
-3.96712e-08
4.43042e-09
-4.1574e-08
4.43815e-09
-4.34771e-08
4.4386e-09
-4.53772e-08
4.43194e-09
-4.72715e-08
4.41832e-09
-4.9157e-08
4.39789e-09
-5.10308e-08
4.37082e-09
-5.28901e-08
4.33723e-09
-5.47323e-08
4.29726e-09
-5.65545e-08
4.25106e-09
-5.83543e-08
4.19874e-09
-6.01289e-08
4.14042e-09
-6.1876e-08
4.07624e-09
-6.35929e-08
4.00629e-09
-6.52773e-08
3.9307e-09
-6.69268e-08
3.84958e-09
-6.8539e-08
3.76303e-09
-7.01118e-08
3.67116e-09
-7.16427e-08
3.57407e-09
-7.31297e-08
3.47188e-09
-7.45706e-08
3.36467e-09
-7.59632e-08
3.25257e-09
-7.73056e-08
3.13568e-09
-7.85957e-08
3.01411e-09
-7.98315e-08
2.88797e-09
-8.10113e-08
2.75738e-09
-8.2133e-08
2.62246e-09
-8.31949e-08
2.48334e-09
-8.41954e-08
2.34015e-09
-8.51326e-08
2.19302e-09
-8.60051e-08
2.04209e-09
-8.68112e-08
1.88753e-09
-8.75494e-08
1.72948e-09
-8.82184e-08
1.56812e-09
-8.88168e-08
1.40361e-09
-8.93435e-08
1.23614e-09
-8.97971e-08
1.0659e-09
-9.01766e-08
8.93099e-10
-9.04811e-08
7.1794e-10
-9.07096e-08
5.40648e-10
-9.08614e-08
3.61453e-10
-9.09357e-08
1.80593e-10
-9.09321e-08
-1.68017e-12
-9.08499e-08
-1.85109e-10
-9.06888e-08
-3.69425e-10
-9.04486e-08
-5.54347e-10
-9.01293e-08
-7.39587e-10
-8.97307e-08
-9.24849e-10
-8.9253e-08
-1.10982e-09
-8.86966e-08
-1.2942e-09
-8.80618e-08
-1.47765e-09
-8.73492e-08
-1.65986e-09
-8.65595e-08
-1.84047e-09
-8.56935e-08
-2.01915e-09
-8.47522e-08
-2.19555e-09
-8.37368e-08
-2.36932e-09
-8.26485e-08
-2.54009e-09
-8.14888e-08
-2.70751e-09
-8.02594e-08
-2.87121e-09
-7.89618e-08
-3.03082e-09
-7.75982e-08
-3.18599e-09
-7.61704e-08
-3.33635e-09
-7.46808e-08
-3.48152e-09
-7.31317e-08
-3.62116e-09
-7.15257e-08
-3.7549e-09
-6.98653e-08
-3.88238e-09
-6.81534e-08
-4.00328e-09
-6.6393e-08
-4.11723e-09
-6.45872e-08
-4.22391e-09
-6.27392e-08
-4.32301e-09
-6.08523e-08
-4.4142e-09
-5.893e-08
-4.4972e-09
-5.6976e-08
-4.57171e-09
-5.4994e-08
-4.63745e-09
-5.29878e-08
-4.69419e-09
-5.09614e-08
-4.74166e-09
-4.89187e-08
-4.77966e-09
-4.68638e-08
-4.80796e-09
-4.48011e-08
-4.82639e-09
-4.27346e-08
-4.83478e-09
-4.06688e-08
-4.83298e-09
-3.86079e-08
-4.82088e-09
-3.65565e-08
-4.79838e-09
-3.45189e-08
-4.76539e-09
-3.24995e-08
-4.72188e-09
-3.05029e-08
-4.66782e-09
-2.85335e-08
-4.6032e-09
-2.65958e-08
-4.52807e-09
-2.46941e-08
-4.44248e-09
-2.28328e-08
-4.34651e-09
-2.10162e-08
-4.24029e-09
-1.92486e-08
-4.12398e-09
-1.75342e-08
-3.99775e-09
-1.5877e-08
-3.86183e-09
-1.42809e-08
-3.71647e-09
-1.27498e-08
-3.56197e-09
-1.12873e-08
-3.39868e-09
-9.897e-09
-3.22698e-09
-8.5821e-09
-3.0473e-09
-7.34571e-09
-2.86015e-09
-6.19067e-09
-2.66608e-09
-5.11953e-09
-2.46571e-09
-4.13455e-09
-2.25975e-09
-3.23762e-09
-2.04901e-09
-2.43023e-09
-1.8344e-09
-1.71342e-09
-1.61696e-09
-1.08772e-09
-1.39791e-09
-5.53049e-10
-1.17863e-09
-1.08646e-10
-9.60739e-10
2.47044e-10
-7.46151e-10
5.165e-10
-5.37112e-10
7.0328e-10
-3.36295e-10
8.12203e-10
-1.46897e-10
8.49552e-10
2.72427e-11
8.23309e-10
1.81508e-10
7.43405e-10
3.10358e-10
6.21972e-10
4.07204e-10
4.73568e-10
4.64361e-10
3.15371e-10
4.73196e-10
1.67328e-10
4.24635e-10
5.25514e-11
3.10418e-10
1.25999e-10
4.44633e-11
-1.75167e-10
1.27628e-10
-3.70376e-10
2.13722e-10
-4.39175e-10
2.75302e-10
-4.04972e-10
2.90223e-10
-2.87865e-10
2.406e-10
-1.05556e-10
1.12195e-10
1.26807e-10
-1.06073e-10
3.96579e-10
-4.22545e-10
6.93351e-10
-8.43205e-10
1.00864e-09
-1.37203e-09
1.33555e-09
-2.0113e-09
1.66854e-09
-2.7619e-09
2.00312e-09
-3.62352e-09
2.3357e-09
-4.59488e-09
2.66341e-09
-5.67394e-09
2.98393e-09
-6.85797e-09
3.29545e-09
-8.14376e-09
3.59652e-09
-9.52764e-09
3.88601e-09
-1.10056e-08
4.16306e-09
-1.25735e-08
4.427e-09
-1.42268e-08
4.67737e-09
-1.59609e-08
4.91383e-09
-1.77713e-08
5.13615e-09
-1.9653e-08
5.34423e-09
-2.16013e-08
5.53803e-09
-2.36114e-08
5.71759e-09
-2.56785e-08
5.88298e-09
-2.77979e-08
6.03434e-09
-2.99648e-08
6.17184e-09
-3.21745e-08
6.29567e-09
-3.44224e-08
6.40605e-09
-3.67039e-08
6.50321e-09
-3.90147e-08
6.58739e-09
-4.13502e-08
6.65884e-09
-4.37061e-08
6.71783e-09
-4.60783e-08
6.76462e-09
-4.84625e-08
6.79945e-09
-5.08546e-08
6.82259e-09
-5.32508e-08
6.83429e-09
-5.5647e-08
6.83481e-09
-5.80394e-08
6.82437e-09
-6.04243e-08
6.80323e-09
-6.27981e-08
6.77161e-09
-6.5157e-08
6.72973e-09
-6.74976e-08
6.67782e-09
-6.98164e-08
6.61607e-09
-7.211e-08
6.54469e-09
-7.43751e-08
6.46388e-09
-7.66085e-08
6.37382e-09
-7.8807e-08
6.27471e-09
-8.09674e-08
6.1667e-09
-8.30867e-08
6.04999e-09
-8.51619e-08
5.92474e-09
-8.719e-08
5.79113e-09
-8.91681e-08
5.6493e-09
-9.10935e-08
5.49944e-09
-9.29633e-08
5.3417e-09
-9.47749e-08
5.17624e-09
-9.65255e-08
5.00325e-09
-9.82127e-08
4.82288e-09
-9.98339e-08
4.63531e-09
-1.01387e-07
4.44072e-09
-1.02869e-07
4.23928e-09
-1.04277e-07
4.0312e-09
-1.05611e-07
3.81667e-09
-1.06866e-07
3.59589e-09
-1.08042e-07
3.36908e-09
-1.09137e-07
3.13646e-09
-1.10148e-07
2.89827e-09
-1.11073e-07
2.65475e-09
-1.11911e-07
2.40616e-09
-1.1266e-07
2.15278e-09
-1.13319e-07
1.89488e-09
-1.13886e-07
1.63277e-09
-1.14359e-07
1.36676e-09
-1.14739e-07
1.09717e-09
-1.15022e-07
8.24348e-10
-1.15209e-07
5.48647e-10
-1.15299e-07
2.70438e-10
-1.15291e-07
-9.89539e-12
-1.15184e-07
-2.91953e-10
-1.14978e-07
-5.75321e-10
-1.14673e-07
-8.59572e-10
-1.14268e-07
-1.14426e-09
-1.13764e-07
-1.42893e-09
-1.13161e-07
-1.71311e-09
-1.12459e-07
-1.99632e-09
-1.11659e-07
-2.27806e-09
-1.10761e-07
-2.55784e-09
-1.09766e-07
-2.83513e-09
-1.08676e-07
-3.10941e-09
-1.07491e-07
-3.38015e-09
-1.06214e-07
-3.6468e-09
-1.04845e-07
-3.90883e-09
-1.03387e-07
-4.16567e-09
-1.01841e-07
-4.41678e-09
-1.0021e-07
-4.66159e-09
-9.84967e-08
-4.89956e-09
-9.6703e-08
-5.13011e-09
-9.48318e-08
-5.35271e-09
-9.28862e-08
-5.56679e-09
-9.08692e-08
-5.77182e-09
-8.87844e-08
-5.96726e-09
-8.66351e-08
-6.15258e-09
-8.4425e-08
-6.32727e-09
-8.21581e-08
-6.49081e-09
-7.98384e-08
-6.64273e-09
-7.747e-08
-6.78255e-09
-7.50574e-08
-6.90982e-09
-7.2605e-08
-7.0241e-09
-7.01175e-08
-7.12499e-09
-6.75996e-08
-7.21208e-09
-6.50562e-08
-7.28502e-09
-6.24924e-08
-7.34347e-09
-5.99133e-08
-7.38711e-09
-5.7324e-08
-7.41567e-09
-5.47299e-08
-7.4289e-09
-5.21363e-08
-7.42658e-09
-4.95486e-08
-7.40854e-09
-4.69723e-08
-7.37462e-09
-4.4413e-08
-7.32472e-09
-4.18761e-08
-7.25877e-09
-3.93672e-08
-7.17674e-09
-3.68918e-08
-7.07864e-09
-3.44553e-08
-6.96452e-09
-3.20633e-08
-6.83448e-09
-2.97212e-08
-6.68867e-09
-2.74342e-08
-6.52728e-09
-2.52076e-08
-6.35055e-09
-2.30466e-08
-6.15877e-09
-2.09561e-08
-5.9523e-09
-1.8941e-08
-5.73155e-09
-1.7006e-08
-5.49698e-09
-1.51556e-08
-5.24913e-09
-1.3394e-08
-4.9886e-09
-1.17252e-08
-4.71609e-09
-1.01529e-08
-4.43238e-09
-8.68069e-09
-4.13832e-09
-7.31149e-09
-3.83491e-09
-6.04801e-09
-3.52324e-09
-4.89245e-09
-3.20456e-09
-3.84655e-09
-2.8803e-09
-2.91146e-09
-2.55206e-09
-2.08768e-09
-2.22168e-09
-1.37501e-09
-1.8913e-09
-7.72381e-10
-1.56336e-09
-2.77812e-10
-1.24072e-09
1.11779e-10
-9.26704e-10
4.00714e-10
-6.2523e-10
5.94728e-10
-3.40913e-10
7.01175e-10
-7.92049e-11
7.29234e-10
1.5345e-10
6.90128e-10
3.49463e-10
5.97358e-10
4.99972e-10
4.6693e-10
5.94788e-10
3.1764e-10
6.22487e-10
1.7148e-10
5.70797e-10
5.45366e-11
4.27361e-10
1.80534e-10
3.60289e-11
-2.11195e-10
9.69968e-11
-4.31345e-10
1.47343e-10
-4.89522e-10
1.59199e-10
-4.16828e-10
1.09993e-10
-2.38657e-10
-1.85889e-11
2.30218e-11
-2.4123e-10
3.49446e-10
-5.69488e-10
7.24836e-10
-1.01218e-09
1.13604e-09
-1.57572e-09
1.57218e-09
-2.26448e-09
2.0243e-09
-3.08101e-09
2.48506e-09
-4.02636e-09
2.94847e-09
-5.10029e-09
3.40963e-09
-6.30149e-09
3.8646e-09
-7.62772e-09
4.31017e-09
-9.07603e-09
4.74376e-09
-1.06428e-08
5.16331e-09
-1.2324e-08
5.56721e-09
-1.41152e-08
5.95417e-09
-1.60114e-08
6.32322e-09
-1.80076e-08
6.67363e-09
-2.00987e-08
7.00487e-09
-2.22791e-08
7.31659e-09
-2.45435e-08
7.60857e-09
-2.68861e-08
7.88072e-09
-2.93016e-08
8.13303e-09
-3.17842e-08
8.36559e-09
-3.43284e-08
8.57854e-09
-3.69286e-08
8.77208e-09
-3.95794e-08
8.94646e-09
-4.22753e-08
9.10195e-09
-4.5011e-08
9.23884e-09
-4.7781e-08
9.35747e-09
-5.05804e-08
9.45816e-09
-5.34038e-08
9.54127e-09
-5.62463e-08
9.60712e-09
-5.91029e-08
9.65609e-09
-6.19688e-08
9.68851e-09
-6.48393e-08
9.70473e-09
-6.77096e-08
9.7051e-09
-7.05752e-08
9.68995e-09
-7.34315e-08
9.6596e-09
-7.62743e-08
9.61438e-09
-7.90992e-08
9.5546e-09
-8.19019e-08
9.48055e-09
-8.46784e-08
9.39253e-09
-8.74245e-08
9.29082e-09
-9.01363e-08
9.1757e-09
-9.28099e-08
9.04743e-09
-9.54415e-08
8.90629e-09
-9.80273e-08
8.7525e-09
-1.00564e-07
8.58634e-09
-1.03047e-07
8.40804e-09
-1.05474e-07
8.21784e-09
-1.0784e-07
8.01597e-09
-1.10144e-07
7.80269e-09
-1.1238e-07
7.57821e-09
-1.14547e-07
7.34279e-09
-1.1664e-07
7.09666e-09
-1.18657e-07
6.84006e-09
-1.20595e-07
6.57325e-09
-1.22451e-07
6.29649e-09
-1.24222e-07
6.01004e-09
-1.25905e-07
5.71417e-09
-1.27497e-07
5.40918e-09
-1.28997e-07
5.09534e-09
-1.30401e-07
4.77299e-09
-1.31706e-07
4.44243e-09
-1.32912e-07
4.104e-09
-1.34016e-07
3.75807e-09
-1.35014e-07
3.40499e-09
-1.35907e-07
3.04516e-09
-1.36691e-07
2.67899e-09
-1.37365e-07
2.3069e-09
-1.37928e-07
1.92933e-09
-1.38377e-07
1.54676e-09
-1.38712e-07
1.15966e-09
-1.38932e-07
7.6855e-10
-1.39036e-07
3.73948e-10
-1.39022e-07
-2.35988e-11
-1.38891e-07
-4.23523e-10
-1.38641e-07
-8.25235e-10
-1.38272e-07
-1.22813e-09
-1.37785e-07
-1.63157e-09
-1.37179e-07
-2.03493e-09
-1.36454e-07
-2.43752e-09
-1.35612e-07
-2.83868e-09
-1.34652e-07
-3.2377e-09
-1.33576e-07
-3.63387e-09
-1.32385e-07
-4.02647e-09
-1.3108e-07
-4.41475e-09
-1.29662e-07
-4.79796e-09
-1.28133e-07
-5.17534e-09
-1.26496e-07
-5.54612e-09
-1.24752e-07
-5.90952e-09
-1.22904e-07
-6.26477e-09
-1.20955e-07
-6.61109e-09
-1.18907e-07
-6.94768e-09
-1.16763e-07
-7.27376e-09
-1.14527e-07
-7.58857e-09
-1.12203e-07
-7.89132e-09
-1.09793e-07
-8.18126e-09
-1.07303e-07
-8.45762e-09
-1.04736e-07
-8.71968e-09
-1.02096e-07
-8.96671e-09
-9.9389e-08
-9.19799e-09
-9.66189e-08
-9.41286e-09
-9.37908e-08
-9.61064e-09
-9.09099e-08
-9.79071e-09
-8.79816e-08
-9.95245e-09
-8.50113e-08
-1.00953e-08
-8.20047e-08
-1.02187e-08
-7.89676e-08
-1.03221e-08
-7.59059e-08
-1.04051e-08
-7.28257e-08
-1.04673e-08
-6.97332e-08
-1.05082e-08
-6.66345e-08
-1.05275e-08
-6.35361e-08
-1.0525e-08
-6.04444e-08
-1.05003e-08
-5.73658e-08
-1.04532e-08
-5.43068e-08
-1.03837e-08
-5.1274e-08
-1.02916e-08
-4.82738e-08
-1.01769e-08
-4.53127e-08
-1.00397e-08
-4.23973e-08
-9.87992e-09
-3.9534e-08
-9.69781e-09
-3.67291e-08
-9.49358e-09
-3.39889e-08
-9.26751e-09
-3.13195e-08
-9.01994e-09
-2.87269e-08
-8.75131e-09
-2.62171e-08
-8.46213e-09
-2.37956e-08
-8.15299e-09
-2.1468e-08
-7.82458e-09
-1.92395e-08
-7.47765e-09
-1.7115e-08
-7.11311e-09
-1.50992e-08
-6.73192e-09
-1.31963e-08
-6.33522e-09
-1.14104e-08
-5.92424e-09
-9.74493e-09
-5.5004e-09
-8.20289e-09
-5.06528e-09
-6.78681e-09
-4.62065e-09
-5.49859e-09
-4.16851e-09
-4.33948e-09
-3.71117e-09
-3.30997e-09
-3.25119e-09
-2.40973e-09
-2.79155e-09
-1.63747e-09
-2.33563e-09
-9.90823e-10
-1.88737e-09
-4.66252e-10
-1.45128e-09
-5.88524e-11
-1.03263e-09
2.37792e-10
-6.37558e-10
4.31793e-10
-2.73207e-10
5.33149e-10
5.20936e-11
5.53941e-10
3.28669e-10
5.08556e-10
5.45355e-10
4.13938e-10
6.89406e-10
2.8994e-10
7.46486e-10
1.59885e-10
7.00853e-10
5.15939e-11
5.3565e-10
2.32128e-10
2.43461e-11
-2.3554e-10
5.4969e-11
-4.61966e-10
5.82148e-11
-4.92771e-10
6.99926e-12
-3.65615e-10
-1.20853e-10
-1.10804e-10
-3.43458e-10
2.45627e-10
-6.75447e-10
6.81433e-10
-1.12842e-09
1.1778e-09
-1.71129e-09
1.71891e-09
-2.43063e-09
2.29153e-09
-3.29093e-09
2.8846e-09
-4.29487e-09
3.489e-09
-5.44353e-09
4.09714e-09
-6.73669e-09
4.70279e-09
-8.17293e-09
5.30084e-09
-9.74987e-09
5.88711e-09
-1.14643e-08
6.4582e-09
-1.33124e-08
7.01136e-09
-1.52895e-08
7.54439e-09
-1.73909e-08
8.05557e-09
-1.96112e-08
8.54352e-09
-2.19448e-08
9.00724e-09
-2.43859e-08
9.44594e-09
-2.69284e-08
9.8591e-09
-2.95662e-08
1.02464e-08
-3.22931e-08
1.06076e-08
-3.51027e-08
1.09427e-08
-3.79888e-08
1.12517e-08
-4.0945e-08
1.15348e-08
-4.39651e-08
1.17922e-08
-4.70428e-08
1.20242e-08
-5.0172e-08
1.22311e-08
-5.33464e-08
1.24133e-08
-5.65601e-08
1.25712e-08
-5.98071e-08
1.27051e-08
-6.30815e-08
1.28157e-08
-6.63775e-08
1.29031e-08
-6.96895e-08
1.29681e-08
-7.30118e-08
1.30109e-08
-7.63391e-08
1.3032e-08
-7.96658e-08
1.30319e-08
-8.29868e-08
1.30109e-08
-8.62969e-08
1.29697e-08
-8.95909e-08
1.29084e-08
-9.28639e-08
1.28276e-08
-9.61111e-08
1.27277e-08
-9.93275e-08
1.2609e-08
-1.02509e-07
1.24719e-08
-1.0565e-07
1.23168e-08
-1.08746e-07
1.2144e-08
-1.11794e-07
1.19539e-08
-1.14788e-07
1.17468e-08
-1.17725e-07
1.15231e-08
-1.206e-07
1.12831e-08
-1.23409e-07
1.10271e-08
-1.26149e-07
1.07554e-08
-1.28814e-07
1.04684e-08
-1.31403e-07
1.01664e-08
-1.33909e-07
9.84965e-09
-1.36331e-07
9.51855e-09
-1.38665e-07
9.17342e-09
-1.40906e-07
8.8146e-09
-1.43052e-07
8.44243e-09
-1.45099e-07
8.05729e-09
-1.47045e-07
7.65954e-09
-1.48885e-07
7.24957e-09
-1.50617e-07
6.82779e-09
-1.52239e-07
6.39461e-09
-1.53747e-07
5.95048e-09
-1.55139e-07
5.49586e-09
-1.56412e-07
5.03121e-09
-1.57564e-07
4.55706e-09
-1.58593e-07
4.07391e-09
-1.59496e-07
3.58232e-09
-1.60272e-07
3.08287e-09
-1.60919e-07
2.57616e-09
-1.61435e-07
2.0628e-09
-1.61819e-07
1.54347e-09
-1.62069e-07
1.01884e-09
-1.62185e-07
4.89604e-10
-1.62165e-07
-4.34882e-11
-1.62009e-07
-5.7968e-10
-1.61716e-07
-1.11818e-09
-1.61286e-07
-1.65819e-09
-1.60718e-07
-2.19885e-09
-1.60014e-07
-2.7393e-09
-1.59173e-07
-3.27865e-09
-1.58196e-07
-3.81601e-09
-1.57083e-07
-4.35042e-09
-1.55836e-07
-4.88094e-09
-1.54456e-07
-5.40661e-09
-1.52944e-07
-5.92643e-09
-1.51303e-07
-6.43939e-09
-1.49533e-07
-6.9445e-09
-1.47639e-07
-7.44072e-09
-1.45621e-07
-7.92702e-09
-1.43484e-07
-8.40236e-09
-1.41229e-07
-8.8657e-09
-1.38861e-07
-9.316e-09
-1.36382e-07
-9.75222e-09
-1.33798e-07
-1.01733e-08
-1.31111e-07
-1.05783e-08
-1.28326e-07
-1.09661e-08
-1.25448e-07
-1.13358e-08
-1.22481e-07
-1.16863e-08
-1.19431e-07
-1.20168e-08
-1.16303e-07
-1.23262e-08
-1.13102e-07
-1.26137e-08
-1.09834e-07
-1.28784e-08
-1.06505e-07
-1.31195e-08
-1.03122e-07
-1.3336e-08
-9.96895e-08
-1.35274e-08
-9.62153e-08
-1.36929e-08
-9.27057e-08
-1.38317e-08
-8.91675e-08
-1.39434e-08
-8.56076e-08
-1.40272e-08
-8.2033e-08
-1.40827e-08
-7.8451e-08
-1.41095e-08
-7.48688e-08
-1.41072e-08
-7.12937e-08
-1.40754e-08
-6.77331e-08
-1.40138e-08
-6.41945e-08
-1.39224e-08
-6.06852e-08
-1.38009e-08
-5.72127e-08
-1.36494e-08
-5.37845e-08
-1.34679e-08
-5.04079e-08
-1.32565e-08
-4.70902e-08
-1.30155e-08
-4.38387e-08
-1.27451e-08
-4.06606e-08
-1.24457e-08
-3.75627e-08
-1.21178e-08
-3.4552e-08
-1.1762e-08
-3.1635e-08
-1.13791e-08
-2.88183e-08
-1.09697e-08
-2.61079e-08
-1.05349e-08
-2.35098e-08
-1.00757e-08
-2.10296e-08
-9.59332e-09
-1.86725e-08
-9.08904e-09
-1.64433e-08
-8.56441e-09
-1.43464e-08
-8.02111e-09
-1.23858e-08
-7.46105e-09
-1.05647e-08
-6.88634e-09
-8.88599e-09
-6.29937e-09
-7.35168e-09
-5.70282e-09
-5.96313e-09
-5.09972e-09
-4.72082e-09
-4.4935e-09
-3.62433e-09
-3.88804e-09
-2.67219e-09
-3.28777e-09
-1.8618e-09
-2.69776e-09
-1.18927e-09
-2.12381e-09
-6.49287e-10
-1.57262e-09
-2.34974e-10
-1.05187e-09
6.22767e-11
-5.70458e-10
2.52978e-10
-1.38608e-10
3.4973e-10
2.31916e-10
3.67431e-10
5.27652e-10
3.23549e-10
7.33288e-10
2.38496e-10
8.3154e-10
1.36209e-10
8.03142e-10
4.50925e-11
6.26765e-10
2.77221e-10
1.05109e-11
-2.4605e-10
4.89889e-12
-4.56351e-10
-4.75737e-11
-4.40298e-10
-1.72317e-10
-2.40873e-10
-3.90426e-10
1.07305e-10
-7.19292e-10
5.74493e-10
-1.17306e-09
1.1352e-09
-1.76299e-09
1.76774e-09
-2.49782e-09
2.45374e-09
-3.38398e-09
3.17769e-09
-4.42589e-09
3.92651e-09
-5.62615e-09
4.68926e-09
-6.98579e-09
5.45678e-09
-8.50448e-09
6.22147e-09
-1.01807e-08
6.97702e-09
-1.20118e-08
7.71822e-09
-1.39944e-08
8.44079e-09
-1.61243e-08
9.14125e-09
-1.83966e-08
9.81678e-09
-2.08062e-08
1.04651e-08
-2.33472e-08
1.10845e-08
-2.60135e-08
1.16735e-08
-2.87988e-08
1.22312e-08
-3.16964e-08
1.27568e-08
-3.46998e-08
1.32497e-08
-3.78019e-08
1.37097e-08
-4.09959e-08
1.41367e-08
-4.42748e-08
1.45306e-08
-4.76317e-08
1.48917e-08
-5.10596e-08
1.522e-08
-5.45515e-08
1.55161e-08
-5.81005e-08
1.57801e-08
-6.16999e-08
1.60127e-08
-6.53428e-08
1.62141e-08
-6.90227e-08
1.6385e-08
-7.2733e-08
1.65259e-08
-7.64671e-08
1.66373e-08
-8.02187e-08
1.67197e-08
-8.39816e-08
1.67737e-08
-8.77495e-08
1.67999e-08
-9.15165e-08
1.67988e-08
-9.52766e-08
1.6771e-08
-9.90239e-08
1.67169e-08
-1.02753e-07
1.66372e-08
-1.06457e-07
1.65323e-08
-1.10132e-07
1.64027e-08
-1.13772e-07
1.6249e-08
-1.17372e-07
1.60715e-08
-1.20926e-07
1.58709e-08
-1.2443e-07
1.56474e-08