/*--------------------------------*- C++ -*----------------------------------*\
  =========                 |
  \\      /  F ield         | OpenFOAM: The Open Source CFD Toolbox
   \\    /   O peration     | Website:  https://openfoam.org
    \\  /    A nd           | Version:  7
     \\/     M anipulation  |
\*---------------------------------------------------------------------------*/
FoamFile
{
    version     2.0;
    format      ascii;
    class       volScalarField;
    location    "0.5";
    object      p;
}
// * * * * * * * * * * * * * * * * * * * * * * * * * * * * * * * * * * * * * //

dimensions      [0 2 -2 0 0 0 0];

internalField   nonuniform List<scalar> 
25600
(
-3.93566e-08
9.58046e-06
9.14841e-06
-5.81184e-06
-3.53402e-05
-7.84078e-05
-0.000133473
-0.000198784
-0.000272598
-0.000353271
-0.000439294
-0.000529299
-0.000622057
-0.000716461
-0.000811522
-0.000906355
-0.00100018
-0.0010923
-0.00118212
-0.00126909
-0.00135274
-0.00143265
-0.00150845
-0.00157983
-0.00164652
-0.00170827
-0.00176489
-0.00181619
-0.00186204
-0.00190231
-0.00193691
-0.00196574
-0.00198873
-0.00200583
-0.002017
-0.0020222
-0.00202142
-0.00201462
-0.00200181
-0.00198297
-0.0019581
-0.00192722
-0.00189031
-0.0018474
-0.00179849
-0.00174361
-0.00168278
-0.00161601
-0.00154332
-0.00146476
-0.00138035
-0.00129012
-0.00119412
-0.00109239
-0.000984972
-0.000871919
-0.000753287
-0.000629145
-0.000499566
-0.000364627
-0.000224416
-7.90267e-05
7.14364e-05
0.000226859
0.000387124
0.000552099
0.000721639
0.000895588
0.00107377
0.00125601
0.00144212
0.00163188
0.00182507
0.00202146
0.00222082
0.00242288
0.00262738
0.00283402
0.00304253
0.00325259
0.00346387
0.00367606
0.00388881
0.00410177
0.00431458
0.00452687
0.00473826
0.00494837
0.0051568
0.00536316
0.00556703
0.00576803
0.00596574
0.00615974
0.00634965
0.00653506
0.00671557
0.00689078
0.00706032
0.00722381
0.00738087
0.00753117
0.00767435
0.0078101
0.00793811
0.0080581
0.0081698
0.00827297
0.00836737
0.00845283
0.00852916
0.00859621
0.00865387
0.00870206
0.00874072
0.0087698
0.00878932
0.00879931
0.00879983
0.00879099
0.00877292
0.0087458
0.00870982
0.00866522
0.00861226
0.00855125
0.00848252
0.00840644
0.00832342
0.00823389
0.00813831
0.00803717
0.00793099
0.00782035
0.00770581
0.00758799
0.00746753
0.00734508
0.00722133
0.00709699
0.00697281
0.00684957
0.00672807
0.00660911
0.00649354
0.00638224
0.0062761
0.00617603
0.00608298
0.00599789
0.00592173
0.00585542
0.00579987
0.00575588
0.0057241
0.00570483
0.00569778
0.00570161
0.00571337
0.00572686
-9.24325e-06
3.93608e-07
-1.79946e-06
-1.69779e-05
-4.42372e-05
-8.29507e-05
-0.000132104
-0.000190393
-0.00025644
-0.000328893
-0.000406459
-0.000487936
-0.000572215
-0.000658288
-0.000745241
-0.000832244
-0.000918548
-0.00100349
-0.00108647
-0.00116697
-0.00124452
-0.00131871
-0.00138917
-0.00145557
-0.00151765
-0.00157514
-0.00162785
-0.00167558
-0.00171818
-0.00175553
-0.00178751
-0.00181402
-0.00183499
-0.00185035
-0.00186004
-0.00186403
-0.00186228
-0.00185477
-0.00184148
-0.0018224
-0.00179752
-0.00176684
-0.00173037
-0.0016881
-0.00164005
-0.00158622
-0.00152664
-0.00146134
-0.00139032
-0.00131362
-0.00123128
-0.00114331
-0.00104977
-0.000950685
-0.000846115
-0.000736109
-0.000620724
-0.000500024
-0.000374085
-0.000242983
-0.000106807
3.43517e-05
0.000180391
0.000331197
0.000486649
0.000646621
0.000810969
0.00097954
0.00115217
0.00132867
0.00150886
0.00169253
0.00187947
0.00206946
0.00226226
0.00245762
0.00265528
0.00285497
0.0030564
0.00325927
0.00346328
0.00366811
0.00387343
0.00407891
0.00428419
0.00448893
0.00469276
0.0048953
0.0050962
0.00529506
0.0054915
0.00568512
0.00587555
0.00606239
0.00624526
0.00642378
0.00659757
0.00676625
0.00692947
0.00708685
0.00723806
0.00738275
0.00752062
0.00765135
0.00777467
0.00789029
0.00799798
0.00809749
0.00818863
0.00827119
0.00834504
0.00841002
0.00846604
0.00851302
0.00855091
0.00857967
0.00859932
0.00860989
0.00861145
0.00860411
0.00858801
0.0085633
0.00853019
0.0084889
0.00843969
0.00838285
0.00831872
0.00824765
0.00817003
0.00808628
0.00799683
0.00790217
0.0078028
0.00769926
0.0075921
0.00748191
0.0073693
0.0072549
0.00713935
0.00702334
0.00690758
0.0067928
0.00667974
0.00656918
0.0064619
0.00635871
0.00626042
0.00616788
0.00608192
0.00600338
0.00593306
0.00587174
0.00582015
0.00577885
0.00574827
0.00572848
0.00571905
0.00571889
0.00572685
0.00574033
-8.14425e-06
3.14394e-06
8.6029e-07
-1.40915e-05
-3.98432e-05
-7.57665e-05
-0.000121036
-0.000174565
-0.000235197
-0.000301775
-0.000373174
-0.000448322
-0.000526214
-0.00060593
-0.00068662
-0.00076751
-0.000847893
-0.000927132
-0.00100465
-0.00107995
-0.00115257
-0.0012221
-0.00128818
-0.00135049
-0.00140875
-0.00146272
-0.00151216
-0.00155691
-0.0015968
-0.00163168
-0.00166146
-0.00168601
-0.00170527
-0.00171914
-0.00172757
-0.00173053
-0.00172796
-0.00171983
-0.00170614
-0.00168685
-0.00166196
-0.00163147
-0.00159536
-0.00155365
-0.00150634
-0.00145343
-0.00139494
-0.0013309
-0.00126133
-0.00118625
-0.00110569
-0.00101968
-0.000928259
-0.000831471
-0.00072936
-0.000621982
-0.000509393
-0.000391656
-0.000268846
-0.000141039
-8.32344e-06
0.00012921
0.000271461
0.000418319
0.000569664
0.00072537
0.000885296
0.00104929
0.0012172
0.00138884
0.00156402
0.00174255
0.00192421
0.0021088
0.00229607
0.00248579
0.00267771
0.00287155
0.00306705
0.00326392
0.00346184
0.00366053
0.00385965
0.00405889
0.00425791
0.00445636
0.00465391
0.00485019
0.00504484
0.00523748
0.00542776
0.0056153
0.00579972
0.00598064
0.0061577
0.00633054
0.0064988
0.00666211
0.00682012
0.00697248
0.00711887
0.00725897
0.00739247
0.00751909
0.00763854
0.00775059
0.00785498
0.00795149
0.00803992
0.00812012
0.00819191
0.00825518
0.00830984
0.0083558
0.00839303
0.0084215
0.00844123
0.00845224
0.00845461
0.00844845
0.0084339
0.00841113
0.0083803
0.00834165
0.00829544
0.00824194
0.00818149
0.00811442
0.00804112
0.00796199
0.00787746
0.00778798
0.00769405
0.00759619
0.00749492
0.00739082
0.00728445
0.00717644
0.0070674
0.00695799
0.00684888
0.00674076
0.00663435
0.00653035
0.00642952
0.0063326
0.00624036
0.00615357
0.00607298
0.00599933
0.00593335
0.00587571
0.005827
0.00578771
0.00575816
0.00573843
0.0057282
0.0057268
0.00573479
0.0057521
7.43852e-06
1.8849e-05
1.61897e-05
1.15333e-06
-2.39108e-05
-5.8271e-05
-0.000101141
-0.000151543
-0.000208447
-0.000270831
-0.000337697
-0.000408082
-0.000481076
-0.000555831
-0.000631562
-0.000707549
-0.000783124
-0.000857686
-0.00093069
-0.00100165
-0.00107012
-0.00113571
-0.00119806
-0.00125687
-0.00131185
-0.00136275
-0.00140937
-0.00145151
-0.00148902
-0.00152174
-0.00154957
-0.00157239
-0.00159012
-0.00160267
-0.00160999
-0.00161202
-0.00160872
-0.00160005
-0.001586
-0.00156653
-0.00154164
-0.00151132
-0.00147556
-0.00143436
-0.00138772
-0.00133565
-0.00127817
-0.00121529
-0.00114704
-0.00107344
-0.000994508
-0.000910288
-0.000820811
-0.000726115
-0.000626248
-0.000521261
-0.000411214
-0.000296169
-0.000176196
-5.13738e-05
7.82131e-05
0.000212473
0.000351308
0.00049461
0.000642263
0.000794139
0.000950102
0.00111001
0.00127369
0.00144099
0.0016117
0.00178565
0.00196263
0.00214242
0.00232481
0.00250955
0.00269639
0.00288509
0.00307537
0.00326694
0.00345953
0.00365282
0.00384653
0.00404031
0.00423386
0.00442685
0.00461892
0.00480974
0.00499897
0.00518622
0.00537116
0.00555342
0.00573264
0.00590845
0.0060805
0.00624844
0.00641192
0.0065706
0.00672412
0.00687217
0.00701443
0.00715057
0.00728032
0.0074034
0.00751955
0.00762851
0.00773006
0.00782399
0.00791011
0.00798825
0.00805827
0.00812006
0.00817353
0.0082186
0.00825524
0.00828342
0.00830316
0.00831451
0.00831753
0.00831234
0.00829906
0.00827786
0.00824892
0.00821246
0.00816872
0.008118
0.0080606
0.00799686
0.00792714
0.00785185
0.00777139
0.00768621
0.00759679
0.00750362
0.00740723
0.00730815
0.00720694
0.00710419
0.0070005
0.00689649
0.00679281
0.00669012
0.00658909
0.00649039
0.00639472
0.0063028
0.00621534
0.00613305
0.00605663
0.00598674
0.00592405
0.00586916
0.00582261
0.00578484
0.00575619
0.00573684
0.00572664
0.00572532
0.00573467
0.00575602
3.74984e-05
4.6612e-05
4.23266e-05
2.64232e-05
1.25181e-06
-3.24044e-05
-7.37859e-05
-0.000121995
-0.000176113
-0.000235223
-0.000298434
-0.000364886
-0.000433755
-0.000504265
-0.000575695
-0.000647374
-0.000718683
-0.000789057
-0.00085798
-0.000924988
-0.000989661
-0.00105162
-0.00111053
-0.00116607
-0.00121798
-0.00126601
-0.00130996
-0.00134963
-0.00138488
-0.00141555
-0.00144152
-0.00146269
-0.00147896
-0.00149024
-0.00149649
-0.00149763
-0.00149362
-0.00148444
-0.00147004
-0.00145042
-0.00142554
-0.0013954
-0.00135999
-0.0013193
-0.00127334
-0.00122211
-0.00116563
-0.00110391
-0.00103697
-0.000964832
-0.000887522
-0.00080507
-0.000717511
-0.000624884
-0.000527232
-0.000424605
-0.000317063
-0.000204667
-8.7485e-05
3.44068e-05
0.000160923
0.000291977
0.000427469
0.000567293
0.00071134
0.000859483
0.00101159
0.00116751
0.0013271
0.00149018
0.00165658
0.0018261
0.00199855
0.00217372
0.00235139
0.00253133
0.00271331
0.00289706
0.00308233
0.00326885
0.00345633
0.00364448
0.00383301
0.00402161
0.00420996
0.00439774
0.00458462
0.00477027
0.00495434
0.0051365
0.00531639
0.00549366
0.00566797
0.00583896
0.0060063
0.00616962
0.00632861
0.00648293
0.00663224
0.00677623
0.0069146
0.00704704
0.00717327
0.00729303
0.00740607
0.00751215
0.00761104
0.00770254
0.00778647
0.00786269
0.00793104
0.00799142
0.00804375
0.00808796
0.00812402
0.0081519
0.00817162
0.00818324
0.00818683
0.00818249
0.00817034
0.00815056
0.00812332
0.00808883
0.00804734
0.00799912
0.00794448
0.00788376
0.0078173
0.00774548
0.00766871
0.00758743
0.00750209
0.00741318
0.00732119
0.00722665
0.00713009
0.00703208
0.00693319
0.00683403
0.0067352
0.00663734
0.00654107
0.00644705
0.00635593
0.00626839
0.00618508
0.00610667
0.00603379
0.00596708
0.00590714
0.00585452
0.00580972
0.00577319
0.00574529
0.00572629
0.0057162
0.00571506
0.00572537
0.00574924
8.11549e-05
8.58892e-05
7.86905e-05
6.10236e-05
3.48993e-05
1.09634e-06
-3.96559e-05
-8.65438e-05
-0.000138742
-0.000195432
-0.000255814
-0.000319114
-0.000384594
-0.00045155
-0.000519318
-0.000587279
-0.000654862
-0.000721538
-0.000786828
-0.000850293
-0.000911534
-0.00097019
-0.00102594
-0.00107847
-0.00112754
-0.00117291
-0.00121437
-0.00125174
-0.00128487
-0.0013136
-0.00133783
-0.00135743
-0.00137231
-0.0013824
-0.00138762
-0.00138793
-0.00138326
-0.00137359
-0.00135889
-0.00133912
-0.00131427
-0.00128432
-0.00124927
-0.0012091
-0.00116381
-0.00111342
-0.00105793
-0.00099736
-0.000931718
-0.00086103
-0.000785318
-0.000704609
-0.000618939
-0.000528344
-0.000432868
-0.000332559
-0.000227471
-0.000117667
-3.21525e-06
0.000115814
0.000239336
0.000367265
0.000499506
0.000635952
0.000776497
0.000921021
0.00106939
0.00122147
0.0013771
0.00153612
0.00169835
0.00186362
0.00203172
0.00220245
0.00237561
0.00255097
0.0027283
0.00290734
0.00308785
0.00326956
0.00345219
0.00363546
0.00381909
0.00400277
0.00418621
0.00436908
0.00455107
0.00473184
0.00491108
0.00508845
0.0052636
0.0054362
0.0056059
0.00577238
0.00593529
0.00609431
0.00624911
0.00639935
0.00654474
0.00668495
0.0068197
0.00694868
0.00707164
0.00718832
0.00729846
0.00740185
0.00749826
0.0075875
0.00766939
0.0077438
0.00781059
0.00786965
0.0079209
0.00796429
0.00799978
0.00802735
0.00804702
0.00805886
0.00806292
0.00805931
0.00804816
0.00802963
0.00800389
0.00797116
0.00793167
0.0078857
0.00783353
0.00777551
0.00771196
0.00764325
0.00756979
0.00749199
0.0074103
0.00732519
0.00723713
0.00714662
0.0070542
0.00696039
0.00686577
0.00677089
0.00667633
0.00658271
0.00649061
0.00640066
0.00631347
0.00622968
0.00614991
0.00607477
0.00600486
0.00594076
0.00588303
0.0058322
0.00578876
0.00575312
0.0057257
0.00570682
0.00569665
0.00569537
0.00570587
0.00573049
0.000137004
0.000135766
0.000124527
0.000104227
7.63221e-05
4.1551e-05
6.04038e-07
-4.57843e-05
-9.68797e-05
-0.000151953
-0.00021029
-0.000271196
-0.000334003
-0.000398077
-0.000462812
-0.000527644
-0.000592043
-0.000655524
-0.000717639
-0.000777979
-0.000836169
-0.000891868
-0.000944766
-0.000994581
-0.00104106
-0.00108399
-0.00112317
-0.00115841
-0.00118958
-0.00121652
-0.00123912
-0.00125726
-0.00127086
-0.00127982
-0.0012841
-0.00128362
-0.00127835
-0.00126823
-0.00125325
-0.00123337
-0.00120857
-0.00117882
-0.00114413
-0.00110449
-0.00105988
-0.00101032
-0.000955816
-0.000896373
-0.000832009
-0.000762744
-0.0006886
-0.0006096
-0.000525779
-0.000437171
-0.000343819
-0.000245769
-0.000143074
-3.57912e-05
7.60104e-05
0.000192262
0.000312883
0.000437787
0.000566886
0.000700074
0.000837245
0.000978286
0.00112307
0.00127145
0.00142329
0.00157842
0.00173668
0.00189788
0.00206184
0.00222836
0.00239724
0.00256825
0.00274117
0.00291576
0.00309177
0.00326894
0.003447
0.0036257
0.00380473
0.0039838
0.00416263
0.00434092
0.00451833
0.00469456
0.00486929
0.00504219
0.00521294
0.0053812
0.00554664
0.00570893
0.00586775
0.00602279
0.00617371
0.0063202
0.00646196
0.00659869
0.0067301
0.00685591
0.00697585
0.00708968
0.00719716
0.00729807
0.00739219
0.00747934
0.00755935
0.00763209
0.00769743
0.00775526
0.0078055
0.00784811
0.00788304
0.0079103
0.00792989
0.00794187
0.00794632
0.00794334
0.00793304
0.00791559
0.00789117
0.00785997
0.00782224
0.00777823
0.00772824
0.00767258
0.00761159
0.00754562
0.00747506
0.00740032
0.00732184
0.00724005
0.00715543
0.00706846
0.00697964
0.0068895
0.00679857
0.00670739
0.00661653
0.00652654
0.006438
0.00635151
0.00626764
0.00618698
0.00611014
0.00603766
0.00597013
0.00590809
0.00585205
0.00580253
0.00575999
0.00572486
0.00569756
0.00567848
0.00566784
0.00566596
0.00567574
0.00569954
0.000203428
0.000195037
0.000178826
0.000155115
0.000124677
8.81918e-05
4.63098e-05
-3.17983e-07
-5.10429e-05
-0.00010522
-0.000162213
-0.000221402
-0.000282188
-0.000343994
-0.000406277
-0.000468521
-0.000530243
-0.000590998
-0.000650374
-0.000707987
-0.00076349
-0.000816562
-0.000866912
-0.000914277
-0.000958422
-0.000999134
-0.00103622
-0.00106953
-0.00109889
-0.00112417
-0.00114527
-0.00116206
-0.00117446
-0.0011824
-0.0011858
-0.0011846
-0.00117877
-0.00116826
-0.00115304
-0.00113308
-0.00110835
-0.00107883
-0.00104452
-0.0010054
-0.00096148
-0.000912749
-0.000859217
-0.000800892
-0.000737789
-0.000669924
-0.000597319
-0.000519997
-0.000437986
-0.000351323
-0.000260045
-0.0001642
-6.38348e-05
4.09932e-05
0.00015022
0.000263776
0.000381585
0.000503563
0.000629623
0.000759667
0.000893589
0.00103128
0.00117261
0.00131745
0.00146566
0.00161708
0.00177154
0.00192886
0.00208888
0.0022514
0.00241621
0.0025831
0.00275185
0.00292223
0.003094
0.0032669
0.00344067
0.00361506
0.00378978
0.00396455
0.00413907
0.00431307
0.00448622
0.00465822
0.00482876
0.00499752
0.00516418
0.00532841
0.00548991
0.00564834
0.00580338
0.00595474
0.00610209
0.00624513
0.00638356
0.00651708
0.00664542
0.00676831
0.00688548
0.0069967
0.00710174
0.00720037
0.00729239
0.00737762
0.00745591
0.00752711
0.0075911
0.00764778
0.00769709
0.00773896
0.00777336
0.00780029
0.00781977
0.00783185
0.0078366
0.00783413
0.00782455
0.00780803
0.00778473
0.00775486
0.00771864
0.00767635
0.00762824
0.00757465
0.00751588
0.00745229
0.00738426
0.00731218
0.00723648
0.00715757
0.00707593
0.00699201
0.0069063
0.00681932
0.00673155
0.00664353
0.00655579
0.00646887
0.00638333
0.00629972
0.00621859
0.0061405
0.006066
0.00599564
0.00592994
0.00586943
0.00581459
0.0057659
0.00572383
0.00568879
0.00566121
0.00564151
0.00562995
0.0056269
0.00563511
0.00565673
0.00027881
0.000262425
0.000240508
0.00021272
0.00017909
0.000140236
9.67656e-05
4.92429e-05
-1.76305e-06
-5.56851e-05
-0.000111962
-0.000170042
-0.000229389
-0.000289488
-0.000349848
-0.000410003
-0.000469517
-0.000527983
-0.000585024
-0.000640287
-0.000693449
-0.000744212
-0.000792306
-0.000837486
-0.000879531
-0.000918243
-0.000953445
-0.000984977
-0.00101269
-0.00103647
-0.00105618
-0.00107174
-0.00108305
-0.00109003
-0.00109263
-0.00109079
-0.00108446
-0.00107361
-0.00105819
-0.00103818
-0.00101355
-0.000984282
-0.000950367
-0.000911792
-0.000868553
-0.00082065
-0.000768088
-0.000710873
-0.000649016
-0.000582533
-0.000511441
-0.000435766
-0.000355532
-0.000270773
-0.000181524
-8.783e-05
1.02634e-05
0.000112702
0.000219424
0.000330365
0.000445448
0.000564595
0.000687719
0.000814726
0.000945519
0.00107999
0.001218
0.00135945
0.00150418
0.00165204
0.00180287
0.00195651
0.00211278
0.00227149
0.00243244
0.00259544
0.00276025
0.00292666
0.00309443
0.00326331
0.00343305
0.0036034
0.00377409
0.00394483
0.00411534
0.00428534
0.00445452
0.00462259
0.00478924
0.00495417
0.00511705
0.00527757
0.00543542
0.00559029
0.00574186
0.00588983
0.00603391
0.00617377
0.00630914
0.00643973
0.00656527
0.00668549
0.00680013
0.00690897
0.00701176
0.00710831
0.00719841
0.00728189
0.0073586
0.00742839
0.00749114
0.00754676
0.00759519
0.00763636
0.00767025
0.00769686
0.00771619
0.00772832
0.00773331
0.00773125
0.00772227
0.00770653
0.00768418
0.00765544
0.00762053
0.00757969
0.00753321
0.00748138
0.00742452
0.00736298
0.00729712
0.00722732
0.00715399
0.00707756
0.00699845
0.00691713
0.00683407
0.00674975
0.00666465
0.00657928
0.00649415
0.00640978
0.0063267
0.00624543
0.0061665
0.00609043
0.00601775
0.00594897
0.0058846
0.00582512
0.005771
0.0057227
0.00568065
0.00564527
0.00561699
0.00559623
0.00558327
0.00557848
0.00558433
0.00560269
0.000361623
0.000336664
0.000308485
0.000276072
0.000238692
0.000196904
0.000151273
0.000102279
5.04152e-05
-3.82401e-06
-5.9945e-05
-0.000117462
-0.000175899
-0.000234799
-0.00029372
-0.000352248
-0.000409989
-0.000466574
-0.00052166
-0.000574925
-0.000626072
-0.000674828
-0.000720945
-0.000764196
-0.000804376
-0.000841303
-0.000874809
-0.000904745
-0.000930975
-0.000953377
-0.000971843
-0.000986274
-0.000996589
-0.00100272
-0.0010046
-0.00100218
-0.000995416
-0.000984266
-0.000968695
-0.000948674
-0.000924178
-0.000895188
-0.000861689
-0.00082367
-0.000781127
-0.000734056
-0.000682461
-0.000626347
-0.000565724
-0.000500605
-0.000431006
-0.000356948
-0.000278458
-0.000195565
-0.000108301
-1.6708e-05
7.91712e-05
0.000179283
0.000283571
0.000391973
0.000504415
0.00062082
0.00074111
0.000865189
0.000992965
0.00112433
0.00125917
0.00139736
0.00153876
0.00168323
0.0018306
0.00198073
0.00213343
0.00228853
0.00244583
0.00260514
0.00276624
0.0029289
0.00309291
0.00325802
0.00342399
0.00359056
0.00375748
0.00392446
0.00409124
0.00425752
0.00442303
0.00458745
0.00475051
0.0049119
0.00507129
0.0052284
0.0053829
0.0055345
0.00568289
0.00582777
0.00596884
0.00610582
0.0062384
0.00636632
0.0064893
0.00660709
0.00671943
0.0068261
0.00692686
0.00702152
0.00710988
0.00719177
0.00726703
0.00733553
0.00739716
0.00745181
0.00749943
0.00753995
0.00757335
0.00759963
0.00761881
0.00763094
0.00763609
0.00763435
0.00762586
0.00761075
0.00758921
0.00756141
0.00752759
0.00748799
0.00744287
0.00739253
0.00733729
0.00727747
0.00721344
0.00714556
0.00707423
0.00699987
0.0069229
0.00684375
0.00676289
0.00668077
0.00659786
0.00651465
0.00643164
0.00634932
0.0062682
0.00618876
0.00611152
0.00603697
0.00596561
0.00589793
0.0058344
0.00577548
0.00572162
0.00567326
0.00563081
0.00559468
0.00556528
0.00554301
0.00552816
0.00552111
0.00552395
0.00553818
0.000450455
0.000416538
0.000381685
0.000344216
0.000302622
0.000257417
0.000209132
0.000158167
0.000104937
4.98746e-05
-6.58993e-06
-6.40325e-05
-0.000122036
-0.000180195
-0.000238123
-0.000295446
-0.000351815
-0.000406897
-0.000460382
-0.00051198
-0.000561422
-0.00060846
-0.000652866
-0.000694433
-0.000732976
-0.000768325
-0.000800325
-0.000828837
-0.000853735
-0.000874905
-0.000892247
-0.00090567
-0.000915096
-0.000920461
-0.000921706
-0.000918783
-0.000911647
-0.00090026
-0.000884586
-0.000864598
-0.000840272
-0.000811586
-0.000778525
-0.000741079
-0.000699242
-0.00065301
-0.000602382
-0.000547365
-0.000487966
-0.000424196
-0.000356069
-0.000283604
-0.000206826
-0.000125761
-4.04397e-05
4.90992e-05
0.000142818
0.000240668
0.000342588
0.000448524
0.000558407
0.000672161
0.000789711
0.000910968
0.00103584
0.00116423
0.00129602
0.00143108
0.0015693
0.00171053
0.00185461
0.0020014
0.00215072
0.0023024
0.00245624
0.00261207
0.00276966
0.00292881
0.00308929
0.00325087
0.0034133
0.00357635
0.00373976
0.00390324
0.00406655
0.0042294
0.0043915
0.00455257
0.00471232
0.00487045
0.00502665
0.00518062
0.00533206
0.00548068
0.00562617
0.00576824
0.00590659
0.00604093
0.00617099
0.00629649
0.00641716
0.00653276
0.00664302
0.00674773
0.00684667
0.00693963
0.00702642
0.00710687
0.00718083
0.00724817
0.00730877
0.00736254
0.00740941
0.00744933
0.00748227
0.00750823
0.00752724
0.00753933
0.00754459
0.0075431
0.00753499
0.0075204
0.0074995
0.00747248
0.00743955
0.00740096
0.00735697
0.00730787
0.00725396
0.00719557
0.00713304
0.00706674
0.00699706
0.0069244
0.00684916
0.00677178
0.00669269
0.00661234
0.00653118
0.00644968
0.00636833
0.00628759
0.00620794
0.00612986
0.00605382
0.00598032
0.00590981
0.00584276
0.00577962
0.00572082
0.00566678
0.00561794
0.00557467
0.00553738
0.00550644
0.00548225
0.00546508
0.00545529
0.00545456
0.00546399
0.000544017
0.000500896
0.000459076
0.000416218
0.000370035
0.00032101
0.000269649
0.00021628
0.000161246
0.000104918
4.76677e-05
-1.01371e-05
-6.81342e-05
-0.00012597
-0.000183305
-0.000239811
-0.000295177
-0.000349106
-0.000401322
-0.000451563
-0.00049959
-0.00054518
-0.000588127
-0.000628248
-0.00066537
-0.000699341
-0.000730018
-0.000757275
-0.000780995
-0.000801073
-0.000817418
-0.000829948
-0.000838591
-0.000843287
-0.000843982
-0.00084063
-0.00083319
-0.000821624
-0.0008059
-0.00078599
-0.00076187
-0.00073352
-0.000700924
-0.000664071
-0.000622954
-0.000577569
-0.000527913
-0.00047399
-0.000415806
-0.000353372
-0.0002867
-0.000215805
-0.000140711
-6.14404e-05
2.19799e-05
0.000109514
0.000201123
0.000296766
0.000396388
0.000499931
0.000607332
0.000718521
0.000833426
0.000951962
0.00107404
0.00119956
0.00132843
0.00146051
0.00159569
0.00173382
0.00187477
0.00201838
0.0021645
0.00231293
0.00246352
0.00261606
0.00277036
0.00292621
0.00308338
0.00324166
0.0034008
0.00356057
0.00372071
0.00388096
0.00404106
0.00420074
0.00435971
0.0045177
0.00467441
0.00482956
0.00498284
0.00513395
0.00528262
0.00542853
0.00557139
0.00571091
0.0058468
0.00597878
0.00610657
0.0062299
0.0063485
0.00646213
0.00657054
0.00667351
0.00677082
0.00686226
0.00694765
0.00702682
0.00709962
0.00716592
0.0072256
0.00727857
0.00732477
0.00736414
0.00739665
0.0074223
0.00744112
0.00745315
0.00745846
0.00745715
0.00744933
0.00743514
0.00741475
0.00738834
0.00735612
0.00731834
0.00727526
0.00722715
0.00717432
0.00711707
0.00705574
0.0069907
0.00692233
0.00685102
0.00677716
0.00670115
0.00662344
0.00654444
0.00646461
0.0063844
0.00630426
0.00622464
0.00614602
0.00606884
0.00599357
0.00592066
0.00585056
0.0057837
0.00572051
0.00566141
0.00560679
0.00555705
0.00551258
0.00547374
0.00544088
0.00541437
0.00539448
0.00538155
0.0053768
0.00538092
0.000641134
0.000588674
0.000539682
0.000491177
0.000440112
0.000386937
0.000332145
0.000276001
0.000218785
0.000160806
0.000102381
4.38267e-05
-1.45469e-05
-7.24337e-05
-0.000129539
-0.000185578
-0.000240277
-0.000293375
-0.000344626
-0.000393802
-0.000440687
-0.000485085
-0.000526815
-0.000565711
-0.000601621
-0.000634406
-0.000663939
-0.000690104
-0.000712798
-0.000731923
-0.000747399
-0.000759151
-0.000767116
-0.000771239
-0.00077147
-0.000767768
-0.000760093
-0.000748411
-0.000732691
-0.000712906
-0.000689034
-0.000661054
-0.000628951
-0.000592714
-0.000552333
-0.000507805
-0.000459127
-0.0004063
-0.000349328
-0.000288218
-0.000222985
-0.000153641
-8.02031e-05
-2.694e-06
7.88617e-05
0.000164433
0.000253986
0.000347479
0.000444862
0.000546083
0.000651079
0.000759787
0.000872138
0.00098805
0.00110744
0.00123022
0.00135627
0.0014855
0.00161777
0.00175296
0.00189093
0.00203153
0.00217461
0.00231999
0.0024675
0.00261695
0.00276816
0.00292091
0.00307499
0.00323019
0.00338628
0.003543
0.00370013
0.00385739
0.00401453
0.00417129
0.00432739
0.00448256
0.0046365
0.00478894
0.00493957
0.00508811
0.00523426
0.00537773
0.00551823
0.00565547
0.00578916
0.00591903
0.0060448
0.00616619
0.00628296
0.00639485
0.00650162
0.00660305
0.00669892
0.00678903
0.00687319
0.00695123
0.00702301
0.00708839
0.00714726
0.00719953
0.00724512
0.007284
0.00731612
0.00734148
0.00736012
0.00737206
0.00737738
0.00737618
0.00736856
0.00735467
0.00733466
0.00730871
0.00727705
0.00723989
0.00719751
0.00715017
0.00709816
0.00704178
0.00698138
0.00691731
0.00684993
0.00677963
0.00670678
0.00663179
0.00655507
0.00647705
0.00639816
0.00631882
0.00623948
0.00616057
0.00608255
0.00600586
0.00593092
0.00585819
0.00578807
0.00572099
0.00565734
0.00559753
0.00554194
0.00549093
0.00544488
0.00540413
0.00536899
0.00533981
0.00531685
0.00530043
0.0052913
0.00528973
0.000740734
0.000678878
0.00062258
0.000568239
0.000512059
0.000454469
0.000395956
0.000336725
0.000277001
0.000217038
0.000157101
9.74544e-05
3.83628e-05
-1.99115e-05
-7.71166e-05
-0.000133006
-0.000187343
-0.000239904
-0.000290473
-0.000338851
-0.00038485
-0.000428299
-0.000469038
-0.000506922
-0.000541818
-0.000573601
-0.000602161
-0.000627393
-0.000649206
-0.000667516
-0.000682248
-0.00069334
-0.000700733
-0.000704378
-0.000704234
-0.000700261
-0.000692421
-0.000680687
-0.000665028
-0.000645418
-0.000621836
-0.000594264
-0.000562685
-0.000527088
-0.000487465
-0.000443809
-0.000396116
-0.000344387
-0.000288625
-0.000228836
-0.000165028
-9.72137e-05
-2.54105e-05
5.03651e-05
0.000130093
0.000213744
0.000301288
0.000392684
0.000487888
0.000586853
0.00068952
0.000795827
0.000905711
0.00101909
0.0011359
0.00125603
0.0013794
0.0015059
0.0016354
0.00176779
0.00190293
0.00204068
0.00218088
0.00232337
0.00246798
0.00261454
0.00276285
0.00291271
0.00306392
0.00321626
0.0033695
0.00352342
0.00367776
0.00383227
0.0039867
0.0041408
0.00429428
0.00444688
0.00459832
0.0047483
0.00489655
0.00504277
0.00518667
0.00532796
0.00546636
0.00560157
0.00573333
0.00586133
0.00598532
0.00610502
0.00622018
0.00633055
0.0064359
0.00653599
0.00663061
0.00671956
0.00680266
0.00687973
0.00695063
0.00701522
0.00707339
0.00712504
0.00717011
0.00720855
0.00724032
0.00726542
0.00728387
0.00729572
0.00730102
0.00729988
0.00729239
0.00727869
0.00725895
0.00723334
0.00720207
0.00716537
0.0071235
0.00707671
0.00702528
0.00696954
0.00690979
0.0068464
0.00677972
0.00671011
0.00663795
0.00656364
0.00648757
0.00641016
0.00633182
0.00625297
0.00617404
0.00609545
0.00601764
0.00594102
0.00586602
0.00579306
0.00572253
0.00565483
0.00559034
0.00552945
0.00547251
0.00541989
0.00537192
0.00532891
0.00529117
0.00525899
0.00523266
0.00521246
0.00519867
0.00519111
0.000841834
0.000770584
0.00070691
0.000646595
0.000585121
0.000522908
0.000460436
0.000397859
0.000335349
0.000273113
0.000211367
0.000150329
9.02192e-05
3.1258e-05
-2.63416e-05
-8.23703e-05
-0.000136626
-0.000188918
-0.000239063
-0.000286891
-0.000332241
-0.000374965
-0.000414927
-0.000452
-0.000486069
-0.000517028
-0.000544779
-0.000569231
-0.000590307
-0.000607934
-0.000622047
-0.000632592
-0.000639519
-0.000642785
-0.000642352
-0.000638187
-0.000630258
-0.000618535
-0.000602994
-0.000583613
-0.000560367
-0.000533241
-0.00050222
-0.000467293
-0.000428448
-0.00038568
-0.000338985
-0.000288362
-0.00023381
-0.000175335
-0.000112944
-4.66458e-05
2.35454e-05
9.76155e-05
0.000175548
0.000257317
0.000342894
0.000432246
0.000525329
0.000622101
0.000722508
0.000826493
0.000933995
0.00104494
0.00115926
0.00127686
0.00139765
0.00152154
0.00164841
0.00177813
0.00191059
0.00204563
0.00218312
0.00232289
0.00246478
0.00260862
0.00275422
0.00290139
0.00304993
0.00319962
0.00335024
0.00350156
0.00365335
0.00380534
0.00395731
0.00410898
0.00426009
0.00441038
0.00455956
0.00470735
0.00485346
0.00499762
0.00513953
0.0052789
0.00541544
0.00554889
0.00567894
0.00580533
0.00592777
0.00604601
0.00615979
0.00626887
0.00637299
0.00647194
0.00656551
0.00665349
0.00673569
0.00681194
0.0068821
0.00694602
0.00700361
0.00705475
0.00709938
0.00713745
0.00716892
0.00719379
0.00721207
0.00722381
0.00722908
0.00722794
0.00722052
0.00720694
0.00718736
0.00716196
0.00713095
0.00709455
0.007053
0.00700657
0.00695552
0.00690018
0.00684085
0.00677787
0.0067116
0.00664238
0.0065706
0.00649664
0.00642089
0.00634374
0.00626561
0.00618689
0.00610799
0.00602935
0.00595137
0.00587446
0.00579902
0.00572544
0.00565412
0.00558544
0.00551975
0.00545742
0.0053988
0.00534423
0.005294
0.00524843
0.00520779
0.00517234
0.00514236
0.00511815
0.00509947
0.00508573
0.000943532
0.000862934
0.000791856
0.00072548
0.000658581
0.000591581
0.000524959
0.000458823
0.000393294
0.000328538
0.000264726
0.000202035
0.000140642
8.07286e-05
2.24719e-05
-3.3955e-05
-8.83826e-05
-0.000140653
-0.000190612
-0.000238118
-0.000283038
-0.000325247
-0.000364631
-0.000401082
-0.000434504
-0.000464806
-0.000491906
-0.000515728
-0.000536205
-0.000553279
-0.000566895
-0.000577005
-0.000583569
-0.000586552
-0.00058592
-0.000581642
-0.000573696
-0.000562054
-0.000546692
-0.000527589
-0.000504729
-0.000478092
-0.000447664
-0.000413434
-0.000375395
-0.000333537
-0.000287853
-0.000238343
-0.000185005
-0.000127843
-6.68624e-05
-2.06748e-06
6.65309e-05
0.00013892
0.000215085
0.000295007
0.000378662
0.000466017
0.000557033
0.000651672
0.000749887
0.000851624
0.000956825
0.00106542
0.00117735
0.00129252
0.00141085
0.00153224
0.00165659
0.00178379
0.00191369
0.00204618
0.00218111
0.00231833
0.00245767
0.00259897
0.00274205
0.00288672
0.00303278
0.00318003
0.00332823
0.00347718
0.00362663
0.00377633
0.00392606
0.00407555
0.00422453
0.00437274
0.00451991
0.00466575
0.00480999
0.00495233
0.00509249
0.00523019
0.00536514
0.00549705
0.00562565
0.00575065
0.00587179
0.0059888
0.00610143
0.00620942
0.00631253
0.00641055
0.00650325
0.00659043
0.00667191
0.0067475
0.00681706
0.00688045
0.00693757
0.0069883
0.00703258
0.00707035
0.00710158
0.00712624
0.00714438
0.00715603
0.00716123
0.00716007
0.00715266
0.00713913
0.00711963
0.00709434
0.00706347
0.00702721
0.00698583
0.00693957
0.00688871
0.00683355
0.00677439
0.00671158
0.00664545
0.00657636
0.00650467
0.00643076
0.00635501
0.0062778
0.00619953
0.0061206
0.0060414
0.00596235
0.00588385
0.00580628
0.00573004
0.0056555
0.00558303