/*--------------------------------*- C++ -*----------------------------------*\
  =========                 |
  \\      /  F ield         | OpenFOAM: The Open Source CFD Toolbox
   \\    /   O peration     | Website:  https://openfoam.org
    \\  /    A nd           | Version:  7
     \\/     M anipulation  |
\*---------------------------------------------------------------------------*/
FoamFile
{
    version     2.0;
    format      ascii;
    class       volVectorField;
    location    "0.5";
    object      U;
}
// * * * * * * * * * * * * * * * * * * * * * * * * * * * * * * * * * * * * * //

dimensions      [0 1 -1 0 0 0 0];

internalField   nonuniform List<vector> 
25600
(
(3.82356e-07 -3.61594e-07 0)
(3.2706e-06 -1.89536e-06 0)
(9.33369e-06 -2.76012e-06 0)
(1.64746e-05 -2.93856e-06 0)
(2.32156e-05 -2.68103e-06 0)
(2.86688e-05 -2.16101e-06 0)
(3.22648e-05 -1.48727e-06 0)
(3.36397e-05 -7.28682e-07 0)
(3.25767e-05 7.10198e-08 0)
(2.89601e-05 8.84434e-07 0)
(2.27445e-05 1.69391e-06 0)
(1.3933e-05 2.48788e-06 0)
(2.56429e-06 3.25835e-06 0)
(-1.1298e-05 3.99982e-06 0)
(-2.7572e-05 4.70868e-06 0)
(-4.61635e-05 5.38287e-06 0)
(-6.69692e-05 6.02164e-06 0)
(-8.98806e-05 6.6246e-06 0)
(-0.000114785 7.1914e-06 0)
(-0.00014157 7.72199e-06 0)
(-0.000170119 8.21673e-06 0)
(-0.000200321 8.67668e-06 0)
(-0.000232063 9.10325e-06 0)
(-0.000265236 9.49738e-06 0)
(-0.000299732 9.86008e-06 0)
(-0.000335448 1.01925e-05 0)
(-0.000372283 1.04957e-05 0)
(-0.000410139 1.07709e-05 0)
(-0.000448922 1.10192e-05 0)
(-0.000488542 1.12416e-05 0)
(-0.000528911 1.14392e-05 0)
(-0.000569945 1.16132e-05 0)
(-0.000611563 1.17648e-05 0)
(-0.000653687 1.18951e-05 0)
(-0.000696243 1.2005e-05 0)
(-0.000739157 1.20949e-05 0)
(-0.00078236 1.21656e-05 0)
(-0.000825786 1.22176e-05 0)
(-0.000869368 1.22519e-05 0)
(-0.000913044 1.22689e-05 0)
(-0.000956752 1.22693e-05 0)
(-0.00100043 1.22535e-05 0)
(-0.00104403 1.22217e-05 0)
(-0.00108748 1.21744e-05 0)
(-0.00113073 1.21119e-05 0)
(-0.00117372 1.20344e-05 0)
(-0.00121641 1.1942e-05 0)
(-0.00125873 1.18348e-05 0)
(-0.00130063 1.17129e-05 0)
(-0.00134207 1.15764e-05 0)
(-0.00138298 1.14253e-05 0)
(-0.00142332 1.12597e-05 0)
(-0.00146303 1.10797e-05 0)
(-0.00150205 1.08851e-05 0)
(-0.00154034 1.06758e-05 0)
(-0.00157785 1.04516e-05 0)
(-0.00161451 1.02125e-05 0)
(-0.00165028 9.95839e-06 0)
(-0.00168511 9.68931e-06 0)
(-0.00171893 9.40501e-06 0)
(-0.0017517 9.10548e-06 0)
(-0.00178335 8.79084e-06 0)
(-0.00181385 8.46095e-06 0)
(-0.00184313 8.11573e-06 0)
(-0.00187114 7.75517e-06 0)
(-0.00189782 7.37924e-06 0)
(-0.00192313 6.9883e-06 0)
(-0.00194701 6.58265e-06 0)
(-0.00196941 6.16223e-06 0)
(-0.00199029 5.72729e-06 0)
(-0.00200958 5.27806e-06 0)
(-0.00202724 4.81466e-06 0)
(-0.00204322 4.33766e-06 0)
(-0.00205749 3.84758e-06 0)
(-0.00206998 3.34482e-06 0)
(-0.00208067 2.82996e-06 0)
(-0.00208951 2.3036e-06 0)
(-0.00209647 1.76649e-06 0)
(-0.0021015 1.21949e-06 0)
(-0.00210458 6.63225e-07 0)
(-0.00210568 9.84557e-08 0)
(-0.00210477 -4.73837e-07 0)
(-0.00210183 -1.05279e-06 0)
(-0.00209683 -1.63728e-06 0)
(-0.00208978 -2.22596e-06 0)
(-0.00208064 -2.81774e-06 0)
(-0.00206942 -3.41142e-06 0)
(-0.00205611 -4.00554e-06 0)
(-0.00204072 -4.59897e-06 0)
(-0.00202325 -5.19057e-06 0)
(-0.0020037 -5.77866e-06 0)
(-0.00198211 -6.36159e-06 0)
(-0.00195849 -6.93812e-06 0)
(-0.00193287 -7.50674e-06 0)
(-0.00190527 -8.06566e-06 0)
(-0.00187574 -8.61342e-06 0)
(-0.00184432 -9.14852e-06 0)
(-0.00181106 -9.6691e-06 0)
(-0.00177601 -1.01736e-05 0)
(-0.00173922 -1.06608e-05 0)
(-0.00170078 -1.1129e-05 0)
(-0.00166073 -1.15763e-05 0)
(-0.00161917 -1.20013e-05 0)
(-0.00157617 -1.24026e-05 0)
(-0.00153181 -1.27787e-05 0)
(-0.00148619 -1.3128e-05 0)
(-0.0014394 -1.34495e-05 0)
(-0.00139155 -1.37418e-05 0)
(-0.00134272 -1.40039e-05 0)
(-0.00129304 -1.42345e-05 0)
(-0.00124261 -1.44324e-05 0)
(-0.00119154 -1.45967e-05 0)
(-0.00113996 -1.47262e-05 0)
(-0.00108799 -1.48206e-05 0)
(-0.00103574 -1.48793e-05 0)
(-0.000983347 -1.49017e-05 0)
(-0.000930933 -1.48872e-05 0)
(-0.000878626 -1.48354e-05 0)
(-0.000826554 -1.47462e-05 0)
(-0.000774848 -1.46192e-05 0)
(-0.000723636 -1.44546e-05 0)
(-0.000673047 -1.42527e-05 0)
(-0.000623209 -1.40141e-05 0)
(-0.000574249 -1.37389e-05 0)
(-0.000526292 -1.34274e-05 0)
(-0.00047946 -1.30804e-05 0)
(-0.000433873 -1.26989e-05 0)
(-0.000389649 -1.22839e-05 0)
(-0.000346902 -1.18359e-05 0)
(-0.000305741 -1.13562e-05 0)
(-0.00026627 -1.08463e-05 0)
(-0.000228593 -1.03078e-05 0)
(-0.000192802 -9.74194e-06 0)
(-0.000158989 -9.15041e-06 0)
(-0.000127235 -8.53509e-06 0)
(-9.76188e-05 -7.89797e-06 0)
(-7.0209e-05 -7.24089e-06 0)
(-4.50676e-05 -6.56585e-06 0)
(-2.2248e-05 -5.87532e-06 0)
(-1.7948e-06 -5.17216e-06 0)
(1.62568e-05 -4.45922e-06 0)
(3.18822e-05 -3.73924e-06 0)
(4.5069e-05 -3.0154e-06 0)
(5.5817e-05 -2.29154e-06 0)
(6.41401e-05 -1.57191e-06 0)
(7.00685e-05 -8.61065e-07 0)
(7.36505e-05 -1.64361e-07 0)
(7.49558e-05 5.1155e-07 0)
(7.40787e-05 1.15844e-06 0)
(7.11431e-05 1.76638e-06 0)
(6.63092e-05 2.32294e-06 0)
(5.97823e-05 2.81187e-06 0)
(5.18233e-05 3.21106e-06 0)
(4.27655e-05 3.48983e-06 0)
(3.30369e-05 3.60476e-06 0)
(2.31908e-05 3.49506e-06 0)
(1.39345e-05 3.07997e-06 0)
(6.16063e-06 2.2589e-06 0)
(1.0112e-06 9.67077e-07 0)
(-3.73061e-07 -3.72911e-07 0)
(1.91887e-06 -3.26631e-06 0)
(9.35756e-06 -9.32558e-06 0)
(2.19238e-05 -1.24327e-05 0)
(3.57935e-05 -1.27692e-05 0)
(4.8155e-05 -1.11049e-05 0)
(5.71324e-05 -8.07179e-06 0)
(6.13544e-05 -4.13192e-06 0)
(5.98538e-05 3.82681e-07 0)
(5.19934e-05 5.23717e-06 0)
(3.73862e-05 1.02657e-05 0)
(1.58309e-05 1.53499e-05 0)
(-1.27339e-05 2.04052e-05 0)
(-4.82653e-05 2.53698e-05 0)
(-9.06414e-05 3.01998e-05 0)
(-0.000139682 3.48627e-05 0)
(-0.000195166 3.93362e-05 0)
(-0.000256838 4.36052e-05 0)
(-0.000324424 4.766e-05 0)
(-0.000397632 5.1495e-05 0)
(-0.000476163 5.5107e-05 0)
(-0.000559711 5.84955e-05 0)
(-0.000647971 6.16627e-05 0)
(-0.000740638 6.46121e-05 0)
(-0.00083741 6.73484e-05 0)
(-0.000937991 6.98766e-05 0)
(-0.00104209 7.22024e-05 0)
(-0.00114943 7.43321e-05 0)
(-0.00125972 7.62721e-05 0)
(-0.00137271 7.80288e-05 0)
(-0.00148814 7.96086e-05 0)
(-0.00160575 8.1018e-05 0)
(-0.00172531 8.22633e-05 0)
(-0.00184657 8.33507e-05 0)
(-0.00196932 8.42861e-05 0)
(-0.00209334 8.50751e-05 0)
(-0.00221841 8.57227e-05 0)
(-0.00234433 8.62336e-05 0)
(-0.00247091 8.66121e-05 0)
(-0.00259795 8.68624e-05 0)
(-0.00272527 8.69882e-05 0)
(-0.00285269 8.69929e-05 0)
(-0.00298002 8.68795e-05 0)
(-0.00310709 8.66506e-05 0)
(-0.00323375 8.63084e-05 0)
(-0.00335981 8.58549e-05 0)
(-0.00348512 8.52917e-05 0)
(-0.00360951 8.46201e-05 0)
(-0.00373282 8.38411e-05 0)
(-0.0038549 8.29556e-05 0)
(-0.00397559 8.19641e-05 0)
(-0.00409473 8.08669e-05 0)
(-0.00421217 7.96644e-05 0)
(-0.00432774 7.83566e-05 0)
(-0.0044413 7.69434e-05 0)
(-0.00455269 7.54245e-05 0)
(-0.00466175 7.37997e-05 0)
(-0.00476833 7.20687e-05 0)
(-0.00487227 7.0231e-05 0)
(-0.00497341 6.82866e-05 0)
(-0.00507161 6.62353e-05 0)
(-0.00516669 6.40768e-05 0)
(-0.00525851 6.18114e-05 0)
(-0.00534691 5.94392e-05 0)
(-0.00543173 5.69604e-05 0)
(-0.00551283 5.43757e-05 0)
(-0.00559004 5.16855e-05 0)
(-0.00566322 4.88909e-05 0)
(-0.00573222 4.59932e-05 0)
(-0.00579688 4.29941e-05 0)
(-0.00585707 3.98953e-05 0)
(-0.00591264 3.66991e-05 0)
(-0.00596346 3.34079e-05 0)
(-0.00600938 3.00246e-05 0)
(-0.00605029 2.65525e-05 0)
(-0.00608605 2.29951e-05 0)
(-0.00611655 1.93566e-05 0)
(-0.00614167 1.56413e-05 0)
(-0.00616132 1.1854e-05 0)
(-0.00617538 8.00045e-06 0)
(-0.00618379 4.08636e-06 0)
(-0.00618644 1.1755e-07 0)
(-0.00618328 -3.89943e-06 0)
(-0.00617423 -7.95757e-06 0)
(-0.00615925 -1.20497e-05 0)
(-0.0061383 -1.61679e-05 0)
(-0.00611134 -2.03039e-05 0)
(-0.00607837 -2.44493e-05 0)
(-0.00603937 -2.85952e-05 0)
(-0.00599436 -3.27321e-05 0)
(-0.00594335 -3.6851e-05 0)
(-0.00588639 -4.09421e-05 0)
(-0.00582352 -4.49951e-05 0)
(-0.00575482 -4.89999e-05 0)
(-0.00568035 -5.29459e-05 0)
(-0.00560021 -5.68226e-05 0)
(-0.00551452 -6.06193e-05 0)
(-0.00542339 -6.43255e-05 0)
(-0.00532697 -6.793e-05 0)
(-0.00522542 -7.14221e-05 0)
(-0.00511891 -7.47911e-05 0)
(-0.00500762 -7.80265e-05 0)
(-0.00489175 -8.11177e-05 0)
(-0.00477153 -8.40542e-05 0)
(-0.00464718 -8.68262e-05 0)
(-0.00451895 -8.94239e-05 0)
(-0.00438709 -9.1838e-05 0)
(-0.00425189 -9.40593e-05 0)
(-0.00411361 -9.60795e-05 0)
(-0.00397257 -9.78904e-05 0)
(-0.00382906 -9.94846e-05 0)
(-0.0036834 -0.000100855 0)
(-0.00353592 -0.000101995 0)
(-0.00338696 -0.000102899 0)
(-0.00323686 -0.000103561 0)
(-0.00308597 -0.000103978 0)
(-0.00293464 -0.000104146 0)
(-0.00278324 -0.000104062 0)
(-0.00263212 -0.000103723 0)
(-0.00248166 -0.000103129 0)
(-0.00233223 -0.000102279 0)
(-0.00218418 -0.000101173 0)
(-0.00203789 -9.98133e-05 0)
(-0.00189371 -9.82013e-05 0)
(-0.00175201 -9.63402e-05 0)
(-0.00161315 -9.42338e-05 0)
(-0.00147746 -9.18867e-05 0)
(-0.00134529 -8.93047e-05 0)
(-0.00121698 -8.64942e-05 0)
(-0.00109284 -8.34627e-05 0)
(-0.000973179 -8.02183e-05 0)
(-0.000858301 -7.67703e-05 0)
(-0.000748486 -7.31284e-05 0)
(-0.000644002 -6.93038e-05 0)
(-0.0005451 -6.53084e-05 0)
(-0.000452013 -6.11552e-05 0)
(-0.000364954 -5.68579e-05 0)
(-0.000284116 -5.24312e-05 0)
(-0.000209669 -4.78911e-05 0)
(-0.000141756 -4.32547e-05 0)
(-8.04963e-05 -3.85409e-05 0)
(-2.59791e-05 -3.377e-05 0)
(2.17373e-05 -2.8964e-05 0)
(6.26288e-05 -2.41473e-05 0)
(9.67091e-05 -1.93469e-05 0)
(0.000124034 -1.45931e-05 0)
(0.000144708 -9.92021e-06 0)
(0.000158887 -5.3675e-06 0)
(0.000166789 -9.81123e-07 0)
(0.000168702 3.18442e-06 0)
(0.000164998 7.06404e-06 0)
(0.000156147 1.05785e-05 0)
(0.000142734 1.36294e-05 0)
(0.000125488 1.60933e-05 0)
(0.000105304 1.78135e-05 0)
(8.32823e-05 1.85907e-05 0)
(6.07606e-05 1.81779e-05 0)
(3.93145e-05 1.62908e-05 0)
(2.0727e-05 1.26473e-05 0)
(7.15414e-06 7.16349e-06 0)
(9.63052e-07 1.00915e-06 0)
(2.77187e-06 -9.33935e-06 0)
(1.24682e-05 -2.19111e-05 0)
(2.76259e-05 -2.7571e-05 0)
(4.32301e-05 -2.72566e-05 0)
(5.57672e-05 -2.2354e-05 0)
(6.28287e-05 -1.41027e-05 0)
(6.25526e-05 -3.49783e-06 0)
(5.35554e-05 8.6928e-06 0)
(3.4877e-05 2.18897e-05 0)
(5.89552e-06 3.56589e-05 0)
(-3.37449e-05 4.96767e-05 0)
(-8.41923e-05 6.37007e-05 0)
(-0.000145432 7.75501e-05 0)
(-0.000217326 9.10904e-05 0)
(-0.000299638 0.000104221 0)
(-0.000392059 0.00011687 0)
(-0.000494227 0.000128983 0)
(-0.000605738 0.000140526 0)
(-0.000726161 0.000151475 0)
(-0.000855045 0.000161816 0)
(-0.000991926 0.000171545 0)
(-0.00113633 0.00018066 0)
(-0.0012878 0.000189167 0)
(-0.00144586 0.000197075 0)
(-0.00161004 0.000204397 0)
(-0.00177989 0.000211144 0)
(-0.00195496 0.000217333 0)
(-0.00213482 0.000222981 0)
(-0.00231904 0.000228102 0)
(-0.00250722 0.000232716 0)
(-0.00269894 0.000236837 0)
(-0.00289382 0.000240484 0)
(-0.00309149 0.000243672 0)
(-0.00329157 0.000246417 0)
(-0.00349372 0.000248734 0)
(-0.00369759 0.000250637 0)
(-0.00390285 0.00025214 0)
(-0.00410918 0.000253254 0)
(-0.00431627 0.000253992 0)
(-0.0045238 0.000254362 0)
(-0.00473149 0.000254375 0)
(-0.00493903 0.00025404 0)
(-0.00514616 0.000253362 0)
(-0.00535258 0.00025235 0)
(-0.00555802 0.000251008 0)
(-0.00576222 0.000249341 0)
(-0.0059649 0.000247354 0)
(-0.00616581 0.000245049 0)
(-0.00636468 0.000242429 0)
(-0.00656126 0.000239496 0)
(-0.00675528 0.00023625 0)
(-0.00694649 0.000232694 0)
(-0.00713463 0.000228827 0)
(-0.00731945 0.00022465 0)
(-0.00750069 0.000220162 0)
(-0.0076781 0.000215363 0)
(-0.00785142 0.000210252 0)
(-0.00802041 0.00020483 0)
(-0.00818479 0.000199096 0)
(-0.00834433 0.000193049 0)
(-0.00849876 0.000186691 0)
(-0.00864783 0.00018002 0)
(-0.0087913 0.00017304 0)
(-0.0089289 0.00016575 0)
(-0.00906039 0.000158154 0)
(-0.00918553 0.000150252 0)
(-0.00930406 0.00014205 0)
(-0.00941575 0.00013355 0)
(-0.00952037 0.000124757 0)
(-0.00961767 0.000115678 0)
(-0.00970743 0.000106319 0)
(-0.00978944 9.66881e-05 0)
(-0.00986347 8.67935e-05 0)
(-0.00992932 7.66452e-05 0)
(-0.0099868 6.62542e-05 0)
(-0.0100357 5.56321e-05 0)
(-0.0100759 4.47925e-05 0)
(-0.0101072 3.37495e-05 0)
(-0.0101294 2.25185e-05 0)
(-0.0101424 1.11167e-05 0)
(-0.010146 -4.37768e-07 0)
(-0.0101403 -1.21263e-05 0)
(-0.010125 -2.39286e-05 0)
(-0.0101001 -3.58232e-05 0)
(-0.0100655 -4.77878e-05 0)
(-0.0100212 -5.97988e-05 0)
(-0.00996716 -7.18313e-05 0)
(-0.00990339 -8.38599e-05 0)
(-0.00982989 -9.5858e-05 0)
(-0.00974671 -0.000107798 0)
(-0.0096539 -0.000119652 0)
(-0.00955157 -0.000131392 0)
(-0.0094398 -0.000142988 0)
(-0.00931874 -0.00015441 0)
(-0.00918854 -0.000165628 0)
(-0.00904938 -0.000176611 0)
(-0.00890147 -0.000187328 0)
(-0.00874503 -0.000197748 0)
(-0.00858032 -0.000207842 0)
(-0.00840762 -0.000217578 0)
(-0.00822722 -0.000226925 0)
(-0.00803946 -0.000235855 0)
(-0.00784468 -0.000244337 0)
(-0.00764325 -0.000252343 0)
(-0.00743558 -0.000259846 0)
(-0.00722207 -0.000266819 0)
(-0.00700317 -0.000273236 0)
(-0.00677932 -0.000279073 0)
(-0.00655101 -0.000284306 0)
(-0.00631873 -0.000288916 0)
(-0.00608298 -0.00029288 0)
(-0.00584429 -0.000296183 0)
(-0.0056032 -0.000298806 0)
(-0.00536026 -0.000300736 0)
(-0.00511603 -0.00030196 0)
(-0.00487107 -0.000302469 0)
(-0.00462596 -0.000302253 0)
(-0.0043813 -0.000301307 0)
(-0.00413764 -0.000299629 0)
(-0.0038956 -0.000297216 0)
(-0.00365575 -0.00029407 0)
(-0.00341867 -0.000290195 0)
(-0.00318495 -0.000285597 0)
(-0.00295516 -0.000280285 0)
(-0.00272987 -0.000274271 0)
(-0.00250962 -0.000267568 0)
(-0.00229497 -0.000260193 0)
(-0.00208643 -0.000252164 0)
(-0.00188453 -0.000243504 0)
(-0.00168976 -0.000234236 0)
(-0.00150258 -0.000224388 0)
(-0.00132344 -0.000213988 0)
(-0.00115278 -0.000203068 0)
(-0.000990986 -0.000191664 0)
(-0.000838426 -0.000179814 0)
(-0.000695436 -0.000167557 0)
(-0.000562316 -0.000154937 0)
(-0.000439332 -0.000142003 0)
(-0.000326705 -0.000128804 0)
(-0.000224615 -0.000115396 0)
(-0.000133195 -0.000101838 0)
(-5.25264e-05 -8.81968e-05 0)
(1.73656e-05 -7.45439e-05 0)
(7.65172e-05 -6.09587e-05 0)
(0.000125033 -4.753e-05 0)
(0.000163093 -3.43581e-05 0)
(0.000190962 -2.15573e-05 0)
(0.000209003 -9.25914e-06 0)
(0.000217686 2.38296e-06 0)
(0.00021761 1.31883e-05 0)
(0.000209517 2.29421e-05 0)
(0.000194319 3.13863e-05 0)
(0.000173123 3.82095e-05 0)
(0.000147259 4.30358e-05 0)
(0.000118311 4.54172e-05 0)
(8.814e-05 4.48401e-05 0)
(5.88488e-05 4.07687e-05 0)
(3.2719e-05 3.2751e-05 0)
(1.26159e-05 2.07273e-05 0)
(2.24637e-06 6.14467e-06 0)
(2.95791e-06 -1.65169e-05 0)
(1.28434e-05 -3.58288e-05 0)
(2.73964e-05 -4.31972e-05 0)
(4.09289e-05 -4.0764e-05 0)
(4.95187e-05 -3.06759e-05 0)
(5.04505e-05 -1.48364e-05 0)
(4.15784e-05 5.17379e-06 0)
(2.12629e-05 2.80916e-05 0)
(-1.16738e-05 5.29268e-05 0)
(-5.8025e-05 7.89118e-05 0)
(-0.000118271 0.000105455 0)
(-0.000192638 0.000132101 0)
(-0.000281148 0.000158503 0)
(-0.000383664 0.000184396 0)
(-0.000499918 0.000209579 0)
(-0.000629544 0.000233901 0)
(-0.000772098 0.000257254 0)
(-0.00092708 0.000279557 0)
(-0.00109395 0.000300757 0)
(-0.00127212 0.00032082 0)
(-0.00146101 0.000339729 0)
(-0.00166001 0.000357477 0)
(-0.00186851 0.000374068 0)
(-0.00208588 0.000389515 0)
(-0.00231153 0.000403835 0)
(-0.00254484 0.000417051 0)
(-0.00278524 0.000429188 0)
(-0.00303212 0.000440275 0)
(-0.00328494 0.000450341 0)
(-0.00354312 0.000459417 0)
(-0.00380614 0.000467534 0)
(-0.00407347 0.000474721 0)
(-0.00434459 0.00048101 0)
(-0.00461901 0.000486427 0)
(-0.00489625 0.000491003 0)
(-0.00517585 0.000494762 0)
(-0.00545734 0.00049773 0)
(-0.00574029 0.000499931 0)
(-0.00602427 0.000501384 0)
(-0.00630885 0.000502111 0)
(-0.00659363 0.000502129 0)
(-0.0068782 0.000501453 0)
(-0.00716218 0.000500099 0)
(-0.00744518 0.000498078 0)
(-0.00772681 0.000495402 0)
(-0.00800671 0.00049208 0)
(-0.00828451 0.00048812 0)
(-0.00855985 0.000483528 0)
(-0.00883235 0.000478309 0)
(-0.00910167 0.000472467 0)
(-0.00936745 0.000466006 0)
(-0.00962934 0.000458927 0)
(-0.00988697 0.000451231 0)
(-0.01014 0.00044292 0)
(-0.0103881 0.000433993 0)
(-0.0106309 0.000424451 0)
(-0.010868 0.000414294 0)
(-0.0110991 0.00040352 0)
(-0.0113239 0.000392131 0)
(-0.011542 0.000380127 0)
(-0.011753 0.000367509 0)
(-0.0119567 0.000354278 0)
(-0.0121526 0.000340438 0)
(-0.0123404 0.00032599 0)
(-0.0125198 0.000310941 0)
(-0.0126905 0.000295296 0)
(-0.0128521 0.000279061 0)
(-0.0130043 0.000262245 0)
(-0.0131467 0.000244859 0)
(-0.0132791 0.000226915 0)
(-0.0134012 0.000208425 0)
(-0.0135126 0.000189407 0)
(-0.0136131 0.000169876 0)
(-0.0137024 0.000149854 0)
(-0.0137802 0.000129361 0)
(-0.0138463 0.000108423 0)
(-0.0139004 8.70637e-05 0)
(-0.0139424 6.53135e-05 0)
(-0.0139719 4.32026e-05 0)
(-0.0139889 2.07638e-05 0)
(-0.0139932 -1.96717e-06 0)
(-0.0139846 -2.49526e-05 0)
(-0.013963 -4.81531e-05 0)
(-0.0139282 -7.15267e-05 0)
(-0.0138803 -9.50288e-05 0)
(-0.0138192 -0.000118614 0)
(-0.0137448 -0.000142233 0)
(-0.0136571 -0.000165838 0)
(-0.0135562 -0.000189375 0)
(-0.0134422 -0.000212791 0)
(-0.013315 -0.000236033 0)
(-0.0131749 -0.000259043 0)
(-0.013022 -0.000281765 0)
(-0.0128565 -0.000304141 0)
(-0.0126786 -0.000326112 0)
(-0.0124885 -0.000347618 0)
(-0.0122865 -0.0003686 0)
(-0.0120729 -0.000388997 0)
(-0.0118482 -0.000408751 0)
(-0.0116126 -0.000427802 0)
(-0.0113665 -0.000446092 0)
(-0.0111105 -0.000463562 0)
(-0.0108449 -0.000480156 0)
(-0.0105704 -0.000495819 0)
(-0.0102873 -0.000510497 0)
(-0.00999638 -0.000524139 0)
(-0.00969811 -0.000536696 0)
(-0.00939313 -0.00054812 0)
(-0.00908209 -0.000558367 0)
(-0.00876565 -0.000567395 0)
(-0.0084445 -0.000575167 0)
(-0.00811935 -0.000581647 0)
(-0.00779092 -0.000586805 0)
(-0.00745995 -0.000590611 0)
(-0.0071272 -0.000593043 0)
(-0.00679343 -0.000594082 0)
(-0.00645941 -0.00059371 0)
(-0.00612594 -0.000591919 0)
(-0.0057938 -0.0005887 0)
(-0.00546378 -0.000584053 0)
(-0.00513666 -0.000577981 0)
(-0.00481324 -0.000570491 0)
(-0.00449428 -0.000561596 0)
(-0.00418057 -0.000551313 0)
(-0.00387286 -0.000539665 0)
(-0.0035719 -0.00052668 0)
(-0.00327841 -0.000512389 0)
(-0.00299311 -0.00049683 0)
(-0.00271667 -0.000480046 0)
(-0.00244977 -0.000462085 0)
(-0.00219303 -0.000442998 0)
(-0.00194705 -0.000422845 0)
(-0.0017124 -0.000401688 0)
(-0.00148962 -0.000379596 0)
(-0.00127917 -0.000356644 0)
(-0.00108153 -0.000332912 0)
(-0.000897068 -0.000308486 0)
(-0.000726146 -0.000283461 0)
(-0.000569052 -0.000257937 0)
(-0.000426017 -0.000232023 0)
(-0.000297209 -0.000205838 0)
(-0.000182725 -0.000179511 0)
(-8.2587e-05 -0.000153185 0)
(3.26698e-06 -0.000127016 0)
(7.49904e-05 -0.000101177 0)
(0.000132838 -7.58648e-05 0)
(0.000177176 -5.12994e-05 0)
(0.000208498 -2.77327e-05 0)
(0.000227436 -5.45485e-06 0)
(0.000234783 1.51976e-05 0)
(0.000231508 3.38317e-05 0)
(0.000218787 4.99864e-05 0)
(0.000198018 6.31202e-05 0)
(0.000170851 7.26011e-05 0)
(0.00013921 7.77041e-05 0)
(0.000105309 7.76321e-05 0)
(7.16065e-05 7.15814e-05 0)
(4.0753e-05 5.88801e-05 0)
(1.62498e-05 3.92979e-05 0)
(3.05918e-06 1.389e-05 0)
(2.71388e-06 -2.33105e-05 0)
(1.1233e-05 -4.82845e-05 0)
(2.2598e-05 -5.58083e-05 0)
(3.09872e-05 -4.93803e-05 0)
(3.23208e-05 -3.20018e-05 0)
(2.3721e-05 -6.27174e-06 0)
(2.89554e-06 2.5634e-05 0)
(-3.19326e-05 6.19415e-05 0)
(-8.20677e-05 0.000101228 0)
(-0.000148412 0.000142362 0)
(-0.000231529 0.000184451 0)
(-0.000331704 0.000226795 0)
(-0.000448989 0.000268847 0)
(-0.00058325 0.000310181 0)
(-0.0007342 0.00035047 0)
(-0.00090143 0.000389466 0)
(-0.00108444 0.000426981 0)
(-0.00128264 0.000462878 0)
(-0.00149542 0.000497061 0)
(-0.00172208 0.000529464 0)
(-0.00196193 0.00056005 0)
(-0.00221424 0.0005888 0)
(-0.00247827 0.000615714 0)
(-0.0027533 0.000640804 0)
(-0.00303857 0.000664093 0)
(-0.00333336 0.00068561 0)
(-0.00363695 0.000705393 0)
(-0.00394861 0.000723481 0)
(-0.00426766 0.00073992 0)
(-0.00459341 0.000754753 0)
(-0.00492518 0.000768028 0)
(-0.00526234 0.000779791 0)
(-0.00560424 0.000790088 0)
(-0.00595027 0.000798964 0)
(-0.00629982 0.000806462 0)
(-0.00665232 0.000812622 0)
(-0.00700718 0.000817484 0)
(-0.00736386 0.000821084 0)
(-0.00772181 0.000823456 0)
(-0.00808051 0.000824631 0)
(-0.00843943 0.000824637 0)
(-0.00879807 0.000823499 0)
(-0.00915594 0.000821242 0)
(-0.00951254 0.000817884 0)
(-0.00986739 0.000813443 0)
(-0.01022 0.000807935 0)
(-0.01057 0.000801372 0)
(-0.0109168 0.000793766 0)
(-0.01126 0.000785123 0)
(-0.0115991 0.000775453 0)
(-0.0119338 0.000764759 0)
(-0.0122634 0.000753046 0)
(-0.0125877 0.000740317 0)
(-0.0129061 0.000726573 0)
(-0.0132182 0.000711816 0)
(-0.0135236 0.000696046 0)
(-0.0138218 0.000679265 0)
(-0.0141124 0.000661472 0)
(-0.0143949 0.000642669 0)
(-0.014669 0.000622858 0)
(-0.0149341 0.000602041 0)
(-0.0151898 0.000580222 0)
(-0.0154357 0.000557406 0)
(-0.0156714 0.000533599 0)
(-0.0158965 0.00050881 0)
(-0.0161105 0.000483049 0)
(-0.0163131 0.000456328 0)
(-0.0165037 0.000428663 0)
(-0.0166821 0.000400071 0)
(-0.0168478 0.000370573 0)
(-0.0170004 0.00034019 0)
(-0.0171396 0.000308951 0)
(-0.0172651 0.000276883 0)
(-0.0173765 0.000244021 0)
(-0.0174734 0.0002104 0)
(-0.0175555 0.000176059 0)
(-0.0176227 0.000141044 0)
(-0.0176745 0.000105399 0)
(-0.0177108 6.91765e-05 0)
(-0.0177313 3.24304e-05 0)
(-0.0177358 -4.7818e-06 0)
(-0.0177241 -4.23983e-05 0)
(-0.0176962 -8.03538e-05 0)
(-0.0176518 -0.00011858 0)
(-0.0175909 -0.000157005 0)
(-0.0175134 -0.000195553 0)
(-0.0174193 -0.000234147 0)
(-0.0173087 -0.000272704 0)
(-0.0171815 -0.000311142 0)
(-0.0170378 -0.000349373 0)
(-0.0168778 -0.000387309 0)
(-0.0167016 -0.000424858 0)
(-0.0165093 -0.000461929 0)
(-0.0163014 -0.000498427 0)
(-0.0160779 -0.000534257 0)
(-0.0158392 -0.000569323 0)
(-0.0155857 -0.000603529 0)
(-0.0153178 -0.000636777 0)
(-0.0150358 -0.000668973 0)
(-0.0147403 -0.000700019 0)
(-0.0144319 -0.000729822 0)
(-0.0141109 -0.000758289 0)
(-0.0137781 -0.000785327 0)
(-0.013434 -0.000810849 0)
(-0.0130794 -0.000834768 0)
(-0.0127149 -0.000857001 0)
(-0.0123412 -0.000877468 0)
(-0.0119592 -0.000896095 0)
(-0.0115696 -0.000912809 0)
(-0.0111732 -0.000927543 0)
(-0.0107709 -0.000940237 0)
(-0.0103637 -0.000950835 0)
(-0.00995226 -0.000959284 0)
(-0.00953765 -0.000965543 0)
(-0.00912077 -0.000969572 0)
(-0.00870256 -0.00097134 0)
(-0.008284 -0.000970824 0)
(-0.00786604 -0.000968004 0)
(-0.00744967 -0.000962873 0)
(-0.00703586 -0.000955426 0)
(-0.00662558 -0.00094567 0)
(-0.0062198 -0.000933617 0)
(-0.0058195 -0.000919289 0)
(-0.00542562 -0.000902714 0)
(-0.0050391 -0.000883929 0)
(-0.00466086 -0.00086298 0)
(-0.0042918 -0.000839918 0)
(-0.0039328 -0.000814807 0)
(-0.0035847 -0.000787715 0)
(-0.00324831 -0.00075872 0)
(-0.00292443 -0.00072791 0)
(-0.00261377 -0.000695378 0)
(-0.00231705 -0.000661229 0)
(-0.00203491 -0.000625577 0)
(-0.00176795 -0.000588542 0)
(-0.00151672 -0.000550258 0)
(-0.00128169 -0.000510865 0)
(-0.00106329 -0.000470518 0)
(-0.000861871 -0.000429383 0)
(-0.000677709 -0.000387639 0)
(-0.000511 -0.00034548 0)
(-0.000361855 -0.000303119 0)
(-0.000230288 -0.000260785 0)
(-0.000116214 -0.000218734 0)
(-1.94322e-05 -0.000177249 0)
(6.0378e-05 -0.000136642 0)
(0.000123673 -9.72657e-05 0)
(0.000171059 -5.95197e-05 0)
(0.000203305 -2.38569e-05 0)
(0.000221364 9.2037e-06 0)
(0.000226388 3.90651e-05 0)
(0.000219754 6.50399e-05 0)
(0.000203082 8.63379e-05 0)
(0.000178253 0.000102058 0)
(0.000147432 0.000111192 0)
(0.000113087 0.000112649 0)
(7.79404e-05 0.000105326 0)
(4.49554e-05 8.82388e-05 0)
(1.81668e-05 6.07594e-05 0)
(3.47193e-06 2.31156e-05 0)
(2.20959e-06 -2.88502e-05 0)
(8.25224e-06 -5.74042e-05 0)
(1.4429e-05 -6.29824e-05 0)
(1.52328e-05 -5.03614e-05 0)
(6.64967e-06 -2.34103e-05 0)
(-1.42432e-05 1.45737e-05 0)
(-4.97814e-05 6.08223e-05 0)
(-0.000101788 0.000113054 0)
(-0.00017162 0.000169407 0)
(-0.00026023 0.000228376 0)
(-0.000368226 0.000288752 0)
(-0.000495923 0.000349569 0)
(-0.00064339 0.000410059 0)
(-0.000810489 0.000469617 0)
(-0.000996916 0.000527769 0)
(-0.00120223 0.000584149 0)
(-0.00142587 0.000638478 0)
(-0.00166721 0.000690547 0)
(-0.00192553 0.000740203 0)
(-0.00220008 0.000787343 0)
(-0.00249005 0.000831899 0)
(-0.00279463 0.000873835 0)
(-0.00311297 0.000913141 0)
(-0.00344422 0.000949825 0)
(-0.00378754 0.000983911 0)
(-0.00414208 0.00101544 0)
(-0.00450699 0.00104445 0)
(-0.00488144 0.001071 0)
(-0.00526462 0.00109514 0)
(-0.00565573 0.00111695 0)
(-0.00605399 0.00113648 0)
(-0.00645861 0.00115379 0)
(-0.00686886 0.00116895 0)
(-0.00728401 0.00118202 0)
(-0.00770333 0.00119306 0)
(-0.00812613 0.00120213 0)
(-0.00855174 0.00120928 0)
(-0.00897949 0.00121457 0)
(-0.00940873 0.00121804 0)
(-0.00983883 0.00121974 0)
(-0.0102692 0.0012197 0)
(-0.0106991 0.00121797 0)
(-0.0111281 0.00121457 0)
(-0.0115556 0.00120954 0)
(-0.0119809 0.0012029 0)
(-0.0124035 0.00119468 0)
(-0.0128228 0.00118489 0)
(-0.0132384 0.00117354 0)
(-0.0136495 0.00116066 0)
(-0.0140558 0.00114625 0)
(-0.0144565 0.00113031 0)
(-0.0148513 0.00111287 0)
(-0.0152395 0.00109392 0)
(-0.0156207 0.00107346 0)
(-0.0159942 0.0010515 0)
(-0.0163597 0.00102805 0)
(-0.0167164 0.00100309 0)
(-0.017064 0.00097664 0)
(-0.0174018 0.000948698 0)
(-0.0177294 0.000919267 0)
(-0.0180462 0.000888353 0)
(-0.0183517 0.000855962 0)
(-0.0186455 0.000822103 0)
(-0.018927 0.000786787 0)
(-0.0191956 0.000750027 0)
(-0.0194509 0.00071184 0)
(-0.0196925 0.000672245 0)
(-0.0199198 0.000631266 0)
(-0.0201323 0.000588929 0)
(-0.0203296 0.000545266 0)
(-0.0205113 0.000500312 0)
(-0.0206769 0.000454105 0)
(-0.020826 0.000406692 0)
(-0.0209582 0.000358121 0)
(-0.0210732 0.000308446 0)
(-0.0211704 0.000257726 0)
(-0.0212497 0.000206026 0)
(-0.0213108 0.000153416 0)
(-0.0213532 9.99697e-05 0)
(-0.0213768 4.57686e-05 0)
(-0.0213812 -9.10208e-06 0)
(-0.0213665 -6.45519e-05 0)
(-0.0213322 -0.000120485 0)
(-0.0212784 -0.0001768 0)
(-0.0212049 -0.000233392 0)
(-0.0211116 -0.000290151 0)
(-0.0209986 -0.000346961 0)
(-0.0208658 -0.000403703 0)
(-0.0207134 -0.000460255 0)
(-0.0205413 -0.000516489 0)
(-0.0203498 -0.000572278 0)
(-0.020139 -0.000627486 0)
(-0.0199092 -0.000681981 0)
(-0.0196606 -0.000735623 0)
(-0.0193936 -0.000788275 0)
(-0.0191086 -0.000839796 0)
(-0.018806 -0.000890046 0)
(-0.0184862 -0.000938885 0)
(-0.0181498 -0.000986172 0)
(-0.0177973 -0.00103177 0)
(-0.0174293 -0.00107554 0)
(-0.0170466 -0.00111734 0)
(-0.0166497 -0.00115705 0)
(-0.0162395 -0.00119453 0)
(-0.0158168 -0.00122966 0)
(-0.0153822 -0.00126232 0)
(-0.0149369 -0.00129239 0)
(-0.0144815 -0.00131977 0)
(-0.0140171 -0.00134435 0)
(-0.0135447 -0.00136603 0)
(-0.0130653 -0.00138472 0)
(-0.0125798 -0.00140035 0)
(-0.0120894 -0.00141283 0)
(-0.0115952 -0.00142212 0)
(-0.0110981 -0.00142814 0)
(-0.0105995 -0.00143086 0)
(-0.0101003 -0.00143024 0)
(-0.00960176 -0.00142626 0)
(-0.009105 -0.0014189 0)
(-0.00861116 -0.00140816 0)
(-0.00812141 -0.00139405 0)
(-0.00763688 -0.00137658 0)
(-0.00715871 -0.00135579 0)
(-0.00668802 -0.00133173 0)
(-0.0062259 -0.00130444 0)
(-0.00577345 -0.00127399 0)
(-0.00533173 -0.00124046 0)
(-0.00490175 -0.00120394 0)
(-0.00448452 -0.00116454 0)
(-0.00408098 -0.00112236 0)
(-0.00369207 -0.00107755 0)
(-0.00331863 -0.00103023 0)
(-0.00296149 -0.000980557 0)
(-0.00262141 -0.000928704 0)
(-0.00229908 -0.000874847 0)
(-0.00199514 -0.000819183 0)
(-0.00171016 -0.00076192 0)
(-0.00144463 -0.000703285 0)
(-0.00119893 -0.000643523 0)
(-0.000973408 -0.000582898 0)
(-0.00076827 -0.000521695 0)
(-0.000583641 -0.000460226 0)
(-0.000419532 -0.000398828 0)
(-0.000275833 -0.000337873 0)
(-0.000152307 -0.000277769 0)
(-4.85738e-05 -0.000218968 0)
(3.5897e-05 -0.000161977 0)
(0.000101805 -0.000107359 0)
(0.000150029 -5.57524e-05 0)
(0.00018165 -7.87597e-06 0)
(0.000197962 3.54529e-05 0)
(0.000200495 7.33069e-05 0)
(0.00019103 0.000104637 0)
(0.000171618 0.000128267 0)
(0.0001446 0.000142897 0)
(0.000112627 0.000147126 0)
(7.8633e-05 0.000139511 0)
(4.58403e-05 0.000118663 0)
(1.86737e-05 8.34032e-05 0)
(3.58979e-06 3.29558e-05 0)
(1.54996e-06 -3.25615e-05 0)
(4.34473e-06 -6.17937e-05 0)
(3.83779e-06 -6.28113e-05 0)
(-4.84049e-06 -4.14904e-05 0)
(-2.54545e-05 -2.51124e-06 0)
(-6.08697e-05 5.01592e-05 0)
(-0.000113379 0.000113182 0)
(-0.000184779 0.000183782 0)
(-0.000276416 0.000259669 0)
(-0.000389242 0.000338965 0)
(-0.000523871 0.000420138 0)
(-0.00068062 0.000501949 0)
(-0.000859553 0.0005834 0)
(-0.00106052 0.000663692 0)
(-0.0012832 0.000742191 0)
(-0.0015271 0.000818401 0)
(-0.00179164 0.000891938 0)
(-0.00207612 0.000962508 0)
(-0.00237977 0.0010299 0)
(-0.00270176 0.00109395 0)
(-0.0030412 0.00115456 0)
(-0.00339719 0.00121168 0)
(-0.0037688 0.00126527 0)
(-0.00415508 0.00131533 0)
(-0.00455508 0.0013619 0)
(-0.00496786 0.001405 0)
(-0.00539245 0.00144471 0)
(-0.00582794 0.00148107 0)
(-0.0062734 0.00151416 0)
(-0.00672791 0.00154406 0)
(-0.00719058 0.00157085 0)
(-0.00766055 0.00159461 0)
(-0.00813695 0.00161542 0)
(-0.00861894 0.00163337 0)
(-0.00910571 0.00164853 0)
(-0.00959646 0.00166097 0)
(-0.0100904 0.00167078 0)
(-0.0105868 0.00167801 0)
(-0.0110848 0.00168273 0)
(-0.0115838 0.001685 0)
(-0.012083 0.00168487 0)
(-0.0125818 0.0016824 0)
(-0.0130794 0.00167762 0)
(-0.0135751 0.00167058 0)
(-0.0140683 0.0016613 0)
(-0.0145583 0.00164983 0)
(-0.0150445 0.00163618 0)
(-0.0155262 0.00162039 0)
(-0.0160028 0.00160245 0)
(-0.0164736 0.0015824 0)
(-0.016938 0.00156025 0)
(-0.0173954 0.00153599 0)
(-0.0178451 0.00150965 0)
(-0.0182866 0.00148123 0)
(-0.0187192 0.00145073 0)
(-0.0191422 0.00141815 0)
(-0.0195552 0.00138351 0)
(-0.0199574 0.00134681 0)
(-0.0203483 0.00130804 0)
(-0.0207272 0.00126723 0)
(-0.0210936 0.00122437 0)
(-0.0214469 0.00117948 0)
(-0.0217864 0.00113257 0)
(-0.0221116 0.00108365 0)
(-0.022422 0.00103276 0)
(-0.0227168 0.000979906 0)
(-0.0229956 0.000925125 0)
(-0.0232579 0.000868448 0)
(-0.023503 0.000809914 0)
(-0.0237305 0.000749566 0)
(-0.0239399 0.000687456 0)
(-0.0241306 0.000623637 0)
(-0.0243021 0.000558174 0)
(-0.0244541 0.000491134 0)
(-0.0245861 0.000422593 0)
(-0.0246977 0.000352633 0)
(-0.0247885 0.000281344 0)
(-0.0248581 0.000208822 0)
(-0.0249062 0.000135172 0)
(-0.0249325 6.05023e-05 0)
(-0.0249369 -1.50672e-05 0)
(-0.0249189 -9.14124e-05 0)
(-0.0248785 -0.000168402 0)
(-0.0248155 -0.000245896 0)
(-0.0247298 -0.000323751 0)
(-0.0246213 -0.000401815 0)