/*--------------------------------*- C++ -*----------------------------------*\
  =========                 |
  \\      /  F ield         | OpenFOAM: The Open Source CFD Toolbox
   \\    /   O peration     | Website:  https://openfoam.org
    \\  /    A nd           | Version:  7
     \\/     M anipulation  |
\*---------------------------------------------------------------------------*/
FoamFile
{
    version     2.0;
    format      ascii;
    class       volScalarField;
    location    "0.225";
    object      p;
}
// * * * * * * * * * * * * * * * * * * * * * * * * * * * * * * * * * * * * * //

dimensions      [0 2 -2 0 0 0 0];

internalField   nonuniform List<scalar> 
25600
(
-1.03341e-08
-1.48192e-06
-1.48956e-05
-3.87907e-05
-7.12637e-05
-0.000112018
-0.000160017
-0.000214001
-0.000272711
-0.000334959
-0.000399664
-0.000465837
-0.000532596
-0.000599161
-0.000664837
-0.000729005
-0.000791113
-0.000850692
-0.000907334
-0.000960681
-0.00101042
-0.00105625
-0.00109792
-0.00113522
-0.00116799
-0.00119607
-0.00121934
-0.0012377
-0.00125105
-0.00125932
-0.00126246
-0.00126042
-0.00125317
-0.0012407
-0.001223
-0.00120005
-0.00117187
-0.00113848
-0.00109989
-0.00105612
-0.00100721
-0.000953182
-0.000894075
-0.000829925
-0.000760775
-0.000686672
-0.000607662
-0.000523794
-0.000435119
-0.000341701
-0.000243597
-0.000140863
-3.35556e-05
7.82595e-05
0.00019451
0.000315121
0.000440016
0.000569116
0.000702341
0.000839608
0.000980828
0.0011259
0.00127472
0.00142719
0.00158321
0.00174267
0.00190545
0.00207143
0.00224047
0.00241243
0.00258718
0.00276458
0.00294448
0.0031267
0.00331109
0.00349746
0.00368564
0.00387544
0.00406668
0.00425915
0.00445264
0.00464694
0.00484184
0.00503711
0.00523251
0.00542782
0.00562279
0.00581719
0.00601074
0.00620321
0.00639433
0.00658383
0.00677145
0.00695693
0.00714002
0.00732043
0.0074979
0.00767216
0.00784295
0.00800999
0.00817303
0.00833182
0.0084861
0.00863565
0.00878021
0.00891956
0.00905347
0.00918173
0.00930413
0.00942049
0.00953062
0.00963438
0.00973161
0.00982217
0.00990594
0.00998281
0.0100527
0.0101155
0.0101712
0.0102197
0.0102611
0.0102953
0.0103224
0.0103425
0.0103555
0.0103616
0.0103608
0.0103534
0.0103395
0.0103192
0.0102927
0.0102604
0.0102224
0.0101791
0.0101306
0.0100775
0.01002
0.00995842
0.00989328
0.00982499
0.00975401
0.00968085
0.00960603
0.00953014
0.00945378
0.0093776
0.0093023
0.00922862
0.00915735
0.00908933
0.00902546
0.00896672
0.0089141
0.00886868
0.00883152
0.00880361
0.00878569
0.00877801
0.00877995
0.00878786
-1.25475e-05
-1.34161e-05
-2.5317e-05
-4.66107e-05
-7.5614e-05
-0.000111764
-0.000154286
-0.000202195
-0.000254465
-0.000310094
-0.00036813
-0.0004277
-0.000487996
-0.000548288
-0.00060793
-0.000666334
-0.000722973
-0.000777374
-0.000829125
-0.000877874
-0.000923304
-0.000965137
-0.00100312
-0.00103704
-0.00106669
-0.00109194
-0.00111265
-0.00112869
-0.00113999
-0.00114645
-0.00114801
-0.00114462
-0.00113624
-0.00112284
-0.00110441
-0.00108093
-0.00105241
-0.00101885
-0.000980261
-0.00093667
-0.000888094
-0.000834559
-0.000776095
-0.000712733
-0.000644513
-0.00057148
-0.000493677
-0.000411143
-0.000323931
-0.000232099
-0.000135706
-3.48039e-05
7.05516e-05
0.000180296
0.000294361
0.000412671
0.00053515
0.000661722
0.000792307
0.000926825
0.00106518
0.00120729
0.00135304
0.00150233
0.00165506
0.00181113
0.00197042
0.0021328
0.00229814
0.0024663
0.00263717
0.00281059
0.00298641
0.00316447
0.0033446
0.00352663
0.0037104
0.00389571
0.00408239
0.00427023
0.00445903
0.00464859
0.00483869
0.00502912
0.00521964
0.00541004
0.00560008
0.00578952
0.00597811
0.00616562
0.00635178
0.00653634
0.00671905
0.00689965
0.0070779
0.00725354
0.0074263
0.00759593
0.00776216
0.00792475
0.00808344
0.008238
0.0083882
0.00853379
0.00867456
0.00881027
0.00894072
0.0090657
0.00918502
0.00929851
0.00940599
0.00950732
0.00960235
0.00969097
0.00977304
0.00984847
0.00991718
0.00997909
0.0100342
0.0100824
0.0101237
0.0101582
0.0101859
0.0102068
0.010221
0.0102286
0.0102297
0.0102244
0.0102128
0.0101953
0.0101719
0.0101429
0.0101085
0.0100691
0.0100249
0.00997628
0.00992352
0.00986701
0.00980715
0.00974437
0.00967912
0.00961188
0.00954317
0.00947354
0.00940358
0.00933389
0.00926512
0.00919798
0.00913318
0.0090715
0.00901374
0.00896073
0.00891335
0.00887245
0.00883886
0.00881329
0.00879617
0.00878761
0.00878785
0.00879577
-1.92068e-05
-1.71915e-05
-2.64708e-05
-4.5375e-05
-7.17004e-05
-0.000104607
-0.000143324
-0.00018697
-0.000234648
-0.000285465
-0.000338578
-0.000393194
-0.000448575
-0.000504044
-0.000558988
-0.00061286
-0.000665162
-0.000715434
-0.000763271
-0.000808315
-0.000850257
-0.000888828
-0.000923779
-0.000954893
-0.000981981
-0.00100488
-0.00102344
-0.00103755
-0.00104711
-0.00105203
-0.00105225
-0.00104771
-0.00103836
-0.00102416
-0.00100509
-0.000981144
-0.000952309
-0.000918587
-0.000879988
-0.000836527
-0.00078822
-0.000735085
-0.000677148
-0.000614439
-0.000546997
-0.00047486
-0.000398066
-0.000316657
-0.000230684
-0.0001402
-4.52584e-05
5.409e-05
0.00015779
0.000265778
0.000377985
0.000494338
0.000614764
0.000739189
0.000867535
0.000999716
0.00113564
0.00127523
0.00141837
0.00156496
0.00171491
0.00186811
0.00202444
0.00218378
0.00234599
0.00251095
0.00267854
0.0028486
0.00302099
0.00319555
0.00337211
0.0035505
0.00373056
0.00391212
0.00409497
0.00427895
0.00446383
0.00464943
0.00483553
0.00502192
0.00520838
0.00539469
0.00558063
0.00576596
0.00595044
0.00613383
0.00631588
0.00649635
0.006675
0.00685157
0.00702583
0.00719752
0.0073664
0.0075322
0.00769469
0.00785361
0.00800872
0.00815981
0.00830664
0.00844899
0.00858664
0.00871937
0.00884698
0.00896927
0.00908606
0.00919719
0.00930249
0.00940183
0.00949507
0.00958208
0.00966276
0.00973701
0.00980475
0.00986592
0.00992049
0.00996843
0.0100097
0.0100445
0.0100726
0.0100942
0.0101093
0.0101181
0.0101206
0.010117
0.0101075
0.0100921
0.0100711
0.0100448
0.0100134
0.00997716
0.00993635
0.0098913
0.00984234
0.00978985
0.00973419
0.00967579
0.00961508
0.00955252
0.00948862
0.0094239
0.00935891
0.00929425
0.00923051
0.00916835
0.00910844
0.00905148
0.0089982
0.00894935
0.00890568
0.00886792
0.00883677
0.00881282
0.00879644
0.00878781
0.00878808
0.00879773
-1.34847e-05
-1.03864e-05
-1.84062e-05
-3.5828e-05
-6.04106e-05
-9.11844e-05
-0.00012734
-0.000168035
-0.000212436
-0.000259739
-0.000309172
-0.000360011
-0.000411585
-0.00046326
-0.000514461
-0.000564671
-0.000613419
-0.000660279
-0.00070486
-0.000746812
-0.000785827
-0.000821635
-0.000853996
-0.000882702
-0.000907563
-0.00092841
-0.000945103
-0.00095752
-0.000965556
-0.000969125
-0.000968153
-0.000962576
-0.000952344
-0.000937422
-0.00091778
-0.000893398
-0.000864266
-0.000830384
-0.000791758
-0.000748397
-0.000700312
-0.000647518
-0.00059004
-0.000527907
-0.00046115
-0.000389801
-0.000313899
-0.000233489
-0.000148617
-5.93324e-05
3.43143e-05
0.000132275
0.000234496
0.000340914
0.000451456
0.000566055
0.000684644
0.000807149
0.000933491
0.00106358
0.00119734
0.00133467
0.00147548
0.00161966
0.00176713
0.00191777
0.00207147
0.00222811
0.00238755
0.00254967
0.00271434
0.00288144
0.00305079
0.00322225
0.00339566
0.00357085
0.00374765
0.0039259
0.0041054
0.00428598
0.00446744
0.00464956
0.00483216
0.00501503
0.00519794
0.0053807
0.00556307
0.00574482
0.00592572
0.00610554
0.00628403
0.00646096
0.00663608
0.00680917
0.00697998
0.00714827
0.00731379
0.0074763
0.00763555
0.00779131
0.00794335
0.00809145
0.00823539
0.00837495
0.00850992
0.00864009
0.00876526
0.00888525
0.00899987
0.00910898
0.00921241
0.00931004
0.00940173
0.00948737
0.00956685
0.00964008
0.00970699
0.00976752
0.00982164
0.00986933
0.0099106
0.00994546
0.00997396
0.00999614
0.0100121
0.0100218
0.0100256
0.0100234
0.0100154
0.0100019
0.00998298
0.00995891
0.00992993
0.00989629
0.00985829
0.00981622
0.00977043
0.00972124
0.00966905
0.00961424
0.00955724
0.00949851
0.0094385
0.00937774
0.00931675
0.00925607
0.0091963
0.00913802
0.00908187
0.00902849
0.00897855
0.00893272
0.00889167
0.00885606
0.00882651
0.0088036
0.00878769
0.00877913
0.00877953
0.00879012
5.23371e-06
6.51016e-06
-2.08678e-06
-1.92012e-05
-4.29525e-05
-7.24179e-05
-0.000106803
-0.000145309
-0.000187174
-0.000231666
-0.000278083
-0.000325764
-0.000374094
-0.000422499
-0.000470442
-0.000517427
-0.000563014
-0.0006068
-0.000648422
-0.000687548
-0.000723877
-0.000757139
-0.000787106
-0.000813567
-0.000836338
-0.000855257
-0.000870182
-0.000880989
-0.000887576
-0.000889851
-0.000887731
-0.000881156
-0.000870078
-0.000854453
-0.000834245
-0.000809434
-0.00078001
-0.000745964
-0.000707302
-0.000664029
-0.000616148
-0.000563675
-0.000506634
-0.000445052
-0.000378951
-0.000308363
-0.000233327
-0.000153883
-7.00762e-05
1.80457e-05
0.000110437
0.000207052
0.000307838
0.000412728
0.000521652
0.000634548
0.000751351
0.00087199
0.000996382
0.00112445
0.00125609
0.00139124
0.00152979
0.00167164
0.00181671
0.00196487
0.00211603
0.00227005
0.00242681
0.0025862
0.00274808
0.00291231
0.00307875
0.00324724
0.00341762
0.00358973
0.00376341
0.00393849
0.0041148
0.00429214
0.00447032
0.00464914
0.0048284
0.00500791
0.00518747
0.00536684
0.00554583
0.00572419
0.00590171
0.00607814
0.00625327
0.00642685
0.00659865
0.00676846
0.00693602
0.0071011
0.00726346
0.00742287
0.00757908
0.00773187
0.00788102
0.00802632
0.00816754
0.00830449
0.00843695
0.00856472
0.00868761
0.00880543
0.00891803
0.00902524
0.00912692
0.00922295
0.0093132
0.00939755
0.0094759
0.00954817
0.00961428
0.0096742
0.00972789
0.00977533
0.00981654
0.00985154
0.00988036
0.00990305
0.00991968
0.00993035
0.00993517
0.00993426
0.00992778
0.00991591
0.00989884
0.0098768
0.00985003
0.00981877
0.00978332
0.00974395
0.009701
0.0096548
0.00960572
0.00955414
0.00950046
0.00944513
0.00938858
0.00933131
0.00927382
0.00921662
0.00916026
0.00910531
0.00905233
0.00900193
0.00895471
0.00891129
0.00887227
0.00883824
0.00880978
0.00878744
0.0087716
0.0087627
0.00876249
0.00877238
3.49307e-05
3.25262e-05
2.19332e-05
4.04172e-06
-1.97961e-05
-4.87733e-05
-8.21495e-05
-0.000119198
-0.000159223
-0.00020157
-0.000245605
-0.000290719
-0.000336354
-0.000381989
-0.000427132
-0.000471325
-0.000514149
-0.000555221
-0.000594202
-0.000630778
-0.000664665
-0.000695608
-0.00072338
-0.000747776
-0.000768615
-0.000785739
-0.000799011
-0.000808311
-0.000813531
-0.000814578
-0.000811375
-0.000803855
-0.000791965
-0.000775662
-0.00075491
-0.000729686
-0.000699975
-0.000665768
-0.000627067
-0.000583871
-0.000536181
-0.000484013
-0.00042739
-0.00036633
-0.000300856
-0.000230998
-0.000156794
-7.82813e-05
4.49827e-06
9.15004e-05
0.000182681
0.000277997
0.000377395
0.000480807
0.00058817
0.000699423
0.000814504
0.000933339
0.00105585
0.00118195
0.00131157
0.00144461
0.00158098
0.00172059
0.00186335
0.00200914
0.00215785
0.00230936
0.00246356
0.00262032
0.00277952
0.00294103
0.00310468
0.00327034
0.00343783
0.00360702
0.00377773
0.00394981
0.00412308
0.00429735
0.00447242
0.00464812
0.00482423
0.00500058
0.00517696
0.00535316
0.00552896
0.00570413
0.00587847
0.00605173
0.00622369
0.00639414
0.00656284
0.00672957
0.00689409
0.00705618
0.00721559
0.0073721
0.00752548
0.00767551
0.00782198
0.00796466
0.00810337
0.00823788
0.008368
0.00849354
0.00861431
0.00873013
0.00884084
0.00894629
0.00904635
0.00914089
0.00922978
0.00931293
0.00939023
0.0094616
0.00952697
0.00958631
0.00963958
0.00968678
0.00972792
0.00976301
0.00979211
0.00981525
0.00983251
0.00984397
0.00984976
0.00984999
0.00984483
0.00983445
0.00981904
0.00979881
0.00977401
0.00974489
0.0097117
0.00967474
0.00963433
0.00959078
0.00954446
0.00949573
0.00944497
0.00939261
0.00933908
0.00928484
0.00923036
0.00917614
0.00912267
0.00907049
0.00902013
0.00897213
0.00892706
0.00888547
0.00884792
0.00881493
0.00878704
0.00876477
0.00874852
0.00873873
0.00873707
0.0087448
7.38196e-05
6.64943e-05
5.2858e-05
3.32822e-05
8.51554e-06
-2.07416e-05
-5.38331e-05
-9.01142e-05
-0.000128966
-0.000169801
-0.000212054
-0.000255181
-0.000298667
-0.000342032
-0.000384834
-0.000426655
-0.000467104
-0.000505828
-0.000542502
-0.000576826
-0.000608538
-0.000637399
-0.000663186
-0.000685705
-0.000704784
-0.000720267
-0.000732019
-0.000739922
-0.000743872
-0.000743776
-0.000739558
-0.000731152
-0.0007185
-0.000701557
-0.000680288
-0.000654669
-0.000624686
-0.000590325
-0.000551582
-0.000508454
-0.000460945
-0.000409068
-0.000352841
-0.000292279
-0.0002274
-0.000158239
-8.48299e-05
-7.2082e-06
7.45883e-05
0.000160519
0.000250542
0.000344613
0.000442678
0.000544674
0.00065054
0.000760218
0.000873647
0.000990756
0.00111146
0.00123569
0.00136336
0.00149439
0.00162868
0.00176616
0.00190671
0.00205023
0.00219662
0.00234575
0.00249751
0.00265178
0.00280844
0.00296736
0.00312838
0.00329135
0.00345613
0.00362255
0.00379048
0.00395973
0.00413015
0.00430153
0.0044737
0.00464646
0.00481963
0.00499303
0.00516645
0.00533968
0.0055125
0.00568471
0.00585608
0.0060264
0.00619544
0.00636298
0.0065288
0.00669269
0.0068544
0.00701372
0.00717041
0.00732425
0.00747502
0.00762251
0.00776649
0.00790678
0.00804316
0.00817544
0.00830342
0.00842691
0.00854572
0.0086597
0.00876868
0.00887252
0.00897108
0.00906425
0.0091519
0.00923394
0.00931027
0.0093808
0.00944548
0.00950428
0.00955716
0.00960412
0.00964517
0.00968033
0.00970965
0.00973317
0.00975096
0.00976312
0.00976975
0.00977099
0.00976698
0.00975791
0.00974395
0.00972532
0.00970225
0.00967499
0.00964379
0.00960894
0.00957074
0.0095295
0.00948557
0.0094393
0.00939106
0.00934125
0.00929029
0.00923861
0.00918666
0.0091349
0.00908381
0.00903387
0.00898558
0.00893943
0.00889595
0.00885564
0.008819
0.00878653
0.00875871
0.00873601
0.00871883
0.00870762
0.00870374
0.00870816
0.000120203
0.00010714
8.97052e-05
6.7721e-05
4.13222e-05
1.11081e-05
-2.23375e-05
-5.84694e-05
-9.67438e-05
-0.000136634
-0.000177648
-0.000219302
-0.000261129
-0.000302693
-0.000343586
-0.000383429
-0.000421869
-0.000458578
-0.00049325
-0.000525609
-0.000555408
-0.000582416
-0.000606427
-0.000627256
-0.000644737
-0.000658726
-0.00066909
-0.000675713
-0.000678491
-0.000677337
-0.000672177
-0.000662943
-0.000649579
-0.000632038
-0.000610285
-0.000584297
-0.000554057
-0.000519551
-0.000480769
-0.000437707
-0.00039037
-0.00033877
-0.00028292
-0.000222831
-0.000158524
-9.00294e-05
-1.73815e-05
5.93874e-05
0.000140243
0.000225148
0.000314063
0.000406941
0.000503728
0.000604366
0.000708798
0.000816968
0.000928816
0.00104427
0.00116326
0.00128569
0.0014115
0.00154061
0.00167292
0.00180835
0.0019468
0.00208817
0.00223234
0.00237921
0.00252866
0.00268058
0.00283484
0.00299131
0.00314984
0.00331028
0.00347249
0.00363633
0.00380163
0.00396823
0.00413597
0.00430465
0.00447409
0.00464412
0.00481455
0.00498519
0.00515585
0.00532632
0.00549639
0.00566585
0.00583447
0.00600206
0.00616839
0.00633325
0.00649642
0.00665768
0.0068168
0.00697357
0.00712776
0.00727915
0.00742752
0.00757267
0.00771439
0.00785248
0.00798673
0.00811697
0.00824298
0.00836459
0.00848162
0.00859391
0.00870131
0.00880367
0.00890087
0.00899278
0.0090793
0.00916031
0.00923574
0.0093055
0.00936955
0.00942783
0.00948034
0.00952706
0.00956801
0.00960321
0.0096327
0.00965653
0.00967478
0.00968753
0.0096949
0.009697
0.00969399
0.00968605
0.00967335
0.00965611
0.00963454
0.00960889
0.00957941
0.00954637
0.00951008
0.00947082
0.00942893
0.00938476
0.00933865
0.009291
0.00924219
0.00919264
0.00914276
0.009093
0.0090438
0.0089956
0.00894888
0.00890409
0.00886169
0.00882216
0.00878595
0.0087535
0.00872527
0.00870166
0.00868308
0.00866994
0.0086632
0.00866344
0.00017256
0.00015323
0.000131456
0.00010652
7.79198e-05
4.61826e-05
1.18283e-05
-2.46918e-05
-6.29127e-05
-0.000102372
-0.000142635
-0.000183274
-0.000223881
-0.000264061
-0.000303442
-0.00034168
-0.000378453
-0.000413459
-0.000446418
-0.000477079
-0.000505206
-0.000530584
-0.00055302
-0.00057234
-0.000588387
-0.000601026
-0.000610129
-0.000615583
-0.000617291
-0.000615169
-0.00060914
-0.00059914
-0.000585114
-0.000567019
-0.000544818
-0.000518489
-0.000488012
-0.000453371
-0.000414554
-0.000371561
-0.000324394
-0.000273059
-0.000217568
-0.000157933
-9.4173e-05
-2.6318e-05
4.55994e-05
0.000121551
0.000201507
0.000285431
0.000373283
0.000465015
0.000560578
0.000659916
0.000762976
0.000869704
0.00098004
0.00109391
0.00121125
0.00133197
0.00145601
0.00158328
0.00171371
0.0018472
0.00198365
0.00212297
0.00226504
0.00240977
0.00255703
0.00270672
0.00285871
0.00301287
0.00316905
0.00332711
0.00348691
0.00364831
0.00381116
0.00397528
0.00414051
0.00430666
0.00447357
0.00464104
0.00480892
0.00497701
0.00514511
0.00531302
0.00548054
0.00564744
0.00581353
0.0059786
0.00614244
0.00630483
0.00646555
0.0066244
0.00678115
0.00693558
0.00708748
0.00723662
0.00738281
0.00752582
0.00766547
0.00780155
0.00793387
0.00806224
0.00818646
0.00830637
0.00842178
0.00853253
0.00863848
0.0087395
0.00883545
0.00892622
0.00901169
0.00909178
0.00916638
0.00923543
0.00929888
0.00935669
0.00940884
0.00945532
0.00949616
0.00953137
0.00956099
0.00958508
0.0096037
0.00961695
0.00962493
0.00962777
0.00962561
0.00961863
0.00960701
0.00959095
0.00957066
0.00954639
0.00951837
0.00948688
0.0094522
0.00941461
0.00937445
0.00933202
0.00928769
0.00924181
0.00919476
0.00914693
0.00909871
0.00905052
0.00900276
0.00895586
0.00891025
0.00886635
0.00882459
0.00878538
0.00874915
0.00871629
0.00868721
0.00866228
0.00864186
0.00862635
0.00861624
0.00861171
0.000229562
0.000203633
0.000177147
0.000148843
0.000117598
8.38704e-05
4.81376e-05
1.07714e-05
-2.78521e-05
-6.73341e-05
-0.000107283
-0.000147329
-0.000187113
-0.000226285
-0.000264514
-0.000301489
-0.000336911
-0.000370509
-0.000402033
-0.000431245
-0.000457929
-0.000481888
-0.000502942
-0.00052093
-0.000535704
-0.000547134
-0.0005551
-0.000559498
-0.000560237
-0.000557233
-0.000550411
-0.00053971
-0.000525077
-0.000506472
-0.000483862
-0.000457223
-0.00042653
-0.000391765
-0.000352924
-0.000310004
-0.000263004
-0.000211926
-0.000156781
-9.7582e-05
-3.43481e-05
3.28918e-05
0.000104108
0.000179277
0.000258373
0.000341358
0.00042819
0.000518824
0.000613214
0.00071131
0.000813059
0.000918409
0.0010273
0.00113966
0.00125542
0.00137451
0.00149686
0.00162239
0.00175103
0.00188267
0.00201723
0.0021546
0.00229469
0.00243739
0.00258259
0.00273017
0.00288002
0.003032
0.00318598
0.00334181
0.00349935
0.00365847
0.00381902
0.00398082
0.00414372
0.00430752
0.00447207
0.00463718
0.00480269
0.00496841
0.00513415
0.0052997
0.00546485
0.00562941
0.00579317
0.00595593
0.00611748
0.00627761
0.0064361
0.00659274
0.00674733
0.00689963
0.00704943
0.00719653
0.00734073
0.00748181
0.00761958
0.00775384
0.00788441
0.00801108
0.00813369
0.00825205
0.00836599
0.00847535
0.00858
0.0086798
0.00877462
0.00886436
0.00894889
0.00902812
0.00910197
0.00917037
0.00923328
0.00929064
0.00934245
0.0093887
0.00942941
0.0094646
0.00949431
0.00951859
0.00953751
0.00955116
0.00955965
0.0095631
0.00956165
0.00955548
0.00954476
0.00952969
0.00951048
0.00948735
0.00946055
0.00943034
0.00939699
0.00936079
0.00932203
0.00928104
0.00923814
0.00919368
0.00914803
0.00910154
0.00905459
0.00900756
0.00896084
0.00891483
0.00886991
0.00882648
0.00878493
0.00874564
0.00870899
0.00867532
0.00864501
0.00861838
0.00859576
0.00857752
0.00856367
0.00855397
0.000290031
0.00025733
0.000225871
0.000193893
0.00015966
0.000123568
8.6065e-05
4.74529e-05
8.03487e-06
-3.18546e-05
-7.1877e-05
-0.000111707
-0.000151029
-0.000189539
-0.000226943
-0.00026296
-0.000297324
-0.000329793
-0.000360137
-0.000388138
-0.000413599
-0.000436339
-0.000456195
-0.00047302
-0.000486674
-0.000497033
-0.000503987
-0.000507442
-0.000507309
-0.000503508
-0.000495969
-0.000484633
-0.00046945
-0.000450385
-0.000427406
-0.000400485
-0.000369599
-0.000334731
-0.000295878
-0.000253035
-0.000206199
-0.000155372
-0.000100563
-4.17861e-05
2.09397e-05
8.75874e-05
0.000158132
0.000232553
0.000310825
0.00039291
0.000478764
0.000568347
0.000661617
0.000758527
0.000859025
0.00096306
0.00107057
0.00118149
0.00129575
0.00141329
0.00153403
0.00165792
0.00178485
0.00191474
0.0020475
0.00218303
0.00232125
0.00246204
0.00260529
0.0027509
0.00289874
0.00304868
0.00320059
0.00335433
0.00350977
0.00366677
0.00382517
0.00398481
0.00414554
0.00430716
0.00446953
0.00463246
0.00479578
0.00495932
0.00512289
0.00528626
0.00544926
0.00561167
0.0057733
0.00593395
0.00609341
0.00625147
0.00640794
0.00656258
0.00671519
0.00686556
0.00701348
0.00715874
0.00730114
0.00744047
0.00757655
0.00770918
0.00783817
0.00796332
0.00808448
0.00820145
0.00831407
0.00842219
0.00852567
0.00862438
0.00871819
0.00880699
0.00889067
0.00896913
0.00904231
0.00911012
0.00917252
0.00922947
0.00928096
0.00932698
0.00936755
0.0094027
0.00943245
0.00945687
0.00947602
0.00948998
0.00949887
0.00950282
0.00950195
0.00949643
0.00948644
0.00947217
0.00945384
0.00943165
0.00940584
0.00937667
0.00934439
0.00930929
0.00927165
0.00923178
0.00919
0.00914663
0.00910202
0.00905652
0.00901047
0.00896424
0.00891819
0.00887267
0.00882807
0.00878473
0.00874302
0.00870328
0.00866584
0.00863103
0.00859915
0.00857049
0.00854537
0.00852411
0.00850625
0.00849112
0.000352923
0.00031338
0.000276795
0.000240919
0.000203433
0.000164688
0.000125092
8.48938e-05
4.43444e-05
3.71271e-06
-3.67187e-05
-7.66625e-05
-0.000115847
-0.000154008
-0.000190882
-0.000226224
-0.000259801
-0.000291394
-0.000320793
-0.000347805
-0.000372249
-0.000393963
-0.000412799
-0.00042862
-0.000441298
-0.000450721
-0.000456788
-0.000459409
-0.000458499
-0.000453986
-0.000445805
-0.000433899
-0.000418227
-0.000398752
-0.000375443
-0.000348272
-0.000317218
-0.00028227
-0.000243419
-0.00020066
-0.000153988
-0.000103407
-4.89256e-05
9.44095e-06
7.16745e-05
0.000137752
0.000207653
0.000281359
0.000358841
0.000440062
0.00052498
0.000613559
0.000705761
0.000801539
0.000900845
0.00100362
0.00110982
0.00121937
0.00133221
0.00144827
0.0015675
0.00168981
0.00181513
0.00194337
0.00207443
0.00220824
0.00234469
0.00248368
0.00262511
0.00276886
0.00291481
0.00306284
0.00321283
0.00336462
0.0035181
0.00367313
0.00382954
0.00398719
0.00414591
0.00430553
0.00446588
0.0046268
0.00478813
0.00494967
0.00511124
0.00527263
0.00543366
0.00559411
0.0057538
0.00591254
0.00607011
0.00622631
0.00638094
0.00653378
0.00668462
0.00683326
0.00697948
0.00712309
0.00726388
0.00740166
0.00753623
0.0076674
0.00779498
0.00791879
0.00803865
0.00815438
0.00826584
0.00837286
0.0084753
0.00857304
0.00866595
0.00875392
0.00883684
0.00891462
0.00898718
0.00905446
0.0091164
0.00917297
0.00922416
0.00926996
0.00931038
0.00934546
0.00937522
0.00939972
0.00941903
0.00943323
0.00944243
0.00944674
0.00944633
0.00944132
0.00943191
0.00941828
0.00940062
0.00937916
0.00935412
0.00932575
0.0092943
0.00926004
0.00922324
0.00918421
0.00914324
0.00910066
0.00905678
0.00901193
0.00896645
0.00892067
0.00887493
0.00882958
0.00878494
0.00874135
0.00869914
0.00865861
0.00862007
0.0085838
0.00855007
0.00851912
0.00849126
0.00846676
0.00844471
0.00842403
0.000417301
0.000370933
0.000329145
0.000289214
0.000248278
0.000206651
0.00016471
0.000122651
8.06766e-05
3.90094e-05
-2.11762e-06
-4.24663e-05
-8.18005e-05
-0.000119887
-0.0001565
-0.000191429
-0.000224466
-0.000255413
-0.000284086
-0.000310314
-0.000333935
-0.000354806
-0.000372788
-0.000387757
-0.000399599
-0.000408216
-0.000413514
-0.000415405
-0.000413813
-0.000408673
-0.000399923
-0.000387517
-0.000371414
-0.000351579
-0.000327978
-0.000300591
-0.000269399
-0.000234391
-0.000195557
-0.00015289
-0.000106385
-5.60475e-05
-1.88845e-06
5.60773e-05
0.000117834
0.000183364
0.000252649
0.000325668
0.000402392
0.000482784
0.000566807
0.000654429
0.000745612
0.000840313
0.000938482
0.00104007
0.00114501
0.00125326
0.00136475
0.00147942
0.00159721
0.00171804
0.00184184
0.00196852
0.00209799
0.00223016
0.00236496
0.00250227
0.00264199
0.002784
0.0029282
0.00307445
0.00322264
0.00337264
0.0035243
0.0036775
0.00383208
0.00398789
0.00414476
0.00430254
0.00446105
0.00462014
0.00477964
0.00493936
0.00509911
0.00525871
0.00541795
0.00557663
0.00573458
0.00589159
0.00604746
0.006202
0.00635499
0.00650622
0.00665548
0.00680257
0.00694729
0.00708944
0.00722881
0.00736521
0.00749845
0.00762833
0.00775468
0.0078773
0.00799603
0.00811068
0.00822111
0.00832716
0.0084287
0.00852559
0.00861771
0.00870495
0.0087872
0.00886438
0.0089364
0.0090032
0.00906473
0.00912095
0.00917186
0.00921744
0.00925771
0.0092927
0.00932244
0.00934697
0.00936638
0.00938073
0.00939014
0.00939473
0.00939464
0.00939002
0.00938103
0.00936786
0.00935071
0.00932979
0.00930531
0.00927753
0.00924667
0.009213
0.00917679
0.00913832
0.00909789
0.00905579
0.00901234
0.00896784
0.00892261
0.00887697
0.00883123
0.00878571
0.00874073
0.00869658
0.00865356
0.00861195
0.00857203
0.00853404
0.00849821
0.00846475
0.00843395
0.00840607
0.00837972
0.00835343
0.000482345
0.000429217
0.000382207
0.000338132
0.000293594
0.000248905
0.000204422
0.00016028
0.00011664
7.36863e-05
3.16088e-05
-9.39818e-06
-4.91299e-05
-8.73888e-05
-0.000123986
-0.000158734
-0.000191452
-0.000221967
-0.000250117
-0.000275751
-0.000298732
-0.000318927
-0.00033621
-0.000350472
-0.000361616
-0.00036955
-0.000374188
-0.000375451
-0.00037327
-0.000367584
-0.000358342
-0.000345501
-0.000329025
-0.000308877
-0.000285028
-0.000257461
-0.000226161
-0.000191114
-0.000152312
-0.000109746
-6.34135e-05
-1.33206e-05
4.05194e-05
9.80934e-05
0.00015939
0.000224393
0.000293085
0.000365444
0.00044144
0.000521039
0.000604208
0.000690916
0.000781131
0.000874807
0.000971894
0.00107234
0.0011761
0.00128312
0.00139333
0.00150668
0.00162312
0.00174256
0.00186493
0.00199014
0.00211811
0.00224876
0.00238201
0.00251775
0.00265587
0.00279627
0.00293883
0.00308344
0.00322997
0.0033783
0.00352829
0.00367981
0.00383271
0.00398683
0.00414202
0.00429811
0.00445495
0.00461237
0.00477021
0.00492829
0.00508641
0.00524439
0.00540202
0.00555913
0.00571551
0.00587099
0.00602536
0.00617841
0.00632995
0.00647975
0.00662763
0.00677336
0.00691676
0.00705763
0.00719577
0.00733097
0.00746305
0.00759183
0.0077171
0.0078387
0.00795644
0.00807016
0.00817971
0.00828493
0.00838568
0.00848184
0.00857329
0.0086599
0.00874158
0.00881823
0.00888978
0.00895616
0.00901732
0.00907323
0.00912387
0.00916925
0.00920936
0.00924424
0.00927392
0.00929845
0.00931789
0.00933233
0.00934187
0.00934663
0.00934675
0.00934237
0.00933367
0.00932082
0.009304
0.00928343
0.00925932
0.00923191
0.00920143
0.00916812
0.00913225
0.00909409
0.00905393
0.00901206
0.00896875
0.00892432
0.00887906
0.00883326
0.00878722
0.00874125
0.00869563
0.00865064
0.00860654
0.00856359
0.00852204
0.0084821
0.00844398
0.00840783
0.00837395
0.00834257
0.00831188
0.00827999
0.000547328
0.000487532
0.000435322
0.000387058
0.000338822
0.000290935
0.000243749
0.000197347
0.000151846
0.000107395
6.41466e-05
2.22649e-05
-1.80836e-05
-5.67371e-05
-9.35322e-05
-0.000128308
-0.000160909
-0.000191185
-0.000218999
-0.00024422
-0.000266725
-0.000286397
-0.000303129
-0.000316825
-0.000327399
-0.000334765
-0.000338849
-0.000339581
-0.000336899
-0.000330751
-0.000321091
-0.000307881
-0.000291085
-0.000270672
-0.000246619
-0.000218911
-0.000187532
-0.000152468
-0.000113711
-7.12576e-05
-2.51044e-05
2.47399e-05
7.82628e-05
0.000135454
0.000196306
0.000260802
0.000328922
0.000400644
0.000475942
0.000554782
0.000637137
0.000722976
0.000812269
0.00090497
0.00100103
0.0011004
0.00120304
0.00130889
0.0014179
0.00153002
0.00164517
0.0017633
0.00188433
0.00200816
0.00213474
0.00226397
0.00239578
0.00253005
0.0026667
0.0028056
0.00294665
0.00308973
0.00323474
0.00338154
0.00353
0.00367998
0.00383134
0.00398393
0.00413758
0.00429216
0.00444748
0.00460341
0.00475977
0.00491637
0.00507303
0.00522956
0.00538577
0.00554147
0.00569648
0.00585061
0.00600366
0.00615542
0.00630569
0.00645426
0.00660092
0.00674549
0.00688776
0.00702753
0.0071646
0.00729879
0.00742989
0.00755771
0.00768208
0.00780281
0.00791972
0.00803266
0.00814146
0.00824599
0.00834608
0.00844163
0.0085325
0.00861858
0.00869978
0.00877598
0.00884713
0.00891315
0.00897399
0.00902962
0.00908003
0.0091252
0.00916516
0.00919992
0.00922951
0.00925399
0.00927341
0.00928787
0.00929746
0.00930231
0.00930253
0.00929828
0.00928972
0.00927703
0.00926039
0.00924001
0.00921608
0.00918885
0.00915852
0.00912536
0.00908961
0.00905153
0.00901139
0.00896948
0.00892606
0.00888143
0.00883586
0.00878964
0.00874305
0.00869636
0.00864984
0.00860375
0.00855833
0.00851382
0.00847042
0.00842834
0.00838775
0.00834877
0.0083117
0.00827677
0.00824172
0.00820431
0.000611609
0.000545257
0.000487883
0.000435421
0.000383438
0.000332256
0.00028224
0.000233436
0.000185912
0.000139788
9.51889e-05
5.2243e-05
1.10817e-05
-2.8159e-05
-6.5341e-05
-0.000100329
-0.000132994
-0.00016321
-0.00019086
-0.00021583
-0.000238012
-0.000257306
-0.000273625
-0.000286885
-0.000297008
-0.000303917
-0.000307548
-0.000307842
-0.000304745
-0.000298215
-0.000288209
-0.000274691
-0.000257629
-0.000237001
-0.000212787
-0.000184974
-0.000153544
-0.000118486
-7.97936e-05
-3.7464e-05
8.50143e-06
5.80932e-05
0.000111301
0.000168119
0.000228539
0.000292543
0.00036011
0.00043122
0.000505848
0.000583965
0.000665543
0.000750557
0.000838973
0.000930747
0.00102583
0.00112418
0.00122576
0.00133052
0.0014384
0.00154935
0.00166331
0.00178021
0.00189998
0.00202254
0.00214781
0.00227572
0.00240619
0.00253912
0.00267439
0.00281191
0.00295157
0.00309326
0.00323688
0.00338228
0.00352934
0.00367793
0.00382789
0.00397909
0.00413137
0.00428458
0.00443856
0.00459315
0.00474818
0.00490348
0.00505885
0.00521411
0.00536908
0.00552356
0.00567737
0.00583033
0.00598224
0.00613289
0.00628207
0.00642959
0.00657523
0.00671881
0.00686013
0.00699898
0.00713517
0.0072685
0.00739878
0.00752583
0.00764945
0.00776946
0.0078857
0.007998
0.0081062
0.00821016
0.00830972
0.00840477
0.00849518
0.00858083
0.00866163
0.00873747
0.00880828
0.008874
0.00893457
0.00898996
0.00904015
0.00908515
0.00912495
0.00915958
0.00918906
0.00921345
0.00923281
0.00924722
0.00925679
0.00926162
0.00926185
0.00925762
0.00924908
0.00923641
0.0092198
0.00919944
0.00917553
0.00914828
0.00911792
0.00908469
0.00904884
0.00901062
0.00897028
0.00892809
0.00888432
0.00883925
0.00879313
0.00874624
0.00869884
0.00865119
0.00860354
0.00855612
0.00850917
0.00846288
0.00841746
0.00837307
0.00832987
0.00828796
0.00824762