/*--------------------------------*- C++ -*----------------------------------*\
  =========                 |
  \\      /  F ield         | OpenFOAM: The Open Source CFD Toolbox
   \\    /   O peration     | Website:  https://openfoam.org
    \\  /    A nd           | Version:  7
     \\/     M anipulation  |
\*---------------------------------------------------------------------------*/
FoamFile
{
    version     2.0;
    format      ascii;
    class       volVectorField;
    location    "0.225";
    object      U;
}
// * * * * * * * * * * * * * * * * * * * * * * * * * * * * * * * * * * * * * //

dimensions      [0 1 -1 0 0 0 0];

internalField   nonuniform List<vector> 
25600
(
(2.03993e-07 -6.48353e-07 0)
(2.81971e-06 -1.80165e-06 0)
(7.17942e-06 -2.07172e-06 0)
(1.20543e-05 -2.00469e-06 0)
(1.60442e-05 -1.65916e-06 0)
(1.87416e-05 -1.15494e-06 0)
(1.97769e-05 -5.65361e-07 0)
(1.89354e-05 6.52584e-08 0)
(1.61059e-05 7.09973e-07 0)
(1.1244e-05 1.35059e-06 0)
(4.35317e-06 1.97753e-06 0)
(-4.53253e-06 2.58345e-06 0)
(-1.53585e-05 3.16355e-06 0)
(-2.80535e-05 3.71596e-06 0)
(-4.25379e-05 4.23872e-06 0)
(-5.87253e-05 4.73002e-06 0)
(-7.65243e-05 5.19094e-06 0)
(-9.58429e-05 5.62268e-06 0)
(-0.000116588 6.02626e-06 0)
(-0.000138667 6.40226e-06 0)
(-0.000161988 6.74997e-06 0)
(-0.000186462 7.06971e-06 0)
(-0.000211998 7.36261e-06 0)
(-0.000238513 7.62973e-06 0)
(-0.000265923 7.87269e-06 0)
(-0.000294148 8.09275e-06 0)
(-0.00032311 8.29072e-06 0)
(-0.000352734 8.46735e-06 0)
(-0.000382949 8.62338e-06 0)
(-0.000413685 8.7598e-06 0)
(-0.000444876 8.87748e-06 0)
(-0.000476458 8.97727e-06 0)
(-0.00050837 9.0602e-06 0)
(-0.000540554 9.12693e-06 0)
(-0.000572954 9.17798e-06 0)
(-0.000605516 9.21437e-06 0)
(-0.000638189 9.23683e-06 0)
(-0.000670923 9.24583e-06 0)
(-0.00070367 9.24173e-06 0)
(-0.000736386 9.22496e-06 0)
(-0.000769026 9.19617e-06 0)
(-0.000801547 9.15592e-06 0)
(-0.000833909 9.1046e-06 0)
(-0.000866072 9.04244e-06 0)
(-0.000897997 8.9698e-06 0)
(-0.000929646 8.88706e-06 0)
(-0.000960985 8.79441e-06 0)
(-0.000991977 8.69199e-06 0)
(-0.00102259 8.58023e-06 0)
(-0.00105278 8.45942e-06 0)
(-0.00108253 8.32945e-06 0)
(-0.0011118 8.19025e-06 0)
(-0.00114055 8.04204e-06 0)
(-0.00116876 7.88537e-06 0)
(-0.00119639 7.72047e-06 0)
(-0.00122342 7.54706e-06 0)
(-0.0012498 7.36487e-06 0)
(-0.00127552 7.17393e-06 0)
(-0.00130054 6.97454e-06 0)
(-0.00132483 6.76695e-06 0)
(-0.00134837 6.55109e-06 0)
(-0.00137111 6.32674e-06 0)
(-0.00139304 6.09385e-06 0)
(-0.00141412 5.85267e-06 0)
(-0.00143432 5.60345e-06 0)
(-0.00145362 5.34618e-06 0)
(-0.00147199 5.08083e-06 0)
(-0.00148939 4.80739e-06 0)
(-0.00150581 4.52582e-06 0)
(-0.0015212 4.23622e-06 0)
(-0.00153555 3.93874e-06 0)
(-0.00154883 3.63375e-06 0)
(-0.00156101 3.32154e-06 0)
(-0.00157207 3.00205e-06 0)
(-0.00158198 2.67526e-06 0)
(-0.00159072 2.34137e-06 0)
(-0.00159826 2.0008e-06 0)
(-0.00160459 1.65398e-06 0)
(-0.00160967 1.30118e-06 0)
(-0.0016135 9.42595e-07 0)
(-0.00161605 5.78661e-07 0)
(-0.00161731 2.09833e-07 0)
(-0.00161725 -1.63497e-07 0)
(-0.00161587 -5.40896e-07 0)
(-0.00161316 -9.21941e-07 0)
(-0.0016091 -1.30611e-06 0)
(-0.00160368 -1.69271e-06 0)
(-0.0015969 -2.08111e-06 0)
(-0.00158875 -2.47072e-06 0)
(-0.00157923 -2.86084e-06 0)
(-0.00156834 -3.2509e-06 0)
(-0.00155608 -3.64035e-06 0)
(-0.00154246 -4.02839e-06 0)
(-0.00152748 -4.41403e-06 0)
(-0.00151116 -4.79637e-06 0)
(-0.00149351 -5.17471e-06 0)
(-0.00147454 -5.54843e-06 0)
(-0.00145428 -5.91684e-06 0)
(-0.00143274 -6.27887e-06 0)
(-0.00140994 -6.63334e-06 0)
(-0.00138593 -6.97932e-06 0)
(-0.00136072 -7.316e-06 0)
(-0.00133436 -7.64255e-06 0)
(-0.00130688 -7.95812e-06 0)
(-0.00127832 -8.26187e-06 0)
(-0.00124872 -8.55278e-06 0)
(-0.00121813 -8.82983e-06 0)
(-0.0011866 -9.0921e-06 0)
(-0.00115419 -9.33876e-06 0)
(-0.00112095 -9.56898e-06 0)
(-0.00108693 -9.78197e-06 0)
(-0.00105221 -9.97693e-06 0)
(-0.00101684 -1.01531e-05 0)
(-0.000980888 -1.03096e-05 0)
(-0.000944428 -1.04458e-05 0)
(-0.00090753 -1.05611e-05 0)
(-0.000870268 -1.06547e-05 0)
(-0.000832719 -1.0726e-05 0)
(-0.000794959 -1.07746e-05 0)
(-0.00075707 -1.07999e-05 0)
(-0.000719133 -1.08014e-05 0)
(-0.00068123 -1.07787e-05 0)
(-0.000643446 -1.07314e-05 0)
(-0.000605866 -1.06593e-05 0)
(-0.000568576 -1.05621e-05 0)
(-0.000531664 -1.04394e-05 0)
(-0.000495217 -1.02913e-05 0)
(-0.000459322 -1.01176e-05 0)
(-0.000424067 -9.91832e-06 0)
(-0.00038954 -9.69364e-06 0)
(-0.000355828 -9.44359e-06 0)
(-0.000323018 -9.1683e-06 0)
(-0.000291194 -8.86809e-06 0)
(-0.000260441 -8.54337e-06 0)
(-0.000230841 -8.19451e-06 0)
(-0.000202477 -7.82183e-06 0)
(-0.000175426 -7.42582e-06 0)
(-0.000149767 -7.00723e-06 0)
(-0.000125572 -6.56679e-06 0)
(-0.000102915 -6.10514e-06 0)
(-8.1862e-05 -5.62303e-06 0)
(-6.2478e-05 -5.12148e-06 0)
(-4.48227e-05 -4.60167e-06 0)
(-2.89505e-05 -4.06487e-06 0)
(-1.49099e-05 -3.51272e-06 0)
(-2.74146e-06 -2.94744e-06 0)
(7.52274e-06 -2.3715e-06 0)
(1.58611e-05 -1.78763e-06 0)
(2.22654e-05 -1.19945e-06 0)
(2.67442e-05 -6.12111e-07 0)
(2.93276e-05 -3.27703e-08 0)
(3.00737e-05 5.28887e-07 0)
(2.90781e-05 1.05924e-06 0)
(2.6488e-05 1.53777e-06 0)
(2.2524e-05 1.93258e-06 0)
(1.75094e-05 2.19464e-06 0)
(1.1908e-05 2.2491e-06 0)
(6.38953e-06 1.98164e-06 0)
(2.00447e-06 1.24624e-06 0)
(1.28631e-07 1.29157e-07 0)
(1.24385e-06 -2.69664e-06 0)
(6.58833e-06 -7.21232e-06 0)
(1.51209e-05 -8.52997e-06 0)
(2.35975e-05 -7.93492e-06 0)
(2.99636e-05 -5.96042e-06 0)
(3.29795e-05 -3.09169e-06 0)
(3.17497e-05 3.36427e-07 0)
(2.568e-05 4.0891e-06 0)
(1.44112e-05 8.00497e-06 0)
(-2.23772e-06 1.19728e-05 0)
(-2.4322e-05 1.59158e-05 0)
(-5.1806e-05 1.97795e-05 0)
(-8.45833e-05 2.35268e-05 0)
(-0.000122502 2.71322e-05 0)
(-0.000165374 3.05779e-05 0)
(-0.000212987 3.38523e-05 0)
(-0.000265113 3.69483e-05 0)
(-0.000321512 3.98631e-05 0)
(-0.000381941 4.25968e-05 0)
(-0.00044615 4.51504e-05 0)
(-0.000513894 4.75256e-05 0)
(-0.000584925 4.97255e-05 0)
(-0.000659002 5.17539e-05 0)
(-0.000735888 5.36151e-05 0)
(-0.000815353 5.53149e-05 0)
(-0.00089717 5.68587e-05 0)
(-0.000981121 5.82515e-05 0)
(-0.001067 5.94992e-05 0)
(-0.00115459 6.06072e-05 0)
(-0.0012437 6.15804e-05 0)
(-0.00133415 6.24247e-05 0)
(-0.00142574 6.31453e-05 0)
(-0.00151831 6.37468e-05 0)
(-0.00161169 6.42345e-05 0)
(-0.0017057 6.4613e-05 0)
(-0.0018002 6.48869e-05 0)
(-0.00189504 6.50602e-05 0)
(-0.00199007 6.51371e-05 0)
(-0.00208515 6.51211e-05 0)
(-0.00218015 6.50153e-05 0)
(-0.00227494 6.48233e-05 0)
(-0.00236939 6.45481e-05 0)
(-0.00246338 6.41923e-05 0)
(-0.00255681 6.37585e-05 0)
(-0.00264954 6.3249e-05 0)
(-0.00274148 6.26661e-05 0)
(-0.00283251 6.20115e-05 0)
(-0.00292254 6.1287e-05 0)
(-0.00301145 6.04943e-05 0)
(-0.00309915 5.96347e-05 0)
(-0.00318555 5.87094e-05 0)
(-0.00327053 5.77194e-05 0)
(-0.00335402 5.66656e-05 0)
(-0.00343591 5.55488e-05 0)
(-0.00351612 5.43701e-05 0)
(-0.00359455 5.313e-05 0)
(-0.00367111 5.18289e-05 0)
(-0.00374572 5.04672e-05 0)
(-0.00381828 4.90451e-05 0)
(-0.00388871 4.75635e-05 0)
(-0.00395692 4.60226e-05 0)
(-0.00402283 4.44228e-05 0)
(-0.00408634 4.27644e-05 0)
(-0.00414737 4.10478e-05 0)
(-0.00420585 3.92736e-05 0)
(-0.00426168 3.74421e-05 0)
(-0.00431478 3.5554e-05 0)
(-0.00436507 3.36102e-05 0)
(-0.00441248 3.16112e-05 0)
(-0.00445691 2.95577e-05 0)
(-0.0044983 2.74503e-05 0)
(-0.00453657 2.52903e-05 0)
(-0.00457164 2.30795e-05 0)
(-0.00460344 2.08191e-05 0)
(-0.0046319 1.85101e-05 0)
(-0.00465695 1.61544e-05 0)
(-0.00467852 1.37536e-05 0)
(-0.00469656 1.13101e-05 0)
(-0.00471101 8.82617e-06 0)
(-0.0047218 6.30414e-06 0)
(-0.0047289 3.74673e-06 0)
(-0.00473224 1.15689e-06 0)
(-0.00473178 -1.4625e-06 0)
(-0.0047275 -4.10822e-06 0)
(-0.00471934 -6.77676e-06 0)
(-0.00470729 -9.46441e-06 0)
(-0.00469132 -1.21672e-05 0)
(-0.00467141 -1.48809e-05 0)
(-0.00464755 -1.76013e-05 0)
(-0.00461974 -2.03237e-05 0)
(-0.00458798 -2.30433e-05 0)
(-0.00455227 -2.57555e-05 0)
(-0.00451264 -2.84553e-05 0)
(-0.00446911 -3.11373e-05 0)
(-0.0044217 -3.37957e-05 0)
(-0.00437046 -3.64251e-05 0)
(-0.00431544 -3.90199e-05 0)
(-0.00425668 -4.15743e-05 0)
(-0.00419427 -4.40823e-05 0)
(-0.00412825 -4.65376e-05 0)
(-0.00405873 -4.89337e-05 0)
(-0.00398579 -5.12649e-05 0)
(-0.00390952 -5.35249e-05 0)
(-0.00383005 -5.57075e-05 0)
(-0.00374748 -5.78066e-05 0)
(-0.00366193 -5.9816e-05 0)
(-0.00357356 -6.17294e-05 0)
(-0.00348249 -6.35407e-05 0)
(-0.00338888 -6.52441e-05 0)
(-0.00329289 -6.68336e-05 0)
(-0.00319469 -6.83037e-05 0)
(-0.00309445 -6.9649e-05 0)
(-0.00299237 -7.08643e-05 0)
(-0.00288863 -7.19445e-05 0)
(-0.00278342 -7.28847e-05 0)
(-0.00267697 -7.36802e-05 0)
(-0.00256947 -7.43267e-05 0)
(-0.00246114 -7.48202e-05 0)
(-0.00235221 -7.51571e-05 0)
(-0.00224291 -7.53339e-05 0)
(-0.00213347 -7.53477e-05 0)
(-0.00202412 -7.51956e-05 0)
(-0.0019151 -7.48754e-05 0)
(-0.00180667 -7.43851e-05 0)
(-0.00169906 -7.37233e-05 0)
(-0.00159252 -7.28886e-05 0)
(-0.00148729 -7.18805e-05 0)
(-0.00138364 -7.06985e-05 0)
(-0.0012818 -6.93429e-05 0)
(-0.00118203 -6.78146e-05 0)
(-0.00108457 -6.61147e-05 0)
(-0.000989661 -6.42447e-05 0)
(-0.00089755 -6.22068e-05 0)
(-0.000808473 -6.00037e-05 0)
(-0.000722661 -5.76385e-05 0)
(-0.000640344 -5.51148e-05 0)
(-0.000561741 -5.24368e-05 0)
(-0.000487067 -4.96097e-05 0)
(-0.000416528 -4.66391e-05 0)
(-0.000350319 -4.35314e-05 0)
(-0.000288627 -4.02939e-05 0)
(-0.000231623 -3.69351e-05 0)
(-0.000179466 -3.3465e-05 0)
(-0.000132297 -2.98953e-05 0)
(-9.02374e-05 -2.62397e-05 0)
(-5.33848e-05 -2.25148e-05 0)
(-2.18093e-05 -1.87407e-05 0)
(4.45277e-06 -1.49418e-05 0)
(2.54063e-05 -1.1148e-05 0)
(4.11075e-05 -7.39798e-06 0)
(5.16762e-05 -3.74207e-06 0)
(5.73127e-05 -2.46332e-07 0)
(5.83203e-05 3.00153e-06 0)
(5.5136e-05 5.88261e-06 0)
(4.837e-05 8.23211e-06 0)
(3.88552e-05 9.82323e-06 0)
(2.76872e-05 1.03513e-05 0)
(1.62711e-05 9.41908e-06 0)
(6.59486e-06 6.59518e-06 0)
(1.24564e-06 2.00343e-06 0)
(1.95392e-06 -7.0758e-06 0)
(8.44e-06 -1.54517e-05 0)
(1.76846e-05 -1.77568e-05 0)
(2.59712e-05 -1.55476e-05 0)
(3.06903e-05 -1.01005e-05 0)
(3.01755e-05 -2.40539e-06 0)
(2.3197e-05 6.78338e-06 0)
(8.88724e-06 1.69058e-05 0)
(-1.33076e-05 2.75516e-05 0)
(-4.37022e-05 3.84223e-05 0)
(-8.24263e-05 4.92992e-05 0)
(-0.000129467 6.00257e-05 0)
(-0.000184705 7.0487e-05 0)
(-0.000247944 8.06011e-05 0)
(-0.000318925 9.03113e-05 0)
(-0.000397345 9.95767e-05 0)
(-0.000482873 0.00010837 0)
(-0.000575155 0.000116677 0)
(-0.000673822 0.000124488 0)
(-0.0007785 0.000131802 0)
(-0.000888811 0.000138622 0)
(-0.00100437 0.000144953 0)
(-0.00112482 0.000150805 0)
(-0.00124977 0.000156187 0)
(-0.00137886 0.000161113 0)
(-0.00151175 0.000165595 0)
(-0.00164809 0.000169647 0)
(-0.00178753 0.000173283 0)
(-0.00192977 0.000176517 0)
(-0.00207447 0.000179366 0)
(-0.00222134 0.000181841 0)
(-0.00237008 0.000183959 0)
(-0.00252042 0.000185732 0)
(-0.00267207 0.000187175 0)
(-0.00282477 0.000188299 0)
(-0.00297828 0.000189117 0)
(-0.00313235 0.000189642 0)
(-0.00328674 0.000189883 0)
(-0.00344122 0.000189852 0)
(-0.00359558 0.000189558 0)
(-0.00374961 0.000189011 0)
(-0.0039031 0.000188218 0)
(-0.00405585 0.000187188 0)
(-0.00420767 0.000185929 0)
(-0.00435838 0.000184446 0)
(-0.00450779 0.000182746 0)
(-0.00465573 0.000180835 0)
(-0.00480203 0.000178717 0)
(-0.00494651 0.000176398 0)
(-0.00508902 0.000173882 0)
(-0.00522939 0.000171171 0)
(-0.00536747 0.000168271 0)
(-0.00550309 0.000165182 0)
(-0.00563611 0.000161908 0)
(-0.00576638 0.000158451 0)
(-0.00589374 0.000154814 0)
(-0.00601805 0.000150997 0)
(-0.00613916 0.000147003 0)
(-0.00625693 0.000142833 0)
(-0.00637121 0.000138488 0)
(-0.00648187 0.00013397 0)
(-0.00658875 0.00012928 0)
(-0.00669174 0.000124419 0)
(-0.00679067 0.00011939 0)
(-0.00688543 0.000114193 0)
(-0.00697587 0.000108829 0)
(-0.00706185 0.000103302 0)
(-0.00714326 9.76122e-05 0)
(-0.00721996 9.17634e-05 0)
(-0.00729181 8.57575e-05 0)
(-0.00735871 7.95975e-05 0)
(-0.00742051 7.32864e-05 0)
(-0.00747711 6.68282e-05 0)
(-0.00752839 6.02271e-05 0)
(-0.00757423 5.34874e-05 0)
(-0.00761454 4.66144e-05 0)
(-0.00764919 3.96136e-05 0)
(-0.00767811 3.24909e-05 0)
(-0.00770118 2.52531e-05 0)
(-0.00771832 1.79075e-05 0)
(-0.00772946 1.04617e-05 0)
(-0.00773451 2.92428e-06 0)
(-0.00773341 -4.69597e-06 0)
(-0.0077261 -1.23896e-05 0)
(-0.00771252 -2.01463e-05 0)
(-0.00769263 -2.79554e-05 0)
(-0.0076664 -3.58054e-05 0)
(-0.0076338 -4.36844e-05 0)
(-0.0075948 -5.15798e-05 0)
(-0.00754942 -5.94785e-05 0)
(-0.00749765 -6.73666e-05 0)
(-0.00743951 -7.523e-05 0)
(-0.00737503 -8.30542e-05 0)
(-0.00730424 -9.08241e-05 0)
(-0.00722721 -9.85239e-05 0)
(-0.00714399 -0.000106137 0)
(-0.00705466 -0.000113648 0)
(-0.00695932 -0.000121039 0)
(-0.00685808 -0.000128293 0)
(-0.00675104 -0.000135393 0)
(-0.00663835 -0.000142321 0)
(-0.00652014 -0.000149059 0)
(-0.00639659 -0.00015559 0)
(-0.00626786 -0.000161897 0)
(-0.00613416 -0.00016796 0)
(-0.00599567 -0.000173763 0)
(-0.00585262 -0.000179288 0)
(-0.00570524 -0.000184518 0)
(-0.00555377 -0.000189436 0)
(-0.00539847 -0.000194024 0)
(-0.00523962 -0.000198268 0)
(-0.00507749 -0.000202151 0)
(-0.00491239 -0.000205659 0)
(-0.00474462 -0.000208777 0)
(-0.0045745 -0.000211491 0)
(-0.00440236 -0.000213788 0)
(-0.00422854 -0.000215656 0)
(-0.00405339 -0.000217083 0)
(-0.00387726 -0.000218059 0)
(-0.00370053 -0.000218575 0)
(-0.00352356 -0.000218621 0)
(-0.00334674 -0.000218191 0)
(-0.00317044 -0.000217277 0)
(-0.00299507 -0.000215875 0)
(-0.002821 -0.00021398 0)
(-0.00264863 -0.000211589 0)
(-0.00247837 -0.000208702 0)
(-0.0023106 -0.000205316 0)
(-0.00214573 -0.000201434 0)
(-0.00198414 -0.000197058 0)
(-0.00182624 -0.000192191 0)
(-0.00167241 -0.000186839 0)
(-0.00152302 -0.000181008 0)
(-0.00137847 -0.000174706 0)
(-0.00123911 -0.000167944 0)
(-0.0011053 -0.000160732 0)
(-0.000977401 -0.000153084 0)
(-0.000855739 -0.000145016 0)
(-0.000740638 -0.000136546 0)
(-0.000632403 -0.000127693 0)
(-0.000531319 -0.000118481 0)
(-0.00043765 -0.000108936 0)
(-0.000351636 -9.90912e-05 0)
(-0.000273487 -8.89814e-05 0)
(-0.000203378 -7.865e-05 0)
(-0.000141446 -6.8148e-05 0)
(-8.7781e-05 -5.75367e-05 0)
(-4.24157e-05 -4.68903e-05 0)
(-5.31667e-06 -3.62999e-05 0)
(2.36316e-05 -2.58791e-05 0)
(4.46442e-05 -1.57717e-05 0)
(5.80593e-05 -6.1609e-06 0)
(6.43661e-05 2.71774e-06 0)
(6.42397e-05 1.05586e-05 0)
(5.85858e-05 1.69645e-05 0)
(4.85893e-05 2.14243e-05 0)
(3.57366e-05 2.32992e-05 0)
(2.18375e-05 2.18338e-05 0)
(9.41542e-06 1.62698e-05 0)
(1.97898e-06 6.38554e-06 0)
(1.98031e-06 -1.17315e-05 0)
(8.0156e-06 -2.38545e-05 0)
(1.57119e-05 -2.603e-05 0)
(2.10307e-05 -2.08001e-05 0)
(2.11476e-05 -1.01362e-05 0)
(1.41787e-05 4.41593e-06 0)
(-1.29913e-06 2.1643e-05 0)
(-2.63131e-05 4.06108e-05 0)
(-6.15523e-05 6.06094e-05 0)
(-0.000107428 8.11011e-05 0)
(-0.000164133 0.000101684 0)
(-0.000231684 0.000122057 0)
(-0.000309964 0.000141995 0)
(-0.000398747 0.000161334 0)
(-0.000497729 0.000179955 0)
(-0.000606546 0.000197771 0)
(-0.000724785 0.000214725 0)
(-0.000852002 0.000230776 0)
(-0.000987731 0.000245902 0)
(-0.00113149 0.000260093 0)
(-0.00128279 0.00027335 0)
(-0.00144115 0.000285677 0)
(-0.00160606 0.00029709 0)
(-0.00177706 0.000307603 0)
(-0.00195365 0.000317238 0)
(-0.00213536 0.000326018 0)
(-0.00232175 0.000333966 0)
(-0.00251236 0.000341109 0)
(-0.00270675 0.000347472 0)
(-0.00290451 0.000353082 0)
(-0.00310522 0.000357966 0)
(-0.00330849 0.00036215 0)
(-0.00351393 0.000365659 0)
(-0.00372118 0.000368519 0)
(-0.00392988 0.000370753 0)
(-0.00413969 0.000372387 0)
(-0.00435026 0.00037344 0)
(-0.00456129 0.000373935 0)
(-0.00477245 0.000373891 0)
(-0.00498345 0.000373328 0)
(-0.005194 0.000372263 0)
(-0.00540382 0.000370713 0)
(-0.00561263 0.000368692 0)
(-0.00582018 0.000366215 0)
(-0.0060262 0.000363296 0)
(-0.00623045 0.000359946 0)
(-0.00643268 0.000356176 0)
(-0.00663266 0.000351997 0)
(-0.00683015 0.000347417 0)
(-0.00702493 0.000342445 0)
(-0.00721678 0.000337088 0)
(-0.00740547 0.000331353 0)
(-0.0075908 0.000325245 0)
(-0.00777254 0.000318771 0)
(-0.0079505 0.000311934 0)
(-0.00812447 0.000304739 0)
(-0.00829425 0.000297189 0)
(-0.00845963 0.000289289 0)
(-0.00862042 0.000281041 0)
(-0.00877642 0.000272448 0)
(-0.00892744 0.000263514 0)
(-0.00907328 0.00025424 0)
(-0.00921375 0.000244632 0)
(-0.00934867 0.000234691 0)
(-0.00947786 0.000224421 0)
(-0.00960111 0.000213825 0)
(-0.00971827 0.000202907 0)
(-0.00982914 0.000191672 0)
(-0.00993355 0.000180124 0)
(-0.0100313 0.00016827 0)
(-0.0101223 0.000156115 0)
(-0.0102063 0.000143667 0)
(-0.0102832 0.000130931 0)
(-0.0103528 0.000117918 0)
(-0.010415 0.000104635 0)
(-0.0104695 9.10937e-05 0)
(-0.0105164 7.73047e-05 0)
(-0.0105554 6.32803e-05 0)
(-0.0105865 4.90335e-05 0)
(-0.0106094 3.45788e-05 0)
(-0.0106242 1.99315e-05 0)
(-0.0106306 5.10813e-06 0)
(-0.0106286 -9.87371e-06 0)
(-0.0106182 -2.49951e-05 0)
(-0.0105993 -4.02361e-05 0)
(-0.0105717 -5.55755e-05 0)
(-0.0105355 -7.09909e-05 0)
(-0.0104906 -8.6459e-05 0)
(-0.010437 -0.000101955 0)
(-0.0103748 -0.000117453 0)
(-0.0103038 -0.000132927 0)
(-0.0102242 -0.000148349 0)
(-0.010136 -0.000163689 0)
(-0.0100392 -0.000178919 0)
(-0.00993387 -0.000194008 0)
(-0.00982017 -0.000208924 0)
(-0.00969819 -0.000223636 0)
(-0.00956805 -0.00023811 0)
(-0.00942988 -0.000252313 0)
(-0.00928386 -0.000266211 0)
(-0.00913017 -0.000279771 0)
(-0.00896901 -0.000292957 0)
(-0.00880059 -0.000305736 0)
(-0.00862516 -0.000318073 0)
(-0.00844298 -0.000329933 0)
(-0.00825432 -0.000341282 0)
(-0.00805947 -0.000352087 0)
(-0.00785876 -0.000362313 0)
(-0.00765251 -0.000371928 0)
(-0.00744108 -0.0003809 0)
(-0.00722482 -0.000389198 0)
(-0.00700414 -0.000396791 0)
(-0.00677941 -0.00040365 0)
(-0.00655108 -0.000409747 0)
(-0.00631955 -0.000415055 0)
(-0.00608529 -0.00041955 0)
(-0.00584874 -0.000423207 0)
(-0.00561039 -0.000426004 0)
(-0.00537071 -0.000427922 0)
(-0.00513019 -0.000428941 0)
(-0.00488934 -0.000429047 0)
(-0.00464867 -0.000428223 0)
(-0.00440869 -0.000426458 0)
(-0.00416994 -0.000423743 0)
(-0.00393293 -0.000420068 0)
(-0.0036982 -0.00041543 0)
(-0.00346629 -0.000409825 0)
(-0.00323772 -0.000403253 0)
(-0.00301302 -0.000395717 0)
(-0.00279274 -0.000387222 0)
(-0.00257738 -0.000377776 0)
(-0.00236748 -0.000367389 0)
(-0.00216353 -0.000356075 0)
(-0.00196605 -0.000343852 0)
(-0.00177553 -0.000330739 0)
(-0.00159244 -0.00031676 0)
(-0.00141725 -0.000301943 0)
(-0.00125039 -0.00028632 0)
(-0.0010923 -0.000269928 0)
(-0.000943366 -0.000252808 0)
(-0.000803967 -0.000235008 0)
(-0.000674442 -0.000216585 0)
(-0.000555099 -0.000197601 0)
(-0.0004462 -0.000178132 0)
(-0.000347963 -0.000158265 0)
(-0.00026055 -0.000138103 0)
(-0.00018406 -0.000117769 0)
(-0.000118513 -9.74095e-05 0)
(-6.38411e-05 -7.72048e-05 0)
(-1.98698e-05 -5.73744e-05 0)
(1.3703e-05 -3.81902e-05 0)
(3.73325e-05 -1.99913e-05 0)
(5.16559e-05 -3.20285e-06 0)
(5.75273e-05 1.16406e-05 0)
(5.60586e-05 2.38696e-05 0)
(4.86631e-05 3.26546e-05 0)
(3.70683e-05 3.69948e-05 0)
(2.33373e-05 3.57392e-05 0)
(1.03516e-05 2.76913e-05 0)
(2.24316e-06 1.18982e-05 0)
(1.67639e-06 -1.58749e-05 0)
(6.12609e-06 -3.03326e-05 0)
(1.04001e-05 -3.08484e-05 0)
(1.05594e-05 -2.09483e-05 0)
(3.75737e-06 -3.29604e-06 0)
(-1.1985e-05 2.00032e-05 0)
(-3.81749e-05 4.72745e-05 0)
(-7.59242e-05 7.71995e-05 0)
(-0.000125994 0.00010875 0)
(-0.000188856 0.000141129 0)
(-0.000264743 0.000173725 0)
(-0.000353697 0.000206068 0)
(-0.0004556 0.000237802 0)
(-0.000570213 0.000268658 0)
(-0.000697196 0.000298436 0)
(-0.000836135 0.000326989 0)
(-0.00098656 0.000354215 0)
(-0.00114795 0.000380043 0)
(-0.00131977 0.000404426 0)
(-0.00150145 0.000427341 0)
(-0.0016924 0.00044878 0)
(-0.00189203 0.000468747 0)
(-0.00209977 0.000487257 0)
(-0.00231502 0.000504332 0)
(-0.0025372 0.00052 0)
(-0.00276574 0.000534294 0)
(-0.00300008 0.00054725 0)
(-0.00323967 0.000558907 0)
(-0.00348398 0.000569303 0)
(-0.00373249 0.000578479 0)
(-0.00398468 0.000586477 0)
(-0.00424007 0.000593336 0)
(-0.00449819 0.000599096 0)
(-0.00475857 0.000603798 0)
(-0.00502077 0.000607478 0)
(-0.00528436 0.000610174 0)
(-0.00554892 0.00061192 0)
(-0.00581404 0.000612751 0)
(-0.00607935 0.000612697 0)
(-0.00634445 0.00061179 0)
(-0.00660899 0.000610058 0)
(-0.00687261 0.000607526 0)
(-0.00713497 0.000604221 0)
(-0.00739574 0.000600164 0)
(-0.00765458 0.000595377 0)
(-0.00791119 0.000589881 0)
(-0.00816526 0.000583692 0)
(-0.00841649 0.000576828 0)
(-0.00866458 0.000569302 0)
(-0.00890925 0.00056113 0)
(-0.00915022 0.000552323 0)
(-0.00938721 0.000542892 0)
(-0.00961995 0.000532847 0)
(-0.00984817 0.000522198 0)
(-0.0100716 0.000510951 0)
(-0.01029 0.000499115 0)
(-0.0105031 0.000486696 0)
(-0.0107107 0.000473701 0)
(-0.0109124 0.000460134 0)
(-0.0111081 0.000446002 0)
(-0.0112976 0.00043131 0)
(-0.0114805 0.000416062 0)
(-0.0116566 0.000400265 0)
(-0.0118257 0.000383924 0)
(-0.0119876 0.000367044 0)
(-0.012142 0.000349633 0)
(-0.0122887 0.000331698 0)
(-0.0124275 0.000313245 0)
(-0.0125582 0.000294283 0)
(-0.0126805 0.000274822 0)
(-0.0127942 0.000254872 0)
(-0.0128992 0.000234445 0)
(-0.0129952 0.000213554 0)
(-0.0130821 0.000192211 0)
(-0.0131596 0.000170433 0)
(-0.0132276 0.000148237 0)
(-0.0132859 0.000125641 0)
(-0.0133343 0.000102665 0)
(-0.0133727 7.93314e-05 0)
(-0.013401 5.56636e-05 0)
(-0.0134189 3.16868e-05 0)
(-0.0134265 7.42823e-06 0)
(-0.0134235 -1.70832e-05 0)
(-0.0134099 -4.18165e-05 0)
(-0.0133856 -6.67389e-05 0)
(-0.0133506 -9.1816e-05 0)
(-0.0133047 -0.000117011 0)
(-0.013248 -0.000142286 0)
(-0.0131804 -0.000167601 0)
(-0.0131019 -0.000192913 0)
(-0.0130125 -0.00021818 0)
(-0.0129123 -0.000243355 0)
(-0.0128014 -0.000268393 0)
(-0.0126797 -0.000293245 0)
(-0.0125475 -0.000317861 0)
(-0.0124047 -0.000342191 0)
(-0.0122516 -0.000366183 0)
(-0.0120883 -0.000389782 0)
(-0.011915 -0.000412936 0)
(-0.0117319 -0.00043559 0)
(-0.0115393 -0.000457688 0)
(-0.0113373 -0.000479174 0)
(-0.0111263 -0.000499994 0)
(-0.0109065 -0.000520091 0)
(-0.0106783 -0.000539409 0)
(-0.010442 -0.000557894 0)
(-0.0101981 -0.00057549 0)
(-0.00994677 -0.000592143 0)
(-0.00968858 -0.000607801 0)
(-0.00942393 -0.000622411 0)
(-0.00915328 -0.000635923 0)
(-0.0088771 -0.000648288 0)
(-0.00859589 -0.000659459 0)
(-0.00831017 -0.000669391 0)
(-0.00802047 -0.000678041 0)
(-0.00772735 -0.000685369 0)
(-0.00743138 -0.000691335 0)
(-0.00713314 -0.000695905 0)
(-0.00683323 -0.000699047 0)
(-0.00653227 -0.000700731 0)
(-0.00623087 -0.00070093 0)
(-0.00592966 -0.000699623 0)
(-0.0056293 -0.00069679 0)
(-0.00533043 -0.000692415 0)
(-0.00503369 -0.000686487 0)
(-0.00473975 -0.000678997 0)
(-0.00444927 -0.000669942 0)
(-0.0041629 -0.000659322 0)
(-0.00388131 -0.000647142 0)
(-0.00360513 -0.000633412 0)
(-0.00333503 -0.000618145 0)
(-0.00307164 -0.00060136 0)
(-0.00281559 -0.000583081 0)
(-0.00256749 -0.000563336 0)
(-0.00232794 -0.00054216 0)
(-0.00209754 -0.000519594 0)
(-0.00187684 -0.000495685 0)
(-0.00166639 -0.000470487 0)
(-0.00146669 -0.000444062 0)
(-0.00127823 -0.000416481 0)
(-0.00110145 -0.000387827 0)
(-0.000936762 -0.000358193 0)
(-0.000784528 -0.000327685 0)
(-0.000645056 -0.000296431 0)
(-0.000518592 -0.000264575 0)
(-0.000405317 -0.000232287 0)
(-0.000305332 -0.000199771 0)
(-0.000218641 -0.000167264 0)
(-0.000145146 -0.000135057 0)
(-8.46175e-05 -0.000103497 0)
(-3.66827e-05 -7.30085e-05 0)
(-7.94849e-07 -4.41091e-05 0)
(2.3793e-05 -1.74354e-05 0)
(3.80596e-05 6.23146e-06 0)
(4.32531e-05 2.59368e-05 0)
(4.0929e-05 4.05256e-05 0)
(3.29616e-05 4.86254e-05 0)
(2.15766e-05 4.86592e-05 0)
(9.85491e-06 3.88995e-05 0)
(2.18948e-06 1.74979e-05 0)
(1.19057e-06 -1.87114e-05 0)
(3.29036e-06 -3.3504e-05 0)
(2.76601e-06 -3.04871e-05 0)
(-3.90959e-06 -1.40722e-05 0)
(-1.94331e-05 1.24199e-05 0)
(-4.57774e-05 4.63482e-05 0)
(-8.44584e-05 8.5585e-05 0)
(-0.000136601 0.000128433 0)
(-0.00020299 0.000173545 0)
(-0.000284119 0.000219856 0)
(-0.000380239 0.000266531 0)
(-0.000491398 0.00031292 0)
(-0.000617478 0.000358518 0)
(-0.000758221 0.000402939 0)
(-0.000913262 0.000445888 0)
(-0.00108215 0.000487147 0)
(-0.00126436 0.000526553 0)
(-0.00145932 0.000563997 0)
(-0.00166642 0.000599402 0)
(-0.00188502 0.000632725 0)
(-0.00211446 0.000663944 0)
(-0.00235407 0.000693059 0)
(-0.00260318 0.000720082 0)
(-0.00286111 0.00074504 0)
(-0.0031272 0.000767968 0)
(-0.00340077 0.000788908 0)
(-0.00368119 0.000807908 0)
(-0.0039678 0.000825018 0)
(-0.00425999 0.000840293 0)
(-0.00455715 0.000853789 0)
(-0.00485867 0.000865563 0)
(-0.00516399 0.000875669 0)
(-0.00547255 0.000884166 0)
(-0.00578379 0.000891107 0)
(-0.00609719 0.000896548 0)
(-0.00641224 0.000900538 0)
(-0.00672844 0.00090313 0)
(-0.00704532 0.000904371 0)
(-0.0073624 0.000904306 0)
(-0.00767925 0.000902979 0)
(-0.00799541 0.000900431 0)
(-0.00831048 0.0008967 0)
(-0.00862403 0.000891823 0)
(-0.00893567 0.000885832 0)
(-0.00924501 0.000878759 0)
(-0.00955167 0.000870632 0)
(-0.00985528 0.000861479 0)
(-0.0101555 0.000851323 0)
(-0.0104519 0.000840186 0)
(-0.0107442 0.000828089 0)
(-0.0110321 0.00081505 0)
(-0.0113152 0.000801085 0)
(-0.0115932 0.000786209 0)
(-0.0118658 0.000770437 0)
(-0.0121327 0.00075378 0)
(-0.0123935 0.00073625 0)
(-0.0126479 0.000717857 0)
(-0.0128957 0.00069861 0)
(-0.0131365 0.000678519 0)
(-0.01337 0.000657593 0)
(-0.0135961 0.000635839 0)
(-0.0138142 0.000613266 0)
(-0.0140243 0.000589883 0)
(-0.0142259 0.000565698 0)
(-0.0144189 0.000540721 0)
(-0.0146029 0.000514961 0)
(-0.0147777 0.000488431 0)
(-0.0149431 0.000461141 0)
(-0.0150986 0.000433105 0)
(-0.0152442 0.000404337 0)
(-0.0153795 0.000374852 0)
(-0.0155043 0.000344669 0)
(-0.0156184 0.000313807 0)
(-0.0157216 0.000282286 0)
(-0.0158135 0.000250131 0)
(-0.0158941 0.000217366 0)
(-0.0159631 0.000184019 0)
(-0.0160203 0.00015012 0)
(-0.0160656 0.000115701 0)
(-0.0160987 8.07983e-05 0)
(-0.0161196 4.54482e-05 0)
(-0.016128 9.69138e-06 0)
(-0.0161239 -2.64294e-05 0)
(-0.0161071 -6.28684e-05 0)
(-0.0160776 -9.95775e-05 0)
(-0.0160352 -0.000136506 0)
(-0.01598 -0.0001736 0)
(-0.0159118 -0.000210803 0)
(-0.0158307 -0.000248056 0)
(-0.0157366 -0.000285298 0)
(-0.0156296 -0.000322465 0)
(-0.0155097 -0.00035949 0)
(-0.015377 -0.000396306 0)
(-0.0152316 -0.000432841 0)
(-0.0150736 -0.000469023 0)
(-0.0149031 -0.000504777 0)
(-0.0147203 -0.000540028 0)
(-0.0145255 -0.000574698 0)
(-0.0143187 -0.000608707 0)
(-0.0141003 -0.000641977 0)
(-0.0138706 -0.000674427 0)
(-0.0136297 -0.000705975 0)
(-0.0133782 -0.00073654 0)
(-0.0131163 -0.000766041 0)
(-0.0128444 -0.000794397 0)
(-0.0125629 -0.000821526 0)
(-0.0122722 -0.000847351 0)
(-0.0119729 -0.00087179 0)
(-0.0116654 -0.000894769 0)
(-0.0113502 -0.00091621 0)
(-0.0110279 -0.000936041 0)
(-0.0106991 -0.00095419 0)
(-0.0103643 -0.00097059 0)
(-0.0100241 -0.000985174 0)
(-0.00967918 -0.00099788 0)
(-0.0093302 -0.00100865 0)
(-0.00897782 -0.00101743 0)
(-0.00862273 -0.00102416 0)
(-0.00826565 -0.0010288 0)
(-0.00790728 -0.00103132 0)
(-0.00754837 -0.00103166 0)
(-0.00718966 -0.0010298 0)
(-0.00683191 -0.00102571 0)
(-0.00647588 -0.00101936 0)
(-0.00612233 -0.00101075 0)
(-0.00577205 -0.000999858 0)
(-0.0054258 -0.000986683 0)
(-0.00508436 -0.000971227 0)
(-0.00474851 -0.000953496 0)
(-0.004419 -0.000933506 0)
(-0.00409659 -0.000911279 0)
(-0.00378204 -0.000886844 0)
(-0.00347607 -0.000860236 0)
(-0.00317942 -0.000831501 0)
(-0.00289278 -0.000800691 0)
(-0.00261682 -0.000767869 0)
(-0.00235221 -0.000733105 0)
(-0.00209957 -0.000696483 0)
(-0.00185949 -0.000658096 0)
(-0.00163253 -0.000618053 0)
(-0.00141919 -0.000576478 0)
(-0.00121995 -0.000533511 0)
(-0.0010352 -0.000489314 0)
(-0.00086529 -0.000444074 0)
(-0.000710499 -0.000398008 0)
(-0.000571017 -0.000351368 0)
(-0.000446945 -0.000304448 0)
(-0.000338275 -0.000257598 0)
(-0.00024488 -0.000211229 0)
(-0.000166492 -0.000165837 0)
(-0.000102681 -0.000122011 0)
(-5.28368e-05 -8.04631e-05 0)
(-1.61373e-05 -4.20518e-05 0)
(8.47632e-06 -7.81152e-06 0)
(2.23338e-05 2.10154e-05 0)
(2.70697e-05 4.29472e-05 0)
(2.4638e-05 5.62364e-05 0)
(1.73512e-05 5.88639e-05 0)
(8.33918e-06 4.85391e-05 0)
(1.9359e-06 2.25339e-05 0)
(6.09955e-07 -1.98848e-05 0)
(-1.30565e-07 -3.24439e-05 0)
(-6.42447e-06 -2.36682e-05 0)
(-2.11696e-05 1.30578e-06 0)
(-4.67813e-05 3.85854e-05 0)
(-8.51475e-05 8.50336e-05 0)
(-0.000137723 0.000138103 0)
(-0.000205593 0.000195733 0)
(-0.000289519 0.000256266 0)
(-0.000389983 0.000318375 0)
(-0.000507229 0.000380998 0)
(-0.000641293 0.000443297 0)
(-0.000792045 0.000504611 0)
(-0.000959209 0.000564427 0)
(-0.00114239 0.000622346 0)
(-0.00134111 0.000678068 0)
(-0.00155479 0.000731367 0)
(-0.00178282 0.000782082 0)
(-0.00202453 0.000830101 0)
(-0.00227922 0.000875353 0)
(-0.00254616 0.000917801 0)
(-0.0028246 0.000957434 0)
(-0.00311381 0.000994261 0)
(-0.00341304 0.00102831 0)
(-0.00372152 0.00105962 0)
(-0.00403853 0.00108824 0)
(-0.00436333 0.00111424 0)
(-0.0046952 0.00113767 0)
(-0.00503343 0.00115861 0)
(-0.00537733 0.00117712 0)
(-0.00572623 0.00119328 0)
(-0.00607946 0.00120716 0)
(-0.0064364 0.00121884 0)
(-0.00679641 0.00122839 0)
(-0.00715889 0.00123588 0)
(-0.00752326 0.00124138 0)
(-0.00788894 0.00124495 0)
(-0.0082554 0.00124667 0)
(-0.00862208 0.00124658 0)
(-0.00898847 0.00124475 0)
(-0.00935406 0.00124124 0)
(-0.00971838 0.0012361 0)
(-0.0100809 0.00122937 0)
(-0.0104413 0.0012211 0)
(-0.0107989 0.00121133 0)
(-0.0111535 0.0012001 0)
(-0.0115045 0.00118746 0)
(-0.0118515 0.00117342 0)
(-0.0121942 0.00115803 0)
(-0.0125321 0.0011413 0)
(-0.0128648 0.00112327 0)
(-0.013192 0.00110396 0)
(-0.0135133 0.00108339 0)
(-0.0138283 0.00106158 0)
(-0.0141366 0.00103855 0)
(-0.0144378 0.0010143 0)
(-0.0147317 0.000988867 0)
(-0.0150179 0.000962253 0)
(-0.015296 0.000934473 0)
(-0.0155656 0.00090554 0)
(-0.0158265 0.000875466 0)
(-0.0160784 0.000844264 0)
(-0.0163208 0.000811946 0)
(-0.0165534 0.000778526 0)
(-0.016776 0.000744016 0)
(-0.0169882 0.000708431 0)
(-0.0171897 0.000671788 0)
(-0.0173802 0.000634102 0)
(-0.0175594 0.000595394 0)
(-0.0177271 0.000555684 0)
(-0.0178829 0.000514993 0)
(-0.0180265 0.000473348 0)
(-0.0181577 0.000430774 0)
(-0.0182763 0.000387302 0)
(-0.0183819 0.000342964 0)
(-0.0184743 0.000297796 0)
(-0.0185534 0.000251836 0)
(-0.0186188 0.000205126 0)
(-0.0186705 0.000157712 0)