0.05 	0.0003125 	0.005 	-0.00212828 	6.79619e-07 	0
0.05 	0.0009375 	0.005 	-0.00625683 	4.45028e-06 	0
0.05 	0.0015625 	0.005 	-0.0102658 	1.25125e-05 	0
0.05 	0.0021875 	0.005 	-0.0141628 	2.39805e-05 	0
0.05 	0.0028125 	0.005 	-0.0179549 	3.83465e-05 	0
0.05 	0.0034375 	0.005 	-0.0216485 	5.53249e-05 	0
0.05 	0.0040625 	0.005 	-0.02525 	7.46589e-05 	0
0.05 	0.0046875 	0.005 	-0.0287651 	9.61321e-05 	0
0.05 	0.0053125 	0.005 	-0.0321997 	0.000119578 	0
0.05 	0.0059375 	0.005 	-0.0355592 	0.000144878 	0
0.05 	0.0065625 	0.005 	-0.0388487 	0.00017196 	0
0.05 	0.0071875 	0.005 	-0.0420732 	0.000200795 	0
0.05 	0.0078125 	0.005 	-0.0452373 	0.000231395 	0
0.05 	0.0084375 	0.005 	-0.0483456 	0.000263817 	0
0.05 	0.0090625 	0.005 	-0.0514023 	0.000298156 	0
0.05 	0.0096875 	0.005 	-0.0544114 	0.000334546 	0
0.05 	0.0103125 	0.005 	-0.0573768 	0.000373161 	0
0.05 	0.0109375 	0.005 	-0.0603022 	0.00041421 	0
0.05 	0.0115625 	0.005 	-0.063191 	0.000457942 	0
0.05 	0.0121875 	0.005 	-0.0660464 	0.000504637 	0
0.05 	0.0128125 	0.005 	-0.0688717 	0.000554615 	0
0.05 	0.0134375 	0.005 	-0.0716697 	0.000608228 	0
0.05 	0.0140625 	0.005 	-0.0744432 	0.000665863 	0
0.05 	0.0146875 	0.005 	-0.0771947 	0.000727938 	0
0.05 	0.0153125 	0.005 	-0.0799268 	0.000794907 	0
0.05 	0.0159375 	0.005 	-0.0826418 	0.000867255 	0
0.05 	0.0165625 	0.005 	-0.0853416 	0.000945498 	0
0.05 	0.0171875 	0.005 	-0.0880283 	0.00103018 	0
0.05 	0.0178125 	0.005 	-0.0907038 	0.00112189 	0
0.05 	0.0184375 	0.005 	-0.0933695 	0.00122123 	0
0.05 	0.0190625 	0.005 	-0.0960272 	0.00132884 	0
0.05 	0.0196875 	0.005 	-0.098678 	0.00144538 	0
0.05 	0.0203125 	0.005 	-0.101323 	0.00157156 	0
0.05 	0.0209375 	0.005 	-0.103964 	0.00170809 	0
0.05 	0.0215625 	0.005 	-0.106601 	0.00185572 	0
0.05 	0.0221875 	0.005 	-0.109235 	0.00201523 	0
0.05 	0.0228125 	0.005 	-0.111867 	0.00218742 	0
0.05 	0.0234375 	0.005 	-0.114497 	0.00237311 	0
0.05 	0.0240625 	0.005 	-0.117125 	0.00257314 	0
0.05 	0.0246875 	0.005 	-0.119752 	0.00278839 	0
0.05 	0.0253125 	0.005 	-0.122377 	0.00301974 	0
0.05 	0.0259375 	0.005 	-0.125 	0.00326809 	0
0.05 	0.0265625 	0.005 	-0.127621 	0.00353437 	0
0.05 	0.0271875 	0.005 	-0.130239 	0.0038195 	0
0.05 	0.0278125 	0.005 	-0.132854 	0.00412445 	0
0.05 	0.0284375 	0.005 	-0.135465 	0.00445015 	0
0.05 	0.0290625 	0.005 	-0.13807 	0.00479758 	0
0.05 	0.0296875 	0.005 	-0.140668 	0.00516771 	0
0.05 	0.0303125 	0.005 	-0.143258 	0.00556151 	0
0.05 	0.0309375 	0.005 	-0.145839 	0.00597994 	0
0.05 	0.0315625 	0.005 	-0.148408 	0.00642399 	0
0.05 	0.0321875 	0.005 	-0.150964 	0.0068946 	0
0.05 	0.0328125 	0.005 	-0.153504 	0.00739272 	0
0.05 	0.0334375 	0.005 	-0.156026 	0.0079193 	0
0.05 	0.0340625 	0.005 	-0.158527 	0.00847523 	0
0.05 	0.0346875 	0.005 	-0.161006 	0.00906142 	0
0.05 	0.0353125 	0.005 	-0.163458 	0.00967873 	0
0.05 	0.0359375 	0.005 	-0.16588 	0.010328 	0
0.05 	0.0365625 	0.005 	-0.16827 	0.01101 	0
0.05 	0.0371875 	0.005 	-0.170624 	0.0117255 	0
0.05 	0.0378125 	0.005 	-0.172938 	0.0124751 	0
0.05 	0.0384375 	0.005 	-0.175208 	0.0132596 	0
0.05 	0.0390625 	0.005 	-0.17743 	0.0140796 	0
0.05 	0.0396875 	0.005 	-0.179601 	0.0149355 	0
0.05 	0.0403125 	0.005 	-0.181714 	0.0158277 	0
0.05 	0.0409375 	0.005 	-0.183766 	0.0167568 	0
0.05 	0.0415625 	0.005 	-0.185753 	0.0177229 	0
0.05 	0.0421875 	0.005 	-0.187668 	0.0187262 	0
0.05 	0.0428125 	0.005 	-0.189506 	0.0197669 	0
0.05 	0.0434375 	0.005 	-0.191264 	0.020845 	0
0.05 	0.0440625 	0.005 	-0.192933 	0.0219602 	0
0.05 	0.0446875 	0.005 	-0.19451 	0.0231125 	0
0.05 	0.0453125 	0.005 	-0.195989 	0.0243013 	0
0.05 	0.0459375 	0.005 	-0.197362 	0.0255263 	0
0.05 	0.0465625 	0.005 	-0.198625 	0.0267868 	0
0.05 	0.0471875 	0.005 	-0.199771 	0.028082 	0
0.05 	0.0478125 	0.005 	-0.200794 	0.029411 	0
0.05 	0.0484375 	0.005 	-0.201687 	0.0307727 	0
0.05 	0.0490625 	0.005 	-0.202443 	0.0321658 	0
0.05 	0.0496875 	0.005 	-0.203056 	0.033589 	0
0.05 	0.0503125 	0.005 	-0.20352 	0.0350406 	0
0.05 	0.0509375 	0.005 	-0.203827 	0.0365188 	0
0.05 	0.0515625 	0.005 	-0.203971 	0.0380218 	0
0.05 	0.0521875 	0.005 	-0.203944 	0.0395473 	0
0.05 	0.0528125 	0.005 	-0.20374 	0.0410931 	0
0.05 	0.0534375 	0.005 	-0.203351 	0.0426566 	0
0.05 	0.0540625 	0.005 	-0.202771 	0.044235 	0
0.05 	0.0546875 	0.005 	-0.201993 	0.0458256 	0
0.05 	0.0553125 	0.005 	-0.201009 	0.047425 	0
0.05 	0.0559375 	0.005 	-0.199813 	0.0490302 	0
0.05 	0.0565625 	0.005 	-0.198397 	0.0506374 	0
0.05 	0.0571875 	0.005 	-0.196755 	0.0522432 	0
0.05 	0.0578125 	0.005 	-0.194879 	0.0538434 	0
0.05 	0.0584375 	0.005 	-0.192763 	0.0554341 	0
0.05 	0.0590625 	0.005 	-0.190399 	0.0570111 	0
0.05 	0.0596875 	0.005 	-0.18778 	0.0585698 	0
0.05 	0.0603125 	0.005 	-0.1849 	0.0601058 	0
0.05 	0.0609375 	0.005 	-0.181752 	0.0616141 	0
0.05 	0.0615625 	0.005 	-0.178328 	0.06309 	0
0.05 	0.0621875 	0.005 	-0.174621 	0.0645284 	0
0.05 	0.0628125 	0.005 	-0.170625 	0.065924 	0
0.05 	0.0634375 	0.005 	-0.166333 	0.0672717 	0
0.05 	0.0640625 	0.005 	-0.161736 	0.068566 	0
0.05 	0.0646875 	0.005 	-0.156829 	0.0698015 	0
0.05 	0.0653125 	0.005 	-0.151604 	0.0709727 	0
0.05 	0.0659375 	0.005 	-0.146053 	0.0720739 	0
0.05 	0.0665625 	0.005 	-0.140169 	0.0730996 	0
0.05 	0.0671875 	0.005 	-0.133943 	0.0740442 	0
0.05 	0.0678125 	0.005 	-0.127369 	0.0749021 	0
0.05 	0.0684375 	0.005 	-0.120436 	0.0756678 	0
0.05 	0.0690625 	0.005 	-0.113137 	0.0763357 	0
0.05 	0.0696875 	0.005 	-0.105463 	0.0769007 	0
0.05 	0.0703125 	0.005 	-0.0974033 	0.0773573 	0
0.05 	0.0709375 	0.005 	-0.0889486 	0.0777006 	0
0.05 	0.0715625 	0.005 	-0.0800882 	0.0779258 	0
0.05 	0.0721875 	0.005 	-0.0708109 	0.078028 	0
0.05 	0.0728125 	0.005 	-0.061105 	0.0780031 	0
0.05 	0.0734375 	0.005 	-0.0509579 	0.0778468 	0
0.05 	0.0740625 	0.005 	-0.0403565 	0.0775556 	0
0.05 	0.0746875 	0.005 	-0.0292868 	0.0771261 	0
0.05 	0.0753125 	0.005 	-0.0177339 	0.0765554 	0
0.05 	0.0759375 	0.005 	-0.00568213 	0.075841 	0
0.05 	0.0765625 	0.005 	0.00688503 	0.0749812 	0
0.05 	0.0771875 	0.005 	0.0199851 	0.0739745 	0
0.05 	0.0778125 	0.005 	0.0336364 	0.0728204 	0
0.05 	0.0784375 	0.005 	0.0478583 	0.0715188 	0
0.05 	0.0790625 	0.005 	0.062671 	0.0700705 	0
0.05 	0.0796875 	0.005 	0.0780954 	0.068477 	0
0.05 	0.0803125 	0.005 	0.0941534 	0.0667406 	0
0.05 	0.0809375 	0.005 	0.110867 	0.0648647 	0
0.05 	0.0815625 	0.005 	0.12826 	0.0628534 	0
0.05 	0.0821875 	0.005 	0.146356 	0.060712 	0
0.05 	0.0828125 	0.005 	0.165178 	0.0584467 	0
0.05 	0.0834375 	0.005 	0.18475 	0.0560649 	0
0.05 	0.0840625 	0.005 	0.205096 	0.0535749 	0
0.05 	0.0846875 	0.005 	0.226239 	0.0509865 	0
0.05 	0.0853125 	0.005 	0.2482 	0.0483104 	0
0.05 	0.0859375 	0.005 	0.271002 	0.0455585 	0
0.05 	0.0865625 	0.005 	0.294665 	0.0427441 	0
0.05 	0.0871875 	0.005 	0.319204 	0.0398815 	0
0.05 	0.0878125 	0.005 	0.344636 	0.0369861 	0
0.05 	0.0884375 	0.005 	0.370973 	0.0340745 	0
0.05 	0.0890625 	0.005 	0.398223 	0.0311642 	0
0.05 	0.0896875 	0.005 	0.426391 	0.0282736 	0
0.05 	0.0903125 	0.005 	0.455475 	0.025422 	0
0.05 	0.0909375 	0.005 	0.485471 	0.0226292 	0
0.05 	0.0915625 	0.005 	0.516366 	0.0199155 	0
0.05 	0.0921875 	0.005 	0.548142 	0.0173013 	0
0.05 	0.0928125 	0.005 	0.580775 	0.014807 	0
0.05 	0.0934375 	0.005 	0.61423 	0.0124527 	0
0.05 	0.0940625 	0.005 	0.648468 	0.0102579 	0
0.05 	0.0946875 	0.005 	0.683439 	0.00824071 	0
0.05 	0.0953125 	0.005 	0.719086 	0.00641813 	0
0.05 	0.0959375 	0.005 	0.755343 	0.00480506 	0
0.05 	0.0965625 	0.005 	0.792134 	0.0034141 	0
0.05 	0.0971875 	0.005 	0.829377 	0.00225506 	0
0.05 	0.0978125 	0.005 	0.866983 	0.00133375 	0
0.05 	0.0984375 	0.005 	0.904855 	0.000650845 	0
0.05 	0.0990625 	0.005 	0.942891 	0.000209965 	0
0.05 	0.0996875 	0.005 	0.980982 	2.55961e-05 	0
