/*--------------------------------*- C++ -*----------------------------------*\
  =========                 |
  \\      /  F ield         | OpenFOAM: The Open Source CFD Toolbox
   \\    /   O peration     | Website:  https://openfoam.org
    \\  /    A nd           | Version:  7
     \\/     M anipulation  |
\*---------------------------------------------------------------------------*/
FoamFile
{
    version     2.0;
    format      ascii;
    class       surfaceScalarField;
    location    "0.4";
    object      phi;
}
// * * * * * * * * * * * * * * * * * * * * * * * * * * * * * * * * * * * * * //

dimensions      [0 3 -1 0 0 0 0];

internalField   nonuniform List<scalar> 
50880
(
7.82188e-12
-7.83188e-12
3.50863e-11
-2.72634e-11
7.3262e-11
-3.81775e-11
1.12017e-10
-3.87483e-11
1.45124e-10
-3.31057e-11
1.68496e-10
-2.33698e-11
1.79559e-10
-1.1066e-11
1.76779e-10
2.77809e-12
1.59309e-10
1.74668e-11
1.26773e-10
3.2535e-11
7.91198e-11
4.76491e-11
1.65385e-11
6.25835e-11
-6.0632e-11
7.71686e-11
-1.51929e-10
9.12959e-11
-2.56813e-10
1.04884e-10
-3.74692e-10
1.17875e-10
-5.04928e-10
1.30237e-10
-6.46872e-10
1.41943e-10
-7.99857e-10
1.52985e-10
-9.63215e-10
1.63362e-10
-1.13629e-09
1.73072e-10
-1.31841e-09
1.82129e-10
-1.50895e-09
1.90543e-10
-1.70728e-09
1.98327e-10
-1.91278e-09
2.05503e-10
-2.12486e-09
2.12087e-10
-2.34296e-09
2.18095e-10
-2.56651e-09
2.2355e-10
-2.79498e-09
2.28473e-10
-3.02786e-09
2.32881e-10
-3.26466e-09
2.36796e-10
-3.50489e-09
2.40235e-10
-3.74811e-09
2.43214e-10
-3.99387e-09
2.45752e-10
-4.24174e-09
2.47869e-10
-4.49132e-09
2.49577e-10
-4.74221e-09
2.5089e-10
-4.99403e-09
2.51824e-10
-5.24642e-09
2.5239e-10
-5.49901e-09
2.52594e-10
-5.75146e-09
2.52451e-10
-6.00343e-09
2.51971e-10
-6.25459e-09
2.51161e-10
-6.50462e-09
2.50026e-10
-6.7532e-09
2.48577e-10
-7.00001e-09
2.46816e-10
-7.24476e-09
2.44746e-10
-7.48714e-09
2.42376e-10
-7.72685e-09
2.39709e-10
-7.96359e-09
2.36743e-10
-8.19707e-09
2.33478e-10
-8.42698e-09
2.29918e-10
-8.65304e-09
2.26064e-10
-8.87496e-09
2.21916e-10
-9.09244e-09
2.17475e-10
-9.30518e-09
2.12743e-10
-9.5129e-09
2.07716e-10
-9.71529e-09
2.02391e-10
-9.91206e-09
1.96772e-10
-1.01029e-08
1.9086e-10
-1.02876e-08
1.84653e-10
-1.04657e-08
1.78152e-10
-1.06371e-08
1.71357e-10
-1.08014e-08
1.64269e-10
-1.09582e-08
1.56889e-10
-1.11075e-08
1.49217e-10
-1.12487e-08
1.41255e-10
-1.13817e-08
1.3301e-10
-1.15062e-08
1.24486e-10
-1.16219e-08
1.15688e-10
-1.17285e-08
1.06618e-10
-1.18258e-08
9.72854e-11
-1.19135e-08
8.76971e-11
-1.19914e-08
7.7859e-11
-1.20591e-08
6.77817e-11
-1.21166e-08
5.74781e-11
-1.21636e-08
4.69601e-11
-1.21998e-08
3.62408e-11
-1.22252e-08
2.5331e-11
-1.22394e-08
1.42446e-11
-1.22424e-08
3.00153e-12
-1.2234e-08
-8.38016e-12
-1.22141e-08
-1.98837e-11
-1.21827e-08
-3.14891e-11
-1.21395e-08
-4.31767e-11
-1.20846e-08
-5.49244e-11
-1.20178e-08
-6.67065e-11
-1.19393e-08
-7.85e-11
-1.18491e-08
-9.02823e-11
-1.1747e-08
-1.02026e-10
-1.16333e-08
-1.13703e-10
-1.1508e-08
-1.25288e-10
-1.13713e-08
-1.36753e-10
-1.12232e-08
-1.48067e-10
-1.1064e-08
-1.59204e-10
-1.08939e-08
-1.70133e-10
-1.07131e-08
-1.80821e-10
-1.05218e-08
-1.91242e-10
-1.03205e-08
-2.01365e-10
-1.01093e-08
-2.11158e-10
-9.88871e-09
-2.20593e-10
-9.65907e-09
-2.2964e-10
-9.42081e-09
-2.38269e-10
-9.17435e-09
-2.4645e-10
-8.9202e-09
-2.54157e-10
-8.65883e-09
-2.61364e-10
-8.39079e-09
-2.68042e-10
-8.11662e-09
-2.74168e-10
-7.8369e-09
-2.79719e-10
-7.55224e-09
-2.84668e-10
-7.26324e-09
-2.88994e-10
-6.97056e-09
-2.9268e-10
-6.67485e-09
-2.9571e-10
-6.37678e-09
-2.98066e-10
-6.07705e-09
-2.99732e-10
-5.77635e-09
-3.00698e-10
-5.4754e-09
-3.00952e-10
-5.17492e-09
-3.00484e-10
-4.87563e-09
-2.99291e-10
-4.57826e-09
-2.97371e-10
-4.28354e-09
-2.94721e-10
-3.9922e-09
-2.9134e-10
-3.70497e-09
-2.87233e-10
-3.42256e-09
-2.82406e-10
-3.1457e-09
-2.76867e-10
-2.87507e-09
-2.70625e-10
-2.61138e-09
-2.63694e-10
-2.35529e-09
-2.56092e-10
-2.10745e-09
-2.47835e-10
-1.86851e-09
-2.38944e-10
-1.63907e-09
-2.29441e-10
-1.41972e-09
-2.19352e-10
-1.21101e-09
-2.08706e-10
-1.01348e-09
-1.97532e-10
-8.27617e-10
-1.85862e-10
-6.53882e-10
-1.73735e-10
-4.92694e-10
-1.61189e-10
-3.4443e-10
-1.48264e-10
-2.09423e-10
-1.35006e-10
-8.7958e-11
-1.21464e-10
1.9734e-11
-1.07693e-10
1.13482e-10
-9.37499e-11
1.93182e-10
-7.97001e-11
2.588e-10
-6.56172e-11
3.10383e-10
-5.15838e-11
3.48075e-10
-3.76929e-11
3.72125e-10
-2.40515e-11
3.82912e-10
-1.07864e-11
3.8096e-10
1.95127e-12
3.6698e-10
1.39787e-11
3.41909e-10
2.50708e-11
3.06965e-10
3.49436e-11
2.63735e-10
4.32321e-11
2.14275e-10
4.94596e-11
1.6128e-10
5.29948e-11
1.0827e-10
5.30098e-11
5.98028e-11
4.84687e-11
2.16693e-11
3.81348e-11
7.06423e-13
2.09622e-11
7.0644e-13
2.90429e-11
-3.68714e-11
8.9459e-11
-8.76749e-11
1.62858e-10
-1.11578e-10
2.33677e-10
-1.09566e-10
2.88964e-10
-8.83931e-11
3.19348e-10
-5.37542e-11
3.18274e-10
-9.99167e-12
2.81382e-10
3.9671e-11
2.05956e-10
9.28978e-11
9.05026e-11
1.47985e-10
-6.55453e-11
2.03703e-10
-2.62098e-10
2.59134e-10
-4.98541e-10
3.13617e-10
-7.73902e-10
3.66664e-10
-1.08694e-09
4.17918e-10
-1.43619e-09
4.67133e-10
-1.82008e-09
5.14127e-10
-2.23693e-09
5.58787e-10
-2.68498e-09
6.01043e-10
-3.16248e-09
6.40855e-10
-3.66763e-09
6.7822e-10
-4.19866e-09
7.13152e-10
-4.7538e-09
7.45675e-10
-5.33131e-09
7.75839e-10
-5.9295e-09
8.03694e-10
-6.54672e-09
8.29297e-10
-7.18134e-09
8.52715e-10
-7.8318e-09
8.74015e-10
-8.49659e-09
8.93261e-10
-9.17423e-09
9.10526e-10
-9.86331e-09
9.2588e-10
-1.05625e-08
9.39387e-10
-1.12704e-08
9.51113e-10
-1.19857e-08
9.61122e-10
-1.27073e-08
9.69472e-10
-1.3434e-08
9.76218e-10
-1.41645e-08
9.8142e-10
-1.48978e-08
9.85124e-10
-1.56328e-08
9.87375e-10
-1.63684e-08
9.88215e-10
-1.71037e-08
9.87685e-10
-1.78375e-08
9.85817e-10
-1.8569e-08
9.82644e-10
-1.92971e-08
9.78192e-10
-2.00211e-08
9.72487e-10
-2.07398e-08
9.65548e-10
-2.14524e-08
9.57391e-10
-2.21581e-08
9.48034e-10
-2.28559e-08
9.37491e-10
-2.35449e-08
9.2577e-10
-2.42243e-08
9.1288e-10
-2.48932e-08
8.98826e-10
-2.55508e-08
8.83611e-10
-2.61961e-08
8.67237e-10
-2.68283e-08
8.49706e-10
-2.74466e-08
8.31021e-10
-2.80501e-08
8.11183e-10
-2.86379e-08
7.9019e-10
-2.92091e-08
7.68042e-10
-2.9763e-08
7.44742e-10
-3.02986e-08
7.20289e-10
-3.08152e-08
6.94685e-10
-3.13118e-08
6.67936e-10
-3.17875e-08
6.40049e-10
-3.22417e-08
6.11029e-10
-3.26734e-08
5.80883e-10
-3.30817e-08
5.49622e-10
-3.3466e-08
5.17264e-10
-3.38253e-08
4.83821e-10
-3.41589e-08
4.49315e-10
-3.44661e-08
4.1377e-10
-3.4746e-08
3.77214e-10
-3.4998e-08
3.39677e-10
-3.52213e-08
3.01192e-10
-3.54153e-08
2.61795e-10
-3.55794e-08
2.21532e-10
-3.57129e-08
1.80448e-10
-3.58152e-08
1.38592e-10
-3.58859e-08
9.60211e-11
-3.59245e-08
5.2793e-11
-3.59304e-08
8.97257e-12
-3.59035e-08
-3.53706e-11
-3.58432e-08
-8.0167e-11
-3.57493e-08
-1.2534e-10
-3.56217e-08
-1.70806e-10
-3.54601e-08
-2.16481e-10
-3.52646e-08
-2.62278e-10
-3.5035e-08
-3.08102e-10
-3.47714e-08
-3.53857e-10
-3.4474e-08
-3.99446e-10
-3.41429e-08
-4.44762e-10
-3.37785e-08
-4.897e-10
-3.33811e-08
-5.34156e-10
-3.29511e-08
-5.78018e-10
-3.24892e-08
-6.21171e-10
-3.19958e-08
-6.63504e-10
-3.14717e-08
-7.04902e-10
-3.09177e-08
-7.45248e-10
-3.03347e-08
-7.84428e-10
-2.97235e-08
-8.22328e-10
-2.90853e-08
-8.58832e-10
-2.84211e-08
-8.93825e-10
-2.77321e-08
-9.27199e-10
-2.70197e-08
-9.58842e-10
-2.62853e-08
-9.88647e-10
-2.55301e-08
-1.01651e-09
-2.47558e-08
-1.04234e-09
-2.3964e-08
-1.06603e-09
-2.31562e-08
-1.08749e-09
-2.23342e-08
-1.10664e-09
-2.14998e-08
-1.12339e-09
-2.06548e-08
-1.13767e-09
-1.98011e-08
-1.14942e-09
-1.89406e-08
-1.15857e-09
-1.80753e-08
-1.16507e-09
-1.72071e-08
-1.16887e-09
-1.63381e-08
-1.16994e-09
-1.54704e-08
-1.16824e-09
-1.46059e-08
-1.16374e-09
-1.37468e-08
-1.15645e-09
-1.28952e-08
-1.14635e-09
-1.20531e-08
-1.13345e-09
-1.12226e-08
-1.11776e-09
-1.04057e-08
-1.0993e-09
-9.60443e-09
-1.07811e-09
-8.82082e-09
-1.05423e-09
-8.0568e-09
-1.02772e-09
-7.31426e-09
-9.98626e-10
-6.59507e-09
-9.67026e-10
-5.90102e-09
-9.33001e-10
-5.23382e-09
-8.9664e-10
-4.59513e-09
-8.58042e-10
-3.98652e-09
-8.17318e-10
-3.40946e-09
-7.74588e-10
-2.86534e-09
-7.29985e-10
-2.35542e-09
-6.83648e-10
-1.88088e-09
-6.35731e-10
-1.44274e-09
-5.86402e-10
-1.04191e-09
-5.35841e-10
-6.79129e-10
-4.84244e-10
-3.54996e-10
-4.31825e-10
-6.99245e-11
-3.78821e-10
1.75868e-10
-3.25493e-10
3.82378e-10
-2.72129e-10
5.49849e-10
-2.19055e-10
6.78797e-10
-1.66641e-10
7.70057e-10
-1.15313e-10
8.24833e-10
-6.55628e-11
8.44755e-10
-1.7971e-11
8.31963e-10
2.67702e-11
7.89211e-10
6.78237e-11
7.19989e-10
1.04167e-10
6.28683e-10
1.34539e-10
5.20769e-10
1.57374e-10
4.03029e-10
1.70736e-10
2.83751e-10
1.7229e-10
1.72808e-10
1.59413e-10
8.14061e-11
1.29535e-10
2.09257e-11
8.14438e-11
2.16321e-11
3.8005e-11
-7.48782e-11
1.12042e-10
-1.61712e-10
1.95434e-10
-1.94968e-10
2.68437e-10
-1.82572e-10
3.14947e-10
-1.34905e-10
3.22568e-10
-6.13762e-11
2.82172e-10
3.03984e-11
1.87338e-10
1.34504e-10
3.3811e-11
2.46419e-10
-1.80937e-10
3.62738e-10
-4.58111e-10
4.80874e-10
-7.97868e-10
5.9889e-10
-1.19957e-09
7.15324e-10
-1.66199e-09
8.29073e-10
-2.1834e-09
9.39331e-10
-2.76176e-09
1.0455e-09
-3.39477e-09
1.14714e-09
-4.07994e-09
1.24396e-09
-4.81466e-09
1.33576e-09
-5.59624e-09
1.42244e-09
-6.42195e-09
1.50394e-09
-7.28906e-09
1.58026e-09
-8.19483e-09
1.65145e-09
-9.13656e-09
1.71757e-09
-1.01116e-08
1.77871e-09
-1.11173e-08
1.83499e-09
-1.21511e-08
1.88654e-09
-1.32106e-08
1.93348e-09
-1.42932e-08
1.97595e-09
-1.53968e-08
2.01409e-09
-1.6519e-08
2.04804e-09
-1.76575e-08
2.07793e-09
-1.88103e-08
2.10391e-09
-1.99753e-08
2.12611e-09
-2.11505e-08
2.14465e-09
-2.23339e-08
2.15965e-09
-2.35237e-08
2.17121e-09
-2.4718e-08
2.17946e-09
-2.59151e-08
2.18448e-09
-2.71133e-08
2.18636e-09
-2.83108e-08
2.1852e-09
-2.9506e-08
2.18105e-09
-3.06974e-08
2.174e-09
-3.18833e-08
2.1641e-09
-3.30622e-08
2.1514e-09
-3.42326e-08
2.13595e-09
-3.5393e-08
2.11779e-09
-3.6542e-08
2.09696e-09
-3.76779e-08
2.07347e-09
-3.87995e-08
2.04736e-09
-3.99053e-08
2.01864e-09
-4.09938e-08
1.98732e-09
-4.20636e-08
1.95343e-09
-4.31133e-08
1.91696e-09
-4.41415e-08
1.87792e-09
-4.51468e-08
1.83632e-09
-4.61278e-08
1.79216e-09
-4.70831e-08
1.74544e-09
-4.80112e-08
1.69616e-09
-4.89108e-08
1.64434e-09
-4.97805e-08
1.58997e-09
-5.06189e-08
1.53307e-09
-5.14246e-08
1.47364e-09
-5.21962e-08
1.4117e-09
-5.29324e-08
1.34726e-09
-5.36319e-08
1.28036e-09
-5.42933e-08
1.21101e-09
-5.49153e-08
1.13925e-09
-5.54966e-08
1.06512e-09
-5.6036e-08
9.88671e-10
-5.65321e-08
9.09949e-10
-5.69839e-08
8.29017e-10
-5.73902e-08
7.45945e-10
-5.77498e-08
6.6081e-10
-5.80617e-08
5.73699e-10
-5.83249e-08
4.84705e-10
-5.85384e-08
3.93933e-10
-5.87013e-08
3.01493e-10
-5.88128e-08
2.07507e-10
-5.88721e-08
1.1211e-10
-5.88786e-08
1.54407e-11
-5.88316e-08
-8.23495e-11
-5.87307e-08
-1.81101e-10
-5.85754e-08
-2.80646e-10
-5.83654e-08
-3.80807e-10
-5.81004e-08
-4.81393e-10
-5.77805e-08
-5.82213e-10
-5.74055e-08
-6.83064e-10
-5.69757e-08
-7.83732e-10
-5.64911e-08
-8.84001e-10
-5.59522e-08
-9.83647e-10
-5.53595e-08
-1.08244e-09
-5.47135e-08
-1.18014e-09
-5.4015e-08
-1.27651e-09
-5.32649e-08
-1.3713e-09
-5.24641e-08
-1.46427e-09
-5.16138e-08
-1.55517e-09
-5.07153e-08
-1.64375e-09
-4.977e-08
-1.72974e-09
-4.87794e-08
-1.81292e-09
-4.77453e-08
-1.89302e-09
-4.66693e-08
-1.9698e-09
-4.55535e-08
-2.04301e-09
-4.43999e-08
-2.11243e-09
-4.32107e-08
-2.17782e-09
-4.19883e-08
-2.23895e-09
-4.0735e-08
-2.2956e-09
-3.94534e-08
-2.34758e-09
-3.81463e-08
-2.39468e-09
-3.68162e-08
-2.43672e-09
-3.5466e-08
-2.47351e-09
-3.40988e-08
-2.50491e-09
-3.27175e-08
-2.53077e-09
-3.13251e-08
-2.55094e-09
-2.99248e-08
-2.56532e-09
-2.85199e-08
-2.57381e-09
-2.71135e-08
-2.57632e-09
-2.5709e-08
-2.57279e-09
-2.43095e-08
-2.56317e-09
-2.29185e-08
-2.54744e-09
-2.15393e-08
-2.52559e-09
-2.01751e-08
-2.49762e-09
-1.88293e-08
-2.46357e-09
-1.75051e-08
-2.42349e-09
-1.62058e-08
-2.37747e-09
-1.49344e-08
-2.32557e-09
-1.36942e-08
-2.26794e-09
-1.24882e-08
-2.20469e-09
-1.13192e-08
-2.13599e-09
-1.01902e-08
-2.06202e-09
-9.10386e-09
-1.98296e-09
-8.06285e-09
-1.89906e-09
-7.06962e-09
-1.81054e-09
-6.12653e-09
-1.71769e-09
-5.23573e-09
-1.62078e-09
-4.39924e-09
-1.52014e-09
-3.61887e-09
-1.4161e-09
-2.89622e-09
-1.30905e-09
-2.23268e-09
-1.19938e-09
-1.62939e-09
-1.08753e-09
-1.08722e-09
-9.73992e-10
-6.06766e-10
-8.59278e-10
-1.88288e-10
-7.43972e-10
1.68303e-10
-6.28718e-10
4.63486e-10
-5.14238e-10
6.98192e-10
-4.01349e-10
8.73854e-10
-2.90977e-10
9.92483e-10
-1.84193e-10
1.05676e-09
-8.22419e-11
1.07012e-09
1.34095e-11
1.03691e-09
1.01027e-10
9.62544e-10
1.78536e-10
8.53635e-10
2.43449e-10
7.18224e-10
2.92787e-10
5.65938e-10
3.23022e-10
4.08116e-10
3.30113e-10
2.57781e-10
3.09747e-10
1.29357e-10
2.5796e-10
3.80215e-11
1.7278e-10
5.96531e-11
3.86435e-11
-1.13516e-10
1.0968e-10
-2.32747e-10
1.82714e-10
-2.68006e-10
2.35198e-10
-2.35052e-10
2.49149e-10
-1.48854e-10
2.10499e-10
-2.27285e-11
1.08599e-10
1.32302e-10
-6.43097e-11
3.07407e-10
-3.13549e-10
4.95662e-10
-6.42468e-10
6.91655e-10
-1.0528e-09
8.91206e-10
-1.54499e-09
1.09108e-09
-2.11847e-09
1.2888e-09
-2.77186e-09
1.48247e-09
-3.50316e-09
1.67063e-09
-4.30989e-09
1.85222e-09
-5.1892e-09
2.02645e-09
-6.13798e-09
2.19274e-09
-7.15292e-09
2.3507e-09
-8.23058e-09
2.5001e-09
-9.36743e-09
2.64079e-09
-1.05599e-08
2.77275e-09
-1.18045e-08
2.896e-09
-1.30975e-08
3.01063e-09
-1.44356e-08
3.11677e-09
-1.58152e-08
3.21459e-09
-1.72329e-08
3.30427e-09
-1.86855e-08
3.38603e-09
-2.01696e-08
3.46007e-09
-2.16821e-08
3.52662e-09
-2.322e-08
3.58592e-09
-2.47803e-08
3.63818e-09
-2.636e-08
3.68363e-09
-2.79564e-08
3.72248e-09
-2.95667e-08
3.75495e-09
-3.11882e-08
3.78123e-09
-3.28185e-08
3.80151e-09
-3.4455e-08
3.81596e-09
-3.60953e-08
3.82476e-09
-3.7737e-08
3.82806e-09
-3.93778e-08
3.82598e-09
-4.10154e-08
3.81868e-09
-4.26477e-08
3.80625e-09
-4.42724e-08
3.7888e-09
-4.58874e-08
3.76643e-09
-4.74906e-08
3.73921e-09
-4.90801e-08
3.70721e-09
-5.06536e-08
3.6705e-09
-5.22093e-08
3.62912e-09
-5.3745e-08
3.58311e-09
-5.52589e-08
3.53251e-09
-5.67489e-08
3.47735e-09
-5.82131e-08
3.41765e-09
-5.96496e-08
3.35342e-09
-6.10564e-08
3.28468e-09
-6.24315e-08
3.21144e-09
-6.3773e-08
3.13371e-09
-6.50791e-08
3.0515e-09
-6.63477e-08
2.96481e-09
-6.75771e-08
2.87366e-09
-6.87652e-08
2.77807e-09
-6.99101e-08
2.67805e-09
-7.10101e-08
2.57362e-09
-7.20632e-08
2.46482e-09
-7.30677e-08
2.35167e-09
-7.40215e-08
2.23422e-09
-7.4923e-08
2.11253e-09
-7.57704e-08
1.98666e-09
-7.6562e-08
1.85667e-09
-7.7296e-08
1.72266e-09
-7.79708e-08
1.58472e-09
-7.85847e-08
1.44296e-09
-7.91362e-08
1.2975e-09
-7.96239e-08
1.14848e-09
-8.00463e-08
9.9606e-10
-8.0402e-08
8.40397e-10
-8.06897e-08
6.81679e-10
-8.09083e-08
5.20101e-10
-8.10567e-08
3.55878e-10
-8.11338e-08
1.89242e-10
-8.11388e-08
2.04407e-11
-8.10709e-08
-1.50265e-10
-8.09294e-08
-3.22595e-10
-8.07138e-08
-4.96255e-10
-8.04237e-08
-6.70936e-10
-8.00588e-08
-8.46314e-10
-7.96189e-08
-1.02205e-09
-7.91042e-08
-1.19778e-09
-7.85148e-08
-1.37316e-09
-7.7851e-08
-1.54779e-09
-7.71133e-08
-1.7213e-09
-7.63025e-08
-1.89328e-09
-7.54193e-08
-2.06332e-09
-7.44648e-08
-2.23101e-09
-7.34402e-08
-2.39593e-09
-7.23468e-08
-2.55765e-09
-7.11863e-08
-2.71573e-09
-6.99603e-08
-2.86975e-09
-6.86707e-08
-3.01927e-09
-6.73198e-08
-3.16386e-09
-6.59097e-08
-3.3031e-09
-6.4443e-08
-3.43655e-09
-6.29222e-08
-3.5638e-09
-6.13502e-08
-3.68445e-09
-5.97299e-08
-3.79809e-09
-5.80645e-08
-3.90434e-09
-5.63573e-08
-4.00283e-09
-5.46116e-08
-4.0932e-09
-5.28312e-08
-4.1751e-09
-5.10197e-08
-4.24824e-09
-4.91809e-08
-4.31229e-09
-4.73188e-08
-4.36699e-09
-4.54375e-08
-4.41208e-09
-4.35411e-08
-4.44735e-09
-4.16339e-08
-4.47259e-09
-3.97201e-08
-4.48762e-09
-3.78041e-08
-4.49232e-09
-3.58903e-08
-4.48656e-09
-3.39832e-08
-4.47028e-09
-3.20872e-08
-4.44343e-09
-3.02068e-08
-4.40598e-09
-2.83464e-08
-4.35798e-09
-2.65105e-08
-4.29947e-09
-2.47035e-08
-4.23055e-09
-2.29296e-08
-4.15134e-09
-2.11932e-08
-4.06202e-09
-1.94983e-08
-3.96278e-09
-1.78491e-08
-3.85386e-09
-1.62496e-08
-3.73553e-09
-1.47035e-08
-3.60811e-09
-1.32145e-08
-3.47194e-09
-1.17862e-08
-3.32743e-09
-1.04217e-08
-3.17499e-09
-9.12432e-09
-3.01509e-09
-7.89685e-09
-2.84826e-09
-6.74195e-09
-2.67503e-09
-5.66203e-09
-2.49602e-09
-4.65919e-09
-2.31189e-09
-3.73524e-09
-2.12333e-09
-2.89164e-09
-1.93113e-09
-2.1295e-09
-1.73613e-09
-1.44954e-09
-1.53925e-09
-8.52011e-10
-1.34149e-09
-3.36726e-10
-1.144e-09
9.70572e-11
-9.48023e-10
4.5067e-10
-7.54963e-10
7.2611e-10
-5.66416e-10
9.26122e-10
-3.84204e-10
1.0543e-09
-2.10421e-10
1.11521e-09
-4.74981e-11
1.1145e-09
1.01732e-10
1.0591e-09
2.33945e-10
9.57301e-10
3.45246e-10
8.18996e-10
4.31092e-10
6.55762e-10
4.86257e-10
4.80969e-10
5.04907e-10
3.09808e-10
4.80909e-10
1.59267e-10
4.08502e-10
4.8309e-11
2.83738e-10
1.07962e-10
3.30963e-11
-1.46611e-10
8.87449e-11
-2.88395e-10
1.35407e-10
-3.14669e-10
1.49363e-10
-2.49006e-10
1.11786e-10
-1.11283e-10
7.85616e-12
8.12046e-11
-1.73848e-10
3.14001e-10
-4.41799e-10
5.75363e-10
-8.01986e-10
8.55846e-10
-1.25827e-09
1.14794e-09
-1.81278e-09
1.44571e-09
-2.46617e-09
1.74447e-09
-3.21794e-09
2.04058e-09
-4.06664e-09
2.33117e-09
-5.01007e-09
2.61406e-09
-6.04542e-09
2.88757e-09
-7.16942e-09
3.15045e-09
-8.37846e-09
3.40178e-09
-9.66866e-09
3.6409e-09
-1.1036e-08
3.8674e-09
-1.24762e-08
4.08101e-09
-1.3985e-08
4.28161e-09
-1.55583e-08
4.46922e-09
-1.71915e-08
4.64391e-09
-1.88806e-08
4.80585e-09
-2.06213e-08
4.95525e-09
-2.24094e-08
5.09235e-09
-2.42408e-08
5.21746e-09
-2.61116e-08
5.33085e-09
-2.80178e-08
5.43287e-09
-2.99557e-08
5.52382e-09
-3.19216e-08
5.60404e-09
-3.39118e-08
5.67384e-09
-3.59228e-08
5.73353e-09
-3.79513e-08
5.78344e-09
-3.99939e-08
5.82383e-09
-4.20474e-08
5.85501e-09
-4.41087e-08
5.87721e-09
-4.61746e-08
5.8907e-09
-4.82422e-08
5.89569e-09
-5.03087e-08
5.89239e-09
-5.2371e-08
5.88101e-09
-5.44264e-08
5.86171e-09
-5.64723e-08
5.83464e-09
-5.85058e-08
5.79995e-09
-6.05244e-08
5.75776e-09
-6.25253e-08
5.70817e-09
-6.45061e-08
5.65128e-09
-6.64642e-08
5.58717e-09
-6.83969e-08
5.51589e-09
-7.03019e-08
5.43752e-09
-7.21767e-08
5.35208e-09
-7.40186e-08
5.25962e-09
-7.58254e-08
5.16017e-09
-7.75945e-08
5.05376e-09
-7.93234e-08
4.9404e-09
-8.10098e-08
4.82011e-09
-8.26513e-08
4.69292e-09
-8.42453e-08
4.55885e-09
-8.57895e-08
4.41791e-09
-8.72816e-08
4.27013e-09
-8.87191e-08
4.11555e-09
-9.00997e-08
3.95421e-09
-9.1421e-08
3.78616e-09
-9.26808e-08
3.61146e-09
-9.38768e-08
3.43017e-09
-9.50066e-08
3.2424e-09
-9.60682e-08
3.04823e-09
-9.70593e-08
2.84779e-09
-9.79779e-08
2.64121e-09
-9.88218e-08
2.42864e-09
-9.95891e-08
2.21026e-09
-1.00278e-07
1.98625e-09
-1.00886e-07
1.75684e-09
-1.01412e-07
1.52227e-09
-1.01855e-07
1.28278e-09
-1.02212e-07
1.03867e-09
-1.02482e-07
7.90242e-10
-1.02664e-07
5.37826e-10
-1.02756e-07
2.81778e-10
-1.02758e-07
2.24788e-11
-1.02669e-07
-2.39667e-10
-1.02487e-07
-5.04234e-10
-1.02213e-07
-7.70768e-10
-1.01845e-07
-1.0388e-09
-1.01384e-07
-1.30782e-09
-1.00828e-07
-1.57733e-09
-1.00179e-07
-1.84677e-09
-9.94368e-08
-2.11559e-09
-9.86014e-08
-2.38322e-09
-9.76737e-08
-2.64906e-09
-9.66544e-08
-2.91251e-09
-9.55448e-08
-3.17294e-09
-9.43461e-08
-3.42972e-09
-9.30598e-08
-3.68221e-09
-9.16877e-08
-3.92976e-09
-9.02317e-08
-4.17171e-09
-8.86941e-08
-4.40742e-09
-8.70771e-08
-4.63621e-09
-8.53835e-08
-4.85744e-09
-8.36162e-08
-5.07046e-09
-8.17781e-08
-5.27463e-09
-7.98726e-08
-5.4693e-09
-7.79032e-08
-5.65387e-09
-7.58735e-08
-5.82774e-09
-7.37876e-08
-5.99031e-09
-7.16494e-08
-6.14102e-09
-6.94632e-08
-6.27934e-09
-6.72336e-08
-6.40474e-09
-6.49651e-08
-6.51676e-09
-6.26624e-08
-6.61494e-09
-6.03306e-08
-6.69886e-09
-5.79745e-08
-6.76814e-09
-5.55994e-08
-6.82243e-09
-5.32105e-08
-6.86146e-09
-5.08132e-08
-6.88494e-09
-4.84129e-08
-6.89269e-09
-4.60149e-08
-6.88452e-09
-4.36249e-08
-6.86033e-09
-4.12482e-08
-6.82004e-09
-3.88906e-08
-6.76365e-09
-3.65574e-08
-6.69119e-09
-3.42541e-08
-6.60276e-09
-3.19862e-08
-6.49848e-09
-2.97589e-08
-6.37858e-09
-2.75776e-08
-6.24329e-09
-2.54475e-08
-6.09294e-09
-2.33735e-08
-5.92788e-09
-2.13604e-08
-5.74854e-09
-1.94131e-08
-5.55541e-09
-1.75361e-08
-5.34902e-09
-1.57335e-08
-5.12997e-09
-1.40096e-08
-4.89892e-09
-1.23681e-08
-4.6566e-09
-1.08125e-08
-4.4038e-09
-9.3462e-09
-4.14138e-09
-7.97197e-09
-3.87026e-09
-6.6924e-09
-3.59145e-09
-5.50968e-09
-3.30606e-09
-4.42554e-09
-3.01527e-09
-3.44129e-09
-2.72038e-09
-2.55773e-09
-2.42281e-09
-1.77512e-09
-2.1241e-09
-1.09315e-09
-1.82598e-09
-5.10824e-10
-1.53035e-09
-2.64542e-11
-1.23933e-09
3.62455e-10
-9.55326e-10
6.59281e-10
-6.81031e-10
8.68392e-10
-4.19532e-10
9.95256e-10
-1.74361e-10
1.04657e-09
5.04189e-11
1.03039e-09
2.50122e-10
9.56283e-10
4.19355e-10
8.35435e-10
5.51941e-10
6.80795e-10
6.40898e-10
5.07179e-10
6.78523e-10
3.31421e-10
6.56667e-10
1.72633e-10
5.6729e-10
5.29211e-11
4.0345e-10
1.60883e-10
2.35735e-11
-1.70182e-10
5.45243e-11
-3.19348e-10
6.23807e-11
-3.22525e-10
2.35783e-11
-2.10207e-10
-8.06666e-11
-7.03596e-12
-2.65265e-10
2.65798e-10
-5.41801e-10
5.90541e-10
-9.1901e-10
9.52572e-10
-1.40314e-09
1.33998e-09
-1.99831e-09
1.74312e-09
-2.70684e-09
2.15424e-09
-3.5295e-09
2.56714e-09
-4.46581e-09
2.97689e-09
-5.51424e-09
3.3796e-09
-6.67242e-09
3.77223e-09
-7.93727e-09
4.15243e-09
-9.3052e-09
4.51838e-09
-1.07722e-08
4.86876e-09
-1.23339e-08
5.20259e-09
-1.39857e-08
5.5192e-09
-1.57228e-08
5.81817e-09
-1.75405e-08
6.09928e-09
-1.94338e-08
6.36247e-09
-2.13976e-08
6.60781e-09
-2.34273e-08
6.83546e-09
-2.55177e-08
7.04568e-09
-2.76641e-08
7.23878e-09
-2.98618e-08
7.41511e-09
-3.2106e-08
7.57507e-09
-3.43922e-08
7.71907e-09
-3.67159e-08
7.84753e-09
-3.90728e-08
7.9609e-09
-4.14585e-08
8.05958e-09
-4.3869e-08
8.14401e-09
-4.63001e-08
8.2146e-09
-4.8748e-08
8.27173e-09
-5.12088e-08
8.31579e-09
-5.36787e-08
8.34713e-09
-5.61541e-08
8.36609e-09
-5.86314e-08
8.37298e-09
-6.11071e-08
8.36809e-09
-6.35778e-08
8.35167e-09
-6.60401e-08
8.32398e-09
-6.84906e-08
8.28523e-09
-7.09263e-08
8.23561e-09
-7.33438e-08
8.17529e-09
-7.57401e-08
8.10442e-09
-7.81119e-08
8.02314e-09
-8.04563e-08
7.93155e-09
-8.27702e-08
7.82975e-09
-8.50505e-08
7.71783e-09
-8.72943e-08
7.59585e-09
-8.94985e-08
7.46387e-09
-9.16603e-08
7.32194e-09
-9.37766e-08
7.17009e-09
-9.58446e-08
7.00837e-09
-9.78613e-08
6.8368e-09
-9.98238e-08
6.65543e-09
-1.01729e-07
6.46428e-09
-1.03575e-07
6.2634e-09
-1.05357e-07
6.05283e-09
-1.07074e-07
5.83262e-09
-1.08723e-07
5.60285e-09
-1.10301e-07
5.36359e-09
-1.11804e-07
5.11492e-09
-1.13231e-07
4.85697e-09
-1.14578e-07
4.58987e-09
-1.15844e-07
4.31375e-09
-1.17025e-07
4.0288e-09
-1.18119e-07
3.73521e-09
-1.19123e-07
3.43321e-09
-1.20036e-07
3.12304e-09
-1.20855e-07
2.80499e-09
-1.21577e-07
2.47937e-09
-1.22202e-07
2.1465e-09
-1.22726e-07
1.80678e-09
-1.23148e-07
1.46059e-09
-1.23466e-07
1.10838e-09
-1.23679e-07
7.50629e-10
-1.23785e-07
3.87829e-10
-1.23783e-07
2.05218e-11
-1.23672e-07
-3.50719e-10
-1.23451e-07
-7.25285e-10
-1.23119e-07
-1.10254e-09
-1.22676e-07
-1.48182e-09
-1.22121e-07
-1.86242e-09
-1.21455e-07
-2.2436e-09
-1.20677e-07
-2.62461e-09
-1.19788e-07
-3.00467e-09
-1.18788e-07
-3.38295e-09
-1.17679e-07
-3.75864e-09
-1.1646e-07
-4.13088e-09
-1.15134e-07
-4.49878e-09
-1.13703e-07
-4.86147e-09
-1.12167e-07
-5.21805e-09
-1.10529e-07
-5.56761e-09
-1.08791e-07
-5.90922e-09
-1.06957e-07
-6.24197e-09
-1.05028e-07
-6.56494e-09
-1.03008e-07
-6.87721e-09
-1.00901e-07
-7.17788e-09
-9.87096e-08
-7.46604e-09
-9.64381e-08
-7.74081e-09
-9.40907e-08
-8.00133e-09
-9.16717e-08
-8.24675e-09
-8.91857e-08
-8.47626e-09
-8.66377e-08
-8.68907e-09
-8.40326e-08
-8.88443e-09
-8.13757e-08
-9.06162e-09
-7.86725e-08
-9.21997e-09
-7.59286e-08
-9.35886e-09
-7.31497e-08
-9.47769e-09
-7.03419e-08
-9.57594e-09
-6.75112e-08
-9.65314e-09
-6.46638e-08
-9.70888e-09
-6.18059e-08
-9.74279e-09
-5.89441e-08
-9.75458e-09
-5.60846e-08
-9.74402e-09
-5.32339e-08
-9.71097e-09
-5.03986e-08
-9.65532e-09
-4.75852e-08
-9.57707e-09
-4.48001e-08
-9.47627e-09
-4.20499e-08
-9.35304e-09
-3.93407e-08
-9.2076e-09
-3.66791e-08
-9.04024e-09
-3.40711e-08
-8.8513e-09
-3.15228e-08
-8.64124e-09
-2.90401e-08
-8.41058e-09
-2.66287e-08
-8.15991e-09
-2.42942e-08
-7.88992e-09
-2.20418e-08
-7.60138e-09
-1.98766e-08
-7.29514e-09
-1.78034e-08
-6.97214e-09
-1.58266e-08
-6.6334e-09
-1.39504e-08
-6.28005e-09
-1.21784e-08
-5.91331e-09
-1.05142e-08
-5.53449e-09
-8.96064e-09
-5.14503e-09
-7.52022e-09
-4.74648e-09
-6.19495e-09
-4.34054e-09
-4.98632e-09
-3.92902e-09
-3.89519e-09
-3.51393e-09
-2.92184e-09
-3.09746e-09
-2.06581e-09
-2.682e-09
-1.32593e-09
-2.27023e-09
-7.00193e-10
-1.86507e-09
-1.85685e-10
-1.46983e-09
2.21489e-10
-1.0882e-09
5.26316e-10
-7.24358e-10
7.34973e-10
-3.83018e-10
8.54949e-10
-6.95566e-11
8.95155e-10
2.09916e-10
8.66054e-10
4.48457e-10
7.79775e-10
6.38223e-10
6.50236e-10
7.70436e-10
4.93314e-10
8.35444e-10
3.27086e-10
8.22895e-10
1.72277e-10
7.22099e-10
5.31704e-11
5.22557e-10
2.14054e-10
1.14623e-11
-1.81647e-10
1.10473e-11
-3.18933e-10
-2.93006e-11
-2.82183e-10
-1.31915e-10
-1.07588e-10
-3.1483e-10
1.75874e-10
-5.92456e-10
5.43428e-10
-9.76106e-10
9.74188e-10
-1.47436e-09
1.45082e-09
-2.0934e-09
1.95903e-09
-2.83737e-09
2.48708e-09
-3.70856e-09
3.02543e-09
-4.70774e-09
3.56632e-09
-5.83437e-09
4.10351e-09
-7.0868e-09
4.63203e-09
-8.46248e-09
5.14792e-09
-9.95812e-09
5.64806e-09
-1.15698e-08
6.13007e-09
-1.32932e-08
6.59213e-09
-1.51235e-08
7.03288e-09
-1.70556e-08
7.45138e-09
-1.90845e-08
7.84701e-09
-2.12046e-08
8.21939e-09
-2.34105e-08
8.56839e-09
-2.56967e-08
8.89402e-09
-2.80577e-08
9.19645e-09
-3.0488e-08
9.47596e-09
-3.29821e-08
9.73291e-09
-3.55347e-08
9.96772e-09
-3.81405e-08
1.01809e-08
-4.07943e-08
1.03729e-08
-4.3491e-08
1.05442e-08
-4.62257e-08
1.06955e-08
-4.89934e-08
1.08273e-08
-5.17893e-08
1.094e-08
-5.4609e-08
1.10342e-08
-5.74477e-08
1.11105e-08
-6.03012e-08
1.11692e-08
-6.3165e-08
1.12109e-08
-6.60349e-08
1.1236e-08
-6.89069e-08
1.12449e-08
-7.17767e-08
1.1238e-08
-7.46405e-08
1.12155e-08
-7.74944e-08
1.11779e-08
-8.03346e-08
1.11254e-08
-8.31572e-08
1.10582e-08
-8.59585e-08
1.09766e-08
-8.8735e-08
1.08809e-08
-9.14829e-08
1.0771e-08
-9.41987e-08
1.06474e-08
-9.68788e-08
1.05099e-08
-9.95198e-08
1.03588e-08
-1.02118e-07
1.01942e-08
-1.0467e-07
1.00161e-08
-1.07173e-07
9.82459e-09
-1.09623e-07
9.61976e-09
-1.12016e-07
9.40166e-09
-1.1435e-07
9.17034e-09
-1.1662e-07
8.92585e-09
-1.18824e-07
8.66824e-09
-1.20958e-07
8.39758e-09
-1.23019e-07
8.11393e-09
-1.25004e-07
7.81739e-09
-1.26909e-07
7.50804e-09
-1.28732e-07
7.186e-09
-1.30468e-07
6.85141e-09
-1.32115e-07
6.50442e-09
-1.33671e-07
6.1452e-09
-1.35131e-07
5.77399e-09
-1.36493e-07
5.391e-09
-1.37755e-07
4.99652e-09
-1.38912e-07
4.59085e-09
-1.39963e-07
4.17433e-09
-1.40906e-07
3.74735e-09
-1.41737e-07
3.31032e-09
-1.42454e-07
2.86371e-09
-1.43055e-07
2.40802e-09
-1.43538e-07
1.94379e-09
-1.43902e-07
1.47161e-09
-1.44143e-07
9.92127e-10
-1.44261e-07
5.06008e-10
-1.44255e-07
1.39775e-11
-1.44122e-07
-4.83199e-10
-1.43863e-07
-9.84709e-10
-1.43476e-07
-1.4897e-09
-1.4296e-07
-1.99728e-09
-1.42316e-07
-2.50651e-09
-1.41543e-07
-3.01641e-09
-1.40642e-07
-3.52598e-09
-1.39612e-07
-4.03418e-09
-1.38456e-07
-4.53991e-09
-1.37172e-07
-5.04208e-09
-1.35763e-07
-5.53955e-09
-1.34231e-07
-6.03116e-09
-1.32577e-07
-6.51574e-09
-1.30803e-07
-6.99208e-09
-1.28911e-07
-7.45899e-09
-1.26905e-07
-7.91524e-09
-1.24788e-07
-8.35962e-09
-1.22562e-07
-8.7909e-09
-1.20231e-07
-9.20789e-09
-1.178e-07
-9.60936e-09
-1.15271e-07
-9.99414e-09
-1.12651e-07
-1.03611e-08
-1.09944e-07
-1.0709e-08
-1.07154e-07
-1.10367e-08
-1.04287e-07
-1.13433e-08
-1.01348e-07
-1.16276e-08
-9.83436e-08
-1.18887e-08
-9.52796e-08
-1.21257e-08
-9.2162e-08
-1.23375e-08
-8.89974e-08
-1.25235e-08
-8.57924e-08
-1.26827e-08
-8.25537e-08
-1.28147e-08
-7.92882e-08
-1.29186e-08
-7.60031e-08
-1.2994e-08
-7.27056e-08
-1.30404e-08
-6.94028e-08
-1.30574e-08
-6.61021e-08
-1.30447e-08
-6.2811e-08
-1.30021e-08
-5.95367e-08
-1.29295e-08
-5.62868e-08
-1.2827e-08
-5.30687e-08
-1.26944e-08
-4.98896e-08
-1.25321e-08
-4.67569e-08
-1.23404e-08
-4.36776e-08
-1.21195e-08
-4.06589e-08
-1.187e-08
-3.77077e-08
-1.15925e-08
-3.48306e-08
-1.12877e-08
-3.20342e-08
-1.09563e-08
-2.93247e-08
-1.05994e-08
-2.67082e-08
-1.02179e-08
-2.41904e-08
-9.81295e-09
-2.17767e-08
-9.38585e-09
-1.94722e-08
-8.93796e-09
-1.72814e-08
-8.47079e-09
-1.52088e-08
-7.98596e-09
-1.3258e-08
-7.48524e-09
-1.14325e-08
-6.97056e-09
-9.73499e-09
-6.444e-09
-8.16774e-09
-5.90779e-09
-6.73237e-09
-5.36439e-09
-5.42985e-09
-4.81645e-09
-4.26044e-09
-4.26687e-09
-3.22362e-09
-3.71882e-09
-2.31806e-09
-3.1758e-09
-1.54148e-09
-2.64165e-09
-8.90665e-10
-2.12065e-09
-3.61303e-10
-1.61757e-09
5.20639e-11
-1.13772e-09
3.56147e-10
-6.87101e-10
5.59014e-10
-2.72424e-10
6.70196e-10
9.87348e-11
7.00788e-10
4.17866e-10
6.63574e-10
6.75437e-10
5.73157e-10
8.60851e-10
4.4616e-10
9.62441e-10
3.01526e-10
9.67529e-10
1.61028e-10
8.62597e-10
5.01537e-11
6.33432e-10
2.64208e-10
-2.287e-12
-1.79361e-10
-3.87248e-11
-2.82495e-10
-1.34185e-10
-1.86723e-10
-3.09049e-10
6.72721e-11
-5.79993e-10
4.46821e-10
-9.6049e-10
9.23924e-10
-1.46117e-09
1.47487e-09
-2.09013e-09
2.07979e-09
-2.85325e-09
2.72215e-09
-3.75439e-09
3.38823e-09
-4.7957e-09
4.06674e-09
-5.97778e-09
4.74839e-09
-7.29993e-09
5.42566e-09
-8.76033e-09
6.09244e-09
-1.03562e-08
6.74382e-09
-1.20841e-08
7.37593e-09
-1.39398e-08
7.98572e-09
-1.59185e-08
8.57086e-09
-1.80152e-08
9.12959e-09
-2.02245e-08
9.66064e-09
-2.25406e-08
1.01631e-08
-2.49578e-08
1.06366e-08
-2.747e-08
1.10807e-08
-3.00714e-08
1.14954e-08
-3.27558e-08
1.18808e-08
-3.55172e-08
1.22374e-08
-3.83496e-08
1.25653e-08
-4.12472e-08
1.28653e-08
-4.42039e-08
1.31377e-08
-4.72142e-08
1.33832e-08
-5.02724e-08
1.36024e-08
-5.33728e-08
1.37959e-08
-5.65101e-08
1.39646e-08
-5.96789e-08
1.41088e-08
-6.28741e-08
1.42294e-08
-6.60905e-08
1.43269e-08
-6.93232e-08
1.44019e-08
-7.25673e-08
1.4455e-08
-7.5818e-08
1.44868e-08
-7.90707e-08
1.44976e-08
-8.23208e-08
1.4488e-08
-8.55638e-08
1.44585e-08
-8.87953e-08
1.44094e-08
-9.20109e-08
1.4341e-08
-9.52064e-08
1.42537e-08
-9.83775e-08
1.41478e-08
-1.0152e-07
1.40235e-08
-1.0463e-07
1.38811e-08
-1.07704e-07
1.37208e-08
-1.10736e-07
1.35427e-08