/*--------------------------------*- C++ -*----------------------------------*\
  =========                 |
  \\      /  F ield         | OpenFOAM: The Open Source CFD Toolbox
   \\    /   O peration     | Website:  https://openfoam.org
    \\  /    A nd           | Version:  7
     \\/     M anipulation  |
\*---------------------------------------------------------------------------*/
FoamFile
{
    version     2.0;
    format      ascii;
    class       volScalarField;
    location    "0.1375";
    object      p;
}
// * * * * * * * * * * * * * * * * * * * * * * * * * * * * * * * * * * * * * //

dimensions      [0 2 -2 0 0 0 0];

internalField   nonuniform List<scalar> 
25600
(
-2.45662e-08
0.000109248
0.000135535
2.65166e-05
-0.000226106
-0.000618764
-0.00114078
-0.00177783
-0.00251457
-0.00333583
-0.00422711
-0.00517504
-0.00616714
-0.0071917
-0.008238
-0.00929613
-0.010357
-0.0114126
-0.0124553
-0.0134782
-0.0144749
-0.0154395
-0.0163669
-0.0172523
-0.0180913
-0.0188801
-0.0196151
-0.020293
-0.0209109
-0.0214663
-0.021957
-0.022381
-0.0227365
-0.0230219
-0.0232358
-0.0233773
-0.0234457
-0.0234404
-0.0233609
-0.0232068
-0.022978
-0.0226742
-0.0222958
-0.0218431
-0.0213167
-0.0207173
-0.0200454
-0.0193019
-0.0184877
-0.0176038
-0.0166513
-0.0156316
-0.0145461
-0.0133962
-0.0121834
-0.0109095
-0.0095761
-0.00818485
-0.00673753
-0.00523607
-0.00368247
-0.00207883
-0.000427183
0.00127037
0.00301164
0.00479439
0.00661631
0.00847502
0.0103682
0.0122933
0.014248
0.0162298
0.0182361
0.0202642
0.0223116
0.0243754
0.0264532
0.0285422
0.0306397
0.032743
0.0348493
0.0369559
0.0390599
0.0411584
0.0432488
0.0453281
0.0473937
0.0494428
0.0514724
0.0534799
0.0554624
0.0574173
0.0593418
0.0612333
0.063089
0.0649064
0.0666827
0.0684155
0.0701022
0.0717404
0.0733278
0.0748619
0.0763405
0.0777614
0.0791226
0.080422
0.0816577
0.0828278
0.0839305
0.0849643
0.0859277
0.0868193
0.0876378
0.088382
0.0890508
0.0896433
0.0901588
0.0905968
0.0909567
0.0912383
0.0914415
0.0915665
0.0916135
0.091583
0.0914758
0.0912926
0.0910346
0.0907032
0.0903
0.0898269
0.0892862
0.0886801
0.0880114
0.087283
0.0864983
0.085661
0.084775
0.0838446
0.0828744
0.0818697
0.0808363
0.0797803
0.0787085
0.0776281
0.0765468
0.075473
0.0744159
0.0733854
0.0723923
0.071448
0.0705647
0.0697557
0.0690347
0.068416
0.0679142
0.0675423
0.0673098
0.0672184
0.0672574
0.0673713
-0.000110329
-9.248e-08
2.64446e-06
-0.000118627
-0.000360073
-0.000720262
-0.00119269
-0.00176704
-0.00243146
-0.00317358
-0.00398124
-0.00484276
-0.005747
-0.00668349
-0.00764232
-0.00861434
-0.00959108
-0.0105647
-0.011528
-0.0124746
-0.0133981
-0.0142929
-0.015154
-0.0159765
-0.0167564
-0.0174898
-0.0181731
-0.0188031
-0.019377
-0.0198922
-0.0203462
-0.0207373
-0.0210635
-0.0213234
-0.0215155
-0.0216388
-0.0216925
-0.0216757
-0.0215882
-0.0214294
-0.0211992
-0.0208973
-0.020524
-0.0200795
-0.0195643
-0.018979
-0.0183241
-0.0176004
-0.0168087
-0.01595
-0.0150253
-0.0140359
-0.0129832
-0.0118684
-0.0106931
-0.00945871
-0.00816699
-0.00681951
-0.00541799
-0.00396425
-0.00246022
-0.000907821
0.000690958
0.00233405
0.00401934
0.00574465
0.00750779
0.00930649
0.0111384
0.0130013
0.0148927
0.0168102
0.0187513
0.0207136
0.0226943
0.0246911
0.0267012
0.0287221
0.0307512
0.0327859
0.0348234
0.0368611
0.0388962
0.0409261
0.042948
0.0449591
0.0469569
0.0489387
0.0509017
0.0528433
0.0547607
0.0566513
0.0585125
0.0603417
0.0621364
0.0638941
0.0656121
0.067288
0.0689194
0.0705039
0.0720394
0.0735236
0.0749543
0.0763293
0.0776468
0.0789047
0.0801013
0.0812347
0.0823034
0.0833059
0.0842406
0.0851062
0.0859016
0.0866258
0.0872776
0.0878563
0.0883612
0.0887918
0.0891478
0.0894289
0.0896351
0.0897665
0.0898236
0.0898069
0.089717
0.0895549
0.0893218
0.0890191
0.0886484
0.0882116
0.087711
0.0871489
0.0865279
0.085851
0.0851215
0.084343
0.0835194
0.0826548
0.081754
0.0808219
0.0798641
0.0788867
0.077896
0.0768989
0.0759028
0.0749157
0.073946
0.0730031
0.0720966
0.0712371
0.0704354
0.0697028
0.069051
0.0684915
0.0680353
0.0676918
0.0674662
0.0673587
0.0673714
0.0674853
-0.000137096
-1.91518e-06
1.37929e-06
-0.000120948
-0.000352642
-0.000690697
-0.00112962
-0.00166076
-0.00227406
-0.00295912
-0.00370539
-0.00450244
-0.00534031
-0.00620938
-0.00710061
-0.00800555
-0.00891621
-0.00982514
-0.0107256
-0.0116111
-0.0124758
-0.0133144
-0.0141218
-0.0148934
-0.0156252
-0.0163133
-0.0169543
-0.0175451
-0.0180827
-0.0185647
-0.0189885
-0.0193524
-0.0196544
-0.019893
-0.0200669
-0.0201751
-0.0202164
-0.0201903
-0.020096
-0.0199332
-0.0197017
-0.0194014
-0.0190323
-0.0185947
-0.0180888
-0.0175153
-0.0168746
-0.0161675
-0.0153947
-0.0145571
-0.0136558
-0.0126918
-0.0116666
-0.0105814
-0.00943756
-0.00823656
-0.00697994
-0.00566929
-0.00430632
-0.0028928
-0.00143054
7.86304e-05
0.00163282
0.00322999
0.00486807
0.00654497
0.00825853
0.0100066
0.0117869
0.0135972
0.0154351
0.0172984
0.0191846
0.0210913
0.0230158
0.0249559
0.026909
0.0288725
0.0308439
0.0328207
0.0348002
0.0367798
0.0387569
0.0407289
0.0426931
0.0446469
0.0465876
0.0485127
0.0504197
0.0523057
0.0541683
0.0560049
0.0578129
0.0595898
0.0613332
0.0630406
0.0647097
0.0663378
0.0679228
0.0694623
0.0709543
0.0723966
0.0737871
0.0751238
0.0764047
0.077628
0.0787918
0.0798946
0.0809349
0.0819111
0.0828218
0.0836658
0.084442
0.0851494
0.0857871
0.0863542
0.0868503
0.0872748
0.0876275
0.0879082
0.0881168
0.0882537
0.0883191
0.0883137
0.0882381
0.0880935
0.0878809
0.0876018
0.0872578
0.0868509
0.0863832
0.085857
0.085275
0.0846401
0.0839556
0.0832248
0.0824518
0.0816405
0.0807955
0.0799217
0.0790245
0.0781097
0.0771833
0.0762519
0.0753226
0.074403
0.0735009
0.0726249
0.0717841
0.0709879
0.0702462
0.0695688
0.068966
0.0684476
0.0680227
0.0676991
0.0674813
0.0673712
0.0673841
0.0675246
-2.70762e-05
0.000121272
0.000126264
3.91133e-06
-0.000222098
-0.000546712
-0.000964122
-0.00146612
-0.00204372
-0.00268765
-0.00338846
-0.0041369
-0.00492381
-0.00574033
-0.00657823
-0.00742958
-0.00828693
-0.00914336
-0.00999223
-0.0108275
-0.0116436
-0.0124353
-0.0131977
-0.0139266
-0.0146178
-0.0152676
-0.0158727
-0.0164299
-0.0169366
-0.0173901
-0.0177881
-0.0181285
-0.0184097
-0.01863
-0.0187881
-0.018883
-0.0189137
-0.0188794
-0.0187794
-0.0186132
-0.0183807
-0.0180817
-0.0177162
-0.0172845
-0.0167869
-0.0162237
-0.0155955
-0.014903
-0.0141469
-0.0133279
-0.012447
-0.0115056
-0.0105046
-0.0094454
-0.00832933
-0.00715777
-0.00593216
-0.00465405
-0.00332512
-0.00194709
-0.000521699
0.000949294
0.00246405
0.00402061
0.00561695
0.00725105
0.00892081
0.0106241
0.0123587
0.0141225
0.0159132
0.0177285
0.0195661
0.0214236
0.0232985
0.0251885
0.0270911
0.0290038
0.0309243
0.0328499
0.0347781
0.0367065
0.0386324
0.0405532
0.0424665
0.0443696
0.0462601
0.0481353
0.0499927
0.0518298
0.0536441
0.055433
0.0571941
0.058925
0.0606233
0.0622865
0.0639124
0.0654986
0.0670428
0.0685428
0.0699965
0.0714021
0.0727574
0.0740604
0.0753092
0.0765022
0.0776374
0.0787134
0.0797287
0.0806819
0.0815716
0.0823967
0.0831561
0.0838489
0.0844742
0.0850313
0.0855197
0.0859389
0.0862887
0.0865689
0.0867796
0.086921
0.0869936
0.0869979
0.0869347
0.0868049
0.0866099
0.086351
0.08603
0.0856485
0.0852089
0.0847133
0.0841643
0.0835649
0.0829182
0.0822277
0.0814971
0.0807303
0.0799319
0.0791066
0.0782595
0.0773961
0.0765222
0.0756442
0.0747686
0.0739028
0.0730541
0.0722304
0.0714402
0.0706919
0.0699946
0.0693572
0.0687889
0.0682984
0.067894
0.0675832
0.0673708
0.067261
0.0672769
0.067434
0.000227493
0.00036524
0.000360687
0.000232312
6.01633e-06
-0.000311867
-0.000715247
-0.00119626
-0.00174671
-0.00235812
-0.00302204
-0.00373008
-0.00447392
-0.00524558
-0.00603727
-0.00684174
-0.00765212
-0.00846172
-0.00926442
-0.0100545
-0.0108265
-0.0115755
-0.0122969
-0.0129866
-0.0136404
-0.0142549
-0.0148268
-0.015353
-0.0158308
-0.0162578
-0.0166315
-0.0169501
-0.0172118
-0.017415
-0.0175583
-0.0176408
-0.0176614
-0.0176193
-0.0175139
-0.0173446
-0.0171112
-0.0168135
-0.0164516
-0.0160256
-0.0155358
-0.0149826
-0.0143665
-0.0136879
-0.0129477
-0.0121466
-0.0112856
-0.0103656
-0.00938797
-0.00835377
-0.00726437
-0.00612108
-0.0049253
-0.00367853
-0.00238237
-0.00103848
0.000351469
0.00178575
0.00326256
0.00478002
0.0063362
0.00792911
0.00955668
0.0112168
0.0129075
0.0146265
0.0163718
0.0181409
0.0199317
0.0217419
0.023569
0.0254107
0.0272648
0.0291287
0.0310002
0.0328766
0.0347556
0.0366347
0.0385113
0.040383
0.0422473
0.0441018
0.0459439
0.0477712
0.0495812
0.0513713
0.0531391
0.0548823
0.0565984
0.0582852
0.0599402
0.0615611
0.0631456
0.0646915
0.0661965
0.0676587
0.069076
0.0704464
0.071768
0.0730387
0.074257
0.0754209
0.0765288
0.0775792
0.0785707
0.0795019
0.0803715
0.0811785
0.0819219
0.0826008
0.0832143
0.0837618
0.0842428
0.0846569
0.0850038
0.0852835
0.0854961
0.0856417
0.0857209
0.0857343
0.0856825
0.0855667
0.0853881
0.0851481
0.0848483
0.0844905
0.0840769
0.0836097
0.0830913
0.0825246
0.0819128
0.0812592
0.0805675
0.0798415
0.0790855
0.0783041
0.0775022
0.0766851
0.0758581
0.0750275
0.0741994
0.0733807
0.0725782
0.0717994
0.0710518
0.0703434
0.0696824
0.0690768
0.0685349
0.0680647
0.067674
0.0673699
0.0671578
0.0670431
0.0670519
0.0672029
0.000622316
0.000728164
0.000701544
0.000559287
0.000325545
7.25873e-06
-0.000389496
-0.000857326
-0.00138858
-0.00197561
-0.00261066
-0.00328605
-0.00399443
-0.00472841
-0.00548086
-0.00624508
-0.00701459
-0.00778319
-0.00854514
-0.00929499
-0.0100276
-0.0107384
-0.0114227
-0.0120768
-0.0126967
-0.013279
-0.0138204
-0.0143181
-0.0147695
-0.0151719
-0.0155232
-0.0158215
-0.0160651
-0.0162525
-0.0163822
-0.0164532
-0.0164644
-0.0164151
-0.0163046
-0.0161325
-0.0158984
-0.0156021
-0.0152437
-0.0148232
-0.014341
-0.0137973
-0.0131926
-0.0125274
-0.0118025
-0.0110184
-0.0101763
-0.00927698
-0.0083216
-0.00731132
-0.00624739
-0.00513109
-0.00396381
-0.00274701
-0.00148221
-0.000170995
0.00118504
0.00258422
0.00402475
0.00550482
0.00702256
0.00857604
0.0101632
0.0117822
0.0134308
0.015107
0.0168087
0.0185337
0.0202797
0.0220446
0.023826
0.0256217
0.0274294
0.0292466
0.0310712
0.0329006
0.0347326
0.0365645
0.0383941
0.0402189
0.0420366
0.0438446
0.0456406
0.0474221
0.0491867
0.050932
0.0526556
0.0543551
0.0560284
0.057673
0.0592868
0.0608674
0.0624125
0.06392
0.0653878
0.066814
0.0681966
0.0695335
0.070823
0.0720631
0.0732522
0.0743885
0.0754705
0.0764966
0.0774654
0.0783757
0.0792263
0.0800162
0.0807444
0.08141
0.0820123
0.0825506
0.0830245
0.0834336
0.0837778
0.0840569
0.0842711
0.0844206
0.0845059
0.0845276
0.0844864
0.0843835
0.0842201
0.0839974
0.0837171
0.0833811
0.0829914
0.0825502
0.0820598
0.081523
0.080943
0.080323
0.0796665
0.0789774
0.0782595
0.0775175
0.0767559
0.0759797
0.0751941
0.074405
0.0736182
0.07284
0.0720769
0.0713357
0.0706233
0.0699471
0.0693145
0.0687331
0.0682101
0.0677529
0.0673687
0.0670646
0.0668461
0.0667194
0.0667092
0.0668333
0.00114663
0.00120367
0.00114368
0.000979503
0.000730957
0.000404906
7.36652e-06
-0.000454775
-0.000974556
-0.00154489
-0.00215873
-0.0028092
-0.00348944
-0.00419283
-0.0049129
-0.00564336
-0.00637819
-0.00711168
-0.00783837
-0.00855313
-0.0092512
-0.0099281
-0.0105796
-0.0112019
-0.0117914
-0.0123448
-0.0128588
-0.0133307
-0.013758
-0.0141382
-0.0144692
-0.014749
-0.014976
-0.0151488
-0.015266
-0.0153264
-0.0153292
-0.0152734
-0.0151584
-0.0149837
-0.014749
-0.0144542
-0.0140992
-0.0136841
-0.013209
-0.0126744
-0.0120807
-0.0114282
-0.0107177
-0.00994995
-0.00912569
-0.00824592
-0.00731169
-0.0063241
-0.00528434
-0.00419365
-0.0030534
-0.00186503
-0.000629981
0.000650258
0.00197411
0.00333993
0.00474603
0.00619064
0.00767191
0.00918796
0.0107368
0.0123166
0.0139253
0.0155609
0.0172213
0.0189044
0.020608
0.0223299
0.024068
0.02582
0.0275837
0.0293568
0.0311369
0.0329218
0.0347091
0.0364964
0.0382815
0.0400619
0.0418353
0.0435994
0.0453517
0.0470899
0.0488115
0.0505144
0.0521961
0.0538545
0.0554872
0.057092
0.0586668
0.0602092
0.0617171
0.0631884
0.0646212
0.0660134
0.0673632
0.0686686
0.0699278
0.071139
0.0723006
0.0734109
0.0744683
0.0754715
0.076419
0.0773097
0.0781424
0.0789161
0.07963
0.0802831
0.0808748
0.0814044
0.0818715
0.0822759
0.0826173
0.0828957
0.0831113
0.0832642
0.083355
0.0833842
0.0833527
0.0832615
0.0831118
0.0829049
0.0826424
0.0823261
0.081958
0.0815402
0.0810751
0.0805653
0.0800138
0.0794239
0.0787989
0.0781425
0.0774584
0.076751
0.0760246
0.075284
0.0745342
0.0737806
0.0730288
0.0722847
0.071554
0.0708433
0.0701588
0.0695074
0.0688959
0.0683311
0.0678196
0.0673682
0.0669836
0.0666725
0.0664405
0.0662938
0.0662536
0.066334
0.0017866
0.00178201
0.00167906
0.0014854
0.00121499
0.000874176
0.000468913
5.46314e-06
-0.000509778
-0.0010704
-0.00167004
-0.00230244
-0.00296135
-0.00364075
-0.00433468
-0.00503735
-0.00574329
-0.00644708
-0.00714365
-0.00782822
-0.00849629
-0.00914358
-0.00976617
-0.0103604
-0.0109229
-0.0114504
-0.0119399
-0.0123886
-0.0127942
-0.0131543
-0.0134669
-0.01373
-0.013942
-0.0141016
-0.0142074
-0.0142582
-0.0142533
-0.0141916
-0.0140726
-0.0138958
-0.0136608
-0.0133676
-0.0130159
-0.012606
-0.0121378
-0.0116119
-0.0110285
-0.0103881
-0.00969145
-0.00893908
-0.00813181
-0.00727057
-0.00635638
-0.00539028
-0.00437342
-0.00330704
-0.00219246
-0.00103102
0.000175858
0.00142673
0.00272006
0.00405426
0.0054277
0.00683867
0.00828536
0.00976591
0.0112785
0.0128211
0.014392
0.0159891
0.0176103
0.0192537
0.0209171
0.0225984
0.0242954
0.026006
0.027728
0.0294592
0.0311973
0.03294
0.0346851
0.0364302
0.0381731
0.0399115
0.0416431
0.0433656
0.0450766
0.0467738
0.0484549
0.0501176
0.0517598
0.0533792
0.0549736
0.0565409
0.0580788
0.0595852
0.0610581
0.0624953
0.063895
0.0652552
0.0665741
0.0678497
0.0690804
0.0702644
0.0714
0.0724858
0.0735202
0.0745017
0.0754292
0.0763014
0.0771173
0.0778758
0.0785761
0.0792175
0.0797991
0.0803204
0.0807811
0.0811809
0.0815196
0.0817972
0.0820138
0.0821697
0.0822654
0.0823014
0.0822786
0.0821979
0.0820606
0.0818679
0.0816214
0.0813228
0.0809741
0.0805774
0.080135
0.0796493
0.0791233
0.0785601
0.077963
0.0773353
0.0766808
0.0760035
0.0753076
0.0745977
0.0738784
0.0731548
0.0724321
0.0717158
0.0710113
0.0703245
0.0696614
0.0690281
0.0684308
0.0678757
0.0673689
0.0669166
0.0665251
0.0662003
0.0659479
0.0657738
0.065694
0.0657175
0.00252785
0.00245218
0.00229852
0.00206865
0.00176982
0.00140794
0.000988585
0.000517512
5.33416e-07
-0.000556714
-0.00114845
-0.00176897
-0.00241274
-0.00307413
-0.0037477
-0.00442818
-0.00511047
-0.0057896
-0.00646086
-0.00711976
-0.00776208
-0.00838382
-0.00898125
-0.00955087
-0.0100895
-0.0105941
-0.0110618
-0.0114899
-0.0118761
-0.0122182
-0.0125142
-0.0127622
-0.0129608
-0.0131085
-0.0132041
-0.0132463
-0.0132344
-0.0131675
-0.0130451
-0.0128665
-0.0126315
-0.0123399
-0.0119916
-0.0115866
-0.0111251
-0.0106074
-0.0100339
-0.00940513
-0.00872155
-0.0079838
-0.00719266
-0.00634901
-0.0054538
-0.00450805
-0.00351289
-0.00246954
-0.00137927
-0.000243371
0.000936825
0.00215988
0.00342431
0.00472856
0.00607107
0.00745014
0.00886404
0.010311
0.0117891
0.0132967
0.0148317
0.0163923
0.0179765
0.0195822
0.0212076
0.0228504
0.0245086
0.02618
0.0278626
0.0295541
0.0312524
0.0329553
0.0346604
0.0363656
0.0380687
0.0397673
0.0414594
0.0431425
0.0448145
0.046473
0.0481158
0.0497407
0.0513456
0.0529282
0.0544865
0.0560184
0.0575216
0.0589941
0.0604339
0.0618391
0.0632077
0.0645377
0.0658274
0.0670751
0.0682789
0.0694372
0.0705485
0.0716112
0.0726238
0.073585
0.0744937
0.0753485
0.0761486
0.0768928
0.0775803
0.0782105
0.0787826
0.0792961
0.0797506
0.080146
0.080482
0.0807586
0.0809759
0.0811344
0.0812343
0.0812764
0.0812613
0.0811901
0.0810638
0.0808838
0.0806515
0.0803688
0.0800375
0.0796596
0.0792372
0.078773
0.0782695
0.0777298
0.077157
0.0765544
0.0759255
0.0752741
0.0746044
0.0739204
0.0732267
0.0725279
0.0718289
0.0711348
0.0704507
0.0697819
0.069134
0.0685127
0.0679234
0.0673718
0.0668636
0.0664043
0.0659996
0.0656551
0.065376
0.0651679
0.0650405
0.0649976
0.00335638
0.00320292
0.00299238
0.00272054
0.0023876
0.00199897
0.00155996
0.00107565
0.000551138
-8.4334e-06
-0.000597935
-0.00121232
-0.00184647
-0.00249531
-0.00315386
-0.00381729
-0.00448086
-0.00514004
-0.00579044
-0.00642791
-0.00704848
-0.00764846
-0.0082243
-0.00877266
-0.00929056
-0.00977511
-0.0102236
-0.0106335
-0.0110026
-0.0113286
-0.0116099
-0.0118445
-0.0120311
-0.0121681
-0.0122545
-0.0122892
-0.0122712
-0.0121997
-0.0120743
-0.0118944
-0.0116596
-0.0113697
-0.0110247
-0.0106246
-0.0101695
-0.00965974
-0.00909571
-0.00847787
-0.00780672
-0.00708283
-0.00630698
-0.00547999
-0.00460275
-0.00367626
-0.00270165
-0.00168009
-0.000612807
0.000498965
0.00165392
0.00285066
0.00408774
0.00536367
0.00667691
0.00802582
0.0094087
0.0108238
0.0122695
0.0137438
0.0152449
0.016771
0.0183202
0.0198904
0.0214798
0.0230862
0.0247077
0.0263422
0.0279875
0.0296416
0.0313023
0.0329675
0.0346349
0.0363024
0.0379678
0.039629
0.0412838
0.0429298
0.044565
0.046187
0.0477937
0.049383
0.0509527
0.0525007
0.054025
0.0555235
0.0569941
0.0584348
0.0598435
0.0612185
0.0625578
0.0638595
0.0651219
0.0663432
0.0675218
0.068656
0.0697444
0.0707854
0.0717776
0.0727198
0.0736107
0.0744492
0.0752344
0.0759651
0.0766407
0.0772603
0.0778234
0.0783295
0.0787781
0.0791692
0.0795024
0.0797779
0.0799957
0.0801563
0.0802599
0.0803073
0.080299
0.080236
0.0801195
0.0799508
0.0797312
0.0794625
0.0791466
0.0787852
0.0783805
0.077935
0.0774512
0.0769319
0.0763802
0.0757991
0.0751921
0.0745628
0.073915
0.0732526
0.0725798
0.071901
0.0712206
0.0705435
0.0698744
0.0692182
0.06858
0.0679649
0.067378
0.0668243
0.066309
0.0658372
0.0654139
0.0650442
0.0647328
0.0644851
0.0643039
0.0641875
0.00425889
0.00402292
0.00375085
0.00343241
0.00306055
0.00264028
0.00217671
0.00167412
0.001137
0.000569905
-2.26134e-05
-0.000635969
-0.00126556
-0.00190683
-0.00255521
-0.0032063
-0.00385574
-0.00449937
-0.0051331
-0.00575308
-0.00635567
-0.00693743
-0.00749503
-0.00802533
-0.00852543
-0.00899267
-0.00942447
-0.00981853
-0.0101725
-0.0104846
-0.0107528
-0.0109756
-0.0111515
-0.0112793
-0.0113576
-0.0113856
-0.0113623
-0.0112869
-0.011159
-0.0109781
-0.0107437
-0.0104557
-0.010114
-0.00971862
-0.00926971
-0.00876756
-0.00821258
-0.00760516
-0.00694578
-0.00623504
-0.00547364
-0.00466238
-0.00380213
-0.00289387
-0.00193868
-0.000937706
0.000107889
0.0011969
0.00232803
0.00349991
0.00471117
0.00596035
0.00724595
0.00856637
0.00991997
0.0113051
0.01272
0.014163
0.0156321
0.0171257
0.0186418
0.0201785
0.0217339
0.0233061
0.024893
0.0264925
0.0281027
0.0297216
0.0313468
0.0329764
0.0346083
0.0362403
0.0378703
0.0394962
0.0411158
0.0427269
0.0443274
0.0459151
0.0474879
0.0490436
0.0505803
0.0520959
0.0535883
0.0550554
0.0564954
0.0579062
0.0592859
0.0606325
0.0619444
0.0632195
0.0644562
0.0656528
0.0668078
0.0679194
0.0689863
0.070007
0.0709802
0.0719044
0.0727788
0.073602
0.0743732
0.0750913
0.0757555
0.0763653
0.0769199
0.0774189
0.0778619
0.0782488
0.0785793
0.0788535
0.0790716
0.0792337
0.0793405
0.0793923
0.0793899
0.0793342
0.0792263
0.0790675
0.0788591
0.0786027
0.0783001
0.0779531
0.0775638
0.0771345
0.0766676
0.0761659
0.0756321
0.0750693
0.0744806
0.0738697
0.0732399
0.0725949
0.0719387
0.0712753
0.0706089
0.069944
0.069285
0.0686363
0.0680027
0.0673887
0.066799
0.0662382
0.0657108
0.0652215
0.0647748
0.0643749
0.0640265
0.0637345
0.0634948
0.0633001
0.00522304
0.00490147
0.00456442
0.00419571
0.00378105
0.00332508
0.00283259
0.0023073
0.00175302
0.00117374
0.000573548
-4.34218e-05
-0.000673078
-0.00131129
-0.00195392
-0.00259698
-0.00323651
-0.00386864
-0.00448963
-0.00509589
-0.00568403
-0.00625089
-0.00679339
-0.00730859
-0.00779371
-0.00824625
-0.00866382
-0.00904416
-0.00938522
-0.00968511
-0.00994208
-0.0101546
-0.0103213
-0.0104408
-0.0105122
-0.0105344
-0.0105065
-0.0104279
-0.0102981
-0.0101165
-0.00988276
-0.00959675
-0.00925834
-0.00886757
-0.00842461
-0.00792977
-0.00738338
-0.00678584
-0.00613762
-0.00543931
-0.00469157
-0.00389515
-0.00305092
-0.00215985
-0.00122299
-0.000241419
0.000783749
0.00185131
0.00295998
0.00410844
0.00529536
0.00651933
0.00777887
0.00907245
0.0103985
0.0117553
0.0131413
0.0145547
0.0159937
0.0174566
0.0189416
0.0204468
0.0219703
0.0235102
0.0250645
0.0266312
0.0282083
0.0297939
0.0313858
0.032982
0.0345805
0.0361791
0.0377758
0.0393684
0.040955
0.0425333
0.0441013
0.0456568
0.0471977
0.0487221
0.0502278
0.051713
0.0531754
0.0546133
0.0560246
0.0574074
0.0587598
0.06008
0.0613661
0.0626164
0.0638291
0.0650027
0.0661356
0.0672262
0.068273
0.0692747
0.07023
0.0711376
0.0719964
0.0728053
0.0735634
0.0742696
0.0749233
0.0755238
0.0760704
0.0765627
0.0770004
0.0773832
0.077711
0.0779838
0.0782018
0.0783652
0.0784744
0.0785301
0.0785327
0.0784833
0.0783829
0.0782326
0.0780338
0.0777881
0.077497
0.0771624
0.0767863
0.0763707
0.0759182
0.0754312
0.0749125
0.0743648
0.0737913
0.0731951
0.0725796
0.0719482
0.0713045
0.0706523
0.0699957
0.0693386
0.0686852
0.0680394
0.0674057
0.0667882
0.0661911
0.0656185
0.0650746
0.0645634
0.0640888
0.0636547
0.0632653
0.0629253
0.0626236
0.0623471
0.00623763
0.00582854
0.00542408
0.00500235
0.00454172
0.00404654
0.00352147
0.00296958
0.0023941
0.00179854
0.00118655
0.000561759
-7.2124e-05
-0.000711398
-0.00135234
-0.00199134
-0.00262479
-0.00324915
-0.00386101
-0.00445705
-0.00503408
-0.00558919
-0.00611955
-0.00662241
-0.0070952
-0.00753549
-0.00794116
-0.00830995
-0.00863999
-0.00892951
-0.00917685
-0.00938052
-0.00953925
-0.00965182
-0.0097172
-0.00973447
-0.00970286
-0.00962167
-0.00949034
-0.00930841
-0.00907559
-0.00879167
-0.00845656
-0.00807032
-0.00763314
-0.00714528
-0.00660706
-0.00601888
-0.00538123
-0.00469465
-0.00395976
-0.00317732
-0.00234819
-0.00147332
-0.000553692
0.000409642
0.00141558
0.00246295
0.00355051
0.00467696
0.00584099
0.00704124
0.00827628
0.00954462
0.0108447
0.012175
0.0135338
0.0149194
0.0163301
0.0177642
0.01922
0.0206955
0.022189
0.0236985
0.0252222
0.0267581
0.0283042
0.0298585
0.0314191
0.032984
0.0345511
0.0361184
0.0376839
0.0392454
0.040801
0.0423486
0.0438861
0.0454114
0.0469227
0.0484177
0.0498945
0.0513512
0.0527857
0.0541962
0.0555807
0.0569374
0.0582644
0.0595598
0.060822
0.062049
0.0632395
0.0643917
0.065504
0.0665749
0.0676031
0.0685872
0.0695259
0.0704179
0.0712622
0.0720578
0.0728036
0.0734987
0.0741425
0.0747343
0.0752734
0.0757594
0.076192
0.0765709
0.076896
0.0771673
0.0773849
0.0775491
0.0776604
0.0777191
0.077726
0.077682
0.0775879
0.077445
0.0772544
0.0770176
0.0767363
0.0764122
0.0760471
0.0756431
0.0752025
0.0747277
0.0742213
0.0736859
0.0731243
0.0725397
0.071935
0.0713135
0.0706786
0.0700338
0.0693829
0.0687296
0.0680776
0.0674306
0.0667925
0.0661672
0.0655586
0.0649702
0.0644057
0.0638687
0.0633626
0.0628906
0.0624571
0.0620661
0.0616999
0.0613395
0.00729249
0.00679491
0.00632147
0.00584452
0.00533536
0.00479806
0.00423724
0.00365537
0.00305522
0.00243979
0.0018123
0.00117597
0.000534113
-0.000109971
-0.000752943
-0.00139151
-0.00202239
-0.0026424
-0.00324844
-0.00383747
-0.00440651
-0.00495283
-0.00547385
-0.00596701
-0.00642992
-0.00686031
-0.00725616
-0.00761547
-0.00793638
-0.00821719
-0.00845642
-0.00865267
-0.00880471
-0.00891143
-0.00897184
-0.00898508
-0.00895041
-0.00886716
-0.0087348
-0.00855293
-0.00832124
-0.00803951
-0.00770772
-0.00732594
-0.00689434
-0.00641314
-0.00588267
-0.00530336
-0.00467567
-0.00400011
-0.00327732
-0.00250804
-0.00169312
-0.000833453
7.00026e-05
0.00101623
0.00200412
0.00303253
0.00410026
0.00520606
0.00634863
0.00752662
0.00873867
0.00998336
0.0112592
0.0125645
0.0138978
0.0152573
0.0166415
0.0180486
0.019477
0.0209248
0.0223901
0.0238712
0.0253662
0.0268732
0.0283902
0.0299154
0.0314467
0.0329823
0.0345201
0.0360581
0.0375943
0.0391268
0.0406534
0.0421723
0.0436814
0.0451787
0.0466621
0.0481298
0.0495797
0.0510098
0.0524183
0.0538033
0.0551629
0.0564953
0.0577985
0.059071
0.0603109
0.0615165
0.0626862
0.0638185
0.0649117
0.0659645
0.0669754
0.0679431
0.0688663
0.0697439
0.0705747
0.0713579
0.0720923
0.0727772
0.0734117
0.0739953
0.0745274
0.0750075
0.0754352
0.0758103
0.0761327
0.0764024
0.0766194
0.0767841
0.0768969
0.0769581
0.0769685
0.0769289
0.0768402
0.0767033
0.0765196
0.0762903
0.0760171
0.0757016
0.0753457
0.0749511
0.0745202
0.0740552
0.0735584
0.0730324
0.0724799
0.0719036
0.0713065
0.0706916
0.0700621
0.0694213
0.0687725
0.0681192
0.0674648
0.0668127
0.0661665
0.0655298
0.0649058
0.0642979
0.0637092
0.063143
0.0626022
0.0620895
0.0616091
0.061165
0.0607324
0.060287
0.00837833
0.00779204
0.00724865
0.00671487
0.00615511
0.00557332
0.00497404
0.00435933
0.00373147
0.00309302
0.00244677
0.00179559
0.00114238
0.000490098
-0.00015827
-0.000799712
-0.00143129
-0.00205011
-0.00265338
-0.00323832
-0.00380221
-0.00434248
-0.00485674
-0.00534269
-0.00579803
-0.00622074
-0.0066088
-0.00696048
-0.00727399
-0.00754774
-0.00778033
-0.0079705
-0.00811705
-0.00821899
-0.00827539
-0.00828544
-0.00824838
-0.00816364
-0.00803071
-0.00784921
-0.00761884
-0.00733944
-0.00701099
-0.00663357
-0.00620734
-0.00573249
-0.00520938
-0.00463845
-0.00402013
-0.00335492
-0.00264347
-0.00188655
-0.00108497
-0.000239549
0.000648768
0.00157895
0.00254993
0.00356061
0.0046098
0.00569626
0.00681873
0.00797593
0.00916652
0.0103891
0.0116422
0.0129242
0.0142336
0.0155688
0.0169282
0.0183101
0.0197128
0.0211346
0.0225738
0.0240283
0.0254965
0.0269765
0.0284664
0.0299644
0.0314684
0.0329766
0.0344871
0.0359978
0.0375068
0.0390121
0.0405119
0.042004
0.0434867
0.0449579
0.0464155
0.0478578
0.0492826
0.0506881
0.0520724
0.0534338
0.0547703
0.0560801
0.0573614
0.0586126
0.0598318
0.0610175
0.0621681
0.063282
0.0643577
0.0653936
0.0663885
0.0673411
0.0682501
0.0691143
0.0699327
0.0707044
0.0714283
0.0721036
0.0727295
0.0733056
0.073831
0.0743055
0.0747286
0.0751001
0.0754199
0.0756878
0.0759041
0.0760689
0.0761827
0.0762459
0.076259
0.076223
0.0761385
0.0760067
0.0758285
0.0756053
0.0753386
0.0750301
0.0746814
0.0742944
0.073871
0.0734134
0.0729238
0.0724046
0.0718583
0.0712875
0.0706951
0.0700838
0.0694566
0.0688164
0.0681663
0.0675096
0.0668494
0.0661888
0.0655311
0.0648794
0.0642368
0.0636061
0.0629902
0.0623919
0.0618137
0.0612578
0.0607285
0.0602295
0.0597294
0.0591985
0.0094867
0.00881192
0.00819803
0.00760634
0.00699441
0.00636618
0.00572627
0.00507631
0.00441809
0.00375384
0.00308594
0.00241694
0.00174937
0.00108587
0.000429108
-0.000218244
-0.0008535
-0.00147404
-0.00207733
-0.00266091
-0.00322227
-0.00375901
-0.00426893
-0.00474992
-0.00519987
-0.00561687
-0.00599914
-0.00634494
-0.00665268
-0.00692091
-0.00714827
-0.0073336
-0.00747583
-0.00757402
-0.00762732
-0.00763492
-0.00759614
-0.00751044
-0.00737736
-0.00719654
-0.00696769
-0.00669072
-0.00636563
-0.00599246
-0.00557135
-0.00510257
-0.00458645
-0.0040234
-0.00341386
-0.00275837
-0.00205758
-0.00131222
-0.000523082
0.000309009
0.00118315
0.00209835
0.00305356
0.00404768
0.00507956
0.006148
0.00725176
0.00838957
0.00956015
0.0107621
0.011994
0.0132543
0.0145415
0.015854
0.0171903
0.0185487
0.0199276
0.0213253
0.0227399
0.0241698
0.0256131
0.027068
0.0285327
0.0300053
0.031484
0.0329668
0.0344519
0.0359373
0.037421
0.0389012
0.040376
0.0418434
0.0433016
0.0447485
0.0461823
0.0476009
0.0490026
0.0503853
0.0517473
0.0530868
0.0544019
0.0556909
0.056952
0.0581836
0.0593838
0.0605512
0.0616842
0.0627812
0.0638406
0.0648611
0.0658414
0.06678
0.0676759
0.0685279
0.0693349
0.070096
0.0708102
0.0714767
0.0720948
0.0726638
0.0731831
0.0736523
0.074071
0.0744391
0.0747562
0.0750224
0.0752377
0.0754024
0.0755168
0.0755813
0.0755966
0.0755632
0.0754821
0.075354
0.0751802
0.0749618
0.0747003
0.0743972
0.074054
0.0736726
0.0732546
0.0728023
0.0723176
0.0718027
0.0712601
0.0706923
0.0701018
0.0694912
0.0688633
0.0682207
0.0675663
0.0669031
0.066234
0.0655619
0.0648896
0.06422
0.0635557
0.0628994
0.0622535
0.0616207
0.0610029
0.0604018
0.0598219
0.0592668
0.0586986
0.0580823
0.0106099
0.00984714
0.00916262
0.0085123
0.00784706
0.00717092
0.00648863
0.00580136
0.00511055
0.00441806
0.00372597
0.00303649
0.00235187
0.00167446
0.00100659
0.000350618
-0.000291009
-0.000915931
-0.00152186
-0.00210659
-0.00266782
-0.00320336
-0.00371117
-0.0041893
-0.00463589
-0.00504907
-0.00542728
-0.0057689
-0.00607243
-0.00633655
-0.00656002
-0.00674172
-0.00688071
-0.00697613
-0.00702715
-0.00703301
-0.00699313
-0.00690698
-0.00677412
-0.00659424
-0.00636713
-0.00609269
-0.00577092
-0.00540187
-0.0049857
-0.00452267
-0.00401314
-0.00345752
-0.00285623
-0.00220984
-0.00151901
-0.000784467
-6.94753e-06
0.000812743
0.00167369
0.00257492
0.00351544
0.00449418
0.00550999
0.00656168
0.00764805
0.00876788
0.0099199
0.0111027
0.012315
0.0135551
0.0148217
0.0161132
0.017428
0.0187646
0.0201214
0.0214966
0.0228886
0.0242956
0.0257159
0.0271475
0.0285888
0.0300381
0.0314933
0.0329527
0.0344143
0.0358762
0.0373366
0.0387936
0.0402453
0.0416899
0.0431255
0.0445501
0.0459618
0.0473587
0.048739
0.0501007
0.0514422
0.0527616
0.0540571
0.055327
0.0565695
0.0577831
0.0589659
0.0601166
0.0612334
0.0623149
0.0633595
0.0643659
0.0653327
0.0662587
0.0671427
0.0679835
0.0687802
0.0695317
0.0702371
0.0708955
0.0715063
0.0720688
0.0725824
0.0730468
0.0734614
0.0738261
0.0741408
0.0744051
0.0746193
0.0747836
0.0748982
0.0749636
0.0749802
0.0749488
0.0748701
0.0747449
0.0745743
0.0743595
0.0741018
0.0738026
0.0734634
0.0730857
0.0726713
0.0722222
0.0717402
0.0712274
0.0706862
0.0701189
0.0695278
0.0689153
0.0682839
0.0676361
0.0669747
0.0663023
0.0656215
0.0649349
0.0642453
0.063555
0.0628665
0.0621821
0.061504
0.0608345
0.0601751
0.0595273
0.0588956
0.0582836
0.057647
0.0569457
0.011741
0.0108911
0.0101361
0.00942667
0.00870736
0.00798221
0.00725605
0.00652976
0.00580443
0.00508163
0.00436311
0.00365083
0.00294679
0.00225305
0.00157163
0.000904606
0.000254148
-0.000377589
-0.000988532
-0.0015767
-0.00214004
-0.00267652
-0.00318427
-0.00366151
-0.00410656
-0.00451775
-0.00489355
-0.00523252
-0.00553333
-0.00579467
-0.00601545
-0.00619467
-0.00633146
-0.00642498
-0.00647449
-0.00647931
-0.00643887
-0.00635272
-0.00622045
-0.00604177
-0.00581654
-0.0055447
-0.00522623
-0.00486116
-0.00444972
-0.00399218
-0.00348887
-0.0029402
-0.00234664
-0.00170878
-0.00102726
-0.000302762
0.000463972
0.00127212
0.0021208
0.00300909
0.00393602