/*--------------------------------*- C++ -*----------------------------------*\
  =========                 |
  \\      /  F ield         | OpenFOAM: The Open Source CFD Toolbox
   \\    /   O peration     | Website:  https://openfoam.org
    \\  /    A nd           | Version:  7
     \\/     M anipulation  |
\*---------------------------------------------------------------------------*/
FoamFile
{
    version     2.0;
    format      ascii;
    class       surfaceScalarField;
    location    "0.1375";
    object      phi;
}
// * * * * * * * * * * * * * * * * * * * * * * * * * * * * * * * * * * * * * //

dimensions      [0 3 -1 0 0 0 0];

internalField   nonuniform List<scalar> 
50880
(
6.21289e-12
-6.20193e-12
3.61588e-11
-2.99451e-11
8.05133e-11
-4.43507e-11
1.29526e-10
-4.9013e-11
1.76174e-10
-4.66453e-11
2.15517e-10
-3.93426e-11
2.44144e-10
-2.86258e-11
2.59737e-10
-1.55939e-11
2.60765e-10
-1.02814e-12
2.46259e-10
1.45053e-11
2.15658e-10
3.05996e-11
1.68693e-10
4.69679e-11
1.05315e-10
6.33749e-11
2.56583e-11
7.96578e-11
-7.00212e-11
9.56813e-11
-1.81361e-10
1.11341e-10
-3.07919e-10
1.26559e-10
-4.49197e-10
1.41279e-10
-6.04646e-10
1.55449e-10
-7.73688e-10
1.6904e-10
-9.55704e-10
1.82015e-10
-1.15006e-09
1.94355e-10
-1.35611e-09
2.06048e-10
-1.57318e-09
2.17073e-10
-1.80062e-09
2.27433e-10
-2.03773e-09
2.37116e-10
-2.28386e-09
2.46126e-10
-2.53832e-09
2.5446e-10
-2.80044e-09
2.62126e-10
-3.06956e-09
2.69119e-10
-3.34502e-09
2.75456e-10
-3.62616e-09
2.81142e-10
-3.91234e-09
2.86178e-10
-4.20291e-09
2.90572e-10
-4.49725e-09
2.94337e-10
-4.79473e-09
2.97483e-10
-5.09475e-09
3.00016e-10
-5.3967e-09
3.01953e-10
-5.70001e-09
3.03306e-10
-6.00409e-09
3.0408e-10
-6.30838e-09
3.04288e-10
-6.61232e-09
3.03943e-10
-6.91538e-09
3.03055e-10
-7.21701e-09
3.01637e-10
-7.51671e-09
2.99703e-10
-7.81398e-09
2.97266e-10
-8.10831e-09
2.94335e-10
-8.39924e-09
2.90924e-10
-8.68629e-09
2.87047e-10
-8.96901e-09
2.82718e-10
-9.24695e-09
2.77946e-10
-9.5197e-09
2.72745e-10
-9.78683e-09
2.6713e-10
-1.00479e-08
2.61116e-10
-1.03027e-08
2.54714e-10
-1.05506e-08
2.47938e-10
-1.07914e-08
2.40801e-10
-1.10247e-08
2.33313e-10
-1.12502e-08
2.25487e-10
-1.14675e-08
2.17337e-10
-1.16764e-08
2.08877e-10
-1.18765e-08
2.00123e-10
-1.20676e-08
1.91086e-10
-1.22494e-08
1.81779e-10
-1.24216e-08
1.72215e-10
-1.2584e-08
1.6241e-10
-1.27364e-08
1.52379e-10
-1.28785e-08
1.42135e-10
-1.30102e-08
1.31691e-10
-1.31313e-08
1.21059e-10
-1.32415e-08
1.10252e-10
-1.33408e-08
9.92853e-11
-1.3429e-08
8.81727e-11
-1.35059e-08
7.69294e-11
-1.35715e-08
6.55707e-11
-1.36256e-08
5.41118e-11
-1.36682e-08
4.25659e-11
-1.36991e-08
3.09464e-11
-1.37184e-08
1.92684e-11
-1.37259e-08
7.54564e-12
-1.37217e-08
-4.20608e-12
-1.37058e-08
-1.59676e-11
-1.36781e-08
-2.77229e-11
-1.36386e-08
-3.94589e-11
-1.35874e-08
-5.11591e-11
-1.35246e-08
-6.28072e-11
-1.34502e-08
-7.439e-11
-1.33643e-08
-8.58903e-11
-1.3267e-08
-9.72883e-11
-1.31585e-08
-1.0857e-10
-1.30388e-08
-1.1972e-10
-1.2908e-08
-1.3072e-10
-1.27665e-08
-1.41554e-10
-1.26143e-08
-1.52207e-10
-1.24516e-08
-1.62662e-10
-1.22787e-08
-1.72897e-10
-1.20958e-08
-1.82897e-10
-1.19032e-08
-1.92647e-10
-1.17011e-08
-2.0213e-10
-1.14897e-08
-2.11326e-10
-1.12695e-08
-2.20221e-10
-1.10407e-08
-2.28799e-10
-1.08037e-08
-2.3704e-10
-1.05587e-08
-2.44927e-10
-1.03063e-08
-2.52443e-10
-1.00467e-08
-2.59574e-10
-9.78042e-09
-2.66301e-10
-9.50782e-09
-2.72605e-10
-9.22935e-09
-2.78472e-10
-8.94546e-09
-2.83889e-10
-8.65662e-09
-2.88841e-10
-8.36331e-09
-2.93308e-10
-8.06603e-09
-2.97278e-10
-7.76529e-09
-3.0074e-10
-7.46161e-09
-3.03678e-10
-7.15553e-09
-3.06076e-10
-6.84761e-09
-3.0792e-10
-6.53841e-09
-3.09199e-10
-6.22851e-09
-3.099e-10
-5.91851e-09
-3.10007e-10
-5.609e-09
-3.09509e-10
-5.3006e-09
-3.08398e-10
-4.99394e-09
-3.06663e-10
-4.68964e-09
-3.04295e-10
-4.38836e-09
-3.01284e-10
-4.09073e-09
-2.97625e-10
-3.79742e-09
-2.93313e-10
-3.50908e-09
-2.88339e-10
-3.22638e-09
-2.82698e-10
-2.95e-09
-2.76389e-10
-2.68059e-09
-2.69408e-10
-2.41883e-09
-2.61753e-10
-2.16541e-09
-2.53423e-10
-1.92099e-09
-2.44419e-10
-1.68624e-09
-2.34748e-10
-1.46183e-09
-2.24416e-10
-1.2484e-09
-2.1343e-10
-1.0466e-09
-2.01801e-10
-8.57055e-10
-1.89541e-10
-6.80383e-10
-1.76672e-10
-5.17166e-10
-1.63217e-10
-3.67956e-10
-1.49207e-10
-2.33274e-10
-1.3468e-10
-1.13594e-10
-1.1968e-10
-9.33134e-12
-1.04262e-10
7.91629e-11
-8.84938e-11
1.51625e-10
-7.24614e-11
2.07899e-10
-5.62731e-11
2.47968e-10
-4.00678e-11
2.71991e-10
-2.40218e-11
2.80352e-10
-8.36195e-12
2.73738e-10
6.61309e-12
2.53238e-10
2.05004e-11
2.20495e-10
3.27434e-11
1.77932e-10
4.25643e-11
1.29056e-10
4.8877e-11
7.88634e-11
5.01938e-11
3.44012e-11
4.44639e-11
5.29371e-12
2.91071e-11
5.29317e-12
3.0128e-11
-3.63254e-11
1.0079e-10
-1.00619e-10
1.94118e-10
-1.37683e-10
2.93314e-10
-1.48208e-10
3.84192e-10
-1.37528e-10
4.55619e-10
-1.10772e-10
4.99181e-10
-7.21858e-11
5.08714e-10
-2.51279e-11
4.79836e-10
2.7851e-11
4.0955e-10
8.47914e-11
2.95927e-10
1.44225e-10
1.37883e-10
2.05015e-10
-6.50252e-11
2.66285e-10
-3.12727e-10
3.2736e-10
-6.04746e-10
3.87699e-10
-9.40294e-10
4.46889e-10
-1.31833e-09
5.04594e-10
-1.73761e-09
5.60553e-10
-2.19672e-09
6.14566e-10
-2.69414e-09
6.6646e-10
-3.22824e-09
7.16111e-10
-3.7973e-09
7.6342e-10
-4.39956e-09
8.08304e-10
-5.03319e-09
8.5071e-10
-5.69636e-09
8.90601e-10
-6.38718e-09
9.27938e-10
-7.10378e-09
9.6272e-10
-7.84425e-09
9.94932e-10
-8.60671e-09
1.02458e-09
-9.38927e-09
1.05168e-09
-1.01901e-08
1.07624e-09
-1.10072e-08
1.09829e-09
-1.18389e-08
1.11784e-09
-1.26832e-08
1.13493e-09
-1.35384e-08
1.14957e-09
-1.44028e-08
1.16182e-09
-1.52745e-08
1.1717e-09
-1.61518e-08
1.17925e-09
-1.7033e-08
1.18453e-09
-1.79165e-08
1.18756e-09
-1.88006e-08
1.1884e-09
-1.96837e-08
1.18707e-09
-2.05643e-08
1.18364e-09
-2.14408e-08
1.17813e-09
-2.23117e-08
1.17062e-09
-2.31756e-08
1.16113e-09
-2.4031e-08
1.14973e-09
-2.48765e-08
1.13644e-09
-2.57108e-08
1.12134e-09
-2.65325e-08
1.10446e-09
-2.73404e-08
1.08585e-09
-2.81332e-08
1.06556e-09
-2.89098e-08
1.04366e-09
-2.96688e-08
1.02018e-09
-3.04093e-08
9.95188e-10
-3.11301e-08
9.68724e-10
-3.18301e-08
9.40841e-10
-3.25084e-08
9.11587e-10
-3.31639e-08
8.81014e-10
-3.37958e-08
8.49173e-10
-3.4403e-08
8.1612e-10
-3.49848e-08
7.81907e-10
-3.55403e-08
7.46587e-10
-3.60687e-08
7.1021e-10
-3.65694e-08
6.7283e-10
-3.70414e-08
6.34503e-10
-3.74844e-08
5.95285e-10
-3.78974e-08
5.55229e-10
-3.82801e-08
5.14388e-10
-3.86319e-08
4.72814e-10
-3.89522e-08
4.30559e-10
-3.92406e-08
3.87679e-10
-3.94967e-08
3.44232e-10
-3.972e-08
3.00276e-10
-3.99103e-08
2.55869e-10
-4.00673e-08
2.11066e-10
-4.01906e-08
1.65925e-10
-4.02802e-08
1.20502e-10
-4.03358e-08
7.48542e-11
-4.03573e-08
2.90423e-11
-4.03446e-08
-1.68752e-11
-4.02977e-08
-6.28376e-11
-4.02167e-08
-1.0878e-10
-4.01015e-08
-1.5464e-10
-3.99523e-08
-2.00356e-10
-3.97692e-08
-2.45866e-10
-3.95525e-08
-2.91105e-10
-3.93024e-08
-3.36015e-10
-3.90192e-08
-3.80532e-10
-3.87031e-08
-4.24591e-10
-3.83547e-08
-4.68128e-10
-3.79744e-08
-5.11078e-10
-3.75625e-08
-5.53375e-10
-3.71198e-08
-5.94952e-10
-3.66467e-08
-6.35743e-10
-3.61439e-08
-6.75682e-10
-3.56121e-08
-7.14702e-10
-3.5052e-08
-7.52737e-10
-3.44644e-08
-7.8972e-10
-3.38502e-08
-8.25586e-10
-3.32101e-08
-8.6027e-10
-3.25452e-08
-8.93703e-10
-3.18565e-08
-9.25821e-10
-3.11448e-08
-9.56556e-10
-3.04114e-08
-9.85845e-10
-2.96574e-08
-1.01362e-09
-2.88839e-08
-1.03982e-09
-2.80921e-08
-1.06438e-09
-2.72833e-08
-1.08723e-09
-2.64589e-08
-1.10832e-09
-2.56201e-08
-1.12759e-09
-2.47685e-08
-1.14498e-09
-2.39053e-08
-1.16043e-09
-2.30322e-08
-1.17389e-09
-2.21505e-08
-1.1853e-09
-2.1262e-08
-1.19462e-09
-2.03681e-08
-1.20178e-09
-1.94706e-08
-1.20673e-09
-1.85711e-08
-1.20944e-09
-1.76712e-08
-1.20985e-09
-1.67728e-08
-1.20791e-09
-1.58776e-08
-1.2036e-09
-1.49874e-08
-1.19686e-09
-1.4104e-08
-1.18767e-09
-1.32293e-08
-1.176e-09
-1.23651e-08
-1.16182e-09
-1.15133e-08
-1.14511e-09
-1.06758e-08
-1.12585e-09
-9.85447e-09
-1.10403e-09
-9.05123e-09
-1.07963e-09
-8.268e-09
-1.05264e-09
-7.50669e-09
-1.02307e-09
-6.7692e-09
-9.90913e-10
-6.05742e-09
-9.56196e-10
-5.37323e-09
-9.18936e-10
-4.71848e-09
-8.79165e-10
-4.09498e-09
-8.36925e-10
-3.50451e-09
-7.92266e-10
-2.94879e-09
-7.45258e-10
-2.42947e-09
-6.95988e-10
-1.94813e-09
-6.44562e-10
-1.50623e-09
-5.91109e-10
-1.10512e-09
-5.35787e-10
-7.46006e-10
-4.78791e-10
-4.29909e-10
-4.20357e-10
-1.57628e-10
-3.60775e-10
7.03086e-11
-3.00398e-10
2.53708e-10
-2.39673e-10
3.92794e-10
-1.79153e-10
4.88309e-10
-1.19535e-10
5.41652e-10
-6.17028e-11
5.55056e-10
-6.78863e-12
5.31822e-10
4.37367e-11
4.76615e-10
8.79509e-11
3.95843e-10
1.23335e-10
2.98097e-10
1.46622e-10
1.94598e-10
1.53692e-10
9.94458e-11
1.39614e-10
2.90557e-11
9.94961e-11
3.43497e-11
4.47261e-11
-8.10529e-11
1.38414e-10
-1.943e-10
2.54613e-10
-2.53883e-10
3.71917e-10
-2.65511e-10
4.72223e-10
-2.37834e-10
5.40766e-10
-1.79314e-10
5.65915e-10
-9.73365e-11
5.38757e-10
2.03146e-12
4.52684e-10
1.13924e-10
3.02971e-10
2.34506e-10
8.6428e-11
3.60766e-10
-1.98889e-10
4.90331e-10
-5.53933e-10
6.21331e-10
-9.78847e-10
7.52274e-10
-1.47313e-09
8.81983e-10
-2.03576e-09
1.00951e-09
-2.66527e-09
1.13411e-09
-3.35989e-09
1.25517e-09
-4.11753e-09
1.37221e-09
-4.9359e-09
1.48483e-09
-5.81253e-09
1.59274e-09
-6.7448e-09
1.69569e-09
-7.72998e-09
1.79348e-09
-8.76524e-09
1.88597e-09
-9.8477e-09
1.97306e-09
-1.09744e-08
2.05466e-09
-1.21424e-08
2.13073e-09
-1.33487e-08
2.20125e-09
-1.45904e-08
2.2662e-09
-1.58643e-08
2.3256e-09
-1.71675e-08
2.37947e-09
-1.84971e-08
2.42784e-09
-1.985e-08
2.47077e-09
-2.12234e-08
2.5083e-09
-2.26143e-08
2.5405e-09
-2.40199e-08
2.56743e-09
-2.54374e-08
2.58917e-09
-2.68639e-08
2.6058e-09
-2.82968e-08
2.6174e-09
-2.97333e-08
2.62408e-09
-3.11708e-08
2.62591e-09
-3.26068e-08
2.62299e-09
-3.40385e-08
2.61541e-09
-3.54637e-08
2.60328e-09
-3.68798e-08
2.5867e-09
-3.82844e-08
2.56577e-09
-3.96753e-08
2.54059e-09
-4.10501e-08
2.51128e-09
-4.24067e-08
2.47794e-09
-4.37429e-08
2.44067e-09
-4.50567e-08
2.39958e-09
-4.63459e-08
2.3548e-09
-4.76086e-08
2.30642e-09
-4.8843e-08
2.25456e-09
-5.00472e-08
2.19934e-09
-5.12193e-08
2.14087e-09
-5.23577e-08
2.07925e-09
-5.34607e-08
2.0146e-09
-5.45267e-08
1.94703e-09
-5.55542e-08
1.87666e-09
-5.65417e-08
1.8036e-09
-5.74878e-08
1.72797e-09
-5.83911e-08
1.64989e-09
-5.92503e-08
1.56947e-09
-6.00644e-08
1.48684e-09
-6.0832e-08
1.4021e-09
-6.15521e-08
1.31539e-09
-6.22237e-08
1.22682e-09
-6.28458e-08
1.13652e-09
-6.34176e-08
1.04459e-09
-6.39382e-08
9.51159e-10
-6.44068e-08
8.56352e-10
-6.48229e-08
7.60292e-10
-6.51857e-08
6.63105e-10
-6.54948e-08
5.6492e-10
-6.57496e-08
4.65864e-10
-6.59497e-08
3.66062e-10
-6.60949e-08
2.65642e-10
-6.61847e-08
1.64732e-10
-6.62192e-08
6.34639e-11
-6.6198e-08
-3.8027e-11
-6.61212e-08
-1.39607e-10
-6.59889e-08
-2.41141e-10
-6.5801e-08
-3.42491e-10
-6.55579e-08
-4.43518e-10
-6.52596e-08
-5.44085e-10
-6.49067e-08
-6.44053e-10
-6.44994e-08
-7.43281e-10
-6.40383e-08
-8.4163e-10
-6.3524e-08
-9.38962e-10
-6.2957e-08
-1.03513e-09
-6.2338e-08
-1.13e-09
-6.1668e-08
-1.22341e-09
-6.09477e-08
-1.31522e-09
-6.01782e-08
-1.40529e-09
-5.93604e-08
-1.49347e-09
-5.84955e-08
-1.57962e-09
-5.75846e-08
-1.66358e-09
-5.66291e-08
-1.74521e-09
-5.56304e-08
-1.82437e-09
-5.45897e-08
-1.90091e-09
-5.35088e-08
-1.97468e-09
-5.2389e-08
-2.04554e-09
-5.12322e-08
-2.11334e-09
-5.00401e-08
-2.17795e-09
-4.88146e-08
-2.23921e-09
-4.75574e-08
-2.29699e-09
-4.62706e-08
-2.35114e-09
-4.49563e-08
-2.40154e-09
-4.36166e-08
-2.44805e-09
-4.22536e-08
-2.49053e-09
-4.08698e-08
-2.52887e-09
-3.94673e-08
-2.56293e-09
-3.80486e-08
-2.5926e-09
-3.66161e-08
-2.61775e-09
-3.51724e-08
-2.63828e-09
-3.37202e-08
-2.65406e-09
-3.22619e-08
-2.66499e-09
-3.08004e-08
-2.67097e-09
-2.93383e-08
-2.67189e-09
-2.78786e-08
-2.66767e-09
-2.6424e-08
-2.65822e-09
-2.49774e-08
-2.64346e-09
-2.35417e-08
-2.62331e-09
-2.212e-08
-2.59772e-09
-2.07152e-08
-2.56664e-09
-1.93303e-08
-2.53001e-09
-1.79684e-08
-2.4878e-09
-1.66324e-08
-2.43998e-09
-1.53255e-08
-2.38653e-09
-1.40507e-08
-2.32745e-09
-1.2811e-08
-2.26274e-09
-1.16095e-08
-2.19243e-09
-1.04491e-08
-2.11655e-09
-9.3329e-09
-2.03517e-09
-8.2637e-09
-1.94837e-09
-7.24438e-09
-1.85625e-09
-6.2777e-09
-1.75894e-09
-5.36634e-09
-1.65662e-09
-4.51285e-09
-1.54948e-09
-3.71962e-09
-1.43779e-09
-2.98888e-09
-1.32185e-09
-2.32264e-09
-1.20202e-09
-1.72266e-09
-1.07877e-09
-1.1904e-09
-9.52621e-10
-7.26924e-10
-8.24249e-10
-3.32862e-10
-6.94458e-10
-8.29449e-12
-5.64241e-10
2.47368e-10
-4.34817e-10
4.35531e-10
-3.077e-10
5.58604e-10
-1.84776e-10
6.20232e-10
-6.84157e-11
6.25578e-10
3.83917e-11
5.81655e-10
1.31873e-10
4.97713e-10
2.0728e-10
3.85623e-10
2.58715e-10
2.60229e-10
2.79084e-10
1.39504e-10
2.60336e-10
4.43744e-11
1.94626e-10
7.87252e-11
4.94349e-11
-1.30487e-10
1.49274e-10
-2.94142e-10
2.67036e-10
-3.71641e-10
3.77691e-10
-3.76166e-10
4.60578e-10
-3.2072e-10
4.98744e-10
-2.17481e-10
4.78555e-10
-7.71465e-11
3.89287e-10
9.12967e-11
2.22758e-10
2.80452e-10
-2.70671e-11
4.84332e-10
-3.644e-10
6.981e-10
-7.91942e-10
9.17875e-10
-1.31114e-09
1.14053e-09
-1.9224e-09
1.36354e-09
-2.62529e-09
1.58487e-09
-3.41865e-09
1.80288e-09
-4.30077e-09
2.01623e-09
-5.26944e-09
2.22384e-09
-6.32207e-09
2.42483e-09
-7.45574e-09
2.6185e-09
-8.66727e-09
2.80428e-09
-9.95329e-09
2.9817e-09
-1.13102e-08
3.15041e-09
-1.27344e-08
3.31013e-09
-1.4222e-08
3.46064e-09
-1.57691e-08
3.60179e-09
-1.73718e-08
3.73345e-09
-1.90262e-08
3.85559e-09
-2.07281e-08
3.96815e-09
-2.24737e-08
4.07115e-09
-2.42588e-08
4.16461e-09
-2.60795e-08
4.24857e-09
-2.79319e-08
4.32311e-09
-2.98119e-08
4.38829e-09
-3.17156e-08
4.44422e-09
-3.36392e-08
4.49102e-09
-3.55788e-08
4.52879e-09
-3.75307e-08
4.55768e-09
-3.94911e-08
4.57783e-09
-4.14564e-08
4.58938e-09
-4.3423e-08
4.5925e-09
-4.53874e-08
4.58733e-09
-4.7346e-08
4.57405e-09
-4.92955e-08
4.55282e-09
-5.12327e-08
4.52382e-09
-5.31541e-08
4.48722e-09
-5.50567e-08
4.44321e-09
-5.69374e-08
4.39196e-09
-5.87932e-08
4.33367e-09
-6.0621e-08
4.26852e-09
-6.24181e-08
4.19669e-09
-6.41817e-08
4.11839e-09
-6.59091e-08
4.0338e-09
-6.75977e-08
3.94312e-09
-6.92449e-08
3.84655e-09
-7.08483e-08
3.74428e-09
-7.24055e-08
3.63651e-09
-7.39144e-08
3.52343e-09
-7.53726e-08
3.40524e-09
-7.67781e-08
3.28214e-09
-7.81288e-08
3.15434e-09
-7.94229e-08
3.02204e-09
-8.06584e-08
2.88544e-09
-8.18337e-08
2.74475e-09
-8.29471e-08
2.60018e-09
-8.39969e-08
2.45193e-09
-8.49817e-08
2.30022e-09
-8.59001e-08
2.14525e-09
-8.67509e-08
1.98723e-09
-8.75327e-08
1.82639e-09
-8.82444e-08
1.66292e-09
-8.88851e-08
1.49704e-09
-8.94538e-08
1.32897e-09
-8.99496e-08
1.15893e-09
-9.03718e-08
9.87153e-10
-9.07198e-08
8.13851e-10
-9.0993e-08
6.3925e-10
-9.11909e-08
4.63573e-10
-9.13133e-08
2.87048e-10
-9.13597e-08
1.09905e-10
-9.13301e-08
-6.76218e-11
-9.12244e-08
-2.45295e-10
-9.10427e-08
-4.22875e-10
-9.07851e-08
-6.00126e-10
-9.04518e-08
-7.76805e-10
-9.00432e-08
-9.5267e-10
-8.95598e-08
-1.12748e-09
-8.90021e-08
-1.30099e-09
-8.83707e-08
-1.47295e-09
-8.76666e-08
-1.64312e-09
-8.68905e-08
-1.81124e-09
-8.60434e-08
-1.97707e-09
-8.51265e-08
-2.14035e-09
-8.41409e-08
-2.30082e-09
-8.30879e-08
-2.45823e-09
-8.19691e-08
-2.61233e-09
-8.07858e-08
-2.76286e-09
-7.95398e-08
-2.90956e-09
-7.82329e-08
-3.05218e-09
-7.68668e-08
-3.19047e-09
-7.54435e-08
-3.32417e-09
-7.39652e-08
-3.45303e-09
-7.24339e-08
-3.57679e-09
-7.0852e-08
-3.6952e-09
-6.9222e-08
-3.80802e-09
-6.75462e-08
-3.91499e-09
-6.58273e-08
-4.01588e-09
-6.4068e-08
-4.11044e-09
-6.22711e-08
-4.19844e-09
-6.04395e-08
-4.27964e-09
-5.85762e-08
-4.35382e-09
-5.66843e-08
-4.42075e-09
-5.4767e-08
-4.48023e-09
-5.28276e-08
-4.53203e-09
-5.08694e-08
-4.57596e-09
-4.88958e-08
-4.61182e-09
-4.69105e-08
-4.63941e-09
-4.49169e-08
-4.65855e-09
-4.29188e-08
-4.66906e-09
-4.092e-08
-4.67078e-09
-3.89241e-08
-4.66355e-09
-3.69351e-08
-4.64722e-09
-3.49569e-08
-4.62166e-09
-3.29934e-08
-4.58676e-09
-3.10487e-08
-4.54241e-09
-2.91269e-08
-4.48852e-09
-2.72318e-08
-4.42502e-09
-2.53678e-08
-4.35184e-09
-2.35388e-08
-4.26896e-09
-2.1749e-08
-4.17635e-09
-2.00024e-08
-4.074e-09
-1.83032e-08
-3.96196e-09
-1.66554e-08
-3.84027e-09
-1.50629e-08
-3.70901e-09
-1.35298e-08
-3.56831e-09
-1.20598e-08
-3.41833e-09
-1.06568e-08
-3.25926e-09
-9.32438e-09
-3.09137e-09
-8.06603e-09
-2.91497e-09
-6.88508e-09
-2.73044e-09
-5.78462e-09
-2.53825e-09
-4.76752e-09
-2.33896e-09
-3.8363e-09
-2.13324e-09
-2.99317e-09
-1.9219e-09
-2.23987e-09
-1.70592e-09
-1.57765e-09
-1.48647e-09
-1.00713e-09
-1.26497e-09
-5.28237e-10
-1.04314e-09
-1.39978e-10
-8.23075e-10
1.59666e-10
-6.07343e-10
3.73978e-10
-3.99088e-10
5.07742e-10
-2.02182e-10
5.67533e-10
-2.14011e-11
5.62034e-10
1.37373e-10
5.02375e-10
2.66941e-10
4.02486e-10
3.58604e-10
2.79445e-10
4.02123e-10
1.53806e-10
3.85975e-10
5.01558e-11
2.98277e-10
1.28881e-10
4.71281e-11
-1.77617e-10
1.39033e-10
-3.86046e-10
2.40422e-10
-4.73032e-10
3.24031e-10
-4.59779e-10
3.67627e-10
-3.64315e-10
3.52953e-10
-2.02808e-10
2.65183e-10
1.06231e-11
9.24822e-11
2.63998e-10
-1.74371e-10
5.47304e-10
-5.42311e-10
8.5227e-10
-1.0163e-09
1.17209e-09
-1.59963e-09
1.5012e-09
-2.29416e-09
1.83506e-09
-3.10054e-09
2.16992e-09
-4.01842e-09
2.50275e-09
-5.04658e-09
2.83104e-09
-6.18312e-09
3.15276e-09
-7.4255e-09
3.46622e-09
-8.77072e-09
3.77006e-09
-1.02154e-08
4.06314e-09
-1.17557e-08
4.34457e-09
-1.33876e-08
4.61361e-09
-1.51068e-08
4.86966e-09
-1.69089e-08
5.11225e-09
-1.87893e-08
5.34104e-09
-2.07433e-08
5.55573e-09
-2.2766e-08
5.75614e-09
-2.48525e-08
5.94214e-09
-2.6998e-08
6.11366e-09
-2.91975e-08
6.27066e-09
-3.14461e-08
6.41318e-09
-3.37388e-08
6.54126e-09
-3.60707e-08
6.65499e-09
-3.84369e-08
6.75448e-09
-4.08325e-08
6.83985e-09
-4.32527e-08
6.91127e-09
-4.56928e-08
6.9689e-09
-4.81481e-08
7.01295e-09
-5.06139e-08
7.04362e-09
-5.30857e-08
7.06113e-09
-5.55589e-08
7.06571e-09
-5.80291e-08
7.05759e-09
-6.04921e-08
7.03703e-09
-6.29436e-08
7.00428e-09
-6.53793e-08
6.95959e-09
-6.77954e-08
6.90324e-09
-7.01877e-08
6.83549e-09
-7.25523e-08
6.75664e-09
-7.48856e-08
6.66695e-09
-7.71838e-08
6.56671e-09
-7.94433e-08
6.45621e-09
-8.16607e-08
6.33574e-09
-8.38325e-08
6.20561e-09
-8.59554e-08
6.06611e-09
-8.80264e-08
5.91753e-09
-9.00423e-08
5.76018e-09
-9.20002e-08
5.59435e-09
-9.38971e-08
5.42036e-09
-9.57303e-08
5.2385e-09
-9.74973e-08
5.04909e-09
-9.91954e-08
4.85243e-09
-1.00822e-07
4.64885e-09
-1.02375e-07
4.43864e-09
-1.03853e-07
4.22214e-09
-1.05252e-07
3.99966e-09
-1.06572e-07
3.77152e-09
-1.0781e-07
3.53804e-09
-1.08964e-07
3.29955e-09
-1.10033e-07
3.05637e-09
-1.11016e-07
2.80884e-09
-1.1191e-07
2.55726e-09
-1.12715e-07
2.30199e-09
-1.13429e-07
2.04336e-09
-1.14052e-07
1.7817e-09
-1.14582e-07
1.51736e-09
-1.15019e-07
1.25068e-09
-1.15362e-07
9.82009e-10
-1.1561e-07
7.11696e-10
-1.15763e-07
4.40087e-10
-1.15821e-07
1.6754e-10
-1.15783e-07
-1.05586e-10
-1.15649e-07
-3.78927e-10
-1.1542e-07
-6.52116e-10
-1.15095e-07
-9.24784e-10
-1.14675e-07
-1.19656e-09
-1.14161e-07
-1.46707e-09
-1.13552e-07
-1.73594e-09
-1.12851e-07
-2.00281e-09
-1.12056e-07
-2.26727e-09
-1.1117e-07
-2.52897e-09
-1.10194e-07
-2.7875e-09
-1.09129e-07
-3.04249e-09
-1.07976e-07
-3.29354e-09
-1.06736e-07
-3.54025e-09
-1.05412e-07
-3.78226e-09
-1.04005e-07
-4.01915e-09
-1.02518e-07
-4.25053e-09
-1.00951e-07
-4.47603e-09
-9.93082e-08
-4.69523e-09
-9.75909e-08
-4.90776e-09
-9.58018e-08
-5.11323e-09
-9.39436e-08
-5.31124e-09
-9.2019e-08
-5.50141e-09
-9.00308e-08
-5.68335e-09
-8.79822e-08
-5.85669e-09
-8.58761e-08
-6.02105e-09
-8.37159e-08
-6.17605e-09
-8.15051e-08
-6.32133e-09
-7.9247e-08
-6.45653e-09
-7.69453e-08
-6.58129e-09
-7.46039e-08
-6.69527e-09
-7.22265e-08
-6.79812e-09
-6.98172e-08
-6.88953e-09
-6.73801e-08
-6.96917e-09
-6.49193e-08
-7.03672e-09
-6.24392e-08
-7.09189e-09
-5.99443e-08
-7.13439e-09
-5.74389e-08
-7.16395e-09
-5.49276e-08
-7.18029e-09
-5.24152e-08
-7.18317e-09
-4.99064e-08
-7.17235e-09
-4.7406e-08
-7.14762e-09
-4.49189e-08
-7.10879e-09
-4.245e-08
-7.05568e-09
-4.00043e-08
-6.98813e-09
-3.75868e-08
-6.90603e-09
-3.52025e-08
-6.80927e-09
-3.28566e-08
-6.69777e-09
-3.05541e-08
-6.57149e-09
-2.83e-08
-6.4304e-09
-2.60995e-08
-6.27453e-09
-2.39575e-08
-6.10394e-09
-2.1879e-08
-5.91872e-09
-1.9869e-08
-5.71904e-09
-1.79322e-08
-5.50509e-09
-1.60734e-08
-5.27715e-09
-1.42971e-08
-5.03555e-09
-1.26078e-08
-4.78071e-09
-1.10096e-08
-4.51315e-09
-9.50654e-09
-4.23348e-09
-8.10234e-09
-3.94244e-09
-6.80036e-09
-3.64094e-09
-5.60357e-09
-3.33003e-09
-4.5145e-09
-3.01097e-09
-3.53512e-09
-2.68529e-09
-2.6668e-09
-2.35479e-09
-1.91013e-09
-2.02164e-09
-1.26482e-09
-1.68844e-09
-7.29572e-10
-1.35832e-09
-3.01842e-10
-1.03507e-09
2.23296e-11
-7.23259e-10
2.48575e-10
-4.28427e-10
3.8446e-10
-1.57286e-10
4.39776e-10
8.20596e-11
4.26843e-10
2.79874e-10
3.60855e-10
4.24591e-10
2.60271e-10
5.02709e-10
1.47327e-10
4.98922e-10
4.90008e-11
3.96602e-10
1.77882e-10
3.99864e-11
-2.17603e-10
1.12972e-10
-4.59027e-10
1.83435e-10
-5.43494e-10
2.23316e-10
-4.99658e-10
2.0968e-10
-3.50678e-10
1.23665e-10
-1.16795e-10
-5.01469e-11
1.84435e-10
-3.24186e-10
5.3804e-10
-7.08265e-10
9.31382e-10
-1.20987e-09
1.35387e-09
-1.83445e-09
1.79667e-09
-2.58569e-09
2.25245e-09
-3.46575e-09
2.71511e-09
-4.47546e-09
3.17962e-09
-5.61452e-09
3.6418e-09
-6.88167e-09
4.0982e-09
-8.27485e-09
4.54593e-09
-9.79127e-09
4.98264e-09
-1.14276e-08
5.40637e-09
-1.31799e-08
5.8155e-09
-1.50441e-08
6.2087e-09
-1.70154e-08
6.5849e-09
-1.90889e-08
6.94322e-09
-2.12596e-08
7.28296e-09
-2.35222e-08
7.60356e-09
-2.5871e-08
7.9046e-09
-2.83007e-08
8.18578e-09
-3.08054e-08
8.44685e-09
-3.33794e-08
8.68771e-09
-3.60171e-08
8.90828e-09
-3.87124e-08
9.10856e-09
-4.14598e-08
9.28859e-09
-4.42532e-08
9.44846e-09
-4.70871e-08
9.58833e-09
-4.99556e-08
9.70834e-09
-5.2853e-08
9.80871e-09
-5.57738e-08
9.88967e-09
-5.87123e-08
9.95148e-09
-6.16631e-08
9.99441e-09
-6.46208e-08
1.00188e-08
-6.75799e-08
1.00248e-08
-7.05353e-08
1.0013e-08
-7.34818e-08
9.98354e-09
-7.64144e-08
9.93684e-09
-7.9328e-08
9.87326e-09
-8.2218e-08
9.79317e-09
-8.50794e-08
9.69694e-09
-8.79077e-08
9.58498e-09
-9.06985e-08
9.45766e-09
-9.34471e-08
9.31539e-09
-9.61495e-08
9.15859e-09
-9.88014e-08
8.98765e-09
-1.01399e-07
8.803e-09
-1.03938e-07
8.60505e-09
-1.06414e-07
8.39423e-09
-1.08825e-07
8.17097e-09
-1.11167e-07
7.93568e-09
-1.13435e-07
7.6888e-09
-1.15627e-07
7.43076e-09
-1.1774e-07
7.162e-09
-1.19771e-07
6.88296e-09
-1.21716e-07
6.59408e-09
-1.23573e-07
6.29581e-09
-1.2534e-07
5.98861e-09
-1.27013e-07
5.67291e-09
-1.2859e-07
5.34918e-09
-1.3007e-07
5.01788e-09
-1.3145e-07
4.67947e-09
-1.32728e-07
4.3344e-09
-1.33903e-07
3.98315e-09
-1.34972e-07
3.62618e-09
-1.35933e-07
3.26396e-09
-1.36787e-07
2.89698e-09
-1.37531e-07
2.52572e-09
-1.38164e-07
2.15066e-09
-1.38686e-07
1.77229e-09
-1.39095e-07
1.39111e-09
-1.39391e-07
1.0076e-09
-1.39573e-07
6.22276e-10
-1.39641e-07
2.35632e-10
-1.39595e-07
-1.51818e-10
-1.39434e-07
-5.39558e-10
-1.3916e-07
-9.27068e-10
-1.3877e-07
-1.31382e-09
-1.38268e-07
-1.6993e-09
-1.37652e-07
-2.08297e-09
-1.36924e-07
-2.4643e-09
-1.36084e-07
-2.84275e-09
-1.35133e-07
-3.2178e-09
-1.34073e-07
-3.58889e-09
-1.32905e-07
-3.95547e-09
-1.31631e-07
-4.31701e-09
-1.30251e-07
-4.67294e-09
-1.28769e-07
-5.02272e-09
-1.27185e-07
-5.36579e-09
-1.25503e-07
-5.7016e-09
-1.23724e-07
-6.02959e-09
-1.21851e-07
-6.34921e-09
-1.19886e-07
-6.6599e-09
-1.17832e-07
-6.96112e-09
-1.15693e-07
-7.25231e-09
-1.13472e-07
-7.53293e-09
-1.11171e-07
-7.80242e-09
-1.08794e-07
-8.06025e-09
-1.06345e-07
-8.30587e-09
-1.03827e-07
-8.53877e-09
-1.01245e-07
-8.75842e-09
-9.86016e-08
-8.96429e-09
-9.59022e-08
-9.15589e-09
-9.31508e-08
-9.33271e-09
-9.03518e-08
-9.49427e-09
-8.75098e-08
-9.64009e-09
-8.46297e-08
-9.7697e-09
-8.17162e-08
-9.88267e-09
-7.87743e-08
-9.97854e-09
-7.58093e-08
-1.00569e-08
-7.28263e-08
-1.01174e-08
-6.98307e-08
-1.01596e-08
-6.68279e-08
-1.01831e-08
-6.38235e-08
-1.01876e-08
-6.0823e-08
-1.01728e-08
-5.78323e-08
-1.01384e-08
-5.4857e-08
-1.00841e-08
-5.1903e-08
-1.00097e-08
-4.89762e-08
-9.91493e-09
-4.60825e-08
-9.7997e-09
-4.32279e-08
-9.66386e-09
-4.04184e-08
-9.50731e-09
-3.76599e-08
-9.33e-09
-3.49584e-08
-9.13192e-09
-3.23198e-08
-8.91313e-09
-2.975e-08
-8.67373e-09
-2.72548e-08
-8.41389e-09
-2.484e-08
-8.13385e-09
-2.25111e-08
-7.83393e-09
-2.02738e-08
-7.51455e-09
-1.81331e-08
-7.1762e-09
-1.60943e-08
-6.81951e-09
-1.41622e-08
-6.44525e-09
-1.23414e-08
-6.05433e-09
-1.0636e-08
-5.64783e-09
-9.04987e-09
-5.22704e-09
-7.5864e-09
-4.7935e-09
-6.24837e-09
-4.34901e-09
-5.03793e-09
-3.89573e-09
-3.95652e-09
-3.4362e-09
-3.00472e-09
-2.97344e-09
-2.1821e-09
-2.51106e-09
-1.48708e-09
-2.05334e-09
-9.16755e-10
-1.60539e-09
-4.66688e-10
-1.17333e-09
-1.30678e-10
-7.64435e-10
9.94692e-11
-3.87431e-10
2.3421e-10
-5.26809e-11
2.86547e-10
2.27536e-10
2.72359e-10
4.38779e-10
2.10826e-10
5.64244e-10
1.25028e-10
5.84721e-10
4.29689e-11
4.78662e-10
2.20852e-10
2.95279e-11
-2.47131e-10
7.53625e-11
-5.04862e-10
1.03452e-10
-5.71584e-10
8.61693e-11
-4.82375e-10
6.87609e-13
-2.65197e-10
-1.71867e-10
5.5761e-11
-4.47025e-10
4.59593e-10
-8.37398e-10
9.2841e-10
-1.35302e-09
1.447e-09
-2.00162e-09
2.00247e-09
-2.7889e-09
2.58396e-09
-3.71876e-09
3.18231e-09
-4.79351e-09
3.78986e-09
-6.01406e-09
4.40018e-09
-7.38014e-09
5.00788e-09
-8.89042e-09
5.60847e-09
-1.05427e-08
6.19818e-09
-1.23339e-08
6.77387e-09
-1.42604e-08
7.33291e-09
-1.63181e-08
7.87313e-09
-1.85021e-08
8.39272e-09
-2.08074e-08
8.8902e-09
-2.32285e-08
9.36436e-09
-2.57598e-08
9.8142e-09
-2.83952e-08
1.0239e-08
-3.11286e-08
1.0638e-08
-3.39537e-08
1.10109e-08
-3.68642e-08
1.13573e-08
-3.98534e-08
1.1677e-08
-4.2915e-08
1.19698e-08
-4.60422e-08
1.22358e-08
-4.92286e-08
1.24749e-08
-5.24674e-08
1.26873e-08
-5.57521e-08
1.2873e-08
-5.90761e-08
1.30324e-08
-6.24331e-08
1.31656e-08
-6.58164e-08
1.3273e-08
-6.92197e-08
1.33548e-08
-7.26368e-08
1.34115e-08
-7.60615e-08
1.34434e-08
-7.94875e-08
1.34508e-08
-8.29088e-08
1.34344e-08
-8.63196e-08
1.33943e-08
-8.97141e-08
1.33313e-08
-9.30865e-08
1.32456e-08
-9.64312e-08
1.31379e-08
-9.97428e-08
1.30085e-08
-1.03016e-07
1.28581e-08
-1.06245e-07
1.26871e-08
-1.09426e-07
1.24961e-08
-1.12553e-07
1.22856e-08
-1.15622e-07
1.20562e-08
-1.18627e-07
1.18084e-08
-1.21565e-07
1.15428e-08
-1.2443e-07
1.12599e-08
-1.2722e-07
1.09603e-08
-1.29929e-07
1.06445e-08
-1.32553e-07
1.03133e-08
-1.35089e-07
9.96701e-09
-1.37534e-07
9.60639e-09
-1.39883e-07
9.23198e-09
-1.42133e-07
8.84437e-09
-1.44281e-07
8.44416e-09
-1.46325e-07
8.03195e-09
-1.4826e-07
7.60836e-09
-1.50085e-07
7.17399e-09
-1.51797e-07
6.72946e-09
-1.53392e-07
6.27539e-09
-1.5487e-07
5.8124e-09
-1.56228e-07
5.34111e-09
-1.57464e-07
4.86216e-09
-1.58577e-07
4.37618e-09
-1.59563e-07
3.88382e-09
-1.60423e-07
3.38572e-09
-1.61155e-07
2.88254e-09
-1.61758e-07
2.37493e-09
-1.6223e-07
1.86356e-09
-1.62572e-07
1.34908e-09
-1.62782e-07
8.32181e-10
-1.6286e-07
3.13533e-10
-1.62805e-07
-2.06178e-10
-1.62619e-07
-7.26258e-10
-1.623e-07
-1.24601e-09
-1.61849e-07
-1.76473e-09
-1.61266e-07
-2.28172e-09
-1.60553e-07
-2.79627e-09
-1.5971e-07
-3.30766e-09
-1.58737e-07
-3.81517e-09
-1.57637e-07
-4.31808e-09
-1.5641e-07
-4.81567e-09
-1.55059e-07
-5.3072e-09
-1.53584e-07
-5.79194e-09
-1.51987e-07
-6.26914e-09
-1.50272e-07
-6.73806e-09
-1.4844e-07
-7.19798e-09
-1.46493e-07
-7.64814e-09
-1.44435e-07
-8.0878e-09
-1.42268e-07
-8.51622e-09
-1.39995e-07
-8.93267e-09
-1.3762e-07
-9.3364e-09
-1.35146e-07
-9.72668e-09
-1.32576e-07
-1.01028e-08
-1.29914e-07
-1.0464e-08
-1.27165e-07
-1.08095e-08
-1.24332e-07
-1.11387e-08
-1.2142e-07
-1.14508e-08
-1.18433e-07
-1.17452e-08
-1.15376e-07
-1.20212e-08
-1.12254e-07
-1.2278e-08
-1.09072e-07
-1.25151e-08
-1.05835e-07
-1.27317e-08
-1.02547e-07
-1.29273e-08
-9.92159e-08
-1.31012e-08
-9.58457e-08
-1.32528e-08
-9.24427e-08
-1.33816e-08
-8.90126e-08
-1.3487e-08
-8.55615e-08
-1.35685e-08
-8.20956e-08
-1.36255e-08
-7.8621e-08
-1.36576e-08
-7.51442e-08
-1.36644e-08
-7.16716e-08
-1.36454e-08
-6.82098e-08
-1.36002e-08
-6.47653e-08
-1.35286e-08
-6.13448e-08
-1.34301e-08
-5.79551e-08
-1.33046e-08
-5.46029e-08
-1.31519e-08
-5.1295e-08
-1.29717e-08
-4.80384e-08
-1.2764e-08
-4.48396e-08
-1.25287e-08
-4.17057e-08
-1.22659e-08
-3.86432e-08
-1.19756e-08
-3.56588e-08
-1.16581e-08
-3.27593e-08
-1.13135e-08
-2.99509e-08
-1.09422e-08
-2.72401e-08
-1.05447e-08
-2.46331e-08
-1.01216e-08
-2.21357e-08
-9.67356e-09
-1.97538e-08
-9.20148e-09
-1.74926e-08
-8.70642e-09
-1.53573e-08
-8.18961e-09
-1.33526e-08
-7.65257e-09
-1.14826e-08
-7.09703e-09
-9.75101e-09
-6.52507e-09
-8.16091e-09
-5.93911e-09
-6.71462e-09
-5.34202e-09
-5.41365e-09
-4.73717e-09
-4.25857e-09
-4.12852e-09
-3.2489e-09
-3.52074e-09
-2.38288e-09
-2.91936e-09
-1.65738e-09
-2.33089e-09
-1.06768e-09
-1.76302e-09
-6.07273e-10
-1.22484e-09
-2.67629e-10
-7.27074e-10
-3.7987e-11
-2.82323e-10
9.49274e-11
9.46222e-11
1.47211e-10
3.86497e-10
1.38197e-10
5.73259e-10
9.10304e-11
6.31886e-10
3.35519e-11
5.36144e-10
2.54404e-10
1.6848e-11
-2.6398e-10
2.94959e-11
-5.17506e-10
6.43642e-12
-5.48524e-10
-7.86262e-11
-3.97312e-10
-2.47715e-10
-9.61049e-11
-5.19216e-10
3.27259e-10
-9.0834e-10
8.48718e-10
-1.42753e-09
1.4476e-09
-2.08673e-09
2.10621e-09
-2.89368e-09
2.80942e-09
-3.8541e-09
3.54437e-09
-4.97191e-09
4.30012e-09
-6.24944e-09
5.06739e-09
-7.68761e-09
5.83835e-09
-9.28608e-09
6.60635e-09
-1.10434e-08
7.36581e-09
-1.29572e-08
8.11199e-09
-1.50243e-08
8.84092e-09
-1.72406e-08
9.54927e-09
-1.96017e-08
1.02342e-08
-2.21025e-08
1.08935e-08
-2.47373e-08
1.1525e-08
-2.75003e-08
1.21273e-08
-3.03852e-08
1.26991e-08
-3.33854e-08
1.32392e-08
-3.64943e-08
1.37469e-08
-3.97048e-08
1.42215e-08
-4.301e-08
1.46625e-08
-4.64026e-08
1.50696e-08
-4.98755e-08
1.54426e-08
-5.34212e-08
1.57815e-08
-5.70324e-08
1.60862e-08
-6.07019e-08
1.63567e-08
-6.44222e-08
1.65934e-08
-6.81861e-08
1.67963e-08
-7.19864e-08
1.69659e-08
-7.58157e-08
1.71024e-08
-7.96671e-08
1.72062e-08
-8.35334e-08
1.72778e-08
-8.74077e-08
1.73176e-08
-9.1283e-08
1.73262e-08
-9.51528e-08
1.73041e-08
-9.90102e-08
1.72518e-08
-1.02849e-07
1.71699e-08
-1.06662e-07
1.7059e-08
-1.10444e-07
1.69197e-08
-1.14188e-07
1.67527e-08
-1.17888e-07
1.65586e-08
-1.21539e-07
1.63381e-08
-1.25135e-07