/*--------------------------------*- C++ -*----------------------------------*\
  =========                 |
  \\      /  F ield         | OpenFOAM: The Open Source CFD Toolbox
   \\    /   O peration     | Website:  https://openfoam.org
    \\  /    A nd           | Version:  7
     \\/     M anipulation  |
\*---------------------------------------------------------------------------*/
FoamFile
{
    version     2.0;
    format      ascii;
    class       volVectorField;
    location    "0.1375";
    object      U;
}
// * * * * * * * * * * * * * * * * * * * * * * * * * * * * * * * * * * * * * //

dimensions      [0 1 -1 0 0 0 0];

internalField   nonuniform List<vector> 
25600
(
(2.03635e-07 -2.02285e-07 0)
(2.8655e-06 -1.76739e-06 0)
(9.03221e-06 -2.7854e-06 0)
(1.67838e-05 -3.15549e-06 0)
(2.4642e-05 -3.07652e-06 0)
(3.16668e-05 -2.70533e-06 0)
(3.72092e-05 -2.14943e-06 0)
(4.0821e-05 -1.47518e-06 0)
(4.22001e-05 -7.32155e-07 0)
(4.11542e-05 5.10845e-08 0)
(3.75651e-05 8.5381e-07 0)
(3.13675e-05 1.66171e-06 0)
(2.25409e-05 2.46587e-06 0)
(1.1093e-05 3.25697e-06 0)
(-2.94441e-06 4.03017e-06 0)
(-1.95189e-05 4.78165e-06 0)
(-3.85675e-05 5.50723e-06 0)
(-6.00136e-05 6.20627e-06 0)
(-8.37723e-05 6.87727e-06 0)
(-0.000109754 7.51747e-06 0)
(-0.000137862 8.12654e-06 0)
(-0.000167996 8.70447e-06 0)
(-0.000200054 9.24951e-06 0)
(-0.000233929 9.76283e-06 0)
(-0.000269514 1.02444e-05 0)
(-0.000306705 1.06931e-05 0)
(-0.00034539 1.11086e-05 0)
(-0.000385463 1.14927e-05 0)
(-0.000426815 1.18445e-05 0)
(-0.00046934 1.21653e-05 0)
(-0.000512932 1.24559e-05 0)
(-0.000557485 1.2717e-05 0)
(-0.000602896 1.29475e-05 0)
(-0.00064906 1.31469e-05 0)
(-0.000695877 1.33175e-05 0)
(-0.000743247 1.34602e-05 0)
(-0.000791071 1.3575e-05 0)
(-0.000839252 1.36637e-05 0)
(-0.000887695 1.37263e-05 0)
(-0.000936308 1.37614e-05 0)
(-0.000985 1.37695e-05 0)
(-0.00103368 1.37526e-05 0)
(-0.00108226 1.37112e-05 0)
(-0.00113066 1.36461e-05 0)
(-0.00117878 1.35579e-05 0)
(-0.00122656 1.34473e-05 0)
(-0.00127391 1.3314e-05 0)
(-0.00132075 1.31586e-05 0)
(-0.001367 1.29823e-05 0)
(-0.0014126 1.27859e-05 0)
(-0.00145747 1.25695e-05 0)
(-0.00150154 1.23333e-05 0)
(-0.00154475 1.20784e-05 0)
(-0.00158703 1.18059e-05 0)
(-0.00162831 1.15163e-05 0)
(-0.00166853 1.12101e-05 0)
(-0.00170765 1.08875e-05 0)
(-0.00174559 1.05487e-05 0)
(-0.00178231 1.01946e-05 0)
(-0.00181774 9.8256e-06 0)
(-0.00185185 9.44295e-06 0)
(-0.00188458 9.04756e-06 0)
(-0.00191589 8.63955e-06 0)
(-0.00194573 8.21925e-06 0)
(-0.00197406 7.78713e-06 0)
(-0.00200084 7.34398e-06 0)
(-0.00202603 6.89098e-06 0)
(-0.0020496 6.42866e-06 0)
(-0.00207152 5.95726e-06 0)
(-0.00209174 5.47743e-06 0)
(-0.00211025 4.98957e-06 0)
(-0.00212702 4.4942e-06 0)
(-0.00214203 3.99239e-06 0)
(-0.00215524 3.48477e-06 0)
(-0.00216664 2.97183e-06 0)
(-0.00217622 2.45459e-06 0)
(-0.00218396 1.93354e-06 0)
(-0.00218984 1.40873e-06 0)
(-0.00219386 8.80927e-07 0)
(-0.00219601 3.5094e-07 0)
(-0.00219628 -1.80582e-07 0)
(-0.00219466 -7.12348e-07 0)
(-0.00219117 -1.24334e-06 0)
(-0.00218579 -1.77358e-06 0)
(-0.00217854 -2.30279e-06 0)
(-0.00216942 -2.82984e-06 0)
(-0.00215844 -3.35391e-06 0)
(-0.00214561 -3.87429e-06 0)
(-0.00213096 -4.38984e-06 0)
(-0.00211448 -4.89984e-06 0)
(-0.00209621 -5.40417e-06 0)
(-0.00207617 -5.90238e-06 0)
(-0.00205438 -6.39346e-06 0)
(-0.00203088 -6.87638e-06 0)
(-0.00200568 -7.35013e-06 0)
(-0.00197882 -7.81374e-06 0)
(-0.00195035 -8.26666e-06 0)
(-0.0019203 -8.70867e-06 0)
(-0.00188871 -9.13915e-06 0)
(-0.00185562 -9.55689e-06 0)
(-0.00182108 -9.96073e-06 0)
(-0.00178515 -1.03499e-05 0)
(-0.00174787 -1.07238e-05 0)
(-0.00170929 -1.10821e-05 0)
(-0.00166949 -1.1424e-05 0)
(-0.00162851 -1.17487e-05 0)
(-0.00158643 -1.20547e-05 0)
(-0.0015433 -1.23412e-05 0)
(-0.00149919 -1.26077e-05 0)
(-0.00145419 -1.28539e-05 0)
(-0.00140835 -1.30791e-05 0)
(-0.00136176 -1.32826e-05 0)
(-0.00131449 -1.34637e-05 0)
(-0.00126663 -1.36218e-05 0)
(-0.00121826 -1.37561e-05 0)
(-0.00116945 -1.38659e-05 0)
(-0.00112031 -1.39504e-05 0)
(-0.00107092 -1.40091e-05 0)
(-0.00102137 -1.40412e-05 0)
(-0.000971754 -1.40459e-05 0)
(-0.000922169 -1.40231e-05 0)
(-0.000872713 -1.39724e-05 0)
(-0.000823483 -1.38934e-05 0)
(-0.000774582 -1.37852e-05 0)
(-0.00072611 -1.36474e-05 0)
(-0.000678172 -1.34796e-05 0)
(-0.000630871 -1.32817e-05 0)
(-0.000584314 -1.30531e-05 0)
(-0.000538605 -1.27937e-05 0)
(-0.000493852 -1.25032e-05 0)
(-0.000450162 -1.21816e-05 0)
(-0.000407643 -1.18284e-05 0)
(-0.000366403 -1.14432e-05 0)
(-0.000326549 -1.10263e-05 0)
(-0.00028819 -1.05779e-05 0)
(-0.000251432 -1.00984e-05 0)
(-0.00021638 -9.58755e-06 0)
(-0.000183137 -9.04526e-06 0)
(-0.000151806 -8.47198e-06 0)
(-0.000122487 -7.86852e-06 0)
(-9.52745e-05 -7.23578e-06 0)
(-7.02603e-05 -6.5748e-06 0)
(-4.75308e-05 -5.88684e-06 0)
(-2.71657e-05 -5.1736e-06 0)
(-9.23676e-06 -4.43737e-06 0)
(6.19381e-06 -3.68087e-06 0)
(1.90763e-05 -2.90729e-06 0)
(2.93765e-05 -2.121e-06 0)
(3.70793e-05 -1.32787e-06 0)
(4.21939e-05 -5.35581e-07 0)
(4.47616e-05 2.45668e-07 0)
(4.48648e-05 1.00181e-06 0)
(4.26415e-05 1.71236e-06 0)
(3.83045e-05 2.34646e-06 0)
(3.21718e-05 2.85758e-06 0)
(2.47085e-05 3.17574e-06 0)
(1.65774e-05 3.19702e-06 0)
(8.72655e-06 2.76537e-06 0)
(2.62792e-06 1.68783e-06 0)
(1.20706e-07 1.21907e-07 0)
(1.79369e-06 -2.87186e-06 0)
(9.37221e-06 -9.33505e-06 0)
(2.30095e-05 -1.32624e-05 0)
(3.90782e-05 -1.4548e-05 0)
(5.47708e-05 -1.37883e-05 0)
(6.81198e-05 -1.15391e-05 0)
(7.75975e-05 -8.23052e-06 0)
(8.20479e-05 -4.19087e-06 0)
(8.06436e-05 3.43995e-07 0)
(7.28091e-05 5.19791e-06 0)
(5.81556e-05 1.0241e-05 0)
(3.64542e-05 1.53817e-05 0)
(7.58657e-06 2.0544e-05 0)
(-2.84721e-05 2.56742e-05 0)
(-7.1672e-05 3.07297e-05 0)
(-0.000121913 3.56757e-05 0)
(-0.000179043 4.04864e-05 0)
(-0.000242878 4.51442e-05 0)
(-0.000313208 4.96306e-05 0)
(-0.000389792 5.39357e-05 0)
(-0.000472377 5.80489e-05 0)
(-0.000560698 6.19618e-05 0)
(-0.000654474 6.56708e-05 0)
(-0.000753417 6.91705e-05 0)
(-0.000857235 7.24601e-05 0)
(-0.000965628 7.5535e-05 0)
(-0.0010783 7.83987e-05 0)
(-0.00119494 8.10469e-05 0)
(-0.00131524 8.34837e-05 0)
(-0.00143892 8.57076e-05 0)
(-0.00156566 8.77241e-05 0)
(-0.00169517 8.95322e-05 0)
(-0.00182715 9.11348e-05 0)
(-0.0019613 9.2535e-05 0)
(-0.00209734 9.37336e-05 0)
(-0.00223497 9.47346e-05 0)
(-0.00237392 9.5542e-05 0)
(-0.00251391 9.61598e-05 0)
(-0.00265466 9.65913e-05 0)
(-0.0027959 9.68392e-05 0)
(-0.00293737 9.69069e-05 0)
(-0.00307881 9.6798e-05 0)
(-0.00321997 9.6516e-05 0)
(-0.0033606 9.60655e-05 0)
(-0.00350045 9.5451e-05 0)
(-0.00363929 9.46761e-05 0)
(-0.00377689 9.37441e-05 0)
(-0.00391302 9.2659e-05 0)
(-0.00404745 9.14256e-05 0)
(-0.00417999 9.00476e-05 0)
(-0.00431041 8.85288e-05 0)
(-0.00443852 8.68735e-05 0)
(-0.00456411 8.5086e-05 0)
(-0.004687 8.31709e-05 0)
(-0.00480701 8.11322e-05 0)
(-0.00492395 7.89743e-05 0)
(-0.00503766 7.67012e-05 0)
(-0.00514797 7.43163e-05 0)
(-0.00525471 7.18237e-05 0)
(-0.00535774 6.92278e-05 0)
(-0.0054569 6.65332e-05 0)
(-0.00555205 6.37445e-05 0)
(-0.00564307 6.0866e-05 0)
(-0.00572981 5.79014e-05 0)
(-0.00581217 5.4855e-05 0)
(-0.00589001 5.17317e-05 0)
(-0.00596324 4.85357e-05 0)
(-0.00603174 4.5272e-05 0)
(-0.00609543 4.19446e-05 0)
(-0.0061542 3.85572e-05 0)
(-0.00620799 3.51143e-05 0)
(-0.0062567 3.16204e-05 0)
(-0.00630027 2.80799e-05 0)
(-0.00633864 2.44981e-05 0)
(-0.00637174 2.08796e-05 0)
(-0.00639954 1.72287e-05 0)
(-0.00642197 1.35503e-05 0)
(-0.00643901 9.84896e-06 0)
(-0.00645063 6.12872e-06 0)
(-0.0064568 2.3945e-06 0)
(-0.00645751 -1.34845e-06 0)
(-0.00645274 -5.09509e-06 0)
(-0.00644251 -8.84026e-06 0)
(-0.00642681 -1.25787e-05 0)
(-0.00640565 -1.63055e-05 0)
(-0.00637906 -2.00159e-05 0)
(-0.00634707 -2.3705e-05 0)
(-0.00630971 -2.73673e-05 0)
(-0.00626703 -3.09975e-05 0)
(-0.00621908 -3.45906e-05 0)
(-0.0061659 -3.81414e-05 0)
(-0.00610759 -4.16446e-05 0)
(-0.00604419 -4.5095e-05 0)
(-0.0059758 -4.84874e-05 0)
(-0.00590251 -5.18161e-05 0)
(-0.00582442 -5.5075e-05 0)
(-0.00574162 -5.8259e-05 0)
(-0.00565424 -6.13632e-05 0)
(-0.00556239 -6.43822e-05 0)
(-0.00546621 -6.73102e-05 0)
(-0.00536583 -7.01421e-05 0)
(-0.0052614 -7.28724e-05 0)
(-0.00515306 -7.54953e-05 0)
(-0.00504099 -7.80054e-05 0)
(-0.00492534 -8.03977e-05 0)
(-0.0048063 -8.26671e-05 0)
(-0.00468405 -8.48079e-05 0)
(-0.00455877 -8.68144e-05 0)
(-0.00443068 -8.86816e-05 0)
(-0.00429997 -9.04051e-05 0)
(-0.00416686 -9.198e-05 0)
(-0.00403157 -9.34014e-05 0)
(-0.00389433 -9.46647e-05 0)
(-0.00375536 -9.57656e-05 0)
(-0.00361492 -9.66994e-05 0)
(-0.00347325 -9.74615e-05 0)
(-0.00333059 -9.80476e-05 0)
(-0.00318721 -9.84536e-05 0)
(-0.00304338 -9.86751e-05 0)
(-0.00289936 -9.87083e-05 0)
(-0.00275543 -9.85495e-05 0)
(-0.00261187 -9.81953e-05 0)
(-0.00246897 -9.76428e-05 0)
(-0.00232701 -9.68888e-05 0)
(-0.00218629 -9.5931e-05 0)
(-0.0020471 -9.47673e-05 0)
(-0.00190975 -9.33956e-05 0)
(-0.00177453 -9.18138e-05 0)
(-0.00164174 -9.00207e-05 0)
(-0.0015117 -8.80151e-05 0)
(-0.00138471 -8.57962e-05 0)
(-0.00126107 -8.33633e-05 0)
(-0.00114109 -8.07165e-05 0)
(-0.00102508 -7.78567e-05 0)
(-0.000913325 -7.47856e-05 0)
(-0.000806138 -7.15054e-05 0)
(-0.000703808 -6.80188e-05 0)
(-0.000606622 -6.43292e-05 0)
(-0.000514862 -6.04416e-05 0)
(-0.000428795 -5.63624e-05 0)
(-0.000348683 -5.20995e-05 0)
(-0.000274768 -4.76629e-05 0)
(-0.000207278 -4.30646e-05 0)
(-0.000146418 -3.83196e-05 0)
(-9.23662e-05 -3.34461e-05 0)
(-4.52713e-05 -2.84666e-05 0)
(-5.24145e-06 -2.34089e-05 0)
(2.76633e-05 -1.83083e-05 0)
(5.3442e-05 -1.32099e-05 0)
(7.21671e-05 -8.17056e-06 0)
(8.40036e-05 -3.26354e-06 0)
(8.92345e-05 1.41537e-06 0)
(8.8293e-05 5.73838e-06 0)
(8.1804e-05 9.53228e-06 0)
(7.06402e-05 1.2561e-05 0)
(5.59885e-05 1.45051e-05 0)
(3.94009e-05 1.49422e-05 0)
(2.28543e-05 1.33342e-05 0)
(9.11618e-06 9.12645e-06 0)
(1.6814e-06 2.6251e-06 0)
(2.82603e-06 -9.0851e-06 0)
(1.33576e-05 -2.29997e-05 0)
(3.0886e-05 -3.07533e-05 0)
(5.0463e-05 -3.27565e-05 0)
(6.8527e-05 -3.00776e-05 0)
(8.25415e-05 -2.37779e-05 0)
(9.04359e-05 -1.47709e-05 0)
(9.05783e-05 -3.79441e-06 0)
(8.17428e-05 8.57898e-06 0)
(6.30337e-05 2.18978e-05 0)
(3.38355e-05 3.58242e-05 0)
(-6.25613e-06 5.00888e-05 0)
(-5.74637e-05 6.44853e-05 0)
(-0.000119865 7.8854e-05 0)
(-0.000193432 9.30634e-05 0)
(-0.000278033 0.000107015 0)
(-0.000373467 0.000120628 0)
(-0.000479474 0.000133838 0)
(-0.00059574 0.000146596 0)
(-0.000721915 0.000158862 0)
(-0.000857617 0.000170603 0)
(-0.00100243 0.000181795 0)
(-0.00115594 0.000192419 0)
(-0.00131769 0.00020246 0)
(-0.00148722 0.000211908 0)
(-0.00166407 0.000220756 0)
(-0.00184777 0.000229 0)
(-0.00203783 0.000236637 0)
(-0.00223379 0.00024367 0)
(-0.00243515 0.000250097 0)
(-0.00264144 0.000255924 0)
(-0.00285218 0.000261157 0)
(-0.00306689 0.000265798 0)
(-0.00328512 0.000269854 0)
(-0.00350638 0.000273333 0)
(-0.00373021 0.000276242 0)
(-0.00395617 0.000278589 0)
(-0.0041838 0.000280384 0)
(-0.00441266 0.000281638 0)
(-0.00464232 0.00028236 0)
(-0.00487235 0.000282559 0)
(-0.00510232 0.000282246 0)
(-0.00533184 0.000281431 0)
(-0.00556049 0.000280125 0)
(-0.00578788 0.000278339 0)
(-0.00601363 0.000276086 0)
(-0.00623737 0.000273375 0)
(-0.00645871 0.000270219 0)
(-0.00667731 0.000266629 0)
(-0.00689282 0.000262617 0)
(-0.0071049 0.000258195 0)
(-0.00731322 0.000253374 0)
(-0.00751745 0.000248167 0)
(-0.0077173 0.000242586 0)
(-0.00791245 0.000236643 0)
(-0.00810263 0.000230351 0)
(-0.00828754 0.000223721 0)
(-0.00846692 0.000216766 0)
(-0.0086405 0.000209496 0)
(-0.00880804 0.000201925 0)
(-0.0089693 0.000194065 0)
(-0.00912404 0.000185928 0)
(-0.00927204 0.000177529 0)
(-0.00941309 0.000168878 0)
(-0.009547 0.000159989 0)
(-0.00967358 0.000150874 0)
(-0.00979263 0.000141547 0)
(-0.00990401 0.00013202 0)
(-0.0100075 0.000122307 0)
(-0.0101031 0.000112419 0)
(-0.0101905 0.000102369 0)
(-0.0102697 9.21716e-05 0)
(-0.0103405 8.18389e-05 0)
(-0.0104028 7.13846e-05 0)
(-0.0104566 6.08229e-05 0)
(-0.0105017 5.01677e-05 0)
(-0.0105381 3.94318e-05 0)
(-0.0105658 2.86289e-05 0)
(-0.0105846 1.77736e-05 0)
(-0.0105945 6.87922e-06 0)
(-0.0105956 -4.04017e-06 0)
(-0.0105878 -1.49695e-05 0)
(-0.010571 -2.5894e-05 0)
(-0.0105454 -3.67993e-05 0)
(-0.0105109 -4.76701e-05 0)
(-0.0104676 -5.84912e-05 0)
(-0.0104155 -6.92484e-05 0)
(-0.0103546 -7.99269e-05 0)
(-0.0102852 -9.05114e-05 0)
(-0.0102071 -0.000100987 0)
(-0.0101206 -0.000111338 0)
(-0.0100257 -0.000121549 0)
(-0.0099225 -0.000131604 0)
(-0.00981124 -0.000141487 0)
(-0.00969202 -0.000151184 0)
(-0.00956498 -0.000160678 0)
(-0.00943032 -0.000169953 0)
(-0.00928821 -0.000178993 0)
(-0.00913885 -0.000187784 0)
(-0.00898246 -0.000196308 0)
(-0.00881924 -0.000204551 0)
(-0.00864945 -0.000212497 0)
(-0.00847333 -0.000220129 0)
(-0.00829114 -0.000227433 0)
(-0.00810316 -0.000234392 0)
(-0.00790967 -0.000240991 0)
(-0.00771097 -0.000247216 0)
(-0.00750738 -0.000253051 0)
(-0.00729921 -0.000258481 0)
(-0.0070868 -0.000263492 0)
(-0.0068705 -0.000268069 0)
(-0.00665066 -0.0002722 0)
(-0.00642765 -0.000275871 0)
(-0.00620186 -0.000279068 0)
(-0.00597367 -0.000281778 0)
(-0.00574348 -0.000283989 0)
(-0.0055117 -0.000285689 0)
(-0.00527875 -0.000286866 0)
(-0.00504506 -0.000287508 0)
(-0.00481106 -0.000287605 0)
(-0.00457721 -0.000287146 0)
(-0.00434394 -0.000286121 0)
(-0.00411173 -0.000284523 0)
(-0.00388103 -0.000282342 0)
(-0.00365233 -0.000279573 0)
(-0.00342608 -0.000276209 0)
(-0.00320279 -0.000272245 0)
(-0.00298292 -0.000267677 0)
(-0.00276697 -0.0002625 0)
(-0.00255542 -0.000256713 0)
(-0.00234876 -0.000250314 0)
(-0.00214748 -0.000243304 0)
(-0.00195207 -0.000235684 0)
(-0.001763 -0.000227457 0)
(-0.00158075 -0.000218631 0)
(-0.0014058 -0.000209211 0)
(-0.00123861 -0.00019921 0)
(-0.00107962 -0.00018864 0)
(-0.000929279 -0.000177518 0)
(-0.000787993 -0.000165865 0)
(-0.000656163 -0.000153707 0)
(-0.000534162 -0.000141076 0)
(-0.00042233 -0.000128011 0)
(-0.00032097 -0.000114558 0)
(-0.000230342 -0.000100774 0)
(-0.000150649 -8.67308e-05 0)
(-8.20331e-05 -7.25127e-05 0)
(-2.45534e-05 -5.82265e-05 0)
(2.18253e-05 -4.4005e-05 0)
(5.72559e-05 -3.00138e-05 0)
(8.20356e-05 -1.64618e-05 0)
(9.6639e-05 -3.61481e-06 0)
(0.000101758 8.18621e-06 0)
(9.83544e-05 1.85022e-05 0)
(8.77146e-05 2.67682e-05 0)
(7.15191e-05 3.22668e-05 0)
(5.18647e-05 3.41174e-05 0)
(3.12895e-05 3.13034e-05 0)
(1.33154e-05 2.28579e-05 0)
(2.75555e-06 8.71093e-06 0)
(3.19526e-06 -1.69005e-05 0)
(1.46669e-05 -3.91434e-05 0)
(3.29756e-05 -5.03597e-05 0)
(5.22909e-05 -5.20224e-05 0)
(6.85307e-05 -4.58296e-05 0)
(7.88089e-05 -3.34185e-05 0)
(8.07252e-05 -1.62278e-05 0)
(7.23421e-05 4.54677e-06 0)
(5.21574e-05 2.79257e-05 0)
(1.90514e-05 5.31359e-05 0)
(-2.77851e-05 7.95555e-05 0)
(-8.88946e-05 0.000106692 0)
(-0.000164596 0.000134157 0)
(-0.000255034 0.000161633 0)
(-0.000360197 0.000188875 0)
(-0.000479953 0.000215681 0)
(-0.000614071 0.000241887 0)
(-0.000762228 0.000267365 0)
(-0.00092404 0.000292012 0)
(-0.00109907 0.000315742 0)
(-0.00128681 0.000338489 0)
(-0.00148675 0.0003602 0)
(-0.00169833 0.000380831 0)
(-0.00192097 0.000400353 0)
(-0.00215406 0.000418738 0)
(-0.00239699 0.000435972 0)
(-0.00264914 0.000452042 0)
(-0.00290986 0.000466944 0)
(-0.00317853 0.000480671 0)
(-0.00345449 0.000493229 0)
(-0.0037371 0.000504619 0)
(-0.00402573 0.00051485 0)
(-0.00431973 0.000523931 0)
(-0.00461848 0.000531871 0)
(-0.00492133 0.000538683 0)
(-0.00522767 0.000544383 0)
(-0.00553688 0.000548984 0)
(-0.00584834 0.000552503 0)
(-0.00616148 0.000554959 0)
(-0.00647568 0.00055637 0)
(-0.00679037 0.000556756 0)
(-0.00710499 0.000556137 0)
(-0.00741896 0.000554531 0)
(-0.00773175 0.00055196 0)
(-0.00804282 0.000548446 0)
(-0.00835163 0.00054401 0)
(-0.00865768 0.000538674 0)
(-0.00896047 0.000532461 0)
(-0.0092595 0.000525393 0)
(-0.0095543 0.000517493 0)
(-0.00984441 0.000508784 0)
(-0.0101294 0.00049929 0)
(-0.0104088 0.000489035 0)
(-0.0106821 0.000478041 0)
(-0.0109491 0.000466333 0)
(-0.0112092 0.000453935 0)
(-0.0114622 0.00044087 0)
(-0.0117076 0.000427162 0)
(-0.011945 0.000412835 0)
(-0.0121742 0.000397913 0)
(-0.0123948 0.000382422 0)
(-0.0126064 0.000366385 0)
(-0.0128089 0.000349827 0)
(-0.0130018 0.000332774 0)
(-0.013185 0.000315251 0)
(-0.0133581 0.000297282 0)
(-0.0135209 0.000278894 0)
(-0.0136732 0.000260111 0)
(-0.0138148 0.000240959 0)
(-0.0139455 0.000221464 0)
(-0.014065 0.000201651 0)
(-0.0141732 0.000181545 0)
(-0.01427 0.000161174 0)
(-0.0143552 0.000140565 0)
(-0.0144287 0.000119743 0)
(-0.0144903 9.87367e-05 0)
(-0.01454 7.75728e-05 0)
(-0.0145777 5.62778e-05 0)
(-0.0146034 3.48792e-05 0)
(-0.0146169 1.34057e-05 0)
(-0.0146182 -8.1147e-06 0)
(-0.0146074 -2.9654e-05 0)
(-0.0145844 -5.1183e-05 0)
(-0.0145492 -7.26724e-05 0)
(-0.014502 -9.40931e-05 0)
(-0.0144426 -0.000115416 0)
(-0.0143712 -0.000136611 0)
(-0.0142879 -0.000157648 0)
(-0.0141927 -0.0001785 0)
(-0.0140859 -0.000199135 0)
(-0.0139674 -0.000219523 0)
(-0.0138375 -0.000239633 0)
(-0.0136964 -0.000259435 0)
(-0.0135441 -0.000278898 0)
(-0.013381 -0.00029799 0)
(-0.0132072 -0.000316682 0)
(-0.0130229 -0.000334941 0)
(-0.0128285 -0.000352737 0)
(-0.0126242 -0.000370038 0)
(-0.0124103 -0.000386814 0)
(-0.0121871 -0.000403035 0)
(-0.0119548 -0.000418669 0)
(-0.011714 -0.000433686 0)
(-0.0114648 -0.000448054 0)
(-0.0112078 -0.000461743 0)
(-0.0109432 -0.000474724 0)
(-0.0106715 -0.000486966 0)
(-0.0103932 -0.000498441 0)
(-0.0101086 -0.00050912 0)
(-0.00981817 -0.000518974 0)
(-0.00952246 -0.000527975 0)
(-0.00922192 -0.000536097 0)
(-0.00891706 -0.000543314 0)
(-0.00860839 -0.0005496 0)
(-0.00829644 -0.000554928 0)
(-0.00798176 -0.000559277 0)
(-0.00766491 -0.000562621 0)
(-0.00734645 -0.000564938 0)
(-0.00702697 -0.000566206 0)
(-0.00670706 -0.000566405 0)
(-0.00638733 -0.000565515 0)
(-0.00606838 -0.000563518 0)
(-0.00575085 -0.000560398 0)
(-0.00543536 -0.000556139 0)
(-0.00512255 -0.00055073 0)
(-0.00481306 -0.000544158 0)
(-0.00450755 -0.000536414 0)
(-0.00420666 -0.000527492 0)
(-0.00391105 -0.000517384 0)
(-0.00362139 -0.000506087 0)
(-0.00333831 -0.000493602 0)
(-0.00306249 -0.00047993 0)
(-0.00279457 -0.000465077 0)
(-0.00253518 -0.000449052 0)
(-0.00228498 -0.000431869 0)
(-0.00204458 -0.000413544 0)
(-0.0018146 -0.000394103 0)
(-0.00159562 -0.000373573 0)
(-0.00138822 -0.000351992 0)
(-0.00119295 -0.000329404 0)
(-0.00101032 -0.000305865 0)
(-0.000840807 -0.00028144 0)
(-0.000684847 -0.00025621 0)
(-0.000542822 -0.000230272 0)
(-0.000415047 -0.000203741 0)
(-0.000301769 -0.000176759 0)
(-0.00020314 -0.0001495 0)
(-0.000119208 -0.000122172 0)
(-4.98951e-05 -9.5035e-05 0)
(5.03247e-06 -6.84061e-05 0)
(4.599e-05 -4.26797e-05 0)
(7.36123e-05 -1.83469e-05 0)
(8.87963e-05 3.97948e-06 0)
(9.2749e-05 2.35346e-05 0)
(8.70439e-05 3.93689e-05 0)
(7.36782e-05 5.03202e-05 0)
(5.50845e-05 5.50091e-05 0)
(3.41566e-05 5.18856e-05 0)
(1.4941e-05 3.94063e-05 0)
(3.18933e-06 1.6548e-05 0)
(3.11296e-06 -2.48285e-05 0)
(1.39366e-05 -5.4968e-05 0)
(3.04096e-05 -6.85412e-05 0)
(4.6323e-05 -6.8312e-05 0)
(5.73175e-05 -5.67525e-05 0)
(6.02756e-05 -3.6124e-05 0)
(5.26079e-05 -8.40833e-06 0)
(3.21866e-05 2.47162e-05 0)
(-2.65849e-06 6.18623e-05 0)
(-5.32063e-05 0.00010189 0)
(-0.000120399 0.000143872 0)
(-0.000204883 0.00018706 0)
(-0.000307063 0.000230842 0)
(-0.00042713 0.000274725 0)
(-0.000565101 0.000318308 0)
(-0.000720848 0.000361264 0)
(-0.000894111 0.000403328 0)
(-0.00108453 0.000444285 0)
(-0.00129167 0.000483957 0)
(-0.001515 0.000522201 0)
(-0.00175395 0.000558903 0)
(-0.00200789 0.000593969 0)
(-0.00227616 0.000627326 0)
(-0.00255805 0.000658916 0)
(-0.00285284 0.000688694 0)
(-0.00315977 0.000716627 0)
(-0.0034781 0.000742692 0)
(-0.00380703 0.000766877 0)
(-0.00414579 0.00078917 0)
(-0.00449359 0.000809573 0)
(-0.00484963 0.00082809 0)
(-0.00521313 0.000844727 0)
(-0.00558329 0.000859498 0)
(-0.00595933 0.000872418 0)
(-0.00634047 0.000883504 0)
(-0.00672593 0.00089278 0)
(-0.00711495 0.000900268 0)
(-0.00750677 0.000905995 0)
(-0.00790064 0.000909986 0)
(-0.00829582 0.000912272 0)
(-0.00869159 0.000912883 0)
(-0.00908725 0.000911849 0)
(-0.00948208 0.000909205 0)
(-0.0098754 0.000904983 0)
(-0.0102665 0.000899217 0)
(-0.0106548 0.000891942 0)
(-0.0110397 0.000883193 0)
(-0.0114204 0.000873008 0)
(-0.0117964 0.000861422 0)
(-0.012167 0.000848472 0)
(-0.0125318 0.000834196 0)
(-0.0128901 0.000818633 0)
(-0.0132413 0.00080182 0)
(-0.013585 0.000783796 0)
(-0.0139207 0.0007646 0)
(-0.0142478 0.000744271 0)
(-0.0145658 0.000722848 0)
(-0.0148743 0.000700369 0)
(-0.0151728 0.000676874 0)
(-0.0154609 0.000652404 0)
(-0.0157382 0.000626998 0)
(-0.0160043 0.000600698 0)
(-0.0162588 0.000573543 0)
(-0.0165013 0.000545573 0)
(-0.0167316 0.000516832 0)
(-0.0169492 0.00048736 0)
(-0.0171538 0.000457198 0)
(-0.0173453 0.00042639 0)
(-0.0175232 0.000394976 0)
(-0.0176874 0.000362998 0)
(-0.0178376 0.000330499 0)
(-0.0179736 0.000297522 0)
(-0.0180952 0.000264109 0)
(-0.0182022 0.000230306 0)
(-0.0182944 0.000196156 0)
(-0.0183718 0.000161704 0)
(-0.0184342 0.000126994 0)
(-0.0184815 9.20703e-05 0)
(-0.0185136 5.69788e-05 0)
(-0.0185305 2.17649e-05 0)
(-0.0185321 -1.35244e-05 0)
(-0.0185183 -4.88419e-05 0)
(-0.0184893 -8.41409e-05 0)
(-0.018445 -0.000119374 0)
(-0.0183854 -0.000154492 0)
(-0.0183107 -0.000189448 0)
(-0.0182208 -0.000224193 0)
(-0.018116 -0.000258679 0)
(-0.0179962 -0.000292857 0)
(-0.0178618 -0.000326677 0)
(-0.0177128 -0.000360091 0)
(-0.0175494 -0.000393047 0)
(-0.0173718 -0.000425496 0)
(-0.0171804 -0.000457386 0)
(-0.0169752 -0.000488667 0)
(-0.0167567 -0.000519288 0)
(-0.016525 -0.0005492 0)
(-0.0162806 -0.00057835 0)
(-0.0160238 -0.000606689 0)
(-0.0157548 -0.000634166 0)
(-0.0154742 -0.00066073 0)
(-0.0151823 -0.000686331 0)
(-0.0148796 -0.000710919 0)
(-0.0145665 -0.000734444 0)
(-0.0142434 -0.000756857 0)
(-0.0139109 -0.000778109 0)
(-0.0135695 -0.000798151 0)
(-0.0132196 -0.000816936 0)
(-0.012862 -0.000834417 0)
(-0.012497 -0.000850548 0)
(-0.0121254 -0.000865284 0)
(-0.0117478 -0.000878582 0)
(-0.0113647 -0.000890397 0)
(-0.0109768 -0.00090069 0)
(-0.0105848 -0.000909418 0)
(-0.0101894 -0.000916544 0)
(-0.00979119 -0.000922028 0)
(-0.00939097 -0.000925836 0)
(-0.00898946 -0.000927932 0)
(-0.00858738 -0.000928283 0)
(-0.0081855 -0.000926858 0)
(-0.00778457 -0.00092363 0)
(-0.00738537 -0.000918572 0)
(-0.00698869 -0.000911662 0)
(-0.00659532 -0.000902878 0)
(-0.00620606 -0.000892204 0)
(-0.00582172 -0.000879626 0)
(-0.0054431 -0.000865133 0)
(-0.00507102 -0.000848718 0)
(-0.00470629 -0.000830377 0)
(-0.00434973 -0.000810111 0)
(-0.00400213 -0.000787927 0)
(-0.0036643 -0.000763838 0)
(-0.00333702 -0.00073786 0)
(-0.00302109 -0.000710019 0)
(-0.00271725 -0.000680348 0)
(-0.00242626 -0.000648888 0)
(-0.00214884 -0.000615692 0)
(-0.00188568 -0.000580824 0)
(-0.00163743 -0.000544361 0)
(-0.00140471 -0.000506399 0)
(-0.00118809 -0.00046705 0)
(-0.000988076 -0.00042645 0)
(-0.000805117 -0.000384762 0)
(-0.000639575 -0.000342179 0)
(-0.00049172 -0.000298937 0)
(-0.000361713 -0.000255318 0)
(-0.000249587 -0.000211662 0)
(-0.000155218 -0.000168382 0)
(-7.83081e-05 -0.00012598 0)
(-1.83454e-05 -8.50681e-05 0)
(2.54272e-05 -4.63947e-05 0)
(5.40543e-05 -1.08748e-05 0)
(6.89123e-05 2.03755e-05 0)
(7.17595e-05 4.60035e-05 0)
(6.47892e-05 6.439e-05 0)
(5.0641e-05 7.36391e-05 0)
(3.24431e-05 7.16129e-05 0)
(1.45549e-05 5.60417e-05 0)
(3.17607e-06 2.4682e-05 0)
(2.74693e-06 -3.19415e-05 0)
(1.17415e-05 -6.85169e-05 0)
(2.42781e-05 -8.27889e-05 0)
(3.42324e-05 -7.87755e-05 0)
(3.71746e-05 -5.97851e-05 0)
(2.98756e-05 -2.87295e-05 0)
(9.6396e-06 1.18527e-05 0)
(-2.57464e-05 5.98057e-05 0)
(-7.8053e-05 0.000113316 0)
(-0.000148652 0.000170874 0)
(-0.000238565 0.000231232 0)
(-0.000348516 0.00029336 0)
(-0.000478963 0.000356408 0)
(-0.000630133 0.000419681 0)
(-0.000802066 0.000482601 0)
(-0.00099463 0.000544698 0)
(-0.00120755 0.000605584 0)
(-0.00144044 0.000664935 0)
(-0.00169281 0.000722492 0)
(-0.00196406 0.000778037 0)
(-0.00225356 0.000831394 0)
(-0.00256058 0.00088242 0)
(-0.00288437 0.000931 0)
(-0.00322412 0.000977042 0)
(-0.00357899 0.00102048 0)
(-0.00394812 0.00106124 0)
(-0.00433063 0.00109931 0)
(-0.00472561 0.00113465 0)
(-0.00513214 0.00116724 0)
(-0.0055493 0.00119708 0)
(-0.00597617 0.00122417 0)
(-0.00641182 0.00124853 0)
(-0.00685532 0.00127015 0)
(-0.00730573 0.00128906 0)
(-0.00776215 0.0013053 0)
(-0.00822365 0.00131887 0)
(-0.00868933 0.00132983 0)
(-0.00915829 0.0013382 0)
(-0.00962966 0.00134403 0)
(-0.0101025 0.00134734 0)
(-0.0105761 0.0013482 0)
(-0.0110495 0.00134663 0)
(-0.0115218 0.0013427 0)
(-0.0119923 0.00133644 0)
(-0.0124602 0.0013279 0)
(-0.0129247 0.00131715 0)
(-0.013385 0.00130422 0)
(-0.0138404 0.00128917 0)
(-0.0142901 0.00127205 0)
(-0.0147334 0.00125292 0)
(-0.0151697 0.00123184 0)
(-0.0155982 0.00120886 0)
(-0.0160183 0.00118402 0)
(-0.0164293 0.00115741 0)
(-0.0168307 0.00112906 0)
(-0.0172219 0.00109903 0)
(-0.0176022 0.00106739 0)
(-0.0179711 0.00103419 0)
(-0.0183281 0.000999487 0)
(-0.0186726 0.000963344 0)
(-0.0190042 0.000925818 0)
(-0.0193224 0.00088697 0)
(-0.0196267 0.000846859 0)
(-0.0199167 0.000805546 0)
(-0.020192 0.000763091 0)
(-0.0204521 0.000719556 0)
(-0.0206968 0.000675003 0)
(-0.0209257 0.000629493 0)
(-0.0211384 0.000583089 0)
(-0.0213346 0.000535852 0)
(-0.0215142 0.000487846 0)
(-0.0216767 0.000439134 0)
(-0.021822 0.000389781 0)
(-0.0219499 0.000339851 0)
(-0.0220601 0.00028941 0)
(-0.0221525 0.000238524 0)
(-0.022227 0.000187258 0)
(-0.0222834 0.000135678 0)
(-0.0223217 8.3853e-05 0)
(-0.0223417 3.18495e-05 0)
(-0.0223435 -2.02639e-05 0)
(-0.0223269 -7.24173e-05 0)
(-0.0222921 -0.000124541 0)
(-0.0222389 -0.000176564 0)
(-0.0221676 -0.000228416 0)
(-0.0220781 -0.000280026 0)
(-0.0219705 -0.000331322 0)
(-0.021845 -0.000382234 0)
(-0.0217017 -0.000432688 0)
(-0.0215408 -0.000482612 0)
(-0.0213625 -0.000531931 0)
(-0.0211671 -0.000580572 0)
(-0.0209547 -0.000628461 0)
(-0.0207257 -0.000675523 0)
(-0.0204803 -0.000721684 0)
(-0.0202189 -0.000766869 0)
(-0.0199419 -0.000811003 0)
(-0.0196496 -0.000854012 0)
(-0.0193425 -0.000895821 0)
(-0.0190209 -0.000936356 0)
(-0.0186854 -0.000975542 0)
(-0.0183364 -0.00101331 0)
(-0.0179745 -0.00104957 0)
(-0.0176001 -0.00108427 0)
(-0.0172139 -0.00111733 0)
(-0.0168164 -0.00114867 0)
(-0.0164082 -0.00117823 0)
(-0.01599 -0.00120594 0)
(-0.0155625 -0.00123172 0)
(-0.0151262 -0.00125551 0)
(-0.014682 -0.00127725 0)
(-0.0142306 -0.00129687 0)
(-0.0137726 -0.0013143 0)
(-0.0133089 -0.00132949 0)
(-0.0128403 -0.00134238 0)
(-0.0123675 -0.00135291 0)
(-0.0118915 -0.00136103 0)
(-0.011413 -0.00136668 0)
(-0.0109329 -0.00136981 0)
(-0.0104521 -0.00137038 0)
(-0.00997145 -0.00136835 0)
(-0.00949192 -0.00136366 0)
(-0.00901441 -0.00135629 0)
(-0.00853983 -0.0013462 0)
(-0.00806914 -0.00133337 0)
(-0.00760326 -0.00131777 0)
(-0.00714316 -0.00129939 0)
(-0.00668979 -0.0012782 0)
(-0.00624411 -0.0012542 0)
(-0.00580707 -0.0012274 0)
(-0.00537962 -0.00119778 0)
(-0.00496272 -0.00116537 0)
(-0.00455729 -0.0011302 0)
(-0.00416427 -0.00109227 0)
(-0.00378455 -0.00105165 0)
(-0.00341904 -0.00100838 0)
(-0.00306859 -0.000962526 0)
(-0.00273404 -0.000914172 0)
(-0.00241618 -0.000863418 0)
(-0.00211577 -0.000810385 0)
(-0.00183351 -0.000755216 0)
(-0.00157005 -0.000698082 0)
(-0.00132596 -0.000639189 0)
(-0.00110174 -0.00057878 0)
(-0.000897788 -0.000517145 0)
(-0.0007144 -0.000454626 0)
(-0.00055174 -0.000391638 0)
(-0.000409825 -0.000328671 0)
(-0.000288503 -0.000266315 0)
(-0.00018742 -0.000205278 0)
(-0.000105999 -0.000146412 0)
(-4.33984e-05 -9.07408e-05 0)
(1.52403e-06 -3.94969e-05 0)
(3.02491e-05 5.84213e-06 0)
(4.46435e-05 4.35147e-05 0)
(4.70085e-05 7.14395e-05 0)
(4.00978e-05 8.71919e-05 0)
(2.71727e-05 8.801e-05 0)
(1.26981e-05 7.08324e-05 0)
(2.87258e-06 3.2184e-05 0)
(2.19968e-06 -3.7605e-05 0)
(8.51691e-06 -7.82956e-05 0)
(1.54987e-05 -9.10665e-05 0)
(1.7451e-05 -8.10562e-05 0)
(1.00696e-05 -5.23752e-05 0)
(-9.89649e-06 -8.59101e-06 0)
(-4.51549e-05 4.72165e-05 0)
(-9.79476e-05 0.000112413 0)
(-0.000170075 0.000184767 0)
(-0.000262945 0.000262399 0)
(-0.000377627 0.000343732 0)
(-0.000514876 0.000427447 0)
(-0.00067518 0.000512447 0)
(-0.000858792 0.000597814 0)
(-0.00106576 0.000682786 0)
(-0.00129594 0.000766731 0)
(-0.00154904 0.000849117 0)
(-0.00182465 0.000929509 0)
(-0.00212223 0.00100754 0)
(-0.00244114 0.00108292 0)
(-0.00278067 0.00115538 0)
(-0.00314003 0.00122474 0)
(-0.00351836 0.00129082 0)
(-0.00391479 0.00135349 0)
(-0.00432836 0.00141265 0)
(-0.00475811 0.00146821 0)
(-0.00520305 0.00152012 0)
(-0.00566216 0.00156833 0)
(-0.00613439 0.00161281 0)
(-0.00661872 0.00165355 0)
(-0.00711409 0.00169054 0)
(-0.00761944 0.0017238 0)
(-0.00813371 0.00175334 0)
(-0.00865585 0.00177918 0)
(-0.00918482 0.00180136 0)
(-0.00971955 0.0018199 0)
(-0.010259 0.00183485 0)
(-0.0108022 0.00184625 0)
(-0.0113481 0.00185417 0)
(-0.0118957 0.00185864 0)
(-0.012444 0.00185973 0)
(-0.012992 0.0018575 0)
(-0.0135388 0.00185202 0)
(-0.0140835 0.00184333 0)
(-0.014625 0.00183152 0)
(-0.0151626 0.00181665 0)
(-0.0156953 0.00179879 0)
(-0.0162223 0.00177801 0)
(-0.0167428 0.00175438 0)
(-0.0172558 0.00172798 0)
(-0.0177606 0.00169889 0)
(-0.0182564 0.00166718 0)
(-0.0187425 0.00163292 0)
(-0.0192182 0.0015962 0)
(-0.0196826 0.00155709 0)
(-0.0201352 0.00151567 0)
(-0.0205752 0.00147202 0)
(-0.021002 0.00142621 0)
(-0.021415 0.00137834 0)
(-0.0218136 0.00132848 0)
(-0.0221972 0.00127672 0)
(-0.0225653 0.00122313 0)
(-0.0229173 0.00116779 0)
(-0.0232527 0.0011108 0)
(-0.0235712 0.00105223 0)
(-0.0238721 0.000992174 0)
(-0.0241551 0.000930711 0)
(-0.0244198 0.000867929 0)
(-0.0246658 0.000803913 0)
(-0.0248927 0.000738749 0)
(-0.0251003 0.000672526 0)
(-0.0252883 0.000605329 0)
(-0.0254562 0.000537249 0)
(-0.0256041 0.000468376 0)
(-0.0257314 0.000398798 0)
(-0.0258383 0.000328608 0)
(-0.0259243 0.000257896 0)
(-0.0259894 0.000186754 0)
(-0.0260336 0.000115275 0)
(-0.0260566 4.3553e-05 0)
(-0.0260585 -2.83171e-05 0)
(-0.0260392 -0.00010024 0)
(-0.0259987 -0.000172119 0)
(-0.0259371 -0.000243857 0)
(-0.0258545 -0.000315357 0)
(-0.0257508 -0.000386519 0)
(-0.0256262 -0.000457247 0)