0.05 	0.0003125 	0.005 	-0.00219955 	3.49735e-07 	0
0.05 	0.0009375 	0.005 	-0.0064689 	2.38762e-06 	0
0.05 	0.0015625 	0.005 	-0.0106164 	6.85982e-06 	0
0.05 	0.0021875 	0.005 	-0.0146491 	1.33669e-05 	0
0.05 	0.0028125 	0.005 	-0.0185735 	2.16974e-05 	0
0.05 	0.0034375 	0.005 	-0.0223958 	3.17437e-05 	0
0.05 	0.0040625 	0.005 	-0.026122 	4.34e-05 	0
0.05 	0.0046875 	0.005 	-0.0297578 	5.6568e-05 	0
0.05 	0.0053125 	0.005 	-0.0333086 	7.11633e-05 	0
0.05 	0.0059375 	0.005 	-0.0367794 	8.71146e-05 	0
0.05 	0.0065625 	0.005 	-0.0401753 	0.000104363 	0
0.05 	0.0071875 	0.005 	-0.043501 	0.000122861 	0
0.05 	0.0078125 	0.005 	-0.0467608 	0.000142572 	0
0.05 	0.0084375 	0.005 	-0.049959 	0.000163472 	0
0.05 	0.0090625 	0.005 	-0.0530997 	0.000185545 	0
0.05 	0.0096875 	0.005 	-0.0561867 	0.000208788 	0
0.05 	0.0103125 	0.005 	-0.0592236 	0.000233207 	0
0.05 	0.0109375 	0.005 	-0.0622139 	0.000258816 	0
0.05 	0.0115625 	0.005 	-0.0651609 	0.000285641 	0
0.05 	0.0121875 	0.005 	-0.0680677 	0.000313714 	0
0.05 	0.0128125 	0.005 	-0.0709373 	0.00034308 	0
0.05 	0.0134375 	0.005 	-0.0737724 	0.000373788 	0
0.05 	0.0140625 	0.005 	-0.0765757 	0.000405899 	0
0.05 	0.0146875 	0.005 	-0.0793497 	0.000439481 	0
0.05 	0.0153125 	0.005 	-0.0820967 	0.00047461 	0
0.05 	0.0159375 	0.005 	-0.0848189 	0.000511368 	0
0.05 	0.0165625 	0.005 	-0.0875184 	0.000549848 	0
0.05 	0.0171875 	0.005 	-0.0901971 	0.000590148 	0
0.05 	0.0178125 	0.005 	-0.0928568 	0.000632373 	0
0.05 	0.0184375 	0.005 	-0.0954992 	0.000676638 	0
0.05 	0.0190625 	0.005 	-0.0981258 	0.000723062 	0
0.05 	0.0196875 	0.005 	-0.100738 	0.000771771 	0
0.05 	0.0203125 	0.005 	-0.103337 	0.000822898 	0
0.05 	0.0209375 	0.005 	-0.105924 	0.000876584 	0
0.05 	0.0215625 	0.005 	-0.108501 	0.000932972 	0
0.05 	0.0221875 	0.005 	-0.111067 	0.000992215 	0
0.05 	0.0228125 	0.005 	-0.113624 	0.00105447 	0
0.05 	0.0234375 	0.005 	-0.116173 	0.0011199 	0
0.05 	0.0240625 	0.005 	-0.118714 	0.00118867 	0
0.05 	0.0246875 	0.005 	-0.121247 	0.00126095 	0
0.05 	0.0253125 	0.005 	-0.123773 	0.00133693 	0
0.05 	0.0259375 	0.005 	-0.126292 	0.00141678 	0
0.05 	0.0265625 	0.005 	-0.128804 	0.00150069 	0
0.05 	0.0271875 	0.005 	-0.131309 	0.00158884 	0
0.05 	0.0278125 	0.005 	-0.133807 	0.00168143 	0
0.05 	0.0284375 	0.005 	-0.136298 	0.00177865 	0
0.05 	0.0290625 	0.005 	-0.13878 	0.00188071 	0
0.05 	0.0296875 	0.005 	-0.141254 	0.00198779 	0
0.05 	0.0303125 	0.005 	-0.143719 	0.0021001 	0
0.05 	0.0309375 	0.005 	-0.146174 	0.00221784 	0
0.05 	0.0315625 	0.005 	-0.148618 	0.00234121 	0
0.05 	0.0321875 	0.005 	-0.15105 	0.00247041 	0
0.05 	0.0328125 	0.005 	-0.153468 	0.00260564 	0
0.05 	0.0334375 	0.005 	-0.155871 	0.0027471 	0
0.05 	0.0340625 	0.005 	-0.158259 	0.00289497 	0
0.05 	0.0346875 	0.005 	-0.160627 	0.00304945 	0
0.05 	0.0353125 	0.005 	-0.162976 	0.00321073 	0
0.05 	0.0359375 	0.005 	-0.165303 	0.00337898 	0
0.05 	0.0365625 	0.005 	-0.167606 	0.00355438 	0
0.05 	0.0371875 	0.005 	-0.169882 	0.0037371 	0
0.05 	0.0378125 	0.005 	-0.172129 	0.00392728 	0
0.05 	0.0384375 	0.005 	-0.174344 	0.00412509 	0
0.05 	0.0390625 	0.005 	-0.176524 	0.00433065 	0
0.05 	0.0396875 	0.005 	-0.178667 	0.00454408 	0
0.05 	0.0403125 	0.005 	-0.180768 	0.00476551 	0
0.05 	0.0409375 	0.005 	-0.182825 	0.00499501 	0
0.05 	0.0415625 	0.005 	-0.184834 	0.00523268 	0
0.05 	0.0421875 	0.005 	-0.18679 	0.00547857 	0
0.05 	0.0428125 	0.005 	-0.18869 	0.00573271 	0
0.05 	0.0434375 	0.005 	-0.19053 	0.00599514 	0
0.05 	0.0440625 	0.005 	-0.192305 	0.00626584 	0
0.05 	0.0446875 	0.005 	-0.19401 	0.00654479 	0
0.05 	0.0453125 	0.005 	-0.19564 	0.00683193 	0
0.05 	0.0459375 	0.005 	-0.197191 	0.00712717 	0
0.05 	0.0465625 	0.005 	-0.198656 	0.00743041 	0
0.05 	0.0471875 	0.005 	-0.200031 	0.00774149 	0
0.05 	0.0478125 	0.005 	-0.201309 	0.00806024 	0
0.05 	0.0484375 	0.005 	-0.202484 	0.00838644 	0
0.05 	0.0490625 	0.005 	-0.203549 	0.00871984 	0
0.05 	0.0496875 	0.005 	-0.204499 	0.00906015 	0
0.05 	0.0503125 	0.005 	-0.205325 	0.00940702 	0
0.05 	0.0509375 	0.005 	-0.206022 	0.00976009 	0
0.05 	0.0515625 	0.005 	-0.206581 	0.0101189 	0
0.05 	0.0521875 	0.005 	-0.206995 	0.0104831 	0
0.05 	0.0528125 	0.005 	-0.207256 	0.010852 	0
0.05 	0.0534375 	0.005 	-0.207356 	0.0112252 	0
0.05 	0.0540625 	0.005 	-0.207285 	0.0116019 	0
0.05 	0.0546875 	0.005 	-0.207036 	0.0119816 	0
0.05 	0.0553125 	0.005 	-0.206599 	0.0123635 	0
0.05 	0.0559375 	0.005 	-0.205964 	0.0127468 	0
0.05 	0.0565625 	0.005 	-0.205123 	0.0131308 	0
0.05 	0.0571875 	0.005 	-0.204065 	0.0135144 	0
0.05 	0.0578125 	0.005 	-0.202781 	0.0138968 	0
0.05 	0.0584375 	0.005 	-0.201258 	0.014277 	0
0.05 	0.0590625 	0.005 	-0.199488 	0.0146539 	0
0.05 	0.0596875 	0.005 	-0.197458 	0.0150264 	0
0.05 	0.0603125 	0.005 	-0.195158 	0.0153933 	0
0.05 	0.0609375 	0.005 	-0.192575 	0.0157535 	0
0.05 	0.0615625 	0.005 	-0.189699 	0.0161056 	0
0.05 	0.0621875 	0.005 	-0.186517 	0.0164484 	0
0.05 	0.0628125 	0.005 	-0.183016 	0.0167805 	0
0.05 	0.0634375 	0.005 	-0.179185 	0.0171005 	0
0.05 	0.0640625 	0.005 	-0.17501 	0.0174069 	0
0.05 	0.0646875 	0.005 	-0.170479 	0.0176984 	0
0.05 	0.0653125 	0.005 	-0.165578 	0.0179734 	0
0.05 	0.0659375 	0.005 	-0.160294 	0.0182303 	0
0.05 	0.0665625 	0.005 	-0.154613 	0.0184678 	0
0.05 	0.0671875 	0.005 	-0.148523 	0.0186842 	0
0.05 	0.0678125 	0.005 	-0.142008 	0.018878 	0
0.05 	0.0684375 	0.005 	-0.135056 	0.0190477 	0
0.05 	0.0690625 	0.005 	-0.127652 	0.0191918 	0
0.05 	0.0696875 	0.005 	-0.119782 	0.0193089 	0
0.05 	0.0703125 	0.005 	-0.111432 	0.0193974 	0
0.05 	0.0709375 	0.005 	-0.102589 	0.0194561 	0
0.05 	0.0715625 	0.005 	-0.0932372 	0.0194836 	0
0.05 	0.0721875 	0.005 	-0.0833639 	0.0194786 	0
0.05 	0.0728125 	0.005 	-0.072955 	0.0194402 	0
0.05 	0.0734375 	0.005 	-0.0619968 	0.0193671 	0
0.05 	0.0740625 	0.005 	-0.0504756 	0.0192586 	0
0.05 	0.0746875 	0.005 	-0.0383783 	0.0191137 	0
0.05 	0.0753125 	0.005 	-0.0256918 	0.0189319 	0
0.05 	0.0759375 	0.005 	-0.0124034 	0.0187128 	0
0.05 	0.0765625 	0.005 	0.00149926 	0.018456 	0
0.05 	0.0771875 	0.005 	0.0160281 	0.0181614 	0
0.05 	0.0778125 	0.005 	0.0311946 	0.0178291 	0
0.05 	0.0784375 	0.005 	0.0470096 	0.0174595 	0
0.05 	0.0790625 	0.005 	0.0634835 	0.0170531 	0
0.05 	0.0796875 	0.005 	0.0806259 	0.0166107 	0
0.05 	0.0803125 	0.005 	0.0984458 	0.0161334 	0
0.05 	0.0809375 	0.005 	0.116951 	0.0156226 	0
0.05 	0.0815625 	0.005 	0.13615 	0.0150797 	0
0.05 	0.0821875 	0.005 	0.156048 	0.0145067 	0
0.05 	0.0828125 	0.005 	0.176651 	0.0139058 	0
0.05 	0.0834375 	0.005 	0.197963 	0.0132794 	0
0.05 	0.0840625 	0.005 	0.219987 	0.0126301 	0
0.05 	0.0846875 	0.005 	0.242726 	0.0119609 	0
0.05 	0.0853125 	0.005 	0.266181 	0.0112752 	0
0.05 	0.0859375 	0.005 	0.29035 	0.0105764 	0
0.05 	0.0865625 	0.005 	0.315232 	0.00986813 	0
0.05 	0.0871875 	0.005 	0.340823 	0.00915445 	0
0.05 	0.0878125 	0.005 	0.367119 	0.00843943 	0
0.05 	0.0884375 	0.005 	0.394114 	0.00772735 	0
0.05 	0.0890625 	0.005 	0.421798 	0.00702262 	0
0.05 	0.0896875 	0.005 	0.450162 	0.00632973 	0
0.05 	0.0903125 	0.005 	0.479194 	0.0056532 	0
0.05 	0.0909375 	0.005 	0.508882 	0.00499754 	0
0.05 	0.0915625 	0.005 	0.53921 	0.00436723 	0
0.05 	0.0921875 	0.005 	0.570162 	0.00376659 	0
0.05 	0.0928125 	0.005 	0.601718 	0.00319981 	0
0.05 	0.0934375 	0.005 	0.633858 	0.00267079 	0
0.05 	0.0940625 	0.005 	0.66656 	0.00218315 	0
0.05 	0.0946875 	0.005 	0.6998 	0.0017401 	0
0.05 	0.0953125 	0.005 	0.733551 	0.00134441 	0
0.05 	0.0959375 	0.005 	0.767787 	0.000998291 	0
0.05 	0.0965625 	0.005 	0.802478 	0.000703366 	0
0.05 	0.0971875 	0.005 	0.837593 	0.000460562 	0
0.05 	0.0978125 	0.005 	0.873101 	0.000269925 	0
0.05 	0.0984375 	0.005 	0.908967 	0.000130412 	0
0.05 	0.0990625 	0.005 	0.945158 	4.15234e-05 	0
0.05 	0.0996875 	0.005 	0.981637 	4.90515e-06 	0
