/*--------------------------------*- C++ -*----------------------------------*\
  =========                 |
  \\      /  F ield         | OpenFOAM: The Open Source CFD Toolbox
   \\    /   O peration     | Website:  https://openfoam.org
    \\  /    A nd           | Version:  7
     \\/     M anipulation  |
\*---------------------------------------------------------------------------*/
FoamFile
{
    version     2.0;
    format      ascii;
    class       volVectorField;
    location    "0.1625";
    object      U;
}
// * * * * * * * * * * * * * * * * * * * * * * * * * * * * * * * * * * * * * //

dimensions      [0 1 -1 0 0 0 0];

internalField   nonuniform List<vector> 
25600
(
(9.8329e-07 -8.22421e-07 0)
(3.2094e-06 -1.33902e-06 0)
(5.5601e-06 -1.13647e-06 0)
(6.37828e-06 -4.99423e-07 0)
(5.05845e-06 2.9655e-07 0)
(1.37163e-06 1.10355e-06 0)
(-4.64251e-06 1.85752e-06 0)
(-1.28585e-05 2.53652e-06 0)
(-2.31027e-05 3.13956e-06 0)
(-3.51804e-05 3.67107e-06 0)
(-4.88899e-05 4.13629e-06 0)
(-6.40362e-05 4.54137e-06 0)
(-8.04345e-05 4.88913e-06 0)
(-9.79083e-05 5.17947e-06 0)
(-0.000116294 5.41708e-06 0)
(-0.000135446 5.61236e-06 0)
(-0.000155233 5.77336e-06 0)
(-0.000175539 5.90265e-06 0)
(-0.000196256 6.00177e-06 0)
(-0.000217292 6.07375e-06 0)
(-0.000238568 6.1227e-06 0)
(-0.000260014 6.15373e-06 0)
(-0.000281572 6.17171e-06 0)
(-0.000303192 6.17906e-06 0)
(-0.00032483 6.17558e-06 0)
(-0.000346449 6.16122e-06 0)
(-0.00036802 6.13812e-06 0)
(-0.000389518 6.10967e-06 0)
(-0.000410922 6.07806e-06 0)
(-0.000432214 6.04343e-06 0)
(-0.00045338 6.005e-06 0)
(-0.000474407 5.96272e-06 0)
(-0.000495284 5.91766e-06 0)
(-0.000516003 5.87126e-06 0)
(-0.000536555 5.82407e-06 0)
(-0.000556934 5.77552e-06 0)
(-0.000577132 5.72486e-06 0)
(-0.000597143 5.67198e-06 0)
(-0.000616961 5.61752e-06 0)
(-0.00063658 5.56205e-06 0)
(-0.000655993 5.50548e-06 0)
(-0.000675194 5.44717e-06 0)
(-0.000694177 5.38673e-06 0)
(-0.000712936 5.32431e-06 0)
(-0.000731463 5.26028e-06 0)
(-0.000749753 5.19466e-06 0)
(-0.000767797 5.12705e-06 0)
(-0.000785589 5.05708e-06 0)
(-0.00080312 4.98472e-06 0)
(-0.000820384 4.91019e-06 0)
(-0.000837372 4.83363e-06 0)
(-0.000854077 4.75492e-06 0)
(-0.00087049 4.67377e-06 0)
(-0.000886602 4.58996e-06 0)
(-0.000902406 4.50353e-06 0)
(-0.000917892 4.41459e-06 0)
(-0.000933052 4.3232e-06 0)
(-0.000947876 4.22927e-06 0)
(-0.000962356 4.13266e-06 0)
(-0.000976483 4.03321e-06 0)
(-0.000990246 3.93085e-06 0)
(-0.00100364 3.82566e-06 0)
(-0.00101665 3.71777e-06 0)
(-0.00102926 3.60722e-06 0)
(-0.00104148 3.4939e-06 0)
(-0.00105329 3.37754e-06 0)
(-0.00106467 3.25802e-06 0)
(-0.00107563 3.13542e-06 0)
(-0.00108614 3.00991e-06 0)
(-0.0010962 2.88164e-06 0)
(-0.00110581 2.75053e-06 0)
(-0.00111494 2.61636e-06 0)
(-0.00112359 2.47902e-06 0)
(-0.00113175 2.33858e-06 0)
(-0.00113942 2.19526e-06 0)
(-0.00114657 2.04911e-06 0)
(-0.0011532 1.90007e-06 0)
(-0.0011593 1.74801e-06 0)
(-0.00116487 1.59294e-06 0)
(-0.00116988 1.43499e-06 0)
(-0.00117434 1.27423e-06 0)
(-0.00117823 1.11071e-06 0)
(-0.00118154 9.444e-07 0)
(-0.00118427 7.75373e-07 0)
(-0.00118641 6.03733e-07 0)
(-0.00118794 4.2954e-07 0)
(-0.00118886 2.52783e-07 0)
(-0.00118916 7.34908e-08 0)
(-0.00118884 -1.0819e-07 0)
(-0.00118788 -2.9203e-07 0)
(-0.00118628 -4.779e-07 0)
(-0.00118403 -6.65811e-07 0)
(-0.00118113 -8.55782e-07 0)
(-0.00117757 -1.0477e-06 0)
(-0.00117334 -1.24132e-06 0)
(-0.00116844 -1.43643e-06 0)
(-0.00116287 -1.63291e-06 0)
(-0.00115662 -1.83073e-06 0)
(-0.00114968 -2.02981e-06 0)
(-0.00114205 -2.22994e-06 0)
(-0.00113374 -2.43089e-06 0)
(-0.00112473 -2.63246e-06 0)
(-0.00111503 -2.83451e-06 0)
(-0.00110464 -3.03689e-06 0)
(-0.00109355 -3.2394e-06 0)
(-0.00108177 -3.44185e-06 0)
(-0.00106929 -3.64408e-06 0)
(-0.00105612 -3.84592e-06 0)
(-0.00104226 -4.04717e-06 0)
(-0.00102772 -4.24757e-06 0)
(-0.00101249 -4.44685e-06 0)
(-0.000996576 -4.64485e-06 0)
(-0.000979993 -4.84145e-06 0)
(-0.00096274 -5.03646e-06 0)
(-0.000944826 -5.2296e-06 0)
(-0.000926256 -5.42056e-06 0)
(-0.00090704 -5.60908e-06 0)
(-0.000887185 -5.79499e-06 0)
(-0.000866701 -5.97812e-06 0)
(-0.000845599 -6.15819e-06 0)
(-0.000823891 -6.33487e-06 0)
(-0.000801588 -6.50781e-06 0)
(-0.000778705 -6.6767e-06 0)
(-0.000755257 -6.84122e-06 0)
(-0.00073126 -7.00097e-06 0)
(-0.000706732 -7.15545e-06 0)
(-0.000681692 -7.30412e-06 0)
(-0.000656162 -7.44638e-06 0)
(-0.000630167 -7.58155e-06 0)
(-0.000603733 -7.70881e-06 0)
(-0.000576889 -7.82721e-06 0)
(-0.00054967 -7.93566e-06 0)
(-0.000522112 -8.03299e-06 0)
(-0.000494257 -8.11782e-06 0)
(-0.000466152 -8.18856e-06 0)
(-0.000437851 -8.24333e-06 0)
(-0.000409412 -8.28003e-06 0)
(-0.000380903 -8.29637e-06 0)
(-0.000352398 -8.28981e-06 0)
(-0.000323982 -8.25751e-06 0)
(-0.000295748 -8.19628e-06 0)
(-0.0002678 -8.10261e-06 0)
(-0.000240256 -7.97271e-06 0)
(-0.000213243 -7.80246e-06 0)
(-0.000186905 -7.58741e-06 0)
(-0.000161395 -7.32276e-06 0)
(-0.000136886 -7.00334e-06 0)
(-0.000113562 -6.62362e-06 0)
(-9.16238e-05 -6.17777e-06 0)
(-7.12862e-05 -5.65968e-06 0)
(-5.27782e-05 -5.06304e-06 0)
(-3.63407e-05 -4.38154e-06 0)
(-2.22219e-05 -3.6096e-06 0)
(-1.06689e-05 -2.74413e-06 0)
(-1.91094e-06 -1.78876e-06 0)
(3.86568e-06 -7.63569e-07 0)
(6.57709e-06 2.79818e-07 0)
(6.36186e-06 1.20718e-06 0)
(3.95949e-06 1.716e-06 0)
(1.18004e-06 1.18016e-06 0)
(1.5504e-06 -3.24849e-06 0)
(4.54653e-06 -4.31019e-06 0)
(6.09022e-06 -2.41164e-06 0)
(3.78523e-06 1.15338e-06 0)
(-3.69635e-06 5.43598e-06 0)
(-1.68849e-05 9.90929e-06 0)
(-3.58285e-05 1.42708e-05 0)
(-6.03599e-05 1.83619e-05 0)
(-9.01528e-05 2.21105e-05 0)
(-0.000124786 2.54894e-05 0)
(-0.000163798 2.84936e-05 0)
(-0.000206717 3.11329e-05 0)
(-0.000253078 3.34255e-05 0)
(-0.000302433 3.53918e-05 0)
(-0.000354361 3.70551e-05 0)
(-0.000408474 3.84445e-05 0)
(-0.000464419 3.95898e-05 0)
(-0.000521872 4.05178e-05 0)
(-0.000580543 4.12524e-05 0)
(-0.000640177 4.18166e-05 0)
(-0.000700548 4.22318e-05 0)
(-0.000761458 4.25184e-05 0)
(-0.000822739 4.26962e-05 0)
(-0.000884242 4.27827e-05 0)
(-0.00094584 4.27915e-05 0)
(-0.00100742 4.27329e-05 0)
(-0.00106891 4.26171e-05 0)
(-0.00113021 4.24542e-05 0)
(-0.00119126 4.22535e-05 0)
(-0.00125202 4.2021e-05 0)
(-0.00131243 4.17612e-05 0)
(-0.00137244 4.14773e-05 0)
(-0.00143204 4.11727e-05 0)
(-0.00149119 4.08506e-05 0)
(-0.00154986 4.05135e-05 0)
(-0.00160802 4.01624e-05 0)
(-0.00166566 3.97978e-05 0)
(-0.00172276 3.94198e-05 0)
(-0.00177929 3.90291e-05 0)
(-0.00183524 3.86262e-05 0)
(-0.00189059 3.82114e-05 0)
(-0.00194531 3.77841e-05 0)
(-0.00199939 3.73435e-05 0)
(-0.00205282 3.68895e-05 0)
(-0.00210556 3.6422e-05 0)
(-0.0021576 3.59409e-05 0)
(-0.00220892 3.54457e-05 0)
(-0.00225949 3.49357e-05 0)
(-0.00230931 3.44103e-05 0)
(-0.00235833 3.38694e-05 0)
(-0.00240655 3.33129e-05 0)
(-0.00245394 3.27404e-05 0)
(-0.00250047 3.21516e-05 0)
(-0.00254612 3.1546e-05 0)
(-0.00259087 3.09232e-05 0)
(-0.00263469 3.0283e-05 0)
(-0.00267756 2.96253e-05 0)
(-0.00271945 2.89499e-05 0)
(-0.00276034 2.82565e-05 0)
(-0.00280021 2.75448e-05 0)
(-0.00283901 2.68146e-05 0)
(-0.00287674 2.60657e-05 0)
(-0.00291336 2.52979e-05 0)
(-0.00294884 2.45112e-05 0)
(-0.00298317 2.37054e-05 0)
(-0.00301631 2.28804e-05 0)
(-0.00304823 2.20359e-05 0)
(-0.00307891 2.11719e-05 0)
(-0.00310832 2.02884e-05 0)
(-0.00313644 1.93854e-05 0)
(-0.00316323 1.8463e-05 0)
(-0.00318867 1.75211e-05 0)
(-0.00321274 1.65596e-05 0)
(-0.00323539 1.55785e-05 0)
(-0.00325662 1.4578e-05 0)
(-0.00327639 1.35584e-05 0)
(-0.00329467 1.25198e-05 0)
(-0.00331144 1.14623e-05 0)
(-0.00332667 1.03859e-05 0)
(-0.00334033 9.29085e-06 0)
(-0.00335241 8.17758e-06 0)
(-0.00336288 7.04638e-06 0)
(-0.0033717 5.89756e-06 0)
(-0.00337886 4.73145e-06 0)
(-0.00338434 3.54849e-06 0)
(-0.00338811 2.34917e-06 0)
(-0.00339014 1.13399e-06 0)
(-0.00339043 -9.65844e-08 0)
(-0.00338894 -1.34198e-06 0)
(-0.00338566 -2.6015e-06 0)
(-0.00338057 -3.87444e-06 0)
(-0.00337365 -5.16012e-06 0)
(-0.00336488 -6.45789e-06 0)
(-0.00335425 -7.76704e-06 0)
(-0.00334175 -9.08673e-06 0)
(-0.00332735 -1.0416e-05 0)
(-0.00331106 -1.17539e-05 0)
(-0.00329285 -1.30996e-05 0)
(-0.00327272 -1.4452e-05 0)
(-0.00325066 -1.58103e-05 0)
(-0.00322666 -1.71732e-05 0)
(-0.00320072 -1.85396e-05 0)
(-0.00317284 -1.99084e-05 0)
(-0.003143 -2.12784e-05 0)
(-0.00311123 -2.26485e-05 0)
(-0.0030775 -2.40174e-05 0)
(-0.00304183 -2.53839e-05 0)
(-0.00300423 -2.67466e-05 0)
(-0.00296469 -2.81044e-05 0)
(-0.00292323 -2.94557e-05 0)
(-0.00287986 -3.07993e-05 0)
(-0.00283459 -3.21338e-05 0)
(-0.00278744 -3.34577e-05 0)
(-0.00273842 -3.47696e-05 0)
(-0.00268755 -3.60681e-05 0)
(-0.00263485 -3.73515e-05 0)
(-0.00258035 -3.86183e-05 0)
(-0.00252406 -3.98667e-05 0)
(-0.00246602 -4.10952e-05 0)
(-0.00240626 -4.23018e-05 0)
(-0.00234481 -4.34846e-05 0)
(-0.00228171 -4.46413e-05 0)
(-0.002217 -4.57696e-05 0)
(-0.00215071 -4.68669e-05 0)
(-0.0020829 -4.79302e-05 0)
(-0.00201362 -4.89561e-05 0)
(-0.00194293 -4.99409e-05 0)
(-0.00187088 -5.08801e-05 0)
(-0.00179756 -5.17688e-05 0)
(-0.00172302 -5.26014e-05 0)
(-0.00164738 -5.33713e-05 0)
(-0.00157071 -5.40711e-05 0)
(-0.00149312 -5.46922e-05 0)
(-0.00141474 -5.52252e-05 0)
(-0.00133571 -5.5659e-05 0)
(-0.00125616 -5.59814e-05 0)
(-0.00117628 -5.61787e-05 0)
(-0.00109625 -5.62355e-05 0)
(-0.00101629 -5.6135e-05 0)
(-0.00093663 -5.58588e-05 0)
(-0.000857534 -5.53868e-05 0)
(-0.000779295 -5.46969e-05 0)
(-0.000702236 -5.37659e-05 0)
(-0.000626712 -5.25688e-05 0)
(-0.00055311 -5.10794e-05 0)
(-0.000481853 -4.92703e-05 0)
(-0.000413401 -4.71135e-05 0)
(-0.000348243 -4.45806e-05 0)
(-0.000286907 -4.1644e-05 0)
(-0.000229943 -3.8278e-05 0)
(-0.000177928 -3.44609e-05 0)
(-0.000131446 -3.01787e-05 0)
(-9.10746e-05 -2.54314e-05 0)
(-5.73534e-05 -2.02441e-05 0)
(-3.07335e-05 -1.4689e-05 0)
(-1.15013e-05 -8.92582e-06 0)
(3.42974e-07 -3.26835e-06 0)
(5.2905e-06 1.67757e-06 0)
(4.7835e-06 4.78563e-06 0)
(1.71316e-06 3.95679e-06 0)
(1.18629e-06 -5.61649e-06 0)
(2.47189e-06 -5.96469e-06 0)
(1.61425e-07 -9.88486e-08 0)
(-8.28876e-06 9.23542e-06 0)
(-2.43391e-05 2.02561e-05 0)
(-4.86647e-05 3.18629e-05 0)
(-8.14088e-05 4.33437e-05 0)
(-0.00012239 5.42769e-05 0)
(-0.000171201 6.44309e-05 0)
(-0.000227291 7.36869e-05 0)
(-0.00029003 8.19956e-05 0)
(-0.000358753 8.93566e-05 0)
(-0.000432794 9.57999e-05 0)
(-0.000511499 0.000101372 0)
(-0.000594244 0.00010613 0)
(-0.000680445 0.00011014 0)
(-0.000769562 0.000113469 0)
(-0.000861103 0.000116188 0)
(-0.000954622 0.000118362 0)
(-0.00104972 0.000120054 0)
(-0.00114604 0.000121324 0)
(-0.00124327 0.000122224 0)
(-0.00134113 0.000122807 0)
(-0.0014394 0.000123117 0)
(-0.00153786 0.000123195 0)
(-0.00163634 0.000123074 0)
(-0.00173469 0.000122786 0)
(-0.00183278 0.000122355 0)
(-0.0019305 0.000121805 0)
(-0.00202776 0.000121155 0)
(-0.00212447 0.000120419 0)
(-0.00222057 0.000119609 0)
(-0.002316 0.000118735 0)
(-0.00241071 0.000117805 0)
(-0.00250464 0.000116826 0)
(-0.00259777 0.000115801 0)
(-0.00269004 0.000114734 0)
(-0.00278143 0.000113626 0)
(-0.0028719 0.000112479 0)
(-0.00296142 0.000111295 0)
(-0.00304995 0.000110072 0)
(-0.00313746 0.000108812 0)
(-0.00322392 0.000107513 0)
(-0.00330931 0.000106174 0)
(-0.00339357 0.000104796 0)
(-0.00347669 0.000103377 0)
(-0.00355863 0.000101916 0)
(-0.00363936 0.000100413 0)
(-0.00371883 9.88654e-05 0)
(-0.00379702 9.72736e-05 0)
(-0.00387389 9.56363e-05 0)
(-0.0039494 9.39528e-05 0)
(-0.00402351 9.22223e-05 0)
(-0.00409619 9.04439e-05 0)
(-0.0041674 8.86169e-05 0)
(-0.0042371 8.67405e-05 0)
(-0.00430525 8.48139e-05 0)
(-0.00437181 8.28367e-05 0)
(-0.00443674 8.08084e-05 0)
(-0.0045 7.87283e-05 0)
(-0.00456156 7.6596e-05 0)
(-0.00462135 7.44108e-05 0)
(-0.00467936 7.21724e-05 0)
(-0.00473553 6.98805e-05 0)
(-0.00478982 6.75346e-05 0)
(-0.0048422 6.51346e-05 0)
(-0.00489261 6.26802e-05 0)
(-0.00494102 6.01712e-05 0)
(-0.00498739 5.76075e-05 0)
(-0.00503166 5.49892e-05 0)
(-0.00507381 5.23161e-05 0)
(-0.00511378 4.95885e-05 0)
(-0.00515154 4.68065e-05 0)
(-0.00518704 4.39701e-05 0)
(-0.00522024 4.10797e-05 0)
(-0.0052511 3.81357e-05 0)
(-0.00527958 3.51386e-05 0)
(-0.00530564 3.20888e-05 0)
(-0.00532923 2.89871e-05 0)
(-0.00535033 2.5834e-05 0)
(-0.00536888 2.26303e-05 0)
(-0.00538485 1.93768e-05 0)
(-0.00539821 1.60748e-05 0)
(-0.00540892 1.27251e-05 0)
(-0.00541693 9.32909e-06 0)
(-0.00542223 5.88802e-06 0)
(-0.00542477 2.40337e-06 0)
(-0.00542451 -1.12335e-06 0)
(-0.00542144 -4.69051e-06 0)
(-0.00541552 -8.29634e-06 0)
(-0.00540672 -1.19389e-05 0)
(-0.00539502 -1.56163e-05 0)
(-0.00538038 -1.93264e-05 0)
(-0.00536279 -2.30671e-05 0)
(-0.00534223 -2.6836e-05 0)
(-0.00531867 -3.06308e-05 0)
(-0.0052921 -3.44487e-05 0)
(-0.00526249 -3.82872e-05 0)
(-0.00522985 -4.21433e-05 0)
(-0.00519415 -4.60142e-05 0)
(-0.00515539 -4.98969e-05 0)
(-0.00511356 -5.37884e-05 0)
(-0.00506865 -5.76853e-05 0)
(-0.00502067 -6.15844e-05 0)
(-0.00496962 -6.54824e-05 0)
(-0.00491549 -6.93758e-05 0)
(-0.00485829 -7.32611e-05 0)
(-0.00479804 -7.71346e-05 0)
(-0.00473474 -8.09927e-05 0)
(-0.00466841 -8.48316e-05 0)
(-0.00459907 -8.86474e-05 0)
(-0.00452674 -9.24363e-05 0)
(-0.00445144 -9.6194e-05 0)
(-0.00437319 -9.99167e-05 0)
(-0.00429204 -0.0001036 0)
(-0.004208 -0.00010724 0)
(-0.00412113 -0.000110831 0)
(-0.00403146 -0.000114369 0)
(-0.00393903 -0.000117849 0)
(-0.0038439 -0.000121265 0)
(-0.00374611 -0.000124613 0)
(-0.00364573 -0.000127884 0)
(-0.00354282 -0.000131073 0)
(-0.00343745 -0.000134172 0)
(-0.00332969 -0.000137172 0)
(-0.00321964 -0.000140063 0)
(-0.00310737 -0.000142834 0)
(-0.002993 -0.000145473 0)
(-0.00287664 -0.000147965 0)
(-0.0027584 -0.000150293 0)
(-0.00263843 -0.000152439 0)
(-0.00251689 -0.000154381 0)
(-0.00239395 -0.000156096 0)
(-0.00226979 -0.000157555 0)
(-0.00214464 -0.000158728 0)
(-0.00201874 -0.00015958 0)
(-0.00189236 -0.000160072 0)
(-0.0017658 -0.000160162 0)
(-0.00163939 -0.000159803 0)
(-0.00151352 -0.000158944 0)
(-0.00138858 -0.000157529 0)
(-0.00126504 -0.000155498 0)
(-0.00114341 -0.00015279 0)
(-0.00102422 -0.000149337 0)
(-0.000908078 -0.000145071 0)
(-0.00079563 -0.000139922 0)
(-0.000687569 -0.000133819 0)
(-0.000584635 -0.000126695 0)
(-0.000487607 -0.000118487 0)
(-0.000397296 -0.000109143 0)
(-0.000314531 -9.86278e-05 0)
(-0.000240138 -8.69348e-05 0)
(-0.000174908 -7.41049e-05 0)
(-0.000119551 -6.02548e-05 0)
(-7.46296e-05 -4.56267e-05 0)
(-4.04539e-05 -3.06701e-05 0)
(-1.69439e-05 -1.6173e-05 0)
(-3.42441e-06 -3.46071e-06 0)
(1.68758e-06 5.29313e-06 0)
(1.20408e-06 6.3536e-06 0)
(5.14515e-07 -6.52771e-06 0)
(-1.14299e-06 -3.72887e-06 0)
(-9.23181e-06 8.33823e-06 0)
(-2.57586e-05 2.57252e-05 0)
(-5.20096e-05 4.58577e-05 0)
(-8.86661e-05 6.7012e-05 0)
(-0.000135888 8.80359e-05 0)
(-0.000193465 0.000108199 0)
(-0.000260929 0.000127059 0)
(-0.000337646 0.000144369 0)
(-0.00042287 0.000160009 0)
(-0.000515798 0.000173948 0)
(-0.000615618 0.000186216 0)
(-0.000721523 0.000196884 0)
(-0.000832735 0.000206047 0)
(-0.000948513 0.000213812 0)
(-0.00106817 0.000220297 0)
(-0.00119107 0.000225623 0)
(-0.00131663 0.00022991 0)
(-0.00144434 0.000233274 0)
(-0.00157373 0.000235824 0)
(-0.00170438 0.00023766 0)
(-0.00183593 0.000238876 0)
(-0.00196805 0.000239556 0)
(-0.00210049 0.000239777 0)
(-0.00223298 0.000239605 0)
(-0.00236533 0.000239098 0)
(-0.00249736 0.000238306 0)
(-0.00262892 0.000237272 0)
(-0.00275987 0.000236032 0)
(-0.00289011 0.000234616 0)
(-0.00301953 0.000233049 0)
(-0.00314804 0.00023135 0)
(-0.00327559 0.000229535 0)
(-0.00340208 0.000227616 0)
(-0.00352748 0.000225602 0)
(-0.00365172 0.000223501 0)
(-0.00377475 0.000221317 0)
(-0.00389652 0.000219053 0)
(-0.00401698 0.000216712 0)
(-0.0041361 0.000214293 0)
(-0.00425381 0.000211798 0)
(-0.00437009 0.000209226 0)
(-0.00448488 0.000206576 0)
(-0.00459814 0.000203846 0)
(-0.00470982 0.000201036 0)
(-0.00481989 0.000198143 0)
(-0.00492828 0.000195167 0)
(-0.00503496 0.000192106 0)
(-0.00513987 0.000188958 0)
(-0.00524297 0.000185721 0)
(-0.00534421 0.000182394 0)
(-0.00544354 0.000178976 0)
(-0.0055409 0.000175465 0)
(-0.00563626 0.00017186 0)
(-0.00572955 0.00016816 0)
(-0.00582072 0.000164363 0)
(-0.00590972 0.000160468 0)
(-0.00599649 0.000156475 0)
(-0.006081 0.000152382 0)
(-0.00616317 0.000148189 0)
(-0.00624295 0.000143894 0)
(-0.00632029 0.000139497 0)
(-0.00639514 0.000134998 0)
(-0.00646744 0.000130395 0)
(-0.00653713 0.000125689 0)
(-0.00660416 0.000120879 0)
(-0.00666848 0.000115965 0)
(-0.00673002 0.000110946 0)
(-0.00678873 0.000105823 0)
(-0.00684456 0.000100596 0)
(-0.00689745 9.52648e-05 0)
(-0.00694735 8.98301e-05 0)
(-0.0069942 8.42923e-05 0)
(-0.00703795 7.86521e-05 0)
(-0.00707853 7.29101e-05 0)
(-0.00711591 6.70672e-05 0)
(-0.00715003 6.11248e-05 0)
(-0.00718083 5.50839e-05 0)
(-0.00720827 4.89459e-05 0)
(-0.00723228 4.27125e-05 0)
(-0.00725284 3.63854e-05 0)
(-0.00726988 2.99666e-05 0)
(-0.00728335 2.34582e-05 0)
(-0.00729322 1.68626e-05 0)
(-0.00729944 1.01824e-05 0)
(-0.00730197 3.42044e-06 0)
(-0.00730075 -3.42032e-06 0)
(-0.00729577 -1.03367e-05 0)
(-0.00728696 -1.73253e-05 0)
(-0.00727431 -2.43826e-05 0)
(-0.00725778 -3.15047e-05 0)
(-0.00723733 -3.86876e-05 0)
(-0.00721293 -4.59269e-05 0)
(-0.00718456 -5.32183e-05 0)
(-0.0071522 -6.05571e-05 0)
(-0.00711581 -6.79383e-05 0)
(-0.00707539 -7.53568e-05 0)
(-0.00703091 -8.28072e-05 0)
(-0.00698237 -9.02839e-05 0)
(-0.00692974 -9.77813e-05 0)
(-0.00687303 -0.000105293 0)
(-0.00681222 -0.000112814 0)
(-0.00674732 -0.000120337 0)
(-0.00667834 -0.000127856 0)
(-0.00660526 -0.000135364 0)
(-0.00652812 -0.000142855 0)
(-0.00644691 -0.000150321 0)
(-0.00636166 -0.000157756 0)
(-0.00627238 -0.000165152 0)
(-0.0061791 -0.000172502 0)
(-0.00608186 -0.000179799 0)
(-0.00598067 -0.000187034 0)
(-0.00587558 -0.0001942 0)
(-0.00576664 -0.000201289 0)
(-0.00565388 -0.000208291 0)
(-0.00553735 -0.000215199 0)
(-0.00541712 -0.000222003 0)
(-0.00529324 -0.000228693 0)
(-0.00516578 -0.000235259 0)
(-0.00503482 -0.000241689 0)
(-0.00490042 -0.000247971 0)
(-0.00476268 -0.000254091 0)
(-0.00462169 -0.000260034 0)
(-0.00447756 -0.000265783 0)
(-0.0043304 -0.000271319 0)
(-0.00418033 -0.00027662 0)
(-0.00402749 -0.000281661 0)
(-0.00387203 -0.000286415 0)
(-0.00371413 -0.000290848 0)
(-0.00355396 -0.000294925 0)
(-0.00339175 -0.000298604 0)
(-0.00322771 -0.000301838 0)
(-0.00306212 -0.000304575 0)
(-0.00289526 -0.000306754 0)
(-0.00272745 -0.000308311 0)
(-0.00255906 -0.00030917 0)
(-0.00239048 -0.000309252 0)
(-0.00222216 -0.000308467 0)
(-0.0020546 -0.00030672 0)
(-0.00188833 -0.000303908 0)
(-0.00172396 -0.00029992 0)
(-0.00156214 -0.00029464 0)
(-0.00140358 -0.000287948 0)
(-0.00124905 -0.00027972 0)
(-0.00109939 -0.000269831 0)
(-0.000955468 -0.000258162 0)
(-0.000818233 -0.000244597 0)
(-0.000688655 -0.000229038 0)
(-0.00056774 -0.00021141 0)
(-0.000456499 -0.000191677 0)
(-0.000355927 -0.000169861 0)
(-0.000266957 -0.000146077 0)
(-0.000190412 -0.00012058 0)
(-0.000126925 -9.38404e-05 0)
(-7.68452e-05 -6.66599e-05 0)
(-4.00944e-05 -4.03476e-05 0)
(-1.5995e-05 -1.6953e-05 0)
(-3.20587e-06 3.88905e-07 0)
(2.84227e-07 6.57705e-06 0)
(-2.91085e-07 -5.1869e-06 0)
(-5.46268e-06 3.77288e-06 0)
(-2.03609e-05 2.44328e-05 0)
(-4.60874e-05 5.19986e-05 0)
(-8.35411e-05 8.32334e-05 0)
(-0.00013328 0.000115858 0)
(-0.000195387 0.000148303 0)
(-0.000269586 0.000179523 0)
(-0.000355346 0.000208854 0)
(-0.000451957 0.0002359 0)
(-0.00055859 0.000260455 0)
(-0.000674346 0.000282444 0)
(-0.000798297 0.000301884 0)
(-0.000929523 0.000318863 0)
(-0.00106712 0.000333509 0)
(-0.00121024 0.000345978 0)
(-0.00135807 0.000356442 0)
(-0.00150986 0.000365078 0)
(-0.00166493 0.000372067 0)
(-0.00182264 0.000377584 0)
(-0.00198244 0.000381797 0)
(-0.00214383 0.000384864 0)
(-0.00230636 0.000386929 0)
(-0.00246964 0.000388123 0)
(-0.00263333 0.000388567 0)
(-0.00279714 0.000388364 0)
(-0.0029608 0.00038761 0)
(-0.00312409 0.000386383 0)
(-0.00328681 0.000384753 0)
(-0.0034488 0.000382776 0)
(-0.00360992 0.000380503 0)
(-0.00377003 0.000377974 0)
(-0.00392903 0.00037522 0)
(-0.00408682 0.000372269 0)
(-0.00424332 0.000369141 0)
(-0.00439843 0.000365852 0)
(-0.0045521 0.000362413 0)
(-0.00470426 0.000358833 0)
(-0.00485483 0.000355119 0)
(-0.00500376 0.000351273 0)
(-0.00515099 0.000347299 0)
(-0.00529647 0.000343197 0)
(-0.00544013 0.000338966 0)
(-0.00558192 0.000334607 0)
(-0.00572178 0.000330117 0)
(-0.00585966 0.000325494 0)
(-0.00599549 0.000320738 0)
(-0.00612922 0.000315844 0)
(-0.00626079 0.000310812 0)
(-0.00639014 0.000305639 0)
(-0.00651722 0.000300322 0)
(-0.00664195 0.00029486 0)
(-0.00676428 0.00028925 0)
(-0.00688414 0.00028349 0)
(-0.00700148 0.000277579 0)
(-0.00711623 0.000271514 0)
(-0.00722832 0.000265293 0)
(-0.0073377 0.000258916 0)
(-0.00744429 0.000252381 0)
(-0.00754803 0.000245685 0)
(-0.00764886 0.000238829 0)
(-0.0077467 0.00023181 0)
(-0.0078415 0.000224628 0)
(-0.00793318 0.000217283 0)
(-0.00802168 0.000209772 0)
(-0.00810693 0.000202096 0)
(-0.00818887 0.000194255 0)
(-0.00826742 0.000186247 0)
(-0.00834253 0.000178074 0)
(-0.00841411 0.000169735 0)
(-0.00848212 0.00016123 0)
(-0.00854647 0.00015256 0)
(-0.00860711 0.000143725 0)
(-0.00866396 0.000134727 0)
(-0.00871697 0.000125567 0)
(-0.00876606 0.000116246 0)
(-0.00881118 0.000106765 0)
(-0.00885227 9.71265e-05 0)
(-0.00888925 8.73326e-05 0)
(-0.00892207 7.73856e-05 0)
(-0.00895067 6.72881e-05 0)
(-0.00897499 5.7043e-05 0)
(-0.00899497 4.66537e-05 0)
(-0.00901056 3.61236e-05 0)
(-0.0090217 2.54566e-05 0)
(-0.00902834 1.46569e-05 0)
(-0.00903043 3.72888e-06 0)
(-0.00902792 -7.32245e-06 0)
(-0.00902077 -1.8492e-05 0)
(-0.00900892 -2.97742e-05 0)
(-0.00899234 -4.11634e-05 0)
(-0.00897099 -5.26534e-05 0)
(-0.00894483 -6.42377e-05 0)
(-0.00891383 -7.59094e-05 0)
(-0.00887795 -8.76613e-05 0)
(-0.00883716 -9.94859e-05 0)
(-0.00879145 -0.000111375 0)
(-0.00874079 -0.000123322 0)
(-0.00868516 -0.000135316 0)
(-0.00862454 -0.000147349 0)
(-0.00855893 -0.000159413 0)
(-0.00848832 -0.000171497 0)
(-0.0084127 -0.000183592 0)
(-0.00833207 -0.000195687 0)
(-0.00824644 -0.000207774 0)
(-0.00815582 -0.00021984 0)
(-0.00806022 -0.000231876 0)
(-0.00795966 -0.00024387 0)
(-0.00785416 -0.000255811 0)
(-0.00774375 -0.000267688 0)
(-0.00762845 -0.000279488 0)
(-0.00750831 -0.0002912 0)
(-0.00738336 -0.000302811 0)
(-0.00725366 -0.000314308 0)
(-0.00711925 -0.000325679 0)
(-0.00698019 -0.000336909 0)
(-0.00683655 -0.000347985 0)
(-0.00668839 -0.000358891 0)
(-0.00653579 -0.000369612 0)
(-0.00637883 -0.00038013 0)
(-0.00621761 -0.000390426 0)
(-0.00605222 -0.000400482 0)
(-0.00588277 -0.000410273 0)
(-0.00570937 -0.000419777 0)
(-0.00553216 -0.000428964 0)
(-0.00535127 -0.000437804 0)
(-0.00516687 -0.000446261 0)
(-0.00497912 -0.000454295 0)
(-0.0047882 -0.00046186 0)
(-0.00459434 -0.000468905 0)
(-0.00439777 -0.000475371 0)
(-0.00419873 -0.000481191 0)
(-0.00399752 -0.000486289 0)
(-0.00379446 -0.000490582 0)
(-0.0035899 -0.000493974 0)
(-0.00338424 -0.000496361 0)
(-0.00317792 -0.000497626 0)
(-0.00297142 -0.000497642 0)
(-0.0027653 -0.000496269 0)
(-0.00256013 -0.000493357 0)
(-0.00235659 -0.000488746 0)
(-0.00215538 -0.000482265 0)
(-0.0019573 -0.000473737 0)
(-0.00176318 -0.000462978 0)
(-0.00157394 -0.000449802 0)
(-0.00139056 -0.000434025 0)
(-0.00121408 -0.000415472 0)
(-0.00104557 -0.000393984 0)
(-0.000886175 -0.000369427 0)
(-0.000737032 -0.000341713 0)
(-0.00059929 -0.000310816 0)
(-0.000474065 -0.000276808 0)
(-0.000362396 -0.000239901 0)
(-0.000265193 -0.000200512 0)
(-0.000183164 -0.000159359 0)
(-0.000116738 -0.000117599 0)
(-6.59339e-05 -7.70221e-05 0)
(-3.02218e-05 -4.02966e-05 0)
(-8.7587e-06 -1.13101e-05 0)
(-7.41267e-07 3.91278e-06 0)
(-1.10565e-06 -1.46186e-06 0)
(-1.00008e-05 1.70522e-05 0)
(-3.21617e-05 4.89195e-05 0)
(-6.76071e-05 8.88233e-05 0)
(-0.000116737 0.000133044 0)
(-0.00017989 0.000178865 0)
(-0.000257 0.000224351 0)
(-0.00034768 0.000268171 0)
(-0.000451309 0.000309444 0)
(-0.000567102 0.000347622 0)
(-0.000694155 0.000382403 0)
(-0.000831491 0.000413664 0)
(-0.000978098 0.000441405 0)
(-0.00113296 0.000465721 0)
(-0.00129509 0.000486773 0)
(-0.00146354 0.000504763 0)
(-0.0016374 0.000519917 0)
(-0.00181584 0.000532478 0)
(-0.00199807 0.000542689 0)
(-0.00218339 0.00055079 0)
(-0.00237116 0.000557013 0)
(-0.00256081 0.000561578 0)
(-0.00275181 0.000564689 0)
(-0.00294372 0.000566531 0)
(-0.00313614 0.000567274 0)
(-0.00332872 0.000567066 0)
(-0.00352114 0.000566041 0)
(-0.00371316 0.000564314 0)
(-0.00390453 0.000561986 0)
(-0.00409505 0.000559139 0)
(-0.00428455 0.000555844 0)
(-0.00447288 0.000552162 0)
(-0.0046599 0.00054814 0)
(-0.00484549 0.000543817 0)
(-0.00502954 0.000539225 0)
(-0.00521197 0.000534386 0)
(-0.00539266 0.00052932 0)
(-0.00557156 0.00052404 0)
(-0.00574857 0.000518556 0)
(-0.00592362 0.000512875 0)
(-0.00609665 0.000507 0)
(-0.00626757 0.000500933 0)
(-0.00643633 0.000494674 0)
(-0.00660285 0.000488224 0)
(-0.00676706 0.000481581 0)
(-0.0069289 0.000474742 0)
(-0.00708829 0.000467706 0)
(-0.00724517 0.000460468 0)
(-0.00739948 0.000453027 0)
(-0.00755113 0.00044538 0)
(-0.00770006 0.000437523 0)
(-0.00784619 0.000429455 0)
(-0.00798946 0.000421171 0)
(-0.00812979 0.000412669 0)
(-0.00826711 0.000403946 0)
(-0.00840134 0.000395001 0)
(-0.00853241 0.000385831 0)
(-0.00866025 0.000376434 0)
(-0.00878478 0.000366807 0)
(-0.00890591 0.000356949 0)
(-0.00902359 0.000346859 0)
(-0.00913773 0.000336535 0)
(-0.00924824 0.000325976 0)
(-0.00935507 0.00031518 0)
(-0.00945812 0.000304147 0)
(-0.00955733 0.000292877 0)
(-0.00965261 0.000281368 0)
(-0.00974389 0.000269621 0)
(-0.00983109 0.000257635 0)
(-0.00991413 0.000245412 0)
(-0.00999294 0.000232951 0)
(-0.0100674 0.000220254 0)
(-0.0101376 0.000207321 0)
(-0.0102032 0.000194155 0)
(-0.0102643 0.000180756 0)
(-0.0103209 0.000167127 0)
(-0.0103727 0.000153271 0)
(-0.0104198 0.00013919 0)
(-0.010462 0.000124887 0)
(-0.0104994 0.000110367 0)
(-0.0105318 9.56322e-05 0)
(-0.0105592 8.06879e-05 0)
(-0.0105815 6.55385e-05 0)
(-0.0105987 5.01895e-05 0)
(-0.0106106 3.46465e-05 0)
(-0.0106172 1.89156e-05 0)
(-0.0106186 3.00324e-06 0)
(-0.0106145 -1.30834e-05 0)
(-0.010605 -2.93369e-05 0)
(-0.01059 -4.57492e-05 0)
(-0.0105695 -6.23118e-05 0)
(-0.0105434 -7.90159e-05 0)
(-0.0105117 -9.5852e-05 0)
(-0.0104743 -0.00011281 0)
(-0.0104312 -0.00012988 0)
(-0.0103825 -0.000147051 0)
(-0.0103279 -0.000164311 0)
(-0.0102676 -0.000181649 0)
(-0.0102015 -0.000199052 0)
(-0.0101296 -0.000216508 0)
(-0.0100519 -0.000234003 0)
(-0.0099683 -0.000251524 0)
(-0.00987892 -0.000269057 0)
(-0.00978371 -0.000286587 0)
(-0.00968268 -0.0003041 0)
(-0.00957584 -0.00032158 0)
(-0.00946321 -0.000339013 0)
(-0.00934481 -0.000356381 0)
(-0.00922068 -0.000373669 0)
(-0.00909083 -0.00039086 0)
(-0.00895532 -0.000407938 0)
(-0.00881418 -0.000424884 0)
(-0.00866746 -0.000441681 0)
(-0.00851522 -0.000458311 0)
(-0.00835752 -0.000474753 0)
(-0.00819443 -0.00049099 0)
(-0.00802603 -0.000506999 0)
(-0.00785239 -0.000522759 0)
(-0.00767361 -0.000538246 0)
(-0.00748978 -0.000553436 0)
(-0.00730101 -0.000568302 0)
(-0.00710742 -0.000582813 0)
(-0.00690913 -0.000596938 0)
(-0.00670629 -0.00061064 0)
(-0.00649904 -0.000623878 0)
(-0.00628756 -0.000636606 0)
(-0.00607201 -0.000648774 0)
(-0.00585262 -0.000660322 0)
(-0.00562959 -0.000671184 0)
(-0.00540318 -0.000681284 0)
(-0.00517366 -0.000690538 0)
(-0.00494132 -0.000698849 0)
(-0.00470651 -0.000706108 0)
(-0.0044696 -0.000712194 0)
(-0.004231 -0.000716972 0)
(-0.00399117 -0.00072029 0)
(-0.00375063 -0.000721984 0)
(-0.00350993 -0.000721872 0)
(-0.0032697 -0.000719757 0)
(-0.00303062 -0.000715428 0)
(-0.00279345 -0.00070866 0)
(-0.00255899 -0.000699216 0)
(-0.00232815 -0.000686849 0)
(-0.00210187 -0.000671308 0)
(-0.00188119 -0.000652341 0)
(-0.0016672 -0.000629701 0)
(-0.00146106 -0.000603159 0)
(-0.00126396 -0.000572509 0)
(-0.00107715 -0.00053759 0)
(-0.000901892 -0.000498307 0)
(-0.000739429 -0.000454656 0)
(-0.000590974 -0.000406767 0)
(-0.000457655 -0.00035496 0)
(-0.000340468 -0.000299821 0)
(-0.00024022 -0.000242305 0)
(-0.000157468 -0.000183888 0)
(-9.24097e-05 -0.000126764 0)
(-4.47751e-05 -7.40755e-05 0)
(-1.43626e-05 -3.02287e-05 0)
(-1.73777e-06 -1.74807e-06 0)
(-1.87275e-06 4.6196e-06 0)
(-1.44643e-05 3.62061e-05 0)
(-4.39424e-05 8.20158e-05 0)
(-8.92064e-05 0.000136457 0)
(-0.000150085 0.000195504 0)
(-0.000226641 0.000256118 0)
(-0.000318605 0.000316081 0)
(-0.000425436 0.000373823 0)
(-0.000546406 0.000428272 0)
(-0.000680638 0.00047874 0)
(-0.000827151 0.000524831 0)
(-0.000984897 0.000566369 0)
(-0.00115279 0.000603339 0)
(-0.00132976 0.000635843 0)
(-0.00151472 0.000664069 0)
(-0.00170666 0.000688265 0)
(-0.0019046 0.000708713 0)
(-0.00210762 0.00072572 0)
(-0.00231489 0.000739595 0)
(-0.00252561 0.00075065 0)
(-0.00273909 0.000759184 0)
(-0.00295469 0.000765483 0)
(-0.00317183 0.000769814 0)
(-0.00339002 0.000772422 0)
(-0.00360879 0.00077353 0)
(-0.00382776 0.000773338 0)
(-0.00404658 0.000772021 0)
(-0.00426494 0.000769735 0)
(-0.00448258 0.000766614 0)
(-0.00469927 0.000762771 0)
(-0.0049148 0.000758303 0)
(-0.005129 0.00075329 0)
(-0.00534171 0.000747799 0)
(-0.00555279 0.000741884 0)
(-0.0057621 0.000735587 0)
(-0.00596954 0.000728943 0)
(-0.00617501 0.000721978 0)
(-0.0063784 0.00071471 0)
(-0.00657962 0.000707155 0)
(-0.00677858 0.000699323 0)
(-0.0069752 0.00069122 0)
(-0.0071694 0.000682849 0)
(-0.00736109 0.000674212 0)
(-0.00755021 0.000665309 0)
(-0.00773666 0.00065614 0)
(-0.00792037 0.000646701 0)
(-0.00810125 0.00063699 0)
(-0.00827924 0.000627005 0)
(-0.00845426 0.00061674 0)
(-0.00862621 0.000606194 0)
(-0.00879502 0.000595361 0)
(-0.00896061 0.00058424 0)
(-0.0091229 0.000572826 0)
(-0.00928181 0.000561117 0)
(-0.00943725 0.000549108 0)
(-0.00958913 0.000536797 0)
(-0.00973739 0.000524181 0)
(-0.00988192 0.000511258 0)
(-0.0100226 0.000498024 0)
(-0.0101595 0.000484479 0)
(-0.0102923 0.000470621 0)
(-0.0104212 0.000456446 0)
(-0.0105458 0.000441954 0)
(-0.0106662 0.000427145 0)
(-0.0107823 0.000412016 0)
(-0.010894 0.000396567 0)
(-0.0110012 0.000380799 0)
(-0.0111039 0.00036471 0)
(-0.0112019 0.000348302 0)
(-0.0112951 0.000331574 0)
(-0.0113835 0.000314529 0)