0.05 	0.0003125 	0.005 	0.0326143
0.05 	0.0009375 	0.005 	0.0326571
0.05 	0.0015625 	0.005 	0.0326919
0.05 	0.0021875 	0.005 	0.0327212
0.05 	0.0028125 	0.005 	0.0327481
0.05 	0.0034375 	0.005 	0.0327724
0.05 	0.0040625 	0.005 	0.0327938
0.05 	0.0046875 	0.005 	0.0328122
0.05 	0.0053125 	0.005 	0.0328277
0.05 	0.0059375 	0.005 	0.03284
0.05 	0.0065625 	0.005 	0.032849
0.05 	0.0071875 	0.005 	0.0328546
0.05 	0.0078125 	0.005 	0.0328565
0.05 	0.0084375 	0.005 	0.0328547
0.05 	0.0090625 	0.005 	0.0328488
0.05 	0.0096875 	0.005 	0.0328387
0.05 	0.0103125 	0.005 	0.0328241
0.05 	0.0109375 	0.005 	0.0328048
0.05 	0.0115625 	0.005 	0.0327805
0.05 	0.0121875 	0.005 	0.032751
0.05 	0.0128125 	0.005 	0.0327159
0.05 	0.0134375 	0.005 	0.0326749
0.05 	0.0140625 	0.005 	0.0326278
0.05 	0.0146875 	0.005 	0.0325741
0.05 	0.0153125 	0.005 	0.0325136
0.05 	0.0159375 	0.005 	0.0324459
0.05 	0.0165625 	0.005 	0.0323705
0.05 	0.0171875 	0.005 	0.0322872
0.05 	0.0178125 	0.005 	0.0321955
0.05 	0.0184375 	0.005 	0.032095
0.05 	0.0190625 	0.005 	0.0319852
0.05 	0.0196875 	0.005 	0.0318658
0.05 	0.0203125 	0.005 	0.0317362
0.05 	0.0209375 	0.005 	0.031596
0.05 	0.0215625 	0.005 	0.0314447
0.05 	0.0221875 	0.005 	0.0312817
0.05 	0.0228125 	0.005 	0.0311066
0.05 	0.0234375 	0.005 	0.0309189
0.05 	0.0240625 	0.005 	0.0307178
0.05 	0.0246875 	0.005 	0.030503
0.05 	0.0253125 	0.005 	0.0302737
0.05 	0.0259375 	0.005 	0.0300294
0.05 	0.0265625 	0.005 	0.0297695
0.05 	0.0271875 	0.005 	0.0294932
0.05 	0.0278125 	0.005 	0.0292
0.05 	0.0284375 	0.005 	0.0288892
0.05 	0.0290625 	0.005 	0.02856
0.05 	0.0296875 	0.005 	0.0282118
0.05 	0.0303125 	0.005 	0.0278439
0.05 	0.0309375 	0.005 	0.0274556
0.05 	0.0315625 	0.005 	0.027046
0.05 	0.0321875 	0.005 	0.0266145
0.05 	0.0328125 	0.005 	0.0261603
0.05 	0.0334375 	0.005 	0.0256825
0.05 	0.0340625 	0.005 	0.0251805
0.05 	0.0346875 	0.005 	0.0246534
0.05 	0.0353125 	0.005 	0.0241005
0.05 	0.0359375 	0.005 	0.0235208
0.05 	0.0365625 	0.005 	0.0229138
0.05 	0.0371875 	0.005 	0.0222785
0.05 	0.0378125 	0.005 	0.0216141
0.05 	0.0384375 	0.005 	0.0209199
0.05 	0.0390625 	0.005 	0.0201951
0.05 	0.0396875 	0.005 	0.019439
0.05 	0.0403125 	0.005 	0.0186507
0.05 	0.0409375 	0.005 	0.0178297
0.05 	0.0415625 	0.005 	0.0169751
0.05 	0.0421875 	0.005 	0.0160863
0.05 	0.0428125 	0.005 	0.0151626
0.05 	0.0434375 	0.005 	0.0142035
0.05 	0.0440625 	0.005 	0.0132083
0.05 	0.0446875 	0.005 	0.0121767
0.05 	0.0453125 	0.005 	0.011108
0.05 	0.0459375 	0.005 	0.0100019
0.05 	0.0465625 	0.005 	0.00885806
0.05 	0.0471875 	0.005 	0.00767613
0.05 	0.0478125 	0.005 	0.00645596
0.05 	0.0484375 	0.005 	0.00519742
0.05 	0.0490625 	0.005 	0.00390049
0.05 	0.0496875 	0.005 	0.0025652
0.05 	0.0503125 	0.005 	0.00119172
0.05 	0.0509375 	0.005 	-0.000219681
0.05 	0.0515625 	0.005 	-0.00166864
0.05 	0.0521875 	0.005 	-0.00315464
0.05 	0.0528125 	0.005 	-0.00467705
0.05 	0.0534375 	0.005 	-0.0062351
0.05 	0.0540625 	0.005 	-0.00782785
0.05 	0.0546875 	0.005 	-0.00945424
0.05 	0.0553125 	0.005 	-0.0111131
0.05 	0.0559375 	0.005 	-0.0128029
0.05 	0.0565625 	0.005 	-0.0145223
0.05 	0.0571875 	0.005 	-0.0162694
0.05 	0.0578125 	0.005 	-0.0180423
0.05 	0.0584375 	0.005 	-0.019839
0.05 	0.0590625 	0.005 	-0.0216571
0.05 	0.0596875 	0.005 	-0.0234942
0.05 	0.0603125 	0.005 	-0.0253475
0.05 	0.0609375 	0.005 	-0.0272143
0.05 	0.0615625 	0.005 	-0.0290914
0.05 	0.0621875 	0.005 	-0.0309756
0.05 	0.0628125 	0.005 	-0.0328635
0.05 	0.0634375 	0.005 	-0.0347513
0.05 	0.0640625 	0.005 	-0.0366352
0.05 	0.0646875 	0.005 	-0.0385112
0.05 	0.0653125 	0.005 	-0.0403751
0.05 	0.0659375 	0.005 	-0.0422226
0.05 	0.0665625 	0.005 	-0.044049
0.05 	0.0671875 	0.005 	-0.0458499
0.05 	0.0678125 	0.005 	-0.0476203
0.05 	0.0684375 	0.005 	-0.0493554
0.05 	0.0690625 	0.005 	-0.0510503
0.05 	0.0696875 	0.005 	-0.0526999
0.05 	0.0703125 	0.005 	-0.0542991
0.05 	0.0709375 	0.005 	-0.055843
0.05 	0.0715625 	0.005 	-0.0573263
0.05 	0.0721875 	0.005 	-0.0587441
0.05 	0.0728125 	0.005 	-0.0600915
0.05 	0.0734375 	0.005 	-0.0613636
0.05 	0.0740625 	0.005 	-0.0625558
0.05 	0.0746875 	0.005 	-0.0636636
0.05 	0.0753125 	0.005 	-0.0646826
0.05 	0.0759375 	0.005 	-0.0656089
0.05 	0.0765625 	0.005 	-0.0664389
0.05 	0.0771875 	0.005 	-0.067169
0.05 	0.0778125 	0.005 	-0.0677964
0.05 	0.0784375 	0.005 	-0.0683186
0.05 	0.0790625 	0.005 	-0.0687335
0.05 	0.0796875 	0.005 	-0.0690395
0.05 	0.0803125 	0.005 	-0.0692356
0.05 	0.0809375 	0.005 	-0.0693213
0.05 	0.0815625 	0.005 	-0.0692969
0.05 	0.0821875 	0.005 	-0.0691631
0.05 	0.0828125 	0.005 	-0.0689214
0.05 	0.0834375 	0.005 	-0.0685738
0.05 	0.0840625 	0.005 	-0.0681233
0.05 	0.0846875 	0.005 	-0.0675731
0.05 	0.0853125 	0.005 	-0.0669276
0.05 	0.0859375 	0.005 	-0.0661915
0.05 	0.0865625 	0.005 	-0.0653705
0.05 	0.0871875 	0.005 	-0.0644706
0.05 	0.0878125 	0.005 	-0.0634986
0.05 	0.0884375 	0.005 	-0.0624618
0.05 	0.0890625 	0.005 	-0.0613682
0.05 	0.0896875 	0.005 	-0.060226
0.05 	0.0903125 	0.005 	-0.0590439
0.05 	0.0909375 	0.005 	-0.057831
0.05 	0.0915625 	0.005 	-0.0565967
0.05 	0.0921875 	0.005 	-0.0553504
0.05 	0.0928125 	0.005 	-0.0541015
0.05 	0.0934375 	0.005 	-0.0528597
0.05 	0.0940625 	0.005 	-0.0516343
0.05 	0.0946875 	0.005 	-0.0504344
0.05 	0.0953125 	0.005 	-0.0492688
0.05 	0.0959375 	0.005 	-0.0481457
0.05 	0.0965625 	0.005 	-0.0470728
0.05 	0.0971875 	0.005 	-0.0460566
0.05 	0.0978125 	0.005 	-0.0451071
0.05 	0.0984375 	0.005 	-0.0442334
0.05 	0.0990625 	0.005 	-0.043389
0.05 	0.0996875 	0.005 	-0.0425261
