/*--------------------------------*- C++ -*----------------------------------*\
  =========                 |
  \\      /  F ield         | OpenFOAM: The Open Source CFD Toolbox
   \\    /   O peration     | Website:  https://openfoam.org
    \\  /    A nd           | Version:  7
     \\/     M anipulation  |
\*---------------------------------------------------------------------------*/
FoamFile
{
    version     2.0;
    format      ascii;
    class       surfaceScalarField;
    location    "0.375";
    object      phi;
}
// * * * * * * * * * * * * * * * * * * * * * * * * * * * * * * * * * * * * * //

dimensions      [0 3 -1 0 0 0 0];

internalField   nonuniform List<scalar> 
50880
(
1.247e-11
-9.98467e-12
3.61754e-11
-2.37032e-11
6.06367e-11
-2.4471e-11
7.74696e-11
-1.68301e-11
8.22045e-11
-4.73779e-12
7.25469e-11
9.65538e-12
4.75635e-11
2.49823e-11
7.1054e-12
4.0457e-11
-4.84989e-11
5.56037e-11
-1.18648e-10
7.01495e-11
-2.02583e-10
8.3936e-11
-2.9945e-10
9.68658e-11
-4.08354e-10
1.08905e-10
-5.28409e-10
1.20055e-10
-6.58736e-10
1.30328e-10
-7.98476e-10
1.39737e-10
-9.46795e-10
1.48318e-10
-1.10291e-09
1.56114e-10
-1.26607e-09
1.63164e-10
-1.43557e-09
1.69507e-10
-1.61076e-09
1.7519e-10
-1.79102e-09
1.8026e-10
-1.97577e-09
1.84755e-10
-2.16448e-09
1.8871e-10
-2.35665e-09
1.92165e-10
-2.55181e-09
1.9516e-10
-2.74954e-09
1.9773e-10
-2.94945e-09
1.99908e-10
-3.15117e-09
2.01719e-10
-3.35435e-09
2.03185e-10
-3.55868e-09
2.04336e-10
-3.76389e-09
2.05201e-10
-3.96969e-09
2.05801e-10
-4.17584e-09
2.06149e-10
-4.3821e-09
2.06258e-10
-4.58825e-09
2.06147e-10
-4.79408e-09
2.0583e-10
-4.99939e-09
2.05319e-10
-5.20402e-09
2.04624e-10
-5.40777e-09
2.03753e-10
-5.61048e-09
2.0271e-10
-5.81198e-09
2.01498e-10
-6.01211e-09
2.00124e-10
-6.2107e-09
1.98595e-10
-6.40761e-09
1.96911e-10
-6.60268e-09
1.95071e-10
-6.79575e-09
1.93071e-10
-6.98666e-09
1.90908e-10
-7.17525e-09
1.88586e-10
-7.36136e-09
1.86104e-10
-7.54482e-09
1.83459e-10
-7.72546e-09
1.80644e-10
-7.90311e-09
1.77652e-10
-8.07759e-09
1.74478e-10
-8.24871e-09
1.71121e-10
-8.41629e-09
1.67577e-10
-8.58013e-09
1.63842e-10
-8.74004e-09
1.59908e-10
-8.89581e-09
1.55767e-10
-9.04722e-09
1.51413e-10
-9.19407e-09
1.46845e-10
-9.33613e-09
1.42061e-10
-9.47318e-09
1.37053e-10
-9.605e-09
1.31817e-10
-9.73135e-09
1.26347e-10
-9.85199e-09
1.20641e-10
-9.96669e-09
1.147e-10
-1.00752e-08
1.0852e-10
-1.01773e-08
1.021e-10
-1.02727e-08
9.54376e-11
-1.03613e-08
8.85315e-11
-1.04427e-08
8.13848e-11
-1.05167e-08
7.40023e-11
-1.05831e-08
6.63887e-11
-1.06416e-08
5.85471e-11
-1.06921e-08
5.04806e-11
-1.07343e-08
4.21945e-11
-1.0768e-08
3.36968e-11
-1.0793e-08
2.49978e-11
-1.08091e-08
1.61086e-11
-1.08161e-08
7.04038e-12
-1.08139e-08
-2.19545e-12
-1.08023e-08
-1.15854e-11
-1.07812e-08
-2.11134e-11
-1.07505e-08
-3.07623e-11
-1.071e-08
-4.05139e-11
-1.06596e-08
-5.03498e-11
-1.05994e-08
-6.02507e-11
-1.05292e-08
-7.01963e-11
-1.0449e-08
-8.01646e-11
-1.03589e-08
-9.01317e-11
-1.02588e-08
-1.00072e-10
-1.01488e-08
-1.0996e-10
-1.00291e-08
-1.1977e-10
-9.89959e-09
-1.29476e-10
-9.76054e-09
-1.3905e-10
-9.61207e-09
-1.48465e-10
-9.45438e-09
-1.5769e-10
-9.28769e-09
-1.66698e-10
-9.11223e-09
-1.7546e-10
-8.92828e-09
-1.83949e-10
-8.73614e-09
-1.92137e-10
-8.53614e-09
-1.99996e-10
-8.32865e-09
-2.07497e-10
-8.11404e-09
-2.14613e-10
-7.89272e-09
-2.21317e-10
-7.66513e-09
-2.27585e-10
-7.43174e-09
-2.33394e-10
-7.19302e-09
-2.3872e-10
-6.94948e-09
-2.43539e-10
-6.70165e-09
-2.47832e-10
-6.45007e-09
-2.51578e-10
-6.19531e-09
-2.54762e-10
-5.93794e-09
-2.57369e-10
-5.67855e-09
-2.59384e-10
-5.41776e-09
-2.60796e-10
-5.15616e-09
-2.61594e-10
-4.89439e-09
-2.61772e-10
-4.63307e-09
-2.61324e-10
-4.37282e-09
-2.60248e-10
-4.11428e-09
-2.58542e-10
-3.85807e-09
-2.56206e-10
-3.60483e-09
-2.53244e-10
-3.35517e-09
-2.49662e-10
-3.1097e-09
-2.45467e-10
-2.86903e-09
-2.4067e-10
-2.63375e-09
-2.35281e-10
-2.40443e-09
-2.29315e-10
-2.18165e-09
-2.22786e-10
-1.96593e-09
-2.15712e-10
-1.75782e-09
-2.08112e-10
-1.55781e-09
-2.00007e-10
-1.36639e-09
-1.9142e-10
-1.18402e-09
-1.82374e-10
-1.01112e-09
-1.72897e-10
-8.48107e-10
-1.63013e-10
-6.95355e-10
-1.52752e-10
-5.5321e-10
-1.42145e-10
-4.21984e-10
-1.31224e-10
-3.01958e-10
-1.20026e-10
-1.93373e-10
-1.08585e-10
-9.64312e-11
-9.69416e-11
-1.12906e-11
-8.51404e-11
6.19402e-11
-7.32305e-11
1.23207e-10
-6.12668e-11
1.72518e-10
-4.93114e-11
2.09954e-10
-3.74368e-11
2.35684e-10
-2.573e-11
2.49981e-10
-1.42972e-11
2.53251e-10
-3.27014e-12
2.46067e-10
7.18449e-12
2.29216e-10
1.68509e-11
2.03773e-10
2.54423e-11
1.71202e-10
3.25706e-11
1.33502e-10
3.77008e-11
9.34065e-11
4.00962e-11
5.46348e-11
3.87725e-11
2.22032e-11
3.24324e-11
2.55977e-12
1.96438e-11
2.55992e-12
2.52507e-11
-3.52331e-11
6.47649e-11
-6.32191e-11
9.78435e-11
-5.75444e-11
1.10274e-10
-2.92629e-11
9.24982e-11
1.3044e-11
3.88213e-11
6.33311e-11
-5.37187e-11
1.17527e-10
-1.86203e-10
1.72944e-10
-3.58441e-10
2.27842e-10
-5.69407e-10
2.81117e-10
-8.1753e-10
3.32062e-10
-1.10091e-09
3.80243e-10
-1.41743e-09
4.25434e-10
-1.76491e-09
4.6753e-10
-2.14108e-09
5.06508e-10
-2.54374e-09
5.42404e-10
-2.97072e-09
5.75303e-10
-3.41993e-09
6.05316e-10
-3.88934e-09
6.32571e-10
-4.37703e-09
6.57203e-10
-4.88121e-09
6.79361e-10
-5.40014e-09
6.99193e-10
-5.93223e-09
7.16842e-10
-6.47597e-09
7.32444e-10
-7.02994e-09
7.46136e-10
-7.59283e-09
7.58052e-10
-8.16342e-09
7.68318e-10
-8.74057e-09
7.77049e-10
-9.32321e-09
7.84352e-10
-9.91035e-09
7.90328e-10
-1.05011e-08
7.95072e-10
-1.10946e-08
7.98672e-10
-1.169e-08
8.01204e-10
-1.22865e-08
8.02738e-10
-1.28836e-08
8.03337e-10
-1.34805e-08
8.0306e-10
-1.40767e-08
8.01957e-10
-1.46714e-08
8.00073e-10
-1.52642e-08
7.97444e-10
-1.58546e-08
7.94102e-10
-1.6442e-08
7.90069e-10
-1.70258e-08
7.85368e-10
-1.76057e-08
7.80016e-10
-1.81812e-08
7.74027e-10
-1.87517e-08
7.67408e-10
-1.93167e-08
7.60161e-10
-1.9876e-08
7.52283e-10
-2.04288e-08
7.43771e-10
-2.09749e-08
7.34618e-10
-2.15136e-08
7.2482e-10
-2.20445e-08
7.14366e-10
-2.25671e-08
7.03243e-10
-2.30809e-08
6.91431e-10
-2.35853e-08
6.78913e-10
-2.40798e-08
6.65673e-10
-2.4564e-08
6.51697e-10
-2.50371e-08
6.36966e-10
-2.54986e-08
6.21459e-10
-2.5948e-08
6.05157e-10
-2.63847e-08
5.88039e-10
-2.68079e-08
5.7009e-10
-2.72171e-08
5.51293e-10
-2.76117e-08
5.31634e-10
-2.7991e-08
5.11096e-10
-2.83543e-08
4.89666e-10
-2.8701e-08
4.67332e-10
-2.90304e-08
4.44088e-10
-2.93418e-08
4.19928e-10
-2.96346e-08
3.9485e-10
-2.9908e-08
3.68849e-10
-3.01614e-08
3.41928e-10
-3.03941e-08
3.14093e-10
-3.06054e-08
2.85356e-10
-3.07948e-08
2.55733e-10
-3.09615e-08
2.2524e-10
-3.11049e-08
1.93898e-10
-3.12244e-08
1.61731e-10
-3.13195e-08
1.28769e-10
-3.13895e-08
9.50479e-11
-3.1434e-08
6.0607e-11
-3.14525e-08
2.54912e-11
-3.14444e-08
-1.02502e-11
-3.14095e-08
-4.65632e-11
-3.13472e-08
-8.33894e-11
-3.12573e-08
-1.20666e-10
-3.11395e-08
-1.58325e-10
-3.09935e-08
-1.96294e-10
-3.08193e-08
-2.34497e-10
-3.06166e-08
-2.72852e-10
-3.03855e-08
-3.11273e-10
-3.0126e-08
-3.49674e-10
-2.98381e-08
-3.87959e-10
-2.9522e-08
-4.26033e-10
-2.9178e-08
-4.63795e-10
-2.88063e-08
-5.01145e-10
-2.84074e-08
-5.37979e-10
-2.79817e-08
-5.74191e-10
-2.75297e-08
-6.09674e-10
-2.70521e-08
-6.44319e-10
-2.65495e-08
-6.78017e-10
-2.60228e-08
-7.10662e-10
-2.54728e-08
-7.42148e-10
-2.49004e-08
-7.72368e-10
-2.43067e-08
-8.01217e-10
-2.36927e-08
-8.28593e-10
-2.30596e-08
-8.54395e-10
-2.24087e-08
-8.78527e-10
-2.17412e-08
-9.009e-10
-2.10585e-08
-9.21425e-10
-2.0362e-08
-9.40018e-10
-1.96532e-08
-9.56602e-10
-1.89337e-08
-9.71104e-10
-1.8205e-08
-9.8346e-10
-1.74688e-08
-9.9361e-10
-1.67267e-08
-1.0015e-09
-1.59803e-08
-1.0071e-09
-1.52316e-08
-1.01035e-09
-1.44821e-08
-1.01124e-09
-1.37337e-08
-1.00974e-09
-1.29881e-08
-1.00584e-09
-1.22471e-08
-9.9954e-10
-1.15125e-08
-9.90835e-10
-1.0786e-08
-9.7974e-10
-1.00694e-08
-9.66277e-10
-9.36436e-09
-9.50473e-10
-8.67266e-09
-9.32364e-10
-7.99595e-09
-9.11994e-10
-7.33585e-09
-8.89415e-10
-6.69395e-09
-8.64685e-10
-6.07179e-09
-8.37871e-10
-5.47085e-09
-8.09045e-10
-4.89257e-09
-7.78287e-10
-4.3383e-09
-7.45685e-10
-3.80934e-09
-7.11331e-10
-3.30691e-09
-6.75324e-10
-2.83215e-09
-6.37773e-10
-2.38612e-09
-5.98788e-10
-1.96977e-09
-5.58491e-10
-1.58398e-09
-5.17011e-10
-1.22952e-09
-4.74486e-10
-9.07037e-10
-4.31066e-10
-6.17066e-10
-3.86913e-10
-3.60003e-10
-3.42203e-10
-1.36098e-10
-2.97136e-10
5.45698e-11
-2.51933e-10
2.12111e-10
-2.06851e-10
3.36858e-10
-1.62183e-10
4.29407e-10
-1.18278e-10
4.90666e-10
-7.5557e-11
5.21925e-10
-3.45306e-11
5.24946e-10
4.16393e-12
5.02069e-10
3.97286e-11
4.56372e-10
7.11405e-11
3.91856e-10
9.70876e-11
3.1368e-10
1.15877e-10
2.28416e-10
1.25359e-10
1.44263e-10
1.22925e-10
7.10535e-11
1.05642e-10
1.95926e-11
7.11055e-11
2.21524e-11
2.53845e-11
-6.06274e-11
5.90501e-11
-9.68857e-11
7.56649e-11
-7.41643e-11
5.81438e-11
-1.17424e-11
-5.38919e-12
7.65756e-11
-1.22579e-10
1.80516e-10
-2.97769e-10
2.92718e-10
-5.32882e-10
4.08055e-10
-8.28061e-10
5.23021e-10
-1.1822e-09
6.35253e-10
-1.59331e-09
7.43177e-10
-2.05885e-09
8.45788e-10
-2.5759e-09
9.4248e-10
-3.1413e-09
1.03293e-09
-3.7518e-09
1.11701e-09
-4.40412e-09
1.19472e-09
-5.09501e-09
1.2662e-09
-5.82129e-09
1.3316e-09
-6.5799e-09
1.39118e-09
-7.36789e-09
1.44519e-09
-8.18244e-09
1.49392e-09
-9.02089e-09
1.53764e-09
-9.8807e-09
1.57666e-09
-1.07595e-08
1.61125e-09
-1.16551e-08
1.6417e-09
-1.25653e-08
1.66828e-09
-1.34882e-08
1.69124e-09
-1.4422e-08
1.71084e-09
-1.5365e-08
1.72729e-09
-1.63155e-08
1.74082e-09
-1.7272e-08
1.75162e-09
-1.82332e-08
1.75989e-09
-1.91978e-08
1.76577e-09
-2.01645e-08
1.76944e-09
-2.11322e-08
1.77101e-09
-2.20997e-08
1.77061e-09
-2.30661e-08
1.76837e-09
-2.40304e-08
1.76436e-09
-2.49916e-08
1.75868e-09
-2.59489e-08
1.75139e-09
-2.69014e-08
1.74254e-09
-2.78482e-08
1.73219e-09
-2.87886e-08
1.72037e-09
-2.97217e-08
1.70711e-09
-3.06467e-08
1.69243e-09
-3.15628e-08
1.67633e-09
-3.24694e-08
1.65882e-09
-3.33655e-08
1.63989e-09
-3.42504e-08
1.61952e-09
-3.51233e-08
1.59771e-09
-3.59834e-08
1.57444e-09
-3.68298e-08
1.54966e-09
-3.76617e-08
1.52336e-09
-3.84783e-08
1.4955e-09
-3.92787e-08
1.46604e-09
-4.00619e-08
1.43494e-09
-4.08271e-08
1.40218e-09
-4.15734e-08
1.36771e-09
-4.22997e-08
1.33148e-09
-4.30051e-08
1.29347e-09
-4.36887e-08
1.25363e-09
-4.43493e-08
1.21194e-09
-4.49861e-08
1.16835e-09
-4.55978e-08
1.12284e-09
-4.61835e-08
1.07539e-09
-4.67422e-08
1.02596e-09
-4.72726e-08
9.74556e-10
-4.77738e-08
9.21152e-10
-4.82447e-08
8.65747e-10
-4.86842e-08
8.08341e-10
-4.90913e-08
7.48942e-10
-4.94647e-08
6.87565e-10
-4.98036e-08
6.24234e-10
-5.01069e-08
5.58981e-10
-5.03735e-08
4.91846e-10
-5.06024e-08
4.22876e-10
-5.07928e-08
3.5213e-10
-5.09437e-08
2.79674e-10
-5.10543e-08
2.05585e-10
-5.11236e-08
1.29952e-10
-5.1151e-08
5.28707e-11
-5.11357e-08
-2.55497e-11
-5.10771e-08
-1.05191e-10
-5.09745e-08
-1.85925e-10
-5.08276e-08
-2.67615e-10
-5.06358e-08
-3.5011e-10
-5.03988e-08
-4.33256e-10
-5.01165e-08
-5.16884e-10
-4.97885e-08
-6.00817e-10
-4.94149e-08
-6.8487e-10
-4.89957e-08
-7.68849e-10
-4.85311e-08
-8.52553e-10
-4.80214e-08
-9.35774e-10
-4.74669e-08
-1.0183e-09
-4.68681e-08
-1.0999e-09
-4.62257e-08
-1.18036e-09
-4.55405e-08
-1.25946e-09
-4.48132e-08
-1.33694e-09
-4.40449e-08
-1.4126e-09
-4.32368e-08
-1.48618e-09
-4.239e-08
-1.55746e-09
-4.15059e-08
-1.62621e-09
-4.05861e-08
-1.69219e-09
-3.96321e-08
-1.75519e-09
-3.86457e-08
-1.81498e-09
-3.76288e-08
-1.87135e-09
-3.65832e-08
-1.92408e-09
-3.55111e-08
-1.97299e-09
-3.44147e-08
-2.01788e-09
-3.32961e-08
-2.05857e-09
-3.21578e-08
-2.0949e-09
-3.10022e-08
-2.12672e-09
-2.98318e-08
-2.15387e-09
-2.86492e-08
-2.17623e-09
-2.7457e-08
-2.1937e-09
-2.62579e-08
-2.20618e-09
-2.50547e-08
-2.21358e-09
-2.38501e-08
-2.21585e-09
-2.26469e-08
-2.21293e-09
-2.14479e-08
-2.2048e-09
-2.0256e-08
-2.19146e-09
-1.90739e-08
-2.1729e-09
-1.79045e-08
-2.14915e-09
-1.67506e-08
-2.12026e-09
-1.56147e-08
-2.08628e-09
-1.44998e-08
-2.0473e-09
-1.34084e-08
-2.0034e-09
-1.23431e-08
-1.9547e-09
-1.13065e-08
-1.90133e-09
-1.03009e-08
-1.84343e-09
-9.3288e-09
-1.78115e-09
-8.39241e-09
-1.71468e-09
-7.49389e-09
-1.6442e-09
-6.63529e-09
-1.56992e-09
-5.81856e-09
-1.49206e-09
-5.0455e-09
-1.41084e-09
-4.31776e-09
-1.32653e-09
-3.63686e-09
-1.23938e-09
-3.00418e-09
-1.1497e-09
-2.42088e-09
-1.05778e-09
-1.88799e-09
-9.63964e-10
-1.40629e-09
-8.68615e-10
-9.76356e-10
-7.72134e-10
-5.98527e-10
-6.74965e-10
-2.72852e-10
-5.7761e-10
9.32969e-13
-4.80637e-10
2.23456e-10
-3.84706e-10
3.95764e-10
-2.90586e-10
5.19401e-10
-1.99195e-10
5.96502e-10
-1.11633e-10
6.29908e-10
-2.92434e-11
6.23314e-10
4.63225e-11
5.81436e-10
1.13019e-10
5.10221e-10
1.68303e-10
4.17062e-10
2.09037e-10
3.11003e-10
2.31418e-10
2.02881e-10
2.31047e-10
1.05275e-10
2.03248e-10
3.22401e-11
1.4414e-10
5.4392e-11
1.7477e-11
-7.80979e-11
3.04285e-11
-1.09842e-10
1.30509e-11
-5.67894e-11
-5.25837e-11
5.38937e-11
-1.79147e-10
2.03139e-10
-3.75064e-10
3.76434e-10
-6.45368e-10
5.63022e-10
-9.92455e-10
7.55147e-10
-1.41673e-09
9.47292e-10
-1.91707e-09
1.13559e-09
-2.49128e-09
1.3174e-09
-3.13641e-09
1.49092e-09
-3.84895e-09
1.65503e-09
-4.62508e-09
1.80906e-09
-5.46078e-09
1.9527e-09
-6.35195e-09
2.08589e-09
-7.29448e-09
2.20873e-09
-8.28433e-09
2.32145e-09
-9.31754e-09
2.4244e-09
-1.03903e-08
2.51796e-09
-1.1499e-08
2.60257e-09
-1.264e-08
2.67868e-09
-1.38101e-08
2.74675e-09
-1.50061e-08
2.80725e-09
-1.62251e-08
2.86064e-09
-1.74641e-08
2.90735e-09
-1.87207e-08
2.94782e-09
-1.99923e-08
2.98245e-09
-2.12766e-08
3.01161e-09
-2.25715e-08
3.03568e-09
-2.38749e-08
3.05498e-09
-2.51848e-08
3.06983e-09
-2.64995e-08
3.08051e-09
-2.78174e-08
3.08728e-09
-2.91367e-08
3.09036e-09
-3.04561e-08
3.08997e-09
-3.1774e-08
3.0863e-09
-3.30892e-08
3.07951e-09
-3.44003e-08
3.06974e-09
-3.5706e-08
3.05712e-09
-3.70052e-08
3.04173e-09
-3.82967e-08
3.02367e-09
-3.95793e-08
3.003e-09
-4.08519e-08
2.97977e-09
-4.21135e-08
2.954e-09
-4.33629e-08
2.92573e-09
-4.4599e-08
2.89494e-09
-4.58208e-08
2.86165e-09
-4.70271e-08
2.82582e-09
-4.82168e-08
2.78744e-09
-4.93889e-08
2.74647e-09
-5.05421e-08
2.70286e-09
-5.16753e-08
2.65656e-09
-5.27873e-08
2.60753e-09
-5.3877e-08
2.5557e-09
-5.4943e-08
2.50101e-09
-5.59842e-08
2.4434e-09
-5.69993e-08
2.38281e-09
-5.7987e-08
2.31916e-09
-5.8946e-08
2.25241e-09
-5.98748e-08
2.18248e-09
-6.07722e-08
2.10932e-09
-6.16367e-08
2.03289e-09
-6.2467e-08
1.95312e-09
-6.32616e-08
1.86999e-09
-6.40191e-08
1.78345e-09
-6.4738e-08
1.69349e-09
-6.5417e-08
1.60008e-09
-6.60544e-08
1.50322e-09
-6.6649e-08
1.40292e-09
-6.71993e-08
1.29919e-09
-6.77038e-08
1.19206e-09
-6.81611e-08
1.08157e-09
-6.85699e-08
9.67783e-10
-6.89288e-08
8.50768e-10
-6.92366e-08
7.30612e-10
-6.94918e-08
6.07416e-10
-6.96935e-08
4.81299e-10
-6.98403e-08
3.52397e-10
-6.99312e-08
2.20863e-10
-6.99652e-08
8.68672e-11
-6.99413e-08
-4.94042e-11
-6.98588e-08
-1.87746e-10
-6.97168e-08
-3.27936e-10
-6.95146e-08
-4.69733e-10
-6.92519e-08
-6.12883e-10
-6.8928e-08
-7.57111e-10
-6.85428e-08
-9.02131e-10
-6.80959e-08
-1.04764e-09
-6.75875e-08
-1.19331e-09
-6.70175e-08
-1.33882e-09
-6.63863e-08
-1.48381e-09
-6.56941e-08
-1.62794e-09
-6.49416e-08
-1.77082e-09
-6.41294e-08
-1.91209e-09
-6.32584e-08
-2.05136e-09
-6.23296e-08
-2.18823e-09
-6.13443e-08
-2.32232e-09
-6.03036e-08
-2.45321e-09
-5.92093e-08
-2.58052e-09
-5.80629e-08
-2.70384e-09
-5.68664e-08
-2.82277e-09
-5.56216e-08
-2.93693e-09
-5.43309e-08
-3.04593e-09
-5.29965e-08
-3.14939e-09
-5.16209e-08
-3.24694e-09
-5.02067e-08
-3.33823e-09
-4.87568e-08
-3.42293e-09
-4.7274e-08
-3.5007e-09
-4.57613e-08
-3.57124e-09
-4.4222e-08
-3.63427e-09
-4.26591e-08
-3.68952e-09
-4.10763e-08
-3.73675e-09
-3.94768e-08
-3.77574e-09
-3.78641e-08
-3.80631e-09
-3.6242e-08
-3.82828e-09
-3.46141e-08
-3.84153e-09
-3.2984e-08
-3.84593e-09
-3.13555e-08
-3.84143e-09
-2.97324e-08
-3.82795e-09
-2.81183e-08
-3.80549e-09
-2.65172e-08
-3.77407e-09
-2.49326e-08
-3.73371e-09
-2.33684e-08
-3.68449e-09
-2.18281e-08
-3.62653e-09
-2.03155e-08
-3.55994e-09
-1.8834e-08
-3.48489e-09
-1.73871e-08
-3.40157e-09
-1.59782e-08
-3.31021e-09
-1.46106e-08
-3.21105e-09
-1.32874e-08
-3.10435e-09
-1.20117e-08
-2.99044e-09
-1.07862e-08
-2.86962e-09
-9.6139e-09
-2.74227e-09
-8.4972e-09
-2.60876e-09
-7.43854e-09
-2.4695e-09
-6.44015e-09
-2.32493e-09
-5.50401e-09
-2.17552e-09
-4.63193e-09
-2.02178e-09
-3.82545e-09
-1.86426e-09
-3.08587e-09
-1.70354e-09
-2.4142e-09
-1.54028e-09
-1.81117e-09
-1.37517e-09
-1.27712e-09
-1.20901e-09
-8.12066e-10
-1.04267e-09
-4.15555e-10
-8.77148e-10
-8.66667e-11
-7.13595e-10
1.76082e-10
-5.53335e-10
3.74819e-10
-3.97932e-10
5.12422e-10
-2.49236e-10
5.92645e-10
-1.09467e-10
6.20269e-10
1.86982e-11
6.01265e-10
1.32021e-10
5.42984e-10
2.26583e-10
4.54339e-10
2.97681e-10
3.4598e-10
3.39776e-10
2.30447e-10
3.46579e-10
1.22299e-10
3.11396e-10
3.84211e-11
2.28017e-10
9.28127e-11
5.14309e-12
-8.3242e-11
-1.23178e-11
-9.2375e-11
-7.60187e-11
6.90875e-12
-2.02991e-10
1.80867e-10
-4.05503e-10
4.05654e-10
-6.919e-10
6.62829e-10
-1.06729e-09
9.38409e-10
-1.53416e-09
1.22203e-09
-2.09298e-09
1.5061e-09
-2.74256e-09
1.78518e-09
-3.48053e-09
2.05537e-09
-4.30364e-09
2.31402e-09
-5.20797e-09
2.55936e-09
-6.1892e-09
2.79029e-09
-7.24272e-09
3.00623e-09
-8.3638e-09
3.20697e-09
-9.54765e-09
3.39258e-09
-1.07895e-08
3.56332e-09
-1.20847e-08
3.71961e-09
-1.34287e-08
3.86197e-09
-1.48172e-08
3.99099e-09
-1.62458e-08
4.10731e-09
-1.77106e-08
4.21156e-09
-1.92077e-08
4.3044e-09
-2.07336e-08
4.38651e-09
-2.22848e-08
4.4585e-09
-2.3858e-08
4.52101e-09
-2.54501e-08
4.57463e-09
-2.70584e-08
4.61991e-09
-2.86801e-08
4.65738e-09
-3.03127e-08
4.68755e-09
-3.19537e-08
4.71087e-09
-3.3601e-08
4.72775e-09
-3.52523e-08
4.7386e-09
-3.69057e-08
4.74375e-09
-3.85592e-08
4.74352e-09
-4.02111e-08
4.73819e-09
-4.18596e-08
4.72801e-09
-4.35031e-08
4.7132e-09
-4.51399e-08
4.69392e-09
-4.67685e-08
4.67035e-09
-4.83874e-08
4.64261e-09
-4.99952e-08
4.61079e-09
-5.15904e-08
4.57498e-09
-5.31717e-08
4.53522e-09
-5.47375e-08
4.49155e-09
-5.62865e-08
4.44397e-09
-5.78174e-08
4.39249e-09
-5.93286e-08
4.33707e-09
-6.08189e-08
4.27769e-09
-6.22867e-08
4.2143e-09
-6.37307e-08
4.14682e-09
-6.51493e-08
4.07519e-09
-6.65411e-08
3.99934e-09
-6.79046e-08
3.91918e-09
-6.92382e-08
3.83462e-09
-7.05404e-08
3.74557e-09
-7.18095e-08
3.65194e-09
-7.3044e-08
3.55364e-09
-7.42422e-08
3.45057e-09
-7.54023e-08
3.34264e-09
-7.65228e-08
3.22979e-09
-7.76018e-08
3.11192e-09
-7.86377e-08
2.98898e-09
-7.96286e-08
2.86091e-09
-8.05728e-08
2.72766e-09
-8.14685e-08
2.5892e-09
-8.23139e-08
2.44551e-09
-8.31073e-08
2.29658e-09
-8.38468e-08
2.14242e-09
-8.45307e-08
1.98307e-09
-8.51572e-08
1.81858e-09
-8.57246e-08
1.649e-09
-8.62313e-08
1.47445e-09
-8.66755e-08
1.29501e-09
-8.70558e-08
1.11084e-09
-8.73705e-08
9.22092e-10
-8.76181e-08
7.28946e-10
-8.77973e-08
5.31613e-10
-8.79068e-08
3.30329e-10
-8.79453e-08
1.25353e-10
-8.79116e-08
-8.30259e-11
-8.78049e-08
-2.94496e-10
-8.76241e-08
-5.08718e-10
-8.73685e-08
-7.25326e-10
-8.70375e-08
-9.43932e-10
-8.66305e-08
-1.16412e-09
-8.61471e-08
-1.38545e-09
-8.55873e-08
-1.60746e-09
-8.4951e-08
-1.82966e-09
-8.42382e-08
-2.05156e-09
-8.34494e-08
-2.27262e-09
-8.2585e-08
-2.49231e-09
-8.16458e-08
-2.71007e-09
-8.06325e-08
-2.92533e-09
-7.95464e-08
-3.1375e-09
-7.83886e-08
-3.346e-09
-7.71607e-08
-3.55022e-09
-7.58644e-08
-3.74957e-09
-7.45015e-08
-3.94343e-09
-7.30741e-08
-4.13122e-09
-7.15845e-08
-4.31233e-09
-7.00353e-08
-4.48616e-09
-6.84291e-08
-4.65215e-09
-6.67687e-08
-4.80971e-09
-6.50574e-08
-4.95831e-09
-6.32982e-08
-5.0974e-09
-6.14947e-08
-5.22648e-09
-5.96503e-08
-5.34505e-09
-5.77689e-08
-5.45266e-09
-5.58543e-08
-5.54887e-09
-5.39105e-08
-5.63329e-09
-5.19417e-08
-5.70556e-09
-4.99521e-08
-5.76535e-09
-4.7946e-08
-5.81236e-09
-4.5928e-08
-5.84636e-09
-4.39024e-08
-5.86713e-09
-4.18738e-08
-5.87451e-09
-3.98469e-08
-5.86838e-09
-3.78261e-08
-5.84867e-09
-3.58163e-08
-5.81535e-09
-3.38219e-08
-5.76844e-09
-3.18476e-08
-5.708e-09
-2.9898e-08
-5.63414e-09
-2.79775e-08
-5.54701e-09
-2.60906e-08
-5.44682e-09
-2.42417e-08
-5.33381e-09
-2.2435e-08
-5.20827e-09
-2.06747e-08
-5.07053e-09
-1.89647e-08
-4.92097e-09
-1.73091e-08
-4.76e-09
-1.57114e-08
-4.58809e-09
-1.41753e-08
-4.40574e-09
-1.27041e-08
-4.2135e-09
-1.13009e-08
-4.01194e-09
-9.96871e-09
-3.80169e-09
-8.71019e-09
-3.58345e-09
-7.52778e-09
-3.35793e-09
-6.42366e-09
-3.12591e-09
-5.39968e-09
-2.88824e-09
-4.45739e-09
-2.64583e-09
-3.59799e-09
-2.39968e-09
-2.82227e-09
-2.15089e-09
-2.13063e-09
-1.90065e-09
-1.52298e-09
-1.65032e-09
-9.98697e-10
-1.40143e-09
-5.56584e-10
-1.15571e-09
-1.94767e-10
-9.15153e-10
8.93861e-11
-6.82086e-10
2.99375e-10
-4.59225e-10
4.39687e-10
-2.4978e-10
5.15939e-10
-5.75541e-11
5.35027e-10
1.12932e-10
5.05288e-10
2.56321e-10
4.36664e-10
3.66303e-10
3.40875e-10
4.35564e-10
2.31625e-10
4.55827e-10
1.24913e-10
4.18106e-10
3.96839e-11
3.13245e-10
1.32496e-10
-9.43388e-12
-7.3811e-11
-6.33551e-11
-3.84532e-11
-1.81612e-10
1.2516e-10
-3.79162e-10
3.78419e-10
-6.66974e-10
6.93467e-10
-1.05261e-09
1.04847e-09
-1.54074e-09
1.42653e-09
-2.13359e-09
1.81487e-09
-2.83141e-09
2.20393e-09
-3.63286e-09
2.58663e-09
-4.53535e-09
2.95786e-09
-5.53535e-09
3.31402e-09
-6.62861e-09
3.65262e-09
-7.8104e-09
3.97208e-09
-9.07567e-09
4.2715e-09
-1.04192e-08
4.55047e-09
-1.18356e-08
4.80897e-09
-1.33195e-08
5.04727e-09
-1.48658e-08
5.26586e-09
-1.64692e-08
5.46537e-09
-1.81247e-08
5.64654e-09
-1.98276e-08
5.81018e-09
-2.15732e-08
5.95713e-09
-2.3357e-08
6.08825e-09
-2.51749e-08
6.20442e-09
-2.70229e-08
6.30649e-09
-2.88972e-08
6.39528e-09
-3.07941e-08
6.47159e-09
-3.27104e-08
6.53619e-09
-3.46428e-08
6.58979e-09
-3.65883e-08
6.63306e-09
-3.85441e-08
6.66664e-09
-4.05074e-08
6.69109e-09
-4.24758e-08
6.70695e-09
-4.44468e-08
6.71471e-09
-4.6418e-08
6.71479e-09
-4.83875e-08
6.7076e-09
-5.03529e-08
6.69346e-09
-5.23124e-08
6.67267e-09
-5.4264e-08
6.64551e-09
-5.62058e-08
6.61217e-09
-5.8136e-08
6.57284e-09
-6.00529e-08
6.52767e-09
-6.19547e-08
6.47676e-09
-6.38396e-08
6.42019e-09
-6.57061e-08
6.358e-09
-6.75523e-08
6.29022e-09
-6.93767e-08
6.21684e-09
-7.11774e-08
6.13784e-09
-7.29529e-08
6.05317e-09
-7.47014e-08
5.96276e-09
-7.64211e-08
5.86655e-09
-7.81103e-08
5.76442e-09
-7.97673e-08
5.65628e-09
-8.13901e-08
5.54202e-09
-8.2977e-08
5.42152e-09
-8.45261e-08
5.29466e-09
-8.60355e-08
5.16131e-09
-8.75032e-08
5.02135e-09
-8.89273e-08
4.87466e-09
-9.03058e-08
4.72113e-09
-9.16366e-08
4.56064e-09
-9.29178e-08
4.3931e-09
-9.41472e-08
4.21842e-09
-9.53229e-08
4.03653e-09
-9.64426e-08
3.84737e-09
-9.75043e-08
3.6509e-09
-9.85058e-08
3.44709e-09
-9.94452e-08
3.23595e-09
-1.0032e-07
3.01749e-09
-1.01129e-07
2.79178e-09
-1.01869e-07
2.55887e-09
-1.02539e-07
2.31888e-09
-1.03137e-07
2.07193e-09
-1.0366e-07
1.81819e-09
-1.04107e-07
1.55785e-09
-1.04476e-07
1.29115e-09
-1.04765e-07
1.01834e-09
-1.04973e-07
7.39719e-10
-1.05099e-07
4.55623e-10
-1.0514e-07
1.66418e-10
-1.05095e-07
-1.27488e-10
-1.04964e-07
-4.25654e-10
-1.04745e-07
-7.27603e-10
-1.04438e-07
-1.03282e-09
-1.04041e-07
-1.34076e-09
-1.03554e-07
-1.65084e-09
-1.02977e-07
-1.96245e-09
-1.0231e-07
-2.27492e-09
-1.01552e-07
-2.5876e-09
-1.00704e-07
-2.89977e-09
-9.97655e-08
-3.2107e-09
-9.87382e-08
-3.51963e-09
-9.76225e-08
-3.82579e-09
-9.64194e-08
-4.12838e-09
-9.51303e-08
-4.42658e-09
-9.37567e-08
-4.71958e-09
-9.23004e-08
-5.00654e-09
-9.07633e-08
-5.28662e-09
-8.91478e-08
-5.55898e-09
-8.74562e-08
-5.82279e-09
-8.56913e-08
-6.07721e-09
-8.38561e-08
-6.32141e-09
-8.19536e-08
-6.5546e-09
-7.99874e-08
-6.77598e-09
-7.79609e-08
-6.98478e-09
-7.5878e-08
-7.18026e-09
-7.37428e-08
-7.36172e-09
-7.15594e-08
-7.52847e-09
-6.93322e-08
-7.67987e-09
-6.70657e-08
-7.81533e-09
-6.47647e-08
-7.9343e-09
-6.2434e-08
-8.03626e-09
-6.00786e-08
-8.12076e-09
-5.77035e-08
-8.18741e-09
-5.5314e-08
-8.23585e-09
-5.29154e-08
-8.2658e-09
-5.05128e-08
-8.27704e-09
-4.81118e-08
-8.26939e-09
-4.57177e-08
-8.24275e-09
-4.3336e-08
-8.19709e-09
-4.0972e-08
-8.13242e-09
-3.86312e-08
-8.04884e-09
-3.63188e-08
-7.9465e-09
-3.40402e-08
-7.82561e-09
-3.18006e-08
-7.68646e-09
-2.9605e-08
-7.52938e-09
-2.74585e-08
-7.35479e-09
-2.53659e-08
-7.16314e-09
-2.33319e-08
-6.95497e-09
-2.1361e-08
-6.73087e-09
-1.94576e-08
-6.49147e-09
-1.76259e-08
-6.2375e-09
-1.58697e-08
-5.96971e-09
-1.41927e-08
-5.68893e-09
-1.25983e-08
-5.39607e-09
-1.10897e-08
-5.09207e-09
-9.66963e-09
-4.77797e-09
-8.34065e-09
-4.45489e-09
-7.10487e-09
-4.12401e-09
-5.96406e-09
-3.78664e-09
-4.91955e-09
-3.4442e-09
-3.97221e-09
-3.09822e-09
-3.12243e-09
-2.75042e-09
-2.37005e-09
-2.4027e-09
-1.71429e-09
-2.05719e-09
-1.15369e-09
-1.7163e-09
-6.86056e-10
-1.38279e-09
-3.08333e-10
-1.05981e-09
-1.65273e-11
-7.51031e-10
1.94415e-10
-4.60723e-10
3.30731e-10
-1.93872e-10
3.99977e-10
4.36848e-11
4.11169e-10
2.45129e-10
3.7493e-10
4.02541e-10
3.0368e-10
5.06814e-10
2.11881e-10
5.47625e-10
1.1644e-10
5.13547e-10
3.74419e-11
3.92242e-10
1.69938e-10
-2.50758e-11
-4.8738e-11
-1.18865e-10
5.53417e-11
-2.96816e-10
3.03109e-10
-5.71036e-10
6.52635e-10
-9.50562e-10
1.07299e-09
-1.44165e-09
1.53956e-09
-2.04809e-09
2.03297e-09
-2.7715e-09
2.53829e-09
-3.61172e-09
3.04414e-09
-4.56706e-09
3.54197e-09
-5.63463e-09
4.02544e-09
-6.81059e-09
4.48998e-09
-8.09039e-09
4.93242e-09
-9.46894e-09
5.35064e-09
-1.09408e-08
5.74337e-09
-1.25003e-08
6.10997e-09
-1.41417e-08
6.45033e-09
-1.58591e-08
6.76469e-09
-1.76468e-08
7.05358e-09
-1.94992e-08
7.31772e-09
-2.14106e-08
7.55801e-09
-2.33758e-08
7.77541e-09
-2.53897e-08
7.97098e-09
-2.74472e-08
8.14579e-09
-2.95437e-08
8.30093e-09
-3.16747e-08
8.43746e-09
-3.38359e-08
8.55645e-09
-3.60232e-08
8.65889e-09
-3.82328e-08
8.74578e-09
-4.0461e-08
8.81802e-09
-4.27044e-08
8.87649e-09
-4.49598e-08
8.922e-09
-4.7224e-08
8.95529e-09
-4.94941e-08
8.97705e-09
-5.17673e-08
8.98792e-09
-5.4041e-08
8.98845e-09
-5.63126e-08
8.97917e-09
-5.85796e-08
8.96051e-09
-6.08398e-08
8.93287e-09
-6.30909e-08
8.89659e-09
-6.53307e-08
8.85196e-09
-6.7557e-08
8.79921e-09
-6.97679e-08
8.73854e-09
-7.19613e-08
8.6701e-09
-7.41351e-08
8.59398e-09
-7.62873e-08
8.51026e-09
-7.84161e-08
8.41897e-09
-8.05193e-08
8.32011e-09
-8.25952e-08
8.21365e-09
-8.46415e-08
8.09954e-09
-8.66564e-08
7.97768e-09
-8.86379e-08
7.848e-09
-9.05838e-08
7.71036e-09
-9.24922e-08
7.56465e-09
-9.43609e-08
7.41071e-09
-9.61878e-08
7.2484e-09
-9.79707e-08
7.07756e-09
-9.97074e-08
6.89805e-09
-1.01396e-07
6.7097e-09
-1.03033e-07
6.51236e-09
-1.04618e-07
6.30588e-09
-1.06148e-07
6.09014e-09
-1.0762e-07
5.865e-09
-1.09032e-07
5.63036e-09
-1.10381e-07
5.38613e-09
-1.11666e-07
5.13225e-09
-1.12884e-07
4.86865e-09
-1.14032e-07
4.59533e-09
-1.15108e-07
4.3123e-09
-1.1611e-07
4.01957e-09
-1.17036e-07
3.71724e-09
-1.17882e-07
3.40541e-09
-1.18648e-07
3.08421e-09
-1.1933e-07
2.75384e-09
-1.19926e-07
2.4145e-09
-1.20435e-07
2.06648e-09
-1.20854e-07
1.71007e-09
-1.21181e-07
1.34564e-09
-1.21415e-07
9.73575e-10
-1.21553e-07
5.94327e-10
-1.21595e-07
2.08389e-10
-1.21539e-07
-1.83697e-10
-1.21384e-07
-5.81342e-10
-1.21127e-07
-9.83909e-10
-1.20769e-07
-1.39072e-09
-1.20309e-07
-1.80104e-09
-1.19746e-07
-2.2141e-09
-1.19079e-07
-2.62908e-09
-1.18309e-07
-3.04512e-09
-1.17435e-07
-3.46133e-09
-1.16458e-07
-3.87677e-09
-1.15378e-07
-4.29047e-09
-1.14197e-07
-4.70144e-09
-1.12914e-07
-5.10864e-09
-1.11531e-07
-5.51103e-09
-1.1005e-07
-5.90752e-09
-1.08473e-07
-6.29705e-09
-1.06801e-07
-6.67849e-09
-1.05037e-07
-7.05076e-09
-1.03183e-07
-7.41275e-09
-1.01242e-07
-7.76334e-09
-9.92181e-08
-8.10145e-09
-9.71135e-08
-8.42598e-09
-9.49322e-08
-8.73589e-09
-9.26781e-08
-9.03012e-09
-9.03552e-08
-9.30767e-09
-8.79679e-08
-9.56757e-09
-8.55207e-08
-9.80886e-09
-8.30185e-08
-1.00307e-08
-8.04662e-08
-1.02322e-08
-7.7869e-08
-1.04125e-08
-7.52322e-08
-1.05711e-08
-7.25614e-08
-1.07071e-08
-6.98621e-08
-1.08201e-08
-6.71401e-08
-1.09094e-08
-6.44014e-08
-1.09746e-08
-6.16519e-08
-1.10153e-08
-5.88976e-08
-1.10313e-08
-5.61446e-08
-1.10223e-08
-5.33991e-08
-1.09882e-08
-5.06672e-08
-1.0929e-08
-4.79551e-08
-1.08446e-08
-4.52688e-08
-1.07352e-08
-4.26143e-08
-1.06009e-08
-3.99978e-08
-1.04422e-08
-3.7425e-08
-1.02592e-08
-3.49018e-08
-1.00526e-08
-3.24337e-08
-9.82283e-09
-3.00264e-08
-9.57049e-09
-2.7685e-08
-9.29631e-09
-2.54148e-08
-9.00106e-09
-2.32207e-08
-8.68561e-09
-2.11073e-08
-8.35091e-09
-1.9079e-08
-7.99797e-09
-1.71401e-08
-7.62791e-09
-1.52942e-08
-7.24191e-09
-1.3545e-08
-6.84128e-09
-1.18956e-08
-6.42738e-09
-1.03488e-08
-6.00172e-09
-8.90689e-09
-5.56588e-09
-7.57191e-09
-5.12162e-09
-6.34528e-09
-4.67083e-09
-5.22793e-09
-4.21556e-09
-4.22026e-09
-3.7581e-09
-3.32201e-09
-3.30095e-09
-2.53227e-09
-2.84693e-09
-1.84938e-09
-2.39919e-09
-1.27086e-09
-1.9613e-09
-7.93346e-10
-1.53733e-09
-4.12447e-10
-1.13193e-09
-1.22695e-10
-7.50475e-10
8.25931e-11
-3.9916e-10
2.11422e-10
-8.51451e-11
2.73248e-10
1.83302e-10
2.79121e-10
3.96668e-10
2.41864e-10
5.4407e-10
1.76339e-10
6.13148e-10
9.98475e-11
5.90038e-10
3.27845e-11
4.59304e-10
2.02723e-10
-4.10633e-11
-7.67722e-12
-1.76401e-10
1.90684e-10
-4.16908e-10
5.43617e-10
-7.71466e-10
1.00719e-09
-1.24677e-09
1.5483e-09
-1.84739e-09
2.14018e-09
-2.57587e-09
2.76145e-09
-3.43298e-09
3.3954e-09
-4.41789e-09
4.02904e-09
-5.5284e-09
4.65248e-09
-6.76122e-09
5.25826e-09
-8.11216e-09
5.84093e-09
-9.57632e-09
6.39658e-09
-1.11483e-08
6.92259e-09
-1.28222e-08
7.41732e-09
-1.45921e-08
7.87989e-09
-1.64519e-08
8.31005e-09
-1.83952e-08
8.70799e-09
-2.04159e-08
9.07428e-09
-2.25079e-08
9.40974e-09
-2.46653e-08
9.71538e-09
-2.68822e-08
9.99234e-09
-2.91531e-08
1.02419e-08
-3.14726e-08
1.04653e-08
-3.38354e-08
1.06638e-08
-3.62368e-08
1.08388e-08
-3.86719e-08
1.09916e-08
-4.11363e-08
1.11233e-08
-4.36257e-08
1.12352e-08
-4.61361e-08
1.13284e-08
-4.86636e-08
1.1404e-08
-5.12045e-08
1.14629e-08
-5.37554e-08
1.15062e-08
-5.63131e-08
1.15347e-08
-5.88743e-08
1.15491e-08
-6.1436e-08
1.15502e-08
-6.39954e-08
1.15386e-08
-6.65498e-08
1.15148e-08
-6.90964e-08
1.14795e-08
-7.16327e-08
1.14329e-08
-7.41562e-08
1.13755e-08
-7.66645e-08
1.13075e-08
-7.91553e-08
1.12293e-08
-8.16261e-08
1.11409e-08
-8.40748e-08
1.10426e-08
-8.6499e-08
1.09345e-08
-8.88965e-08
1.08165e-08
-9.1265e-08
1.06886e-08
-9.36023e-08
1.0551e-08
-9.59062e-08
1.04034e-08