/*--------------------------------*- C++ -*----------------------------------*\
  =========                 |
  \\      /  F ield         | OpenFOAM: The Open Source CFD Toolbox
   \\    /   O peration     | Website:  https://openfoam.org
    \\  /    A nd           | Version:  7
     \\/     M anipulation  |
\*---------------------------------------------------------------------------*/
FoamFile
{
    version     2.0;
    format      ascii;
    class       volVectorField;
    location    "0.125";
    object      U;
}
// * * * * * * * * * * * * * * * * * * * * * * * * * * * * * * * * * * * * * //

dimensions      [0 1 -1 0 0 0 0];

internalField   nonuniform List<vector> 
25600
(
(2.16154e-07 -1.95296e-07 0)
(2.86552e-06 -1.74801e-06 0)
(9.01806e-06 -2.75257e-06 0)
(1.67221e-05 -3.11193e-06 0)
(2.45364e-05 -3.03824e-06 0)
(3.15264e-05 -2.67951e-06 0)
(3.70572e-05 -2.13936e-06 0)
(4.06785e-05 -1.476e-06 0)
(4.208e-05 -7.39816e-07 0)
(4.10688e-05 3.94901e-08 0)
(3.75183e-05 8.40497e-07 0)
(3.13611e-05 1.65027e-06 0)
(2.25757e-05 2.45416e-06 0)
(1.11692e-05 3.24704e-06 0)
(-2.82529e-06 4.01982e-06 0)
(-1.93571e-05 4.77204e-06 0)
(-3.83589e-05 5.49685e-06 0)
(-5.97572e-05 6.19527e-06 0)
(-8.34652e-05 6.86632e-06 0)
(-0.000109392 7.50483e-06 0)
(-0.000137441 8.11153e-06 0)
(-0.00016751 8.68599e-06 0)
(-0.000199498 9.22773e-06 0)
(-0.000233299 9.73839e-06 0)
(-0.000268807 1.02184e-05 0)
(-0.000305915 1.06658e-05 0)
(-0.000344517 1.10804e-05 0)
(-0.000384506 1.14648e-05 0)
(-0.000425773 1.1816e-05 0)
(-0.000468215 1.21369e-05 0)
(-0.000511721 1.24275e-05 0)
(-0.000556188 1.26883e-05 0)
(-0.000601516 1.29196e-05 0)
(-0.000647596 1.31199e-05 0)
(-0.000694328 1.32919e-05 0)
(-0.000741616 1.34363e-05 0)
(-0.000789359 1.35527e-05 0)
(-0.000837459 1.36418e-05 0)
(-0.000885823 1.37033e-05 0)
(-0.000934358 1.37372e-05 0)
(-0.000982971 1.37448e-05 0)
(-0.00103157 1.37279e-05 0)
(-0.00108008 1.36872e-05 0)
(-0.0011284 1.36236e-05 0)
(-0.00117646 1.35377e-05 0)
(-0.00122416 1.34283e-05 0)
(-0.00127144 1.32953e-05 0)
(-0.00131821 1.31398e-05 0)
(-0.0013644 1.29632e-05 0)
(-0.00140994 1.27668e-05 0)
(-0.00145475 1.25512e-05 0)
(-0.00149876 1.23162e-05 0)
(-0.00154191 1.20625e-05 0)
(-0.00158412 1.17906e-05 0)
(-0.00162535 1.15007e-05 0)
(-0.00166552 1.11939e-05 0)
(-0.00170458 1.08711e-05 0)
(-0.00174247 1.05324e-05 0)
(-0.00177913 1.01784e-05 0)
(-0.00181452 9.80974e-06 0)
(-0.00184858 9.42784e-06 0)
(-0.00188126 9.03302e-06 0)
(-0.00191252 8.62512e-06 0)
(-0.00194232 8.20516e-06 0)
(-0.00197061 7.77349e-06 0)
(-0.00199735 7.33081e-06 0)
(-0.0020225 6.8785e-06 0)
(-0.00204603 6.41685e-06 0)
(-0.00206791 5.94642e-06 0)
(-0.00208811 5.46826e-06 0)
(-0.0021066 4.98192e-06 0)
(-0.00212334 4.48761e-06 0)
(-0.00213832 3.98694e-06 0)
(-0.00215152 3.48055e-06 0)
(-0.00216291 2.96899e-06 0)
(-0.00217248 2.45324e-06 0)
(-0.00218021 1.9332e-06 0)
(-0.00218609 1.40912e-06 0)
(-0.00219011 8.82562e-07 0)
(-0.00219226 3.54159e-07 0)
(-0.00219254 -1.76003e-07 0)
(-0.00219093 -7.06596e-07 0)
(-0.00218745 -1.23647e-06 0)
(-0.00218209 -1.76571e-06 0)
(-0.00217486 -2.29381e-06 0)
(-0.00216577 -2.81945e-06 0)
(-0.00215482 -3.34199e-06 0)
(-0.00214202 -3.86107e-06 0)
(-0.0021274 -4.37561e-06 0)
(-0.00211097 -4.88495e-06 0)
(-0.00209274 -5.38903e-06 0)
(-0.00207274 -5.88695e-06 0)
(-0.002051 -6.37723e-06 0)
(-0.00202754 -6.85922e-06 0)
(-0.0020024 -7.33255e-06 0)
(-0.0019756 -7.79615e-06 0)
(-0.00194718 -8.24908e-06 0)
(-0.00191719 -8.69094e-06 0)
(-0.00188566 -9.12089e-06 0)
(-0.00185263 -9.53777e-06 0)
(-0.00181816 -9.94102e-06 0)
(-0.0017823 -1.03302e-05 0)
(-0.00174509 -1.07043e-05 0)
(-0.00170659 -1.10621e-05 0)
(-0.00166686 -1.1403e-05 0)
(-0.00162596 -1.17266e-05 0)
(-0.00158395 -1.20317e-05 0)
(-0.0015409 -1.23175e-05 0)
(-0.00149688 -1.25837e-05 0)
(-0.00145195 -1.28297e-05 0)
(-0.0014062 -1.30549e-05 0)
(-0.00135969 -1.32583e-05 0)
(-0.00131251 -1.34392e-05 0)
(-0.00126473 -1.35966e-05 0)
(-0.00121644 -1.37297e-05 0)
(-0.00116773 -1.38378e-05 0)
(-0.00111868 -1.39212e-05 0)
(-0.00106938 -1.39795e-05 0)
(-0.00101992 -1.40118e-05 0)
(-0.000970394 -1.40171e-05 0)
(-0.000920899 -1.3995e-05 0)
(-0.000871531 -1.39449e-05 0)
(-0.000822389 -1.38659e-05 0)
(-0.000773575 -1.37573e-05 0)
(-0.000725189 -1.36193e-05 0)
(-0.000677336 -1.34523e-05 0)
(-0.000630118 -1.32561e-05 0)
(-0.000583639 -1.30298e-05 0)
(-0.000538004 -1.27726e-05 0)
(-0.00049332 -1.24845e-05 0)
(-0.000449695 -1.21653e-05 0)
(-0.000407237 -1.1814e-05 0)
(-0.000366054 -1.14302e-05 0)
(-0.000326256 -1.10139e-05 0)
(-0.00028795 -1.05661e-05 0)
(-0.000251243 -1.00874e-05 0)
(-0.000216239 -9.57769e-06 0)
(-0.00018304 -9.03689e-06 0)
(-0.000151749 -8.46543e-06 0)
(-0.000122464 -7.86411e-06 0)
(-9.52809e-05 -7.23346e-06 0)
(-7.02923e-05 -6.57402e-06 0)
(-4.75848e-05 -5.887e-06 0)
(-2.72387e-05 -5.17439e-06 0)
(-9.32613e-06 -4.43885e-06 0)
(6.09141e-06 -3.68352e-06 0)
(1.89649e-05 -2.91159e-06 0)
(2.92608e-05 -2.12718e-06 0)
(3.69648e-05 -1.33609e-06 0)
(4.2087e-05 -5.45868e-07 0)
(4.46679e-05 2.33221e-07 0)
(4.47895e-05 9.87276e-07 0)
(4.2588e-05 1.69664e-06 0)
(3.82742e-05 2.33123e-06 0)
(3.21637e-05 2.84458e-06 0)
(2.47188e-05 3.16619e-06 0)
(1.66001e-05 3.19148e-06 0)
(8.7534e-06 2.76446e-06 0)
(2.64693e-06 1.6933e-06 0)
(1.28088e-07 1.27574e-07 0)
(1.83634e-06 -2.89941e-06 0)
(9.45408e-06 -9.33148e-06 0)
(2.31016e-05 -1.32176e-05 0)
(3.915e-05 -1.44757e-05 0)
(5.48166e-05 -1.37251e-05 0)
(6.81489e-05 -1.15048e-05 0)
(7.76254e-05 -8.22974e-06 0)
(8.21016e-05 -4.22008e-06 0)
(8.07467e-05 2.92542e-07 0)
(7.29777e-05 5.13336e-06 0)
(5.84068e-05 1.01677e-05 0)
(3.67973e-05 1.53045e-05 0)
(8.03207e-06 2.04646e-05 0)
(-2.79155e-05 2.55918e-05 0)
(-7.09995e-05 3.06443e-05 0)
(-0.000121115 3.55866e-05 0)
(-0.000178113 4.03927e-05 0)
(-0.000241807 4.50438e-05 0)
(-0.000311987 4.95248e-05 0)
(-0.000388414 5.38225e-05 0)
(-0.000470831 5.79277e-05 0)
(-0.000558976 6.18317e-05 0)
(-0.000652565 6.55303e-05 0)
(-0.000751312 6.90226e-05 0)
(-0.000854927 7.23048e-05 0)
(-0.00096311 7.53759e-05 0)
(-0.00107556 7.82365e-05 0)
(-0.00119198 8.08835e-05 0)
(-0.00131207 8.33195e-05 0)
(-0.00143552 8.55423e-05 0)
(-0.00156203 8.75589e-05 0)
(-0.00169131 8.93658e-05 0)
(-0.00182305 9.09688e-05 0)
(-0.00195697 9.23694e-05 0)
(-0.00209278 9.35691e-05 0)
(-0.00223018 9.45721e-05 0)
(-0.0023689 9.53823e-05 0)
(-0.00250866 9.60023e-05 0)
(-0.00264917 9.64349e-05 0)
(-0.00279019 9.66841e-05 0)
(-0.00293143 9.67534e-05 0)
(-0.00307265 9.6646e-05 0)
(-0.00321358 9.63661e-05 0)
(-0.00335399 9.59187e-05 0)
(-0.00349362 9.53082e-05 0)
(-0.00363225 9.45369e-05 0)
(-0.00376964 9.3608e-05 0)
(-0.00390556 9.25258e-05 0)
(-0.00403979 9.12949e-05 0)
(-0.00417212 8.99189e-05 0)
(-0.00430235 8.84032e-05 0)
(-0.00443026 8.67518e-05 0)
(-0.00455567 8.49678e-05 0)
(-0.00467838 8.30553e-05 0)
(-0.00479821 8.10187e-05 0)
(-0.00491498 7.88628e-05 0)
(-0.00502851 7.65921e-05 0)
(-0.00513865 7.42093e-05 0)
(-0.00524523 7.17188e-05 0)
(-0.0053481 6.91257e-05 0)
(-0.00544711 6.64342e-05 0)
(-0.00554212 6.36493e-05 0)
(-0.005633 6.07746e-05 0)
(-0.00571961 5.78141e-05 0)
(-0.00580184 5.47724e-05 0)
(-0.00587956 5.16532e-05 0)
(-0.00595268 4.84613e-05 0)
(-0.00602108 4.52023e-05 0)
(-0.00608467 4.18803e-05 0)
(-0.00614336 3.84993e-05 0)
(-0.00619706 3.50636e-05 0)
(-0.00624571 3.15765e-05 0)
(-0.00628922 2.80427e-05 0)
(-0.00632754 2.44679e-05 0)
(-0.0063606 2.08564e-05 0)
(-0.00638836 1.72125e-05 0)
(-0.00641078 1.35407e-05 0)
(-0.00642781 9.84565e-06 0)
(-0.00643942 6.13154e-06 0)
(-0.0064456 2.40357e-06 0)
(-0.00644633 -1.33264e-06 0)
(-0.00644159 -5.07208e-06 0)
(-0.00643139 -8.80994e-06 0)
(-0.00641574 -1.2541e-05 0)
(-0.00639464 -1.62605e-05 0)
(-0.00636812 -1.9964e-05 0)
(-0.00633621 -2.3646e-05 0)
(-0.00629894 -2.7301e-05 0)
(-0.00625635 -3.09241e-05 0)
(-0.0062085 -3.4511e-05 0)
(-0.00615544 -3.80562e-05 0)
(-0.00609725 -4.15539e-05 0)
(-0.00603399 -4.49987e-05 0)
(-0.00596574 -4.83856e-05 0)
(-0.00589259 -5.1709e-05 0)
(-0.00581466 -5.49632e-05 0)
(-0.00573202 -5.81431e-05 0)
(-0.00564481 -6.12432e-05 0)
(-0.00555314 -6.42578e-05 0)
(-0.00545714 -6.71811e-05 0)
(-0.00535695 -7.00084e-05 0)
(-0.00525271 -7.27349e-05 0)
(-0.00514458 -7.53545e-05 0)
(-0.00503271 -7.7861e-05 0)
(-0.00491728 -8.02495e-05 0)
(-0.00479846 -8.2515e-05 0)
(-0.00467643 -8.46515e-05 0)
(-0.00455138 -8.66538e-05 0)
(-0.00442352 -8.8518e-05 0)
(-0.00429304 -9.02397e-05 0)
(-0.00416017 -9.18139e-05 0)
(-0.00402512 -9.32348e-05 0)
(-0.00388811 -9.44971e-05 0)
(-0.00374939 -9.5596e-05 0)
(-0.00360919 -9.65269e-05 0)
(-0.00346775 -9.72857e-05 0)
(-0.00332534 -9.78693e-05 0)
(-0.00318221 -9.82741e-05 0)
(-0.00303863 -9.84962e-05 0)
(-0.00289485 -9.85311e-05 0)
(-0.00275117 -9.83744e-05 0)
(-0.00260785 -9.80223e-05 0)
(-0.00246519 -9.74714e-05 0)
(-0.00232346 -9.67189e-05 0)
(-0.00218298 -9.57633e-05 0)
(-0.00204402 -9.46032e-05 0)
(-0.00190689 -9.32369e-05 0)
(-0.00177189 -9.16623e-05 0)
(-0.00163932 -8.98773e-05 0)
(-0.00150948 -8.788e-05 0)
(-0.00138269 -8.56688e-05 0)
(-0.00125924 -8.32426e-05 0)
(-0.00113944 -8.06014e-05 0)
(-0.0010236 -7.77465e-05 0)
(-0.000912016 -7.46803e-05 0)
(-0.000804989 -7.14056e-05 0)
(-0.000702811 -6.79256e-05 0)
(-0.000605768 -6.42438e-05 0)
(-0.000514139 -6.03649e-05 0)
(-0.000428194 -5.62948e-05 0)
(-0.000348191 -5.20407e-05 0)
(-0.000274377 -4.76118e-05 0)
(-0.000206976 -4.30201e-05 0)
(-0.000146195 -3.8281e-05 0)
(-9.22118e-05 -3.34136e-05 0)
(-4.51757e-05 -2.84412e-05 0)
(-5.19421e-06 -2.33921e-05 0)
(2.7673e-05 -1.83013e-05 0)
(5.34257e-05 -1.32133e-05 0)
(7.2136e-05 -8.18446e-06 0)
(8.39682e-05 -3.28702e-06 0)
(8.92044e-05 1.38409e-06 0)
(8.8276e-05 5.70228e-06 0)
(8.18054e-05 9.49544e-06 0)
(7.06618e-05 1.25277e-05 0)
(5.60285e-05 1.44793e-05 0)
(3.9453e-05 1.49284e-05 0)
(2.29078e-05 1.3338e-05 0)
(9.15306e-06 9.15077e-06 0)
(1.69472e-06 2.64456e-06 0)
(2.88742e-06 -9.173e-06 0)
(1.34904e-05 -2.30686e-05 0)
(3.10756e-05 -3.07299e-05 0)
(5.06775e-05 -3.26888e-05 0)
(6.87583e-05 -3.00143e-05 0)
(8.27955e-05 -2.37561e-05 0)
(9.0726e-05 -1.48006e-05 0)
(9.09235e-05 -3.87494e-06 0)
(8.21661e-05 8.45633e-06 0)
(6.35574e-05 2.17401e-05 0)
(3.44787e-05 3.56438e-05 0)
(-5.47332e-06 4.9888e-05 0)
(-5.65255e-05 6.42712e-05 0)
(-0.000118755 7.86239e-05 0)
(-0.000192135 9.28213e-05 0)
(-0.000276539 0.000106758 0)
(-0.000371759 0.000120356 0)
(-0.00047754 0.00013355 0)
(-0.000593568 0.000146289 0)
(-0.000719491 0.000158538 0)
(-0.000854928 0.000170259 0)
(-0.000999469 0.000181432 0)
(-0.00115268 0.000192037 0)
(-0.00131413 0.000202058 0)
(-0.00148336 0.000211492 0)
(-0.00165989 0.000220327 0)
(-0.00184326 0.000228562 0)
(-0.00203299 0.000236192 0)
(-0.0022286 0.000243219 0)
(-0.00242961 0.000249642 0)
(-0.00263554 0.000255465 0)
(-0.00284593 0.000260695 0)
(-0.00306028 0.000265334 0)
(-0.00327813 0.000269389 0)
(-0.00349902 0.000272867 0)
(-0.00372249 0.000275777 0)
(-0.00394808 0.000278126 0)
(-0.00417534 0.000279924 0)
(-0.00440383 0.00028118 0)
(-0.00463311 0.000281905 0)
(-0.00486277 0.000282109 0)
(-0.00509238 0.0002818 0)
(-0.00532152 0.000280989 0)
(-0.00554981 0.000279689 0)
(-0.00577685 0.00027791 0)
(-0.00600224 0.000275663 0)
(-0.00622562 0.00027296 0)
(-0.00644662 0.000269811 0)
(-0.00666488 0.000266228 0)
(-0.00688005 0.000262224 0)
(-0.0070918 0.00025781 0)
(-0.00729979 0.000252997 0)
(-0.00750371 0.000247799 0)
(-0.00770324 0.000242226 0)
(-0.0078981 0.000236292 0)
(-0.00808797 0.000230008 0)
(-0.0082726 0.000223387 0)
(-0.0084517 0.00021644 0)
(-0.00862501 0.000209179 0)
(-0.00879229 0.000201618 0)
(-0.00895329 0.000193769 0)
(-0.00910779 0.000185645 0)
(-0.00925556 0.000177258 0)
(-0.0093964 0.000168621 0)
(-0.0095301 0.000159746 0)
(-0.00965648 0.000150645 0)
(-0.00977536 0.000141332 0)
(-0.00988657 0.00013182 0)
(-0.00998995 0.000122123 0)
(-0.0100853 0.000112253 0)
(-0.0101726 0.000102221 0)
(-0.0102517 9.20424e-05 0)
(-0.0103224 8.17291e-05 0)
(-0.0103847 7.12943e-05 0)
(-0.0104384 6.07525e-05 0)
(-0.0104834 5.01174e-05 0)
(-0.0105198 3.94008e-05 0)
(-0.0105474 2.86169e-05 0)
(-0.0105662 1.77808e-05 0)
(-0.0105762 6.90538e-06 0)
(-0.0105773 -3.99505e-06 0)
(-0.0105695 -1.49043e-05 0)
(-0.0105528 -2.58082e-05 0)
(-0.0105273 -3.66933e-05 0)
(-0.0104929 -4.75442e-05 0)
(-0.0104496 -5.83455e-05 0)
(-0.0103976 -6.90835e-05 0)
(-0.0103369 -7.97431e-05 0)
(-0.0102676 -9.03086e-05 0)
(-0.0101897 -0.000100766 0)
(-0.0101033 -0.000111099 0)
(-0.0100086 -0.000121293 0)
(-0.0099057 -0.000131331 0)
(-0.00979465 -0.000141199 0)
(-0.00967566 -0.00015088 0)
(-0.00954888 -0.000160359 0)
(-0.00941447 -0.00016962 0)
(-0.00927263 -0.000178647 0)
(-0.00912356 -0.000187424 0)
(-0.00896745 -0.000195935 0)
(-0.00880454 -0.000204166 0)
(-0.00863506 -0.0002121 0)
(-0.00845927 -0.000219721 0)
(-0.00827741 -0.000227014 0)
(-0.00808977 -0.000233964 0)
(-0.00789662 -0.000240554 0)
(-0.00769828 -0.000246769 0)
(-0.00749504 -0.000252595 0)
(-0.00728724 -0.000258017 0)
(-0.0070752 -0.000263023 0)
(-0.00685927 -0.000267597 0)
(-0.00663981 -0.000271725 0)
(-0.00641718 -0.000275393 0)
(-0.00619177 -0.000278586 0)
(-0.00596396 -0.000281292 0)
(-0.00573415 -0.000283499 0)
(-0.00550276 -0.000285195 0)
(-0.00527019 -0.000286371 0)
(-0.00503689 -0.000287014 0)
(-0.00480327 -0.000287113 0)
(-0.0045698 -0.000286658 0)
(-0.00433691 -0.000285638 0)
(-0.00410508 -0.000284045 0)
(-0.00387475 -0.00028187 0)
(-0.00364641 -0.000279107 0)
(-0.00342053 -0.000275752 0)
(-0.00319759 -0.0002718 0)
(-0.00297807 -0.000267245 0)
(-0.00276246 -0.000262084 0)
(-0.00255124 -0.000256313 0)
(-0.00234491 -0.00024993 0)
(-0.00214394 -0.000242935 0)
(-0.00194883 -0.000235329 0)
(-0.00176006 -0.000227117 0)
(-0.0015781 -0.000218305 0)
(-0.00140342 -0.000208901 0)
(-0.00123648 -0.000198918 0)
(-0.00107774 -0.000188368 0)
(-0.000927622 -0.000177267 0)
(-0.00078655 -0.000165636 0)
(-0.00065492 -0.000153501 0)
(-0.000533102 -0.000140891 0)
(-0.000421437 -0.000127846 0)
(-0.000320227 -0.000114412 0)
(-0.000229732 -0.000100648 0)
(-0.000150157 -8.66248e-05 0)
(-8.16419e-05 -7.24284e-05 0)
(-2.42483e-05 -5.81654e-05 0)
(2.20595e-05 -4.39676e-05 0)
(5.74336e-05 -2.99998e-05 0)
(8.217e-05 -1.64692e-05 0)
(9.67426e-05 -3.64018e-06 0)
(0.000101843 8.14795e-06 0)
(9.84296e-05 1.84573e-05 0)
(8.77877e-05 2.6724e-05 0)
(7.15936e-05 3.22318e-05 0)
(5.1939e-05 3.41014e-05 0)
(3.1356e-05 3.13186e-05 0)
(1.33586e-05 2.2911e-05 0)
(2.77032e-06 8.75469e-06 0)
(3.26283e-06 -1.70814e-05 0)
(1.48106e-05 -3.93069e-05 0)
(3.31814e-05 -5.03848e-05 0)
(5.25344e-05 -5.19852e-05 0)
(6.88118e-05 -4.5804e-05 0)
(7.91397e-05 -3.34411e-05 0)
(8.11239e-05 -1.63211e-05 0)
(7.28323e-05 4.38263e-06 0)
(5.27629e-05 2.76949e-05 0)
(1.97969e-05 5.28499e-05 0)
(-2.68741e-05 7.92209e-05 0)
(-8.77964e-05 0.00010632 0)
(-0.000163287 0.000133748 0)
(-0.000253493 0.000161195 0)
(-0.000358407 0.000188404 0)
(-0.000477895 0.000215181 0)
(-0.000611726 0.000241357 0)
(-0.00075958 0.000266803 0)
(-0.000921071 0.000291418 0)
(-0.00109576 0.000315114 0)
(-0.00128315 0.000337827 0)
(-0.00148272 0.000359505 0)
(-0.00169392 0.000380104 0)
(-0.00191616 0.000399594 0)
(-0.00214884 0.000417953 0)
(-0.00239135 0.000435164 0)
(-0.00264306 0.000451214 0)
(-0.00290334 0.000466101 0)
(-0.00317154 0.000479813 0)
(-0.00344704 0.00049236 0)
(-0.00372918 0.00050374 0)
(-0.00401733 0.000513962 0)
(-0.00431084 0.000523037 0)
(-0.00460909 0.000530972 0)
(-0.00491145 0.000537781 0)
(-0.00521729 0.000543478 0)
(-0.00552599 0.000548079 0)
(-0.00583696 0.0005516 0)
(-0.00614958 0.000554058 0)
(-0.00646328 0.000555474 0)
(-0.00677747 0.000555865 0)
(-0.00709158 0.000555252 0)
(-0.00740505 0.000553653 0)
(-0.00771734 0.000551091 0)
(-0.00802791 0.000547587 0)
(-0.00833623 0.000543161 0)
(-0.0086418 0.000537838 0)
(-0.0089441 0.000531637 0)
(-0.00924266 0.000524583 0)
(-0.009537 0.000516698 0)
(-0.00982665 0.000508005 0)
(-0.0101112 0.000498527 0)
(-0.0103901 0.000488288 0)
(-0.0106631 0.000477311 0)
(-0.0109296 0.00046562 0)
(-0.0111893 0.00045324 0)
(-0.0114419 0.000440194 0)
(-0.0116869 0.000426506 0)
(-0.0119239 0.0004122 0)
(-0.0121528 0.0003973 0)
(-0.012373 0.000381832 0)
(-0.0125843 0.00036582 0)
(-0.0127864 0.000349288 0)
(-0.0129791 0.000332263 0)
(-0.013162 0.000314768 0)
(-0.0133348 0.000296828 0)
(-0.0134974 0.00027847 0)
(-0.0136495 0.000259718 0)
(-0.0137908 0.000240598 0)
(-0.0139213 0.000221137 0)
(-0.0140406 0.000201358 0)
(-0.0141487 0.000181289 0)
(-0.0142454 0.000160955 0)
(-0.0143304 0.000140383 0)
(-0.0144038 0.0001196 0)
(-0.0144654 9.86312e-05 0)
(-0.014515 7.75057e-05 0)
(-0.0145527 5.62488e-05 0)
(-0.0145783 3.48883e-05 0)
(-0.0145919 1.34532e-05 0)
(-0.0145932 -8.02875e-06 0)
(-0.0145825 -2.95297e-05 0)
(-0.0145595 -5.10197e-05 0)
(-0.0145245 -7.24702e-05 0)
(-0.0144773 -9.38531e-05 0)
(-0.0144181 -0.000115139 0)
(-0.0143469 -0.000136297 0)
(-0.0142637 -0.000157298 0)
(-0.0141688 -0.000178113 0)
(-0.0140621 -0.000198713 0)
(-0.0139439 -0.000219066 0)
(-0.0138143 -0.000239142 0)
(-0.0136734 -0.000258911 0)
(-0.0135214 -0.000278342 0)
(-0.0133586 -0.000297403 0)
(-0.0131851 -0.000316065 0)
(-0.0130012 -0.000334295 0)
(-0.0128072 -0.000352063 0)
(-0.0126032 -0.000369338 0)
(-0.0123897 -0.000386089 0)
(-0.0121669 -0.000402285 0)
(-0.0119351 -0.000417896 0)
(-0.0116947 -0.000432891 0)
(-0.011446 -0.000447239 0)
(-0.0111894 -0.000460909 0)
(-0.0109253 -0.000473872 0)
(-0.0106541 -0.000486098 0)
(-0.0103762 -0.000497558 0)
(-0.0100921 -0.000508223 0)
(-0.00980216 -0.000518067 0)
(-0.00950695 -0.00052706 0)
(-0.00920692 -0.000535176 0)
(-0.00890257 -0.000542387 0)
(-0.00859441 -0.000548666 0)
(-0.00828297 -0.00055399 0)
(-0.00796881 -0.000558333 0)
(-0.00765247 -0.000561674 0)
(-0.00733453 -0.000563989 0)
(-0.00701557 -0.000565259 0)
(-0.00669617 -0.000565462 0)
(-0.00637695 -0.000564579 0)
(-0.00605851 -0.00056259 0)
(-0.00574148 -0.000559479 0)
(-0.00542649 -0.000555232 0)
(-0.00511417 -0.000549835 0)
(-0.00480517 -0.000543278 0)
(-0.00450013 -0.000535553 0)
(-0.00419972 -0.000526651 0)
(-0.00390457 -0.000516567 0)
(-0.00361536 -0.000505296 0)
(-0.00333273 -0.000492837 0)
(-0.00305733 -0.000479192 0)
(-0.00278983 -0.000464365 0)
(-0.00253085 -0.000448367 0)
(-0.00228103 -0.000431212 0)
(-0.002041 -0.000412918 0)
(-0.00181137 -0.000393509 0)
(-0.00159274 -0.000373015 0)
(-0.00138566 -0.000351472 0)
(-0.00119069 -0.000328924 0)
(-0.00100834 -0.000305426 0)
(-0.000839088 -0.000281041 0)
(-0.000683369 -0.00025585 0)
(-0.000541562 -0.000229951 0)
(-0.000413985 -0.000203459 0)
(-0.000300883 -0.000176516 0)
(-0.000202411 -0.000149296 0)
(-0.000118616 -0.000122009 0)
(-4.94196e-05 -9.49121e-05 0)
(5.40954e-06 -6.83225e-05 0)
(4.62858e-05 -4.26327e-05 0)
(7.38432e-05 -1.83318e-05 0)
(8.89776e-05 3.96911e-06 0)
(9.28948e-05 2.3507e-05 0)
(8.71661e-05 3.93343e-05 0)
(7.3785e-05 5.02911e-05 0)
(5.51786e-05 5.50014e-05 0)
(3.42341e-05 5.19191e-05 0)
(1.49887e-05 3.94927e-05 0)
(3.20478e-06 1.66175e-05 0)
(3.17031e-06 -2.50875e-05 0)
(1.40538e-05 -5.52175e-05 0)
(3.05799e-05 -6.86142e-05 0)
(4.65273e-05 -6.83152e-05 0)
(5.75689e-05 -5.67769e-05 0)
(6.05949e-05 -3.62209e-05 0)
(5.3019e-05 -8.59628e-06 0)
(3.272e-05 2.44303e-05 0)
(-1.97257e-06 6.14849e-05 0)
(-5.23392e-05 0.000101428 0)
(-0.000119322 0.000143338 0)
(-0.000203568 0.000186461 0)
(-0.000305487 0.000230186 0)
(-0.000425265 0.000274014 0)
(-0.000562925 0.000317546 0)
(-0.000718337 0.000360451 0)
(-0.000891245 0.000402465 0)
(-0.00108129 0.000443371 0)
(-0.00128803 0.000482991 0)
(-0.00151094 0.000521185 0)
(-0.00174946 0.000557836 0)
(-0.00200294 0.000592852 0)
(-0.00227073 0.00062616 0)
(-0.00255213 0.000657706 0)
(-0.00284641 0.000687441 0)
(-0.00315283 0.000715338 0)
(-0.00347061 0.000741371 0)
(-0.00379899 0.000765527 0)
(-0.00413719 0.000787796 0)
(-0.00448441 0.000808177 0)
(-0.00483986 0.000826676 0)
(-0.00520276 0.000843296 0)
(-0.00557232 0.000858053 0)
(-0.00594775 0.000870962 0)
(-0.00632827 0.000882041 0)
(-0.00671311 0.000891311 0)
(-0.0071015 0.000898797 0)
(-0.00749268 0.000904522 0)
(-0.00788592 0.000908515 0)
(-0.00828047 0.000910805 0)
(-0.00867561 0.000911421 0)
(-0.00907063 0.000910395 0)
(-0.00946483 0.000907761 0)
(-0.00985752 0.000903552 0)
(-0.010248 0.0008978 0)
(-0.0106357 0.000890541 0)
(-0.0110199 0.00088181 0)
(-0.0114 0.000871644 0)
(-0.0117754 0.000860079 0)
(-0.0121455 0.000847152 0)
(-0.0125097 0.000832902 0)
(-0.0128674 0.000817364 0)
(-0.0132181 0.000800579 0)
(-0.0135613 0.000782583 0)
(-0.0138964 0.000763416 0)
(-0.0142229 0.000743118 0)
(-0.0145404 0.000721727 0)
(-0.0148485 0.000699282 0)
(-0.0151465 0.000675823 0)
(-0.0154342 0.000651391 0)
(-0.015711 0.000626025 0)
(-0.0159767 0.000599766 0)
(-0.0162308 0.000572655 0)
(-0.016473 0.000544732 0)
(-0.0167028 0.000516038 0)
(-0.0169201 0.000486614 0)
(-0.0171244 0.000456502 0)
(-0.0173156 0.000425745 0)
(-0.0174933 0.000394384 0)
(-0.0176572 0.00036246 0)
(-0.0178072 0.000330018 0)
(-0.017943 0.000297099 0)
(-0.0180644 0.000263747 0)
(-0.0181712 0.000230004 0)
(-0.0182634 0.000195916 0)
(-0.0183407 0.000161525 0)
(-0.018403 0.000126876 0)
(-0.0184503 9.20147e-05 0)
(-0.0184824 5.69857e-05 0)
(-0.0184992 2.18342e-05 0)
(-0.0185008 -1.33919e-05 0)
(-0.0184872 -4.86463e-05 0)
(-0.0184582 -8.38829e-05 0)
(-0.018414 -0.000119054 0)
(-0.0183546 -0.000154111 0)
(-0.01828 -0.000189007 0)
(-0.0181904 -0.000223692 0)
(-0.0180857 -0.000258119 0)
(-0.0179662 -0.000292239 0)
(-0.017832 -0.000326001 0)
(-0.0176833 -0.000359358 0)
(-0.0175203 -0.000392258 0)
(-0.017343 -0.000424652 0)
(-0.0171519 -0.00045649 0)
(-0.0169472 -0.00048772 0)
(-0.016729 -0.000518293 0)
(-0.0164978 -0.000548157 0)
(-0.0162539 -0.000577262 0)
(-0.0159975 -0.000605557 0)
(-0.015729 -0.000632991 0)
(-0.0154489 -0.000659516 0)
(-0.0151576 -0.000685079 0)
(-0.0148554 -0.000709632 0)
(-0.0145428 -0.000733125 0)
(-0.0142203 -0.000755507 0)
(-0.0138883 -0.00077673 0)
(-0.0135475 -0.000796746 0)
(-0.0131983 -0.000815507 0)
(-0.0128412 -0.000832968 0)
(-0.0124769 -0.000849082 0)
(-0.0121059 -0.000863804 0)
(-0.0117289 -0.000877089 0)
(-0.0113464 -0.000888895 0)
(-0.0109592 -0.000899179 0)
(-0.0105678 -0.0009079 0)
(-0.010173 -0.00091502 0)
(-0.00977546 -0.000920501 0)
(-0.00937589 -0.000924308 0)
(-0.00897502 -0.000926407 0)
(-0.00857358 -0.000926764 0)
(-0.00817233 -0.000925349 0)
(-0.00777203 -0.000922133 0)
(-0.00737346 -0.00091709 0)
(-0.0069774 -0.000910197 0)
(-0.00658464 -0.000901433 0)
(-0.00619598 -0.000890782 0)
(-0.00581224 -0.000878231 0)
(-0.00543421 -0.000863769 0)
(-0.0050627 -0.000847387 0)
(-0.00469854 -0.000829083 0)
(-0.00434252 -0.000808856 0)
(-0.00399545 -0.000786712 0)
(-0.00365814 -0.000762664 0)
(-0.00333137 -0.000736729 0)
(-0.00301592 -0.000708933 0)
(-0.00271256 -0.000679309 0)
(-0.00242201 -0.000647901 0)
(-0.00214502 -0.00061476 0)
(-0.00188226 -0.000579951 0)
(-0.00163439 -0.000543549 0)
(-0.00140203 -0.000505649 0)
(-0.00118574 -0.000466363 0)
(-0.00098604 -0.000425826 0)
(-0.000803365 -0.0003842 0)
(-0.000638082 -0.00034168 0)
(-0.000490462 -0.0002985 0)
(-0.000360665 -0.000254942 0)
(-0.000248724 -0.000211348 0)
(-0.000154518 -0.000168129 0)
(-7.77463e-05 -0.000125787 0)
(-1.79008e-05 -8.49308e-05 0)
(2.57752e-05 -4.63078e-05 0)
(5.43254e-05 -1.08304e-05 0)
(6.91242e-05 2.03879e-05 0)
(7.1928e-05 4.59973e-05 0)
(6.49265e-05 6.4382e-05 0)
(5.07539e-05 7.36511e-05 0)
(3.25306e-05 7.16726e-05 0)
(1.46066e-05 5.61664e-05 0)
(3.19227e-06 2.47797e-05 0)
(2.78879e-06 -3.22602e-05 0)
(1.18206e-05 -6.88296e-05 0)
(2.43968e-05 -8.2901e-05 0)
(3.43858e-05 -7.88196e-05 0)
(3.73775e-05 -5.98693e-05 0)
(3.01592e-05 -2.89144e-05 0)
(1.0037e-05 1.15436e-05 0)
(-2.52004e-05 5.93679e-05 0)
(-7.73234e-05 0.000112754 0)
(-0.000147705 0.000170198 0)
(-0.000237365 0.000230454 0)
(-0.000347034 0.000292486 0)
(-0.000477168 0.00035545 0)
(-0.000627996 0.000418642 0)
(-0.000799559 0.000481485 0)
(-0.000991727 0.000543508 0)
(-0.00120423 0.000604319 0)
(-0.00143667 0.000663597 0)
(-0.00168856 0.000721079 0)
(-0.00195932 0.000776552 0)
(-0.0022483 0.000829837 0)
(-0.00255478 0.000880793 0)
(-0.00287801 0.000929306 0)
(-0.00321718 0.000975284 0)
(-0.00357145 0.00101866 0)
(-0.00393996 0.00105937 0)
(-0.00432183 0.00109739 0)
(-0.00471616 0.00113269 0)
(-0.00512202 0.00116524 0)
(-0.0055385 0.00119505 0)
(-0.00596468 0.00122211 0)
(-0.00639962 0.00124644 0)
(-0.00684239 0.00126804 0)
(-0.00729208 0.00128693 0)
(-0.00774776 0.00130315 0)
(-0.00820852 0.00131672 0)
(-0.00867346 0.00132767 0)
(-0.00914167 0.00133604 0)
(-0.00961228 0.00134186 0)
(-0.0100844 0.00134518 0)
(-0.0105572 0.00134604 0)
(-0.0110298 0.00134449 0)
(-0.0115014 0.00134056 0)
(-0.0119712 0.00133432 0)
(-0.0124384 0.0013258 0)
(-0.0129021 0.00131507 0)
(-0.0133617 0.00130216 0)
(-0.0138163 0.00128714 0)
(-0.0142653 0.00127006 0)
(-0.0147079 0.00125096 0)
(-0.0151435 0.00122991 0)
(-0.0155713 0.00120697 0)
(-0.0159907 0.00118218 0)
(-0.0164011 0.0011556 0)
(-0.0168019 0.00112729 0)
(-0.0171924 0.00109732 0)
(-0.0175721 0.00106572 0)
(-0.0179405 0.00103257 0)
(-0.0182969 0.000997926 0)
(-0.0186409 0.000961841 0)
(-0.018972 0.000924375 0)
(-0.0192896 0.000885589 0)
(-0.0195935 0.000845544 0)
(-0.019883 0.000804299 0)
(-0.0201578 0.000761914 0)
(-0.0204176 0.000718452 0)
(-0.0206619 0.000673973 0)
(-0.0208904 0.000628538 0)
(-0.0211028 0.000582213 0)
(-0.0212988 0.000535057 0)
(-0.021478 0.000487133 0)
(-0.0216403 0.000438507 0)
(-0.0217854 0.000389242 0)
(-0.0219131 0.0003394 0)
(-0.0220232 0.000289048 0)
(-0.0221155 0.000238252 0)
(-0.0221899 0.000187076 0)
(-0.0222463 0.000135588 0)
(-0.0222845 8.38543e-05 0)
(-0.0223046 3.19428e-05 0)
(-0.0223064 -2.00784e-05 0)
(-0.0222899 -7.21396e-05 0)
(-0.0222551 -0.000124171 0)
(-0.0222021 -0.000176104 0)
(-0.0221309 -0.000227867 0)
(-0.0220416 -0.000279389 0)
(-0.0219343 -0.000330598 0)
(-0.021809 -0.000381423 0)
(-0.021666 -0.000431791 0)
(-0.0215055 -0.00048163 0)
(-0.0213275 -0.000530865 0)
(-0.0211324 -0.000579425 0)
(-0.0209204 -0.000627234 0)
(-0.0206918 -0.000674219 0)
(-0.0204469 -0.000720306 0)
(-0.020186 -0.000765418 0)
(-0.0199095 -0.000809483 0)
(-0.0196178 -0.000852424 0)
(-0.0193112 -0.000894169 0)
(-0.0189902 -0.000934642 0)
(-0.0186553 -0.00097377 0)
(-0.0183069 -0.00101148 0)
(-0.0179456 -0.0010477 0)
(-0.0175719 -0.00108235 0)
(-0.0171863 -0.00111536 0)
(-0.0167895 -0.00114666 0)
(-0.016382 -0.00117618 0)
(-0.0159645 -0.00120385 0)
(-0.0155376 -0.0012296 0)
(-0.0151021 -0.00125337 0)
(-0.0146587 -0.00127509 0)
(-0.0142079 -0.00129469 0)
(-0.0137507 -0.00131211 0)
(-0.0132878 -0.00132729 0)
(-0.0128199 -0.00134016 0)
(-0.0123479 -0.00135069 0)
(-0.0118726 -0.0013588 0)
(-0.0113949 -0.00136445 0)
(-0.0109155 -0.00136759 0)
(-0.0104355 -0.00136817 0)
(-0.00995563 -0.00136614 0)
(-0.00947685 -0.00136147 0)
(-0.00900008 -0.00135413 0)
(-0.00852624 -0.00134407 0)
(-0.00805627 -0.00133126 0)
(-0.00759111 -0.0013157 0)
(-0.00713172 -0.00129735 0)
(-0.00667904 -0.0012762 0)
(-0.00623404 -0.00125225 0)
(-0.00579767 -0.00122549 0)
(-0.00537087 -0.00119593 0)
(-0.0049546 -0.00116358 0)
(-0.00454979 -0.00112846 0)
(-0.00415736 -0.0010906 0)
(-0.00377823 -0.00105004 0)
(-0.00341327 -0.00100684 0)
(-0.00306335 -0.00096106 0)
(-0.00272931 -0.000912784 0)
(-0.00241193 -0.000862113 0)
(-0.00211198 -0.000809165 0)
(-0.00183015 -0.000754084 0)
(-0.00156709 -0.00069704 0)
(-0.00132338 -0.000638236 0)
(-0.00109951 -0.000577916 0)
(-0.000895874 -0.000516369 0)
(-0.000712777 -0.00045394 0)
(-0.000550379 -0.00039104 0)
(-0.000408698 -0.000328161 0)
(-0.000287581 -0.000265891 0)
(-0.000186677 -0.000204938 0)
(-0.000105408 -0.000146151 0)
(-4.29351e-05 -9.05529e-05 0)
(1.88334e-06 -3.93725e-05 0)
(3.05265e-05 5.91567e-06 0)
(4.48582e-05 4.3554e-05 0)
(4.71764e-05 7.14664e-05 0)
(4.02289e-05 8.72339e-05 0)
(2.72698e-05 8.81032e-05 0)
(1.27534e-05 7.1e-05 0)
(2.88946e-06 3.23121e-05 0)
(2.22532e-06 -3.79589e-05 0)
(8.56306e-06 -7.8652e-05 0)
(1.55735e-05 -9.12121e-05 0)
(1.75625e-05 -8.11433e-05 0)
(1.02407e-05 -5.25318e-05 0)
(-9.63406e-06 -8.8798e-06 0)
(-4.47607e-05 4.67659e-05 0)
(-9.73807e-05 0.000111796 0)
(-0.000169296 0.000183987 0)
(-0.000261916 0.000261472 0)
(-0.000376309 0.000342664 0)
(-0.000513231 0.000426254 0)
(-0.000673176 0.000511136 0)
(-0.000856396 0.000596393 0)
(-0.00106293 0.000681259 0)
(-0.00129266 0.0007651 0)
(-0.00154528 0.000847385 0)
(-0.00182038 0.000927676 0)
(-0.00211741 0.00100561 0)
(-0.00243576 0.00108089 0)
(-0.00277469 0.00115326 0)
(-0.00313342 0.00122252 0)
(-0.00351112 0.00128851 0)
(-0.00390687 0.0013511 0)
(-0.00431976 0.00141018 0)
(-0.0047488 0.00146567 0)
(-0.005193 0.00151751 0)
(-0.00565136 0.00156565 0)
(-0.00612283 0.00161008 0)
(-0.00660637 0.00165077 0)
(-0.00710094 0.00168773 0)
(-0.00760547 0.00172095 0)
(-0.00811892 0.00175045 0)
(-0.00864023 0.00177627 0)
(-0.00916835 0.00179841 0)
(-0.00970223 0.00181694 0)
(-0.0102408 0.00183188 0)
(-0.0107832 0.00184328 0)
(-0.0113282 0.00185119 0)
(-0.0118749 0.00185566 0)
(-0.0124223 0.00185676 0)
(-0.0129695 0.00185454 0)
(-0.0135154 0.00184907 0)
(-0.0140592 0.00184041 0)
(-0.0145999 0.00182862 0)
(-0.0151366 0.00181378 0)
(-0.0156685 0.00179595 0)
(-0.0161947 0.00177521 0)
(-0.0167143 0.00175162 0)
(-0.0172265 0.00172527 0)
(-0.0177305 0.00169622 0)
(-0.0182255 0.00166456 0)
(-0.0187109 0.00163036 0)
(-0.0191857 0.0015937 0)
(-0.0196495 0.00155465 0)
(-0.0201013 0.00151329 0)
(-0.0205406 0.00146971 0)
(-0.0209668 0.00142398 0)
(-0.0213791 0.00137619 0)
(-0.0217771 0.00132641 0)
(-0.0221601 0.00127472 0)
(-0.0225276 0.00122122 0)
(-0.0228791 0.00116597 0)
(-0.023214 0.00110908 0)
(-0.0235319 0.00105061 0)
(-0.0238324 0.000990648 0)
(-0.024115 0.000929289 0)
(-0.0243792 0.000866612 0)
(-0.0246249 0.000802703 0)
(-0.0248515 0.000737651 0)
(-0.0250588 0.000671542 0)
(-0.0252464 0.000604462 0)
(-0.0254142 0.000536502 0)
(-0.0255618 0.000467749 0)
(-0.025689 0.000398294 0)
(-0.0257957 0.000328226 0)
(-0.0258816 0.000257638 0)
(-0.0259467 0.000186621 0)
(-0.0259908 0.000115268 0)
(-0.0260138 4.36718e-05 0)
(-0.0260158 -2.80721e-05 0)
(-0.0259966 -9.98693e-05 0)
(-0.0259562 -0.000171624 0)
(-0.0258948 -0.000243238 0)
(-0.0258123 -0.000314615 0)
(-0.0257088 -0.000385657 0)