/*--------------------------------*- C++ -*----------------------------------*\
  =========                 |
  \\      /  F ield         | OpenFOAM: The Open Source CFD Toolbox
   \\    /   O peration     | Website:  https://openfoam.org
    \\  /    A nd           | Version:  7
     \\/     M anipulation  |
\*---------------------------------------------------------------------------*/
FoamFile
{
    version     2.0;
    format      ascii;
    class       volScalarField;
    location    "0.1";
    object      p;
}
// * * * * * * * * * * * * * * * * * * * * * * * * * * * * * * * * * * * * * //

dimensions      [0 2 -2 0 0 0 0];

internalField   nonuniform List<scalar> 
25600
(
4.73805e-07
0.000267654
0.000523081
0.000615182
0.000507167
0.000224311
-0.000212283
-0.000781155
-0.00146205
-0.00223627
-0.0030874
-0.00399974
-0.0049592
-0.00595274
-0.00696868
-0.00799682
-0.00902713
-0.0100517
-0.0110634
-0.0120553
-0.0130203
-0.0139526
-0.014847
-0.0156992
-0.0165052
-0.0172615
-0.0179644
-0.0186107
-0.0191977
-0.0197228
-0.0201838
-0.0205788
-0.0209061
-0.0211644
-0.0213524
-0.0214691
-0.0215139
-0.0214862
-0.0213853
-0.021211
-0.020963
-0.0206416
-0.020247
-0.0197791
-0.0192384
-0.0186254
-0.0179411
-0.0171863
-0.0163617
-0.0154685
-0.014508
-0.0134815
-0.0123905
-0.0112361
-0.0100197
-0.00874268
-0.00740681
-0.00601389
-0.00456565
-0.00306373
-0.00150988
9.3741e-05
0.00174485
0.00344122
0.00518081
0.00696154
0.00878112
0.0106371
0.0125271
0.0144485
0.0163991
0.0183765
0.0203781
0.0224014
0.0244434
0.0265015
0.0285731
0.0306558
0.0327471
0.034844
0.0369434
0.0390424
0.0411385
0.0432292
0.0453122
0.0473846
0.0494432
0.0514851
0.0535074
0.0555078
0.0574838
0.0594328
0.0613518
0.0632379
0.0650882
0.0669003
0.0686718
0.0704005
0.0720837
0.0737187
0.075303
0.0768341
0.0783097
0.0797279
0.0810869
0.0823848
0.0836197
0.0847895
0.0858922
0.0869262
0.0878901
0.0887826
0.0896027
0.0903494
0.0910216
0.0916181
0.0921382
0.0925811
0.0929465
0.0932344
0.0934448
0.0935778
0.0936338
0.0936131
0.093516
0.0933433
0.0930959
0.0927754
0.0923833
0.0919216
0.0913926
0.0907986
0.0901419
0.0894254
0.0886524
0.0878265
0.0869518
0.0860329
0.0850745
0.084082
0.0830609
0.0820172
0.0809575
0.0798888
0.0788188
0.0777559
0.0767092
0.0756887
0.0747049
0.0737694
0.0728945
0.0720932
0.0713792
0.0707667
0.07027
0.0699019
0.0696717
0.0695814
0.0696199
0.0697328
5.39588e-05
0.000293676
0.000464173
0.000494526
0.000376012
0.000115551
-0.000275568
-0.000782639
-0.00139015
-0.00208318
-0.00284778
-0.00367087
-0.00453948
-0.00544215
-0.00636894
-0.00730943
-0.00825452
-0.00919657
-0.0101283
-0.0110433
-0.0119354
-0.0127988
-0.0136282
-0.0144191
-0.0151674
-0.0158695
-0.016522
-0.0171218
-0.017666
-0.018152
-0.0185777
-0.0189411
-0.0192406
-0.0194745
-0.0196417
-0.019741
-0.0197719
-0.0197337
-0.0196257
-0.0194474
-0.0191988
-0.0188798
-0.0184906
-0.0180312
-0.0175019
-0.0169032
-0.0162361
-0.0155012
-0.0146992
-0.0138311
-0.0128984
-0.0119022
-0.0108437
-0.00972405
-0.00854466
-0.00730694
-0.00601248
-0.00466295
-0.00326
-0.00180519
-0.000300254
0.00125266
0.00285131
0.00449365
0.00617777
0.00790167
0.00966306
0.0114595
0.0132887
0.0151483
0.0170362
0.01895
0.0208873
0.0228453
0.0248213
0.0268128
0.0288174
0.0308329
0.0328566
0.0348857
0.036917
0.0389478
0.0409758
0.0429987
0.0450143
0.0470195
0.0490111
0.0509864
0.0529427
0.0548779
0.0567897
0.0586753
0.0605317
0.0623561
0.0641459
0.0658988
0.0676126
0.069285
0.0709135
0.0724956
0.0740285
0.0755099
0.0769379
0.0783106
0.0796264
0.0808834
0.0820798
0.0832133
0.0842822
0.0852849
0.0862202
0.087087
0.0878843
0.0886112
0.0892665
0.0898493
0.0903588
0.0907943
0.0911556
0.0914427
0.0916559
0.0917952
0.0918611
0.0918538
0.0917738
0.0916217
0.0913988
0.0911064
0.0907462
0.0903204
0.0898311
0.0892804
0.0886709
0.0880053
0.0872868
0.0865191
0.0857062
0.0848526
0.0839629
0.0830423
0.0820962
0.0811303
0.0801511
0.079165
0.0781795
0.0772024
0.0762424
0.0753087
0.074411
0.0735597
0.0727657
0.0720403
0.071395
0.070841
0.0703895
0.0700495
0.0698264
0.0697202
0.0697328
0.0698458
0.000253672
0.000458634
0.000561748
0.000544022
0.000408474
0.000155708
-0.000209468
-0.000677104
-0.00123501
-0.00187106
-0.00257348
-0.00333056
-0.00413122
-0.00496503
-0.00582258
-0.0066952
-0.00757384
-0.00845067
-0.00931917
-0.010173
-0.0110063
-0.0118138
-0.0125905
-0.0133315
-0.0140329
-0.0146909
-0.0153023
-0.0158638
-0.0163729
-0.0168268
-0.0172233
-0.0175607
-0.017837
-0.0180507
-0.0182006
-0.0182856
-0.018305
-0.018258
-0.018144
-0.0179625
-0.0177133
-0.0173964
-0.0170117
-0.0165592
-0.0160395
-0.0154529
-0.0148002
-0.014082
-0.0132988
-0.012452
-0.0115426
-0.0105718
-0.00954068
-0.00845027
-0.00730195
-0.00609726
-0.00483773
-0.00352482
-0.00215997
-0.000744753
0.000718978
0.00222906
0.00378341
0.00538018
0.0070176
0.00869365
0.010406
0.0121522
0.01393
0.0157375
0.0175725
0.0194328
0.0213157
0.0232186
0.0251388
0.0270742
0.0290224
0.0309813
0.0329481
0.0349198
0.0368936
0.0388669
0.0408376
0.0428036
0.0447623
0.0467107
0.0486459
0.050565
0.0524659
0.0543463
0.056204
0.0580362
0.05984
0.0616125
0.0633515
0.0650546
0.0667199
0.0683451
0.0699278
0.0714653
0.072955
0.0743948
0.0757829
0.0771175
0.0783972
0.07962
0.080784
0.0818872
0.0829278
0.0839043
0.0848158
0.0856612
0.0864396
0.08715
0.0877913
0.0883625
0.088863
0.0892923
0.0896502
0.0899367
0.0901522
0.0902968
0.0903708
0.0903746
0.0903087
0.0901737
0.0899708
0.0897016
0.0893678
0.0889715
0.0885147
0.0879996
0.0874287
0.0868046
0.0861306
0.0854101
0.0846474
0.0838465
0.0830123
0.0821494
0.0812634
0.0803596
0.0794441
0.0785233
0.077604
0.0766938
0.0758007
0.0749333
0.0741006
0.0733122
0.0725778
0.0719072
0.0713104
0.0707971
0.0703764
0.0700562
0.0698408
0.0697322
0.0697451
0.0698845
0.000555549
0.000726609
0.000785576
0.000731314
0.000576426
0.000321411
-3.16488e-05
-0.000475343
-0.00100056
-0.00159688
-0.00225407
-0.00296233
-0.00371133
-0.00449184
-0.00529515
-0.00611321
-0.00693825
-0.00776251
-0.00857955
-0.00938324
-0.010168
-0.010929
-0.011661
-0.01236
-0.0130217
-0.0136423
-0.0142186
-0.0147477
-0.0152268
-0.0156532
-0.0160248
-0.0163397
-0.0165962
-0.0167925
-0.0169274
-0.0170001
-0.0170096
-0.016955
-0.0168358
-0.0166515
-0.016402
-0.0160869
-0.0157062
-0.01526
-0.0147487
-0.0141728
-0.0135328
-0.0128292
-0.0120627
-0.0112344
-0.0103456
-0.0093974
-0.00839041
-0.00732572
-0.00620485
-0.00502937
-0.00380064
-0.00251997
-0.0011887
0.000191525
0.00161879
0.003091
0.00460622
0.00616276
0.00775893
0.00939266
0.0110615
0.0127632
0.0144957
0.0162572
0.0180456
0.0198585
0.0216932
0.0235471
0.0254181
0.027304
0.0292025
0.0311113
0.0330277
0.0349487
0.0368716
0.0387942
0.0407144
0.0426301
0.0445386
0.0464369
0.0483221
0.0501918
0.0520438
0.0538761
0.0556862
0.0574713
0.0592286
0.0609554
0.0626496
0.064309
0.0659317
0.0675155
0.0690579
0.0705561
0.0720079
0.0734111
0.0747642
0.0760656
0.0773136
0.0785064
0.0796421
0.0807186
0.0817343
0.082688
0.0835787
0.0844054
0.0851673
0.0858632
0.0864922
0.0870533
0.0875459
0.0879697
0.0883245
0.0886105
0.0888279
0.0889769
0.0890579
0.0890712
0.0890172
0.0888967
0.0887111
0.0884617
0.0881505
0.0877794
0.0873503
0.0868655
0.0863273
0.0857384
0.0851019
0.0844214
0.0837007
0.0829441
0.0821561
0.0813413
0.0805048
0.079652
0.0787886
0.0779207
0.0770548
0.076198
0.0753577
0.074542
0.0737594
0.0730185
0.0723281
0.0716971
0.0711344
0.0706487
0.0702483
0.0699406
0.0697305
0.0696222
0.0696384
0.0697944
0.000940436
0.00108142
0.0011057
0.00102152
0.000847335
0.00058478
0.00023649
-0.000192296
-0.000693877
-0.00125998
-0.00188173
-0.00255009
-0.0032564
-0.00399183
-0.00474882
-0.00551969
-0.00629724
-0.00707476
-0.00784587
-0.00860469
-0.00934592
-0.0100646
-0.0107561
-0.0114163
-0.0120413
-0.0126273
-0.0131713
-0.0136702
-0.0141212
-0.0145218
-0.0148702
-0.0151641
-0.0154018
-0.0155817
-0.0157028
-0.0157639
-0.015764
-0.0157023
-0.0155782
-0.0153913
-0.0151415
-0.0148283
-0.0144514
-0.0140112
-0.0135081
-0.0129424
-0.0123146
-0.011625
-0.0108745
-0.0100642
-0.00919528
-0.00826851
-0.00728461
-0.00624473
-0.00515037
-0.00400301
-0.00280382
-0.00155402
-0.000255033
0.00109146
0.00248355
0.00391928
0.00539692
0.00691488
0.00847141
0.0100643
0.0116912
0.01335
0.015039
0.0167563
0.0184998
0.020267
0.0220552
0.0238621
0.0256857
0.0275241
0.0293748
0.0312354
0.0331031
0.0349752
0.0368494
0.0387233
0.0405951
0.0424624
0.0443225
0.0461726
0.0480099
0.0498321
0.0516373
0.0534233
0.0551876
0.0569275
0.0586402
0.0603232
0.0619745
0.0635921
0.0651741
0.0667182
0.0682219
0.0696826
0.071098
0.0724663
0.0737859
0.0750555
0.0762733
0.0774375
0.078546
0.079597
0.080589
0.0815209
0.0823917
0.0832006
0.0839466
0.0846287
0.0852458
0.0857972
0.0862822
0.0867007
0.0870525
0.0873378
0.0875569
0.08771
0.0877974
0.0878194
0.0877766
0.0876697
0.0875
0.0872692
0.0869789
0.0866312
0.0862279
0.085771
0.0852631
0.0847067
0.0841049
0.0834611
0.0827791
0.0820629
0.0813169
0.0805457
0.0797541
0.0789471
0.0781303
0.0773094
0.0764906
0.0756804
0.0748859
0.0741146
0.0733742
0.0726728
0.0720182
0.0714186
0.0708821
0.0704165
0.0700295
0.0697284
0.0695185
0.0694054
0.0694147
0.0695648
0.0014281
0.00152896
0.00151794
0.00140531
0.00121044
0.000936677
0.000586537
0.000165203
-0.000321298
-0.000865739
-0.00146035
-0.00209765
-0.00276953
-0.00346789
-0.00418582
-0.00491685
-0.00565376
-0.0063904
-0.00712097
-0.00784006
-0.00854252
-0.00922344
-0.00987855
-0.0105038
-0.0110953
-0.0116499
-0.0121641
-0.0126352
-0.0130604
-0.0134374
-0.0137641
-0.0140385
-0.0142588
-0.0144235
-0.0145316
-0.0145819
-0.0145733
-0.0145049
-0.0143764
-0.0141873
-0.0139372
-0.0136256
-0.0132525
-0.0128182
-0.012323
-0.011767
-0.0111507
-0.0104745
-0.00973948
-0.0089465
-0.0080965
-0.00719015
-0.00622827
-0.00521212
-0.00414319
-0.00302272
-0.00185172
-0.000631348
0.000636801
0.00195095
0.00330929
0.00471013
0.00615193
0.00763307
0.00915162
0.0107054
0.0122921
0.01391
0.0155574
0.0172325
0.018933
0.0206563
0.0224
0.024162
0.0259405
0.0277334
0.0295383
0.0313527
0.0331739
0.0349994
0.0368269
0.0386545
0.04048
0.042301
0.0441148
0.0459188
0.0477103
0.0494874
0.0512479
0.0529898
0.0547104
0.0564072
0.0580774
0.0597186
0.0613291
0.0629069
0.0644501
0.0659565
0.0674233
0.0688482
0.070229
0.0715641
0.0728521
0.0740915
0.0752806
0.0764174
0.0775001
0.0785268
0.0794963
0.0804075
0.0812595
0.0820514
0.0827823
0.0834511
0.0840569
0.0845989
0.0850767
0.08549
0.0858389
0.0861235
0.0863441
0.0865009
0.0865941
0.0866241
0.0865914
0.086497
0.0863421
0.0861283
0.0858574
0.0855311
0.0851514
0.0847203
0.08424
0.0837133
0.0831431
0.0825327
0.0818857
0.081206
0.0804978
0.0797656
0.079014
0.0782478
0.077472
0.0766922
0.0759142
0.0751441
0.0743886
0.0736545
0.0729491
0.0722795
0.0716531
0.0710772
0.0705592
0.0701065
0.0697261
0.069425
0.0692087
0.0690835
0.0690739
0.0691975
0.00201932
0.00206925
0.00201838
0.00187534
0.00165695
0.00136756
0.00101007
0.000589113
0.000110305
-0.000420152
-0.000995787
-0.00160989
-0.00225486
-0.00292395
-0.00361035
-0.00430808
-0.00501098
-0.00571302
-0.00640885
-0.0070934
-0.00776178
-0.00840952
-0.00903248
-0.00962667
-0.0101884
-0.0107145
-0.0112021
-0.011648
-0.0120497
-0.0124052
-0.0127122
-0.0129688
-0.0131732
-0.0133241
-0.0134203
-0.0134605
-0.0134439
-0.0133696
-0.0132372
-0.0130461
-0.0127957
-0.0124858
-0.0121164
-0.0116879
-0.0112002
-0.0106534
-0.0100479
-0.00938462
-0.00866429
-0.00788775
-0.00705564
-0.00616861
-0.00522763
-0.00423409
-0.00318932
-0.00209429
-0.000949915
0.000242543
0.00148133
0.00276467
0.00409099
0.00545884
0.00686673
0.00831288
0.00979526
0.0113118
0.0128604
0.0144396
0.0160477
0.0176827
0.0193422
0.0210239
0.0227253
0.0244449
0.0261806
0.0279304
0.0296919
0.0314624
0.0332394
0.0350207
0.0368042
0.0385879
0.0403695
0.0421465
0.0439165
0.0456768
0.0474252
0.0491595
0.0508779
0.0525779
0.0542572
0.0559131
0.0575431
0.059145
0.060717
0.0622573
0.0637639
0.0652345
0.0666665
0.0680576
0.0694059
0.0707097
0.0719679
0.0731788
0.0743408
0.0754518
0.0765101
0.0775139
0.0784622
0.0793539
0.0801882
0.0809641
0.0816807
0.0823369
0.0829319
0.0834651
0.0839359
0.0843443
0.0846903
0.0849741
0.0851959
0.0853559
0.0854543
0.0854914
0.085468
0.085385
0.0852435
0.0850451
0.0847917
0.0844849
0.0841265
0.0837185
0.0832633
0.0827632
0.0822214
0.0816408
0.0810251
0.0803778
0.079703
0.0790051
0.0782885
0.0775577
0.0768174
0.0760729
0.0753294
0.0745929
0.0738695
0.0731657
0.0724879
0.0718429
0.0712372
0.0706777
0.070171
0.0697239
0.0693431
0.0690351
0.0688055
0.0686604
0.068621
0.0687013
0.0027077
0.00269743
0.00260101
0.00242402
0.0021783
0.00186883
0.00149857
0.00107191
0.000594137
7.06527e-05
-0.000492936
-0.00109056
-0.00171582
-0.00236215
-0.00302365
-0.00369443
-0.00436915
-0.00504234
-0.0057088
-0.00636376
-0.00700273
-0.0076216
-0.00821625
-0.00878301
-0.00931844
-0.00981933
-0.0102828
-0.0107062
-0.011087
-0.011423
-0.0117121
-0.0119524
-0.0121425
-0.0122809
-0.0123663
-0.0123974
-0.0123734
-0.0122939
-0.0121581
-0.0119652
-0.0117147
-0.0114065
-0.0110409
-0.0106179
-0.0101372
-0.00959916
-0.00900421
-0.00835322
-0.00764692
-0.00688587
-0.00607061
-0.00520194
-0.00428096
-0.00330896
-0.00228702
-0.00121596
-9.67672e-05
0.00106911
0.00227989
0.00353396
0.00483003
0.00616673
0.00754247
0.00895533
0.0104033
0.0118845
0.0133971
0.0149397
0.0165105
0.0181075
0.0197281
0.0213702
0.0230317
0.0247111
0.0264064
0.0281154
0.0298356
0.0315644
0.0332997
0.0350393
0.0367812
0.0385233
0.0402633
0.0419987
0.0437271
0.0454461
0.0471537
0.0488478
0.0505262
0.0521868
0.053827
0.0554443
0.0570363
0.0586011
0.0601369
0.0616418
0.0631139
0.0645508
0.0659499
0.0673092
0.0686267
0.0699012
0.0711313
0.0723154
0.0734517
0.0745384
0.0755736
0.0765559
0.0774842
0.0783576
0.0791752
0.079936
0.080639
0.0812833
0.0818682
0.0823929
0.0828571
0.0832608
0.0836039
0.0838868
0.0841095
0.0842723
0.0843753
0.0844189
0.0844038
0.0843309
0.0842015
0.0840172
0.0837794
0.08349
0.0831508
0.0827636
0.0823307
0.0818545
0.0813378
0.0807837
0.0801955
0.0795768
0.0789313
0.0782633
0.0775769
0.0768765
0.0761665
0.0754516
0.074737
0.0740281
0.0733306
0.0726505
0.0719937
0.0713666
0.070775
0.0702251
0.0697231
0.069275
0.0688871
0.0685656
0.0683157
0.0681434
0.0680645
0.0680885
0.0034839
0.00340617
0.00325913
0.00304371
0.00276653
0.00243231
0.00204447
0.00160679
0.00112382
0.000601071
4.34665e-05
-0.000543801
-0.0011554
-0.00178498
-0.00242725
-0.00307691
-0.00372883
-0.00437816
-0.0050202
-0.00565027
-0.00626416
-0.00685811
-0.00742834
-0.00797118
-0.0084834
-0.00896203
-0.00940431
-0.00980769
-0.0101698
-0.0104883
-0.0107612
-0.0109871
-0.0111643
-0.0112914
-0.011367
-0.01139
-0.0113597
-0.0112755
-0.0111366
-0.0109421
-0.0106918
-0.0103857
-0.0100238
-0.00960592
-0.00913197
-0.00860225
-0.00801749
-0.00737837
-0.00668534
-0.00593882
-0.0051395
-0.00428838
-0.00338652
-0.00243493
-0.00143449
-0.000386044
0.000709235
0.00184977
0.00303391
0.00426031
0.00552783
0.00683507
0.00818027
0.00956145
0.0109768
0.0124245
0.0139032
0.0154112
0.0169467
0.0185075
0.0200912
0.0216959
0.0233198
0.0249612
0.0266182
0.0282885
0.0299696
0.031659
0.0333548
0.035055
0.0367576
0.0384604
0.040161
0.041857
0.0435461
0.0452263
0.0468954
0.0485515
0.0501922
0.0518155
0.0534187
0.0549996
0.0565559
0.0580858
0.0595874
0.061059
0.0624986
0.0639036
0.0652718
0.066601
0.0678898
0.0691366
0.0703402
0.0714991
0.0726113
0.073675
0.0746886
0.0756506
0.0765602
0.0774163
0.0782181
0.0789646
0.0796549
0.080288
0.0808631
0.0813798
0.0818378
0.0822369
0.0825773
0.0828591
0.0830825
0.0832476
0.0833546
0.0834039
0.0833961
0.0833323
0.0832138
0.0830419
0.0828183
0.0825444
0.0822221
0.0818534
0.0814403
0.0809852
0.0804907
0.0799598
0.0793957
0.0788018
0.0781817
0.0775394
0.0768789
0.0762041
0.0755194
0.0748291
0.074138
0.0734511
0.0727738
0.0721115
0.0714698
0.0708543
0.0702706
0.0697242
0.0692208
0.0687657
0.0683648
0.0680235
0.067747
0.0675409
0.0674148
0.0673727
0.00433818
0.00418702
0.00398467
0.00372692
0.00341398
0.00305066
0.00264073
0.00218718
0.00169405
0.0011664
0.000609076
2.64537e-05
-0.000576639
-0.00119504
-0.00182326
-0.00245678
-0.00309102
-0.00372134
-0.00434325
-0.00495261
-0.00554568
-0.00611865
-0.00666788
-0.00719006
-0.00768223
-0.00814154
-0.00856528
-0.00895098
-0.00929643
-0.00959956
-0.00985845
-0.0100715
-0.0102371
-0.010354
-0.010421
-0.010437
-0.0104012
-0.0103129
-0.0101711
-0.00997544
-0.00972571
-0.00942184
-0.00906353
-0.00865055
-0.00818303
-0.00766146
-0.00708653
-0.00645867
-0.00577811
-0.00504532
-0.00426124
-0.00342689
-0.00254315
-0.00161075
-0.000630531
0.0003965
0.00146899
0.00258541
0.00374437
0.00494472
0.00618532
0.00746464
0.0087808
0.0101319
0.0115164
0.0129327
0.0143793
0.0158547
0.0173566
0.018883
0.0204319
0.0220014
0.0235897
0.0251954
0.0268162
0.0284498
0.0300938
0.0317461
0.0334048
0.035068
0.0367335
0.038399
0.0400623
0.0417212
0.0433734
0.045017
0.0466499
0.04827
0.0498752
0.0514632
0.0530317
0.0545784
0.0561011
0.0575981
0.0590676
0.0605079
0.0619167
0.0632918
0.0646308
0.065932
0.0671937
0.0684146
0.0695934
0.0707284
0.0718179
0.07286
0.0738533
0.0747964
0.0756884
0.0765283
0.0773153
0.0780484
0.0787266
0.0793491
0.0799151
0.0804242
0.0808762
0.0812709
0.0816086
0.0818892
0.0821129
0.08228
0.0823904
0.0824446
0.0824434
0.0823877
0.0822787
0.0821179
0.0819066
0.0816465
0.0813391
0.0809866
0.0805908
0.0801542
0.0796791
0.0791683
0.0786249
0.0780523
0.0774539
0.0768334
0.0761945
0.075541
0.0748769
0.0742064
0.0735337
0.0728637
0.0722013
0.0715515
0.0709193
0.0703099
0.0697284
0.06918
0.0686695
0.0682021
0.0677826
0.0674161
0.0671075
0.0668619
0.0666823
0.0665672
0.00526012
0.00503113
0.00476944
0.00446592
0.00411331
0.00371699
0.00328051
0.00280667
0.00229907
0.00176195
0.00119971
0.000616348
1.67675e-05
-0.000594911
-0.00121407
-0.00183638
-0.00245736
-0.00307283
-0.00367882
-0.00427167
-0.00484765
-0.00540302
-0.00593457
-0.0064394
-0.00691455
-0.00735718
-0.0077648
-0.00813515
-0.00846615
-0.00875583
-0.00900238
-0.00920417
-0.00935968
-0.00946764
-0.00952703
-0.00953694
-0.00949635
-0.00940439
-0.0092604
-0.00906406
-0.00881519
-0.00851347
-0.00815857
-0.00775039
-0.00728924
-0.00677564
-0.00621005
-0.00559273
-0.00492389
-0.00420424
-0.00343477
-0.00261635
-0.00174961
-0.000835192
0.000125942
0.00113259
0.00218339
0.00327703
0.00441233
0.0055882
0.00680337
0.00805616
0.00934477
0.0106675
0.0120229
0.0134097
0.0148261
0.0162705
0.0177407
0.0192347
0.0207508
0.0222871
0.023842
0.0254138
0.0270004
0.0285994
0.0302086
0.0318259
0.0334497
0.0350779
0.0367084
0.0383389
0.039967
0.0415909
0.0432084
0.0448177
0.0464165
0.0480028
0.0495745
0.0511294
0.0526652
0.0541797
0.0556709
0.057137
0.0585764
0.0599872
0.0613672
0.0627141
0.0640259
0.0653007
0.066537
0.0677337
0.0688891
0.0700019
0.0710701
0.0720921
0.0730664
0.0739917
0.0748673
0.075692
0.0764651
0.0771855
0.0778524
0.078465
0.0790224
0.0795244
0.0799706
0.0803611
0.080696
0.0809753
0.0811992
0.0813677
0.081481
0.0815395
0.0815439
0.0814952
0.0813946
0.0812434
0.081043
0.0807948
0.0805006
0.080162
0.0797813
0.0793605
0.0789021
0.0784085
0.0778827
0.077328
0.0767477
0.0761453
0.0755242
0.0748879
0.0742402
0.0735848
0.072926
0.0722681
0.0716156
0.0709733
0.0703456
0.0697373
0.0691529
0.0685973
0.0680748
0.06759
0.0671472
0.0667506
0.0664052
0.0661155
0.0658777
0.0656845
0.00623977
0.00592956
0.00560558
0.00525294
0.00485763
0.00442436
0.00395738
0.00345942
0.00293322
0.00238239
0.00181081
0.00122268
0.000621715
1.20807e-05
-0.000602352
-0.0012175
-0.00182935
-0.00243416
-0.00302827
-0.00360817
-0.00417036
-0.00471153
-0.00522873
-0.00571911
-0.00617988
-0.00660844
-0.00700241
-0.00735967
-0.00767823
-0.00795628
-0.00819212
-0.00838412
-0.00853085
-0.00863118
-0.00868416
-0.00868875
-0.00864392
-0.00854894
-0.00840335
-0.0082068
-0.00795889
-0.00765926
-0.0073077
-0.00690433
-0.00644949
-0.00594354
-0.00538672
-0.00477927
-0.00412163
-0.00341458
-0.002659
-0.00185553
-0.00100468
-0.000107188
0.000835829
0.0018231
0.00285342
0.00392569
0.00503881
0.00619161
0.0073827
0.00861036
0.00987295
0.011169
0.0124972
0.0138561
0.0152441
0.0166592
0.0180994
0.019563
0.0210482
0.0225534
0.0240769
0.0256168
0.027171
0.0287374
0.0303139
0.0318985
0.0334894
0.0350847
0.0366822
0.0382796
0.0398748
0.0414659
0.0430508
0.0446278
0.0461946
0.0477492
0.0492894
0.0508132
0.0523183
0.0538026
0.0552643
0.0567016
0.0581128
0.0594959
0.0608488
0.0621694
0.0634557
0.0647059
0.0659186
0.0670925
0.0682261
0.069318
0.0703664
0.0713695
0.0723261
0.073235
0.0740952
0.0749057
0.0756658
0.0763745
0.0770309
0.0776341
0.0781834
0.0786786
0.0791193
0.0795058
0.0798379
0.0801159
0.0803396
0.0805091
0.0806247
0.0806867
0.080696
0.0806534
0.0805601
0.0804171
0.080226
0.0799882
0.0797052
0.0793787
0.0790108
0.0786034
0.078159
0.0776798
0.0771688
0.0766289
0.0760633
0.0754755
0.0748684
0.0742455
0.0736101
0.0729659
0.0723167
0.0716664
0.0710194
0.0703799
0.0697521
0.0691402
0.0685485
0.0679811
0.0674421
0.0669356
0.0664651
0.0660344
0.0656482
0.0653107
0.0650112
0.0647367
0.00726747
0.00687408
0.00648528
0.00608087
0.00563981
0.00516671
0.00466601
0.00413992
0.0035912
0.00302306
0.00243854
0.00184142
0.00123503
0.000623381
9.73008e-06
-0.000602244
-0.00120883
-0.00180666
-0.00239246
-0.00296286
-0.00351455
-0.00404467
-0.00455048
-0.00502919
-0.00547815
-0.00589502
-0.00627766
-0.00662399
-0.00693211
-0.00720028
-0.0074269
-0.00761053
-0.00774988
-0.00784382
-0.00789132
-0.0078913
-0.00784292
-0.00774564
-0.007599
-0.00740247
-0.00715561
-0.00685812
-0.00651001
-0.00611147
-0.00566272
-0.00516396
-0.00461538
-0.00401735
-0.00337046
-0.0026754
-0.00193285
-0.00114332
-0.000307372
0.000574094
0.00149992
0.00246892
0.00348006
0.00453234
0.00562464
0.00675565
0.00792395
0.00912795
0.0103662
0.0116373
0.0129399
0.0142727
0.0156338
0.0170213
0.0184333
0.0198684
0.0213247
0.0228007
0.0242945
0.0258044
0.0273283
0.0288641
0.0304099
0.0319637
0.0335238
0.0350882
0.0366547
0.0382211
0.0397854
0.0413458
0.0429003
0.0444469
0.0459837
0.0475085
0.0490193
0.050514
0.0519904
0.0534466
0.0548807
0.056291
0.0576757
0.0590329
0.0603607
0.0616567
0.0629192
0.0641465
0.0653371
0.0664898
0.0676031
0.0686756
0.0697055
0.0706912
0.0716313
0.0725248
0.0733707
0.074168
0.0749161
0.0756138
0.0762603
0.0768548
0.0773965
0.0778853
0.0783208
0.0787033
0.0790328
0.0793092
0.0795325
0.0797027
0.0798201
0.079885
0.0798984
0.0798609
0.0797737
0.0796378
0.0794546
0.0792255
0.078952
0.0786357
0.0782785
0.0778823
0.0774493
0.076982
0.0764829
0.0759549
0.0754011
0.0748245
0.074228
0.0736148
0.0729881
0.0723511
0.0717076
0.071061
0.0704153
0.0697745
0.0691423
0.0685228
0.0679195
0.0673363
0.0667769
0.0662447
0.065743
0.0652747
0.0648443
0.0644562
0.0640924
0.0637345
0.00833442
0.00785635
0.00740078
0.00694253
0.00645351
0.00593796
0.00540047
0.00484327
0.00426869
0.00367948
0.00307861
0.0024689
0.00185374
0.00123614
0.000619595
7.37982e-06
-0.000597487
-0.00119192
-0.0017727
-0.00233662
-0.0028809
-0.00340303
-0.00390026
-0.00436982
-0.00480934
-0.00521685
-0.00559035
-0.00592778
-0.00622726
-0.00648719
-0.00670616
-0.00688287
-0.00701609
-0.00710466
-0.00714753
-0.00714374
-0.00709263
-0.00699368
-0.00684633
-0.00665002
-0.00640436
-0.00610922
-0.00576466
-0.00537084
-0.00492786
-0.00443587
-0.00389515
-0.00330618
-0.00266952
-0.00198572
-0.00125531
-0.00047883
0.000343053
0.00120937
0.002119
0.00307092
0.00406417
0.00509774
0.00617044
0.00728091
0.00842778
0.00960963
0.0108251
0.0120728
0.0133515
0.0146597
0.0159955
0.0173572
0.0187429
0.0201512
0.0215805
0.0230291
0.0244951
0.0259769
0.0274724
0.0289796
0.0304966
0.0320216
0.0335528
0.0350882
0.0366256
0.0381631
0.0396986
0.0412303
0.0427563
0.0442746
0.0457833
0.0472804
0.0487637
0.0502311
0.0516808
0.0531107
0.0545191
0.0559042
0.0572643
0.0585975
0.0599018
0.061175
0.0624154
0.0636213
0.0647914
0.0659245
0.067019
0.0680734
0.0690862
0.0700557
0.0709806
0.0718598
0.0726924
0.0734776
0.0742145
0.074902
0.0755394
0.0761257
0.0766603
0.077143
0.0775737
0.0779524
0.0782791
0.0785539
0.0787765
0.0789471
0.0790658
0.0791331
0.0791497
0.0791165
0.0790343
0.0789043
0.0787277
0.0785058
0.0782402
0.0779323
0.0775838
0.0771966
0.0767728
0.0763148
0.0758251
0.0753063
0.0747614
0.074193
0.0736039
0.0729971
0.0723755
0.0717423
0.0711007
0.0704542
0.0698062
0.0691602
0.0685199
0.0678888
0.0672703
0.0666677
0.0660843
0.0655231
0.0649869
0.0644781
0.0640011
0.06356
0.0631303
0.0626877
0.00943208
0.00886795
0.00834478
0.00783091
0.0072917
0.00673179
0.00615526
0.00556415
0.00496074
0.00434756
0.00372709
0.0031015
0.00247404
0.0018475
0.00122489
0.000608955
2.44071e-06
-0.000591637
-0.00117023
-0.00173064
-0.00227054
-0.00278739
-0.00327845
-0.00374124
-0.00417376
-0.00457417
-0.00494049
-0.00527074
-0.00556327
-0.00581665
-0.00602953
-0.00620065
-0.00632882
-0.00641296
-0.0064521
-0.00644544
-0.00639231
-0.00629216
-0.00614441
-0.00594858
-0.00570438
-0.00541176
-0.00507076
-0.00468148
-0.00424399
-0.00375847
-0.00322531
-0.00264496
-0.0020179
-0.0013446
-0.000625547
0.000138649
0.000947259
0.00179935
0.00269388
0.00362987
0.00460641
0.00562245
0.00667673
0.00776796
0.00889481
0.010056
0.0112502
0.0124761
0.0137324
0.0150175
0.0163297
0.0176672
0.0190285
0.0204118
0.0218158
0.0232387
0.0246788
0.0261343
0.0276032
0.0290837
0.0305739
0.032072
0.0335762
0.0350845
0.0365949
0.0381054
0.0396141
0.041119
0.0426184
0.0441103
0.0455929
0.0470641
0.0485218
0.049964
0.0513888
0.0527943
0.0541788
0.0555406
0.0568778
0.0581887
0.0594712
0.0607233
0.0619432
0.0631294
0.0642806
0.0653955
0.0664726
0.0675105
0.0685074
0.069462
0.0703728
0.0712388
0.0720592
0.0728331
0.0735597
0.0742379
0.0748667
0.0754454
0.0759734
0.0764504
0.0768765
0.0772516
0.0775757
0.0778487
0.0780705
0.0782411
0.0783607
0.0784297
0.0784489
0.078419
0.078341
0.0782158
0.0780445
0.0778284
0.077569
0.0772678
0.0769262
0.0765461
0.0761294
0.0756784
0.0751956
0.0746834
0.0741446
0.0735816
0.072997
0.0723935
0.0717739
0.0711411
0.0704982
0.0698483
0.0691946
0.0685401
0.0678882
0.0672422
0.0666052
0.06598
0.0653695
0.0647764
0.064203
0.0636513
0.0631256
0.0626299
0.0621331
0.0616053
0.0105524
0.00990197
0.00930978
0.00873933
0.00814852
0.00754197
0.00692449
0.00629751
0.00566285
0.00502298
0.00437977
0.00373569
0.00309302
0.00245461
0.00182281
0.00120003
0.000589053
-7.32382e-06
-0.000586575
-0.00114645
-0.00168461
-0.00219845
-0.00268556
-0.00314399
-0.00357185
-0.00396717
-0.00432805
-0.00465281
-0.00494006
-0.00518847
-0.00539666
-0.00556339
-0.00568756
-0.00576822
-0.00580456
-0.00579579
-0.00574124
-0.00564033
-0.00549256
-0.00529752
-0.00505501
-0.00476501
-0.00442753
-0.00404263
-0.00361041
-0.00313112
-0.00260516
-0.00203294
-0.00141486
-0.000751373
-4.29857e-05
0.000709683
0.00150588
0.0023447
0.00322517
0.00414632
0.00510725
0.00610688
0.00714397
0.00821726
0.0093255
0.0104674
0.0116418
0.0128474
0.0140828
0.0153464
0.0166366
0.0179517
0.01929
0.0206501
0.0220305
0.0234296
0.0248455
0.0262765
0.0277208
0.0291764
0.0306417
0.0321147
0.0335938
0.035077
0.0365623
0.0380477
0.0395313
0.0410114
0.0424861
0.0439537
0.0454121
0.0468593
0.0482933
0.049712
0.0511138
0.0524967
0.0538591
0.0551994
0.0565156
0.0578058
0.0590682
0.0603008
0.0615019
0.06267
0.0638037
0.0649019
0.0659631
0.0669857
0.0679681
0.0689089
0.0698068
0.0706607
0.0714699
0.0722335
0.0729506
0.0736201
0.0742412
0.0748128
0.0753345
0.0758063
0.076228
0.0765997
0.0769213
0.0771925
0.0774133
0.0775836
0.0777037
0.077774
0.077795
0.0777677
0.0776928
0.0775713
0.0774042
0.0771927
0.0769381
0.0766418
0.0763054
0.0759304
0.0755189
0.0750729
0.0745947
0.0740867
0.0735514
0.0729911
0.0724082
0.0718053
0.0711848
0.0705495
0.0699022
0.0692458
0.0685832
0.0679172
0.0672508
0.0665868
0.0659282
0.0652776
0.0646374
0.0640099
0.0633969
0.0628003
0.0622243
0.0616729
0.0611084
0.0604956
0.0116885
0.0109517
0.0102898
0.00966147
0.00901799
0.00836348
0.00770314
0.00703826
0.00637035
0.00570143
0.00503317
0.00436793
0.00370758
0.00305445
0.00241063
0.00177848
0.00116059
0.000559246
-2.3483e-05
-0.000585408
-0.00112403
-0.00163699
-0.00212246
-0.00257877
-0.00300394
-0.00339596
-0.00375315
-0.00407415
-0.0043577
-0.00460251
-0.00480724
-0.00497071
-0.00509195
-0.00517011
-0.00520449
-0.00519429
-0.00513883
-0.00503764
-0.00489024
-0.00469629
-0.00445565
-0.00416833
-0.00383435
-0.00345371
-0.00302657
-0.00255322
-0.00203407
-0.0014695
-0.000859836
-0.000205532
0.000492886
0.0012348
0.00201944
0.00284592
0.00371331
0.00462066
0.00556704
0.00655141
0.00757254
0.00862916
0.0097201
0.0108442
0.0120002
0.0131869
0.0144028
0.0156466
0.0169163
0.0182105
0.0195276
0.0208662
0.0222248
0.0236017
0.0249952
0.0264035
0.0278249
0.0292575
0.0306996
0.0321494
0.0336053
0.0350652
0.0365273
0.0379895
0.0394501
0.0409072
0.0423592
0.0438042
0.0452403
0.0466654
0.0480774
0.0494746
0.0508551
0.0522173
0.0535596
0.05488
0.0561768
0.0574482
0.0586921
0.0599068
0.0610906
0.0622421
0.06336
0.0644429
0.0654895
0.0664982
0.0674674
0.0683956
0.0692816
0.0701245
0.0709235
0.0716777
0.0723861
0.0730478
0.0736616
0.0742267
0.0747428
0.0752096
0.0756274
0.0759959
0.076315
0.0765844
0.076804
0.0769738
0.0770939
0.0771649
0.0771873
0.0771617
0.0770891
0.0769703
0.0768063
0.0765982
0.076347
0.0760542
0.0757212
0.0753496
0.0749413
0.0744983
0.0740227
0.0735168
0.0729826
0.0724226
0.0718389
0.0712338
0.0706098
0.0699693
0.0693149
0.0686492
0.0679748
0.0672945
0.0666107
0.0659261
0.0652434
0.0645649
0.0638926
0.0632286
0.0625743
0.0619311
0.0613036
0.0606957
0.0600633
0.0593659
0.0128334
0.0120102
0.0112787
0.0105918
0.00989449
0.00919094
0.00848638
0.00778185
0.00707879
0.00637878
0.00568365
0.00499485
0.00431439
0.00364407
0.0029859
0.00234215
0.0017149
0.00110601
0.0005174
-4.86202e-05
-0.000589728
-0.00110411
-0.00159022
-0.00204631
-0.00247042
-0.00286078
-0.00321603
-0.00353493
-0.00381626
-0.00405874
-0.00426113
-0.00442241
-0.00454174
-0.00461836
-0.00465153
-0.00464051
-0.00458469
-0.00448364
-0.00433696
-0.00414438
-0.00390581
-0.00362126
-0.00329073
-0.00291422
-0.00249194
-0.00202425
-0.00151155
-0.00095415
-0.000352378
0.000293365
0.00098253
0.00171445
0.00248835
0.00330337
0.0041586
0.00505317
0.00598611
0.00695634
0.00796267
0.00900386
0.0100788