/*--------------------------------*- C++ -*----------------------------------*\
  =========                 |
  \\      /  F ield         | OpenFOAM: The Open Source CFD Toolbox
   \\    /   O peration     | Website:  https://openfoam.org
    \\  /    A nd           | Version:  7
     \\/     M anipulation  |
\*---------------------------------------------------------------------------*/
FoamFile
{
    version     2.0;
    format      ascii;
    class       surfaceScalarField;
    location    "0.1";
    object      phi;
}
// * * * * * * * * * * * * * * * * * * * * * * * * * * * * * * * * * * * * * //

dimensions      [0 3 -1 0 0 0 0];

internalField   nonuniform List<scalar> 
50880
(
5.52907e-12
-5.59668e-12
3.30371e-11
-2.75142e-11
7.98241e-11
-4.67879e-11
1.3229e-10
-5.24673e-11
1.8271e-10
-5.04146e-11
2.25645e-10
-4.29305e-11
2.57396e-10
-3.1753e-11
2.75574e-10
-1.81769e-11
2.78626e-10
-3.0489e-12
2.65628e-10
1.29999e-11
2.36024e-10
2.95985e-11
1.89619e-10
4.64033e-11
1.26467e-10
6.31555e-11
4.67543e-11
7.97074e-11
-4.91765e-11
9.5938e-11
-1.60883e-10
1.11699e-10
-2.87834e-10
1.26955e-10
-4.29497e-10
1.41663e-10
-5.8527e-10
1.55781e-10
-7.54554e-10
1.69284e-10
-9.36681e-10
1.8213e-10
-1.13099e-09
1.94304e-10
-1.33681e-09
2.05819e-10
-1.55347e-09
2.16666e-10
-1.7803e-09
2.26831e-10
-2.01662e-09
2.36322e-10
-2.26177e-09
2.45148e-10
-2.51507e-09
2.53299e-10
-2.77585e-09
2.60782e-10
-3.04346e-09
2.67612e-10
-3.31725e-09
2.7379e-10
-3.59657e-09
2.79316e-10
-3.88077e-09
2.84203e-10
-4.16924e-09
2.88461e-10
-4.46134e-09
2.92101e-10
-4.75648e-09
2.95138e-10
-5.05405e-09
2.97572e-10
-5.35347e-09
2.9942e-10
-5.65417e-09
3.00694e-10
-5.95557e-09
3.01403e-10
-6.25713e-09
3.01557e-10
-6.55831e-09
3.01174e-10
-6.85858e-09
3.00268e-10
-7.15742e-09
2.98842e-10
-7.45431e-09
2.96897e-10
-7.74875e-09
2.94443e-10
-8.04025e-09
2.91503e-10
-8.32835e-09
2.88094e-10
-8.61257e-09
2.84221e-10
-8.89246e-09
2.79897e-10
-9.16761e-09
2.75146e-10
-9.4376e-09
2.69984e-10
-9.70202e-09
2.64421e-10
-9.96049e-09
2.58467e-10
-1.02126e-08
2.52137e-10
-1.04581e-08
2.45435e-10
-1.06964e-08
2.38369e-10
-1.09274e-08
2.30958e-10
-1.11506e-08
2.23221e-10
-1.13658e-08
2.15164e-10
-1.15726e-08
2.06788e-10
-1.17707e-08
1.98109e-10
-1.19598e-08
1.89151e-10
-1.21397e-08
1.7993e-10
-1.23102e-08
1.70458e-10
-1.24709e-08
1.60742e-10
-1.26217e-08
1.50799e-10
-1.27624e-08
1.40645e-10
-1.28927e-08
1.30291e-10
-1.30124e-08
1.19751e-10
-1.31215e-08
1.09038e-10
-1.32196e-08
9.81691e-11
-1.33068e-08
8.71574e-11
-1.33828e-08
7.60161e-11
-1.34476e-08
6.47625e-11
-1.3501e-08
5.34157e-11
-1.3543e-08
4.1987e-11
-1.35734e-08
3.04856e-11
-1.35924e-08
1.8922e-11
-1.35997e-08
7.31215e-12
-1.35954e-08
-4.31851e-12
-1.35794e-08
-1.59469e-11
-1.35519e-08
-2.75605e-11
-1.35127e-08
-3.91515e-11
-1.3462e-08
-5.07127e-11
-1.33998e-08
-6.22304e-11
-1.33261e-08
-7.36817e-11
-1.3241e-08
-8.50457e-11
-1.31447e-08
-9.63093e-11
-1.30373e-08
-1.07461e-10
-1.29188e-08
-1.18488e-10
-1.27894e-08
-1.29374e-10
-1.26493e-08
-1.40099e-10
-1.24987e-08
-1.50641e-10
-1.23377e-08
-1.60984e-10
-1.21666e-08
-1.71111e-10
-1.19856e-08
-1.81009e-10
-1.17949e-08
-1.90665e-10
-1.15948e-08
-2.0006e-10
-1.13857e-08
-2.09174e-10
-1.11677e-08
-2.17986e-10
-1.09412e-08
-2.26475e-10
-1.07066e-08
-2.34625e-10
-1.04642e-08
-2.42421e-10
-1.02143e-08
-2.49853e-10
-9.9574e-09
-2.56907e-10
-9.69383e-09
-2.63568e-10
-9.42401e-09
-2.69817e-10
-9.14837e-09
-2.75637e-10
-8.86736e-09
-2.81009e-10
-8.58144e-09
-2.85921e-10
-8.29108e-09
-2.90359e-10
-7.99678e-09
-2.94307e-10
-7.69902e-09
-2.97751e-10
-7.39835e-09
-3.00676e-10
-7.09528e-09
-3.03065e-10
-6.79038e-09
-3.04903e-10
-6.4842e-09
-3.0618e-10
-6.17731e-09
-3.06887e-10
-5.8703e-09
-3.07012e-10
-5.56376e-09
-3.06544e-10
-5.25828e-09
-3.05474e-10
-4.95449e-09
-3.03793e-10
-4.65301e-09
-3.01489e-10
-4.35445e-09
-2.98551e-10
-4.05949e-09
-2.94968e-10
-3.76876e-09
-2.9073e-10
-3.48293e-09
-2.8583e-10
-3.20266e-09
-2.80265e-10
-2.92863e-09
-2.74036e-10
-2.66148e-09
-2.67144e-10
-2.4019e-09
-2.59583e-10
-2.15055e-09
-2.5135e-10
-1.9081e-09
-2.42447e-10
-1.67523e-09
-2.32878e-10
-1.45258e-09
-2.2265e-10
-1.24081e-09
-2.11771e-10
-1.04055e-09
-2.00254e-10
-8.52438e-10
-1.88115e-10
-6.77065e-10
-1.75372e-10
-5.15017e-10
-1.62048e-10
-3.66846e-10
-1.4817e-10
-2.33073e-10
-1.33772e-10
-1.14173e-10
-1.189e-10
-1.05638e-11
-1.03609e-10
7.74029e-11
-8.7966e-11
1.4946e-10
-7.20569e-11
2.05447e-10
-5.5988e-11
2.45343e-10
-3.98973e-11
2.69305e-10
-2.39623e-11
2.77718e-10
-8.41309e-12
2.71265e-10
6.45205e-12
2.51028e-10
2.02356e-11
2.18638e-10
3.23891e-11
1.76495e-10
4.21441e-11
1.28071e-10
4.84242e-11
7.83201e-11
4.97513e-11
3.42192e-11
4.4102e-11
5.29824e-12
2.8922e-11
5.29847e-12
3.04397e-11
-3.60351e-11
9.95661e-11
-9.6632e-11
1.93305e-10
-1.40521e-10
2.95462e-10
-1.54632e-10
3.90263e-10
-1.45211e-10
4.65781e-10
-1.18453e-10
5.13294e-10
-7.92729e-11
5.26408e-10
-3.12866e-11
5.00676e-10
2.2676e-11
4.33085e-10
8.05981e-11
3.21747e-10
1.40933e-10
1.65672e-10
2.02483e-10
-3.55325e-11
2.6436e-10
-2.8168e-10
3.25858e-10
-5.72196e-10
3.86457e-10
-9.06236e-10
4.45738e-10
-1.28265e-09
5.03371e-10
-1.70013e-09
5.59127e-10
-2.15719e-09
6.12841e-10
-2.65228e-09
6.64371e-10
-3.1837e-09
7.13564e-10
-3.74976e-09
7.60353e-10
-4.34863e-09
8.04696e-10
-4.9785e-09
8.46531e-10
-5.63752e-09
8.8584e-10
-6.32381e-09
9.22619e-10
-7.03551e-09
9.56842e-10
-7.77072e-09
9.8851e-10
-8.52757e-09
1.01764e-09
-9.30421e-09
1.04425e-09
-1.00988e-08
1.06834e-09
-1.09094e-08
1.08994e-09
-1.17342e-08
1.10907e-09
-1.25715e-08
1.12576e-09
-1.34195e-08
1.14006e-09
-1.42763e-08
1.152e-09
-1.51404e-08
1.1616e-09
-1.60099e-08
1.16892e-09
-1.68832e-08
1.174e-09
-1.77586e-08
1.17686e-09
-1.86346e-08
1.17755e-09
-1.95096e-08
1.17614e-09
-2.0382e-08
1.17266e-09
-2.12503e-08
1.16713e-09
-2.2113e-08
1.15961e-09
-2.29687e-08
1.15013e-09
-2.38159e-08
1.13874e-09
-2.46533e-08
1.1255e-09
-2.54796e-08
1.11047e-09
-2.62934e-08
1.09369e-09
-2.70934e-08
1.07521e-09
-2.78785e-08
1.05508e-09
-2.86475e-08
1.03337e-09
-2.93991e-08
1.01013e-09
-3.01324e-08
9.85383e-10
-3.08461e-08
9.59186e-10
-3.15394e-08
9.31586e-10
-3.2211e-08
9.02636e-10
-3.28602e-08
8.72381e-10
-3.34859e-08
8.40866e-10
-3.40872e-08
8.0814e-10
-3.46634e-08
7.74256e-10
-3.52135e-08
7.39274e-10
-3.57368e-08
7.03248e-10
-3.62326e-08
6.66226e-10
-3.67001e-08
6.28261e-10
-3.71387e-08
5.89407e-10
-3.75478e-08
5.49721e-10
-3.79268e-08
5.09256e-10
-3.82751e-08
4.68068e-10
-3.85923e-08
4.26212e-10
-3.88778e-08
3.8374e-10
-3.91314e-08
3.40705e-10
-3.93525e-08
2.97167e-10
-3.95409e-08
2.53184e-10
-3.96963e-08
2.08819e-10
-3.98185e-08
1.64128e-10
-3.99072e-08
1.19158e-10
-3.99622e-08
7.39651e-11
-3.99835e-08
2.86111e-11
-3.9971e-08
-1.68368e-11
-3.99246e-08
-6.2309e-11
-3.98444e-08
-1.07747e-10
-3.97305e-08
-1.53101e-10
-3.95829e-08
-1.98315e-10
-3.94018e-08
-2.43331e-10
-3.91874e-08
-2.88086e-10
-3.89399e-08
-3.32513e-10
-3.86596e-08
-3.76553e-10
-3.8347e-08
-4.20147e-10
-3.80022e-08
-4.63232e-10
-3.76259e-08
-5.05742e-10
-3.72183e-08
-5.47613e-10
-3.67802e-08
-5.88773e-10
-3.6312e-08
-6.29156e-10
-3.58145e-08
-6.68699e-10
-3.52881e-08
-7.07339e-10
-3.47338e-08
-7.4501e-10
-3.41522e-08
-7.81648e-10
-3.35442e-08
-8.17182e-10
-3.29106e-08
-8.51541e-10
-3.22525e-08
-8.84655e-10
-3.15706e-08
-9.16458e-10
-3.08662e-08
-9.46887e-10
-3.01401e-08
-9.75885e-10
-2.93936e-08
-1.00339e-09
-2.86279e-08
-1.02935e-09
-2.7844e-08
-1.0537e-09
-2.70432e-08
-1.07637e-09
-2.6227e-08
-1.0973e-09
-2.53964e-08
-1.11643e-09
-2.45531e-08
-1.13371e-09
-2.36983e-08
-1.14907e-09
-2.28336e-08
-1.16246e-09
-2.19605e-08
-1.17382e-09
-2.10804e-08
-1.1831e-09
-2.01951e-08
-1.19025e-09
-1.93061e-08
-1.19521e-09
-1.8415e-08
-1.19795e-09
-1.75236e-08
-1.19843e-09
-1.66335e-08
-1.19659e-09
-1.57466e-08
-1.19241e-09
-1.48646e-08
-1.18584e-09
-1.39892e-08
-1.17685e-09
-1.31223e-08
-1.1654e-09
-1.22659e-08
-1.15147e-09
-1.14216e-08
-1.13501e-09
-1.05914e-08
-1.11602e-09
-9.77718e-09
-1.09447e-09
-8.98086e-09
-1.07036e-09
-8.20431e-09
-1.04369e-09
-7.44944e-09
-1.01446e-09
-6.71813e-09
-9.82658e-10
-6.01226e-09
-9.48311e-10
-5.33371e-09
-9.11434e-10
-4.6843e-09
-8.72062e-10
-4.06583e-09
-8.30238e-10
-3.48007e-09
-7.86016e-10
-2.92872e-09
-7.39462e-10
-2.41343e-09
-6.9066e-10
-1.93576e-09
-6.39713e-10
-1.49719e-09
-5.86747e-10
-1.09904e-09
-5.31917e-10
-7.42527e-10
-4.75414e-10
-4.28664e-10
-4.17472e-10
-1.58253e-10
-3.58378e-10
6.81723e-11
-2.98484e-10
2.50412e-10
-2.38229e-10
3.8868e-10
-1.78166e-10
4.83707e-10
-1.18991e-10
5.36879e-10
-6.15853e-11
5.50405e-10
-7.07546e-12
5.27555e-10
4.30853e-11
4.72949e-10
8.69956e-11
3.92933e-10
1.22159e-10
2.96024e-10
1.45333e-10
1.93345e-10
1.52431e-10
9.88793e-11
1.38569e-10
2.89197e-11
9.88817e-11
3.42189e-11
4.05277e-11
-7.65636e-11
1.31207e-10
-1.87317e-10
2.46306e-10
-2.55616e-10
3.64564e-10
-2.72892e-10
4.66969e-10
-2.47612e-10
5.38244e-10
-1.89722e-10
5.66405e-10
-1.07431e-10
5.42416e-10
-7.29847e-12
4.5958e-10
1.05516e-10
3.13166e-10
2.27015e-10
1.00034e-10
3.54069e-10
-1.81763e-10
4.84274e-10
-5.33091e-10
6.15684e-10
-9.54049e-10
7.46818e-10
-1.44409e-09
8.76497e-10
-2.00211e-09
1.00377e-09
-2.62664e-09
1.12791e-09
-3.31587e-09
1.24835e-09
-4.06766e-09
1.36463e-09
-4.8797e-09
1.4764e-09
-5.7495e-09
1.58336e-09
-6.67444e-09
1.68529e-09
-7.65177e-09
1.78203e-09
-8.67869e-09
1.87346e-09
-9.75232e-09
1.95947e-09
-1.08697e-08
2.04003e-09
-1.2028e-08
2.11508e-09
-1.32241e-08
2.18462e-09
-1.44551e-08
2.24863e-09
-1.5718e-08
2.30714e-09
-1.70098e-08
2.36018e-09
-1.83277e-08
2.40777e-09
-1.96686e-08
2.44998e-09
-2.10296e-08
2.48684e-09
-2.2408e-08
2.51844e-09
-2.38008e-08
2.54483e-09
-2.52054e-08
2.56611e-09
-2.66188e-08
2.58235e-09
-2.80384e-08
2.59363e-09
-2.94616e-08
2.60004e-09
-3.08857e-08
2.60167e-09
-3.23082e-08
2.59862e-09
-3.37265e-08
2.59098e-09
-3.51382e-08
2.57885e-09
-3.65409e-08
2.56231e-09
-3.79322e-08
2.54145e-09
-3.93099e-08
2.5164e-09
-4.06716e-08
2.48726e-09
-4.20153e-08
2.45414e-09
-4.33388e-08
2.41713e-09
-4.46399e-08
2.37638e-09
-4.59168e-08
2.33198e-09
-4.71675e-08
2.28405e-09
-4.83901e-08
2.23269e-09
-4.95827e-08
2.17801e-09
-5.07436e-08
2.12011e-09
-5.18711e-08
2.05911e-09
-5.29636e-08
1.99511e-09
-5.40195e-08
1.92823e-09
-5.50372e-08
1.85857e-09
-5.60153e-08
1.78624e-09
-5.69524e-08
1.71135e-09
-5.78471e-08
1.63403e-09
-5.86983e-08
1.55441e-09
-5.95046e-08
1.47258e-09
-6.0265e-08
1.38867e-09
-6.09784e-08
1.3028e-09
-6.16438e-08
1.21507e-09
-6.22601e-08
1.12563e-09
-6.28267e-08
1.03458e-09
-6.33425e-08
9.42057e-10
-6.38069e-08
8.48171e-10
-6.42193e-08
7.53045e-10
-6.45789e-08
6.56808e-10
-6.48853e-08
5.59585e-10
-6.5138e-08
4.61503e-10
-6.53366e-08
3.62691e-10
-6.54807e-08
2.63271e-10
-6.55701e-08
1.63368e-10
-6.56046e-08
6.31175e-11
-6.55841e-08
-3.7344e-11
-6.55085e-08
-1.37879e-10
-6.53779e-08
-2.38354e-10
-6.51924e-08
-3.38641e-10
-6.49521e-08
-4.38613e-10
-6.46573e-08
-5.38134e-10
-6.43083e-08
-6.37067e-10
-6.39055e-08
-7.35276e-10
-6.34494e-08
-8.32622e-10
-6.29406e-08
-9.28966e-10
-6.23797e-08
-1.02417e-09
-6.17673e-08
-1.11809e-09
-6.11044e-08
-1.21058e-09
-6.03916e-08
-1.3015e-09
-5.96301e-08
-1.3907e-09
-5.88208e-08
-1.47803e-09
-5.79648e-08
-1.56335e-09
-5.70633e-08
-1.64653e-09
-5.61175e-08
-1.7274e-09
-5.51289e-08
-1.80583e-09
-5.40987e-08
-1.88166e-09
-5.30286e-08
-1.95476e-09
-5.19201e-08
-2.02496e-09
-5.07749e-08
-2.09214e-09
-4.95946e-08
-2.15615e-09
-4.83811e-08
-2.21686e-09
-4.71364e-08
-2.27414e-09
-4.58622e-08
-2.32785e-09
-4.45607e-08
-2.37785e-09
-4.3234e-08
-2.42401e-09
-4.18842e-08
-2.46621e-09
-4.05136e-08
-2.5043e-09
-3.91246e-08
-2.53816e-09
-3.77193e-08
-2.56767e-09
-3.63004e-08
-2.59271e-09
-3.48704e-08
-2.61317e-09
-3.34317e-08
-2.62892e-09
-3.1987e-08
-2.63988e-09
-3.05391e-08
-2.64593e-09
-2.90905e-08
-2.647e-09
-2.76441e-08
-2.64297e-09
-2.62027e-08
-2.63378e-09
-2.47692e-08
-2.61934e-09
-2.33465e-08
-2.59957e-09
-2.19375e-08
-2.57442e-09
-2.05452e-08
-2.54381e-09
-1.91725e-08
-2.50769e-09
-1.78225e-08
-2.46603e-09
-1.64981e-08
-2.4188e-09
-1.52025e-08
-2.36597e-09
-1.39387e-08
-2.30756e-09
-1.27096e-08
-2.24356e-09
-1.15182e-08
-2.17399e-09
-1.03676e-08
-2.0989e-09
-9.26072e-09
-2.01835e-09
-8.20037e-09
-1.93241e-09
-7.18942e-09
-1.84119e-09
-6.23062e-09
-1.74482e-09
-5.3266e-09
-1.64347e-09
-4.47992e-09
-1.53734e-09
-3.69296e-09
-1.42668e-09
-2.96792e-09
-1.31178e-09
-2.30681e-09
-1.19302e-09
-1.7114e-09
-1.07083e-09
-1.18311e-09
-9.45761e-10
-7.23027e-10
-8.18459e-10
-3.31785e-10
-6.89725e-10
-9.47159e-12
-5.60544e-10
2.44489e-10
-4.32129e-10
4.3148e-10
-3.05983e-10
5.53881e-10
-1.83986e-10
6.15294e-10
-6.84885e-11
6.20827e-10
3.75516e-11
5.77427e-10
1.30396e-10
4.94252e-10
2.05334e-10
3.83071e-10
2.56516e-10
2.58605e-10
2.76898e-10
1.38691e-10
2.58483e-10
4.41308e-11
1.93443e-10
7.83498e-11
4.46819e-11
-1.21242e-10
1.39587e-10
-2.82221e-10
2.54704e-10
-3.70736e-10
3.64764e-10
-3.82958e-10
4.48427e-10
-3.31264e-10
4.883e-10
-2.296e-10
4.70491e-10
-8.9623e-11
3.84168e-10
7.9032e-11
2.21075e-10
2.68602e-10
-2.48097e-11
4.729e-10
-3.57705e-10
6.86973e-10
-7.80268e-10
9.06839e-10
-1.29391e-09
1.12933e-09
-1.89904e-09
1.35195e-09
-2.59517e-09
1.57263e-09
-3.38115e-09
1.78975e-09
-4.25524e-09
2.002e-09
-5.21519e-09
2.20831e-09
-6.25845e-09
2.40789e-09
-7.38208e-09
2.60002e-09
-8.58289e-09
2.78418e-09
-9.85754e-09
2.95994e-09
-1.12025e-08
3.12696e-09
-1.2614e-08
3.28498e-09
-1.40883e-08
3.43381e-09
-1.56216e-08
3.57333e-09
-1.721e-08
3.70343e-09
-1.88494e-08
3.82406e-09
-2.0536e-08
3.9352e-09
-2.22657e-08
4.03685e-09
-2.40346e-08
4.12905e-09
-2.58386e-08
4.21184e-09
-2.76739e-08
4.28529e-09
-2.95366e-08
4.3495e-09
-3.14227e-08
4.40456e-09
-3.33285e-08
4.45058e-09
-3.525e-08
4.48769e-09
-3.71837e-08
4.51602e-09
-3.91258e-08
4.53572e-09
-4.10727e-08
4.54692e-09
-4.30208e-08
4.54978e-09
-4.49667e-08
4.54447e-09
-4.69068e-08
4.53115e-09
-4.88379e-08
4.50996e-09
-5.07567e-08
4.48108e-09
-5.266e-08
4.44469e-09
-5.45445e-08
4.40097e-09
-5.64074e-08
4.35009e-09
-5.82455e-08
4.29224e-09
-6.0056e-08
4.22762e-09
-6.1836e-08
4.15641e-09
-6.35828e-08
4.07881e-09
-6.52938e-08
3.99502e-09
-6.69663e-08
3.90521e-09
-6.85979e-08
3.80958e-09
-7.01861e-08
3.70831e-09
-7.17286e-08
3.60161e-09
-7.32231e-08
3.48966e-09
-7.46675e-08
3.37266e-09
-7.60598e-08
3.25079e-09
-7.73978e-08
3.12427e-09
-7.86797e-08
2.99328e-09
-7.99037e-08
2.85803e-09
-8.1068e-08
2.71874e-09
-8.21711e-08
2.57559e-09
-8.32112e-08
2.42881e-09
-8.4187e-08
2.27858e-09
-8.5097e-08
2.12513e-09
-8.59401e-08
1.96866e-09
-8.67149e-08
1.80939e-09
-8.74203e-08
1.64752e-09
-8.80554e-08
1.48327e-09
-8.86192e-08
1.31686e-09
-8.91109e-08
1.1485e-09
-8.95298e-08
9.78413e-10
-8.98751e-08
8.06828e-10
-9.01464e-08
6.3396e-10
-9.03431e-08
4.60031e-10
-9.0465e-08
2.85265e-10
-9.05118e-08
1.09895e-10
-9.04833e-08
-6.58424e-11
-9.03795e-08
-2.41714e-10
-9.02003e-08
-4.17487e-10
-8.9946e-08
-5.92932e-10
-8.96168e-08
-7.67816e-10
-8.92131e-08
-9.41903e-10
-8.87352e-08
-1.11495e-09
-8.81837e-08
-1.28672e-09
-8.75594e-08
-1.45696e-09
-8.68629e-08
-1.62544e-09
-8.60952e-08
-1.79191e-09
-8.52571e-08
-1.95612e-09
-8.43499e-08
-2.11782e-09
-8.33747e-08
-2.27675e-09
-8.23327e-08
-2.43266e-09
-8.12254e-08
-2.5853e-09
-8.00544e-08
-2.73442e-09
-7.88211e-08
-2.87976e-09
-7.75274e-08
-3.02107e-09
-7.61752e-08
-3.1581e-09
-7.47662e-08
-3.29059e-09
-7.33027e-08
-3.41829e-09
-7.17867e-08
-3.54094e-09
-7.02206e-08
-3.6583e-09
-6.86066e-08
-3.77013e-09
-6.69473e-08
-3.87619e-09
-6.52452e-08
-3.97623e-09
-6.3503e-08
-4.07004e-09
-6.17235e-08
-4.15736e-09
-5.99095e-08
-4.23796e-09
-5.80641e-08
-4.31163e-09
-5.61903e-08
-4.37814e-09
-5.42912e-08
-4.43726e-09
-5.237e-08
-4.4888e-09
-5.04302e-08
-4.53253e-09
-4.84751e-08
-4.56826e-09
-4.65082e-08
-4.59581e-09
-4.45331e-08
-4.615e-09
-4.25534e-08
-4.62564e-09
-4.05728e-08
-4.62759e-09
-3.85951e-08
-4.62068e-09
-3.66241e-08
-4.60477e-09
-3.46638e-08
-4.57973e-09
-3.27179e-08
-4.54543e-09
-3.07905e-08
-4.50177e-09
-2.88857e-08
-4.44866e-09
-2.70074e-08
-4.386e-09
-2.51597e-08
-4.31374e-09
-2.33466e-08
-4.23185e-09
-2.15723e-08
-4.14029e-09
-1.98408e-08
-4.03908e-09
-1.81561e-08
-3.92824e-09
-1.65223e-08
-3.80782e-09
-1.49433e-08
-3.67791e-09
-1.3423e-08
-3.53862e-09
-1.19653e-08
-3.39011e-09
-1.05739e-08
-3.23259e-09
-9.25243e-09
-3.0663e-09
-8.00433e-09
-2.89157e-09
-6.83292e-09
-2.70875e-09
-5.74128e-09
-2.51832e-09
-4.73224e-09
-2.32082e-09
-3.80833e-09
-2.11693e-09
-2.97174e-09
-1.90743e-09
-2.22421e-09
-1.69329e-09
-1.56699e-09
-1.47568e-09
-1.00072e-09
-1.256e-09
-5.25298e-10
-1.03596e-09
-1.39781e-10
-8.17645e-10
1.57827e-10
-6.03591e-10
3.70764e-10
-3.96924e-10
5.0376e-10
-2.01486e-10
5.63322e-10
-2.20107e-11
5.58046e-10
1.35672e-10
4.9896e-10
2.6442e-10
3.99873e-10
3.55605e-10
2.7772e-10
3.9905e-10
1.52906e-10
3.83297e-10
4.98754e-11
2.96474e-10
1.28225e-10
4.25359e-11
-1.63778e-10
1.29218e-10
-3.68906e-10
2.27417e-10
-4.68933e-10
3.09679e-10
-4.65219e-10
3.53372e-10
-3.7496e-10
3.39919e-10
-2.16152e-10
2.54341e-10
-4.03872e-12
8.46759e-11
2.4869e-10
-1.7831e-10
5.31594e-10
-5.41579e-10
8.36164e-10
-1.01005e-09
1.15544e-09
-1.58701e-09
1.4838e-09
-2.27433e-09
1.81664e-09
-3.0726e-09
2.15022e-09
-3.98148e-09
2.48151e-09
-4.99976e-09
2.80803e-09
-6.12554e-09
3.12777e-09
-7.35629e-09
3.43907e-09
-8.689e-09
3.7406e-09
-1.01203e-08
4.0313e-09
-1.16464e-08
4.31028e-09
-1.32633e-08
4.57683e-09
-1.49667e-08
4.8304e-09
-1.67523e-08
5.07054e-09
-1.86154e-08
5.29693e-09
-2.05513e-08
5.5093e-09
-2.25554e-08
5.70748e-09
-2.46227e-08
5.89136e-09
-2.67484e-08
6.06088e-09
-2.89275e-08
6.21601e-09
-3.11552e-08
6.35677e-09
-3.34266e-08
6.48323e-09
-3.57368e-08
6.59548e-09
-3.80809e-08
6.69362e-09
-4.04542e-08
6.7778e-09
-4.28518e-08
6.84818e-09
-4.5269e-08
6.90494e-09
-4.77012e-08
6.94825e-09
-5.01439e-08
6.97833e-09
-5.25923e-08
6.9954e-09
-5.50423e-08
6.99969e-09
-5.74892e-08
6.99142e-09
-5.99289e-08
6.97085e-09
-6.23572e-08
6.93822e-09
-6.47699e-08
6.89378e-09
-6.7163e-08
6.83781e-09
-6.95326e-08
6.77057e-09
-7.18748e-08
6.69234e-09
-7.4186e-08
6.60339e-09
-7.64624e-08
6.50402e-09
-7.87005e-08
6.39451e-09
-8.08968e-08
6.27516e-09
-8.30481e-08
6.14626e-09
-8.51509e-08
6.00809e-09
-8.72023e-08
5.86096e-09
-8.91992e-08
5.70515e-09
-9.11385e-08
5.54097e-09
-9.30176e-08
5.36871e-09
-9.48336e-08
5.18867e-09
-9.65839e-08
5.00115e-09
-9.82661e-08
4.80646e-09
-9.98778e-08
4.6049e-09
-1.01417e-07
4.3968e-09
-1.0288e-07
4.18246e-09
-1.04267e-07
3.96219e-09
-1.05574e-07
3.73631e-09
-1.06801e-07
3.50515e-09
-1.07945e-07
3.26902e-09
-1.09004e-07
3.02824e-09
-1.09978e-07
2.78315e-09
-1.10865e-07
2.53407e-09
-1.11663e-07
2.28132e-09
-1.12371e-07
2.02525e-09
-1.12989e-07
1.76618e-09
-1.13515e-07
1.50447e-09
-1.13948e-07
1.24044e-09
-1.14289e-07
9.74442e-10
-1.14536e-07
7.06815e-10
-1.14688e-07
4.3791e-10
-1.14747e-07
1.68083e-10
-1.1471e-07
-1.02309e-10
-1.14579e-07
-3.72904e-10
-1.14353e-07
-6.43349e-10
-1.14033e-07
-9.13283e-10
-1.13618e-07
-1.18234e-09
-1.1311e-07
-1.45016e-09
-1.12509e-07
-1.71637e-09
-1.11815e-07
-1.98059e-09
-1.11029e-07
-2.24246e-09
-1.10153e-07
-2.50159e-09
-1.09187e-07
-2.75761e-09
-1.08133e-07
-3.01014e-09
-1.06992e-07
-3.25878e-09
-1.05766e-07
-3.50316e-09
-1.04456e-07
-3.74287e-09
-1.03063e-07
-3.97755e-09
-1.01591e-07
-4.20679e-09
-1.00041e-07
-4.43021e-09
-9.84143e-08
-4.64742e-09
-9.67143e-08
-4.85804e-09
-9.49433e-08
-5.06167e-09
-9.31036e-08
-5.25793e-09
-9.11981e-08
-5.44642e-09
-8.92296e-08
-5.62679e-09
-8.72011e-08
-5.79865e-09
-8.51157e-08
-5.96163e-09
-8.29766e-08
-6.11537e-09
-8.07871e-08
-6.2595e-09
-7.85508e-08
-6.39367e-09
-7.62712e-08
-6.51753e-09
-7.39521e-08
-6.63072e-09
-7.15973e-08
-6.73292e-09
-6.92108e-08
-6.82379e-09
-6.67966e-08
-6.903e-09
-6.43589e-08
-6.97025e-09
-6.19019e-08
-7.02524e-09
-5.943e-08
-7.06768e-09
-5.69477e-08
-7.0973e-09
-5.44595e-08
-7.11384e-09
-5.19701e-08
-7.11705e-09
-4.9484e-08
-7.1067e-09
-4.70062e-08
-7.08258e-09
-4.45415e-08
-7.0445e-09
-4.20946e-08
-6.99227e-09
-3.96707e-08
-6.92573e-09
-3.72745e-08
-6.84477e-09
-3.49113e-08
-6.74926e-09
-3.25859e-08
-6.63912e-09
-3.03034e-08
-6.51432e-09
-2.80689e-08
-6.37482e-09
-2.58873e-08
-6.22065e-09
-2.37637e-08
-6.05187e-09
-2.1703e-08
-5.86858e-09
-1.97099e-08
-5.67092e-09
-1.77895e-08
-5.45911e-09
-1.59462e-08
-5.2334e-09
-1.41846e-08
-4.99413e-09
-1.25092e-08
-4.74171e-09
-1.09241e-08
-4.47666e-09
-9.43331e-09
-4.19958e-09
-8.04044e-09
-3.9112e-09
-6.74886e-09
-3.6124e-09
-5.56156e-09
-3.30423e-09
-4.48103e-09
-2.98795e-09
-3.50927e-09
-2.66506e-09
-2.64761e-09
-2.33734e-09
-1.89666e-09
-2.00695e-09
-1.25616e-09
-1.67646e-09
-7.2482e-10
-1.34899e-09
-3.00137e-10
-1.02827e-09
2.18013e-11
-7.18862e-10
2.46561e-10
-4.26245e-10
3.81628e-10
-1.57078e-10
4.36698e-10
8.06013e-11
4.23985e-10
2.77134e-10
3.58547e-10
4.21042e-10
2.58688e-10
4.98908e-10
1.46481e-10
4.95503e-10
4.87367e-11
3.94218e-10
1.76961e-10
3.60268e-11
-1.99795e-10
1.04315e-10
-4.37195e-10
1.71684e-10
-5.36295e-10
2.10091e-10
-5.03628e-10
1.96399e-10
-3.61262e-10
1.11554e-10
-1.31304e-10
-5.99402e-11
1.67451e-10
-3.30567e-10
5.19318e-10
-7.10153e-10
9.11188e-10
-1.20618e-09
1.33219e-09
-1.82412e-09
1.77338e-09
-2.56762e-09
2.22729e-09
-3.43881e-09
2.68784e-09
-4.43854e-09
3.14995e-09
-5.56651e-09
3.60949e-09
-6.82149e-09
4.063e-09
-8.20137e-09
4.50765e-09
-9.70344e-09
4.94114e-09
-1.13244e-08
5.36152e-09
-1.30603e-08
5.76723e-09
-1.4907e-08
6.15698e-09
-1.68599e-08
6.52973e-09
-1.89141e-08
6.88464e-09
-2.10646e-08
7.22104e-09
-2.33061e-08
7.53839e-09
-2.56331e-08
7.83631e-09
-2.80401e-08
8.11449e-09
-3.05215e-08
8.37275e-09
-3.30716e-08
8.61094e-09
-3.56846e-08
8.82901e-09
-3.83548e-08
9.02697e-09
-4.10764e-08
9.20487e-09
-4.38437e-08
9.36281e-09
-4.6651e-08
9.50092e-09
-4.94926e-08
9.6194e-09
-5.23629e-08
9.71843e-09
-5.52562e-08
9.79826e-09
-5.8167e-08
9.85913e-09
-6.109e-08
9.90133e-09
-6.40198e-08
9.92515e-09
-6.6951e-08
9.9309e-09
-6.98785e-08
9.91891e-09
-7.27971e-08
9.8895e-09
-7.57019e-08
9.84303e-09
-7.8588e-08
9.77987e-09
-8.14506e-08
9.70037e-09
-8.42849e-08
9.60491e-09
-8.70865e-08
9.49388e-09
-8.98507e-08
9.36767e-09
-9.25734e-08
9.22668e-09
-9.52502e-08
9.07131e-09
-9.7877e-08
8.90198e-09
-1.0045e-07
8.71909e-09
-1.02965e-07
8.52306e-09
-1.05418e-07
8.31429e-09
-1.07806e-07
8.09322e-09
-1.10126e-07
7.86026e-09
-1.12373e-07
7.61584e-09
-1.14544e-07
7.36037e-09
-1.16637e-07
7.09429e-09
-1.18649e-07
6.81804e-09
-1.20576e-07
6.53205e-09
-1.22416e-07
6.23677e-09
-1.24166e-07
5.93264e-09
-1.25824e-07
5.6201e-09
-1.27388e-07
5.2996e-09
-1.28854e-07
4.9716e-09
-1.30222e-07
4.63655e-09
-1.31488e-07
4.29492e-09
-1.32652e-07
3.94716e-09
-1.33712e-07
3.59375e-09
-1.34666e-07
3.23513e-09
-1.35512e-07
2.8718e-09
-1.3625e-07
2.50423e-09
-1.36879e-07
2.1329e-09
-1.37397e-07
1.7583e-09
-1.37803e-07
1.38091e-09
-1.38097e-07
1.00121e-09
-1.38279e-07
6.19713e-10
-1.38348e-07
2.36918e-10
-1.38304e-07
-1.46671e-10
-1.38146e-07
-5.30546e-10
-1.37875e-07
-9.14197e-10
-1.37491e-07
-1.29711e-09
-1.36995e-07
-1.67877e-09
-1.36387e-07
-2.05866e-09
-1.35667e-07
-2.43624e-09
-1.34836e-07
-2.81099e-09
-1.33896e-07
-3.18238e-09
-1.32848e-07
-3.54987e-09
-1.31693e-07
-3.91293e-09
-1.30432e-07
-4.271e-09
-1.29067e-07
-4.62356e-09
-1.276e-07
-4.97004e-09
-1.26033e-07
-5.3099e-09
-1.24368e-07
-5.64259e-09
-1.22607e-07
-5.96756e-09
-1.20753e-07
-6.28427e-09
-1.18809e-07
-6.59216e-09
-1.16776e-07
-6.89068e-09
-1.14658e-07
-7.17929e-09
-1.12459e-07
-7.45745e-09
-1.10181e-07
-7.7246e-09
-1.07827e-07
-7.98023e-09
-1.05402e-07
-8.22379e-09
-1.02909e-07
-8.45477e-09
-1.00352e-07
-8.67266e-09
-9.77342e-08
-8.87693e-09
-9.50608e-08
-9.06708e-09
-9.23357e-08
-9.24262e-09
-8.95633e-08
-9.40307e-09
-8.67483e-08
-9.54795e-09
-8.38953e-08
-9.67679e-09
-8.10091e-08
-9.78916e-09
-7.80948e-08
-9.88461e-09
-7.51573e-08
-9.96272e-09
-7.22019e-08
-1.00231e-08
-6.92338e-08
-1.00654e-08
-6.62585e-08
-1.00891e-08
-6.32815e-08
-1.00941e-08
-6.03082e-08
-1.008e-08
-5.73444e-08
-1.00464e-08
-5.43958e-08
-9.99308e-09
-5.14682e-08
-9.91987e-09
-4.85675e-08
-9.82651e-09
-4.56994e-08
-9.71285e-09
-4.28699e-08
-9.57873e-09
-4.00849e-08
-9.42407e-09
-3.73504e-08
-9.24881e-09
-3.46723e-08
-9.05295e-09
-3.20564e-08
-8.83652e-09
-2.95087e-08
-8.59965e-09
-2.70348e-08
-8.34249e-09
-2.46404e-08
-8.06528e-09
-2.23312e-08
-7.76833e-09
-2.01125e-08
-7.45206e-09
-1.79897e-08
-7.11696e-09
-1.59677e-08
-6.76366e-09
-1.40515e-08
-6.3929e-09
-1.22455e-08
-6.00559e-09
-1.05539e-08
-5.60278e-09
-8.98054e-09
-5.18576e-09
-7.52873e-09
-4.75604e-09
-6.20126e-09
-4.31542e-09
-5.0003e-09
-3.86602e-09
-3.92728e-09
-3.41037e-09
-2.98277e-09
-2.95146e-09
-2.16637e-09
-2.49286e-09
-1.47653e-09
-2.03883e-09
-9.10386e-10
-1.59442e-09
-4.63543e-10
-1.1657e-09
-1.29877e-10
-7.59912e-10
9.87244e-11
-3.8568e-10
2.32618e-10
-5.32916e-11
2.84687e-10
2.25065e-10
2.70673e-10
4.35055e-10
2.09594e-10
5.59986e-10
1.24352e-10
5.80744e-10
4.27576e-11
4.75812e-10
2.19719e-10
2.64762e-11
-2.26275e-10
6.8538e-11
-4.79256e-10
9.40686e-11
-5.61828e-10
7.56015e-11
-4.8516e-10
-9.71596e-12
-2.75938e-10
-1.80799e-10
3.97784e-11
-4.53216e-10
4.39877e-10
-8.39578e-10
9.05676e-10
-1.3499e-09
1.42151e-09
-1.99194e-09
1.97423e-09
-2.77134e-09
2.55278e-09
-3.69202e-09
3.14797e-09
-4.75625e-09
3.75208e-09
-5.965e-09
4.3587e-09
-7.31795e-09
4.96243e-09
-8.81381e-09
5.55887e-09
-1.04504e-08
6.14422e-09
-1.22247e-08
6.71543e-09
-1.41331e-08
7.2699e-09
-1.61714e-08
7.80552e-09
-1.83349e-08
8.32052e-09
-2.06186e-08
8.81345e-09
-2.30171e-08
9.28313e-09
-2.55247e-08
9.72862e-09
-2.81355e-08
1.01492e-08
-3.08433e-08
1.05442e-08
-3.36421e-08
1.09132e-08
-3.65253e-08
1.1256e-08
-3.94867e-08
1.15723e-08
-4.25196e-08
1.18619e-08
-4.56175e-08
1.21249e-08
-4.8774e-08
1.23613e-08
-5.19824e-08
1.25712e-08
-5.52363e-08
1.27548e-08
-5.85291e-08
1.29122e-08
-6.18545e-08
1.30438e-08
-6.5206e-08
1.31498e-08
-6.85773e-08
1.32304e-08
-7.19622e-08
1.32862e-08
-7.53545e-08
1.33175e-08
-7.87482e-08
1.33246e-08
-8.21373e-08
1.3308e-08
-8.55158e-08
1.32681e-08
-8.88782e-08
1.32054e-08
-9.22187e-08
1.31203e-08
-9.55317e-08
1.30134e-08
-9.8812e-08
1.28852e-08
-1.02054e-07
1.27361e-08
-1.05253e-07
1.25666e-08
-1.08404e-07
1.23773e-08
-1.11501e-07
1.21688e-08
-1.14541e-07
1.19416e-08
-1.17518e-07
1.16961e-08
-1.20428e-07
1.14331e-08
-1.23267e-07
1.11529e-08
-1.2603e-07
1.08563e-08
-1.28713e-07
1.05437e-08
-1.31313e-07
1.02157e-08
-1.33825e-07
9.87291e-09
-1.36247e-07
9.51589e-09
-1.38574e-07
9.14522e-09
-1.40804e-07
8.76149e-09
-1.42932e-07
8.36529e-09
-1.44957e-07
7.95722e-09
-1.46874e-07
7.53787e-09
-1.48683e-07
7.10785e-09
-1.50379e-07
6.66776e-09
-1.51961e-07
6.21823e-09
-1.53425e-07
5.75986e-09
-1.54772e-07
5.29328e-09
-1.55997e-07
4.8191e-09
-1.571e-07
4.33797e-09
-1.58079e-07
3.85051e-09
-1.58932e-07
3.35738e-09
-1.59658e-07
2.85921e-09
-1.60256e-07
2.35665e-09
-1.60726e-07
1.85036e-09
-1.61066e-07
1.341e-09
-1.61275e-07
8.29231e-10
-1.61354e-07
3.15735e-10
-1.61302e-07
-1.98814e-10
-1.61119e-07
-7.13737e-10
-1.60804e-07
-1.22835e-09
-1.6036e-07
-1.74195e-09
-1.59785e-07
-2.25386e-09
-1.5908e-07
-2.76336e-09
-1.58246e-07
-3.26975e-09
-1.57285e-07
-3.77233e-09
-1.56197e-07
-4.27038e-09
-1.54984e-07
-4.76317e-09
-1.53647e-07
-5.24999e-09
-1.52187e-07
-5.73012e-09
-1.50608e-07
-6.20282e-09
-1.48911e-07
-6.66735e-09
-1.47098e-07
-7.12298e-09
-1.45171e-07
-7.56899e-09
-1.43134e-07
-8.00463e-09
-1.40989e-07
-8.42917e-09
-1.3874e-07
-8.84188e-09
-1.36388e-07
-9.24203e-09
-1.33939e-07
-9.62888e-09
-1.31395e-07
-1.00017e-08
-1.28759e-07
-1.03598e-08
-1.26037e-07
-1.07024e-08
-1.23232e-07
-1.10289e-08
-1.20348e-07
-1.13385e-08
-1.17391e-07
-1.16305e-08
-1.14363e-07
-1.19043e-08
-1.11271e-07
-1.21592e-08
-1.08119e-07
-1.23946e-08
-1.04912e-07
-1.26097e-08
-1.01656e-07
-1.28041e-08
-9.83561e-08
-1.29769e-08
-9.50175e-08
-1.31277e-08
-9.16462e-08
-1.32559e-08
-8.82479e-08
-1.3361e-08
-8.48287e-08
-1.34423e-08
-8.13946e-08
-1.34995e-08
-7.79518e-08
-1.35319e-08
-7.45066e-08
-1.35393e-08
-7.10654e-08
-1.35211e-08
-6.76348e-08
-1.3477e-08
-6.42211e-08
-1.34067e-08
-6.08311e-08
-1.33098e-08
-5.74715e-08
-1.31861e-08
-5.4149e-08
-1.30354e-08
-5.08702e-08
-1.28575e-08
-4.7642e-08
-1.26523e-08
-4.44711e-08
-1.24197e-08
-4.13642e-08
-1.21598e-08
-3.83281e-08
-1.18727e-08
-3.53693e-08
-1.15584e-08
-3.24945e-08
-1.12174e-08
-2.97099e-08
-1.08498e-08
-2.70219e-08
-1.04563e-08
-2.44367e-08
-1.00373e-08
-2.19601e-08
-9.59355e-09
-1.95979e-08
-9.12593e-09
-1.73553e-08
-8.63549e-09
-1.52374e-08
-8.12344e-09
-1.3249e-08
-7.59126e-09
-1.1394e-08
-7.04069e-09
-9.67631e-09
-6.47377e-09
-8.09882e-09
-5.8929e-09
-6.66391e-09
-5.30093e-09
-5.37309e-09
-4.70119e-09
-4.22694e-09
-4.09761e-09
-3.22498e-09
-3.49482e-09
-2.3655e-09
-2.8983e-09
-1.64541e-09
-2.31451e-09
-1.06004e-09
-1.75108e-09
-6.02948e-10
-1.21701e-09
-2.65696e-10
-7.22932e-10
-3.76205e-11
-2.81366e-10
9.44277e-11
9.3015e-11
1.46406e-10
3.83076e-10
1.37481e-10
5.6891e-10
9.06086e-11
6.27615e-10
3.34175e-11
5.33003e-10
2.53136e-10
1.47877e-11
-2.41069e-10
2.485e-11
-4.89308e-10
3.04023e-14
-5.37014e-10
-8.56402e-11
-3.99492e-10
-2.54078e-10
-1.07497e-10
-5.23576e-10
3.09275e-10
-9.09311e-10
8.25611e-10
-1.4237e-09
1.42006e-09
-2.07666e-09
2.07448e-09
-2.87589e-09
2.77347e-09
-3.82712e-09
3.50401e-09
-4.93425e-09
4.2551e-09
-6.19961e-09
5.01744e-09
-7.62411e-09
5.78319e-09
-9.20743e-09
6.54577e-09
-1.09482e-08
7.29959e-09
-1.28439e-08
8.04e-09
-1.48915e-08
8.76304e-09
-1.70871e-08
9.46546e-09
-1.94261e-08
1.01445e-08
-2.19034e-08
1.07979e-08
-2.45136e-08
1.14236e-08
-2.72507e-08
1.20203e-08
-3.01087e-08
1.25866e-08
-3.30809e-08
1.31214e-08
-3.61607e-08
1.3624e-08
-3.93413e-08
1.40938e-08
-4.26156e-08
1.45303e-08
-4.59764e-08
1.49332e-08
-4.94168e-08
1.53022e-08
-5.29293e-08
1.56374e-08
-5.65067e-08
1.59387e-08
-6.01417e-08
1.62063e-08
-6.38272e-08
1.64402e-08
-6.75557e-08
1.66408e-08
-7.13203e-08
1.68083e-08
-7.51136e-08
1.69431e-08
-7.89287e-08
1.70456e-08
-8.27586e-08
1.71161e-08
-8.65964e-08
1.71552e-08
-9.04352e-08
1.71634e-08
-9.42684e-08
1.71412e-08
-9.80894e-08
1.70891e-08
-1.01892e-07
1.70077e-08
-1.05669e-07
1.68976e-08
-1.09415e-07
1.67595e-08
-1.13124e-07
1.65939e-08
-1.16789e-07
1.64016e-08
-1.20406e-07
1.6183e-08