0.05 	0.0003125 	0.005 	-0.0018554 	-6.19956e-07 	0
0.05 	0.0009375 	0.005 	-0.00541327 	-4.73308e-06 	0
0.05 	0.0015625 	0.005 	-0.00882802 	-1.42937e-05 	0
0.05 	0.0021875 	0.005 	-0.0121085 	-2.88559e-05 	0
0.05 	0.0028125 	0.005 	-0.015263 	-4.83042e-05 	0
0.05 	0.0034375 	0.005 	-0.0182993 	-7.26534e-05 	0
0.05 	0.0040625 	0.005 	-0.0212252 	-0.000101848 	0
0.05 	0.0046875 	0.005 	-0.0240481 	-0.000135772 	0
0.05 	0.0053125 	0.005 	-0.0267753 	-0.000174254 	0
0.05 	0.0059375 	0.005 	-0.029414 	-0.000217065 	0
0.05 	0.0065625 	0.005 	-0.031971 	-0.000263912 	0
0.05 	0.0071875 	0.005 	-0.0344532 	-0.000314429 	0
0.05 	0.0078125 	0.005 	-0.0368673 	-0.000368174 	0
0.05 	0.0084375 	0.005 	-0.0392198 	-0.000424624 	0
0.05 	0.0090625 	0.005 	-0.0415174 	-0.000483165 	0
0.05 	0.0096875 	0.005 	-0.0437663 	-0.000543091 	0
0.05 	0.0103125 	0.005 	-0.045973 	-0.000603595 	0
0.05 	0.0109375 	0.005 	-0.0481437 	-0.000663758 	0
0.05 	0.0115625 	0.005 	-0.0502846 	-0.000722551 	0
0.05 	0.0121875 	0.005 	-0.0524019 	-0.000778819 	0
0.05 	0.0128125 	0.005 	-0.0545017 	-0.000831278 	0
0.05 	0.0134375 	0.005 	-0.0565901 	-0.000878507 	0
0.05 	0.0140625 	0.005 	-0.0586731 	-0.00091894 	0
0.05 	0.0146875 	0.005 	-0.0607567 	-0.000950856 	0
0.05 	0.0153125 	0.005 	-0.0628467 	-0.000972379 	0
0.05 	0.0159375 	0.005 	-0.064949 	-0.00098146 	0
0.05 	0.0165625 	0.005 	-0.0670695 	-0.00097588 	0
0.05 	0.0171875 	0.005 	-0.0692136 	-0.000953238 	0
0.05 	0.0178125 	0.005 	-0.0713871 	-0.000910945 	0
0.05 	0.0184375 	0.005 	-0.0735953 	-0.000846222 	0
0.05 	0.0190625 	0.005 	-0.0758436 	-0.000756094 	0
0.05 	0.0196875 	0.005 	-0.078137 	-0.000637388 	0
0.05 	0.0203125 	0.005 	-0.0804804 	-0.000486729 	0
0.05 	0.0209375 	0.005 	-0.0828785 	-0.000300543 	0
0.05 	0.0215625 	0.005 	-0.0853357 	-7.50573e-05 	0
0.05 	0.0221875 	0.005 	-0.0878561 	0.000193698 	0
0.05 	0.0228125 	0.005 	-0.0904435 	0.000509881 	0
0.05 	0.0234375 	0.005 	-0.093101 	0.000877831 	0
0.05 	0.0240625 	0.005 	-0.0958316 	0.00130206 	0
0.05 	0.0246875 	0.005 	-0.0986377 	0.00178723 	0
0.05 	0.0253125 	0.005 	-0.101521 	0.00233815 	0
0.05 	0.0259375 	0.005 	-0.104483 	0.00295975 	0
0.05 	0.0265625 	0.005 	-0.107523 	0.00365706 	0
0.05 	0.0271875 	0.005 	-0.110643 	0.00443517 	0
0.05 	0.0278125 	0.005 	-0.11384 	0.00529921 	0
0.05 	0.0284375 	0.005 	-0.117113 	0.00625434 	0
0.05 	0.0290625 	0.005 	-0.120459 	0.00730567 	0
0.05 	0.0296875 	0.005 	-0.123875 	0.00845824 	0
0.05 	0.0303125 	0.005 	-0.127356 	0.00971699 	0
0.05 	0.0309375 	0.005 	-0.130896 	0.0110867 	0
0.05 	0.0315625 	0.005 	-0.134488 	0.0125719 	0
0.05 	0.0321875 	0.005 	-0.138125 	0.0141769 	0
0.05 	0.0328125 	0.005 	-0.141797 	0.0159058 	0
0.05 	0.0334375 	0.005 	-0.145495 	0.017762 	0
0.05 	0.0340625 	0.005 	-0.149206 	0.0197489 	0
0.05 	0.0346875 	0.005 	-0.15292 	0.0218691 	0
0.05 	0.0353125 	0.005 	-0.156623 	0.0241249 	0
0.05 	0.0359375 	0.005 	-0.160299 	0.0265178 	0
0.05 	0.0365625 	0.005 	-0.163934 	0.0290488 	0
0.05 	0.0371875 	0.005 	-0.167511 	0.0317181 	0
0.05 	0.0378125 	0.005 	-0.171014 	0.0345253 	0
0.05 	0.0384375 	0.005 	-0.174423 	0.0374691 	0
0.05 	0.0390625 	0.005 	-0.177722 	0.0405475 	0
0.05 	0.0396875 	0.005 	-0.18089 	0.0437576 	0
0.05 	0.0403125 	0.005 	-0.183908 	0.0470957 	0
0.05 	0.0409375 	0.005 	-0.186757 	0.0505571 	0
0.05 	0.0415625 	0.005 	-0.189418 	0.0541364 	0
0.05 	0.0421875 	0.005 	-0.191869 	0.0578271 	0
0.05 	0.0428125 	0.005 	-0.194093 	0.0616222 	0
0.05 	0.0434375 	0.005 	-0.196071 	0.0655134 	0
0.05 	0.0440625 	0.005 	-0.197784 	0.0694921 	0
0.05 	0.0446875 	0.005 	-0.199215 	0.0735485 	0
0.05 	0.0453125 	0.005 	-0.200347 	0.0776723 	0
0.05 	0.0459375 	0.005 	-0.201167 	0.0818526 	0
0.05 	0.0465625 	0.005 	-0.201658 	0.0860778 	0
0.05 	0.0471875 	0.005 	-0.20181 	0.0903359 	0
0.05 	0.0478125 	0.005 	-0.201611 	0.0946144 	0
0.05 	0.0484375 	0.005 	-0.201051 	0.0989005 	0
0.05 	0.0490625 	0.005 	-0.200124 	0.103181 	0
0.05 	0.0496875 	0.005 	-0.198824 	0.107443 	0
0.05 	0.0503125 	0.005 	-0.197146 	0.111673 	0
0.05 	0.0509375 	0.005 	-0.19509 	0.115858 	0
0.05 	0.0515625 	0.005 	-0.192655 	0.119985 	0
0.05 	0.0521875 	0.005 	-0.189844 	0.124041 	0
0.05 	0.0528125 	0.005 	-0.18666 	0.128013 	0
0.05 	0.0534375 	0.005 	-0.183109 	0.13189 	0
0.05 	0.0540625 	0.005 	-0.1792 	0.135659 	0
0.05 	0.0546875 	0.005 	-0.17494 	0.13931 	0
0.05 	0.0553125 	0.005 	-0.170342 	0.142832 	0
0.05 	0.0559375 	0.005 	-0.165417 	0.146215 	0
0.05 	0.0565625 	0.005 	-0.160179 	0.149449 	0
0.05 	0.0571875 	0.005 	-0.154644 	0.152527 	0
0.05 	0.0578125 	0.005 	-0.148827 	0.155441 	0
0.05 	0.0584375 	0.005 	-0.142746 	0.158183 	0
0.05 	0.0590625 	0.005 	-0.136418 	0.160747 	0
0.05 	0.0596875 	0.005 	-0.129862 	0.163127 	0
0.05 	0.0603125 	0.005 	-0.123097 	0.16532 	0
0.05 	0.0609375 	0.005 	-0.116142 	0.16732 	0
0.05 	0.0615625 	0.005 	-0.109018 	0.169125 	0
0.05 	0.0621875 	0.005 	-0.101743 	0.170732 	0
0.05 	0.0628125 	0.005 	-0.0943384 	0.172138 	0
0.05 	0.0634375 	0.005 	-0.0868229 	0.173343 	0
0.05 	0.0640625 	0.005 	-0.0792163 	0.174345 	0
0.05 	0.0646875 	0.005 	-0.0715377 	0.175144 	0
0.05 	0.0653125 	0.005 	-0.0638059 	0.175741 	0
0.05 	0.0659375 	0.005 	-0.0560391 	0.176136 	0
0.05 	0.0665625 	0.005 	-0.0482551 	0.17633 	0
0.05 	0.0671875 	0.005 	-0.0404708 	0.176325 	0
0.05 	0.0678125 	0.005 	-0.0327026 	0.176123 	0
0.05 	0.0684375 	0.005 	-0.0249662 	0.175725 	0
0.05 	0.0690625 	0.005 	-0.0172762 	0.175135 	0
0.05 	0.0696875 	0.005 	-0.00964645 	0.174354 	0
0.05 	0.0703125 	0.005 	-0.00208994 	0.173386 	0
0.05 	0.0709375 	0.005 	0.00538149 	0.172234 	0
0.05 	0.0715625 	0.005 	0.0127571 	0.170902 	0
0.05 	0.0721875 	0.005 	0.0200273 	0.169391 	0
0.05 	0.0728125 	0.005 	0.0271837 	0.167707 	0
0.05 	0.0734375 	0.005 	0.0342197 	0.165852 	0
0.05 	0.0740625 	0.005 	0.0411299 	0.16383 	0
0.05 	0.0746875 	0.005 	0.0479108 	0.161644 	0
0.05 	0.0753125 	0.005 	0.0545609 	0.159299 	0
0.05 	0.0759375 	0.005 	0.0610813 	0.156797 	0
0.05 	0.0765625 	0.005 	0.0674752 	0.154142 	0
0.05 	0.0771875 	0.005 	0.0737494 	0.151338 	0
0.05 	0.0778125 	0.005 	0.0799141 	0.148387 	0
0.05 	0.0784375 	0.005 	0.0859838 	0.145292 	0
0.05 	0.0790625 	0.005 	0.0919779 	0.142056 	0
0.05 	0.0796875 	0.005 	0.0979217 	0.138681 	0
0.05 	0.0803125 	0.005 	0.103847 	0.13517 	0
0.05 	0.0809375 	0.005 	0.109795 	0.131525 	0
0.05 	0.0815625 	0.005 	0.115813 	0.127747 	0
0.05 	0.0821875 	0.005 	0.121962 	0.123838 	0
0.05 	0.0828125 	0.005 	0.128314 	0.119798 	0
0.05 	0.0834375 	0.005 	0.134955 	0.115629 	0
0.05 	0.0840625 	0.005 	0.141984 	0.111332 	0
0.05 	0.0846875 	0.005 	0.14952 	0.106907 	0
0.05 	0.0853125 	0.005 	0.157698 	0.102356 	0
0.05 	0.0859375 	0.005 	0.166673 	0.0976792 	0
0.05 	0.0865625 	0.005 	0.176622 	0.0928799 	0
0.05 	0.0871875 	0.005 	0.18774 	0.0879609 	0
0.05 	0.0878125 	0.005 	0.200245 	0.0829267 	0
0.05 	0.0884375 	0.005 	0.214372 	0.0777838 	0
0.05 	0.0890625 	0.005 	0.230375 	0.0725412 	0
0.05 	0.0896875 	0.005 	0.248522 	0.0672109 	0
0.05 	0.0903125 	0.005 	0.26909 	0.0618084 	0
0.05 	0.0909375 	0.005 	0.292361 	0.056354 	0
0.05 	0.0915625 	0.005 	0.31861 	0.0508727 	0
0.05 	0.0921875 	0.005 	0.348099 	0.0453956 	0
0.05 	0.0928125 	0.005 	0.381065 	0.0399601 	0
0.05 	0.0934375 	0.005 	0.417704 	0.0346103 	0
0.05 	0.0940625 	0.005 	0.458161 	0.0293976 	0
0.05 	0.0946875 	0.005 	0.502507 	0.0243809 	0
0.05 	0.0953125 	0.005 	0.550726 	0.0196255 	0
0.05 	0.0959375 	0.005 	0.602696 	0.0152033 	0
0.05 	0.0965625 	0.005 	0.658168 	0.0111909 	0
0.05 	0.0971875 	0.005 	0.716751 	0.00766851 	0
0.05 	0.0978125 	0.005 	0.7779 	0.00471451 	0
0.05 	0.0984375 	0.005 	0.8409 	0.0023997 	0
0.05 	0.0990625 	0.005 	0.904862 	0.000817341 	0
0.05 	0.0996875 	0.005 	0.968726 	0.000112157 	0
