/*--------------------------------*- C++ -*----------------------------------*\
  =========                 |
  \\      /  F ield         | OpenFOAM: The Open Source CFD Toolbox
   \\    /   O peration     | Website:  https://openfoam.org
    \\  /    A nd           | Version:  7
     \\/     M anipulation  |
\*---------------------------------------------------------------------------*/
FoamFile
{
    version     2.0;
    format      ascii;
    class       volScalarField;
    location    "0.4375";
    object      p;
}
// * * * * * * * * * * * * * * * * * * * * * * * * * * * * * * * * * * * * * //

dimensions      [0 2 -2 0 0 0 0];

internalField   nonuniform List<scalar> 
25600
(
1.85059e-09
8.6586e-06
7.2643e-06
-8.16885e-06
-3.74152e-05
-7.93879e-05
-0.000132568
-0.000195276
-0.000265838
-0.00034269
-0.000424387
-0.000509627
-0.000597237
-0.000686165
-0.000775476
-0.000864334
-0.000952005
-0.00103784
-0.00112125
-0.00120174
-0.00127885
-0.00135219
-0.00142144
-0.00148628
-0.00154648
-0.00160179
-0.00165204
-0.00169706
-0.00173671
-0.00177089
-0.0017995
-0.00182245
-0.00183968
-0.00185115
-0.00185681
-0.00185664
-0.00185062
-0.00183874
-0.00182098
-0.00179736
-0.00176788
-0.00173253
-0.00169134
-0.00164431
-0.00159147
-0.00153283
-0.00146844
-0.0013983
-0.00132245
-0.00124093
-0.00115376
-0.00106098
-0.00096265
-0.000858807
-0.000749504
-0.000634797
-0.000514744
-0.000389413
-0.000258881
-0.000123227
1.74614e-05
0.000163089
0.000313551
0.000468731
0.00062851
0.00079276
0.000961334
0.00113408
0.00131085
0.00149145
0.0016757
0.00186341
0.00205436
0.00224835
0.00244514
0.00264448
0.00284613
0.00304981
0.00325524
0.00346213
0.00367018
0.00387908
0.00408851
0.00429813
0.00450761
0.00471659
0.00492472
0.00513162
0.00533695
0.00554031
0.00574133
0.00593963
0.00613483
0.00632655
0.0065144
0.006698
0.00687698
0.00705096
0.00721959
0.0073825
0.00753934
0.00768979
0.00783353
0.00797023
0.0080996
0.00822137
0.00833527
0.00844107
0.00853855
0.00862751
0.00870778
0.00877922
0.0088417
0.00889513
0.00893944
0.0089746
0.0090006
0.00901745
0.00902521
0.00902397
0.00901383
0.00899496
0.00896751
0.00893171
0.00888781
0.00883606
0.00877678
0.00871031
0.00863701
0.00855728
0.00847154
0.00838025
0.0082839
0.008183
0.00807809
0.00796974
0.00785854
0.00774513
0.00763014
0.00751426
0.0073982
0.00728266
0.00716842
0.00705624
0.00694695
0.00684137
0.00674036
0.00664481
0.00655562
0.00647372
0.00640004
0.00633552
0.00628106
0.0062375
0.0062055
0.00618547
0.00617722
0.00617963
0.00619008
0.00620274
-8.75682e-06
-2.25786e-07
-3.16447e-06
-1.85581e-05
-4.53965e-05
-8.3001e-05
-0.000130371
-0.000186244
-0.000249296
-0.00031823
-0.000391811
-0.000468886
-0.000548394
-0.000629381
-0.000710969
-0.000792375
-0.000872897
-0.000951901
-0.00102883
-0.0011032
-0.00117454
-0.00124248
-0.00130667
-0.00136682
-0.00142267
-0.00147398
-0.00152055
-0.00156222
-0.00159883
-0.00163027
-0.00165644
-0.00167723
-0.00169259
-0.00170244
-0.00170675
-0.00170548
-0.00169859
-0.00168608
-0.00166793
-0.00164413
-0.00161468
-0.00157958
-0.00153884
-0.00149246
-0.00144048
-0.00138289
-0.00131974
-0.00125103
-0.0011768
-0.00109708
-0.0010119
-0.000921306
-0.000825336
-0.000724039
-0.000617466
-0.000505671
-0.000388715
-0.000266665
-0.000139597
-7.58942e-06
0.000129271
0.000270888
0.000417157
0.000567966
0.000723195
0.000882717
0.00104639
0.00121406
0.00138558
0.00156076
0.00173944
0.00192141
0.00210648
0.00229444
0.00248505
0.00267808
0.00287329
0.00307042
0.00326918
0.00346931
0.00367051
0.00387248
0.00407492
0.00427749
0.00447987
0.00468173
0.00488272
0.00508249
0.0052807
0.00547697
0.00567095
0.00586228
0.00605059
0.00623552
0.00641669
0.00659375
0.00676634
0.0069341
0.00709669
0.00725377
0.00740502
0.00755011
0.00768874
0.00782061
0.00794544
0.00806298
0.00817297
0.0082752
0.00836946
0.00845556
0.00853335
0.00860269
0.00866347
0.0087156
0.00875904
0.00879373
0.00881968
0.00883693
0.00884551
0.00884552
0.00883707
0.00882031
0.00879542
0.00876259
0.00872207
0.00867412
0.00861904
0.00855716
0.00848883
0.00841443
0.00833438
0.00824911
0.0081591
0.00806483
0.00796683
0.00786564
0.00776183
0.007656
0.00754876
0.00744077
0.00733269
0.00722521
0.00711903
0.0070149
0.00691356
0.00681579
0.00672239
0.00663414
0.00655188
0.0064764
0.00640852
0.00634902
0.00629861
0.00625791
0.00622737
0.00620716
0.00619693
0.00619578
0.00620272
0.00621538
-7.692e-06
2.33202e-06
-6.09425e-07
-1.56357e-05
-4.08812e-05
-7.56835e-05
-0.000119225
-0.000170462
-0.000228271
-0.000291542
-0.000359195
-0.0004302
-0.000503603
-0.000578518
-0.000654139
-0.00072973
-0.000804621
-0.000878211
-0.000949962
-0.00101939
-0.00108606
-0.0011496
-0.00120966
-0.00126595
-0.00131821
-0.00136619
-0.0014097
-0.00144857
-0.00148264
-0.00151178
-0.00153588
-0.00155485
-0.00156861
-0.00157709
-0.00158025
-0.00157803
-0.00157041
-0.00155736
-0.00153886
-0.0015149
-0.00148548
-0.00145058
-0.00141023
-0.00136442
-0.00131317
-0.00125649
-0.0011944
-0.00112693
-0.00105409
-0.000975931
-0.000892474
-0.000803757
-0.000709824
-0.000610721
-0.000506497
-0.000397208
-0.000282914
-0.000163682
-3.95864e-05
8.92958e-05
0.000222877
0.000361061
0.000503747
0.000650823
0.000802171
0.000957666
0.00111717
0.00128053
0.00144759
0.00161819
0.00179215
0.00196928
0.00214938
0.00233224
0.00251766
0.00270539
0.00289519
0.00308682
0.00328
0.00347447
0.00366995
0.00386613
0.00406272
0.00425941
0.00445589
0.00465183
0.0048469
0.00504075
0.00523306
0.00542346
0.00561162
0.00579718
0.0059798
0.00615911
0.00633478
0.00650645
0.00667377
0.00683641
0.00699404
0.00714633
0.00729297
0.00743365
0.00756809
0.00769599
0.0078171
0.00793116
0.00803795
0.00813724
0.00822885
0.0083126
0.00838834
0.00845594
0.00851531
0.00856637
0.00860905
0.00864334
0.00866924
0.00868676
0.00869598
0.00869698
0.00868987
0.00867479
0.00865192
0.00862146
0.00858365
0.00853874
0.00848702
0.00842881
0.00836446
0.00829433
0.00821883
0.00813837
0.00805343
0.00796446
0.00787197
0.00777649
0.00767856
0.00757875
0.00747767
0.00737593
0.00727416
0.00717302
0.00707318
0.00697533
0.00688018
0.00678846
0.0067009
0.00661824
0.00654121
0.00647055
0.00640697
0.00635114
0.00630368
0.00626508
0.00623573
0.00621576
0.00620493
0.00620269
0.00620966
0.00622583
7.20436e-06
1.72699e-05
1.39956e-05
-1.01604e-06
-2.55006e-05
-5.87157e-05
-9.98882e-05
-0.000148069
-0.000202266
-0.000261492
-0.000324783
-0.000391222
-0.000459932
-0.000530105
-0.000600997
-0.000671916
-0.000742235
-0.000811387
-0.000878849
-0.000944162
-0.00100691
-0.00106673
-0.00112327
-0.00117626
-0.00122542
-0.00127052
-0.00131138
-0.0013478
-0.00137963
-0.00140675
-0.00142903
-0.00144638
-0.00145873
-0.00146599
-0.00146811
-0.00146505
-0.00145676
-0.00144323
-0.00142442
-0.00140033
-0.00137094
-0.00133624
-0.00129624
-0.00125094
-0.00120036
-0.0011445
-0.00108339
-0.00101704
-0.000945479
-0.000868735
-0.000786841
-0.000699834
-0.000607754
-0.000510646
-0.000408556
-0.000301541
-0.000189662
-7.29831e-05
4.84242e-05
0.000174482
0.000305102
0.000440192
0.000579652
0.000723372
0.000871236
0.00102312
0.00117889
0.00133839
0.00150148
0.00166799
0.00183775
0.00201057
0.00218626
0.00236462
0.00254543
0.00272848
0.00291351
0.00310029
0.00328856
0.00347806
0.00366851
0.00385962
0.0040511
0.00424266
0.00443399
0.00462477
0.00481467
0.00500338
0.00519055
0.00537586
0.00555897
0.00573954
0.00591723
0.0060917
0.00626261
0.00642963
0.00659241
0.00675064
0.00690399
0.00705216
0.00719484
0.00733173
0.00746257
0.00758706
0.00770497
0.00781605
0.00792007
0.00801684
0.00810616
0.00818789
0.00826186
0.00832797
0.00838611
0.00843622
0.00847824
0.00851215
0.00853795
0.00855569
0.00856541
0.0085672
0.00856118
0.00854748
0.00852628
0.00849778
0.0084622
0.00841981
0.00837088
0.00831572
0.00825467
0.00818808
0.00811635
0.00803989
0.00795914
0.00787456
0.00778662
0.00769585
0.00760277
0.00750793
0.00741191
0.00731528
0.00721867
0.00712268
0.00702797
0.00693518
0.006845
0.0067581
0.00667516
0.00659686
0.00652389
0.00645692
0.00639659
0.0063435
0.00629822
0.00626121
0.00623283
0.0062133
0.00620256
0.00620039
0.00620855
0.00622835
3.59488e-05
4.37318e-05
3.88965e-05
2.31111e-05
-1.41114e-06
-3.38905e-05
-7.35812e-05
-0.000119617
-0.000171109
-0.000227171
-0.000286947
-0.00034961
-0.000414367
-0.000480484
-0.000547269
-0.000614083
-0.000680346
-0.000745517
-0.000809108
-0.000870682
-0.000929838
-0.000986219
-0.00103951
-0.00108941
-0.00113568
-0.00117809
-0.00121643
-0.00125054
-0.00128025
-0.00130544
-0.00132599
-0.0013418
-0.00135278
-0.00135887
-0.00136
-0.00135613
-0.00134721
-0.00133321
-0.00131411
-0.00128989
-0.00126053
-0.00122603
-0.00118638
-0.0011416
-0.00109168
-0.00103664
-0.000976493
-0.000911258
-0.000840957
-0.000765615
-0.000685266
-0.000599946
-0.000509693
-0.000414549
-0.000314561
-0.000209785
-0.00010028
1.38918e-05
0.00013266
0.000255948
0.000383668
0.000515731
0.000652038
0.000792482
0.000936951
0.00108532
0.00123745
0.00139321
0.00155245
0.001715
0.00188069
0.00204934
0.00222078
0.00239479
0.00257118
0.00274971
0.00293017
0.0031123
0.00329587
0.0034806
0.00366625
0.00385252
0.00403914
0.0042258
0.00441223
0.0045981
0.00478311
0.00496693
0.00514925
0.00532974
0.00550808
0.00568393
0.00585697
0.00602687
0.0061933
0.00635593
0.00651445
0.00666853
0.00681786
0.00696216
0.00710112
0.00723446
0.00736191
0.00748321
0.00759811
0.00770639
0.00780782
0.00790222
0.0079894
0.00806921
0.00814152
0.00820621
0.00826318
0.00831238
0.00835376
0.00838728
0.00841298
0.00843087
0.00844101
0.0084435
0.00843845
0.00842599
0.00840629
0.00837956
0.00834601
0.00830589
0.00825948
0.00820708
0.00814901
0.00808564
0.00801732
0.00794448
0.00786753
0.00778691
0.0077031
0.00761658
0.00752787
0.0074375
0.00734601
0.00725397
0.00716196
0.00707056
0.0069804
0.0068921
0.00680628
0.00672358
0.00664465
0.00657011
0.0065006
0.00643673
0.0063791
0.00632827
0.00628476
0.006249
0.0062214
0.00620224
0.0061916
0.00618955
0.00619849
0.00622038
7.76383e-05
8.11554e-05
7.35122e-05
5.6066e-05
3.06679e-05
-1.91139e-06
-4.09611e-05
-8.56969e-05
-0.000135318
-0.000189039
-0.00024609
-0.000305723
-0.000367236
-0.000429951
-0.000493239
-0.000556514
-0.000619231
-0.000680888
-0.000741034
-0.00079925
-0.000855157
-0.000908419
-0.000958727
-0.0010058
-0.0010494
-0.0010893
-0.0011253
-0.00115724
-0.00118497
-0.00120834
-0.00122725
-0.0012416
-0.0012513
-0.00125627
-0.00125646
-0.00125182
-0.0012423
-0.00122786
-0.00120849
-0.00118416
-0.00115485
-0.00112055
-0.00108126
-0.00103699
-0.000987732
-0.000933497
-0.000874302
-0.000810164
-0.000741101
-0.00066714
-0.000588311
-0.000504648
-0.000416187
-0.000322968
-0.00022504
-0.000122455
-1.52704e-05
9.64535e-05
0.000212646
0.000333233
0.000458131
0.000587248
0.000720493
0.000857759
0.000998935
0.0011439
0.00129252
0.00144467
0.00160019
0.00175892
0.0019207
0.00208536
0.00225271
0.00242256
0.00259471
0.00276894
0.00294502
0.00312273
0.00330182
0.00348204
0.00366312
0.0038448
0.0040268
0.00420885
0.00439065
0.00457189
0.00475228
0.00493151
0.00510926
0.00528522
0.00545908
0.00563051
0.0057992
0.00596482
0.00612706
0.0062856
0.00644012
0.00659033
0.00673592
0.00687661
0.0070121
0.00714213
0.00726644
0.00738476
0.00749686
0.00760253
0.00770155
0.00779374
0.00787892
0.00795695
0.00802769
0.00809105
0.00814692
0.00819525
0.008236
0.00826915
0.0082947
0.0083127
0.0083232
0.00832629
0.00832208
0.00831071
0.00829234
0.00826718
0.00823543
0.00819734
0.00815319
0.00810325
0.00804786
0.00798735
0.0079221
0.00785248
0.00777892
0.00770185
0.00762171
0.00753898
0.00745415
0.00736774
0.00728027
0.00719228
0.00710432
0.00701695
0.00693077
0.00684635
0.0067643
0.00668521
0.00660969
0.00653832
0.00647169
0.00641037
0.00635492
0.00630586
0.00626369
0.00622884
0.00620171
0.00618268
0.00617191
0.00616964
0.00617857
0.00620088
0.000130876
0.000128608
0.000117077
9.71198e-05
7.00398e-05
3.65598e-05
-2.65139e-06
-4.68782e-05
-9.54203e-05
-0.000147574
-0.000202647
-0.000259979
-0.000318927
-0.000378883
-0.000439279
-0.000499572
-0.000559259
-0.000617883
-0.000675018
-0.000730272
-0.000783296
-0.000833764
-0.000881383
-0.000925892
-0.000967054
-0.00100466
-0.00103851
-0.00106846
-0.00109434
-0.00111603
-0.00113342
-0.0011464
-0.0011549
-0.00115883
-0.00115815
-0.00115279
-0.00114271
-0.00112788
-0.00110826
-0.00108384
-0.00105458
-0.0010205
-0.000981575
-0.00093781
-0.000889204
-0.000835766
-0.000777508
-0.000714445
-0.000646596
-0.000573986
-0.000496644
-0.000414598
-0.000327883
-0.000236541
-0.000140617
-4.01633e-05
6.47678e-05
0.000174117
0.000287814
0.000405786
0.000527953
0.000654228
0.00078452
0.000918724
0.00105673
0.00119843
0.00134368
0.00149236
0.00164432
0.00179941
0.00195746
0.00211831
0.00228178
0.00244767
0.0026158
0.00278595
0.0029579
0.00313143
0.00330629
0.00348224
0.00365903
0.0038364
0.00401408
0.0041918
0.00436926
0.00454618
0.00472225
0.00489719
0.00507069
0.00524244
0.00541214
0.00557946
0.00574411
0.00590577
0.00606413
0.00621888
0.00636972
0.00651635
0.00665849
0.00679585
0.00692815
0.00705513
0.00717654
0.00729212
0.00740165
0.00750491
0.00760171
0.00769186
0.00777519
0.00785157
0.00792087
0.00798298
0.00803782
0.00808534
0.00812548
0.00815824
0.00818363
0.00820169
0.00821247
0.00821606
0.00821257
0.00820214
0.00818493
0.00816114
0.00813096
0.00809466
0.00805247
0.0080047
0.00795166
0.00789367
0.0078311
0.00776432
0.00769374
0.00761976
0.00754283
0.00746341
0.00738198
0.00729901
0.00721503
0.00713053
0.00704606
0.00696215
0.00687936
0.00679824
0.00671937
0.00664329
0.00657058
0.00650179
0.00643747
0.00637815
0.00632436
0.00627659
0.0062353
0.00620095
0.00617394
0.00615468
0.0061434
0.00614044
0.00614849
0.00616971
0.000194052
0.000184894
0.000168585
0.000145366
0.000115876
8.07763e-05
4.06968e-05
-3.73884e-06
-5.19045e-05
-0.000103177
-0.000156951
-0.000212628
-0.000269634
-0.000327423
-0.000385476
-0.000443302
-0.000500446
-0.000556482
-0.000611015
-0.000663689
-0.000714171
-0.000762158
-0.000807377
-0.000849579
-0.000888537
-0.000924054
-0.000955949
-0.000984061
-0.00100825
-0.00102839
-0.00104437
-0.00105609
-0.00106348
-0.00106645
-0.00106496
-0.00105894
-0.00104835
-0.00103315
-0.00101332
-0.000988832
-0.000959662
-0.000925804
-0.000887247
-0.000843989
-0.000796032
-0.000743383
-0.00068605
-0.000624045
-0.000557388
-0.000486102
-0.000410212
-0.000329746
-0.000244736
-0.000155224
-6.12525e-05
3.71305e-05
0.000139873
0.000246916
0.000358194
0.000473636
0.000593163
0.000716694
0.000844137
0.000975393
0.00111035
0.00124891
0.00139093
0.0015363
0.00168485
0.00183646
0.00199095
0.00214817
0.00230795
0.00247009
0.00263441
0.00280069
0.00296874
0.00313831
0.00330919
0.00348114
0.00365389
0.00382722
0.00400084
0.0041745
0.00434791
0.00452079
0.00469286
0.00486381
0.00503335
0.00520119
0.00536703
0.00553055
0.00569146
0.00584946
0.00600424
0.0061555
0.00630294
0.00644628
0.00658524
0.00671954
0.00684891
0.00697309
0.00709184
0.0072049
0.00731207
0.00741313
0.00750789
0.00759616
0.0076778
0.00775266
0.00782061
0.00788157
0.00793545
0.0079822
0.00802176
0.00805414
0.00807935
0.00809742
0.00810841
0.00811241
0.00810953
0.00809989
0.00808368
0.00806106
0.00803225
0.00799748
0.007957
0.00791111
0.0078601
0.0078043
0.00774406
0.00767975
0.00761174
0.00754045
0.0074663
0.00738974
0.00731122
0.00723121
0.00715021
0.0070687
0.00698719
0.0069062
0.00682625
0.00674788
0.00667162
0.00659801
0.00652756
0.0064608
0.00639825
0.00634042
0.00628779
0.00624083
0.00620001
0.00616573
0.00613843
0.00611852
0.00610629
0.00610209
0.00610844
0.00612729
0.000265594
0.000248759
0.000226982
0.000199864
0.000167332
0.000129987
8.84075e-05
4.3138e-05
-5.27292e-06
-5.62849e-05
-0.000109356
-0.000163958
-0.000219584
-0.000275739
-0.000331956
-0.000387794
-0.000442839
-0.0004967
-0.000549021
-0.000599469
-0.000647736
-0.000693544
-0.000736635
-0.000776777
-0.000813759
-0.000847393
-0.00087751
-0.000903957
-0.000926599
-0.000945319
-0.000960008
-0.000970575
-0.000976941
-0.000979035
-0.000976797
-0.000970176
-0.000959129
-0.000943618
-0.000923608
-0.000899078
-0.000870012
-0.000836395
-0.000798216
-0.000755471
-0.000708164
-0.000656297
-0.000599876
-0.000538916
-0.000473432
-0.000403446
-0.000328978
-0.000250057
-0.000166714
-7.89861e-05
1.30836e-05
0.000109451
0.000210067
0.000314873
0.000423806
0.000536797
0.000653773
0.000774654
0.00089935
0.00102777
0.0011598
0.00129534
0.00143427
0.00157645
0.00172176
0.00187004
0.00202114
0.00217491
0.00233118
0.00248976
0.00265046
0.0028131
0.00297745
0.00314331
0.00331044
0.00347861
0.00364758
0.00381712
0.00398695
0.00415682
0.00432646
0.00449558
0.0046639
0.00483115
0.00499703
0.00516125
0.00532351
0.00548353
0.005641
0.00579562
0.0059471
0.00609515
0.00623948
0.0063798
0.00651585
0.00664735
0.00677403
0.00689565
0.00701196
0.00712273
0.00722774
0.00732678
0.00741967
0.00750623
0.00758631
0.00765978
0.0077265
0.0077864
0.00783938
0.0078854
0.00792441
0.00795642
0.00798143
0.00799947
0.00801061
0.00801493
0.00801254
0.00800358
0.00798819
0.00796657
0.00793892
0.00790546
0.00786645
0.00782217
0.00777291
0.00771898
0.00766074
0.00759853
0.00753273
0.00746373
0.00739195
0.00731781
0.00724176
0.00716426
0.00708577
0.00700676
0.00692771
0.00684914
0.00677153
0.00669539
0.00662122
0.00654954
0.00648083
0.0064156
0.00635433
0.00629749
0.00624556
0.00619898
0.00615817
0.00612355
0.00609554
0.00607456
0.00606089
0.00605491
0.00605883
0.00607429
0.000344016
0.00031897
0.000291205
0.000259674
0.000223573
0.000183439
0.000139814
9.3163e-05
4.395e-05
-7.34433e-06
-6.02487e-05
-0.000114303
-0.000169052
-0.000224057
-0.000278902
-0.000333191
-0.000386548
-0.000438625
-0.000489096
-0.000537653
-0.000584017
-0.00062793
-0.000669155
-0.000707478
-0.000742703
-0.000774656
-0.000803174
-0.000828119
-0.000849364
-0.000866796
-0.000880312
-0.000889829
-0.000895269
-0.000896564
-0.000893656
-0.0008865
-0.000875049
-0.000859263
-0.000839113
-0.000814579
-0.000785641
-0.000752282
-0.000714494
-0.000672272
-0.000625617
-0.000574527
-0.000519013
-0.000459085
-0.000394757
-0.000326047
-0.000252974
-0.000175566
-9.38514e-05
-7.86585e-06
8.23522e-05
0.000176759
0.000275307
0.000377941
0.000484602
0.000595223
0.000709734
0.000828056
0.000950106
0.00107579
0.00120501
0.00133766
0.00147362
0.00161276
0.00175496
0.00190007
0.00204795
0.00219844
0.00235138
0.00250658
0.00266387
0.00282306
0.00298393
0.00314629
0.00330989
0.00347453
0.00363997
0.00380596
0.00397226
0.0041386
0.00430471
0.00447035
0.00463521
0.00479903
0.00496152
0.0051224
0.00528137
0.00543816
0.00559246
0.00574399
0.00589245
0.00603756
0.00617904
0.00631662
0.00645001
0.00657896
0.0067032
0.00682249
0.00693658
0.00704526
0.00714831
0.00724553
0.00733672
0.00742172
0.00750038
0.00757258
0.00763818
0.00769709
0.00774925
0.00779459
0.00783309
0.00786472
0.00788951
0.0079075
0.00791873
0.0079233
0.0079213
0.00791288
0.00789818
0.00787739
0.00785071
0.00781835
0.00778057
0.00773764
0.00768985
0.0076375
0.00758094
0.0075205
0.00745655
0.00738947
0.00731967
0.00724755
0.00717356
0.00709812
0.00702168
0.00694471
0.00686767
0.00679103
0.00671527
0.00664087
0.00656832
0.00649808
0.00643063
0.00636645
0.00630598
0.00624969
0.00619801
0.00615136
0.00611015
0.00607478
0.00604565
0.00602315
0.0060076
0.00599934
0.00600021
0.00601149
0.000427959
0.000394351
0.00036022
0.000323875
0.000283765
0.000240387
0.000194252
0.000145737
9.52431e-05
4.31837e-05
-1.00363e-05
-6.40076e-05
-0.000118334
-0.000172631
-0.000226527
-0.000279668
-0.000331721
-0.000382373
-0.000431328
-0.000478309
-0.000523064
-0.000565355
-0.000604967
-0.000641702
-0.000675383
-0.000705847
-0.000732946
-0.000756551
-0.000776543
-0.000792817
-0.000805281
-0.000813854
-0.000818463
-0.000819045
-0.000815544
-0.000807916
-0.000796115
-0.000780104
-0.000759858
-0.000735354
-0.000706569
-0.000673491
-0.000636111
-0.000594422
-0.000548422
-0.000498112
-0.000443499
-0.000384593
-0.000321406
-0.000253951
-0.000182248
-0.000106322
-2.62002e-05
5.8085e-05
0.000146498
0.000238996
0.000335535
0.000436063
0.00054052
0.000648848
0.000760977
0.000876832
0.000996333
0.00111939
0.00124591
0.00137579
0.0015089
0.00164514
0.00178438
0.00192647
0.00207128
0.00221866
0.00236844
0.00252045
0.00267452
0.00283045
0.00298806
0.00314712
0.00330742
0.00346875
0.00363088
0.00379357
0.00395658
0.00411964
0.0042825
0.00444491
0.00460657
0.00476723
0.0049266
0.00508441
0.00524037
0.0053942
0.00554561
0.00569432
0.00584003
0.00598247
0.00612136
0.00625644
0.00638742
0.00651406
0.00663609
0.00675328
0.00686538
0.00697218
0.00707346
0.00716902
0.00725868
0.00734228
0.00741967
0.00749071
0.00755529
0.00761331
0.00766471
0.00770943
0.00774743
0.00777871
0.00780328
0.00782117
0.00783245
0.00783718
0.00783549
0.00782749
0.00781335
0.00779324
0.00776734
0.00773589
0.00769912
0.0076573
0.00761072
0.00755967
0.00750448
0.0074455
0.00738306
0.00731755
0.00724935
0.00717888
0.00710654
0.00703275
0.00695795
0.00688259
0.0068071
0.00673195
0.00665758
0.00658447
0.00651306
0.0064438
0.00637716
0.00631358
0.00625348
0.0061973
0.00614544
0.00609831
0.0060563
0.00601978
0.00598913
0.00596473
0.00594687
0.00593589
0.00593319
0.00593967
0.000516182
0.000473803
0.000433039
0.000391565
0.000347099
0.0003001
0.000251052
0.000200268
0.000148077
9.48256e-05
4.08719e-05
-1.34327e-05
-6.77458e-05
-0.000121731
-0.00017506
-0.000227424
-0.000278526
-0.000328086
-0.000375839
-0.00042154
-0.00046496
-0.000505885
-0.000544122
-0.000579492
-0.000611832
-0.000640994
-0.000666847
-0.000689269
-0.000708152
-0.000723401
-0.000734932
-0.000742667
-0.00074654
-0.000746495
-0.000742479
-0.000734445
-0.000722352
-0.000706169
-0.000685871
-0.000661433
-0.000632833
-0.00060006
-0.000563107
-0.000521962
-0.000476626
-0.000427098
-0.000373385
-0.000315493
-0.000253432
-0.000187214
-0.000116858
-4.2386e-05
3.61767e-05
0.0001188
0.000205453
0.000296094
0.000390679
0.000489161
0.000591485
0.000697594
0.000807422
0.000920897
0.00103794
0.00115848
0.0012824
0.00140962
0.00154002
0.00167349
0.0018099
0.00194912
0.00209102
0.00223544
0.00238224
0.00253123
0.00268227
0.00283514
0.00298967
0.00314565
0.00330287
0.00346112
0.00362017
0.00377979
0.00393974
0.00409977
0.00425962
0.00441905
0.00457777
0.00473553
0.00489205
0.00504705
0.00520026
0.0053514
0.00550018
0.00564632
0.00578954
0.00592957
0.00606613
0.00619896
0.00632778
0.00645234
0.0065724
0.0066877
0.00679802
0.00690313
0.00700283
0.00709692
0.00718522
0.00726757
0.00734381
0.00741382
0.00747748
0.00753471
0.00758542
0.00762956
0.00766711
0.00769805
0.00772239
0.00774017
0.00775144
0.00775629
0.00775481
0.00774714
0.00773342
0.00771384
0.00768857
0.00765783
0.00762186
0.00758093
0.00753531
0.0074853
0.00743121
0.00737337
0.00731213
0.00724785
0.00718092
0.00711172
0.00704065
0.00696813
0.00689457
0.0068204
0.00674605
0.00667196
0.00659856
0.00652629
0.00645559
0.0063869
0.00632063
0.00625722
0.00619707
0.00614059
0.00608816
0.00604016
0.00599696
0.00595892
0.00592639
0.00589971
0.00587917
0.00586508
0.00585841
0.00585963
0.000607563
0.000556306
0.000508723
0.000461892
0.000412795
0.000361863
0.000309571
0.000256168
0.000201915
0.000147109
9.20522e-05
3.70434e-05
-1.76209e-05
-7.16489e-05
-0.000124758
-0.000176679
-0.00022715
-0.000275923
-0.000322767
-0.000367462
-0.000409804
-0.000449607
-0.000486696
-0.00052091
-0.000552104
-0.000580148
-0.000604921
-0.000626313
-0.000644229
-0.000658583
-0.000669296
-0.0006763
-0.000679535
-0.000678951
-0.000674495
-0.000666123
-0.000653802
-0.000637502
-0.000617195
-0.000592861
-0.00056448
-0.000532041
-0.000495534
-0.000454951
-0.000410288
-0.000361548
-0.000308734
-0.000251851
-0.000190904
-0.000125908
-5.6879e-05
1.61647e-05
9.32014e-05
0.000174202
0.000259136
0.000347966
0.000440651
0.000537149
0.000637406
0.000741368
0.000848973
0.000960154
0.00107484
0.00119295
0.00131439
0.00143906
0.00156687
0.00169769
0.00183141
0.0019679
0.00210703
0.00224866
0.00239264
0.00253879
0.00268697
0.00283698
0.00298863
0.00314172
0.00329606
0.00345144
0.00360763
0.00376441
0.00392154
0.00407877
0.00423586
0.00439256
0.00454859
0.0047037
0.00485761
0.00501007
0.00516078
0.00530949
0.00545589
0.00559973
0.00574072
0.00587858
0.00601306
0.00614388
0.00627077
0.00639349
0.00651179
0.00662543
0.00673417
0.00683779
0.0069361
0.00702889
0.00711599
0.00719723
0.00727246
0.00734157
0.00740442
0.00746093
0.00751103
0.00755465
0.00759178
0.0076224
0.00764652
0.00766416
0.0076754
0.0076803
0.00767896
0.00767152
0.00765812
0.00763892
0.00761412
0.00758393
0.00754858
0.00750832
0.00746344
0.00741421
0.00736095
0.00730398
0.00724363
0.00718028
0.00711428
0.00704601
0.00697586
0.00690423
0.00683153
0.00675817
0.00668456
0.00661113
0.00653829
0.00646647
0.00639607
0.00632752
0.00626123
0.00619759
0.006137
0.00607983
0.00602645
0.00597722
0.00593248
0.00589257
0.00585782
0.00582852
0.00580497
0.00578746
0.00577648
0.0057721
0.000701082
0.000640907
0.000586399
0.000534036
0.000480093
0.000424987
0.000369178
0.000312858
0.000256238
0.000199562
0.000143077
8.70395e-05
3.17015e-05
-2.269e-05
-7.58931e-05
-0.000127673
-0.000177804
-0.000226073
-0.000272274
-0.000316218
-0.000357725
-0.000396633
-0.000432786
-0.000466044
-0.000496281
-0.000523379
-0.000547232
-0.000567744
-0.000584831
-0.000598415
-0.000608426
-0.000614807
-0.000617503
-0.000616463
-0.000611643
-0.000603005
-0.000590519
-0.000574157
-0.00055389
-0.000529701
-0.000501575
-0.0004695
-0.000433462
-0.000393457
-0.000349482
-0.000301538
-0.000249625
-0.000193746
-0.000133907
-7.01203e-05
-2.39819e-06
6.92422e-05
0.000144781
0.000224193
0.000307449
0.000394514
0.000485352
0.000579921
0.000678174
0.00078006
0.000885519
0.000994488
0.0011069
0.00122268
0.00134174
0.00146398
0.0015893
0.0017176
0.00184876
0.00198267
0.00211918
0.00225817
0.00239948
0.00254297
0.00268846
0.00283578
0.00298474
0.00313515
0.00328682
0.00343953
0.00359308
0.00374724
0.00390177
0.00405644
0.004211
0.0043652
0.00451878
0.00467148
0.00482304
0.0049732
0.00512167
0.00526819
0.00541247
0.00555425
0.00569325
0.0058292
0.00596183
0.00609087
0.00621608
0.00633718
0.00645394
0.00656612
0.00667349
0.00677582
0.00687292
0.00696459
0.00705064
0.00713093
0.00720529
0.00727361
0.00733575
0.00739164
0.0074412
0.00748437
0.00752113
0.00755145
0.00757535
0.00759285
0.00760402
0.00760893
0.00760767
0.00760037
0.00758718
0.00756826
0.00754378
0.00751397
0.00747905
0.00743928
0.00739491
0.00734624
0.00729355
0.00723718
0.00717746
0.00711472
0.00704934
0.00698168
0.00691211
0.00684103
0.00676883
0.00669591
0.00662268
0.00654953
0.00647687
0.0064051
0.00633463
0.00626585
0.00619914
0.0061349
0.00607349
0.00601527
0.00596059
0.00590979
0.00586319
0.00582109
0.0057838
0.00575159
0.00572474
0.00570355
0.00568801
0.00567779
0.000795805
0.000726737
0.000665244
0.000607229
0.000548281
0.000488806
0.000429255
0.000369775
0.000310528
0.000251706
0.000193514
0.000136164
7.98661e-05
2.48258e-05
-2.87495e-05
-8.06611e-05
-0.000130719
-0.000178738
-0.000224543
-0.000267971
-0.000308869
-0.000347093
-0.000382512
-0.000415004
-0.000444461
-0.000470778
-0.000493865
-0.000513642
-0.000530032
-0.000542969
-0.000552394
-0.000558256
-0.000560507
-0.000559098
-0.000553993
-0.000545162
-0.000532575
-0.000516204
-0.000496027
-0.00047203
-0.000444197
-0.000412514
-0.000376972
-0.000337568
-0.000294297
-0.000247157
-0.000196149
-0.000141274
-8.25373e-05
-1.99474e-05
4.64836e-05
0.000116742
0.000190811
0.000268666
0.000350281
0.000435625
0.000524664
0.000617361
0.000713672
0.000813546
0.000916932
0.00102377
0.001134
0.00124754
0.00136431
0.00148422
0.00160718
0.00173308
0.00186181
0.00199326
0.0021273
0.0022638
0.00240261
0.00254359
0.00268656
0.00283137
0.00297782
0.00312574
0.00327493
0.00342518
0.0035763
0.00372804
0.0038802
0.00403252
0.00418478
0.00433672
0.00448808
0.00463862
0.00478808
0.00493617
0.00508264
0.00522722
0.00536962
0.00550959
0.00564684
0.00578111
0.00591213
0.00603964
0.00616337
0.00628308
0.00639852
0.00650946
0.00661565
0.00671688
0.00681295
0.00690367
0.00698884
0.00706832
0.00714195
0.0072096
0.00727116
0.00732652
0.00737562
0.0074184
0.00745483
0.00748489
0.00750858
0.00752594
0.00753702
0.0075419
0.00754066
0.00753343
0.00752036
0.00750159
0.00747732
0.00744774
0.0074131
0.00737362
0.00732957
0.00728122
0.00722888
0.00717286
0.00711349
0.0070511
0.00698605
0.00691868
0.00684938
0.00677852
0.00670649
0.00663367
0.00656045
0.00648723
0.00641439
0.00634231
0.0062714
0.00620202
0.00613455
0.00606935
0.00600678
0.00594718
0.00589087
0.00583817
0.0057894
0.00574482
0.00570471
0.00566933
0.00563894
0.00561384
0.00559355
0.00557732
0.000890885
0.000812979
0.000744487
0.000680748
0.000616678
0.000552678
0.00048921
0.000426372
0.000364274
0.000303073
0.000242935
0.000184024
0.000126513
7.0573e-05
1.63761e-05
-3.59143e-05
-8.61381e-05
-0.000134139
-0.000179774
-0.000222903
-0.000263397
-0.000301135
-0.000336009
-0.000367914
-0.000396757
-0.000422451
-0.000444924
-0.000464103
-0.000479925
-0.000492335
-0.000501287
-0.000506732
-0.000508629
-0.000506938
-0.000501631
-0.000492677
-0.000480051
-0.00046373
-0.000443697
-0.000419936
-0.000392434
-0.000361178
-0.000326162
-0.000287381
-0.000244831
-0.000198508
-0.000148411
-9.45412e-05
-3.6903e-05
2.44983e-05
8.96525e-05
0.000158549
0.000231172
0.0003075
0.000387509
0.000471173
0.000558461
0.000649338
0.000743762
0.000841691
0.000943076
0.00104786
0.00115599
0.00126738
0.00138196
0.00149965
0.00162034
0.00174396
0.00187039
0.00199951
0.00213121
0.00226536
0.00240183
0.00254045
0.00268108
0.00282354
0.00296767
0.00311328
0.00326018
0.00340817
0.00355705
0.00370659
0.00385659
0.00400679
0.00415696
0.00430687
0.00445625
0.00460486
0.00475243
0.00489871
0.00504341
0.00518629
0.00532705
0.00546544
0.00560118
0.00573401
0.00586365
0.00598985
0.00611234
0.00623087
0.00634521
0.0064551
0.00656032
0.00666064
0.00675587
0.0068458
0.00693026
0.00700908
0.00708211
0.00714922
0.0072103
0.00726524
0.00731396
0.00735642
0.00739258
0.00742241
0.00744592
0.00746315
0.00747413
0.00747894
0.00747768
0.00747046
0.00745741
0.00743871
0.00741452
0.00738504
0.00735051
0.00731116
0.00726724
0.00721902
0.00716681
0.00711091
0.00705164
0.00698934
0.00692433
0.00685698
0.00678764
0.00671669
0.00664451
0.00657146
0.00649793
0.00642429
0.00635093
0.00627821
0.00620651