/*--------------------------------*- C++ -*----------------------------------*\
  =========                 |
  \\      /  F ield         | OpenFOAM: The Open Source CFD Toolbox
   \\    /   O peration     | Website:  https://openfoam.org
    \\  /    A nd           | Version:  7
     \\/     M anipulation  |
\*---------------------------------------------------------------------------*/
FoamFile
{
    version     2.0;
    format      ascii;
    class       surfaceScalarField;
    location    "0.4375";
    object      phi;
}
// * * * * * * * * * * * * * * * * * * * * * * * * * * * * * * * * * * * * * //

dimensions      [0 3 -1 0 0 0 0];

internalField   nonuniform List<scalar> 
50880
(
7.90506e-12
-7.90589e-12
3.71557e-11
-2.92487e-11
7.71204e-11
-3.99676e-11
1.17949e-10
-4.08249e-11
1.53142e-10
-3.51903e-11
1.78499e-10
-2.53614e-11
1.91358e-10
-1.28564e-11
1.90085e-10
1.27095e-12
1.73771e-10
1.63152e-11
1.41985e-10
3.17846e-11
9.46466e-11
4.73381e-11
3.19165e-11
6.27344e-11
-4.58753e-11
7.77929e-11
-1.38272e-10
9.23983e-11
-2.44732e-10
1.0646e-10
-3.64651e-10
1.19918e-10
-4.97385e-10
1.32736e-10
-6.42268e-10
1.44883e-10
-7.9862e-10
1.56349e-10
-9.65755e-10
1.67132e-10
-1.14299e-09
1.77232e-10
-1.32965e-09
1.8666e-10
-1.52508e-09
1.95426e-10
-1.72862e-09
2.03543e-10
-1.93965e-09
2.11031e-10
-2.15756e-09
2.17908e-10
-2.38175e-09
2.24192e-10
-2.61166e-09
2.29907e-10
-2.84673e-09
2.35072e-10
-3.08643e-09
2.39702e-10
-3.33025e-09
2.43822e-10
-3.5777e-09
2.47452e-10
-3.8283e-09
2.50605e-10
-4.08161e-09
2.53303e-10
-4.33717e-09
2.55565e-10
-4.59457e-09
2.57403e-10
-4.85341e-09
2.58832e-10
-5.11328e-09
2.59868e-10
-5.3738e-09
2.60524e-10
-5.63461e-09
2.60808e-10
-5.89534e-09
2.60733e-10
-6.15565e-09
2.60309e-10
-6.41519e-09
2.59541e-10
-6.67363e-09
2.58438e-10
-6.93063e-09
2.57005e-10
-7.18588e-09
2.55248e-10
-7.43905e-09
2.53171e-10
-7.68983e-09
2.50777e-10
-7.9379e-09
2.48071e-10
-8.18295e-09
2.45053e-10
-8.42468e-09
2.41725e-10
-8.66277e-09
2.38087e-10
-8.89691e-09
2.34141e-10
-9.1268e-09
2.29887e-10
-9.35212e-09
2.25324e-10
-9.57257e-09
2.20451e-10
-9.78784e-09
2.15268e-10
-9.99761e-09
2.09775e-10
-1.02016e-08
2.0397e-10
-1.03994e-08
1.97854e-10
-1.05909e-08
1.91425e-10
-1.07755e-08
1.84685e-10
-1.09532e-08
1.77632e-10
-1.11234e-08
1.70269e-10
-1.1286e-08
1.62598e-10
-1.14407e-08
1.54619e-10
-1.1587e-08
1.46335e-10
-1.17248e-08
1.3775e-10
-1.18536e-08
1.28869e-10
-1.19733e-08
1.19698e-10
-1.20836e-08
1.1024e-10
-1.21841e-08
1.00502e-10
-1.22745e-08
9.04929e-11
-1.23548e-08
8.02229e-11
-1.24245e-08
6.97011e-11
-1.24834e-08
5.89397e-11
-1.25314e-08
4.79512e-11
-1.25681e-08
3.67488e-11
-1.25935e-08
2.53496e-11
-1.26072e-08
1.37691e-11
-1.26092e-08
2.02253e-12
-1.25994e-08
-9.87038e-12
-1.25775e-08
-2.18896e-11
-1.25435e-08
-3.40141e-11
-1.24973e-08
-4.62201e-11
-1.24388e-08
-5.84844e-11
-1.2368e-08
-7.07834e-11
-1.22849e-08
-8.30901e-11
-1.21895e-08
-9.53785e-11
-1.20819e-08
-1.07623e-10
-1.19621e-08
-1.19794e-10
-1.18302e-08
-1.31861e-10
-1.16864e-08
-1.43796e-10
-1.15309e-08
-1.55567e-10
-1.13637e-08
-1.67143e-10
-1.11852e-08
-1.78493e-10
-1.09956e-08
-1.89588e-10
-1.07953e-08
-2.00392e-10
-1.05844e-08
-2.10875e-10
-1.03634e-08
-2.21005e-10
-1.01326e-08
-2.30751e-10
-9.89255e-09
-2.4008e-10
-9.64359e-09
-2.48963e-10
-9.38621e-09
-2.57373e-10
-9.12094e-09
-2.65277e-10
-8.84829e-09
-2.72646e-10
-8.56884e-09
-2.79454e-10
-8.28316e-09
-2.85676e-10
-7.99188e-09
-2.91285e-10
-7.69562e-09
-2.96258e-10
-7.39504e-09
-3.00576e-10
-7.09083e-09
-3.04217e-10
-6.78366e-09
-3.07164e-10
-6.47426e-09
-3.09401e-10
-6.16334e-09
-3.10915e-10
-5.85165e-09
-3.11691e-10
-5.53993e-09
-3.1172e-10
-5.22894e-09
-3.10995e-10
-4.91943e-09
-3.09511e-10
-4.61217e-09
-3.07264e-10
-4.30791e-09
-3.04254e-10
-4.00742e-09
-3.00485e-10
-3.71146e-09
-2.95963e-10
-3.42077e-09
-2.90691e-10
-3.13609e-09
-2.8468e-10
-2.85815e-09
-2.77945e-10
-2.58765e-09
-2.705e-10
-2.32529e-09
-2.62363e-10
-2.07173e-09
-2.53552e-10
-1.82764e-09
-2.44092e-10
-1.59363e-09
-2.34008e-10
-1.3703e-09
-2.23328e-10
-1.15822e-09
-2.12081e-10
-9.57923e-10
-2.00301e-10
-7.69899e-10
-1.88025e-10
-5.94609e-10
-1.75292e-10
-4.32469e-10
-1.62141e-10
-2.83848e-10
-1.4862e-10
-1.49069e-10
-1.34777e-10
-2.84015e-11
-1.20669e-10
7.79461e-11
-1.0635e-10
1.69828e-10
-9.18828e-11
2.47166e-10
-7.73374e-11
3.0996e-10
-6.27931e-11
3.58296e-10
-4.83368e-11
3.92363e-10
-3.40668e-11
4.12463e-10
-2.00975e-11
4.1903e-10
-6.56425e-12
4.12657e-10
6.37401e-12
3.94131e-10
1.85258e-11
3.64474e-10
2.96557e-11
3.25008e-10
3.94669e-11
2.77432e-10
4.75784e-11
2.23936e-10
5.34965e-11
1.67362e-10
5.65732e-11
1.11398e-10
5.59646e-11
6.07731e-11
5.06272e-11
2.14307e-11
3.93422e-11
2.61801e-13
2.11667e-11
2.62714e-13
2.90244e-11
-3.69285e-11
9.2127e-11
-9.23515e-11
1.69873e-10
-1.17715e-10
2.45435e-10
-1.1639e-10
3.0557e-10
-9.53238e-11
3.40544e-10
-6.03316e-11
3.43516e-10
-1.58297e-11
3.09886e-10
3.49022e-11
2.36752e-10
8.94506e-11
1.22483e-10
1.46051e-10
-3.35925e-11
2.03412e-10
-2.31444e-10
2.60577e-10
-4.70495e-10
3.16847e-10
-7.49796e-10
3.71698e-10
-1.06809e-09
4.24754e-10
-1.42392e-09
4.75748e-10
-1.81567e-09
5.24485e-10
-2.24163e-09
5.7084e-10
-2.7e-09
6.14731e-10
-3.18897e-09
6.56112e-10
-3.70672e-09
6.94978e-10
-4.2514e-09
7.3134e-10
-4.8212e-09
7.65224e-10
-5.41433e-09
7.96675e-10
-6.02904e-09
8.25746e-10
-6.66363e-09
8.52492e-10
-7.31642e-09
8.76981e-10
-7.98579e-09
8.99284e-10
-8.67019e-09
9.19466e-10
-9.36809e-09
9.376e-10
-1.0078e-08
9.53759e-10
-1.07986e-08
9.68008e-10
-1.15284e-08
9.80415e-10
-1.22661e-08
9.91049e-10
-1.30106e-08
9.99969e-10
-1.37604e-08
1.00723e-09
-1.45144e-08
1.01289e-09
-1.52716e-08
1.017e-09
-1.60306e-08
1.01961e-09
-1.67906e-08
1.02075e-09
-1.75503e-08
1.02047e-09
-1.83088e-08
1.01881e-09
-1.90651e-08
1.01579e-09
-1.98181e-08
1.01144e-09
-2.05669e-08
1.00579e-09
-2.13105e-08
9.98849e-10
-2.20479e-08
9.90645e-10
-2.27783e-08
9.81186e-10
-2.35008e-08
9.70486e-10
-2.42143e-08
9.58552e-10
-2.49179e-08
9.45393e-10
-2.56109e-08
9.31013e-10
-2.62921e-08
9.15413e-10
-2.69608e-08
8.98596e-10
-2.76161e-08
8.80563e-10
-2.82569e-08
8.61313e-10
-2.88825e-08
8.40844e-10
-2.94919e-08
8.19158e-10
-3.00842e-08
7.96253e-10
-3.06585e-08
7.7213e-10
-3.12138e-08
7.46789e-10
-3.17494e-08
7.20232e-10
-3.22642e-08
6.92461e-10
-3.27574e-08
6.63484e-10
-3.32281e-08
6.33308e-10
-3.36754e-08
6.0194e-10
-3.40985e-08
5.69392e-10
-3.44964e-08
5.35679e-10
-3.48684e-08
5.00823e-10
-3.52135e-08
4.64842e-10
-3.5531e-08
4.27763e-10
-3.58202e-08
3.89614e-10
-3.60801e-08
3.50427e-10
-3.63101e-08
3.1024e-10
-3.65095e-08
2.69093e-10
-3.66776e-08
2.27028e-10
-3.68137e-08
1.841e-10
-3.69173e-08
1.40363e-10
-3.69879e-08
9.58759e-11
-3.70248e-08
5.07028e-11
-3.70277e-08
4.9114e-12
-3.69961e-08
-4.14255e-11
-3.69298e-08
-8.82282e-11
-3.68284e-08
-1.35416e-10
-3.66917e-08
-1.82905e-10
-3.65196e-08
-2.306e-10
-3.6312e-08
-2.78406e-10
-3.60688e-08
-3.26226e-10
-3.57903e-08
-3.73954e-10
-3.54764e-08
-4.21485e-10
-3.51275e-08
-4.68712e-10
-3.47438e-08
-5.15523e-10
-3.43258e-08
-5.618e-10
-3.38739e-08
-6.07427e-10
-3.33888e-08
-6.52288e-10
-3.2871e-08
-6.96258e-10
-3.23214e-08
-7.39217e-10
-3.17408e-08
-7.81045e-10
-3.113e-08
-8.2162e-10
-3.04902e-08
-8.6082e-10
-2.98224e-08
-8.98525e-10
-2.91279e-08
-9.34617e-10
-2.84079e-08
-9.68976e-10
-2.76638e-08
-1.00149e-09
-2.6897e-08
-1.03205e-09
-2.61091e-08
-1.06055e-09
-2.53017e-08
-1.08687e-09
-2.44764e-08
-1.11093e-09
-2.36351e-08
-1.13263e-09
-2.27794e-08
-1.15188e-09
-2.19114e-08
-1.1686e-09
-2.10329e-08
-1.18271e-09
-2.01459e-08
-1.19415e-09
-1.92525e-08
-1.20285e-09
-1.83546e-08
-1.20876e-09
-1.74545e-08
-1.21184e-09
-1.65541e-08
-1.21205e-09
-1.56558e-08
-1.20936e-09
-1.47616e-08
-1.20375e-09
-1.38736e-08
-1.19521e-09
-1.29941e-08
-1.18374e-09
-1.21253e-08
-1.16935e-09
-1.12692e-08
-1.15207e-09
-1.04279e-08
-1.13191e-09
-9.60369e-09
-1.10893e-09
-8.79848e-09
-1.08316e-09
-8.01431e-09
-1.05467e-09
-7.25315e-09
-1.02352e-09
-6.51689e-09
-9.89807e-10
-5.80738e-09
-9.53606e-10
-5.12637e-09
-9.15017e-10
-4.47555e-09
-8.74152e-10
-3.85649e-09
-8.31133e-10
-3.27071e-09
-7.86091e-10
-2.71957e-09
-7.39167e-10
-2.20435e-09
-6.90513e-10
-1.72619e-09
-6.40298e-10
-1.28611e-09
-5.88703e-10
-8.84968e-10
-5.35922e-10
-5.23475e-10
-4.82164e-10
-2.02161e-10
-4.27662e-10
7.86273e-11
-3.72669e-10
3.18752e-10
-3.17462e-10
5.18308e-10
-2.62349e-10
6.77649e-10
-2.07676e-10
7.97419e-10
-1.53835e-10
8.78599e-10
-1.01277e-10
9.22553e-10
-5.05188e-11
9.31101e-10
-2.17175e-12
9.06592e-10
4.30382e-11
8.52015e-10
8.42368e-11
7.71119e-10
1.20362e-10
6.68585e-10
1.50111e-10
5.5021e-10
1.71871e-10
4.23122e-10
1.83663e-10
2.95965e-10
1.83125e-10
1.78945e-10
1.67648e-10
8.352e-11
1.34765e-10
2.11284e-11
8.35597e-11
2.13933e-11
3.96026e-11
-7.65339e-11
1.17175e-10
-1.69925e-10
2.0597e-10
-2.06505e-10
2.85095e-10
-1.95517e-10
3.37799e-10
-1.48028e-10
3.5116e-10
-7.36993e-11
3.15631e-10
1.97009e-11
2.2443e-10
1.26102e-10
7.30335e-11
2.40846e-10
-1.41303e-10
3.60393e-10
-4.19937e-10
4.82044e-10
-7.63131e-10
6.03772e-10
-1.17032e-09
7.24031e-10
-1.64028e-09
8.41661e-10
-2.17132e-09
9.55798e-10
-2.76137e-09
1.0658e-09
-3.4081e-09
1.17121e-09
-4.10896e-09
1.2717e-09
-4.86129e-09
1.36706e-09
-5.66233e-09
1.45715e-09
-6.50928e-09
1.54193e-09
-7.39932e-09
1.62138e-09
-8.32964e-09
1.69554e-09
-9.29745e-09
1.76449e-09
-1.03e-08
1.8283e-09
-1.13346e-08
1.88709e-09
-1.23986e-08
1.941e-09
-1.34895e-08
1.99014e-09
-1.46047e-08
2.03467e-09
-1.57418e-08
2.07473e-09
-1.68985e-08
2.11046e-09
-1.80725e-08
2.14199e-09
-1.92616e-08
2.16948e-09
-2.04636e-08
2.19306e-09
-2.16765e-08
2.21284e-09
-2.28982e-08
2.22897e-09
-2.41269e-08
2.24155e-09
-2.53605e-08
2.25068e-09
-2.65974e-08
2.25648e-09
-2.78357e-08
2.25903e-09
-2.90736e-08
2.25841e-09
-3.03095e-08
2.2547e-09
-3.15417e-08
2.24797e-09
-3.27685e-08
2.23828e-09
-3.39884e-08
2.22567e-09
-3.51998e-08
2.2102e-09
-3.6401e-08
2.1919e-09
-3.75907e-08
2.17081e-09
-3.87671e-08
2.14695e-09
-3.99289e-08
2.12033e-09
-4.10745e-08
2.09098e-09
-4.22024e-08
2.05892e-09
-4.33111e-08
2.02414e-09
-4.43992e-08
1.98665e-09
-4.54651e-08
1.94646e-09
-4.65073e-08
1.90357e-09
-4.75245e-08
1.85798e-09
-4.8515e-08
1.80969e-09
-4.94774e-08
1.7587e-09
-5.04103e-08
1.70502e-09
-5.13122e-08
1.64865e-09
-5.21816e-08
1.58959e-09
-5.3017e-08
1.52786e-09
-5.38169e-08
1.46348e-09
-5.45801e-08
1.39645e-09
-5.5305e-08
1.32681e-09
-5.59902e-08
1.25459e-09
-5.66343e-08
1.17981e-09
-5.7236e-08
1.10253e-09
-5.77939e-08
1.02278e-09
-5.83068e-08
9.40638e-10
-5.87733e-08
8.5616e-10
-5.91923e-08
7.69421e-10
-5.95626e-08
6.80506e-10
-5.9883e-08
5.89505e-10
-6.01525e-08
4.96519e-10
-6.03701e-08
4.01662e-10
-6.05348e-08
3.05056e-10
-6.06457e-08
2.06831e-10
-6.07021e-08
1.07128e-10
-6.07033e-08
6.09969e-12
-6.06487e-08
-9.60923e-11
-6.05376e-08
-1.99277e-10
-6.03698e-08
-3.03272e-10
-6.01448e-08
-4.07887e-10
-5.98624e-08
-5.12924e-10
-5.95227e-08
-6.18173e-10
-5.91255e-08
-7.23415e-10
-5.8671e-08
-8.28429e-10
-5.81595e-08
-9.32979e-10
-5.75914e-08
-1.03683e-09
-5.69672e-08
-1.13973e-09
-5.62876e-08
-1.24143e-09
-5.55533e-08
-1.34168e-09
-5.47654e-08
-1.44022e-09
-5.39249e-08
-1.53679e-09
-5.3033e-08
-1.63111e-09
-5.20911e-08
-1.72294e-09
-5.11007e-08
-1.81199e-09
-5.00635e-08
-1.89802e-09
-4.89813e-08
-1.98076e-09
-4.78559e-08
-2.05994e-09
-4.66896e-08
-2.13532e-09
-4.54844e-08
-2.20666e-09
-4.42428e-08
-2.27369e-09
-4.29671e-08
-2.3362e-09
-4.166e-08
-2.39397e-09
-4.03242e-08
-2.44676e-09
-3.89624e-08
-2.49439e-09
-3.75777e-08
-2.53665e-09
-3.61729e-08
-2.57339e-09
-3.47512e-08
-2.60442e-09
-3.33157e-08
-2.6296e-09
-3.18698e-08
-2.64881e-09
-3.04166e-08
-2.66192e-09
-2.89596e-08
-2.66884e-09
-2.75022e-08
-2.66949e-09
-2.60477e-08
-2.66381e-09
-2.45997e-08
-2.65176e-09
-2.31616e-08
-2.63332e-09
-2.17368e-08
-2.60849e-09
-2.03289e-08
-2.5773e-09
-1.89412e-08
-2.53979e-09
-1.75771e-08
-2.49602e-09
-1.62399e-08
-2.44608e-09
-1.4933e-08
-2.39007e-09
-1.36595e-08
-2.32814e-09
-1.24226e-08
-2.26044e-09
-1.12253e-08
-2.18713e-09
-1.00705e-08
-2.10842e-09
-8.96096e-09
-2.02453e-09
-7.89942e-09
-1.9357e-09
-6.88836e-09
-1.84219e-09
-5.93014e-09
-1.74431e-09
-5.02695e-09
-1.64236e-09
-4.18077e-09
-1.53669e-09
-3.3934e-09
-1.42767e-09
-2.66639e-09
-1.31571e-09
-2.00109e-09
-1.20122e-09
-1.39856e-09
-1.0847e-09
-8.59576e-10
-9.66645e-10
-3.84622e-10
-8.47623e-10
2.61695e-11
-7.28251e-10
3.73038e-10
-6.09215e-10
6.56643e-10
-4.9128e-10
8.78115e-10
-3.75307e-10
1.03912e-09
-2.62276e-10
1.14191e-09
-1.53311e-10
1.18946e-09
-4.97206e-11
1.18553e-09
4.69662e-11
1.13483e-09
1.34942e-10
1.04313e-09
2.12058e-10
9.17497e-10
2.75747e-10
7.66412e-10
3.22956e-10
5.99978e-10
3.50096e-10
4.30005e-10
3.53097e-10
2.69951e-10
3.27701e-10
1.34577e-10
2.7014e-10
3.92231e-11
1.78917e-10
6.06168e-11
4.07317e-11
-1.17262e-10
1.16346e-10
-2.45543e-10
1.95593e-10
-2.85753e-10
2.54894e-10
-2.54814e-10
2.75499e-10
-1.68632e-10
2.42729e-10
-4.09299e-11
1.45437e-10
1.16997e-10
-2.45488e-11
2.96085e-10
-2.72886e-10
4.89184e-10
-6.03178e-10
6.90682e-10
-1.01735e-09
8.9622e-10
-1.51599e-09
1.10241e-09
-2.09861e-09
1.30665e-09
-2.76388e-09
1.50693e-09
-3.50981e-09
1.70173e-09
-4.3339e-09
1.88989e-09
-5.23326e-09
2.07057e-09
-6.20473e-09
2.24316e-09
-7.24491e-09
2.40724e-09
-8.35029e-09
2.56253e-09
-9.51725e-09
2.70889e-09
-1.07421e-08
2.84626e-09
-1.20212e-08
2.97466e-09
-1.33509e-08
3.09419e-09
-1.47276e-08
3.20496e-09
-1.61477e-08
3.30714e-09
-1.76076e-08
3.40092e-09
-1.9104e-08
3.48652e-09
-2.06334e-08
3.56415e-09
-2.21927e-08
3.63405e-09
-2.37787e-08
3.69644e-09
-2.53883e-08
3.75156e-09
-2.70184e-08
3.79963e-09
-2.86663e-08
3.84089e-09
-3.0329e-08
3.87553e-09
-3.20038e-08
3.90378e-09
-3.3688e-08
3.92581e-09
-3.53791e-08
3.94181e-09
-3.70746e-08
3.95194e-09
-3.8772e-08
3.95637e-09
-4.04688e-08
3.95524e-09
-4.21627e-08
3.94866e-09
-4.38515e-08
3.93677e-09
-4.55329e-08
3.91965e-09
-4.72046e-08
3.8974e-09
-4.88645e-08
3.87011e-09
-5.05105e-08
3.83782e-09
-5.21403e-08
3.80061e-09
-5.37518e-08
3.75852e-09
-5.53431e-08
3.71158e-09
-5.6912e-08
3.65984e-09
-5.84563e-08
3.6033e-09
-5.99742e-08
3.54199e-09
-6.14635e-08
3.47592e-09
-6.29221e-08
3.40511e-09
-6.43481e-08
3.32955e-09
-6.57394e-08
3.24926e-09
-6.70939e-08
3.16423e-09
-6.84097e-08
3.07449e-09
-6.96847e-08
2.98003e-09
-7.09169e-08
2.88087e-09
-7.21044e-08
2.77702e-09
-7.3245e-08
2.66851e-09
-7.43369e-08
2.55538e-09
-7.53781e-08
2.43764e-09
-7.63666e-08
2.31536e-09
-7.73006e-08
2.18858e-09
-7.81782e-08
2.05737e-09
-7.89975e-08
1.92182e-09
-7.97567e-08
1.78201e-09
-8.04541e-08
1.63804e-09
-8.1088e-08
1.49004e-09
-8.16567e-08
1.33813e-09
-8.21587e-08
1.18247e-09
-8.25924e-08
1.02322e-09
-8.29564e-08
8.60553e-10
-8.32494e-08
6.94674e-10
-8.34702e-08
5.25795e-10
-8.36175e-08
3.54147e-10
-8.36903e-08
1.79978e-10
-8.36878e-08
3.55141e-12
-8.3609e-08
-1.74848e-10
-8.34534e-08
-3.54922e-10
-8.32203e-08
-5.36356e-10
-8.29094e-08
-7.18815e-10
-8.25203e-08
-9.01953e-10
-8.20531e-08
-1.08541e-09
-8.15077e-08
-1.2688e-09
-8.08844e-08
-1.45175e-09
-8.01835e-08
-1.63384e-09
-7.94057e-08
-1.81467e-09
-7.85516e-08
-1.9938e-09
-7.76222e-08
-2.17081e-09
-7.66187e-08
-2.34525e-09
-7.55422e-08
-2.51668e-09
-7.43943e-08
-2.68465e-09
-7.31767e-08
-2.84869e-09
-7.18913e-08
-3.00836e-09
-7.05401e-08
-3.1632e-09
-6.91254e-08
-3.31275e-09
-6.76496e-08
-3.45656e-09
-6.61154e-08
-3.59419e-09
-6.45255e-08
-3.72521e-09
-6.28829e-08
-3.84918e-09
-6.11909e-08
-3.9657e-09
-5.94528e-08
-4.07436e-09
-5.7672e-08
-4.17477e-09
-5.58522e-08
-4.26656e-09
-5.39972e-08
-4.3494e-09
-5.21109e-08
-4.42295e-09
-5.01973e-08
-4.48691e-09
-4.82608e-08
-4.54099e-09
-4.63054e-08
-4.58495e-09
-4.43357e-08
-4.61855e-09
-4.2356e-08
-4.64161e-09
-4.03709e-08
-4.65396e-09
-3.83849e-08
-4.65545e-09
-3.64027e-08
-4.646e-09
-3.44289e-08
-4.62554e-09
-3.24682e-08
-4.59403e-09
-3.05252e-08
-4.55148e-09
-2.86046e-08
-4.49792e-09
-2.6711e-08
-4.43344e-09
-2.48488e-08
-4.35816e-09
-2.30227e-08
-4.27222e-09
-2.1237e-08
-4.17581e-09
-1.94959e-08
-4.06917e-09
-1.78038e-08
-3.95256e-09
-1.61646e-08
-3.8263e-09
-1.45823e-08
-3.69072e-09
-1.30606e-08
-3.54622e-09
-1.16031e-08
-3.39322e-09
-1.02131e-08
-3.23219e-09
-8.8938e-09
-3.06364e-09
-7.64803e-09
-2.88812e-09
-6.47848e-09
-2.70625e-09
-5.38749e-09
-2.51866e-09
-4.37712e-09
-2.32608e-09
-3.44909e-09
-2.12925e-09
-2.60479e-09
-1.929e-09
-1.84519e-09
-1.72625e-09
-1.17085e-09
-1.52196e-09
-5.81876e-10
-1.31723e-09
-7.78572e-11
-1.11324e-09
3.42178e-10
-9.11316e-10
6.79825e-10
-7.12953e-10
9.37379e-10
-5.19826e-10
1.11792e-09
-3.33846e-10
1.2254e-09
-1.57207e-10
1.2648e-09
7.56093e-12
1.24224e-09
1.57513e-10
1.16508e-09
2.8921e-10
1.04219e-09
3.98646e-10
8.83967e-10
4.81174e-10
7.02572e-10
5.31491e-10
5.11929e-10
5.43742e-10
3.27753e-10
5.11876e-10
1.67491e-10
4.30404e-10
5.0458e-11
2.95951e-10
1.11073e-10
3.54471e-11
-1.52706e-10
9.60161e-11
-3.06111e-10
1.49071e-10
-3.38808e-10
1.69816e-10
-2.75557e-10
1.38568e-10
-1.37384e-10
3.98126e-11
5.78272e-11
-1.38419e-10
2.95227e-10
-4.05056e-10
5.62727e-10
-7.66452e-10
8.50575e-10
-1.22676e-09
1.15099e-09
-1.7883e-09
1.45777e-09
-2.45192e-09
1.76603e-09
-3.21721e-09
2.07194e-09
-4.08277e-09
2.37249e-09
-5.04641e-09
2.66537e-09
-6.10531e-09
2.94879e-09
-7.25616e-09
3.22143e-09
-8.49529e-09
3.48229e-09
-9.81872e-09
3.73067e-09
-1.12223e-08
3.96611e-09
-1.27017e-08
4.18831e-09
-1.42526e-08
4.39716e-09
-1.58706e-08
4.59261e-09
-1.75511e-08
4.77476e-09
-1.92899e-08
4.94376e-09
-2.10826e-08
5.09982e-09
-2.29249e-08
5.2432e-09
-2.48125e-08
5.37418e-09
-2.67415e-08
5.49307e-09
-2.87076e-08
5.60019e-09
-3.07071e-08
5.69589e-09
-3.2736e-08
5.78048e-09
-3.47907e-08
5.8543e-09
-3.68674e-08
5.91767e-09
-3.89628e-08
5.97091e-09
-4.10733e-08
6.01431e-09
-4.31957e-08
6.04815e-09
-4.53266e-08
6.0727e-09
-4.74629e-08
6.08822e-09
-4.96014e-08
6.09492e-09
-5.17392e-08
6.09303e-09
-5.38733e-08
6.08273e-09
-5.60007e-08
6.06419e-09
-5.81186e-08
6.03758e-09
-6.02242e-08
6.00303e-09
-6.23148e-08
5.96066e-09
-6.43875e-08
5.91056e-09
-6.64398e-08
5.85284e-09
-6.84688e-08
5.78755e-09
-7.0472e-08
5.71477e-09
-7.24467e-08
5.63455e-09
-7.43903e-08
5.54691e-09
-7.63002e-08
5.4519e-09
-7.81738e-08
5.34953e-09
-8.00086e-08
5.23983e-09
-8.18018e-08
5.12282e-09
-8.35511e-08
4.9985e-09
-8.52537e-08
4.8669e-09
-8.69073e-08
4.72802e-09
-8.85091e-08
4.58189e-09
-9.00568e-08
4.42854e-09
-9.15478e-08
4.26799e-09
-9.29795e-08
4.10029e-09
-9.43496e-08
3.92548e-09
-9.56556e-08
3.74364e-09
-9.68951e-08
3.55484e-09
-9.80657e-08
3.35916e-09
-9.91651e-08
3.15672e-09
-1.00191e-07
2.94764e-09
-1.01141e-07
2.73207e-09
-1.02013e-07
2.51018e-09
-1.02805e-07
2.28214e-09
-1.03515e-07
2.04816e-09
-1.04141e-07
1.80849e-09
-1.04681e-07
1.56337e-09
-1.05134e-07
1.31308e-09
-1.05497e-07
1.05793e-09
-1.0577e-07
7.98253e-10
-1.0595e-07
5.34399e-10
-1.06037e-07
2.66755e-10
-1.06029e-07
-4.27229e-12
-1.05925e-07
-2.7825e-10
-1.05726e-07
-5.54717e-10
-1.05429e-07
-8.33192e-10
-1.05034e-07
-1.11317e-09
-1.04542e-07
-1.3941e-09
-1.03952e-07
-1.67545e-09
-1.03264e-07
-1.95664e-09
-1.02479e-07
-2.23707e-09
-1.01597e-07
-2.51613e-09
-1.00618e-07
-2.79318e-09
-9.95445e-08
-3.06759e-09
-9.83766e-08
-3.33868e-09
-9.71161e-08
-3.6058e-09
-9.57645e-08
-3.86826e-09
-9.43238e-08
-4.12537e-09
-9.2796e-08
-4.37645e-09
-9.11836e-08
-4.62079e-09
-8.94891e-08
-4.85772e-09
-8.77153e-08
-5.08653e-09
-8.58653e-08
-5.30656e-09
-8.39424e-08
-5.51711e-09
-8.195e-08
-5.71755e-09
-7.9892e-08
-5.90721e-09
-7.77722e-08
-6.08548e-09
-7.55948e-08
-6.25174e-09
-7.33642e-08
-6.40541e-09
-7.10848e-08
-6.54593e-09
-6.87614e-08
-6.67278e-09
-6.63989e-08
-6.78547e-09
-6.40023e-08
-6.88352e-09
-6.15768e-08
-6.96653e-09
-5.91276e-08
-7.03411e-09
-5.66602e-08
-7.08592e-09
-5.41802e-08
-7.12166e-09
-5.16931e-08
-7.14108e-09
-4.92045e-08
-7.14399e-09
-4.67203e-08
-7.13023e-09
-4.42461e-08
-7.09971e-09
-4.17878e-08
-7.05238e-09
-3.9351e-08
-6.98825e-09
-3.69415e-08
-6.90739e-09
-3.45651e-08
-6.80991e-09
-3.22272e-08
-6.69599e-09
-2.99336e-08
-6.56588e-09
-2.76895e-08
-6.41986e-09
-2.55004e-08
-6.2583e-09
-2.33714e-08
-6.08159e-09
-2.13074e-08
-5.89022e-09
-1.93134e-08
-5.68472e-09
-1.7394e-08
-5.46569e-09
-1.55534e-08
-5.23378e-09
-1.37959e-08
-4.98971e-09
-1.21252e-08
-4.73427e-09
-1.0545e-08
-4.46833e-09
-9.05849e-09
-4.19279e-09
-7.66848e-09
-3.90868e-09
-6.37748e-09
-3.61708e-09
-5.18757e-09
-3.31915e-09
-4.10039e-09
-3.01618e-09
-3.11709e-09
-2.70955e-09
-2.23829e-09
-2.40076e-09
-1.46403e-09
-2.09148e-09
-7.93755e-10
-1.78351e-09
-2.26194e-10
-1.47888e-09
2.40665e-10
-1.17981e-09
6.09671e-10
-8.88831e-10
8.84599e-10
-6.08774e-10
1.07025e-09
-3.4286e-10
1.17258e-09
-9.47649e-11
1.1988e-09
1.31297e-10
1.15752e-09
3.30489e-10
1.0589e-09
4.97268e-10
9.14744e-10
6.25328e-10
7.38645e-10
7.07592e-10
5.46051e-10
7.36336e-10
3.5442e-10
7.03508e-10
1.83465e-10
6.01363e-10
5.58672e-11
4.23548e-10
1.6694e-10
2.59064e-11
-1.78618e-10
6.16321e-11
-3.41834e-10
7.54585e-11
-3.52641e-10
4.27374e-11
-2.42836e-10
-5.62442e-11
-3.84025e-11
-2.37135e-10
2.38712e-10
-5.12115e-10
5.70212e-10
-8.90403e-10
9.41014e-10
-1.37863e-09
1.33881e-09
-1.98123e-09
1.75359e-09
-2.70074e-09
2.17727e-09
-3.53811e-09
2.6034e-09
-4.49296e-09
3.02679e-09
-5.56383e-09
3.44336e-09
-6.74835e-09
3.84989e-09
-8.04346e-09
4.2439e-09
-9.44549e-09
4.62346e-09
-1.09504e-08
4.98715e-09
-1.25536e-08
5.33391e-09
-1.42505e-08
5.66304e-09
-1.60363e-08
5.97405e-09
-1.79058e-08
6.26671e-09
-1.98541e-08
6.54091e-09
-2.18761e-08
6.79673e-09
-2.39666e-08
7.03431e-09
-2.61207e-08
7.25391e-09
-2.83334e-08
7.45583e-09
-3.05996e-08
7.64045e-09
-3.29147e-08
7.80815e-09
-3.52739e-08
7.95936e-09
-3.76725e-08
8.09452e-09
-4.01061e-08
8.21405e-09
-4.25702e-08
8.31841e-09
-4.50605e-08
8.40801e-09
-4.75729e-08
8.48329e-09
-5.01033e-08
8.54465e-09
-5.26476e-08
8.59245e-09
-5.52019e-08
8.62708e-09
-5.77626e-08
8.64888e-09
-6.03258e-08
8.65814e-09
-6.2888e-08
8.65517e-09
-6.54455e-08
8.64023e-09
-6.79948e-08
8.61356e-09
-7.05326e-08
8.57538e-09
-7.30555e-08
8.52587e-09
-7.556e-08
8.46521e-09
-7.8043e-08
8.39353e-09
-8.05011e-08
8.31097e-09
-8.29312e-08
8.21762e-09
-8.533e-08
8.11359e-09
-8.76944e-08
7.99893e-09
-9.00212e-08
7.87372e-09
-9.23073e-08
7.738e-09
-9.45495e-08
7.59181e-09
-9.67449e-08
7.43518e-09
-9.88902e-08
7.26815e-09
-1.00982e-07
7.09074e-09
-1.03019e-07
6.90298e-09
-1.04995e-07
6.7049e-09
-1.0691e-07
6.49653e-09
-1.08759e-07
6.27792e-09
-1.10541e-07
6.04913e-09
-1.1225e-07
5.81021e-09
-1.13886e-07
5.56125e-09
-1.15445e-07
5.30235e-09
-1.16924e-07
5.03363e-09
-1.1832e-07
4.75521e-09
-1.1963e-07
4.46727e-09
-1.20853e-07
4.16998e-09
-1.21984e-07
3.86355e-09
-1.23022e-07
3.54824e-09
-1.23964e-07
3.2243e-09
-1.24808e-07
2.89204e-09
-1.25552e-07
2.55179e-09
-1.26192e-07
2.20392e-09
-1.26728e-07
1.84883e-09
-1.27157e-07
1.48696e-09
-1.27477e-07
1.11877e-09
-1.27688e-07
7.44773e-10
-1.27787e-07
3.65514e-10
-1.27772e-07
-1.84292e-11
-1.27644e-07
-4.06443e-10
-1.27401e-07
-7.97878e-10
-1.27042e-07
-1.19205e-09
-1.26567e-07
-1.58824e-09
-1.25976e-07
-1.9857e-09
-1.25267e-07
-2.38364e-09
-1.24443e-07
-2.78127e-09
-1.23502e-07
-3.17773e-09
-1.22446e-07
-3.57217e-09
-1.21275e-07
-3.96371e-09
-1.19992e-07
-4.35142e-09
-1.18596e-07
-4.73439e-09
-1.1709e-07
-5.11168e-09
-1.15476e-07
-5.48233e-09
-1.13756e-07
-5.84538e-09
-1.11933e-07
-6.19987e-09
-1.10009e-07
-6.54482e-09
-1.07987e-07
-6.87926e-09
-1.05871e-07
-7.20224e-09
-1.03665e-07
-7.51279e-09
-1.01372e-07
-7.80998e-09
-9.89968e-08
-8.09288e-09
-9.65435e-08
-8.3606e-09
-9.40167e-08
-8.61224e-09
-9.14215e-08
-8.84698e-09
-8.87629e-08
-9.06398e-09
-8.60463e-08
-9.26248e-09
-8.32774e-08
-9.44175e-09
-8.04617e-08
-9.60108e-09
-7.76054e-08
-9.73984e-09
-7.47145e-08
-9.85745e-09
-7.17953e-08
-9.95336e-09
-6.88541e-08
-1.00271e-08
-6.58974e-08
-1.00783e-08
-6.2932e-08
-1.01065e-08
-5.99644e-08
-1.01116e-08
-5.70013e-08
-1.00933e-08
-5.40497e-08
-1.00514e-08
-5.11161e-08
-9.9859e-09
-4.82076e-08
-9.89684e-09
-4.53306e-08
-9.7843e-09
-4.24921e-08
-9.64844e-09
-3.96986e-08
-9.48953e-09
-3.69565e-08
-9.3079e-09
-3.42724e-08
-9.10397e-09
-3.16525e-08
-8.87824e-09
-2.91028e-08
-8.63129e-09
-2.66292e-08
-8.36381e-09
-2.42374e-08
-8.07653e-09
-2.19328e-08
-7.77032e-09
-1.97205e-08
-7.4461e-09
-1.76053e-08
-7.10489e-09
-1.55917e-08
-6.74781e-09
-1.3684e-08
-6.37608e-09
-1.18858e-08
-5.99101e-09
-1.02004e-08
-5.59403e-09
-8.63082e-09
-5.18667e-09
-7.17937e-09
-4.77061e-09
-5.84792e-09
-4.34763e-09
-4.63777e-09
-3.9197e-09
-3.5496e-09
-3.48893e-09
-2.58343e-09
-3.05766e-09
-1.73852e-09
-2.62842e-09
-1.01337e-09
-2.20402e-09
-4.05621e-10
-1.78756e-09
8.80481e-11
-1.3825e-09
4.71982e-10
-9.92708e-10
7.51656e-10
-6.22534e-10
9.33783e-10
-2.76892e-10
1.02643e-09
3.86544e-11
1.03911e-09
3.17803e-10
9.82955e-10
5.53429e-10
8.70758e-10
7.37527e-10
7.17143e-10
8.61207e-10
5.38701e-10
9.14777e-10
3.54238e-10
8.87974e-10
1.85224e-10
7.70379e-10
5.67441e-11
5.52028e-10
2.23686e-10
1.35932e-11
-1.92208e-10
1.73993e-11
-3.45642e-10
-1.79025e-11
-3.1734e-10
-1.15752e-10
-1.44981e-10
-2.95124e-10
1.40969e-10
-5.71201e-10
5.14793e-10
-9.55917e-10
9.54921e-10
-1.45834e-09
1.44344e-09
-2.08509e-09
1.96555e-09
-2.84057e-09
2.50907e-09
-3.72735e-09
3.06405e-09
-4.74635e-09
3.6224e-09
-5.89716e-09
4.17759e-09
-7.17818e-09
4.72438e-09
-8.58688e-09
5.2586e-09
-1.01199e-08
5.77697e-09
-1.17734e-08
6.27694e-09
-1.35429e-08
6.75658e-09
-1.54234e-08
7.21444e-09
-1.74098e-08
7.64951e-09
-1.94969e-08
8.06109e-09
-2.16789e-08
8.44877e-09
-2.39504e-08
8.81239e-09
-2.63056e-08
9.15194e-09
-2.87389e-08
9.46757e-09
-3.12445e-08
9.75956e-09
-3.3817e-08
1.00283e-08
-3.64506e-08
1.02741e-08
-3.914e-08
1.04976e-08
-4.18798e-08
1.06992e-08
-4.46647e-08
1.08794e-08
-4.74896e-08
1.1039e-08
-5.03495e-08
1.11782e-08
-5.32393e-08
1.12979e-08
-5.61544e-08
1.13983e-08
-5.90899e-08
1.14802e-08
-6.20414e-08
1.15439e-08
-6.50043e-08
1.159e-08
-6.79742e-08
1.16188e-08
-7.09468e-08
1.16308e-08
-7.39179e-08
1.16263e-08
-7.68835e-08
1.16058e-08
-7.98393e-08
1.15694e-08
-8.27815e-08
1.15176e-08
-8.57061e-08
1.14504e-08
-8.86092e-08
1.13683e-08
-9.14869e-08
1.12713e-08
-9.43356e-08
1.11597e-08
-9.71515e-08
1.10335e-08
-9.99308e-08
1.08929e-08
-1.0267e-07
1.0738e-08
-1.05365e-07
1.05689e-08
-1.08013e-07
1.03856e-08
-1.10609e-07
1.01882e-08
-1.13151e-07
9.97684e-09
-1.15634e-07
9.75146e-09
-1.18055e-07
9.51214e-09
-1.20411e-07
9.25892e-09
-1.22698e-07
8.99185e-09
-1.24913e-07
8.71099e-09
-1.27051e-07
8.41641e-09
-1.2911e-07
8.10819e-09
-1.31086e-07
7.78642e-09
-1.32976e-07
7.45124e-09
-1.34777e-07
7.10277e-09
-1.36484e-07
6.74118e-09
-1.38096e-07
6.36667e-09
-1.39608e-07
5.97945e-09
-1.41018e-07
5.5798e-09
-1.42322e-07
5.16799e-09
-1.43518e-07
4.74436e-09
-1.44603e-07
4.30928e-09
-1.45575e-07
3.86316e-09
-1.46429e-07
3.40645e-09
-1.47165e-07
2.93965e-09
-1.47779e-07
2.46329e-09
-1.4827e-07
1.97798e-09
-1.48636e-07
1.48433e-09
-1.48874e-07
9.83044e-10
-1.48984e-07
4.74837e-10
-1.48963e-07
-3.95114e-11
-1.4881e-07
-5.59176e-10
-1.48524e-07
-1.08329e-09
-1.48105e-07
-1.61094e-09
-1.47553e-07
-2.14116e-09
-1.46865e-07
-2.67296e-09
-1.46044e-07
-3.2053e-09
-1.45088e-07
-3.7371e-09
-1.43998e-07
-4.26724e-09
-1.42776e-07
-4.79457e-09
-1.41422e-07
-5.31791e-09
-1.39937e-07
-5.83607e-09
-1.38324e-07
-6.34781e-09
-1.36583e-07
-6.85187e-09
-1.34719e-07
-7.34701e-09
-1.32732e-07
-7.83195e-09
-1.30627e-07
-8.30539e-09
-1.28405e-07
-8.76605e-09
-1.26072e-07
-9.21266e-09
-1.2363e-07
-9.64394e-09
-1.21084e-07
-1.00586e-08
-1.18439e-07
-1.04555e-08
-1.15699e-07
-1.08332e-08
-1.12868e-07
-1.11908e-08
-1.09954e-07
-1.15269e-08
-1.0696e-07
-1.18405e-08
-1.03894e-07
-1.21304e-08
-1.00761e-07
-1.23958e-08
-9.75669e-08
-1.26355e-08
-9.43192e-08
-1.28487e-08
-9.10245e-08
-1.30346e-08
-8.76897e-08
-1.31923e-08
-8.43219e-08
-1.33212e-08
-8.09284e-08
-1.34206e-08
-7.75167e-08
-1.349e-08
-7.40943e-08
-1.3529e-08
-7.06688e-08
-1.35371e-08
-6.72479e-08
-1.35142e-08
-6.38393e-08
-1.346e-08
-6.04508e-08
-1.33744e-08
-5.70901e-08
-1.32576e-08
-5.37648e-08
-1.31095e-08
-5.04827e-08
-1.29306e-08
-4.72513e-08
-1.2721e-08
-4.40779e-08
-1.24813e-08
-4.09699e-08
-1.22119e-08
-3.79345e-08
-1.19137e-08
-3.49784e-08
-1.15874e-08
-3.21084e-08
-1.12338e-08
-2.93309e-08
-1.0854e-08
-2.66521e-08
-1.04491e-08
-2.40778e-08
-1.00204e-08
-2.16134e-08
-9.56925e-09
-1.92641e-08
-9.09711e-09
-1.70346e-08
-8.60562e-09
-1.4929e-08
-8.09656e-09
-1.29512e-08
-7.57182e-09
-1.11044e-08
-7.03346e-09
-9.39133e-09
-6.48371e-09
-7.81399e-09
-5.92497e-09
-6.37384e-09
-5.35984e-09
-5.07163e-09
-4.79114e-09
-3.90734e-09
-4.22195e-09
-2.88014e-09
-3.65562e-09
-1.98833e-09
-3.09583e-09
-1.22925e-09
-2.54664e-09
-5.99234e-10
-2.01252e-09
-9.34836e-11
-1.49846e-09
2.93992e-10
-1.01001e-09
5.70484e-10
-5.53384e-10
7.4468e-10
-1.35542e-10
8.26769e-10
2.35715e-10
8.28546e-10
5.51653e-10
7.63525e-10
8.02548e-10
6.47073e-10
9.77658e-10
4.96604e-10
1.06525e-09
3.3189e-10
1.05269e-09
1.75594e-10
9.26676e-10
5.41965e-11
6.73429e-10
2.77885e-10
-4.95684e-13
-1.91713e-10
-3.35621e-11
-3.12574e-10
-1.2533e-10
-2.25574e-10
-2.97257e-10
2.69435e-11
-5.66955e-10
4.10672e-10
-9.48672e-10
8.96511e-10
-1.45367e-09
1.45992e-09
-2.09055e-09
2.08033e-09
-2.86559e-09
2.74059e-09
-3.78298e-09
3.42646e-09
-4.84509e-09
4.12616e-09
-6.0527e-09
4.83001e-09
-7.40522e-09
5.53011e-09
-8.9009e-09
6.22005e-09
-1.0537e-08
6.89468e-09
-1.23099e-08
7.5499e-09
-1.42155e-08
8.18248e-09
-1.62488e-08
8.78994e-09
-1.84048e-08
9.3704e-09
-2.06778e-08
9.92251e-09
-2.3062e-08
1.04453e-08
-2.55514e-08
1.09382e-08
-2.814e-08
1.14009e-08
-3.08214e-08
1.18334e-08
-3.35895e-08
1.22357e-08
-3.64381e-08
1.26081e-08
-3.93609e-08
1.29511e-08
-4.2352e-08
1.32651e-08
-4.54051e-08
1.35507e-08
-4.85144e-08
1.38084e-08
-5.1674e-08
1.4039e-08
-5.48782e-08
1.42431e-08
-5.81213e-08
1.44214e-08
-6.13979e-08
1.45745e-08
-6.47025e-08
1.4703e-08
-6.803e-08
1.48076e-08
-7.1375e-08
1.4889e-08
-7.47326e-08
1.49476e-08
-7.80978e-08
1.4984e-08
-8.14658e-08
1.49987e-08
-8.48318e-08
1.49923e-08
-8.81911e-08
1.49651e-08
-9.15391e-08
1.49174e-08
-9.48714e-08
1.48498e-08
-9.81833e-08
1.47624e-08
-1.01471e-07
1.46557e-08
-1.04729e-07
1.45297e-08
-1.07954e-07
1.43847e-08
-1.11142e-07
1.4221e-08
-1.14287e-07
1.40387e-08