/*--------------------------------*- C++ -*----------------------------------*\
  =========                 |
  \\      /  F ield         | OpenFOAM: The Open Source CFD Toolbox
   \\    /   O peration     | Website:  https://openfoam.org
    \\  /    A nd           | Version:  7
     \\/     M anipulation  |
\*---------------------------------------------------------------------------*/
FoamFile
{
    version     2.0;
    format      ascii;
    class       volScalarField;
    location    "0.1125";
    object      p;
}
// * * * * * * * * * * * * * * * * * * * * * * * * * * * * * * * * * * * * * //

dimensions      [0 2 -2 0 0 0 0];

internalField   nonuniform List<scalar> 
25600
(
3.93334e-07
0.000114996
0.000134234
2.55788e-05
-0.000213153
-0.000578846
-0.00106355
-0.00165639
-0.00234472
-0.00311573
-0.00395681
-0.00485602
-0.00580216
-0.0067841
-0.00779123
-0.00881384
-0.00984357
-0.0108717
-0.0118907
-0.0128934
-0.013873
-0.0148235
-0.0157395
-0.0166155
-0.0174473
-0.0182305
-0.018961
-0.0196357
-0.0202519
-0.0208063
-0.0212962
-0.0217196
-0.0220747
-0.0223601
-0.0225748
-0.0227176
-0.022787
-0.0227821
-0.0227026
-0.0225485
-0.0223197
-0.0220167
-0.0216393
-0.0211874
-0.0206615
-0.0200622
-0.0193905
-0.0186472
-0.0178333
-0.0169498
-0.0159981
-0.0149794
-0.013895
-0.0127465
-0.0115354
-0.0102636
-0.00893251
-0.00754403
-0.00610003
-0.00460226
-0.00305245
-0.00145253
0.000195332
0.00188894
0.00362624
0.00540515
0.00722328
0.00907807
0.010967
0.0128878
0.014838
0.016815
0.0188165
0.0208398
0.0228825
0.024942
0.0270155
0.0291002
0.0311935
0.0332926
0.0353949
0.0374976
0.0395978
0.0416927
0.0437798
0.0458563
0.0479193
0.0499658
0.051993
0.0539981
0.0559784
0.0579311
0.0598532
0.061742
0.0635949
0.0654094
0.067183
0.0689129
0.0705964
0.0722311
0.0738148
0.0753453
0.0768204
0.0782376
0.0795949
0.0808903
0.082122
0.0832883
0.0843873
0.0854174
0.0863769
0.0872646
0.0880793
0.0888201
0.0894858
0.0900751
0.0905873
0.0910216
0.0913779
0.091656
0.0918557
0.091977
0.0920203
0.091986
0.0918749
0.0916881
0.0914265
0.0910913
0.0906841
0.0902066
0.0896612
0.0890505
0.0883773
0.0876443
0.0868548
0.0860123
0.0851212
0.0841861
0.0832121
0.0822044
0.0811685
0.0801103
0.0790364
0.0779542
0.0768717
0.0757976
0.0747409
0.0737111
0.0727186
0.0717748
0.070892
0.0700835
0.0693635
0.0687463
0.068246
0.0678755
0.0676441
0.0675536
0.0675929
0.0677056
-0.000126245
1.13956e-05
2.87666e-05
-7.69097e-05
-0.00029676
-0.000628554
-0.00106672
-0.00160279
-0.00222642
-0.00292644
-0.00369176
-0.00451216
-0.00537727
-0.00627693
-0.00720163
-0.00814255
-0.00909124
-0.01004
-0.0109815
-0.0119088
-0.0128162
-0.0136974
-0.0145469
-0.0153601
-0.0161326
-0.0168599
-0.0175383
-0.0181645
-0.0187355
-0.0192487
-0.0197015
-0.0200915
-0.0204168
-0.0206759
-0.0208677
-0.0209912
-0.0210453
-0.0210291
-0.0209418
-0.0207829
-0.0205525
-0.0202507
-0.0198777
-0.0194337
-0.0189189
-0.0183337
-0.017679
-0.0169555
-0.016164
-0.0153057
-0.0143817
-0.0133932
-0.0123415
-0.011228
-0.0100544
-0.00882195
-0.00753239
-0.00618745
-0.00478892
-0.00333849
-0.00183779
-0.000288716
0.00130663
0.00294621
0.00462802
0.00634996
0.0081097
0.00990482
0.011733
0.0135919
0.0154793
0.0173926
0.0193293
0.0212872
0.0232639
0.0252567
0.027263
0.0292802
0.0313055
0.0333364
0.0353704
0.0374045
0.0394361
0.0414625
0.0434814
0.04549
0.0474854
0.0494648
0.0514254
0.0533646
0.0552799
0.0571683
0.0590272
0.0608539
0.0626459
0.0644009
0.0661163
0.0677895
0.0694178
0.0709992
0.0725313
0.0740122
0.0754396
0.0768112
0.078125
0.0793791
0.080572
0.0817019
0.082767
0.0837657
0.0846966
0.0855584
0.0863502
0.087071
0.0877197
0.088295
0.0887964
0.0892232
0.0895754
0.0898528
0.0900553
0.0901828
0.0902358
0.090215
0.0901212
0.0899554
0.0897186
0.0894119
0.0890369
0.0885956
0.0880902
0.0875236
0.0868982
0.0862168
0.0854825
0.0846989
0.0838703
0.0830013
0.0820968
0.0811618
0.0802016
0.0792217
0.0782287
0.0772297
0.0762323
0.0752448
0.0742753
0.0733328
0.0724267
0.0715673
0.0707657
0.0700334
0.0693823
0.0688238
0.0683687
0.068026
0.0678009
0.0676936
0.0677059
0.0678181
-0.000158778
2.0132e-05
5.20268e-05
-4.41271e-05
-0.000248489
-0.000556902
-0.000963676
-0.00146051
-0.00203843
-0.00268767
-0.00339783
-0.00415958
-0.00496369
-0.00580094
-0.00666247
-0.00753987
-0.00842555
-0.00931213
-0.0101923
-0.01106
-0.0119095
-0.012735
-0.0135312
-0.0142936
-0.0150176
-0.0156997
-0.0163357
-0.016922
-0.017456
-0.0179353
-0.0183573
-0.0187196
-0.0190205
-0.019258
-0.019431
-0.0195385
-0.0195795
-0.0195534
-0.0194593
-0.0192966
-0.0190649
-0.0187644
-0.0183952
-0.0179576
-0.0174519
-0.0168785
-0.0162379
-0.0155309
-0.0147583
-0.0139212
-0.0130205
-0.0120573
-0.011033
-0.00994899
-0.00880673
-0.00760747
-0.00635285
-0.00504463
-0.00368443
-0.00227383
-0.000814543
0.000691572
0.00224256
0.00383654
0.00547158
0.00714548
0.0088559
0.0106006
0.0123775
0.0141843
0.0160186
0.017878
0.0197602
0.0216628
0.0235838
0.0255203
0.0274699
0.0294299
0.0313979
0.0333714
0.0353477
0.037324
0.0392977
0.0412665
0.0432279
0.0451793
0.0471177
0.0490405
0.0509451
0.052829
0.0546895
0.0565239
0.0583296
0.060104
0.0618449
0.0635499
0.0652165
0.0668421
0.0684242
0.0699608
0.0714498
0.0728892
0.0742766
0.0756099
0.0768873
0.078107
0.0792675
0.080367
0.0814038
0.0823763
0.0832832
0.0841235
0.0848962
0.0856005
0.086235
0.0867988
0.0872911
0.0877118
0.0880607
0.0883376
0.0885423
0.088675
0.0887362
0.0887265
0.0886471
0.0884986
0.0882822
0.087999
0.0876505
0.0872389
0.0867665
0.0862359
0.0856496
0.0850103
0.0843209
0.0835852
0.0828072
0.0819917
0.0811433
0.0802667
0.0793669
0.0784494
0.0775205
0.0765872
0.0756566
0.0747364
0.0738343
0.0729585
0.0721177
0.0713213
0.0705794
0.0699021
0.0692998
0.0687821
0.0683578
0.0680347
0.067817
0.0677068
0.0677191
0.0678577
-3.16725e-05
0.000168122
0.000209524
0.000119248
-7.69034e-05
-0.000372386
-0.000759975
-0.00123165
-0.00177865
-0.0023918
-0.00306206
-0.00378032
-0.00453822
-0.00532729
-0.00613926
-0.00696663
-0.0078021
-0.0086384
-0.00946909
-0.0102881
-0.0110899
-0.0118693
-0.0126212
-0.0133408
-0.0140245
-0.014668
-0.0152679
-0.0158208
-0.0163235
-0.0167737
-0.0171691
-0.0175076
-0.0177871
-0.0180062
-0.0181632
-0.0182571
-0.0182868
-0.0182519
-0.0181516
-0.0179852
-0.0177525
-0.0174532
-0.0170875
-0.0166556
-0.0161579
-0.0155948
-0.0149667
-0.0142741
-0.0135181
-0.0126996
-0.0118193
-0.0108784
-0.00987837
-0.00882034
-0.00770563
-0.00653563
-0.00531196
-0.00403618
-0.00270975
-0.00133428
8.84331e-05
0.00155657
0.00306836
0.00462205
0.00621568
0.00784704
0.00951389
0.0112141
0.0129456
0.0147062
0.0164936
0.0183053
0.0201392
0.0219932
0.0238648
0.0257516
0.0276509
0.0295605
0.0314779
0.0334005
0.0353258
0.0372509
0.0391736
0.0410915
0.0430022
0.044903
0.0467911
0.0486639
0.0505191
0.0523542
0.0541665
0.0559532
0.057712
0.0594404
0.0611364
0.0627974
0.064421
0.0660047
0.0675462
0.0690436
0.0704948
0.0718977
0.07325
0.0745498
0.0757952
0.0769849
0.078117
0.07919
0.0802019
0.0811515
0.0820375
0.082859
0.0836152
0.0843049
0.084927
0.0854806
0.0859652
0.0863806
0.0867266
0.087003
0.0872096
0.0873467
0.0874148
0.0874149
0.0873477
0.0872142
0.0870152
0.086752
0.0864262
0.08604
0.0855958
0.085096
0.0845429
0.0839392
0.0832878
0.0825924
0.0818572
0.0810865
0.0802849
0.0794568
0.078607
0.0777408
0.0768644
0.0759844
0.0751077
0.0742412
0.0733923
0.0725684
0.0717778
0.071029
0.0703313
0.0696939
0.0691259
0.0686357
0.0682317
0.0679209
0.0677085
0.0675984
0.0676137
0.0677691
0.000261027
0.000450313
0.00048444
0.00038916
0.00019252
-9.8318e-05
-0.000475411
-0.000929704
-0.00145387
-0.00203916
-0.00267694
-0.0033593
-0.00407858
-0.00482652
-0.00559578
-0.00637918
-0.00717015
-0.00796223
-0.00874877
-0.009524
-0.010283
-0.0110206
-0.0117321
-0.0124128
-0.0130593
-0.0136676
-0.0142341
-0.0147559
-0.0152297
-0.0156532
-0.0160241
-0.0163401
-0.0165996
-0.0168012
-0.0169432
-0.0170245
-0.017044
-0.017001
-0.0168948
-0.0167249
-0.0164911
-0.0161931
-0.0158308
-0.0154046
-0.0149147
-0.0143614
-0.0137451
-0.0130666
-0.0123265
-0.0115257
-0.010665
-0.00974568
-0.0087689
-0.00773577
-0.00664751
-0.00550564
-0.00431171
-0.00306708
-0.00177314
-0.000431521
0.000955983
0.00238764
0.00386179
0.00537669
0.0069304
0.00852074
0.0101456
0.0118031
0.013491
0.0152072
0.0169492
0.0187151
0.0205026
0.0223096
0.0241338
0.0259726
0.0278236
0.0296847
0.0315534
0.0334271
0.0353031
0.0371791
0.0390528
0.0409217
0.0427836
0.0446357
0.0464754
0.0483004
0.0501082
0.0518964
0.0536623
0.0554033
0.057117
0.0588015
0.0604543
0.0620732
0.0636556
0.0651992
0.0667019
0.0681618
0.0695768
0.0709447
0.0722635
0.0735311
0.0747461
0.075907
0.0770121
0.0780596
0.0790479
0.0799756
0.0808417
0.0816454
0.0823857
0.0830615
0.0836717
0.0842156
0.0846928
0.085103
0.0854462
0.085722
0.0859303
0.0860714
0.0861461
0.0861552
0.0860996
0.08598
0.0857972
0.0855526
0.085248
0.0848856
0.0844676
0.0839963
0.083474
0.0829032
0.0822868
0.0816286
0.0809326
0.0802031
0.0794441
0.07866
0.0778553
0.0770354
0.076206
0.0753734
0.0745442
0.0737248
0.0729218
0.0721424
0.0713941
0.070685
0.0700234
0.0694176
0.0688758
0.0684056
0.0680149
0.0677107
0.0674983
0.0673835
0.0673918
0.0675414
0.000708226
0.00085963
0.000868989
0.000758026
0.000551257
0.000256448
-0.000117636
-0.000562781
-0.00107135
-0.00163599
-0.00224884
-0.00290241
-0.00358964
-0.00430328
-0.00503627
-0.0057819
-0.00653417
-0.00728702
-0.00803446
-0.00877115
-0.0094918
-0.010192
-0.0108671
-0.0115129
-0.0121254
-0.0127017
-0.0132378
-0.0137308
-0.0141781
-0.0145771
-0.0149255
-0.0152212
-0.0154624
-0.0156476
-0.0157755
-0.0158451
-0.0158552
-0.0158049
-0.0156934
-0.0155204
-0.0152857
-0.0149889
-0.01463
-0.0142093
-0.0137269
-0.013183
-0.0125781
-0.0119129
-0.0111881
-0.0104042
-0.00956226
-0.00866351
-0.00770897
-0.00669961
-0.00563672
-0.00452179
-0.00335625
-0.00214133
-0.000878446
0.000430726
0.00178447
0.00318124
0.00461945
0.00609726
0.0076127
0.00916375
0.0107485
0.0123651
0.0140112
0.0156848
0.0173836
0.0191055
0.0208487
0.0226108
0.0243894
0.0261823
0.0279871
0.0298019
0.031624
0.0334508
0.0352799
0.0371089
0.0389357
0.0407579
0.0425731
0.0443787
0.0461722
0.0479515
0.0497142
0.0514576
0.0531792
0.0548765
0.0565475
0.05819
0.0598017
0.0613804
0.0629235
0.064429
0.0658948
0.067319
0.0686996
0.0700342
0.071321
0.0725581
0.0737443
0.074878
0.0759573
0.0769806
0.0779463
0.0788533
0.0797006
0.0804874
0.0812125
0.081875
0.0824739
0.0830086
0.0834788
0.0838842
0.0842246
0.0844996
0.0847093
0.0848542
0.0849349
0.0849525
0.0849075
0.0848007
0.0846329
0.0844055
0.0841205
0.08378
0.0833861
0.082941
0.0824468
0.081906
0.0813216
0.0806973
0.080037
0.0793446
0.0786239
0.0778792
0.0771148
0.0763359
0.075548
0.074757
0.073969
0.07319
0.0724261
0.0716839
0.0709706
0.0702935
0.0696604
0.0690785
0.0685553
0.0680979
0.0677135
0.0674092
0.0671905
0.0670637
0.0670534
0.0671764
0.0012925
0.00138587
0.00135609
0.0012188
0.000993456
0.000687179
0.000308229
-0.000135176
-0.000635682
-0.00118722
-0.00178202
-0.0024137
-0.00307601
-0.00376184
-0.00446485
-0.00517911
-0.00589846
-0.00661768
-0.00733131
-0.00803403
-0.00872114
-0.00938843
-0.0100312
-0.0106457
-0.0112282
-0.0117755
-0.0122844
-0.0127517
-0.0131748
-0.0135514
-0.0138793
-0.0141565
-0.0143811
-0.0145516
-0.0146668
-0.0147256
-0.0147269
-0.0146699
-0.0145539
-0.0143783
-0.0141429
-0.0138473
-0.0134918
-0.0130764
-0.0126011
-0.0120662
-0.0114723
-0.0108198
-0.0101093
-0.00934151
-0.00851747
-0.00763822
-0.00670468
-0.00571788
-0.00467916
-0.00358985
-0.00245119
-0.00126441
-3.10348e-05
0.00124728
0.002569
0.00393269
0.00533674
0.00677928
0.00825839
0.00977221
0.0113189
0.0128966
0.0145031
0.0161362
0.0177939
0.0194743
0.0211753
0.0228947
0.0246301
0.0263794
0.0281405
0.0299113
0.0316891
0.0334715
0.035256
0.0370406
0.038823
0.0406009
0.0423718
0.0441334
0.0458833
0.0476194
0.0493392
0.0510402
0.0527199
0.054376
0.0560066
0.0576095
0.0591824
0.060723
0.0622291
0.0636986
0.0651296
0.0665201
0.067868
0.0691712
0.0704278
0.0716363
0.0727953
0.0739033
0.0749583
0.0759588
0.0769033
0.0777908
0.0786204
0.0793912
0.0801021
0.0807521
0.0813403
0.0818663
0.0823299
0.0827306
0.0830682
0.0833424
0.0835533
0.0837015
0.0837879
0.0838131
0.0837778
0.0836825
0.0835283
0.0833166
0.0830495
0.0827289
0.0823569
0.0819354
0.0814665
0.0809527
0.0803971
0.0798032
0.0791747
0.0785152
0.0778285
0.0771184
0.0763894
0.0756462
0.0748942
0.0741388
0.0733858
0.0726405
0.0719088
0.0711969
0.0705113
0.069859
0.0692469
0.0686816
0.0681697
0.0677179
0.0673329
0.0670215
0.0667895
0.0666432
0.0666032
0.066683
0.00199451
0.00201537
0.00193545
0.00176287
0.0015114
0.00118676
0.000796121
0.000347915
-0.00015184
-0.000696578
-0.00128035
-0.00189685
-0.00254006
-0.00320426
-0.00388334
-0.00457164
-0.0052639
-0.00595476
-0.0066393
-0.00731274
-0.00797075
-0.00860894
-0.00922351
-0.00981032
-0.0103662
-0.0108878
-0.0113721
-0.0118165
-0.012218
-0.0125744
-0.0128837
-0.013144
-0.0133536
-0.0135109
-0.0136147
-0.0136639
-0.0136573
-0.0135943
-0.0134742
-0.0132964
-0.0130605
-0.0127664
-0.0124142
-0.0120039
-0.0115355
-0.0110093
-0.0104257
-0.00978517
-0.00908829
-0.00833587
-0.00752882
-0.00666801
-0.00575438
-0.00478905
-0.00377325
-0.00270818
-0.001595
-0.000434966
0.000770379
0.00201946
0.00331087
0.0046432
0.00601481
0.00742384
0.00886848
0.010347
0.0118577
0.0133985
0.0149673
0.016562
0.0181809
0.0198219
0.0214829
0.0231617
0.0248562
0.0265643
0.028284
0.0300131
0.0317489
0.0334891
0.0352315
0.0369741
0.0387145
0.0404504
0.0421794
0.0438993
0.045608
0.0473033
0.0489827
0.0506436
0.0522836
0.0539009
0.0554933
0.0570588
0.058595
0.0600997
0.0615708
0.0630065
0.0644047
0.0657634
0.0670805
0.0683539
0.0695821
0.0707636
0.0718971
0.0729808
0.0740129
0.0749918
0.0759164
0.0767856
0.0775987
0.0783544
0.0790518
0.0796899
0.0802681
0.080786
0.0812433
0.0816395
0.0819743
0.0822475
0.0824594
0.0826107
0.0827021
0.0827342
0.0827075
0.0826227
0.0824808
0.0822834
0.0820325
0.0817299
0.0813775
0.0809771
0.0805308
0.0800413
0.0795114
0.0789445
0.0783441
0.0777136
0.0770566
0.0763767
0.0756782
0.0749658
0.0742444
0.0735192
0.0727952
0.0720775
0.0713717
0.0706836
0.0700194
0.0693852
0.0687873
0.0682318
0.0677245
0.0672716
0.0668795
0.0665546
0.0663024
0.0661291
0.06605
0.0660737
0.00279518
0.00273449
0.00259617
0.00238151
0.00209687
0.00174756
0.00133996
0.000880544
0.000375871
-0.000168495
-0.000747066
-0.00135415
-0.00198454
-0.00263267
-0.00329306
-0.0039608
-0.00463089
-0.00529831
-0.00595859
-0.00660731
-0.00724005
-0.00785315
-0.0084431
-0.00900577
-0.00953807
-0.010037
-0.0104997
-0.0109234
-0.0113056
-0.0116442
-0.011937
-0.0121822
-0.0123781
-0.0125235
-0.012617
-0.0126576
-0.0126441
-0.0125758
-0.0124521
-0.0122724
-0.0120364
-0.011744
-0.011395
-0.0109896
-0.0105278
-0.0100099
-0.00943619
-0.00880707
-0.00812318
-0.00738535
-0.00659439
-0.00575108
-0.00485638
-0.00391142
-0.00291734
-0.0018752
-0.000786132
0.000348501
0.00152722
0.00274861
0.00401137
0.00531401
0.00665482
0.00803205
0.0094441
0.0108893
0.0123658
0.0138716
0.0154047
0.0169632
0.0185452
0.0201489
0.021772
0.0234123
0.0250681
0.0267372
0.0284177
0.0301072
0.0318033
0.0335037
0.0352064
0.0369092
0.0386098
0.0403059
0.0419953
0.043676
0.0453459
0.0470026
0.0486437
0.0502667
0.0518695
0.0534501
0.0550066
0.0565368
0.0580384
0.0595092
0.0609474
0.0623512
0.0637184
0.0650471
0.066335
0.0675805
0.068782
0.0699381
0.0710475
0.0721083
0.0731188
0.0740775
0.0749833
0.0758354
0.0766328
0.0773743
0.0780589
0.0786859
0.0792547
0.079765
0.0802163
0.0806082
0.0809401
0.0812123
0.081425
0.0815789
0.0816748
0.081713
0.0816941
0.0816187
0.0814879
0.0813033
0.0810669
0.0807803
0.0804454
0.0800639
0.0796378
0.0791697
0.0786625
0.0781194
0.0775436
0.0769384
0.076307
0.0756531
0.0749808
0.0742944
0.0735988
0.0728985
0.0721981
0.0715026
0.0708169
0.0701468
0.0694978
0.0688758
0.0682861
0.0677341
0.0672253
0.0667653
0.06636
0.0660155
0.065737
0.0655301
0.0654039
0.0653617
0.00367715
0.00352973
0.00332762
0.00306528
0.00274215
0.00236284
0.00193256
0.00145716
0.000942126
0.000392602
-0.000185967
-0.000789133
-0.00141184
-0.00204903
-0.00269592
-0.00334796
-0.00400047
-0.00464909
-0.0052895
-0.00591762
-0.0065292
-0.00712103
-0.00768945
-0.00823137
-0.00874325
-0.00922232
-0.00966597
-0.0100715
-0.0104367
-0.0107593
-0.0110375
-0.0112693
-0.0114533
-0.011588
-0.0116724
-0.0117053
-0.0116857
-0.0116128
-0.011486
-0.0113049
-0.011069
-0.0107784
-0.0104327
-0.0100321
-0.00957675
-0.00906676
-0.0085024
-0.00788413
-0.00721265
-0.00648868
-0.0057129
-0.00488615
-0.00400946
-0.00308386
-0.00211028
-0.00108976
-2.35683e-05
0.00108696
0.00224051
0.00343577
0.0046714
0.00594588
0.00725753
0.00860474
0.009986
0.0113996
0.0128438
0.0143164
0.0158158
0.01734
0.0188873
0.0204556
0.0220427
0.0236468
0.025266
0.0268984
0.0285418
0.0301939
0.0318524
0.0335152
0.0351804
0.0368456
0.0385087
0.0401673
0.0418194
0.0434632
0.0450964
0.0467167
0.0483217
0.0499091
0.0514768
0.053023
0.0545457
0.0560425
0.0575114
0.0589504
0.0603577
0.0617315
0.0630696
0.0643699
0.0656304
0.0668496
0.0680261
0.0691584
0.0702451
0.0712843
0.0722744
0.0732142
0.0741026
0.0749386
0.0757212
0.0764493
0.0771218
0.0777384
0.0782984
0.0788015
0.0792471
0.0796346
0.0799638
0.0802348
0.0804481
0.0806043
0.0807041
0.0807477
0.0807356
0.0806685
0.0805476
0.0803745
0.0801509
0.0798786
0.0795591
0.0791941
0.0787858
0.0783366
0.0778493
0.0773269
0.0767724
0.0761888
0.0755792
0.0749473
0.074297
0.0736325
0.072958
0.0722777
0.071596
0.0709173
0.0702466
0.069589
0.06895
0.0683345
0.0677474
0.0671935
0.0666775
0.0662049
0.0657811
0.0654115
0.0651011
0.064855
0.0646755
0.0645604
0.00462558
0.00438834
0.00411917
0.0038055
0.00343939
0.00302527
0.00256806
0.00207188
0.00154175
0.000982614
0.000398788
-0.000205142
-0.000824813
-0.00145591
-0.00209402
-0.00273471
-0.00337409
-0.00400798
-0.00463257
-0.00524396
-0.00583835
-0.00641249
-0.00696287
-0.00748684
-0.00798128
-0.0084433
-0.00887042
-0.00926023
-0.0096105
-0.00991918
-0.0101844
-0.0104045
-0.0105779
-0.0107034
-0.0107797
-0.0108059
-0.010781
-0.0107042
-0.0105749
-0.0103927
-0.0101573
-0.00986849
-0.00952612
-0.00913028
-0.00868108
-0.0081786
-0.00762316
-0.0070153
-0.00635563
-0.00564472
-0.00488333
-0.00407233
-0.00321269
-0.0023053
-0.00135106
-0.000351043
0.000693505
0.0017813
0.00291113
0.00408173
0.00529172
0.00653955
0.00782366
0.00914256
0.0104948
0.0118786
0.0132921
0.0147335
0.016201
0.0176929
0.0192074
0.0207422
0.0222954
0.0238653
0.0254501
0.0270478
0.0286561
0.0302729
0.0318961
0.0335236
0.0351534
0.0367832
0.0384108
0.0400341
0.0416513
0.0432604
0.0448591
0.0464451
0.0480161
0.04957
0.0511048
0.0526187
0.0541095
0.055575
0.0570132
0.0584224
0.0598008
0.0611464
0.062457
0.0637306
0.0649655
0.0661601
0.0673131
0.0684232
0.0694885
0.0705074
0.0714785
0.0724006
0.0732726
0.0740936
0.0748623
0.0755777
0.076239
0.0768457
0.0773975
0.0778938
0.0783338
0.0787172
0.0790436
0.0793134
0.0795271
0.0796852
0.0797882
0.0798365
0.0798303
0.0797705
0.0796582
0.0794952
0.079283
0.0790232
0.0787171
0.0783666
0.0779737
0.0775409
0.0770708
0.0765661
0.0760297
0.0754643
0.074873
0.0742594
0.0736273
0.0729805
0.0723228
0.0716581
0.0709904
0.0703238
0.0696632
0.0690134
0.0683793
0.0677653
0.0671757
0.0666146
0.0660866
0.0655966
0.0651494
0.0647499
0.064403
0.0641129
0.0638753
0.0636823
0.00562804
0.0052995
0.00496088
0.004593
0.00418086
0.00372827
0.00323995
0.00271903
0.00216992
0.00159663
0.00100346
0.000394406
-0.00022688
-0.000856145
-0.00148956
-0.00212328
-0.0027537
-0.00337672
-0.00398909
-0.00458732
-0.00516807
-0.00572771
-0.00626352
-0.0067725
-0.00725213
-0.00769973
-0.00811275
-0.00848908
-0.00882656
-0.00912321
-0.00937722
-0.0095871
-0.00975138
-0.00986879
-0.00993811
-0.00995848
-0.00992906
-0.00984902
-0.00971776
-0.00953489
-0.00930014
-0.0090133
-0.00867425
-0.00828304
-0.00783977
-0.00734453
-0.00679762
-0.00619963
-0.00555113
-0.00485263
-0.00410485
-0.00330874
-0.00246518
-0.00157494
-0.000638901
0.000341791
0.00136589
0.00243226
0.0035398
0.0046872
0.00587298
0.00709567
0.00835387
0.00964617
0.010971
0.0123267
0.0137113
0.0151232
0.0165609
0.0180224
0.0195058
0.0210091
0.0225305
0.0240683
0.0256207
0.0271856
0.0287609
0.0303445
0.0319345
0.0335288
0.0351253
0.0367218
0.038316
0.0399062
0.0414906
0.043067
0.0446333
0.046187
0.0477262
0.0492488
0.0507528
0.0522364
0.0536972
0.0551334
0.0565429
0.0579242
0.0592755
0.0605947
0.0618796
0.0631282
0.064339
0.0655108
0.0666419
0.067731
0.0687763
0.0697764
0.0707297
0.0716353
0.0724921
0.0732989
0.0740545
0.074758
0.0754088
0.0760065
0.0765505
0.0770403
0.077475
0.0778542
0.0781779
0.0784464
0.0786602
0.0788198
0.0789256
0.0789777
0.0789766
0.0789231
0.0788184
0.0786642
0.0784618
0.0782127
0.0779182
0.0775801
0.0772005
0.0767817
0.0763263
0.0758366
0.0753151
0.0747647
0.0741885
0.0735897
0.0729722
0.0723393
0.0716945
0.0710412
0.0703831
0.0697243
0.0690694
0.0684228
0.067789
0.0671719
0.0665751
0.0660025
0.065458
0.0649462
0.0644716
0.0640381
0.0636505
0.0633127
0.0630133
0.0627391
0.00667401
0.0062535
0.00584394
0.00541991
0.00495904
0.00446497
0.00394206
0.0033931
0.00282123
0.00223031
0.00162401
0.00100569
0.000379109
-0.000252292
-0.000885039
-0.00151581
-0.00214093
-0.00275687
-0.00336063
-0.00394909
-0.00451912
-0.00506744
-0.00559153
-0.00608853
-0.00655597
-0.00699144
-0.00739273
-0.00775774
-0.00808436
-0.00837075
-0.00861525
-0.0088164
-0.00897279
-0.00908323
-0.00914666
-0.0091622
-0.009129
-0.00904626
-0.00891351
-0.00873044
-0.0084966
-0.00821179
-0.00787607
-0.00748945
-0.00705187
-0.00656351
-0.00602481
-0.00543626
-0.00479827
-0.00411143
-0.00337659
-0.00259459
-0.0017661
-0.00089191
2.69691e-05
0.00098941
0.00199431
0.00304064
0.00412726
0.00525276
0.00641573
0.00761485
0.00884877
0.0101161
0.0114152
0.0127443
0.0141018
0.0154861
0.0168957
0.0183286
0.0197828
0.0212565
0.022748
0.0242558
0.0257777
0.0273119
0.0288561
0.0304086
0.0319675
0.0335306
0.0350958
0.0366609
0.038224
0.0397832
0.0413369
0.0428827
0.0444185
0.0459421
0.0474514
0.0489448
0.0504201
0.0518751
0.053308
0.0547167
0.0560996
0.0574549
0.0587809
0.0600753
0.0613361
0.0625615
0.0637501
0.0649006
0.0660113
0.0670809
0.0681075
0.0690899
0.0700268
0.0709171
0.0717596
0.0725531
0.0732966
0.073989
0.07463
0.0752191
0.0757559
0.0762394
0.076669
0.0770443
0.0773652
0.0776323
0.0778461
0.0780068
0.0781146
0.0781699
0.078173
0.0781249
0.0780268
0.0778801
0.077686
0.077446
0.0771613
0.0768337
0.0764653
0.0760584
0.0756152
0.0751377
0.0746285
0.0740901
0.0735257
0.0729387
0.0723324
0.0717098
0.0710741
0.0704283
0.069776
0.069121
0.0684678
0.0678204
0.0671827
0.0665582
0.0659501
0.0653618
0.064797
0.0642598
0.063754
0.0632831
0.0628514
0.0624628
0.062099
0.0617414
0.0077538
0.00724197
0.0067604
0.00627864
0.00576715
0.00522929
0.00466898
0.00408868
0.00349098
0.00287919
0.00225638
0.00162548
0.000989909
0.000352821
-0.000282707
-0.000913864
-0.00153726
-0.00214974
-0.00274825
-0.0033301
-0.00389236
-0.00443244
-0.00494732
-0.00543487
-0.00589274
-0.0063185
-0.00671018
-0.00706582
-0.00738347
-0.00766131
-0.00789789
-0.00809173
-0.00824147
-0.00834604
-0.00840462
-0.00841617
-0.00837986
-0.0082951
-0.0081614
-0.00797834
-0.00774563
-0.0074631
-0.00713071
-0.00674846
-0.0063164
-0.00583475
-0.00530387
-0.00472416
-0.00409613
-0.00342041
-0.00269775
-0.00192891
-0.00111456
-0.000255511
0.000647209
0.00159257
0.00257954
0.00360709
0.00467403
0.00577897
0.00692058
0.00809764
0.00930884
0.0105527
0.0118275
0.0131318
0.0144639
0.0158225
0.0172057
0.0186117
0.0200385
0.0214846
0.0229483
0.0244278
0.0259212
0.0274264
0.0289417
0.0304651
0.0319949
0.0335287
0.0350646
0.0366004
0.0381344
0.0396648
0.0411897
0.0427069
0.0442142
0.0457096
0.0471913
0.0486574
0.0501057
0.0515343
0.052941
0.0543243
0.0556823
0.0570135
0.0583159
0.0595873
0.0608258
0.0620297
0.0631977
0.0643284
0.0654202
0.0664715
0.0674809
0.068447
0.0693687
0.0702448
0.071074
0.0718552
0.0725872
0.0732693
0.0739012
0.0744824
0.0750123
0.0754899
0.0759145
0.0762859
0.0766043
0.0768699
0.0770833
0.0772447
0.0773541
0.0774118
0.0774184
0.0773748
0.0772822
0.0771418
0.0769546
0.076722
0.0764454
0.0761266
0.0757676
0.0753704
0.074937
0.0744693
0.0739696
0.0734405
0.0728853
0.0723071
0.0717088
0.0710932
0.0704631
0.0698212
0.0691711
0.0685164
0.0678611
0.0672091
0.0665637
0.0659279
0.0653047
0.0646971
0.0641087
0.0635428
0.0630028
0.0624915
0.0620132
0.0615714
0.0611413
0.060699
0.00885874
0.00825644
0.00770279
0.00716248
0.00659869
0.00601497
0.00541528
0.00480102
0.00417471
0.00353904
0.00289659
0.00225015
0.00160236
0.000956351
0.000314753
-0.000319859
-0.000944673
-0.00155672
-0.00215315
-0.00273139
-0.00328882
-0.00382315
-0.00433164
-0.00481215
-0.00526259
-0.00568092
-0.00606514
-0.0064133
-0.00672366
-0.00699463
-0.00722473
-0.00741257
-0.00755688
-0.00765672
-0.00771133
-0.00771972
-0.00768102
-0.00759478
-0.00746058
-0.00727793
-0.00704652
-0.00676631
-0.00643729
-0.00605939
-0.00563265
-0.00515738
-0.00463393
-0.00406264
-0.00344404
-0.00277879
-0.00206757
-0.00131105
-0.000509938
0.000334917
0.00122251
0.0021519
0.00312213
0.00413212
0.00518062
0.00626631
0.00738798
0.00854447
0.00973441
0.0109562
0.0122084
0.0134895
0.014798
0.0161325
0.017491
0.0188718
0.0202731
0.0216935
0.0231312
0.0245843
0.026051
0.0275293
0.0290175
0.0305139
0.0320164
0.033523
0.0350314
0.03654
0.038047
0.0395505
0.0410486
0.042539
0.0440198
0.0454891
0.0469451
0.0483859
0.0498092
0.051213
0.0525956
0.0539552
0.0552904
0.0565992
0.0578797
0.0591297
0.0603476
0.0615317
0.0626807
0.0637932
0.0648674
0.0659019
0.0668953
0.0678464
0.0687541
0.0696171
0.0704341
0.0712037
0.0719251
0.0725977
0.0732212
0.0737951
0.0743184
0.0747904
0.0752103
0.075578
0.0758937
0.0761579
0.0763708
0.0765323
0.0766427
0.0767023
0.0767117
0.0766719
0.0765838
0.0764484
0.0762667
0.0760401
0.07577
0.0754583
0.0751068
0.0747174
0.0742916
0.0738312
0.0733386
0.0728164
0.0722677
0.0716954
0.0711022
0.0704904
0.0698627
0.0692216
0.0685704
0.0679127
0.0672521
0.0665919
0.0659352
0.0652847
0.0646431
0.0640132
0.063398
0.0628007
0.0622239
0.0616698
0.0611426
0.0606459
0.0601484
0.0596209
0.00998094
0.00928923
0.00866424
0.00806454
0.00744756
0.0068165
0.00617527
0.00552514
0.00486774
0.00420554
0.00354097
0.00287608
0.0022131
0.00155517
0.000904619
0.000263594
-0.000365526
-0.000979849
-0.00157689
-0.00215419
-0.00270962
-0.00324056
-0.00374503
-0.00422086
-0.00466612
-0.00507902
-0.00545763
-0.00580012
-0.00610486
-0.00637052
-0.0065955
-0.00677848
-0.00691855
-0.00701485
-0.00706635
-0.00707219
-0.00703186
-0.0069448
-0.00681043
-0.00662839
-0.00639857
-0.00612085
-0.00579514
-0.00542143
-0.0049999
-0.00453078
-0.00401434
-0.00345098
-0.0028413
-0.00218591
-0.00148538
-0.00074036
4.83675e-05
0.00087992
0.00175341
0.00266796
0.00362259
0.00461616
0.00564742
0.00671518
0.00781833
0.00895567
0.0101257
0.011327
0.0125581
0.0138176
0.0151042
0.0164162
0.0177517
0.0191091
0.0204868
0.0218833
0.0232967
0.0247252
0.026167
0.0276203
0.0290834
0.0305547
0.0320319
0.033513
0.0349961
0.0364795
0.0379614
0.0394399
0.040913
0.0423786
0.0438349
0.0452801
0.0467124
0.0481297
0.0495298
0.0509108
0.052271
0.053609
0.054923
0.0562111
0.0574714
0.0587018
0.0599007
0.0610666
0.0621983
0.0632939
0.064352
0.0653709
0.0663497
0.0672871
0.068182
0.069033
0.0698385
0.0705974
0.0713091
0.0719731
0.0725889
0.0731558
0.073673
0.0741396
0.074555
0.0749193
0.0752326
0.0754952
0.0757071
0.0758685
0.0759794
0.0760403
0.076052
0.0760151
0.0759305
0.0757989
0.0756215
0.0753994
0.0751345
0.0748284
0.0744827
0.074099
0.0736787
0.0732236
0.0727359
0.0722183
0.0716736
0.0711046
0.0705136
0.0699028
0.0692744
0.0686312
0.0679761
0.0673124
0.0666433
0.0659718
0.0653006
0.0646323
0.0639694
0.0633143
0.0626699
0.0620387
0.0614228
0.0608238
0.0602461
0.0596933
0.0591278
0.058515
0.0111133
0.0103338
0.00963766
0.00897859
0.00830767
0.00762814
0.00694404
0.00625602
0.00556557
0.00487471
0.00418551
0.0034996
0.00281914
0.00214665
0.00148434
0.000834087
0.000198165
-0.000420995
-0.00102114
-0.00159999
-0.00215559
-0.00268567
-0.00318824
-0.00366151
-0.00410378
-0.00451309
-0.00488776
-0.00522634
-0.00552713
-0.00578872
-0.00600983
-0.00618934
-0.00632631
-0.00641986
-0.00646908
-0.00647329
-0.0064319
-0.0063444
-0.00621026
-0.00602922
-0.00580116
-0.00552596
-0.00520355
-0.00483401
-0.00441751
-0.0039542
-0.00344439
-0.00288857
-0.0022873
-0.00164109
-0.00095049
-0.00021623
0.000560885
0.00138005
0.00224047
0.00314126
0.00408134
0.00505956
0.00607481
0.00712599
0.00821197
0.00933147
0.010483
0.0116652
0.0128768
0.0141165
0.0153826
0.0166736
0.0179878
0.0193235
0.0206794
0.0220537
0.0234446
0.0248503
0.026269
0.0276993
0.0291393
0.0305872
0.0320409
0.0334985
0.0349582
0.0364183
0.0378771
0.0393325
0.0407826
0.0422253
0.0436591
0.0450822
0.0464926
0.0478882
0.0492669
0.0506268
0.0519667
0.0532848
0.0545794
0.0558485
0.0570901
0.0583026
0.0594843
0.0606337
0.0617494
0.0628296
0.0638727
0.0648775
0.065843
0.0667681
0.0676513
0.068491
0.069286
0.0700352
0.0707381
0.0713942
0.0720029
0.0725634
0.0730748
0.0735363
0.0739476
0.0743087
0.0746197
0.0748806
0.0750914
0.0752521
0.0753632
0.0754251
0.0754384
0.0754038
0.0753216
0.0751928
0.0750184
0.0747998
0.0745386
0.0742366
0.073895
0.0735153
0.0730986
0.0726467
0.0721619
0.0716467
0.0711038
0.0705356
0.0699442
0.0693316
0.0687
0.068052
0.0673903
0.0667179
0.0660375
0.0653518
0.0646634
0.0639745
0.0632875
0.0626049
0.0619289
0.0612616
0.0606047
0.0599593
0.0593297
0.05872
0.0580862
0.0573887
0.0122502
0.0113839
0.0106172
0.00989896
0.00917349
0.00844461
0.00771641
0.00698919
0.00626399
0.00554246
0.0048266
0.00411771
0.00341746
0.00272797
0.00205149
0.00138968
0.000744523
0.000118103
-0.000487433
-0.00107016
-0.00162793
-0.00215933
-0.0026622
-0.00313485
-0.00357589
-0.00398346
-0.00435596
-0.00469205
-0.00499031
-0.00524923
-0.00546771
-0.00564485
-0.00577981
-0.0058715
-0.00591922
-0.00592248
-0.00588065
-0.00579314
-0.00565957
-0.00547978
-0.00525366
-0.00498107
-0.00466197
-0.00429649
-0.00388476
-0.00342698
-0.00292351
-0.00237481
-0.00178136
-0.00114366
-0.000462348
0.000261836
0.00102817
0.00183591
0.00268425
0.00357224
0.00449877
0.00546276
0.00646323
0.0074991
0.00856917