/*--------------------------------*- C++ -*----------------------------------*\
  =========                 |
  \\      /  F ield         | OpenFOAM: The Open Source CFD Toolbox
   \\    /   O peration     | Website:  https://openfoam.org
    \\  /    A nd           | Version:  7
     \\/     M anipulation  |
\*---------------------------------------------------------------------------*/
FoamFile
{
    version     2.0;
    format      ascii;
    class       surfaceScalarField;
    location    "0.1125";
    object      phi;
}
// * * * * * * * * * * * * * * * * * * * * * * * * * * * * * * * * * * * * * //

dimensions      [0 3 -1 0 0 0 0];

internalField   nonuniform List<scalar> 
50880
(
7.96045e-12
-8.01659e-12
3.85906e-11
-3.06247e-11
7.98347e-11
-4.12489e-11
1.23601e-10
-4.37653e-11
1.64371e-10
-4.0775e-11
1.98105e-10
-3.37344e-11
2.21904e-10
-2.37976e-11
2.33651e-10
-1.1749e-11
2.31886e-10
1.76782e-12
2.15623e-10
1.62623e-11
1.84214e-10
3.14114e-11
1.37256e-10
4.69633e-11
7.45586e-11
6.26961e-11
-3.85522e-12
7.84153e-11
-9.78508e-11
9.39829e-11
-2.07155e-10
1.09307e-10
-3.31457e-10
1.24296e-10
-4.70296e-10
1.38845e-10
-6.23205e-10
1.52907e-10
-7.89642e-10
1.66435e-10
-9.69053e-10
1.79405e-10
-1.1608e-09
1.91751e-10
-1.36428e-09
2.03483e-10
-1.57884e-09
2.14552e-10
-1.80383e-09
2.24994e-10
-2.03856e-09
2.34736e-10
-2.28239e-09
2.43826e-10
-2.53464e-09
2.52244e-10
-2.79463e-09
2.59997e-10
-3.06171e-09
2.6708e-10
-3.3352e-09
2.7349e-10
-3.61443e-09
2.79231e-10
-3.89875e-09
2.84326e-10
-4.18753e-09
2.88783e-10
-4.48013e-09
2.92605e-10
-4.77594e-09
2.95805e-10
-5.07434e-09
2.98394e-10
-5.37469e-09
3.00364e-10
-5.67643e-09
3.01734e-10
-5.97896e-09
3.02539e-10
-6.28174e-09
3.02786e-10
-6.58421e-09
3.02468e-10
-6.88583e-09
3.01605e-10
-7.18604e-09
3.00213e-10
-7.48433e-09
2.98293e-10
-7.7802e-09
2.95857e-10
-8.07314e-09
2.92939e-10
-8.36269e-09
2.89553e-10
-8.64838e-09
2.8569e-10
-8.92974e-09
2.81364e-10
-9.20633e-09
2.76598e-10
-9.47773e-09
2.71404e-10
-9.74352e-09
2.65791e-10
-1.00033e-08
2.59775e-10
-1.02567e-08
2.53382e-10
-1.05033e-08
2.46627e-10
-1.07428e-08
2.39523e-10
-1.09749e-08
2.32079e-10
-1.11992e-08
2.2431e-10
-1.14155e-08
2.16227e-10
-1.16233e-08
2.07838e-10
-1.18224e-08
1.99149e-10
-1.20126e-08
1.90176e-10
-1.21936e-08
1.80936e-10
-1.2365e-08
1.71442e-10
-1.25267e-08
1.61701e-10
-1.26784e-08
1.51723e-10
-1.28199e-08
1.41532e-10
-1.29511e-08
1.3115e-10
-1.30717e-08
1.20587e-10
-1.31815e-08
1.09848e-10
-1.32805e-08
9.89508e-11
-1.33684e-08
8.79115e-11
-1.34451e-08
7.67424e-11
-1.35106e-08
6.54556e-11
-1.35647e-08
5.40655e-11
-1.36073e-08
4.25866e-11
-1.36383e-08
3.10354e-11
-1.36577e-08
1.94279e-11
-1.36655e-08
7.77611e-12
-1.36616e-08
-3.90914e-12
-1.3646e-08
-1.561e-11
-1.36187e-08
-2.73054e-11
-1.35797e-08
-3.89826e-11
-1.3529e-08
-5.06349e-11
-1.34668e-08
-6.22486e-11
-1.3393e-08
-7.38031e-11
-1.33077e-08
-8.52775e-11
-1.32111e-08
-9.66515e-11
-1.31032e-08
-1.07907e-10
-1.29841e-08
-1.1903e-10
-1.28541e-08
-1.30009e-10
-1.27133e-08
-1.40824e-10
-1.25618e-08
-1.51453e-10
-1.24e-08
-1.61877e-10
-1.22279e-08
-1.72083e-10
-1.20458e-08
-1.82058e-10
-1.1854e-08
-1.91781e-10
-1.16528e-08
-2.01231e-10
-1.14424e-08
-2.1039e-10
-1.12232e-08
-2.19246e-10
-1.09954e-08
-2.27785e-10
-1.07594e-08
-2.35991e-10
-1.05156e-08
-2.43845e-10
-1.02642e-08
-2.51327e-10
-1.00058e-08
-2.58421e-10
-9.74069e-09
-2.65115e-10
-9.46929e-09
-2.71396e-10
-9.19204e-09
-2.77249e-10
-8.90939e-09
-2.82656e-10
-8.62179e-09
-2.87596e-10
-8.32974e-09
-2.92056e-10
-8.03371e-09
-2.96025e-10
-7.73422e-09
-2.99496e-10
-7.43176e-09
-3.02453e-10
-7.12689e-09
-3.04874e-10
-6.82015e-09
-3.0674e-10
-6.51211e-09
-3.08038e-10
-6.20336e-09
-3.08758e-10
-5.89447e-09
-3.08891e-10
-5.58604e-09
-3.08424e-10
-5.2787e-09
-3.07346e-10
-4.97305e-09
-3.05644e-10
-4.66974e-09
-3.0331e-10
-4.36941e-09
-3.00335e-10
-4.07269e-09
-2.96714e-10
-3.78025e-09
-2.92439e-10
-3.49275e-09
-2.87499e-10
-3.21087e-09
-2.81882e-10
-2.93529e-09
-2.75584e-10
-2.66668e-09
-2.68606e-10
-2.40573e-09
-2.60952e-10
-2.1531e-09
-2.52624e-10
-1.90948e-09
-2.43625e-10
-1.67553e-09
-2.33953e-10
-1.45191e-09
-2.23613e-10
-1.2393e-09
-2.12616e-10
-1.03832e-09
-2.0098e-10
-8.49592e-10
-1.88727e-10
-6.73719e-10
-1.75875e-10
-5.11275e-10
-1.62445e-10
-3.62817e-10
-1.4846e-10
-2.28864e-10
-1.33954e-10
-1.09889e-10
-1.18976e-10
-6.3038e-12
-1.03586e-10
8.15539e-11
-8.78586e-11
1.53433e-10
-7.18796e-11
2.09182e-10
-5.57493e-11
2.4878e-10
-3.95972e-11
2.72376e-10
-2.35948e-11
2.80349e-10
-7.97209e-12
2.73388e-10
6.96125e-12
2.52595e-10
2.07934e-11
2.19629e-10
3.29669e-11
1.76925e-10
4.27045e-11
1.28005e-10
4.89195e-11
7.78908e-11
5.01144e-11
3.36714e-11
4.42192e-11
4.99262e-12
2.86782e-11
4.99249e-12
3.48109e-11
-4.28197e-11
1.08757e-10
-1.04577e-10
1.99697e-10
-1.32188e-10
2.92861e-10
-1.3692e-10
3.76245e-10
-1.24164e-10
4.40053e-10
-9.75379e-11
4.76657e-10
-6.03913e-11
4.80346e-10
-1.54453e-11
4.46977e-10
3.51413e-11
3.73547e-10
8.96945e-11
2.58104e-10
1.46856e-10
9.94491e-11
2.05612e-10
-1.02981e-10
2.65128e-10
-3.49279e-10
3.24726e-10
-6.39128e-10
3.83839e-10
-9.71853e-10
4.42036e-10
-1.34653e-09
4.98973e-10
-1.76205e-09
5.54363e-10
-2.21708e-09
6.07941e-10
-2.71016e-09
6.59527e-10
-3.23974e-09
7.08984e-10
-3.80414e-09
7.56156e-10
-4.40166e-09
8.00995e-10
-5.03049e-09
8.43398e-10
-5.68882e-09
8.83324e-10
-6.37483e-09
9.20738e-10
-7.0866e-09
9.5561e-10
-7.82228e-09
9.87918e-10
-8.57997e-09
1.01769e-09
-9.35782e-09
1.04492e-09
-1.01539e-08
1.06959e-09
-1.09664e-08
1.09173e-09
-1.17935e-08
1.11139e-09
-1.26333e-08
1.12858e-09
-1.3484e-08
1.14332e-09
-1.43439e-08
1.15567e-09
-1.52111e-08
1.16564e-09
-1.6084e-08
1.17326e-09
-1.69609e-08
1.1786e-09
-1.78401e-08
1.18171e-09
-1.87199e-08
1.18262e-09
-1.95988e-08
1.18137e-09
-2.04752e-08
1.17801e-09
-2.13476e-08
1.17258e-09
-2.22144e-08
1.16511e-09
-2.30742e-08
1.15567e-09
-2.39255e-08
1.14432e-09
-2.47671e-08
1.1311e-09
-2.55975e-08
1.11605e-09
-2.64153e-08
1.09923e-09
-2.72194e-08
1.08068e-09
-2.80084e-08
1.06045e-09
-2.87813e-08
1.0386e-09
-2.95367e-08
1.01519e-09
-3.02736e-08
9.9028e-10
-3.09908e-08
9.63921e-10
-3.16875e-08
9.36167e-10
-3.23625e-08
9.07071e-10
-3.30148e-08
8.76683e-10
-3.36437e-08
8.45052e-10
-3.42481e-08
8.12219e-10
-3.48271e-08
7.78226e-10
-3.53801e-08
7.43127e-10
-3.59061e-08
7.06977e-10
-3.64045e-08
6.69825e-10
-3.68745e-08
6.31719e-10
-3.73155e-08
5.92716e-10
-3.77269e-08
5.52876e-10
-3.8108e-08
5.1226e-10
-3.84583e-08
4.7092e-10
-3.87774e-08
4.28905e-10
-3.90647e-08
3.86271e-10
-3.93198e-08
3.43076e-10
-3.95425e-08
2.99374e-10
-3.97322e-08
2.55217e-10
-3.98888e-08
2.10659e-10
-4.0012e-08
1.65763e-10
-4.01016e-08
1.20588e-10
-4.01573e-08
7.51917e-11
-4.01792e-08
2.96256e-11
-4.0167e-08
-1.6054e-11
-4.01208e-08
-6.17857e-11
-4.00406e-08
-1.07506e-10
-3.99265e-08
-1.53152e-10
-3.97784e-08
-1.98669e-10
-3.95967e-08
-2.44001e-10
-3.93814e-08
-2.89085e-10
-3.91328e-08
-3.33849e-10
-3.88513e-08
-3.78222e-10
-3.8537e-08
-4.2214e-10
-3.81905e-08
-4.6554e-10
-3.78122e-08
-5.08356e-10
-3.74025e-08
-5.50521e-10
-3.6962e-08
-5.91964e-10
-3.64912e-08
-6.32618e-10
-3.59909e-08
-6.72422e-10
-3.54616e-08
-7.11311e-10
-3.49042e-08
-7.49216e-10
-3.43193e-08
-7.86066e-10
-3.37079e-08
-8.21792e-10
-3.30709e-08
-8.56333e-10
-3.2409e-08
-8.8963e-10
-3.17234e-08
-9.21619e-10
-3.1015e-08
-9.52231e-10
-3.02849e-08
-9.81399e-10
-2.95343e-08
-1.00906e-09
-2.87642e-08
-1.03515e-09
-2.7976e-08
-1.05963e-09
-2.71709e-08
-1.08241e-09
-2.63501e-08
-1.10345e-09
-2.5515e-08
-1.12268e-09
-2.4667e-08
-1.14004e-09
-2.38075e-08
-1.15548e-09
-2.29381e-08
-1.16895e-09
-2.20601e-08
-1.18039e-09
-2.11753e-08
-1.18974e-09
-2.02851e-08
-1.19695e-09
-1.93912e-08
-1.20196e-09
-1.84952e-08
-1.20472e-09
-1.75989e-08
-1.2052e-09
-1.6704e-08
-1.20334e-09
-1.58122e-08
-1.19912e-09
-1.49254e-08
-1.19248e-09
-1.40453e-08
-1.18339e-09
-1.31738e-08
-1.17183e-09
-1.23127e-08
-1.15777e-09
-1.1464e-08
-1.14117e-09
-1.06295e-08
-1.12202e-09
-9.81109e-09
-1.10029e-09
-9.01071e-09
-1.07596e-09
-8.23028e-09
-1.04904e-09
-7.47171e-09
-1.01952e-09
-6.7369e-09
-9.87435e-10
-6.02774e-09
-9.52783e-10
-5.34611e-09
-9.15585e-10
-4.69385e-09
-8.75873e-10
-4.07278e-09
-8.33691e-10
-3.48465e-09
-7.89103e-10
-2.9312e-09
-7.42186e-10
-2.41405e-09
-6.93026e-10
-1.93477e-09
-6.41726e-10
-1.49482e-09
-5.88405e-10
-1.09556e-09
-5.3322e-10
-7.38169e-10
-4.76367e-10
-4.23667e-10
-4.18089e-10
-1.52845e-10
-3.5868e-10
7.37735e-11
-2.98497e-10
2.55998e-10
-2.37971e-10
3.94048e-10
-1.77646e-10
4.88667e-10
-1.18211e-10
5.41249e-10
-6.05535e-11
5.5403e-10
-5.81868e-12
5.30315e-10
4.45102e-11
4.74776e-10
8.85063e-11
3.93835e-10
1.23646e-10
2.96102e-10
1.46651e-10
1.92829e-10
1.53386e-10
9.81607e-11
1.38887e-10
2.85052e-11
9.83331e-11
3.34979e-11
5.15708e-11
-9.43952e-11
1.5146e-10
-2.04461e-10
2.68157e-10
-2.48885e-10
3.82252e-10
-2.5101e-10
4.77516e-10
-2.19429e-10
5.40442e-10
-1.60469e-10
5.60152e-10
-8.01022e-11
5.28155e-10
1.65526e-11
4.381e-10
1.25196e-10
2.85408e-10
2.42382e-10
6.69167e-11
3.65348e-10
-2.19357e-10
4.9189e-10
-5.74394e-10
6.20159e-10
-9.98408e-10
7.48736e-10
-1.49098e-09
8.7641e-10
-2.05119e-09
1.00225e-09
-2.67765e-09
1.12544e-09
-3.36864e-09
1.24536e-09
-4.12217e-09
1.36146e-09
-4.93601e-09
1.47336e-09
-5.80771e-09
1.58069e-09
-6.73476e-09
1.68321e-09
-7.71441e-09
1.78064e-09
-8.74393e-09
1.87292e-09
-9.82044e-09
1.95982e-09
-1.0941e-08
2.04133e-09
-1.21028e-08
2.11734e-09
-1.33027e-08
2.18785e-09
-1.45378e-08
2.25281e-09
-1.58051e-08
2.31224e-09
-1.71017e-08
2.36615e-09
-1.84245e-08
2.41457e-09
-1.97707e-08
2.45756e-09
-2.11372e-08
2.49515e-09
-2.25213e-08
2.52741e-09
-2.39201e-08
2.55443e-09
-2.53307e-08
2.57624e-09
-2.67504e-08
2.59294e-09
-2.81764e-08
2.60463e-09
-2.96061e-08
2.61139e-09
-3.10368e-08
2.61332e-09
-3.24659e-08
2.61051e-09
-3.38909e-08
2.60305e-09
-3.53094e-08
2.59103e-09
-3.67189e-08
2.57456e-09
-3.81169e-08
2.55374e-09
-3.95013e-08
2.5287e-09
-4.08697e-08
2.49953e-09
-4.222e-08
2.46634e-09
-4.355e-08
2.42922e-09
-4.48576e-08
2.3883e-09
-4.61409e-08
2.34369e-09
-4.73978e-08
2.29549e-09
-4.86264e-08
2.24384e-09
-4.9825e-08
2.18884e-09
-5.09917e-08
2.13062e-09
-5.21248e-08
2.0693e-09
-5.32227e-08
2.00499e-09
-5.42838e-08
1.93779e-09
-5.53066e-08
1.86782e-09
-5.62896e-08
1.79519e-09
-5.72314e-08
1.72e-09
-5.81306e-08
1.64237e-09
-5.8986e-08
1.56241e-09
-5.97964e-08
1.48023e-09
-6.05607e-08
1.39596e-09
-6.12777e-08
1.30971e-09
-6.19464e-08
1.2216e-09
-6.25659e-08
1.13177e-09
-6.31353e-08
1.04033e-09
-6.36538e-08
9.47401e-10
-6.41207e-08
8.531e-10
-6.45351e-08
7.57557e-10
-6.48967e-08
6.60891e-10
-6.52047e-08
5.63225e-10
-6.54587e-08
4.64683e-10
-6.56583e-08
3.65395e-10
-6.58032e-08
2.65491e-10
-6.58931e-08
1.65101e-10
-6.59279e-08
6.43493e-11
-6.59073e-08
-3.66361e-11
-6.58313e-08
-1.37723e-10
-6.57001e-08
-2.38774e-10
-6.55135e-08
-3.39657e-10
-6.5272e-08
-4.4024e-10
-6.49756e-08
-5.40386e-10
-6.46247e-08
-6.39954e-10
-6.42198e-08
-7.388e-10
-6.37612e-08
-8.36778e-10
-6.32496e-08
-9.33744e-10
-6.26856e-08
-1.02956e-09
-6.20699e-08
-1.12407e-09
-6.14033e-08
-1.21715e-09
-6.06866e-08
-1.30862e-09
-5.99209e-08
-1.39836e-09
-5.91071e-08
-1.48621e-09
-5.82463e-08
-1.57203e-09
-5.73399e-08
-1.65568e-09
-5.63889e-08
-1.737e-09
-5.53949e-08
-1.81585e-09
-5.43591e-08
-1.89209e-09
-5.32832e-08
-1.96557e-09
-5.21686e-08
-2.03616e-09
-5.10172e-08
-2.1037e-09
-4.98305e-08
-2.16805e-09
-4.86105e-08
-2.22908e-09
-4.7359e-08
-2.28665e-09
-4.6078e-08
-2.34063e-09
-4.47695e-08
-2.39088e-09
-4.34357e-08
-2.43726e-09
-4.20788e-08
-2.47964e-09
-4.07009e-08
-2.51791e-09
-3.93045e-08
-2.55192e-09
-3.78918e-08
-2.58157e-09
-3.64655e-08
-2.60674e-09
-3.50279e-08
-2.6273e-09
-3.35817e-08
-2.64314e-09
-3.21296e-08
-2.65414e-09
-3.06741e-08
-2.66021e-09
-2.9218e-08
-2.66124e-09
-2.77642e-08
-2.65716e-09
-2.63155e-08
-2.64786e-09
-2.48747e-08
-2.63327e-09
-2.34448e-08
-2.61331e-09
-2.20287e-08
-2.58793e-09
-2.06294e-08
-2.55706e-09
-1.92499e-08
-2.52065e-09
-1.78933e-08
-2.47866e-09
-1.65625e-08
-2.43105e-09
-1.52607e-08
-2.3778e-09
-1.39908e-08
-2.31891e-09
-1.27559e-08
-2.2544e-09
-1.1559e-08
-2.18429e-09
-1.04032e-08
-2.10863e-09
-9.2913e-09
-2.02747e-09
-8.22628e-09
-1.94089e-09
-7.21097e-09
-1.84901e-09
-6.24812e-09
-1.75195e-09
-5.34039e-09
-1.64991e-09
-4.49033e-09
-1.54309e-09
-3.70033e-09
-1.43173e-09
-2.97261e-09
-1.31613e-09
-2.30916e-09
-1.19666e-09
-1.71175e-09
-1.07378e-09
-1.18182e-09
-9.4802e-10
-7.20447e-10
-8.20055e-10
-3.28256e-10
-6.90687e-10
-5.32841e-12
-5.60897e-10
2.48922e-10
-4.31895e-10
4.35899e-10
-3.05188e-10
5.58011e-10
-1.82664e-10
6.18896e-10
-6.67036e-11
6.23712e-10
3.96955e-11
5.79467e-10
1.32752e-10
4.95408e-10
2.07706e-10
3.83411e-10
2.58647e-10
2.58335e-10
2.78461e-10
1.38171e-10
2.5905e-10
4.38165e-11
1.92688e-10
7.73146e-11
5.66027e-11
-1.50995e-10
1.63736e-10
-3.11603e-10
2.83693e-10
-3.68836e-10
3.93101e-10
-3.60413e-10
4.72962e-10
-2.99301e-10
5.07397e-10
-1.94897e-10
4.83352e-10
-5.60491e-11
3.90532e-10
1.09362e-10
2.21005e-10
2.94724e-10
-3.11329e-11
4.94523e-10
-3.69995e-10
7.0421e-10
-7.98224e-10
9.20122e-10
-1.3173e-09
1.13923e-09
-1.92763e-09
1.35907e-09
-2.6288e-09
1.57758e-09
-3.41969e-09
1.79314e-09
-4.29864e-09
2.00438e-09
-5.26349e-09
2.21021e-09
-6.31169e-09
2.40967e-09
-7.44037e-09
2.60205e-09
-8.64641e-09
2.78674e-09
-9.92646e-09
2.96325e-09
-1.1277e-08
3.1312e-09
-1.26944e-08
3.2903e-09
-1.41749e-08
3.44029e-09
-1.57146e-08
3.58103e-09
-1.73096e-08
3.71236e-09
-1.89559e-08
3.83422e-09
-2.06497e-08
3.94658e-09
-2.23869e-08
4.04942e-09
-2.41635e-08
4.14274e-09
-2.59755e-08
4.2266e-09
-2.7819e-08
4.30106e-09
-2.96901e-08
4.36619e-09
-3.15848e-08
4.42211e-09
-3.34993e-08
4.46891e-09
-3.54297e-08
4.50671e-09
-3.73724e-08
4.53564e-09
-3.93236e-08
4.55586e-09
-4.12798e-08
4.5675e-09
-4.32371e-08
4.57072e-09
-4.51923e-08
4.56569e-09
-4.71418e-08
4.55256e-09
-4.90823e-08
4.5315e-09
-5.10104e-08
4.50268e-09
-5.2923e-08
4.46629e-09
-5.48168e-08
4.42251e-09
-5.66888e-08
4.37152e-09
-5.85359e-08
4.3135e-09
-6.03553e-08
4.24865e-09
-6.21442e-08
4.17714e-09
-6.38997e-08
4.09918e-09
-6.56191e-08
4.01496e-09
-6.73e-08
3.92467e-09
-6.89397e-08
3.82854e-09
-7.05358e-08
3.72674e-09
-7.2086e-08
3.61949e-09
-7.3588e-08
3.50698e-09
-7.50396e-08
3.38941e-09
-7.64387e-08
3.26698e-09
-7.77834e-08
3.13986e-09
-7.90717e-08
3.00828e-09
-8.03017e-08
2.87242e-09
-8.14718e-08
2.73249e-09
-8.25803e-08
2.58868e-09
-8.36255e-08
2.44121e-09
-8.46061e-08
2.29028e-09
-8.55206e-08
2.13611e-09
-8.63677e-08
1.9789e-09
-8.71463e-08
1.81888e-09
-8.78551e-08
1.65624e-09
-8.84932e-08
1.49122e-09
-8.90597e-08
1.32401e-09
-8.95536e-08
1.15485e-09
-8.99744e-08
9.83938e-10
-9.03212e-08
8.11507e-10
-9.05936e-08
6.37776e-10
-9.0791e-08
4.62973e-10
-9.09133e-08
2.87322e-10
-9.096e-08
1.1105e-10
-9.0931e-08
-6.56128e-11
-9.08263e-08
-2.42435e-10
-9.06459e-08
-4.1918e-10
-9.03899e-08
-5.95616e-10
-9.00586e-08
-7.71506e-10
-8.96524e-08
-9.46611e-10
-8.91717e-08
-1.12068e-09
-8.8617e-08
-1.29348e-09
-8.7989e-08
-1.46473e-09
-8.72886e-08
-1.63422e-09
-8.65165e-08
-1.80167e-09
-8.56737e-08
-1.96684e-09
-8.47614e-08
-2.12947e-09
-8.37807e-08
-2.28932e-09
-8.27329e-08
-2.44611e-09
-8.16195e-08
-2.59961e-09
-8.0442e-08
-2.74955e-09
-7.9202e-08
-2.89569e-09
-7.79012e-08
-3.03776e-09
-7.65416e-08
-3.17551e-09
-7.5125e-08
-3.30868e-09
-7.36535e-08
-3.43704e-09
-7.21293e-08
-3.56033e-09
-7.05547e-08
-3.6783e-09
-6.89321e-08
-3.79069e-09
-6.72639e-08
-3.89728e-09
-6.55527e-08
-3.99781e-09
-6.38013e-08
-4.09206e-09
-6.20124e-08
-4.17979e-09
-6.01889e-08
-4.26076e-09
-5.83338e-08
-4.33475e-09
-5.64501e-08
-4.40154e-09
-5.45411e-08
-4.46091e-09
-5.26101e-08
-4.51266e-09
-5.06602e-08
-4.55657e-09
-4.86951e-08
-4.59244e-09
-4.67181e-08
-4.62009e-09
-4.4733e-08
-4.63931e-09
-4.27432e-08
-4.64994e-09
-4.07527e-08
-4.65181e-09
-3.87651e-08
-4.64477e-09
-3.67843e-08
-4.62867e-09
-3.48142e-08
-4.60337e-09
-3.28587e-08
-4.56875e-09
-3.09219e-08
-4.52472e-09
-2.90078e-08
-4.47117e-09
-2.71204e-08
-4.40803e-09
-2.52639e-08
-4.33522e-09
-2.34422e-08
-4.25272e-09
-2.16595e-08
-4.16048e-09
-1.99199e-08
-4.05853e-09
-1.82274e-08
-3.94689e-09
-1.65861e-08
-3.82561e-09
-1.5e-08
-3.6948e-09
-1.34729e-08
-3.55456e-09
-1.20087e-08
-3.40505e-09
-1.06112e-08
-3.24649e-09
-9.28405e-09
-3.07913e-09
-8.03067e-09
-2.90329e-09
-6.8544e-09
-2.71937e-09
-5.75832e-09
-2.52781e-09
-4.74527e-09
-2.32917e-09
-3.81781e-09
-2.12413e-09
-2.97811e-09
-1.91348e-09
-2.22791e-09
-1.69821e-09
-1.56847e-09
-1.47949e-09
-1.00043e-09
-1.25873e-09
-5.23684e-10
-1.03764e-09
-1.37266e-10
-8.18314e-10
1.60846e-10
-6.03299e-10
3.73925e-10
-3.95744e-10
5.06748e-10
-1.99526e-10
5.65874e-10
-1.94299e-11
5.59969e-10
1.38655e-10
5.00153e-10
2.67521e-10
4.00347e-10
3.58452e-10
2.77624e-10
4.01183e-10
1.52537e-10
3.84138e-10
4.96302e-11
2.95596e-10
1.26945e-10
5.33939e-11
-2.04385e-10
1.52092e-10
-4.103e-10
2.56252e-10
-4.72995e-10
3.3981e-10
-4.43967e-10
3.81821e-10
-3.4131e-10
3.64849e-10
-1.77924e-10
2.746e-10
3.41956e-11
9.96101e-11
2.8437e-10
-1.69192e-10
5.63521e-10
-5.38499e-10
8.6383e-10
-1.01325e-09
1.17897e-09
-1.59664e-09
1.50352e-09
-2.29048e-09
1.83307e-09
-3.0954e-09
2.16399e-09
-4.01106e-09
2.49325e-09
-5.03625e-09
2.81833e-09
-6.16907e-09
3.13721e-09
-7.40702e-09
3.44815e-09
-8.74712e-09
3.74978e-09
-1.0186e-08
4.04092e-09
-1.17199e-08
4.32067e-09
-1.33449e-08
4.58821e-09
-1.50567e-08
4.84299e-09
-1.68508e-08
5.08444e-09
-1.87228e-08
5.31227e-09
-2.06679e-08
5.52612e-09
-2.26814e-08
5.72582e-09
-2.47583e-08
5.91121e-09
-2.6894e-08
6.0822e-09
-2.90833e-08
6.23877e-09
-3.13215e-08
6.38091e-09
-3.36035e-08
6.50867e-09
-3.59246e-08
6.62213e-09
-3.82798e-08
6.7214e-09
-4.06643e-08
6.80661e-09
-4.30733e-08
6.87792e-09
-4.55021e-08
6.93549e-09
-4.7946e-08
6.97953e-09
-5.04004e-08
7.01023e-09
-5.28607e-08
7.0278e-09
-5.53225e-08
7.03249e-09
-5.77813e-08
7.02453e-09
-6.02329e-08
7.00416e-09
-6.26731e-08
6.97164e-09
-6.50976e-08
6.92722e-09
-6.75025e-08
6.87119e-09
-6.98838e-08
6.80379e-09
-7.22376e-08
6.72533e-09
-7.45602e-08
6.63608e-09
-7.68478e-08
6.53632e-09
-7.9097e-08
6.42634e-09
-8.13043e-08
6.30643e-09
-8.34662e-08
6.17689e-09
-8.55796e-08
6.03803e-09
-8.76412e-08
5.89015e-09
-8.9648e-08
5.73354e-09
-9.1597e-08
5.56852e-09
-9.34854e-08
5.39539e-09
-9.53105e-08
5.21446e-09
-9.70695e-08
5.02602e-09
-9.876e-08
4.83039e-09
-1.0038e-07
4.62787e-09
-1.01926e-07
4.41876e-09
-1.03397e-07
4.20338e-09
-1.0479e-07
3.98204e-09
-1.06104e-07
3.75507e-09
-1.07337e-07
3.52277e-09
-1.08486e-07
3.28548e-09
-1.09551e-07
3.04353e-09
-1.10529e-07
2.79723e-09
-1.1142e-07
2.54691e-09
-1.12221e-07
2.29292e-09
-1.12933e-07
2.03558e-09
-1.13553e-07
1.77522e-09
-1.14081e-07
1.51219e-09
-1.14517e-07
1.24682e-09
-1.14858e-07
9.79465e-10
-1.15106e-07
7.10469e-10
-1.15259e-07
4.40178e-10
-1.15317e-07
1.68942e-10
-1.15279e-07
-1.0288e-10
-1.15147e-07
-3.74927e-10
-1.14919e-07
-6.4684e-10
-1.14597e-07
-9.18256e-10
-1.14179e-07
-1.18881e-09
-1.13668e-07
-1.45813e-09
-1.13063e-07
-1.72584e-09
-1.12365e-07
-1.99156e-09
-1.11574e-07
-2.25491e-09
-1.10693e-07
-2.51551e-09
-1.09722e-07
-2.77297e-09
-1.08662e-07
-3.02691e-09
-1.07514e-07
-3.27693e-09
-1.06281e-07
-3.52265e-09
-1.04963e-07
-3.76367e-09
-1.03563e-07
-3.99962e-09
-1.02083e-07
-4.23008e-09
-1.00524e-07
-4.45469e-09
-9.88886e-08
-4.67303e-09
-9.71794e-08
-4.88473e-09
-9.53987e-08
-5.08939e-09
-9.35491e-08
-5.28664e-09
-9.16333e-08
-5.47609e-09
-8.96542e-08
-5.65736e-09
-8.76149e-08
-5.83006e-09
-8.55183e-08
-5.99383e-09
-8.33678e-08
-6.14829e-09
-8.11668e-08
-6.2931e-09
-7.89187e-08
-6.42787e-09
-7.66272e-08
-6.55227e-09
-7.4296e-08
-6.66594e-09
-7.1929e-08
-6.76855e-09
-6.95302e-08
-6.85978e-09
-6.71035e-08
-6.93929e-09
-6.46533e-08
-7.00678e-09
-6.21838e-08
-7.06194e-09
-5.96994e-08
-7.10448e-09
-5.72046e-08
-7.13412e-09
-5.4704e-08
-7.15061e-09
-5.22021e-08
-7.15368e-09
-4.97037e-08
-7.14312e-09
-4.72137e-08
-7.1187e-09
-4.47368e-08
-7.08022e-09
-4.22781e-08
-7.02751e-09
-3.98424e-08
-6.96042e-09
-3.74347e-08
-6.87882e-09
-3.50602e-08
-6.78259e-09
-3.27238e-08
-6.67165e-09
-3.04305e-08
-6.54595e-09
-2.81855e-08
-6.40547e-09
-2.59938e-08
-6.25023e-09
-2.38604e-08
-6.08031e-09
-2.17902e-08
-5.8958e-09
-1.97882e-08
-5.69685e-09
-1.78591e-08
-5.48367e-09
-1.60076e-08
-5.25653e-09
-1.42383e-08
-5.01578e-09
-1.25556e-08
-4.76183e-09
-1.09637e-08
-4.4952e-09
-9.46655e-09
-4.21651e-09
-8.06787e-09
-3.92649e-09
-6.77101e-09
-3.62603e-09
-5.57895e-09
-3.31619e-09
-4.4942e-09
-2.99823e-09
-3.51875e-09
-2.67367e-09
-2.65394e-09
-2.3443e-09
-1.90038e-09
-2.01229e-09
-1.2578e-09
-1.68022e-09
-7.24891e-10
-1.35123e-09
-2.99117e-10
-1.02907e-09
2.34715e-11
-7.18333e-10
2.48488e-10
-4.24544e-10
3.83481e-10
-1.54423e-10
4.38217e-10
8.39194e-11
4.24998e-10
2.80739e-10
3.58996e-10
4.24453e-10
2.5865e-10
5.01528e-10
1.46183e-10
4.96605e-10
4.85238e-11
3.93256e-10
1.7547e-10
4.46924e-11
-2.49084e-10
1.2321e-10
-4.88815e-10
1.96424e-10
-5.4622e-10
2.36979e-10
-4.84513e-10
2.22849e-10
-3.27189e-10
1.35784e-10
-9.08542e-11
-3.92348e-11
2.09218e-10
-3.14387e-10
5.59523e-10
-6.99245e-10
9.48376e-10
-1.20121e-09
1.3658e-09
-1.82559e-09
1.80333e-09
-2.57597e-09
2.2539e-09
-3.45451e-09
2.71161e-09
-4.46196e-09
3.17143e-09
-5.598e-09
3.6293e-09
-6.86138e-09
4.08171e-09
-8.25001e-09
4.52583e-09
-9.76114e-09
4.95928e-09
-1.13914e-08
5.38006e-09
-1.3137e-08
5.78653e-09
-1.49937e-08
6.17736e-09
-1.6957e-08
6.55144e-09
-1.90218e-08
6.90785e-09
-2.11833e-08
7.2459e-09
-2.3436e-08
7.56499e-09
-2.57746e-08
7.86471e-09
-2.81935e-08
8.14471e-09
-3.0687e-08
8.40476e-09
-3.32495e-08
8.6447e-09
-3.58752e-08
8.86448e-09
-3.85584e-08
9.06406e-09
-4.12932e-08
9.2435e-09
-4.40739e-08
9.40287e-09
-4.68948e-08
9.54232e-09
-4.97502e-08
9.66199e-09
-5.26344e-08
9.76211e-09
-5.55418e-08
9.84289e-09
-5.84669e-08
9.90459e-09
-6.14041e-08
9.94749e-09
-6.43482e-08
9.97187e-09
-6.72938e-08
9.97806e-09
-7.02356e-08
9.96638e-09
-7.31686e-08
9.93717e-09
-7.60878e-08
9.89077e-09
-7.89881e-08
9.82756e-09
-8.18648e-08
9.7479e-09
-8.47132e-08
9.65218e-09
-8.75287e-08
9.54078e-09
-9.03067e-08
9.41409e-09
-9.30428e-08
9.27251e-09
-9.5733e-08
9.11646e-09
-9.83729e-08
8.94633e-09
-1.00959e-07
8.76255e-09
-1.03486e-07
8.56554e-09
-1.05952e-07
8.35572e-09
-1.08352e-07
8.13352e-09
-1.10682e-07
7.89938e-09
-1.12941e-07
7.65371e-09
-1.15123e-07
7.39696e-09
-1.17227e-07
7.12956e-09
-1.19248e-07
6.85193e-09
-1.21185e-07
6.56452e-09
-1.23034e-07
6.26777e-09
-1.24793e-07
5.96212e-09
-1.26459e-07
5.64801e-09
-1.2803e-07
5.32591e-09
-1.29503e-07
4.99626e-09
-1.30877e-07
4.65953e-09
-1.3215e-07
4.31617e-09
-1.33319e-07
3.96665e-09
-1.34384e-07
3.61144e-09
-1.35342e-07
3.25101e-09
-1.36192e-07
2.88583e-09
-1.36933e-07
2.51638e-09
-1.37564e-07
2.14315e-09
-1.38084e-07
1.76661e-09
-1.38492e-07
1.38726e-09
-1.38787e-07
1.0056e-09
-1.38969e-07
6.22116e-10
-1.39037e-07
2.3731e-10
-1.38992e-07
-1.4831e-10
-1.38832e-07
-5.34234e-10
-1.38559e-07
-9.19946e-10
-1.38173e-07
-1.30493e-09
-1.37673e-07
-1.68867e-09
-1.3706e-07
-2.07063e-09
-1.36336e-07
-2.45029e-09
-1.355e-07
-2.8271e-09
-1.34555e-07
-3.20052e-09
-1.335e-07
-3.57003e-09
-1.32338e-07
-3.93507e-09
-1.3107e-07
-4.29509e-09
-1.29697e-07
-4.64954e-09
-1.28222e-07
-4.99787e-09
-1.26646e-07
-5.33954e-09
-1.24972e-07
-5.67398e-09
-1.23201e-07
-6.00066e-09
-1.21337e-07
-6.319e-09
-1.19382e-07
-6.62846e-09
-1.17338e-07
-6.9285e-09
-1.15209e-07
-7.21855e-09
-1.12997e-07
-7.49809e-09
-1.10707e-07
-7.76657e-09
-1.08341e-07
-8.02343e-09
-1.05902e-07
-8.26816e-09
-1.03396e-07
-8.50023e-09
-1.00825e-07
-8.71912e-09
-9.8194e-08
-8.92431e-09
-9.55066e-08
-9.11531e-09
-9.27673e-08
-9.2916e-09
-8.99805e-08
-9.4527e-09
-8.71509e-08
-9.59815e-09
-8.42832e-08
-9.72748e-09
-8.13822e-08
-9.84024e-09
-7.8453e-08
-9.93599e-09
-7.55007e-08
-1.00143e-08
-7.25303e-08
-1.00748e-08
-6.95474e-08
-1.01171e-08
-6.65572e-08
-1.01408e-08
-6.35654e-08
-1.01455e-08
-6.05775e-08
-1.0131e-08
-5.75991e-08
-1.0097e-08
-5.46362e-08
-1.00432e-08
-5.16944e-08
-9.96932e-09
-4.87796e-08
-9.87519e-09
-4.58978e-08
-9.76065e-09
-4.30548e-08
-9.62554e-09
-4.02567e-08
-9.46978e-09
-3.75093e-08
-9.2933e-09
-3.48187e-08
-9.0961e-09
-3.21907e-08
-8.87824e-09
-2.96312e-08
-8.63982e-09
-2.71459e-08
-8.38102e-09
-2.47407e-08
-8.10207e-09
-2.24211e-08
-7.80329e-09
-2.01925e-08
-7.4851e-09
-1.80603e-08
-7.148e-09
-1.60295e-08
-6.79263e-09
-1.4105e-08
-6.41975e-09
-1.22912e-08
-6.03025e-09
-1.05925e-08
-5.62522e-09
-9.01255e-09
-5.20595e-09
-7.5548e-09
-4.77395e-09
-6.222e-09
-4.33103e-09
-5.01632e-09
-3.87934e-09
-3.9392e-09
-3.42142e-09
-2.9912e-09
-2.96028e-09
-2.17192e-09
-2.4995e-09
-1.47979e-09
-2.04336e-09
-9.119e-10
-1.59696e-09
-4.63831e-10
-1.1664e-09
-1.29405e-10
-7.58972e-10
9.95523e-11
-3.83381e-10
2.3347e-10
-4.99993e-11
2.85322e-10
2.28887e-10
2.70956e-10
4.38819e-10
2.09523e-10
5.62962e-10
1.24077e-10
5.82051e-10
4.25633e-11
4.7477e-10
2.18034e-10
3.25288e-11
-2.81609e-10
8.22772e-11
-5.38561e-10
1.12784e-10
-5.76724e-10
9.66911e-11
-4.68419e-10
1.16449e-11
-2.42149e-10
-1.6086e-10
8.16495e-11
-4.36054e-10
4.84403e-10
-8.26352e-10
9.49825e-10
-1.34159e-09
1.46362e-09
-1.98943e-09
2.01364e-09
-2.77543e-09
2.58934e-09
-3.70344e-09
3.18191e-09
-4.77566e-09
3.78382e-09
-5.99296e-09
4.38875e-09
-7.35506e-09
4.99139e-09
-8.86059e-09
5.58724e-09
-1.05073e-08
6.17256e-09
-1.22922e-08
6.74419e-09
-1.42116e-08
7.2995e-09
-1.62614e-08
7.83632e-09
-1.84369e-08
8.35278e-09
-2.07329e-08
8.84745e-09
-2.3144e-08
9.31901e-09
-2.56647e-08
9.76655e-09
-2.82889e-08
1.01892e-08
-3.10105e-08
1.05864e-08
-3.38234e-08
1.09576e-08
-3.67211e-08
1.13024e-08
-3.96971e-08
1.16208e-08
-4.27451e-08
1.19124e-08
-4.58584e-08
1.21773e-08
-4.90304e-08
1.24155e-08
-5.22546e-08
1.26271e-08
-5.55245e-08
1.28122e-08
-5.88336e-08
1.2971e-08
-6.21753e-08
1.31038e-08
-6.55433e-08
1.32109e-08
-6.89312e-08
1.32925e-08
-7.23328e-08
1.33491e-08
-7.57418e-08
1.33809e-08
-7.91523e-08
1.33885e-08
-8.25581e-08
1.33722e-08
-8.59534e-08
1.33325e-08
-8.93324e-08
1.32698e-08
-9.26895e-08
1.31846e-08
-9.6019e-08
1.30774e-08
-9.93156e-08
1.29488e-08
-1.02574e-07
1.27991e-08
-1.05789e-07
1.2629e-08
-1.08955e-07
1.24389e-08
-1.12068e-07
1.22294e-08
-1.15123e-07
1.20011e-08
-1.18115e-07
1.17545e-08
-1.21039e-07
1.14901e-08
-1.23892e-07
1.12085e-08
-1.26669e-07
1.09104e-08
-1.29366e-07
1.05962e-08
-1.31979e-07
1.02665e-08
-1.34504e-07
9.922e-09
-1.36937e-07
9.56316e-09
-1.39276e-07
9.19061e-09
-1.41516e-07
8.80494e-09
-1.43655e-07
8.40673e-09
-1.4569e-07
7.99658e-09
-1.47617e-07
7.57509e-09
-1.49434e-07
7.14287e-09
-1.51138e-07
6.70054e-09
-1.52727e-07
6.24869e-09
-1.54199e-07
5.78797e-09
-1.55551e-07
5.31898e-09
-1.56782e-07
4.84236e-09
-1.5789e-07
4.35875e-09
-1.58873e-07
3.86877e-09
-1.5973e-07
3.37308e-09
-1.60459e-07
2.87232e-09
-1.61059e-07
2.36714e-09
-1.6153e-07
1.85821e-09
-1.61871e-07
1.34618e-09
-1.62081e-07
8.31725e-10
-1.62159e-07
3.15519e-10
-1.62105e-07
-2.01756e-10
-1.6192e-07
-7.19415e-10
-1.61603e-07
-1.23677e-09
-1.61155e-07
-1.75313e-09
-1.60576e-07
-2.26779e-09
-1.59867e-07
-2.78003e-09
-1.59028e-07
-3.28916e-09
-1.5806e-07
-3.79444e-09
-1.56966e-07
-4.29517e-09
-1.55745e-07
-4.79061e-09
-1.544e-07
-5.28004e-09
-1.52933e-07
-5.76272e-09
-1.51344e-07
-6.23791e-09
-1.49637e-07
-6.70489e-09
-1.47814e-07
-7.16291e-09
-1.45877e-07
-7.61123e-09
-1.43828e-07
-8.04911e-09
-1.41671e-07
-8.47581e-09
-1.39409e-07
-8.8906e-09
-1.37045e-07
-9.29274e-09
-1.34582e-07
-9.6815e-09
-1.32024e-07
-1.00562e-08
-1.29374e-07
-1.0416e-08
-1.26638e-07
-1.07602e-08
-1.23818e-07
-1.10882e-08
-1.20919e-07
-1.13993e-08
-1.17945e-07
-1.16926e-08
-1.14902e-07
-1.19677e-08
-1.11793e-07
-1.22237e-08
-1.08625e-07
-1.246e-08
-1.05402e-07
-1.2676e-08
-1.02129e-07
-1.28711e-08
-9.88116e-08
-1.30446e-08
-9.54559e-08
-1.31959e-08
-9.20675e-08
-1.33245e-08
-8.8652e-08
-1.34298e-08
-8.52156e-08
-1.35112e-08
-8.17643e-08
-1.35684e-08
-7.83044e-08
-1.36007e-08
-7.48421e-08
-1.36078e-08
-7.1384e-08
-1.35892e-08
-6.79365e-08
-1.35445e-08
-6.45063e-08
-1.34734e-08
-6.10999e-08
-1.33757e-08
-5.77241e-08
-1.3251e-08
-5.43856e-08
-1.30991e-08
-5.10913e-08
-1.29199e-08
-4.78478e-08
-1.27132e-08
-4.4662e-08
-1.24791e-08
-4.15407e-08
-1.22175e-08
-3.84905e-08
-1.19284e-08
-3.55181e-08
-1.16122e-08
-3.263e-08
-1.12691e-08
-2.98328e-08
-1.08993e-08
-2.71327e-08
-1.05034e-08
-2.45359e-08
-1.00819e-08
-2.20484e-08
-9.63558e-09
-1.96757e-08
-9.1653e-09
-1.74233e-08
-8.67211e-09
-1.52963e-08
-8.15725e-09
-1.32994e-08
-7.6222e-09
-1.14366e-08
-7.0687e-09
-9.71176e-09
-6.49882e-09
-8.12782e-09
-5.91497e-09
-6.68714e-09
-5.32002e-09
-5.39124e-09
-4.71732e-09
-4.2407e-09
-4.11082e-09
-3.23502e-09
-3.50519e-09
-2.37247e-09
-2.90591e-09
-1.64994e-09
-2.3195e-09
-1.0627e-09
-1.75364e-09
-6.04279e-10
-1.21739e-09
-2.66174e-10
-7.21487e-10
-3.76528e-11
-2.78522e-10
9.45239e-11
9.67081e-11
1.46415e-10
3.86928e-10
1.37314e-10
5.72064e-10
9.03313e-11
6.29035e-10
3.32379e-11
5.31863e-10
2.51272e-10
1.82242e-11
-2.99829e-10
3.31792e-11
-5.53519e-10
1.21327e-11
-5.55677e-10
-7.13563e-11
-3.84923e-10
-2.3922e-10
-7.42869e-11
-5.09629e-10
3.52067e-10
-8.97677e-10
8.7245e-10
-1.41561e-09
1.46776e-09
-2.07331e-09
2.12132e-09
-2.87835e-09
2.81867e-09
-3.83637e-09
3.54736e-09
-4.9512e-09
4.29674e-09
-6.22512e-09
5.05775e-09
-7.65899e-09
5.82262e-09
-9.25241e-09
6.5848e-09
-1.10039e-08
7.33874e-09
-1.29111e-08
8.07973e-09
-1.49707e-08
8.80381e-09
-1.71788e-08
9.50764e-09
-1.95309e-08
1.01884e-08
-2.20218e-08
1.08437e-08
-2.46461e-08
1.14717e-08
-2.73978e-08
1.20707e-08
-3.02707e-08
1.26395e-08
-3.32584e-08
1.31768e-08
-3.6354e-08
1.3682e-08
-3.95508e-08
1.41543e-08
-4.28417e-08
1.45933e-08
-4.62195e-08
1.49986e-08
-4.96771e-08
1.537e-08
-5.32071e-08
1.57074e-08
-5.68024e-08
1.60108e-08
-6.04555e-08
1.62802e-08
-6.41592e-08
1.65159e-08
-6.79063e-08
1.67181e-08
-7.16895e-08
1.6887e-08
-7.55017e-08
1.70231e-08
-7.93357e-08
1.71266e-08
-8.31846e-08
1.7198e-08
-8.70415e-08
1.72377e-08
-9.08994e-08
1.72464e-08
-9.47516e-08
1.72245e-08
-9.85916e-08
1.71725e-08
-1.02413e-07
1.70911e-08
-1.06209e-07
1.69808e-08
-1.09974e-07
1.68422e-08
-1.13701e-07
1.6676e-08
-1.17385e-07
1.64829e-08
-1.21019e-07
1.62635e-08
-1.24599e-07