/*--------------------------------*- C++ -*----------------------------------*\
  =========                 |
  \\      /  F ield         | OpenFOAM: The Open Source CFD Toolbox
   \\    /   O peration     | Website:  https://openfoam.org
    \\  /    A nd           | Version:  7
     \\/     M anipulation  |
\*---------------------------------------------------------------------------*/
FoamFile
{
    version     2.0;
    format      ascii;
    class       volVectorField;
    location    "0.1125";
    object      U;
}
// * * * * * * * * * * * * * * * * * * * * * * * * * * * * * * * * * * * * * //

dimensions      [0 1 -1 0 0 0 0];

internalField   nonuniform List<vector> 
25600
(
(4.33503e-07 -3.29503e-07 0)
(3.29459e-06 -1.7104e-06 0)
(9.26113e-06 -2.36769e-06 0)
(1.63003e-05 -2.5444e-06 0)
(2.32321e-05 -2.40526e-06 0)
(2.93162e-05 -2.06472e-06 0)
(3.40087e-05 -1.58556e-06 0)
(3.6921e-05 -1.01753e-06 0)
(3.7767e-05 -3.84282e-07 0)
(3.63573e-05 2.89273e-07 0)
(3.25674e-05 9.89008e-07 0)
(2.63108e-05 1.70761e-06 0)
(1.75414e-05 2.43937e-06 0)
(6.25094e-06 3.16825e-06 0)
(-7.54515e-06 3.89238e-06 0)
(-2.38195e-05 4.60353e-06 0)
(-4.25243e-05 5.30607e-06 0)
(-6.35897e-05 5.98964e-06 0)
(-8.69491e-05 6.64621e-06 0)
(-0.000112519 7.28229e-06 0)
(-0.000140204 7.89143e-06 0)
(-0.000169925 8.47201e-06 0)
(-0.000201565 9.02274e-06 0)
(-0.000235031 9.54593e-06 0)
(-0.000270225 1.00324e-05 0)
(-0.000307026 1.04899e-05 0)
(-0.000345335 1.09185e-05 0)
(-0.000385048 1.13118e-05 0)
(-0.000426055 1.16779e-05 0)
(-0.000468244 1.20131e-05 0)
(-0.000511516 1.23106e-05 0)
(-0.000555759 1.25761e-05 0)
(-0.000600866 1.28166e-05 0)
(-0.000646741 1.30291e-05 0)
(-0.000693278 1.32105e-05 0)
(-0.000740374 1.33616e-05 0)
(-0.000787933 1.34814e-05 0)
(-0.000835856 1.35684e-05 0)
(-0.000884047 1.36276e-05 0)
(-0.00093241 1.36657e-05 0)
(-0.000980857 1.36818e-05 0)
(-0.0010293 1.36714e-05 0)
(-0.00107765 1.36344e-05 0)
(-0.00112581 1.35722e-05 0)
(-0.00117371 1.34839e-05 0)
(-0.00122127 1.33708e-05 0)
(-0.00126839 1.32374e-05 0)
(-0.00131501 1.30841e-05 0)
(-0.00136105 1.29086e-05 0)
(-0.00140643 1.27111e-05 0)
(-0.00145108 1.24939e-05 0)
(-0.00149494 1.22579e-05 0)
(-0.00153793 1.20021e-05 0)
(-0.00157999 1.17272e-05 0)
(-0.00162106 1.14359e-05 0)
(-0.00166107 1.11299e-05 0)
(-0.00169998 1.08093e-05 0)
(-0.00173772 1.04735e-05 0)
(-0.00177424 1.01229e-05 0)
(-0.0018095 9.75859e-06 0)
(-0.00184343 9.38114e-06 0)
(-0.001876 8.99003e-06 0)
(-0.00190716 8.58601e-06 0)
(-0.00193686 8.17032e-06 0)
(-0.00196506 7.74316e-06 0)
(-0.00199172 7.30437e-06 0)
(-0.0020168 6.85432e-06 0)
(-0.00204027 6.39445e-06 0)
(-0.0020621 5.9268e-06 0)
(-0.00208224 5.45211e-06 0)
(-0.00210068 4.96948e-06 0)
(-0.00211739 4.4788e-06 0)
(-0.00213235 3.98131e-06 0)
(-0.00214552 3.47816e-06 0)
(-0.0021569 2.96998e-06 0)
(-0.00216647 2.45725e-06 0)
(-0.00217421 1.94037e-06 0)
(-0.0021801 1.41986e-06 0)
(-0.00218414 8.9664e-07 0)
(-0.00218631 3.71378e-07 0)
(-0.00218662 -1.55857e-07 0)
(-0.00218506 -6.84552e-07 0)
(-0.00218163 -1.21332e-06 0)
(-0.00217633 -1.74118e-06 0)
(-0.00216916 -2.26806e-06 0)
(-0.00216012 -2.79388e-06 0)
(-0.00214923 -3.31789e-06 0)
(-0.00213651 -3.83891e-06 0)
(-0.00212195 -4.35553e-06 0)
(-0.00210558 -4.86649e-06 0)
(-0.00208742 -5.37127e-06 0)
(-0.00206749 -5.86982e-06 0)
(-0.00204581 -6.36143e-06 0)
(-0.00202242 -6.84463e-06 0)
(-0.00199735 -7.31809e-06 0)
(-0.00197062 -7.78138e-06 0)
(-0.00194228 -8.23423e-06 0)
(-0.00191237 -8.6758e-06 0)
(-0.00188091 -9.10485e-06 0)
(-0.00184797 -9.52042e-06 0)
(-0.00181359 -9.92195e-06 0)
(-0.00177781 -1.0309e-05 0)
(-0.0017407 -1.06811e-05 0)
(-0.0017023 -1.10375e-05 0)
(-0.00166267 -1.13771e-05 0)
(-0.00162187 -1.16989e-05 0)
(-0.00157997 -1.20024e-05 0)
(-0.00153704 -1.22875e-05 0)
(-0.00149313 -1.25537e-05 0)
(-0.00144832 -1.28002e-05 0)
(-0.00140268 -1.30255e-05 0)
(-0.00135629 -1.32289e-05 0)
(-0.00130922 -1.34101e-05 0)
(-0.00126156 -1.35691e-05 0)
(-0.00121338 -1.37055e-05 0)
(-0.00116478 -1.3818e-05 0)
(-0.00111583 -1.39053e-05 0)
(-0.00106662 -1.39663e-05 0)
(-0.00101725 -1.40007e-05 0)
(-0.000967819 -1.40083e-05 0)
(-0.00091841 -1.39886e-05 0)
(-0.000869125 -1.39412e-05 0)
(-0.000820061 -1.38651e-05 0)
(-0.00077132 -1.37596e-05 0)
(-0.000723003 -1.36242e-05 0)
(-0.000675214 -1.34589e-05 0)
(-0.000628055 -1.32633e-05 0)
(-0.000581635 -1.3037e-05 0)
(-0.000536058 -1.2779e-05 0)
(-0.000491435 -1.24886e-05 0)
(-0.000447873 -1.21657e-05 0)
(-0.000405482 -1.18104e-05 0)
(-0.000364369 -1.14231e-05 0)
(-0.000324644 -1.1004e-05 0)
(-0.000286413 -1.0553e-05 0)
(-0.000249783 -1.007e-05 0)
(-0.000214859 -9.5552e-06 0)
(-0.000181747 -9.00923e-06 0)
(-0.000150547 -8.43312e-06 0)
(-0.000121357 -7.82793e-06 0)
(-9.42704e-05 -7.19437e-06 0)
(-6.9379e-05 -6.53291e-06 0)
(-4.67684e-05 -5.84451e-06 0)
(-2.65183e-05 -5.1308e-06 0)
(-8.69985e-06 -4.39423e-06 0)
(6.62608e-06 -3.63822e-06 0)
(1.94114e-05 -2.86638e-06 0)
(2.96226e-05 -2.08261e-06 0)
(3.72449e-05 -1.29209e-06 0)
(4.22872e-05 -5.01671e-07 0)
(4.47895e-05 2.78351e-07 0)
(4.48343e-05 1.03271e-06 0)
(4.25602e-05 1.74015e-06 0)
(3.81816e-05 2.36971e-06 0)
(3.20188e-05 2.875e-06 0)
(2.45396e-05 3.186e-06 0)
(1.64104e-05 3.19785e-06 0)
(8.58427e-06 2.7527e-06 0)
(2.54311e-06 1.65755e-06 0)
(9.24877e-08 9.60762e-08 0)
(2.35963e-06 -3.4716e-06 0)
(1.05673e-05 -9.61159e-06 0)
(2.42609e-05 -1.24999e-05 0)
(3.95739e-05 -1.31644e-05 0)
(5.41238e-05 -1.22036e-05 0)
(6.62306e-05 -9.99721e-06 0)
(7.45196e-05 -6.88667e-06 0)
(7.79293e-05 -3.10616e-06 0)
(7.56941e-05 1.14029e-06 0)
(6.72515e-05 5.70714e-06 0)
(5.22033e-05 1.04906e-05 0)
(3.03087e-05 1.53995e-05 0)
(1.4355e-06 2.03656e-05 0)
(-3.44635e-05 2.53368e-05 0)
(-7.73748e-05 3.02598e-05 0)
(-0.000127212 3.51049e-05 0)
(-0.000183841 3.98461e-05 0)
(-0.000247108 4.44483e-05 0)
(-0.000316801 4.89028e-05 0)
(-0.00039271 5.31884e-05 0)
(-0.000474591 5.7292e-05 0)
(-0.000562169 6.12009e-05 0)
(-0.000655191 6.49234e-05 0)
(-0.000753374 6.84269e-05 0)
(-0.000856418 7.1738e-05 0)
(-0.000964035 7.48283e-05 0)
(-0.00107593 7.77107e-05 0)
(-0.0011918 8.03804e-05 0)
(-0.00131135 8.28407e-05 0)
(-0.00143427 8.50871e-05 0)
(-0.00156025 8.71209e-05 0)
(-0.00168901 8.89452e-05 0)
(-0.00182025 9.0563e-05 0)
(-0.00195367 9.19778e-05 0)
(-0.00208899 9.31938e-05 0)
(-0.0022259 9.42128e-05 0)
(-0.00236414 9.50342e-05 0)
(-0.00250342 9.56599e-05 0)
(-0.00264347 9.60967e-05 0)
(-0.00278402 9.63519e-05 0)
(-0.0029248 9.64285e-05 0)
(-0.00306557 9.63289e-05 0)
(-0.00320605 9.60568e-05 0)
(-0.00334601 9.5614e-05 0)
(-0.0034852 9.50032e-05 0)
(-0.00362339 9.42302e-05 0)
(-0.00376034 9.33023e-05 0)
(-0.00389583 9.2223e-05 0)
(-0.00402963 9.09936e-05 0)
(-0.00416154 8.96182e-05 0)
(-0.00429135 8.81024e-05 0)
(-0.00441885 8.64499e-05 0)
(-0.00454384 8.46647e-05 0)
(-0.00466615 8.27516e-05 0)
(-0.00478557 8.07171e-05 0)
(-0.00490195 7.85664e-05 0)
(-0.00501511 7.63035e-05 0)
(-0.00512488 7.39321e-05 0)
(-0.0052311 7.14565e-05 0)
(-0.00533364 6.88802e-05 0)
(-0.00543233 6.62065e-05 0)
(-0.00552704 6.3438e-05 0)
(-0.00561763 6.0579e-05 0)
(-0.00570398 5.76346e-05 0)
(-0.00578596 5.46092e-05 0)
(-0.00586346 5.15053e-05 0)
(-0.00593637 4.83271e-05 0)
(-0.00600458 4.50808e-05 0)
(-0.006068 4.17723e-05 0)
(-0.00612653 3.84056e-05 0)
(-0.0061801 3.4984e-05 0)
(-0.00622863 3.15116e-05 0)
(-0.00627205 2.79935e-05 0)
(-0.00631028 2.44341e-05 0)
(-0.00634329 2.08375e-05 0)
(-0.00637101 1.7208e-05 0)
(-0.0063934 1.35505e-05 0)
(-0.00641042 9.87035e-06 0)
(-0.00642205 6.17212e-06 0)
(-0.00642827 2.4597e-06 0)
(-0.00642904 -1.26275e-06 0)
(-0.00642438 -4.9901e-06 0)
(-0.00641427 -8.71668e-06 0)
(-0.00639872 -1.24376e-05 0)
(-0.00637773 -1.61488e-05 0)
(-0.00635134 -1.98463e-05 0)
(-0.00631957 -2.35246e-05 0)
(-0.00628245 -2.71776e-05 0)
(-0.00624003 -3.07989e-05 0)
(-0.00619235 -3.43829e-05 0)
(-0.00613947 -3.79247e-05 0)
(-0.00608147 -4.14197e-05 0)
(-0.00601841 -4.4862e-05 0)
(-0.00595037 -4.82454e-05 0)
(-0.00587744 -5.15641e-05 0)
(-0.00579973 -5.48134e-05 0)
(-0.00571733 -5.79884e-05 0)
(-0.00563037 -6.10833e-05 0)
(-0.00553895 -6.40919e-05 0)
(-0.00544322 -6.70084e-05 0)
(-0.0053433 -6.9828e-05 0)
(-0.00523935 -7.25462e-05 0)
(-0.00513151 -7.5158e-05 0)
(-0.00501995 -7.76578e-05 0)
(-0.00490483 -8.00397e-05 0)
(-0.00478633 -8.22983e-05 0)
(-0.00466463 -8.44292e-05 0)
(-0.00453992 -8.64281e-05 0)
(-0.00441239 -8.82903e-05 0)
(-0.00428227 -9.00102e-05 0)
(-0.00414974 -9.15821e-05 0)
(-0.00401504 -9.30012e-05 0)
(-0.00387839 -9.42639e-05 0)
(-0.00374001 -9.53666e-05 0)
(-0.00360016 -9.63045e-05 0)
(-0.00345908 -9.70723e-05 0)
(-0.00331701 -9.76643e-05 0)
(-0.00317421 -9.8076e-05 0)
(-0.00303096 -9.83037e-05 0)
(-0.00288751 -9.8344e-05 0)
(-0.00274414 -9.81936e-05 0)
(-0.00260114 -9.7849e-05 0)
(-0.00245878 -9.73064e-05 0)
(-0.00231735 -9.65628e-05 0)
(-0.00217715 -9.56156e-05 0)
(-0.00203847 -9.44628e-05 0)
(-0.00190162 -9.31017e-05 0)
(-0.00176688 -9.15296e-05 0)
(-0.00163457 -8.9744e-05 0)
(-0.00150499 -8.77433e-05 0)
(-0.00137845 -8.55273e-05 0)
(-0.00125526 -8.30967e-05 0)
(-0.00113571 -8.04524e-05 0)
(-0.00102012 -7.75951e-05 0)
(-0.000908785 -7.45257e-05 0)
(-0.000802003 -7.1246e-05 0)
(-0.000700066 -6.77595e-05 0)
(-0.000603261 -6.40711e-05 0)
(-0.000511868 -6.0187e-05 0)
(-0.000426156 -5.61139e-05 0)
(-0.000346384 -5.18592e-05 0)
(-0.000272792 -4.74314e-05 0)
(-0.000205607 -4.28421e-05 0)
(-0.000145032 -3.81064e-05 0)
(-9.12451e-05 -3.32436e-05 0)
(-4.43936e-05 -2.82772e-05 0)
(-4.58551e-06 -2.32354e-05 0)
(2.81191e-05 -1.81521e-05 0)
(5.37197e-05 -1.307e-05 0)
(7.22893e-05 -8.04535e-06 0)
(8.39933e-05 -3.15158e-06 0)
(8.91145e-05 1.51324e-06 0)
(8.80855e-05 5.81916e-06 0)
(8.15312e-05 9.59253e-06 0)
(7.03261e-05 1.25971e-05 0)
(5.56604e-05 1.45124e-05 0)
(3.9091e-05 1.49142e-05 0)
(2.26003e-05 1.326e-05 0)
(8.96489e-06 9.00269e-06 0)
(1.63496e-06 2.53594e-06 0)
(3.6143e-06 -1.0638e-05 0)
(1.51387e-05 -2.40605e-05 0)
(3.31846e-05 -2.98398e-05 0)
(5.24715e-05 -3.06102e-05 0)
(6.98165e-05 -2.7459e-05 0)
(8.29442e-05 -2.11462e-05 0)
(8.99324e-05 -1.23932e-05 0)
(8.92459e-05 -1.81856e-06 0)
(7.96876e-05 1.00897e-05 0)
(6.04229e-05 2.29364e-05 0)
(3.08343e-05 3.64027e-05 0)
(-9.49312e-06 5.02563e-05 0)
(-6.07733e-05 6.42944e-05 0)
(-0.000123102 7.83501e-05 0)
(-0.000196454 9.22994e-05 0)
(-0.000280718 0.000106041 0)
(-0.000375721 0.000119478 0)
(-0.000481186 0.00013256 0)
(-0.000596826 0.000145215 0)
(-0.000722312 0.0001574 0)
(-0.000857255 0.000169091 0)
(-0.00100126 0.000180245 0)
(-0.0011539 0.000190838 0)
(-0.00131475 0.000200873 0)
(-0.00148334 0.000210316 0)
(-0.00165923 0.000219168 0)
(-0.00184193 0.000227418 0)
(-0.00203098 0.000235071 0)
(-0.0022259 0.000242118 0)
(-0.00242621 0.000248565 0)
(-0.00263144 0.000254411 0)
(-0.00284111 0.000259657 0)
(-0.00305475 0.000264312 0)
(-0.00327188 0.000268384 0)
(-0.00349205 0.000271877 0)
(-0.00371479 0.000274803 0)
(-0.00393965 0.000277168 0)
(-0.00416618 0.000278979 0)
(-0.00439394 0.000280247 0)
(-0.0046225 0.000280982 0)
(-0.00485144 0.000281194 0)
(-0.00508033 0.000280895 0)
(-0.00530876 0.000280094 0)
(-0.00553634 0.000278803 0)
(-0.00576267 0.00027703 0)
(-0.00598736 0.000274789 0)
(-0.00621005 0.000272092 0)
(-0.00643036 0.000268952 0)
(-0.00664795 0.000265377 0)
(-0.00686245 0.000261379 0)
(-0.00707354 0.000256972 0)
(-0.00728089 0.000252167 0)
(-0.00748418 0.000246977 0)
(-0.0076831 0.000241414 0)
(-0.00787734 0.000235494 0)
(-0.00806663 0.000229228 0)
(-0.00825069 0.00022263 0)
(-0.00842924 0.00021571 0)
(-0.00860202 0.000208482 0)
(-0.00876879 0.000200958 0)
(-0.00892931 0.000193147 0)
(-0.00908334 0.000185061 0)
(-0.00923068 0.000176712 0)
(-0.0093711 0.000168113 0)
(-0.00950441 0.000159276 0)
(-0.00963043 0.000150212 0)
(-0.00974897 0.000140936 0)
(-0.00985987 0.00013146 0)
(-0.00996296 0.000121799 0)
(-0.0100581 0.000111965 0)
(-0.0101452 0.000101971 0)
(-0.010224 9.18289e-05 0)
(-0.0102946 8.15541e-05 0)
(-0.0103567 7.11586e-05 0)
(-0.0104102 6.0655e-05 0)
(-0.0104552 5.00568e-05 0)
(-0.0104915 3.93777e-05 0)
(-0.0105191 2.86321e-05 0)
(-0.0105379 1.78343e-05 0)
(-0.0105479 6.99728e-06 0)
(-0.010549 -3.86613e-06 0)
(-0.0105413 -1.47416e-05 0)
(-0.0105247 -2.56139e-05 0)
(-0.0104993 -3.64684e-05 0)
(-0.010465 -4.72916e-05 0)
(-0.010422 -5.80694e-05 0)
(-0.0103702 -6.87866e-05 0)
(-0.0103097 -7.9427e-05 0)
(-0.0102406 -8.99746e-05 0)
(-0.010163 -0.000100413 0)
(-0.0100769 -0.000110729 0)
(-0.00998248 -0.000120905 0)
(-0.00987986 -0.000130927 0)
(-0.00976916 -0.000140777 0)
(-0.00965053 -0.000150439 0)
(-0.00952412 -0.000159899 0)
(-0.00939012 -0.000169142 0)
(-0.00924869 -0.00017815 0)
(-0.00910005 -0.000186908 0)
(-0.00894439 -0.000195399 0)
(-0.00878195 -0.000203609 0)
(-0.00861295 -0.000211522 0)
(-0.00843765 -0.000219124 0)
(-0.0082563 -0.000226399 0)
(-0.00806918 -0.000233331 0)
(-0.00787657 -0.000239905 0)
(-0.00767877 -0.000246106 0)
(-0.00747609 -0.000251921 0)
(-0.00726885 -0.000257335 0)
(-0.00705739 -0.000262333 0)
(-0.00684204 -0.000266901 0)
(-0.00662316 -0.000271024 0)
(-0.00640112 -0.00027469 0)
(-0.0061763 -0.000277887 0)
(-0.00594908 -0.000280602 0)
(-0.00571987 -0.00028282 0)
(-0.00548907 -0.000284529 0)
(-0.00525709 -0.000285715 0)
(-0.00502437 -0.000286369 0)
(-0.00479133 -0.00028648 0)
(-0.00455843 -0.000286037 0)
(-0.00432612 -0.000285032 0)
(-0.00409484 -0.000283455 0)
(-0.00386506 -0.000281297 0)
(-0.00363726 -0.000278552 0)
(-0.00341191 -0.000275213 0)
(-0.00318949 -0.000271275 0)
(-0.00297049 -0.000266731 0)
(-0.00275537 -0.000261577 0)
(-0.00254464 -0.000255809 0)
(-0.00233878 -0.000249429 0)
(-0.00213828 -0.000242436 0)
(-0.00194362 -0.000234834 0)
(-0.00175529 -0.000226627 0)
(-0.00157376 -0.000217819 0)
(-0.00139949 -0.000208419 0)
(-0.00123295 -0.000198437 0)
(-0.00107459 -0.000187889 0)
(-0.000924843 -0.000176792 0)
(-0.000784122 -0.000165169 0)
(-0.000652827 -0.000153043 0)
(-0.000531327 -0.000140447 0)
(-0.00041996 -0.000127417 0)
(-0.000319029 -0.000114001 0)
(-0.000228791 -0.000100257 0)
(-0.000149453 -8.62558e-05 0)
(-8.1154e-05 -7.20832e-05 0)
(-2.39561e-05 -5.7844e-05 0)
(2.21772e-05 -4.36686e-05 0)
(5.73996e-05 -2.97214e-05 0)
(8.2008e-05 -1.62119e-05 0)
(9.64761e-05 -3.40779e-06 0)
(0.000101495 8.34788e-06 0)
(9.80228e-05 1.86147e-05 0)
(8.73472e-05 2.68265e-05 0)
(7.1149e-05 3.22643e-05 0)
(5.15274e-05 3.4044e-05 0)
(3.10229e-05 3.1143e-05 0)
(1.3161e-05 2.26094e-05 0)
(2.71099e-06 8.52907e-06 0)
(4.01656e-06 -1.96063e-05 0)
(1.65644e-05 -4.13282e-05 0)
(3.56258e-05 -4.96724e-05 0)
(5.49551e-05 -4.95252e-05 0)
(7.07863e-05 -4.25591e-05 0)
(8.05053e-05 -3.00219e-05 0)
(8.17993e-05 -1.30849e-05 0)
(7.28049e-05 7.22084e-06 0)
(5.20936e-05 3.00258e-05 0)
(1.85572e-05 5.46279e-05 0)
(-2.85908e-05 8.045e-05 0)
(-8.98733e-05 0.00010703 0)
(-0.000165624 0.000133982 0)
(-0.000255976 0.000161015 0)
(-0.000360923 0.000187868 0)
(-0.00048035 0.000214339 0)
(-0.000614009 0.000240266 0)
(-0.000761605 0.000265512 0)
(-0.00092276 0.000289959 0)
(-0.00109703 0.000313537 0)
(-0.00128393 0.00033615 0)
(-0.00148296 0.000357759 0)
(-0.00169354 0.000378304 0)
(-0.00191513 0.000397766 0)
(-0.00214711 0.000416096 0)
(-0.00238887 0.000433298 0)
(-0.00263981 0.000449342 0)
(-0.00289928 0.000464219 0)
(-0.00316665 0.000477937 0)
(-0.00344128 0.000490489 0)
(-0.00372254 0.000501875 0)
(-0.00400979 0.000512107 0)
(-0.00430239 0.000521191 0)
(-0.00459971 0.000529132 0)
(-0.00490112 0.000535949 0)
(-0.00520601 0.000541656 0)
(-0.00551376 0.000546266 0)
(-0.00582376 0.000549797 0)
(-0.00613542 0.000552269 0)
(-0.00644815 0.000553697 0)
(-0.00676137 0.000554099 0)
(-0.00707452 0.000553497 0)
(-0.00738702 0.000551912 0)
(-0.00769836 0.000549363 0)
(-0.00800798 0.000545872 0)
(-0.00831535 0.000541462 0)
(-0.00861999 0.000536155 0)
(-0.00892137 0.000529972 0)
(-0.00921902 0.000522937 0)
(-0.00951246 0.000515072 0)
(-0.00980124 0.0005064 0)
(-0.0100849 0.000496945 0)
(-0.010363 0.000486731 0)
(-0.0106351 0.000475782 0)
(-0.0109009 0.000464126 0)
(-0.0111598 0.000451784 0)
(-0.0114116 0.000438782 0)
(-0.0116559 0.000425143 0)
(-0.0118923 0.000410894 0)
(-0.0121204 0.000396055 0)
(-0.01234 0.00038065 0)
(-0.0125507 0.000364703 0)
(-0.0127522 0.000348238 0)
(-0.0129443 0.00033128 0)
(-0.0131267 0.000313852 0)
(-0.013299 0.000295979 0)
(-0.0134611 0.000277686 0)
(-0.0136128 0.000259002 0)
(-0.0137538 0.00023995 0)
(-0.0138839 0.000220557 0)
(-0.0140029 0.000200847 0)
(-0.0141107 0.000180846 0)
(-0.0142071 0.000160582 0)
(-0.014292 0.000140081 0)
(-0.0143652 0.000119368 0)
(-0.0144266 9.8469e-05 0)
(-0.0144762 7.74122e-05 0)
(-0.0145138 5.62253e-05 0)
(-0.0145393 3.49352e-05 0)
(-0.0145529 1.35689e-05 0)
(-0.0145543 -7.84592e-06 0)
(-0.0145436 -2.92811e-05 0)
(-0.0145208 -5.0708e-05 0)
(-0.0144859 -7.20984e-05 0)
(-0.0144389 -9.34238e-05 0)
(-0.0143799 -0.000114656 0)
(-0.0143089 -0.000135764 0)
(-0.014226 -0.000156718 0)
(-0.0141314 -0.000177487 0)
(-0.0140251 -0.000198041 0)
(-0.0139072 -0.000218351 0)
(-0.013778 -0.000238385 0)
(-0.0136376 -0.000258111 0)
(-0.0134861 -0.0002775 0)
(-0.0133237 -0.000296519 0)
(-0.0131508 -0.000315139 0)
(-0.0129674 -0.000333329 0)
(-0.012774 -0.000351057 0)
(-0.0125706 -0.000368292 0)
(-0.0123577 -0.000385003 0)
(-0.0121356 -0.00040116 0)
(-0.0119044 -0.000416733 0)
(-0.0116647 -0.000431692 0)
(-0.0114167 -0.000446005 0)
(-0.0111608 -0.000459643 0)
(-0.0108974 -0.000472576 0)
(-0.010627 -0.000484775 0)
(-0.0103499 -0.000496212 0)
(-0.0100665 -0.000506859 0)
(-0.00977742 -0.000516685 0)
(-0.00948301 -0.000525665 0)
(-0.00918379 -0.000533771 0)
(-0.00888025 -0.000540976 0)
(-0.00857291 -0.000547256 0)
(-0.0082623 -0.000552586 0)
(-0.00794897 -0.000556939 0)
(-0.00763346 -0.000560293 0)
(-0.00731634 -0.000562622 0)
(-0.00699821 -0.000563907 0)
(-0.00667963 -0.000564127 0)
(-0.00636123 -0.000563262 0)
(-0.0060436 -0.000561296 0)
(-0.00572737 -0.000558209 0)
(-0.00541317 -0.000553988 0)
(-0.00510163 -0.000548619 0)
(-0.0047934 -0.000542091 0)
(-0.00448912 -0.000534393 0)
(-0.00418944 -0.000525516 0)
(-0.00389502 -0.000515453 0)
(-0.00360651 -0.000504201 0)
(-0.00332456 -0.00049176 0)
(-0.00304983 -0.000478133 0)
(-0.00278297 -0.000463327 0)
(-0.00252461 -0.000447351 0)
(-0.0022754 -0.000430219 0)
(-0.00203595 -0.000411947 0)
(-0.00180687 -0.000392561 0)
(-0.00158876 -0.000372091 0)
(-0.00138218 -0.000350574 0)
(-0.00118768 -0.000328056 0)
(-0.00100577 -0.00030459 0)
(-0.000836937 -0.000280242 0)
(-0.000681603 -0.000255091 0)
(-0.00054015 -0.000229233 0)
(-0.000412898 -0.000202787 0)
(-0.00030009 -0.000175892 0)
(-0.000201881 -0.000148723 0)
(-0.00011832 -0.000121486 0)
(-4.93271e-05 -9.44377e-05 0)
(5.33077e-06 -6.7896e-05 0)
(4.60679e-05 -4.22549e-05 0)
(7.35177e-05 -1.80064e-05 0)
(8.85743e-05 4.23506e-06 0)
(9.24418e-05 2.37032e-05 0)
(8.66914e-05 3.94468e-05 0)
(7.33196e-05 5.03013e-05 0)
(5.47587e-05 5.48831e-05 0)
(3.39018e-05 5.16349e-05 0)
(1.47952e-05 3.90354e-05 0)
(3.14795e-06 1.62792e-05 0)
(3.84225e-06 -2.86443e-05 0)
(1.56218e-05 -5.83313e-05 0)
(3.28489e-05 -6.82957e-05 0)
(4.89329e-05 -6.57486e-05 0)
(5.97506e-05 -5.31512e-05 0)
(6.23704e-05 -3.22766e-05 0)
(5.43107e-05 -4.79157e-06 0)
(3.35042e-05 2.78378e-05 0)
(-1.69729e-06 6.4342e-05 0)
(-5.25115e-05 0.000103668 0)
(-0.00011987 0.000144946 0)
(-0.000204431 0.000187454 0)
(-0.000306559 0.000230609 0)
(-0.000426451 0.000273922 0)
(-0.000564132 0.00031699 0)
(-0.000719458 0.0003595 0)
(-0.000892191 0.000401171 0)
(-0.00108196 0.000441781 0)
(-0.00128833 0.000481159 0)
(-0.00151079 0.000519145 0)
(-0.00174877 0.000555628 0)
(-0.00200164 0.000590506 0)
(-0.00226876 0.000623706 0)
(-0.00254941 0.000655154 0)
(-0.00284288 0.000684823 0)
(-0.00314844 0.000712655 0)
(-0.00346532 0.000738642 0)
(-0.00379274 0.00076276 0)
(-0.00412995 0.000784997 0)
(-0.00447614 0.000805352 0)
(-0.00483054 0.000823829 0)
(-0.00519235 0.000840436 0)
(-0.0055608 0.000855183 0)
(-0.00593509 0.000868085 0)
(-0.00631446 0.000879161 0)
(-0.00669813 0.000888429 0)
(-0.00708534 0.000895913 0)
(-0.00747534 0.000901641 0)
(-0.00786738 0.000905641 0)
(-0.00826074 0.00090794 0)
(-0.00865468 0.00090857 0)
(-0.00904851 0.00090756 0)
(-0.00944151 0.000904944 0)
(-0.00983302 0.000900752 0)
(-0.0102224 0.000895022 0)
(-0.0106089 0.000887788 0)
(-0.0109919 0.000879086 0)
(-0.0113709 0.000868951 0)
(-0.0117451 0.000857421 0)
(-0.0121141 0.000844532 0)
(-0.0124772 0.000830322 0)
(-0.0128338 0.000814828 0)
(-0.0131835 0.00079809 0)
(-0.0135257 0.000780147 0)
(-0.0138598 0.00076104 0)
(-0.0141854 0.000740807 0)
(-0.014502 0.000719487 0)
(-0.0148091 0.000697121 0)
(-0.0151063 0.000673748 0)
(-0.0153931 0.000649406 0)
(-0.0156691 0.000624135 0)
(-0.0159341 0.000597974 0)
(-0.0161874 0.000570963 0)
(-0.0164289 0.000543142 0)
(-0.0166581 0.000514551 0)
(-0.0168748 0.000485231 0)
(-0.0170785 0.000455223 0)
(-0.0172692 0.000424572 0)
(-0.0174463 0.000393317 0)
(-0.0176098 0.000361501 0)
(-0.0177594 0.000329167 0)
(-0.0178948 0.000296357 0)
(-0.018016 0.000263114 0)
(-0.0181225 0.000229481 0)
(-0.0182145 0.000195502 0)
(-0.0182916 0.000161221 0)
(-0.0183538 0.000126682 0)
(-0.0184009 9.19306e-05 0)
(-0.018433 5.70113e-05 0)
(-0.0184498 2.19689e-05 0)
(-0.0184515 -1.31507e-05 0)
(-0.0184379 -4.83006e-05 0)
(-0.0184091 -8.34339e-05 0)
(-0.0183651 -0.000118504 0)
(-0.0183058 -0.000153465 0)
(-0.0182315 -0.000188269 0)
(-0.0181422 -0.000222866 0)
(-0.0180379 -0.000257207 0)
(-0.0179188 -0.000291242 0)
(-0.017785 -0.000324923 0)
(-0.0176368 -0.0003582 0)
(-0.0174742 -0.000391024 0)
(-0.0172975 -0.000423342 0)
(-0.017107 -0.000455104 0)
(-0.0169029 -0.00048626 0)
(-0.0166854 -0.000516761 0)
(-0.0164549 -0.000546555 0)
(-0.0162116 -0.000575591 0)
(-0.015956 -0.000603819 0)
(-0.0156883 -0.000631188 0)
(-0.015409 -0.000657648 0)
(-0.0151185 -0.000683151 0)
(-0.0148172 -0.000707646 0)
(-0.0145055 -0.000731083 0)
(-0.0141839 -0.000753413 0)
(-0.0138529 -0.000774588 0)
(-0.013513 -0.00079456 0)
(-0.0131647 -0.000813284 0)
(-0.0128086 -0.000830711 0)
(-0.0124453 -0.000846796 0)
(-0.0120754 -0.000861494 0)
(-0.0116994 -0.000874761 0)
(-0.0113179 -0.000886554 0)
(-0.0109317 -0.000896833 0)
(-0.0105414 -0.000905556 0)
(-0.0101477 -0.000912682 0)
(-0.00975117 -0.000918175 0)
(-0.00935265 -0.000921996 0)
(-0.00895283 -0.000924112 0)
(-0.00855244 -0.000924491 0)
(-0.00815223 -0.000923102 0)
(-0.00775297 -0.000919916 0)
(-0.00735542 -0.000914907 0)
(-0.00696038 -0.000908051 0)
(-0.00656862 -0.000899328 0)
(-0.00618095 -0.00088872 0)
(-0.00579818 -0.000876212 0)
(-0.0054211 -0.000861792 0)
(-0.00505052 -0.000845452 0)
(-0.00468726 -0.000827188 0)
(-0.00433213 -0.000807002 0)
(-0.00398592 -0.000784902 0)
(-0.00364943 -0.000760899 0)
(-0.00332346 -0.000735013 0)
(-0.00300878 -0.000707267 0)
(-0.00270615 -0.000677696 0)
(-0.00241631 -0.00064634 0)
(-0.00213998 -0.000613255 0)
(-0.00187785 -0.000578504 0)
(-0.00163057 -0.000542165 0)
(-0.00139877 -0.000504332 0)
(-0.001183 -0.000465116 0)
(-0.000983775 -0.000424652 0)
(-0.000801539 -0.000383103 0)
(-0.000636656 -0.000340664 0)
(-0.000489396 -0.000297568 0)
(-0.000359921 -0.000254096 0)
(-0.000248262 -0.000210588 0)
(-0.000154299 -0.000167453 0)
(-7.77314e-05 -0.000125194 0)
(-1.80507e-05 -8.44211e-05 0)
(2.54982e-05 -4.5884e-05 0)
(5.39569e-05 -1.04984e-05 0)
(6.86976e-05 2.06185e-05 0)
(7.14757e-05 4.61125e-05 0)
(6.44817e-05 6.43616e-05 0)
(5.0353e-05 7.34652e-05 0)
(3.22144e-05 7.12767e-05 0)
(1.44231e-05 5.55559e-05 0)
(3.13851e-06 2.43321e-05 0)
(3.31575e-06 -3.66515e-05 0)
(1.3027e-05 -7.28862e-05 0)
(2.62321e-05 -8.30079e-05 0)
(3.64321e-05 -7.6266e-05 0)
(3.93406e-05 -5.60224e-05 0)
(3.19032e-05 -2.4622e-05 0)
(1.14836e-05 1.57744e-05 0)
(-2.40985e-05 6.31945e-05 0)
(-7.65627e-05 0.000116021 0)
(-0.000147257 0.000172796 0)
(-0.00023719 0.000232357 0)
(-0.000347054 0.000293703 0)
(-0.000477312 0.000356009 0)
(-0.000628186 0.000418587 0)
(-0.000799692 0.00048088 0)
(-0.000991715 0.000542399 0)
(-0.00120398 0.000602771 0)
(-0.00143607 0.000661665 0)
(-0.00168753 0.000718809 0)
(-0.00195776 0.000773985 0)
(-0.00224612 0.000827024 0)
(-0.00255191 0.000877758 0)
(-0.00287435 0.000926089 0)
(-0.00321266 0.000971906 0)
(-0.00356601 0.00101515 0)
(-0.00393354 0.00105575 0)
(-0.00431435 0.00109366 0)
(-0.00470757 0.00112887 0)
(-0.00511229 0.00116136 0)
(-0.00552757 0.0011911 0)
(-0.00595251 0.00121811 0)
(-0.00638618 0.00124238 0)
(-0.00682766 0.00126395 0)
(-0.00727601 0.00128281 0)
(-0.00773034 0.00129901 0)
(-0.00818974 0.00131256 0)
(-0.00865329 0.0013235 0)
(-0.0091201 0.00133186 0)
(-0.0095893 0.00133768 0)
(-0.01006 0.00134101 0)
(-0.0105314 0.00134188 0)
(-0.0110026 0.00134034 0)
(-0.0114728 0.00133644 0)
(-0.0119412 0.00133022 0)
(-0.0124069 0.00132174 0)
(-0.0128693 0.00131104 0)
(-0.0133275 0.00129818 0)
(-0.0137808 0.00128321 0)
(-0.0142284 0.00126618 0)
(-0.0146697 0.00124714 0)
(-0.015104 0.00122616 0)
(-0.0155306 0.00120328 0)
(-0.0159488 0.00117856 0)
(-0.016358 0.00115207 0)
(-0.0167576 0.00112385 0)
(-0.0171469 0.00109397 0)
(-0.0175256 0.00106248 0)
(-0.0178928 0.00102945 0)
(-0.0182482 0.000994921 0)
(-0.0185912 0.000958962 0)
(-0.0189213 0.000921628 0)
(-0.0192381 0.00088298 0)
(-0.0195411 0.000843076 0)
(-0.0198298 0.000801974 0)
(-0.0201039 0.000759736 0)
(-0.0203629 0.000716421 0)
(-0.0206065 0.000672092 0)
(-0.0208344 0.00062681 0)
(-0.0210462 0.000580636 0)
(-0.0212417 0.000533634 0)
(-0.0214204 0.000485866 0)
(-0.0215823 0.000437397 0)
(-0.021727 0.000388288 0)
(-0.0218544 0.000338605 0)
(-0.0219642 0.000288411 0)
(-0.0220563 0.000237772 0)
(-0.0221305 0.000186755 0)
(-0.0221868 0.000135425 0)
(-0.022225 8.38497e-05 0)
(-0.022245 3.20947e-05 0)
(-0.0222469 -1.97712e-05 0)
(-0.0222305 -7.16789e-05 0)
(-0.0221959 -0.000123559 0)
(-0.0221431 -0.000175344 0)
(-0.0220721 -0.000226963 0)
(-0.0219831 -0.000278345 0)
(-0.0218761 -0.000329418 0)
(-0.0217513 -0.000380109 0)
(-0.0216088 -0.000430347 0)
(-0.0214487 -0.000480059 0)
(-0.0212713 -0.000529172 0)
(-0.0210768 -0.000577611 0)
(-0.0208655 -0.000625302 0)
(-0.0206376 -0.000672171 0)
(-0.0203934 -0.000718144 0)
(-0.0201333 -0.000763147 0)
(-0.0198576 -0.000807105 0)
(-0.0195667 -0.000849943 0)
(-0.0192611 -0.000891587 0)
(-0.018941 -0.000931962 0)
(-0.0186071 -0.000970996 0)
(-0.0182597 -0.00100861 0)
(-0.0178994 -0.00104475 0)
(-0.0175267 -0.00107931 0)
(-0.0171422 -0.00111225 0)
(-0.0167465 -0.00114348 0)
(-0.0163402 -0.00117294 0)
(-0.0159239 -0.00120055 0)
(-0.0154982 -0.00122626 0)
(-0.0150639 -0.00124998 0)
(-0.0146216 -0.00127166 0)
(-0.0141721 -0.00129123 0)
(-0.0137162 -0.00130862 0)
(-0.0132545 -0.00132379 0)
(-0.0127879 -0.00133666 0)
(-0.0123171 -0.00134719 0)
(-0.0118431 -0.00135531 0)
(-0.0113666 -0.00136097 0)
(-0.0108885 -0.00136413 0)
(-0.0104098 -0.00136474 0)
(-0.00993116 -0.00136275 0)
(-0.00945363 -0.00135812 0)
(-0.0089781 -0.00135081 0)
(-0.00850548 -0.0013408 0)
(-0.00803672 -0.00132806 0)
(-0.00757276 -0.00131255 0)
(-0.00711454 -0.00129426 0)
(-0.00666301 -0.00127318 0)
(-0.00621914 -0.0012493 0)
(-0.00578386 -0.00122261 0)
(-0.00535814 -0.00119312 0)
(-0.0049429 -0.00116084 0)
(-0.00453909 -0.0011258 0)
(-0.00414763 -0.00108802 0)
(-0.00376943 -0.00104755 0)
(-0.00340536 -0.00100443 0)
(-0.00305629 -0.000958744 0)
(-0.00272304 -0.000910564 0)
(-0.00240643 -0.000859992 0)
(-0.00210719 -0.000807149 0)
(-0.00182603 -0.000752176 0)
(-0.0015636 -0.000695244 0)
(-0.00132046 -0.000636558 0)
(-0.00109712 -0.000576359 0)
(-0.000893967 -0.000514937 0)
(-0.000711303 -0.000452635 0)
(-0.000549291 -0.000389864 0)
(-0.000407949 -0.000327114 0)
(-0.000287124 -0.000264972 0)
(-0.000186467 -0.000204144 0)
(-0.000105399 -0.000145482 0)
(-4.30837e-05 -9.00083e-05 0)
(1.61801e-06 -3.89568e-05 0)
(3.01827e-05 6.19443e-06 0)
(4.44728e-05 4.36826e-05 0)
(4.6786e-05 7.14238e-05 0)
(3.98713e-05 8.6988e-05 0)
(2.69849e-05 8.7605e-05 0)
(1.25871e-05 7.02479e-05 0)
(2.8404e-06 3.17627e-05 0)
(2.58688e-06 -4.29356e-05 0)
(9.35648e-06 -8.34291e-05 0)
(1.68508e-05 -9.17028e-05 0)
(1.90881e-05 -7.87113e-05 0)
(1.17974e-05 -4.86178e-05 0)
(-8.1351e-06 -4.39576e-06 0)
(-4.34039e-05 5.12227e-05 0)
(-9.61909e-05 0.000115894 0)
(-0.000168289 0.000187499 0)
(-0.00026108 0.00026429 0)
(-0.000375587 0.000344738 0)
(-0.000512599 0.000427575 0)
(-0.000672558 0.000511725 0)
(-0.000855702 0.000596287 0)
(-0.00106209 0.000680508 0)
(-0.00129157 0.000763754 0)
(-0.00154385 0.000845502 0)
(-0.00181852 0.00092531 0)
(-0.00211503 0.00100281 0)
(-0.00243274 0.00107771 0)
(-0.00277095 0.00114973 0)
(-0.00312888 0.00121869 0)
(-0.00350567 0.00128442 0)
(-0.00390045 0.00134677 0)
(-0.00431227 0.00140564 0)
(-0.00474019 0.00146095 0)
(-0.0051832 0.00151263 0)
(-0.0056403 0.00156063 0)
(-0.00611046 0.00160494 0)
(-0.00659264 0.00164552 0)
(-0.0070858 0.00168238 0)
(-0.00758889 0.00171552 0)
(-0.00810085 0.00174496 0)
(-0.00862064 0.00177071 0)
(-0.00914722 0.00179281 0)
(-0.00967953 0.0018113 0)
(-0.0102166 0.00182621 0)
(-0.0107573 0.00183759 0)
(-0.0113007 0.0018455 0)
(-0.0118458 0.00184997 0)
(-0.0123916 0.00185108 0)
(-0.0129371 0.00184888 0)
(-0.0134815 0.00184344 0)
(-0.0140236 0.00183481 0)
(-0.0145627 0.00182306 0)
(-0.0150979 0.00180827 0)
(-0.0156282 0.0017905 0)
(-0.0161528 0.00176983 0)
(-0.0166709 0.00174632 0)
(-0.0171816 0.00172005 0)
(-0.0176841 0.00169109 0)
(-0.0181777 0.00165953 0)
(-0.0186616 0.00162544 0)
(-0.0191351 0.00158889 0)
(-0.0195975 0.00154997 0)
(-0.020048 0.00150874 0)
(-0.0204861 0.00146531 0)
(-0.020911 0.00141973 0)
(-0.0213222 0.0013721 0)
(-0.021719 0.00132249 0)
(-0.0221009 0.00127098 0)
(-0.0224674 0.00121766 0)
(-0.0228178 0.0011626 0)
(-0.0231518 0.0011059 0)
(-0.0234689 0.00104762 0)
(-0.0237685 0.000987863 0)
(-0.0240503 0.000926705 0)
(-0.0243139 0.000864233 0)
(-0.0245588 0.000800532 0)
(-0.0247848 0.000735688 0)
(-0.0249916 0.000669788 0)
(-0.0251787 0.000602921 0)
(-0.0253461 0.000535174 0)
(-0.0254933 0.000466635 0)
(-0.0256202 0.000397393 0)
(-0.0257266 0.000327541 0)
(-0.0258124 0.000257168 0)
(-0.0258773 0.000186366 0)
(-0.0259214 0.000115227 0)
(-0.0259444 4.38442e-05 0)
(-0.0259464 -2.7688e-05 0)
(-0.0259273 -9.92747e-05 0)
(-0.0258871 -0.000170821 0)
(-0.0258259 -0.000242231 0)
(-0.0257437 -0.000313409 0)