0.05 	0.0003125 	0.005 	0.00620547
0.05 	0.0009375 	0.005 	0.0062196
0.05 	0.0015625 	0.005 	0.00623028
0.05 	0.0021875 	0.005 	0.00623836
0.05 	0.0028125 	0.005 	0.00624489
0.05 	0.0034375 	0.005 	0.00624974
0.05 	0.0040625 	0.005 	0.00625278
0.05 	0.0046875 	0.005 	0.00625391
0.05 	0.0053125 	0.005 	0.00625301
0.05 	0.0059375 	0.005 	0.00624995
0.05 	0.0065625 	0.005 	0.00624454
0.05 	0.0071875 	0.005 	0.0062366
0.05 	0.0078125 	0.005 	0.00622595
0.05 	0.0084375 	0.005 	0.00621235
0.05 	0.0090625 	0.005 	0.00619558
0.05 	0.0096875 	0.005 	0.00617538
0.05 	0.0103125 	0.005 	0.0061515
0.05 	0.0109375 	0.005 	0.00612365
0.05 	0.0115625 	0.005 	0.00609155
0.05 	0.0121875 	0.005 	0.00605489
0.05 	0.0128125 	0.005 	0.00601334
0.05 	0.0134375 	0.005 	0.00596657
0.05 	0.0140625 	0.005 	0.00591424
0.05 	0.0146875 	0.005 	0.00585599
0.05 	0.0153125 	0.005 	0.00579145
0.05 	0.0159375 	0.005 	0.00572021
0.05 	0.0165625 	0.005 	0.0056419
0.05 	0.0171875 	0.005 	0.00555607
0.05 	0.0178125 	0.005 	0.00546229
0.05 	0.0184375 	0.005 	0.00536012
0.05 	0.0190625 	0.005 	0.00524909
0.05 	0.0196875 	0.005 	0.0051287
0.05 	0.0203125 	0.005 	0.00499846
0.05 	0.0209375 	0.005 	0.00485785
0.05 	0.0215625 	0.005 	0.00470634
0.05 	0.0221875 	0.005 	0.00454337
0.05 	0.0228125 	0.005 	0.00436837
0.05 	0.0234375 	0.005 	0.00418076
0.05 	0.0240625 	0.005 	0.00397992
0.05 	0.0246875 	0.005 	0.00376523
0.05 	0.0253125 	0.005 	0.00353606
0.05 	0.0259375 	0.005 	0.00329173
0.05 	0.0265625 	0.005 	0.00303158
0.05 	0.0271875 	0.005 	0.00275493
0.05 	0.0278125 	0.005 	0.00246106
0.05 	0.0284375 	0.005 	0.00214925
0.05 	0.0290625 	0.005 	0.00181877
0.05 	0.0296875 	0.005 	0.00146887
0.05 	0.0303125 	0.005 	0.00109878
0.05 	0.0309375 	0.005 	0.000707738
0.05 	0.0315625 	0.005 	0.000294966
0.05 	0.0321875 	0.005 	-0.00014032
0.05 	0.0328125 	0.005 	-0.000598912
0.05 	0.0334375 	0.005 	-0.00108161
0.05 	0.0340625 	0.005 	-0.0015892
0.05 	0.0346875 	0.005 	-0.00212249
0.05 	0.0353125 	0.005 	-0.00268227
0.05 	0.0359375 	0.005 	-0.00326932
0.05 	0.0365625 	0.005 	-0.00388443
0.05 	0.0371875 	0.005 	-0.00452836
0.05 	0.0378125 	0.005 	-0.00520185
0.05 	0.0384375 	0.005 	-0.00590564
0.05 	0.0390625 	0.005 	-0.00664042
0.05 	0.0396875 	0.005 	-0.00740686
0.05 	0.0403125 	0.005 	-0.00820562
0.05 	0.0409375 	0.005 	-0.00903728
0.05 	0.0415625 	0.005 	-0.00990243
0.05 	0.0421875 	0.005 	-0.0108016
0.05 	0.0428125 	0.005 	-0.0117352
0.05 	0.0434375 	0.005 	-0.0127036
0.05 	0.0440625 	0.005 	-0.0137072
0.05 	0.0446875 	0.005 	-0.0147464
0.05 	0.0453125 	0.005 	-0.0158212
0.05 	0.0459375 	0.005 	-0.0169318
0.05 	0.0465625 	0.005 	-0.0180782
0.05 	0.0471875 	0.005 	-0.0192604
0.05 	0.0478125 	0.005 	-0.0204783
0.05 	0.0484375 	0.005 	-0.0217315
0.05 	0.0490625 	0.005 	-0.0230197
0.05 	0.0496875 	0.005 	-0.0243424
0.05 	0.0503125 	0.005 	-0.0256991
0.05 	0.0509375 	0.005 	-0.0270889
0.05 	0.0515625 	0.005 	-0.0285111
0.05 	0.0521875 	0.005 	-0.0299646
0.05 	0.0528125 	0.005 	-0.0314484
0.05 	0.0534375 	0.005 	-0.0329611
0.05 	0.0540625 	0.005 	-0.0345014
0.05 	0.0546875 	0.005 	-0.0360677
0.05 	0.0553125 	0.005 	-0.0376583
0.05 	0.0559375 	0.005 	-0.0392713
0.05 	0.0565625 	0.005 	-0.0409048
0.05 	0.0571875 	0.005 	-0.0425566
0.05 	0.0578125 	0.005 	-0.0442243
0.05 	0.0584375 	0.005 	-0.0459056
0.05 	0.0590625 	0.005 	-0.0475978
0.05 	0.0596875 	0.005 	-0.0492982
0.05 	0.0603125 	0.005 	-0.0510039
0.05 	0.0609375 	0.005 	-0.052712
0.05 	0.0615625 	0.005 	-0.0544191
0.05 	0.0621875 	0.005 	-0.0561223
0.05 	0.0628125 	0.005 	-0.0578179
0.05 	0.0634375 	0.005 	-0.0595026
0.05 	0.0640625 	0.005 	-0.0611729
0.05 	0.0646875 	0.005 	-0.062825
0.05 	0.0653125 	0.005 	-0.0644553
0.05 	0.0659375 	0.005 	-0.06606
0.05 	0.0665625 	0.005 	-0.0676352
0.05 	0.0671875 	0.005 	-0.0691772
0.05 	0.0678125 	0.005 	-0.0706821
0.05 	0.0684375 	0.005 	-0.072146
0.05 	0.0690625 	0.005 	-0.0735651
0.05 	0.0696875 	0.005 	-0.0749356
0.05 	0.0703125 	0.005 	-0.0762537
0.05 	0.0709375 	0.005 	-0.0775158
0.05 	0.0715625 	0.005 	-0.0787182
0.05 	0.0721875 	0.005 	-0.0798575
0.05 	0.0728125 	0.005 	-0.0809303
0.05 	0.0734375 	0.005 	-0.0819335
0.05 	0.0740625 	0.005 	-0.0828639
0.05 	0.0746875 	0.005 	-0.0837187
0.05 	0.0753125 	0.005 	-0.0844953
0.05 	0.0759375 	0.005 	-0.0851911
0.05 	0.0765625 	0.005 	-0.0858042
0.05 	0.0771875 	0.005 	-0.0863324
0.05 	0.0778125 	0.005 	-0.0867741
0.05 	0.0784375 	0.005 	-0.0871281
0.05 	0.0790625 	0.005 	-0.0873932
0.05 	0.0796875 	0.005 	-0.0875689
0.05 	0.0803125 	0.005 	-0.0876547
0.05 	0.0809375 	0.005 	-0.0876507
0.05 	0.0815625 	0.005 	-0.0875574
0.05 	0.0821875 	0.005 	-0.0873756
0.05 	0.0828125 	0.005 	-0.0871065
0.05 	0.0834375 	0.005 	-0.0867518
0.05 	0.0840625 	0.005 	-0.0863138
0.05 	0.0846875 	0.005 	-0.0857949
0.05 	0.0853125 	0.005 	-0.0851983
0.05 	0.0859375 	0.005 	-0.0845274
0.05 	0.0865625 	0.005 	-0.0837864
0.05 	0.0871875 	0.005 	-0.0829796
0.05 	0.0878125 	0.005 	-0.082112
0.05 	0.0884375 	0.005 	-0.0811891
0.05 	0.0890625 	0.005 	-0.0802167
0.05 	0.0896875 	0.005 	-0.0792011
0.05 	0.0903125 	0.005 	-0.0781489
0.05 	0.0909375 	0.005 	-0.0770671
0.05 	0.0915625 	0.005 	-0.0759632
0.05 	0.0921875 	0.005 	-0.0748447
0.05 	0.0928125 	0.005 	-0.0737195
0.05 	0.0934375 	0.005 	-0.0725954
0.05 	0.0940625 	0.005 	-0.0714804
0.05 	0.0946875 	0.005 	-0.0703824
0.05 	0.0953125 	0.005 	-0.0693091
0.05 	0.0959375 	0.005 	-0.0682681
0.05 	0.0965625 	0.005 	-0.067266
0.05 	0.0971875 	0.005 	-0.0663091
0.05 	0.0978125 	0.005 	-0.0654068
0.05 	0.0984375 	0.005 	-0.0645678
0.05 	0.0990625 	0.005 	-0.0637448
0.05 	0.0996875 	0.005 	-0.0628888
