/*--------------------------------*- C++ -*----------------------------------*\
  =========                 |
  \\      /  F ield         | OpenFOAM: The Open Source CFD Toolbox
   \\    /   O peration     | Website:  https://openfoam.org
    \\  /    A nd           | Version:  7
     \\/     M anipulation  |
\*---------------------------------------------------------------------------*/
FoamFile
{
    version     2.0;
    format      ascii;
    class       surfaceScalarField;
    location    "0.1375";
    object      phi;
}
// * * * * * * * * * * * * * * * * * * * * * * * * * * * * * * * * * * * * * //

dimensions      [0 3 -1 0 0 0 0];

internalField   nonuniform List<scalar> 
50880
(
9.9107e-12
-9.92308e-12
2.83156e-11
-1.84004e-11
4.58661e-11
-1.75534e-11
5.52761e-11
-9.40853e-12
5.32868e-11
1.98737e-12
3.8441e-11
1.48445e-11
1.03835e-11
2.8057e-11
-3.0645e-11
4.10281e-11
-8.40911e-11
5.34461e-11
-1.49208e-10
6.51179e-11
-2.25137e-10
7.59294e-11
-3.10976e-10
8.58359e-11
-4.0582e-10
9.48414e-11
-5.08784e-10
1.02963e-10
-6.19007e-10
1.10224e-10
-7.3567e-10
1.16665e-10
-8.58004e-10
1.22335e-10
-9.85286e-10
1.27281e-10
-1.11684e-09
1.31558e-10
-1.25206e-09
1.35214e-10
-1.39035e-09
1.38293e-10
-1.53119e-09
1.40842e-10
-1.6741e-09
1.4291e-10
-1.81864e-09
1.44543e-10
-1.96442e-09
1.45784e-10
-2.11109e-09
1.46668e-10
-2.25832e-09
1.4723e-10
-2.40582e-09
1.47506e-10
-2.55335e-09
1.47527e-10
-2.70067e-09
1.47318e-10
-2.84758e-09
1.46902e-10
-2.99388e-09
1.46302e-10
-3.13942e-09
1.45542e-10
-3.28406e-09
1.44639e-10
-3.42767e-09
1.43608e-10
-3.57013e-09
1.42458e-10
-3.71133e-09
1.41202e-10
-3.85118e-09
1.39849e-10
-3.98959e-09
1.3841e-10
-4.12648e-09
1.36892e-10
-4.26178e-09
1.35302e-10
-4.39542e-09
1.33643e-10
-4.52733e-09
1.31917e-10
-4.65746e-09
1.30126e-10
-4.78574e-09
1.28274e-10
-4.9121e-09
1.26362e-10
-5.03649e-09
1.24394e-10
-5.15886e-09
1.22371e-10
-5.27916e-09
1.20293e-10
-5.39731e-09
1.18157e-10
-5.51327e-09
1.15962e-10
-5.62698e-09
1.13707e-10
-5.73837e-09
1.11395e-10
-5.8474e-09
1.09026e-10
-5.954e-09
1.06601e-10
-6.05812e-09
1.04117e-10
-6.15969e-09
1.01572e-10
-6.25865e-09
9.89634e-11
-6.35494e-09
9.62923e-11
-6.4485e-09
9.35591e-11
-6.53927e-09
9.07643e-11
-6.62718e-09
8.79078e-11
-6.71217e-09
8.49886e-11
-6.79417e-09
8.20047e-11
-6.87312e-09
7.89541e-11
-6.94896e-09
7.58368e-11
-7.02161e-09
7.26542e-11
-7.09102e-09
6.94078e-11
-7.15712e-09
6.60972e-11
-7.21984e-09
6.27217e-11
-7.27912e-09
5.92803e-11
-7.33489e-09
5.5773e-11
-7.38709e-09
5.22e-11
-7.43565e-09
4.85619e-11
-7.48051e-09
4.48606e-11
-7.52161e-09
4.10979e-11
-7.55889e-09
3.72746e-11
-7.59228e-09
3.33901e-11
-7.62172e-09
2.94437e-11
-7.64715e-09
2.54366e-11
-7.66852e-09
2.13716e-11
-7.68578e-09
1.72517e-11
-7.69886e-09
1.30785e-11
-7.70771e-09
8.85305e-12
-7.71229e-09
4.57608e-12
-7.71253e-09
2.49318e-13
-7.70841e-09
-4.12512e-12
-7.69986e-09
-8.5446e-12
-7.68686e-09
-1.30063e-11
-7.66935e-09
-1.75067e-11
-7.64731e-09
-2.2043e-11
-7.6207e-09
-2.66136e-11
-7.58948e-09
-3.12167e-11
-7.55363e-09
-3.58496e-11
-7.51312e-09
-4.05081e-11
-7.46793e-09
-4.51877e-11
-7.41805e-09
-4.98848e-11
-7.36345e-09
-5.45969e-11
-7.30413e-09
-5.93205e-11
-7.24008e-09
-6.40512e-11
-7.17129e-09
-6.87845e-11
-7.09778e-09
-7.3516e-11
-7.01953e-09
-7.8242e-11
-6.93658e-09
-8.29581e-11
-6.84892e-09
-8.76587e-11
-6.75658e-09
-9.2338e-11
-6.65959e-09
-9.6991e-11
-6.55798e-09
-1.01613e-10
-6.45178e-09
-1.06198e-10
-6.34104e-09
-1.1074e-10
-6.22581e-09
-1.15231e-10
-6.10614e-09
-1.19664e-10
-5.98211e-09
-1.24035e-10
-5.85377e-09
-1.28335e-10
-5.72122e-09
-1.32555e-10
-5.58453e-09
-1.36685e-10
-5.44382e-09
-1.40716e-10
-5.29918e-09
-1.44639e-10
-5.15074e-09
-1.48445e-10
-4.99862e-09
-1.5212e-10
-4.84297e-09
-1.5565e-10
-4.68394e-09
-1.59024e-10
-4.52171e-09
-1.6223e-10
-4.35646e-09
-1.65249e-10
-4.1884e-09
-1.68064e-10
-4.01774e-09
-1.70656e-10
-3.84473e-09
-1.73008e-10
-3.66963e-09
-1.751e-10
-3.49273e-09
-1.76908e-10
-3.31432e-09
-1.78405e-10
-3.13476e-09
-1.79563e-10
-2.9544e-09
-1.80359e-10
-2.77364e-09
-1.80764e-10
-2.59289e-09
-1.80745e-10
-2.41262e-09
-1.80268e-10
-2.23332e-09
-1.79298e-10
-2.05552e-09
-1.77802e-10
-1.87978e-09
-1.75741e-10
-1.70671e-09
-1.73072e-10
-1.53695e-09
-1.69754e-10
-1.3712e-09
-1.65749e-10
-1.21019e-09
-1.61017e-10
-1.05467e-09
-1.55513e-10
-9.0548e-10
-1.49192e-10
-7.6347e-10
-1.42011e-10
-6.29537e-10
-1.33934e-10
-5.04612e-10
-1.24926e-10
-3.89657e-10
-1.14955e-10
-2.85657e-10
-1.03999e-10
-1.93604e-10
-9.20513e-11
-1.14476e-10
-7.9128e-11
-4.91986e-11
-6.52767e-11
1.40292e-12
-5.06013e-11
3.67365e-11
-3.53335e-11
5.6518e-11
-1.97819e-11
6.11525e-11
-4.63489e-12
5.2189e-11
8.96405e-12
3.32184e-11
1.89714e-11
1.15772e-11
2.16409e-11
1.15763e-11
2.00814e-11
-2.99998e-11
4.79231e-11
-4.62491e-11
6.61816e-11
-3.58109e-11
6.39303e-11
-7.15701e-12
3.3852e-11
3.20668e-11
-2.79378e-11
7.66334e-11
-1.23043e-10
1.23162e-10
-2.51542e-10
1.69526e-10
-4.12525e-10
2.14426e-10
-6.04471e-10
2.57063e-10
-8.25481e-10
2.96943e-10
-1.07344e-09
3.33799e-10
-1.34613e-09
3.67535e-10
-1.64131e-09
3.98143e-10
-1.95677e-09
4.25681e-10
-2.29036e-09
4.50256e-10
-2.64003e-09
4.72001e-10
-3.00382e-09
4.9107e-10
-3.37989e-09
5.0763e-10
-3.76653e-09
5.21854e-10
-4.16215e-09
5.33909e-10
-4.56527e-09
5.43963e-10
-4.97455e-09
5.52182e-10
-5.38874e-09
5.58732e-10
-5.80671e-09
5.63761e-10
-6.22746e-09
5.67412e-10
-6.65004e-09
5.69815e-10
-7.07362e-09
5.71094e-10
-7.49746e-09
5.71365e-10
-7.92087e-09
5.70729e-10
-8.34324e-09
5.69281e-10
-8.76405e-09
5.67108e-10
-9.18279e-09
5.64287e-10
-9.59904e-09
5.60885e-10
-1.00124e-08
5.5696e-10
-1.04225e-08
5.52562e-10
-1.0829e-08
5.47738e-10
-1.12317e-08
5.42527e-10
-1.16303e-08
5.36963e-10
-1.20244e-08
5.31076e-10
-1.2414e-08
5.24888e-10
-1.27988e-08
5.18417e-10
-1.31786e-08
5.11678e-10
-1.35531e-08
5.04683e-10
-1.39223e-08
4.97441e-10
-1.42859e-08
4.8996e-10
-1.46437e-08
4.82248e-10
-1.49957e-08
4.7431e-10
-1.53415e-08
4.66146e-10
-1.56811e-08
4.57758e-10
-1.60143e-08
4.49144e-10
-1.63409e-08
4.40303e-10
-1.66607e-08
4.31235e-10
-1.69737e-08
4.21939e-10
-1.72795e-08
4.12416e-10
-1.7578e-08
4.02663e-10
-1.78691e-08
3.92676e-10
-1.81526e-08
3.82453e-10
-1.84283e-08
3.71991e-10
-1.8696e-08
3.61289e-10
-1.89556e-08
3.50346e-10
-1.92069e-08
3.3916e-10
-1.94496e-08
3.27731e-10
-1.96837e-08
3.16057e-10
-1.99088e-08
3.04135e-10
-2.0125e-08
2.91964e-10
-2.03319e-08
2.79543e-10
-2.05293e-08
2.66875e-10
-2.07172e-08
2.53959e-10
-2.08953e-08
2.40797e-10
-2.10634e-08
2.27387e-10
-2.12213e-08
2.1373e-10
-2.1369e-08
1.99829e-10
-2.15061e-08
1.85685e-10
-2.16325e-08
1.71301e-10
-2.17481e-08
1.5668e-10
-2.18527e-08
1.41825e-10
-2.1946e-08
1.2674e-10
-2.2028e-08
1.11429e-10
-2.20984e-08
9.58953e-11
-2.21572e-08
8.0145e-11
-2.22041e-08
6.41841e-11
-2.22391e-08
4.80191e-11
-2.22619e-08
3.16568e-11
-2.22724e-08
1.51039e-11
-2.22705e-08
-1.63247e-12
-2.22561e-08
-1.85438e-11
-2.2229e-08
-3.56211e-11
-2.21892e-08
-5.28557e-11
-2.21365e-08
-7.02381e-11
-2.20707e-08
-8.77575e-11
-2.1992e-08
-1.05403e-10
-2.19e-08
-1.23162e-10
-2.17948e-08
-1.41026e-10
-2.16764e-08
-1.58982e-10
-2.15445e-08
-1.77017e-10
-2.13993e-08
-1.95115e-10
-2.12406e-08
-2.13264e-10
-2.10685e-08
-2.3145e-10
-2.08829e-08
-2.49656e-10
-2.06838e-08
-2.67868e-10
-2.04713e-08
-2.86066e-10
-2.02453e-08
-3.04235e-10
-2.00059e-08
-3.22357e-10
-1.97531e-08
-3.40415e-10
-1.94871e-08
-3.58389e-10
-1.92078e-08
-3.76256e-10
-1.89154e-08
-3.93995e-10
-1.861e-08
-4.11585e-10
-1.82918e-08
-4.29002e-10
-1.79608e-08
-4.4622e-10
-1.76172e-08
-4.63213e-10
-1.72613e-08
-4.79955e-10
-1.68932e-08
-4.96415e-10
-1.65132e-08
-5.12562e-10
-1.61216e-08
-5.28359e-10
-1.57185e-08
-5.43771e-10
-1.53044e-08
-5.58759e-10
-1.48795e-08
-5.73285e-10
-1.44444e-08
-5.87301e-10
-1.39993e-08
-6.00759e-10
-1.35447e-08
-6.13606e-10
-1.30811e-08
-6.2579e-10
-1.26091e-08
-6.37249e-10
-1.21293e-08
-6.47919e-10
-1.16422e-08
-6.57727e-10
-1.11486e-08
-6.66599e-10
-1.06492e-08
-6.74456e-10
-1.01449e-08
-6.81211e-10
-9.63658e-09
-6.86767e-10
-9.12512e-09
-6.91025e-10
-8.6116e-09
-6.93884e-10
-8.09713e-09
-6.95232e-10
-7.58293e-09
-6.94951e-10
-7.07029e-09
-6.92915e-10
-6.56059e-09
-6.88995e-10
-6.05533e-09
-6.83058e-10
-5.55611e-09
-6.74965e-10
-5.06461e-09
-6.6457e-10
-4.58264e-09
-6.51724e-10
-4.11211e-09
-6.36281e-10
-3.65504e-09
-6.18094e-10
-3.21354e-09
-5.97013e-10
-2.78984e-09
-5.72893e-10
-2.38625e-09
-5.456e-10
-2.00517e-09
-5.15016e-10
-1.64905e-09
-4.81043e-10
-1.3204e-09
-4.43613e-10
-1.0217e-09
-4.02701e-10
-7.55395e-10
-3.58352e-10
-5.23807e-10
-3.10717e-10
-3.28992e-10
-2.60093e-10
-1.72581e-10
-2.07012e-10
-5.55513e-11
-1.52361e-10
2.22326e-11
-9.75657e-11
6.25411e-11
-4.49445e-11
6.96941e-11
1.80984e-12
5.16915e-11
3.6973e-11
2.16339e-11
5.16984e-11
3.32099e-11
1.75378e-11
-4.75405e-11
3.64852e-11
-6.51952e-11
3.57025e-11
-3.50314e-11
2.0392e-12
2.65056e-11
-7.32787e-11
1.07385e-10
-1.95492e-10
1.98846e-10
-3.67053e-10
2.94722e-10
-5.88413e-10
3.90887e-10
-8.58619e-10
4.8463e-10
-1.17575e-09
5.74194e-10
-1.53728e-09
6.58462e-10
-1.94025e-09
7.36776e-10
-2.38152e-09
8.08806e-10
-2.85783e-09
8.74448e-10
-3.3659e-09
9.33751e-10
-3.90252e-09
9.86878e-10
-4.46458e-09
1.03406e-09
-5.0491e-09
1.0756e-09
-5.65327e-09
1.11179e-09
-6.2744e-09
1.143e-09
-6.91004e-09
1.16954e-09
-7.55786e-09
1.19178e-09
-8.21573e-09
1.21006e-09
-8.8817e-09
1.2247e-09
-9.55396e-09
1.23602e-09
-1.02309e-08
1.24433e-09
-1.0911e-08
1.2499e-09
-1.15929e-08
1.253e-09
-1.22754e-08
1.25387e-09
-1.29574e-08
1.25273e-09
-1.36379e-08
1.24978e-09
-1.4316e-08
1.24522e-09
-1.49909e-08
1.2392e-09
-1.56619e-08
1.23188e-09
-1.63283e-08
1.22338e-09
-1.69896e-08
1.21381e-09
-1.76451e-08
1.20328e-09
-1.82945e-08
1.19188e-09
-1.89372e-08
1.17967e-09
-1.95728e-08
1.16673e-09
-2.0201e-08
1.1531e-09
-2.08214e-08
1.13883e-09
-2.14337e-08
1.12395e-09
-2.20375e-08
1.1085e-09
-2.26326e-08
1.09248e-09
-2.32185e-08
1.07594e-09
-2.37952e-08
1.05887e-09
-2.43621e-08
1.04129e-09
-2.49192e-08
1.02321e-09
-2.54661e-08
1.00462e-09
-2.60024e-08
9.8553e-10
-2.65281e-08
9.65942e-10
-2.70427e-08
9.45853e-10
-2.7546e-08
9.25262e-10
-2.80378e-08
9.04165e-10
-2.85177e-08
8.82561e-10
-2.89854e-08
8.60443e-10
-2.94408e-08
8.37809e-10
-2.98835e-08
8.14654e-10
-3.03131e-08
7.90975e-10
-3.07296e-08
7.6677e-10
-3.11324e-08
7.42035e-10
-3.15215e-08
7.16768e-10
-3.18964e-08
6.90966e-10
-3.22569e-08
6.64627e-10
-3.26027e-08
6.3775e-10
-3.29334e-08
6.10335e-10
-3.3249e-08
5.82382e-10
-3.35489e-08
5.53892e-10
-3.3833e-08
5.24868e-10
-3.41009e-08
4.9531e-10
-3.43524e-08
4.6522e-10
-3.45871e-08
4.34604e-10
-3.48049e-08
4.03466e-10
-3.50054e-08
3.71813e-10
-3.51884e-08
3.3965e-10
-3.53536e-08
3.06984e-10
-3.55006e-08
2.73823e-10
-3.56294e-08
2.40177e-10
-3.57396e-08
2.06056e-10
-3.58309e-08
1.71473e-10
-3.59031e-08
1.36439e-10
-3.59561e-08
1.0097e-10
-3.59895e-08
6.50773e-11
-3.60032e-08
2.87779e-11
-3.59969e-08
-7.91202e-12
-3.59705e-08
-4.49745e-11
-3.59237e-08
-8.23893e-11
-3.58564e-08
-1.20136e-10
-3.57685e-08
-1.58195e-10
-3.56597e-08
-1.96545e-10
-3.55299e-08
-2.35161e-10
-3.53791e-08
-2.74019e-10
-3.5207e-08
-3.13092e-10
-3.50136e-08
-3.52355e-10
-3.47989e-08
-3.91779e-10
-3.45626e-08
-4.31335e-10
-3.43049e-08
-4.70991e-10
-3.40256e-08
-5.10715e-10
-3.37248e-08
-5.50475e-10
-3.34025e-08
-5.90236e-10
-3.30586e-08
-6.29961e-10
-3.26932e-08
-6.69611e-10
-3.23064e-08
-7.0915e-10
-3.18983e-08
-7.48536e-10
-3.14689e-08
-7.87727e-10
-3.10185e-08
-8.26677e-10
-3.05472e-08
-8.65339e-10
-3.00551e-08
-9.03665e-10
-2.95425e-08
-9.41602e-10
-2.90096e-08
-9.79096e-10
-2.84567e-08
-1.01609e-09
-2.78842e-08
-1.05252e-09
-2.72923e-08
-1.08833e-09
-2.66814e-08
-1.12344e-09
-2.6052e-08
-1.15778e-09
-2.54045e-08
-1.19126e-09
-2.47394e-08
-1.22381e-09
-2.40574e-08
-1.25534e-09
-2.33589e-08
-1.28574e-09
-2.26448e-08
-1.31492e-09
-2.19156e-08
-1.34275e-09
-2.11723e-08
-1.36912e-09
-2.04157e-08
-1.39389e-09
-1.96467e-08
-1.41692e-09
-1.88663e-08
-1.43807e-09
-1.80758e-08
-1.45716e-09
-1.72762e-08
-1.47402e-09
-1.64689e-08
-1.48846e-09
-1.56554e-08
-1.50029e-09
-1.48372e-08
-1.50928e-09
-1.40158e-08
-1.51521e-09
-1.31932e-08
-1.51785e-09
-1.23712e-08
-1.51694e-09
-1.15519e-08
-1.51221e-09
-1.07375e-08
-1.5034e-09
-9.93038e-09
-1.49022e-09
-9.13298e-09
-1.47237e-09
-8.348e-09
-1.44955e-09
-7.57827e-09
-1.42146e-09
-6.82676e-09
-1.38779e-09
-6.09661e-09
-1.34824e-09
-5.3911e-09
-1.30252e-09
-4.71365e-09
-1.25035e-09
-4.06777e-09
-1.19148e-09
-3.4571e-09
-1.12568e-09
-2.88533e-09
-1.05282e-09
-2.35614e-09
-9.72798e-10
-1.87318e-09
-8.85661e-10
-1.43993e-09
-7.91602e-10
-1.0596e-09
-6.91047e-10
-7.34936e-10
-5.84757e-10
-4.67971e-10
-4.73976e-10
-2.59676e-10
-3.60656e-10
-1.09461e-10
-2.4778e-10
-1.4535e-11
-1.39869e-10
3.09625e-11
-4.36878e-11
3.70417e-11
3.08931e-11
1.89706e-11
6.97692e-11
5.21809e-11
9.3516e-12
-5.68904e-11
7.26158e-12
-6.31048e-11
-2.64468e-11
-1.32386e-12
-1.05275e-10
1.05333e-10
-2.38382e-10
2.40491e-10
-4.31371e-10
3.91834e-10
-6.87053e-10
5.50403e-10
-1.00606e-09
7.09897e-10
-1.38741e-09
8.65979e-10
-1.82894e-09
1.01573e-09
-2.32769e-09
1.15722e-09
-2.88017e-09
1.28925e-09
-3.48252e-09
1.41116e-09
-4.13072e-09
1.52265e-09
-4.8207e-09
1.62373e-09
-5.5484e-09
1.71457e-09
-6.30984e-09
1.79551e-09
-7.1012e-09
1.86696e-09
-7.91883e-09
1.92942e-09
-8.75926e-09
1.98343e-09
-9.61924e-09
2.02953e-09
-1.04958e-08
2.06829e-09
-1.1386e-08
2.10026e-09
-1.22872e-08
2.12599e-09
-1.31972e-08
2.14601e-09
-1.41137e-08
2.1608e-09
-1.50346e-08
2.17086e-09
-1.59583e-08
2.17661e-09
-1.68829e-08
2.17848e-09
-1.7807e-08
2.17684e-09
-1.87292e-08
2.17203e-09
-1.96484e-08
2.16438e-09
-2.05634e-08
2.15416e-09
-2.14731e-08
2.14162e-09
-2.23767e-08
2.12701e-09
-2.32734e-08
2.1105e-09
-2.41624e-08
2.09229e-09
-2.50431e-08
2.07251e-09
-2.59147e-08
2.0513e-09
-2.67767e-08
2.02877e-09
-2.76286e-08
2.00501e-09
-2.84699e-08
1.98011e-09
-2.93001e-08
1.95413e-09
-3.01187e-08
1.92711e-09
-3.09253e-08
1.89911e-09
-3.17196e-08
1.87016e-09
-3.2501e-08
1.84028e-09
-3.32692e-08
1.80949e-09
-3.40238e-08
1.77782e-09
-3.47644e-08
1.74525e-09
-3.54907e-08
1.71181e-09
-3.62023e-08
1.6775e-09
-3.68987e-08
1.6423e-09
-3.75797e-08
1.60623e-09
-3.82448e-08
1.56927e-09
-3.88937e-08
1.53143e-09
-3.95259e-08
1.4927e-09
-4.01412e-08
1.45308e-09
-4.07391e-08
1.41255e-09
-4.13192e-08
1.37112e-09
-4.18812e-08
1.32877e-09
-4.24247e-08
1.28551e-09
-4.29493e-08
1.24133e-09
-4.34545e-08
1.19623e-09
-4.39401e-08
1.15021e-09
-4.44056e-08
1.10326e-09
-4.48507e-08
1.05539e-09
-4.52749e-08
1.00659e-09
-4.56779e-08
9.56877e-10
-4.60592e-08
9.06243e-10
-4.64186e-08
8.54697e-10
-4.67557e-08
8.02243e-10
-4.70699e-08
7.48888e-10
-4.73611e-08
6.94641e-10
-4.76288e-08
6.39514e-10
-4.78727e-08
5.83519e-10
-4.80924e-08
5.26667e-10
-4.82875e-08
4.68974e-10
-4.84578e-08
4.10455e-10
-4.86029e-08
3.5113e-10
-4.87224e-08
2.91018e-10
-4.88161e-08
2.30142e-10
-4.88837e-08
1.68526e-10
-4.89248e-08
1.06195e-10
-4.89392e-08
4.31756e-11
-4.89266e-08
-2.05035e-11
-4.88868e-08
-8.48118e-11
-4.88194e-08
-1.49716e-10
-4.87244e-08
-2.15179e-10
-4.86014e-08
-2.81166e-10
-4.84503e-08
-3.47639e-10
-4.82709e-08
-4.14557e-10
-4.80631e-08
-4.81878e-10
-4.78266e-08
-5.49557e-10
-4.75614e-08
-6.17548e-10
-4.72674e-08
-6.85801e-10
-4.69445e-08
-7.54266e-10
-4.65926e-08
-8.22889e-10
-4.62117e-08
-8.91615e-10
-4.58017e-08
-9.60387e-10
-4.53628e-08
-1.02914e-09
-4.4895e-08
-1.09783e-09
-4.43982e-08
-1.16637e-09
-4.38727e-08
-1.23469e-09
-4.33185e-08
-1.30274e-09
-4.27358e-08
-1.37044e-09
-4.21247e-08
-1.4377e-09
-4.14856e-08
-1.50446e-09
-4.08187e-08
-1.57061e-09
-4.01242e-08
-1.63608e-09
-3.94025e-08
-1.70077e-09
-3.8654e-08
-1.76457e-09
-3.78792e-08
-1.82739e-09
-3.70784e-08
-1.8891e-09
-3.62522e-08
-1.9496e-09
-3.54013e-08
-2.00875e-09
-3.45261e-08
-2.0664e-09
-3.36275e-08
-2.12243e-09
-3.27062e-08
-2.17666e-09
-3.1763e-08
-2.22894e-09
-3.07988e-08
-2.27907e-09
-2.98147e-08
-2.32686e-09
-2.88117e-08
-2.3721e-09
-2.77911e-08
-2.41457e-09
-2.6754e-08
-2.45401e-09
-2.57019e-08
-2.49017e-09
-2.46363e-08
-2.52277e-09
-2.35588e-08
-2.5515e-09
-2.24712e-08
-2.57604e-09
-2.13755e-08
-2.59604e-09
-2.02736e-08
-2.61115e-09
-1.91678e-08
-2.62098e-09
-1.80605e-08
-2.62512e-09
-1.69543e-08
-2.62315e-09
-1.58519e-08
-2.61462e-09
-1.47562e-08
-2.59907e-09
-1.36704e-08
-2.57602e-09
-1.25978e-08
-2.54498e-09
-1.15419e-08
-2.50545e-09
-1.05064e-08
-2.45694e-09
-9.49529e-09
-2.39894e-09
-8.51256e-09
-2.33098e-09
-7.5625e-09
-2.25257e-09
-6.64955e-09
-2.16331e-09
-5.77822e-09
-2.0628e-09
-4.95314e-09
-1.95076e-09
-4.17898e-09
-1.82698e-09
-3.46035e-09
-1.69143e-09
-2.80174e-09
-1.54427e-09
-2.2074e-09
-1.38594e-09
-1.68116e-09
-1.21729e-09
-1.22619e-09
-1.03973e-09
-8.44759e-10
-8.55408e-10
-5.37822e-10
-6.67594e-10
-3.04544e-10
-4.81057e-10
-1.41692e-10
-3.02719e-10
-4.28923e-11
-1.42486e-10
2.23056e-12
-1.42298e-11
9.04509e-12
6.29541e-11
6.12262e-11
-2.09716e-12
-5.47947e-11
-3.22092e-11
-3.29907e-11
-1.07818e-10
7.42854e-11
-2.41256e-10
2.38771e-10
-4.40971e-10
4.40207e-10
-7.12252e-10
6.63115e-10
-1.05777e-09
8.95918e-10
-1.47807e-09
1.1302e-09
-1.97205e-09
1.35995e-09
-2.53731e-09
1.58099e-09
-3.17058e-09
1.79049e-09
-3.86792e-09
1.98659e-09
-4.62499e-09
2.16822e-09
-5.43716e-09
2.33483e-09
-6.29973e-09
2.4863e-09
-7.20798e-09
2.62282e-09
-8.15725e-09
2.74478e-09
-9.14303e-09
2.85273e-09
-1.0161e-08
2.94736e-09
-1.12069e-08
3.02938e-09
-1.2277e-08
3.0996e-09
-1.33675e-08
3.15881e-09
-1.4475e-08
3.2078e-09
-1.55964e-08
3.24738e-09
-1.67287e-08
3.27831e-09
-1.78693e-08
3.30132e-09
-1.90155e-08
3.31712e-09
-2.01652e-08
3.32635e-09
-2.13164e-08
3.32963e-09
-2.24671e-08
3.32752e-09
-2.36156e-08
3.32055e-09
-2.47604e-08
3.30919e-09
-2.59001e-08
3.29386e-09
-2.70334e-08
3.27494e-09
-2.81592e-08
3.25279e-09
-2.92764e-08
3.2277e-09
-3.0384e-08
3.19994e-09
-3.14813e-08
3.16974e-09
-3.25673e-08
3.13731e-09
-3.36413e-08
3.10281e-09
-3.47027e-08
3.06639e-09
-3.57508e-08
3.02817e-09
-3.67849e-08
2.98826e-09
-3.78045e-08
2.94675e-09
-3.88091e-08
2.90369e-09
-3.97981e-08
2.85915e-09
-4.0771e-08
2.81317e-09
-4.17273e-08
2.76577e-09
-4.26665e-08
2.717e-09
-4.35881e-08
2.66685e-09
-4.44916e-08
2.61535e-09
-4.53766e-08
2.5625e-09
-4.62426e-08
2.5083e-09
-4.70891e-08
2.45275e-09
-4.79157e-08
2.39585e-09
-4.87218e-08
2.33759e-09
-4.95071e-08
2.27797e-09
-5.0271e-08
2.21699e-09
-5.10131e-08
2.15463e-09
-5.17328e-08
2.09089e-09
-5.24298e-08
2.02576e-09
-5.31036e-08
1.95925e-09
-5.37536e-08
1.89134e-09
-5.43794e-08
1.82203e-09
-5.49805e-08
1.75133e-09
-5.55565e-08
1.67922e-09
-5.61068e-08
1.60572e-09
-5.6631e-08
1.53083e-09
-5.71287e-08
1.45454e-09
-5.75993e-08
1.37687e-09
-5.80424e-08
1.29782e-09
-5.84576e-08
1.21741e-09
-5.88443e-08
1.13564e-09
-5.92022e-08
1.05253e-09
-5.95308e-08
9.68095e-10
-5.98296e-08
8.82356e-10
-6.00983e-08
7.95333e-10
-6.03364e-08
7.07048e-10
-6.05435e-08
6.17528e-10
-6.07191e-08
5.268e-10
-6.0863e-08
4.34897e-10
-6.09747e-08
3.4185e-10
-6.10539e-08
2.47697e-10
-6.11002e-08
1.52477e-10
-6.11132e-08
5.62315e-11
-6.10927e-08
-4.09956e-11
-6.10384e-08
-1.39157e-10
-6.09499e-08
-2.38203e-10
-6.0827e-08
-3.38081e-10
-6.06694e-08
-4.38734e-10
-6.0477e-08
-5.40102e-10
-6.02494e-08
-6.42126e-10
-5.99865e-08
-7.4474e-10
-5.96882e-08
-8.47877e-10
-5.93543e-08
-9.51465e-10
-5.89847e-08
-1.05543e-09
-5.85792e-08
-1.1597e-09
-5.81379e-08
-1.26418e-09
-5.76608e-08
-1.3688e-09
-5.71477e-08
-1.47347e-09
-5.65987e-08
-1.57809e-09
-5.6014e-08
-1.68258e-09
-5.53935e-08
-1.78682e-09
-5.47375e-08
-1.89073e-09
-5.4046e-08
-1.99419e-09
-5.33194e-08
-2.09709e-09
-5.25578e-08
-2.19931e-09
-5.17615e-08
-2.30073e-09
-5.09309e-08
-2.40122e-09
-5.00663e-08
-2.50065e-09
-4.91682e-08
-2.59886e-09
-4.82371e-08
-2.6957e-09
-4.72735e-08
-2.79103e-09
-4.62779e-08
-2.88465e-09
-4.52511e-08
-2.97639e-09
-4.41938e-08
-3.06606e-09
-4.31068e-08
-3.15344e-09
-4.19909e-08
-3.23832e-09
-4.08471e-08
-3.32044e-09
-3.96765e-08
-3.39956e-09
-3.84802e-08
-3.47539e-09
-3.72594e-08
-3.54764e-09
-3.60155e-08
-3.61599e-09
-3.475e-08
-3.68009e-09
-3.34644e-08
-3.73958e-09
-3.21605e-08
-3.79405e-09
-3.08402e-08
-3.84308e-09
-2.95055e-08
-3.88621e-09
-2.81586e-08
-3.92296e-09
-2.68018e-08
-3.95282e-09
-2.54377e-08
-3.97524e-09
-2.40691e-08
-3.98964e-09
-2.26988e-08
-3.99542e-09
-2.133e-08
-3.99194e-09
-1.9966e-08
-3.97854e-09
-1.86106e-08
-3.95454e-09
-1.72674e-08
-3.91923e-09
-1.59405e-08
-3.87189e-09
-1.46341e-08
-3.81181e-09
-1.33528e-08
-3.73826e-09
-1.21012e-08
-3.65051e-09
-1.08843e-08
-3.54789e-09
-9.70714e-09
-3.42975e-09
-8.57494e-09
-3.29551e-09
-7.49308e-09
-3.14466e-09
-6.46698e-09
-2.97686e-09
-5.50207e-09
-2.79189e-09
-4.60369e-09
-2.58981e-09
-3.77698e-09
-2.37097e-09
-3.02675e-09
-2.13617e-09
-2.35727e-09
-1.88677e-09
-1.77207e-09
-1.62493e-09
-1.2736e-09
-1.35387e-09
-8.62941e-10
-1.07826e-09
-5.39291e-10
-8.04706e-10
-2.99519e-10
-5.42491e-10
-1.37554e-10
-3.0445e-10
-4.37818e-11
-1.08002e-10
-4.35594e-12
2.35279e-11
5.68701e-11
-1.49746e-11
-3.98208e-11
-7.70452e-11
2.90804e-11
-1.99983e-10
1.97223e-10
-3.93929e-10
4.32717e-10
-6.65979e-10
7.12257e-10
-1.02054e-09
1.01768e-09
-1.45971e-09
1.33509e-09
-1.98367e-09
1.65416e-09
-2.59102e-09
1.9673e-09
-3.2791e-09
2.26907e-09
-4.0443e-09
2.55569e-09
-4.88234e-09
2.82463e-09
-5.78845e-09
3.07432e-09
-6.75756e-09
3.30394e-09
-7.78446e-09
3.5132e-09
-8.86388e-09
3.70225e-09
-9.99063e-09
3.87153e-09
-1.11596e-08
4.02172e-09
-1.23659e-08
4.15367e-09
-1.36049e-08
4.26832e-09
-1.4872e-08
4.3667e-09
-1.6163e-08
4.44986e-09
-1.74741e-08
4.51886e-09
-1.88015e-08
4.57478e-09
-2.01418e-08
4.61864e-09
-2.14919e-08
4.65143e-09
-2.28489e-08
4.67411e-09
-2.42101e-08
4.68757e-09
-2.55731e-08
4.69265e-09
-2.69357e-08
4.69013e-09
-2.82959e-08
4.68072e-09
-2.96518e-08
4.66508e-09
-3.10018e-08
4.6438e-09
-3.23442e-08
4.61742e-09
-3.36779e-08
4.58641e-09
-3.50014e-08
4.5512e-09
-3.63136e-08
4.51216e-09
-3.76135e-08
4.46962e-09
-3.89e-08
4.42387e-09
-4.01724e-08
4.37515e-09
-4.14296e-08
4.32366e-09
-4.26711e-08
4.26959e-09
-4.38959e-08
4.21309e-09
-4.51034e-08
4.15428e-09
-4.6293e-08
4.09325e-09
-4.74639e-08
4.03009e-09
-4.86156e-08
3.96487e-09
-4.97475e-08
3.89763e-09
-5.08589e-08
3.82842e-09
-5.19493e-08
3.75725e-09
-5.30181e-08
3.68416e-09
-5.40647e-08
3.60915e-09
-5.50887e-08
3.53222e-09
-5.60893e-08
3.45339e-09
-5.70661e-08
3.37265e-09
-5.80185e-08
3.28999e-09
-5.8946e-08
3.20541e-09
-5.98479e-08
3.11892e-09
-6.07237e-08
3.03049e-09
-6.1573e-08
2.94012e-09
-6.2395e-08
2.84781e-09
-6.31893e-08
2.75355e-09
-6.39553e-08
2.65734e-09
-6.46925e-08
2.55918e-09
-6.54002e-08
2.45907e-09
-6.6078e-08
2.357e-09
-6.67253e-08
2.25298e-09
-6.73414e-08
2.14701e-09
-6.7926e-08
2.03911e-09
-6.84784e-08
1.92929e-09
-6.89982e-08
1.81754e-09
-6.94847e-08
1.7039e-09
-6.99374e-08
1.58838e-09
-7.03559e-08
1.471e-09
-7.07396e-08
1.35178e-09
-7.1088e-08
1.23076e-09
-7.14006e-08
1.10795e-09
-7.16769e-08
9.83397e-10
-7.19165e-08
8.57137e-10
-7.21189e-08
7.29209e-10
-7.22837e-08
5.99657e-10
-7.24104e-08
4.68529e-10
-7.24986e-08
3.35876e-10
-7.25478e-08
2.01753e-10
-7.25578e-08
6.62177e-11
-7.25282e-08
-7.06654e-11
-7.24585e-08
-2.0883e-10
-7.23485e-08
-3.48207e-10
-7.21978e-08
-4.88721e-10
-7.20063e-08
-6.30294e-10
-7.17735e-08
-7.72843e-10
-7.14994e-08
-9.16281e-10
-7.11836e-08
-1.06052e-09
-7.0826e-08
-1.20546e-09
-7.04265e-08
-1.351e-09
-6.99849e-08
-1.49705e-09
-6.95011e-08
-1.64348e-09
-6.89751e-08
-1.79019e-09
-6.84068e-08
-1.93707e-09
-6.77963e-08
-2.08398e-09
-6.71436e-08
-2.2308e-09
-6.64488e-08
-2.3774e-09
-6.57119e-08
-2.52364e-09
-6.49333e-08
-2.66937e-09
-6.41131e-08
-2.81444e-09
-6.32514e-08
-2.9587e-09
-6.23488e-08
-3.10198e-09
-6.14054e-08
-3.24411e-09
-6.04217e-08
-3.3849e-09
-5.93982e-08
-3.52416e-09
-5.83354e-08
-3.6617e-09
-5.72338e-08
-3.79729e-09
-5.60941e-08
-3.93071e-09
-5.4917e-08
-4.06172e-09
-5.37034e-08
-4.19006e-09
-5.2454e-08
-4.31545e-09
-5.11698e-08
-4.43761e-09
-4.98519e-08
-4.55622e-09
-4.85014e-08
-4.67094e-09
-4.71195e-08
-4.78142e-09
-4.57077e-08
-4.88725e-09
-4.42673e-08
-4.98803e-09
-4.28e-08
-5.0833e-09
-4.13075e-08
-5.17259e-09
-3.97917e-08
-5.25538e-09
-3.82546e-08
-5.33111e-09
-3.66985e-08
-5.39919e-09
-3.51257e-08
-5.459e-09
-3.35389e-08
-5.50985e-09
-3.19407e-08
-5.55103e-09
-3.03341e-08
-5.5818e-09
-2.87224e-08
-5.60135e-09
-2.7109e-08
-5.60885e-09
-2.54975e-08
-5.60343e-09
-2.38918e-08
-5.58418e-09
-2.22962e-08
-5.55018e-09
-2.07149e-08
-5.50047e-09
-1.91528e-08
-5.43408e-09
-1.76145e-08
-5.35002e-09
-1.61055e-08
-5.24735e-09
-1.46308e-08
-5.12511e-09
-1.31963e-08
-4.98241e-09
-1.18077e-08
-4.81841e-09
-1.04708e-08
-4.63238e-09
-9.19173e-09
-4.42372e-09
-7.97656e-09
-4.19203e-09
-6.83132e-09
-3.93714e-09
-5.76191e-09
-3.65922e-09
-4.77399e-09
-3.3589e-09
-3.8728e-09
-3.03736e-09
-3.06301e-09
-2.69656e-09
-2.34844e-09
-2.3395e-09
-1.73184e-09
-1.97047e-09
-1.21455e-09
-1.59555e-09
-7.96133e-10
-1.22312e-09
-4.74011e-10
-8.64613e-10
-2.43053e-10
-5.35406e-10
-9.52064e-11
-2.55847e-10
-1.91641e-11
-5.25141e-11
3.77061e-11
-2.8298e-11
-1.1523e-11
-1.24105e-10
1.24888e-10
-2.97131e-10
3.70249e-10
-5.54822e-10
6.90407e-10
-9.02421e-10
1.05985e-09
-1.34305e-09
1.45831e-09
-1.87794e-09
1.86998e-09
-2.50662e-09
2.28284e-09
-3.22722e-09
2.6879e-09
-4.03672e-09
3.07856e-09
-4.93115e-09
3.45012e-09
-5.90588e-09
3.79936e-09
-6.95578e-09
4.12422e-09
-8.0754e-09
4.42356e-09
-9.2591e-09
4.69691e-09
-1.05012e-08
4.94434e-09
-1.1796e-08
5.16636e-09
-1.3138e-08
5.36373e-09
-1.45219e-08
5.53748e-09
-1.59423e-08
5.68875e-09
-1.73944e-08
5.81882e-09
-1.88736e-08
5.92901e-09
-2.03754e-08
6.02066e-09
-2.18957e-08
6.09511e-09
-2.34307e-08
6.15368e-09
-2.49769e-08
6.19764e-09
-2.65311e-08
6.22823e-09
-2.80901e-08
6.24658e-09
-2.96512e-08
6.2538e-09
-3.1212e-08
6.25088e-09
-3.277e-08
6.23877e-09
-3.43233e-08
6.21832e-09
-3.58698e-08
6.1903e-09
-3.74078e-08
6.15542e-09
-3.89357e-08
6.11431e-09
-4.0452e-08
6.06753e-09
-4.19554e-08
6.01558e-09
-4.34447e-08
5.95889e-09
-4.49186e-08
5.89784e-09
-4.63763e-08
5.83277e-09
-4.78166e-08
5.76395e-09
-4.92386e-08
5.69163e-09
-5.06415e-08
5.616e-09
-5.20245e-08
5.53723e-09
-5.33867e-08
5.45547e-09
-5.47274e-08
5.37082e-09
-5.60459e-08
5.28338e-09
-5.73415e-08
5.19322e-09
-5.86135e-08
5.1004e-09
-5.98612e-08
5.00494e-09
-6.10839e-08
4.9069e-09
-6.22811e-08
4.80628e-09
-6.34519e-08
4.7031e-09
-6.45959e-08
4.59737e-09
-6.57124e-08
4.48908e-09
-6.68006e-08
4.37824e-09
-6.78601e-08
4.26485e-09
-6.889e-08
4.1489e-09
-6.98899e-08
4.03038e-09
-7.08591e-08
3.90929e-09
-7.17969e-08
3.78562e-09
-7.27027e-08
3.65937e-09
-7.35759e-08
3.53054e-09
-7.44159e-08
3.39913e-09
-7.52219e-08
3.26513e-09
-7.59935e-08
3.12855e-09
-7.67299e-08
2.98941e-09
-7.74306e-08
2.84769e-09
-7.80949e-08
2.70343e-09
-7.87223e-08
2.55663e-09
-7.9312e-08
2.40731e-09
-7.98636e-08
2.25549e-09
-8.03764e-08
2.1012e-09
-8.08499e-08
1.94447e-09
-8.12834e-08
1.78533e-09
-8.16765e-08
1.62381e-09
-8.20285e-08
1.45997e-09
-8.23389e-08
1.29384e-09
-8.26073e-08
1.12547e-09
-8.2833e-08
9.54927e-10
-8.30156e-08
7.82259e-10
-8.31546e-08
6.07533e-10
-8.32495e-08
4.30819e-10
-8.33e-08
2.52189e-10
-8.33055e-08
7.17206e-11
-8.32657e-08
-1.10501e-10
-8.31801e-08
-2.94387e-10
-8.30485e-08
-4.79845e-10
-8.28704e-08
-6.66774e-10
-8.26456e-08
-8.55072e-10
-8.23738e-08
-1.04463e-09
-8.20548e-08
-1.23533e-09
-8.16883e-08
-1.42705e-09
-8.12741e-08
-1.61967e-09
-8.0812e-08
-1.81305e-09
-8.0302e-08
-2.00706e-09
-7.97439e-08
-2.20154e-09
-7.91378e-08
-2.39637e-09
-7.84835e-08
-2.59136e-09
-7.77811e-08
-2.78638e-09
-7.70306e-08
-2.98123e-09
-7.62323e-08
-3.17576e-09
-7.53862e-08
-3.36976e-09
-7.44925e-08
-3.56306e-09
-7.35515e-08
-3.75546e-09
-7.25634e-08
-3.94673e-09
-7.15287e-08
-4.13667e-09
-7.04478e-08
-4.32504e-09
-6.93211e-08
-4.5116e-09
-6.81492e-08
-4.6961e-09
-6.69326e-08
-4.87827e-09
-6.5672e-08
-5.05783e-09
-6.43683e-08
-5.23446e-09
-6.30222e-08
-5.40786e-09
-6.16345e-08
-5.57768e-09
-6.02064e-08
-5.74355e-09
-5.8739e-08
-5.90509e-09
-5.72333e-08
-6.06189e-09
-5.56908e-08
-6.21348e-09
-5.41128e-08
-6.3594e-09
-5.25009e-08
-6.49913e-09
-5.08568e-08
-6.63212e-09
-4.91823e-08
-6.75778e-09
-4.74794e-08
-6.87546e-09
-4.57503e-08
-6.98449e-09
-4.39973e-08
-7.08414e-09
-4.22228e-08
-7.17364e-09
-4.04297e-08
-7.25214e-09
-3.86208e-08
-7.31877e-09
-3.67992e-08
-7.3726e-09
-3.49684e-08
-7.41263e-09
-3.31319e-08
-7.43784e-09
-3.12936e-08
-7.44714e-09
-2.94576e-08
-7.4394e-09
-2.76283e-08
-7.41345e-09
-2.58104e-08
-7.36809e-09
-2.40088e-08
-7.30208e-09
-2.22287e-08
-7.2142e-09
-2.04755e-08
-7.10321e-09
-1.8755e-08
-6.96788e-09
-1.70731e-08
-6.80703e-09
-1.54359e-08
-6.61955e-09
-1.38499e-08
-6.40443e-09
-1.23215e-08
-6.16079e-09
-1.08573e-08
-5.88794e-09
-9.46387e-09
-5.58545e-09
-8.14777e-09
-5.25323e-09
-6.91538e-09
-4.89161e-09
-5.77277e-09
-4.50151e-09
-4.72558e-09
-4.08455e-09
-3.77882e-09
-3.64333e-09
-2.93668e-09
-3.18164e-09
-2.20228e-09
-2.70487e-09
-1.57742e-09
-2.22041e-09
-1.06231e-09
-1.73824e-09
-6.55286e-10
-1.27163e-09
-3.52626e-10
-8.38065e-10
-1.48352e-10
-4.6012e-10
-3.42338e-11
-1.66632e-10
3.47249e-12
-4.14723e-11
2.99496e-11
-1.71371e-10
2.54788e-10
-3.95369e-10
5.94249e-10
-7.18011e-10
1.01305e-09
-1.1424e-09
1.48424e-09
-1.67011e-09
1.98601e-09
-2.30122e-09
2.50109e-09
-3.03445e-09
3.01607e-09
-3.86729e-09
3.52075e-09
-4.79623e-09
4.0075e-09
-5.81691e-09
4.47079e-09
-6.9243e-09
4.90676e-09
-8.11294e-09
5.31286e-09
-9.37702e-09
5.68763e-09
-1.07105e-08
6.03043e-09
-1.21075e-08
6.34126e-09
-1.35617e-08
6.62062e-09
-1.50674e-08
6.8694e-09
-1.66187e-08
7.08877e-09
-1.821e-08
7.28011e-09
-1.98361e-08
7.44492e-09
-2.14919e-08
7.58478e-09
-2.31726e-08
7.70134e-09
-2.48737e-08
7.79623e-09
-2.65911e-08
7.87105e-09
-2.83208e-08
7.92739e-09
-3.00593e-08
7.96674e-09
-3.18033e-08
7.99055e-09
-3.35497e-08
8.00016e-09
-3.52956e-08
7.99683e-09
-3.70386e-08
7.98173e-09
-3.87762e-08
7.95593e-09
-4.05063e-08
7.92041e-09
-4.22269e-08
7.87606e-09
-4.39363e-08
7.82367e-09
-4.56327e-08
7.76395e-09
-4.73147e-08
7.69754e-09
-4.89808e-08
7.62499e-09
-5.06297e-08
7.54679e-09
-5.22603e-08
7.46335e-09
-5.38714e-08
7.37505e-09
-5.5462e-08
7.28219e-09
-5.7031e-08
7.18504e-09
-5.85776e-08
7.08381e-09
-6.01008e-08
6.97869e-09
-6.15998e-08
6.86983e-09
-6.30738e-08
6.75735e-09