0.05 	0.0003125 	0.005 	0.00184203
0.05 	0.0009375 	0.005 	0.00184492
0.05 	0.0015625 	0.005 	0.00184695
0.05 	0.0021875 	0.005 	0.00184834
0.05 	0.0028125 	0.005 	0.0018493
0.05 	0.0034375 	0.005 	0.0018498
0.05 	0.0040625 	0.005 	0.00184981
0.05 	0.0046875 	0.005 	0.00184935
0.05 	0.0053125 	0.005 	0.00184838
0.05 	0.0059375 	0.005 	0.00184692
0.05 	0.0065625 	0.005 	0.00184495
0.05 	0.0071875 	0.005 	0.00184246
0.05 	0.0078125 	0.005 	0.00183945
0.05 	0.0084375 	0.005 	0.00183592
0.05 	0.0090625 	0.005 	0.00183185
0.05 	0.0096875 	0.005 	0.00182724
0.05 	0.0103125 	0.005 	0.00182208
0.05 	0.0109375 	0.005 	0.00181637
0.05 	0.0115625 	0.005 	0.0018101
0.05 	0.0121875 	0.005 	0.00180326
0.05 	0.0128125 	0.005 	0.00179584
0.05 	0.0134375 	0.005 	0.00178783
0.05 	0.0140625 	0.005 	0.00177921
0.05 	0.0146875 	0.005 	0.00176999
0.05 	0.0153125 	0.005 	0.00176014
0.05 	0.0159375 	0.005 	0.00174964
0.05 	0.0165625 	0.005 	0.0017385
0.05 	0.0171875 	0.005 	0.00172667
0.05 	0.0178125 	0.005 	0.00171416
0.05 	0.0184375 	0.005 	0.00170094
0.05 	0.0190625 	0.005 	0.00168698
0.05 	0.0196875 	0.005 	0.00167227
0.05 	0.0203125 	0.005 	0.00165677
0.05 	0.0209375 	0.005 	0.00164048
0.05 	0.0215625 	0.005 	0.00162334
0.05 	0.0221875 	0.005 	0.00160533
0.05 	0.0228125 	0.005 	0.00158643
0.05 	0.0234375 	0.005 	0.00156658
0.05 	0.0240625 	0.005 	0.00154575
0.05 	0.0246875 	0.005 	0.00152391
0.05 	0.0253125 	0.005 	0.001501
0.05 	0.0259375 	0.005 	0.00147698
0.05 	0.0265625 	0.005 	0.00145181
0.05 	0.0271875 	0.005 	0.00142543
0.05 	0.0278125 	0.005 	0.00139779
0.05 	0.0284375 	0.005 	0.00136884
0.05 	0.0290625 	0.005 	0.00133852
0.05 	0.0296875 	0.005 	0.00130677
0.05 	0.0303125 	0.005 	0.00127354
0.05 	0.0309375 	0.005 	0.00123875
0.05 	0.0315625 	0.005 	0.00120235
0.05 	0.0321875 	0.005 	0.00116426
0.05 	0.0328125 	0.005 	0.00112442
0.05 	0.0334375 	0.005 	0.00108274
0.05 	0.0340625 	0.005 	0.00103915
0.05 	0.0346875 	0.005 	0.00099356
0.05 	0.0353125 	0.005 	0.000945895
0.05 	0.0359375 	0.005 	0.000896062
0.05 	0.0365625 	0.005 	0.000843968
0.05 	0.0371875 	0.005 	0.000789518
0.05 	0.0378125 	0.005 	0.000732613
0.05 	0.0384375 	0.005 	0.000673153
0.05 	0.0390625 	0.005 	0.000611032
0.05 	0.0396875 	0.005 	0.000546143
0.05 	0.0403125 	0.005 	0.000478375
0.05 	0.0409375 	0.005 	0.000407615
0.05 	0.0415625 	0.005 	0.000333747
0.05 	0.0421875 	0.005 	0.000256652
0.05 	0.0428125 	0.005 	0.000176209
0.05 	0.0434375 	0.005 	9.22957e-05
0.05 	0.0440625 	0.005 	4.78622e-06
0.05 	0.0446875 	0.005 	-8.64453e-05
0.05 	0.0453125 	0.005 	-0.000181527
0.05 	0.0459375 	0.005 	-0.000280587
0.05 	0.0465625 	0.005 	-0.000383758
0.05 	0.0471875 	0.005 	-0.00049117
0.05 	0.0478125 	0.005 	-0.000602956
0.05 	0.0484375 	0.005 	-0.000719251
0.05 	0.0490625 	0.005 	-0.000840186
0.05 	0.0496875 	0.005 	-0.000965895
0.05 	0.0503125 	0.005 	-0.00109651
0.05 	0.0509375 	0.005 	-0.00123215
0.05 	0.0515625 	0.005 	-0.00137296
0.05 	0.0521875 	0.005 	-0.00151904
0.05 	0.0528125 	0.005 	-0.00167053
0.05 	0.0534375 	0.005 	-0.00182754
0.05 	0.0540625 	0.005 	-0.00199018
0.05 	0.0546875 	0.005 	-0.00215857
0.05 	0.0553125 	0.005 	-0.00233279
0.05 	0.0559375 	0.005 	-0.00251294
0.05 	0.0565625 	0.005 	-0.00269911
0.05 	0.0571875 	0.005 	-0.00289136
0.05 	0.0578125 	0.005 	-0.00308975
0.05 	0.0584375 	0.005 	-0.00329433
0.05 	0.0590625 	0.005 	-0.00350513
0.05 	0.0596875 	0.005 	-0.00372217
0.05 	0.0603125 	0.005 	-0.00394544
0.05 	0.0609375 	0.005 	-0.00417492
0.05 	0.0615625 	0.005 	-0.00441057
0.05 	0.0621875 	0.005 	-0.00465232
0.05 	0.0628125 	0.005 	-0.00490008
0.05 	0.0634375 	0.005 	-0.00515374
0.05 	0.0640625 	0.005 	-0.00541316
0.05 	0.0646875 	0.005 	-0.00567816
0.05 	0.0653125 	0.005 	-0.00594856
0.05 	0.0659375 	0.005 	-0.00622414
0.05 	0.0665625 	0.005 	-0.00650465
0.05 	0.0671875 	0.005 	-0.00678983
0.05 	0.0678125 	0.005 	-0.00707938
0.05 	0.0684375 	0.005 	-0.00737298
0.05 	0.0690625 	0.005 	-0.0076703
0.05 	0.0696875 	0.005 	-0.00797097
0.05 	0.0703125 	0.005 	-0.00827462
0.05 	0.0709375 	0.005 	-0.00858085
0.05 	0.0715625 	0.005 	-0.00888925
0.05 	0.0721875 	0.005 	-0.00919938
0.05 	0.0728125 	0.005 	-0.0095108
0.05 	0.0734375 	0.005 	-0.00982305
0.05 	0.0740625 	0.005 	-0.0101357
0.05 	0.0746875 	0.005 	-0.0104481
0.05 	0.0753125 	0.005 	-0.01076
0.05 	0.0759375 	0.005 	-0.0110707
0.05 	0.0765625 	0.005 	-0.0113798
0.05 	0.0771875 	0.005 	-0.0116868
0.05 	0.0778125 	0.005 	-0.0119911
0.05 	0.0784375 	0.005 	-0.0122923
0.05 	0.0790625 	0.005 	-0.0125897
0.05 	0.0796875 	0.005 	-0.012883
0.05 	0.0803125 	0.005 	-0.0131716
0.05 	0.0809375 	0.005 	-0.0134549
0.05 	0.0815625 	0.005 	-0.0137324
0.05 	0.0821875 	0.005 	-0.0140036
0.05 	0.0828125 	0.005 	-0.0142677
0.05 	0.0834375 	0.005 	-0.0145242
0.05 	0.0840625 	0.005 	-0.0147723
0.05 	0.0846875 	0.005 	-0.0150112
0.05 	0.0853125 	0.005 	-0.0152398
0.05 	0.0859375 	0.005 	-0.0154572
0.05 	0.0865625 	0.005 	-0.0156622
0.05 	0.0871875 	0.005 	-0.0158533
0.05 	0.0878125 	0.005 	-0.0160293
0.05 	0.0884375 	0.005 	-0.0161885
0.05 	0.0890625 	0.005 	-0.0163292
0.05 	0.0896875 	0.005 	-0.0164497
0.05 	0.0903125 	0.005 	-0.0165484
0.05 	0.0909375 	0.005 	-0.0166234
0.05 	0.0915625 	0.005 	-0.0166734
0.05 	0.0921875 	0.005 	-0.0166971
0.05 	0.0928125 	0.005 	-0.0166935
0.05 	0.0934375 	0.005 	-0.0166623
0.05 	0.0940625 	0.005 	-0.0166035
0.05 	0.0946875 	0.005 	-0.0165179
0.05 	0.0953125 	0.005 	-0.0164068
0.05 	0.0959375 	0.005 	-0.0162723
0.05 	0.0965625 	0.005 	-0.0161169
0.05 	0.0971875 	0.005 	-0.0159434
0.05 	0.0978125 	0.005 	-0.0157561
0.05 	0.0984375 	0.005 	-0.0155595
0.05 	0.0990625 	0.005 	-0.0153389
0.05 	0.0996875 	0.005 	-0.0150759
