/*--------------------------------*- C++ -*----------------------------------*\
  =========                 |
  \\      /  F ield         | OpenFOAM: The Open Source CFD Toolbox
   \\    /   O peration     | Website:  https://openfoam.org
    \\  /    A nd           | Version:  7
     \\/     M anipulation  |
\*---------------------------------------------------------------------------*/
FoamFile
{
    version     2.0;
    format      ascii;
    class       surfaceScalarField;
    location    "0.2125";
    object      phi;
}
// * * * * * * * * * * * * * * * * * * * * * * * * * * * * * * * * * * * * * //

dimensions      [0 3 -1 0 0 0 0];

internalField   nonuniform List<scalar> 
50880
(
1.0904e-11
-1.08842e-11
2.69242e-11
-1.60206e-11
3.69443e-11
-1.00189e-11
3.52316e-11
1.71248e-12
1.95947e-11
1.56347e-11
-1.03717e-11
2.99651e-11
-5.43315e-11
4.39591e-11
-1.11493e-10
5.71609e-11
-1.80818e-10
6.93254e-11
-2.61195e-10
8.03789e-11
-3.51514e-10
9.03203e-11
-4.50681e-10
9.91649e-11
-5.5765e-10
1.06967e-10
-6.7146e-10
1.1381e-10
-7.9122e-10
1.19761e-10
-9.16094e-10
1.24876e-10
-1.04532e-09
1.29225e-10
-1.17821e-09
1.32883e-10
-1.31413e-09
1.35922e-10
-1.45254e-09
1.3841e-10
-1.59294e-09
1.40408e-10
-1.73491e-09
1.41969e-10
-1.87805e-09
1.43137e-10
-2.02202e-09
1.43962e-10
-2.16651e-09
1.44492e-10
-2.31128e-09
1.44772e-10
-2.45611e-09
1.44836e-10
-2.60082e-09
1.4471e-10
-2.74524e-09
1.44414e-10
-2.88921e-09
1.43972e-10
-3.03262e-09
1.4341e-10
-3.17537e-09
1.42752e-10
-3.31738e-09
1.42008e-10
-3.45856e-09
1.41185e-10
-3.59885e-09
1.40286e-10
-3.73817e-09
1.39323e-10
-3.87648e-09
1.38307e-10
-4.01372e-09
1.37245e-10
-4.14986e-09
1.36137e-10
-4.28483e-09
1.34979e-10
-4.41861e-09
1.33772e-10
-4.55112e-09
1.3252e-10
-4.68235e-09
1.31224e-10
-4.81223e-09
1.29884e-10
-4.94073e-09
1.28498e-10
-5.06779e-09
1.27062e-10
-5.19336e-09
1.25575e-10
-5.3174e-09
1.24036e-10
-5.43984e-09
1.22444e-10
-5.56064e-09
1.20797e-10
-5.67973e-09
1.19093e-10
-5.79706e-09
1.1733e-10
-5.91257e-09
1.15505e-10
-6.02618e-09
1.13617e-10
-6.13785e-09
1.11663e-10
-6.24749e-09
1.09641e-10
-6.35504e-09
1.07552e-10
-6.46043e-09
1.05393e-10
-6.56359e-09
1.03162e-10
-6.66445e-09
1.00856e-10
-6.76292e-09
9.84742e-11
-6.85894e-09
9.60168e-11
-6.95242e-09
9.34816e-11
-7.04328e-09
9.08657e-11
-7.13145e-09
8.81675e-11
-7.21684e-09
8.5388e-11
-7.29937e-09
8.2528e-11
-7.37895e-09
7.95857e-11
-7.45551e-09
7.65579e-11
-7.52895e-09
7.34422e-11
-7.59919e-09
7.02392e-11
-7.66614e-09
6.69508e-11
-7.72972e-09
6.35783e-11
-7.78984e-09
6.01202e-11
-7.84641e-09
5.65736e-11
-7.89935e-09
5.29373e-11
-7.94856e-09
4.92134e-11
-7.99396e-09
4.54047e-11
-8.03547e-09
4.15121e-11
-8.07301e-09
3.75349e-11
-8.10648e-09
3.34721e-11
-8.13581e-09
2.93249e-11
-8.1609e-09
2.50962e-11
-8.18169e-09
2.07887e-11
-8.19809e-09
1.64037e-11
-8.21004e-09
1.19421e-11
-8.21744e-09
7.40546e-12
-8.22024e-09
2.79659e-12
-8.21836e-09
-1.88149e-12
-8.21173e-09
-6.62587e-12
-8.2003e-09
-1.14336e-11
-8.184e-09
-1.63016e-11
-8.16277e-09
-2.12261e-11
-8.13656e-09
-2.62036e-11
-8.10533e-09
-3.12302e-11
-8.06903e-09
-3.63018e-11
-8.02762e-09
-4.14138e-11
-7.98105e-09
-4.65615e-11
-7.92932e-09
-5.174e-11
-7.87237e-09
-5.69443e-11
-7.8102e-09
-6.21695e-11
-7.74279e-09
-6.74096e-11
-7.67013e-09
-7.26592e-11
-7.59222e-09
-7.79128e-11
-7.50905e-09
-8.31647e-11
-7.42064e-09
-8.84084e-11
-7.32701e-09
-9.36373e-11
-7.22816e-09
-9.88447e-11
-7.12414e-09
-1.04024e-10
-7.01497e-09
-1.09168e-10
-6.9007e-09
-1.14271e-10
-6.78137e-09
-1.19324e-10
-6.65705e-09
-1.24319e-10
-6.52781e-09
-1.29249e-10
-6.3937e-09
-1.34106e-10
-6.25482e-09
-1.38881e-10
-6.11125e-09
-1.43566e-10
-5.9631e-09
-1.4815e-10
-5.81048e-09
-1.52622e-10
-5.65351e-09
-1.56973e-10
-5.49232e-09
-1.61191e-10
-5.32705e-09
-1.65264e-10
-5.15787e-09
-1.6918e-10
-4.98495e-09
-1.72922e-10
-4.80847e-09
-1.76476e-10
-4.62865e-09
-1.79824e-10
-4.4457e-09
-1.82949e-10
-4.25987e-09
-1.8583e-10
-4.07142e-09
-1.88444e-10
-3.88065e-09
-1.9077e-10
-3.68787e-09
-1.9278e-10
-3.49343e-09
-1.94447e-10
-3.29769e-09
-1.95739e-10
-3.10106e-09
-1.96624e-10
-2.904e-09
-1.97067e-10
-2.70697e-09
-1.97028e-10
-2.5105e-09
-1.96467e-10
-2.31516e-09
-1.9534e-10
-2.12156e-09
-1.93601e-10
-1.93036e-09
-1.91199e-10
-1.74228e-09
-1.88083e-10
-1.55808e-09
-1.84198e-10
-1.37859e-09
-1.79487e-10
-1.2047e-09
-1.7389e-10
-1.03736e-09
-1.67345e-10
-8.77567e-10
-1.5979e-10
-7.26408e-10
-1.5116e-10
-5.85018e-10
-1.41391e-10
-4.54597e-10
-1.30422e-10
-3.36397e-10
-1.182e-10
-2.31716e-10
-1.04682e-10
-1.41866e-10
-8.985e-11
-6.81346e-11
-7.3731e-11
-1.16997e-11
-5.6434e-11
2.65337e-11
-3.82325e-11
4.62185e-11
-1.96844e-11
4.80399e-11
-1.82134e-12
3.49082e-11
1.31313e-11
1.39898e-11
2.09175e-11
1.39888e-11
1.63311e-11
-2.72161e-11
3.21643e-11
-3.18565e-11
2.98885e-11
-7.74352e-12
-4.57613e-13
3.20609e-11
-6.39943e-11
7.91717e-11
-1.62911e-10
1.28883e-10
-2.97098e-10
1.78146e-10
-4.65227e-10
2.25288e-10
-6.65265e-10
2.69359e-10
-8.94777e-10
3.09889e-10
-1.15116e-09
3.46707e-10
-1.43178e-09
3.7979e-10
-1.73405e-09
4.0923e-10
-2.05545e-09
4.35207e-10
-2.39362e-09
4.57933e-10
-2.74636e-09
4.77618e-10
-3.11163e-09
4.9449e-10
-3.48753e-09
5.08793e-10
-3.87238e-09
5.20766e-10
-4.26461e-09
5.3064e-10
-4.66284e-09
5.38634e-10
-5.06582e-09
5.44948e-10
-5.47244e-09
5.49766e-10
-5.88174e-09
5.53262e-10
-6.29286e-09
5.55603e-10
-6.70503e-09
5.56942e-10
-7.1176e-09
5.57408e-10
-7.53e-09
5.57111e-10
-7.94173e-09
5.5615e-10
-8.35237e-09
5.54613e-10
-8.76155e-09
5.52583e-10
-9.16893e-09
5.50132e-10
-9.57423e-09
5.47313e-10
-9.97721e-09
5.44167e-10
-1.03777e-08
5.40728e-10
-1.07754e-08
5.37027e-10
-1.11701e-08
5.33093e-10
-1.15618e-08
5.28949e-10
-1.19503e-08
5.24604e-10
-1.23354e-08
5.20064e-10
-1.2717e-08
5.15333e-10
-1.30948e-08
5.10415e-10
-1.34689e-08
5.05316e-10
-1.38391e-08
5.00035e-10
-1.42052e-08
4.94565e-10
-1.4567e-08
4.88901e-10
-1.49245e-08
4.83039e-10
-1.52774e-08
4.76974e-10
-1.56257e-08
4.70701e-10
-1.59691e-08
4.64212e-10
-1.63075e-08
4.57501e-10
-1.66407e-08
4.5056e-10
-1.69686e-08
4.43384e-10
-1.72909e-08
4.35965e-10
-1.76076e-08
4.28297e-10
-1.79183e-08
4.20372e-10
-1.82229e-08
4.12184e-10
-1.85213e-08
4.03727e-10
-1.88131e-08
3.94996e-10
-1.90982e-08
3.85985e-10
-1.93764e-08
3.76688e-10
-1.96475e-08
3.67099e-10
-1.99113e-08
3.57215e-10
-2.01674e-08
3.4703e-10
-2.04158e-08
3.36539e-10
-2.06561e-08
3.25738e-10
-2.08882e-08
3.14627e-10
-2.11119e-08
3.03201e-10
-2.13268e-08
2.91457e-10
-2.15327e-08
2.7939e-10
-2.17295e-08
2.66999e-10
-2.19168e-08
2.54283e-10
-2.20944e-08
2.41243e-10
-2.22622e-08
2.27879e-10
-2.24198e-08
2.14187e-10
-2.2567e-08
2.00168e-10
-2.27037e-08
1.85823e-10
-2.28294e-08
1.71156e-10
-2.29441e-08
1.56171e-10
-2.30474e-08
1.40869e-10
-2.31392e-08
1.25253e-10
-2.32192e-08
1.09326e-10
-2.32872e-08
9.30953e-11
-2.3343e-08
7.65678e-11
-2.33863e-08
5.97499e-11
-2.3417e-08
4.26481e-11
-2.34349e-08
2.527e-11
-2.34397e-08
7.62524e-12
-2.34313e-08
-1.02756e-11
-2.34095e-08
-2.84219e-11
-2.33741e-08
-4.68025e-11
-2.3325e-08
-6.54055e-11
-2.3262e-08
-8.42173e-11
-2.3185e-08
-1.03223e-10
-2.30938e-08
-1.22409e-10
-2.29884e-08
-1.41758e-10
-2.28685e-08
-1.61255e-10
-2.27342e-08
-1.80881e-10
-2.25853e-08
-2.00619e-10
-2.24218e-08
-2.2045e-10
-2.22437e-08
-2.40353e-10
-2.20508e-08
-2.60309e-10
-2.18431e-08
-2.80297e-10
-2.16207e-08
-3.00295e-10
-2.13836e-08
-3.20279e-10
-2.11318e-08
-3.40229e-10
-2.08653e-08
-3.60118e-10
-2.05842e-08
-3.79923e-10
-2.02886e-08
-3.99618e-10
-1.99786e-08
-4.19176e-10
-1.96543e-08
-4.38571e-10
-1.93159e-08
-4.57773e-10
-1.89634e-08
-4.76755e-10
-1.85972e-08
-4.95485e-10
-1.82174e-08
-5.13933e-10
-1.78242e-08
-5.32066e-10
-1.74179e-08
-5.49849e-10
-1.69988e-08
-5.67247e-10
-1.65672e-08
-5.84219e-10
-1.61235e-08
-6.00725e-10
-1.56679e-08
-6.1672e-10
-1.5201e-08
-6.32158e-10
-1.47232e-08
-6.46987e-10
-1.4235e-08
-6.61151e-10
-1.37369e-08
-6.7459e-10
-1.32295e-08
-6.87239e-10
-1.27134e-08
-6.99028e-10
-1.21893e-08
-7.09879e-10
-1.16581e-08
-7.19708e-10
-1.11204e-08
-7.28426e-10
-1.05773e-08
-7.35932e-10
-1.00296e-08
-7.42119e-10
-9.47845e-09
-7.46871e-10
-8.92501e-09
-7.50063e-10
-8.37052e-09
-7.51561e-10
-7.81633e-09
-7.5122e-10
-7.26391e-09
-7.48886e-10
-6.71485e-09
-7.44397e-10
-6.17087e-09
-7.3758e-10
-5.63381e-09
-7.28253e-10
-5.10567e-09
-7.16225e-10
-4.58857e-09
-7.01299e-10
-4.08478e-09
-6.83272e-10
-3.59674e-09
-6.61932e-10
-3.12702e-09
-6.37069e-10
-2.67834e-09
-6.08472e-10
-2.25356e-09
-5.75937e-10
-1.85568e-09
-5.39272e-10
-1.48779e-09
-4.98314e-10
-1.15305e-09
-4.52944e-10
-8.54612e-10
-4.03117e-10
-5.95548e-10
-3.48913e-10
-3.78662e-10
-2.90616e-10
-2.06246e-10
-2.28848e-10
-7.96913e-11
-1.64785e-10
1.16936e-12
-1.00543e-10
3.93354e-11
-3.99872e-11
4.156e-11
1.09053e-11
2.08357e-11
4.16397e-11
3.48237e-11
1.00589e-11
-3.72737e-11
7.90997e-12
-2.97091e-11
-2.52385e-11
2.54022e-11
-1.00654e-10
1.07476e-10
-2.24917e-10
2.03434e-10
-4.00748e-10
3.04714e-10
-6.28426e-10
4.05825e-10
-9.06508e-10
5.03372e-10
-1.23246e-09
5.9531e-10
-1.60307e-09
6.80496e-10
-2.01475e-09
7.5839e-10
-2.46378e-09
8.2882e-10
-2.94642e-09
8.91863e-10
-3.45898e-09
9.47775e-10
-3.99796e-09
9.96913e-10
-4.56003e-09
1.03969e-09
-5.14208e-09
1.07654e-09
-5.74122e-09
1.10794e-09
-6.35482e-09
1.13436e-09
-6.98045e-09
1.15627e-09
-7.61594e-09
1.17412e-09
-8.25931e-09
1.18832e-09
-8.9088e-09
1.19926e-09
-9.56286e-09
1.20732e-09
-1.02201e-08
1.21284e-09
-1.08793e-08
1.21613e-09
-1.15393e-08
1.21747e-09
-1.21993e-08
1.21711e-09
-1.28584e-08
1.21526e-09
-1.35159e-08
1.21212e-09
-1.41712e-08
1.20786e-09
-1.48237e-08
1.20263e-09
-1.5473e-08
1.19655e-09
-1.61185e-08
1.18972e-09
-1.676e-08
1.18222e-09
-1.73971e-08
1.17412e-09
-1.80295e-08
1.16547e-09
-1.86569e-08
1.15634e-09
-1.9279e-08
1.14673e-09
-1.98956e-08
1.13668e-09
-2.05065e-08
1.12619e-09
-2.11113e-08
1.11528e-09
-2.171e-08
1.10396e-09
-2.23022e-08
1.09222e-09
-2.28876e-08
1.08006e-09
-2.34662e-08
1.06746e-09
-2.40376e-08
1.05443e-09
-2.46016e-08
1.04095e-09
-2.51579e-08
1.027e-09
-2.57062e-08
1.01258e-09
-2.62464e-08
9.97677e-10
-2.67781e-08
9.82267e-10
-2.73011e-08
9.66341e-10
-2.7815e-08
9.49887e-10
-2.83196e-08
9.3289e-10
-2.88146e-08
9.15337e-10
-2.92996e-08
8.97213e-10
-2.97744e-08
8.78506e-10
-3.02386e-08
8.59204e-10
-3.06919e-08
8.39297e-10
-3.1134e-08
8.18772e-10
-3.15645e-08
7.97618e-10
-3.19831e-08
7.75825e-10
-3.23894e-08
7.53383e-10
-3.27832e-08
7.30285e-10
-3.3164e-08
7.06523e-10
-3.35314e-08
6.82089e-10
-3.38852e-08
6.56977e-10
-3.42249e-08
6.3118e-10
-3.45502e-08
6.04693e-10
-3.48608e-08
5.77513e-10
-3.51561e-08
5.49637e-10
-3.54359e-08
5.21065e-10
-3.56998e-08
4.91795e-10
-3.59475e-08
4.61826e-10
-3.61785e-08
4.31159e-10
-3.63924e-08
3.99799e-10
-3.6589e-08
3.6775e-10
-3.67679e-08
3.35019e-10
-3.69286e-08
3.01612e-10
-3.70709e-08
2.67535e-10
-3.71944e-08
2.328e-10
-3.72987e-08
1.97417e-10
-3.73835e-08
1.61402e-10
-3.74486e-08
1.24768e-10
-3.74934e-08
8.7531e-11
-3.75179e-08
4.97089e-11
-3.75216e-08
1.13214e-11
-3.75042e-08
-2.76093e-11
-3.74656e-08
-6.70597e-11
-3.74054e-08
-1.07005e-10
-3.73234e-08
-1.4742e-10
-3.72193e-08
-1.88275e-10
-3.7093e-08
-2.29539e-10
-3.69442e-08
-2.71181e-10
-3.67728e-08
-3.13166e-10
-3.65786e-08
-3.55458e-10
-3.63615e-08
-3.98022e-10
-3.61213e-08
-4.40816e-10
-3.58579e-08
-4.83801e-10
-3.55713e-08
-5.26935e-10
-3.52615e-08
-5.70174e-10
-3.49283e-08
-6.13473e-10
-3.45718e-08
-6.56784e-10
-3.4192e-08
-7.0006e-10
-3.3789e-08
-7.4325e-10
-3.33628e-08
-7.86303e-10
-3.29136e-08
-8.29166e-10
-3.24414e-08
-8.71783e-10
-3.19465e-08
-9.14098e-10
-3.1429e-08
-9.56053e-10
-3.08892e-08
-9.97587e-10
-3.03273e-08
-1.03864e-09
-2.97437e-08
-1.07914e-09
-2.91386e-08
-1.11902e-09
-2.85124e-08
-1.15821e-09
-2.78656e-08
-1.19664e-09
-2.71987e-08
-1.23423e-09
-2.6512e-08
-1.27089e-09
-2.58062e-08
-1.30653e-09
-2.50818e-08
-1.34106e-09
-2.43396e-08
-1.37437e-09
-2.35803e-08
-1.40635e-09
-2.28045e-08
-1.43688e-09
-2.20133e-08
-1.46583e-09
-2.12075e-08
-1.49306e-09
-2.03881e-08
-1.51841e-09
-1.95562e-08
-1.54172e-09
-1.87132e-08
-1.5628e-09
-1.78601e-08
-1.58145e-09
-1.69986e-08
-1.59747e-09
-1.61301e-08
-1.61062e-09
-1.52563e-08
-1.62065e-09
-1.43791e-08
-1.62729e-09
-1.35004e-08
-1.63025e-09
-1.26224e-08
-1.62922e-09
-1.17474e-08
-1.62389e-09
-1.08779e-08
-1.61389e-09
-1.00166e-08
-1.59888e-09
-9.16641e-09
-1.57845e-09
-8.33041e-09
-1.55223e-09
-7.5119e-09
-1.5198e-09
-6.71443e-09
-1.48074e-09
-5.94173e-09
-1.43463e-09
-5.19774e-09
-1.38106e-09
-4.4866e-09
-1.31961e-09
-3.81264e-09
-1.24991e-09
-3.18029e-09
-1.17162e-09
-2.59412e-09
-1.08449e-09
-2.05869e-09
-9.88375e-10
-1.57847e-09
-8.83339e-10
-1.15766e-09
-7.69723e-10
-7.99945e-10
-6.48326e-10
-5.08144e-10
-5.20648e-10
-2.83653e-10
-3.89276e-10
-1.25685e-10
-2.58511e-10
-3.03698e-11
-1.35303e-10
1.09634e-11
-3.04289e-11
1.30595e-11
3.95422e-11
4.78824e-11
-1.67827e-12
-3.55947e-11
-3.20438e-11
6.57688e-13
-1.07651e-10
1.01008e-10
-2.39182e-10
2.39007e-10
-4.3291e-10
3.97162e-10
-6.91681e-10
5.63483e-10
-1.01575e-09
7.29889e-10
-1.40351e-09
8.91138e-10
-1.85211e-09
1.04391e-09
-2.35782e-09
1.18621e-09
-2.91642e-09
1.31698e-09
-3.52338e-09
1.43579e-09
-4.17414e-09
1.54262e-09
-4.86414e-09
1.63777e-09
-5.58896e-09
1.72173e-09
-6.34439e-09
1.79511e-09
-7.12646e-09
1.8586e-09
-7.93144e-09
1.91292e-09
-8.7559e-09
1.95882e-09
-9.59669e-09
1.99706e-09
-1.04509e-08
2.02835e-09
-1.1316e-08
2.0534e-09
-1.21896e-08
2.07285e-09
-1.30696e-08
2.08732e-09
-1.39541e-08
2.09738e-09
-1.48415e-08
2.10354e-09
-1.57304e-08
2.1063e-09
-1.66193e-08
2.10606e-09
-1.75073e-08
2.1032e-09
-1.83932e-08
2.09806e-09
-1.92763e-08
2.09092e-09
-2.01557e-08
2.08203e-09
-2.10307e-08
2.07162e-09
-2.19009e-08
2.05985e-09
-2.27655e-08
2.04688e-09
-2.36242e-08
2.03282e-09
-2.44765e-08
2.01777e-09
-2.5322e-08
2.00182e-09
-2.61603e-08
1.98503e-09
-2.69911e-08
1.96743e-09
-2.78139e-08
1.94905e-09
-2.86286e-08
1.92992e-09
-2.94346e-08
1.91004e-09
-3.02318e-08
1.88942e-09
-3.10198e-08
1.86804e-09
-3.17983e-08
1.84591e-09
-3.25668e-08
1.82301e-09
-3.33252e-08
1.79932e-09
-3.4073e-08
1.77482e-09
-3.48099e-08
1.74949e-09
-3.55356e-08
1.72332e-09
-3.62496e-08
1.69628e-09
-3.69516e-08
1.66834e-09
-3.76412e-08
1.63949e-09
-3.8318e-08
1.6097e-09
-3.89816e-08
1.57895e-09
-3.96316e-08
1.54723e-09
-4.02676e-08
1.5145e-09
-4.08892e-08
1.48075e-09
-4.14958e-08
1.44596e-09
-4.20872e-08
1.41012e-09
-4.26627e-08
1.37319e-09
-4.32221e-08
1.33518e-09
-4.37648e-08
1.29605e-09
-4.42903e-08
1.25581e-09
-4.47982e-08
1.21443e-09
-4.5288e-08
1.1719e-09
-4.57592e-08
1.12822e-09
-4.62114e-08
1.08337e-09
-4.66441e-08
1.03734e-09
-4.70567e-08
9.90141e-10
-4.74488e-08
9.41754e-10
-4.78199e-08
8.92181e-10
-4.81696e-08
8.41423e-10
-4.84972e-08
7.8948e-10
-4.88024e-08
7.36355e-10
-4.90847e-08
6.82053e-10
-4.93435e-08
6.26584e-10
-4.95784e-08
5.69957e-10
-4.9789e-08
5.12185e-10
-4.99748e-08
4.53282e-10
-5.01352e-08
3.93265e-10
-5.027e-08
3.32155e-10
-5.03785e-08
2.69975e-10
-5.04605e-08
2.06751e-10
-5.05155e-08
1.4251e-10
-5.05431e-08
7.72843e-11
-5.05429e-08
1.11063e-11
-5.05145e-08
-5.59861e-11
-5.04576e-08
-1.23953e-10
-5.03718e-08
-1.92751e-10
-5.02569e-08
-2.62334e-10
-5.01125e-08
-3.32655e-10
-4.99384e-08
-4.0366e-10
-4.97343e-08
-4.75296e-10
-4.95e-08
-5.47503e-10
-4.92352e-08
-6.20221e-10
-4.89398e-08
-6.93386e-10
-4.86137e-08
-7.66933e-10
-4.82567e-08
-8.40791e-10
-4.78688e-08
-9.14888e-10
-4.74498e-08
-9.89151e-10
-4.69998e-08
-1.0635e-09
-4.65187e-08
-1.13786e-09
-4.60066e-08
-1.21215e-09
-4.54636e-08
-1.28627e-09
-4.48897e-08
-1.36015e-09
-4.42852e-08
-1.43369e-09
-4.36502e-08
-1.50679e-09
-4.29849e-08
-1.57937e-09
-4.22897e-08
-1.65131e-09
-4.15647e-08
-1.72253e-09
-4.08105e-08
-1.7929e-09
-4.00273e-08
-1.86232e-09
-3.92156e-08
-1.93067e-09
-3.8376e-08
-1.99783e-09
-3.7509e-08
-2.06366e-09
-3.66152e-08
-2.12804e-09
-3.56953e-08
-2.19081e-09
-3.475e-08
-2.25182e-09
-3.37801e-08
-2.31091e-09
-3.27866e-08
-2.36789e-09
-3.17704e-08
-2.42257e-09
-3.07325e-08
-2.47475e-09
-2.96742e-08
-2.5242e-09
-2.85965e-08
-2.57067e-09
-2.75011e-08
-2.6139e-09
-2.63892e-08
-2.6536e-09
-2.52625e-08
-2.68947e-09
-2.41228e-08
-2.72115e-09
-2.2972e-08
-2.74829e-09
-2.18121e-08
-2.77048e-09
-2.06454e-08
-2.78731e-09
-1.94744e-08
-2.79832e-09
-1.83017e-08
-2.803e-09
-1.713e-08
-2.80086e-09
-1.59626e-08
-2.79132e-09
-1.48026e-08
-2.77383e-09
-1.36538e-08
-2.74775e-09
-1.25198e-08
-2.71247e-09
-1.14047e-08
-2.66732e-09
-1.03128e-08
-2.61164e-09
-9.24883e-09
-2.54475e-09
-8.21749e-09
-2.46597e-09
-7.22389e-09
-2.37466e-09
-6.27332e-09
-2.27017e-09
-5.37126e-09
-2.15197e-09
-4.5233e-09
-2.01958e-09
-3.7351e-09
-1.87269e-09
-3.01224e-09
-1.71124e-09
-2.36011e-09
-1.53547e-09
-1.78367e-09
-1.34616e-09
-1.28717e-09
-1.14482e-09
-8.7374e-10
-9.34077e-10
-5.44847e-10
-7.18168e-10
-2.99604e-10
-5.03755e-10
-1.33881e-10
-3.01026e-10
-3.92509e-11
-1.2506e-10
-1.73246e-12
2.02282e-12
4.61495e-11
-1.56798e-11
-1.99157e-11
-7.96211e-11
6.46008e-11
-2.046e-10
2.25986e-10
-3.98996e-10
4.33405e-10
-6.67917e-10
6.66083e-10
-1.01358e-09
9.09146e-10
-1.43587e-09
1.15217e-09
-1.93287e-09
1.38813e-09
-2.50136e-09
1.61241e-09
-3.13723e-09
1.82208e-09
-3.83576e-09
2.0155e-09
-4.59187e-09
2.1919e-09
-5.40037e-09
2.35111e-09
-6.25602e-09
2.49343e-09
-7.15372e-09
2.61944e-09
-8.08856e-09
2.72995e-09
-9.05585e-09
2.82589e-09
-1.00512e-08
2.90828e-09
-1.10706e-08
2.97816e-09
-1.21101e-08
3.03659e-09
-1.31663e-08
3.0846e-09
-1.42361e-08
3.12321e-09
-1.53167e-08
3.15338e-09
-1.64053e-08
3.17599e-09
-1.74999e-08
3.19189e-09
-1.85982e-08
3.20185e-09
-1.96984e-08
3.20656e-09
-2.0799e-08
3.20667e-09
-2.18986e-08
3.20273e-09
-2.29957e-08
3.19525e-09
-2.40895e-08
3.18465e-09
-2.51788e-08
3.17132e-09
-2.62627e-08
3.15558e-09
-2.73406e-08
3.13772e-09
-2.84117e-08
3.11795e-09
-2.94753e-08
3.09647e-09
-3.0531e-08
3.07343e-09
-3.15781e-08
3.04895e-09
-3.26162e-08
3.02313e-09
-3.36448e-08
2.99604e-09
-3.46635e-08
2.96773e-09
-3.56718e-08
2.93822e-09
-3.66693e-08
2.90755e-09
-3.76556e-08
2.87571e-09
-3.86303e-08
2.84271e-09
-3.95929e-08
2.80854e-09
-4.0543e-08
2.77317e-09
-4.14803e-08
2.73659e-09
-4.24043e-08
2.69876e-09
-4.33144e-08
2.65967e-09
-4.42104e-08
2.61929e-09
-4.50917e-08
2.57758e-09
-4.59579e-08
2.5345e-09
-4.68084e-08
2.49004e-09
-4.76429e-08
2.44416e-09
-4.84607e-08
2.39682e-09
-4.92615e-08
2.348e-09
-5.00447e-08
2.29766e-09
-5.08097e-08
2.24578e-09
-5.15561e-08
2.19233e-09
-5.22832e-08
2.13728e-09
-5.29906e-08
2.08061e-09
-5.36778e-08
2.0223e-09
-5.4344e-08
1.96232e-09
-5.49889e-08
1.90065e-09
-5.56117e-08
1.83727e-09
-5.6212e-08
1.77217e-09
-5.67891e-08
1.70533e-09
-5.73425e-08
1.63675e-09
-5.78715e-08
1.5664e-09
-5.83757e-08
1.49429e-09
-5.88543e-08
1.4204e-09
-5.93069e-08
1.34474e-09
-5.97328e-08
1.2673e-09
-6.01314e-08
1.18809e-09
-6.05021e-08
1.10712e-09
-6.08445e-08
1.02439e-09
-6.11578e-08
9.39913e-10
-6.14416e-08
8.53709e-10
-6.16952e-08
7.65797e-10
-6.19181e-08
6.762e-10
-6.21098e-08
5.84945e-10
-6.22697e-08
4.92062e-10
-6.23973e-08
3.97586e-10
-6.24921e-08
3.01557e-10
-6.25536e-08
2.04018e-10
-6.25813e-08
1.05016e-10
-6.25748e-08
4.60331e-12
-6.25336e-08
-9.71655e-11
-6.24574e-08
-2.00229e-10
-6.23456e-08
-3.04523e-10
-6.2198e-08
-4.09977e-10
-6.20141e-08
-5.16518e-10
-6.17937e-08
-6.24068e-10
-6.15364e-08
-7.32543e-10
-6.12421e-08
-8.41858e-10
-6.09104e-08
-9.5192e-10
-6.05411e-08
-1.06263e-09
-6.01342e-08
-1.1739e-09
-5.96893e-08
-1.28561e-09
-5.92066e-08
-1.39767e-09
-5.86858e-08
-1.50995e-09
-5.81269e-08
-1.62234e-09
-5.75301e-08
-1.73472e-09
-5.68952e-08
-1.84698e-09
-5.62225e-08
-1.95897e-09
-5.55121e-08
-2.07056e-09
-5.47642e-08
-2.18163e-09
-5.39789e-08
-2.29203e-09
-5.31567e-08
-2.40161e-09
-5.22978e-08
-2.51022e-09
-5.14026e-08
-2.61771e-09
-5.04716e-08
-2.72392e-09
-4.95052e-08
-2.82867e-09
-4.85041e-08
-2.93178e-09
-4.74689e-08
-3.03308e-09
-4.64002e-08
-3.13236e-09
-4.52988e-08
-3.22942e-09
-4.41656e-08
-3.32403e-09
-4.30014e-08
-3.41597e-09
-4.18074e-08
-3.50498e-09
-4.05845e-08
-3.59079e-09
-3.93339e-08
-3.6731e-09
-3.80571e-08
-3.7516e-09
-3.67553e-08
-3.82596e-09
-3.54302e-08
-3.8958e-09
-3.40834e-08
-3.96071e-09
-3.27167e-08
-4.02028e-09
-3.13321e-08
-4.07401e-09
-2.99319e-08
-4.12141e-09
-2.85183e-08
-4.16192e-09
-2.70938e-08
-4.19495e-09
-2.56613e-08
-4.21986e-09
-2.42236e-08
-4.23596e-09
-2.27841e-08
-4.24254e-09
-2.13461e-08
-4.23881e-09
-1.99135e-08
-4.22396e-09
-1.84902e-08
-4.19714e-09
-1.70805e-08
-4.15744e-09
-1.5689e-08
-4.10394e-09
-1.43206e-08
-4.0357e-09
-1.29805e-08
-3.95174e-09
-1.16742e-08
-3.85111e-09
-1.04073e-08
-3.73285e-09
-9.18587e-09
-3.59606e-09
-8.01616e-09
-3.43988e-09
-6.90453e-09
-3.2636e-09
-5.85744e-09
-3.06666e-09
-4.88139e-09
-2.84874e-09
-3.98273e-09
-2.6099e-09
-3.1675e-09
-2.3507e-09
-2.44121e-09
-2.07244e-09
-1.80856e-09
-1.77748e-09
-1.27298e-09
-1.46965e-09
-8.36239e-10
-1.15491e-09
-4.97808e-10
-8.42186e-10
-2.54238e-10
-5.44597e-10
-9.84426e-11
-2.80856e-10
-1.91877e-11
-7.7233e-11
2.69616e-11
-3.02231e-11
1.03061e-11
-1.30189e-10
1.64568e-10
-3.07789e-10
4.03585e-10
-5.68558e-10
6.94172e-10
-9.15696e-10
1.01322e-09
-1.35024e-09
1.34369e-09
-1.87132e-09
1.67326e-09
-2.4765e-09
1.99331e-09
-3.16214e-09
2.29804e-09
-3.9237e-09
2.58364e-09
-4.75604e-09
2.84785e-09
-5.65364e-09
3.0895e-09
-6.61081e-09
3.30828e-09
-7.62182e-09
3.50443e-09
-8.68102e-09
3.67863e-09
-9.78293e-09
3.83186e-09
-1.09223e-08
3.96528e-09
-1.20943e-08
4.08021e-09
-1.32941e-08
4.17799e-09
-1.45175e-08
4.26001e-09
-1.57606e-08
4.32767e-09
-1.70196e-08
4.38228e-09
-1.82914e-08
4.42515e-09
-1.95729e-08
4.45749e-09
-2.08614e-08
4.48043e-09
-2.21546e-08
4.49501e-09
-2.34502e-08
4.50221e-09
-2.47465e-08
4.50287e-09
-2.60415e-08
4.4978e-09
-2.73339e-08
4.48767e-09
-2.86224e-08
4.47309e-09
-2.99056e-08
4.45459e-09
-3.11827e-08
4.43262e-09
-3.24525e-08
4.40757e-09
-3.37144e-08
4.37977e-09
-3.49674e-08
4.34949e-09
-3.62109e-08
4.31694e-09
-3.74442e-08
4.2823e-09
-3.86668e-08
4.24571e-09
-3.9878e-08
4.20727e-09
-4.10774e-08
4.16707e-09
-4.22643e-08
4.12515e-09
-4.34383e-08
4.08154e-09
-4.45988e-08
4.03626e-09
-4.57454e-08
3.98932e-09
-4.68776e-08
3.9407e-09
-4.79948e-08
3.89038e-09
-4.90966e-08
3.83833e-09
-5.01823e-08
3.78453e-09
-5.12516e-08
3.72895e-09
-5.23038e-08
3.67153e-09
-5.33385e-08
3.61225e-09
-5.43551e-08
3.55106e-09
-5.5353e-08
3.48792e-09
-5.63316e-08
3.42279e-09
-5.72904e-08
3.35563e-09
-5.82288e-08
3.28639e-09
-5.91462e-08
3.21504e-09
-6.00419e-08
3.14153e-09
-6.09154e-08
3.06584e-09
-6.17661e-08
2.98793e-09
-6.25932e-08
2.90776e-09
-6.33962e-08
2.8253e-09
-6.41744e-08
2.74053e-09
-6.49272e-08
2.65341e-09
-6.56539e-08
2.56393e-09
-6.63538e-08
2.47206e-09
-6.70262e-08
2.37778e-09
-6.76705e-08
2.28108e-09
-6.82861e-08
2.18194e-09
-6.88721e-08
2.08036e-09
-6.94281e-08
1.97633e-09
-6.99532e-08
1.86984e-09
-7.04468e-08
1.76091e-09
-7.09082e-08
1.64952e-09
-7.13368e-08
1.5357e-09
-7.17319e-08
1.41946e-09
-7.20928e-08
1.30082e-09
-7.24189e-08
1.17979e-09
-7.27095e-08
1.05642e-09
-7.2964e-08
9.3072e-10
-7.31818e-08
8.02744e-10
-7.33623e-08
6.72532e-10
-7.35048e-08
5.40132e-10
-7.36088e-08
4.056e-10
-7.36738e-08
2.68997e-10
-7.36992e-08
1.30389e-10
-7.36844e-08
-1.01521e-11
-7.36291e-08
-1.52547e-10
-7.35326e-08
-2.96712e-10
-7.33945e-08
-4.42557e-10
-7.32145e-08
-5.89985e-10
-7.29922e-08
-7.38892e-10
-7.27271e-08
-8.89171e-10
-7.24189e-08
-1.04071e-09
-7.20674e-08
-1.19338e-09
-7.16722e-08
-1.34706e-09
-7.12333e-08
-1.50161e-09
-7.07502e-08
-1.65691e-09
-7.02231e-08
-1.81279e-09
-6.96516e-08
-1.96912e-09
-6.90358e-08
-2.12574e-09
-6.83757e-08
-2.28248e-09
-6.76712e-08
-2.43919e-09
-6.69225e-08
-2.59568e-09
-6.61297e-08
-2.75178e-09
-6.5293e-08
-2.90731e-09
-6.44125e-08
-3.06207e-09
-6.34887e-08
-3.21587e-09
-6.25218e-08
-3.36852e-09
-6.15122e-08
-3.51979e-09
-6.04605e-08
-3.66947e-09
-5.9367e-08
-3.81734e-09
-5.82325e-08
-3.96315e-09
-5.70577e-08
-4.10667e-09
-5.58431e-08
-4.24763e-09
-5.45897e-08
-4.38575e-09
-5.32984e-08
-4.52075e-09
-5.19701e-08
-4.65233e-09
-5.06059e-08
-4.78014e-09
-4.92071e-08
-4.90384e-09
-4.77748e-08
-5.02306e-09
-4.63105e-08
-5.13737e-09
-4.48158e-08
-5.24635e-09
-4.32922e-08
-5.34951e-09
-4.17417e-08
-5.44634e-09
-4.01661e-08
-5.53629e-09
-3.85676e-08
-5.61875e-09
-3.69486e-08
-5.69305e-09
-3.53115e-08
-5.7585e-09
-3.36591e-08
-5.81434e-09
-3.19943e-08
-5.85973e-09
-3.03203e-08
-5.89381e-09
-2.86407e-08
-5.91563e-09
-2.6959e-08
-5.92419e-09
-2.52794e-08
-5.91844e-09
-2.36061e-08
-5.89725e-09
-2.19438e-08
-5.85947e-09
-2.02973e-08
-5.80389e-09
-1.8672e-08
-5.72925e-09
-1.70734e-08
-5.63429e-09
-1.55074e-08
-5.51773e-09
-1.39803e-08
-5.37829e-09
-1.24984e-08
-5.21474e-09
-1.10685e-08
-5.02591e-09
-9.69764e-09
-4.81076e-09
-8.39283e-09
-4.56841e-09
-7.16126e-09
-4.29823e-09
-6.01005e-09
-3.99996e-09
-4.94612e-09
-3.67383e-09
-3.97605e-09
-3.32077e-09
-3.10582e-09
-2.94267e-09
-2.34054e-09
-2.54277e-09
-1.68409e-09
-2.1261e-09
-1.1388e-09
-1.70021e-09
-7.04954e-10
-1.27603e-09
-3.80446e-10
-8.69105e-10
-1.60413e-10
-5.00889e-10
-3.71031e-11
-2.00543e-10
-1.01416e-11
-4.45698e-11
5.48757e-11
-1.80851e-10
3.0085e-10
-4.11939e-10
6.34674e-10
-7.40113e-10
1.02234e-09
-1.1663e-09
1.4394e-09
-1.68996e-09
1.86735e-09
-2.30916e-09
2.29246e-09
-3.02072e-09
2.70488e-09
-3.82044e-09
3.09775e-09
-4.70331e-09
3.46651e-09
-5.66379e-09
3.80833e-09
-6.69596e-09
4.12167e-09
-7.7937e-09
4.40602e-09
-8.95086e-09
4.6616e-09
-1.01614e-08
4.88915e-09
-1.14193e-08
5.08981e-09
-1.2719e-08
5.26498e-09
-1.40551e-08
5.41626e-09
-1.54224e-08
5.54532e-09
-1.68163e-08
5.65389e-09
-1.82323e-08
5.74371e-09
-1.96665e-08
5.81646e-09
-2.11151e-08
5.87379e-09
-2.25749e-08
5.91723e-09
-2.40427e-08
5.94826e-09
-2.55159e-08
5.96822e-09
-2.6992e-08
5.97834e-09
-2.84689e-08
5.97976e-09
-2.99446e-08
5.97349e-09
-3.14174e-08
5.96042e-09
-3.28856e-08
5.94136e-09
-3.43481e-08
5.917e-09
-3.58034e-08
5.88794e-09
-3.72505e-08
5.85469e-09
-3.86884e-08
5.81769e-09
-4.01162e-08
5.77729e-09
-4.15331e-08
5.7338e-09
-4.29382e-08
5.68745e-09
-4.43309e-08
5.63843e-09
-4.57106e-08
5.58689e-09
-4.70764e-08
5.53293e-09
-4.84279e-08
5.47664e-09
-4.97644e-08
5.41806e-09
-5.10854e-08
5.35721e-09
-5.23902e-08
5.29411e-09
-5.36782e-08
5.22875e-09
-5.49489e-08
5.1611e-09
-5.62018e-08
5.09115e-09
-5.74361e-08
5.01884e-09
-5.86513e-08
4.94415e-09
-5.98468e-08
4.86703e-09
-6.10219e-08
4.78742e-09
-6.21761e-08
4.70527e-09
-6.33088e-08
4.62054e-09
-6.44191e-08
4.53317e-09
-6.55066e-08
4.44311e-09
-6.65705e-08
4.35031e-09
-6.76102e-08
4.25472e-09
-6.8625e-08
4.1563e-09
-6.96142e-08
4.05499e-09
-7.0577e-08
3.95075e-09
-7.15128e-08
3.84355e-09
-7.24208e-08
3.73333e-09
-7.33003e-08
3.62008e-09
-7.41507e-08
3.50374e-09
-7.4971e-08
3.3843e-09
-7.57607e-08
3.26173e-09
-7.65189e-08
3.136e-09
-7.72449e-08
3.0071e-09
-7.7938e-08
2.875e-09
-7.85974e-08
2.73971e-09
-7.92222e-08
2.60121e-09
-7.98119e-08
2.4595e-09
-8.03656e-08
2.31459e-09
-8.08825e-08
2.16648e-09
-8.1362e-08
2.0152e-09
-8.18033e-08
1.86075e-09
-8.22057e-08
1.70317e-09
-8.25683e-08
1.54248e-09
-8.28907e-08
1.37873e-09
-8.31719e-08
1.21196e-09
-8.34114e-08
1.04223e-09
-8.36084e-08
8.6958e-10
-8.37624e-08
6.94092e-10
-8.38726e-08
5.15834e-10
-8.39385e-08
3.34886e-10
-8.39595e-08
1.51338e-10
-8.39349e-08
-3.47157e-11
-8.38643e-08
-2.23171e-10
-8.37471e-08
-4.13915e-10
-8.35828e-08
-6.06831e-10
-8.3371e-08
-8.01789e-10
-8.31112e-08
-9.98655e-10
-8.28031e-08
-1.19729e-09
-8.24463e-08
-1.39753e-09
-8.20404e-08
-1.59923e-09
-8.15853e-08
-1.80222e-09
-8.10806e-08
-2.00632e-09
-8.05261e-08
-2.21135e-09
-7.99218e-08
-2.41712e-09
-7.92675e-08
-2.62344e-09
-7.85631e-08
-2.83011e-09
-7.78087e-08
-3.0369e-09
-7.70043e-08
-3.2436e-09
-7.615e-08
-3.44998e-09
-7.52459e-08
-3.65582e-09
-7.42924e-08
-3.86087e-09
-7.32896e-08
-4.06487e-09
-7.22379e-08
-4.26758e-09
-7.11376e-08
-4.46873e-09
-6.99894e-08
-4.66804e-09
-6.87936e-08
-4.86522e-09
-6.7551e-08
-5.05998e-09
-6.62621e-08
-5.252e-09
-6.49278e-08
-5.44096e-09
-6.3549e-08
-5.62652e-09
-6.21264e-08
-5.80831e-09
-6.06612e-08
-5.98595e-09
-5.91545e-08
-6.15904e-09
-5.76075e-08
-6.32713e-09
-5.60216e-08
-6.48977e-09
-5.43982e-08
-6.64645e-09
-5.27389e-08
-6.79664e-09
-5.10455e-08
-6.93976e-09
-4.93198e-08
-7.07518e-09
-4.7564e-08
-7.20221e-09
-4.57801e-08
-7.32013e-09
-4.39707e-08
-7.42814e-09
-4.21384e-08
-7.52539e-09
-4.0286e-08
-7.61093e-09
-3.84165e-08
-7.68379e-09
-3.65334e-08
-7.74287e-09
-3.46401e-08
-7.78705e-09
-3.27407e-08
-7.81509e-09
-3.08391e-08
-7.82571e-09
-2.89401e-08
-7.81753e-09
-2.70482e-08
-7.78911e-09
-2.51687e-08
-7.73896e-09
-2.33071e-08
-7.66553e-09
-2.14691e-08
-7.56723e-09
-1.96609e-08
-7.44245e-09
-1.78891e-08
-7.28959e-09
-1.61603e-08
-7.10705e-09
-1.44817e-08
-6.89331e-09
-1.28607e-08
-6.64697e-09
-1.13047e-08
-6.36677e-09
-9.82137e-09
-6.0517e-09
-8.4185e-09
-5.7011e-09
-7.10368e-09
-5.31478e-09
-5.88433e-09
-4.89318e-09
-4.76747e-09
-4.43763e-09
-3.75954e-09
-3.95061e-09
-2.86613e-09
-3.43618e-09
-2.09174e-09
-2.90049e-09
-1.43949e-09
-2.35245e-09
-9.10873e-10
-1.80465e-09
-5.05556e-10
-1.27442e-09
-2.21349e-10
-7.85097e-10
-5.44011e-11
-3.67491e-10
-6.45428e-11
-5.82975e-11
1.13173e-10
-2.30013e-10
4.72565e-10
-5.13807e-10
9.1847e-10
-9.08644e-10
1.41718e-09
-1.413e-09
1.94376e-09
-2.02454e-09
2.47889e-09
-2.74005e-09
3.00797e-09
-3.5554e-09
3.52023e-09
-4.46571e-09
4.00805e-09
-5.46542e-09
4.46623e-09
-6.54854e-09
4.89145e-09
-7.70876e-09
5.28189e-09
-8.93959e-09
5.63685e-09
-1.02345e-08
5.95653e-09
-1.15871e-08
6.24174e-09
-1.29911e-08
6.49377e-09
-1.44404e-08
6.71428e-09
-1.59292e-08
6.90513e-09
-1.74522e-08
7.06832e-09
-1.90043e-08
7.20593e-09
-2.05806e-08
7.32006e-09
-2.2177e-08
7.41277e-09
-2.37892e-08
7.48605e-09
-2.54138e-08
7.54179e-09
-2.70473e-08
7.58181e-09
-2.86869e-08
7.60776e-09
-3.03297e-08
7.62119e-09
-3.19734e-08
7.62349e-09
-3.36159e-08
7.61592e-09
-3.52551e-08
7.59963e-09
-3.68893e-08
7.5756e-09
-3.85171e-08
7.54472e-09
-4.01369e-08
7.50775e-09
-4.17475e-08
7.46532e-09
-4.33478e-08
7.41801e-09
-4.49368e-08
7.36626e-09
-4.65135e-08
7.31047e-09
-4.80769e-08
7.25094e-09
-4.96264e-08
7.18791e-09
-5.11611e-08
7.12159e-09
-5.26803e-08
7.05212e-09
-5.41833e-08
6.9796e-09
-5.56693e-08
6.9041e-09
-5.71377e-08
6.82566e-09
-5.85879e-08
6.74429e-09
-6.00192e-08
6.66001e-09