/*--------------------------------*- C++ -*----------------------------------*\
  =========                 |
  \\      /  F ield         | OpenFOAM: The Open Source CFD Toolbox
   \\    /   O peration     | Website:  https://openfoam.org
    \\  /    A nd           | Version:  7
     \\/     M anipulation  |
\*---------------------------------------------------------------------------*/
FoamFile
{
    version     2.0;
    format      ascii;
    class       volVectorField;
    location    "0.275";
    object      U;
}
// * * * * * * * * * * * * * * * * * * * * * * * * * * * * * * * * * * * * * //

dimensions      [0 1 -1 0 0 0 0];

internalField   nonuniform List<vector> 
25600
(
(4.22301e-07 -4.05466e-07 0)
(2.81835e-06 -1.46872e-06 0)
(7.30213e-06 -1.96122e-06 0)
(1.23176e-05 -2.03542e-06 0)
(1.67655e-05 -1.79179e-06 0)
(2.0005e-05 -1.33501e-06 0)
(2.15909e-05 -7.55503e-07 0)
(2.12546e-05 -1.13428e-07 0)
(1.88481e-05 5.56154e-07 0)
(1.4306e-05 1.22983e-06 0)
(7.62104e-06 1.8939e-06 0)
(-1.18285e-06 2.53781e-06 0)
(-1.20536e-05 3.1572e-06 0)
(-2.49214e-05 3.74919e-06 0)
(-3.97088e-05 4.30998e-06 0)
(-5.63254e-05 4.84115e-06 0)
(-7.46799e-05 5.34167e-06 0)
(-9.46784e-05 5.80991e-06 0)
(-0.000116221 6.24765e-06 0)
(-0.000139215 6.65595e-06 0)
(-0.000163563 7.03424e-06 0)
(-0.000189169 7.38442e-06 0)
(-0.000215944 7.70767e-06 0)
(-0.000243796 8.00294e-06 0)
(-0.000272638 8.27255e-06 0)
(-0.000302385 8.51799e-06 0)
(-0.000332956 8.739e-06 0)
(-0.000364271 8.93752e-06 0)
(-0.000396253 9.11568e-06 0)
(-0.000428832 9.27378e-06 0)
(-0.000461935 9.41144e-06 0)
(-0.000495495 9.53013e-06 0)
(-0.000529446 9.63057e-06 0)
(-0.000563727 9.71263e-06 0)
(-0.000598277 9.77759e-06 0)
(-0.000633038 9.82746e-06 0)
(-0.000667956 9.86255e-06 0)
(-0.000702976 9.88224e-06 0)
(-0.000738048 9.88757e-06 0)
(-0.000773122 9.87991e-06 0)
(-0.000808149 9.85953e-06 0)
(-0.000843084 9.82659e-06 0)
(-0.000877881 9.78168e-06 0)
(-0.000912496 9.72492e-06 0)
(-0.000946888 9.65588e-06 0)
(-0.000981013 9.57492e-06 0)
(-0.00101483 9.48296e-06 0)
(-0.0010483 9.38053e-06 0)
(-0.00108139 9.26744e-06 0)
(-0.00111405 9.14362e-06 0)
(-0.00114625 9.00973e-06 0)
(-0.00117795 8.86604e-06 0)
(-0.00120912 8.71191e-06 0)
(-0.00123971 8.54675e-06 0)
(-0.00126969 8.37084e-06 0)
(-0.00129902 8.18508e-06 0)
(-0.00132767 7.99002e-06 0)
(-0.0013556 7.78538e-06 0)
(-0.00138277 7.57066e-06 0)
(-0.00140915 7.34558e-06 0)
(-0.00143471 7.1101e-06 0)
(-0.00145941 6.86418e-06 0)
(-0.0014832 6.60811e-06 0)
(-0.00150607 6.34253e-06 0)
(-0.00152797 6.06775e-06 0)
(-0.00154886 5.78339e-06 0)
(-0.00156872 5.48882e-06 0)
(-0.00158751 5.18391e-06 0)
(-0.00160519 4.86904e-06 0)
(-0.00162173 4.54494e-06 0)
(-0.00163711 4.21208e-06 0)
(-0.00165128 3.87019e-06 0)
(-0.00166422 3.51923e-06 0)
(-0.0016759 3.15951e-06 0)
(-0.00168628 2.79117e-06 0)
(-0.00169534 2.41459e-06 0)
(-0.00170305 2.03039e-06 0)
(-0.00170939 1.63885e-06 0)
(-0.00171432 1.24022e-06 0)
(-0.00171784 8.34946e-07 0)
(-0.00171991 4.23423e-07 0)
(-0.00172053 6.3391e-09 0)
(-0.00171966 -4.1535e-07 0)
(-0.00171729 -8.41042e-07 0)
(-0.00171342 -1.27061e-06 0)
(-0.00170803 -1.70381e-06 0)
(-0.00170111 -2.13972e-06 0)
(-0.00169266 -2.577e-06 0)
(-0.00168267 -3.01453e-06 0)
(-0.00167115 -3.45157e-06 0)
(-0.00165809 -3.88757e-06 0)
(-0.0016435 -4.3221e-06 0)
(-0.0016274 -4.75436e-06 0)
(-0.00160979 -5.18288e-06 0)
(-0.0015907 -5.60617e-06 0)
(-0.00157013 -6.02339e-06 0)
(-0.00154811 -6.43391e-06 0)
(-0.00152467 -6.83682e-06 0)
(-0.00149984 -7.23099e-06 0)
(-0.00147365 -7.61523e-06 0)
(-0.00144614 -7.9883e-06 0)
(-0.00141735 -8.34919e-06 0)
(-0.00138732 -8.69697e-06 0)
(-0.00135611 -9.03063e-06 0)
(-0.00132376 -9.34898e-06 0)
(-0.00129033 -9.6509e-06 0)
(-0.00125588 -9.9354e-06 0)
(-0.00122047 -1.02016e-05 0)
(-0.00118416 -1.04487e-05 0)
(-0.00114703 -1.06756e-05 0)
(-0.00110915 -1.08812e-05 0)
(-0.00107058 -1.10647e-05 0)
(-0.00103142 -1.12254e-05 0)
(-0.000991742 -1.13625e-05 0)
(-0.000951624 -1.14752e-05 0)
(-0.000911155 -1.15631e-05 0)
(-0.000870421 -1.16258e-05 0)
(-0.000829512 -1.16625e-05 0)
(-0.000788519 -1.16724e-05 0)
(-0.000747533 -1.16552e-05 0)
(-0.000706649 -1.16106e-05 0)
(-0.000665961 -1.15387e-05 0)
(-0.000625564 -1.14394e-05 0)
(-0.000585553 -1.13125e-05 0)
(-0.000546023 -1.11578e-05 0)
(-0.000507071 -1.09751e-05 0)
(-0.000468791 -1.07647e-05 0)
(-0.000431277 -1.05271e-05 0)
(-0.000394623 -1.02627e-05 0)
(-0.000358921 -9.97167e-06 0)
(-0.000324261 -9.65411e-06 0)
(-0.000290734 -9.31063e-06 0)
(-0.000258424 -8.94209e-06 0)
(-0.000227417 -8.54937e-06 0)
(-0.000197793 -8.13312e-06 0)
(-0.000169632 -7.694e-06 0)
(-0.000143007 -7.23286e-06 0)
(-0.000117992 -6.75075e-06 0)
(-9.46517e-05 -6.24893e-06 0)
(-7.30496e-05 -5.72875e-06 0)
(-5.32427e-05 -5.19164e-06 0)
(-3.52826e-05 -4.6391e-06 0)
(-1.92143e-05 -4.07287e-06 0)
(-5.07552e-06 -3.49495e-06 0)
(7.10416e-06 -2.90761e-06 0)
(1.73046e-05 -2.31337e-06 0)
(2.55169e-05 -1.71538e-06 0)
(3.17455e-05 -1.11759e-06 0)
(3.60113e-05 -5.25123e-07 0)
(3.8355e-05 5.55921e-08 0)
(3.88421e-05 6.16436e-07 0)
(3.75706e-05 1.14632e-06 0)
(3.46805e-05 1.62943e-06 0)
(3.03676e-05 2.04256e-06 0)
(2.49051e-05 2.35113e-06 0)
(1.86729e-05 2.50409e-06 0)
(1.21922e-05 2.42722e-06 0)
(6.17864e-06 2.01274e-06 0)
(1.68313e-06 1.1397e-06 0)
(-1.34872e-08 -1.30631e-08 0)
(1.72327e-06 -2.8895e-06 0)
(7.53317e-06 -7.21764e-06 0)
(1.66457e-05 -8.8942e-06 0)
(2.59699e-05 -8.62515e-06 0)
(3.33905e-05 -6.87852e-06 0)
(3.75483e-05 -4.08797e-06 0)
(3.74223e-05 -6.21751e-07 0)
(3.23178e-05 3.25295e-06 0)
(2.18068e-05 7.34015e-06 0)
(5.65727e-06 1.15173e-05 0)
(-1.62232e-05 1.56884e-05 0)
(-4.38199e-05 1.97931e-05 0)
(-7.70429e-05 2.37893e-05 0)
(-0.000115751 2.76442e-05 0)
(-0.000159757 3.134e-05 0)
(-0.000208852 3.48631e-05 0)
(-0.000262805 3.82036e-05 0)
(-0.000321369 4.13585e-05 0)
(-0.000384294 4.43249e-05 0)
(-0.000451325 4.7102e-05 0)
(-0.000522203 4.96943e-05 0)
(-0.000596673 5.21032e-05 0)
(-0.000674485 5.43319e-05 0)
(-0.000755387 5.63863e-05 0)
(-0.000839137 5.82701e-05 0)
(-0.0009255 5.99893e-05 0)
(-0.00101424 6.15486e-05 0)
(-0.00110515 6.29548e-05 0)
(-0.00119799 6.42131e-05 0)
(-0.00129257 6.5329e-05 0)
(-0.00138869 6.63078e-05 0)
(-0.00148614 6.71553e-05 0)
(-0.00158474 6.78759e-05 0)
(-0.00168431 6.84737e-05 0)
(-0.00178468 6.89542e-05 0)
(-0.00188568 6.93227e-05 0)
(-0.00198715 6.95829e-05 0)
(-0.00208893 6.97382e-05 0)
(-0.00219086 6.97929e-05 0)
(-0.00229282 6.97502e-05 0)
(-0.00239464 6.96129e-05 0)
(-0.0024962 6.93845e-05 0)
(-0.00259737 6.9068e-05 0)
(-0.00269801 6.86654e-05 0)
(-0.002798 6.8178e-05 0)
(-0.00289722 6.76079e-05 0)
(-0.00299554 6.69577e-05 0)
(-0.00309286 6.62286e-05 0)
(-0.00318904 6.54217e-05 0)
(-0.00328398 6.45382e-05 0)
(-0.00337756 6.35794e-05 0)
(-0.00346969 6.25467e-05 0)
(-0.00356023 6.144e-05 0)
(-0.0036491 6.02594e-05 0)
(-0.00373617 5.90056e-05 0)
(-0.00382134 5.76794e-05 0)
(-0.00390451 5.62815e-05 0)
(-0.00398557 5.48121e-05 0)
(-0.00406442 5.32715e-05 0)
(-0.00414095 5.166e-05 0)
(-0.00421506 4.99775e-05 0)
(-0.00428664 4.82239e-05 0)
(-0.00435559 4.63998e-05 0)
(-0.00442181 4.45061e-05 0)
(-0.0044852 4.25437e-05 0)
(-0.00454566 4.0513e-05 0)
(-0.00460309 3.84139e-05 0)
(-0.00465739 3.62472e-05 0)
(-0.00470847 3.40141e-05 0)
(-0.00475622 3.17157e-05 0)
(-0.00480056 2.93533e-05 0)
(-0.0048414 2.69285e-05 0)
(-0.00487864 2.44427e-05 0)
(-0.00491221 2.1898e-05 0)
(-0.00494201 1.92962e-05 0)
(-0.00496797 1.66392e-05 0)
(-0.00499001 1.39297e-05 0)
(-0.00500806 1.11705e-05 0)
(-0.00502205 8.36493e-06 0)
(-0.00503191 5.51594e-06 0)
(-0.00503759 2.62655e-06 0)
(-0.00503904 -2.99421e-07 0)
(-0.0050362 -3.25728e-06 0)
(-0.00502903 -6.24254e-06 0)
(-0.0050175 -9.25112e-06 0)
(-0.00500159 -1.22787e-05 0)
(-0.00498126 -1.53204e-05 0)
(-0.0049565 -1.83706e-05 0)
(-0.00492731 -2.1423e-05 0)
(-0.00489369 -2.44717e-05 0)
(-0.00485565 -2.75113e-05 0)
(-0.00481322 -3.0536e-05 0)
(-0.0047664 -3.35395e-05 0)
(-0.00471526 -3.65148e-05 0)
(-0.00465983 -3.94548e-05 0)
(-0.00460017 -4.23526e-05 0)
(-0.00453634 -4.52016e-05 0)
(-0.00446843 -4.79948e-05 0)
(-0.00439652 -5.07251e-05 0)
(-0.00432071 -5.33851e-05 0)
(-0.0042411 -5.59675e-05 0)
(-0.00415783 -5.84647e-05 0)
(-0.004071 -6.08698e-05 0)
(-0.00398077 -6.31758e-05 0)
(-0.00388728 -6.53753e-05 0)
(-0.0037907 -6.74613e-05 0)
(-0.00369118 -6.94269e-05 0)
(-0.00358892 -7.12657e-05 0)
(-0.00348409 -7.2971e-05 0)
(-0.0033769 -7.45365e-05 0)
(-0.00326755 -7.59562e-05 0)
(-0.00315626 -7.72242e-05 0)
(-0.00304325 -7.83352e-05 0)
(-0.00292874 -7.92843e-05 0)
(-0.00281299 -8.00667e-05 0)
(-0.00269622 -8.0678e-05 0)
(-0.00257868 -8.11144e-05 0)
(-0.00246065 -8.13725e-05 0)
(-0.00234236 -8.14491e-05 0)
(-0.00222408 -8.13415e-05 0)
(-0.00210609 -8.10475e-05 0)
(-0.00198864 -8.05657e-05 0)
(-0.00187201 -7.98954e-05 0)
(-0.00175648 -7.90361e-05 0)
(-0.0016423 -7.79877e-05 0)
(-0.00152976 -7.67506e-05 0)
(-0.00141912 -7.53259e-05 0)
(-0.00131065 -7.37151e-05 0)
(-0.00120461 -7.19206e-05 0)
(-0.00110127 -6.99451e-05 0)
(-0.00100088 -6.77921e-05 0)
(-0.000903693 -6.54655e-05 0)
(-0.000809952 -6.297e-05 0)
(-0.000719896 -6.03108e-05 0)
(-0.000633751 -5.74937e-05 0)
(-0.000551737 -5.45251e-05 0)
(-0.000474063 -5.14121e-05 0)
(-0.000400926 -4.81627e-05 0)
(-0.000332511 -4.47859e-05 0)
(-0.000268989 -4.12916e-05 0)
(-0.000210513 -3.76909e-05 0)
(-0.000157221 -3.3996e-05 0)
(-0.000109228 -3.02207e-05 0)
(-6.66297e-05 -2.63809e-05 0)
(-2.9494e-05 -2.24946e-05 0)
(2.13957e-06 -1.85826e-05 0)
(2.82664e-05 -1.46699e-05 0)
(4.89224e-05 -1.07861e-05 0)
(6.41923e-05 -6.96793e-06 0)
(7.42192e-05 -3.26078e-06 0)
(7.92182e-05 2.78312e-07 0)
(7.94933e-05 3.57631e-06 0)
(7.54593e-05 6.53764e-06 0)
(6.76713e-05 9.03529e-06 0)
(5.68617e-05 1.08988e-05 0)
(4.39847e-05 1.19014e-05 0)
(3.02439e-05 1.17514e-05 0)
(1.71166e-05 1.00921e-05 0)
(6.59148e-06 6.59778e-06 0)
(1.13689e-06 1.68245e-06 0)
(2.35669e-06 -7.80979e-06 0)
(9.63773e-06 -1.65318e-05 0)
(2.01383e-05 -1.92203e-05 0)
(2.98314e-05 -1.75053e-05 0)
(3.60552e-05 -1.23712e-05 0)
(3.70398e-05 -4.72763e-06 0)
(3.14284e-05 4.63923e-06 0)
(1.82422e-05 1.51077e-05 0)
(-3.16254e-06 2.62292e-05 0)
(-3.31677e-05 3.76572e-05 0)
(-7.19549e-05 4.91529e-05 0)
(-0.000119546 6.05369e-05 0)
(-0.000175852 7.1678e-05 0)
(-0.000240687 8.24848e-05 0)
(-0.000313802 9.28916e-05 0)
(-0.0003949 0.000102848 0)
(-0.000483644 0.000112327 0)
(-0.000579676 0.000121308 0)
(-0.000682619 0.000129775 0)
(-0.000792086 0.00013773 0)
(-0.000907684 0.000145169 0)
(-0.00102902 0.000152098 0)
(-0.00115571 0.000158526 0)
(-0.00128735 0.000164463 0)
(-0.00142358 0.000169918 0)
(-0.00156402 0.000174907 0)
(-0.0017083 0.000179442 0)
(-0.00185607 0.000183538 0)
(-0.00200699 0.000187209 0)
(-0.00216072 0.00019047 0)
(-0.00231695 0.000193335 0)
(-0.00247535 0.000195819 0)
(-0.00263564 0.000197936 0)
(-0.00279751 0.000199699 0)
(-0.00296068 0.00020112 0)
(-0.00312489 0.000202213 0)
(-0.00328986 0.000202988 0)
(-0.00345535 0.000203458 0)
(-0.00362112 0.000203632 0)
(-0.00378691 0.000203519 0)
(-0.0039525 0.000203129 0)
(-0.00411768 0.00020247 0)
(-0.00428221 0.00020155 0)
(-0.00444588 0.000200375 0)
(-0.0046085 0.000198951 0)
(-0.00476986 0.000197285 0)
(-0.00492975 0.000195382 0)
(-0.00508799 0.000193245 0)
(-0.00524439 0.000190879 0)
(-0.00539876 0.000188287 0)
(-0.00555091 0.000185472 0)
(-0.00570066 0.000182438 0)
(-0.00584784 0.000179187 0)
(-0.00599226 0.000175719 0)
(-0.00613374 0.000172037 0)
(-0.00627213 0.000168143 0)
(-0.00640723 0.000164038 0)
(-0.00653887 0.000159722 0)
(-0.0066669 0.000155197 0)
(-0.00679113 0.000150465 0)
(-0.0069114 0.000145527 0)
(-0.00702754 0.000140382 0)
(-0.00713938 0.000135033 0)
(-0.00724676 0.000129481 0)
(-0.00734951 0.000123728 0)
(-0.00744748 0.000117776 0)
(-0.00754049 0.000111627 0)
(-0.00762841 0.000105283 0)
(-0.00771106 9.87482e-05 0)
(-0.0077883 9.20254e-05 0)
(-0.00785997 8.5118e-05 0)
(-0.00792593 7.80303e-05 0)
(-0.00798605 7.07676e-05 0)
(-0.00804017 6.33359e-05 0)
(-0.00808818 5.5741e-05 0)
(-0.00812993 4.79893e-05 0)
(-0.00816532 4.00881e-05 0)
(-0.00819422 3.20457e-05 0)
(-0.00821652 2.38711e-05 0)
(-0.00823213 1.55738e-05 0)
(-0.00824095 7.16351e-06 0)
(-0.00824291 -1.34905e-06 0)
(-0.00823792 -9.95155e-06 0)
(-0.00822591 -1.86311e-05 0)
(-0.00820685 -2.7375e-05 0)
(-0.00818067 -3.61695e-05 0)
(-0.00814736 -4.5e-05 0)
(-0.00810688 -5.3851e-05 0)
(-0.00805924 -6.27066e-05 0)
(-0.00800444 -7.15496e-05 0)
(-0.00794249 -8.03629e-05 0)
(-0.00787344 -8.91292e-05 0)
(-0.00779733 -9.78299e-05 0)
(-0.00771423 -0.000106446 0)
(-0.0076242 -0.000114958 0)
(-0.00752735 -0.000123346 0)
(-0.00742379 -0.00013159 0)
(-0.00731364 -0.000139671 0)
(-0.00719704 -0.000147567 0)
(-0.00707416 -0.000155257 0)
(-0.00694517 -0.000162721 0)
(-0.00681026 -0.000169939 0)
(-0.00666964 -0.000176888 0)
(-0.00652354 -0.00018355 0)
(-0.00637219 -0.000189903 0)
(-0.00621585 -0.000195928 0)
(-0.0060548 -0.000201604 0)
(-0.00588932 -0.000206914 0)
(-0.00571973 -0.000211838 0)
(-0.00554632 -0.000216359 0)
(-0.00536944 -0.000220459 0)
(-0.00518943 -0.000224122 0)
(-0.00500665 -0.000227333 0)
(-0.00482147 -0.000230077 0)
(-0.00463426 -0.000232342 0)
(-0.00444541 -0.000234114 0)
(-0.00425533 -0.000235383 0)
(-0.00406442 -0.000236139 0)
(-0.0038731 -0.000236373 0)
(-0.00368179 -0.000236079 0)
(-0.00349091 -0.000235249 0)
(-0.00330089 -0.000233881 0)
(-0.00311216 -0.000231971 0)
(-0.00292516 -0.000229518 0)
(-0.00274033 -0.000226523 0)
(-0.00255808 -0.000222987 0)
(-0.00237887 -0.000218913 0)
(-0.0022031 -0.000214307 0)
(-0.0020312 -0.000209175 0)
(-0.0018636 -0.000203526 0)
(-0.00170069 -0.000197369 0)
(-0.00154287 -0.000190718 0)
(-0.00139054 -0.000183585 0)
(-0.00124406 -0.000175986 0)
(-0.0011038 -0.000167939 0)
(-0.000970106 -0.000159464 0)
(-0.000843302 -0.000150581 0)
(-0.000723699 -0.000141316 0)
(-0.000611585 -0.000131695 0)
(-0.000507222 -0.000121748 0)
(-0.000410847 -0.000111509 0)
(-0.000322668 -0.000101015 0)
(-0.000242858 -9.03087e-05 0)
(-0.000171554 -7.94371e-05 0)
(-0.000108847 -6.84555e-05 0)
(-5.47824e-05 -5.74274e-05 0)
(-9.34822e-06 -4.64274e-05 0)
(2.75344e-05 -3.5544e-05 0)
(5.60218e-05 -2.48838e-05 0)
(7.63625e-05 -1.45766e-05 0)
(8.89147e-05 -4.78253e-06 0)
(9.41691e-05 4.29903e-06 0)
(9.27761e-05 1.24171e-05 0)
(8.5578e-05 1.92539e-05 0)
(7.36489e-05 2.44078e-05 0)
(5.83342e-05 2.73793e-05 0)
(4.12568e-05 2.75731e-05 0)
(2.43156e-05 2.4335e-05 0)
(1.00712e-05 1.71164e-05 0)
(2.00418e-06 6.16843e-06 0)
(2.32387e-06 -1.32699e-05 0)
(9.24529e-06 -2.62587e-05 0)
(1.84349e-05 -2.90333e-05 0)
(2.54373e-05 -2.4417e-05 0)
(2.72671e-05 -1.40708e-05 0)
(2.19245e-05 5.5345e-07 0)
(7.84021e-06 1.81995e-05 0)
(-1.61298e-05 3.78656e-05 0)
(-5.07781e-05 5.877e-05 0)
(-9.6601e-05 8.03213e-05 0)
(-0.000153846 0.000102074 0)
(-0.000222587 0.00012369 0)
(-0.000302733 0.00014492 0)
(-0.000394084 0.000165582 0)
(-0.000496349 0.000185532 0)
(-0.000609166 0.000204678 0)
(-0.000732121 0.000222948 0)
(-0.000864769 0.000240295 0)
(-0.00100663 0.000256691 0)
(-0.00115721 0.000272121 0)
(-0.001316 0.000286579 0)
(-0.0014825 0.000300071 0)
(-0.00165619 0.000312605 0)
(-0.00183656 0.000324198 0)
(-0.00202313 0.000334868 0)
(-0.00221538 0.000344639 0)
(-0.00241284 0.000353533 0)
(-0.00261505 0.000361577 0)
(-0.00282152 0.000368795 0)
(-0.00303183 0.000375215 0)
(-0.00324553 0.000380864 0)
(-0.00346221 0.000385767 0)
(-0.00368145 0.00038995 0)
(-0.00390287 0.000393438 0)
(-0.00412607 0.000396256 0)
(-0.00435069 0.000398427 0)
(-0.00457637 0.000399972 0)
(-0.00480276 0.000400913 0)
(-0.00502952 0.000401269 0)
(-0.00525633 0.00040106 0)
(-0.00548287 0.0004003 0)
(-0.00570884 0.000399008 0)
(-0.00593393 0.000397197 0)
(-0.00615784 0.000394881 0)
(-0.00638031 0.000392072 0)
(-0.00660104 0.000388781 0)
(-0.00681977 0.000385018 0)
(-0.00703622 0.000380792 0)
(-0.00725014 0.000376111 0)
(-0.00746126 0.000370982 0)
(-0.00766934 0.000365411 0)
(-0.00787411 0.000359403 0)
(-0.00807534 0.000352963 0)
(-0.00827278 0.000346097 0)
(-0.00846618 0.000338806 0)
(-0.0086553 0.000331095 0)
(-0.00883991 0.000322966 0)
(-0.00901977 0.000314422 0)
(-0.00919465 0.000305465 0)
(-0.00936431 0.000296099 0)
(-0.00952852 0.000286325 0)
(-0.00968705 0.000276147 0)
(-0.00983968 0.000265566 0)
(-0.00998617 0.000254588 0)
(-0.0101263 0.000243214 0)
(-0.0102599 0.00023145 0)
(-0.0103867 0.000219299 0)
(-0.0105064 0.000206768 0)
(-0.010619 0.000193862 0)
(-0.0107241 0.00018059 0)
(-0.0108216 0.000166958 0)
(-0.0109113 0.000152976 0)
(-0.010993 0.000138652 0)
(-0.0110665 0.000124 0)
(-0.0111316 0.000109031 0)
(-0.0111881 9.37577e-05 0)
(-0.0112359 7.81953e-05 0)
(-0.0112749 6.23604e-05 0)
(-0.0113049 4.62702e-05 0)
(-0.0113257 2.99433e-05 0)
(-0.0113373 1.34001e-05 0)
(-0.0113395 -3.33777e-06 0)
(-0.0113322 -2.02475e-05 0)
(-0.0113154 -3.73046e-05 0)
(-0.0112889 -5.44827e-05 0)
(-0.0112528 -7.17547e-05 0)
(-0.0112069 -8.90921e-05 0)
(-0.0111513 -0.000106465 0)
(-0.0110859 -0.000123841 0)
(-0.0110108 -0.000141189 0)
(-0.0109259 -0.000158474 0)
(-0.0108315 -0.000175662 0)
(-0.0107274 -0.000192717 0)
(-0.0106138 -0.000209603 0)
(-0.0104908 -0.00022628 0)
(-0.0103585 -0.000242712 0)
(-0.0102172 -0.000258859 0)
(-0.0100669 -0.000274681 0)
(-0.0099078 -0.000290139 0)
(-0.00974022 -0.000305192 0)
(-0.00956434 -0.0003198 0)
(-0.00938044 -0.000333923 0)
(-0.0091888 -0.000347521 0)
(-0.00898972 -0.000360553 0)
(-0.00878353 -0.000372981 0)
(-0.00857058 -0.000384765 0)
(-0.00835124 -0.000395868 0)
(-0.00812589 -0.000406254 0)
(-0.00789496 -0.000415885 0)
(-0.00765887 -0.000424729 0)
(-0.00741806 -0.000432751 0)
(-0.00717301 -0.00043992 0)
(-0.00692419 -0.000446206 0)
(-0.00667211 -0.000451582 0)
(-0.00641727 -0.000456022 0)
(-0.00616021 -0.000459503 0)
(-0.00590145 -0.000462002 0)
(-0.00564156 -0.000463502 0)
(-0.00538108 -0.000463985 0)
(-0.00512059 -0.000463438 0)
(-0.00486066 -0.000461851 0)
(-0.00460186 -0.000459215 0)
(-0.00434478 -0.000455524 0)
(-0.00409001 -0.000450777 0)
(-0.00383811 -0.000444974 0)
(-0.00358969 -0.00043812 0)
(-0.00334531 -0.000430222 0)
(-0.00310554 -0.00042129 0)
(-0.00287096 -0.000411336 0)
(-0.00264213 -0.00040038 0)
(-0.00241957 -0.00038844 0)
(-0.00220384 -0.000375541 0)
(-0.00199544 -0.000361711 0)
(-0.00179488 -0.000346981 0)
(-0.00160264 -0.000331386 0)
(-0.00141918 -0.000314966 0)
(-0.00124493 -0.000297765 0)
(-0.00108031 -0.000279832 0)
(-0.000925676 -0.00026122 0)
(-0.000781388 -0.000241991 0)
(-0.00064775 -0.000222212 0)
(-0.000525026 -0.000201959 0)
(-0.000413436 -0.000181315 0)
(-0.000313147 -0.000160378 0)
(-0.000224266 -0.000139257 0)
(-0.000146834 -0.000118079 0)
(-8.08172e-05 -9.69909e-05 0)
(-2.60904e-05 -7.61667e-05 0)
(1.75714e-05 -5.5812e-05 0)
(5.05128e-05 -3.61741e-05 0)
(7.32171e-05 -1.75521e-05 0)
(8.63297e-05 -3.10888e-07 0)
(9.06863e-05 1.51024e-05 0)
(8.73431e-05 2.81395e-05 0)
(7.76131e-05 3.81319e-05 0)
(6.31001e-05 4.42792e-05 0)
(4.56944e-05 4.56583e-05 0)
(2.75741e-05 4.12775e-05 0)
(1.17262e-05 3.02342e-05 0)
(2.41315e-06 1.21629e-05 0)
(1.95211e-06 -1.80322e-05 0)
(7.26458e-06 -3.40906e-05 0)
(1.30715e-05 -3.55163e-05 0)
(1.49629e-05 -2.63339e-05 0)
(9.86361e-06 -8.93569e-06 0)
(-4.35572e-06 1.4644e-05 0)
(-2.93489e-05 4.26788e-05 0)
(-6.63612e-05 7.37632e-05 0)
(-0.000116267 0.000106775 0)
(-0.000179624 0.000140852 0)
(-0.000256744 0.00017531 0)
(-0.000347717 0.000209635 0)
(-0.000452467 0.000243431 0)
(-0.000570786 0.000276396 0)
(-0.000702348 0.000308306 0)
(-0.000846746 0.000338993 0)
(-0.00100351 0.000368336 0)
(-0.00117212 0.000396251 0)
(-0.00135201 0.000422684 0)
(-0.00154261 0.000447598 0)
(-0.00174332 0.000470982 0)
(-0.00195351 0.000492835 0)
(-0.00217259 0.000513165 0)
(-0.00239994 0.000531994 0)
(-0.00263495 0.000549346 0)
(-0.00287702 0.000565254 0)
(-0.00312557 0.000579751 0)
(-0.00338001 0.000592876 0)
(-0.00363978 0.000604667 0)
(-0.00390432 0.000615165 0)
(-0.00417311 0.000624411 0)
(-0.00444561 0.000632444 0)
(-0.00472133 0.000639304 0)
(-0.00499976 0.000645031 0)
(-0.00528043 0.000649663 0)
(-0.00556289 0.000653235 0)
(-0.00584667 0.000655783 0)
(-0.00613134 0.00065734 0)
(-0.00641649 0.000657936 0)
(-0.00670169 0.000657602 0)
(-0.00698656 0.000656364 0)
(-0.00727069 0.000654249 0)
(-0.00755372 0.000651279 0)
(-0.00783528 0.000647476 0)
(-0.00811499 0.00064286 0)
(-0.00839252 0.00063745 0)
(-0.00866751 0.000631261 0)
(-0.00893964 0.000624307 0)
(-0.00920855 0.000616603 0)
(-0.00947393 0.00060816 0)
(-0.00973546 0.000598988 0)
(-0.00999282 0.000589096 0)
(-0.0102457 0.000578493 0)
(-0.0104938 0.000567185 0)
(-0.0107367 0.00055518 0)
(-0.0109743 0.000542483 0)
(-0.0112062 0.000529099 0)
(-0.011432 0.000515033 0)
(-0.0116516 0.00050029 0)
(-0.0118646 0.000484875 0)
(-0.0120706 0.000468791 0)
(-0.0122696 0.000452044 0)
(-0.012461 0.00043464 0)
(-0.0126447 0.000416584 0)
(-0.0128204 0.000397884 0)
(-0.0129878 0.000378546 0)
(-0.0131467 0.000358577 0)
(-0.0132967 0.000337989 0)
(-0.0134376 0.000316792 0)
(-0.0135692 0.000294998 0)
(-0.0136912 0.000272619 0)
(-0.0138033 0.000249672 0)
(-0.0139053 0.000226173 0)
(-0.013997 0.000202141 0)
(-0.0140782 0.000177595 0)
(-0.0141487 0.000152559 0)
(-0.0142082 0.000127057 0)
(-0.0142566 0.000101115 0)
(-0.0142936 7.47624e-05 0)
(-0.0143192 4.803e-05 0)
(-0.0143332 2.09508e-05 0)
(-0.0143354 -6.43909e-06 0)
(-0.0143257 -3.41018e-05 0)
(-0.0143041 -6.19978e-05 0)
(-0.0142704 -9.00849e-05 0)
(-0.0142246 -0.000118318 0)
(-0.0141666 -0.000146651 0)
(-0.0140964 -0.000175034 0)
(-0.014014 -0.000203416 0)
(-0.0139194 -0.000231745 0)
(-0.0138126 -0.000259966 0)
(-0.0136938 -0.000288022 0)
(-0.013563 -0.000315855 0)
(-0.0134204 -0.000343405 0)
(-0.0132659 -0.00037061 0)
(-0.0130999 -0.00039741 0)
(-0.0129226 -0.00042374 0)
(-0.0127341 -0.000449537 0)
(-0.0125346 -0.000474736 0)
(-0.0123245 -0.000499272 0)
(-0.0121041 -0.000523079 0)
(-0.0118737 -0.000546093 0)
(-0.0116336 -0.000568249 0)
(-0.0113842 -0.000589482 0)
(-0.0111259 -0.000609728 0)
(-0.0108593 -0.000628926 0)
(-0.0105846 -0.000647015 0)
(-0.0103025 -0.000663934 0)
(-0.0100134 -0.000679627 0)
(-0.00971786 -0.000694037 0)
(-0.00941644 -0.000707111 0)
(-0.00910972 -0.000718799 0)
(-0.00879829 -0.000729052 0)
(-0.00848277 -0.000737827 0)
(-0.00816381 -0.000745081 0)
(-0.00784205 -0.000750777 0)
(-0.00751816 -0.00075488 0)
(-0.00719282 -0.000757361 0)
(-0.00686672 -0.000758193 0)
(-0.00654058 -0.000757354 0)
(-0.00621508 -0.000754827 0)
(-0.00589096 -0.0007506 0)
(-0.00556893 -0.000744664 0)
(-0.00524972 -0.000737016 0)
(-0.00493404 -0.000727658 0)
(-0.00462261 -0.000716598 0)
(-0.00431616 -0.000703847 0)
(-0.00401538 -0.000689422 0)
(-0.00372097 -0.000673347 0)
(-0.00343363 -0.000655651 0)
(-0.00315402 -0.000636366 0)
(-0.0028828 -0.000615534 0)
(-0.0026206 -0.0005932 0)
(-0.00236805 -0.000569417 0)
(-0.00212573 -0.000544244 0)
(-0.00189419 -0.000517746 0)
(-0.00167398 -0.000489997 0)
(-0.00146559 -0.000461079 0)
(-0.00126947 -0.000431082 0)
(-0.00108604 -0.000400107 0)
(-0.000915667 -0.000368266 0)
(-0.000758664 -0.000335685 0)
(-0.000615287 -0.000302504 0)
(-0.000485727 -0.000268883 0)
(-0.000370102 -0.000235002 0)
(-0.000268445 -0.000201069 0)
(-0.000180697 -0.000167323 0)
(-0.000106692 -0.000134043 0)
(-4.61436e-05 -0.000101556 0)
(1.37473e-06 -7.02504e-05 0)
(3.64474e-05 -4.05879e-05 0)
(5.98408e-05 -1.31214e-05 0)
(7.25286e-05 1.14855e-05 0)
(7.57199e-05 3.24381e-05 0)
(7.089e-05 4.87904e-05 0)
(5.98121e-05 5.94328e-05 0)
(4.45538e-05 6.31003e-05 0)
(2.74932e-05 5.84156e-05 0)
(1.19038e-05 4.39959e-05 0)
(2.48878e-06 1.8625e-05 0)
(1.4179e-06 -2.14273e-05 0)
(4.31216e-06 -3.85444e-05 0)
(5.22542e-06 -3.67673e-05 0)
(1.562e-07 -2.11277e-05 0)
(-1.38671e-05 5.24343e-06 0)
(-3.89847e-05 3.97551e-05 0)
(-7.68707e-05 8.02045e-05 0)
(-0.000128791 0.00012478 0)
(-0.000195644 0.000172036 0)
(-0.000278025 0.000220802 0)
(-0.00037626 0.000270171 0)
(-0.000490457 0.000319423 0)
(-0.000620544 0.000367998 0)
(-0.000766293 0.000415468 0)
(-0.000927359 0.000461502 0)
(-0.0011033 0.00050585 0)
(-0.0012936 0.00054833 0)
(-0.00149767 0.000588809 0)
(-0.00171489 0.000627194 0)
(-0.0019446 0.000663431 0)
(-0.00218613 0.000697488 0)
(-0.00243878 0.000729356 0)
(-0.00270185 0.000759041 0)
(-0.00297464 0.000786566 0)
(-0.00325644 0.000811961 0)
(-0.00354656 0.000835266 0)
(-0.00384431 0.000856527 0)
(-0.00414903 0.000875792 0)
(-0.00446004 0.000893116 0)
(-0.00477671 0.000908554 0)
(-0.0050984 0.00092216 0)
(-0.0054245 0.000933992 0)
(-0.00575441 0.000944105 0)
(-0.00608755 0.000952554 0)
(-0.00642335 0.000959391 0)
(-0.00676126 0.000964669 0)
(-0.00710075 0.000968437 0)
(-0.0074413 0.000970742 0)
(-0.0077824 0.000971627 0)
(-0.00812357 0.000971136 0)
(-0.00846432 0.000969309 0)
(-0.00880419 0.000966181 0)
(-0.00914272 0.000961787 0)
(-0.00947948 0.000956158 0)
(-0.00981403 0.000949323 0)
(-0.0101459 0.000941309 0)
(-0.0104748 0.000932139 0)
(-0.0108002 0.000921835 0)
(-0.0111218 0.000910416 0)
(-0.0114391 0.0008979 0)
(-0.0117518 0.000884303 0)
(-0.0120594 0.000869639 0)
(-0.0123617 0.000853919 0)
(-0.0126582 0.000837155 0)
(-0.0129486 0.000819358 0)
(-0.0132324 0.000800535 0)
(-0.0135095 0.000780695 0)
(-0.0137793 0.000759848 0)
(-0.0140415 0.000737999 0)
(-0.0142958 0.000715157 0)
(-0.0145418 0.000691329 0)
(-0.0147793 0.000666523 0)
(-0.0150077 0.000640748 0)
(-0.0152269 0.000614013 0)
(-0.0154365 0.000586329 0)
(-0.0156361 0.000557708 0)
(-0.0158255 0.000528161 0)
(-0.0160043 0.000497705 0)
(-0.0161721 0.000466356 0)
(-0.0163288 0.00043413 0)
(-0.016474 0.00040105 0)
(-0.0166074 0.000367138 0)
(-0.0167287 0.00033242 0)
(-0.0168377 0.000296923 0)
(-0.0169341 0.000260677 0)
(-0.0170176 0.000223717 0)
(-0.0170881 0.000186079 0)
(-0.0171452 0.000147803 0)
(-0.0171889 0.000108931 0)
(-0.0172189 6.95089e-05 0)
(-0.017235 2.95859e-05 0)
(-0.017237 -1.07851e-05 0)
(-0.0172249 -5.15482e-05 0)
(-0.0171986 -9.26445e-05 0)
(-0.0171578 -0.000134012 0)
(-0.0171026 -0.000175585 0)
(-0.0170329 -0.000217295 0)
(-0.0169487 -0.000259069 0)
(-0.0168499 -0.000300834 0)
(-0.0167367 -0.000342511 0)
(-0.016609 -0.00038402 0)
(-0.0164669 -0.000425278 0)
(-0.0163106 -0.000466201 0)
(-0.0161401 -0.0005067 0)
(-0.0159557 -0.000546687 0)
(-0.0157576 -0.000586071 0)
(-0.0155459 -0.000624758 0)
(-0.015321 -0.000662657 0)
(-0.0150831 -0.000699672 0)
(-0.0148325 -0.000735708 0)
(-0.0145697 -0.000770671 0)
(-0.014295 -0.000804466 0)
(-0.0140089 -0.000836998 0)
(-0.0137117 -0.000868174 0)
(-0.013404 -0.0008979 0)
(-0.0130862 -0.000926087 0)
(-0.012759 -0.000952646 0)
(-0.012423 -0.000977489 0)
(-0.0120786 -0.00100053 0)
(-0.0117266 -0.0010217 0)
(-0.0113676 -0.00104091 0)
(-0.0110023 -0.00105808 0)
(-0.0106314 -0.00107316 0)
(-0.0102556 -0.00108607 0)
(-0.0098757 -0.00109676 0)
(-0.00949245 -0.00110516 0)
(-0.00910665 -0.00111124 0)
(-0.00871909 -0.00111494 0)
(-0.0083306 -0.00111624 0)
(-0.00794199 -0.00111509 0)
(-0.00755411 -0.00111147 0)
(-0.00716779 -0.00110537 0)
(-0.00678389 -0.00109678 0)
(-0.00640326 -0.00108568 0)
(-0.00602675 -0.00107209 0)
(-0.0056552 -0.00105601 0)
(-0.00528945 -0.00103747 0)
(-0.00493033 -0.00101648 0)
(-0.00457867 -0.000993095 0)
(-0.00423527 -0.000967343 0)
(-0.00390091 -0.00093928 0)
(-0.00357637 -0.000908965 0)
(-0.0032624 -0.000876468 0)
(-0.0029597 -0.000841867 0)
(-0.00266897 -0.00080525 0)
(-0.00239086 -0.000766717 0)
(-0.00212599 -0.000726376 0)
(-0.00187493 -0.00068435 0)
(-0.00163821 -0.000640775 0)
(-0.00141631 -0.0005958 0)
(-0.00120964 -0.000549594 0)
(-0.00101856 -0.000502343 0)
(-0.000843367 -0.000454255 0)
(-0.000684259 -0.000405566 0)
(-0.000541363 -0.000356542 0)
(-0.000414707 -0.000307486 0)
(-0.000304211 -0.000258745 0)
(-0.000209673 -0.00021072 0)
(-0.000130756 -0.000163878 0)
(-6.69685e-05 -0.000118762 0)
(-1.76496e-05 -7.60133e-05 0)
(1.80566e-05 -3.63857e-05 0)
(4.12218e-05 -7.69227e-07 0)
(5.31588e-05 2.97878e-05 0)
(5.54486e-05 5.40575e-05 0)
(4.99717e-05 7.06169e-05 0)
(3.89097e-05 7.78446e-05 0)
(2.4774e-05 7.39429e-05 0)
(1.09798e-05 5.69827e-05 0)
(2.34273e-06 2.48606e-05 0)
(7.99121e-07 -2.30899e-05 0)
(7.53398e-07 -3.86315e-05 0)
(-4.29061e-06 -3.13832e-05 0)
(-1.76962e-05 -7.17677e-06 0)
(-4.21655e-05 3.02121e-05 0)
(-7.97686e-05 7.76501e-05 0)
(-0.000132131 0.000132487 0)
(-0.000200471 0.000192538 0)
(-0.000285677 0.000256008 0)
(-0.00038833 0.000321461 0)
(-0.000508751 0.000387736 0)
(-0.000647047 0.00045391 0)
(-0.000803129 0.000519255 0)
(-0.000976757 0.0005832 0)
(-0.00116756 0.000645297 0)
(-0.00137506 0.00070521 0)
(-0.0015987 0.00076268 0)
(-0.00183784 0.000817518 0)
(-0.00209182 0.000869592 0)
(-0.0023599 0.000918813 0)
(-0.00264133 0.00096513 0)
(-0.00293537 0.00100852 0)
(-0.00324121 0.00104898 0)
(-0.00355809 0.00108654 0)
(-0.00388521 0.00112123 0)
(-0.00422181 0.00115309 0)
(-0.0045671 0.00118218 0)
(-0.00492033 0.00120856 0)
(-0.00528075 0.00123231 0)
(-0.00564764 0.00125348 0)
(-0.00602026 0.00127216 0)
(-0.00639793 0.00128841 0)
(-0.00677996 0.0013023 0)
(-0.00716569 0.00131392 0)
(-0.00755446 0.00132333 0)
(-0.00794565 0.00133059 0)
(-0.00833864 0.00133577 0)
(-0.00873283 0.00133894 0)
(-0.00912765 0.00134015 0)
(-0.00952252 0.00133947 0)
(-0.00991689 0.00133693 0)
(-0.0103102 0.0013326 0)
(-0.010702 0.00132652 0)
(-0.0110917 0.00131873 0)
(-0.0114788 0.00130928 0)
(-0.0118629 0.00129819 0)
(-0.0122434 0.00128549 0)
(-0.0126199 0.00127123 0)
(-0.0129919 0.00125543 0)
(-0.013359 0.0012381 0)
(-0.0137207 0.00121928 0)
(-0.0140765 0.00119898 0)
(-0.0144261 0.00117722 0)
(-0.014769 0.00115401 0)
(-0.0151047 0.00112938 0)
(-0.0154329 0.00110332 0)
(-0.0157531 0.00107587 0)
(-0.0160649 0.00104702 0)
(-0.0163679 0.00101679 0)
(-0.0166618 0.000985186 0)
(-0.016946 0.000952226 0)
(-0.0172202 0.000917919 0)
(-0.017484 0.000882279 0)
(-0.0177371 0.000845319 0)
(-0.017979 0.000807053 0)
(-0.0182093 0.000767499 0)
(-0.0184278 0.000726677 0)
(-0.0186339 0.000684608 0)
(-0.0188275 0.000641313 0)
(-0.019008 0.00059682 0)
(-0.0191753 0.000551158 0)
(-0.0193289 0.000504359 0)
(-0.0194685 0.000456459 0)
(-0.0195939 0.000407496 0)
(-0.0197046 0.000357514 0)
(-0.0198006 0.000306558 0)
(-0.0198814 0.000254681 0)
(-0.0199468 0.000201937 0)
(-0.0199966 0.000148386 0)
(-0.0200307 9.40891e-05 0)