/*--------------------------------*- C++ -*----------------------------------*\
  =========                 |
  \\      /  F ield         | OpenFOAM: The Open Source CFD Toolbox
   \\    /   O peration     | Website:  https://openfoam.org
    \\  /    A nd           | Version:  7
     \\/     M anipulation  |
\*---------------------------------------------------------------------------*/
FoamFile
{
    version     2.0;
    format      ascii;
    class       volScalarField;
    location    "0.15";
    object      p;
}
// * * * * * * * * * * * * * * * * * * * * * * * * * * * * * * * * * * * * * //

dimensions      [0 2 -2 0 0 0 0];

internalField   nonuniform List<scalar> 
25600
(
1.3851e-08
3.91123e-06
-1.96901e-06
-1.96459e-05
-4.73912e-05
-8.34465e-05
-0.000126263
-0.000174391
-0.0002265
-0.000281382
-0.000337951
-0.000395262
-0.0004525
-0.000508931
-0.000563918
-0.000616884
-0.00066736
-0.000714935
-0.000759236
-0.000799954
-0.000836803
-0.000869526
-0.000897938
-0.000921876
-0.000941191
-0.000955771
-0.000965539
-0.00097042
-0.000970364
-0.00096534
-0.000955312
-0.00094026
-0.000920188
-0.000895094
-0.00086497
-0.000829817
-0.000789666
-0.000744562
-0.000694546
-0.000639662
-0.000579964
-0.000515504
-0.000446325
-0.000372485
-0.000294056
-0.000211098
-0.000123656
-3.17831e-05
6.4444e-05
0.000164947
0.000269664
0.000378537
0.000491495
0.000608464
0.000729376
0.00085416
0.000982732
0.00111501
0.00125091
0.00139038
0.00153333
0.00167965
0.00182924
0.00198202
0.00213791
0.00229681
0.00245863
0.00262327
0.00279062
0.00296056
0.00313296
0.00330767
0.00348459
0.00366361
0.0038446
0.00402741
0.0042119
0.00439791
0.0045853
0.00477389
0.00496351
0.00515399
0.00534519
0.00553693
0.00572903
0.0059213
0.00611353
0.00630554
0.00649714
0.00668814
0.00687833
0.00706751
0.00725546
0.00744198
0.00762684
0.00780985
0.00799076
0.00816936
0.00834544
0.00851878
0.00868918
0.0088564
0.00902022
0.00918044
0.00933685
0.00948926
0.00963746
0.00978124
0.0099204
0.0100548
0.0101842
0.0103085
0.0104274
0.0105408
0.0106487
0.0107507
0.0108468
0.0109369
0.0110207
0.0110984
0.0111696
0.0112344
0.0112928
0.0113446
0.0113899
0.0114285
0.0114607
0.0114862
0.0115053
0.011518
0.0115243
0.0115243
0.0115182
0.0115061
0.0114882
0.0114646
0.0114356
0.0114014
0.0113624
0.0113188
0.0112709
0.0112192
0.0111641
0.0111061
0.0110456
0.0109833
0.0109197
0.0108557
0.0107919
0.0107291
0.0106684
0.0106106
0.010557
0.0105088
0.0104672
0.0104337
0.0104096
0.010396
0.0103933
0.010399
-4.65711e-06
-1.79106e-06
-8.2789e-06
-2.45293e-05
-4.8929e-05
-8.03081e-05
-0.000117622
-0.000159754
-0.000205618
-0.000254172
-0.000304468
-0.000355627
-0.000406894
-0.000457604
-0.000507125
-0.000554933
-0.000600554
-0.000643558
-0.000683602
-0.000720368
-0.000753559
-0.000782942
-0.000808307
-0.00082947
-0.000846292
-0.000858655
-0.000866447
-0.000869593
-0.000868044
-0.000861743
-0.000850651
-0.000834742
-0.000813998
-0.000788417
-0.000757993
-0.000722727
-0.000682633
-0.000637736
-0.000588066
-0.000533666
-0.000474589
-0.000410878
-0.000342567
-0.000269711
-0.000192375
-0.000110614
-2.44769e-05
6.59801e-05
0.000160692
0.000259597
0.000362633
0.000469733
0.000580826
0.000695849
0.00081474
0.000937429
0.00106383
0.00119386
0.00132745
0.00146451
0.00160497
0.00174873
0.00189571
0.00204582
0.00219897
0.00235507
0.002514
0.00267567
0.00284
0.00300686
0.00317611
0.00334762
0.00352129
0.00369698
0.00387458
0.00405395
0.00423494
0.0044174
0.0046012
0.00478614
0.00497207
0.00515882
0.00534624
0.00553417
0.00572244
0.00591083
0.00609917
0.00628726
0.00647492
0.00666197
0.0068482
0.0070334
0.00721739
0.00739996
0.00758089
0.00775996
0.00793697
0.00811171
0.00828396
0.00845352
0.00862019
0.00878374
0.00894396
0.00910066
0.00925363
0.00940269
0.00954763
0.00968827
0.00982441
0.00995588
0.0100825
0.0102042
0.0103206
0.0104318
0.0105374
0.0106375
0.0107318
0.0108203
0.0109028
0.0109793
0.0110496
0.0111137
0.0111715
0.0112231
0.0112684
0.0113073
0.01134
0.0113663
0.0113865
0.0114005
0.0114084
0.0114104
0.0114065
0.0113969
0.0113818
0.0113614
0.0113358
0.0113054
0.0112704
0.0112311
0.0111879
0.0111411
0.0110912
0.0110386
0.0109839
0.0109275
0.0108702
0.0108125
0.0107552
0.010699
0.0106447
0.0105934
0.0105459
0.0105033
0.0104667
0.0104371
0.0104154
0.0104023
0.0103989
0.0104045
-1.09825e-06
1.7636e-06
-4.78671e-06
-2.01105e-05
-4.24514e-05
-7.0881e-05
-0.000104597
-0.000142666
-0.000184144
-0.000228158
-0.000273842
-0.000320413
-0.000367177
-0.000413484
-0.000458778
-0.000502549
-0.000544326
-0.000583712
-0.000620351
-0.00065392
-0.000684152
-0.000710805
-0.000733654
-0.000752527
-0.00076728
-0.000777779
-0.000783919
-0.000785614
-0.000782795
-0.000775412
-0.000763421
-0.000746778
-0.000725456
-0.000699445
-0.000668737
-0.000633337
-0.000593256
-0.000548504
-0.000499102
-0.000445092
-0.000386519
-0.000323417
-0.000255824
-0.000183789
-0.000107364
-2.65968e-05
5.84548e-05
0.000147729
0.000241172
0.000338734
0.000440357
0.000545964
0.000655487
0.000768869
0.000886052
0.00100696
0.00113153
0.00125966
0.00139128
0.00152632
0.00166468
0.00180627
0.00195104
0.00209888
0.00224972
0.00240344
0.00255994
0.00271913
0.00288091
0.00304516
0.00321175
0.00338057
0.00355149
0.0037244
0.00389916
0.00407563
0.00425368
0.00443318
0.00461396
0.00479586
0.0049787
0.00516233
0.0053466
0.00553136
0.00571643
0.0059016
0.00608669
0.00627153
0.00645593
0.0066397
0.00682264
0.00700456
0.00718527
0.00736457
0.00754224
0.00771807
0.00789186
0.0080634
0.00823251
0.00839897
0.00856256
0.00872309
0.00888036
0.00903416
0.00918432
0.00933064
0.00947292
0.00961098
0.00974465
0.00987376
0.00999814
0.0101176
0.0102321
0.0103413
0.0104453
0.0105437
0.0106366
0.0107238
0.0108052
0.0108807
0.0109502
0.0110137
0.0110712
0.0111226
0.0111679
0.011207
0.0112401
0.0112671
0.0112882
0.0113033
0.0113126
0.0113161
0.011314
0.0113064
0.0112936
0.0112757
0.0112529
0.0112254
0.0111937
0.0111578
0.0111183
0.0110754
0.0110296
0.0109814
0.0109311
0.0108794
0.0108268
0.010774
0.0107215
0.0106702
0.0106207
0.0105739
0.0105307
0.010492
0.0104586
0.0104315
0.0104114
0.0103988
0.0103953
0.0104017
1.25583e-05
1.44275e-05
7.35917e-06
-7.64813e-06
-2.89334e-05
-5.56869e-05
-8.7173e-05
-0.000122556
-0.00016102
-0.000201772
-0.000244058
-0.00028718
-0.000330472
-0.000373352
-0.000415297
-0.000455806
-0.000494464
-0.000530884
-0.000564696
-0.000595606
-0.000623351
-0.000647677
-0.000668384
-0.000685295
-0.000698249
-0.000707125
-0.000711821
-0.000712236
-0.000708296
-0.00069995
-0.000687148
-0.000669847
-0.000648011
-0.000621612
-0.000590638
-0.000555099
-0.000514998
-0.000470342
-0.000421156
-0.000367475
-0.000309327
-0.000246744
-0.000179772
-0.000108457
-3.28313e-05
4.70604e-05
0.000131156
0.000219393
0.000311722
0.0004081
0.000508464
0.000612744
0.000720878
0.000832812
0.00094848
0.00106781
0.00119073
0.00131716
0.00144705
0.00158029
0.00171679
0.00185647
0.00199927
0.0021451
0.00229386
0.00244547
0.00259982
0.00275682
0.00291635
0.0030783
0.00324254
0.00340896
0.00357746
0.0037479
0.00392015
0.00409408
0.00426956
0.00444645
0.00462458
0.00480379
0.00498391
0.00516482
0.00534635
0.00552835
0.00571062
0.00589297
0.00607525
0.00625726
0.00643882
0.00661974
0.00679983
0.0069789
0.00715677
0.00733324
0.0075081
0.00768112
0.00785213
0.00802093
0.00818732
0.00835111
0.00851207
0.00867
0.00882473
0.00897606
0.00912381
0.00926778
0.00940778
0.00954365
0.00967521
0.0098023
0.00992476
0.0100424
0.0101552
0.0102628
0.0103652
0.0104623
0.010554
0.0106401
0.0107205
0.0107952
0.0108641
0.0109271
0.0109843
0.0110355
0.0110808
0.0111202
0.0111536
0.0111812
0.011203
0.011219
0.0112294
0.0112342
0.0112336
0.0112278
0.0112169
0.0112011
0.0111805
0.0111556
0.0111265
0.0110935
0.0110569
0.0110173
0.0109748
0.01093
0.0108834
0.0108354
0.0107865
0.0107374
0.0106887
0.010641
0.0105951
0.0105516
0.0105114
0.0104752
0.0104439
0.0104181
0.0103987
0.0103862
0.0103822
0.0103881
3.60846e-05
3.53453e-05
2.67954e-05
1.13375e-05
-9.71312e-06
-3.56108e-05
-6.56587e-05
-9.9151e-05
-0.000135353
-0.000173557
-0.00021311
-0.000253367
-0.00029374
-0.000333701
-0.000372732
-0.000410392
-0.000446287
-0.000480031
-0.000511298
-0.000539798
-0.000565255
-0.000587445
-0.000606172
-0.000621251
-0.000632529
-0.000639886
-0.000643213
-0.000642415
-0.000637414
-0.000628143
-0.000614552
-0.000596604
-0.000574255
-0.000547471
-0.000516241
-0.00048056
-0.000440426
-0.00039585
-0.000346863
-0.000293485
-0.000235735
-0.000173645
-0.000107261
-3.66216e-05
3.82434e-05
0.00011729
0.000200461
0.000287704
0.000378971
0.00047421
0.000573358
0.000676353
0.000783148
0.000893684
0.00100789
0.00112569
0.00124703
0.00137183
0.00150003
0.00163152
0.00176622
0.00190407
0.00204498
0.00218887
0.00233564
0.00248521
0.00263748
0.00279237
0.00294974
0.00310947
0.00327146
0.00343559
0.00360176
0.00376983
0.00393967
0.00411117
0.00428419
0.00445858
0.00463418
0.00481082
0.00498836
0.00516667
0.0053456
0.00552496
0.00570458
0.00588427
0.00606387
0.0062432
0.00642207
0.00660029
0.00677769
0.00695408
0.00712928
0.00730307
0.00747526
0.00764565
0.00781405
0.00798027
0.00814412
0.00830539
0.00846388
0.00861939
0.00877175
0.00892077
0.00906626
0.00920804
0.00934592
0.00947974
0.00960933
0.00973454
0.00985521
0.00997117
0.0100823
0.0101884
0.0102895
0.0103853
0.0104758
0.0105609
0.0106404
0.0107144
0.0107827
0.0108453
0.0109022
0.0109533
0.0109986
0.0110381
0.0110719
0.0110999
0.0111224
0.0111393
0.0111507
0.0111567
0.0111575
0.0111532
0.011144
0.0111301
0.0111117
0.011089
0.0110622
0.0110318
0.010998
0.0109611
0.0109217
0.01088
0.0108365
0.0107916
0.010746
0.0107001
0.0106545
0.0106099
0.0105668
0.0105259
0.0104879
0.0104535
0.0104235
0.0103985
0.0103791
0.0103659
0.0103605
0.010364
6.85662e-05
6.38634e-05
5.28755e-05
3.61519e-05
1.45518e-05
-1.12273e-05
-4.05898e-05
-7.28983e-05
-0.000107516
-0.000143844
-0.000181268
-0.00021923
-0.000257217
-0.000294718
-0.000331284
-0.000366502
-0.000399975
-0.000431369
-0.000460377
-0.000486705
-0.000510103
-0.000530356
-0.000547266
-0.000560663
-0.000570401
-0.000576348
-0.000578398
-0.000576466
-0.000570469
-0.000560332
-0.000546001
-0.000527429
-0.000504577
-0.000477416
-0.00044593
-0.000410103
-0.000369932
-0.000325431
-0.000276623
-0.000223522
-0.000166148
-0.00010453
-3.87031e-05
3.13032e-05
0.00010545
0.00018369
0.000265977
0.000352271
0.000442522
0.000536669
0.000634653
0.000736424
0.000841934
0.000951124
0.00106392
0.00118027
0.0013001
0.00142334
0.00154991
0.00167972
0.0018127
0.00194879
0.00208789
0.00222992
0.00237479
0.00252242
0.00267271
0.00282556
0.00298086
0.00313848
0.00329833
0.00346028
0.00362423
0.00379004
0.0039576
0.00412679
0.00429747
0.00446949
0.00464268
0.0048169
0.00499201
0.00516787
0.00534433
0.0055212
0.00569832
0.00587551
0.0060526
0.00622941
0.00640575
0.00658145
0.00675633
0.0069302
0.00710289
0.00727419
0.00744389
0.00761182
0.00777779
0.00794161
0.00810308
0.00826201
0.00841821
0.00857148
0.00872164
0.00886851
0.00901192
0.00915166
0.00928758
0.00941951
0.00954728
0.00967076
0.00978977
0.00990415
0.0100138
0.0101185
0.0102183
0.010313
0.0104024
0.0104866
0.0105653
0.0106386
0.0107063
0.0107685
0.0108251
0.0108761
0.0109214
0.0109611
0.0109951
0.0110237
0.0110467
0.0110644
0.0110767
0.0110838
0.0110859
0.011083
0.0110753
0.0110631
0.0110465
0.0110258
0.0110012
0.010973
0.0109416
0.0109073
0.0108704
0.0108313
0.0107905
0.0107484
0.0107055
0.0106623
0.0106193
0.0105771
0.0105361
0.0104972
0.0104608
0.0104276
0.0103982
0.0103731
0.0103531
0.0103387
0.0103309
0.0103307
0.000108594
9.89232e-05
8.47e-05
6.60212e-05
4.3209e-05
1.6848e-05
-1.24911e-05
-4.42602e-05
-7.79455e-05
-0.000112989
-0.000148869
-0.000185099
-0.000221187
-0.0002567
-0.000291234
-0.000324389
-0.00035581
-0.000385186
-0.000412216
-0.000436636
-0.000458216
-0.000476741
-0.00049202
-0.000503899
-0.000512236
-0.000516898
-0.000517782
-0.0005148
-0.000507873
-0.000496932
-0.000481911
-0.000462758
-0.000439434
-0.000411915
-0.000380176
-0.000344202
-0.000303994
-0.000259564
-0.000210917
-0.000158069
-0.000101046
-3.98745e-05
2.54299e-05
9.48378e-05
0.000168305
0.000245785
0.000327241
0.000412635
0.000501915
0.000595021
0.000691902
0.000792515
0.000896806
0.00100471
0.00111617
0.00123113
0.00134953
0.00147129
0.00159631
0.00172453
0.00185589
0.00199029
0.00212767
0.00226794
0.00241101
0.0025568
0.00270521
0.00285614
0.00300947
0.0031651
0.00332292
0.00348282
0.00364468
0.00380837
0.00397378
0.0041408
0.00430928
0.00447907
0.00465
0.00482196
0.00499479
0.00516836
0.00534251
0.00551706
0.00569185
0.00586671
0.00604146
0.00621593
0.00638993
0.00656328
0.00673583
0.00690738
0.00707775
0.00724673
0.00741414
0.0075798
0.00774353
0.00790514
0.00806444
0.00822121
0.0083753
0.00852651
0.00867466
0.00881957
0.00896106
0.00909895
0.00923308
0.00936328
0.0094894
0.00961129
0.00972878
0.00984173
0.00995001
0.0100535
0.0101521
0.0102457
0.0103342
0.0104175
0.0104955
0.0105681
0.0106354
0.0106972
0.0107536
0.0108044
0.0108497
0.0108895
0.0109239
0.0109528
0.0109764
0.0109948
0.0110079
0.0110159
0.0110191
0.0110174
0.0110111
0.0110004
0.0109854
0.0109664
0.0109437
0.0109175
0.0108881
0.0108559
0.0108213
0.0107844
0.0107459
0.0107061
0.0106654
0.0106243
0.0105833
0.0105429
0.0105036
0.0104659
0.0104305
0.0103978
0.0103684
0.0103428
0.0103215
0.0103051
0.0102943
0.0102893
0.000154665
0.000139356
0.000121302
0.00010011
7.55107e-05
4.80107e-05
1.81298e-05
-1.36898e-05
-4.69741e-05
-8.12693e-05
-0.000116129
-0.000151098
-0.000185757
-0.000219716
-0.000252598
-0.000284051
-0.000313759
-0.000341415
-0.000366746
-0.000389513
-0.000409496
-0.000426494
-0.00044033
-0.000450851
-0.000457925
-0.000461429
-0.000461256
-0.000457318
-0.000449538
-0.000437847
-0.000422182
-0.000402489
-0.000378731
-0.000350876
-0.000318896
-0.000282783
-0.000242542
-0.000198173
-0.000149677
-9.70697e-05
-4.03777e-05
2.03827e-05
8.51974e-05
0.000154034
0.000226852
0.000303617
0.000384292
0.000468833
0.000557187
0.000649303
0.00074514
0.000844654
0.000947786
0.00105448
0.00116467
0.00127832
0.00139535
0.00151569
0.00163925
0.00176597
0.00189578
0.0020286
0.00216434
0.00230293
0.0024443
0.00258835
0.00273499
0.00288411
0.00303559
0.00318934
0.00334526
0.00350321
0.0036631
0.0038248
0.00398821
0.0041532
0.00431962
0.00448731
0.00465614
0.00482597
0.00499669
0.00516813
0.00534012
0.00551252
0.00568514
0.00585784
0.00603042
0.00620272
0.00637455
0.00654575
0.00671614
0.00688555
0.00705377
0.00722063
0.00738594
0.00754951
0.00771119
0.00787077
0.00802807
0.00818288
0.00833503
0.00848436
0.00863068
0.00877381
0.00891355
0.00904976
0.00918225
0.00931089
0.00943551
0.00955595
0.00967206
0.00978371
0.00989077
0.00999314
0.0100907
0.0101833
0.010271
0.0103535
0.0104308
0.0105029
0.0105697
0.0106312
0.0106873
0.010738
0.0107833
0.0108233
0.0108579
0.0108872
0.0109112
0.0109301
0.010944
0.0109529
0.0109569
0.0109563
0.0109512
0.0109418
0.0109282
0.0109107
0.0108896
0.010865
0.0108374
0.0108071
0.0107742
0.0107392
0.0107026
0.0106646
0.0106256
0.0105862
0.0105467
0.0105076
0.0104694
0.0104325
0.0103974
0.0103647
0.0103348
0.0103081
0.0102851
0.0102662
0.0102517
0.0102414
0.000205384
0.000184019
0.000161722
0.000137574
0.000110738
8.16436e-05
5.07262e-05
1.83922e-05
-1.49755e-05
-4.89945e-05
-8.32652e-05
-0.000117405
-0.000151052
-0.000183838
-0.000215427
-0.000245518
-0.000273811
-0.000300027
-0.000323925
-0.000345276
-0.000363874
-0.000379541
-0.00039211
-0.000401431
-0.000407378
-0.000409843
-0.00040872
-0.000403921
-0.000395368
-0.000382992
-0.000366732
-0.000346541
-0.00032238
-0.000294211
-0.000262012
-0.000225777
-0.000185503
-0.000141188
-9.28368e-05
-4.04653e-05
1.59159e-05
7.62941e-05
0.000140646
0.00020894
0.000281144
0.000357233
0.000437167
0.000520896
0.000608372
0.000699554
0.000794402
0.000892867
0.000994896
0.00110044
0.00120944
0.00132185
0.00143758
0.00155658
0.00167875
0.00180405
0.0019324
0.00206371
0.00219791
0.00233492
0.00247468
0.0026171
0.00276206
0.00290946
0.00305921
0.0032112
0.00336532
0.00352145
0.00367949
0.00383934
0.00400087
0.00416396
0.00432845
0.00449419
0.00466106
0.00482894
0.00499768
0.00516713
0.00533713
0.00550753
0.00567816
0.00584885
0.00601944
0.00618973
0.00635957
0.00652878
0.0066972
0.00686464
0.0070309
0.0071958
0.00735919
0.00752087
0.00768066
0.00783839
0.00799386
0.00814688
0.00829729
0.00844491
0.00858957
0.00873107
0.00886924
0.00900391
0.00913494
0.00926216
0.00938542
0.00950455
0.00961942
0.0097299
0.00983586
0.00993721
0.0100338
0.0101256
0.0102124
0.0102942
0.010371
0.0104426
0.010509
0.0105701
0.010626
0.0106766
0.0107219
0.010762
0.0107968
0.0108264
0.0108509
0.0108703
0.0108847
0.0108943
0.0108992
0.0108995
0.0108954
0.010887
0.0108746
0.0108584
0.0108387
0.0108156
0.0107894
0.0107605
0.0107291
0.0106957
0.0106605
0.0106239
0.0105864
0.0105482
0.0105097
0.0104715
0.0104338
0.0103972
0.0103621
0.0103289
0.0102979
0.0102696
0.0102444
0.0102228
0.0102042
0.010188
0.000259503
0.000231877
0.000205052
0.000177631
0.000148197
0.000117113
8.47911e-05
5.15362e-05
1.76662e-05
-1.64725e-05
-5.05481e-05
-8.4244e-05
-0.00011723
-0.000149186
-0.000179819
-0.00020885
-0.000236008
-0.000261053
-0.000283762
-0.000303921
-0.000321341
-0.000335862
-0.00034733
-0.000355603
-0.000360562
-0.000362103
-0.000360132
-0.000354562
-0.000345314
-0.000332319
-0.000315524
-0.000294881
-0.000270347
-0.00024189
-0.000209496
-0.000173155
-0.000132853
-8.85921e-05
-4.0384e-05
1.17638e-05
6.78519e-05
0.000127866
0.000191777
0.000259557
0.000331186
0.000406634
0.000485861
0.000568817
0.000655462
0.000745763
0.000839676
0.000937146
0.00103813
0.00114258
0.00125046
0.00136169
0.0014762
0.00159393
0.0017148
0.00183875
0.00196571
0.0020956
0.00222834
0.00236388
0.00250214
0.002643
0.00278638
0.00293218
0.0030803
0.00323064
0.00338308
0.00353752
0.00369384
0.00385196
0.00401175
0.00417306
0.00433575
0.00449969
0.00466476
0.00483082
0.00499773
0.00516535
0.00533351
0.00550207
0.00567086
0.00583971
0.00600845
0.00617691
0.00634493
0.00651233
0.00667895
0.00684458
0.00700905
0.00717218
0.00733382
0.00749377
0.00765187
0.00780791
0.00796172
0.00811313
0.00826196
0.00840805
0.0085512
0.00869124
0.00882799
0.0089613
0.00909101
0.00921696
0.00933899
0.00945696
0.00957072
0.00968014
0.00978513
0.00988557
0.00998134
0.0100723
0.0101585
0.0102397
0.0103159
0.010387
0.010453
0.0105139
0.0105696
0.0106201
0.0106654
0.0107055
0.0107405
0.0107704
0.0107952
0.010815
0.01083
0.0108402
0.0108457
0.0108468
0.0108435
0.0108361
0.0108247
0.0108096
0.0107909
0.0107689
0.0107439
0.0107162
0.0106861
0.0106538
0.0106197
0.0105842
0.0105476
0.0105103
0.0104725
0.0104346
0.0103972
0.0103604
0.0103248
0.0102907
0.0102583
0.0102281
0.0102004
0.0101756
0.0101526
0.0101305
0.00031594
0.000281961
0.000250462
0.000219541
0.000187219
0.000153852
0.0001198
8.52857e-05
5.05837e-05
1.59766e-05
-1.82603e-05
-5.18377e-05
-8.44801e-05
-0.00011592
-0.000145889
-0.000174133
-0.000200423
-0.000224542
-0.000246284
-0.000265461
-0.000281903
-0.000295455
-0.000305979
-0.00031335
-0.000317453
-0.000318188
-0.00031547
-0.000309215
-0.000299345
-0.0002858
-0.000268527
-0.000247478
-0.000222608
-0.000193897
-0.000161331
-0.000124895
-8.45751e-05
-4.03776e-05
7.69054e-06
5.96305e-05
0.00011544
0.0001751
0.000238588
0.000305886
0.000376972
0.000451813
0.000530364
0.000612588
0.000698452
0.000787918
0.000880942
0.000977475
0.00107748
0.00118091
0.00128772
0.00139784
0.00151119
0.00162772
0.00174737
0.00187005
0.00199571
0.00212425
0.00225564
0.00238979
0.00252662
0.00266604
0.00280794
0.00295225
0.00309885
0.00324765
0.00339852
0.00355138
0.00370611
0.00386263
0.0040208
0.00418047
0.0043415
0.00450378
0.00466718
0.00483157
0.0049968
0.00516273
0.00532921
0.00549608
0.00566319
0.00583035
0.00599742
0.00616421
0.00633057
0.00649633
0.0066613
0.0068253
0.00698815
0.00714969
0.00730975
0.00746815
0.00762471
0.00777924
0.00793157
0.00808153
0.00822895
0.00837366
0.00851547
0.0086542
0.00878969
0.00892179
0.00905033
0.00917515
0.0092961
0.00941302
0.0095258
0.0096343
0.00973843
0.00983806
0.00993308
0.0100234
0.0101089
0.0101896
0.0102653
0.010336
0.0104017
0.0104624
0.0105179
0.0105683
0.0106136
0.0106538
0.0106889
0.010719
0.010744
0.0107642
0.0107796
0.0107903
0.0107964
0.0107981
0.0107955
0.0107888
0.0107782
0.0107639
0.0107461
0.0107251
0.010701
0.0106742
0.010645
0.0106136
0.0105804
0.0105456
0.0105096
0.0104727
0.0104351
0.0103974
0.0103597
0.0103225
0.010286
0.0102506
0.0102166
0.0101841
0.0101537
0.0101255
0.010098
0.0100698
0.000373737
0.00033342
0.000297162
0.000262586
0.000227196
0.000191303
0.000155244
0.00011921
8.33932e-05
4.80169e-05
1.33314e-05
-2.0419e-05
-5.30088e-05
-8.42041e-05
-0.000113766
-0.000141481
-0.000167146
-0.000190559
-0.000211542
-0.000229935
-0.000245579
-0.000258329
-0.000268063
-0.000274669
-0.00027804
-0.000278085
-0.000274718
-0.000267861
-0.000257446
-0.000243417
-0.000225719
-0.000204305
-0.000179145
-0.000150216
-0.000117499
-8.09817e-05
-4.06602e-05
3.46471e-06
5.13971e-05
0.000103139
0.000158678
0.000217997
0.000281085
0.000347926
0.000418496
0.000492756
0.00057067
0.000652205
0.000737332
0.000826008
0.000918189
0.00101384
0.00111292
0.0012154
0.0013212
0.00143026
0.00154253
0.00165794
0.00177643
0.00189792
0.00202235
0.00214965
0.00227976
0.00241262
0.00254812
0.00268618
0.00282672
0.00296963
0.00311482
0.00326218
0.0034116
0.003563
0.00371628
0.00387132
0.00402798
0.00418613
0.00434565
0.00450641
0.00466828
0.00483114
0.00499484
0.00515923
0.00532417
0.00548951
0.00565509
0.00582072
0.00598627
0.00615156
0.00631643
0.0064807
0.00664419
0.00680673
0.00696813
0.00712825
0.0072869
0.00744391
0.0075991
0.00775229
0.0079033
0.00805198
0.00819816
0.00834165
0.00848227
0.00861984
0.00875423
0.00888526
0.00901277
0.0091366
0.0092566
0.00937261
0.00948453
0.00959223
0.0096956
0.00979453
0.0098889
0.00997861
0.0100636
0.0101438
0.0102191
0.0102895
0.0103549
0.0104153
0.0104707
0.010521
0.0105662
0.0106065
0.0106417
0.0106719
0.0106972
0.0107177
0.0107334
0.0107445
0.010751
0.0107532
0.0107512
0.0107451
0.0107351
0.0107215
0.0107044
0.010684
0.0106606
0.0106345
0.0106059
0.0105751
0.0105424
0.0105081
0.0104723
0.0104356
0.010398
0.01036
0.0103218
0.0102838
0.0102461
0.0102092
0.0101732
0.0101383
0.0101048
0.0100731
0.0100412
0.0100069
0.000432057
0.000385473
0.000344421
0.000306121
0.000267531
0.000228927
0.00019067
0.000152882
0.000115704
7.93258e-05
4.39453e-05
9.76116e-06
-2.30254e-05
-5.42118e-05
-8.36051e-05
-0.00011102
-0.000136273
-0.000159189
-0.000179612
-0.000197397
-0.000212406
-0.000224511
-0.0002336
-0.000239571
-0.000242329
-0.000241788
-0.000237866
-0.000230494
-0.000219612
-0.000205161
-0.000187089
-0.00016536
-0.000139951
-0.000110835
-7.79913e-05
-4.14147e-05
-1.10676e-06
4.29423e-05
9.07409e-05
0.000142284
0.000197559
0.000256554
0.000319264
0.000385673
0.000455748
0.000529455
0.000606769
0.000687659
0.000772089
0.000860017
0.000951407
0.00104623
0.00114445
0.00124602
0.00135087
0.00145895
0.0015702
0.00168456
0.00180196
0.00192233
0.00204562
0.00217176
0.00230069
0.00243233
0.00256659
0.0027034
0.00284266
0.00298429
0.00312817
0.0032742
0.00342229
0.00357235
0.00372428
0.00387796
0.00403324
0.00419001
0.00434814
0.00450752
0.00466801
0.00482947
0.00499178
0.00515478
0.00531834
0.0054823
0.00564649
0.00581076
0.00597494
0.00613889
0.00630243
0.00646537
0.00662755
0.00678878
0.00694891
0.00710777
0.00726519
0.00742097
0.00757496
0.00772697
0.00787684
0.0080244
0.00816947
0.00831189
0.00845148
0.00858806
0.00872148
0.00885159
0.00897822
0.00910119
0.00922037
0.00933561
0.00944679
0.0095538
0.00965653
0.00975485
0.00984866
0.00993786
0.0100224
0.0101022
0.0101772
0.0102473
0.0103124
0.0103726
0.0104278
0.0104781
0.0105233
0.0105635
0.0105988
0.0106291
0.0106546
0.0106753
0.0106913
0.0107027
0.0107096
0.0107122
0.0107105
0.0107048
0.0106953
0.0106822
0.0106655
0.0106457
0.0106228
0.0105971
0.0105689
0.0105384
0.010506
0.0104718
0.010436
0.0103991
0.0103612
0.0103227
0.0102837
0.0102446
0.0102056
0.0101669
0.0101287
0.0100911
0.0100546
0.0100193
0.00998278
0.00994258
0.000490162
0.000437417
0.000391612
0.00034953
0.000307646
0.000266237
0.000225623
0.000185892
0.000147163
0.000109581
7.3288e-05
3.84557e-05
5.26043e-06
-2.61366e-05
-5.55747e-05
-8.28867e-05
-0.000107919
-0.000130528
-0.000150569
-0.000167913
-0.000182443
-0.000194047
-0.000202624
-0.000208083
-0.000210339
-0.000209309
-0.000204923
-0.000197121
-0.000185841
-0.000171029
-0.000152641
-0.000130649
-0.000105028
-7.57542e-05
-4.28128e-05
-6.20275e-06
3.40813e-05
7.80533e-05
0.000125716
0.000177057
0.000232073
0.000290763
0.000353116
0.000419109
0.000488714
0.000561903
0.000638653
0.000718934
0.000802705
0.000889929
0.000980582
0.00107463
0.00117204
0.00127276
0.00137672
0.00148387
0.00159417
0.00170755
0.00182393
0.00194326
0.00206548
0.00219054
0.00231837
0.00244888
0.002582
0.00271765
0.00285575
0.00299618
0.00313885
0.00328366
0.00343053
0.00357937
0.00373007
0.0038825
0.00403653
0.00419205
0.00434893
0.00450706
0.00466629
0.00482651
0.00498756
0.00514932
0.00531164
0.00547437
0.00563733
0.00580038
0.00596337
0.00612613
0.00628849
0.00645027
0.00661129
0.00677139
0.0069304
0.00708817
0.00724451
0.00739924
0.00755218
0.00770318
0.00785207
0.00799866
0.0081428
0.00828431
0.00842301
0.00855874
0.00869135
0.00882068
0.00894655
0.0090688
0.00918729
0.00930188
0.00941246
0.00951889
0.00962107
0.00971888
0.00981223
0.00990101
0.00998517
0.0100646
0.0101393
0.0102092
0.0102741
0.0103342
0.0103892
0.0104394
0.0104846
0.0105248
0.0105601
0.0105905
0.0106161
0.010637
0.0106532
0.0106648
0.0106719
0.0106748
0.0106734
0.010668
0.0106588
0.0106459
0.0106296
0.0106101
0.0105874
0.010562
0.010534
0.0105036
0.0104711
0.0104368
0.0104008
0.0103635
0.010325
0.0102857
0.0102457
0.0102053
0.0101646
0.0101239
0.0100834
0.0100431
0.0100034
0.00996452
0.0099235
0.0098775
0.00054738
0.000488651
0.000438144
0.00039226
0.000347044
0.000302742
0.000259658
0.000217859
0.000177423
0.000138456
0.000101077
6.54222e-05
3.16266e-05
-1.74944e-07
-2.98399e-05
-5.72298e-05
-8.22196e-05
-0.000104686
-0.000124503
-0.000141559
-0.000155753
-0.000166989
-0.000175179
-0.000180242
-0.000182099
-0.000180677
-0.000175917
-0.000167759
-0.000156147
-0.000141033
-0.000122388
-0.000100182
-7.43853e-05
-4.49857e-05
-1.19793e-05
2.46435e-05
6.48954e-05
0.000108782
0.0001563
0.000207443
0.000262212
0.00032061
0.000382622
0.000448217
0.000517378
0.000590084
0.000666306
0.000746008
0.000829157
0.000915727
0.00100569
0.00109902
0.00119567
0.00129558
0.00139871
0.00150501
0.00161442
0.00172687
0.00184231
0.00196067
0.00208191
0.00220597
0.00233278
0.00246225
0.00259432
0.00272891
0.00286592
0.00300526
0.00314681
0.00329052
0.00343628
0.00358402
0.0037336
0.0038849
0.0040378
0.00419219
0.00434795
0.00450496
0.00466308
0.00482218
0.00498213
0.00514279
0.00530401
0.00546564
0.00562753
0.00578952
0.00595147
0.0061132
0.00627453
0.0064353
0.00659533
0.00675445
0.00691252
0.00706936
0.00722479
0.00737862
0.00753069
0.00768083
0.00782889
0.00797468
0.00811804
0.00825878
0.00839674
0.00853178
0.00866372
0.0087924
0.00891766
0.00903932
0.00915724
0.00927131
0.0093814
0.00948738
0.00958912
0.00968652
0.00977949
0.00986794
0.0099518
0.010031
0.0101054
0.0101751
0.0102399
0.0102998
0.0103548
0.0104048
0.01045
0.0104902
0.0105255
0.010556
0.0105817
0.0106026
0.0106189
0.0106307
0.010638
0.0106409
0.0106397
0.0106345
0.0106255
0.0106128
0.0105966
0.0105771
0.0105546
0.0105292
0.0105011
0.0104706
0.0104379
0.0104033
0.0103668
0.0103289
0.0102896
0.0102493
0.010208
0.0101661
0.0101236
0.0100808
0.0100378
0.00999471
0.00995179
0.00990932
0.00986388
0.00981227
0.000603134
0.000538586
0.000483473
0.000433834
0.000385252
0.00033799
0.000292372
0.000248408
0.000206135
0.000165647
0.000127038
9.04014e-05
5.58437e-05
2.34814e-05
-6.57227e-06
-3.42069e-05
-5.93113e-05
-8.17817e-05
-0.000101519
-0.000118425
-0.000132415
-0.000143406
-0.000151325
-0.000156095
-0.00015765
-0.00015593
-0.000150878
-0.000142436
-0.000130557
-0.000115206
-9.63543e-05
-7.39738e-05
-4.80427e-05
-1.85559e-05
1.44899e-05
5.11099e-05
9.13163e-05
0.000135104
0.00018247
0.00023342
0.000287958
0.000346075
0.000407754
0.000472975
0.000541721
0.000613973
0.000689696
0.000768856
0.000851425
0.000937386
0.00102671
0.00111936
0.00121529
0.00131446
0.00141682
0.00152232
0.0016309
0.00174249
0.00185705
0.00197453
0.00209487
0.00221801
0.00234387
0.00247239
0.00260351
0.00273712
0.00287315
0.00301148
0.00315203
0.00329474
0.00343951
0.00358624
0.00373481
0.00388509
0.00403699
0.00419038
0.00434515
0.00450116
0.00465829
0.00481642
0.0049754
0.0051351
0.00529537
0.00545606
0.00561702
0.0057781
0.00593915
0.0061
0.00626047
0.00642037
0.00657957
0.00673789
0.00689517
0.00705124
0.00720591
0.00735901
0.00751037
0.00765983
0.00780721
0.00795235
0.00809507
0.0082352
0.00837258
0.00850706
0.00863847
0.00876665
0.00889142
0.00901262
0.00913012
0.00924379
0.00935351
0.00945913
0.00956054
0.00965763
0.00975032
0.00983853
0.00992217
0.0100012
0.0100754
0.0101449
0.0102096
0.0102694
0.0103243
0.0103743
0.0104194
0.0104596
0.0104949
0.0105254
0.0105511
0.0105721
0.0105884
0.0106002
0.0106076
0.0106106
0.0106094
0.0106043
0.0105953
0.0105826
0.0105664
0.0105469
0.0105242
0.0104987
0.0104704
0.0104396
0.0104065
0.0103713
0.0103342
0.0102954
0.0102552
0.0102136
0.0101709
0.0101273
0.0100829
0.0100379
0.00999236
0.00994635
0.0099002
0.00985417
0.00980441
0.00974741
0.000656899
0.000586711
0.000527116
0.000473766
0.000421826
0.000371592
0.000323382
0.000277174
0.00023298
0.000190865
0.000150896
0.000113141
7.76894e-05
4.46287e-05
1.40428e-05
-1.39758e-05
-3.9332e-05
-6.19437e-05
-8.1731e-05
-9.86131e-05
-0.000112518
-0.00012338
-0.00013113
-0.000135705
-0.000137051
-0.000135117
-0.000129845
-0.000121188
-0.000109109
-9.35795e-05
-7.45688e-05
-5.20562e-05
-2.60342e-05
3.50354e-06
3.6569e-05
7.31714e-05
0.000113312
0.000156987
0.000204202
0.000254965
0.000309276
0.00036712
0.000428485
0.000493354
0.000561714
0.000633537
0.000708789
0.000787442
0.000869476
0.000954872
0.0010436
0.00113561
0.00123087
0.00132935
0.001431
0.00153576
0.00164357
0.00175438
0.00186814
0.00198481
0.00210432
0.00222661
0.00235161
0.00247927
0.00260952