0.05 	0.0003125 	0.005 	0.0327591
0.05 	0.0009375 	0.005 	0.0328019
0.05 	0.0015625 	0.005 	0.0328367
0.05 	0.0021875 	0.005 	0.032866
0.05 	0.0028125 	0.005 	0.0328929
0.05 	0.0034375 	0.005 	0.0329172
0.05 	0.0040625 	0.005 	0.0329386
0.05 	0.0046875 	0.005 	0.0329571
0.05 	0.0053125 	0.005 	0.0329726
0.05 	0.0059375 	0.005 	0.0329849
0.05 	0.0065625 	0.005 	0.032994
0.05 	0.0071875 	0.005 	0.0329996
0.05 	0.0078125 	0.005 	0.0330017
0.05 	0.0084375 	0.005 	0.0329999
0.05 	0.0090625 	0.005 	0.0329941
0.05 	0.0096875 	0.005 	0.0329841
0.05 	0.0103125 	0.005 	0.0329697
0.05 	0.0109375 	0.005 	0.0329505
0.05 	0.0115625 	0.005 	0.0329264
0.05 	0.0121875 	0.005 	0.032897
0.05 	0.0128125 	0.005 	0.032862
0.05 	0.0134375 	0.005 	0.0328212
0.05 	0.0140625 	0.005 	0.0327742
0.05 	0.0146875 	0.005 	0.0327208
0.05 	0.0153125 	0.005 	0.0326604
0.05 	0.0159375 	0.005 	0.0325929
0.05 	0.0165625 	0.005 	0.0325177
0.05 	0.0171875 	0.005 	0.0324346
0.05 	0.0178125 	0.005 	0.0323431
0.05 	0.0184375 	0.005 	0.0322428
0.05 	0.0190625 	0.005 	0.0321333
0.05 	0.0196875 	0.005 	0.0320141
0.05 	0.0203125 	0.005 	0.0318848
0.05 	0.0209375 	0.005 	0.0317449
0.05 	0.0215625 	0.005 	0.0315939
0.05 	0.0221875 	0.005 	0.0314312
0.05 	0.0228125 	0.005 	0.0312564
0.05 	0.0234375 	0.005 	0.0310689
0.05 	0.0240625 	0.005 	0.0308682
0.05 	0.0246875 	0.005 	0.0306536
0.05 	0.0253125 	0.005 	0.0304247
0.05 	0.0259375 	0.005 	0.0301807
0.05 	0.0265625 	0.005 	0.0299211
0.05 	0.0271875 	0.005 	0.0296451
0.05 	0.0278125 	0.005 	0.0293522
0.05 	0.0284375 	0.005 	0.0290417
0.05 	0.0290625 	0.005 	0.0287129
0.05 	0.0296875 	0.005 	0.0283651
0.05 	0.0303125 	0.005 	0.0279975
0.05 	0.0309375 	0.005 	0.0276095
0.05 	0.0315625 	0.005 	0.0272002
0.05 	0.0321875 	0.005 	0.026769
0.05 	0.0328125 	0.005 	0.0263151
0.05 	0.0334375 	0.005 	0.0258376
0.05 	0.0340625 	0.005 	0.0253359
0.05 	0.0346875 	0.005 	0.0248091
0.05 	0.0353125 	0.005 	0.0242564
0.05 	0.0359375 	0.005 	0.0236771
0.05 	0.0365625 	0.005 	0.0230703
0.05 	0.0371875 	0.005 	0.0224353
0.05 	0.0378125 	0.005 	0.0217712
0.05 	0.0384375 	0.005 	0.0210773
0.05 	0.0390625 	0.005 	0.0203528
0.05 	0.0396875 	0.005 	0.0195969
0.05 	0.0403125 	0.005 	0.0188089
0.05 	0.0409375 	0.005 	0.0179881
0.05 	0.0415625 	0.005 	0.0171337
0.05 	0.0421875 	0.005 	0.0162451
0.05 	0.0428125 	0.005 	0.0153217
0.05 	0.0434375 	0.005 	0.0143628
0.05 	0.0440625 	0.005 	0.0133679
0.05 	0.0446875 	0.005 	0.0123364
0.05 	0.0453125 	0.005 	0.011268
0.05 	0.0459375 	0.005 	0.0101621
0.05 	0.0465625 	0.005 	0.00901847
0.05 	0.0471875 	0.005 	0.00783678
0.05 	0.0478125 	0.005 	0.00661684
0.05 	0.0484375 	0.005 	0.00535851
0.05 	0.0490625 	0.005 	0.00406175
0.05 	0.0496875 	0.005 	0.00272661
0.05 	0.0503125 	0.005 	0.00135327
0.05 	0.0509375 	0.005 	-5.80199e-05
0.05 	0.0515625 	0.005 	-0.00150687
0.05 	0.0521875 	0.005 	-0.00299277
0.05 	0.0528125 	0.005 	-0.00451509
0.05 	0.0534375 	0.005 	-0.00607304
0.05 	0.0540625 	0.005 	-0.00766572
0.05 	0.0546875 	0.005 	-0.00929205
0.05 	0.0553125 	0.005 	-0.0109508
0.05 	0.0559375 	0.005 	-0.0126406
0.05 	0.0565625 	0.005 	-0.01436
0.05 	0.0571875 	0.005 	-0.016107
0.05 	0.0578125 	0.005 	-0.01788
0.05 	0.0584375 	0.005 	-0.0196767
0.05 	0.0590625 	0.005 	-0.0214949
0.05 	0.0596875 	0.005 	-0.0233321
0.05 	0.0603125 	0.005 	-0.0251856
0.05 	0.0609375 	0.005 	-0.0270526
0.05 	0.0615625 	0.005 	-0.0289299
0.05 	0.0621875 	0.005 	-0.0308144
0.05 	0.0628125 	0.005 	-0.0327024
0.05 	0.0634375 	0.005 	-0.0345905
0.05 	0.0640625 	0.005 	-0.0364746
0.05 	0.0646875 	0.005 	-0.0383509
0.05 	0.0653125 	0.005 	-0.0402151
0.05 	0.0659375 	0.005 	-0.0420628
0.05 	0.0665625 	0.005 	-0.0438896
0.05 	0.0671875 	0.005 	-0.0456907
0.05 	0.0678125 	0.005 	-0.0474614
0.05 	0.0684375 	0.005 	-0.0491969
0.05 	0.0690625 	0.005 	-0.0508921
0.05 	0.0696875 	0.005 	-0.0525421
0.05 	0.0703125 	0.005 	-0.0541417
0.05 	0.0709375 	0.005 	-0.0556859
0.05 	0.0715625 	0.005 	-0.0571696
0.05 	0.0721875 	0.005 	-0.0585878
0.05 	0.0728125 	0.005 	-0.0599356
0.05 	0.0734375 	0.005 	-0.0612081
0.05 	0.0740625 	0.005 	-0.0624007
0.05 	0.0746875 	0.005 	-0.0635089
0.05 	0.0753125 	0.005 	-0.0645283
0.05 	0.0759375 	0.005 	-0.065455
0.05 	0.0765625 	0.005 	-0.0662853
0.05 	0.0771875 	0.005 	-0.0670159
0.05 	0.0778125 	0.005 	-0.0676437
0.05 	0.0784375 	0.005 	-0.0681663
0.05 	0.0790625 	0.005 	-0.0685816
0.05 	0.0796875 	0.005 	-0.068888
0.05 	0.0803125 	0.005 	-0.0690845
0.05 	0.0809375 	0.005 	-0.0691706
0.05 	0.0815625 	0.005 	-0.0691465
0.05 	0.0821875 	0.005 	-0.069013
0.05 	0.0828125 	0.005 	-0.0687715
0.05 	0.0834375 	0.005 	-0.0684242
0.05 	0.0840625 	0.005 	-0.0679738
0.05 	0.0846875 	0.005 	-0.0674238
0.05 	0.0853125 	0.005 	-0.0667784
0.05 	0.0859375 	0.005 	-0.0660425
0.05 	0.0865625 	0.005 	-0.0652215
0.05 	0.0871875 	0.005 	-0.0643216
0.05 	0.0878125 	0.005 	-0.0633497
0.05 	0.0884375 	0.005 	-0.0623129
0.05 	0.0890625 	0.005 	-0.0612193
0.05 	0.0896875 	0.005 	-0.0600771
0.05 	0.0903125 	0.005 	-0.058895
0.05 	0.0909375 	0.005 	-0.0576822
0.05 	0.0915625 	0.005 	-0.0564479
0.05 	0.0921875 	0.005 	-0.0552016
0.05 	0.0928125 	0.005 	-0.0539528
0.05 	0.0934375 	0.005 	-0.052711
0.05 	0.0940625 	0.005 	-0.0514857
0.05 	0.0946875 	0.005 	-0.0502858
0.05 	0.0953125 	0.005 	-0.0491202
0.05 	0.0959375 	0.005 	-0.0479971
0.05 	0.0965625 	0.005 	-0.0469242
0.05 	0.0971875 	0.005 	-0.045908
0.05 	0.0978125 	0.005 	-0.0449585
0.05 	0.0984375 	0.005 	-0.0440848
0.05 	0.0990625 	0.005 	-0.0432404
0.05 	0.0996875 	0.005 	-0.0423775
