/*--------------------------------*- C++ -*----------------------------------*\
  =========                 |
  \\      /  F ield         | OpenFOAM: The Open Source CFD Toolbox
   \\    /   O peration     | Website:  https://openfoam.org
    \\  /    A nd           | Version:  7
     \\/     M anipulation  |
\*---------------------------------------------------------------------------*/
FoamFile
{
    version     2.0;
    format      ascii;
    class       volScalarField;
    location    "0.25";
    object      p;
}
// * * * * * * * * * * * * * * * * * * * * * * * * * * * * * * * * * * * * * //

dimensions      [0 2 -2 0 0 0 0];

internalField   nonuniform List<scalar> 
25600
(
-2.79632e-09
-3.67404e-06
-1.33888e-05
-2.69486e-05
-4.28114e-05
-6.06959e-05
-8.00546e-05
-0.000100335
-0.000121052
-0.000141776
-0.000162135
-0.000181797
-0.000200472
-0.000217919
-0.000233948
-0.000248397
-0.000261133
-0.000272046
-0.000281046
-0.000288056
-0.000293013
-0.000295872
-0.000296607
-0.000295197
-0.00029163
-0.000285895
-0.000277987
-0.000267906
-0.000255657
-0.000241252
-0.000224711
-0.000206052
-0.000185282
-0.000162407
-0.000137448
-0.000110429
-8.13728e-05
-5.02948e-05
-1.72042e-05
1.78861e-05
5.49553e-05
9.39818e-05
0.000134949
0.000177847
0.000222662
0.00026938
0.000317982
0.000368451
0.000420776
0.000474946
0.000530947
0.000588757
0.000648357
0.000709728
0.000772857
0.000837728
0.00090432
0.00097261
0.00104257
0.00111417
0.00118739
0.00126221
0.0013386
0.00141653
0.00149596
0.00157685
0.00165918
0.00174292
0.00182802
0.00191444
0.00200214
0.00209108
0.0021812
0.00227246
0.00236481
0.00245818
0.00255253
0.00264777
0.00274387
0.00284073
0.0029383
0.00303649
0.00313522
0.00323442
0.003334
0.00343388
0.00353395
0.00363413
0.00373432
0.00383443
0.00393435
0.00403398
0.00413323
0.00423197
0.00433011
0.00442752
0.00452411
0.00461976
0.00471436
0.0048078
0.00489997
0.00499076
0.00508004
0.00516772
0.00525367
0.00533779
0.00541997
0.00550011
0.00557811
0.00565386
0.00572727
0.00579824
0.00586668
0.00593249
0.00599559
0.00605591
0.00611338
0.00616793
0.0062195
0.00626803
0.00631349
0.00635581
0.00639496
0.00643092
0.00646367
0.00649319
0.00651948
0.00654255
0.00656242
0.0065791
0.00659263
0.00660306
0.00661042
0.0066148
0.00661625
0.00661486
0.00661072
0.00660394
0.00659464
0.00658295
0.00656902
0.00655302
0.00653511
0.00651549
0.00649437
0.006472
0.00644862
0.00642453
0.00640003
0.00637547
0.00635124
0.00632777
0.00630556
0.00628513
0.00626709
0.00625209
0.00624078
0.00623375
0.00623145
0.00623318
-4.77573e-06
-8.09935e-06
-1.62207e-05
-2.76182e-05
-4.1236e-05
-5.66413e-05
-7.3402e-05
-9.10482e-05
-0.000109142
-0.000127304
-0.000145195
-0.000162511
-0.000178987
-0.00019439
-0.000208524
-0.000221224
-0.000232352
-0.000241796
-0.000249462
-0.000255269
-0.000259151
-0.000261058
-0.000260949
-0.000258794
-0.000254573
-0.000248278
-0.0002399
-0.000229432
-0.000216869
-0.000202216
-0.000185487
-0.000166697
-0.000145853
-0.000122961
-9.80323e-05
-7.10857e-05
-4.21393e-05
-1.12065e-05
2.17016e-05
5.65709e-05
9.33849e-05
0.000132128
0.000172787
0.000215349
0.000259801
0.000306129
0.000354315
0.000404345
0.000456208
0.000509892
0.00056538
0.000622652
0.000681691
0.000742481
0.000805003
0.000869241
0.000935173
0.00100278
0.00107202
0.00114289
0.00121535
0.00128938
0.00136495
0.00144203
0.00152058
0.00160057
0.00168196
0.00176473
0.00184884
0.00193424
0.00202089
0.00210873
0.00219773
0.00228784
0.00237901
0.00247118
0.00256429
0.00265828
0.00275307
0.00284861
0.00294482
0.00304163
0.00313896
0.00323673
0.00333485
0.00343324
0.00353181
0.00363047
0.00372912
0.00382767
0.00392602
0.00402407
0.00412172
0.00421886
0.00431539
0.00441119
0.00450616
0.0046002
0.00469319
0.00478504
0.00487562
0.00496484
0.00505257
0.00513871
0.00522315
0.00530579
0.00538652
0.00546525
0.00554188
0.00561631
0.00568843
0.00575817
0.00582543
0.00589013
0.00595218
0.00601152
0.00606808
0.00612179
0.0061726
0.00622047
0.00626533
0.00630716
0.00634592
0.00638157
0.00641412
0.00644354
0.00646985
0.00649305
0.00651315
0.00653019
0.0065442
0.00655522
0.00656331
0.00656854
0.00657096
0.00657068
0.00656778
0.00656237
0.00655457
0.00654452
0.00653236
0.00651825
0.00650238
0.00648492
0.00646609
0.00644611
0.00642524
0.00640376
0.00638195
0.00636014
0.00633871
0.00631802
0.00629853
0.00628068
0.00626497
0.00625191
0.00624196
0.00623554
0.00623318
0.00623491
-7.12398e-06
-9.45322e-06
-1.60146e-05
-2.58352e-05
-3.7852e-05
-5.15526e-05
-6.65123e-05
-8.2302e-05
-9.85255e-05
-0.000114826
-0.000130888
-0.000146437
-0.000161229
-0.000175043
-0.00018769
-0.000199004
-0.000208849
-0.00021711
-0.00022369
-0.000228506
-0.000231497
-0.000232607
-0.000231789
-0.000229004
-0.000224229
-0.00021745
-0.00020866
-0.000197846
-0.000185001
-0.000170125
-0.000153225
-0.000134308
-0.000113382
-9.04553e-05
-6.55388e-05
-3.86425e-05
-9.77754e-06
2.10451e-05
5.38112e-05
8.85043e-05
0.000125111
0.000163622
0.000204027
0.000246311
0.000290461
0.00033646
0.000384295
0.000433956
0.000485432
0.000538706
0.00059376
0.000650574
0.000709137
0.000769431
0.00083144
0.000895142
0.000960514
0.00102753
0.00109618
0.00116642
0.00123824
0.0013116
0.00138648
0.00146284
0.00154065
0.00161988
0.0017005
0.00178246
0.00186574
0.00195028
0.00203605
0.002123
0.00221108
0.00230024
0.00239043
0.00248161
0.0025737
0.00266664
0.00276037
0.00285482
0.00294992
0.00304559
0.00314177
0.00323837
0.00333531
0.00343249
0.00352984
0.00362725
0.00372465
0.00382193
0.003919
0.00401577
0.00411213
0.00420797
0.00430319
0.00439769
0.00449136
0.0045841
0.0046758
0.00476636
0.00485566
0.00494361
0.00503009
0.005115
0.00519822
0.00527967
0.00535924
0.00543684
0.00551237
0.00558573
0.00565683
0.00572558
0.00579189
0.00585569
0.0059169
0.00597545
0.00603127
0.00608431
0.00613452
0.00618184
0.00622623
0.00626766
0.00630609
0.0063415
0.00637388
0.00640322
0.00642953
0.00645282
0.0064731
0.00649042
0.0065048
0.00651629
0.00652495
0.00653084
0.00653403
0.00653462
0.00653269
0.00652836
0.00652174
0.00651297
0.0065022
0.00648957
0.00647527
0.00645948
0.00644241
0.00642428
0.00640532
0.00638581
0.00636601
0.00634624
0.00632682
0.00630812
0.00629051
0.0062744
0.00626021
0.00624836
0.00623922
0.00623315
0.00623081
0.00623262
-4.52679e-06
-6.79741e-06
-1.27638e-05
-2.17073e-05
-3.27472e-05
-4.53508e-05
-5.90888e-05
-7.35753e-05
-8.84484e-05
-0.000103375
-0.000118063
-0.000132255
-0.000145723
-0.000158264
-0.0001697
-0.000179874
-0.000188652
-0.000195922
-0.000201582
-0.000205552
-0.000207769
-0.000208178
-0.000206732
-0.000203388
-0.00019812
-0.00019091
-0.000181741
-0.000170602
-0.000157489
-0.000142401
-0.000125336
-0.000106294
-8.52801e-05
-6.23059e-05
-3.73833e-05
-1.05193e-05
1.82833e-05
4.90169e-05
8.1665e-05
0.00011621
0.000152641
0.000190953
0.000231136
0.000273178
0.00031706
0.000362769
0.000410294
0.000459626
0.000510755
0.000563662
0.000618327
0.000674733
0.000732866
0.000792715
0.000854262
0.000917483
0.000982353
0.00104885
0.00111695
0.00118663
0.00125787
0.00133064
0.00140491
0.00148063
0.00155779
0.00163635
0.00171627
0.00179753
0.00188008
0.00196388
0.00204888
0.00213504
0.00222231
0.00231065
0.0024
0.00249031
0.00258152
0.00267356
0.00276637
0.00285988
0.00295403
0.00304873
0.00314392
0.00323952
0.00333543
0.00343158
0.00352788
0.00362423
0.00372056
0.00381676
0.00391275
0.00400843
0.00410369
0.00419843
0.00429255
0.00438594
0.00447851
0.00457015
0.00466076
0.00475024
0.00483847
0.00492535
0.00501078
0.00509465
0.00517686
0.00525731
0.0053359
0.00541255
0.00548715
0.00555961
0.00562985
0.00569777
0.00576329
0.00582633
0.00588683
0.00594471
0.00599992
0.00605239
0.00610208
0.00614894
0.00619293
0.00623401
0.00627216
0.00630736
0.00633959
0.00636885
0.00639515
0.0064185
0.00643893
0.00645647
0.00647114
0.00648301
0.00649213
0.00649856
0.00650238
0.00650367
0.00650254
0.00649908
0.00649342
0.00648568
0.00647602
0.00646459
0.00645156
0.00643711
0.00642144
0.00640475
0.00638729
0.00636929
0.00635103
0.00633278
0.00631485
0.00629756
0.00628126
0.0062663
0.00625304
0.00624186
0.00623309
0.00622704
0.00622438
0.00622562
2.97633e-06
-5.32618e-07
-6.8139e-06
-1.55088e-05
-2.60626e-05
-3.79849e-05
-5.08763e-05
-6.43885e-05
-7.8199e-05
-9.20135e-05
-0.000105566
-0.000118617
-0.000130953
-0.000142388
-0.000152754
-0.000161907
-0.00016972
-0.000176081
-0.000180897
-0.000184087
-0.000185584
-0.000185332
-0.000183283
-0.000179402
-0.000173661
-0.000166034
-0.000156498
-0.00014504
-0.00013166
-0.000116355
-9.91189e-05
-7.99476e-05
-5.88436e-05
-3.5817e-05
-1.08779e-05
1.59693e-05
4.47224e-05
7.53744e-05
0.000107911
0.000142319
0.000178588
0.000216713
0.000256686
0.000298493
0.000342118
0.000387549
0.000434776
0.000483791
0.000534582
0.000587131
0.000641418
0.000697427
0.000755146
0.000814561
0.000875655
0.000938405
0.00100279
0.00106878
0.00113635
0.00120549
0.00127618
0.00134837
0.00142204
0.00149716
0.00157368
0.0016516
0.00173086
0.00181144
0.0018933
0.00197639
0.00206066
0.00214607
0.00223258
0.00232014
0.00240871
0.0024982
0.00258858
0.00267977
0.00277172
0.00286435
0.0029576
0.0030514
0.00314566
0.00324032
0.00333528
0.00343047
0.00352579
0.00362116
0.0037165
0.0038117
0.00390669
0.00400135
0.0040956
0.00418932
0.00428242
0.0043748
0.00446636
0.00455699
0.0046466
0.00473508
0.00482233
0.00490823
0.0049927
0.00507562
0.00515689
0.00523643
0.00531413
0.0053899
0.00546365
0.0055353
0.00560474
0.0056719
0.00573669
0.00579904
0.00585889
0.00591615
0.00597079
0.00602274
0.00607195
0.00611839
0.006162
0.00620276
0.00624065
0.00627564
0.00630772
0.0063369
0.00636318
0.00638658
0.00640713
0.00642485
0.00643978
0.00645198
0.0064615
0.0064684
0.00647277
0.00647469
0.00647425
0.00647156
0.00646674
0.00645993
0.00645125
0.00644086
0.00642894
0.00641565
0.00640119
0.00638575
0.00636956
0.00635284
0.00633585
0.00631885
0.00630211
0.00628593
0.00627061
0.00625646
0.0062438
0.00623296
0.00622421
0.00621787
0.00621447
0.00621439
1.41112e-05
8.67448e-06
1.44884e-06
-7.5167e-06
-1.8007e-05
-2.96277e-05
-4.20199e-05
-5.48716e-05
-6.79026e-05
-8.08571e-05
-9.34985e-05
-0.00010561
-0.000116999
-0.000127491
-0.000136934
-0.000145193
-0.000152146
-0.00015769
-0.000161738
-0.000164214
-0.00016505
-0.000164187
-0.000161578
-0.000157191
-0.000150997
-0.000142966
-0.000133078
-0.000121318
-0.00010768
-9.21575e-05
-7.47455e-05
-5.5441e-05
-3.4246e-05
-1.1166e-05
1.37955e-05
4.06363e-05
6.93509e-05
9.99305e-05
0.000132365
0.000166644
0.000202763
0.000240714
0.000280488
0.00032207
0.000365448
0.000410613
0.000457557
0.000506269
0.000556734
0.000608935
0.000662856
0.000718483
0.000775802
0.0008348
0.000895457
0.00095775
0.00102166
0.00108716
0.00115423
0.00122285
0.001293
0.00136464
0.00143774
0.00151227
0.0015882
0.00166551
0.00174414
0.00182409
0.00190529
0.0019877
0.00207129
0.002156
0.0022418
0.00232863
0.00241645
0.0025052
0.0025948
0.00268521
0.00277635
0.00286816
0.00296059
0.00305355
0.00314696
0.00324075
0.00333484
0.00342913
0.00352356
0.00361803
0.00371246
0.00380675
0.00390082
0.00399456
0.00408788
0.00418068
0.00427285
0.00436431
0.00445494
0.00454466
0.00463337
0.00472094
0.0048073
0.00489232
0.00497591
0.00505797
0.0051384
0.00521711
0.005294
0.00536899
0.00544198
0.00551288
0.00558161
0.00564808
0.00571221
0.00577393
0.00583318
0.00588989
0.00594401
0.00599548
0.00604425
0.00609029
0.00613356
0.00617403
0.00621166
0.00624645
0.00627839
0.00630748
0.00633374
0.00635717
0.0063778
0.00639567
0.00641082
0.00642329
0.00643315
0.00644047
0.00644531
0.00644776
0.00644792
0.0064459
0.00644181
0.00643578
0.00642795
0.00641847
0.00640749
0.00639519
0.00638174
0.00636735
0.00635222
0.00633655
0.00632059
0.00630458
0.00628876
0.00627339
0.00625875
0.00624512
0.00623276
0.00622194
0.00621294
0.00620601
0.00620148
0.00619955
2.7912e-05
2.01576e-05
1.1575e-05
1.9414e-06
-8.85457e-06
-2.0504e-05
-3.26983e-05
-4.51756e-05
-5.76962e-05
-7.0034e-05
-8.19832e-05
-9.33543e-05
-0.000103973
-0.000113683
-0.000122346
-0.000129838
-0.000136046
-0.000140873
-0.000144238
-0.00014607
-0.000146302
-0.00014488
-0.000141761
-0.000136909
-0.000130289
-0.000121876
-0.000111653
-9.96056e-05
-8.57223e-05
-6.99918e-05
-5.24072e-05
-3.29687e-05
-1.16807e-05
1.14559e-05
3.64443e-05
6.32837e-05
9.19666e-05
0.000122483
0.000154824
0.000188986
0.000224965
0.000262754
0.00030234
0.000343709
0.000386853
0.000431766
0.00047844
0.000526862
0.000577015
0.000628885
0.000682455
0.000737714
0.000794651
0.000853249
0.000913488
0.000975345
0.0010388
0.00110383
0.00117042
0.00123855
0.00130819
0.0013793
0.00145186
0.00152584
0.00160121
0.00167794
0.00175599
0.00183533
0.00191592
0.00199771
0.00208066
0.00216473
0.00224987
0.00233603
0.00242317
0.00251121
0.00260011
0.00268979
0.0027802
0.00287127
0.00296294
0.00305513
0.00314777
0.00324077
0.00333406
0.00342755
0.00352117
0.00361482
0.00370843
0.0038019
0.00389514
0.00398806
0.00408055
0.00417251
0.00426386
0.00435449
0.00444431
0.00453322
0.00462111
0.00470789
0.00479344
0.00487768
0.0049605
0.0050418
0.00512148
0.00519945
0.00527563
0.00534992
0.00542222
0.00549247
0.00556055
0.00562641
0.00568995
0.00575111
0.00580983
0.00586604
0.00591969
0.00597073
0.00601911
0.00606479
0.00610775
0.00614793
0.00618534
0.00621994
0.00625174
0.00628074
0.00630695
0.00633039
0.00635108
0.00636907
0.00638438
0.00639709
0.00640723
0.00641488
0.00642011
0.00642301
0.00642368
0.00642222
0.00641874
0.00641336
0.00640624
0.0063975
0.00638731
0.00637582
0.00636321
0.00634966
0.00633537
0.00632054
0.00630537
0.00629009
0.00627493
0.00626012
0.0062459
0.0062325
0.00622016
0.00620912
0.0061996
0.00619182
0.00618588
0.00618177
4.35365e-05
3.3272e-05
2.30893e-05
1.24989e-05
1.1039e-06
-1.08471e-05
-2.30988e-05
-3.54442e-05
-4.76814e-05
-5.96168e-05
-7.10718e-05
-8.18812e-05
-9.18935e-05
-0.000100971
-0.000108986
-0.000115827
-0.000121396
-0.000125602
-0.000128369
-0.000129627
-0.000129315
-0.000127387
-0.000123803
-0.000118522
-0.00011151
-0.000102743
-9.22063e-05
-7.9886e-05
-6.57676e-05
-4.98378e-05
-3.20896e-05
-1.25239e-05
8.85667e-06
3.20548e-05
5.70746e-05
8.39151e-05
0.000112569
0.000143028
0.000175286
0.00020934
0.000245189
0.000282824
0.000322231
0.000363399
0.000406323
0.000450997
0.000497413
0.000545556
0.000595412
0.000646964
0.0007002
0.000755108
0.000811678
0.000869894
0.000929732
0.000991172
0.00105419
0.00111878
0.00118492
0.00125257
0.00132172
0.00139234
0.00146439
0.00153785
0.00161269
0.00168888
0.00176639
0.00184517
0.00192519
0.0020064
0.00208876
0.00217223
0.00225676
0.00234231
0.00242882
0.00251623
0.00260447
0.00269349
0.00278324
0.00287363
0.00296462
0.00305612
0.00314805
0.00324035
0.00333292
0.00342569
0.00351858
0.00361151
0.00370439
0.00379712
0.00388963
0.0039818
0.00407356
0.00416479
0.0042554
0.00434531
0.0044344
0.00452259
0.00460977
0.00469584
0.0047807
0.00486425
0.00494638
0.00502701
0.00510604
0.00518337
0.00525891
0.00533258
0.00540429
0.00547395
0.00554148
0.00560679
0.00566982
0.00573048
0.00578873
0.00584449
0.00589773
0.00594838
0.00599641
0.00604177
0.00608443
0.00612436
0.00616155
0.00619597
0.00622763
0.00625654
0.00628269
0.00630612
0.00632685
0.00634491
0.00636036
0.00637323
0.0063836
0.00639152
0.00639707
0.00640033
0.00640141
0.0064004
0.00639742
0.00639258
0.00638603
0.0063779
0.00636833
0.0063575
0.00634555
0.00633266
0.00631902
0.00630481
0.00629023
0.00627547
0.00626074
0.00624625
0.0062322
0.00621881
0.00620628
0.00619478
0.00618453
0.00617571
0.00616818
0.00616169
6.02844e-05
4.74407e-05
3.55159e-05
2.37811e-05
1.15759e-05
-8.97025e-07
-1.3422e-05
-2.58375e-05
-3.79837e-05
-4.97e-05
-6.08325e-05
-7.12408e-05
-8.07954e-05
-8.93739e-05
-9.68635e-05
-0.000103165
-0.000108192
-0.000111865
-0.000114111
-0.000114864
-0.000114072
-0.000111693
-0.000107685
-0.00010201
-9.46391e-05
-8.55495e-05
-7.47244e-05
-6.21481e-05
-4.78053e-05
-3.16855e-05
-1.37844e-05
5.89963e-06
2.73699e-05
5.06312e-05
7.5685e-05
0.000102528
0.000131155
0.00016156
0.000193743
0.0002277
0.000263426
0.000300913
0.000340149
0.000381128
0.000423844
0.000468292
0.000514461
0.000562337
0.000611906
0.000663155
0.000716072
0.000770648
0.000826868
0.000884716
0.000944171
0.00100521
0.00106782
0.00113199
0.00119769
0.0012649
0.00133359
0.00140374
0.00147531
0.00154829
0.00162263
0.00169832
0.00177532
0.00185358
0.00193307
0.00201375
0.00209557
0.00217849
0.00226247
0.00234745
0.00243339
0.00252022
0.00260787
0.0026963
0.00278544
0.00287523
0.0029656
0.00305648
0.00314779
0.00323945
0.00333138
0.00342351
0.00351576
0.00360805
0.00370028
0.00379237
0.00388423
0.00397575
0.00406686
0.00415745
0.00424743
0.0043367
0.00442516
0.00451272
0.00459928
0.00468474
0.004769
0.00485194
0.00493349
0.00501354
0.00509199
0.00516877
0.00524377
0.00531691
0.0053881
0.00545725
0.00552429
0.00558913
0.0056517
0.00571193
0.00576976
0.00582514
0.00587801
0.00592832
0.00597603
0.0060211
0.00606349
0.00610319
0.00614017
0.00617443
0.00620595
0.00623475
0.00626084
0.00628424
0.00630497
0.00632309
0.00633862
0.00635162
0.00636215
0.00637027
0.00637606
0.00637961
0.00638101
0.00638035
0.00637776
0.00637335
0.00636725
0.00635959
0.00635052
0.00634018
0.00632874
0.00631635
0.00630318
0.00628941
0.00627521
0.00626078
0.00624628
0.00623191
0.00621785
0.00620427
0.00619135
0.00617922
0.00616808
0.00615809
0.00614885
0.00613988
7.75964e-05
6.21603e-05
4.84197e-05
3.54235e-05
2.22613e-05
9.10017e-06
-3.86922e-06
-1.65245e-05
-2.87437e-05
-4.03966e-05
-5.13567e-05
-6.15062e-05
-7.07336e-05
-7.89337e-05
-8.60101e-05
-9.18762e-05
-9.64555e-05
-9.96763e-05
-0.000101472
-0.000101788
-0.000100578
-9.77994e-05
-9.34105e-05
-8.73794e-05
-7.96823e-05
-7.0299e-05
-5.92104e-05
-4.63976e-05
-3.18458e-05
-1.55494e-05
2.49401e-06
2.22899e-05
4.3846e-05
6.71676e-05
9.22541e-05
0.0001191
0.000147702
0.000178058
0.000210171
0.000244036
0.000279647
0.000316993
0.000356067
0.000396865
0.000439384
0.000483617
0.000529551
0.000577172
0.000626466
0.000677425
0.00073004
0.000784299
0.000840186
0.000897683
0.000956771
0.00101743
0.00107966
0.00114343
0.00120872
0.00127551
0.00134377
0.00141347
0.00148459
0.00155711
0.001631
0.00170623
0.00178275
0.00186053
0.00193954
0.00201972
0.00210105
0.00218347
0.00226695
0.00235143
0.00243685
0.00252315
0.00261028
0.00269817
0.00278678
0.00287603
0.00296586
0.00305618
0.00314694
0.00323804
0.00332941
0.00342098
0.00351267
0.00360439
0.00369607
0.0037876
0.00387889
0.00396986
0.00406041
0.00415045
0.00423988
0.00432861
0.00441653
0.00450356
0.0045896
0.00467453
0.00475827
0.00484071
0.00492176
0.00500131
0.00507928
0.00515558
0.00523012
0.00530281
0.00537356
0.00544228
0.0055089
0.00557333
0.00563551
0.00569537
0.00575285
0.00580788
0.00586043
0.00591044
0.00595787
0.00600268
0.00604484
0.00608432
0.00612111
0.0061552
0.00618659
0.00621528
0.00624129
0.00626464
0.00628536
0.00630349
0.00631907
0.00633214
0.00634278
0.00635105
0.00635702
0.00636077
0.0063624
0.00636201
0.00635971
0.00635562
0.00634985
0.00634254
0.00633383
0.00632385
0.00631276
0.00630071
0.00628786
0.00627437
0.00626039
0.00624611
0.00623167
0.00621725
0.006203
0.00618908
0.00617561
0.00616272
0.00615058
0.00613931
0.0061283
0.00611686
9.50085e-05
7.7007e-05
6.14197e-05
4.70865e-05
3.28654e-05
1.88991e-05
5.35432e-06
-7.67836e-06
-2.01058e-05
-3.1829e-05
-4.27473e-05
-5.27605e-05
-6.1775e-05
-6.97049e-05
-7.64702e-05
-8.19962e-05
-8.62133e-05
-8.9057e-05
-9.04734e-05
-9.0417e-05
-8.88443e-05
-8.57133e-05
-8.09882e-05
-7.4642e-05
-6.66539e-05
-5.70047e-05
-4.56744e-05
-3.26444e-05
-1.79037e-05
-1.44806e-06
1.67267e-05
3.66288e-05
5.82664e-05
8.16434e-05
0.000106758
0.000133605
0.000162184
0.000192496
0.000224543
0.00025832
0.000293819
0.000331031
0.000369951
0.000410579
0.000452911
0.000496938
0.000542646
0.000590022
0.000639056
0.000689741
0.000742067
0.000796024
0.000851593
0.000908756
0.000967498
0.0010278
0.00108966
0.00115305
0.00121796
0.00128435
0.00135221
0.0014215
0.0014922
0.0015643
0.00163777
0.00171256
0.00178865
0.001866
0.00194456
0.0020243
0.00210518
0.00218716
0.00227018
0.0023542
0.00243916
0.002525
0.00261165
0.00269908
0.00278721
0.00287599
0.00296534
0.00305519
0.00314546
0.00323608
0.00332697
0.00341806
0.00350927
0.00360051
0.00369171
0.00378276
0.00387359
0.00396409
0.00405417
0.00414374
0.00423272
0.00432099
0.00440847
0.00449506
0.00458065
0.00466516
0.00474847
0.00483048
0.00491112
0.00499026
0.00506784
0.00514375
0.0052179
0.00529021
0.00536059
0.00542896
0.00549523
0.00555932
0.00562117
0.00568072
0.00573789
0.00579264
0.00584491
0.00589466
0.00594184
0.00598642
0.00602837
0.00606765
0.00610427
0.0061382
0.00616946
0.00619803
0.00622395
0.00624724
0.00626791
0.00628602
0.00630161
0.00631472
0.00632542
0.00633377
0.00633984
0.00634373
0.00634552
0.00634531
0.0063432
0.00633932
0.00633378
0.00632671
0.00631823
0.00630849
0.00629762
0.00628577
0.00627309
0.00625973
0.00624583
0.00623154
0.00621702
0.0062024
0.00618782
0.00617341
0.00615929
0.00614554
0.0061323
0.00611971
0.00610691
0.00609303
0.000112115
9.16122e-05
7.41792e-05
5.84642e-05
4.31168e-05
2.82613e-05
1.40443e-05
5.27898e-07
-1.22202e-05
-2.41254e-05
-3.51098e-05
-4.50926e-05
-5.39974e-05
-6.17544e-05
-6.82993e-05
-7.35678e-05
-7.74982e-05
-8.00384e-05
-8.11448e-05
-8.07758e-05
-7.88902e-05
-7.54528e-05
-7.04352e-05
-6.38146e-05
-5.55708e-05
-4.56832e-05
-3.41328e-05
-2.09069e-05
-5.99821e-06
1.05992e-05
2.88938e-05
4.88948e-05
7.06078e-05
9.40335e-05
0.00011917
0.000146016
0.000174573
0.000204845
0.00023683
0.00027052
0.000305909
0.000342993
0.000381769
0.000422237
0.00046439
0.000508218
0.000553709
0.000600852
0.000649639
0.000700064
0.000752118
0.000805785
0.00086105
0.000917897
0.000976313
0.00103628
0.0010978
0.00116084
0.00122538
0.0012914
0.00135888
0.00142779
0.00149811
0.00156982
0.0016429
0.0017173
0.00179299
0.00186994
0.0019481
0.00202744
0.00210792
0.0021895
0.00227212
0.00235574
0.00244028
0.00252571
0.00261196
0.00269898
0.00278671
0.00287508
0.00296402
0.00305345
0.00314332
0.00323353
0.00332401
0.0034147
0.00350551
0.00359636
0.00368716
0.00377783
0.00386826
0.00395838
0.00404808
0.00413728
0.00422588
0.00431379
0.00440091
0.00448715
0.00457239
0.00465655
0.00473952
0.0048212
0.00490151
0.00498033
0.00505759
0.00513319
0.00520703
0.00527905
0.00534913
0.00541721
0.00548319
0.00554701
0.0056086
0.00566789
0.00572481
0.00577931
0.00583135
0.00588088
0.00592785
0.00597223
0.00601398
0.0060531
0.00608955
0.00612333
0.00615445
0.00618291
0.00620873
0.00623193
0.00625254
0.0062706
0.00628616
0.00629926
0.00630997
0.00631834
0.00632446
0.00632842
0.00633028
0.00633017
0.00632817
0.00632441
0.006319
0.00631205
0.0063037
0.00629408
0.00628331
0.00627154
0.0062589
0.00624553
0.00623157
0.00621716
0.00620242
0.00618748
0.00617245
0.00615746
0.00614258
0.00612789
0.00611352
0.00609958
0.00608503
0.0060688
0.000128569
0.000105645
8.63926e-05
6.92827e-05
5.27674e-05
3.69624e-05
2.20029e-05
7.92154e-06
-5.23745e-06
-1.74158e-05
-2.85557e-05
-3.85981e-05
-4.74833e-05
-5.5155e-05
-6.15593e-05
-6.66423e-05
-7.03565e-05
-7.26621e-05
-7.35203e-05
-7.28923e-05
-7.07431e-05
-6.70455e-05
-6.1778e-05
-5.49207e-05
-4.64528e-05
-3.63536e-05
-2.46087e-05
-1.12109e-05
3.84591e-06
2.05704e-05
3.89735e-05
5.90633e-05
8.08422e-05
0.000104308
0.000129462
0.000156304
0.000184841
0.000215073
0.000246995
0.0002806
0.000315884
0.000352846
0.000391486
0.0004318
0.000473782
0.00051742
0.000562702
0.000609623
0.000658176
0.000708356
0.000760151
0.000813544
0.00086852
0.000925068
0.000983178
0.00104284
0.00110403
0.00116674
0.00123094
0.00129662
0.00136374
0.0014323
0.00150228
0.00157364
0.00164636
0.0017204
0.00179573
0.00187232
0.00195013
0.00202912
0.00210924
0.00219047
0.00227274
0.002356
0.00244019
0.00252527
0.00261117
0.00269784
0.00278522
0.00287325
0.00296184
0.00305094
0.00314047
0.00323034
0.0033205
0.00341087
0.00350136
0.00359189
0.00368238
0.00377274
0.00386287
0.00395269
0.0040421
0.00413101
0.00421933
0.00430697
0.00439382
0.00447978
0.00456476
0.00464866
0.00473137
0.00481281
0.00489286
0.00497145
0.00504847
0.00512383
0.00519745
0.00526923
0.0053391
0.00540695
0.00547272
0.00553633
0.00559771
0.00565679
0.00571352
0.00576783
0.00581968
0.00586902
0.00591581
0.00596001
0.0060016
0.00604056
0.00607686
0.0061105
0.00614148
0.00616982
0.00619553
0.00621863
0.00623915
0.00625714
0.00627263
0.00628568
0.00629635
0.0063047
0.00631081
0.00631476
0.00631664
0.00631654
0.00631457
0.00631084
0.00630546
0.00629855
0.00629022
0.0062806
0.00626983
0.00625802
0.00624531
0.00623182
0.00621769
0.00620303
0.00618796
0.00617259
0.00615704
0.00614138
0.00612568
0.00611001
0.00609447
0.00607918
0.00606293
0.00604446
0.000144068
0.000118813
9.77868e-05
7.92895e-05
6.15875e-05
4.47955e-05
2.90411e-05
1.43331e-05
6.95561e-07
-1.18296e-05
-2.32012e-05
-3.33792e-05
-4.23213e-05
-4.99811e-05
-5.63136e-05
-6.12792e-05
-6.48445e-05
-6.6976e-05
-6.76386e-05
-6.68009e-05
-6.44367e-05
-6.05253e-05
-5.50489e-05
-4.79883e-05
-3.93244e-05
-2.90414e-05
-1.71303e-05
-3.58544e-06
1.16012e-05
2.84397e-05
4.69394e-05
6.71055e-05
8.89381e-05
0.000112436
0.000137602
0.000164441
0.000192956
0.000223146
0.000255004
0.000288525
0.000323708
0.000360555
0.000399064
0.000439231
0.000481047
0.000524501
0.000569586
0.000616297
0.000664629
0.000714576
0.000766124
0.000819256
0.000873961
0.00093023
0.000988053
0.00104742
0.00110831
0.00117072
0.00123461
0.00129996
0.00136677
0.00143501
0.00150467
0.00157571
0.00164811
0.00172183
0.00179684
0.00187311
0.00195061
0.00202928
0.00210911
0.00219002
0.00227199
0.00235494
0.00243884
0.00252362
0.00260923
0.00269562
0.00278272
0.00287046
0.00295879
0.00304761
0.00313687
0.00322649
0.00331639
0.00340651
0.00349676
0.00358706
0.00367732
0.00376746
0.00385737
0.00394697
0.00403617
0.00412489
0.00421301
0.00430046
0.00438712
0.0044729
0.0045577
0.00464143
0.00472397
0.00480523
0.00488512
0.00496355
0.00504041
0.00511562
0.00518908
0.00526071
0.00533042
0.00539813
0.00546374
0.0055272
0.00558843
0.00564736
0.00570393
0.0057581
0.0058098
0.00585899
0.00590563
0.00594969
0.00599114
0.00602995
0.00606611
0.00609962
0.00613047
0.00615868
0.00618427
0.00620725
0.00622767
0.00624555
0.00626095
0.00627391
0.00628449
0.00629277
0.00629881
0.0063027
0.00630452
0.00630437
0.00630235
0.00629857
0.00629313
0.00628616
0.00627776
0.00626806
0.00625717
0.00624523
0.00623234
0.00621863
0.00620422
0.00618922
0.00617374
0.00615786
0.00614169
0.0061253
0.00610874
0.00609205
0.00607535
0.00605874
0.00604084
0.00602025
0.000158356
0.000130864
0.000108116
8.8253e-05
6.93665e-05
5.15662e-05
3.49801e-05
1.96023e-05
5.43609e-06
-7.49482e-06
-1.91629e-05
-2.95422e-05
-3.86031e-05
-4.63107e-05
-5.26335e-05
-5.75456e-05
-6.10208e-05
-6.30299e-05
-6.35453e-05
-6.25452e-05
-6.00121e-05
-5.59299e-05
-5.02815e-05
-4.30488e-05
-3.42177e-05
-2.37801e-05
-1.17303e-05
1.9394e-06
1.72389e-05
3.41771e-05
5.27596e-05
7.29881e-05
9.48623e-05
0.000118384
0.000143559
0.000170392
0.000198882
0.000229025
0.000260817
0.000294256
0.000329343
0.00036608
0.000404464
0.000444488
0.000486142
0.000529421
0.000574319
0.000620833
0.000668957
0.000718682
0.000769994
0.00082288
0.000877331
0.00093334
0.000990899
0.00104999
0.00111061
0.00117273
0.00123633
0.0013014
0.00136792
0.00143587
0.00150524
0.001576
0.00164811
0.00172155
0.00179628
0.00187227
0.0019495
0.00202791
0.00210747
0.00218813
0.00226984
0.00235254
0.00243619
0.00252074
0.00260612
0.00269228
0.00277916
0.00286669
0.0029548
0.00304343
0.00313249
0.00322192
0.00331165
0.0034016
0.00349169
0.00358183
0.00367194
0.00376193
0.00385171
0.00394118
0.00403026
0.00411886
0.00420687
0.00429421
0.00438077
0.00446646
0.00455117
0.0046348
0.00471725
0.00479843
0.00487823
0.00495658
0.00503336
0.00510849
0.00518187
0.00525342
0.00532304
0.00539066
0.00545619
0.00551955
0.00558068
0.00563952
0.00569599
0.00575005
0.00580164
0.00585072
0.00589725
0.00594119
0.00598251
0.0060212
0.00605723
0.00609061
0.00612133
0.00614941
0.00617487
0.00619772
0.00621801
0.00623576
0.00625103
0.00626387
0.00627433
0.00628248
0.0062884
0.00629217
0.00629387
0.0062936
0.00629146
0.00628755
0.00628198
0.00627487
0.00626631
0.00625643
0.00624535
0.00623317
0.00622002
0.006206
0.00619123
0.0061758
0.00615982
0.00614337
0.00612653
0.00610936
0.0060919
0.00607419
0.00605634
0.00603843
0.00601896
0.00599639
0.000171213
0.000141581
0.000117165
9.59659e-05
7.59063e-05
5.7092e-05
3.96546e-05
2.35764e-05
8.84315e-06
-4.539e-06
-1.65554e-05
-2.71885e-05
-3.6419e-05
-4.42281e-05
-5.05983e-05
-5.55107e-05
-5.8944e-05
-6.08771e-05
-6.12921e-05
-6.01757e-05
-5.75161e-05
-5.32999e-05
-4.75116e-05
-4.01377e-05
-3.11712e-05
-2.06083e-05
-8.44347e-06
5.33199e-06
2.07275e-05
3.77491e-05
5.63983e-05
7.66748e-05
9.85801e-05
0.00012212
0.000147299
0.00017412
0.000202579
0.000232673
0.000264398
0.000297757
0.000332752
0.000369383
0.000407644
0.000447528
0.000489028
0.00053214
0.000576861
0.000623189
0.000671115
0.000720629
0.000771718
0.000824374
0.000878589
0.000934358
0.000991672
0.00105052
0.00111088
0.00117274
0.00123608
0.00130089
0.00136715
0.00143485
0.00150396
0.00157447
0.00164633
0.00171952
0.00179401
0.00186977
0.00194676
0.00202496
0.0021043
0.00218474
0.00226624
0.00234875
0.00243221
0.00251657
0.00260178
0.00268777
0.0027745
0.00286188
0.00294985
0.00303834
0.00312728
0.0032166
0.00330622
0.00339608
0.00348608
0.00357615
0.0036662
0.00375612
0.00384585
0.00393527
0.00402432
0.00411288
0.00420087
0.00428819
0.00437473
0.0044604
0.0045451
0.00462871
0.00471116
0.00479233
0.00487213
0.00495047
0.00502725
0.00510237
0.00517575
0.00524728
0.00531689
0.00538448
0.00544998
0.00551331
0.0055744
0.00563319
0.00568961
0.00574361
0.00579513
0.00584414
0.00589058
0.00593443
0.00597565
0.00601423
0.00605014
0.0060834
0.00611399
0.00614194
0.00616725
0.00618996
0.0062101
0.0062277
0.00624281
0.00625549
0.00626579
0.00627378
0.00627953
0.00628312
0.00628464
0.00628419
0.00628186
0.00627776
0.00627198
0.00626464
0.00625585
0.00624571
0.00623435
0.00622186
0.00620836
0.00619396
0.00617875
0.00616283
0.00614628
0.0061292
0.00611164
0.00609366
0.00607529
0.00605656
0.00603757
0.00601842
0.00599746
0.00597303
0.000182442
0.000150768
0.000124746
0.00010224
8.10264e-05
6.1207e-05
4.29103e-05
2.61097e-05
1.07796e-05