/*--------------------------------*- C++ -*----------------------------------*\
  =========                 |
  \\      /  F ield         | OpenFOAM: The Open Source CFD Toolbox
   \\    /   O peration     | Website:  https://openfoam.org
    \\  /    A nd           | Version:  7
     \\/     M anipulation  |
\*---------------------------------------------------------------------------*/
FoamFile
{
    version     2.0;
    format      ascii;
    class       surfaceScalarField;
    location    "0.25";
    object      phi;
}
// * * * * * * * * * * * * * * * * * * * * * * * * * * * * * * * * * * * * * //

dimensions      [0 3 -1 0 0 0 0];

internalField   nonuniform List<scalar> 
50880
(
9.47047e-12
-9.45791e-12
3.05829e-11
-2.11138e-11
4.99491e-11
-1.93622e-11
6.21843e-11
-1.2239e-11
6.37816e-11
-1.59658e-12
5.31021e-11
1.06787e-11
2.95486e-11
2.35532e-11
-6.91324e-12
3.64598e-11
-5.59603e-11
4.90467e-11
-1.17064e-10
6.11032e-11
-1.89567e-10
7.25032e-11
-2.72744e-10
8.31784e-11
-3.65849e-10
9.31029e-11
-4.68125e-10
1.02276e-10
-5.7883e-10
1.10703e-10
-6.9724e-10
1.18411e-10
-8.22664e-10
1.25426e-10
-9.54437e-10
1.31773e-10
-1.09193e-09
1.3749e-10
-1.23454e-09
1.42615e-10
-1.38172e-09
1.47179e-10
-1.53294e-09
1.51216e-10
-1.6877e-09
1.54761e-10
-1.84556e-09
1.57852e-10
-2.00607e-09
1.6052e-10
-2.16886e-09
1.62787e-10
-2.33355e-09
1.64686e-10
-2.4998e-09
1.66249e-10
-2.6673e-09
1.67496e-10
-2.83575e-09
1.68454e-10
-3.00489e-09
1.69145e-10
-3.17448e-09
1.69589e-10
-3.34429e-09
1.69806e-10
-3.5141e-09
1.69812e-10
-3.68373e-09
1.69622e-10
-3.85298e-09
1.69251e-10
-4.0217e-09
1.68718e-10
-4.18973e-09
1.68031e-10
-4.35693e-09
1.67196e-10
-4.52315e-09
1.66223e-10
-4.68827e-09
1.65122e-10
-4.85217e-09
1.639e-10
-5.01474e-09
1.62565e-10
-5.17586e-09
1.61121e-10
-5.33542e-09
1.59567e-10
-5.49333e-09
1.57906e-10
-5.64947e-09
1.56144e-10
-5.80376e-09
1.54286e-10
-5.95609e-09
1.52329e-10
-6.10636e-09
1.50272e-10
-6.25448e-09
1.48116e-10
-6.40034e-09
1.45861e-10
-6.54384e-09
1.43506e-10
-6.6849e-09
1.41051e-10
-6.82339e-09
1.38492e-10
-6.95921e-09
1.35828e-10
-7.09227e-09
1.33055e-10
-7.22244e-09
1.30171e-10
-7.34962e-09
1.27177e-10
-7.47369e-09
1.24072e-10
-7.59455e-09
1.20852e-10
-7.71206e-09
1.17512e-10
-7.8261e-09
1.14047e-10
-7.93656e-09
1.10458e-10
-8.0433e-09
1.06743e-10
-8.14621e-09
1.02904e-10
-8.24515e-09
9.89363e-11
-8.33998e-09
9.48364e-11
-8.43058e-09
9.06008e-11
-8.51681e-09
8.62293e-11
-8.59853e-09
8.17229e-11
-8.67562e-09
7.70818e-11
-8.74792e-09
7.23049e-11
-8.81531e-09
6.73905e-11
-8.87765e-09
6.23386e-11
-8.9348e-09
5.71505e-11
-8.98663e-09
5.18272e-11
-9.033e-09
4.63707e-11
-9.07379e-09
4.07831e-11
-9.10885e-09
3.50663e-11
-9.13808e-09
2.92228e-11
-9.16133e-09
2.32557e-11
-9.1785e-09
1.71692e-11
-9.18947e-09
1.09678e-11
-9.19412e-09
4.65581e-12
-9.19236e-09
-1.76201e-12
-9.18408e-09
-8.27901e-12
-9.16919e-09
-1.48879e-11
-9.14761e-09
-2.15818e-11
-9.11926e-09
-2.83536e-11
-9.08406e-09
-3.51958e-11
-9.04196e-09
-4.20995e-11
-8.99291e-09
-4.90546e-11
-8.93686e-09
-5.60508e-11
-8.87378e-09
-6.30772e-11
-8.80366e-09
-7.01223e-11
-8.72649e-09
-7.71746e-11
-8.64226e-09
-8.42223e-11
-8.55101e-09
-9.1253e-11
-8.45276e-09
-9.82529e-11
-8.34755e-09
-1.05207e-10
-8.23545e-09
-1.12101e-10
-8.11653e-09
-1.1892e-10
-7.99088e-09
-1.25648e-10
-7.85861e-09
-1.3227e-10
-7.71984e-09
-1.3877e-10
-7.57471e-09
-1.45129e-10
-7.42338e-09
-1.51333e-10
-7.26602e-09
-1.57363e-10
-7.10281e-09
-1.63203e-10
-6.93398e-09
-1.68834e-10
-6.75974e-09
-1.7424e-10
-6.58034e-09
-1.79401e-10
-6.39603e-09
-1.843e-10
-6.20712e-09
-1.88918e-10
-6.01388e-09
-1.93238e-10
-5.81663e-09
-1.97244e-10
-5.61572e-09
-2.00916e-10
-5.41148e-09
-2.04238e-10
-5.20429e-09
-2.07191e-10
-4.99453e-09
-2.09761e-10
-4.7826e-09
-2.11929e-10
-4.56892e-09
-2.1368e-10
-4.35393e-09
-2.14996e-10
-4.13806e-09
-2.15862e-10
-3.9218e-09
-2.16266e-10
-3.7056e-09
-2.16191e-10
-3.48998e-09
-2.15625e-10
-3.27542e-09
-2.14555e-10
-3.06245e-09
-2.12968e-10
-2.8516e-09
-2.10853e-10
-2.6434e-09
-2.08198e-10
-2.43841e-09
-2.04991e-10
-2.23719e-09
-2.01224e-10
-2.0403e-09
-1.96888e-10
-1.84833e-09
-1.91974e-10
-1.66185e-09
-1.86474e-10
-1.48147e-09
-1.80381e-10
-1.30778e-09
-1.73692e-10
-1.14138e-09
-1.66402e-10
-9.82871e-10
-1.58506e-10
-8.32867e-10
-1.50004e-10
-6.9197e-10
-1.40897e-10
-5.6078e-10
-1.31188e-10
-4.39895e-10
-1.20886e-10
-3.29895e-10
-1.10001e-10
-2.31344e-10
-9.85515e-11
-1.44778e-10
-8.65669e-11
-7.06887e-11
-7.40891e-11
-9.50956e-12
-6.11797e-11
3.84204e-11
-4.79306e-11
7.28961e-11
-3.44754e-11
9.39132e-11
-2.1016e-11
1.01775e-10
-7.86173e-12
9.72625e-11
4.51198e-12
8.19093e-11
1.53523e-11
5.84272e-11
2.34819e-11
3.14193e-11
2.70083e-11
8.53255e-12
2.2887e-11
8.532e-12
1.84702e-11
-2.79294e-11
4.92825e-11
-5.19304e-11
7.39868e-11
-4.40645e-11
7.99186e-11
-1.81688e-11
5.97232e-11
1.85983e-11
9.027e-12
6.13773e-11
-7.4383e-11
1.06963e-10
-1.91199e-10
1.53277e-10
-3.41122e-10
1.98969e-10
-5.23196e-10
2.43174e-10
-7.36034e-10
2.8534e-10
-9.77996e-10
3.25137e-10
-1.24728e-09
3.62391e-10
-1.54202e-09
3.97014e-10
-1.86032e-09
4.29002e-10
-2.20031e-09
4.58393e-10
-2.56014e-09
4.85254e-10
-2.93804e-09
5.09675e-10
-3.33232e-09
5.3176e-10
-3.74133e-09
5.51625e-10
-4.16353e-09
5.69387e-10
-4.59747e-09
5.85159e-10
-5.04178e-09
5.99068e-10
-5.49516e-09
6.11235e-10
-5.95642e-09
6.21768e-10
-6.4244e-09
6.30776e-10
-6.89808e-09
6.38367e-10
-7.37648e-09
6.44642e-10
-7.85868e-09
6.49695e-10
-8.34384e-09
6.53616e-10
-8.83119e-09
6.56489e-10
-9.31999e-09
6.58392e-10
-9.80959e-09
6.59398e-10
-1.02993e-08
6.59572e-10
-1.07887e-08
6.5897e-10
-1.12771e-08
6.57651e-10
-1.1764e-08
6.55671e-10
-1.22491e-08
6.53071e-10
-1.27318e-08
6.49889e-10
-1.32117e-08
6.46159e-10
-1.36885e-08
6.41912e-10
-1.41618e-08
6.37178e-10
-1.46312e-08
6.31982e-10
-1.50964e-08
6.26341e-10
-1.55571e-08
6.20269e-10
-1.6013e-08
6.13779e-10
-1.64637e-08
6.06882e-10
-1.6909e-08
5.99587e-10
-1.73486e-08
5.91896e-10
-1.77821e-08
5.83812e-10
-1.82094e-08
5.75337e-10
-1.863e-08
5.66467e-10
-1.90437e-08
5.57202e-10
-1.94502e-08
5.47538e-10
-1.98491e-08
5.3747e-10
-2.02403e-08
5.2699e-10
-2.06233e-08
5.16091e-10
-2.09979e-08
5.04764e-10
-2.13638e-08
4.93004e-10
-2.17205e-08
4.80801e-10
-2.20678e-08
4.68147e-10
-2.24053e-08
4.55035e-10
-2.27327e-08
4.41454e-10
-2.30496e-08
4.27396e-10
-2.33558e-08
4.12852e-10
-2.36507e-08
3.97817e-10
-2.3934e-08
3.82285e-10
-2.42054e-08
3.66248e-10
-2.44645e-08
3.49702e-10
-2.47109e-08
3.32641e-10
-2.49443e-08
3.15062e-10
-2.51642e-08
2.96962e-10
-2.53702e-08
2.78341e-10
-2.5562e-08
2.59199e-10
-2.57392e-08
2.39539e-10
-2.59014e-08
2.19363e-10
-2.60483e-08
1.98674e-10
-2.61794e-08
1.77478e-10
-2.62944e-08
1.55784e-10
-2.63929e-08
1.336e-10
-2.64746e-08
1.10939e-10
-2.65392e-08
8.78128e-11
-2.65863e-08
6.42358e-11
-2.66155e-08
4.02246e-11
-2.66266e-08
1.57979e-11
-2.66194e-08
-9.02405e-12
-2.65934e-08
-3.4218e-11
-2.65486e-08
-5.97576e-11
-2.64845e-08
-8.56155e-11
-2.64011e-08
-1.11763e-10
-2.62982e-08
-1.38169e-10
-2.61755e-08
-1.64799e-10
-2.60329e-08
-1.91618e-10
-2.58704e-08
-2.18586e-10
-2.56878e-08
-2.45661e-10
-2.54851e-08
-2.72802e-10
-2.52623e-08
-2.99962e-10
-2.50194e-08
-3.27095e-10
-2.47565e-08
-3.54151e-10
-2.44737e-08
-3.8108e-10
-2.41711e-08
-4.07827e-10
-2.38489e-08
-4.34336e-10
-2.35072e-08
-4.6055e-10
-2.31465e-08
-4.8641e-10
-2.27669e-08
-5.11856e-10
-2.23688e-08
-5.36826e-10
-2.19527e-08
-5.61255e-10
-2.15189e-08
-5.85081e-10
-2.10681e-08
-6.08237e-10
-2.06006e-08
-6.30657e-10
-2.01172e-08
-6.52275e-10
-1.96184e-08
-6.73022e-10
-1.9105e-08
-6.9283e-10
-1.85776e-08
-7.1163e-10
-1.80372e-08
-7.29355e-10
-1.74845e-08
-7.45936e-10
-1.69204e-08
-7.61308e-10
-1.63459e-08
-7.75401e-10
-1.5762e-08
-7.88149e-10
-1.51697e-08
-7.99487e-10
-1.45702e-08
-8.09349e-10
-1.39644e-08
-8.17671e-10
-1.33537e-08
-8.24393e-10
-1.27392e-08
-8.29454e-10
-1.21223e-08
-8.32796e-10
-1.15042e-08
-8.34363e-10
-1.08863e-08
-8.341e-10
-1.027e-08
-8.31955e-10
-9.65664e-09
-8.27878e-10
-9.04778e-09
-8.21824e-10
-8.44489e-09
-8.13747e-10
-7.84948e-09
-8.03605e-10
-7.26311e-09
-7.91359e-10
-6.68736e-09
-7.76973e-10
-6.12384e-09
-7.60415e-10
-5.57416e-09
-7.41655e-10
-5.03996e-09
-7.20669e-10
-4.52291e-09
-6.97437e-10
-4.02465e-09
-6.71942e-10
-3.54688e-09
-6.44177e-10
-3.09124e-09
-6.14139e-10
-2.65941e-09
-5.81832e-10
-2.25304e-09
-5.47273e-10
-1.87373e-09
-5.10492e-10
-1.52308e-09
-4.71537e-10
-1.2026e-09
-4.30479e-10
-9.13735e-10
-3.8742e-10
-6.57797e-10
-3.42504e-10
-4.35948e-10
-2.95937e-10
-2.4912e-10
-2.48008e-10
-9.7933e-11
-1.99118e-10
1.74325e-11
-1.49841e-10
9.74101e-11
-1.00993e-10
1.43292e-10
-5.37433e-11
1.5759e-10
-9.78502e-12
1.44514e-10
2.84279e-11
1.10632e-10
5.73634e-11
6.56221e-11
7.20177e-11
2.28493e-11
6.56599e-11
3.13814e-11
1.9501e-11
-4.74264e-11
4.33426e-11
-7.57687e-11
5.18286e-11
-5.25493e-11
3.04307e-11
3.22693e-12
-3.03664e-11
7.93962e-11
-1.36567e-10
1.67575e-10
-2.91482e-10
2.61878e-10
-4.96455e-10
3.5825e-10
-7.51409e-10
4.53923e-10
-1.05527e-09
5.47034e-10
-1.40627e-09
6.36346e-10
-1.80221e-09
7.21072e-10
-2.24056e-09
8.0074e-10
-2.71864e-09
8.75099e-10
-3.2337e-09
9.44057e-10
-3.78294e-09
1.00763e-09
-4.36361e-09
1.06593e-09
-4.97302e-09
1.11909e-09
-5.60857e-09
1.1673e-09
-6.26773e-09
1.21079e-09
-6.94813e-09
1.24978e-09
-7.64747e-09
1.2845e-09
-8.36361e-09
1.31521e-09
-9.09451e-09
1.34214e-09
-9.83826e-09
1.36551e-09
-1.05931e-08
1.38558e-09
-1.13572e-08
1.40254e-09
-1.21292e-08
1.41662e-09
-1.29075e-08
1.42802e-09
-1.36908e-08
1.43692e-09
-1.44779e-08
1.4435e-09
-1.52674e-08
1.44794e-09
-1.60584e-08
1.45039e-09
-1.68498e-08
1.45098e-09
-1.76407e-08
1.44985e-09
-1.84302e-08
1.44712e-09
-1.92174e-08
1.4429e-09
-2.00016e-08
1.43729e-09
-2.07821e-08
1.43037e-09
-2.15582e-08
1.42223e-09
-2.23292e-08
1.41292e-09
-2.30945e-08
1.40252e-09
-2.38536e-08
1.39107e-09
-2.46059e-08
1.37861e-09
-2.53508e-08
1.36519e-09
-2.60878e-08
1.35083e-09
-2.68165e-08
1.33555e-09
-2.75363e-08
1.31938e-09
-2.82467e-08
1.30232e-09
-2.89473e-08
1.28438e-09
-2.96375e-08
1.26556e-09
-3.03169e-08
1.24586e-09
-3.0985e-08
1.22529e-09
-3.16413e-08
1.20383e-09
-3.22853e-08
1.18146e-09
-3.29165e-08
1.15819e-09
-3.35344e-08
1.13399e-09
-3.41384e-08
1.10885e-09
-3.47282e-08
1.08275e-09
-3.53031e-08
1.05568e-09
-3.58625e-08
1.02762e-09
-3.64061e-08
9.98555e-10
-3.69331e-08
9.68462e-10
-3.7443e-08
9.37327e-10
-3.79353e-08
9.05135e-10
-3.84093e-08
8.7187e-10
-3.88646e-08
8.37518e-10
-3.93004e-08
8.02067e-10
-3.97162e-08
7.65506e-10
-4.01114e-08
7.2783e-10
-4.04854e-08
6.8903e-10
-4.08375e-08
6.49101e-10
-4.11672e-08
6.08042e-10
-4.14738e-08
5.65853e-10
-4.17569e-08
5.2254e-10
-4.20156e-08
4.78111e-10
-4.22495e-08
4.32576e-10
-4.2458e-08
3.85947e-10
-4.26404e-08
3.38241e-10
-4.27963e-08
2.89478e-10
-4.29251e-08
2.39685e-10
-4.30261e-08
1.88891e-10
-4.3099e-08
1.37127e-10
-4.31432e-08
8.44315e-11
-4.31583e-08
3.08435e-11
-4.31437e-08
-2.35903e-11
-4.30991e-08
-7.88195e-11
-4.30241e-08
-1.34789e-10
-4.29183e-08
-1.91438e-10
-4.27813e-08
-2.48703e-10
-4.2613e-08
-3.06515e-10
-4.2413e-08
-3.64799e-10
-4.21811e-08
-4.23477e-10
-4.19172e-08
-4.82463e-10
-4.16212e-08
-5.41671e-10
-4.1293e-08
-6.01005e-10
-4.09326e-08
-6.60368e-10
-4.05401e-08
-7.19656e-10
-4.01154e-08
-7.78763e-10
-3.96589e-08
-8.37575e-10
-3.91708e-08
-8.95977e-10
-3.86513e-08
-9.5385e-10
-3.81008e-08
-1.01107e-09
-3.75197e-08
-1.0675e-09
-3.69085e-08
-1.12302e-09
-3.62678e-08
-1.1775e-09
-3.55983e-08
-1.23079e-09
-3.49006e-08
-1.28275e-09
-3.41756e-08
-1.33324e-09
-3.34242e-08
-1.38213e-09
-3.26472e-08
-1.42926e-09
-3.18457e-08
-1.47449e-09
-3.10209e-08
-1.51767e-09
-3.01738e-08
-1.55865e-09
-2.93059e-08
-1.59728e-09
-2.84184e-08
-1.63342e-09
-2.75128e-08
-1.66692e-09
-2.65906e-08
-1.69763e-09
-2.56533e-08
-1.72542e-09
-2.47027e-08
-1.75013e-09
-2.37404e-08
-1.77163e-09
-2.27683e-08
-1.78977e-09
-2.17883e-08
-1.80444e-09
-2.08022e-08
-1.81548e-09
-1.98122e-08
-1.82279e-09
-1.88204e-08
-1.82624e-09
-1.78287e-08
-1.8257e-09
-1.68396e-08
-1.82108e-09
-1.58553e-08
-1.81225e-09
-1.4878e-08
-1.79912e-09
-1.39101e-08
-1.7816e-09
-1.29541e-08
-1.7596e-09
-1.20124e-08
-1.73302e-09
-1.10876e-08
-1.70181e-09
-1.01821e-08
-1.66589e-09
-9.29858e-09
-1.62521e-09
-8.43953e-09
-1.57972e-09
-7.60759e-09
-1.52937e-09
-6.80537e-09
-1.47416e-09
-6.03548e-09
-1.41407e-09
-5.30052e-09
-1.3491e-09
-4.60305e-09
-1.2793e-09
-3.94562e-09
-1.20471e-09
-3.33068e-09
-1.12543e-09
-2.76064e-09
-1.04158e-09
-2.23774e-09
-9.53372e-10
-1.76411e-09
-8.61055e-10
-1.34162e-09
-7.64996e-10
-9.71864e-10
-6.65693e-10
-6.56045e-10
-5.63826e-10
-3.94839e-10
-4.60323e-10
-1.88222e-10
-3.56458e-10
-3.52326e-11
-2.53984e-10
6.63417e-11
-1.55319e-10
1.20365e-10
-6.38077e-11
1.3286e-10
1.59322e-11
1.12628e-10
7.75947e-11
7.18917e-11
1.12754e-10
2.69106e-11
1.10641e-10
5.8292e-11
1.25799e-11
-6.0011e-11
1.84596e-11
-8.16463e-11
-2.82432e-12
-3.12669e-11
-6.5875e-11
6.62794e-11
-1.80842e-10
1.94362e-10
-3.54326e-10
3.41058e-10
-5.90162e-10
4.97713e-10
-8.90053e-10
6.58138e-10
-1.25408e-09
8.17955e-10
-1.68115e-09
9.74096e-10
-2.16926e-09
1.12446e-09
-2.71584e-09
1.26765e-09
-3.31787e-09
1.40277e-09
-3.97209e-09
1.52932e-09
-4.67508e-09
1.64704e-09
-5.42333e-09
1.75589e-09
-6.21337e-09
1.85596e-09
-7.04175e-09
1.94746e-09
-7.90511e-09
2.03067e-09
-8.80021e-09
2.10589e-09
-9.72392e-09
2.17349e-09
-1.06732e-08
2.23383e-09
-1.16454e-08
2.28732e-09
-1.26375e-08
2.33432e-09
-1.36473e-08
2.37524e-09
-1.46721e-08
2.41044e-09
-1.57099e-08
2.4403e-09
-1.67584e-08
2.46515e-09
-1.78158e-08
2.48535e-09
-1.888e-08
2.50121e-09
-1.99496e-08
2.51302e-09
-2.10227e-08
2.52108e-09
-2.2098e-08
2.52565e-09
-2.31739e-08
2.52696e-09
-2.42493e-08
2.52525e-09
-2.53229e-08
2.52072e-09
-2.63936e-08
2.51355e-09
-2.74602e-08
2.50393e-09
-2.85219e-08
2.49199e-09
-2.95775e-08
2.47787e-09
-3.06263e-08
2.4617e-09
-3.16674e-08
2.44358e-09
-3.26999e-08
2.4236e-09
-3.37231e-08
2.40184e-09
-3.47363e-08
2.37836e-09
-3.57387e-08
2.35321e-09
-3.67296e-08
2.32643e-09
-3.77082e-08
2.29807e-09
-3.86741e-08
2.26813e-09
-3.96263e-08
2.23664e-09
-4.05644e-08
2.20361e-09
-4.14875e-08
2.16902e-09
-4.23951e-08
2.13289e-09
-4.32865e-08
2.09519e-09
-4.4161e-08
2.05592e-09
-4.50178e-08
2.01505e-09
-4.58564e-08
1.97256e-09
-4.6676e-08
1.92843e-09
-4.74759e-08
1.88263e-09
-4.82553e-08
1.83515e-09
-4.90136e-08
1.78593e-09
-4.975e-08
1.73497e-09
-5.04638e-08
1.68223e-09
-5.11542e-08
1.62769e-09
-5.18203e-08
1.57131e-09
-5.24616e-08
1.51308e-09
-5.3077e-08
1.45298e-09
-5.36659e-08
1.39098e-09
-5.42275e-08
1.32706e-09
-5.47609e-08
1.26123e-09
-5.52653e-08
1.19345e-09
-5.57399e-08
1.12374e-09
-5.6184e-08
1.05209e-09
-5.65966e-08
9.78492e-10
-5.69771e-08
9.02967e-10
-5.73245e-08
8.25524e-10
-5.76381e-08
7.46185e-10
-5.79171e-08
6.64973e-10
-5.81608e-08
5.81919e-10
-5.83684e-08
4.97057e-10
-5.85391e-08
4.10433e-10
-5.86723e-08
3.22097e-10
-5.87673e-08
2.32108e-10
-5.88234e-08
1.40529e-10
-5.884e-08
4.74314e-11
-5.88165e-08
-4.71043e-11
-5.87523e-08
-1.4299e-10
-5.8647e-08
-2.4013e-10
-5.85e-08
-3.38422e-10
-5.83109e-08
-4.37754e-10
-5.80794e-08
-5.38004e-10
-5.78052e-08
-6.39046e-10
-5.74879e-08
-7.40742e-10
-5.71274e-08
-8.42947e-10
-5.67236e-08
-9.45509e-10
-5.62763e-08
-1.04826e-09
-5.57857e-08
-1.15105e-09
-5.52516e-08
-1.25368e-09
-5.46744e-08
-1.35597e-09
-5.40543e-08
-1.45773e-09
-5.33915e-08
-1.55876e-09
-5.26865e-08
-1.65886e-09
-5.19397e-08
-1.75781e-09
-5.11519e-08
-1.85538e-09
-5.03235e-08
-1.95137e-09
-4.94555e-08
-2.04552e-09
-4.85487e-08
-2.13762e-09
-4.7604e-08
-2.22741e-09
-4.66226e-08
-2.31465e-09
-4.56056e-08
-2.39911e-09
-4.45544e-08
-2.48052e-09
-4.34702e-08
-2.55864e-09
-4.23546e-08
-2.63321e-09
-4.12093e-08
-2.70398e-09
-4.00359e-08
-2.7707e-09
-3.88362e-08
-2.8331e-09
-3.76122e-08
-2.89095e-09
-3.63658e-08
-2.94398e-09
-3.50993e-08
-2.99196e-09
-3.38148e-08
-3.03463e-09
-3.25147e-08
-3.07175e-09
-3.12013e-08
-3.1031e-09
-2.98773e-08
-3.12844e-09
-2.85453e-08
-3.14754e-09
-2.72079e-08
-3.1602e-09
-2.58679e-08
-3.1662e-09
-2.45283e-08
-3.16534e-09
-2.31919e-08
-3.15743e-09
-2.18619e-08
-3.14229e-09
-2.05413e-08
-3.11974e-09
-1.92333e-08
-3.08963e-09
-1.7941e-08
-3.05181e-09
-1.66679e-08
-3.00614e-09
-1.54172e-08
-2.9525e-09
-1.41923e-08
-2.89078e-09
-1.29967e-08
-2.8209e-09
-1.18336e-08
-2.74278e-09
-1.07066e-08
-2.65637e-09
-9.61909e-09
-2.56165e-09
-8.57454e-09
-2.45862e-09
-7.57631e-09
-2.34733e-09
-6.62777e-09
-2.22784e-09
-5.7322e-09
-2.10028e-09
-4.89277e-09
-1.96486e-09
-4.11253e-09
-1.82183e-09
-3.39431e-09
-1.67158e-09
-2.74074e-09
-1.51462e-09
-2.15411e-09
-1.35163e-09
-1.63629e-09
-1.18351e-09
-1.18862e-09
-1.0115e-09
-8.11737e-10
-8.37204e-10
-5.05389e-10
-6.62806e-10
-2.68165e-10
-4.91209e-10
-9.71789e-11
-3.26306e-10
1.23116e-11
-1.73299e-10
6.73742e-11
-3.9131e-11
7.79412e-11
6.70277e-11
5.74018e-11
1.33293e-10
2.33815e-11
1.44661e-10
8.16735e-11
2.14037e-12
-6.21508e-11
-1.79691e-11
-6.15376e-11
-7.87678e-11
2.95325e-11
-1.93894e-10
1.81403e-10
-3.73059e-10
3.73529e-10
-6.22768e-10
5.90767e-10
-9.46894e-10
8.21839e-10
-1.3472e-09
1.05845e-09
-1.8238e-09
1.29455e-09
-2.3755e-09
1.52579e-09
-3.00014e-09
1.74911e-09
-3.69488e-09
1.96239e-09
-4.45634e-09
2.16423e-09
-5.28081e-09
2.35378e-09
-6.16435e-09
2.53058e-09
-7.10294e-09
2.69447e-09
-8.0925e-09
2.84552e-09
-9.12898e-09
2.98394e-09
-1.02084e-08
3.11008e-09
-1.13269e-08
3.22437e-09
-1.24807e-08
3.32728e-09
-1.36662e-08
3.41935e-09
-1.488e-08
3.50111e-09
-1.61188e-08
3.57312e-09
-1.73795e-08
3.63593e-09
-1.86591e-08
3.69009e-09
-1.99549e-08
3.73613e-09
-2.12644e-08
3.77457e-09
-2.25849e-08
3.8059e-09
-2.39143e-08
3.8306e-09
-2.52504e-08
3.8491e-09
-2.65912e-08
3.86185e-09
-2.79347e-08
3.86921e-09
-2.92793e-08
3.87157e-09
-3.06233e-08
3.86925e-09
-3.19652e-08
3.86257e-09
-3.33035e-08
3.85182e-09
-3.46368e-08
3.83725e-09
-3.59639e-08
3.81908e-09
-3.72835e-08
3.79753e-09
-3.85946e-08
3.77279e-09
-3.9896e-08
3.745e-09
-4.11867e-08
3.71432e-09
-4.24658e-08
3.68086e-09
-4.37321e-08
3.64471e-09
-4.49849e-08
3.60597e-09
-4.62232e-08
3.56471e-09
-4.74461e-08
3.52096e-09
-4.86527e-08
3.47478e-09
-4.98422e-08
3.42618e-09
-5.10138e-08
3.37518e-09
-5.21666e-08
3.32179e-09
-5.32997e-08
3.266e-09
-5.44123e-08
3.20779e-09
-5.55035e-08
3.14716e-09
-5.65726e-08
3.08406e-09
-5.76185e-08
3.01848e-09
-5.86404e-08
2.95038e-09
-5.96375e-08
2.87973e-09
-6.06089e-08
2.80648e-09
-6.15535e-08
2.73059e-09
-6.24706e-08
2.65204e-09
-6.33591e-08
2.57077e-09
-6.42182e-08
2.48675e-09
-6.50468e-08
2.39994e-09
-6.5844e-08
2.31031e-09
-6.66089e-08
2.21782e-09
-6.73404e-08
2.12246e-09
-6.80375e-08
2.0242e-09
-6.86993e-08
1.92302e-09
-6.93247e-08
1.8189e-09
-6.99128e-08
1.71184e-09
-7.04626e-08
1.60185e-09
-7.0973e-08
1.48892e-09
-7.14431e-08
1.37308e-09
-7.1872e-08
1.25434e-09
-7.22585e-08
1.13273e-09
-7.26018e-08
1.0083e-09
-7.2901e-08
8.81087e-10
-7.31551e-08
7.51156e-10
-7.33632e-08
6.18572e-10
-7.35245e-08
4.83413e-10
-7.36382e-08
3.45768e-10
-7.37034e-08
2.05735e-10
-7.37194e-08
6.34258e-11
-7.36855e-08
-8.10374e-11
-7.36009e-08
-2.2752e-10
-7.34652e-08
-3.75876e-10
-7.32777e-08
-5.25949e-10
-7.30379e-08
-6.77566e-10
-7.27453e-08
-8.30546e-10
-7.23997e-08
-9.84692e-10
-7.20006e-08
-1.1398e-09
-7.15479e-08
-1.29564e-09
-7.10414e-08
-1.45199e-09
-7.04811e-08
-1.60861e-09
-6.98669e-08
-1.76522e-09
-6.9199e-08
-1.92157e-09
-6.84776e-08
-2.07737e-09
-6.7703e-08
-2.23234e-09
-6.68756e-08
-2.38617e-09
-6.59959e-08
-2.53854e-09
-6.50646e-08
-2.68914e-09
-6.40824e-08
-2.83762e-09
-6.30501e-08
-2.98366e-09
-6.19687e-08
-3.12689e-09
-6.08393e-08
-3.26697e-09
-5.96632e-08
-3.40354e-09
-5.84417e-08
-3.53621e-09
-5.71761e-08
-3.66462e-09
-5.58683e-08
-3.7884e-09
-5.45198e-08
-3.90715e-09
-5.31325e-08
-4.0205e-09
-5.17084e-08
-4.12806e-09
-5.02496e-08
-4.22946e-09
-4.87584e-08
-4.3243e-09
-4.72372e-08
-4.4122e-09
-4.56884e-08
-4.49279e-09
-4.41146e-08
-4.56569e-09
-4.25187e-08
-4.63054e-09
-4.09035e-08
-4.68696e-09
-3.9272e-08
-4.73461e-09
-3.76273e-08
-4.77314e-09
-3.59726e-08
-4.80221e-09
-3.43113e-08
-4.8215e-09
-3.26468e-08
-4.83069e-09
-3.09827e-08
-4.82948e-09
-2.93225e-08
-4.81758e-09
-2.76701e-08
-4.79473e-09
-2.60292e-08
-4.76066e-09
-2.44037e-08
-4.71513e-09
-2.27975e-08
-4.65794e-09
-2.12148e-08
-4.58888e-09
-1.96595e-08
-4.50778e-09
-1.81358e-08
-4.41448e-09
-1.66479e-08
-4.30886e-09
-1.51998e-08
-4.19084e-09
-1.37958e-08
-4.06035e-09
-1.24401e-08
-3.91739e-09
-1.11367e-08
-3.76198e-09
-9.88987e-09
-3.5942e-09
-8.70349e-09
-3.41422e-09
-7.58149e-09
-3.22227e-09
-6.52765e-09
-3.01869e-09
-5.54554e-09
-2.80395e-09
-4.63846e-09
-2.57866e-09
-3.80942e-09
-2.34367e-09
-3.061e-09
-2.10005e-09
-2.39527e-09
-1.84924e-09
-1.81365e-09
-1.59312e-09
-1.31673e-09
-1.33413e-09
-9.04069e-10
-1.07546e-09
-5.73961e-10
-8.21317e-10
-3.2312e-10
-5.77148e-10
-1.46343e-10
-3.50078e-10
-3.61171e-11
-1.49358e-10
1.78479e-11
1.30625e-11
2.91413e-11
1.21999e-10
1.53869e-11
1.58415e-10
9.70604e-11
-1.0168e-11
-5.19838e-11
-6.10103e-11
-1.0693e-11
-1.67729e-10
1.36248e-10
-3.42026e-10
3.55701e-10
-5.92495e-10
6.23997e-10
-9.24957e-10
9.23229e-10
-1.3429e-09
1.23978e-09
-1.84784e-09
1.56339e-09
-2.43973e-09
1.88643e-09
-3.11721e-09
2.20327e-09
-3.87794e-09
2.50984e-09
-4.71882e-09
2.80327e-09
-5.63618e-09
3.08159e-09
-6.62595e-09
3.34356e-09
-7.68382e-09
3.58845e-09
-8.80531e-09
3.81596e-09
-9.98586e-09
4.02607e-09
-1.12209e-08
4.21902e-09
-1.2506e-08
4.39518e-09
-1.38368e-08
4.5551e-09
-1.52089e-08
4.69938e-09
-1.66182e-08
4.82868e-09
-1.80608e-08
4.94372e-09
-1.95329e-08
5.04523e-09
-2.10309e-08
5.13393e-09
-2.25514e-08
5.21056e-09
-2.40911e-08
5.27584e-09
-2.5647e-08
5.33047e-09
-2.72162e-08
5.3751e-09
-2.8796e-08
5.41041e-09
-3.03839e-08
5.43698e-09
-3.19775e-08
5.4554e-09
-3.35745e-08
5.46621e-09
-3.51728e-08
5.46992e-09
-3.67705e-08
5.46698e-09
-3.83658e-08
5.45784e-09
-3.99569e-08
5.44289e-09
-4.15421e-08
5.42248e-09
-4.312e-08
5.39695e-09
-4.4689e-08
5.36657e-09
-4.62479e-08
5.33161e-09
-4.77952e-08
5.2923e-09
-4.93297e-08
5.24883e-09
-5.08502e-08
5.20138e-09
-5.23556e-08
5.15008e-09
-5.38446e-08
5.09506e-09
-5.53163e-08
5.03642e-09
-5.67696e-08
4.97423e-09
-5.82034e-08
4.90854e-09
-5.96166e-08
4.83941e-09
-6.10083e-08
4.76684e-09
-6.23773e-08
4.69086e-09
-6.37228e-08
4.61147e-09
-6.50436e-08
4.52864e-09
-6.63388e-08
4.44235e-09
-6.76074e-08
4.35258e-09
-6.88482e-08
4.25928e-09
-7.00602e-08
4.16242e-09
-7.12424e-08
4.06194e-09
-7.23937e-08
3.9578e-09
-7.35131e-08
3.84995e-09
-7.45994e-08
3.73833e-09
-7.56515e-08
3.62289e-09
-7.66684e-08
3.50358e-09
-7.76488e-08
3.38036e-09
-7.85916e-08
3.25317e-09
-7.94958e-08
3.12199e-09
-8.03601e-08
2.98677e-09
-8.11834e-08
2.84749e-09
-8.19645e-08
2.70412e-09
-8.27023e-08
2.55665e-09
-8.33955e-08
2.40507e-09
-8.4043e-08
2.24938e-09
-8.46437e-08
2.08961e-09
-8.51964e-08
1.92576e-09
-8.56999e-08
1.75788e-09
-8.61532e-08
1.586e-09
-8.65551e-08
1.41019e-09
-8.69045e-08
1.23052e-09
-8.72004e-08
1.04706e-09
-8.74418e-08
8.59915e-10
-8.76276e-08
6.69197e-10
-8.77568e-08
4.75031e-10
-8.78286e-08
2.77556e-10
-8.78421e-08
7.69303e-11
-8.77965e-08
-1.26673e-10
-8.7691e-08
-3.33065e-10
-8.75248e-08
-5.4204e-10
-8.72974e-08
-7.53374e-10
-8.70081e-08
-9.66829e-10
-8.66565e-08
-1.18215e-09
-8.62422e-08
-1.39905e-09
-8.57647e-08
-1.61726e-09
-8.52239e-08
-1.83645e-09
-8.46196e-08
-2.05631e-09
-8.39517e-08
-2.27648e-09
-8.32203e-08
-2.49661e-09
-8.24255e-08
-2.71632e-09
-8.15677e-08
-2.93523e-09
-8.06471e-08
-3.15291e-09
-7.96643e-08
-3.36895e-09
-7.862e-08
-3.58292e-09
-7.75147e-08
-3.79435e-09
-7.63496e-08
-4.00279e-09
-7.51255e-08
-4.20775e-09
-7.38436e-08
-4.40876e-09
-7.25053e-08
-4.60531e-09
-7.11119e-08
-4.7969e-09
-6.96651e-08
-4.98301e-09
-6.81666e-08
-5.16311e-09
-6.66183e-08
-5.3367e-09
-6.50222e-08
-5.50322e-09
-6.33806e-08
-5.66216e-09
-6.16957e-08
-5.81297e-09
-5.997e-08
-5.95511e-09
-5.82063e-08
-6.08806e-09
-5.64072e-08
-6.21128e-09
-5.45757e-08
-6.32424e-09
-5.2715e-08
-6.42643e-09
-5.08282e-08
-6.51733e-09
-4.89187e-08
-6.59643e-09
-4.69901e-08
-6.66324e-09
-4.5046e-08
-6.71728e-09
-4.30901e-08
-6.75809e-09
-4.11264e-08
-6.7852e-09
-3.91589e-08
-6.79818e-09
-3.71918e-08
-6.79662e-09
-3.52292e-08
-6.78012e-09
-3.32756e-08
-6.74831e-09
-3.13355e-08
-6.70083e-09
-2.94132e-08
-6.63736e-09
-2.75136e-08
-6.55761e-09
-2.56412e-08
-6.4613e-09
-2.38007e-08
-6.34822e-09
-2.1997e-08
-6.21816e-09
-2.02349e-08
-6.07097e-09
-1.85192e-08
-5.90655e-09
-1.68547e-08
-5.72484e-09
-1.52463e-08
-5.52585e-09
-1.36986e-08
-5.30966e-09
-1.22164e-08
-5.07643e-09
-1.08042e-08
-4.82641e-09
-9.46644e-09
-4.56e-09
-8.20741e-09
-4.27772e-09
-7.03109e-09
-3.98027e-09
-5.94117e-09
-3.66859e-09
-4.94093e-09
-3.3439e-09
-4.03321e-09
-3.00777e-09
-3.22022e-09
-2.66223e-09
-2.50343e-09
-2.3099e-09
-1.88343e-09
-1.95412e-09
-1.35971e-09
-1.59919e-09
-9.30398e-10
-1.25063e-09
-5.92087e-10
-9.1546e-10
-3.39473e-10
-6.02693e-10
-1.65062e-10
-3.23769e-10
-5.88037e-11
-9.31962e-11
-7.67051e-12
7.08659e-11
4.88528e-12
1.4586e-10
1.01946e-10
-2.32808e-11
-2.87032e-11
-1.07396e-10
7.34216e-11
-2.63838e-10
2.92691e-10
-5.01827e-10
5.93689e-10
-8.28288e-10
9.50457e-10
-1.24794e-09
1.34288e-09
-1.76351e-09
1.75536e-09
-2.37604e-09
2.17592e-09
-3.0851e-09
2.59549e-09
-3.88905e-09
3.00723e-09
-4.7853e-09
3.40609e-09
-5.77048e-09
3.78845e-09
-6.84065e-09
4.15176e-09
-7.99145e-09
4.49435e-09
-9.21821e-09
4.81521e-09
-1.05161e-08
5.11384e-09
-1.18802e-08
5.39014e-09
-1.33055e-08
5.64431e-09
-1.47871e-08
5.8768e-09
-1.63202e-08
6.08819e-09
-1.79e-08
6.27922e-09
-1.9522e-08
6.45071e-09
-2.11818e-08
6.60353e-09
-2.28752e-08
6.73858e-09
-2.45981e-08
6.8568e-09
-2.63466e-08
6.95911e-09
-2.81172e-08
7.04641e-09
-2.99063e-08
7.11959e-09
-3.17107e-08
7.17954e-09
-3.35274e-08
7.22706e-09
-3.53534e-08
7.26296e-09
-3.71859e-08
7.28797e-09
-3.90225e-08
7.30281e-09
-4.08608e-08
7.30814e-09
-4.26983e-08
7.30456e-09
-4.45331e-08
7.29264e-09
-4.63632e-08
7.2729e-09
-4.81865e-08
7.2458e-09
-5.00013e-08
7.21179e-09
-5.1806e-08
7.17125e-09
-5.35989e-08
7.12451e-09
-5.53785e-08
7.07188e-09
-5.71433e-08
7.01363e-09
-5.88919e-08
6.94998e-09
-6.06229e-08
6.88112e-09
-6.23351e-08
6.80724e-09
-6.40271e-08
6.72844e-09
-6.56977e-08
6.64485e-09
-6.73457e-08
6.55654e-09
-6.89699e-08
6.46356e-09
-7.0569e-08
6.36596e-09
-7.21419e-08
6.26376e-09
-7.36874e-08
6.15696e-09
-7.52043e-08
6.04554e-09
-7.66914e-08
5.92948e-09
-7.81476e-08
5.80874e-09
-7.95716e-08
5.68329e-09
-8.09622e-08
5.55306e-09
-8.23183e-08
5.418e-09
-8.36385e-08
5.27805e-09
-8.49217e-08
5.13314e-09
-8.61666e-08
4.98322e-09
-8.73719e-08
4.82821e-09
-8.85364e-08
4.66805e-09
-8.96587e-08
4.5027e-09
-9.07376e-08
4.33208e-09
-9.17718e-08
4.15616e-09
-9.27599e-08
3.97488e-09
-9.37007e-08
3.78823e-09
-9.45927e-08
3.59616e-09
-9.54347e-08
3.39866e-09
-9.62254e-08
3.19574e-09
-9.69634e-08
2.98739e-09
-9.76474e-08
2.77364e-09
-9.82762e-08
2.55451e-09
-9.88484e-08
2.33006e-09
-9.93627e-08
2.10035e-09
-9.9818e-08
1.86545e-09
-1.00213e-07
1.62546e-09
-1.00546e-07
1.3805e-09
-1.00817e-07
1.13069e-09
-1.01024e-07
8.76188e-10
-1.01166e-07
6.17158e-10
-1.01242e-07
3.53791e-10
-1.01252e-07
8.62961e-11
-1.01193e-07
-1.85095e-10
-1.01066e-07
-4.60129e-10
-1.0087e-07
-7.38533e-10
-1.00603e-07
-1.02001e-09
-1.00266e-07
-1.30424e-09
-9.98571e-08
-1.59088e-09
-9.93766e-08
-1.87957e-09
-9.88239e-08
-2.16992e-09
-9.81988e-08
-2.46152e-09
-9.75012e-08
-2.75393e-09
-9.6731e-08
-3.04671e-09
-9.58882e-08
-3.33938e-09
-9.49731e-08
-3.63143e-09
-9.3986e-08
-3.92235e-09
-9.29273e-08
-4.21159e-09
-9.17976e-08
-4.4986e-09
-9.05977e-08
-4.78281e-09
-8.93285e-08
-5.0636e-09
-8.79909e-08
-5.34037e-09
-8.65862e-08
-5.61249e-09
-8.51156e-08
-5.87931e-09
-8.35808e-08
-6.14018e-09
-8.19832e-08
-6.39443e-09
-8.03248e-08
-6.64138e-09
-7.86076e-08
-6.88034e-09
-7.68337e-08
-7.11061e-09
-7.50054e-08
-7.3315e-09
-7.31253e-08
-7.5423e-09
-7.11959e-08
-7.7423e-09
-6.92203e-08
-7.9308e-09
-6.72012e-08
-8.10709e-09
-6.5142e-08
-8.27046e-09
-6.3046e-08
-8.42024e-09
-6.09167e-08
-8.55573e-09
-5.87578e-08
-8.67625e-09
-5.65731e-08
-8.78114e-09
-5.43666e-08
-8.86975e-09
-5.21424e-08
-8.94145e-09
-4.99049e-08
-8.99561e-09
-4.76585e-08
-9.03166e-09
-4.54076e-08
-9.04902e-09
-4.31571e-08
-9.04714e-09
-4.09117e-08
-9.0255e-09
-3.86764e-08
-8.98363e-09
-3.64562e-08
-8.92106e-09
-3.42561e-08
-8.83739e-09
-3.20815e-08
-8.73222e-09
-2.99376e-08
-8.60523e-09
-2.78297e-08
-8.45613e-09
-2.57631e-08
-8.28468e-09
-2.37434e-08
-8.09071e-09
-2.17759e-08
-7.8741e-09
-1.98659e-08
-7.63481e-09
-1.80188e-08
-7.37289e-09
-1.624e-08
-7.08848e-09
-1.45346e-08
-6.78185e-09
-1.29076e-08
-6.45339e-09
-1.1364e-08
-6.10365e-09
-9.90828e-09
-5.7334e-09
-8.54492e-09
-5.34363e-09
-7.27787e-09
-4.93564e-09
-6.11069e-09
-4.51108e-09
-5.0464e-09
-4.07206e-09
-4.08734e-09
-3.62129e-09
-3.23509e-09
-3.16215e-09
-2.49028e-09
-2.69894e-09
-1.8524e-09
-2.23707e-09
-1.31966e-09
-1.78337e-09
-8.88703e-10
-1.34641e-09
-5.54449e-10
-9.36948e-10
-3.09799e-10
-5.68421e-10
-1.45394e-10
-2.57601e-10
-4.93418e-11
-2.51866e-11
-6.89771e-12
1.03416e-10
9.50487e-11
-3.65534e-11
7.84854e-12
-1.5504e-10
1.91909e-10
-3.63139e-10
5.0079e-10
-6.67326e-10
8.97876e-10
-1.07253e-09
1.35566e-09
-1.58204e-09
1.85239e-09
-2.19759e-09
2.3709e-09
-2.91946e-09
2.8978e-09
-3.74669e-09
3.42272e-09
-4.67724e-09
3.93777e-09
-5.70815e-09
4.437e-09
-6.83578e-09
4.91607e-09
-8.05588e-09
5.37186e-09
-9.3638e-09
5.80227e-09
-1.07546e-08
6.20599e-09
-1.22231e-08
6.58233e-09
-1.3764e-08
6.93106e-09
-1.53721e-08
7.25237e-09
-1.7042e-08
7.5467e-09
-1.87685e-08
7.81473e-09
-2.05466e-08
8.0573e-09
-2.23712e-08
8.27538e-09
-2.42377e-08
8.46999e-09
-2.61413e-08
8.64222e-09
-2.80777e-08
8.7932e-09
-3.00427e-08
8.92404e-09
-3.20321e-08
9.03586e-09
-3.40423e-08
9.12976e-09
-3.60695e-08
9.2068e-09
-3.81105e-08
9.268e-09
-4.01619e-08
9.31435e-09
-4.22207e-08
9.34677e-09
-4.4284e-08
9.36615e-09
-4.63492e-08
9.37331e-09
-4.84136e-08
9.36902e-09
-5.0475e-08
9.35399e-09
-5.2531e-08
9.32887e-09
-5.45794e-08
9.29426e-09
-5.66183e-08
9.2507e-09
-5.86458e-08
9.19868e-09
-6.06599e-08
9.13865e-09
-6.2659e-08
9.07098e-09
-6.46414e-08
8.99601e-09
-6.66054e-08
8.91404e-09
-6.85496e-08
8.82533e-09
-7.04725e-08
8.73008e-09
-7.23725e-08
8.62846e-09
-7.42483e-08