/*--------------------------------*- C++ -*----------------------------------*\
  =========                 |
  \\      /  F ield         | OpenFOAM: The Open Source CFD Toolbox
   \\    /   O peration     | Website:  https://openfoam.org
    \\  /    A nd           | Version:  7
     \\/     M anipulation  |
\*---------------------------------------------------------------------------*/
FoamFile
{
    version     2.0;
    format      ascii;
    class       volVectorField;
    location    "0.25";
    object      U;
}
// * * * * * * * * * * * * * * * * * * * * * * * * * * * * * * * * * * * * * //

dimensions      [0 1 -1 0 0 0 0];

internalField   nonuniform List<vector> 
25600
(
(3.97071e-07 -9.64544e-07 0)
(3.09584e-06 -1.85089e-06 0)
(6.44593e-06 -1.66858e-06 0)
(9.32989e-06 -1.23672e-06 0)
(1.05043e-05 -6.29459e-07 0)
(9.81155e-06 4.3897e-08 0)
(7.08985e-06 7.28244e-07 0)
(2.28635e-06 1.39661e-06 0)
(-4.56854e-06 2.03873e-06 0)
(-1.34001e-05 2.64537e-06 0)
(-2.41135e-05 3.2097e-06 0)
(-3.65939e-05 3.73021e-06 0)
(-5.07222e-05 4.20831e-06 0)
(-6.638e-05 4.64522e-06 0)
(-8.34459e-05 5.04245e-06 0)
(-0.000101801 5.40346e-06 0)
(-0.000121333 5.73022e-06 0)
(-0.000141934 6.02327e-06 0)
(-0.000163498 6.28481e-06 0)
(-0.000185928 6.51752e-06 0)
(-0.000209132 6.72308e-06 0)
(-0.000233024 6.90326e-06 0)
(-0.00025752 7.06064e-06 0)
(-0.000282547 7.19795e-06 0)
(-0.000308033 7.31619e-06 0)
(-0.000333912 7.4152e-06 0)
(-0.000360124 7.49622e-06 0)
(-0.000386611 7.56165e-06 0)
(-0.000413323 7.61338e-06 0)
(-0.00044021 7.6529e-06 0)
(-0.000467228 7.68089e-06 0)
(-0.000494336 7.69741e-06 0)
(-0.000521497 7.70333e-06 0)
(-0.000548674 7.69994e-06 0)
(-0.000575836 7.68814e-06 0)
(-0.000602953 7.66898e-06 0)
(-0.000629998 7.64331e-06 0)
(-0.000656944 7.61099e-06 0)
(-0.000683767 7.5718e-06 0)
(-0.000710446 7.52629e-06 0)
(-0.000736959 7.47539e-06 0)
(-0.000763286 7.41971e-06 0)
(-0.000789408 7.35952e-06 0)
(-0.000815306 7.29474e-06 0)
(-0.000840965 7.2251e-06 0)
(-0.000866367 7.15069e-06 0)
(-0.000891495 7.07203e-06 0)
(-0.000916334 6.98934e-06 0)
(-0.000940867 6.90241e-06 0)
(-0.000965079 6.81104e-06 0)
(-0.000988954 6.7154e-06 0)
(-0.00101248 6.61564e-06 0)
(-0.00103563 6.51164e-06 0)
(-0.0010584 6.40318e-06 0)
(-0.00108077 6.29002e-06 0)
(-0.00110272 6.17193e-06 0)
(-0.00112423 6.0488e-06 0)
(-0.00114529 5.92078e-06 0)
(-0.00116589 5.78806e-06 0)
(-0.00118599 5.65053e-06 0)
(-0.00120559 5.50772e-06 0)
(-0.00122466 5.35914e-06 0)
(-0.00124319 5.20464e-06 0)
(-0.00126116 5.04439e-06 0)
(-0.00127854 4.87856e-06 0)
(-0.00129531 4.70705e-06 0)
(-0.00131147 4.52955e-06 0)
(-0.00132697 4.34578e-06 0)
(-0.00134181 4.15566e-06 0)
(-0.00135597 3.95929e-06 0)
(-0.00136941 3.7567e-06 0)
(-0.00138212 3.54769e-06 0)
(-0.00139407 3.33206e-06 0)
(-0.00140525 3.10985e-06 0)
(-0.00141564 2.88138e-06 0)
(-0.0014252 2.64686e-06 0)
(-0.00143393 2.40611e-06 0)
(-0.00144179 2.1588e-06 0)
(-0.00144876 1.90484e-06 0)
(-0.00145484 1.64453e-06 0)
(-0.00145998 1.37845e-06 0)
(-0.00146419 1.10691e-06 0)
(-0.00146743 8.29899e-07 0)
(-0.00146968 5.47268e-07 0)
(-0.00147093 2.59057e-07 0)
(-0.00147117 -3.44111e-08 0)
(-0.00147037 -3.3264e-07 0)
(-0.00146852 -6.35215e-07 0)
(-0.00146561 -9.41857e-07 0)
(-0.00146161 -1.25227e-06 0)
(-0.00145653 -1.56612e-06 0)
(-0.00145035 -1.88303e-06 0)
(-0.00144306 -2.20255e-06 0)
(-0.00143465 -2.5242e-06 0)
(-0.00142512 -2.84747e-06 0)
(-0.00141447 -3.17182e-06 0)
(-0.00140269 -3.49672e-06 0)
(-0.00138977 -3.82164e-06 0)
(-0.00137573 -4.1459e-06 0)
(-0.00136057 -4.46875e-06 0)
(-0.00134429 -4.78956e-06 0)
(-0.00132691 -5.1078e-06 0)
(-0.00130842 -5.42286e-06 0)
(-0.00128885 -5.73397e-06 0)
(-0.00126821 -6.04026e-06 0)
(-0.00124652 -6.34088e-06 0)
(-0.00122381 -6.63502e-06 0)
(-0.00120008 -6.92193e-06 0)
(-0.00117538 -7.20085e-06 0)
(-0.00114973 -7.47109e-06 0)
(-0.00112316 -7.7319e-06 0)
(-0.0010957 -7.98238e-06 0)
(-0.0010674 -8.22149e-06 0)
(-0.00103829 -8.44826e-06 0)
(-0.00100843 -8.66193e-06 0)
(-0.000977841 -8.86186e-06 0)
(-0.00094659 -9.04731e-06 0)
(-0.000914724 -9.21743e-06 0)
(-0.000882297 -9.37134e-06 0)
(-0.000849368 -9.50812e-06 0)
(-0.000815997 -9.62692e-06 0)
(-0.000782246 -9.72692e-06 0)
(-0.000748181 -9.80748e-06 0)
(-0.00071387 -9.86804e-06 0)
(-0.000679384 -9.90791e-06 0)
(-0.000644796 -9.92622e-06 0)
(-0.00061018 -9.92215e-06 0)
(-0.000575615 -9.89509e-06 0)
(-0.000541181 -9.84458e-06 0)
(-0.000506959 -9.7701e-06 0)
(-0.000473033 -9.67102e-06 0)
(-0.000439488 -9.54678e-06 0)
(-0.000406411 -9.39693e-06 0)
(-0.000373892 -9.22097e-06 0)
(-0.000342021 -9.01827e-06 0)
(-0.00031089 -8.78824e-06 0)
(-0.000280591 -8.53054e-06 0)
(-0.00025122 -8.24506e-06 0)
(-0.000222871 -7.93154e-06 0)
(-0.000195641 -7.58943e-06 0)
(-0.000169625 -7.21814e-06 0)
(-0.000144921 -6.81741e-06 0)
(-0.000121626 -6.38718e-06 0)
(-9.98371e-05 -5.92738e-06 0)
(-7.96492e-05 -5.43787e-06 0)
(-6.11573e-05 -4.91857e-06 0)
(-4.44534e-05 -4.36965e-06 0)
(-2.96258e-05 -3.79165e-06 0)
(-1.67575e-05 -3.18555e-06 0)
(-5.92347e-06 -2.55311e-06 0)
(2.81296e-06 -1.89737e-06 0)
(9.40613e-06 -1.22324e-06 0)
(1.38363e-05 -5.39034e-07 0)
(1.61224e-05 1.4087e-07 0)
(1.63445e-05 7.91454e-07 0)
(1.46777e-05 1.36895e-06 0)
(1.14401e-05 1.79707e-06 0)
(7.18597e-06 1.94058e-06 0)
(2.97941e-06 1.57501e-06 0)
(5.32438e-07 5.33157e-07 0)
(1.13161e-06 -2.95508e-06 0)
(5.25174e-06 -6.03004e-06 0)
(1.02937e-05 -5.43956e-06 0)
(1.31991e-05 -3.19564e-06 0)
(1.22832e-05 5.35856e-08 0)
(6.73479e-06 3.81858e-06 0)
(-3.94105e-06 7.79425e-06 0)
(-1.99501e-05 1.18005e-05 0)
(-4.13112e-05 1.57246e-05 0)
(-6.79169e-05 1.94959e-05 0)
(-9.95675e-05 2.30726e-05 0)
(-0.000136017 2.64312e-05 0)
(-0.000176987 2.95593e-05 0)
(-0.000222182 3.24543e-05 0)
(-0.000271298 3.51187e-05 0)
(-0.000324033 3.75589e-05 0)
(-0.000380089 3.97818e-05 0)
(-0.000439176 4.17966e-05 0)
(-0.000501015 4.36135e-05 0)
(-0.000565339 4.52433e-05 0)
(-0.000631895 4.66963e-05 0)
(-0.000700442 4.79825e-05 0)
(-0.000770755 4.91136e-05 0)
(-0.00084262 5.01008e-05 0)
(-0.000915836 5.09534e-05 0)
(-0.000990218 5.16799e-05 0)
(-0.00106559 5.22895e-05 0)
(-0.0011418 5.27911e-05 0)
(-0.00121868 5.31927e-05 0)
(-0.0012961 5.35022e-05 0)
(-0.00137393 5.37266e-05 0)
(-0.00145205 5.38725e-05 0)
(-0.00153035 5.39457e-05 0)
(-0.00160872 5.39513e-05 0)
(-0.00168707 5.38942e-05 0)
(-0.00176531 5.37796e-05 0)
(-0.00184336 5.36123e-05 0)
(-0.00192114 5.33957e-05 0)
(-0.00199857 5.31322e-05 0)
(-0.0020756 5.28245e-05 0)
(-0.00215215 5.24754e-05 0)
(-0.00222817 5.20875e-05 0)
(-0.0023036 5.16631e-05 0)
(-0.00237838 5.12034e-05 0)
(-0.00245247 5.07092e-05 0)
(-0.00252581 5.01811e-05 0)
(-0.00259835 4.96205e-05 0)
(-0.00267004 4.90284e-05 0)
(-0.00274085 4.84046e-05 0)
(-0.00281071 4.77492e-05 0)
(-0.00287958 4.70621e-05 0)
(-0.00294742 4.63433e-05 0)
(-0.00301417 4.55926e-05 0)
(-0.0030798 4.48098e-05 0)
(-0.00314425 4.39944e-05 0)
(-0.00320747 4.31453e-05 0)
(-0.00326942 4.22617e-05 0)
(-0.00333004 4.13431e-05 0)
(-0.00338929 4.03893e-05 0)
(-0.00344711 3.93997e-05 0)
(-0.00350344 3.83733e-05 0)
(-0.00355824 3.73091e-05 0)
(-0.00361145 3.6206e-05 0)
(-0.00366301 3.50634e-05 0)
(-0.00371287 3.3881e-05 0)
(-0.00376097 3.26584e-05 0)
(-0.00380724 3.13948e-05 0)
(-0.00385164 3.00894e-05 0)
(-0.00389409 2.87416e-05 0)
(-0.00393455 2.73512e-05 0)
(-0.00397294 2.5918e-05 0)
(-0.00400922 2.44417e-05 0)
(-0.0040433 2.29221e-05 0)
(-0.00407515 2.13591e-05 0)
(-0.00410468 1.9753e-05 0)
(-0.00413185 1.81041e-05 0)
(-0.00415659 1.64128e-05 0)
(-0.00417884 1.46792e-05 0)
(-0.00419855 1.2904e-05 0)
(-0.00421564 1.10878e-05 0)
(-0.00423008 9.23175e-06 0)
(-0.00424179 7.33696e-06 0)
(-0.00425073 5.40468e-06 0)
(-0.00425685 3.43618e-06 0)
(-0.00426009 1.43279e-06 0)
(-0.00426042 -6.0392e-07 0)
(-0.00425777 -2.67193e-06 0)
(-0.00425211 -4.76895e-06 0)
(-0.00424341 -6.89274e-06 0)
(-0.00423162 -9.04097e-06 0)
(-0.00421672 -1.12111e-05 0)
(-0.00419867 -1.34004e-05 0)
(-0.00417746 -1.56058e-05 0)
(-0.00415305 -1.78241e-05 0)
(-0.00412544 -2.00519e-05 0)
(-0.00409462 -2.22856e-05 0)
(-0.00406059 -2.45214e-05 0)
(-0.00402333 -2.67555e-05 0)
(-0.00398287 -2.89839e-05 0)
(-0.0039392 -3.12022e-05 0)
(-0.00389236 -3.3406e-05 0)
(-0.00384236 -3.55905e-05 0)
(-0.00378925 -3.77512e-05 0)
(-0.00373304 -3.9883e-05 0)
(-0.0036738 -4.19811e-05 0)
(-0.00361158 -4.40403e-05 0)
(-0.00354643 -4.60551e-05 0)
(-0.00347842 -4.80202e-05 0)
(-0.00340763 -4.99303e-05 0)
(-0.00333414 -5.17799e-05 0)
(-0.00325804 -5.35635e-05 0)
(-0.00317944 -5.52756e-05 0)
(-0.00309843 -5.69102e-05 0)
(-0.00301514 -5.84617e-05 0)
(-0.00292969 -5.99243e-05 0)
(-0.0028422 -6.12926e-05 0)
(-0.00275282 -6.25611e-05 0)
(-0.0026617 -6.37241e-05 0)
(-0.00256899 -6.47761e-05 0)
(-0.00247485 -6.57116e-05 0)
(-0.00237946 -6.65253e-05 0)
(-0.00228299 -6.72117e-05 0)
(-0.00218562 -6.77657e-05 0)
(-0.00208756 -6.81824e-05 0)
(-0.001989 -6.84572e-05 0)
(-0.00189014 -6.85852e-05 0)
(-0.00179121 -6.85619e-05 0)
(-0.00169241 -6.83829e-05 0)
(-0.00159398 -6.80442e-05 0)
(-0.00149615 -6.7542e-05 0)
(-0.00139915 -6.68724e-05 0)
(-0.00130322 -6.60318e-05 0)
(-0.00120862 -6.50169e-05 0)
(-0.00111559 -6.38248e-05 0)
(-0.00102438 -6.24525e-05 0)
(-0.000935263 -6.08973e-05 0)
(-0.000848488 -5.91569e-05 0)
(-0.000764323 -5.72294e-05 0)
(-0.000683033 -5.51134e-05 0)
(-0.000604885 -5.28078e-05 0)
(-0.000530147 -5.03115e-05 0)
(-0.000459085 -4.76242e-05 0)
(-0.000391965 -4.47467e-05 0)
(-0.000329048 -4.16805e-05 0)
(-0.000270591 -3.84284e-05 0)
(-0.000216844 -3.49948e-05 0)
(-0.000168043 -3.13863e-05 0)
(-0.000124411 -2.76129e-05 0)
(-8.61482e-05 -2.36893e-05 0)
(-5.34252e-05 -1.96367e-05 0)
(-2.637e-05 -1.54858e-05 0)
(-5.05205e-06 -1.12816e-05 0)
(1.05405e-05 -7.09054e-06 0)
(2.05346e-05 -3.01201e-06 0)
(2.52204e-05 8.03761e-07 0)
(2.51171e-05 4.12805e-06 0)
(2.10475e-05 6.61383e-06 0)
(1.42482e-05 7.73771e-06 0)
(6.7463e-06 6.75421e-06 0)
(1.57036e-06 2.97758e-06 0)
(1.47339e-06 -6.27792e-06 0)
(5.25588e-06 -1.07011e-05 0)
(8.4523e-06 -8.6358e-06 0)
(7.9508e-06 -2.57977e-06 0)
(1.69106e-06 5.92332e-06 0)
(-1.14939e-05 1.58112e-05 0)
(-3.22939e-05 2.63776e-05 0)
(-6.10594e-05 3.71467e-05 0)
(-9.78769e-05 4.77992e-05 0)
(-0.000142637 5.8132e-05 0)
(-0.000195104 6.80121e-05 0)
(-0.000254953 7.73556e-05 0)
(-0.000321798 8.61174e-05 0)
(-0.000395219 9.42746e-05 0)
(-0.000474779 0.000101821 0)
(-0.000560031 0.000108763 0)
(-0.000650531 0.000115115 0)
(-0.000745843 0.000120897 0)
(-0.000845541 0.000126131 0)
(-0.000949214 0.000130844 0)
(-0.00105647 0.000135062 0)
(-0.00116694 0.000138812 0)
(-0.00128026 0.000142121 0)
(-0.0013961 0.000145019 0)
(-0.00151415 0.00014753 0)
(-0.0016341 0.00014968 0)
(-0.00175568 0.000151495 0)
(-0.00187864 0.000152997 0)
(-0.00200271 0.000154209 0)
(-0.0021277 0.000155152 0)
(-0.00225337 0.000155845 0)
(-0.00237954 0.000156308 0)
(-0.00250603 0.000156557 0)
(-0.00263266 0.000156607 0)
(-0.00275928 0.000156472 0)
(-0.00288574 0.000156166 0)
(-0.00301191 0.000155701 0)
(-0.00313765 0.000155089 0)
(-0.00326286 0.000154337 0)
(-0.00338741 0.000153454 0)
(-0.0035112 0.000152448 0)
(-0.00363413 0.000151324 0)
(-0.00375611 0.00015009 0)
(-0.00387704 0.000148749 0)
(-0.00399683 0.000147305 0)
(-0.00411541 0.000145761 0)
(-0.00423269 0.00014412 0)
(-0.00434859 0.000142383 0)
(-0.00446302 0.000140552 0)
(-0.00457592 0.000138627 0)
(-0.0046872 0.000136608 0)
(-0.00479679 0.000134496 0)
(-0.00490461 0.000132288 0)
(-0.00501058 0.000129986 0)
(-0.00511462 0.000127588 0)
(-0.00521666 0.000125091 0)
(-0.0053166 0.000122495 0)
(-0.00541438 0.000119797 0)
(-0.00550991 0.000116997 0)
(-0.0056031 0.000114091 0)
(-0.00569387 0.000111078 0)
(-0.00578214 0.000107956 0)
(-0.0058678 0.000104724 0)
(-0.00595078 0.000101378 0)
(-0.00603098 9.79172e-05 0)
(-0.00610831 9.43403e-05 0)
(-0.00618267 9.06455e-05 0)
(-0.00625398 8.68312e-05 0)
(-0.00632213 8.28963e-05 0)
(-0.00638704 7.88399e-05 0)
(-0.0064486 7.46612e-05 0)
(-0.00650671 7.03597e-05 0)
(-0.00656128 6.59349e-05 0)
(-0.00661221 6.13869e-05 0)
(-0.00665941 5.67163e-05 0)
(-0.00670277 5.1924e-05 0)
(-0.00674221 4.70109e-05 0)
(-0.00677762 4.19784e-05 0)
(-0.00680892 3.68282e-05 0)
(-0.00683601 3.15625e-05 0)
(-0.0068588 2.6184e-05 0)
(-0.0068772 2.06959e-05 0)
(-0.00689114 1.51016e-05 0)
(-0.00690053 9.40523e-06 0)
(-0.00690529 3.61104e-06 0)
(-0.00690534 -2.27609e-06 0)
(-0.00690063 -8.2507e-06 0)
(-0.00689107 -1.43067e-05 0)
(-0.00687662 -2.04377e-05 0)
(-0.00685721 -2.66366e-05 0)
(-0.00683279 -3.28959e-05 0)
(-0.00680334 -3.92077e-05 0)
(-0.00676879 -4.55634e-05 0)
(-0.00672914 -5.19538e-05 0)
(-0.00668435 -5.83693e-05 0)
(-0.00663442 -6.47996e-05 0)
(-0.00657933 -7.1234e-05 0)
(-0.00651909 -7.76613e-05 0)
(-0.00645371 -8.407e-05 0)
(-0.00638321 -9.04479e-05 0)
(-0.00630763 -9.67822e-05 0)
(-0.006227 -0.00010306 0)
(-0.00614138 -0.000109267 0)
(-0.00605084 -0.00011539 0)
(-0.00595544 -0.000121415 0)
(-0.00585526 -0.000127327 0)
(-0.00575042 -0.00013311 0)
(-0.00564102 -0.00013875 0)
(-0.00552717 -0.000144232 0)
(-0.00540901 -0.000149539 0)
(-0.0052867 -0.000154656 0)
(-0.00516038 -0.000159566 0)
(-0.00503023 -0.000164255 0)
(-0.00489643 -0.000168705 0)
(-0.00475918 -0.0001729 0)
(-0.0046187 -0.000176825 0)
(-0.00447519 -0.000180462 0)
(-0.0043289 -0.000183798 0)
(-0.00418008 -0.000186815 0)
(-0.00402898 -0.000189498 0)
(-0.00387587 -0.000191833 0)
(-0.00372105 -0.000193803 0)
(-0.0035648 -0.000195394 0)
(-0.00340744 -0.000196592 0)
(-0.00324927 -0.000197384 0)
(-0.00309064 -0.000197756 0)
(-0.00293188 -0.000197695 0)
(-0.00277333 -0.000197188 0)
(-0.00261536 -0.000196226 0)
(-0.00245833 -0.000194795 0)
(-0.00230262 -0.000192886 0)
(-0.00214862 -0.000190488 0)
(-0.00199671 -0.000187593 0)
(-0.00184729 -0.000184193 0)
(-0.00170076 -0.000180279 0)
(-0.00155754 -0.000175846 0)
(-0.00141803 -0.000170887 0)
(-0.00128265 -0.000165398 0)
(-0.00115181 -0.000159375 0)
(-0.00102594 -0.000152818 0)
(-0.000905448 -0.000145725 0)
(-0.000790752 -0.000138099 0)
(-0.000682261 -0.000129945 0)
(-0.000580376 -0.000121271 0)
(-0.000485486 -0.000112088 0)
(-0.000397965 -0.000102417 0)
(-0.000318164 -9.22813e-05 0)
(-0.000246406 -8.17191e-05 0)
(-0.000182972 -7.07809e-05 0)
(-0.000128089 -5.95376e-05 0)
(-8.19147e-05 -4.80878e-05 0)
(-4.45082e-05 -3.65696e-05 0)
(-1.58015e-05 -2.51769e-05 0)
(4.44531e-06 -1.41837e-05 0)
(1.6702e-05 -3.97868e-06 0)
(2.17409e-05 4.88718e-06 0)
(2.07065e-05 1.16404e-05 0)
(1.52057e-05 1.5221e-05 0)
(7.71604e-06 1.4249e-05 0)
(1.92977e-06 7.17185e-06 0)
(1.18087e-06 -8.85821e-06 0)
(3.20003e-06 -1.34449e-05 0)
(2.5844e-06 -8.09137e-06 0)
(-3.63406e-06 3.67827e-06 0)
(-1.75397e-05 1.95222e-05 0)
(-4.04117e-05 3.78109e-05 0)
(-7.30491e-05 5.73783e-05 0)
(-0.000115874 7.7402e-05 0)
(-0.000169008 9.73178e-05 0)
(-0.000232357 0.000116736 0)
(-0.000305661 0.000135395 0)
(-0.000388548 0.000153126 0)
(-0.000480561 0.000169824 0)
(-0.000581194 0.000185432 0)
(-0.000689907 0.000199925 0)
(-0.000806144 0.000213303 0)
(-0.000929344 0.000225582 0)
(-0.00105895 0.000236791 0)
(-0.00119442 0.000246969 0)
(-0.00133523 0.000256157 0)
(-0.00148085 0.000264402 0)
(-0.00163081 0.000271753 0)
(-0.00178464 0.000278259 0)
(-0.00194188 0.000283968 0)
(-0.00210214 0.000288931 0)
(-0.002265 0.000293193 0)
(-0.00243009 0.000296802 0)
(-0.00259708 0.000299803 0)
(-0.00276562 0.000302235 0)
(-0.00293542 0.000304138 0)
(-0.00310619 0.000305549 0)
(-0.00327767 0.000306506 0)
(-0.0034496 0.00030704 0)
(-0.00362175 0.00030718 0)
(-0.00379391 0.000306954 0)
(-0.00396588 0.000306388 0)
(-0.00413746 0.000305504 0)
(-0.00430849 0.000304323 0)
(-0.00447879 0.000302865 0)
(-0.00464821 0.000301144 0)
(-0.0048166 0.000299177 0)
(-0.00498382 0.000296975 0)
(-0.00514974 0.000294549 0)
(-0.00531423 0.00029191 0)
(-0.00547717 0.000289063 0)
(-0.00563844 0.000286017 0)
(-0.00579793 0.000282775 0)
(-0.00595552 0.000279342 0)
(-0.00611111 0.00027572 0)
(-0.00626459 0.000271911 0)
(-0.00641584 0.000267915 0)
(-0.00656476 0.000263732 0)
(-0.00671125 0.000259362 0)
(-0.00685519 0.000254803 0)
(-0.00699648 0.000250054 0)
(-0.00713502 0.000245111 0)
(-0.00727068 0.000239972 0)
(-0.00740336 0.000234633 0)
(-0.00753295 0.000229092 0)
(-0.00765932 0.000223345 0)
(-0.00778237 0.000217389 0)
(-0.00790198 0.000211219 0)
(-0.00801803 0.000204833 0)
(-0.00813039 0.000198226 0)
(-0.00823894 0.000191397 0)
(-0.00834356 0.00018434 0)
(-0.00844413 0.000177055 0)
(-0.00854051 0.000169538 0)
(-0.00863258 0.000161787 0)
(-0.00872021 0.0001538 0)
(-0.00880327 0.000145576 0)
(-0.00888162 0.000137115 0)
(-0.00895515 0.000128416 0)
(-0.00902372 0.000119479 0)
(-0.00908719 0.000110305 0)
(-0.00914545 0.000100896 0)
(-0.00919837 9.12541e-05 0)
(-0.00924581 8.13821e-05 0)
(-0.00928765 7.12839e-05 0)
(-0.00932378 6.09638e-05 0)
(-0.00935408 5.04269e-05 0)
(-0.00937842 3.96793e-05 0)
(-0.0093967 2.87281e-05 0)
(-0.00940881 1.7581e-05 0)
(-0.00941465 6.24687e-06 0)
(-0.00941412 -5.26471e-06 0)
(-0.00940713 -1.6943e-05 0)
(-0.00939359 -2.87764e-05 0)
(-0.00937342 -4.07523e-05 0)
(-0.00934655 -5.2857e-05 0)
(-0.00931292 -6.5076e-05 0)
(-0.00927248 -7.73934e-05 0)
(-0.00922516 -8.97926e-05 0)
(-0.00917095 -0.000102256 0)
(-0.00910981 -0.000114765 0)
(-0.00904172 -0.000127299 0)
(-0.00896669 -0.000139839 0)
(-0.00888471 -0.000152361 0)
(-0.0087958 -0.000164844 0)
(-0.0087 -0.000177264 0)
(-0.00859735 -0.000189597 0)
(-0.00848791 -0.000201816 0)
(-0.00837175 -0.000213897 0)
(-0.00824895 -0.000225812 0)
(-0.00811962 -0.000237533 0)
(-0.00798388 -0.000249032 0)
(-0.00784186 -0.00026028 0)
(-0.0076937 -0.000271248 0)
(-0.00753957 -0.000281906 0)
(-0.00737965 -0.000292224 0)
(-0.00721413 -0.000302171 0)
(-0.00704324 -0.000311715 0)
(-0.00686721 -0.000320827 0)
(-0.00668627 -0.000329475 0)
(-0.0065007 -0.000337628 0)
(-0.00631078 -0.000345255 0)
(-0.0061168 -0.000352324 0)
(-0.00591909 -0.000358805 0)
(-0.00571797 -0.000364668 0)
(-0.0055138 -0.000369882 0)
(-0.00530693 -0.000374419 0)
(-0.00509776 -0.000378249 0)
(-0.00488667 -0.000381344 0)
(-0.00467408 -0.000383677 0)
(-0.00446041 -0.00038522 0)
(-0.00424611 -0.00038595 0)
(-0.00403163 -0.000385839 0)
(-0.00381743 -0.000384867 0)
(-0.003604 -0.000383008 0)
(-0.00339182 -0.000380244 0)
(-0.0031814 -0.000376552 0)
(-0.00297325 -0.000371916 0)
(-0.00276789 -0.000366318 0)
(-0.00256586 -0.000359742 0)
(-0.00236768 -0.000352175 0)
(-0.00217389 -0.000343606 0)
(-0.00198506 -0.000334025 0)
(-0.00180171 -0.000323424 0)
(-0.00162442 -0.000311799 0)
(-0.00145372 -0.00029915 0)
(-0.00129016 -0.00028548 0)
(-0.00113429 -0.000270795 0)
(-0.000986633 -0.000255111 0)
(-0.00084771 -0.000238447 0)
(-0.000718019 -0.000220833 0)
(-0.000598034 -0.000202313 0)
(-0.000488194 -0.000182946 0)
(-0.000388896 -0.00016281 0)
(-0.000300476 -0.000142015 0)
(-0.000223197 -0.000120706 0)
(-0.000157224 -9.90829e-05 0)
(-0.000102598 -7.74141e-05 0)
(-5.9196e-05 -5.60659e-05 0)
(-2.66882e-05 -3.55367e-05 0)
(-4.48032e-06 -1.65055e-05 0)
(8.35531e-06 1.0615e-07 0)
(1.31411e-05 1.30595e-05 0)
(1.16722e-05 2.07282e-05 0)
(6.59781e-06 2.1046e-05 0)
(1.78211e-06 1.14064e-05 0)
(6.36272e-07 -1.01652e-05 0)
(3.14059e-08 -1.25558e-05 0)
(-5.84526e-06 -1.83437e-06 0)
(-1.94571e-05 1.75928e-05 0)
(-4.26752e-05 4.27209e-05 0)
(-7.67775e-05 7.13671e-05 0)
(-0.000122575 0.000101924 0)
(-0.000180494 0.000133232 0)
(-0.000250669 0.000164454 0)
(-0.000332999 0.000194998 0)
(-0.000427206 0.000224453 0)
(-0.000532881 0.00025254 0)
(-0.000649518 0.00027908 0)
(-0.000776544 0.000303965 0)
(-0.000913343 0.000327143 0)
(-0.00105928 0.000348598 0)
(-0.00121369 0.000368344 0)
(-0.00137593 0.000386417 0)
(-0.00154536 0.000402865 0)
(-0.00172134 0.000417749 0)
(-0.00190327 0.000431135 0)
(-0.00209055 0.000443097 0)
(-0.00228263 0.000453708 0)
(-0.00247897 0.000463043 0)
(-0.00267905 0.000471174 0)
(-0.00288239 0.000478177 0)
(-0.00308853 0.000484122 0)
(-0.00329705 0.000489078 0)
(-0.00350754 0.00049311 0)
(-0.00371963 0.000496281 0)
(-0.00393295 0.000498651 0)
(-0.00414717 0.000500274 0)
(-0.00436199 0.000501202 0)
(-0.00457711 0.000501482 0)
(-0.00479227 0.000501161 0)
(-0.0050072 0.000500277 0)
(-0.00522166 0.000498869 0)
(-0.00543544 0.000496969 0)
(-0.00564832 0.000494608 0)
(-0.00586011 0.000491811 0)
(-0.00607062 0.000488605 0)
(-0.00627966 0.000485009 0)
(-0.00648707 0.000481041 0)
(-0.00669269 0.000476716 0)
(-0.00689635 0.000472047 0)
(-0.00709792 0.000467045 0)
(-0.00729724 0.000461719 0)
(-0.00749417 0.000456075 0)
(-0.00768857 0.000450118 0)
(-0.00788029 0.00044385 0)
(-0.00806922 0.000437274 0)
(-0.0082552 0.000430389 0)
(-0.0084381 0.000423195 0)
(-0.00861779 0.00041569 0)
(-0.00879414 0.000407872 0)
(-0.00896699 0.000399735 0)
(-0.00913622 0.000391278 0)
(-0.00930169 0.000382494 0)
(-0.00946325 0.00037338 0)
(-0.00962076 0.00036393 0)
(-0.00977407 0.000354138 0)
(-0.00992305 0.000343999 0)
(-0.0100675 0.000333507 0)
(-0.0102074 0.000322659 0)
(-0.0103424 0.000311448 0)
(-0.0104725 0.00029987 0)
(-0.0105975 0.000287921 0)
(-0.0107173 0.000275597 0)
(-0.0108316 0.000262895 0)
(-0.0109404 0.000249813 0)
(-0.0110434 0.000236348 0)
(-0.0111405 0.0002225 0)
(-0.0112316 0.000208269 0)
(-0.0113164 0.000193655 0)
(-0.0113949 0.00017866 0)
(-0.0114669 0.000163287 0)
(-0.0115321 0.000147539 0)
(-0.0115906 0.000131422 0)
(-0.011642 0.000114941 0)
(-0.0116863 9.81046e-05 0)
(-0.0117233 8.09211e-05 0)
(-0.0117529 6.34004e-05 0)
(-0.0117749 4.55539e-05 0)
(-0.0117893 2.73943e-05 0)
(-0.0117958 8.93615e-06 0)
(-0.0117944 -9.80483e-06 0)
(-0.0117849 -2.88111e-05 0)
(-0.0117673 -4.80638e-05 0)
(-0.0117415 -6.75424e-05 0)
(-0.0117073 -8.72248e-05 0)
(-0.0116648 -0.000107087 0)
(-0.0116137 -0.000127104 0)
(-0.0115542 -0.000147249 0)
(-0.011486 -0.000167492 0)
(-0.0114093 -0.000187804 0)
(-0.0113239 -0.000208153 0)
(-0.01123 -0.000228504 0)
(-0.0111274 -0.000248824 0)
(-0.0110163 -0.000269076 0)
(-0.0108966 -0.000289221 0)
(-0.0107684 -0.00030922 0)
(-0.0106318 -0.000329032 0)
(-0.0104869 -0.000348615 0)
(-0.0103338 -0.000367926 0)
(-0.0101726 -0.00038692 0)
(-0.0100034 -0.000405551 0)
(-0.00982653 -0.000423774 0)
(-0.00964204 -0.00044154 0)
(-0.00945017 -0.000458801 0)
(-0.00925114 -0.00047551 0)
(-0.00904521 -0.000491616 0)
(-0.00883262 -0.00050707 0)
(-0.00861368 -0.000521821 0)
(-0.00838869 -0.00053582 0)
(-0.00815798 -0.000549016 0)
(-0.00792189 -0.00056136 0)
(-0.0076808 -0.000572802 0)
(-0.00743509 -0.000583292 0)
(-0.00718518 -0.000592781 0)
(-0.0069315 -0.000601221 0)
(-0.00667449 -0.000608565 0)
(-0.00641463 -0.000614766 0)
(-0.00615241 -0.000619779 0)
(-0.00588833 -0.00062356 0)
(-0.00562291 -0.000626066 0)
(-0.00535671 -0.000627256 0)
(-0.00509028 -0.000627091 0)
(-0.00482419 -0.000625533 0)
(-0.00455903 -0.000622545 0)
(-0.00429541 -0.000618096 0)
(-0.00403394 -0.000612152 0)
(-0.00377525 -0.000604685 0)
(-0.00351998 -0.000595668 0)
(-0.00326877 -0.000585079 0)
(-0.00302229 -0.000572895 0)
(-0.00278119 -0.000559102 0)
(-0.00254615 -0.000543684 0)
(-0.00231782 -0.000526634 0)
(-0.00209687 -0.000507948 0)
(-0.00188398 -0.000487627 0)
(-0.0016798 -0.000465682 0)
(-0.00148499 -0.000442128 0)
(-0.00130016 -0.000416996 0)
(-0.00112595 -0.000390324 0)
(-0.000962938 -0.00036217 0)
(-0.000811677 -0.000332611 0)
(-0.000672676 -0.000301751 0)
(-0.000546386 -0.00026973 0)
(-0.000433185 -0.000236731 0)
(-0.000333356 -0.000202997 0)
(-0.000247069 -0.000168851 0)
(-0.000174344 -0.000134717 0)
(-0.00011502 -0.00010116 0)
(-6.87102e-05 -6.89265e-05 0)
(-3.47501e-05 -3.90027e-05 0)
(-1.21374e-05 -1.26868e-05 0)
(5.22317e-07 8.32506e-06 0)
(5.08633e-06 2.18562e-05 0)
(4.16071e-06 2.51636e-05 0)
(1.35655e-06 1.46325e-05 0)
(-1.91565e-08 -9.58242e-06 0)
(-3.7319e-06 -7.01392e-06 0)
(-1.57975e-05 1.13729e-05 0)
(-3.79117e-05 4.0524e-05 0)
(-7.16079e-05 7.68647e-05 0)
(-0.000118056 0.000117725 0)
(-0.000177989 0.000161102 0)
(-0.000251791 0.000205504 0)
(-0.000339567 0.000249831 0)
(-0.000441191 0.000293282 0)
(-0.000556357 0.000335287 0)
(-0.000684621 0.000375448 0)
(-0.000825435 0.000413496 0)
(-0.000978172 0.000449266 0)
(-0.00114216 0.000482665 0)
(-0.00131669 0.000513655 0)
(-0.00150103 0.000542244 0)
(-0.00169446 0.000568468 0)
(-0.00189625 0.000592386 0)
(-0.00210569 0.000614075 0)
(-0.00232209 0.000633621 0)
(-0.00254476 0.000651122 0)
(-0.00277307 0.000666676 0)
(-0.0030064 0.000680386 0)
(-0.00324415 0.000692355 0)
(-0.00348576 0.000702684 0)
(-0.0037307 0.000711474 0)
(-0.00397846 0.000718819 0)
(-0.00422858 0.000724813 0)
(-0.00448061 0.000729545 0)
(-0.00473412 0.000733099 0)
(-0.00498873 0.000735554 0)
(-0.00524406 0.000736984 0)
(-0.00549977 0.000737456 0)
(-0.00575553 0.000737037 0)
(-0.00601104 0.000735785 0)
(-0.00626602 0.000733753 0)
(-0.00652018 0.000730989 0)
(-0.00677329 0.000727538 0)
(-0.0070251 0.000723438 0)
(-0.00727539 0.000718726 0)
(-0.00752393 0.000713431 0)
(-0.00777052 0.000707581 0)
(-0.00801497 0.000701197 0)
(-0.00825709 0.0006943 0)
(-0.00849669 0.000686905 0)
(-0.00873359 0.000679025 0)
(-0.00896763 0.000670671 0)
(-0.00919864 0.000661849 0)
(-0.00942644 0.000652565 0)
(-0.00965087 0.000642821 0)
(-0.00987177 0.00063262 0)
(-0.010089 0.00062196 0)
(-0.0103023 0.000610839 0)
(-0.0105116 0.000599253 0)
(-0.0107168 0.000587199 0)
(-0.0109176 0.00057467 0)
(-0.0111138 0.000561661 0)
(-0.0113054 0.000548164 0)
(-0.0114921 0.000534174 0)
(-0.0116738 0.000519683 0)
(-0.0118503 0.000504683 0)
(-0.0120215 0.000489167 0)
(-0.012187 0.000473128 0)
(-0.0123468 0.000456559 0)
(-0.0125008 0.000439454 0)
(-0.0126486 0.000421808 0)
(-0.0127901 0.000403615 0)
(-0.0129251 0.000384872 0)
(-0.0130535 0.000365575 0)
(-0.0131751 0.000345721 0)
(-0.0132896 0.00032531 0)
(-0.0133969 0.000304342 0)
(-0.0134968 0.000282819 0)
(-0.0135891 0.000260743 0)
(-0.0136737 0.000238118 0)
(-0.0137503 0.000214951 0)
(-0.0138187 0.000191248 0)
(-0.0138789 0.00016702 0)
(-0.0139306 0.000142277 0)
(-0.0139736 0.000117033 0)
(-0.0140078 9.13017e-05 0)
(-0.014033 6.51006e-05 0)
(-0.0140491 3.84485e-05 0)
(-0.014056 1.13665e-05 0)
(-0.0140535 -1.6122e-05 0)
(-0.0140414 -4.39915e-05 0)
(-0.0140197 -7.22141e-05 0)
(-0.0139882 -0.00010076 0)
(-0.0139469 -0.000129596 0)
(-0.0138957 -0.000158689 0)
(-0.0138344 -0.000188 0)
(-0.0137631 -0.00021749 0)
(-0.0136816 -0.000247118 0)
(-0.01359 -0.00027684 0)
(-0.0134882 -0.000306608 0)
(-0.0133763 -0.000336374 0)
(-0.0132542 -0.000366087 0)
(-0.013122 -0.000395694 0)
(-0.0129797 -0.00042514 0)
(-0.0128274 -0.000454366 0)
(-0.0126652 -0.000483314 0)
(-0.0124932 -0.000511922 0)
(-0.0123115 -0.000540128 0)
(-0.0121203 -0.000567867 0)
(-0.0119198 -0.000595072 0)
(-0.0117101 -0.000621676 0)
(-0.0114915 -0.00064761 0)
(-0.0112643 -0.000672805 0)
(-0.0110286 -0.000697189 0)
(-0.0107847 -0.000720691 0)
(-0.0105331 -0.00074324 0)
(-0.010274 -0.000764761 0)
(-0.0100078 -0.000785183 0)
(-0.00973483 -0.000804433 0)
(-0.00945557 -0.000822438 0)
(-0.00917043 -0.000839126 0)
(-0.00887986 -0.000854426 0)
(-0.00858436 -0.000868265 0)
(-0.00828443 -0.000880576 0)
(-0.00798059 -0.000891289 0)
(-0.0076734 -0.000900336 0)
(-0.00736343 -0.000907652 0)
(-0.00705128 -0.000913174 0)
(-0.00673755 -0.00091684 0)
(-0.0064229 -0.00091859 0)
(-0.00610796 -0.000918368 0)
(-0.00579341 -0.000916119 0)
(-0.00547995 -0.000911792 0)
(-0.00516827 -0.000905339 0)
(-0.00485909 -0.000896716 0)
(-0.00455316 -0.000885881 0)
(-0.0042512 -0.000872798 0)
(-0.00395398 -0.000857433 0)
(-0.00366226 -0.000839761 0)
(-0.00337681 -0.000819757 0)
(-0.00309839 -0.000797407 0)
(-0.00282778 -0.000772701 0)
(-0.00256575 -0.000745638 0)
(-0.00231308 -0.000716225 0)
(-0.0020705 -0.000684483 0)
(-0.00183877 -0.000650442 0)
(-0.0016186 -0.000614152 0)
(-0.0014107 -0.000575678 0)
(-0.00121571 -0.000535114 0)
(-0.00103428 -0.000492582 0)
(-0.00086694 -0.000448242 0)
(-0.000714203 -0.000402307 0)
(-0.000576471 -0.00035505 0)
(-0.000454047 -0.000306827 0)
(-0.000347102 -0.000258099 0)
(-0.000255649 -0.000209466 0)
(-0.00017951 -0.0001617 0)
(-0.000118272 -0.000115805 0)
(-7.12493e-05 -7.30722e-05 0)
(-3.74328e-05 -3.51647e-05 0)
(-1.54381e-05 -4.20912e-06 0)
(-3.44322e-06 1.71102e-05 0)
(9.48043e-07 2.54379e-05 0)
(7.92338e-07 1.63235e-05 0)
(-7.08972e-07 -6.92918e-06 0)
(-7.77195e-06 3.70998e-06 0)
(-2.6549e-05 3.23172e-05 0)
(-5.78544e-05 7.33731e-05 0)
(-0.000102786 0.000122874 0)
(-0.000162322 0.000177756 0)
(-0.000237066 0.000235665 0)
(-0.000327304 0.000294811 0)
(-0.000433073 0.00035385 0)
(-0.000554199 0.000411781 0)
(-0.000690335 0.000467873 0)
(-0.000840995 0.000521605 0)
(-0.00100559 0.000572616 0)
(-0.00118345 0.000620674 0)
(-0.00137384 0.000665639 0)
(-0.00157601 0.000707448 0)
(-0.00178916 0.000746094 0)
(-0.00201251 0.000781612 0)
(-0.00224526 0.000814068 0)
(-0.00248662 0.000843553 0)
(-0.00273584 0.000870175 0)
(-0.00299217 0.000894052 0)
(-0.00325489 0.00091531 0)
(-0.00352331 0.000934081 0)
(-0.00379676 0.000950497 0)
(-0.00407463 0.000964691 0)
(-0.0043563 0.000976792 0)
(-0.00464121 0.000986927 0)
(-0.00492882 0.000995217 0)
(-0.00521862 0.00100178 0)
(-0.00551014 0.00100673 0)
(-0.00580293 0.00101017 0)
(-0.00609657 0.0010122 0)
(-0.00639065 0.00101292 0)
(-0.0066848 0.0010124 0)
(-0.00697867 0.00101072 0)
(-0.00727193 0.00100797 0)
(-0.00756427 0.00100421 0)
(-0.0078554 0.000999486 0)
(-0.00814502 0.000993865 0)
(-0.00843289 0.000987391 0)
(-0.00871875 0.000980106 0)
(-0.00900236 0.000972047 0)
(-0.00928349 0.000963245 0)
(-0.00956191 0.000953728 0)
(-0.00983742 0.000943516 0)
(-0.0101098 0.00093263 0)
(-0.0103789 0.000921084 0)
(-0.0106444 0.000908887 0)
(-0.0109062 0.000896048 0)
(-0.0111641 0.000882571 0)
(-0.0114179 0.000868459 0)
(-0.0116675 0.000853712 0)
(-0.0119125 0.000838328 0)
(-0.0121529 0.000822302 0)
(-0.0123884 0.000805629 0)
(-0.0126188 0.000788303 0)
(-0.0128441 0.000770316 0)
(-0.0130638 0.00075166 0)
(-0.013278 0.000732326 0)
(-0.0134863 0.000712304 0)
(-0.0136886 0.000691586 0)
(-0.0138847 0.000670161 0)
(-0.0140743 0.000648021 0)
(-0.0142573 0.000625159 0)
(-0.0144335 0.000601564 0)
(-0.0146026 0.000577232 0)
(-0.0147644 0.000552154 0)
(-0.0149188 0.000526327 0)
(-0.0150654 0.000499746 0)
(-0.0152042 0.000472409 0)
(-0.0153349 0.000444315 0)
(-0.0154572 0.000415464 0)
(-0.015571 0.000385859 0)
(-0.0156761 0.000355505 0)