/*--------------------------------*- C++ -*----------------------------------*\
  =========                 |
  \\      /  F ield         | OpenFOAM: The Open Source CFD Toolbox
   \\    /   O peration     | Website:  https://openfoam.org
    \\  /    A nd           | Version:  7
     \\/     M anipulation  |
\*---------------------------------------------------------------------------*/
FoamFile
{
    version     2.0;
    format      ascii;
    class       volVectorField;
    location    "0.425";
    object      U;
}
// * * * * * * * * * * * * * * * * * * * * * * * * * * * * * * * * * * * * * //

dimensions      [0 1 -1 0 0 0 0];

internalField   nonuniform List<vector> 
25600
(
(1.21301e-06 -1.23289e-06 0)
(4.48072e-06 -2.0354e-06 0)
(7.93643e-06 -1.67679e-06 0)
(9.44034e-06 -8.02633e-07 0)
(8.00817e-06 2.62096e-07 0)
(3.386e-06 1.34626e-06 0)
(-4.42947e-06 2.37499e-06 0)
(-1.52991e-05 3.3245e-06 0)
(-2.90113e-05 4.18414e-06 0)
(-4.53307e-05 4.95136e-06 0)
(-6.40099e-05 5.62762e-06 0)
(-8.48059e-05 6.22108e-06 0)
(-0.000107489 6.74261e-06 0)
(-0.000131842 7.19974e-06 0)
(-0.000157666 7.59593e-06 0)
(-0.000184774 7.93441e-06 0)
(-0.000212996 8.22154e-06 0)
(-0.00024218 8.46524e-06 0)
(-0.000272189 8.67189e-06 0)
(-0.000302899 8.84564e-06 0)
(-0.000334199 8.98839e-06 0)
(-0.000365987 9.10226e-06 0)
(-0.000398176 9.19179e-06 0)
(-0.000430688 9.26161e-06 0)
(-0.000463454 9.31443e-06 0)
(-0.000496411 9.3517e-06 0)
(-0.000529506 9.37457e-06 0)
(-0.00056269 9.38454e-06 0)
(-0.00059592 9.3839e-06 0)
(-0.00062916 9.37478e-06 0)
(-0.000662376 9.35809e-06 0)
(-0.000695538 9.33403e-06 0)
(-0.00072862 9.30332e-06 0)
(-0.000761599 9.26698e-06 0)
(-0.000794451 9.22566e-06 0)
(-0.000827159 9.17963e-06 0)
(-0.000859702 9.1291e-06 0)
(-0.000892064 9.07449e-06 0)
(-0.000924228 9.01605e-06 0)
(-0.000956178 8.9537e-06 0)
(-0.000987898 8.88716e-06 0)
(-0.00101937 8.81639e-06 0)
(-0.00105058 8.74141e-06 0)
(-0.00108152 8.66218e-06 0)
(-0.00111215 8.57855e-06 0)
(-0.00114248 8.49029e-06 0)
(-0.00117247 8.39704e-06 0)
(-0.00120211 8.2983e-06 0)
(-0.00123138 8.19363e-06 0)
(-0.00126026 8.08291e-06 0)
(-0.00128872 7.96615e-06 0)
(-0.00131675 7.84311e-06 0)
(-0.00134432 7.71315e-06 0)
(-0.0013714 7.57557e-06 0)
(-0.00139796 7.42997e-06 0)
(-0.00142399 7.27629e-06 0)
(-0.00144944 7.11455e-06 0)
(-0.00147429 6.94442e-06 0)
(-0.00149852 6.76521e-06 0)
(-0.00152208 6.57629e-06 0)
(-0.00154495 6.37746e-06 0)
(-0.00156708 6.16881e-06 0)
(-0.00158845 5.95033e-06 0)
(-0.00160903 5.72162e-06 0)
(-0.00162876 5.4821e-06 0)
(-0.00164763 5.23137e-06 0)
(-0.00166558 4.96949e-06 0)
(-0.00168259 4.69676e-06 0)
(-0.00169861 4.41321e-06 0)
(-0.00171361 4.11846e-06 0)
(-0.00172755 3.81214e-06 0)
(-0.00174038 3.49425e-06 0)
(-0.00175208 3.16524e-06 0)
(-0.0017626 2.82555e-06 0)
(-0.00177191 2.47526e-06 0)
(-0.00177997 2.11427e-06 0)
(-0.00178675 1.74264e-06 0)
(-0.0017922 1.36077e-06 0)
(-0.00179631 9.69319e-07 0)
(-0.00179903 5.68923e-07 0)
(-0.00180034 1.59989e-07 0)
(-0.00180022 -2.57097e-07 0)
(-0.00179862 -6.81808e-07 0)
(-0.00179553 -1.11339e-06 0)
(-0.00179094 -1.55096e-06 0)
(-0.00178481 -1.99366e-06 0)
(-0.00177714 -2.44066e-06 0)
(-0.00176791 -2.89113e-06 0)
(-0.00175711 -3.34421e-06 0)
(-0.00174474 -3.79878e-06 0)
(-0.00173079 -4.2536e-06 0)
(-0.00171527 -4.70749e-06 0)
(-0.00169817 -5.15944e-06 0)
(-0.00167952 -5.60843e-06 0)
(-0.00165932 -6.0532e-06 0)
(-0.00163759 -6.49222e-06 0)
(-0.00161435 -6.92412e-06 0)
(-0.00158962 -7.34775e-06 0)
(-0.00156345 -7.76197e-06 0)
(-0.00153585 -8.16548e-06 0)
(-0.00150688 -8.55682e-06 0)
(-0.00147657 -8.93463e-06 0)
(-0.00144497 -9.2977e-06 0)
(-0.00141213 -9.64486e-06 0)
(-0.00137812 -9.97487e-06 0)
(-0.00134298 -1.02864e-05 0)
(-0.00130679 -1.05782e-05 0)
(-0.00126961 -1.08494e-05 0)
(-0.00123152 -1.10991e-05 0)
(-0.00119258 -1.13263e-05 0)
(-0.00115288 -1.15299e-05 0)
(-0.0011125 -1.1709e-05 0)
(-0.00107151 -1.18627e-05 0)
(-0.00103001 -1.19906e-05 0)
(-0.000988094 -1.20922e-05 0)
(-0.000945839 -1.21671e-05 0)
(-0.000903341 -1.22146e-05 0)
(-0.000860696 -1.22343e-05 0)
(-0.000817996 -1.22259e-05 0)
(-0.000775338 -1.21893e-05 0)
(-0.000732817 -1.21245e-05 0)
(-0.000690531 -1.20314e-05 0)
(-0.000648575 -1.19104e-05 0)
(-0.000607046 -1.17614e-05 0)
(-0.00056604 -1.15846e-05 0)
(-0.000525651 -1.13802e-05 0)
(-0.000485974 -1.11485e-05 0)
(-0.000447102 -1.08901e-05 0)
(-0.000409126 -1.06056e-05 0)
(-0.000372137 -1.02955e-05 0)
(-0.000336223 -9.96014e-06 0)
(-0.000301471 -9.60021e-06 0)
(-0.000267965 -9.21637e-06 0)
(-0.000235787 -8.8093e-06 0)
(-0.000205017 -8.37959e-06 0)
(-0.000175733 -7.92796e-06 0)
(-0.00014801 -7.45536e-06 0)
(-0.000121919 -6.96285e-06 0)
(-9.75288e-05 -6.45122e-06 0)
(-7.49045e-05 -5.92102e-06 0)
(-5.41077e-05 -5.37293e-06 0)
(-3.51958e-05 -4.80815e-06 0)
(-1.82214e-05 -4.22831e-06 0)
(-3.23106e-06 -3.63512e-06 0)
(9.7347e-06 -3.03024e-06 0)
(2.06435e-05 -2.41531e-06 0)
(2.94724e-05 -1.79282e-06 0)
(3.62106e-05 -1.16612e-06 0)
(4.08625e-05 -5.39718e-07 0)
(4.34521e-05 8.0352e-08 0)
(4.40289e-05 6.85604e-07 0)
(4.26761e-05 1.26417e-06 0)
(3.95225e-05 1.79942e-06 0)
(3.47595e-05 2.26659e-06 0)
(2.86664e-05 2.62763e-06 0)
(2.16472e-05 2.82338e-06 0)
(1.42756e-05 2.76484e-06 0)
(7.35454e-06 2.32008e-06 0)
(2.06643e-06 1.3362e-06 0)
(4.47774e-09 5.65226e-09 0)
(2.01413e-06 -4.47496e-06 0)
(6.37803e-06 -6.39798e-06 0)
(9.1614e-06 -3.89142e-06 0)
(6.83254e-06 8.80319e-07 0)
(-2.48738e-06 6.67445e-06 0)
(-1.95641e-05 1.27717e-05 0)
(-4.45821e-05 1.87747e-05 0)
(-7.73806e-05 2.44802e-05 0)
(-0.000117585 2.97816e-05 0)
(-0.0001647 3.46335e-05 0)
(-0.000218172 3.90222e-05 0)
(-0.000277429 4.29566e-05 0)
(-0.000341905 4.64605e-05 0)
(-0.000411052 4.95621e-05 0)
(-0.00048435 5.22901e-05 0)
(-0.000561312 5.4672e-05 0)
(-0.000641486 5.67367e-05 0)
(-0.000724461 5.85149e-05 0)
(-0.000809858 6.00361e-05 0)
(-0.000897333 6.13267e-05 0)
(-0.000986574 6.24098e-05 0)
(-0.0010773 6.33062e-05 0)
(-0.00116926 6.40359e-05 0)
(-0.00126223 6.46182e-05 0)
(-0.00135601 6.50709e-05 0)
(-0.00145041 6.54089e-05 0)
(-0.00154528 6.56445e-05 0)
(-0.00164047 6.57888e-05 0)
(-0.00173586 6.58525e-05 0)
(-0.00183133 6.58454e-05 0)
(-0.00192678 6.57756e-05 0)
(-0.00202212 6.56495e-05 0)
(-0.00211727 6.54726e-05 0)
(-0.00221215 6.52495e-05 0)
(-0.0023067 6.49844e-05 0)
(-0.00240085 6.46804e-05 0)
(-0.00249454 6.43402e-05 0)
(-0.00258773 6.39658e-05 0)
(-0.00268035 6.35583e-05 0)
(-0.00277235 6.31181e-05 0)
(-0.00286369 6.26455e-05 0)
(-0.00295432 6.21406e-05 0)
(-0.00304419 6.16033e-05 0)
(-0.00313324 6.10325e-05 0)
(-0.00322143 6.04269e-05 0)
(-0.0033087 5.97852e-05 0)
(-0.00339499 5.91061e-05 0)
(-0.00348026 5.83881e-05 0)
(-0.00356444 5.76291e-05 0)
(-0.00364746 5.6827e-05 0)
(-0.00372927 5.59798e-05 0)
(-0.0038098 5.50856e-05 0)
(-0.00388897 5.41423e-05 0)
(-0.00396672 5.31475e-05 0)
(-0.00404297 5.2099e-05 0)
(-0.00411764 5.09946e-05 0)
(-0.00419064 4.98323e-05 0)
(-0.0042619 4.861e-05 0)
(-0.00433132 4.73258e-05 0)
(-0.00439881 4.59773e-05 0)
(-0.00446429 4.45627e-05 0)
(-0.00452765 4.30804e-05 0)
(-0.0045888 4.15292e-05 0)
(-0.00464764 3.99074e-05 0)
(-0.00470406 3.82137e-05 0)
(-0.00475797 3.64468e-05 0)
(-0.00480926 3.46056e-05 0)
(-0.00485783 3.26898e-05 0)
(-0.00490356 3.06993e-05 0)
(-0.00494635 2.86337e-05 0)
(-0.0049861 2.64928e-05 0)
(-0.0050227 2.42769e-05 0)
(-0.00505605 2.19866e-05 0)
(-0.00508603 1.96232e-05 0)
(-0.00511255 1.71882e-05 0)
(-0.00513552 1.46829e-05 0)
(-0.00515482 1.21091e-05 0)
(-0.00517037 9.46915e-06 0)
(-0.00518208 6.76585e-06 0)
(-0.00518986 4.00252e-06 0)
(-0.00519363 1.18264e-06 0)
(-0.00519331 -1.69001e-06 0)
(-0.00518883 -4.61131e-06 0)
(-0.00518013 -7.57665e-06 0)
(-0.00516715 -1.05809e-05 0)
(-0.00514984 -1.36187e-05 0)
(-0.00512816 -1.66841e-05 0)
(-0.00510207 -1.97711e-05 0)
(-0.00507155 -2.28731e-05 0)
(-0.00503658 -2.59836e-05 0)
(-0.00499716 -2.90953e-05 0)
(-0.0049533 -3.22005e-05 0)
(-0.004905 -3.52916e-05 0)
(-0.0048523 -3.83609e-05 0)
(-0.00479523 -4.14002e-05 0)
(-0.00473384 -4.44013e-05 0)
(-0.00466819 -4.73555e-05 0)
(-0.00459836 -5.02543e-05 0)
(-0.00452442 -5.30894e-05 0)
(-0.00444648 -5.58521e-05 0)
(-0.00436464 -5.85337e-05 0)
(-0.00427902 -6.11257e-05 0)
(-0.00418976 -6.36197e-05 0)
(-0.004097 -6.60076e-05 0)
(-0.00400089 -6.82812e-05 0)
(-0.00390161 -7.04327e-05 0)
(-0.00379932 -7.24543e-05 0)
(-0.00369422 -7.43389e-05 0)
(-0.00358651 -7.60797e-05 0)
(-0.00347638 -7.76703e-05 0)
(-0.00336407 -7.91047e-05 0)
(-0.00324978 -8.0377e-05 0)
(-0.00313376 -8.14819e-05 0)
(-0.00301624 -8.24149e-05 0)
(-0.00289747 -8.31719e-05 0)
(-0.0027777 -8.37494e-05 0)
(-0.00265718 -8.41443e-05 0)
(-0.00253618 -8.4354e-05 0)
(-0.00241496 -8.43762e-05 0)
(-0.00229377 -8.42097e-05 0)
(-0.0021729 -8.38535e-05 0)
(-0.00205261 -8.33072e-05 0)
(-0.00193317 -8.25709e-05 0)
(-0.00181485 -8.16453e-05 0)
(-0.00169792 -8.05316e-05 0)
(-0.00158264 -7.92312e-05 0)
(-0.00146929 -7.7746e-05 0)
(-0.00135811 -7.60783e-05 0)
(-0.00124937 -7.42312e-05 0)
(-0.00114332 -7.22078e-05 0)
(-0.00104022 -7.00116e-05 0)
(-0.000940309 -6.76463e-05 0)
(-0.000843822 -6.51162e-05 0)
(-0.000750996 -6.24259e-05 0)
(-0.000662057 -5.958e-05 0)
(-0.000577224 -5.65837e-05 0)
(-0.000496709 -5.34425e-05 0)
(-0.000420715 -5.01628e-05 0)
(-0.000349434 -4.67512e-05 0)
(-0.000283051 -4.32147e-05 0)
(-0.000221736 -3.95612e-05 0)
(-0.000165648 -3.57996e-05 0)
(-0.000114928 -3.19408e-05 0)
(-6.97032e-05 -2.79973e-05 0)
(-3.00756e-05 -2.3984e-05 0)
(3.87592e-06 -1.99187e-05 0)
(3.21035e-05 -1.58232e-05 0)
(5.45972e-05 -1.17252e-05 0)
(7.13944e-05 -7.65979e-06 0)
(8.25913e-05 -3.6724e-06 0)
(8.83591e-05 1.77398e-07 0)
(8.8965e-05 3.81056e-06 0)
(8.47987e-05 7.12165e-06 0)
(7.6408e-05 9.96696e-06 0)
(6.45474e-05 1.21501e-05 0)
(5.02335e-05 1.34037e-05 0)
(3.47865e-05 1.33752e-05 0)
(1.98572e-05 1.16232e-05 0)
(7.70297e-06 7.72107e-06 0)
(1.3277e-06 2.06357e-06 0)
(1.69065e-06 -7.94923e-06 0)
(3.92211e-06 -9.17798e-06 0)
(1.61787e-06 -1.59944e-06 0)
(-8.85854e-06 1.08781e-05 0)
(-2.96357e-05 2.58298e-05 0)
(-6.17339e-05 4.17219e-05 0)
(-0.000105484 5.7599e-05 0)
(-0.000160753 7.28942e-05 0)
(-0.000227102 8.72864e-05 0)
(-0.000303898 0.000100608 0)
(-0.000390399 0.000112787 0)
(-0.00048581 0.000123809 0)
(-0.000589325 0.000133706 0)
(-0.000700152 0.000142529 0)
(-0.000817525 0.000150341 0)
(-0.000940719 0.000157213 0)
(-0.00106905 0.000163218 0)
(-0.00120189 0.000168426 0)
(-0.00133866 0.000172911 0)
(-0.00147881 0.000176742 0)
(-0.00162188 0.000179981 0)
(-0.0017674 0.000182689 0)
(-0.00191499 0.000184918 0)
(-0.00206429 0.00018672 0)
(-0.00221496 0.000188141 0)
(-0.00236671 0.000189223 0)
(-0.0025193 0.000190002 0)
(-0.00267247 0.000190512 0)
(-0.00282603 0.000190782 0)
(-0.00297978 0.000190837 0)
(-0.00313355 0.000190701 0)
(-0.00328719 0.000190393 0)
(-0.00344056 0.000189929 0)
(-0.00359354 0.000189324 0)
(-0.00374601 0.00018859 0)
(-0.00389786 0.000187735 0)
(-0.00404899 0.000186767 0)
(-0.00419932 0.000185693 0)
(-0.00434874 0.000184517 0)
(-0.00449717 0.000183239 0)
(-0.00464454 0.000181863 0)
(-0.00479074 0.000180388 0)
(-0.0049357 0.000178813 0)
(-0.00507934 0.000177138 0)
(-0.00522156 0.000175357 0)
(-0.00536228 0.00017347 0)
(-0.00550141 0.00017147 0)
(-0.00563886 0.000169355 0)
(-0.00577452 0.00016712 0)
(-0.0059083 0.000164758 0)
(-0.00604009 0.000162265 0)
(-0.00616978 0.000159634 0)
(-0.00629726 0.00015686 0)
(-0.0064224 0.000153937 0)
(-0.0065451 0.00015086 0)
(-0.00666522 0.000147621 0)
(-0.00678262 0.000144215 0)
(-0.00689718 0.000140636 0)
(-0.00700876 0.00013688 0)
(-0.0071172 0.00013294 0)
(-0.00722237 0.000128811 0)
(-0.0073241 0.000124489 0)
(-0.00742225 0.00011997 0)
(-0.00751666 0.00011525 0)
(-0.00760717 0.000110324 0)
(-0.00769361 0.000105192 0)
(-0.00777582 9.98485e-05 0)
(-0.00785363 9.42937e-05 0)
(-0.00792688 8.85263e-05 0)
(-0.0079954 8.25461e-05 0)
(-0.00805902 7.63533e-05 0)
(-0.00811758 6.99491e-05 0)
(-0.00817091 6.33353e-05 0)
(-0.00821884 5.65151e-05 0)
(-0.00826123 4.94925e-05 0)
(-0.00829791 4.22721e-05 0)
(-0.00832873 3.48599e-05 0)
(-0.00835355 2.72623e-05 0)
(-0.00837222 1.94873e-05 0)
(-0.0083846 1.15438e-05 0)
(-0.00839058 3.44188e-06 0)
(-0.00839004 -4.80739e-06 0)
(-0.00838286 -1.3192e-05 0)
(-0.00836895 -2.16987e-05 0)
(-0.00834821 -3.03134e-05 0)
(-0.00832058 -3.90207e-05 0)
(-0.00828598 -4.78041e-05 0)
(-0.00824437 -5.66463e-05 0)
(-0.00819571 -6.5529e-05 0)
(-0.00813998 -7.4433e-05 0)
(-0.00807716 -8.33383e-05 0)
(-0.00800728 -9.22239e-05 0)
(-0.00793035 -0.000101068 0)
(-0.00784642 -0.000109849 0)
(-0.00775555 -0.000118543 0)
(-0.00765781 -0.000127127 0)
(-0.00755331 -0.000135579 0)
(-0.00744215 -0.000143873 0)
(-0.00732448 -0.000151986 0)
(-0.00720043 -0.000159894 0)
(-0.0070702 -0.000167572 0)
(-0.00693396 -0.000174997 0)
(-0.00679192 -0.000182145 0)
(-0.00664431 -0.000188993 0)
(-0.00649137 -0.000195519 0)
(-0.00633336 -0.0002017 0)
(-0.00617057 -0.000207515 0)
(-0.00600328 -0.000212943 0)
(-0.00583181 -0.000217966 0)
(-0.00565648 -0.000222565 0)
(-0.00547763 -0.000226723 0)
(-0.00529561 -0.000230424 0)
(-0.00511078 -0.000233652 0)
(-0.00492353 -0.000236396 0)
(-0.00473422 -0.000238642 0)
(-0.00454326 -0.000240381 0)
(-0.00435105 -0.000241604 0)
(-0.004158 -0.000242302 0)
(-0.00396452 -0.00024247 0)
(-0.00377103 -0.000242104 0)
(-0.00357794 -0.0002412 0)
(-0.00338569 -0.000239756 0)
(-0.0031947 -0.000237773 0)
(-0.00300538 -0.000235251 0)
(-0.00281818 -0.000232194 0)
(-0.0026335 -0.000228605 0)
(-0.00245177 -0.00022449 0)
(-0.00227339 -0.000219854 0)
(-0.00209879 -0.000214705 0)
(-0.00192835 -0.000209051 0)
(-0.00176249 -0.000202903 0)
(-0.00160158 -0.00019627 0)
(-0.00144601 -0.000189165 0)
(-0.00129614 -0.0001816 0)
(-0.00115234 -0.00017359 0)
(-0.00101496 -0.000165148 0)
(-0.000884326 -0.000156292 0)
(-0.000760764 -0.00014704 0)
(-0.000644578 -0.000137411 0)
(-0.000536057 -0.000127427 0)
(-0.00043547 -0.000117114 0)
(-0.00034306 -0.000106499 0)
(-0.000259049 -9.56152e-05 0)
(-0.000183624 -8.45019e-05 0)
(-0.000116939 -7.3205e-05 0)
(-5.91036e-05 -6.17799e-05 0)
(-1.01758e-05 -5.02948e-05 0)
(2.9848e-05 -3.88335e-05 0)
(6.10485e-05 -2.75013e-05 0)
(8.36006e-05 -1.64308e-05 0)
(9.77948e-05 -5.79156e-06 0)
(0.000104067 4.19866e-06 0)
(0.000103031 1.32575e-05 0)
(9.55189e-05 2.10215e-05 0)
(8.26368e-05 2.70206e-05 0)
(6.5813e-05 3.06588e-05 0)
(4.68192e-05 3.12099e-05 0)
(2.77683e-05 2.78535e-05 0)
(1.15514e-05 1.98544e-05 0)
(2.29406e-06 7.32338e-06 0)
(8.26249e-07 -9.47183e-06 0)
(-8.49764e-07 -6.8486e-06 0)
(-1.09197e-05 8.88775e-06 0)
(-3.23312e-05 3.22139e-05 0)
(-6.70309e-05 5.96014e-05 0)
(-0.000116075 8.86729e-05 0)
(-0.000179827 0.000117859 0)
(-0.000258144 0.000146167 0)
(-0.00035054 0.000172991 0)
(-0.000456296 0.000197991 0)
(-0.00057455 0.000220997 0)
(-0.000704357 0.000241951 0)
(-0.000844741 0.000260872 0)
(-0.000994726 0.000277828 0)
(-0.00115336 0.000292919 0)
(-0.00131973 0.00030626 0)
(-0.00149298 0.000317975 0)
(-0.00167229 0.000328189 0)
(-0.00185692 0.000337029 0)
(-0.00204616 0.000344615 0)
(-0.00223938 0.000351066 0)
(-0.00243599 0.00035649 0)
(-0.00263547 0.000360988 0)
(-0.00283733 0.000364653 0)
(-0.00304114 0.000367571 0)
(-0.0032465 0.000369821 0)
(-0.00345306 0.000371473 0)
(-0.00366049 0.00037259 0)
(-0.00386851 0.000373228 0)
(-0.00407686 0.000373436 0)
(-0.0042853 0.00037326 0)
(-0.00449361 0.000372735 0)
(-0.00470161 0.000371896 0)
(-0.00490912 0.000370768 0)
(-0.00511596 0.000369376 0)
(-0.00532199 0.000367738 0)
(-0.00552707 0.00036587 0)
(-0.00573107 0.000363783 0)
(-0.00593385 0.000361486 0)
(-0.00613529 0.000358984 0)
(-0.00633527 0.00035628 0)
(-0.00653367 0.000353376 0)
(-0.00673037 0.00035027 0)
(-0.00692526 0.00034696 0)
(-0.00711821 0.00034344 0)
(-0.00730909 0.000339705 0)
(-0.00749779 0.000335747 0)
(-0.00768417 0.000331559 0)
(-0.00786809 0.000327132 0)
(-0.00804943 0.000322456 0)
(-0.00822803 0.000317521 0)
(-0.00840374 0.000312315 0)
(-0.00857642 0.000306829 0)
(-0.00874589 0.000301051 0)
(-0.008912 0.00029497 0)
(-0.00907458 0.000288575 0)
(-0.00923344 0.000281855 0)
(-0.0093884 0.000274798 0)
(-0.00953927 0.000267396 0)
(-0.00968587 0.000259638 0)
(-0.00982799 0.000251514 0)
(-0.00996543 0.000243016 0)
(-0.010098 0.000234136 0)
(-0.0102254 0.000224867 0)
(-0.0103476 0.000215203 0)
(-0.0104642 0.000205138 0)
(-0.0105751 0.000194669 0)
(-0.0106799 0.000183791 0)
(-0.0107787 0.000172505 0)
(-0.0108709 0.000160809 0)
(-0.0109566 0.000148704 0)
(-0.0110354 0.000136194 0)
(-0.0111071 0.000123282 0)
(-0.0111716 0.000109974 0)
(-0.0112285 9.62785e-05 0)
(-0.0112778 8.22045e-05 0)
(-0.0113191 6.77637e-05 0)
(-0.0113524 5.29693e-05 0)
(-0.0113773 3.78365e-05 0)
(-0.0113939 2.23826e-05 0)
(-0.0114017 6.62705e-06 0)
(-0.0114009 -9.40875e-06 0)
(-0.0113911 -2.57013e-05 0)
(-0.0113722 -4.22251e-05 0)
(-0.0113442 -5.89528e-05 0)
(-0.0113069 -7.58548e-05 0)
(-0.0112603 -9.28996e-05 0)
(-0.0112043 -0.000110054 0)
(-0.0111388 -0.000127282 0)
(-0.0110639 -0.000144548 0)
(-0.0109794 -0.000161813 0)
(-0.0108855 -0.000179037 0)
(-0.0107822 -0.000196178 0)
(-0.0106695 -0.000213194 0)
(-0.0105475 -0.000230042 0)
(-0.0104163 -0.000246676 0)
(-0.010276 -0.000263053 0)
(-0.0101269 -0.000279126 0)
(-0.00996899 -0.000294848 0)
(-0.00980259 -0.000310175 0)
(-0.00962789 -0.000325061 0)
(-0.00944515 -0.000339459 0)
(-0.00925465 -0.000353325 0)
(-0.00905669 -0.000366614 0)
(-0.00885158 -0.000379283 0)
(-0.00863968 -0.000391291 0)
(-0.00842135 -0.000402597 0)
(-0.00819698 -0.000413162 0)
(-0.00796699 -0.000422948 0)
(-0.0077318 -0.00043192 0)
(-0.00749186 -0.000440046 0)
(-0.00724763 -0.000447295 0)
(-0.00699961 -0.000453638 0)
(-0.00674827 -0.000459051 0)
(-0.00649414 -0.000463508 0)
(-0.00623772 -0.000466992 0)
(-0.00597956 -0.000469483 0)
(-0.0057202 -0.000470966 0)
(-0.00546017 -0.000471431 0)
(-0.00520004 -0.000470867 0)
(-0.00494036 -0.000469269 0)
(-0.0046817 -0.000466632 0)
(-0.00442462 -0.000462956 0)
(-0.00416968 -0.000458242 0)
(-0.00391744 -0.000452495 0)
(-0.00366847 -0.000445721 0)
(-0.00342333 -0.000437931 0)
(-0.00318255 -0.000429134 0)
(-0.0029467 -0.000419346 0)
(-0.0027163 -0.000408581 0)
(-0.00249189 -0.000396859 0)
(-0.00227397 -0.000384199 0)
(-0.00206307 -0.000370624 0)
(-0.00185967 -0.000356158 0)
(-0.00166425 -0.000340829 0)
(-0.00147728 -0.000324666 0)
(-0.0012992 -0.000307701 0)
(-0.00113045 -0.000289971 0)
(-0.000971415 -0.000271515 0)
(-0.000822488 -0.000252377 0)
(-0.000684018 -0.000232609 0)
(-0.000556327 -0.000212269 0)
(-0.000439697 -0.000191423 0)
(-0.00033437 -0.000170151 0)
(-0.000240537 -0.000148546 0)
(-0.000158328 -0.000126719 0)
(-8.78035e-05 -0.000104809 0)
(-2.89403e-05 -8.29801e-05 0)
(1.83876e-05 -6.14391e-05 0)
(5.44284e-05 -4.04417e-05 0)
(7.95778e-05 -2.0307e-05 0)
(9.44091e-05 -1.43584e-06 0)
(9.97109e-05 1.56665e-05 0)
(9.65266e-05 3.03681e-05 0)
(8.62001e-05 4.18816e-05 0)
(7.0425e-05 4.92461e-05 0)
(5.12505e-05 5.13308e-05 0)
(3.10814e-05 4.68878e-05 0)
(1.32535e-05 3.4724e-05 0)
(2.71752e-06 1.41784e-05 0)
(-2.44113e-07 -8.06282e-06 0)
(-6.71698e-06 2.54293e-06 0)
(-2.6124e-05 2.98067e-05 0)
(-6.02291e-05 6.69922e-05 0)
(-0.000110485 0.000109651 0)
(-0.00017781 0.000154661 0)
(-0.000262481 0.000199878 0)
(-0.000364288 0.000243884 0)
(-0.000482676 0.000285772 0)
(-0.000616853 0.000324997 0)
(-0.000765863 0.000361266 0)
(-0.000928656 0.000394459 0)
(-0.00110413 0.000424572 0)
(-0.00129118 0.000451678 0)
(-0.00148871 0.000475904 0)
(-0.00169566 0.000497409 0)
(-0.00191102 0.000516371 0)
(-0.00213385 0.000532974 0)
(-0.00236324 0.000547404 0)
(-0.00259837 0.000559843 0)
(-0.00283847 0.000570466 0)
(-0.00308283 0.000579441 0)
(-0.00333082 0.000586924 0)
(-0.00358184 0.000593061 0)
(-0.00383535 0.000597986 0)
(-0.00409087 0.000601819 0)
(-0.00434796 0.000604673 0)
(-0.00460621 0.000606647 0)
(-0.00486526 0.000607831 0)
(-0.00512479 0.000608303 0)
(-0.00538449 0.000608135 0)
(-0.00564409 0.000607385 0)
(-0.00590334 0.000606107 0)
(-0.00616202 0.000604346 0)
(-0.00641991 0.00060214 0)
(-0.00667682 0.000599519 0)
(-0.00693256 0.000596509 0)
(-0.00718696 0.000593129 0)
(-0.00743985 0.000589393 0)
(-0.00769107 0.000585313 0)
(-0.00794047 0.000580893 0)
(-0.00818788 0.000576135 0)
(-0.00843316 0.000571039 0)
(-0.00867616 0.000565601 0)
(-0.00891671 0.000559815 0)
(-0.00915466 0.000553671 0)
(-0.00938984 0.000547158 0)
(-0.0096221 0.000540265 0)
(-0.00985127 0.000532978 0)
(-0.0100772 0.000525281 0)
(-0.0102996 0.000517159 0)
(-0.0105184 0.000508596 0)
(-0.0107333 0.000499573 0)
(-0.0109443 0.000490075 0)
(-0.0111509 0.000480084 0)
(-0.0113532 0.000469582 0)
(-0.0115507 0.000458553 0)
(-0.0117434 0.000446979 0)
(-0.0119309 0.000434844 0)
(-0.012113 0.000422134 0)
(-0.0122895 0.000408834 0)
(-0.0124602 0.000394929 0)
(-0.0126247 0.000380409 0)
(-0.0127828 0.000365261 0)
(-0.0129343 0.000349477 0)
(-0.0130789 0.000333048 0)
(-0.0132163 0.000315969 0)
(-0.0133462 0.000298235 0)
(-0.0134685 0.000279844 0)
(-0.0135827 0.000260796 0)
(-0.0136887 0.000241094 0)
(-0.0137861 0.000220741 0)
(-0.0138747 0.000199746 0)
(-0.0139543 0.000178119 0)
(-0.0140246 0.000155871 0)
(-0.0140853 0.00013302 0)
(-0.0141362 0.000109583 0)
(-0.0141771 8.55829e-05 0)
(-0.0142077 6.10441e-05 0)
(-0.0142278 3.59949e-05 0)
(-0.0142373 1.04666e-05 0)
(-0.0142359 -1.55064e-05 0)
(-0.0142235 -4.18861e-05 0)
(-0.0141998 -6.86313e-05 0)
(-0.0141649 -9.56978e-05 0)
(-0.0141186 -0.000123038 0)
(-0.0140607 -0.000150602 0)
(-0.0139912 -0.000178335 0)
(-0.01391 -0.000206182 0)
(-0.0138172 -0.000234083 0)
(-0.0137126 -0.000261977 0)
(-0.0135964 -0.0002898 0)
(-0.0134686 -0.000317486 0)
(-0.0133292 -0.000344966 0)
(-0.0131784 -0.000372172 0)
(-0.0130162 -0.000399032 0)
(-0.012843 -0.000425474 0)
(-0.0126587 -0.000451426 0)
(-0.0124637 -0.000476814 0)
(-0.0122583 -0.000501565 0)
(-0.0120426 -0.000525606 0)
(-0.011817 -0.000548864 0)
(-0.0115818 -0.000571268 0)
(-0.0113375 -0.000592747 0)
(-0.0110844 -0.000613232 0)
(-0.0108228 -0.000632657 0)
(-0.0105534 -0.000650956 0)
(-0.0102765 -0.000668068 0)
(-0.00999266 -0.000683933 0)
(-0.00970239 -0.000698496 0)
(-0.00940624 -0.000711702 0)
(-0.00910477 -0.000723505 0)
(-0.00879858 -0.000733857 0)
(-0.00848827 -0.000742717 0)
(-0.00817445 -0.000750049 0)
(-0.00785776 -0.00075582 0)
(-0.00753885 -0.00076 0)
(-0.00721837 -0.000762567 0)
(-0.006897 -0.000763499 0)
(-0.00657541 -0.000762782 0)
(-0.00625429 -0.000760405 0)
(-0.00593431 -0.000756361 0)
(-0.00561617 -0.000750648 0)
(-0.00530055 -0.000743269 0)
(-0.00498814 -0.000734229 0)
(-0.00467963 -0.000723539 0)
(-0.0043757 -0.000711212 0)
(-0.00407701 -0.000697267 0)
(-0.00378425 -0.000681725 0)
(-0.00349806 -0.00066461 0)
(-0.00321909 -0.000645953 0)
(-0.00294798 -0.000625784 0)
(-0.00268535 -0.000604141 0)
(-0.0024318 -0.000581062 0)
(-0.00218791 -0.000556593 0)
(-0.00195427 -0.00053078 0)
(-0.0017314 -0.000503679 0)
(-0.00151983 -0.000475348 0)
(-0.00132006 -0.000445853 0)
(-0.00113253 -0.00041527 0)
(-0.00095769 -0.000383683 0)
(-0.000795908 -0.000351189 0)
(-0.000647525 -0.000317901 0)
(-0.000512823 -0.000283951 0)
(-0.000392023 -0.000249495 0)
(-0.00028527 -0.000214719 0)
(-0.00019262 -0.000179845 0)
(-0.00011403 -0.000145143 0)
(-4.93319e-05 -0.000110944 0)
(1.78434e-06 -7.7652e-05 0)
(3.98004e-05 -4.57623e-05 0)
(6.53971e-05 -1.58858e-05 0)
(7.94902e-05 1.12261e-05 0)
(8.32679e-05 3.46524e-05 0)
(7.82316e-05 5.32754e-05 0)
(6.62411e-05 6.57601e-05 0)
(4.95187e-05 7.05554e-05 0)
(3.0664e-05 6.59383e-05 0)
(1.32877e-05 5.01269e-05 0)
(2.76106e-06 2.14576e-05 0)
(-1.3478e-06 -3.40881e-06 0)
(-1.29855e-05 1.98763e-05 0)
(-4.25347e-05 6.2352e-05 0)
(-9.03095e-05 0.000116504 0)
(-0.000157085 0.000177189 0)
(-0.000243504 0.000240682 0)
(-0.000349654 0.000304345 0)
(-0.00047519 0.000366375 0)
(-0.000619458 0.000425576 0)
(-0.000781576 0.000481199 0)
(-0.000960505 0.000532817 0)
(-0.0011551 0.000580231 0)
(-0.00136418 0.000623405 0)
(-0.00158651 0.000662415 0)
(-0.0018209 0.000697408 0)
(-0.00206619 0.000728583 0)
(-0.00232123 0.000756168 0)
(-0.00258497 0.000780408 0)
(-0.0028564 0.000801552 0)
(-0.00313458 0.000819849 0)
(-0.00341863 0.000835537 0)
(-0.00370775 0.000848845 0)
(-0.00400118 0.000859993 0)
(-0.00429826 0.000869183 0)
(-0.00459834 0.000876603 0)
(-0.00490086 0.000882426 0)
(-0.0052053 0.000886808 0)
(-0.00551119 0.000889891 0)
(-0.0058181 0.000891803 0)
(-0.00612562 0.000892658 0)
(-0.00643342 0.000892557 0)
(-0.00674114 0.000891587 0)
(-0.0070485 0.000889825 0)
(-0.00735522 0.000887335 0)
(-0.00766104 0.000884173 0)
(-0.00796573 0.000880385 0)
(-0.00826904 0.000876008 0)
(-0.00857078 0.000871071 0)
(-0.00887073 0.000865596 0)
(-0.0091687 0.000859599 0)
(-0.0094645 0.000853089 0)
(-0.00975794 0.00084607 0)
(-0.0100488 0.000838542 0)
(-0.010337 0.000830501 0)
(-0.0106222 0.000821937 0)
(-0.0109043 0.000812839 0)
(-0.0111831 0.000803192 0)
(-0.0114584 0.000792979 0)
(-0.0117299 0.000782182 0)
(-0.0119975 0.000770778 0)
(-0.012261 0.000758747 0)
(-0.0125201 0.000746066 0)
(-0.0127746 0.000732709 0)
(-0.0130243 0.000718654 0)
(-0.0132689 0.000703874 0)
(-0.0135082 0.000688347 0)
(-0.0137418 0.000672048 0)
(-0.0139696 0.000654953 0)
(-0.0141913 0.00063704 0)
(-0.0144065 0.000618288 0)
(-0.014615 0.000598675 0)
(-0.0148165 0.000578183 0)
(-0.0150108 0.000556795 0)
(-0.0151974 0.000534497 0)
(-0.0153761 0.000511273 0)
(-0.0155466 0.000487115 0)
(-0.0157085 0.000462013 0)
(-0.0158616 0.000435963 0)
(-0.0160056 0.000408961 0)
(-0.01614 0.000381009 0)
(-0.0162647 0.000352111 0)
(-0.0163793 0.000322274 0)
(-0.0164834 0.000291509 0)
(-0.0165768 0.000259831 0)
(-0.0166593 0.000227261 0)
(-0.0167304 0.00019382 0)
(-0.0167899 0.000159538 0)
(-0.0168376 0.000124445 0)
(-0.0168732 8.85784e-05 0)
(-0.0168965 5.19797e-05 0)
(-0.0169071 1.46945e-05 0)
(-0.016905 -2.32269e-05 0)
(-0.0168899 -6.17293e-05 0)
(-0.0168617 -0.000100753 0)
(-0.0168201 -0.000140233 0)
(-0.0167651 -0.000180102 0)
(-0.0166965 -0.000220285 0)
(-0.0166143 -0.000260706 0)
(-0.0165184 -0.000301282 0)
(-0.0164088 -0.000341929 0)
(-0.0162855 -0.000382558 0)
(-0.0161484 -0.000423075 0)
(-0.0159978 -0.000463387 0)
(-0.0158336 -0.000503394 0)
(-0.015656 -0.000542998 0)
(-0.0154651 -0.000582095 0)
(-0.0152611 -0.000620582 0)
(-0.0150443 -0.000658354 0)
(-0.014815 -0.000695306 0)
(-0.0145733 -0.000731332 0)
(-0.0143197 -0.000766328 0)
(-0.0140545 -0.000800188 0)
(-0.013778 -0.00083281 0)
(-0.0134908 -0.000864093 0)
(-0.0131933 -0.000893937 0)
(-0.012886 -0.000922247 0)
(-0.0125694 -0.000948929 0)
(-0.012244 -0.000973894 0)
(-0.0119105 -0.000997057 0)
(-0.0115694 -0.00101834 0)
(-0.0112214 -0.00103766 0)
(-0.0108671 -0.00105495 0)
(-0.0105073 -0.00107014 0)
(-0.0101425 -0.00108318 0)
(-0.00977365 -0.00109401 0)
(-0.00940135 -0.00110259 0)
(-0.00902639 -0.00110886 0)
(-0.00864952 -0.0011128 0)
(-0.00827153 -0.00111438 0)
(-0.00789319 -0.00111358 0)
(-0.0075153 -0.00111037 0)
(-0.00713866 -0.00110475 0)
(-0.00676406 -0.00109671 0)
(-0.00639231 -0.00108626 0)
(-0.00602421 -0.00107341 0)
(-0.00566054 -0.00105816 0)
(-0.00530211 -0.00104054 0)
(-0.0049497 -0.00102058 0)
(-0.00460408 -0.000998296 0)
(-0.00426601 -0.000973733 0)
(-0.00393626 -0.000946932 0)
(-0.00361556 -0.000917938 0)
(-0.00330462 -0.000886804 0)
(-0.00300416 -0.000853589 0)
(-0.00271485 -0.000818356 0)
(-0.00243735 -0.000781177 0)
(-0.0021723 -0.000742132 0)
(-0.00192029 -0.000701309 0)
(-0.00168189 -0.000658808 0)
(-0.00145764 -0.000614741 0)
(-0.00124801 -0.000569233 0)
(-0.00105345 -0.000522432 0)
(-0.000874335 -0.000474505 0)
(-0.000710983 -0.00042565 0)
(-0.000563636 -0.000376097 0)
(-0.000432448 -0.000326121 0)
(-0.000317473 -0.000276047 0)
(-0.000218645 -0.000226266 0)
(-0.000135764 -0.00017725 0)
(-6.84683e-05 -0.000129569 0)
(-1.62122e-05 -8.39129e-05 0)
(2.17633e-05 -4.11185e-05 0)
(4.64625e-05 -2.1968e-06 0)
(5.91682e-05 3.16354e-05 0)
(6.14792e-05 5.89254e-05 0)
(5.53521e-05 7.79611e-05 0)
(4.31097e-05 8.67611e-05 0)
(2.74677e-05 8.30954e-05 0)
(1.21469e-05 6.45349e-05 0)
(2.56587e-06 2.83995e-05 0)
(-2.41625e-06 4.55149e-06 0)
(-1.92808e-05 4.54869e-05 0)
(-5.92543e-05 0.000107081 0)
(-0.000121109 0.0001814 0)
(-0.000204843 0.000262842 0)
(-0.000310734 0.000347239 0)
(-0.000438595 0.000431559 0)
(-0.000587883 0.000513676 0)
(-0.000757807 0.000592147 0)
(-0.000947374 0.000666034 0)
(-0.00115545 0.000734782 0)
(-0.00138082 0.000798114 0)
(-0.00162218 0.000855956 0)
(-0.00187826 0.000908379 0)
(-0.00214775 0.000955551 0)
(-0.00242941 0.000997707 0)
(-0.00272199 0.00103513 0)
(-0.00302436 0.00106811 0)
(-0.00333541 0.00109697 0)
(-0.0036541 0.00112203 0)
(-0.00397947 0.00114359 0)
(-0.00431063 0.00116195 0)
(-0.00464674 0.00117739 0)
(-0.00498704 0.00119017 0)
(-0.00533082 0.00120055 0)
(-0.00567746 0.00120874 0)
(-0.00602634 0.00121496 0)
(-0.00637694 0.0012194 0)
(-0.00672875 0.00122222 0)
(-0.00708134 0.00122358 0)
(-0.00743427 0.00122361 0)
(-0.00778718 0.00122243 0)
(-0.00813972 0.00122014 0)
(-0.00849155 0.00121684 0)
(-0.00884239 0.00121259 0)
(-0.00919194 0.00120747 0)
(-0.00953994 0.00120152 0)
(-0.00988613 0.00119477 0)
(-0.0102303 0.00118727 0)
(-0.0105722 0.00117904 0)
(-0.0109115 0.00117008 0)
(-0.0112482 0.00116041 0)
(-0.0115819 0.00115003 0)
(-0.0119124 0.00113893 0)
(-0.0122396 0.00112709 0)
(-0.0125631 0.00111452 0)
(-0.0128828 0.00110118 0)
(-0.0131984 0.00108705 0)
(-0.0135097 0.00107212 0)
(-0.0138164 0.00105635 0)
(-0.0141183 0.00103971 0)
(-0.0144152 0.00102218 0)
(-0.0147067 0.00100372 0)
(-0.0149926 0.000984303 0)
(-0.0152726 0.000963893 0)
(-0.0155464 0.000942458 0)
(-0.0158138 0.000919968 0)
(-0.0160744 0.000896392 0)
(-0.0163279 0.000871699 0)
(-0.0165739 0.000845862 0)
(-0.0168122 0.000818853 0)
(-0.0170425 0.000790649 0)
(-0.0172643 0.000761226 0)
(-0.0174774 0.000730566 0)
(-0.0176813 0.00069865 0)
(-0.0178758 0.000665467 0)
(-0.0180605 0.000631004 0)
(-0.018235 0.000595256 0)
(-0.018399 0.000558221 0)
(-0.0185521 0.000519901 0)
(-0.018694 0.000480301 0)
(-0.0188242 0.000439432 0)
(-0.0189426 0.000397312 0)
(-0.0190487 0.000353961 0)
(-0.0191421 0.000309405 0)
(-0.0192227 0.000263679 0)
(-0.01929 0.000216819 0)
(-0.0193438 0.00016887 0)
(-0.0193837 0.000119882 0)
(-0.0194096 6.99107e-05 0)
(-0.0194211 1.902e-05 0)