/*--------------------------------*- C++ -*----------------------------------*\
  =========                 |
  \\      /  F ield         | OpenFOAM: The Open Source CFD Toolbox
   \\    /   O peration     | Website:  https://openfoam.org
    \\  /    A nd           | Version:  7
     \\/     M anipulation  |
\*---------------------------------------------------------------------------*/
FoamFile
{
    version     2.0;
    format      ascii;
    class       volScalarField;
    location    "0.35";
    object      p;
}
// * * * * * * * * * * * * * * * * * * * * * * * * * * * * * * * * * * * * * //

dimensions      [0 2 -2 0 0 0 0];

internalField   nonuniform List<scalar> 
1600
(
6.8437e-06
-0.00117942
-0.00390904
-0.00758245
-0.0115268
-0.0152466
-0.018384
-0.0206867
-0.0219872
-0.0221858
-0.0212367
-0.0191381
-0.0159235
-0.0116557
-0.006422
-0.000330197
0.00649481
0.0139136
0.0217749
0.0299177
0.0381739
0.046371
0.0543344
0.0618913
0.0688741
0.0751243
0.0804972
0.0848669
0.0881319
0.0902206
0.0910981
0.0907731
0.0893059
0.0868176
0.0835017
0.0796371
0.0756039
0.0719106
0.0692252
0.0681092
0.00120006
9.71926e-06
-0.00220647
-0.00505735
-0.00809957
-0.0109679
-0.0133779
-0.0151164
-0.0160334
-0.0160327
-0.0150645
-0.0131172
-0.0102115
-0.00639579
-0.00174104
0.00366204
0.00970631
0.0162708
0.0232231
0.0304218
0.0377191
0.0449629
0.0520002
0.0586796
0.0648552
0.0703903
0.0751615
0.0790632
0.0820125
0.0839543
0.0848667
0.0847665
0.0837157
0.0818271
0.0792716
0.0762832
0.0731638
0.0702892
0.0681063
0.0669957
0.00394452
0.00221721
-2.94479e-05
-0.00258853
-0.00521694
-0.0076449
-0.00964882
-0.0110571
-0.0117441
-0.0116261
-0.010657
-0.00882372
-0.00614154
-0.00265022
0.00158934
0.00649818
0.0119819
0.0179329
0.0242331
0.0307556
0.0373676
0.0439322
0.0503118
0.0563705
0.0619776
0.0670113
0.071362
0.0749369
0.0776643
0.0794976
0.0804203
0.0804501
0.0796433
0.0780988
0.0759606
0.0734198
0.0707165
0.0681324
0.0659258
0.0643084
0.00770766
0.00509676
0.00245592
-0.000172808
-0.00272762
-0.00500866
-0.00684174
-0.00809512
-0.00867043
-0.00850089
-0.00754983
-0.00580786
-0.0032898
-3.18667e-05
0.00391096
0.00846732
0.0135517
0.0190663
0.0249035
0.0309472
0.0370756
0.0431633
0.0490834
0.054711
0.0599256
0.0646149
0.0686779
0.0720291
0.0746018
0.0763525
0.0772645
0.0773509
0.0766582
0.075268
0.0732972
0.0708977
0.0682621
0.0656054
0.0630148
0.0605465
0.0118957
0.00825638
0.00504798
0.00216763
-0.000489786
-0.00278041
-0.00457169
-0.00576899
-0.00630117
-0.00611988
-0.00520018
-0.00353908
-0.00115368
0.00192075
0.00563266
0.00991601
0.0146919
0.0198704
0.0253519
0.0310294
0.0367897
0.0425162
0.0480908
0.0533964
0.0583201
0.0627561
0.0666087
0.0697961
0.0722539
0.0739378
0.0748278
0.0749299
0.0742785
0.0729372
0.0709968
0.068574
0.0658225
0.0629055
0.0597526
0.0562831
0.0160826
0.0113719
0.00750324
0.00425348
0.00137123
-0.00104258
-0.00288896
-0.00410596
-0.0046478
-0.00448444
-0.00360354
-0.0020101
0.000274651
0.00321444
0.00675914
0.010846
0.0154008
0.0203393
0.0255683
0.0309873
0.0364901
0.0419666
0.0473049
0.0523935
0.0571243
0.0613951
0.0651129
0.0681968
0.0705814
0.0722195
0.0730851
0.0731752
0.0725113
0.0711394
0.0691267
0.0665598
0.0635626
0.0602602
0.056445
0.0519239
0.0199591
0.014182
0.00960659
0.00591146
0.00271966
0.00010076
-0.00187224
-0.00316515
-0.00375487
-0.00362858
-0.00278665
-0.00124282
0.000976345
0.00383206
0.00727394
0.0112408
0.0156614
0.0204552
0.0255337
0.0308011
0.0361559
0.0414924
0.0467028
0.0516789
0.0563148
0.0605097
0.0641704
0.0672144
0.069573
0.0711935
0.0720424
0.0721063
0.0713936
0.0699336
0.0677727
0.0649734
0.0616378
0.0578657
0.0533328
0.0477556
0.0232922
0.016473
0.0111729
0.00698889
0.00343497
0.000558245
-0.00158793
-0.00299258
-0.0036525
-0.00357065
-0.00275961
-0.0012421
0.000949274
0.00377215
0.00717469
0.0110958
0.0154658
0.0202065
0.025232
0.0304497
0.0357612
0.0410633
0.0462502
0.0512151
0.0558521
0.0600595
0.0637417
0.0668124
0.0691974
0.0708369
0.071688
0.0717265
0.0709473
0.0693644
0.0670065
0.0639163
0.0601818
0.0558868
0.0506075
0.0439865
0.0258998
0.0180656
0.0120379
0.00734245
0.00339671
0.000231705
-0.00211397
-0.00364878
-0.00438687
-0.0043455
-0.00354878
-0.00202832
0.00017684
0.00302008
0.00644714
0.0103961
0.0147973
0.0195737
0.024641
0.029908
0.0352778
0.0406484
0.0459143
0.0509679
0.0557019
0.0600115
0.0637968
0.0669657
0.0694366
0.0711409
0.0720253
0.0720536
0.0712077
0.0694872
0.0669051
0.0634891
0.0593179
0.054467
0.0484252
0.0407721
0.0276314
0.0188041
0.0120516
0.0068351
0.00248336
-0.000984059
-0.00353975
-0.00520871
-0.00602038
-0.00600502
-0.00519761
-0.00363846
-0.00137326
0.00154665
0.0050639
0.00911479
0.013629
0.0185294
0.023732
0.0291461
0.034675
0.0402164
0.0456635
0.0509069
0.0558358
0.0603407
0.0643157
0.0676611
0.070286
0.0721116
0.0730728
0.0731206
0.0722236
0.0703678
0.0675528
0.0637932
0.0591632
0.0537353
0.0469182
0.0382353
0.0283541
0.0185471
0.0110735
0.0053337
0.000572449
-0.00319929
-0.00596284
-0.00775772
-0.0086272
-0.00861358
-0.00776218
-0.00612188
-0.00374514
-0.000688379
0.00298741
0.00721612
0.011926
0.0170389
0.0224706
0.0281298
0.0339188
0.039734
0.0454664
0.051003
0.0562284
0.061027
0.065285
0.0688933
0.0717505
0.0737653
0.0748597
0.0749711
0.074054
0.0720812
0.0690392
0.0649323
0.0598325
0.0538129
0.0462062
0.0364821
0.0279424
0.0171592
0.00896668
0.00270567
-0.00246115
-0.00652965
-0.00948846
-0.0113904
-0.0122918
-0.0122463
-0.0113094
-0.00953856
-0.00699308
-0.00373479
0.000171286
0.00465617
0.00964605
0.0150616
0.0208171
0.0268202
0.0329718
0.0391658
0.0452901
0.0512273
0.0568561
0.0620531
0.0666954
0.070663
0.0738417
0.0761266
0.0774248
0.0776586
0.0767676
0.0747105
0.0714616
0.067015
0.0614426
0.0548204
0.0464051
0.0356136
0.0262708
0.0145055
0.00559335
-0.00118452
-0.00674742
-0.0110974
-0.0142299
-0.0162105
-0.0171081
-0.0169881
-0.015916
-0.0139579
-0.0111803
-0.00765074
-0.00343859
0.00138397
0.00674078
0.0125507
0.0187266
0.0251744
0.0317931
0.0384738
0.0451005
0.0515505
0.0576955
0.0634036
0.068541
0.0729751
0.0765775
0.0792274
0.0808152
0.0812459
0.0804428
0.0783494
0.0749265
0.0701584
0.0641174
0.0568834
0.0476351
0.0357351
0.0232084
0.0104461
0.000810319
-0.00647854
-0.0124235
-0.017033
-0.020309
-0.0223304
-0.0231793
-0.0229328
-0.021667
-0.0194572
-0.0163774
-0.0125012
-0.00790258
-0.00265712
0.00315648
0.00945518
0.0161502
0.0231459
0.0303389
0.0376175
0.0448614
0.051942
0.0587235
0.065064
0.070818
0.0758385
0.0799809
0.0831063
0.0850859
0.0858053
0.0851689
0.0831027
0.0795526
0.0744917
0.0679927
0.0601393
0.0500278
0.0369631
0.0186149
0.0048321
-0.00553467
-0.0133274
-0.0196362
-0.0244763
-0.0278571
-0.029872
-0.030617
-0.0301821
-0.0286548
-0.0261203
-0.0226608
-0.0183562
-0.0132855
-0.00752766
-0.001164
0.00572067
0.0130362
0.0206854
0.0285629
0.0365542
0.0445347
0.05237
0.0599159
0.0670202
0.0735239
0.0792645
0.0840789
0.0878076
0.0903001
0.0914191
0.0910468
0.0890891
0.0854737
0.0801603
0.0732209
0.0647426
0.053732
0.0394327
0.0123369
-0.00249845
-0.0136067
-0.0218948
-0.0285443
-0.0335785
-0.0370161
-0.0389661
-0.0395408
-0.0388443
-0.0369772
-0.0340354
-0.0301102
-0.0252884
-0.019654
-0.0132897
-0.00627908
0.00129175
0.00933159
0.0177424
0.0264175
0.0352399
0.0440813
0.0528014
0.0612479
0.0692575
0.0766569
0.0832664
0.0889021
0.0933816
0.0965287
0.0981798
0.0981907
0.0964426
0.0928414
0.0873298
0.0799764
0.0708706
0.0589205
0.043303
0.0042044
-0.011724
-0.0235872
-0.0323602
-0.0393214
-0.0445044
-0.0479391
-0.0497534
-0.0500778
-0.0490335
-0.0467357
-0.0432929
-0.0388062
-0.0333701
-0.027074
-0.020004
-0.0122454
-0.00388536
0.00498505
0.0142678
0.0238559
0.0336309
0.0434617
0.0532028
0.0626941
0.071761
0.0802155
0.0878587
0.0944844
0.0998836
0.103851
0.106191
0.106729
0.105316
0.101829
0.0961904
0.088461
0.0787299
0.065796
0.0487636
-0.00597212
-0.023044
-0.0356787
-0.0449229
-0.052159
-0.0574339
-0.060792
-0.0623836
-0.0623617
-0.0608673
-0.058033
-0.0539819
-0.0488264
-0.0426695
-0.0356061
-0.0277255
-0.0191143
-0.00985911
-5.00662e-05
0.0102164
0.0208343
0.0316857
0.0426378
0.0535414
0.0642292
0.0745159
0.0841983
0.0930575
0.100862
0.107374
0.112354
0.11557
0.116808
0.115883
0.112637
0.106963
0.0989099
0.0885631
0.0745987
0.0560412
-0.0184062
-0.0366833
-0.0501094
-0.0598063
-0.0672701
-0.072565
-0.0757542
-0.0770163
-0.0765312
-0.0744644
-0.0709695
-0.0661867
-0.0602415
-0.0532462
-0.0453014
-0.0364993
-0.0269265
-0.0166681
-0.00581126
0.00555098
0.0173161
0.0293683
0.0415756
0.0537867
0.0658292
0.0775078
0.0886044
0.0988794
0.108075
0.115919
0.122133
0.126444
0.128591
0.128341
0.125494
0.119903
0.111599
0.100657
0.0856139
0.0654074
-0.0333401
-0.052899
-0.0671396
-0.0772639
-0.0848938
-0.0901162
-0.0930201
-0.0938194
-0.092728
-0.0899414
-0.085639
-0.0799812
-0.073109
-0.0651447
-0.0561949
-0.0463536
-0.0357066
-0.0243352
-0.0123216
0.000247412
0.0132752
0.0266515
0.0402478
0.0539135
0.0674734
0.0807241
0.0934338
0.105342
0.116163
0.125587
0.133294
0.138957
0.142261
0.142916
0.140665
0.13531
0.126853
0.115351
0.0991823
0.0771877
-0.0510523
-0.0719886
-0.0870705
-0.0975867
-0.1053
-0.11033
-0.1128
-0.112968
-0.111093
-0.107408
-0.102123
-0.0954228
-0.0874664
-0.0783875
-0.0682981
-0.0572933
-0.0454558
-0.0328611
-0.0195832
-0.00569973
0.00870253
0.0235222
0.0386381
0.0539044
0.0691461
0.0841551
0.098688
0.112464
0.125168
0.136453
0.145947
0.153265
0.158025
0.159865
0.158456
0.153534
0.145057
0.133051
0.115712
0.0917731
-0.0718666
-0.0943014
-0.110255
-0.121112
-0.128799
-0.133477
-0.13532
-0.134645
-0.131765
-0.126961
-0.120482
-0.112543
-0.103322
-0.0929657
-0.0815903
-0.0692907
-0.0561439
-0.0422164
-0.0275705
-0.0122704
0.00361094
0.0199859
0.0367456
0.0537535
0.0708398
0.087796
0.10437
0.120265
0.135135
0.148593
0.160211
0.169538
0.17611
0.17948
0.179223
0.174986
0.166667
0.154243
0.135695
0.109635
-0.0961662
-0.120255
-0.137115
-0.148239
-0.155746
-0.159861
-0.160824
-0.159031
-0.154868
-0.148676
-0.140749
-0.131339
-0.120646
-0.108829
-0.0960084
-0.0822759
-0.0676996
-0.0523329
-0.0362217
-0.0194121
-0.00195772
0.0160731
0.0345895
0.0534704
0.0725576
0.0916478
0.110486
0.128762
0.146104
0.162082
0.17621
0.187958
0.196771
0.202089
0.203372
0.20015
0.192229
0.179513
0.159727
0.131342
-0.124414
-0.150359
-0.168162
-0.17944
-0.186555
-0.18982
-0.189571
-0.186308
-0.18051
-0.172594
-0.162914
-0.151758
-0.139354
-0.125872
-0.111435
-0.0961266
-0.0800015
-0.063095
-0.0454314
-0.0270325
-0.00792647
0.0118441
0.0322135
0.0530837
0.0743154
0.0957186
0.117044
0.137972
0.158112
0.176992
0.194066
0.208717
0.22028
0.228064
0.231378
0.229596
0.222396
0.209573
0.188536
0.157591
-0.157182
-0.185246
-0.204026
-0.215293
-0.221715
-0.223738
-0.221833
-0.216642
-0.208765
-0.198712
-0.186906
-0.173684
-0.159297
-0.143925
-0.127688
-0.110657
-0.0928682
-0.0743315
-0.0550429
-0.0349932
-0.0141778
0.00739402
0.0296897
0.052643
0.0761432
0.100024
0.124049
0.147905
0.171185
0.193384
0.213894
0.232006
0.24693
0.257815
0.263781
0.263998
0.25796
0.245298
0.223021
0.189236
-0.195196
-0.225726
-0.245504
-0.256503
-0.261801
-0.262042
-0.257888
-0.250174
-0.239653
-0.226955
-0.212581
-0.196917
-0.18024
-0.162732
-0.144504
-0.125608
-0.10605
-0.0858086
-0.0648431
-0.0431054
-0.0205503
0.00285493
0.0271199
0.0522202
0.0780847
0.104582
0.131506
0.158558
0.185331
0.211296
0.235789
0.258008
0.277021
0.291791
0.301202
0.304153
0.299881
0.287768
0.264307
0.227346
-0.239399
-0.272853
-0.293615
-0.303949
-0.307498
-0.305204
-0.298007
-0.286995
-0.273122
-0.257156
-0.239689
-0.221155
-0.201847
-0.181944
-0.161534
-0.140637
-0.119223
-0.097226
-0.0745599
-0.0511289
-0.0268384
-0.00160475
0.0246339
0.0519059
0.0801927
0.109413
0.139405
0.169905
0.200525
0.230727
0.259807
0.286873
0.310845
0.330468
0.344338
0.351
0.349331
0.338342
0.313824
0.273273
-0.291061
-0.328036
-0.349695
-0.358733
-0.359615
-0.353736
-0.342427
-0.327115
-0.309002
-0.289018
-0.267847
-0.245963
-0.223661
-0.201099
-0.178327
-0.155318
-0.131988
-0.108218
-0.083865
-0.0587761
-0.0327978
-0.00578612
0.0223831
0.0518028
0.0825208
0.114523
0.147711
0.181881
0.216687
0.251614
0.285936
0.318691
0.348653
0.374327
0.393959
0.405643
0.407752
0.398744
0.373425
0.328771
-0.351939
-0.39321
-0.415513
-0.422247
-0.419103
-0.408162
-0.391306
-0.370406
-0.346959
-0.322069
-0.296503
-0.270751
-0.245086
-0.219617
-0.194331
-0.169134
-0.143873
-0.11836
-0.0923834
-0.0657227
-0.0381566
-0.00947199
0.0205278
0.0520118
0.0851089
0.11989
0.156346
0.194357
0.233658
0.27379
0.314052
0.353442
0.390608
0.423808
0.450887
0.469363
0.476922
0.471198
0.445562
0.396174
-0.424556
-0.471092
-0.493453
-0.496247
-0.487046
-0.468967
-0.444653
-0.416527
-0.386424
-0.355609
-0.324895
-0.294748
-0.265373
-0.23679
-0.208894
-0.181495
-0.154351
-0.127186
-0.0997107
-0.0716261
-0.042635
-0.0124465
0.0192169
0.0526117
0.0879617
0.125442
0.165158
0.207111
0.251155
0.296944
0.343858
0.390919
0.436701
0.479237
0.515934
0.543611
0.559028
0.558604
0.533565
0.478689
-0.512677
-0.565597
-0.586752
-0.582921
-0.564618
-0.536492
-0.502196
-0.464808
-0.426497
-0.388633
-0.352004
-0.316972
-0.283608
-0.251792
-0.221279
-0.191753
-0.162856
-0.134213
-0.105441
-0.0761536
-0.0459723
-0.0145224
0.0185615
0.0536318
0.0910203
0.131026
0.173893
0.219782
0.268722
0.320546
0.3748
0.430628
0.486629
0.540691
0.589793
0.629954
0.656734
0.664788
0.642069
0.580917
-0.622172
-0.682496
-0.699811
-0.684921
-0.652946
-0.610735
-0.56319
-0.514082
-0.465823
-0.419759
-0.37651
-0.336218
-0.298725
-0.263694
-0.23069
-0.199233
-0.168827
-0.138978
-0.1092
-0.0790172
-0.0479622
-0.0155748
0.0186012
0.0550198
0.0941298
0.136369
0.182149
0.231829
0.28567
0.34377
0.405955
0.471637
0.539609
0.60778
0.672823
0.729931
0.773202
0.79482
0.777709
0.70977
-0.762658
-0.830465
-0.838569
-0.805278
-0.752823
-0.691009
-0.626115
-0.562461
-0.502453
-0.447144
-0.396766
-0.351065
-0.309524
-0.271503
-0.236317
-0.203284
-0.171748
-0.141083
-0.110695
-0.0800153
-0.0484908
-0.0155774
0.0192706
0.0566084
0.0970063
0.141051
0.189343
0.242477
0.301011
0.365402
0.435902
0.512389
0.594115
0.679322
0.76468
0.844733
0.911995
0.955375
0.950201
0.876237
-0.950823
-1.02277
-1.01076
-0.946968
-0.864058
-0.775343
-0.688215
-0.607034
-0.533661
-0.46841
-0.410782
-0.359896
-0.314723
-0.27422
-0.237395
-0.203335
-0.171205
-0.140245
-0.109754
-0.0790737
-0.0475747
-0.0146364
0.0203679
0.0580877
0.0992104
0.144475
0.194679
0.250685
0.313402
0.383748
0.462566
0.550457
0.647507
0.752805
0.863639
0.974489
1.07658
1.15497
1.17408
1.09894
-1.21718
-1.27971
-1.22551
-1.11154
-0.984071
-0.85937
-0.744753
-0.643427
-0.555739
-0.480568
-0.416237
-0.360957
-0.313024
-0.27091
-0.233274
-0.198954
-0.166939
-0.136341
-0.106365
-0.076278
-0.045388
-0.0130143
0.0215346
0.0589867
0.100132
0.145848
0.197129
0.255112
0.321096
0.396543
0.48305
0.582236
0.695508
0.823558
0.96537
1.11672
1.26884
1.40348
1.47114
1.41122
-1.61771
-1.63095
-1.49152
-1.29672
-1.10589
-0.935006
-0.788313
-0.665547
-0.563984
-0.480141
-0.410641
-0.352516
-0.303267
-0.260831
-0.223516
-0.189929
-0.158905
-0.129453
-0.100709
-0.0718924
-0.0422704
-0.0111272
0.0222691
0.0586988
0.0990258
0.144239
0.195501
0.254202
0.322026
0.401021
0.493658
0.602849
0.731862
0.883978
1.06155
1.26423
1.4865
1.71008
1.8724
1.87274
-2.25446
-2.11587
-1.81359
-1.49442
-1.21742
-0.990515
-0.809417
-0.666455
-0.553627
-0.464014
-0.392068
-0.333472
-0.284903
-0.243804
-0.208188
-0.176484
-0.147427
-0.119972
-0.0932214
-0.0663811
-0.0387115
-0.00949158
0.0220185
0.0566157
0.095198
0.138817
0.188746
0.246568
0.314292
0.394504
0.490568
0.606858
0.748991
0.923946
1.13978
1.40421
1.72094
2.07939
2.41784
2.58911
-3.35592
-2.78318
-2.1727
-1.67585
-1.29258
-1.00573
-0.79415
-0.637275
-0.519331
-0.429175
-0.358975
-0.303184
-0.25784
-0.22006
-0.187703
-0.159137
-0.133079
-0.108493
-0.0845056
-0.0603484
-0.0353133
-0.00871087
0.0201685
0.0520949
0.0879466
0.12877
0.175862
0.230878
0.296001
0.374174
0.469457
0.587551
0.736532
0.927897
1.17797
1.50834
1.94099
2.49108
3.15796
3.79444
-5.52066
-3.66081
-2.43095
-1.71417
-1.24179
-0.921815
-0.704869
-0.553971
-0.445495
-0.365212
-0.30419
-0.256574
-0.218406
-0.186923
-0.160131
-0.136538
-0.114989
-0.0945595
-0.0744733
-0.0540525
-0.0326724
-0.00972501
0.0154157
0.0434313
0.0751028
0.111368
0.153399
0.202718
0.26137
0.332196
0.419277
0.528677
0.669682
0.857075
1.11541
1.48391
2.01598
2.8054
4.12342
6.0914
-9.20662
-4.51956
-2.30623
-1.42119
-0.958943
-0.682909
-0.512255
-0.400584
-0.322918
-0.266419
-0.223896
-0.190917
-0.164575
-0.142859
-0.124314
-0.107842
-0.0925826
-0.0778384
-0.0630189
-0.0476029
-0.0311076
-0.0130618
0.00701921
0.0296613
0.055463
0.0851373
0.119568
0.159894
0.207635
0.264901
0.334754
0.421858
0.533761
0.683748
0.897451
1.22411
1.75391
2.73325
5.06142
9.86893
)
;

boundaryField
{
    movingWall
    {
        type            zeroGradient;
    }
    fixedWalls
    {
        type            zeroGradient;
    }
    frontAndBack
    {
        type            empty;
    }
}


// ************************************************************************* //
