/*--------------------------------*- C++ -*----------------------------------*\
  =========                 |
  \\      /  F ield         | OpenFOAM: The Open Source CFD Toolbox
   \\    /   O peration     | Website:  https://openfoam.org
    \\  /    A nd           | Version:  7
     \\/     M anipulation  |
\*---------------------------------------------------------------------------*/
FoamFile
{
    version     2.0;
    format      ascii;
    class       volScalarField;
    location    "0.4125";
    object      p;
}
// * * * * * * * * * * * * * * * * * * * * * * * * * * * * * * * * * * * * * //

dimensions      [0 2 -2 0 0 0 0];

internalField   nonuniform List<scalar> 
25600
(
1.4928e-07
0.000111445
0.000139558
3.10106e-05
-0.000222635
-0.000617316
-0.00114189
-0.00178199
-0.00252217
-0.00334718
-0.00424253
-0.00519467
-0.00619092
-0.00721959
-0.00827001
-0.00933237
-0.0103977
-0.0114576
-0.0125046
-0.0135318
-0.0145328
-0.0155019
-0.0164338
-0.0173237
-0.0181672
-0.0189604
-0.0196996
-0.0203817
-0.0210037
-0.0215631
-0.0220577
-0.0224853
-0.0228444
-0.0231333
-0.0233508
-0.0234959
-0.0235677
-0.0235655
-0.023489
-0.0233377
-0.0231115
-0.0228105
-0.0224348
-0.0219849
-0.0214611
-0.020864
-0.0201944
-0.0194531
-0.0186409
-0.0177591
-0.0168087
-0.0157909
-0.0147072
-0.0135588
-0.0123475
-0.0110747
-0.00974212
-0.00835155
-0.00690481
-0.00540378
-0.00385044
-0.0022468
-0.000594947
0.00110298
0.00284478
0.00462819
0.00645089
0.00831055
0.0102048
0.0121311
0.014087
0.01607
0.0180776
0.0201071
0.0221559
0.0242213
0.0263007
0.0283914
0.0304905
0.0325954
0.0347033
0.0368115
0.038917
0.0410171
0.043109
0.0451898
0.0472569
0.0493073
0.0513383
0.0533471
0.0553309
0.057287
0.0592126
0.061105
0.0629616
0.0647797
0.0665567
0.0682901
0.0699773
0.071616
0.0732036
0.074738
0.0762168
0.0776378
0.0789989
0.0802981
0.0815334
0.0827031
0.0838052
0.0848383
0.0858007
0.0866911
0.0875081
0.0882505
0.0889174
0.0895079
0.0900212
0.0904568
0.0908141
0.091093
0.0912934
0.0914153
0.0914592
0.0914253
0.0913146
0.0911277
0.0908661
0.0905308
0.0901237
0.0896466
0.0891015
0.0884909
0.0878176
0.0870845
0.086295
0.0854528
0.0845618
0.0836265
0.0826516
0.0816425
0.0806049
0.0795448
0.0784689
0.0773845
0.0762994
0.0752221
0.0741618
0.0731283
0.0721324
0.0711854
0.0702999
0.069489
0.0687666
0.0681471
0.0676451
0.0672735
0.0670416
0.0669514
0.0669919
0.0671074
-0.000111914
-5.99406e-07
3.30204e-06
-0.000117985
-0.000360396
-0.000722081
-0.00119659
-0.00177348
-0.00244075
-0.00318613
-0.00399741
-0.00486274
-0.00577084
-0.00671116
-0.0076739
-0.00864992
-0.00963073
-0.0106085
-0.0115761
-0.0125268
-0.0134544
-0.0143536
-0.015219
-0.0160459
-0.0168302
-0.0175678
-0.0182552
-0.0188892
-0.019467
-0.0199859
-0.0204438
-0.0208384
-0.0211682
-0.0214315
-0.021627
-0.0217537
-0.0218106
-0.0217971
-0.0217125
-0.0215566
-0.0213291
-0.02103
-0.0206594
-0.0202176
-0.019705
-0.0191221
-0.0184696
-0.0177481
-0.0169586
-0.016102
-0.0151794
-0.0141921
-0.0131411
-0.012028
-0.0108541
-0.00962102
-0.00833029
-0.00698361
-0.00558275
-0.00412951
-0.00262578
-0.00107349
0.000525345
0.00216867
0.00385435
0.00558021
0.00734402
0.00914351
0.0109764
0.0128402
0.0147327
0.0166513
0.0185937
0.0205571
0.0225392
0.0245374
0.026549
0.0285714
0.0306021
0.0326382
0.0346772
0.0367163
0.0387529
0.0407842
0.0428075
0.04482
0.0468192
0.0488022
0.0507664
0.0527091
0.0546276
0.0565193
0.0583815
0.0602116
0.0620071
0.0637653
0.0654838
0.0671602
0.0687921
0.070377
0.0719127
0.073397
0.0748277
0.0762027
0.07752
0.0787777
0.0799738
0.0811068
0.0821748
0.0831763
0.0841099
0.0849743
0.0857682
0.0864906
0.0871405
0.0877171
0.0882198
0.088648
0.0890014
0.0892798
0.0894831
0.0896116
0.0896655
0.0896455
0.0895522
0.0893866
0.0891499
0.0888435
0.088469
0.0880283
0.0875235
0.086957
0.0863315
0.0856501
0.084916
0.0841328
0.0833044
0.0824353
0.08153
0.0805937
0.0796319
0.0786505
0.0776559
0.0766551
0.0756554
0.074665
0.0736924
0.0727467
0.0718377
0.0709758
0.070172
0.0694377
0.0687847
0.0682245
0.0677681
0.0674247
0.0671996
0.0670931
0.0671071
0.0672226
-0.000141311
-4.88136e-06
-8.23976e-07
-0.000123318
-0.000355657
-0.000694839
-0.00113545
-0.00166868
-0.0022845
-0.00297251
-0.00372206
-0.00452259
-0.00536403
-0.00623677
-0.00713177
-0.00804051
-0.00895503
-0.00986792
-0.0107723
-0.0116619
-0.0125307
-0.0133734
-0.014185
-0.0149609
-0.0156969
-0.0163892
-0.0170342
-0.0176289
-0.0181702
-0.0186558
-0.0190833
-0.0194507
-0.0197562
-0.0199983
-0.0201755
-0.0202869
-0.0203314
-0.0203083
-0.0202171
-0.0200573
-0.0198287
-0.0195311
-0.0191648
-0.0187298
-0.0182265
-0.0176555
-0.0170172
-0.0163124
-0.0155418
-0.0147064
-0.0138073
-0.0128454
-0.0118221
-0.0107385
-0.00959618
-0.00839649
-0.00714098
-0.00583127
-0.00446906
-0.00305608
-0.00159416
-8.51559e-05
0.00146898
0.00306625
0.00470461
0.00638193
0.00809606
0.00984481
0.0116259
0.0134371
0.015276
0.0171404
0.0190276
0.0209354
0.0228613
0.0248027
0.0267571
0.028722
0.0306949
0.032673
0.0346539
0.0366349
0.0386133
0.0405866
0.0425521
0.0445071
0.0464491
0.0483754
0.0502834
0.0521705
0.0540341
0.0558716
0.0576805
0.0594582
0.0612022
0.0629102
0.0645796
0.0662081
0.0677935
0.0693333
0.0708255
0.0722678
0.0736582
0.0749947
0.0762753
0.0774981
0.0786615
0.0797637
0.0808031
0.0817783
0.0826879
0.0835306
0.0843052
0.0850109
0.0856466
0.0862117
0.0867055
0.0871276
0.0874777
0.0877557
0.0879615
0.0880953
0.0881577
0.088149
0.0880702
0.0879221
0.0877061
0.0874234
0.0870757
0.0866649
0.0861931
0.0856627
0.0850764
0.0844372
0.0837482
0.083013
0.0822355
0.0814198
0.0805706
0.0796928
0.0787917
0.0778731
0.076943
0.0760081
0.0750754
0.0741526
0.0732477
0.0723691
0.0715259
0.0707276
0.0699839
0.069305
0.068701
0.0681818
0.0677567
0.0674333
0.067216
0.0671069
0.0671209
0.0672631
-3.39196e-05
0.000115731
0.000121428
-7.84655e-07
-0.000227133
-0.000552544
-0.00097124
-0.00147501
-0.00205492
-0.00270159
-0.00340547
-0.0041571
-0.00494733
-0.00576739
-0.00660889
-0.00746391
-0.00832498
-0.00918511
-0.0100378
-0.010877
-0.0116971
-0.0124928
-0.0132593
-0.0139923
-0.0146876
-0.0153415
-0.0159504
-0.0165115
-0.0170218
-0.0174788
-0.0178803
-0.0182242
-0.0185088
-0.0187325
-0.018894
-0.0189921
-0.0190258
-0.0189945
-0.0188975
-0.0187343
-0.0185047
-0.0182086
-0.0178459
-0.0174169
-0.0169219
-0.0163612
-0.0157355
-0.0150453
-0.0142914
-0.0134747
-0.0125961
-0.0116567
-0.0106577
-0.00960026
-0.00848573
-0.00731551
-0.00609108
-0.00481402
-0.00348593
-0.00210851
-0.000683523
0.000787226
0.00230185
0.00385842
0.00545494
0.00708935
0.00875956
0.0104634
0.0121988
0.0139634
0.015755
0.0175712
0.0194098
0.0212684
0.0231445
0.0250357
0.0269396
0.0288537
0.0307754
0.0327023
0.0346319
0.0365615
0.0384886
0.0404107
0.0423251
0.0442294
0.046121
0.0479972
0.0498556
0.0516937
0.0535088
0.0552986
0.0570605
0.058792
0.0604909
0.0621546
0.0637808
0.0653672
0.0669117
0.0684119
0.0698658
0.0712713
0.0726263
0.0739289
0.0751773
0.0763697
0.0775043
0.0785796
0.079594
0.0805462
0.0814347
0.0822584
0.0830162
0.0837072
0.0843306
0.0848856
0.0853717
0.0857884
0.0861356
0.0864131
0.0866209
0.0867594
0.086829
0.0868301
0.0867637
0.0866307
0.0864323
0.0861699
0.0858451
0.0854599
0.0850163
0.0845166
0.0839636
0.0833601
0.0827092
0.0820145
0.0812796
0.0805088
0.0797064
0.0788772
0.0780263
0.0771592
0.0762818
0.0754004
0.0745217
0.0736528
0.0728013
0.0719751
0.0711825
0.0704322
0.069733
0.0690942
0.0685247
0.0680334
0.0676287
0.067318
0.0671061
0.0669972
0.0670144
0.0671735
0.000218342
0.000357537
0.000353846
0.000225861
-5.37872e-07
-0.000318934
-0.000723317
-0.00120593
-0.00175848
-0.00237244
-0.00303921
-0.00375025
-0.00449728
-0.00527223
-0.00606739
-0.00687539
-0.00768927
-0.00850247
-0.00930884
-0.0101027
-0.0108785
-0.0116315
-0.0123569
-0.0130505
-0.0137083
-0.0143267
-0.0149023
-0.0154322
-0.0159136
-0.016344
-0.0167212
-0.0170431
-0.0173081
-0.0175146
-0.0176613
-0.0177469
-0.0177706
-0.0177316
-0.0176291
-0.0174628
-0.0172323
-0.0169375
-0.0165785
-0.0161553
-0.0156681
-0.0151175
-0.0145038
-0.0138276
-0.0130897
-0.0122909
-0.0114321
-0.0105143
-0.00953867
-0.00850629
-0.00741849
-0.0062766
-0.00508206
-0.00383638
-0.00254111
-0.0011979
0.000191557
0.0016255
0.00310212
0.00461951
0.00617576
0.00776886
0.00939679
0.0110575
0.0127488
0.0144685
0.0162145
0.0179845
0.0197763
0.0215874
0.0234156
0.0252586
0.0271138
0.028979
0.0308516
0.0327292
0.0346094
0.0364896
0.0383674
0.0402402
0.0421056
0.0439611
0.0458042
0.0476324
0.0494432
0.0512342
0.0530028
0.0547468
0.0564636
0.0581509
0.0598063
0.0614276
0.0630124
0.0645585
0.0660638
0.0675261
0.0689433
0.0703135
0.0716347
0.072905
0.0741227
0.0752859
0.076393
0.0774426
0.0784331
0.0793632
0.0802316
0.0810372
0.081779
0.082456
0.0830675
0.0836129
0.0840915
0.0845031
0.0848475
0.0851244
0.0853342
0.0854769
0.0855531
0.0855634
0.0855085
0.0853896
0.0852076
0.0849642
0.0846608
0.0842993
0.0838818
0.0834107
0.0828884
0.0823179
0.0817022
0.0810447
0.080349
0.0796191
0.0788593
0.0780742
0.0772686
0.0764479
0.0756176
0.0747837
0.0739526
0.0731309
0.0723257
0.0715444
0.0707945
0.0700841
0.0694212
0.0688141
0.0682712
0.0678002
0.0674091
0.067105
0.0668932
0.0667794
0.0667896
0.0669428
0.000611633
0.000719175
0.000693514
0.000551754
0.000318115
-5.7161e-07
-0.000398251
-0.000867542
-0.00140074
-0.00199007
-0.00262777
-0.00330612
-0.00401755
-0.0047547
-0.00551046
-0.006278
-0.00705087
-0.00782293
-0.00858841
-0.00934189
-0.0100783
-0.0107928
-0.0114811
-0.012139
-0.0127627
-0.0133487
-0.0138938
-0.014395
-0.0148498
-0.0152556
-0.0156104
-0.015912
-0.0161589
-0.0163494
-0.0164823
-0.0165564
-0.0165708
-0.0165245
-0.0164171
-0.0162479
-0.0160167
-0.0157234
-0.0153678
-0.0149502
-0.0144706
-0.0139295
-0.0133273
-0.0126646
-0.011942
-0.0111603
-0.0103204
-0.00942322
-0.00846986
-0.00746143
-0.00639916
-0.00528435
-0.00411838
-0.0029027
-0.00163881
-0.00032831
0.00102717
0.00242592
0.00386617
0.00534609
0.00686381
0.0084174
0.0100049
0.0116242
0.0132734
0.0149502
0.0166526
0.0183784
0.0201253
0.0218911
0.0236735
0.0254703
0.027279
0.0290974
0.030923
0.0327535
0.0345865
0.0364195
0.0382501
0.0400759
0.0418945
0.0437034
0.0455002
0.0472825
0.0490478
0.0507939
0.0525182
0.0542184
0.0558923
0.0575374
0.0591515
0.0607323
0.0622777
0.0637854
0.0652534
0.0666796
0.068062
0.0693986
0.0706877
0.0719272
0.0731156
0.0742511
0.0753322
0.0763573
0.0773252
0.0782343
0.0790837
0.0798721
0.0805986
0.0812623
0.0818626
0.0823987
0.0828702
0.0832769
0.0836184
0.0838948
0.0841061
0.0842528
0.0843351
0.0843537
0.0843095
0.0842035
0.0840368
0.0838107
0.083527
0.0831874
0.082794
0.0823489
0.0818549
0.0813145
0.0807308
0.0801071
0.0794469
0.078754
0.0780325
0.0772869
0.0765218
0.0757422
0.0749534
0.0741611
0.0733713
0.0725902
0.0718243
0.0710806
0.070366
0.0696878
0.0690534
0.0684704
0.0679462
0.0674883
0.0671037
0.0667996
0.0665815
0.0664555
0.0664466
0.0665728
0.00113552
0.00119433
0.00113532
0.000971646
0.000723203
0.000396734
-1.74478e-06
-0.000465289
-0.000986827
-0.00155931
-0.00217569
-0.00282895
-0.0035122
-0.0042187
-0.00494191
-0.00567554
-0.00641361
-0.00715039
-0.00788048
-0.00859878
-0.00930049
-0.00998109
-0.0106364
-0.0112624
-0.0118556
-0.0124125
-0.01293
-0.0134054
-0.013836
-0.0142196
-0.0145539
-0.014837
-0.0150673
-0.0152432
-0.0153636
-0.0154271
-0.0154329
-0.0153801
-0.0152681
-0.0150965
-0.0148648
-0.0145729
-0.0142208
-0.0138084
-0.0133361
-0.0128041
-0.0122129
-0.0115629
-0.0108548
-0.0100893
-0.00926733
-0.00838972
-0.00745751
-0.00647179
-0.00543374
-0.0043446
-0.00320572
-0.00201849
-0.000784371
0.000495105
0.00181835
0.0031837
0.00458944
0.00603381
0.00751497
0.00903106
0.0105801
0.0121603
0.0137694
0.0154055
0.0170666
0.0187503
0.0204547
0.0221775
0.0239165
0.0256694
0.027434
0.0292081
0.0309891
0.032775
0.0345632
0.0363514
0.0381374
0.0399186
0.0416928
0.0434576
0.0452105
0.0469494
0.0486717
0.0503752
0.0520576
0.0537165
0.0553497
0.056955
0.05853
0.0600726
0.0615807
0.0630522
0.064485
0.0658772
0.0672267
0.0685317
0.0697903
0.0710009
0.0721617
0.0732711
0.0743276
0.0753298
0.0762762
0.0771657
0.0779971
0.0787693
0.0794814
0.0801326
0.0807222
0.0812496
0.0817144
0.0821163
0.082455
0.0827307
0.0829434
0.0830935
0.0831813
0.0832075
0.083173
0.0830787
0.0829257
0.0827156
0.0824497
0.0821299
0.0817582
0.0813368
0.0808681
0.0803549
0.0798
0.0792065
0.0785779
0.0779178
0.0772303
0.0765194
0.0757897
0.0750458
0.0742929
0.0735363
0.0727814
0.0720343
0.0713009
0.0705877
0.0699011
0.0692477
0.0686343
0.0680679
0.0675552
0.067103
0.066718
0.0664069
0.0661752
0.0660292
0.0659902
0.0660725
0.00177608
0.00177317
0.00167114
0.00147782
0.00120729
0.000866001
0.000459794
-4.96881e-06
-0.000521897
-0.0010846
-0.00168668
-0.00232178
-0.0029836
-0.003666
-0.00436297
-0.00506875
-0.00577777
-0.00648475
-0.00718462
-0.00787261
-0.00854419
-0.00919512
-0.00982139
-0.0104193
-0.0109853
-0.0115162
-0.0120091
-0.0124612
-0.0128701
-0.0132335
-0.0135493
-0.0138157
-0.0140309
-0.0141937
-0.0143026
-0.0143565
-0.0143546
-0.0142959
-0.0141799
-0.0140061
-0.0137741
-0.0134838
-0.013135
-0.0127278
-0.0122625
-0.0117392
-0.0111583
-0.0105204
-0.00982609
-0.00907602
-0.00827102
-0.00741194
-0.00649978
-0.00553558
-0.00452047
-0.00345567
-0.00234246
-0.0011822
2.37069e-05
0.00127377
0.00256646
0.00390015
0.00527318
0.00668384
0.00813034
0.00961086
0.0111235
0.0126665
0.0142377
0.0158352
0.017457
0.019101
0.020765
0.0224471
0.0241449
0.0258563
0.0275791
0.0293111
0.0310499
0.0327935
0.0345393
0.0362852
0.0380288
0.0397679
0.0415001
0.0432231
0.0449346
0.0466324
0.048314
0.0499774
0.0516201
0.05324
0.0548348
0.0564024
0.0579406
0.0594471
0.0609201
0.0623574
0.063757
0.065117
0.0664356
0.0677108
0.0689409
0.0701241
0.071259
0.0723438
0.0733772
0.0743577
0.075284
0.076155
0.0769694
0.0777264
0.0784249
0.0790643
0.0796438
0.080163
0.0806213
0.0810186
0.0813547
0.0816295
0.0818433
0.0819963
0.082089
0.082122
0.0820961
0.0820124
0.0818719
0.081676
0.0814262
0.0811243
0.0807721
0.0803719
0.079926
0.079437
0.0789077
0.078341
0.0777404
0.0771092
0.0764514
0.0757708
0.0750717
0.0743586
0.0736362
0.0729096
0.0721839
0.0714647
0.0707575
0.0700682
0.0694028
0.0687674
0.0681683
0.0676117
0.0671037
0.0666506
0.0662585
0.0659337
0.0656814
0.0655079
0.0654291
0.0654544
0.00251877
0.00244459
0.00229157
0.00206176
0.00176262
0.00140015
0.000979912
0.000507576
-1.11344e-05
-0.000570449
-0.00116458
-0.00178778
-0.00243432
-0.0030986
-0.00377514
-0.00445862
-0.00514394
-0.00582619
-0.00650066
-0.00716288
-0.00780863
-0.0084339
-0.0090349
-0.0096081
-0.0101502
-0.0106582
-0.0111292
-0.0115606
-0.0119501
-0.0122954
-0.0125946
-0.0128458
-0.0130476
-0.0131984
-0.0132971
-0.0133424
-0.0133336
-0.0132697
-0.0131502
-0.0129746
-0.0127425
-0.0124538
-0.0121083
-0.0117062
-0.0112474
-0.0107324
-0.0101615
-0.00953512
-0.00885386
-0.0081184
-0.0073295
-0.00648799
-0.00559482
-0.004651
-0.00365763
-0.00261588
-0.001527
-0.000392274
0.00078691
0.00200912
0.00327286
0.00457656
0.0059186
0.00729732
0.00871099
0.0101578
0.011636
0.0131437
0.014679
0.01624
0.0178246
0.0194309
0.0210567
0.0227002
0.024359
0.0260311
0.0277143
0.0294065
0.0311055
0.0328089
0.0345147
0.0362205
0.0379241
0.0396233
0.0413158
0.0429994
0.0446717
0.0463307
0.047974
0.0495994
0.0512047
0.0527877
0.0543464
0.0558784
0.0573818
0.0588544
0.0602943
0.0616994
0.0630677
0.0643975
0.0656869
0.066934
0.0681372
0.0692949
0.0704053
0.071467
0.0724787
0.0734388
0.0743462
0.0751997
0.0759983
0.0767408
0.0774266
0.0780548
0.0786249
0.0791362
0.0795884
0.0799812
0.0803145
0.0805884
0.0808029
0.0809585
0.0810554
0.0810945
0.0810764
0.0810021
0.0808727
0.0806896
0.0804542
0.0801682
0.0798334
0.0794521
0.0790264
0.0785588
0.0780521
0.0775091
0.0769329
0.076327
0.0756948
0.0750403
0.0743674
0.0736803
0.0729835
0.0722817
0.0715798
0.0708828
0.070196
0.0695247
0.0688746
0.068251
0.0676598
0.0671067
0.0665972
0.0661371
0.0657319
0.0653871
0.065108
0.0649003
0.0647737
0.0647324
0.00334941
0.00319705
0.00298682
0.00271481
0.00238142
0.00199212
0.00155217
0.00106653
0.00054027
-2.1432e-05
-0.000613378
-0.00123037
-0.00186724
-0.00251888
-0.0031803
-0.00384665
-0.00451322
-0.00517547
-0.00582904
-0.00646978
-0.00709373
-0.00769712
-0.0082764
-0.00882825
-0.00934955
-0.00983742
-0.0102892
-0.0107023
-0.0110746
-0.0114039
-0.0116883
-0.0119261
-0.0121158
-0.012256
-0.0123455
-0.0123833
-0.0123683
-0.0122998
-0.0121773
-0.0120003
-0.0117684
-0.0114814
-0.0111392
-0.0107419
-0.0102896
-0.00978256
-0.00922108
-0.00860565
-0.0079368
-0.00721519
-0.00644154
-0.00561667
-0.00474148
-0.00381695
-0.00284415
-0.00182421
-0.000758322
0.000352242
0.00150615
0.00270202
0.00393838
0.00521371
0.00652645
0.00787496
0.00925756
0.0106725
0.0121181
0.0135925
0.0150938
0.0166202
0.0181697
0.0197403
0.0213301
0.022937
0.024559
0.026194
0.0278398
0.0294944
0.0311556
0.0328213
0.0344892
0.0361572
0.037823
0.0394846
0.0411396
0.042786
0.0444214
0.0460438
0.0476509
0.0492405
0.0508106
0.052359
0.0538835
0.0553821
0.0568528
0.0582935
0.0597022
0.061077
0.062416
0.0637174
0.0649793
0.0662001
0.0673781
0.0685116
0.0695992
0.0706392
0.0716305
0.0725715
0.0734612
0.0742983
0.0750819
0.075811
0.0764847
0.0771024
0.0776634
0.0781673
0.0786136
0.0790022
0.0793328
0.0796055
0.0798206
0.0799782
0.0800788
0.0801231
0.0801118
0.0800458
0.0799263
0.0797545
0.0795319
0.07926
0.0789407
0.0785759
0.078168
0.0777192
0.0772322
0.0767097
0.0761547
0.0755705
0.0749603
0.0743278
0.0736769
0.0730113
0.0723355
0.0716537
0.0709705
0.0702905
0.0696187
0.06896
0.0683195
0.0677022
0.0671133
0.066558
0.0660415
0.0655687
0.0651448
0.0647745
0.064463
0.0642155
0.0640349
0.0639197
0.00425455
0.00401924
0.00374714
0.00342834
0.00305591
0.00263485
0.00217015
0.0016661
0.00112714
0.000557854
-3.70983e-05
-0.000653051
-0.00128534
-0.00192936
-0.00258057
-0.00323453
-0.00388692
-0.00453357
-0.00517045
-0.00579371
-0.00639963
-0.00698472
-0.00754565
-0.0080793
-0.00858275
-0.00905327
-0.00948833
-0.00988555
-0.0102428
-0.010558
-0.0108294
-0.0110554
-0.0112344
-0.0113653
-0.0114467
-0.0114777
-0.0114574
-0.0113851
-0.0112601
-0.011082
-0.0108505
-0.0105653
-0.0102265
-0.00983389
-0.00938776
-0.0088883
-0.00833583
-0.0077308
-0.00707373
-0.00636524
-0.00560603
-0.00479689
-0.0039387
-0.0030324
-0.00207903
-0.00107969
-3.55269e-05
0.00105222
0.00218227
0.00335326
0.00456377
0.00581232
0.00709738
0.00841737
0.00977065
0.0111556
0.0125704
0.0140133
0.0154825
0.0169763
0.0184926
0.0200296
0.0215853
0.0231578
0.024745
0.0263449
0.0279555
0.0295747
0.0312003
0.0328304
0.0344626
0.0360949
0.0377252
0.0393513
0.0409711
0.0425824
0.0441831
0.0457711
0.0473441
0.0489002
0.0504371
0.0519529
0.0534454
0.0549126
0.0563526
0.0577633
0.0591427
0.0604891
0.0618006
0.0630754
0.0643117
0.0655078
0.0666621
0.0677731
0.0688392
0.0698589
0.0708311
0.0717542
0.0726273
0.0734491
0.0742186
0.0749351
0.0755975
0.0762053
0.0767579
0.0772547
0.0776954
0.0780797
0.0784077
0.0786792
0.0788944
0.0790536
0.0791574
0.0792062
0.0792008
0.0791422
0.0790313
0.0788694
0.0786579
0.0783983
0.0780924
0.0777422
0.0773497
0.0769172
0.0764472
0.0759423
0.0754053
0.0748393
0.0742476
0.0736335
0.0730005
0.0723524
0.0716932
0.0710269
0.0703577
0.06969
0.0690283
0.0683771
0.0677411
0.0671249
0.0665332
0.0659706
0.0654419
0.0649516
0.064504
0.0641034
0.0637547
0.0634626
0.0632232
0.0630292
0.00522183
0.00490046
0.0045631
0.00419381
0.00377834
0.00332131
0.0028275
0.00230056
0.00174432
0.00116282
0.000560196
-5.93823e-05
-0.000691735
-0.0013327
-0.00197817
-0.0026241
-0.00326654
-0.00390167
-0.00452576
-0.00513524
-0.0057267
-0.00629684
-0.00684259
-0.00736102
-0.00784942
-0.00830519
-0.00872595
-0.00910946
-0.00945367
-0.00975669
-0.0100168
-0.0102325
-0.0104023
-0.010525
-0.0105995
-0.0106247
-0.0105998
-0.0105241
-0.0103971
-0.0102183
-0.00998747
-0.00970429
-0.00936873
-0.00898081
-0.00854064
-0.00804845
-0.00750458
-0.00690944
-0.00626353
-0.00556746
-0.0048219
-0.00402762
-0.00318547
-0.00229638
-0.00136134
-0.00038142
0.00064226
0.00170851
0.00281606
0.0039636
0.00514975
0.00637305
0.00763203
0.00892514
0.0102508
0.0116074
0.0129932
0.0144065
0.0158455
0.0173085
0.0187936
0.0202989
0.0218226
0.0233626
0.0249171
0.0264841
0.0280615
0.0296473
0.0312395
0.032836
0.0344347
0.0360335
0.0376304
0.0392232
0.0408099
0.0423883
0.0439563
0.045512
0.0470531
0.0485776
0.0500835
0.0515687
0.0530312
0.0544691
0.0558802
0.0572628
0.058615
0.0599348
0.0612205
0.0624704
0.0636827
0.0648558
0.065988
0.0670779
0.0681239
0.0691248
0.070079
0.0709855
0.071843
0.0726505
0.073407
0.0741115
0.0747634
0.0753619
0.0759065
0.0763966
0.0768319
0.0772122
0.0775375
0.0778076
0.0780228
0.0781833
0.0782895
0.0783421
0.0783418
0.0782895
0.078186
0.0780327
0.0778308
0.0775819
0.0772876
0.0769498
0.0765705
0.0761519
0.0756963
0.0752061
0.0746842
0.0741334
0.0735568
0.0729574
0.0723388
0.0717043
0.0710577
0.0704026
0.0697432
0.0690833
0.0684271
0.0677789
0.0671427
0.066523
0.0659238
0.0653494
0.064804
0.0642916
0.0638161
0.063381
0.0629911
0.0626507
0.062349
0.0620728
0.00624001
0.00583069
0.00542561
0.00500295
0.00454119
0.00404466
0.003518
0.00296427
0.00238672
0.0017889
0.00117443
0.000547028
-8.95751e-05
-0.00073164
-0.00137545
-0.00201734
-0.00265372
-0.00328108
-0.00389599
-0.00449518
-0.00507545
-0.0056338
-0.00616734
-0.00667338
-0.00714935
-0.00759284
-0.00800159
-0.00837351
-0.00870667
-0.0089993
-0.00924977
-0.00945663
-0.00961852
-0.00973423
-0.0098027
-0.00982298
-0.00979428
-0.00971594
-0.00958742
-0.00940831
-0.00917831
-0.00889722
-0.00856497
-0.00818157
-0.00774716
-0.00726195
-0.00672627
-0.00614051
-0.00550517
-0.00482083
-0.00408816
-0.0033079
-0.00248088
-0.00160799
-0.000690215
0.000271426
0.00127584
0.00232185
0.00340825
0.00453374
0.00569696
0.00689653
0.00813099
0.00939883
0.0106985
0.0120284
0.013387
0.0147724
0.016183
0.0176171
0.0190729
0.0205485
0.022042
0.0235516
0.0250754
0.0266114
0.0281577
0.0297122
0.031273
0.032838
0.0344053
0.0359727
0.0375382
0.0390998
0.0406554
0.042203
0.0437406
0.045266
0.0467772
0.0482722
0.0497491
0.0512057
0.0526402
0.0540505
0.0554349
0.0567913
0.0581179
0.0594129
0.0606746
0.0619013
0.0630912
0.0642428
0.0653545
0.0664247
0.0674521
0.0684353
0.069373
0.0702639
0.071107
0.0719011
0.0726454
0.0733389
0.0739809
0.0745707
0.0751077
0.0755915
0.0760217
0.0763981
0.0767207
0.0769893
0.0772041
0.0773655
0.0774738
0.0775295
0.0775335
0.0774864
0.0773893
0.0772433
0.0770496
0.0768097
0.0765252
0.0761979
0.0758297
0.0754227
0.074979
0.074501
0.0739914
0.0734527
0.072888
0.0723002
0.0716924
0.0710679
0.0704301
0.0697825
0.0691289
0.0684728
0.067818
0.0671684
0.0665279
0.0659004
0.0652896
0.0646993
0.0641331
0.0635948
0.0630875
0.0626145
0.0621801
0.0617885
0.0614218
0.0610613
0.00729879
0.00680052
0.00632607
0.00584785
0.00533721
0.00479827
0.0042356
0.00365172
0.00304935
0.00243156
0.00180154
0.00116255
0.000517929
-0.000128987
-0.000774854
-0.00141636
-0.00205023
-0.00267327
-0.00328235
-0.00387444
-0.00444661
-0.0049961
-0.00552024
-0.00601652
-0.00648254
-0.00691607
-0.00731498
-0.00767732
-0.00800129
-0.00828523
-0.00852762
-0.00872706
-0.00888227
-0.00899211
-0.00905558
-0.00907179
-0.00903998
-0.00895955
-0.00882998
-0.00865089
-0.00842199
-0.00814311
-0.00781417
-0.00743521
-0.00700635
-0.00652782
-0.00599993
-0.00542308
-0.00479774
-0.00412448
-0.00340395
-0.00263689
-0.00182409
-0.000966439
-6.48737e-05
0.000879602
0.00186592
0.00289295
0.00395949
0.00506428
0.00620601
0.0073833
0.00859476
0.0098389
0.0111142
0.0124192
0.0137521
0.0151114
0.0164955
0.0179025
0.0193307
0.0207784
0.0222437
0.0237248
0.0252199
0.0267269
0.028244
0.0297692
0.0313006
0.0328362
0.0343741
0.0359121
0.0374484
0.0389808
0.0405074
0.0420263
0.0435353
0.0450324
0.0465158
0.0479833
0.0494331
0.0508631
0.0522715
0.0536563
0.0550156
0.0563476
0.0576505
0.0589225
0.0601619
0.061367
0.0625362
0.0636678
0.0647604
0.0658124
0.0668225
0.0677893
0.0687116
0.0695881
0.0704178
0.0711995
0.0719325
0.0726157
0.0732485
0.0738301
0.0743601
0.074838
0.0752633
0.075636
0.0759558
0.0762228
0.0764371
0.076599
0.0767088
0.0767671
0.0767744
0.0767317
0.0766399
0.0765
0.0763131
0.0760808
0.0758044
0.0754858
0.0751267
0.074729
0.074295
0.0738267
0.0733267
0.0727974
0.0722417
0.0716623
0.0710622
0.0704443
0.0698119
0.0691682
0.0685167
0.0678606
0.0672035
0.0665489
0.0659002
0.0652611
0.0646348
0.0640249
0.0634345
0.0628668
0.0623247
0.0618107
0.0613291
0.060884
0.0604507
0.0600046
0.0083888
0.00780123
0.0072564
0.00672103
0.00615949
0.00557578
0.00497446
0.00435755
0.0037273
0.00308636
0.00243749
0.00178357
0.00112755
0.000472395
-0.000178895
-0.000823332
-0.00145796
-0.00207985
-0.00268616
-0.00327412
-0.00384106
-0.00438442
-0.00490176
-0.00539074
-0.00584914
-0.00627487
-0.00666599
-0.00702066
-0.00733721
-0.00761408
-0.00784985
-0.0080432
-0.00819294
-0.00829798
-0.00835738
-0.00837033
-0.00833611
-0.00825415
-0.00812398
-0.00794523
-0.00771765
-0.00744109
-0.00711547
-0.00674085
-0.00631736
-0.00584522
-0.00532473
-0.00475631
-0.0041404
-0.00347758
-0.00276847
-0.0020138
-0.00121436
-0.000370988
0.000515383
0.00144378
0.00241316
0.00342241
0.00447036
0.00555579
0.0066774
0.00783386
0.0090238
0.0102458
0.0114983
0.0127799
0.014089
0.0154239
0.016783
0.0181647
0.0195673
0.0209889
0.0224279
0.0238824
0.0253505
0.0268305
0.0283203
0.0298182
0.0313223
0.0328305
0.0343409
0.0358515
0.0373605
0.0388658
0.0403654
0.0418575
0.0433399
0.0448109
0.0462683
0.0477103
0.0491349
0.0505402
0.0519243
0.0532854
0.0546216
0.055931
0.0572119
0.0584625
0.0596813
0.0608665
0.0620164
0.0631296
0.0642045
0.0652398
0.0662339
0.0671856
0.0680937
0.0689569
0.0697741
0.0705445
0.0712669
0.0719406
0.0725648
0.073139
0.0736624
0.0741346
0.0745554
0.0749244
0.0752416
0.0755069
0.0757205
0.0758825
0.0759933
0.0760535
0.0760636
0.0760245
0.0759369
0.0758018
0.0756205
0.0753943
0.0751245
0.0748128
0.0744609
0.0740706
0.073644
0.0731831
0.0726903
0.0721678
0.0716184
0.0710445
0.070449
0.0698347
0.0692045
0.0685614
0.0679086
0.0672491
0.0665863
0.0659231
0.0652629
0.0646088
0.0639638
0.063331
0.0627133
0.0621133
0.0615336
0.0609761
0.0604453
0.0599451
0.0594439
0.0589118
0.00950148
0.00882482
0.00820909
0.00761547
0.00700149
0.00637111
0.00572894
0.00507657
0.00441582
0.00374894
0.00307833
0.00240651
0.00173605
0.00106961
0.000409862
-0.000240518
-0.000878851
-0.0015025
-0.00210886
-0.00269543
-0.00325978
-0.00379955
-0.00431251
-0.00479649
-0.00524944
-0.00566943
-0.00605467
-0.00640346
-0.00671425
-0.00698559
-0.00721614
-0.00740466
-0.00755004
-0.00765129
-0.00770753
-0.00771798
-0.007682
-0.00759904
-0.00746869
-0.0072906
-0.00706455
-0.0067904
-0.00646811
-0.00609773
-0.00567941
-0.00521336
-0.00469992
-0.00413945
-0.00353243
-0.00287941
-0.00218102
-0.00143796
-0.000651008
0.000179005
0.00105118
0.00196456
0.00291813
0.00391079
0.0049414
0.00600876
0.00711161
0.00824864
0.00941852
0.0106198
0.0118511
0.013111
0.0143977
0.0157099
0.0170459
0.018404
0.0197827
0.0211801
0.0225945
0.0240242
0.0254673
0.0269221
0.0283867
0.0298592
0.0313377
0.0328204
0.0343054
0.0357906
0.0372742
0.0387543
0.0402289
0.0416962
0.0431541
0.0446007
0.0460341
0.0474525
0.0488538
0.0502363
0.051598
0.0529372
0.0542519
0.0555405
0.0568011
0.0580321
0.0592319
0.0603987
0.061531
0.0626272
0.0636859
0.0647057
0.0656851
0.066623
0.067518
0.0683689
0.0691748
0.0699346
0.0706474
0.0713124
0.0719288
0.0724959
0.0730132
0.0734802
0.0738967
0.0742622
0.0745768
0.0748404
0.075053
0.0752149
0.0753264
0.0753879
0.0754001
0.0753636
0.0752793
0.0751481
0.0749712
0.0747496
0.0744849
0.0741785
0.073832
0.0734472
0.073026
0.0725704
0.0720824
0.0715644
0.0710186
0.0704476
0.069854
0.0692403
0.0686094
0.0679639
0.0673068
0.0666408
0.065969
0.0652942
0.0646193
0.0639472
0.0632805
0.062622
0.0619743
0.0613396
0.0607199
0.0601171
0.0595354
0.0589788
0.0584092
0.0577912
0.0106291
0.00986393
0.00917717
0.00852458
0.00785703
0.00717848
0.00649366
0.00580378
0.00511027
0.00441504
0.00372016
0.0030278
0.00234023
0.00165978
0.000988832
0.000329793
-0.000314933
-0.000942971
-0.00155198
-0.00213969
-0.00270389
-0.00324243
-0.00375324
-0.00423435
-0.00468387
-0.00510005
-0.00548121
-0.00582581
-0.00613239
-0.00639962
-0.00662625
-0.00681114
-0.00695325
-0.00705166
-0.00710556
-0.00711424
-0.00707711
-0.00699367
-0.00686353
-0.00668639
-0.00646206
-0.00619041
-0.00587143
-0.00550519
-0.00509184
-0.00463161
-0.00412482
-0.00357185
-0.00297318
-0.00232935
-0.00164097
-0.000908757
-0.000133455
0.000684115
0.00154307
0.00244248
0.00338134
0.00435857
0.00537306
0.00642363
0.00750904
0.00862803
0.00977927
0.0109614
0.012173
0.0134126
0.0146787
0.0159698
0.0172842
0.0186205
0.0199769
0.0213519
0.0227435
0.0241503
0.0255702
0.0270017
0.0284428
0.0298918
0.0313468
0.0328059
0.0342673
0.035729
0.0371893
0.0386461
0.0400976
0.0415419
0.0429772
0.0444014
0.0458127
0.0472093
0.0485892
0.0499507
0.0512918
0.0526109
0.053906
0.0551754
0.0564174
0.0576304
0.0588127
0.0599627
0.0610788
0.0621595
0.0632034
0.0642091
0.0651751
0.0661003
0.0669834
0.0678232
0.0686187
0.0693689
0.0700729
0.0707299
0.0713391
0.0718998
0.0724115
0.0728737
0.0732861
0.0736483
0.0739604
0.0742221
0.0744336
0.0745951
0.0747068
0.0747692
0.0747828
0.0747483
0.0746664
0.0745381
0.0743643
0.0741463
0.0738852
0.0735826
0.0732399
0.0728588
0.0724411
0.0719887
0.0715034
0.0709875
0.0704431
0.0698726
0.0692783
0.0686626
0.0680282
0.0673775
0.0667133
0.066038
0.0653545
0.0646652
0.0639729
0.06328
0.062589
0.0619024
0.0612222
0.0605507
0.0598893
0.0592395
0.0586057
0.0579919
0.0573536
0.05665
0.0117646
0.0109118
0.0101542
0.00944221
0.00872027
0.00799241
0.00726348
0.00653438
0.0058062
0.00508054
0.00435918
0.00364397
0.00293689
0.00224001
0.00155542
0.000885278
0.000231721
-0.000403124
-0.00101716
-0.00160832
-0.00217461
-0.00271407
-0.00322481
-0.00370503
-0.00415301
-0.00456715
-0.00494591
-0.00528789
-0.00559173
-0.00585619
-0.00608012
-0.00626248
-0.00640232
-0.00649879
-0.00655114
-0.00655874
-0.00652103
-0.00643757
-0.00630802
-0.0061321
-0.00590964
-0.00564057
-0.00532489
-0.00496267
-0.00455408
-0.00409937
-0.00359887
-0.00305295
-0.00246209
-0.00182683
-0.00114779
-0.000425659
0.00033882
0.00114484
0.00199155
0.00287801
0.00380323
0.00476618