/*--------------------------------*- C++ -*----------------------------------*\
  =========                 |
  \\      /  F ield         | OpenFOAM: The Open Source CFD Toolbox
   \\    /   O peration     | Website:  https://openfoam.org
    \\  /    A nd           | Version:  7
     \\/     M anipulation  |
\*---------------------------------------------------------------------------*/
FoamFile
{
    version     2.0;
    format      ascii;
    class       surfaceScalarField;
    location    "0.4125";
    object      phi;
}
// * * * * * * * * * * * * * * * * * * * * * * * * * * * * * * * * * * * * * //

dimensions      [0 3 -1 0 0 0 0];

internalField   nonuniform List<scalar> 
50880
(
6.11856e-12
-6.10713e-12
3.62867e-11
-3.01564e-11
8.11524e-11
-4.48883e-11
1.3079e-10
-4.96315e-11
1.78035e-10
-4.72379e-11
2.17905e-10
-3.98813e-11
2.46988e-10
-2.90821e-11
2.62958e-10
-1.59673e-11
2.64286e-10
-1.33297e-12
2.50013e-10
1.42713e-11
2.19578e-10
3.04396e-11
1.72713e-10
4.68662e-11
1.09382e-10
6.33279e-11
2.97214e-11
7.96575e-11
-6.60048e-11
9.57247e-11
-1.77434e-10
1.11428e-10
-3.04125e-10
1.26688e-10
-4.45573e-10
1.41446e-10
-6.01228e-10
1.55654e-10
-7.70504e-10
1.69275e-10
-9.52786e-10
1.82281e-10
-1.14744e-09
1.94652e-10
-1.35381e-09
2.06371e-10
-1.57123e-09
2.17427e-10
-1.79905e-09
2.27813e-10
-2.03657e-09
2.37525e-10
-2.28313e-09
2.46561e-10
-2.53806e-09
2.54922e-10
-2.80067e-09
2.6261e-10
-3.0703e-09
2.6963e-10
-3.34629e-09
2.75988e-10
-3.62797e-09
2.81689e-10
-3.91471e-09
2.86741e-10
-4.20586e-09
2.91152e-10
-4.50079e-09
2.94931e-10
-4.79888e-09
2.98088e-10
-5.09952e-09
3.00634e-10
-5.4021e-09
3.02579e-10
-5.70603e-09
3.03934e-10
-6.01074e-09
3.0471e-10
-6.31566e-09
3.04919e-10
-6.62023e-09
3.04573e-10
-6.92392e-09
3.03684e-10
-7.22618e-09
3.02264e-10
-7.52651e-09
3.00326e-10
-7.82439e-09
2.97882e-10
-8.11933e-09
2.94945e-10
-8.41086e-09
2.91528e-10
-8.6985e-09
2.87643e-10
-8.98181e-09
2.83304e-10
-9.26033e-09
2.78523e-10
-9.53364e-09
2.73313e-10
-9.80133e-09
2.67688e-10
-1.0063e-08
2.6166e-10
-1.03182e-08
2.55243e-10
-1.05667e-08
2.48449e-10
-1.0808e-08
2.41293e-10
-1.10418e-08
2.33786e-10
-1.12677e-08
2.25943e-10
-1.14855e-08
2.17777e-10
-1.16948e-08
2.093e-10
-1.18953e-08
2.00527e-10
-1.20868e-08
1.9147e-10
-1.22689e-08
1.82144e-10
-1.24415e-08
1.72562e-10
-1.26042e-08
1.62737e-10
-1.27569e-08
1.52683e-10
-1.28993e-08
1.42413e-10
-1.30313e-08
1.31943e-10
-1.31525e-08
1.21284e-10
-1.3263e-08
1.10452e-10
-1.33625e-08
9.94608e-11
-1.34508e-08
8.83243e-11
-1.35278e-08
7.70571e-11
-1.35935e-08
6.56736e-11
-1.36477e-08
5.41882e-11
-1.36903e-08
4.26157e-11
-1.37213e-08
3.09709e-11
-1.37406e-08
1.92687e-11
-1.37481e-08
7.52432e-12
-1.37438e-08
-4.24696e-12
-1.37278e-08
-1.60298e-11
-1.37e-08
-2.78085e-11
-1.36604e-08
-3.95675e-11
-1.36091e-08
-5.1291e-11
-1.35462e-08
-6.29631e-11
-1.34716e-08
-7.45678e-11
-1.33855e-08
-8.60889e-11
-1.3288e-08
-9.75101e-11
-1.31792e-08
-1.08815e-10
-1.30592e-08
-1.19986e-10
-1.29282e-08
-1.31008e-10
-1.27863e-08
-1.41863e-10
-1.26338e-08
-1.52534e-10
-1.24708e-08
-1.63005e-10
-1.22975e-08
-1.73259e-10
-1.21143e-08
-1.83279e-10
-1.19212e-08
-1.93047e-10
-1.17187e-08
-2.02546e-10
-1.15069e-08
-2.1176e-10
-1.12862e-08
-2.20671e-10
-1.1057e-08
-2.29262e-10
-1.08195e-08
-2.37516e-10
-1.0574e-08
-2.45417e-10
-1.03211e-08
-2.52947e-10
-1.0061e-08
-2.6009e-10
-9.79417e-09
-2.66829e-10
-9.52102e-09
-2.73149e-10
-9.24199e-09
-2.79032e-10
-8.95753e-09
-2.84463e-10
-8.6681e-09
-2.89426e-10
-8.3742e-09
-2.93905e-10
-8.07631e-09
-2.97886e-10
-7.77495e-09
-3.01354e-10
-7.47066e-09
-3.04295e-10
-7.16396e-09
-3.06695e-10
-6.85542e-09
-3.08539e-10
-6.54561e-09
-3.09815e-10
-6.2351e-09
-3.1051e-10
-5.92449e-09
-3.10613e-10
-5.61437e-09
-3.10112e-10
-5.30538e-09
-3.08996e-10
-4.99812e-09
-3.07255e-10
-4.69324e-09
-3.04879e-10
-4.39138e-09
-3.0186e-10
-4.09319e-09
-2.98191e-10
-3.79933e-09
-2.93865e-10
-3.51045e-09
-2.88874e-10
-3.22724e-09
-2.83215e-10
-2.95036e-09
-2.76883e-10
-2.68048e-09
-2.69876e-10
-2.41828e-09
-2.62193e-10
-2.16445e-09
-2.53835e-10
-1.91964e-09
-2.44804e-10
-1.68454e-09
-2.35104e-10
-1.4598e-09
-2.24739e-10
-1.24608e-09
-2.1372e-10
-1.04402e-09
-2.02057e-10
-8.54257e-10
-1.89767e-10
-6.77391e-10
-1.76867e-10
-5.14011e-10
-1.63381e-10
-3.64672e-10
-1.49338e-10
-2.29897e-10
-1.34775e-10
-1.10163e-10
-1.19735e-10
-5.88899e-12
-1.04274e-10
8.25746e-11
-8.84618e-11
1.54962e-10
-7.23862e-11
2.11116e-10
-5.61538e-11
2.51018e-10
-3.99e-11
2.74822e-10
-2.3803e-11
2.82915e-10
-8.09392e-12
2.7599e-10
6.92514e-12
2.55144e-10
2.08458e-11
2.22036e-10
3.31075e-11
1.79102e-10
4.29363e-11
1.29865e-10
4.92459e-11
7.93432e-11
5.05322e-11
3.46082e-11
4.47393e-11
5.31754e-12
2.92936e-11
5.33092e-12
3.01474e-11
-3.62414e-11
1.01268e-10
-1.01317e-10
1.95531e-10
-1.3914e-10
2.95855e-10
-1.49955e-10
3.87882e-10
-1.39285e-10
4.60397e-10
-1.12392e-10
5.04924e-10
-7.3607e-11
5.1527e-10
-2.63235e-11
4.87053e-10
2.6881e-11
4.17272e-10
8.40576e-11
3.03997e-10
1.43716e-10
1.46142e-10
2.04718e-10
-5.67265e-11
2.66191e-10
-3.04529e-10
3.27457e-10
-5.96789e-10
3.87981e-10
-9.3271e-10
4.47344e-10
-1.31124e-09
5.05217e-10
-1.73113e-09
5.61337e-10
-2.19098e-09
6.15496e-10
-2.68923e-09
6.67531e-10
-3.22427e-09
7.17315e-10
-3.79436e-09
7.64749e-10
-4.39775e-09
8.09757e-10
-5.0326e-09
8.52281e-10
-5.69707e-09
8.92281e-10
-6.38928e-09
9.29732e-10
-7.10733e-09
9.64616e-10
-7.84934e-09
9.9693e-10
-8.61341e-09
1.02667e-09
-9.39763e-09
1.05386e-09
-1.02001e-08
1.07849e-09
-1.10191e-08
1.10061e-09
-1.18525e-08
1.12022e-09
-1.26987e-08
1.13736e-09
-1.35559e-08
1.15205e-09
-1.44221e-08
1.16434e-09
-1.52957e-08
1.17426e-09
-1.6175e-08
1.18184e-09
-1.70582e-08
1.18714e-09
-1.79437e-08
1.19018e-09
-1.88298e-08
1.19101e-09
-1.97149e-08
1.18969e-09
-2.05975e-08
1.18625e-09
-2.14759e-08
1.18073e-09
-2.23488e-08
1.1732e-09
-2.32146e-08
1.16369e-09
-2.40719e-08
1.15225e-09
-2.49193e-08
1.13894e-09
-2.57555e-08
1.12379e-09
-2.6579e-08
1.10687e-09
-2.73887e-08
1.08822e-09
-2.81833e-08
1.0679e-09
-2.89616e-08
1.04594e-09
-2.97223e-08
1.02241e-09
-3.04644e-08
9.97352e-10
-3.11868e-08
9.70821e-10
-3.18884e-08
9.42867e-10
-3.25681e-08
9.13541e-10
-3.32251e-08
8.82896e-10
-3.38583e-08
8.50983e-10
-3.44668e-08
8.17855e-10
-3.50499e-08
7.83564e-10
-3.56066e-08
7.48162e-10
-3.61361e-08
7.11704e-10
-3.66378e-08
6.74241e-10
-3.71109e-08
6.35828e-10
-3.75547e-08
5.96517e-10
-3.79687e-08
5.56363e-10
-3.83522e-08
5.15421e-10
-3.87046e-08
4.73745e-10
-3.90256e-08
4.3139e-10
-3.93145e-08
3.88411e-10
-3.95711e-08
3.44866e-10
-3.97948e-08
3.0081e-10
-3.99854e-08
2.56299e-10
-4.01427e-08
2.11392e-10
-4.02662e-08
1.66146e-10
-4.03558e-08
1.20619e-10
-4.04114e-08
7.48707e-11
-4.04329e-08
2.896e-11
-4.04201e-08
-1.70532e-11
-4.0373e-08
-6.31083e-11
-4.02916e-08
-1.09144e-10
-4.01761e-08
-1.551e-10
-4.00265e-08
-2.00913e-10
-3.98429e-08
-2.46521e-10
-3.96256e-08
-2.91861e-10
-3.93749e-08
-3.36869e-10
-3.90909e-08
-3.81482e-10
-3.87741e-08
-4.25635e-10
-3.84248e-08
-4.69262e-10
-3.80435e-08
-5.12299e-10
-3.76307e-08
-5.54681e-10
-3.71869e-08
-5.96341e-10
-3.67127e-08
-6.37213e-10
-3.62087e-08
-6.77231e-10
-3.56757e-08
-7.16329e-10
-3.51143e-08
-7.5444e-10
-3.45253e-08
-7.91497e-10
-3.39096e-08
-8.27434e-10
-3.32681e-08
-8.62184e-10
-3.26017e-08
-8.95681e-10
-3.19114e-08
-9.27859e-10
-3.11981e-08
-9.58652e-10
-3.04631e-08
-9.87996e-10
-2.97073e-08
-1.01583e-09
-2.89321e-08
-1.04208e-09
-2.81385e-08
-1.06669e-09
-2.7328e-08
-1.08959e-09
-2.65017e-08
-1.11073e-09
-2.56611e-08
-1.13005e-09
-2.48075e-08
-1.14748e-09
-2.39424e-08
-1.16296e-09
-2.30673e-08
-1.17645e-09
-2.21838e-08
-1.18787e-09
-2.12933e-08
-1.1972e-09
-2.03975e-08
-1.20436e-09
-1.9498e-08
-1.20931e-09
-1.85965e-08
-1.212e-09
-1.76947e-08
-1.21239e-09
-1.67944e-08
-1.21044e-09
-1.58973e-08
-1.2061e-09
-1.50052e-08
-1.19934e-09
-1.41199e-08
-1.19012e-09
-1.32434e-08
-1.17841e-09
-1.23774e-08
-1.16418e-09
-1.15238e-08
-1.14742e-09
-1.06846e-08
-1.12809e-09
-9.86166e-09
-1.10619e-09
-9.05684e-09
-1.0817e-09
-8.2721e-09
-1.05462e-09
-7.50934e-09
-1.02495e-09
-6.77049e-09
-9.9269e-10
-6.05743e-09
-9.57863e-10
-5.37204e-09
-9.20489e-10
-4.71618e-09
-8.80599e-10
-4.09167e-09
-8.38234e-10
-3.50028e-09
-7.93449e-10
-2.94373e-09
-7.46313e-10
-2.42369e-09
-6.96911e-10
-1.94172e-09
-6.45347e-10
-1.49931e-09
-5.9175e-10
-1.0978e-09
-5.36282e-10
-7.384e-10
-4.79133e-10
-4.2214e-10
-4.20538e-10
-1.49818e-10
-3.60787e-10
7.80358e-11
-3.00239e-10
2.61228e-10
-2.3934e-10
3.99977e-10
-1.78644e-10
4.95028e-10
-1.18855e-10
5.47792e-10
-6.08583e-11
5.60513e-10
-5.79565e-12
5.36509e-10
4.48509e-11
4.80481e-10
8.91477e-11
3.98865e-10
1.24564e-10
3.00277e-10
1.47818e-10
1.95989e-10
1.5479e-10
1.00165e-10
1.40544e-10
2.92701e-11
1.00178e-10
3.45931e-11
4.48681e-11
-8.11323e-11
1.3919e-10
-1.95616e-10
2.56457e-10
-2.56394e-10
3.75037e-10
-2.68556e-10
4.76682e-10
-2.40937e-10
5.46519e-10
-1.82223e-10
5.72823e-10
-9.99179e-11
5.46647e-10
-1.53287e-13
4.61364e-10
1.12171e-10
3.12221e-10
2.33205e-10
9.60199e-11
3.59913e-10
-1.89186e-10
4.8992e-10
-5.44346e-10
6.21349e-10
-9.69603e-10
7.52712e-10
-1.46445e-09
8.82826e-10
-2.02786e-09
1.01075e-09
-2.65836e-09
1.13572e-09
-3.35417e-09
1.25714e-09
-4.11319e-09
1.37452e-09
-4.93313e-09
1.48747e-09
-5.81149e-09
1.59568e-09
-6.74567e-09
1.69892e-09
-7.7329e-09
1.79699e-09
-8.77038e-09
1.88975e-09
-9.85519e-09
1.97709e-09
-1.09844e-08
2.05894e-09
-1.2155e-08
2.13524e-09
-1.33641e-08
2.20597e-09
-1.46085e-08
2.27112e-09
-1.58854e-08
2.3307e-09
-1.71916e-08
2.38474e-09
-1.85243e-08
2.43326e-09
-1.98804e-08
2.47632e-09
-2.1257e-08
2.51397e-09
-2.26512e-08
2.54626e-09
-2.40601e-08
2.57328e-09
-2.54809e-08
2.59508e-09
-2.69109e-08
2.61177e-09
-2.83471e-08
2.62341e-09
-2.97871e-08
2.63011e-09
-3.1228e-08
2.63194e-09
-3.26673e-08
2.62901e-09
-3.41025e-08
2.62142e-09
-3.5531e-08
2.60926e-09
-3.69505e-08
2.59263e-09
-3.83584e-08
2.57165e-09
-3.97526e-08
2.54641e-09
-4.11307e-08
2.51702e-09
-4.24904e-08
2.48359e-09
-4.38298e-08
2.44623e-09
-4.51466e-08
2.40504e-09
-4.64389e-08
2.36014e-09
-4.77046e-08
2.31165e-09
-4.89418e-08
2.25966e-09
-5.01488e-08
2.2043e-09
-5.13236e-08
2.14567e-09
-5.24647e-08
2.0839e-09
-5.35702e-08
2.01908e-09
-5.46387e-08
1.95135e-09
-5.56685e-08
1.88081e-09
-5.66582e-08
1.80757e-09
-5.76064e-08
1.73177e-09
-5.85117e-08
1.6535e-09
-5.93729e-08
1.57289e-09
-6.01888e-08
1.49006e-09
-6.09581e-08
1.40513e-09
-6.16797e-08
1.3182e-09
-6.23528e-08
1.22942e-09
-6.29763e-08
1.13888e-09
-6.35492e-08
1.04673e-09
-6.40709e-08
9.53071e-10
-6.45406e-08
8.58036e-10
-6.49574e-08
7.61748e-10
-6.5321e-08
6.64332e-10
-6.56306e-08
5.65913e-10
-6.58858e-08
4.6662e-10
-6.60862e-08
3.6658e-10
-6.62315e-08
2.65923e-10
-6.63214e-08
1.64781e-10
-6.63558e-08
6.32831e-11
-6.63344e-08
-3.84361e-11
-6.62573e-08
-1.40243e-10
-6.61244e-08
-2.42002e-10
-6.59359e-08
-3.43577e-10
-6.5692e-08
-4.44831e-10
-6.53929e-08
-5.45626e-10
-6.50389e-08
-6.45821e-10
-6.46305e-08
-7.45276e-10
-6.41682e-08
-8.43849e-10
-6.36524e-08
-9.41398e-10
-6.30839e-08
-1.03778e-09
-6.24633e-08
-1.13285e-09
-6.17916e-08
-1.22646e-09
-6.10694e-08
-1.31847e-09
-6.02979e-08
-1.40873e-09
-5.9478e-08
-1.4971e-09
-5.86109e-08
-1.58343e-09
-5.76978e-08
-1.66757e-09
-5.67399e-08
-1.74937e-09
-5.57387e-08
-1.82869e-09
-5.46955e-08
-1.90539e-09
-5.36118e-08
-1.97931e-09
-5.24894e-08
-2.05031e-09
-5.13298e-08
-2.11825e-09
-5.01348e-08
-2.18299e-09
-4.89062e-08
-2.24437e-09
-4.7646e-08
-2.30227e-09
-4.63562e-08
-2.35654e-09
-4.50387e-08
-2.40705e-09
-4.36958e-08
-2.45366e-09
-4.23296e-08
-2.49624e-09
-4.09424e-08
-2.53465e-09
-3.95366e-08
-2.56878e-09
-3.81146e-08
-2.5985e-09
-3.66787e-08
-2.6237e-09
-3.52317e-08
-2.64424e-09
-3.3776e-08
-2.66003e-09
-3.23144e-08
-2.67095e-09
-3.08495e-08
-2.6769e-09
-2.93841e-08
-2.67779e-09
-2.7921e-08
-2.67353e-09
-2.64631e-08
-2.66402e-09
-2.50132e-08
-2.64919e-09
-2.35744e-08
-2.62897e-09
-2.21495e-08
-2.60329e-09
-2.07416e-08
-2.57209e-09
-1.93536e-08
-2.53534e-09
-1.79888e-08
-2.49298e-09
-1.66499e-08
-2.445e-09
-1.53403e-08
-2.39136e-09
-1.40628e-08
-2.33208e-09
-1.28206e-08
-2.26716e-09
-1.16167e-08
-2.19662e-09
-1.0454e-08
-2.1205e-09
-9.33565e-09
-2.03887e-09
-8.26444e-09
-1.9518e-09
-7.24327e-09
-1.85941e-09
-6.27489e-09
-1.76182e-09
-5.362e-09
-1.65921e-09
-4.50714e-09
-1.55177e-09
-3.71272e-09
-1.43977e-09
-2.98097e-09
-1.3235e-09
-2.31391e-09
-1.20334e-09
-1.7133e-09
-1.07974e-09
-1.1806e-09
-9.53237e-10
-7.16884e-10
-8.24502e-10
-3.22783e-10
-6.94341e-10
1.62864e-12
-5.63748e-10
2.5694e-10
-4.33953e-10
4.44566e-10
-3.06477e-10
5.66931e-10
-1.83217e-10
6.27695e-10
-6.65611e-11
6.32044e-10
4.04912e-11
5.87037e-10
1.34155e-10
5.01965e-10
2.09655e-10
3.88738e-10
2.61066e-10
2.62263e-10
2.81281e-10
1.40594e-10
2.62237e-10
4.47188e-11
1.96047e-10
7.92991e-11
4.97193e-11
-1.30851e-10
1.50334e-10
-2.96228e-10
2.69214e-10
-3.75289e-10
3.8119e-10
-3.80533e-10
4.65456e-10
-3.25197e-10
5.04937e-10
-2.2171e-10
4.85917e-10
-8.09067e-11
3.9763e-10
8.81369e-11
2.31838e-10
2.7797e-10
-1.75188e-11
4.82562e-10
-3.54672e-10
6.97063e-10
-7.82329e-10
9.17573e-10
-1.30194e-09
1.14096e-09
-1.91392e-09
1.36469e-09
-2.61782e-09
1.58672e-09
-3.41249e-09
1.80541e-09
-4.29619e-09
2.01942e-09
-5.26672e-09
2.22766e-09
-6.32147e-09
2.42926e-09
-7.45751e-09
2.62351e-09
-8.67167e-09
2.80984e-09
-9.96053e-09
2.98778e-09
-1.13205e-08
3.15699e-09
-1.27479e-08
3.31718e-09
-1.4239e-08
3.46814e-09
-1.57898e-08
3.6097e-09
-1.73963e-08
3.74177e-09
-1.90546e-08
3.86428e-09
-2.07607e-08
3.97719e-09
-2.25105e-08
4.0805e-09
-2.43e-08
4.17424e-09
-2.61251e-08
4.25845e-09
-2.7982e-08
4.33321e-09
-2.98666e-08
4.39858e-09
-3.17751e-08
4.45468e-09
-3.37034e-08
4.50162e-09
-3.56478e-08
4.53951e-09
-3.76045e-08
4.56848e-09
-3.95698e-08
4.58869e-09
-4.154e-08
4.60028e-09
-4.35115e-08
4.6034e-09
-4.54807e-08
4.59822e-09
-4.74441e-08
4.5849e-09
-4.93985e-08
4.56361e-09
-5.13404e-08
4.53453e-09
-5.32666e-08
4.49783e-09
-5.51739e-08
4.4537e-09
-5.70592e-08
4.40231e-09
-5.89194e-08
4.34386e-09
-6.07518e-08
4.27854e-09
-6.25532e-08
4.20653e-09
-6.43211e-08
4.12803e-09
-6.60527e-08
4.04322e-09
-6.77453e-08
3.95231e-09
-6.93965e-08
3.85548e-09
-7.10038e-08
3.75294e-09
-7.25648e-08
3.64489e-09
-7.40772e-08
3.53152e-09
-7.55389e-08
3.41303e-09
-7.69477e-08
3.28962e-09
-7.83016e-08
3.1615e-09
-7.95987e-08
3.02887e-09
-8.08372e-08
2.89194e-09
-8.20152e-08
2.7509e-09
-8.31311e-08
2.60597e-09
-8.41833e-08
2.45736e-09
-8.51704e-08
2.30526e-09
-8.60909e-08
2.14991e-09
-8.69435e-08
1.99149e-09
-8.7727e-08
1.83024e-09
-8.84403e-08
1.66636e-09
-8.90823e-08
1.50007e-09
-8.96522e-08
1.33159e-09
-9.0149e-08
1.16114e-09
-9.0572e-08
9.8894e-10
-9.09206e-08
8.15212e-10
-9.11942e-08
6.40183e-10
-9.13924e-08
4.6408e-10
-9.15147e-08
2.87133e-10
-9.1561e-08
1.09571e-10
-9.15311e-08
-6.83703e-11
-9.14249e-08
-2.46457e-10
-9.12424e-08
-4.24453e-10
-9.09839e-08
-6.02118e-10
-9.06495e-08
-7.79211e-10
-9.02396e-08
-9.55491e-10
-8.97547e-08
-1.13071e-09
-8.91954e-08
-1.30463e-09
-8.85622e-08
-1.47699e-09
-8.78561e-08
-1.64755e-09
-8.70778e-08
-1.81606e-09
-8.62284e-08
-1.98226e-09
-8.53089e-08
-2.14591e-09
-8.43207e-08
-2.30674e-09
-8.32649e-08
-2.4645e-09
-8.21431e-08
-2.61894e-09
-8.09567e-08
-2.7698e-09
-7.97074e-08
-2.91683e-09
-7.8397e-08
-3.05976e-09
-7.70274e-08
-3.19835e-09
-7.56004e-08
-3.33234e-09
-7.41183e-08
-3.46147e-09
-7.25831e-08
-3.58549e-09
-7.09972e-08
-3.70416e-09
-6.93629e-08
-3.81721e-09
-6.76829e-08
-3.92441e-09
-6.59597e-08
-4.02551e-09
-6.41959e-08
-4.12027e-09
-6.23945e-08
-4.20846e-09
-6.05583e-08
-4.28983e-09
-5.86904e-08
-4.36417e-09
-5.67938e-08
-4.43124e-09
-5.48718e-08
-4.49083e-09
-5.29276e-08
-4.54272e-09
-5.09645e-08
-4.58672e-09
-4.89862e-08
-4.62261e-09
-4.6996e-08
-4.65022e-09
-4.49976e-08
-4.66934e-09
-4.29947e-08
-4.67982e-09
-4.0991e-08
-4.68148e-09
-3.89903e-08
-4.67417e-09
-3.69966e-08
-4.65774e-09
-3.50138e-08
-4.63206e-09
-3.30457e-08
-4.59702e-09
-3.10965e-08
-4.5525e-09
-2.91702e-08
-4.49841e-09
-2.72708e-08
-4.43468e-09
-2.54026e-08
-4.36125e-09
-2.35695e-08
-4.27808e-09
-2.17757e-08
-4.18515e-09
-2.00253e-08
-4.08247e-09
-1.83224e-08
-3.97005e-09
-1.6671e-08
-3.84797e-09
-1.50753e-08
-3.71629e-09
-1.3539e-08
-3.57516e-09
-1.20661e-08
-3.42471e-09
-1.06603e-08
-3.26517e-09
-9.32534e-09
-3.09678e-09
-8.06468e-09
-2.91986e-09
-6.88165e-09
-2.7348e-09
-5.77936e-09
-2.54206e-09
-4.76066e-09
-2.3422e-09
-3.82812e-09
-2.13589e-09
-2.98391e-09
-1.92394e-09
-2.22981e-09
-1.70734e-09
-1.56705e-09
-1.48726e-09
-9.96266e-10
-1.26512e-09
-5.17355e-10
-1.04265e-09
-1.29337e-10
-8.21969e-10
1.69826e-10
-6.05638e-10
3.8343e-10
-3.96822e-10
5.16286e-10
-1.99419e-10
5.75002e-10
-1.82271e-11
5.68298e-10
1.40854e-10
5.07356e-10
2.70594e-10
4.06163e-10
3.62258e-10
2.81866e-10
4.05577e-10
1.55104e-10
3.89005e-10
5.05648e-11
3.00582e-10
1.29868e-10
4.75143e-11
-1.78359e-10
1.4025e-10
-3.88986e-10
2.42758e-10
-4.77801e-10
3.27652e-10
-4.65415e-10
3.7255e-10
-3.70099e-10
3.59098e-10
-2.08267e-10
2.72393e-10
5.80139e-12
1.00526e-10
2.6001e-10
-1.65775e-10
5.44272e-10
-5.3348e-10
8.50264e-10
-1.00758e-09
1.17116e-09
-1.59137e-09
1.50136e-09
-2.28673e-09
1.83631e-09
-3.0943e-09
2.17226e-09
-4.01374e-09
2.50616e-09
-5.04382e-09
2.83549e-09
-6.18262e-09
3.15822e-09
-7.42761e-09
3.47266e-09
-8.77577e-09
3.77743e-09
-1.02237e-08
4.07141e-09
-1.17675e-08
4.35369e-09
-1.34033e-08
4.62353e-09
-1.51266e-08
4.88035e-09
-1.69331e-08
5.12367e-09
-1.88181e-08
5.35314e-09
-2.07769e-08
5.56848e-09
-2.28046e-08
5.76949e-09
-2.48964e-08
5.95606e-09
-2.70473e-08
6.1281e-09
-2.92524e-08
6.28558e-09
-3.15067e-08
6.42853e-09
-3.38052e-08
6.55699e-09
-3.6143e-08
6.67105e-09
-3.85153e-08
6.77082e-09
-4.0917e-08
6.85644e-09
-4.33435e-08
6.92806e-09
-4.57898e-08
6.98587e-09
-4.82514e-08
7.03005e-09
-5.07235e-08
7.06081e-09
-5.32016e-08
7.07836e-09
-5.56811e-08
7.08295e-09
-5.81577e-08
7.0748e-09
-6.0627e-08
7.05417e-09
-6.30847e-08
7.02132e-09
-6.55267e-08
6.9765e-09
-6.79488e-08
6.91998e-09
-7.03472e-08
6.85205e-09
-7.27178e-08
6.77297e-09
-7.5057e-08
6.68303e-09
-7.7361e-08
6.58252e-09
-7.96262e-08
6.47173e-09
-8.18491e-08
6.35094e-09
-8.40264e-08
6.22046e-09
-8.61546e-08
6.08058e-09
-8.82308e-08
5.93161e-09
-9.02516e-08
5.77383e-09
-9.22143e-08
5.60757e-09
-9.41159e-08
5.43311e-09
-9.59537e-08
5.25078e-09
-9.77249e-08
5.06088e-09
-9.94272e-08
4.86372e-09
-1.01058e-07
4.65961e-09
-1.02615e-07
4.44887e-09
-1.04096e-07
4.23182e-09
-1.05499e-07
4.00878e-09
-1.06821e-07
3.78006e-09
-1.08062e-07
3.54598e-09
-1.09219e-07
3.30688e-09
-1.10291e-07
3.06308e-09
-1.11275e-07
2.81491e-09
-1.12172e-07
2.56269e-09
-1.12978e-07
2.30677e-09
-1.13694e-07
2.04749e-09
-1.14318e-07
1.78517e-09
-1.14849e-07
1.52016e-09
-1.15287e-07
1.25282e-09
-1.1563e-07
9.83474e-10
-1.15879e-07
7.12488e-10
-1.16032e-07
4.4021e-10
-1.16089e-07
1.66997e-10
-1.16051e-07
-1.0679e-10
-1.15916e-07
-3.80791e-10
-1.15686e-07
-6.54638e-10
-1.1536e-07
-9.27964e-10
-1.14939e-07
-1.2004e-09
-1.14423e-07
-1.47157e-09
-1.13813e-07
-1.74109e-09
-1.13109e-07
-2.0086e-09
-1.12312e-07
-2.2737e-09
-1.11424e-07
-2.53601e-09
-1.10445e-07
-2.79515e-09
-1.09376e-07
-3.05073e-09
-1.0822e-07
-3.30237e-09
-1.06977e-07
-3.54966e-09
-1.05649e-07
-3.79222e-09
-1.04238e-07
-4.02965e-09
-1.02746e-07
-4.26157e-09
-1.01176e-07
-4.48757e-09
-9.95282e-08
-4.70727e-09
-9.78063e-08
-4.92028e-09
-9.60124e-08
-5.12621e-09
-9.41493e-08
-5.32465e-09
-9.22195e-08
-5.51524e-09
-9.02261e-08
-5.69758e-09
-8.8172e-08
-5.8713e-09
-8.60604e-08
-6.03601e-09
-8.38946e-08
-6.19134e-09
-8.16779e-08
-6.33694e-09
-7.94139e-08
-6.47242e-09
-7.71063e-08
-6.59745e-09
-7.47588e-08
-6.71166e-09
-7.23753e-08
-6.81472e-09
-6.99599e-08
-6.9063e-09
-6.75165e-08
-6.98608e-09
-6.50495e-08
-7.05373e-09
-6.25632e-08
-7.10897e-09
-6.00619e-08
-7.15149e-09
-5.75502e-08
-7.18103e-09
-5.50327e-08
-7.19732e-09
-5.25141e-08
-7.20011e-09
-4.99991e-08
-7.18917e-09
-4.74925e-08
-7.16428e-09
-4.49993e-08
-7.12526e-09
-4.25244e-08
-7.07192e-09
-4.00728e-08
-7.00412e-09
-3.76495e-08
-6.92171e-09
-3.52596e-08
-6.8246e-09
-3.29081e-08
-6.71271e-09
-3.06002e-08
-6.58599e-09
-2.83409e-08
-6.44442e-09
-2.61354e-08
-6.28803e-09
-2.39886e-08
-6.11688e-09
-2.19055e-08
-5.93106e-09
-1.9891e-08
-5.73074e-09
-1.795e-08
-5.51612e-09
-1.60873e-08
-5.28748e-09
-1.43073e-08
-5.04514e-09
-1.26146e-08
-4.78954e-09
-1.10132e-08
-4.52118e-09
-9.50735e-09
-4.24069e-09
-8.10061e-09
-3.9488e-09
-6.79639e-09
-3.64642e-09
-5.59769e-09
-3.33459e-09
-4.50702e-09
-3.01461e-09
-3.52639e-09
-2.68798e-09
-2.65713e-09
-2.35652e-09
-1.89985e-09
-2.0224e-09
-1.25425e-09
-1.68825e-09
-7.19019e-10
-1.3572e-09
-2.91598e-10
-1.03306e-09
3.19871e-11
-7.20412e-10
2.57401e-10
-4.24834e-10
3.92251e-10
-1.53064e-10
4.46366e-10
8.67536e-11
4.32119e-10
2.84844e-10
3.64773e-10
4.29602e-10
2.62865e-10
5.07485e-10
1.48716e-10
5.03147e-10
4.94372e-11
3.99855e-10
1.79318e-10
4.04051e-11
-2.1877e-10
1.14239e-10
-4.6282e-10
1.85752e-10
-5.49311e-10
2.2678e-10
-5.06449e-10
2.14283e-10
-3.5761e-10
1.29305e-10
-1.23288e-10
-4.36615e-11
1.78776e-10
-3.17127e-10
5.3348e-10
-7.00953e-10
9.28096e-10
-1.20267e-09
1.35197e-09
-1.82775e-09
1.79624e-09
-2.57991e-09
2.25352e-09
-3.4613e-09
2.7177e-09
-4.47277e-09
3.18373e-09
-5.61402e-09
3.6474e-09
-6.88378e-09
4.10526e-09
-8.27998e-09
4.55442e-09
-9.79982e-09
4.9925e-09
-1.14399e-08
5.41755e-09
-1.31965e-08
5.82794e-09
-1.50651e-08
6.22235e-09
-1.70413e-08
6.5997e-09
-1.91201e-08
6.95911e-09
-2.12963e-08
7.29987e-09
-2.35646e-08
7.62145e-09
-2.59195e-08
7.9234e-09
-2.83554e-08
8.20542e-09
-3.08667e-08
8.4673e-09
-3.34475e-08
8.70888e-09
-3.6092e-08
8.93011e-09
-3.87945e-08
9.13098e-09
-4.1549e-08
9.31154e-09
-4.43498e-08
9.47189e-09
-4.71912e-08
9.61215e-09
-5.00672e-08
9.73251e-09
-5.29723e-08
9.83317e-09
-5.59008e-08
9.91436e-09
-5.88471e-08
9.97634e-09
-6.18057e-08
1.00194e-08
-6.47711e-08
1.00438e-08
-6.77381e-08
1.00499e-08
-7.07012e-08
1.0038e-08
-7.36555e-08
1.00084e-08
-7.65957e-08
9.96157e-09
-7.9517e-08
9.89779e-09
-8.24145e-08
9.81746e-09
-8.52834e-08
9.72096e-09
-8.81191e-08
9.60867e-09
-9.09171e-08
9.48099e-09
-9.36729e-08
9.33833e-09
-9.63822e-08
9.18109e-09
-9.9041e-08
9.00969e-09
-1.01645e-07
8.82453e-09
-1.04191e-07
8.62604e-09
-1.06674e-07
8.41465e-09
-1.0909e-07
8.19077e-09
-1.11438e-07
7.95484e-09
-1.13712e-07
7.70729e-09
-1.1591e-07
7.44856e-09
-1.18028e-07
7.17909e-09
-1.20064e-07
6.89931e-09
-1.22014e-07
6.60968e-09
-1.23875e-07
6.31063e-09
-1.25646e-07
6.00262e-09
-1.27323e-07
5.68611e-09
-1.28905e-07
5.36154e-09
-1.30388e-07
5.02937e-09
-1.31772e-07
4.69007e-09
-1.33053e-07
4.3441e-09
-1.3423e-07
3.99193e-09
-1.35301e-07
3.63404e-09
-1.36265e-07
3.27088e-09
-1.37121e-07
2.90296e-09
-1.37866e-07
2.53074e-09
-1.38501e-07
2.15472e-09
-1.39023e-07
1.77538e-09
-1.39433e-07
1.39322e-09
-1.39729e-07
1.00874e-09
-1.39911e-07
6.22437e-10
-1.39979e-07
2.34823e-10
-1.39932e-07
-1.53593e-10
-1.39771e-07
-5.42296e-10
-1.39495e-07
-9.30767e-10
-1.39104e-07
-1.31848e-09
-1.386e-07
-1.70492e-09
-1.37982e-07
-2.08954e-09
-1.37251e-07
-2.47181e-09
-1.36409e-07
-2.8512e-09
-1.35455e-07
-3.22716e-09
-1.34392e-07
-3.59915e-09
-1.3322e-07
-3.96662e-09
-1.31942e-07
-4.32902e-09
-1.30559e-07
-4.68581e-09
-1.29072e-07
-5.03642e-09
-1.27484e-07
-5.3803e-09
-1.25797e-07
-5.7169e-09
-1.24013e-07
-6.04566e-09
-1.22134e-07
-6.36603e-09
-1.20164e-07
-6.67745e-09
-1.18105e-07
-6.97936e-09
-1.1596e-07
-7.27122e-09
-1.13732e-07
-7.55247e-09
-1.11425e-07
-7.82257e-09
-1.09041e-07
-8.08097e-09
-1.06585e-07
-8.32715e-09
-1.04061e-07
-8.56056e-09
-1.01472e-07
-8.78069e-09
-9.88214e-08
-8.98701e-09
-9.61148e-08
-9.17902e-09
-9.33561e-08
-9.35621e-09
-9.05496e-08
-9.5181e-09
-8.77002e-08
-9.6642e-09
-8.48124e-08
-9.79406e-09
-8.18912e-08
-9.90723e-09
-7.89417e-08
-1.00032e-08
-7.5969e-08
-1.00817e-08
-7.29782e-08
-1.01422e-08
-6.99749e-08
-1.01844e-08
-6.69644e-08
-1.02078e-08
-6.39523e-08
-1.02122e-08
-6.09442e-08
-1.01973e-08
-5.79459e-08
-1.01626e-08
-5.49631e-08
-1.0108e-08
-5.20017e-08
-1.00333e-08
-4.90676e-08
-9.93819e-09
-4.61668e-08
-9.82253e-09
-4.33052e-08
-9.6862e-09
-4.04888e-08
-9.52909e-09
-3.77237e-08
-9.35117e-09
-3.50157e-08
-9.15241e-09
-3.23708e-08
-8.93289e-09
-2.9795e-08
-8.6927e-09
-2.7294e-08
-8.43201e-09
-2.48737e-08
-8.15108e-09
-2.25396e-08
-7.85021e-09
-2.02972e-08
-7.52983e-09
-1.81519e-08
-7.19044e-09
-1.61088e-08
-6.83268e-09
-1.41727e-08
-6.4573e-09
-1.23482e-08
-6.0652e-09
-1.06395e-08
-5.65749e-09
-9.05043e-09
-5.23546e-09
-7.58439e-09
-4.80063e-09
-6.24416e-09
-4.35484e-09
-5.03192e-09
-3.90022e-09
-3.94909e-09
-3.43934e-09
-2.99625e-09
-2.97524e-09
-2.17296e-09
-2.51154e-09
-1.47764e-09
-2.05252e-09
-9.07342e-10
-1.60334e-09
-4.57629e-10
-1.17013e-09
-1.22264e-10
-7.60206e-10
1.06994e-10
-3.82326e-10
2.40642e-10
-4.6902e-11
2.91739e-10
2.33741e-10
2.76243e-10
4.45105e-10
2.13414e-10
5.70331e-10
1.26422e-10
5.90147e-10
4.34115e-11
4.82866e-10
2.22733e-10
2.99517e-11
-2.48718e-10
7.65776e-11
-5.09438e-10
1.05584e-10
-5.78324e-10
8.92515e-11
-4.90124e-10
4.67155e-12
-2.73028e-10
-1.67128e-10
4.85192e-11
-4.41763e-10
4.53414e-10
-8.31918e-10
9.23633e-10
-1.34768e-09
1.44386e-09
-1.99684e-09
2.00113e-09
-2.78511e-09
2.58451e-09
-3.71642e-09
3.18483e-09
-4.7931e-09
3.79437e-09
-6.01606e-09
4.40669e-09
-7.38503e-09
5.01637e-09
-8.89868e-09
5.6189e-09
-1.05548e-08
6.2105e-09
-1.23503e-08
6.78802e-09
-1.42816e-08
7.34882e-09
-1.63443e-08
7.89073e-09
-1.85339e-08
8.41193e-09
-2.08452e-08
8.91095e-09
-2.32726e-08
9.38656e-09
-2.58105e-08
9.83778e-09
-2.84529e-08
1.02638e-08
-3.11936e-08
1.06641e-08
-3.40263e-08
1.10381e-08
-3.69446e-08
1.13856e-08
-3.99419e-08
1.17062e-08
-4.30117e-08
1.19999e-08
-4.61474e-08
1.22667e-08
-4.93424e-08
1.25065e-08
-5.259e-08
1.27195e-08
-5.58836e-08
1.29058e-08
-5.92167e-08
1.30656e-08
-6.25827e-08
1.31992e-08
-6.59752e-08
1.33069e-08
-6.93878e-08
1.33889e-08
-7.28141e-08
1.34457e-08
-7.6248e-08
1.34777e-08
-7.96833e-08
1.34851e-08
-8.31139e-08
1.34686e-08
-8.65339e-08
1.34284e-08
-8.99374e-08
1.33651e-08
-9.33188e-08
1.32792e-08
-9.66725e-08
1.31711e-08
-9.99929e-08
1.30414e-08
-1.03275e-07
1.28905e-08
-1.06513e-07
1.27191e-08
-1.09702e-07
1.25275e-08
-1.12837e-07
1.23164e-08
-1.15914e-07
1.20864e-08
-1.18927e-07
1.18378e-08
-1.21873e-07
1.15715e-08
-1.24746e-07
1.12878e-08
-1.27543e-07
1.09873e-08
-1.30258e-07
1.06707e-08
-1.3289e-07
1.03386e-08
-1.35432e-07
9.99137e-09
-1.37883e-07
9.62977e-09
-1.40238e-07
9.25434e-09
-1.42494e-07
8.86569e-09
-1.44648e-07
8.46441e-09
-1.46696e-07
8.05111e-09
-1.48637e-07
7.62639e-09
-1.50466e-07
7.19086e-09
-1.52182e-07
6.74515e-09
-1.53782e-07
6.28987e-09
-1.55263e-07
5.82564e-09
-1.56624e-07
5.3531e-09
-1.57863e-07
4.87289e-09
-1.58978e-07
4.38563e-09
-1.59967e-07
3.89197e-09
-1.60829e-07
3.39256e-09
-1.61562e-07
2.88806e-09
-1.62166e-07
2.37913e-09
-1.62639e-07
1.86642e-09
-1.62981e-07
1.35061e-09
-1.63191e-07
8.32376e-10
-1.63268e-07
3.12398e-10
-1.63213e-07
-2.08639e-10
-1.63026e-07
-7.30042e-10
-1.62705e-07
-1.25111e-09
-1.62253e-07
-1.77115e-09
-1.61668e-07
-2.28945e-09
-1.60952e-07
-2.8053e-09
-1.60106e-07
-3.31798e-09
-1.59131e-07
-3.82676e-09
-1.58027e-07
-4.33093e-09
-1.56796e-07
-4.82975e-09
-1.5544e-07
-5.32249e-09
-1.53961e-07
-5.80842e-09
-1.5236e-07
-6.28678e-09
-1.5064e-07
-6.75685e-09
-1.48802e-07
-7.21789e-09
-1.4685e-07
-7.66913e-09
-1.44786e-07
-8.10985e-09
-1.42612e-07
-8.5393e-09
-1.40333e-07
-8.95674e-09
-1.37951e-07
-9.36142e-09
-1.3547e-07
-9.75262e-09
-1.32892e-07
-1.01296e-08
-1.30223e-07
-1.04916e-08
-1.27466e-07
-1.08379e-08
-1.24626e-07
-1.11679e-08
-1.21705e-07
-1.14807e-08
-1.1871e-07
-1.17758e-08
-1.15645e-07
-1.20523e-08
-1.12514e-07
-1.23097e-08
-1.09323e-07
-1.25473e-08
-1.06077e-07
-1.27644e-08
-1.02781e-07
-1.29603e-08
-9.94404e-08
-1.31345e-08
-9.60612e-08
-1.32864e-08
-9.26491e-08
-1.34154e-08
-8.92098e-08
-1.35209e-08
-8.57496e-08
-1.36025e-08
-8.22745e-08
-1.36595e-08
-7.87908e-08
-1.36915e-08
-7.53049e-08
-1.36981e-08
-7.18232e-08
-1.36789e-08
-6.83523e-08
-1.36335e-08
-6.48989e-08
-1.35615e-08
-6.14697e-08
-1.34626e-08
-5.80713e-08
-1.33366e-08
-5.47106e-08
-1.31832e-08
-5.13944e-08
-1.30024e-08
-4.81296e-08
-1.27939e-08
-4.49229e-08
-1.25578e-08
-4.17812e-08
-1.22941e-08
-3.87112e-08
-1.20029e-08
-3.57196e-08
-1.16843e-08
-3.28131e-08
-1.13385e-08
-2.99981e-08
-1.09661e-08
-2.7281e-08
-1.05673e-08
-2.46679e-08
-1.01429e-08
-2.21649e-08
-9.69347e-09
-1.97776e-08
-9.21995e-09
-1.75115e-08
-8.72339e-09
-1.53717e-08
-8.20503e-09
-1.33628e-08
-7.66637e-09
-1.14891e-08
-7.10917e-09
-9.75424e-09
-6.53549e-09
-8.16129e-09
-5.94779e-09
-6.71257e-09
-5.34893e-09
-5.40962e-09
-4.7423e-09
-4.25299e-09
-4.13187e-09
-3.24218e-09
-3.52235e-09
-2.37544e-09
-2.91926e-09
-1.6496e-09
-2.32917e-09
-1.05993e-09
-1.75979e-09
-5.99873e-10
-1.22026e-09
-2.60875e-10
-7.21324e-10
-3.21163e-11
-2.75662e-10
9.97271e-11
1.01883e-10
1.5084e-10
3.93994e-10
1.40632e-10
5.80546e-10
9.23509e-11
6.38435e-10
3.39752e-11
5.4125e-10
2.56706e-10
1.72412e-11
-2.6596e-10
3.05747e-11
-5.2278e-10
8.25218e-12
-5.56006e-10
-7.61051e-11
-4.05762e-10
-2.44601e-10
-1.04524e-10
-5.15701e-10
3.19623e-10
-9.04706e-10
8.42416e-10
-1.42412e-09
1.44304e-09
-2.08396e-09
2.10369e-09
-2.89199e-09
2.80916e-09
-3.85397e-09
3.54649e-09
-4.97386e-09
4.30471e-09
-6.25399e-09
5.0745e-09
-7.69529e-09
5.84798e-09
-9.29741e-09
6.6185e-09
-1.10589e-08
7.38042e-09
-1.29774e-08
8.12901e-09
-1.50497e-08
8.86028e-09
-1.72718e-08
9.57087e-09
-1.9639e-08
1.0258e-08
-2.21464e-08
1.09193e-08
-2.47883e-08
1.15528e-08
-2.75587e-08
1.2157e-08
-3.04514e-08
1.27305e-08
-3.34599e-08
1.32723e-08
-3.65773e-08
1.37815e-08
-3.97967e-08
1.42575e-08
-4.3111e-08
1.46999e-08
-4.6513e-08
1.51082e-08
-4.99955e-08
1.54824e-08
-5.3551e-08
1.58222e-08
-5.71723e-08
1.61278e-08
-6.08519e-08
1.63991e-08
-6.45826e-08
1.66365e-08
-6.8357e-08
1.684e-08
-7.21678e-08
1.701e-08
-7.60078e-08
1.71469e-08
-7.98698e-08
1.7251e-08
-8.37468e-08
1.73227e-08
-8.76318e-08
1.73626e-08
-9.15179e-08
1.73712e-08
-9.53983e-08
1.7349e-08
-9.92663e-08
1.72964e-08
-1.03115e-07
1.72143e-08
-1.06939e-07
1.7103e-08
-1.10731e-07
1.69633e-08
-1.14486e-07
1.67958e-08
-1.18196e-07
1.66011e-08
-1.21857e-07