/*--------------------------------*- C++ -*----------------------------------*\
  =========                 |
  \\      /  F ield         | OpenFOAM: The Open Source CFD Toolbox
   \\    /   O peration     | Website:  https://openfoam.org
    \\  /    A nd           | Version:  7
     \\/     M anipulation  |
\*---------------------------------------------------------------------------*/
FoamFile
{
    version     2.0;
    format      ascii;
    class       volVectorField;
    location    "0.4125";
    object      U;
}
// * * * * * * * * * * * * * * * * * * * * * * * * * * * * * * * * * * * * * //

dimensions      [0 1 -1 0 0 0 0];

internalField   nonuniform List<vector> 
25600
(
(1.91378e-07 -1.9289e-07 0)
(2.85906e-06 -1.78787e-06 0)
(9.08677e-06 -2.83137e-06 0)
(1.69347e-05 -3.20545e-06 0)
(2.48926e-05 -3.12245e-06 0)
(3.2009e-05 -2.74599e-06 0)
(3.76308e-05 -2.18143e-06 0)
(4.13088e-05 -1.50088e-06 0)
(4.27423e-05 -7.51414e-07 0)
(4.17387e-05 3.73785e-08 0)
(3.81806e-05 8.45029e-07 0)
(3.20051e-05 1.6569e-06 0)
(2.31901e-05 2.46305e-06 0)
(1.17453e-05 3.25638e-06 0)
(-2.29577e-06 4.03152e-06 0)
(-1.88821e-05 4.78442e-06 0)
(-3.79485e-05 5.51216e-06 0)
(-5.94187e-05 6.21257e-06 0)
(-8.32078e-05 6.88399e-06 0)
(-0.000109225 7.5252e-06 0)
(-0.000137373 8.13533e-06 0)
(-0.000167552 8.71384e-06 0)
(-0.000199658 9.26032e-06 0)
(-0.000233587 9.77453e-06 0)
(-0.000269232 1.02564e-05 0)
(-0.000306485 1.07059e-05 0)
(-0.000345238 1.11234e-05 0)
(-0.000385383 1.15089e-05 0)
(-0.000426811 1.18627e-05 0)
(-0.000469416 1.21852e-05 0)
(-0.000513091 1.24768e-05 0)
(-0.000557731 1.27379e-05 0)
(-0.00060323 1.2969e-05 0)
(-0.000649486 1.31704e-05 0)
(-0.000696397 1.33426e-05 0)
(-0.000743863 1.34863e-05 0)
(-0.000791784 1.36019e-05 0)
(-0.000840064 1.36901e-05 0)
(-0.000888608 1.37512e-05 0)
(-0.000937322 1.3786e-05 0)
(-0.000986115 1.3795e-05 0)
(-0.0010349 1.37787e-05 0)
(-0.00108358 1.37377e-05 0)
(-0.00113207 1.36727e-05 0)
(-0.0011803 1.35842e-05 0)
(-0.00122818 1.34728e-05 0)
(-0.00127562 1.33392e-05 0)
(-0.00132256 1.31838e-05 0)
(-0.00136891 1.30074e-05 0)
(-0.0014146 1.28104e-05 0)
(-0.00145957 1.25936e-05 0)
(-0.00150373 1.23574e-05 0)
(-0.00154703 1.21025e-05 0)
(-0.00158939 1.18295e-05 0)
(-0.00163076 1.15389e-05 0)
(-0.00167107 1.12315e-05 0)
(-0.00171026 1.09078e-05 0)
(-0.00174828 1.05683e-05 0)
(-0.00178507 1.02137e-05 0)
(-0.00182058 9.84455e-06 0)
(-0.00185476 9.46147e-06 0)
(-0.00188756 9.06505e-06 0)
(-0.00191893 8.65589e-06 0)
(-0.00194883 8.23462e-06 0)
(-0.00197721 7.80184e-06 0)
(-0.00200405 7.35817e-06 0)
(-0.00202929 6.90419e-06 0)
(-0.00205291 6.44051e-06 0)
(-0.00207486 5.96776e-06 0)
(-0.00209513 5.48655e-06 0)
(-0.00211367 4.99751e-06 0)
(-0.00213047 4.50128e-06 0)
(-0.0021455 3.99848e-06 0)
(-0.00215874 3.48978e-06 0)
(-0.00217016 2.9758e-06 0)
(-0.00217975 2.4572e-06 0)
(-0.0021875 1.93463e-06 0)
(-0.00219339 1.40875e-06 0)
(-0.00219741 8.80222e-07 0)
(-0.00219955 3.49735e-07 0)
(-0.00219982 -1.82032e-07 0)
(-0.0021982 -7.14387e-07 0)
(-0.00219469 -1.24663e-06 0)
(-0.0021893 -1.77806e-06 0)
(-0.00218203 -2.30796e-06 0)
(-0.00217288 -2.83563e-06 0)
(-0.00216188 -3.36035e-06 0)
(-0.00214902 -3.88139e-06 0)
(-0.00213433 -4.39803e-06 0)
(-0.00211782 -4.9095e-06 0)
(-0.00209951 -5.41506e-06 0)
(-0.00207942 -5.91394e-06 0)
(-0.00205759 -6.40539e-06 0)
(-0.00203403 -6.88864e-06 0)
(-0.00200878 -7.36295e-06 0)
(-0.00198187 -7.82754e-06 0)
(-0.00195333 -8.28164e-06 0)
(-0.00192322 -8.72448e-06 0)
(-0.00189156 -9.15526e-06 0)
(-0.0018584 -9.57322e-06 0)
(-0.00182379 -9.97756e-06 0)
(-0.00178779 -1.03675e-05 0)
(-0.00175043 -1.07423e-05 0)
(-0.00171178 -1.11011e-05 0)
(-0.0016719 -1.14433e-05 0)
(-0.00163084 -1.1768e-05 0)
(-0.00158867 -1.20745e-05 0)
(-0.00154545 -1.2362e-05 0)
(-0.00150126 -1.26298e-05 0)
(-0.00145617 -1.2877e-05 0)
(-0.00141024 -1.31031e-05 0)
(-0.00136355 -1.33073e-05 0)
(-0.00131619 -1.34889e-05 0)
(-0.00126823 -1.36472e-05 0)
(-0.00121975 -1.37815e-05 0)
(-0.00117085 -1.38912e-05 0)
(-0.00112161 -1.39756e-05 0)
(-0.00107212 -1.40341e-05 0)
(-0.00102247 -1.40661e-05 0)
(-0.000972759 -1.40711e-05 0)
(-0.000923077 -1.40484e-05 0)
(-0.000873524 -1.39976e-05 0)
(-0.0008242 -1.39181e-05 0)
(-0.000775204 -1.38095e-05 0)
(-0.00072664 -1.36713e-05 0)
(-0.00067861 -1.35031e-05 0)
(-0.00063122 -1.33046e-05 0)
(-0.000584575 -1.30754e-05 0)
(-0.000538782 -1.28151e-05 0)
(-0.000493948 -1.25236e-05 0)
(-0.000450181 -1.22006e-05 0)
(-0.000407589 -1.1846e-05 0)
(-0.000366281 -1.14596e-05 0)
(-0.000326364 -1.10415e-05 0)
(-0.000287945 -1.05917e-05 0)
(-0.000251133 -1.01103e-05 0)
(-0.000216031 -9.59739e-06 0)
(-0.000182745 -9.05343e-06 0)
(-0.000151375 -8.47884e-06 0)
(-0.000122022 -7.87418e-06 0)
(-9.47813e-05 -7.24021e-06 0)
(-6.97438e-05 -6.57801e-06 0)
(-4.69964e-05 -5.88888e-06 0)
(-2.66196e-05 -5.17427e-06 0)
(-8.68551e-06 -4.43618e-06 0)
(6.74382e-06 -3.67743e-06 0)
(1.96182e-05 -2.90158e-06 0)
(2.99029e-05 -2.1129e-06 0)
(3.75824e-05 -1.31699e-06 0)
(4.26659e-05 -5.21637e-07 0)
(4.51945e-05 2.62562e-07 0)
(4.52513e-05 1.02116e-06 0)
(4.29753e-05 1.73328e-06 0)
(3.8581e-05 2.36803e-06 0)
(3.23886e-05 2.87946e-06 0)
(2.4866e-05 3.19758e-06 0)
(1.66789e-05 3.21676e-06 0)
(8.77933e-06 2.78025e-06 0)
(2.64288e-06 1.69689e-06 0)
(1.21913e-07 1.22706e-07 0)
(1.78369e-06 -2.85492e-06 0)
(9.3948e-06 -9.40062e-06 0)
(2.31495e-05 -1.34131e-05 0)
(3.93887e-05 -1.47262e-05 0)
(5.52703e-05 -1.3964e-05 0)
(6.88015e-05 -1.16984e-05 0)
(7.84439e-05 -8.36851e-06 0)
(8.30381e-05 -4.30513e-06 0)
(8.17523e-05 2.51105e-07 0)
(7.40093e-05 5.12642e-06 0)
(5.9425e-05 1.01917e-05 0)
(3.77661e-05 1.53501e-05 0)
(8.91689e-06 2.05297e-05 0)
(-2.7146e-05 2.56756e-05 0)
(-7.03746e-05 3.0745e-05 0)
(-0.000120664 3.57049e-05 0)
(-0.000177864 4.05297e-05 0)
(-0.000241789 4.51992e-05 0)
(-0.000312225 4.96978e-05 0)
(-0.000388935 5.40131e-05 0)
(-0.000471664 5.81359e-05 0)
(-0.000560142 6.20591e-05 0)
(-0.000654091 6.57772e-05 0)
(-0.000753222 6.92864e-05 0)
(-0.000857241 7.25842e-05 0)
(-0.000965849 7.56689e-05 0)
(-0.00107874 7.85399e-05 0)
(-0.00119562 8.11971e-05 0)
(-0.00131619 8.36413e-05 0)
(-0.00144012 8.58737e-05 0)
(-0.00156714 8.78957e-05 0)
(-0.00169692 8.97095e-05 0)
(-0.00182919 9.13171e-05 0)
(-0.00196363 9.27212e-05 0)
(-0.00209997 9.39246e-05 0)
(-0.00223791 9.49303e-05 0)
(-0.00237717 9.57415e-05 0)
(-0.00251747 9.63616e-05 0)
(-0.00265853 9.67939e-05 0)
(-0.00280009 9.70421e-05 0)
(-0.00294188 9.71098e-05 0)
(-0.00308364 9.70007e-05 0)
(-0.00322512 9.67188e-05 0)
(-0.00336606 9.62678e-05 0)
(-0.00350623 9.56518e-05 0)
(-0.00364538 9.48747e-05 0)
(-0.00378329 9.39404e-05 0)
(-0.00391972 9.28532e-05 0)
(-0.00405446 9.16169e-05 0)
(-0.00418728 9.02358e-05 0)
(-0.004318 8.87139e-05 0)
(-0.00444639 8.70554e-05 0)
(-0.00457226 8.52644e-05 0)
(-0.00469543 8.3345e-05 0)
(-0.0048157 8.13015e-05 0)
(-0.0049329 7.91381e-05 0)
(-0.00504686 7.68589e-05 0)
(-0.00515741 7.44682e-05 0)
(-0.00526438 7.19701e-05 0)
(-0.00536763 6.93689e-05 0)
(-0.00546701 6.66688e-05 0)
(-0.00556237 6.38741e-05 0)
(-0.00565358 6.09891e-05 0)
(-0.00574051 5.80182e-05 0)
(-0.00582304 5.49655e-05 0)
(-0.00590105 5.18355e-05 0)
(-0.00597443 4.86325e-05 0)
(-0.00604307 4.53609e-05 0)
(-0.00610689 4.2025e-05 0)
(-0.00616579 3.86294e-05 0)
(-0.00621968 3.51785e-05 0)
(-0.00626849 3.16768e-05 0)
(-0.00631214 2.81289e-05 0)
(-0.00635058 2.45393e-05 0)
(-0.00638374 2.09126e-05 0)
(-0.00641158 1.72536e-05 0)
(-0.00643405 1.35668e-05 0)
(-0.00645111 9.85699e-06 0)
(-0.00646274 6.129e-06 0)
(-0.0064689 2.38762e-06 0)
(-0.00646959 -1.36228e-06 0)
(-0.0064648 -5.11578e-06 0)
(-0.00645453 -8.86793e-06 0)
(-0.00643878 -1.26137e-05 0)
(-0.00641756 -1.63481e-05 0)
(-0.0063909 -2.00661e-05 0)
(-0.00635882 -2.37624e-05 0)
(-0.00632136 -2.74321e-05 0)
(-0.00627857 -3.10697e-05 0)
(-0.00623049 -3.46702e-05 0)
(-0.00617719 -3.82281e-05 0)
(-0.00611873 -4.17382e-05 0)
(-0.00605518 -4.5195e-05 0)
(-0.00598662 -4.85934e-05 0)
(-0.00591316 -5.19278e-05 0)
(-0.00583488 -5.51929e-05 0)
(-0.00575189 -5.83832e-05 0)
(-0.0056643 -6.14933e-05 0)
(-0.00557224 -6.45178e-05 0)
(-0.00547584 -6.74512e-05 0)
(-0.00537523 -7.0288e-05 0)
(-0.00527055 -7.30228e-05 0)
(-0.00516197 -7.56503e-05 0)
(-0.00504964 -7.81651e-05 0)
(-0.00493374 -8.05618e-05 0)
(-0.00481443 -8.28351e-05 0)
(-0.0046919 -8.49799e-05 0)
(-0.00456635 -8.69908e-05 0)
(-0.00443797 -8.88627e-05 0)
(-0.00430697 -9.05905e-05 0)
(-0.00417356 -9.21693e-05 0)
(-0.00403797 -9.35942e-05 0)
(-0.00390042 -9.48605e-05 0)
(-0.00376115 -9.59634e-05 0)
(-0.0036204 -9.68984e-05 0)
(-0.00347841 -9.7661e-05 0)
(-0.00333544 -9.82469e-05 0)
(-0.00319175 -9.86521e-05 0)
(-0.0030476 -9.88725e-05 0)
(-0.00290327 -9.89044e-05 0)
(-0.00275903 -9.87441e-05 0)
(-0.00261517 -9.83882e-05 0)
(-0.00247196 -9.78337e-05 0)
(-0.0023297 -9.70774e-05 0)
(-0.00218869 -9.61168e-05 0)
(-0.00204921 -9.49495e-05 0)
(-0.00191157 -9.35732e-05 0)
(-0.00177607 -9.19861e-05 0)
(-0.00164302 -9.01867e-05 0)
(-0.00151272 -8.8174e-05 0)
(-0.00138548 -8.59472e-05 0)
(-0.00126161 -8.35061e-05 0)
(-0.0011414 -8.08509e-05 0)
(-0.00102518 -7.79824e-05 0)
(-0.000913228 -7.49021e-05 0)
(-0.000805857 -7.1612e-05 0)
(-0.000703356 -6.8115e-05 0)
(-0.000606015 -6.44151e-05 0)
(-0.000514114 -6.05174e-05 0)
(-0.000427924 -5.64278e-05 0)
(-0.000347704 -5.21543e-05 0)
(-0.000273698 -4.77065e-05 0)
(-0.000206135 -4.30968e-05 0)
(-0.000145219 -3.83396e-05 0)
(-9.11316e-05 -3.34529e-05 0)
(-4.40201e-05 -2.84594e-05 0)
(-3.9932e-06 -2.33875e-05 0)
(2.88885e-05 -1.82726e-05 0)
(5.46232e-05 -1.31591e-05 0)
(7.32836e-05 -8.10444e-06 0)
(8.50362e-05 -3.18257e-06 0)
(9.01658e-05 1.50973e-06 0)
(8.91074e-05 5.84319e-06 0)
(8.24901e-05 9.64358e-06 0)
(7.11917e-05 1.26745e-05 0)
(5.64035e-05 1.46157e-05 0)
(3.96838e-05 1.50429e-05 0)
(2.30178e-05 1.3418e-05 0)
(9.18286e-06 9.18562e-06 0)
(1.69518e-06 2.64254e-06 0)
(2.82676e-06 -9.08048e-06 0)
(1.34141e-05 -2.31546e-05 0)
(3.10812e-05 -3.10666e-05 0)
(5.08545e-05 -3.31358e-05 0)
(6.91339e-05 -3.04611e-05 0)
(8.33621e-05 -2.41347e-05 0)
(9.14551e-05 -1.5086e-05 0)
(9.17701e-05 -4.06046e-06 0)
(8.30758e-05 8.36246e-06 0)
(6.44772e-05 2.1735e-05 0)
(3.53512e-05 3.57117e-05 0)
(-4.70374e-06 5.00259e-05 0)
(-5.59108e-05 6.44707e-05 0)
(-0.000118351 7.88838e-05 0)
(-0.000191989 9.31375e-05 0)
(-0.000276698 0.000107131 0)
(-0.000372274 0.000120784 0)
(-0.000478455 0.000134033 0)
(-0.000594927 0.000146827 0)
(-0.000721339 0.000159127 0)
(-0.000857304 0.0001709 0)
(-0.00100241 0.000182123 0)
(-0.00115624 0.000192777 0)
(-0.00131833 0.000202846 0)
(-0.00148822 0.000212321 0)
(-0.00166546 0.000221195 0)
(-0.00184957 0.000229464 0)
(-0.00204006 0.000237125 0)
(-0.00223646 0.000244178 0)
(-0.00243828 0.000250626 0)
(-0.00264505 0.000256472 0)
(-0.00285628 0.00026172 0)
(-0.0030715 0.000266375 0)
(-0.00329023 0.000270443 0)
(-0.00351201 0.000273933 0)
(-0.00373637 0.000276852 0)
(-0.00396287 0.000279207 0)
(-0.00419104 0.00028101 0)
(-0.00442044 0.000282268 0)
(-0.00465065 0.000282992 0)
(-0.00488122 0.000283191 0)
(-0.00511174 0.000282877 0)
(-0.0053418 0.00028206 0)
(-0.005571 0.000280751 0)
(-0.00579893 0.000278961 0)
(-0.00602521 0.000276702 0)
(-0.00624947 0.000273985 0)
(-0.00647134 0.000270821 0)
(-0.00669046 0.000267222 0)
(-0.00690648 0.0002632 0)
(-0.00711905 0.000258767 0)
(-0.00732786 0.000253935 0)
(-0.00753257 0.000248716 0)
(-0.00773288 0.000243122 0)
(-0.00792849 0.000237164 0)
(-0.0081191 0.000230856 0)
(-0.00830444 0.000224209 0)
(-0.00848423 0.000217236 0)
(-0.00865822 0.000209949 0)
(-0.00882614 0.00020236 0)
(-0.00898776 0.000194482 0)
(-0.00914285 0.000186327 0)
(-0.00929118 0.000177908 0)
(-0.00943256 0.000169237 0)
(-0.00956677 0.000160328 0)
(-0.00969362 0.000151192 0)
(-0.00981294 0.000141843 0)
(-0.00992456 0.000132293 0)
(-0.0100283 0.000122555 0)
(-0.0101241 0.000112643 0)
(-0.0102117 0.00010257 0)
(-0.010291 9.23478e-05 0)
(-0.010362 8.19911e-05 0)
(-0.0104244 7.1513e-05 0)
(-0.0104783 6.09269e-05 0)
(-0.0105235 5.02466e-05 0)
(-0.01056 3.94857e-05 0)
(-0.0105876 2.86583e-05 0)
(-0.0106064 1.77783e-05 0)
(-0.0106164 6.85982e-06 0)
(-0.0106174 -4.08284e-06 0)
(-0.0106096 -1.50353e-05 0)
(-0.0105927 -2.5983e-05 0)
(-0.010567 -3.69113e-05 0)
(-0.0105324 -4.78055e-05 0)
(-0.010489 -5.86506e-05 0)
(-0.0104367 -6.94318e-05 0)
(-0.0103757 -8.01339e-05 0)
(-0.010306 -9.07416e-05 0)
(-0.0102278 -0.00010124 0)
(-0.010141 -0.000111612 0)
(-0.0100458 -0.000121845 0)
(-0.00994241 -0.000131921 0)
(-0.00983086 -0.000141825 0)
(-0.00971133 -0.000151541 0)
(-0.00958398 -0.000161054 0)
(-0.00944897 -0.000170348 0)
(-0.00930651 -0.000179407 0)
(-0.00915677 -0.000188215 0)
(-0.00899999 -0.000196757 0)
(-0.00883637 -0.000205016 0)
(-0.00866616 -0.000212977 0)
(-0.00848961 -0.000220624 0)
(-0.00830698 -0.000227942 0)
(-0.00811854 -0.000234915 0)
(-0.00792458 -0.000241528 0)
(-0.0077254 -0.000247766 0)
(-0.00752132 -0.000253613 0)
(-0.00731265 -0.000259055 0)
(-0.00709973 -0.000264077 0)
(-0.00688291 -0.000268665 0)
(-0.00666255 -0.000272805 0)
(-0.00643902 -0.000276483 0)
(-0.00621269 -0.000279685 0)
(-0.00598396 -0.0002824 0)
(-0.00575323 -0.000284613 0)
(-0.00552091 -0.000286314 0)
(-0.00528742 -0.000287489 0)
(-0.00505318 -0.000288129 0)
(-0.00481865 -0.000288221 0)
(-0.00458426 -0.000287757 0)
(-0.00435046 -0.000286727 0)
(-0.00411772 -0.000285122 0)
(-0.00388651 -0.000282933 0)
(-0.00365729 -0.000280155 0)
(-0.00343055 -0.000276779 0)
(-0.00320676 -0.000272802 0)
(-0.00298642 -0.000268218 0)
(-0.00277 -0.000263023 0)
(-0.002558 -0.000257216 0)
(-0.00235091 -0.000250795 0)
(-0.00214921 -0.000243761 0)
(-0.0019534 -0.000236117 0)
(-0.00176396 -0.000227864 0)
(-0.00158136 -0.000219011 0)
(-0.00140608 -0.000209563 0)
(-0.00123858 -0.000199532 0)
(-0.0010793 -0.000188932 0)
(-0.0009287 -0.000177779 0)
(-0.000787182 -0.000166094 0)
(-0.000655147 -0.000153903 0)
(-0.00053297 -0.000141237 0)
(-0.000420991 -0.000128136 0)
(-0.000319514 -0.000114646 0)
(-0.0002288 -0.000100825 0)
(-0.000149054 -8.67414e-05 0)
(-8.04154e-05 -7.24828e-05 0)
(-2.29452e-05 -5.81558e-05 0)
(2.33925e-05 -4.38935e-05 0)
(5.87514e-05 -2.98623e-05 0)
(8.34309e-05 -1.62725e-05 0)
(9.79076e-05 -3.39183e-06 0)
(0.000102877 8.43678e-06 0)
(9.93051e-05 1.87724e-05 0)
(8.84864e-05 2.70471e-05 0)
(7.21079e-05 3.25405e-05 0)
(5.22736e-05 3.43709e-05 0)
(3.15325e-05 3.15205e-05 0)
(1.34189e-05 2.3019e-05 0)
(2.77737e-06 8.77319e-06 0)
(3.20808e-06 -1.69324e-05 0)
(1.4758e-05 -3.94135e-05 0)
(3.32234e-05 -5.08528e-05 0)
(5.27394e-05 -5.26166e-05 0)
(6.92019e-05 -4.6438e-05 0)
(7.96988e-05 -3.39912e-05 0)
(8.18169e-05 -1.67364e-05 0)
(7.36068e-05 4.11493e-06 0)
(5.35615e-05 2.75828e-05 0)
(2.05521e-05 5.28832e-05 0)
(-2.6232e-05 7.93945e-05 0)
(-8.73346e-05 0.000106623 0)
(-0.000163079 0.000134178 0)
(-0.000253607 0.000161744 0)
(-0.000358909 0.000189071 0)
(-0.000478851 0.000215959 0)
(-0.000613199 0.000242246 0)
(-0.000761633 0.000267801 0)
(-0.000923765 0.000292521 0)
(-0.00109915 0.000316321 0)
(-0.0012873 0.000339134 0)
(-0.00148768 0.000360907 0)
(-0.00169973 0.000381598 0)
(-0.00192287 0.000401176 0)
(-0.0021565 0.000419616 0)
(-0.0024 0.000436901 0)
(-0.00265274 0.00045302 0)
(-0.00291409 0.000467966 0)
(-0.0031834 0.000481737 0)
(-0.00346003 0.000494333 0)
(-0.00374333 0.000505758 0)
(-0.00403267 0.00051602 0)
(-0.00432739 0.000525128 0)
(-0.00462687 0.000533091 0)
(-0.00493047 0.000539924 0)
(-0.00523756 0.000545641 0)
(-0.00554753 0.000550256 0)
(-0.00585978 0.000553787 0)
(-0.00617368 0.000556251 0)
(-0.00648866 0.000557667 0)
(-0.00680414 0.000558054 0)
(-0.00711953 0.000557433 0)
(-0.00743428 0.000555822 0)
(-0.00774784 0.000553244 0)
(-0.00805967 0.00054972 0)
(-0.00836925 0.000545272 0)
(-0.00867605 0.000539923 0)
(-0.00897958 0.000533693 0)
(-0.00927934 0.000526607 0)
(-0.00957487 0.000518687 0)
(-0.00986568 0.000509956 0)
(-0.0101513 0.000500439 0)
(-0.0104314 0.000490157 0)
(-0.0107054 0.000479135 0)
(-0.0109731 0.000467397 0)
(-0.0112338 0.000454967 0)
(-0.0114874 0.000441868 0)
(-0.0117333 0.000428125 0)
(-0.0119714 0.000413762 0)
(-0.0122011 0.000398804 0)
(-0.0124222 0.000383275 0)
(-0.0126343 0.000367199 0)
(-0.0128372 0.000350602 0)
(-0.0130306 0.000333508 0)
(-0.0132142 0.000315942 0)
(-0.0133877 0.000297929 0)
(-0.0135509 0.000279496 0)
(-0.0137036 0.000260667 0)
(-0.0138455 0.000241467 0)
(-0.0139764 0.000221923 0)
(-0.0140962 0.000202061 0)
(-0.0142047 0.000181907 0)
(-0.0143017 0.000161487 0)
(-0.014387 0.000140828 0)
(-0.0144606 0.000119956 0)
(-0.0145224 9.88991e-05 0)
(-0.0145722 7.76841e-05 0)
(-0.0146099 5.63386e-05 0)
(-0.0146356 3.48902e-05 0)
(-0.0146491 1.33669e-05 0)
(-0.0146504 -8.20301e-06 0)
(-0.0146395 -2.97912e-05 0)
(-0.0146164 -5.13688e-05 0)
(-0.0145811 -7.29071e-05 0)
(-0.0145337 -9.43768e-05 0)
(-0.0144741 -0.000115749 0)
(-0.0144025 -0.000136993 0)
(-0.014319 -0.000158079 0)
(-0.0142235 -0.000178979 0)
(-0.0141164 -0.00019966 0)
(-0.0139976 -0.000220094 0)
(-0.0138673 -0.000240248 0)
(-0.0137258 -0.000260094 0)
(-0.0135731 -0.000279599 0)
(-0.0134095 -0.000298733 0)
(-0.0132352 -0.000317464 0)
(-0.0130505 -0.000335763 0)
(-0.0128556 -0.000353597 0)
(-0.0126508 -0.000370936 0)
(-0.0124363 -0.000387748 0)
(-0.0122125 -0.000404002 0)
(-0.0119797 -0.000419669 0)
(-0.0117382 -0.000434716 0)
(-0.0114884 -0.000449114 0)
(-0.0112307 -0.000462831 0)
(-0.0109654 -0.000475839 0)
(-0.0106931 -0.000488108 0)
(-0.010414 -0.000499607 0)
(-0.0101287 -0.000510308 0)
(-0.00983756 -0.000520183 0)
(-0.00954111 -0.000529204 0)
(-0.00923982 -0.000537343 0)
(-0.0089342 -0.000544574 0)
(-0.00862476 -0.000550871 0)
(-0.00831205 -0.000556207 0)
(-0.0079966 -0.00056056 0)
(-0.00767897 -0.000563906 0)
(-0.00735974 -0.000566221 0)
(-0.00703949 -0.000567484 0)
(-0.00671881 -0.000567676 0)
(-0.00639831 -0.000566776 0)
(-0.0060786 -0.000564767 0)
(-0.00576032 -0.000561632 0)
(-0.00544409 -0.000557357 0)
(-0.00513055 -0.000551928 0)
(-0.00482034 -0.000545333 0)
(-0.00451413 -0.000537562 0)
(-0.00421255 -0.000528608 0)
(-0.00391628 -0.000518465 0)
(-0.00362597 -0.00050713 0)
(-0.00334227 -0.000494603 0)
(-0.00306584 -0.000480886 0)
(-0.00279734 -0.000465984 0)
(-0.00253741 -0.000449909 0)
(-0.00228669 -0.000432672 0)
(-0.00204581 -0.000414291 0)
(-0.00181536 -0.000394791 0)
(-0.00159597 -0.000374202 0)
(-0.00138818 -0.000352558 0)
(-0.00119256 -0.000329907 0)
(-0.00100961 -0.000306301 0)
(-0.000839827 -0.000281807 0)
(-0.000683634 -0.000256506 0)
(-0.000541416 -0.000230493 0)
(-0.000413492 -0.000203887 0)
(-0.000300106 -0.000176828 0)
(-0.000201412 -0.00014949 0)
(-0.000117458 -0.000122085 0)
(-4.81634e-05 -9.48704e-05 0)
(6.70572e-06 -6.8167e-05 0)
(4.75673e-05 -4.2371e-05 0)
(7.50594e-05 -1.79765e-05 0)
(9.00834e-05 4.40088e-06 0)
(9.38518e-05 2.39938e-05 0)
(8.79454e-05 3.9848e-05 0)
(7.43706e-05 5.07964e-05 0)
(5.55694e-05 5.54562e-05 0)
(3.44463e-05 5.22754e-05 0)
(1.50643e-05 3.97007e-05 0)
(3.21475e-06 1.66714e-05 0)
(3.13602e-06 -2.49159e-05 0)
(1.40508e-05 -5.53687e-05 0)
(3.06839e-05 -6.92169e-05 0)
(4.67965e-05 -6.91159e-05 0)
(5.8002e-05 -5.75782e-05 0)
(6.1167e-05 -3.69049e-05 0)
(5.36838e-05 -9.10244e-06 0)
(3.34172e-05 2.41366e-05 0)
(-1.31544e-06 6.14112e-05 0)
(-5.17998e-05 0.000101576 0)
(-0.00011898 0.000143701 0)
(-0.00020351 0.000187032 0)
(-0.000305792 0.000230958 0)
(-0.000426021 0.000274983 0)
(-0.000564213 0.000318705 0)
(-0.000720237 0.000361797 0)
(-0.000893836 0.000403993 0)
(-0.00108465 0.000445075 0)
(-0.00129223 0.000484867 0)
(-0.00151606 0.000523227 0)
(-0.00175555 0.000560039 0)
(-0.00201009 0.000595209 0)
(-0.00227899 0.000628665 0)
(-0.00256156 0.000660349 0)
(-0.00285706 0.000690215 0)
(-0.00316476 0.000718232 0)
(-0.00348387 0.000744377 0)
(-0.00381363 0.000768634 0)
(-0.00415324 0.000790996 0)
(-0.00450191 0.000811461 0)
(-0.00485886 0.000830033 0)
(-0.00522328 0.00084672 0)
(-0.00559439 0.000861535 0)
(-0.00597139 0.000874492 0)
(-0.0063535 0.000885612 0)
(-0.00673995 0.000894915 0)
(-0.00712997 0.000902425 0)
(-0.00752279 0.000908168 0)
(-0.00791767 0.000912171 0)
(-0.00831386 0.000914463 0)
(-0.00871065 0.000915076 0)
(-0.00910731 0.000914039 0)
(-0.00950315 0.000911387 0)
(-0.00989748 0.000907152 0)
(-0.0102896 0.000901369 0)
(-0.0106789 0.000894074 0)
(-0.0110647 0.000885301 0)
(-0.0114464 0.000875088 0)
(-0.0118233 0.00086347 0)
(-0.0121949 0.000850486 0)
(-0.0125606 0.000836173 0)
(-0.0129198 0.000820569 0)
(-0.0132719 0.000803712 0)
(-0.0136165 0.00078564 0)
(-0.013953 0.000766394 0)
(-0.0142809 0.000746011 0)
(-0.0145997 0.000724531 0)
(-0.0149089 0.000701994 0)
(-0.0152082 0.000678439 0)
(-0.015497 0.000653906 0)
(-0.015775 0.000628436 0)
(-0.0160417 0.000602069 0)
(-0.0162968 0.000574846 0)
(-0.0165399 0.000546808 0)
(-0.0167707 0.000517995 0)
(-0.0169888 0.000488449 0)
(-0.017194 0.000458211 0)
(-0.0173859 0.000427325 0)
(-0.0175642 0.000395831 0)
(-0.0177288 0.000363772 0)
(-0.0178793 0.000331191 0)
(-0.0180156 0.000298131 0)
(-0.0181374 0.000264636 0)
(-0.0182447 0.000230749 0)
(-0.0183371 0.000196515 0)
(-0.0184147 0.000161977 0)
(-0.0184772 0.000127181 0)
(-0.0185245 9.2172e-05 0)
(-0.0185566 5.69954e-05 0)
(-0.0185735 2.16974e-05 0)
(-0.018575 -1.36757e-05 0)
(-0.0185612 -4.90771e-05 0)
(-0.018532 -8.44597e-05 0)
(-0.0184875 -0.000119776 0)
(-0.0184278 -0.000154978 0)
(-0.0183528 -0.000190017 0)
(-0.0182626 -0.000224845 0)
(-0.0181574 -0.000259413 0)
(-0.0180374 -0.000293672 0)
(-0.0179025 -0.000327572 0)
(-0.017753 -0.000361062 0)
(-0.0175892 -0.000394094 0)
(-0.0174111 -0.000426616 0)
(-0.0172191 -0.000458578 0)
(-0.0170134 -0.00048993 0)
(-0.0167943 -0.000520621 0)
(-0.016562 -0.0005506 0)
(-0.0163169 -0.000579815 0)
(-0.0160593 -0.000608217 0)
(-0.0157897 -0.000635754 0)
(-0.0155083 -0.000662376 0)
(-0.0152156 -0.000688033 0)
(-0.0149121 -0.000712674 0)
(-0.0145981 -0.000736249 0)
(-0.0142742 -0.00075871 0)
(-0.0139408 -0.000780007 0)
(-0.0135985 -0.000800092 0)
(-0.0132478 -0.000818917 0)
(-0.0128892 -0.000836436 0)
(-0.0125233 -0.000852601 0)
(-0.0121507 -0.000867368 0)
(-0.0117721 -0.000880692 0)
(-0.011388 -0.00089253 0)
(-0.0109991 -0.000902841 0)
(-0.0106061 -0.000911582 0)
(-0.0102097 -0.000918716 0)
(-0.00981051 -0.000924203 0)
(-0.00940929 -0.000928008 0)
(-0.00900677 -0.000930097 0)
(-0.00860369 -0.000930436 0)
(-0.00820081 -0.000928996 0)
(-0.00779889 -0.000925748 0)
(-0.00739872 -0.000920665 0)
(-0.00700107 -0.000913726 0)
(-0.00660675 -0.000904909 0)
(-0.00621655 -0.000894196 0)
(-0.00583129 -0.000881573 0)
(-0.00545178 -0.000867029 0)
(-0.00507883 -0.000850556 0)
(-0.00471325 -0.000832153 0)
(-0.00435587 -0.00081182 0)
(-0.00400748 -0.000789563 0)
(-0.00366888 -0.000765395 0)
(-0.00334089 -0.000739335 0)
(-0.00302426 -0.000711407 0)
(-0.00271978 -0.000681644 0)
(-0.00242818 -0.000650089 0)
(-0.00215019 -0.000616794 0)
(-0.0018865 -0.000581823 0)
(-0.00163777 -0.000545254 0)
(-0.00140462 -0.000507182 0)
(-0.00118762 -0.000467719 0)
(-0.000987274 -0.000427002 0)
(-0.000804035 -0.000385192 0)
(-0.000638265 -0.000342487 0)
(-0.000490234 -0.00029912 0)
(-0.000360104 -0.000255375 0)
(-0.000247906 -0.000211594 0)
(-0.000153517 -0.000168192 0)
(-7.66332e-05 -0.000125672 0)
(-1.67431e-05 -8.46513e-05 0)
(2.69149e-05 -4.58804e-05 0)
(5.53913e-05 -1.02791e-05 0)
(7.00684e-05 2.10323e-05 0)
(7.27118e-05 4.66951e-05 0)
(6.55249e-05 6.50838e-05 0)
(5.11592e-05 7.42971e-05 0)
(3.2754e-05 7.21923e-05 0)
(1.4687e-05 5.64855e-05 0)
(3.20317e-06 2.48755e-05 0)
(2.77367e-06 -3.20937e-05 0)
(1.1865e-05 -6.90577e-05 0)
(2.4558e-05 -8.36394e-05 0)
(3.46934e-05 -7.9776e-05 0)
(3.78228e-05 -6.08095e-05 0)
(3.07004e-05 -2.96953e-05 0)
(1.06194e-05 1.10034e-05 0)
(-2.46513e-05 5.91092e-05 0)
(-7.68901e-05 0.000112796 0)
(-0.000147476 0.000170546 0)
(-0.000237438 0.000231105 0)
(-0.000347501 0.000293438 0)
(-0.000478126 0.000356693 0)
(-0.000629545 0.000420171 0)
(-0.000801794 0.000483295 0)
(-0.000994742 0.000545591 0)
(-0.00120812 0.000606668 0)
(-0.00144152 0.000666206 0)
(-0.00169446 0.00072394 0)
(-0.00196636 0.000779655 0)
(-0.00225655 0.000833175 0)
(-0.00256433 0.000884355 0)
(-0.00288892 0.000933082 0)
(-0.00322953 0.000979263 0)
(-0.00358531 0.00102283 0)
(-0.00395539 0.00106372 0)
(-0.00433888 0.0011019 0)
(-0.00473488 0.00113735 0)
(-0.00514247 0.00117004 0)
(-0.00556073 0.00119997 0)
(-0.00598872 0.00122714 0)
(-0.00642552 0.00125156 0)
(-0.00687018 0.00127325 0)
(-0.00732178 0.00129222 0)
(-0.0077794 0.0013085 0)
(-0.00824212 0.00132212 0)
(-0.00870903 0.00133311 0)
(-0.00917924 0.0013415 0)
(-0.00965185 0.00134734 0)
(-0.010126 0.00135067 0)
(-0.0106008 0.00135152 0)
(-0.0110754 0.00134995 0)
(-0.011549 0.001346 0)
(-0.0120208 0.00133972 0)
(-0.0124899 0.00133116 0)
(-0.0129556 0.00132037 0)
(-0.0134171 0.00130741 0)
(-0.0138736 0.00129232 0)
(-0.0143245 0.00127515 0)
(-0.014769 0.00125597 0)
(-0.0152063 0.00123483 0)
(-0.015636 0.00121178 0)
(-0.0160571 0.00118689 0)
(-0.0164693 0.00116019 0)
(-0.0168717 0.00113177 0)
(-0.0172638 0.00110166 0)
(-0.0176451 0.00106993 0)
(-0.018015 0.00103665 0)
(-0.0183728 0.00100185 0)
(-0.0187183 0.000965615 0)
(-0.0190507 0.000927992 0)
(-0.0193696 0.000889043 0)
(-0.0196747 0.000848829 0)
(-0.0199654 0.00080741 0)
(-0.0202414 0.000764846 0)
(-0.0205021 0.0007212 0)
(-0.0207474 0.000676531 0)
(-0.0209768 0.000630904 0)
(-0.02119 0.000584379 0)
(-0.0213868 0.000537021 0)
(-0.0215667 0.000488891 0)
(-0.0217296 0.000440055 0)
(-0.0218752 0.000390576 0)
(-0.0220033 0.00034052 0)
(-0.0221138 0.000289951 0)
(-0.0222064 0.000238935 0)
(-0.022281 0.000187539 0)
(-0.0223375 0.00013583 0)
(-0.0223758 8.38758e-05 0)
(-0.0223958 3.17437e-05 0)
(-0.0223975 -2.04974e-05 0)
(-0.0223809 -7.27781e-05 0)
(-0.0223458 -0.000125029 0)
(-0.0222925 -0.000177179 0)
(-0.0222209 -0.000229158 0)
(-0.022131 -0.000280895 0)
(-0.0220231 -0.000332317 0)
(-0.0218972 -0.000383353 0)
(-0.0217535 -0.000433929 0)
(-0.0215921 -0.000483972 0)
(-0.0214133 -0.000533408 0)
(-0.0212172 -0.000582164 0)
(-0.0210042 -0.000630166 0)
(-0.0207745 -0.000677338 0)
(-0.0205285 -0.000723607 0)
(-0.0202664 -0.000768897 0)
(-0.0199885 -0.000813133 0)
(-0.0196954 -0.000856241 0)
(-0.0193874 -0.000898146 0)
(-0.019065 -0.000938773 0)
(-0.0187285 -0.000978048 0)
(-0.0183786 -0.0010159 0)
(-0.0180156 -0.00105224 0)
(-0.0176402 -0.00108702 0)
(-0.017253 -0.00112015 0)
(-0.0168544 -0.00115156 0)
(-0.0164451 -0.00118118 0)
(-0.0160258 -0.00120895 0)
(-0.0155971 -0.00123479 0)
(-0.0151597 -0.00125863 0)
(-0.0147143 -0.00128041 0)
(-0.0142616 -0.00130007 0)
(-0.0138024 -0.00131754 0)
(-0.0133375 -0.00133275 0)
(-0.0128677 -0.00134566 0)
(-0.0123937 -0.00135621 0)
(-0.0119164 -0.00136433 0)
(-0.0114366 -0.00136997 0)
(-0.0109553 -0.0013731 0)
(-0.0104733 -0.00137365 0)
(-0.00999144 -0.00137159 0)
(-0.0095107 -0.00136687 0)
(-0.00903198 -0.00135947 0)
(-0.00855621 -0.00134934 0)
(-0.00808434 -0.00133646 0)
(-0.00761731 -0.0013208 0)
(-0.00715608 -0.00130235 0)
(-0.0067016 -0.00128109 0)
(-0.00625484 -0.00125701 0)
(-0.00581675 -0.00123011 0)
(-0.00538828 -0.00120039 0)
(-0.00497039 -0.00116788 0)
(-0.00456402 -0.00113259 0)
(-0.00417009 -0.00109454 0)
(-0.00378952 -0.00105379 0)
(-0.00342318 -0.00101039 0)
(-0.00307196 -0.000964393 0)
(-0.00273669 -0.000915894 0)
(-0.00241816 -0.000864988 0)
(-0.00211714 -0.000811798 0)
(-0.00183432 -0.000756465 0)
(-0.00157036 -0.000699164 0)
(-0.00132583 -0.000640098 0)
(-0.00110122 -0.000579512 0)
(-0.000896956 -0.000517695 0)
(-0.00071331 -0.000454995 0)
(-0.000550454 -0.000391824 0)
(-0.000408403 -0.000328676 0)
(-0.000287002 -0.000266144 0)
(-0.000185899 -0.000204939 0)
(-0.00010451 -0.000145917 0)
(-4.199e-05 -9.01055e-05 0)
(2.80841e-06 -3.87432e-05 0)
(3.13729e-05 6.68609e-06 0)
(4.55777e-05 4.44137e-05 0)
(4.77358e-05 7.23505e-05 0)
(4.06134e-05 8.8064e-05 0)
(2.74838e-05 8.8784e-05 0)
(1.28314e-05 7.14299e-05 0)
(2.90031e-06 3.24497e-05 0)
(2.22965e-06 -3.78257e-05 0)
(8.6397e-06 -7.89677e-05 0)
(1.57624e-05 -9.20764e-05 0)
(1.78691e-05 -8.22274e-05 0)
(1.06388e-05 -5.35676e-05 0)
(-9.19084e-06 -9.70216e-06 0)
(-4.43444e-05 4.62551e-05 0)
(-9.70749e-05 0.00011165 0)
(-0.000169194 0.000184235 0)
(-0.000262119 0.00026212 0)
(-0.000376923 0.00034372 0)
(-0.000514367 0.000427712 0)
(-0.000674942 0.00051299 0)
(-0.0008589 0.000598636 0)
(-0.00106629 0.000683884 0)
(-0.00129697 0.000768098 0)
(-0.00155065 0.000850747 0)
(-0.00182691 0.000931394 0)
(-0.00212522 0.00100967 0)
(-0.00244492 0.00108528 0)
(-0.0027853 0.00115797 0)
(-0.00314558 0.00122754 0)
(-0.0035249 0.00129382 0)
(-0.00392236 0.00135668 0)
(-0.00433703 0.00141602 0)
(-0.00476792 0.00147175 0)
(-0.00521405 0.00152382 0)
(-0.00567439 0.00157217 0)
(-0.0061479 0.00161679 0)
(-0.00663353 0.00165765 0)
(-0.00713024 0.00169475 0)
(-0.00763695 0.00172811 0)
(-0.00815262 0.00175774 0)
(-0.00867618 0.00178365 0)
(-0.00920658 0.00180589 0)
(-0.00974276 0.00182448 0)
(-0.0102837 0.00183947 0)
(-0.0108284 0.00185091 0)
(-0.0113757 0.00185884 0)
(-0.0119248 0.00186333 0)
(-0.0124746 0.00186442 0)
(-0.0130241 0.00186218 0)
(-0.0135724 0.00185667 0)
(-0.0141185 0.00184796 0)
(-0.0146615 0.00183611 0)
(-0.0152005 0.0018212 0)
(-0.0157347 0.00180328 0)
(-0.0162631 0.00178244 0)
(-0.0167849 0.00175875 0)
(-0.0172993 0.00173228 0)
(-0.0178054 0.0017031 0)
(-0.0183026 0.0016713 0)
(-0.0187899 0.00163695 0)
(-0.0192668 0.00160012 0)
(-0.0197325 0.00156091 0)
(-0.0201862 0.00151937 0)
(-0.0206274 0.0014756 0)
(-0.0210553 0.00142968 0)
(-0.0214694 0.00138168 0)
(-0.021869 0.00133168 0)
(-0.0222536 0.00127978 0)
(-0.0226226 0.00122604 0)
(-0.0229755 0.00117056 0)
(-0.0233118 0.00111342 0)
(-0.023631 0.0010547 0)
(-0.0239327 0.000994484 0)
(-0.0242164 0.00093286 0)
(-0.0244818 0.000869912 0)
(-0.0247284 0.000805727 0)
(-0.0249559 0.000740392 0)
(-0.0251639 0.000673995 0)
(-0.0253523 0.000606623 0)
(-0.0255206 0.000538367 0)
(-0.0256688 0.000469314 0)
(-0.0257964 0.000399556 0)
(-0.0259034 0.000329184 0)
(-0.0259896 0.000258289 0)
(-0.0260549 0.000186965 0)
(-0.026099 0.000115304 0)
(-0.026122 4.34e-05 0)
(-0.0261239 -2.86514e-05 0)
(-0.0261044 -0.000100755 0)
(-0.0260638 -0.000172814 0)
(-0.0260019 -0.000244732 0)
(-0.0259189 -0.000316411 0)