0.05 	0.0003125 	0.005 	0.00692474
0.05 	0.0009375 	0.005 	0.00694122
0.05 	0.0015625 	0.005 	0.00695424
0.05 	0.0021875 	0.005 	0.00696482
0.05 	0.0028125 	0.005 	0.00697413
0.05 	0.0034375 	0.005 	0.0069821
0.05 	0.0040625 	0.005 	0.0069886
0.05 	0.0046875 	0.005 	0.00699357
0.05 	0.0053125 	0.005 	0.00699695
0.05 	0.0059375 	0.005 	0.00699863
0.05 	0.0065625 	0.005 	0.00699852
0.05 	0.0071875 	0.005 	0.00699649
0.05 	0.0078125 	0.005 	0.00699241
0.05 	0.0084375 	0.005 	0.00698614
0.05 	0.0090625 	0.005 	0.00697754
0.05 	0.0096875 	0.005 	0.00696645
0.05 	0.0103125 	0.005 	0.0069527
0.05 	0.0109375 	0.005 	0.00693612
0.05 	0.0115625 	0.005 	0.00691653
0.05 	0.0121875 	0.005 	0.00689373
0.05 	0.0128125 	0.005 	0.00686751
0.05 	0.0134375 	0.005 	0.00683762
0.05 	0.0140625 	0.005 	0.00680384
0.05 	0.0146875 	0.005 	0.0067659
0.05 	0.0153125 	0.005 	0.00672353
0.05 	0.0159375 	0.005 	0.00667645
0.05 	0.0165625 	0.005 	0.00662437
0.05 	0.0171875 	0.005 	0.00656698
0.05 	0.0178125 	0.005 	0.00650394
0.05 	0.0184375 	0.005 	0.00643494
0.05 	0.0190625 	0.005 	0.00635959
0.05 	0.0196875 	0.005 	0.00627752
0.05 	0.0203125 	0.005 	0.00618834
0.05 	0.0209375 	0.005 	0.00609166
0.05 	0.0215625 	0.005 	0.00598707
0.05 	0.0221875 	0.005 	0.00587415
0.05 	0.0228125 	0.005 	0.00575244
0.05 	0.0234375 	0.005 	0.00562148
0.05 	0.0240625 	0.005 	0.00548075
0.05 	0.0246875 	0.005 	0.00532975
0.05 	0.0253125 	0.005 	0.00516791
0.05 	0.0259375 	0.005 	0.00499468
0.05 	0.0265625 	0.005 	0.00480947
0.05 	0.0271875 	0.005 	0.00461169
0.05 	0.0278125 	0.005 	0.00440071
0.05 	0.0284375 	0.005 	0.00417589
0.05 	0.0290625 	0.005 	0.00393654
0.05 	0.0296875 	0.005 	0.00368198
0.05 	0.0303125 	0.005 	0.0034115
0.05 	0.0309375 	0.005 	0.00312438
0.05 	0.0315625 	0.005 	0.00281988
0.05 	0.0321875 	0.005 	0.00249724
0.05 	0.0328125 	0.005 	0.00215568
0.05 	0.0334375 	0.005 	0.00179439
0.05 	0.0340625 	0.005 	0.00141256
0.05 	0.0346875 	0.005 	0.00100934
0.05 	0.0353125 	0.005 	0.000583897
0.05 	0.0359375 	0.005 	0.000135363
0.05 	0.0365625 	0.005 	-0.000337127
0.05 	0.0371875 	0.005 	-0.000834441
0.05 	0.0378125 	0.005 	-0.00135744
0.05 	0.0384375 	0.005 	-0.00190699
0.05 	0.0390625 	0.005 	-0.00248392
0.05 	0.0396875 	0.005 	-0.00308909
0.05 	0.0403125 	0.005 	-0.00372332
0.05 	0.0409375 	0.005 	-0.00438744
0.05 	0.0415625 	0.005 	-0.00508224
0.05 	0.0421875 	0.005 	-0.0058085
0.05 	0.0428125 	0.005 	-0.00656693
0.05 	0.0434375 	0.005 	-0.00735825
0.05 	0.0440625 	0.005 	-0.00818311
0.05 	0.0446875 	0.005 	-0.00904213
0.05 	0.0453125 	0.005 	-0.00993586
0.05 	0.0459375 	0.005 	-0.0108648
0.05 	0.0465625 	0.005 	-0.0118294
0.05 	0.0471875 	0.005 	-0.0128299
0.05 	0.0478125 	0.005 	-0.0138667
0.05 	0.0484375 	0.005 	-0.0149399
0.05 	0.0490625 	0.005 	-0.0160496
0.05 	0.0496875 	0.005 	-0.0171957
0.05 	0.0503125 	0.005 	-0.0183782
0.05 	0.0509375 	0.005 	-0.0195967
0.05 	0.0515625 	0.005 	-0.020851
0.05 	0.0521875 	0.005 	-0.0221405
0.05 	0.0528125 	0.005 	-0.0234646
0.05 	0.0534375 	0.005 	-0.0248225
0.05 	0.0540625 	0.005 	-0.0262133
0.05 	0.0546875 	0.005 	-0.0276359
0.05 	0.0553125 	0.005 	-0.029089
0.05 	0.0559375 	0.005 	-0.0305713
0.05 	0.0565625 	0.005 	-0.0320811
0.05 	0.0571875 	0.005 	-0.0336167
0.05 	0.0578125 	0.005 	-0.0351763
0.05 	0.0584375 	0.005 	-0.0367577
0.05 	0.0590625 	0.005 	-0.0383587
0.05 	0.0596875 	0.005 	-0.0399769
0.05 	0.0603125 	0.005 	-0.0416096
0.05 	0.0609375 	0.005 	-0.0432542
0.05 	0.0615625 	0.005 	-0.0449077
0.05 	0.0621875 	0.005 	-0.046567
0.05 	0.0628125 	0.005 	-0.0482288
0.05 	0.0634375 	0.005 	-0.0498899
0.05 	0.0640625 	0.005 	-0.0515468
0.05 	0.0646875 	0.005 	-0.0531957
0.05 	0.0653125 	0.005 	-0.0548329
0.05 	0.0659375 	0.005 	-0.0564547
0.05 	0.0665625 	0.005 	-0.0580571
0.05 	0.0671875 	0.005 	-0.059636
0.05 	0.0678125 	0.005 	-0.0611875
0.05 	0.0684375 	0.005 	-0.0627075
0.05 	0.0690625 	0.005 	-0.0641919
0.05 	0.0696875 	0.005 	-0.0656365
0.05 	0.0703125 	0.005 	-0.0670372
0.05 	0.0709375 	0.005 	-0.0683901
0.05 	0.0715625 	0.005 	-0.0696911
0.05 	0.0721875 	0.005 	-0.0709362
0.05 	0.0728125 	0.005 	-0.0721218
0.05 	0.0734375 	0.005 	-0.073244
0.05 	0.0740625 	0.005 	-0.0742993
0.05 	0.0746875 	0.005 	-0.0752844
0.05 	0.0753125 	0.005 	-0.0761962
0.05 	0.0759375 	0.005 	-0.0770316
0.05 	0.0765625 	0.005 	-0.0777879
0.05 	0.0771875 	0.005 	-0.0784628
0.05 	0.0778125 	0.005 	-0.0790539
0.05 	0.0784375 	0.005 	-0.0795594
0.05 	0.0790625 	0.005 	-0.0799777
0.05 	0.0796875 	0.005 	-0.0803077
0.05 	0.0803125 	0.005 	-0.0805485
0.05 	0.0809375 	0.005 	-0.0806997
0.05 	0.0815625 	0.005 	-0.0807612
0.05 	0.0821875 	0.005 	-0.0807335
0.05 	0.0828125 	0.005 	-0.0806173
0.05 	0.0834375 	0.005 	-0.0804139
0.05 	0.0840625 	0.005 	-0.0801251
0.05 	0.0846875 	0.005 	-0.0797531
0.05 	0.0853125 	0.005 	-0.0793006
0.05 	0.0859375 	0.005 	-0.0787708
0.05 	0.0865625 	0.005 	-0.0781674
0.05 	0.0871875 	0.005 	-0.0774945
0.05 	0.0878125 	0.005 	-0.0767568
0.05 	0.0884375 	0.005 	-0.0759594
0.05 	0.0890625 	0.005 	-0.075108
0.05 	0.0896875 	0.005 	-0.0742084
0.05 	0.0903125 	0.005 	-0.0732672
0.05 	0.0909375 	0.005 	-0.072291
0.05 	0.0915625 	0.005 	-0.071287
0.05 	0.0921875 	0.005 	-0.0702626
0.05 	0.0928125 	0.005 	-0.0692252
0.05 	0.0934375 	0.005 	-0.0681826
0.05 	0.0940625 	0.005 	-0.0671424
0.05 	0.0946875 	0.005 	-0.0661123
0.05 	0.0953125 	0.005 	-0.0650996
0.05 	0.0959375 	0.005 	-0.0641117
0.05 	0.0965625 	0.005 	-0.0631549
0.05 	0.0971875 	0.005 	-0.0622351
0.05 	0.0978125 	0.005 	-0.0613617
0.05 	0.0984375 	0.005 	-0.060543
0.05 	0.0990625 	0.005 	-0.059731
0.05 	0.0996875 	0.005 	-0.0588767
