/*--------------------------------*- C++ -*----------------------------------*\
  =========                 |
  \\      /  F ield         | OpenFOAM: The Open Source CFD Toolbox
   \\    /   O peration     | Website:  https://openfoam.org
    \\  /    A nd           | Version:  7
     \\/     M anipulation  |
\*---------------------------------------------------------------------------*/
FoamFile
{
    version     2.0;
    format      ascii;
    class       volVectorField;
    location    "0.35";
    object      U;
}
// * * * * * * * * * * * * * * * * * * * * * * * * * * * * * * * * * * * * * //

dimensions      [0 1 -1 0 0 0 0];

internalField   nonuniform List<vector> 
25600
(
(3.22009e-07 -4.74506e-07 0)
(3.03104e-06 -1.81096e-06 0)
(8.25544e-06 -2.41254e-06 0)
(1.42662e-05 -2.47427e-06 0)
(1.96636e-05 -2.175e-06 0)
(2.37686e-05 -1.66478e-06 0)
(2.61099e-05 -1.03324e-06 0)
(2.64006e-05 -3.37674e-07 0)
(2.44772e-05 3.84653e-07 0)
(2.02608e-05 1.11154e-06 0)
(1.37306e-05 1.82905e-06 0)
(4.9045e-06 2.52856e-06 0)
(-6.17076e-06 3.20367e-06 0)
(-1.94286e-05 3.8507e-06 0)
(-3.47888e-05 4.46692e-06 0)
(-5.21616e-05 5.05069e-06 0)
(-7.14508e-05 5.60191e-06 0)
(-9.25566e-05 6.12081e-06 0)
(-0.000115377 6.6075e-06 0)
(-0.00013981 7.06238e-06 0)
(-0.000165752 7.48553e-06 0)
(-0.000193104 7.87747e-06 0)
(-0.000221764 8.23939e-06 0)
(-0.000251638 8.57232e-06 0)
(-0.000282629 8.87766e-06 0)
(-0.000314646 9.15661e-06 0)
(-0.000347601 9.40969e-06 0)
(-0.000381407 9.63819e-06 0)
(-0.000415982 9.84328e-06 0)
(-0.000451246 1.00254e-05 0)
(-0.000487123 1.0186e-05 0)
(-0.000523538 1.03262e-05 0)
(-0.000560421 1.04464e-05 0)
(-0.000597703 1.05477e-05 0)
(-0.000635319 1.06311e-05 0)
(-0.000673205 1.06971e-05 0)
(-0.000711301 1.07461e-05 0)
(-0.000749549 1.07792e-05 0)
(-0.00078789 1.07968e-05 0)
(-0.000826271 1.07991e-05 0)
(-0.000864637 1.0787e-05 0)
(-0.000902938 1.0761e-05 0)
(-0.000941123 1.07214e-05 0)
(-0.000979143 1.06682e-05 0)
(-0.00101695 1.0602e-05 0)
(-0.0010545 1.05229e-05 0)
(-0.00109174 1.04312e-05 0)
(-0.00112862 1.03271e-05 0)
(-0.00116512 1.02109e-05 0)
(-0.00120117 1.00825e-05 0)
(-0.00123673 9.94198e-06 0)
(-0.00127177 9.78956e-06 0)
(-0.00130623 9.62515e-06 0)
(-0.00134008 9.44854e-06 0)
(-0.00137327 9.25987e-06 0)
(-0.00140576 9.05939e-06 0)
(-0.00143751 8.847e-06 0)
(-0.00146846 8.6224e-06 0)
(-0.00149859 8.38554e-06 0)
(-0.00152784 8.13661e-06 0)
(-0.00155617 7.87592e-06 0)
(-0.00158355 7.60337e-06 0)
(-0.00160992 7.31865e-06 0)
(-0.00163525 7.02168e-06 0)
(-0.00165949 6.71251e-06 0)
(-0.0016826 6.39129e-06 0)
(-0.00170454 6.05809e-06 0)
(-0.00172526 5.71296e-06 0)
(-0.00174474 5.35625e-06 0)
(-0.00176291 4.98821e-06 0)
(-0.00177976 4.60893e-06 0)
(-0.00179523 4.21852e-06 0)
(-0.00180929 3.81704e-06 0)
(-0.0018219 3.40482e-06 0)
(-0.00183303 2.98247e-06 0)
(-0.00184264 2.55049e-06 0)
(-0.00185071 2.1094e-06 0)
(-0.00185719 1.65957e-06 0)
(-0.00186207 1.20128e-06 0)
(-0.00186531 7.35132e-07 0)
(-0.00186689 2.61952e-07 0)
(-0.00186679 -2.17536e-07 0)
(-0.00186499 -7.02505e-07 0)
(-0.00186146 -1.19221e-06 0)
(-0.00185621 -1.68598e-06 0)
(-0.00184921 -2.18292e-06 0)
(-0.00184046 -2.68204e-06 0)
(-0.00182995 -3.1824e-06 0)
(-0.00181768 -3.68287e-06 0)
(-0.00180366 -4.1823e-06 0)
(-0.00178789 -4.67968e-06 0)
(-0.00177039 -5.17392e-06 0)
(-0.00175116 -5.66383e-06 0)
(-0.00173022 -6.14831e-06 0)
(-0.0017076 -6.62609e-06 0)
(-0.00168332 -7.09579e-06 0)
(-0.00165742 -7.55618e-06 0)
(-0.00162993 -8.00602e-06 0)
(-0.00160089 -8.44395e-06 0)
(-0.00157034 -8.86874e-06 0)
(-0.00153834 -9.2792e-06 0)
(-0.00150493 -9.674e-06 0)
(-0.00147017 -1.00518e-05 0)
(-0.00143413 -1.04112e-05 0)
(-0.00139687 -1.07513e-05 0)
(-0.00135846 -1.10706e-05 0)
(-0.00131898 -1.13681e-05 0)
(-0.0012785 -1.16429e-05 0)
(-0.00123711 -1.18936e-05 0)
(-0.00119488 -1.21192e-05 0)
(-0.00115191 -1.23189e-05 0)
(-0.0011083 -1.24916e-05 0)
(-0.00106412 -1.26366e-05 0)
(-0.00101949 -1.2753e-05 0)
(-0.000974504 -1.28403e-05 0)
(-0.00092926 -1.28979e-05 0)
(-0.000883863 -1.29251e-05 0)
(-0.00083842 -1.29215e-05 0)
(-0.000793037 -1.28868e-05 0)
(-0.000747822 -1.28207e-05 0)
(-0.000702883 -1.2723e-05 0)
(-0.000658328 -1.25938e-05 0)
(-0.000614268 -1.24331e-05 0)
(-0.000570811 -1.22409e-05 0)
(-0.000528063 -1.20174e-05 0)
(-0.000486132 -1.1763e-05 0)
(-0.000445124 -1.14783e-05 0)
(-0.000405141 -1.11636e-05 0)
(-0.000366285 -1.08195e-05 0)
(-0.000328656 -1.04468e-05 0)
(-0.000292349 -1.00464e-05 0)
(-0.000257457 -9.61917e-06 0)
(-0.000224071 -9.16609e-06 0)
(-0.000192276 -8.68833e-06 0)
(-0.000162152 -8.18717e-06 0)
(-0.000133777 -7.66395e-06 0)
(-0.000107222 -7.12007e-06 0)
(-8.25524e-05 -6.5571e-06 0)
(-5.9829e-05 -5.97677e-06 0)
(-3.91048e-05 -5.38087e-06 0)
(-2.0426e-05 -4.77129e-06 0)
(-3.83081e-06 -4.15028e-06 0)
(1.06511e-05 -3.52043e-06 0)
(2.29999e-05 -2.88454e-06 0)
(3.32066e-05 -2.24563e-06 0)
(4.12748e-05 -1.60713e-06 0)
(4.72221e-05 -9.73334e-07 0)
(5.1083e-05 -3.49532e-07 0)
(5.2912e-05 2.58009e-07 0)
(5.27881e-05 8.41615e-07 0)
(5.08197e-05 1.39133e-06 0)
(4.71522e-05 1.89356e-06 0)
(4.19788e-05 2.32966e-06 0)
(3.55559e-05 2.67358e-06 0)
(2.82234e-05 2.88761e-06 0)
(2.04346e-05 2.91698e-06 0)
(1.27875e-05 2.6857e-06 0)
(6.06659e-06 2.09126e-06 0)
(1.34517e-06 1.04002e-06 0)
(-1.79694e-07 -1.79137e-07 0)
(1.61748e-06 -2.99137e-06 0)
(8.00776e-06 -8.23152e-06 0)
(1.85478e-05 -1.05035e-05 0)
(2.97489e-05 -1.03956e-05 0)
(3.91679e-05 -8.58134e-06 0)
(4.52246e-05 -5.6303e-06 0)
(4.67813e-05 -1.94439e-06 0)
(4.30551e-05 2.19127e-06 0)
(3.35494e-05 6.57796e-06 0)
(1.79806e-05 1.10767e-05 0)
(-3.78079e-06 1.55903e-05 0)
(-3.17471e-05 2.00504e-05 0)
(-6.58455e-05 2.44078e-05 0)
(-0.000105941 2.8628e-05 0)
(-0.00015185 3.26863e-05 0)
(-0.000203359 3.65658e-05 0)
(-0.000260228 4.02556e-05 0)
(-0.000322201 4.37492e-05 0)
(-0.000389014 4.70436e-05 0)
(-0.000460395 5.01379e-05 0)
(-0.000536068 5.30327e-05 0)
(-0.000615761 5.57306e-05 0)
(-0.000699202 5.82346e-05 0)
(-0.000786123 6.05497e-05 0)
(-0.000876261 6.2681e-05 0)
(-0.000969362 6.46341e-05 0)
(-0.00106518 6.64144e-05 0)
(-0.00116346 6.80277e-05 0)
(-0.00126398 6.948e-05 0)
(-0.0013665 7.07769e-05 0)
(-0.00147082 7.19242e-05 0)
(-0.00157671 7.2928e-05 0)
(-0.00168398 7.37934e-05 0)
(-0.00179241 7.45256e-05 0)
(-0.00190184 7.51296e-05 0)
(-0.00201206 7.561e-05 0)
(-0.00212291 7.59712e-05 0)
(-0.0022342 7.62172e-05 0)
(-0.00234578 7.63517e-05 0)
(-0.00245749 7.63782e-05 0)
(-0.00256916 7.63001e-05 0)
(-0.00268064 7.61202e-05 0)
(-0.00279179 7.58408e-05 0)
(-0.00290245 7.54647e-05 0)
(-0.0030125 7.49939e-05 0)
(-0.00312178 7.44299e-05 0)
(-0.00323017 7.37739e-05 0)
(-0.00333752 7.30277e-05 0)
(-0.00344371 7.21925e-05 0)
(-0.0035486 7.12691e-05 0)
(-0.00365207 7.02582e-05 0)
(-0.00375398 6.91604e-05 0)
(-0.0038542 6.79761e-05 0)
(-0.00395262 6.67054e-05 0)
(-0.00404909 6.53485e-05 0)
(-0.00414351 6.3906e-05 0)
(-0.00423573 6.23779e-05 0)
(-0.00432563 6.07639e-05 0)
(-0.00441309 5.90641e-05 0)
(-0.00449799 5.72788e-05 0)
(-0.00458019 5.54083e-05 0)
(-0.00465958 5.34527e-05 0)
(-0.00473603 5.1412e-05 0)
(-0.00480941 4.92869e-05 0)
(-0.0048796 4.70776e-05 0)
(-0.00494649 4.47847e-05 0)
(-0.00500994 4.24087e-05 0)
(-0.00506985 3.99508e-05 0)
(-0.00512609 3.74122e-05 0)
(-0.00517856 3.47947e-05 0)
(-0.00522712 3.20995e-05 0)
(-0.00527169 2.93285e-05 0)
(-0.00531214 2.64837e-05 0)
(-0.00534837 2.35672e-05 0)
(-0.00538029 2.05821e-05 0)
(-0.0054078 1.75315e-05 0)
(-0.00543081 1.44185e-05 0)
(-0.00544922 1.12468e-05 0)
(-0.00546297 8.02005e-06 0)
(-0.00547197 4.74232e-06 0)
(-0.00547616 1.41855e-06 0)
(-0.00547548 -1.94631e-06 0)
(-0.00546986 -5.3471e-06 0)
(-0.00545928 -8.77828e-06 0)
(-0.00544368 -1.22342e-05 0)
(-0.00542305 -1.57087e-05 0)
(-0.00539735 -1.91949e-05 0)
(-0.00536658 -2.26862e-05 0)
(-0.00533074 -2.61757e-05 0)
(-0.00528985 -2.96558e-05 0)
(-0.00524391 -3.3119e-05 0)
(-0.00519297 -3.65577e-05 0)
(-0.00513706 -3.99637e-05 0)
(-0.00507625 -4.33289e-05 0)
(-0.00501059 -4.66449e-05 0)
(-0.00494017 -4.99031e-05 0)
(-0.00486508 -5.30949e-05 0)
(-0.00478542 -5.62118e-05 0)
(-0.00470131 -5.92451e-05 0)
(-0.00461288 -6.21858e-05 0)
(-0.00452026 -6.50253e-05 0)
(-0.00442362 -6.77551e-05 0)
(-0.00432311 -7.03665e-05 0)
(-0.00421892 -7.28512e-05 0)
(-0.00411123 -7.52008e-05 0)
(-0.00400025 -7.74074e-05 0)
(-0.00388619 -7.94632e-05 0)
(-0.00376926 -8.13607e-05 0)
(-0.00364972 -8.30928e-05 0)
(-0.00352779 -8.46525e-05 0)
(-0.00340373 -8.60333e-05 0)
(-0.00327781 -8.72292e-05 0)
(-0.0031503 -8.82347e-05 0)
(-0.00302146 -8.90446e-05 0)
(-0.0028916 -8.96545e-05 0)
(-0.00276099 -9.00603e-05 0)
(-0.00262993 -9.02587e-05 0)
(-0.00249873 -9.02467e-05 0)
(-0.00236769 -9.00219e-05 0)
(-0.00223712 -8.95829e-05 0)
(-0.00210731 -8.89285e-05 0)
(-0.00197859 -8.80586e-05 0)
(-0.00185127 -8.69736e-05 0)
(-0.00172564 -8.56744e-05 0)
(-0.00160202 -8.41628e-05 0)
(-0.0014807 -8.24412e-05 0)
(-0.001362 -8.05126e-05 0)
(-0.00124619 -7.83809e-05 0)
(-0.00113358 -7.60507e-05 0)
(-0.00102443 -7.35273e-05 0)
(-0.000919017 -7.08166e-05 0)
(-0.00081761 -6.79254e-05 0)
(-0.000720457 -6.4861e-05 0)
(-0.000627798 -6.16318e-05 0)
(-0.000539861 -5.82466e-05 0)
(-0.00045686 -5.47153e-05 0)
(-0.000378992 -5.10486e-05 0)
(-0.00030644 -4.72583e-05 0)
(-0.000239368 -4.33567e-05 0)
(-0.000177919 -3.93577e-05 0)
(-0.000122215 -3.52763e-05 0)
(-7.23553e-05 -3.11293e-05 0)
(-2.8412e-05 -2.69353e-05 0)
(9.57193e-06 -2.27149e-05 0)
(4.15866e-05 -1.84917e-05 0)
(6.76592e-05 -1.42926e-05 0)
(8.78596e-05 -1.01488e-05 0)
(0.000102307 -6.09733e-06 0)
(0.00011118 -2.18228e-06 0)
(0.000114723 1.54284e-06 0)
(0.000113268 5.01159e-06 0)
(0.000107241 8.14055e-06 0)
(9.71966e-05 1.0823e-05 0)
(8.38372e-05 1.29205e-05 0)
(6.80523e-05 1.42525e-05 0)
(5.09563e-05 1.45866e-05 0)
(3.39038e-05 1.36395e-05 0)
(1.84872e-05 1.10953e-05 0)
(6.73704e-06 6.74489e-06 0)
(1.03596e-06 1.34402e-06 0)
(2.36391e-06 -8.20392e-06 0)
(1.04372e-05 -1.86594e-05 0)
(2.26362e-05 -2.27084e-05 0)
(3.4609e-05 -2.14966e-05 0)
(4.32965e-05 -1.6343e-05 0)
(4.66475e-05 -8.37528e-06 0)
(4.31056e-05 1.5215e-06 0)
(3.15425e-05 1.26791e-05 0)
(1.11982e-05 2.46014e-05 0)
(-1.83968e-05 3.69216e-05 0)
(-5.74859e-05 4.93702e-05 0)
(-0.000106139 6.17485e-05 0)
(-0.000164293 7.39095e-05 0)
(-0.000231779 8.57455e-05 0)
(-0.000308355 9.71783e-05 0)
(-0.000393719 0.000108152 0)
(-0.000487525 0.000118626 0)
(-0.000589399 0.000128576 0)
(-0.000698944 0.000137985 0)
(-0.00081575 0.000146846 0)
(-0.0009394 0.000155157 0)
(-0.00106947 0.000162922 0)
(-0.00120555 0.000170146 0)
(-0.00134721 0.000176839 0)
(-0.00149405 0.000183013 0)
(-0.00164566 0.00018868 0)
(-0.00180165 0.000193856 0)
(-0.00196163 0.000198555 0)
(-0.00212524 0.000202792 0)
(-0.0022921 0.000206582 0)
(-0.00246187 0.000209941 0)
(-0.00263421 0.000212884 0)
(-0.00280879 0.000215425 0)
(-0.00298528 0.000217579 0)
(-0.00316338 0.000219359 0)
(-0.00334279 0.000220778 0)
(-0.00352323 0.000221848 0)
(-0.0037044 0.00022258 0)
(-0.00388604 0.000222984 0)
(-0.00406789 0.000223071 0)
(-0.00424969 0.00022285 0)
(-0.00443118 0.000222329 0)
(-0.00461213 0.000221514 0)
(-0.00479229 0.000220413 0)
(-0.00497143 0.000219032 0)
(-0.00514933 0.000217376 0)
(-0.00532576 0.000215449 0)
(-0.00550049 0.000213255 0)
(-0.00567331 0.000210798 0)
(-0.00584401 0.00020808 0)
(-0.00601236 0.000205104 0)
(-0.00617816 0.000201871 0)
(-0.0063412 0.000198384 0)
(-0.00650126 0.000194642 0)
(-0.00665815 0.000190648 0)
(-0.00681164 0.000186401 0)
(-0.00696155 0.000181904 0)
(-0.00710765 0.000177155 0)
(-0.00724975 0.000172156 0)
(-0.00738764 0.000166906 0)
(-0.00752112 0.000161408 0)
(-0.00764998 0.000155661 0)
(-0.00777404 0.000149667 0)
(-0.00789307 0.000143427 0)
(-0.0080069 0.000136943 0)
(-0.00811531 0.000130217 0)
(-0.00821812 0.000123252 0)
(-0.00831513 0.00011605 0)
(-0.00840616 0.000108615 0)
(-0.00849102 0.000100952 0)
(-0.00856952 9.3066e-05 0)
(-0.0086415 8.49619e-05 0)
(-0.00870678 7.66465e-05 0)
(-0.0087652 6.81268e-05 0)
(-0.00881659 5.9411e-05 0)
(-0.0088608 5.05081e-05 0)
(-0.00889769 4.14277e-05 0)
(-0.00892712 3.21802e-05 0)
(-0.00894897 2.27772e-05 0)
(-0.00896312 1.3231e-05 0)
(-0.00896945 3.55514e-06 0)
(-0.00896788 -6.23582e-06 0)
(-0.00895833 -1.61269e-05 0)
(-0.00894071 -2.6102e-05 0)
(-0.00891498 -3.61442e-05 0)
(-0.00888109 -4.62354e-05 0)
(-0.008839 -5.63571e-05 0)
(-0.00878872 -6.64892e-05 0)
(-0.00873024 -7.66116e-05 0)
(-0.00866358 -8.67033e-05 0)
(-0.00858878 -9.67423e-05 0)
(-0.0085059 -0.000106706 0)
(-0.008415 -0.000116572 0)
(-0.00831617 -0.000126317 0)
(-0.00820954 -0.000135915 0)
(-0.00809522 -0.000145344 0)
(-0.00797338 -0.000154578 0)
(-0.00784417 -0.000163593 0)
(-0.00770778 -0.000172363 0)
(-0.00756443 -0.000180865 0)
(-0.00741434 -0.000189072 0)
(-0.00725776 -0.00019696 0)
(-0.00709497 -0.000204505 0)
(-0.00692623 -0.000211683 0)
(-0.00675187 -0.00021847 0)
(-0.00657221 -0.000224844 0)
(-0.00638758 -0.000230783 0)
(-0.00619835 -0.000236264 0)
(-0.00600489 -0.000241268 0)
(-0.0058076 -0.000245775 0)
(-0.00560688 -0.000249767 0)
(-0.00540314 -0.000253227 0)
(-0.00519684 -0.000256138 0)
(-0.0049884 -0.000258487 0)
(-0.00477828 -0.00026026 0)
(-0.00456696 -0.000261447 0)
(-0.00435491 -0.000262037 0)
(-0.0041426 -0.000262023 0)
(-0.00393052 -0.000261398 0)
(-0.00371916 -0.000260158 0)
(-0.00350902 -0.0002583 0)
(-0.0033006 -0.000255823 0)
(-0.00309437 -0.000252729 0)
(-0.00289084 -0.000249022 0)
(-0.00269049 -0.000244705 0)
(-0.00249382 -0.000239787 0)
(-0.00230128 -0.000234276 0)
(-0.00211336 -0.000228185 0)
(-0.0019305 -0.000221525 0)
(-0.00175316 -0.000214314 0)
(-0.00158176 -0.000206569 0)
(-0.00141673 -0.000198309 0)
(-0.00125846 -0.000189556 0)
(-0.00110732 -0.000180335 0)
(-0.000963696 -0.000170672 0)
(-0.000827904 -0.000160596 0)
(-0.000700262 -0.00015014 0)
(-0.000581053 -0.000139338 0)
(-0.000470529 -0.000128226 0)
(-0.000368914 -0.000116848 0)
(-0.000276391 -0.000105247 0)
(-0.000193108 -9.34735e-05 0)
(-0.000119166 -8.15832e-05 0)
(-5.4621e-05 -6.96379e-05 0)
(5.27486e-07 -5.77074e-05 0)
(4.63392e-05 -4.58712e-05 0)
(8.2943e-05 -3.42212e-05 0)
(0.000110547 -2.28646e-05 0)
(0.000129451 -1.19278e-05 0)
(0.00014006 -1.56181e-06 0)
(0.000142904 8.05078e-06 0)
(0.00013866 1.66873e-05 0)
(0.000128178 2.40732e-05 0)
(0.000112512 2.98696e-05 0)
(9.2953e-05 3.36603e-05 0)
(7.10611e-05 3.49483e-05 0)
(4.86532e-05 3.3176e-05 0)
(2.77709e-05 2.77938e-05 0)
(1.10709e-05 1.84878e-05 0)
(2.08082e-06 6.05416e-06 0)
(2.46378e-06 -1.41199e-05 0)
(1.03993e-05 -2.98084e-05 0)
(2.15121e-05 -3.46674e-05 0)
(3.09557e-05 -3.0922e-05 0)
(3.53632e-05 -2.05945e-05 0)
(3.24255e-05 -5.42141e-06 0)
(2.03508e-05 1.31873e-05 0)
(-2.20224e-06 3.41255e-05 0)
(-3.61721e-05 5.65398e-05 0)
(-8.21642e-05 7.97782e-05 0)
(-0.000140518 0.000103344 0)
(-0.000211359 0.000126861 0)
(-0.000294643 0.000150043 0)
(-0.000390192 0.000172678 0)
(-0.000497724 0.000194606 0)
(-0.000616877 0.000215709 0)
(-0.000747228 0.000235904 0)
(-0.000888309 0.000255131 0)
(-0.00103962 0.000273352 0)
(-0.00120064 0.000290546 0)
(-0.00137082 0.000306702 0)
(-0.00154963 0.00032182 0)
(-0.00173651 0.00033591 0)
(-0.00193093 0.000348984 0)
(-0.00213234 0.000361061 0)
(-0.0023402 0.000372164 0)
(-0.00255399 0.000382316 0)
(-0.00277321 0.000391543 0)
(-0.00299735 0.000399874 0)
(-0.00322592 0.000407335 0)
(-0.00345845 0.000413955 0)
(-0.00369449 0.00041976 0)
(-0.00393358 0.000424779 0)
(-0.00417529 0.000429037 0)
(-0.0044192 0.000432559 0)
(-0.00466491 0.00043537 0)
(-0.00491201 0.000437493 0)
(-0.00516014 0.000438947 0)
(-0.0054089 0.000439755 0)
(-0.00565795 0.000439935 0)
(-0.00590692 0.000439503 0)
(-0.00615548 0.000438475 0)
(-0.00640328 0.000436865 0)
(-0.00665 0.000434688 0)
(-0.00689532 0.000431953 0)
(-0.00713892 0.000428671 0)
(-0.00738049 0.000424851 0)
(-0.00761973 0.000420501 0)
(-0.00785632 0.000415628 0)
(-0.00808999 0.000410236 0)
(-0.00832042 0.000404332 0)
(-0.00854733 0.000397919 0)
(-0.00877042 0.000390999 0)
(-0.00898942 0.000383577 0)
(-0.00920403 0.000375654 0)
(-0.00941396 0.000367231 0)
(-0.00961894 0.000358312 0)
(-0.00981869 0.000348896 0)
(-0.0100129 0.000338987 0)
(-0.0102013 0.000328584 0)
(-0.0103837 0.000317691 0)
(-0.0105597 0.000306309 0)
(-0.0107291 0.00029444 0)
(-0.0108916 0.000282089 0)
(-0.0110469 0.000269259 0)
(-0.0111947 0.000255954 0)
(-0.0113349 0.00024218 0)
(-0.0114671 0.000227945 0)
(-0.0115911 0.000213255 0)
(-0.0117066 0.000198119 0)
(-0.0118135 0.000182547 0)
(-0.0119113 0.000166552 0)
(-0.012 0.000150146 0)
(-0.0120793 0.000133343 0)
(-0.012149 0.00011616 0)
(-0.0122089 9.86143e-05 0)
(-0.0122587 8.07255e-05 0)
(-0.0122983 6.25143e-05 0)
(-0.0123276 4.40036e-05 0)
(-0.0123464 2.52181e-05 0)
(-0.0123545 6.18423e-06 0)
(-0.0123518 -1.30698e-05 0)
(-0.0123382 -3.25141e-05 0)
(-0.0123137 -5.21171e-05 0)
(-0.012278 -7.18453e-05 0)
(-0.0122313 -9.16635e-05 0)
(-0.0121734 -0.000111535 0)
(-0.0121043 -0.000131422 0)
(-0.0120241 -0.000151283 0)
(-0.0119327 -0.000171079 0)
(-0.0118303 -0.000190766 0)
(-0.0117169 -0.000210301 0)
(-0.0115926 -0.000229638 0)
(-0.0114575 -0.000248733 0)
(-0.0113119 -0.000267538 0)
(-0.0111558 -0.000286006 0)
(-0.0109894 -0.00030409 0)
(-0.0108131 -0.00032174 0)
(-0.010627 -0.000338909 0)
(-0.0104315 -0.000355549 0)
(-0.0102269 -0.000371611 0)
(-0.0100134 -0.000387047 0)
(-0.00979151 -0.00040181 0)
(-0.00956157 -0.000415855 0)
(-0.009324 -0.000429134 0)
(-0.00907923 -0.000441605 0)
(-0.00882773 -0.000453224 0)
(-0.00856998 -0.00046395 0)
(-0.0083065 -0.000473743 0)
(-0.00803781 -0.000482566 0)
(-0.00776446 -0.000490384 0)
(-0.00748702 -0.000497163 0)
(-0.00720608 -0.000502874 0)
(-0.00692223 -0.000507487 0)
(-0.00663609 -0.00051098 0)
(-0.00634829 -0.000513329 0)
(-0.00605947 -0.000514516 0)
(-0.00577027 -0.000514526 0)
(-0.00548135 -0.000513346 0)
(-0.00519337 -0.00051097 0)
(-0.00490699 -0.000507391 0)
(-0.00462288 -0.000502608 0)
(-0.0043417 -0.000496625 0)
(-0.00406412 -0.000489448 0)
(-0.00379079 -0.000481088 0)
(-0.00352236 -0.000471559 0)
(-0.00325947 -0.000460879 0)
(-0.00300274 -0.000449071 0)
(-0.00275279 -0.000436162 0)
(-0.00251023 -0.000422182 0)
(-0.00227561 -0.000407168 0)
(-0.00204951 -0.000391156 0)
(-0.00183246 -0.000374193 0)
(-0.00162496 -0.000356325 0)
(-0.0014275 -0.000337606 0)
(-0.00124051 -0.000318093 0)
(-0.00106441 -0.000297851 0)
(-0.000899581 -0.000276947 0)
(-0.000746346 -0.000255457 0)
(-0.000604995 -0.000233463 0)
(-0.000475768 -0.000211056 0)
(-0.000358847 -0.000188334 0)
(-0.000254359 -0.000165409 0)
(-0.000162361 -0.000142402 0)
(-8.28387e-05 -0.000119451 0)
(-1.56972e-05 -9.67139e-05 0)
(3.92517e-05 -7.43689e-05 0)
(8.22998e-05 -5.2623e-05 0)
(0.000113858 -3.17176e-05 0)
(0.00013447 -1.1937e-05 0)
(0.000144839 6.38149e-06 0)
(0.000145841 2.2835e-05 0)
(0.000138559 3.69411e-05 0)
(0.000124306 4.81222e-05 0)
(0.000104653 5.56956e-05 0)
(8.1461e-05 5.88765e-05 0)
(5.68485e-05 5.68127e-05 0)
(3.31739e-05 4.8677e-05 0)
(1.36101e-05 3.38931e-05 0)
(2.66947e-06 1.27527e-05 0)
(2.19176e-06 -1.9566e-05 0)
(8.65586e-06 -3.92539e-05 0)
(1.64662e-05 -4.33818e-05 0)
(2.07573e-05 -3.53386e-05 0)
(1.80748e-05 -1.79063e-05 0)
(5.9869e-06 6.55986e-06 0)
(-1.74136e-05 3.61205e-05 0)
(-5.35777e-05 6.92201e-05 0)
(-0.000103545 0.00010463 0)
(-0.000168007 0.000141384 0)
(-0.000247368 0.000178732 0)
(-0.000341796 0.000216088 0)
(-0.000451263 0.000253003 0)
(-0.000575586 0.000289131 0)
(-0.000714458 0.00032421 0)
(-0.000867473 0.000358042 0)
(-0.00103415 0.000390483 0)
(-0.00121394 0.000421428 0)
(-0.00140627 0.000450808 0)
(-0.00161052 0.000478576 0)
(-0.00182605 0.00050471 0)
(-0.00205221 0.000529202 0)
(-0.00228835 0.000552058 0)
(-0.0025338 0.000573296 0)
(-0.00278791 0.000592938 0)
(-0.00305004 0.000611016 0)
(-0.00331954 0.000627565 0)
(-0.00359578 0.000642623 0)
(-0.00387816 0.000656231 0)
(-0.00416607 0.00066843 0)
(-0.00445892 0.000679262 0)
(-0.00475615 0.000688771 0)
(-0.0050572 0.000696997 0)
(-0.00536153 0.000703982 0)
(-0.00566862 0.000709764 0)
(-0.00597796 0.000714381 0)
(-0.00628905 0.00071787 0)
(-0.00660141 0.000720263 0)
(-0.00691458 0.000721592 0)
(-0.00722809 0.000721888 0)
(-0.0075415 0.000721177 0)
(-0.00785438 0.000719484 0)
(-0.0081663 0.000716833 0)
(-0.00847685 0.000713244 0)
(-0.00878561 0.000708736 0)
(-0.0090922 0.000703325 0)
(-0.00939621 0.000697025 0)
(-0.00969726 0.000689851 0)
(-0.00999496 0.000681812 0)
(-0.0102889 0.000672918 0)
(-0.0105788 0.000663178 0)
(-0.0108643 0.000652599 0)
(-0.0111448 0.000641185 0)
(-0.0114202 0.000628943 0)
(-0.0116901 0.000615876 0)
(-0.011954 0.000601988 0)
(-0.0122116 0.000587283 0)
(-0.0124626 0.000571762 0)
(-0.0127067 0.00055543 0)
(-0.0129433 0.00053829 0)
(-0.0131723 0.000520345 0)
(-0.0133933 0.0005016 0)
(-0.0136059 0.00048206 0)
(-0.0138098 0.00046173 0)
(-0.0140046 0.000440618 0)
(-0.01419 0.000418732 0)
(-0.0143657 0.000396082 0)
(-0.0145314 0.000372679 0)
(-0.0146867 0.000348537 0)
(-0.0148314 0.000323671 0)
(-0.014965 0.000298098 0)
(-0.0150874 0.000271837 0)
(-0.0151982 0.00024491 0)
(-0.0152972 0.000217342 0)
(-0.0153841 0.000189159 0)
(-0.0154587 0.000160391 0)
(-0.0155206 0.00013107 0)
(-0.0155698 0.00010123 0)
(-0.0156059 7.09084e-05 0)
(-0.0156289 4.0147e-05 0)
(-0.0156384 8.98848e-06 0)
(-0.0156345 -2.25211e-05 0)
(-0.0156168 -5.43326e-05 0)
(-0.0155854 -8.63942e-05 0)
(-0.0155402 -0.000118651 0)
(-0.015481 -0.000151047 0)
(-0.0154078 -0.000183521 0)
(-0.0153207 -0.00021601 0)
(-0.0152196 -0.000248452 0)
(-0.0151046 -0.000280777 0)
(-0.0149758 -0.000312917 0)
(-0.0148332 -0.000344802 0)
(-0.014677 -0.000376358 0)
(-0.0145073 -0.000407511 0)
(-0.0143244 -0.000438186 0)
(-0.0141285 -0.000468306 0)
(-0.0139198 -0.000497794 0)
(-0.0136987 -0.000526571 0)
(-0.0134653 -0.00055456 0)
(-0.0132202 -0.000581682 0)
(-0.0129637 -0.00060786 0)
(-0.0126962 -0.000633016 0)
(-0.0124182 -0.000657075 0)
(-0.0121301 -0.000679961 0)
(-0.0118325 -0.0007016 0)
(-0.0115259 -0.000721923 0)
(-0.0112109 -0.000740859 0)
(-0.0108882 -0.000758342 0)
(-0.0105582 -0.000774308 0)
(-0.0102218 -0.000788698 0)
(-0.00987953 -0.000801453 0)
(-0.00953215 -0.000812522 0)
(-0.00918036 -0.000821854 0)
(-0.00882494 -0.000829406 0)
(-0.00846662 -0.000835138 0)
(-0.0081062 -0.000839015 0)
(-0.00774446 -0.000841006 0)
(-0.00738221 -0.000841088 0)
(-0.00702025 -0.000839242 0)
(-0.00665941 -0.000835454 0)
(-0.00630051 -0.000829718 0)
(-0.00594437 -0.000822031 0)
(-0.00559181 -0.000812399 0)
(-0.00524365 -0.000800833 0)
(-0.0049007 -0.00078735 0)
(-0.00456376 -0.000771976 0)
(-0.00423363 -0.000754739 0)
(-0.00391107 -0.000735678 0)
(-0.00359685 -0.000714836 0)
(-0.00329171 -0.000692265 0)
(-0.00299635 -0.000668022 0)
(-0.00271145 -0.000642171 0)
(-0.00243769 -0.000614785 0)
(-0.00217567 -0.000585944 0)
(-0.00192599 -0.000555735 0)
(-0.00168919 -0.000524253 0)
(-0.00146577 -0.000491603 0)
(-0.00125619 -0.000457899 0)
(-0.00106085 -0.000423265 0)
(-0.000880095 -0.000387837 0)
(-0.000714207 -0.000351763 0)
(-0.000563402 -0.000315207 0)
(-0.000427822 -0.00027835 0)
(-0.000307527 -0.000241393 0)
(-0.000202486 -0.000204561 0)
(-0.000112569 -0.000168107 0)
(-3.7534e-05 -0.00013232 0)
(2.29853e-05 -9.75287e-05 0)
(6.94938e-05 -6.41136e-05 0)
(0.000102653 -3.25169e-05 0)
(0.000123302 -3.25479e-06 0)
(0.000132475 2.30674e-05 0)
(0.000131429 4.57396e-05 0)
(0.000121661 6.39316e-05 0)
(0.000104942 7.66851e-05 0)
(8.33352e-05 8.29193e-05 0)
(5.91754e-05 8.14654e-05 0)
(3.50699e-05 7.11513e-05 0)
(1.4587e-05 5.0967e-05 0)
(2.89969e-06 2.03776e-05 0)
(1.70084e-06 -2.3743e-05 0)
(5.76305e-06 -4.53917e-05 0)
(8.5927e-06 -4.67956e-05 0)
(5.68134e-06 -3.24277e-05 0)
(-6.31568e-06 -5.82082e-06 0)
(-2.98474e-05 3.00575e-05 0)
(-6.6844e-05 7.27495e-05 0)
(-0.000118786 0.000120257 0)
(-0.00018675 0.000170971 0)
(-0.000271467 0.000223606 0)
(-0.000373372 0.000277139 0)
(-0.000492653 0.000330762 0)
(-0.000629291 0.000383842 0)
(-0.000783095 0.000435883 0)
(-0.000953737 0.000486503 0)
(-0.00114077 0.00053541 0)
(-0.00134368 0.000582384 0)
(-0.00156184 0.000627266 0)
(-0.00179462 0.000669941 0)
(-0.00204132 0.000710335 0)
(-0.00230121 0.000748404 0)
(-0.00257356 0.000784128 0)
(-0.00285761 0.000817507 0)
(-0.00315262 0.000848558 0)
(-0.00345781 0.000877308 0)
(-0.00377245 0.000903797 0)
(-0.00409578 0.000928068 0)
(-0.00442709 0.000950174 0)
(-0.00476565 0.000970167 0)
(-0.00511075 0.000988105 0)
(-0.00546172 0.00100405 0)
(-0.00581787 0.00101805 0)
(-0.00617856 0.00103017 0)
(-0.00654314 0.00104047 0)
(-0.006911 0.001049 0)
(-0.00728152 0.00105581 0)
(-0.00765412 0.00106095 0)
(-0.00802822 0.00106448 0)
(-0.00840327 0.00106644 0)
(-0.00877872 0.00106687 0)
(-0.00915403 0.0010658 0)
(-0.00952869 0.00106328 0)
(-0.00990218 0.00105934 0)
(-0.010274 0.00105401 0)
(-0.0106437 0.00104731 0)
(-0.0110107 0.00103927 0)
(-0.0113747 0.00102992 0)
(-0.011735 0.00101926 0)
(-0.0120914 0.00100732 0)
(-0.0124432 0.000994112 0)
(-0.0127901 0.000979646 0)
(-0.0131316 0.000963935 0)
(-0.0134673 0.000946986 0)
(-0.0137967 0.000928808 0)
(-0.0141195 0.000909409 0)
(-0.0144351 0.000888793 0)
(-0.0147431 0.000866967 0)
(-0.0150432 0.000843937 0)
(-0.0153349 0.000819706 0)
(-0.0156177 0.000794282 0)
(-0.0158913 0.000767671 0)
(-0.0161552 0.000739879 0)
(-0.0164091 0.000710916 0)
(-0.0166525 0.00068079 0)
(-0.016885 0.000649514 0)
(-0.0171063 0.0006171 0)
(-0.0173158 0.000583565 0)
(-0.0175134 0.000548925 0)
(-0.0176985 0.000513201 0)
(-0.0178708 0.000476417 0)
(-0.0180299 0.000438598 0)
(-0.0181756 0.000399774 0)
(-0.0183074 0.000359978 0)
(-0.0184251 0.000319246 0)
(-0.0185283 0.000277619 0)
(-0.0186167 0.000235139 0)
(-0.0186901 0.000191856 0)
(-0.0187481 0.000147819 0)
(-0.0187907 0.000103086 0)
(-0.0188174 5.77164e-05 0)
(-0.0188282 1.17739e-05 0)
(-0.0188228 -3.46733e-05 0)
(-0.0188012 -8.15531e-05 0)
(-0.0187631 -0.000128789 0)
(-0.0187085 -0.0001763 0)
(-0.0186373 -0.000224004 0)
(-0.0185494 -0.000271811 0)
(-0.018445 -0.00031963 0)
(-0.0183239 -0.000367367 0)
(-0.0181862 -0.000414924 0)
(-0.0180321 -0.000462198 0)
(-0.0178616 -0.000509087 0)
(-0.017675 -0.000555484 0)
(-0.0174723 -0.00060128 0)
(-0.0172539 -0.000646366 0)
(-0.01702 -0.000690629 0)
(-0.016771 -0.000733957 0)
(-0.0165071 -0.000776236 0)
(-0.0162288 -0.000817351 0)
(-0.0159364 -0.00085719 0)
(-0.0156306 -0.000895639 0)
(-0.0153116 -0.000932586 0)
(-0.0149802 -0.000967919 0)
(-0.0146368 -0.00100153 0)
(-0.0142822 -0.00103331 0)
(-0.0139168 -0.00106316 0)
(-0.0135415 -0.00109098 0)
(-0.0131569 -0.00111667 0)
(-0.0127638 -0.00114013 0)
(-0.0123629 -0.00116128 0)
(-0.0119551 -0.00118005 0)
(-0.0115412 -0.00119634 0)
(-0.0111221 -0.00121009 0)
(-0.0106985 -0.00122124 0)
(-0.0102716 -0.00122973 0)
(-0.00984201 -0.0012355 0)
(-0.00941086 -0.00123852 0)
(-0.00897903 -0.00123874 0)
(-0.00854749 -0.00123615 0)
(-0.00811719 -0.00123072 0)
(-0.00768912 -0.00122245 0)
(-0.00726423 -0.00121132 0)
(-0.00684349 -0.00119736 0)
(-0.00642788 -0.00118057 0)
(-0.00601833 -0.00116098 0)
(-0.0056158 -0.00113864 0)
(-0.00522122 -0.00111358 0)
(-0.00483549 -0.00108585 0)
(-0.0044595 -0.00105554 0)
(-0.00409413 -0.0010227 0)
(-0.0037402 -0.00098743 0)
(-0.00339852 -0.000949822 0)
(-0.00306986 -0.000909982 0)
(-0.00275494 -0.00086803 0)
(-0.00245445 -0.000824095 0)
(-0.00216903 -0.000778318 0)
(-0.00189926 -0.000730855 0)
(-0.00164566 -0.000681874 0)
(-0.0014087 -0.00063156 0)
(-0.00118878 -0.000580113 0)
(-0.000986221 -0.000527753 0)
(-0.000801264 -0.000474723 0)
(-0.000634065 -0.000421286 0)
(-0.000484684 -0.00036774 0)
(-0.000353076 -0.000314411 0)
(-0.00023908 -0.000261666 0)
(-0.000142408 -0.000209922 0)
(-6.26343e-05 -0.000159648 0)
(8.25263e-07 -0.000111382 0)
(4.87245e-05 -6.57398e-05 0)
(8.20076e-05 -2.34324e-05 0)
(0.000101827 1.4719e-05 0)
(0.000109566 4.77666e-05 0)
(0.000106854 7.46211e-05 0)
(9.55972e-05 9.40429e-05 0)
(7.80013e-05 0.000104645 0)
(5.65574e-05 0.000104916 0)
(3.40629e-05 9.32784e-05 0)
(1.43399e-05 6.81828e-05 0)
(2.8781e-06 2.81682e-05 0)
(1.0838e-06 -2.6184e-05 0)
(2.11532e-06 -4.70629e-05 0)
(-1.26522e-06 -4.33234e-05 0)
(-1.29381e-05 -2.03487e-05 0)
(-3.59848e-05 1.76364e-05 0)
(-7.27817e-05 6.70898e-05 0)
(-0.000125205 0.000125062 0)
(-0.0001947 0.000189128 0)
(-0.000282329 0.00025731 0)
(-0.000388815 0.000328003 0)
(-0.000514594 0.000399912 0)
(-0.000659851 0.000471998 0)
(-0.000824559 0.000543433 0)
(-0.00100851 0.000613561 0)
(-0.00121136 0.00068187 0)
(-0.00143263 0.000747961 0)
(-0.00167174 0.000811529 0)
(-0.00192805 0.000872348 0)
(-0.00220084 0.000930254 0)
(-0.00248935 0.000985134 0)
(-0.00279279 0.00103692 0)
(-0.00311035 0.00108557 0)
(-0.00344118 0.00113107 0)
(-0.00378444 0.00117345 0)
(-0.0041393 0.00121273 0)
(-0.00450491 0.00124895 0)
(-0.00488044 0.00128216 0)
(-0.00526505 0.00131244 0)
(-0.00565795 0.00133985 0)
(-0.00605833 0.00136445 0)
(-0.00646542 0.00138633 0)
(-0.00687843 0.00140556 0)
(-0.00729664 0.00142221 0)
(-0.00771931 0.00143636 0)
(-0.00814572 0.00144809 0)
(-0.00857518 0.00145745 0)
(-0.00900702 0.00146452 0)
(-0.00944057 0.00146936 0)
(-0.00987518 0.00147203 0)
(-0.0103102 0.00147259 0)
(-0.0107451 0.00147109 0)
(-0.0111792 0.00146758 0)
(-0.0116119 0.0014621 0)
(-0.0120426 0.0014547 0)
(-0.0124709 0.0014454 0)
(-0.012896 0.00143425 0)
(-0.0133175 0.00142127 0)
(-0.0137349 0.00140648 0)
(-0.0141475 0.00138992 0)
(-0.0145549 0.0013716 0)
(-0.0149566 0.00135154 0)
(-0.0153519 0.00132976 0)
(-0.0157405 0.00130626 0)
(-0.0161218 0.00128106 0)
(-0.0164953 0.00125417 0)
(-0.0168605 0.0012256 0)
(-0.0172169 0.00119536 0)
(-0.017564 0.00116345 0)
(-0.0179013 0.00112989 0)
(-0.0182283 0.00109468 0)
(-0.0185446 0.00105784 0)
(-0.0188497 0.00101937 0)
(-0.019143 0.000979288 0)
(-0.0194242 0.000937609 0)
(-0.0196928 0.000894348 0)
(-0.0199483 0.000849526 0)
(-0.0201902 0.000803165 0)
(-0.0204182 0.00075529 0)
(-0.0206317 0.000705931 0)
(-0.0208304 0.00065512 0)
(-0.0210139 0.000602896 0)
(-0.0211817 0.000549298 0)
(-0.0213335 0.000494374 0)
(-0.0214689 0.000438174 0)
(-0.0215875 0.000380753 0)
(-0.0216891 0.000322174 0)
(-0.0217733 0.000262503 0)
(-0.0218397 0.00020181 0)
(-0.0218882 0.000140173 0)
(-0.0219185 7.76758e-05 0)
(-0.0219303 1.44056e-05 0)
(-0.0219235 -4.95434e-05 0)
(-0.0218979 -0.000114072 0)
(-0.0218534 -0.000179074 0)