0.05 	0.0003125 	0.005 	0.0325889
0.05 	0.0009375 	0.005 	0.0326317
0.05 	0.0015625 	0.005 	0.0326665
0.05 	0.0021875 	0.005 	0.0326959
0.05 	0.0028125 	0.005 	0.0327228
0.05 	0.0034375 	0.005 	0.0327471
0.05 	0.0040625 	0.005 	0.0327685
0.05 	0.0046875 	0.005 	0.032787
0.05 	0.0053125 	0.005 	0.0328024
0.05 	0.0059375 	0.005 	0.0328148
0.05 	0.0065625 	0.005 	0.0328238
0.05 	0.0071875 	0.005 	0.0328294
0.05 	0.0078125 	0.005 	0.0328314
0.05 	0.0084375 	0.005 	0.0328296
0.05 	0.0090625 	0.005 	0.0328238
0.05 	0.0096875 	0.005 	0.0328137
0.05 	0.0103125 	0.005 	0.0327992
0.05 	0.0109375 	0.005 	0.03278
0.05 	0.0115625 	0.005 	0.0327558
0.05 	0.0121875 	0.005 	0.0327263
0.05 	0.0128125 	0.005 	0.0326912
0.05 	0.0134375 	0.005 	0.0326503
0.05 	0.0140625 	0.005 	0.0326031
0.05 	0.0146875 	0.005 	0.0325495
0.05 	0.0153125 	0.005 	0.032489
0.05 	0.0159375 	0.005 	0.0324212
0.05 	0.0165625 	0.005 	0.0323459
0.05 	0.0171875 	0.005 	0.0322626
0.05 	0.0178125 	0.005 	0.0321709
0.05 	0.0184375 	0.005 	0.0320704
0.05 	0.0190625 	0.005 	0.0319606
0.05 	0.0196875 	0.005 	0.0318412
0.05 	0.0203125 	0.005 	0.0317116
0.05 	0.0209375 	0.005 	0.0315714
0.05 	0.0215625 	0.005 	0.0314201
0.05 	0.0221875 	0.005 	0.0312571
0.05 	0.0228125 	0.005 	0.031082
0.05 	0.0234375 	0.005 	0.0308941
0.05 	0.0240625 	0.005 	0.030693
0.05 	0.0246875 	0.005 	0.0304781
0.05 	0.0253125 	0.005 	0.0302487
0.05 	0.0259375 	0.005 	0.0300043
0.05 	0.0265625 	0.005 	0.0297442
0.05 	0.0271875 	0.005 	0.0294678
0.05 	0.0278125 	0.005 	0.0291745
0.05 	0.0284375 	0.005 	0.0288635
0.05 	0.0290625 	0.005 	0.0285342
0.05 	0.0296875 	0.005 	0.0281858
0.05 	0.0303125 	0.005 	0.0278177
0.05 	0.0309375 	0.005 	0.0274291
0.05 	0.0315625 	0.005 	0.0270193
0.05 	0.0321875 	0.005 	0.0265875
0.05 	0.0328125 	0.005 	0.026133
0.05 	0.0334375 	0.005 	0.025655
0.05 	0.0340625 	0.005 	0.0251526
0.05 	0.0346875 	0.005 	0.0246252
0.05 	0.0353125 	0.005 	0.0240719
0.05 	0.0359375 	0.005 	0.023492
0.05 	0.0365625 	0.005 	0.0228846
0.05 	0.0371875 	0.005 	0.0222489
0.05 	0.0378125 	0.005 	0.0215842
0.05 	0.0384375 	0.005 	0.0208897
0.05 	0.0390625 	0.005 	0.0201646
0.05 	0.0396875 	0.005 	0.0194081
0.05 	0.0403125 	0.005 	0.0186195
0.05 	0.0409375 	0.005 	0.017798
0.05 	0.0415625 	0.005 	0.0169431
0.05 	0.0421875 	0.005 	0.0160539
0.05 	0.0428125 	0.005 	0.0151299
0.05 	0.0434375 	0.005 	0.0141705
0.05 	0.0440625 	0.005 	0.013175
0.05 	0.0446875 	0.005 	0.0121431
0.05 	0.0453125 	0.005 	0.0110741
0.05 	0.0459375 	0.005 	0.00996764
0.05 	0.0465625 	0.005 	0.00882346
0.05 	0.0471875 	0.005 	0.00764125
0.05 	0.0478125 	0.005 	0.00642082
0.05 	0.0484375 	0.005 	0.00516206
0.05 	0.0490625 	0.005 	0.00386491
0.05 	0.0496875 	0.005 	0.00252942
0.05 	0.0503125 	0.005 	0.00115573
0.05 	0.0509375 	0.005 	-0.000255908
0.05 	0.0515625 	0.005 	-0.00170509
0.05 	0.0521875 	0.005 	-0.00319129
0.05 	0.0528125 	0.005 	-0.00471385
0.05 	0.0534375 	0.005 	-0.00627199
0.05 	0.0540625 	0.005 	-0.00786483
0.05 	0.0546875 	0.005 	-0.0094913
0.05 	0.0553125 	0.005 	-0.0111502
0.05 	0.0559375 	0.005 	-0.0128402
0.05 	0.0565625 	0.005 	-0.0145596
0.05 	0.0571875 	0.005 	-0.0163068
0.05 	0.0578125 	0.005 	-0.0180797
0.05 	0.0584375 	0.005 	-0.0198764
0.05 	0.0590625 	0.005 	-0.0216945
0.05 	0.0596875 	0.005 	-0.0235315
0.05 	0.0603125 	0.005 	-0.0253848
0.05 	0.0609375 	0.005 	-0.0272516
0.05 	0.0615625 	0.005 	-0.0291287
0.05 	0.0621875 	0.005 	-0.0310128
0.05 	0.0628125 	0.005 	-0.0329006
0.05 	0.0634375 	0.005 	-0.0347882
0.05 	0.0640625 	0.005 	-0.036672
0.05 	0.0646875 	0.005 	-0.0385478
0.05 	0.0653125 	0.005 	-0.0404115
0.05 	0.0659375 	0.005 	-0.0422587
0.05 	0.0665625 	0.005 	-0.044085
0.05 	0.0671875 	0.005 	-0.0458855
0.05 	0.0678125 	0.005 	-0.0476557
0.05 	0.0684375 	0.005 	-0.0493906
0.05 	0.0690625 	0.005 	-0.0510851
0.05 	0.0696875 	0.005 	-0.0527344
0.05 	0.0703125 	0.005 	-0.0543334
0.05 	0.0709375 	0.005 	-0.0558769
0.05 	0.0715625 	0.005 	-0.05736
0.05 	0.0721875 	0.005 	-0.0587775
0.05 	0.0728125 	0.005 	-0.0601246
0.05 	0.0734375 	0.005 	-0.0613964
0.05 	0.0740625 	0.005 	-0.0625882
0.05 	0.0746875 	0.005 	-0.0636956
0.05 	0.0753125 	0.005 	-0.0647143
0.05 	0.0759375 	0.005 	-0.0656402
0.05 	0.0765625 	0.005 	-0.0664698
0.05 	0.0771875 	0.005 	-0.0671996
0.05 	0.0778125 	0.005 	-0.0678267
0.05 	0.0784375 	0.005 	-0.0683486
0.05 	0.0790625 	0.005 	-0.0687631
0.05 	0.0796875 	0.005 	-0.0690688
0.05 	0.0803125 	0.005 	-0.0692646
0.05 	0.0809375 	0.005 	-0.0693501
0.05 	0.0815625 	0.005 	-0.0693254
0.05 	0.0821875 	0.005 	-0.0691913
0.05 	0.0828125 	0.005 	-0.0689493
0.05 	0.0834375 	0.005 	-0.0686015
0.05 	0.0840625 	0.005 	-0.0681506
0.05 	0.0846875 	0.005 	-0.0676002
0.05 	0.0853125 	0.005 	-0.0669544
0.05 	0.0859375 	0.005 	-0.0662181
0.05 	0.0865625 	0.005 	-0.0653968
0.05 	0.0871875 	0.005 	-0.0644967
0.05 	0.0878125 	0.005 	-0.0635245
0.05 	0.0884375 	0.005 	-0.0624876
0.05 	0.0890625 	0.005 	-0.0613937
0.05 	0.0896875 	0.005 	-0.0602514
0.05 	0.0903125 	0.005 	-0.0590692
0.05 	0.0909375 	0.005 	-0.0578563
0.05 	0.0915625 	0.005 	-0.0566219
0.05 	0.0921875 	0.005 	-0.0553754
0.05 	0.0928125 	0.005 	-0.0541266
0.05 	0.0934375 	0.005 	-0.0528847
0.05 	0.0940625 	0.005 	-0.0516592
0.05 	0.0946875 	0.005 	-0.0504593
0.05 	0.0953125 	0.005 	-0.0492936
0.05 	0.0959375 	0.005 	-0.0481705
0.05 	0.0965625 	0.005 	-0.0470975
0.05 	0.0971875 	0.005 	-0.0460813
0.05 	0.0978125 	0.005 	-0.0451318
0.05 	0.0984375 	0.005 	-0.0442581
0.05 	0.0990625 	0.005 	-0.0434137
0.05 	0.0996875 	0.005 	-0.0425509
