/*--------------------------------*- C++ -*----------------------------------*\
  =========                 |
  \\      /  F ield         | OpenFOAM: The Open Source CFD Toolbox
   \\    /   O peration     | Website:  https://openfoam.org
    \\  /    A nd           | Version:  7
     \\/     M anipulation  |
\*---------------------------------------------------------------------------*/
FoamFile
{
    version     2.0;
    format      ascii;
    class       surfaceScalarField;
    location    "0.025";
    object      phi;
}
// * * * * * * * * * * * * * * * * * * * * * * * * * * * * * * * * * * * * * //

dimensions      [0 3 -1 0 0 0 0];

internalField   nonuniform List<scalar> 
50880
(
1.43611e-11
-1.43885e-11
1.93109e-11
-4.94875e-12
2.00364e-11
-7.23543e-13
4.8704e-12
1.51677e-11
-2.66119e-11
3.14822e-11
-7.52243e-11
4.86115e-11
-1.40511e-10
6.52877e-11
-2.21293e-10
8.07814e-11
-3.15947e-10
9.46539e-11
-4.22738e-10
1.06791e-10
-5.39978e-10
1.1724e-10
-6.66069e-10
1.2609e-10
-7.99553e-10
1.33485e-10
-9.391e-10
1.39548e-10
-1.08352e-09
1.44424e-10
-1.23178e-09
1.48255e-10
-1.38295e-09
1.51173e-10
-1.53626e-09
1.533e-10
-1.69102e-09
1.54764e-10
-1.84668e-09
1.55657e-10
-2.00275e-09
1.56071e-10
-2.15884e-09
1.56089e-10
-2.31461e-09
1.55773e-10
-2.46978e-09
1.55167e-10
-2.6241e-09
1.54322e-10
-2.77738e-09
1.53283e-10
-2.92946e-09
1.52077e-10
-3.08018e-09
1.5073e-10
-3.22946e-09
1.49279e-10
-3.3772e-09
1.47743e-10
-3.52332e-09
1.46116e-10
-3.66771e-09
1.4439e-10
-3.81029e-09
1.4258e-10
-3.951e-09
1.4071e-10
-4.08979e-09
1.38789e-10
-4.2266e-09
1.3681e-10
-4.36137e-09
1.34771e-10
-4.49405e-09
1.32675e-10
-4.62457e-09
1.30521e-10
-4.75288e-09
1.28309e-10
-4.87892e-09
1.26041e-10
-5.00264e-09
1.23724e-10
-5.124e-09
1.21361e-10
-5.24295e-09
1.18946e-10
-5.35942e-09
1.16472e-10
-5.47336e-09
1.13944e-10
-5.58474e-09
1.11372e-10
-5.6935e-09
1.0876e-10
-5.7996e-09
1.06102e-10
-5.90299e-09
1.0339e-10
-6.00362e-09
1.00627e-10
-6.10145e-09
9.78264e-11
-6.19644e-09
9.49921e-11
-6.28856e-09
9.2122e-11
-6.37776e-09
8.9209e-11
-6.46401e-09
8.62471e-11
-6.54725e-09
8.32372e-11
-6.62744e-09
8.0189e-11
-6.70455e-09
7.71114e-11
-6.77856e-09
7.4004e-11
-6.84942e-09
7.08584e-11
-6.91708e-09
6.76698e-11
-6.98152e-09
6.44427e-11
-7.04271e-09
6.11853e-11
-7.10061e-09
5.79012e-11
-7.1552e-09
5.45879e-11
-7.20644e-09
5.12429e-11
-7.25431e-09
4.78686e-11
-7.29878e-09
4.44699e-11
-7.33983e-09
4.10502e-11
-7.37744e-09
3.76084e-11
-7.41158e-09
3.4142e-11
-7.44223e-09
3.06506e-11
-7.46937e-09
2.71379e-11
-7.49298e-09
2.36102e-11
-7.51305e-09
2.00732e-11
-7.52958e-09
1.65276e-11
-7.54255e-09
1.29708e-11
-7.55194e-09
9.40039e-12
-7.55776e-09
5.81754e-12
-7.55999e-09
2.22769e-12
-7.55863e-09
-1.364e-12
-7.55367e-09
-4.9564e-12
-7.54512e-09
-8.55161e-12
-7.53297e-09
-1.21519e-11
-7.51721e-09
-1.57573e-11
-7.49784e-09
-1.9365e-11
-7.47487e-09
-2.2972e-11
-7.44829e-09
-2.65766e-11
-7.41811e-09
-3.01778e-11
-7.38434e-09
-3.37742e-11
-7.34697e-09
-3.73651e-11
-7.30602e-09
-4.09496e-11
-7.2615e-09
-4.45258e-11
-7.21341e-09
-4.80914e-11
-7.16176e-09
-5.16437e-11
-7.10658e-09
-5.51792e-11
-7.04789e-09
-5.86958e-11
-6.98569e-09
-6.21921e-11
-6.92003e-09
-6.56664e-11
-6.85091e-09
-6.91177e-11
-6.77836e-09
-7.25448e-11
-6.70242e-09
-7.59444e-11
-6.62311e-09
-7.93135e-11
-6.54046e-09
-8.26494e-11
-6.45451e-09
-8.59502e-11
-6.36529e-09
-8.92154e-11
-6.27285e-09
-9.24452e-11
-6.17721e-09
-9.56378e-11
-6.07842e-09
-9.87912e-11
-5.97652e-09
-1.01903e-10
-5.87155e-09
-1.04972e-10
-5.76355e-09
-1.07994e-10
-5.65258e-09
-1.1097e-10
-5.53868e-09
-1.13899e-10
-5.4219e-09
-1.16782e-10
-5.30229e-09
-1.19617e-10
-5.17988e-09
-1.22404e-10
-5.05474e-09
-1.25142e-10
-4.92692e-09
-1.27827e-10
-4.79646e-09
-1.30459e-10
-4.66342e-09
-1.33036e-10
-4.52787e-09
-1.35555e-10
-4.38986e-09
-1.38015e-10
-4.24944e-09
-1.40414e-10
-4.10669e-09
-1.42748e-10
-3.96168e-09
-1.45014e-10
-3.81447e-09
-1.47205e-10
-3.66516e-09
-1.49316e-10
-3.51382e-09
-1.51338e-10
-3.36056e-09
-1.53265e-10
-3.20547e-09
-1.55085e-10
-3.04869e-09
-1.56786e-10
-2.89034e-09
-1.5835e-10
-2.73058e-09
-1.59754e-10
-2.56961e-09
-1.60971e-10
-2.40764e-09
-1.61967e-10
-2.24494e-09
-1.62702e-10
-2.08181e-09
-1.63126e-10
-1.91863e-09
-1.63185e-10
-1.75582e-09
-1.62812e-10
-1.59389e-09
-1.61931e-10
-1.43343e-09
-1.60452e-10
-1.27515e-09
-1.58279e-10
-1.11986e-09
-1.55297e-10
-9.68471e-10
-1.51385e-10
-8.22063e-10
-1.46408e-10
-6.8184e-10
-1.40223e-10
-5.49163e-10
-1.32678e-10
-4.25543e-10
-1.2362e-10
-3.12645e-10
-1.12898e-10
-2.12263e-10
-1.00382e-10
-1.26289e-10
-8.59737e-11
-5.66396e-11
-6.96498e-11
-5.10562e-12
-5.15329e-11
2.69352e-11
-3.20404e-11
3.90829e-11
-1.2148e-11
3.30115e-11
6.07213e-12
1.49216e-11
1.80897e-11
1.49221e-11
3.05816e-11
-4.49689e-11
4.08012e-11
-1.51738e-11
1.31121e-11
2.6966e-11
-5.30647e-11
8.13438e-11
-1.62831e-10
1.4125e-10
-3.16643e-10
2.02424e-10
-5.12979e-10
2.61623e-10
-7.48947e-10
3.1675e-10
-1.02091e-09
3.66614e-10
-1.32485e-09
4.1073e-10
-1.65667e-09
4.4907e-10
-2.01245e-09
4.81869e-10
-2.38845e-09
5.09481e-10
-2.78124e-09
5.32337e-10
-3.18772e-09
5.50911e-10
-3.60512e-09
5.65659e-10
-4.03099e-09
5.77041e-10
-4.46319e-09
5.85497e-10
-4.89985e-09
5.91424e-10
-5.33937e-09
5.9518e-10
-5.7804e-09
5.97099e-10
-6.22178e-09
5.97465e-10
-6.66251e-09
5.96507e-10
-7.10178e-09
5.9443e-10
-7.53888e-09
5.91422e-10
-7.97324e-09
5.87637e-10
-8.40436e-09
5.83192e-10
-8.83182e-09
5.78188e-10
-9.25526e-09
5.7272e-10
-9.67438e-09
5.66855e-10
-1.00889e-08
5.60624e-10
-1.04985e-08
5.54051e-10
-1.09031e-08
5.47176e-10
-1.13025e-08
5.40038e-10
-1.16963e-08
5.32656e-10
-1.20846e-08
5.25033e-10
-1.2467e-08
5.17178e-10
-1.28434e-08
5.09103e-10
-1.32137e-08
5.00812e-10
-1.35777e-08
4.92305e-10
-1.39352e-08
4.83587e-10
-1.42862e-08
4.7467e-10
-1.46304e-08
4.65561e-10
-1.49677e-08
4.56254e-10
-1.5298e-08
4.46745e-10
-1.56211e-08
4.37039e-10
-1.59368e-08
4.27149e-10
-1.62451e-08
4.17082e-10
-1.65459e-08
4.06838e-10
-1.68389e-08
3.96411e-10
-1.71241e-08
3.85809e-10
-1.74013e-08
3.75044e-10
-1.76704e-08
3.64125e-10
-1.79314e-08
3.53053e-10
-1.8184e-08
3.41822e-10
-1.84282e-08
3.30428e-10
-1.86638e-08
3.18876e-10
-1.88908e-08
3.07175e-10
-1.9109e-08
2.95334e-10
-1.93184e-08
2.83355e-10
-1.95187e-08
2.71239e-10
-1.97101e-08
2.58988e-10
-1.98922e-08
2.46606e-10
-2.00651e-08
2.34102e-10
-2.02287e-08
2.21485e-10
-2.03829e-08
2.08756e-10
-2.05276e-08
1.95918e-10
-2.06627e-08
1.82977e-10
-2.07882e-08
1.6994e-10
-2.09039e-08
1.56814e-10
-2.10099e-08
1.43602e-10
-2.11061e-08
1.30304e-10
-2.11923e-08
1.16927e-10
-2.12687e-08
1.03478e-10
-2.1335e-08
8.99664e-11
-2.13914e-08
7.64033e-11
-2.14376e-08
6.27946e-11
-2.14738e-08
4.91436e-11
-2.14999e-08
3.54537e-11
-2.15158e-08
2.17295e-11
-2.15215e-08
7.97792e-12
-2.15171e-08
-5.79372e-12
-2.15025e-08
-1.95805e-11
-2.14776e-08
-3.33798e-11
-2.14426e-08
-4.71898e-11
-2.13973e-08
-6.10073e-11
-2.13419e-08
-7.48278e-11
-2.12762e-08
-8.86454e-11
-2.12003e-08
-1.02454e-10
-2.11143e-08
-1.16249e-10
-2.1018e-08
-1.30023e-10
-2.09116e-08
-1.4377e-10
-2.07951e-08
-1.57486e-10
-2.06684e-08
-1.71163e-10
-2.05317e-08
-1.84795e-10
-2.0385e-08
-1.98373e-10
-2.02283e-08
-2.1189e-10
-2.00616e-08
-2.25337e-10
-1.98851e-08
-2.38706e-10
-1.96988e-08
-2.51992e-10
-1.95027e-08
-2.65186e-10
-1.9297e-08
-2.78282e-10
-1.90817e-08
-2.91273e-10
-1.88568e-08
-3.04151e-10
-1.86226e-08
-3.16906e-10
-1.8379e-08
-3.29534e-10
-1.81262e-08
-3.42028e-10
-1.78642e-08
-3.54382e-10
-1.75933e-08
-3.66591e-10
-1.73134e-08
-3.7865e-10
-1.70248e-08
-3.90551e-10
-1.67275e-08
-4.02288e-10
-1.64216e-08
-4.13855e-10
-1.61073e-08
-4.25247e-10
-1.57848e-08
-4.36458e-10
-1.54541e-08
-4.47487e-10
-1.51154e-08
-4.58329e-10
-1.47688e-08
-4.6898e-10
-1.44145e-08
-4.79437e-10
-1.40526e-08
-4.89693e-10
-1.36833e-08
-4.99741e-10
-1.33068e-08
-5.09574e-10
-1.29232e-08
-5.19183e-10
-1.25326e-08
-5.28559e-10
-1.21354e-08
-5.37688e-10
-1.17316e-08
-5.46559e-10
-1.13214e-08
-5.55157e-10
-1.09052e-08
-5.63461e-10
-1.0483e-08
-5.71446e-10
-1.00553e-08
-5.79083e-10
-9.62221e-09
-5.86337e-10
-9.18413e-09
-5.93162e-10
-8.74142e-09
-5.99503e-10
-8.29447e-09
-6.0529e-10
-7.84379e-09
-6.10436e-10
-7.38993e-09
-6.14834e-10
-6.93354e-09
-6.18356e-10
-6.47539e-09
-6.20847e-10
-6.01639e-09
-6.22124e-10
-5.55761e-09
-6.21973e-10
-5.10027e-09
-6.20145e-10
-4.64584e-09
-6.16357e-10
-4.19601e-09
-6.10286e-10
-3.75272e-09
-6.01573e-10
-3.31819e-09
-5.89818e-10
-2.89499e-09
-5.7459e-10
-2.48597e-09
-5.55423e-10
-2.09436e-09
-5.31835e-10
-1.72371e-09
-5.03335e-10
-1.37788e-09
-4.69446e-10
-1.06104e-09
-4.29743e-10
-7.77511e-10
-3.83906e-10
-5.3168e-10
-3.31804e-10
-3.27692e-10
-2.73638e-10
-1.69042e-10
-2.10182e-10
-5.78752e-11
-1.43208e-10
6.17495e-12
-7.61971e-11
2.77526e-11
-1.55067e-11
1.81186e-11
2.77243e-11
3.30382e-11
1.23495e-11
-5.73165e-11
1.58152e-12
-4.40836e-12
-6.52537e-11
9.38021e-11
-1.94224e-10
2.10315e-10
-3.88846e-10
3.3587e-10
-6.49209e-10
4.62787e-10
-9.72834e-10
5.85248e-10
-1.35557e-09
6.99483e-10
-1.79226e-09
8.03305e-10
-2.27725e-09
8.95715e-10
-2.8047e-09
9.76526e-10
-3.3689e-09
1.04607e-09
-3.96441e-09
1.10498e-09
-4.58613e-09
1.15406e-09
-5.22942e-09
1.1942e-09
-5.89007e-09
1.22632e-09
-6.56436e-09
1.25133e-09
-7.24896e-09
1.2701e-09
-7.94099e-09
1.28345e-09
-8.63794e-09
1.29213e-09
-9.33764e-09
1.2968e-09
-1.00382e-08
1.29806e-09
-1.07382e-08
1.29642e-09
-1.1436e-08
1.29232e-09
-1.21308e-08
1.28615e-09
-1.28213e-08
1.27822e-09
-1.3507e-08
1.26882e-09
-1.41869e-08
1.25816e-09
-1.48607e-08
1.24644e-09
-1.55276e-08
1.23378e-09
-1.61873e-08
1.22029e-09
-1.68393e-08
1.20606e-09
-1.74832e-08
1.19116e-09
-1.81189e-08
1.17565e-09
-1.87458e-08
1.15959e-09
-1.93638e-08
1.14299e-09
-1.99725e-08
1.12587e-09
-2.05716e-08
1.10827e-09
-2.1161e-08
1.09019e-09
-2.17403e-08
1.07164e-09
-2.23094e-08
1.05264e-09
-2.28679e-08
1.0332e-09
-2.34157e-08
1.01332e-09
-2.39524e-08
9.93009e-10
-2.4478e-08
9.72271e-10
-2.4992e-08
9.51113e-10
-2.54944e-08
9.29549e-10
-2.59849e-08
9.0759e-10
-2.64633e-08
8.85239e-10
-2.69294e-08
8.62499e-10
-2.7383e-08
8.39384e-10
-2.78239e-08
8.15907e-10
-2.82518e-08
7.9208e-10
-2.86667e-08
7.67906e-10
-2.90682e-08
7.43386e-10
-2.94563e-08
7.18523e-10
-2.98308e-08
6.93329e-10
-3.01914e-08
6.67815e-10
-3.05381e-08
6.41994e-10
-3.08706e-08
6.1587e-10
-3.11888e-08
5.89452e-10
-3.14926e-08
5.62747e-10
-3.17817e-08
5.35768e-10
-3.20562e-08
5.0853e-10
-3.23157e-08
4.81044e-10
-3.25603e-08
4.53319e-10
-3.27897e-08
4.25364e-10
-3.30039e-08
3.9719e-10
-3.32028e-08
3.6881e-10
-3.33862e-08
3.40235e-10
-3.35541e-08
3.11476e-10
-3.37063e-08
2.82539e-10
-3.38428e-08
2.53435e-10
-3.39635e-08
2.24181e-10
-3.40684e-08
1.94793e-10
-3.41573e-08
1.65285e-10
-3.42301e-08
1.3567e-10
-3.42869e-08
1.0596e-10
-3.43277e-08
7.61662e-11
-3.43522e-08
4.63001e-11
-3.43606e-08
1.63746e-11
-3.43528e-08
-1.35982e-11
-3.43288e-08
-4.36083e-11
-3.42885e-08
-7.36468e-11
-3.4232e-08
-1.03705e-10
-3.41592e-08
-1.33773e-10
-3.40702e-08
-1.6384e-10
-3.3965e-08
-1.93894e-10
-3.38435e-08
-2.23923e-10
-3.37058e-08
-2.53914e-10
-3.3552e-08
-2.83854e-10
-3.33821e-08
-3.13731e-10
-3.3196e-08
-3.4353e-10
-3.29939e-08
-3.73239e-10
-3.27759e-08
-4.02844e-10
-3.25419e-08
-4.32328e-10
-3.22921e-08
-4.61676e-10
-3.20266e-08
-4.90871e-10
-3.17454e-08
-5.19897e-10
-3.14487e-08
-5.48741e-10
-3.11365e-08
-5.77387e-10
-3.08089e-08
-6.05821e-10
-3.04662e-08
-6.34026e-10
-3.01083e-08
-6.61987e-10
-2.97356e-08
-6.89689e-10
-2.9348e-08
-7.17116e-10
-2.89457e-08
-7.44256e-10
-2.8529e-08
-7.71094e-10
-2.8098e-08
-7.97619e-10
-2.76528e-08
-8.23817e-10
-2.71937e-08
-8.49674e-10
-2.67208e-08
-8.75176e-10
-2.62344e-08
-9.0031e-10
-2.57346e-08
-9.25064e-10
-2.52216e-08
-9.49427e-10
-2.46957e-08
-9.73387e-10
-2.41571e-08
-9.96937e-10
-2.3606e-08
-1.02007e-09
-2.30427e-08
-1.04276e-09
-2.24674e-08
-1.06502e-09
-2.18803e-08
-1.08681e-09
-2.12817e-08
-1.10812e-09
-2.0672e-08
-1.12894e-09
-2.00513e-08
-1.14924e-09
-1.942e-08
-1.16899e-09
-1.87784e-08
-1.18818e-09
-1.81268e-08
-1.20675e-09
-1.74656e-08
-1.22466e-09
-1.67952e-08
-1.24187e-09
-1.6116e-08
-1.2583e-09
-1.54284e-08
-1.27388e-09
-1.47331e-08
-1.28849e-09
-1.40306e-08
-1.30202e-09
-1.33216e-08
-1.3143e-09
-1.26068e-08
-1.32515e-09
-1.18874e-08
-1.33433e-09
-1.11641e-08
-1.34156e-09
-1.04385e-08
-1.34651e-09
-9.71182e-09
-1.34879e-09
-8.98586e-09
-1.34793e-09
-8.26258e-09
-1.34342e-09
-7.54429e-09
-1.33465e-09
-6.83362e-09
-1.32096e-09
-6.13361e-09
-1.30158e-09
-5.44772e-09
-1.27571e-09
-4.77983e-09
-1.24248e-09
-4.13431e-09
-1.20094e-09
-3.51598e-09
-1.15017e-09
-2.9301e-09
-1.08921e-09
-2.38233e-09
-1.01722e-09
-1.87863e-09
-9.33449e-10
-1.42508e-09
-8.37457e-10
-1.02765e-09
-7.29227e-10
-6.91826e-10
-6.09465e-10
-4.21973e-10
-4.80036e-10
-2.20533e-10
-3.44649e-10
-8.67844e-11
-2.09947e-10
-1.5283e-11
-8.70092e-11
6.16253e-12
6.27762e-12
3.92004e-11
-6.47714e-12
-5.08361e-11
-5.99294e-11
4.90414e-11
-1.83975e-10
2.17848e-10
-3.87435e-10
4.13776e-10
-6.73661e-10
6.22097e-10
-1.04233e-09
8.31455e-10
-1.49035e-09
1.03327e-09
-2.01274e-09
1.22188e-09
-2.60338e-09
1.39394e-09
-3.25544e-09
1.54778e-09
-3.96188e-09
1.68296e-09
-4.71568e-09
1.79988e-09
-5.5101e-09
1.8994e-09
-6.33878e-09
1.98275e-09
-7.19587e-09
2.05129e-09
-8.07603e-09
2.10647e-09
-8.97443e-09
2.14973e-09
-9.88682e-09
2.18248e-09
-1.08094e-08
2.20604e-09
-1.17389e-08
2.22161e-09
-1.26724e-08
2.23032e-09
-1.36075e-08
2.23313e-09
-1.4542e-08
2.23093e-09
-1.54741e-08
2.22446e-09
-1.64023e-08
2.21436e-09
-1.73253e-08
2.20118e-09
-1.82418e-08
2.18538e-09
-1.9151e-08
2.16735e-09
-2.0052e-08
2.1474e-09
-2.0944e-08
2.1258e-09
-2.18264e-08
2.10272e-09
-2.26987e-08
2.07833e-09
-2.35603e-08
2.05276e-09
-2.44108e-08
2.0261e-09
-2.52496e-08
1.99844e-09
-2.60765e-08
1.96983e-09
-2.68909e-08
1.94033e-09
-2.76926e-08
1.90998e-09
-2.84812e-08
1.87879e-09
-2.92564e-08
1.84679e-09
-3.00177e-08
1.814e-09
-3.0765e-08
1.78044e-09
-3.14978e-08
1.74612e-09
-3.22158e-08
1.71105e-09
-3.29188e-08
1.67525e-09
-3.36064e-08
1.63873e-09
-3.42783e-08
1.6015e-09
-3.49343e-08
1.56359e-09
-3.55741e-08
1.525e-09
-3.61974e-08
1.48575e-09
-3.68038e-08
1.44584e-09
-3.73932e-08
1.40531e-09
-3.79653e-08
1.36416e-09
-3.85198e-08
1.32241e-09
-3.90565e-08
1.28007e-09
-3.95751e-08
1.23714e-09
-4.00754e-08
1.19366e-09
-4.05572e-08
1.14962e-09
-4.10203e-08
1.10505e-09
-4.14644e-08
1.05997e-09
-4.18893e-08
1.01439e-09
-4.22949e-08
9.68321e-10
-4.26809e-08
9.21791e-10
-4.30472e-08
8.74818e-10
-4.33936e-08
8.27419e-10
-4.37199e-08
7.79613e-10
-4.40259e-08
7.31416e-10
-4.43116e-08
6.82847e-10
-4.45767e-08
6.33926e-10
-4.48211e-08
5.84674e-10
-4.50448e-08
5.35108e-10
-4.52475e-08
4.85244e-10
-4.54291e-08
4.35101e-10
-4.55897e-08
3.84702e-10
-4.57289e-08
3.3407e-10
-4.58469e-08
2.83231e-10
-4.59434e-08
2.32207e-10
-4.60185e-08
1.81018e-10
-4.6072e-08
1.29682e-10
-4.61039e-08
7.8221e-11
-4.61142e-08
2.66559e-11
-4.61028e-08
-2.49926e-11
-4.60697e-08
-7.67053e-11
-4.60149e-08
-1.28464e-10
-4.59383e-08
-1.80253e-10
-4.58401e-08
-2.32052e-10
-4.57201e-08
-2.83841e-10
-4.55784e-08
-3.35601e-10
-4.5415e-08
-3.87308e-10
-4.52299e-08
-4.38942e-10
-4.50233e-08
-4.90482e-10
-4.47951e-08
-5.41904e-10
-4.45455e-08
-5.93186e-10
-4.42744e-08
-6.44304e-10
-4.3982e-08
-6.95234e-10
-4.36684e-08
-7.45951e-10
-4.33336e-08
-7.9643e-10
-4.29779e-08
-8.46644e-10
-4.26012e-08
-8.96568e-10
-4.22038e-08
-9.46177e-10
-4.17857e-08
-9.95444e-10
-4.13472e-08
-1.04435e-09
-4.08883e-08
-1.09286e-09
-4.04094e-08
-1.14095e-09
-3.99105e-08
-1.1886e-09
-3.93918e-08
-1.23578e-09
-3.88536e-08
-1.28247e-09
-3.82961e-08
-1.32864e-09
-3.77194e-08
-1.37427e-09
-3.71239e-08
-1.41934e-09
-3.65097e-08
-1.46383e-09
-3.58772e-08
-1.50771e-09
-3.52266e-08
-1.55095e-09
-3.45581e-08
-1.59354e-09
-3.38721e-08
-1.63546e-09
-3.31688e-08
-1.67668e-09
-3.24485e-08
-1.71719e-09
-3.17116e-08
-1.75696e-09
-3.09584e-08
-1.79598e-09
-3.01892e-08
-1.83423e-09
-2.94043e-08
-1.87166e-09
-2.86042e-08
-1.90826e-09
-2.77891e-08
-1.944e-09
-2.69595e-08
-1.97882e-09
-2.61158e-08
-2.0127e-09
-2.52584e-08
-2.04556e-09
-2.43878e-08
-2.07736e-09
-2.35045e-08
-2.10801e-09
-2.2609e-08
-2.13741e-09
-2.17018e-08
-2.16544e-09
-2.07837e-08
-2.19196e-09
-1.98554e-08
-2.21679e-09
-1.89177e-08
-2.2397e-09
-1.79716e-08
-2.26042e-09
-1.70182e-08
-2.27861e-09
-1.60586e-08
-2.29388e-09
-1.50944e-08
-2.30574e-09
-1.41273e-08
-2.31363e-09
-1.31592e-08
-2.31688e-09
-1.21924e-08
-2.31472e-09
-1.12296e-08
-2.30627e-09
-1.02737e-08
-2.29054e-09
-9.32826e-09
-2.2664e-09
-8.3972e-09
-2.23264e-09
-7.48499e-09
-2.18792e-09
-6.59664e-09
-2.13083e-09
-5.73767e-09
-2.05991e-09
-4.91418e-09
-1.97366e-09
-4.13271e-09
-1.87068e-09
-3.40025e-09
-1.74967e-09
-2.72404e-09
-1.60966e-09
-2.11138e-09
-1.45012e-09
-1.56931e-09
-1.2713e-09
-1.10418e-09
-1.0746e-09
-7.2103e-10
-8.63187e-10
-4.22776e-10
-6.42903e-10
-2.0918e-10
-4.23545e-10
-7.56506e-11
-2.20535e-10
-1.19476e-11
-5.74268e-11
2.72548e-11
-2.83203e-11
-2.25152e-11
-1.28818e-10
1.49539e-10
-3.17656e-10
4.06684e-10
-6.01789e-10
6.9791e-10
-9.83193e-10
1.0035e-09
-1.46054e-09
1.3088e-09
-2.02997e-09
1.60269e-09
-2.68576e-09
1.87767e-09
-3.42101e-09
2.12919e-09
-4.22809e-09
2.35486e-09
-5.09909e-09
2.55396e-09
-6.02605e-09
2.72684e-09
-7.00128e-09
2.87463e-09
-8.01747e-09
2.99894e-09
-9.06782e-09
3.10163e-09
-1.01461e-08
3.18472e-09
-1.12466e-08
3.25024e-09
-1.23643e-08
3.30017e-09
-1.34946e-08
3.33641e-09
-1.46337e-08
3.3607e-09
-1.57781e-08
3.37466e-09
-1.69247e-08
3.37971e-09
-1.80709e-08
3.37714e-09
-1.92145e-08
3.36806e-09
-2.03535e-08
3.35343e-09
-2.14864e-08
3.33407e-09
-2.26117e-08
3.31067e-09
-2.37282e-08
3.2838e-09
-2.48347e-08
3.25395e-09
-2.59304e-08
3.22149e-09
-2.70145e-08
3.18675e-09
-2.80861e-08
3.14997e-09
-2.91447e-08
3.11136e-09
-3.01897e-08
3.07105e-09
-3.12204e-08
3.02919e-09
-3.22364e-08
2.98586e-09
-3.32372e-08
2.94115e-09
-3.42224e-08
2.89511e-09
-3.51914e-08
2.8478e-09
-3.61438e-08
2.79924e-09
-3.70793e-08
2.74948e-09
-3.79974e-08
2.69854e-09
-3.88977e-08
2.64644e-09
-3.97799e-08
2.5932e-09
-4.06435e-08
2.53885e-09
-4.14882e-08
2.4834e-09
-4.23135e-08
2.42689e-09
-4.31193e-08
2.36932e-09
-4.3905e-08
2.31073e-09
-4.46704e-08
2.25113e-09
-4.54151e-08
2.19055e-09
-4.61388e-08
2.129e-09
-4.68412e-08
2.06653e-09
-4.75219e-08
2.00313e-09
-4.81807e-08
1.93884e-09
-4.88172e-08
1.87368e-09
-4.94312e-08
1.80767e-09
-5.00224e-08
1.74084e-09
-5.05906e-08
1.6732e-09
-5.11354e-08
1.60478e-09
-5.16566e-08
1.53562e-09
-5.2154e-08
1.46573e-09
-5.26274e-08
1.39515e-09
-5.30765e-08
1.3239e-09
-5.35011e-08
1.25201e-09
-5.3901e-08
1.17951e-09
-5.4276e-08
1.10642e-09
-5.46259e-08
1.03278e-09
-5.49506e-08
9.58604e-10
-5.52498e-08
8.83931e-10
-5.55235e-08
8.08787e-10
-5.57715e-08
7.332e-10
-5.59936e-08
6.57199e-10
-5.61897e-08
5.80816e-10
-5.63597e-08
5.04084e-10
-5.65035e-08
4.27037e-10
-5.6621e-08
3.49708e-10
-5.67121e-08
2.72127e-10
-5.67768e-08
1.94327e-10
-5.68149e-08
1.16338e-10
-5.68264e-08
3.81908e-11
-5.68113e-08
-4.00825e-11
-5.67696e-08
-1.18452e-10
-5.67012e-08
-1.96889e-10
-5.6606e-08
-2.75364e-10
-5.64842e-08
-3.53848e-10
-5.63358e-08
-4.32309e-10
-5.61607e-08
-5.10716e-10
-5.59589e-08
-5.89035e-10
-5.57306e-08
-6.67234e-10
-5.54758e-08
-7.4528e-10
-5.51946e-08
-8.2314e-10
-5.4887e-08
-9.0078e-10
-5.45532e-08
-9.78165e-10
-5.41931e-08
-1.05526e-09
-5.38071e-08
-1.13202e-09
-5.33951e-08
-1.20841e-09
-5.29573e-08
-1.28441e-09
-5.24939e-08
-1.35996e-09
-5.20051e-08
-1.43503e-09
-5.14909e-08
-1.50958e-09
-5.09517e-08
-1.58358e-09
-5.03876e-08
-1.65699e-09
-4.97987e-08
-1.72977e-09
-4.91855e-08
-1.80187e-09
-4.8548e-08
-1.87327e-09
-4.78865e-08
-1.94393e-09
-4.72013e-08
-2.01381e-09
-4.64927e-08
-2.08287e-09
-4.5761e-08
-2.15109e-09
-4.50064e-08
-2.21841e-09
-4.42293e-08
-2.28482e-09
-4.343e-08
-2.35027e-09
-4.26088e-08
-2.41473e-09
-4.17661e-08
-2.47816e-09
-4.09023e-08
-2.54054e-09
-4.00176e-08
-2.60183e-09
-3.91126e-08
-2.662e-09
-3.81875e-08
-2.72101e-09
-3.72429e-08
-2.77884e-09
-3.62792e-08
-2.83542e-09
-3.52967e-08
-2.89073e-09
-3.4296e-08
-2.9447e-09
-3.32775e-08
-2.99728e-09
-3.22418e-08
-3.0484e-09
-3.11894e-08
-3.09796e-09
-3.01209e-08
-3.14588e-09
-2.90369e-08
-3.19203e-09
-2.79381e-08
-3.23624e-09
-2.68252e-08
-3.27835e-09
-2.5699e-08
-3.31812e-09
-2.45605e-08
-3.35528e-09
-2.34107e-08
-3.38946e-09
-2.22509e-08
-3.42027e-09
-2.10823e-08
-3.4472e-09
-1.99066e-08
-3.46963e-09
-1.87255e-08
-3.48684e-09
-1.75411e-08
-3.498e-09
-1.63559e-08
-3.50211e-09
-1.51725e-08
-3.49803e-09
-1.39944e-08
-3.48446e-09
-1.28249e-08
-3.45996e-09
-1.16684e-08
-3.42289e-09
-1.05296e-08
-3.37149e-09
-9.41367e-09
-3.30385e-09
-8.32654e-09
-3.21796e-09
-7.27467e-09
-3.11177e-09
-6.26511e-09
-2.98323e-09
-5.30539e-09
-2.8304e-09
-4.40345e-09
-2.65162e-09
-3.56745e-09
-2.44565e-09
-2.80559e-09
-2.21199e-09
-2.12568e-09
-1.9512e-09
-1.53481e-09
-1.66546e-09
-1.03873e-09
-1.35927e-09
-6.4119e-10
-1.04044e-09
-3.43195e-10
-7.21536e-10
-1.42253e-10
-4.21478e-10
-3.16981e-11
-1.67982e-10
-4.44177e-12
-4.87459e-11
2.62295e-11
-1.96896e-10
2.97689e-10
-4.52339e-10
6.62126e-10
-8.18524e-10
1.0641e-09
-1.29516e-09
1.48014e-09
-1.87934e-09
1.89298e-09
-2.56609e-09
2.28944e-09
-3.34886e-09
2.66044e-09
-4.22e-09
3.00033e-09
-5.17121e-09
3.30607e-09
-6.19386e-09
3.57661e-09
-7.27934e-09
3.81231e-09
-8.41922e-09
4.01452e-09
-9.6055e-09
4.18521e-09
-1.08306e-08
4.32677e-09
-1.20877e-08
4.44178e-09
-1.33703e-08
4.5329e-09
-1.46729e-08
4.60273e-09
-1.59903e-08
4.65377e-09
-1.73179e-08
4.68835e-09
-1.86519e-08
4.70864e-09
-1.99887e-08
4.71655e-09
-2.13254e-08
4.71384e-09
-2.26594e-08
4.70199e-09
-2.39883e-08
4.68234e-09
-2.53102e-08
4.65601e-09
-2.66235e-08
4.62396e-09
-2.79267e-08
4.58699e-09
-2.92185e-08
4.54575e-09
-3.04978e-08
4.50079e-09
-3.17636e-08
4.45255e-09
-3.3015e-08
4.4014e-09
-3.42513e-08
4.34762e-09
-3.54716e-08
4.29143e-09
-3.66755e-08
4.23301e-09
-3.78621e-08
4.17252e-09
-3.9031e-08
4.11005e-09
-4.01816e-08
4.0457e-09
-4.13134e-08
3.97954e-09
-4.24257e-08
3.91162e-09
-4.35183e-08
3.84201e-09
-4.45905e-08
3.77073e-09
-4.56418e-08
3.69782e-09
-4.6672e-08
3.62332e-09
-4.76804e-08
3.54725e-09
-4.86666e-08
3.46966e-09
-4.96303e-08
3.39056e-09
-5.0571e-08
3.30999e-09
-5.14882e-08
3.22799e-09
-5.23817e-08
3.14457e-09
-5.32509e-08
3.05978e-09
-5.40955e-08
2.97366e-09
-5.49152e-08
2.88622e-09
-5.57096e-08
2.79749e-09
-5.64783e-08
2.70752e-09
-5.72209e-08
2.61634e-09
-5.79373e-08
2.52398e-09
-5.86269e-08
2.43047e-09
-5.92895e-08
2.33585e-09
-5.99249e-08
2.24015e-09
-6.05327e-08
2.14341e-09
-6.11126e-08
2.04567e-09
-6.16645e-08
1.94696e-09
-6.21879e-08
1.84733e-09
-6.26827e-08
1.74681e-09
-6.31486e-08
1.64544e-09
-6.35855e-08
1.54326e-09
-6.3993e-08
1.44031e-09
-6.4371e-08
1.33663e-09
-6.47193e-08
1.23225e-09
-6.50378e-08
1.12722e-09
-6.53262e-08
1.02158e-09
-6.55843e-08
9.15374e-10
-6.58122e-08
8.08639e-10
-6.60095e-08
7.01422e-10
-6.61762e-08
5.93768e-10
-6.63122e-08
4.8572e-10
-6.64174e-08
3.77323e-10
-6.64917e-08
2.6862e-10
-6.6535e-08
1.59655e-10
-6.65473e-08
5.04728e-11
-6.65285e-08
-5.88834e-11
-6.64786e-08
-1.68371e-10
-6.63975e-08
-2.77949e-10
-6.62853e-08
-3.87573e-10
-6.6142e-08
-4.97201e-10
-6.59675e-08
-6.06788e-10
-6.57619e-08
-7.1629e-10
-6.55253e-08
-8.2566e-10
-6.52577e-08
-9.34854e-10
-6.49591e-08
-1.04382e-09
-6.46298e-08
-1.15253e-09
-6.42696e-08
-1.26091e-09
-6.38789e-08
-1.36893e-09
-6.34576e-08
-1.47653e-09
-6.30059e-08
-1.58367e-09
-6.25241e-08
-1.69029e-09
-6.20121e-08
-1.79634e-09
-6.14703e-08
-1.90177e-09
-6.08988e-08
-2.00653e-09
-6.02978e-08
-2.11056e-09
-5.96676e-08
-2.21383e-09
-5.90083e-08
-2.31626e-09
-5.83203e-08
-2.41781e-09
-5.76037e-08
-2.51843e-09
-5.68589e-08
-2.61806e-09
-5.60862e-08
-2.71666e-09
-5.52859e-08
-2.81417e-09
-5.44582e-08
-2.91054e-09
-5.36035e-08
-3.00573e-09
-5.27223e-08
-3.09968e-09
-5.18148e-08
-3.19234e-09
-5.08814e-08
-3.28367e-09
-4.99225e-08
-3.37361e-09
-4.89385e-08
-3.46212e-09
-4.79299e-08
-3.54915e-09
-4.68971e-08
-3.63465e-09
-4.58405e-08
-3.71858e-09
-4.47607e-08
-3.80088e-09
-4.3658e-08
-3.88149e-09
-4.2533e-08
-3.96037e-09
-4.13863e-08
-4.03744e-09
-4.02184e-08
-4.11262e-09
-3.90299e-08
-4.18583e-09
-3.78213e-08
-4.25697e-09
-3.65933e-08
-4.32592e-09
-3.53467e-08
-4.39253e-09
-3.40821e-08
-4.45662e-09
-3.28004e-08
-4.51798e-09
-3.15024e-08
-4.57634e-09
-3.01891e-08
-4.63137e-09
-2.88617e-08
-4.68269e-09
-2.75214e-08
-4.7298e-09
-2.61695e-08
-4.77213e-09
-2.48078e-08
-4.80896e-09
-2.34379e-08
-4.83945e-09
-2.20622e-08
-4.86262e-09
-2.06829e-08
-4.87729e-09
-1.93029e-08
-4.88211e-09
-1.79253e-08
-4.87554e-09
-1.6554e-08
-4.85582e-09
-1.5193e-08
-4.82098e-09
-1.3847e-08
-4.76885e-09
-1.25214e-08
-4.69707e-09
-1.12221e-08
-4.60312e-09
-9.95574e-09
-4.48436e-09
-8.72939e-09
-4.33811e-09
-7.55087e-09
-4.16175e-09
-6.42844e-09
-3.95283e-09
-5.37076e-09
-3.7093e-09
-4.3867e-09
-3.4297e-09
-3.48513e-09
-3.11356e-09
-2.67456e-09
-2.76177e-09
-1.96281e-09
-2.37722e-09
-1.35649e-09
-1.96558e-09
-8.60583e-10
-1.53635e-09
-4.77909e-10
-1.10421e-09
-2.08816e-10
-6.90573e-10
-5.10403e-11
-3.25754e-10
-5.5483e-11
-6.71108e-11
9.33408e-11
-2.60602e-10
4.9118e-10
-5.80873e-10
9.82397e-10
-1.02711e-09
1.51034e-09
-1.59624e-09
2.04926e-09
-2.28334e-09
2.58008e-09
-3.08205e-09
3.08815e-09
-3.9848e-09
3.56319e-09
-4.98315e-09
3.99868e-09
-6.06814e-09
4.39106e-09
-7.23054e-09
4.73902e-09
-8.46118e-09
5.04295e-09
-9.75107e-09
5.30441e-09
-1.10917e-08
5.52579e-09
-1.24749e-08
5.70998e-09
-1.38932e-08
5.86016e-09
-1.53399e-08
5.97959e-09
-1.68087e-08
6.07153e-09
-1.82941e-08
6.13912e-09
-1.9791e-08
6.1853e-09
-2.12952e-08
6.21281e-09
-2.28028e-08
6.22411e-09
-2.43103e-08
6.22142e-09
-2.5815e-08
6.20668e-09
-2.73143e-08
6.1816e-09
-2.88059e-08
6.14762e-09
-3.02879e-08
6.10601e-09
-3.17588e-08
6.0578e-09
-3.32169e-08
6.00387e-09
-3.4661e-08
5.94494e-09
-3.60901e-08
5.8816e-09
-3.7503e-08
5.81432e-09
-3.88989e-08
5.74349e-09
-4.02769e-08
5.66942e-09
-4.16362e-08
5.59235e-09
-4.29762e-08
5.51249e-09
-4.42961e-08
5.42998e-09
-4.55953e-08
5.34494e-09
-4.68733e-08
5.25749e-09
-4.81294e-08
5.16769e-09
-4.9363e-08
5.07562e-09
-5.05736e-08
4.98134e-09
-5.17607e-08
4.8849e-09
-5.29237e-08
4.78634e-09
-5.40621e-08
4.6857e-09
-5.51755e-08
4.58304e-09
-5.62634e-08
4.4784e-09
-5.73252e-08
4.37181e-09
-5.83605e-08
4.26331e-09
-5.93689e-08
4.15295e-09
-6.03499e-08
4.04077e-09
-6.1303e-08
3.92683e-09
-6.2228e-08
3.81115e-09
-6.31242e-08
3.69378e-09
-6.39915e-08
3.57476e-09
-6.48293e-08
3.45415e-09
-6.56373e-08
3.33199e-09
-6.64151e-08
3.20831e-09
-6.71625e-08
3.08318e-09
-6.78789e-08
2.95663e-09
-6.85642e-08
2.82871e-09
-6.92181e-08
2.69948e-09
-6.98401e-08
2.56899e-09
-7.043e-08
2.43728e-09
-7.09876e-08
2.3044e-09
-7.15126e-08
2.1704e-09
-7.20046e-08
2.03535e-09
-7.24636e-08
1.89928e-09
-7.28893e-08
1.76226e-09
-7.32813e-08
1.62433e-09
-7.36396e-08
1.48555e-09
-7.3964e-08
1.34596e-09
-7.42543e-08
1.20563e-09
-7.45103e-08
1.06462e-09
-7.47318e-08
9.22976e-10
-7.49188e-08
7.80762e-10
-7.50711e-08
6.38032e-10
-7.51886e-08
4.94842e-10
-7.52713e-08
3.51253e-10
-7.53189e-08
2.07322e-10
-7.53316e-08
6.31077e-11
-7.53091e-08
-8.13316e-11
-7.52516e-08
-2.2594e-10
-7.51589e-08
-3.7066e-10
-7.5031e-08
-5.15435e-10
-7.4868e-08
-6.60206e-10
-7.46699e-08
-8.04914e-10
-7.44367e-08
-9.49499e-10
-7.41684e-08
-1.0939e-09
-7.38652e-08
-1.23806e-09
-7.35271e-08
-1.38192e-09
-7.31542e-08
-1.52541e-09
-7.27467e-08
-1.66847e-09
-7.23046e-08
-1.81104e-09
-7.18281e-08
-1.95305e-09
-7.13173e-08
-2.09444e-09
-7.07724e-08
-2.23514e-09
-7.01937e-08
-2.37508e-09
-6.95812e-08
-2.51421e-09
-6.89353e-08
-2.65244e-09
-6.82562e-08
-2.78971e-09
-6.7544e-08
-2.92596e-09
-6.67992e-08
-3.06112e-09
-6.60219e-08
-3.19511e-09
-6.52124e-08
-3.32787e-09
-6.43712e-08
-3.45933e-09
-6.34984e-08
-3.58942e-09
-6.25945e-08
-3.71808e-09
-6.16598e-08
-3.84524e-09
-6.06947e-08
-3.97083e-09
-5.96996e-08
-4.09478e-09
-5.86749e-08
-4.21703e-09
-5.76211e-08
-4.33752e-09
-5.65385e-08
-4.45618e-09
-5.54277e-08
-4.57294e-09
-5.42891e-08
-4.68774e-09
-5.31232e-08
-4.80052e-09
-5.19306e-08
-4.91121e-09
-5.07117e-08
-5.01973e-09
-4.94672e-08
-5.12601e-09
-4.81976e-08
-5.22998e-09
-4.69035e-08
-5.33153e-09
-4.55856e-08
-5.43057e-09
-4.42444e-08
-5.52698e-09
-4.28808e-08
-5.62062e-09
-4.14954e-08
-5.71132e-09
-4.0089e-08
-5.7989e-09
-3.86625e-08
-5.8831e-09
-3.72168e-08
-5.96365e-09
-3.5753e-08
-6.04017e-09
-3.42721e-08
-6.11224e-09
-3.27755e-08
-6.17933e-09
-3.12645e-08
-6.2408e-09
-2.97407e-08
-6.29588e-09
-2.82061e-08
-6.34363e-09
-2.66625e-08
-6.38297e-09
-2.51126e-08
-6.41259e-09
-2.35589e-08
-6.43098e-09
-2.20046e-08
-6.43641e-09
-2.04533e-08
-6.42687e-09
-1.8909e-08
-6.40013e-09
-1.73763e-08
-6.35366e-09
-1.58604e-08
-6.28473e-09
-1.43671e-08
-6.19034e-09
-1.29029e-08
-6.06733e-09
-1.14749e-08
-5.91242e-09
-1.00907e-08
-5.7223e-09
-8.75871e-09
-5.49374e-09
-7.48774e-09
-5.2238e-09
-6.28703e-09
-4.91001e-09
-5.16602e-09
-4.55072e-09
-4.13416e-09
-4.14542e-09
-3.20065e-09
-3.69528e-09
-2.3741e-09
-3.20377e-09
-1.66221e-09
-2.67747e-09
-1.07146e-09
-2.1271e-09
-6.06864e-10
-1.56881e-09
-2.7195e-10
-1.02549e-09
-6.90285e-11
-5.28674e-10
-1.24512e-10
-8.33313e-11
1.76671e-10
-3.18581e-10
7.26431e-10
-6.99792e-10
1.36361e-09
-1.22188e-09
2.03242e-09
-1.87873e-09
2.70611e-09
-2.66324e-09
3.36459e-09
-3.56742e-09
3.99234e-09
-4.58255e-09
4.57832e-09
-5.6993e-09
5.11544e-09
-6.90802e-09
5.59978e-09
-8.19892e-09
6.02992e-09
-9.56231e-09
6.40633e-09
-1.09888e-08
6.73086e-09
-1.24693e-08
7.0063e-09
-1.39954e-08
7.23607e-09
-1.55591e-08
7.42393e-09
-1.71534e-08
7.57381e-09
-1.87714e-08
7.68962e-09
-2.04075e-08
7.77514e-09
-2.20561e-08
7.83395e-09
-2.37127e-08
7.86939e-09
-2.53731e-08
7.88448e-09
-2.70336e-08
7.88193e-09
-2.8691e-08
7.86414e-09
-3.03427e-08
7.83323e-09
-3.1986e-08
7.79101e-09
-3.36191e-08
7.73903e-09
-3.52399e-08
7.6786e-09
-3.68468e-08
7.61082e-09
-3.84385e-08
7.53662e-09
-4.00136e-08
7.45673e-09
-4.15711e-08
7.37177e-09
-4.31098e-08
7.28222e-09
-4.46289e-08
7.18849e-09
-4.61274e-08
7.0909e-09
-4.76046e-08
6.9897e-09
-4.90597e-08
6.8851e-09
-5.0492e-08
6.77725e-09
-5.19009e-08
6.66631e-09
-5.32855e-08
6.55236e-09
-5.46454e-08
6.43551e-09
-5.59799e-08
6.31584e-09
-5.72884e-08
6.1934e-09
-5.85704e-08
6.06827e-09
-5.98252e-08