/*--------------------------------*- C++ -*----------------------------------*\
  =========                 |
  \\      /  F ield         | OpenFOAM: The Open Source CFD Toolbox
   \\    /   O peration     | Website:  https://openfoam.org
    \\  /    A nd           | Version:  7
     \\/     M anipulation  |
\*---------------------------------------------------------------------------*/
FoamFile
{
    version     2.0;
    format      ascii;
    class       surfaceScalarField;
    location    "0.05";
    object      phi;
}
// * * * * * * * * * * * * * * * * * * * * * * * * * * * * * * * * * * * * * //

dimensions      [0 3 -1 0 0 0 0];

internalField   nonuniform List<scalar> 
50880
(
1.47888e-11
-1.47431e-11
3.98766e-11
-2.50924e-11
4.39987e-11
-4.11862e-12
2.93923e-11
1.4608e-11
-5.83546e-12
3.52271e-11
-6.03092e-11
5.44726e-11
-1.32058e-10
7.17491e-11
-2.18957e-10
8.68995e-11
-3.18832e-10
9.98763e-11
-4.29641e-10
1.10809e-10
-5.49527e-10
1.19886e-10
-6.76849e-10
1.2732e-10
-8.10131e-10
1.33284e-10
-9.48059e-10
1.37931e-10
-1.08951e-09
1.41455e-10
-1.23356e-09
1.44048e-10
-1.37943e-09
1.45869e-10
-1.52647e-09
1.47045e-10
-1.67414e-09
1.47667e-10
-1.82196e-09
1.47823e-10
-1.96959e-09
1.47624e-10
-2.11675e-09
1.47157e-10
-2.26322e-09
1.46471e-10
-2.40882e-09
1.45598e-10
-2.55339e-09
1.44573e-10
-2.69683e-09
1.43431e-10
-2.83902e-09
1.42191e-10
-2.97989e-09
1.40867e-10
-3.11937e-09
1.39479e-10
-3.2574e-09
1.38037e-10
-3.39394e-09
1.36535e-10
-3.52891e-09
1.34975e-10
-3.66228e-09
1.33368e-10
-3.794e-09
1.3172e-10
-3.92403e-09
1.30026e-10
-4.05231e-09
1.28281e-10
-4.1788e-09
1.26487e-10
-4.30345e-09
1.24649e-10
-4.42621e-09
1.22766e-10
-4.54705e-09
1.20833e-10
-4.6659e-09
1.18849e-10
-4.78272e-09
1.16818e-10
-4.89746e-09
1.14744e-10
-5.01009e-09
1.12623e-10
-5.12054e-09
1.10452e-10
-5.22877e-09
1.0823e-10
-5.33473e-09
1.05962e-10
-5.43838e-09
1.0365e-10
-5.53967e-09
1.01293e-10
-5.63856e-09
9.88881e-11
-5.73499e-09
9.64348e-11
-5.82893e-09
9.39365e-11
-5.92033e-09
9.13971e-11
-6.00915e-09
8.88173e-11
-6.09535e-09
8.61949e-11
-6.17888e-09
8.35291e-11
-6.2597e-09
8.08218e-11
-6.33777e-09
7.8076e-11
-6.41306e-09
7.52932e-11
-6.48553e-09
7.24731e-11
-6.55515e-09
6.96154e-11
-6.62187e-09
6.67209e-11
-6.68566e-09
6.37919e-11
-6.74649e-09
6.08308e-11
-6.80433e-09
5.78381e-11
-6.85914e-09
5.48128e-11
-6.9109e-09
5.17547e-11
-6.95957e-09
4.86658e-11
-7.00512e-09
4.55493e-11
-7.04752e-09
4.24066e-11
-7.08676e-09
3.92374e-11
-7.1228e-09
3.60405e-11
-7.15561e-09
3.28161e-11
-7.18518e-09
2.95657e-11
-7.21147e-09
2.62924e-11
-7.23447e-09
2.29987e-11
-7.25415e-09
1.96855e-11
-7.27051e-09
1.63522e-11
-7.2835e-09
1.29988e-11
-7.29313e-09
9.62658e-12
-7.29937e-09
6.23805e-12
-7.30221e-09
2.836e-12
-7.30163e-09
-5.77695e-13
-7.29763e-09
-4.0024e-12
-7.29019e-09
-7.43782e-12
-7.27931e-09
-1.08829e-11
-7.26497e-09
-1.43356e-11
-7.24718e-09
-1.77934e-11
-7.22592e-09
-2.12538e-11
-7.20121e-09
-2.47154e-11
-7.17303e-09
-2.81773e-11
-7.14139e-09
-3.16385e-11
-7.1063e-09
-3.50981e-11
-7.06774e-09
-3.85543e-11
-7.02574e-09
-4.20046e-11
-6.98029e-09
-4.54467e-11
-6.93141e-09
-4.88791e-11
-6.87911e-09
-5.23006e-11
-6.8234e-09
-5.57104e-11
-6.76429e-09
-5.91071e-11
-6.7018e-09
-6.2489e-11
-6.63595e-09
-6.58536e-11
-6.56675e-09
-6.91987e-11
-6.49423e-09
-7.25222e-11
-6.41841e-09
-7.5822e-11
-6.33931e-09
-7.90965e-11
-6.25697e-09
-8.23444e-11
-6.17141e-09
-8.55639e-11
-6.08265e-09
-8.87531e-11
-5.99074e-09
-9.19094e-11
-5.89571e-09
-9.50306e-11
-5.7976e-09
-9.81143e-11
-5.69644e-09
-1.01159e-10
-5.59228e-09
-1.04163e-10
-5.48515e-09
-1.07124e-10
-5.37511e-09
-1.10041e-10
-5.2622e-09
-1.12913e-10
-5.14646e-09
-1.15737e-10
-5.02795e-09
-1.18512e-10
-4.90672e-09
-1.21235e-10
-4.78281e-09
-1.23906e-10
-4.65629e-09
-1.26523e-10
-4.5272e-09
-1.29085e-10
-4.39561e-09
-1.31592e-10
-4.26157e-09
-1.34041e-10
-4.12514e-09
-1.36432e-10
-3.98638e-09
-1.38762e-10
-3.84535e-09
-1.41029e-10
-3.70212e-09
-1.4323e-10
-3.55676e-09
-1.45362e-10
-3.40933e-09
-1.4742e-10
-3.25994e-09
-1.49399e-10
-3.10865e-09
-1.5129e-10
-2.95556e-09
-1.53082e-10
-2.80081e-09
-1.5476e-10
-2.6445e-09
-1.56304e-10
-2.48681e-09
-1.57689e-10
-2.32793e-09
-1.58881e-10
-2.16809e-09
-1.59841e-10
-2.00758e-09
-1.60516e-10
-1.84673e-09
-1.60846e-10
-1.68598e-09
-1.60754e-10
-1.52582e-09
-1.60154e-10
-1.36689e-09
-1.58938e-10
-1.2099e-09
-1.56987e-10
-1.05574e-09
-1.5416e-10
-9.05435e-10
-1.50303e-10
-7.60193e-10
-1.45243e-10
-6.21399e-10
-1.38794e-10
-4.9064e-10
-1.3076e-10
-3.69702e-10
-1.20938e-10
-2.60565e-10
-1.09137e-10
-1.65378e-10
-9.51877e-11
-8.63915e-11
-7.89866e-11
-2.58276e-11
-6.05638e-11
1.44056e-11
-4.02335e-11
3.32914e-11
-1.88863e-11
3.18476e-11
1.44392e-12
1.55898e-11
1.62571e-11
1.55895e-11
7.90667e-12
-2.26547e-11
1.323e-11
-3.04059e-11
-9.92118e-12
1.903e-11
-7.82383e-11
8.29289e-11
-1.93687e-10
1.50677e-10
-3.55492e-10
2.16278e-10
-5.60592e-10
2.76848e-10
-8.04721e-10
3.31026e-10
-1.08319e-09
3.78343e-10
-1.39122e-09
4.1884e-10
-1.72423e-09
4.5289e-10
-2.07795e-09
4.81044e-10
-2.44855e-09
5.03879e-10
-2.83262e-09
5.21995e-10
-3.22716e-09
5.35998e-10
-3.62958e-09
5.46471e-10
-4.03768e-09
5.53967e-10
-4.4496e-09
5.58963e-10
-4.86379e-09
5.61854e-10
-5.27897e-09
5.63001e-10
-5.69408e-09
5.62739e-10
-6.10826e-09
5.61344e-10
-6.52082e-09
5.59029e-10
-6.93118e-09
5.55962e-10
-7.33889e-09
5.52285e-10
-7.74356e-09
5.48109e-10
-8.14488e-09
5.43518e-10
-8.5426e-09
5.38582e-10
-8.93648e-09
5.33358e-10
-9.32633e-09
5.27883e-10
-9.71196e-09
5.22171e-10
-1.00932e-08
5.16239e-10
-1.047e-08
5.10107e-10
-1.0842e-08
5.03786e-10
-1.12093e-08
4.97275e-10
-1.15716e-08
4.90573e-10
-1.19288e-08
4.83683e-10
-1.22807e-08
4.76611e-10
-1.26273e-08
4.69355e-10
-1.29684e-08
4.6191e-10
-1.33038e-08
4.54278e-10
-1.36335e-08
4.46462e-10
-1.39572e-08
4.38465e-10
-1.42749e-08
4.30284e-10
-1.45863e-08
4.21918e-10
-1.48915e-08
4.13368e-10
-1.51901e-08
4.04638e-10
-1.54822e-08
3.95734e-10
-1.57676e-08
3.86655e-10
-1.60461e-08
3.77401e-10
-1.63176e-08
3.67973e-10
-1.65821e-08
3.58376e-10
-1.68393e-08
3.48617e-10
-1.70892e-08
3.38696e-10
-1.73316e-08
3.28616e-10
-1.75665e-08
3.18378e-10
-1.77936e-08
3.07989e-10
-1.8013e-08
2.97452e-10
-1.82245e-08
2.86771e-10
-1.84279e-08
2.75948e-10
-1.86233e-08
2.64986e-10
-1.88105e-08
2.53887e-10
-1.89893e-08
2.42657e-10
-1.91598e-08
2.31302e-10
-1.93218e-08
2.19826e-10
-1.94752e-08
2.08228e-10
-1.962e-08
1.96511e-10
-1.9756e-08
1.8468e-10
-1.98832e-08
1.72738e-10
-2.00015e-08
1.60692e-10
-2.01108e-08
1.48545e-10
-2.0211e-08
1.36299e-10
-2.03022e-08
1.23956e-10
-2.03841e-08
1.11522e-10
-2.04568e-08
9.90003e-11
-2.05202e-08
8.63977e-11
-2.05743e-08
7.37195e-11
-2.06189e-08
6.09696e-11
-2.0654e-08
4.81514e-11
-2.06797e-08
3.52696e-11
-2.06958e-08
2.23303e-11
-2.07023e-08
9.33983e-12
-2.06992e-08
-3.69608e-12
-2.06864e-08
-1.67722e-11
-2.06639e-08
-2.98836e-11
-2.06318e-08
-4.30253e-11
-2.05899e-08
-5.61913e-11
-2.05384e-08
-6.93754e-11
-2.0477e-08
-8.25707e-11
-2.0406e-08
-9.57711e-11
-2.03252e-08
-1.08971e-10
-2.02347e-08
-1.22166e-10
-2.01344e-08
-1.3535e-10
-2.00245e-08
-1.48517e-10
-1.99048e-08
-1.6166e-10
-1.97755e-08
-1.74773e-10
-1.96365e-08
-1.87849e-10
-1.94879e-08
-2.00883e-10
-1.93298e-08
-2.13869e-10
-1.91621e-08
-2.26801e-10
-1.89849e-08
-2.39672e-10
-1.87983e-08
-2.52474e-10
-1.86023e-08
-2.65199e-10
-1.83969e-08
-2.77842e-10
-1.81824e-08
-2.90394e-10
-1.79586e-08
-3.02848e-10
-1.77258e-08
-3.15197e-10
-1.74839e-08
-3.27435e-10
-1.72331e-08
-3.39554e-10
-1.69735e-08
-3.51546e-10
-1.67051e-08
-3.63404e-10
-1.64281e-08
-3.7512e-10
-1.61426e-08
-3.86687e-10
-1.58486e-08
-3.98098e-10
-1.55464e-08
-4.09347e-10
-1.5236e-08
-4.20426e-10
-1.49176e-08
-4.3133e-10
-1.45913e-08
-4.42052e-10
-1.42572e-08
-4.52585e-10
-1.39155e-08
-4.62925e-10
-1.35664e-08
-4.73064e-10
-1.32099e-08
-4.82998e-10
-1.28462e-08
-4.92721e-10
-1.24756e-08
-5.02228e-10
-1.20981e-08
-5.11513e-10
-1.1714e-08
-5.20569e-10
-1.13234e-08
-5.29387e-10
-1.09264e-08
-5.37959e-10
-1.05234e-08
-5.46272e-10
-1.01145e-08
-5.54311e-10
-9.69982e-09
-5.62055e-10
-9.27974e-09
-5.69478e-10
-8.85449e-09
-5.76544e-10
-8.42436e-09
-5.83206e-10
-7.98972e-09
-5.89404e-10
-7.55097e-09
-5.95056e-10
-7.1086e-09
-6.00062e-10
-6.66318e-09
-6.04296e-10
-6.21542e-09
-6.07599e-10
-5.76616e-09
-6.09777e-10
-5.31641e-09
-6.10595e-10
-4.86739e-09
-6.09775e-10
-4.42056e-09
-6.06985e-10
-3.97766e-09
-6.01843e-10
-3.54074e-09
-5.93909e-10
-3.11221e-09
-5.82691e-10
-2.69487e-09
-5.67643e-10
-2.29194e-09
-5.48176e-10
-1.90706e-09
-5.23668e-10
-1.54434e-09
-4.93489e-10
-1.20825e-09
-4.57028e-10
-9.03628e-10
-4.13756e-10
-6.3551e-10
-3.63307e-10
-4.08873e-10
-3.05623e-10
-2.28225e-10
-2.41212e-10
-9.68779e-11
-1.71582e-10
-1.57473e-11
-1.00017e-10
1.85118e-11
-3.28169e-11
1.62474e-11
1.85207e-11
3.1836e-11
2.65264e-12
-2.53038e-11
-2.86046e-11
8.43437e-13
-1.07406e-10
9.78322e-11
-2.48026e-10
2.23549e-10
-4.54933e-10
3.57583e-10
-7.27767e-10
4.89112e-10
-1.06302e-09
6.12107e-10
-1.45541e-09
7.23412e-10
-1.89874e-09
8.21669e-10
-2.38651e-09
9.06616e-10
-2.91231e-09
9.78693e-10
-3.47002e-09
1.03876e-09
-4.05402e-09
1.08787e-09
-4.65921e-09
1.12719e-09
-5.28111e-09
1.1579e-09
-5.91579e-09
1.18115e-09
-6.55984e-09
1.19802e-09
-7.21035e-09
1.20948e-09
-7.86489e-09
1.21639e-09
-8.52142e-09
1.21953e-09
-9.17824e-09
1.21956e-09
-9.83395e-09
1.21705e-09
-1.04874e-08
1.21247e-09
-1.11376e-08
1.20619e-09
-1.17839e-08
1.19852e-09
-1.24255e-08
1.18972e-09
-1.30619e-08
1.17996e-09
-1.36928e-08
1.16941e-09
-1.43176e-08
1.15819e-09
-1.49361e-08
1.14636e-09
-1.55479e-08
1.134e-09
-1.61528e-08
1.12114e-09
-1.67505e-08
1.10782e-09
-1.73408e-08
1.09406e-09
-1.79234e-08
1.07987e-09
-1.8498e-08
1.06525e-09
-1.90646e-08
1.05023e-09
-1.96228e-08
1.03479e-09
-2.01724e-08
1.01895e-09
-2.07132e-08
1.0027e-09
-2.12449e-08
9.86038e-10
-2.17674e-08
9.68977e-10
-2.22805e-08
9.51517e-10
-2.27839e-08
9.33657e-10
-2.32773e-08
9.15398e-10
-2.37607e-08
8.96743e-10
-2.42338e-08
8.77701e-10
-2.46963e-08
8.58275e-10
-2.51481e-08
8.38471e-10
-2.5589e-08
8.1829e-10
-2.60188e-08
7.97739e-10
-2.64372e-08
7.76825e-10
-2.68442e-08
7.55558e-10
-2.72394e-08
7.33941e-10
-2.76228e-08
7.11981e-10
-2.79941e-08
6.89684e-10
-2.83532e-08
6.67057e-10
-2.86998e-08
6.44111e-10
-2.90339e-08
6.20854e-10
-2.93552e-08
5.9729e-10
-2.96637e-08
5.73428e-10
-2.99591e-08
5.49273e-10
-3.02413e-08
5.24836e-10
-3.05101e-08
5.00126e-10
-3.07654e-08
4.7515e-10
-3.10071e-08
4.49916e-10
-3.1235e-08
4.24431e-10
-3.1449e-08
3.98701e-10
-3.1649e-08
3.72736e-10
-3.18349e-08
3.46545e-10
-3.20065e-08
3.20137e-10
-3.21637e-08
2.93518e-10
-3.23064e-08
2.66699e-10
-3.24346e-08
2.39689e-10
-3.25481e-08
2.12496e-10
-3.26468e-08
1.85131e-10
-3.27307e-08
1.57606e-10
-3.27997e-08
1.29929e-10
-3.28536e-08
1.02112e-10
-3.28925e-08
7.41636e-11
-3.29163e-08
4.60965e-11
-3.29249e-08
1.79224e-11
-3.29182e-08
-1.03472e-11
-3.28963e-08
-3.87004e-11
-3.28591e-08
-6.71255e-11
-3.28065e-08
-9.56111e-11
-3.27385e-08
-1.24145e-10
-3.26552e-08
-1.52715e-10
-3.25564e-08
-1.81307e-10
-3.24423e-08
-2.09908e-10
-3.23128e-08
-2.38506e-10
-3.21679e-08
-2.67089e-10
-3.20076e-08
-2.95644e-10
-3.18319e-08
-3.24158e-10
-3.1641e-08
-3.52617e-10
-3.14347e-08
-3.81008e-10
-3.12133e-08
-4.09318e-10
-3.09766e-08
-4.37532e-10
-3.07248e-08
-4.65638e-10
-3.0458e-08
-4.9362e-10
-3.01762e-08
-5.21465e-10
-2.98795e-08
-5.49158e-10
-2.95681e-08
-5.76683e-10
-2.92419e-08
-6.04025e-10
-2.89011e-08
-6.31167e-10
-2.85459e-08
-6.58096e-10
-2.81763e-08
-6.84795e-10
-2.77924e-08
-7.1125e-10
-2.73946e-08
-7.37444e-10
-2.69827e-08
-7.63362e-10
-2.65572e-08
-7.88988e-10
-2.6118e-08
-8.14306e-10
-2.56654e-08
-8.39302e-10
-2.51995e-08
-8.63959e-10
-2.47206e-08
-8.88264e-10
-2.42288e-08
-9.12202e-10
-2.37244e-08
-9.35759e-10
-2.32075e-08
-9.58921e-10
-2.26784e-08
-9.81674e-10
-2.21373e-08
-1.00401e-09
-2.15845e-08
-1.0259e-09
-2.10201e-08
-1.04735e-09
-2.04445e-08
-1.06834e-09
-1.98579e-08
-1.08886e-09
-1.92605e-08
-1.10889e-09
-1.86527e-08
-1.12841e-09
-1.80346e-08
-1.14741e-09
-1.74067e-08
-1.16587e-09
-1.67693e-08
-1.18375e-09
-1.61225e-08
-1.20102e-09
-1.5467e-08
-1.21762e-09
-1.4803e-08
-1.23351e-09
-1.41309e-08
-1.24859e-09
-1.34514e-08
-1.26275e-09
-1.27649e-08
-1.27587e-09
-1.20722e-08
-1.28775e-09
-1.13741e-08
-1.29819e-09
-1.06715e-08
-1.3069e-09
-9.96554e-09
-1.31354e-09
-9.25763e-09
-1.31769e-09
-8.54937e-09
-1.31885e-09
-7.8427e-09
-1.31644e-09
-7.13995e-09
-1.30974e-09
-6.44381e-09
-1.29798e-09
-5.75749e-09
-1.28023e-09
-5.08468e-09
-1.2555e-09
-4.42965e-09
-1.22268e-09
-3.79722e-09
-1.18061e-09
-3.19282e-09
-1.12807e-09
-2.62243e-09
-1.06388e-09
-2.09252e-09
-9.86943e-10
-1.60989e-09
-8.96381e-10
-1.18148e-09
-7.91723e-10
-8.13904e-10
-6.73195e-10
-5.12941e-10
-5.42177e-10
-2.82581e-10
-4.01942e-10
-1.23764e-10
-2.58835e-10
-3.26628e-11
-1.2392e-10
1.49012e-12
-1.56331e-11
3.33256e-11
-1.55737e-11
-9.7254e-12
-8.76466e-11
7.29173e-11
-2.29392e-10
2.39576e-10
-4.50184e-10
4.44344e-10
-7.53381e-10
6.60779e-10
-1.13787e-09
8.73603e-10
-1.59949e-09
1.07372e-09
-2.13212e-09
1.25605e-09
-2.72857e-09
1.41812e-09
-3.38117e-09
1.55921e-09
-4.08222e-09
1.67974e-09
-4.82429e-09
1.78083e-09
-5.60046e-09
1.86404e-09
-6.4044e-09
1.93113e-09
-7.23042e-09
1.98392e-09
-8.0735e-09
2.02423e-09
-8.92926e-09
2.05378e-09
-9.79394e-09
2.07416e-09
-1.06644e-08
2.08681e-09
-1.15378e-08
2.09297e-09
-1.2412e-08
2.09375e-09
-1.3285e-08
2.0901e-09
-1.41554e-08
2.08281e-09
-1.50217e-08
2.07252e-09
-1.5883e-08
2.05978e-09
-1.67382e-08
2.04499e-09
-1.75868e-08
2.02851e-09
-1.8428e-08
2.01059e-09
-1.92612e-08
1.99144e-09
-2.0086e-08
1.9712e-09
-2.0902e-08
1.95e-09
-2.17088e-08
1.92791e-09
-2.2506e-08
1.90499e-09
-2.32932e-08
1.88128e-09
-2.40702e-08
1.85681e-09
-2.48365e-08
1.8316e-09
-2.5592e-08
1.80567e-09
-2.63362e-08
1.77902e-09
-2.70689e-08
1.75165e-09
-2.77898e-08
1.72358e-09
-2.84985e-08
1.69481e-09
-2.91949e-08
1.66534e-09
-2.98786e-08
1.63517e-09
-3.05492e-08
1.60432e-09
-3.12066e-08
1.57279e-09
-3.18505e-08
1.54058e-09
-3.24805e-08
1.50771e-09
-3.30964e-08
1.47418e-09
-3.36979e-08
1.44e-09
-3.42848e-08
1.40517e-09
-3.48567e-08
1.36971e-09
-3.54136e-08
1.33364e-09
-3.5955e-08
1.29695e-09
-3.64807e-08
1.25967e-09
-3.69905e-08
1.2218e-09
-3.74842e-08
1.18336e-09
-3.79615e-08
1.14436e-09
-3.84222e-08
1.10481e-09
-3.88661e-08
1.06472e-09
-3.92929e-08
1.02411e-09
-3.97024e-08
9.82993e-10
-4.00945e-08
9.41379e-10
-4.0469e-08
8.99283e-10
-4.08256e-08
8.5672e-10
-4.11641e-08
8.13703e-10
-4.14845e-08
7.70245e-10
-4.17864e-08
7.2636e-10
-4.20698e-08
6.82063e-10
-4.23344e-08
6.37369e-10
-4.25801e-08
5.92293e-10
-4.28068e-08
5.46848e-10
-4.30144e-08
5.0105e-10
-4.32026e-08
4.54914e-10
-4.33714e-08
4.08457e-10
-4.35206e-08
3.61696e-10
-4.36501e-08
3.14649e-10
-4.37598e-08
2.67332e-10
-4.38496e-08
2.19762e-10
-4.39195e-08
1.71958e-10
-4.39693e-08
1.23937e-10
-4.39989e-08
7.57203e-11
-4.40083e-08
2.73262e-11
-4.39974e-08
-2.12252e-11
-4.39662e-08
-6.99143e-11
-4.39146e-08
-1.18721e-10
-4.38426e-08
-1.67626e-10
-4.37501e-08
-2.16607e-10
-4.36372e-08
-2.65644e-10
-4.35038e-08
-3.14714e-10
-4.33499e-08
-3.63797e-10
-4.31755e-08
-4.12869e-10
-4.29807e-08
-4.61909e-10
-4.27655e-08
-5.10897e-10
-4.25298e-08
-5.59808e-10
-4.22738e-08
-6.08621e-10
-4.19975e-08
-6.57311e-10
-4.1701e-08
-7.05856e-10
-4.13843e-08
-7.54233e-10
-4.10475e-08
-8.02416e-10
-4.06907e-08
-8.50383e-10
-4.03141e-08
-8.98108e-10
-3.99177e-08
-9.45566e-10
-3.95016e-08
-9.92732e-10
-3.90661e-08
-1.03958e-09
-3.86112e-08
-1.08608e-09
-3.81371e-08
-1.13221e-09
-3.76439e-08
-1.17794e-09
-3.71319e-08
-1.22325e-09
-3.66012e-08
-1.26811e-09
-3.60521e-08
-1.3125e-09
-3.54847e-08
-1.35638e-09
-3.48993e-08
-1.39973e-09
-3.42961e-08
-1.44253e-09
-3.36753e-08
-1.48474e-09
-3.30372e-08
-1.52635e-09
-3.23821e-08
-1.56733e-09
-3.17102e-08
-1.60766e-09
-3.10218e-08
-1.6473e-09
-3.03172e-08
-1.68624e-09
-2.95967e-08
-1.72446e-09
-2.88607e-08
-1.76193e-09
-2.81094e-08
-1.79863e-09
-2.73433e-08
-1.83453e-09
-2.65625e-08
-1.86961e-09
-2.57675e-08
-1.90385e-09
-2.49587e-08
-1.93721e-09
-2.41365e-08
-1.96966e-09
-2.33012e-08
-2.00115e-09
-2.24533e-08
-2.03164e-09
-2.15933e-08
-2.06104e-09
-2.07216e-08
-2.08928e-09
-1.98389e-08
-2.11624e-09
-1.89457e-08
-2.14178e-09
-1.80428e-08
-2.1657e-09
-1.71309e-08
-2.18775e-09
-1.6211e-08
-2.20764e-09
-1.52842e-08
-2.22498e-09
-1.43518e-08
-2.23929e-09
-1.34154e-08
-2.24998e-09
-1.24767e-08
-2.25635e-09
-1.1538e-08
-2.25756e-09
-1.06018e-08
-2.25261e-09
-9.67122e-09
-2.24035e-09
-8.74973e-09
-2.21946e-09
-7.84149e-09
-2.18847e-09
-6.95126e-09
-2.14573e-09
-6.08445e-09
-2.08949e-09
-5.24716e-09
-2.0179e-09
-4.44615e-09
-1.92908e-09
-3.6888e-09
-1.82123e-09
-2.98299e-09
-1.69276e-09
-2.33688e-09
-1.54248e-09
-1.75868e-09
-1.36993e-09
-1.25611e-09
-1.17577e-09
-8.35823e-10
-9.62462e-10
-5.02552e-10
-7.35214e-10
-2.57984e-10
-5.03406e-10
-9.94791e-11
-2.82425e-10
-1.87167e-11
-9.63966e-11
1.46087e-11
-3.44933e-11
2.47693e-11
-1.52601e-10
1.91026e-10
-3.61164e-10
4.48139e-10
-6.65099e-10
7.4828e-10
-1.06543e-09
1.06111e-09
-1.55967e-09
1.36784e-09
-2.14268e-09
1.65673e-09
-2.80752e-09
1.92088e-09
-3.54614e-09
2.15675e-09
-4.35003e-09
2.3631e-09
-5.21057e-09
2.54028e-09
-6.1194e-09
2.68966e-09
-7.06863e-09
2.81327e-09
-8.051e-09
2.91349e-09
-9.05992e-09
2.99284e-09
-1.00895e-08
3.05385e-09
-1.11347e-08
3.09895e-09
-1.2191e-08
3.13041e-09
-1.32545e-08
3.1503e-09
-1.4322e-08
3.16046e-09
-1.53907e-08
3.16248e-09
-1.64583e-08
3.15774e-09
-1.75229e-08
3.14742e-09
-1.85829e-08
3.1325e-09
-1.96369e-08
3.11376e-09
-2.06837e-08
3.09184e-09
-2.17225e-08
3.06728e-09
-2.27524e-08
3.04045e-09
-2.37726e-08
3.01169e-09
-2.47827e-08
2.98122e-09
-2.57819e-08
2.94923e-09
-2.67698e-08
2.91585e-09
-2.7746e-08
2.88116e-09
-2.871e-08
2.84525e-09
-2.96613e-08
2.80816e-09
-3.05996e-08
2.76992e-09
-3.15245e-08
2.73057e-09
-3.24356e-08
2.69011e-09
-3.33325e-08
2.64857e-09
-3.42149e-08
2.60594e-09
-3.50823e-08
2.56225e-09
-3.59345e-08
2.5175e-09
-3.6771e-08
2.4717e-09
-3.75916e-08
2.42485e-09
-3.83958e-08
2.37698e-09
-3.91833e-08
2.32809e-09
-3.99537e-08
2.27819e-09
-4.07069e-08
2.2273e-09
-4.14423e-08
2.17542e-09
-4.21597e-08
2.12258e-09
-4.28588e-08
2.06879e-09
-4.35392e-08
2.01407e-09
-4.42007e-08
1.95843e-09
-4.48429e-08
1.90189e-09
-4.54656e-08
1.84447e-09
-4.60684e-08
1.78619e-09
-4.66511e-08
1.72707e-09
-4.72134e-08
1.66712e-09
-4.77551e-08
1.60636e-09
-4.82758e-08
1.54482e-09
-4.87753e-08
1.48252e-09
-4.92534e-08
1.41947e-09
-4.97098e-08
1.3557e-09
-5.01443e-08
1.29123e-09
-5.05567e-08
1.22608e-09
-5.09467e-08
1.16027e-09
-5.13142e-08
1.09382e-09
-5.16589e-08
1.02675e-09
-5.19806e-08
9.59098e-10
-5.22792e-08
8.90871e-10
-5.25544e-08
8.22098e-10
-5.28062e-08
7.52801e-10
-5.30343e-08
6.83002e-10
-5.32385e-08
6.12728e-10
-5.34188e-08
5.42005e-10
-5.35751e-08
4.70859e-10
-5.3707e-08
3.99315e-10
-5.38147e-08
3.274e-10
-5.38979e-08
2.5514e-10
-5.39565e-08
1.82564e-10
-5.39905e-08
1.097e-10
-5.39997e-08
3.65773e-11
-5.39842e-08
-3.67734e-11
-5.39438e-08
-1.10324e-10
-5.38784e-08
-1.84043e-10
-5.37882e-08
-2.57902e-10
-5.36729e-08
-3.31869e-10
-5.35326e-08
-4.05912e-10
-5.33674e-08
-4.79998e-10
-5.31771e-08
-5.54094e-10
-5.29618e-08
-6.28168e-10
-5.27215e-08
-7.02188e-10
-5.24563e-08
-7.7612e-10
-5.21661e-08
-8.4993e-10
-5.18512e-08
-9.23584e-10
-5.15114e-08
-9.97046e-10
-5.1147e-08
-1.07028e-09
-5.0758e-08
-1.14325e-09
-5.03445e-08
-1.21593e-09
-4.99066e-08
-1.28827e-09
-4.94445e-08
-1.36024e-09
-4.89582e-08
-1.4318e-09
-4.84481e-08
-1.50291e-09
-4.79141e-08
-1.57353e-09
-4.73566e-08
-1.64363e-09
-4.67756e-08
-1.71316e-09
-4.61715e-08
-1.78209e-09
-4.55443e-08
-1.85037e-09
-4.48945e-08
-1.91797e-09
-4.42221e-08
-1.98485e-09
-4.35275e-08
-2.05097e-09
-4.2811e-08
-2.11629e-09
-4.20727e-08
-2.18077e-09
-4.13131e-08
-2.24436e-09
-4.05324e-08
-2.30705e-09
-3.9731e-08
-2.36877e-09
-3.89091e-08
-2.42951e-09
-3.80672e-08
-2.48922e-09
-3.72056e-08
-2.54787e-09
-3.63246e-08
-2.60542e-09
-3.54247e-08
-2.66183e-09
-3.45063e-08
-2.71707e-09
-3.35697e-08
-2.77111e-09
-3.26154e-08
-2.8239e-09
-3.16439e-08
-2.8754e-09
-3.06555e-08
-2.92556e-09
-2.96509e-08
-2.97432e-09
-2.86304e-08
-3.02162e-09
-2.75947e-08
-3.06737e-09
-2.65442e-08
-3.11145e-09
-2.54798e-08
-3.15373e-09
-2.4402e-08
-3.19403e-09
-2.33117e-08
-3.23212e-09
-2.22096e-08
-3.26771e-09
-2.1097e-08
-3.30042e-09
-1.99748e-08
-3.32979e-09
-1.88446e-08
-3.35523e-09
-1.77078e-08
-3.37602e-09
-1.65665e-08
-3.3913e-09
-1.54229e-08
-3.40001e-09
-1.42795e-08
-3.40091e-09
-1.31396e-08
-3.39253e-09
-1.20067e-08
-3.3732e-09
-1.08852e-08
-3.341e-09
-9.77987e-09
-3.29381e-09
-8.69632e-09
-3.22928e-09
-7.64087e-09
-3.14494e-09
-6.62057e-09
-3.03819e-09
-5.6432e-09
-2.90645e-09
-4.71714e-09
-2.74729e-09
-3.85127e-09
-2.55863e-09
-3.05473e-09
-2.33902e-09
-2.33663e-09
-2.08803e-09
-1.70556e-09
-1.80684e-09
-1.16905e-09
-1.49898e-09
-7.32821e-10
-1.17144e-09
-4.00036e-10
-8.3619e-10
-1.70459e-10
-5.12003e-10
-3.98689e-11
-2.26988e-10
-2.526e-11
-5.31717e-11
7.79394e-11
-2.17141e-10
3.54995e-10
-4.92139e-10
7.23134e-10
-8.78294e-10
1.13443e-09
-1.37357e-09
1.55639e-09
-1.97356e-09
1.96783e-09
-2.67184e-09
2.35502e-09
-3.46053e-09
2.70957e-09
-4.33082e-09
3.02703e-09
-5.27343e-09
3.30572e-09
-6.27907e-09
3.54592e-09
-7.33868e-09
3.74926e-09
-8.44365e-09
3.91824e-09
-9.58602e-09
4.05586e-09
-1.07585e-08
4.16537e-09
-1.19547e-08
4.25004e-09
-1.31688e-08
4.31305e-09
-1.43958e-08
4.35741e-09
-1.56314e-08
4.38584e-09
-1.68717e-08
4.40082e-09
-1.81138e-08
4.4045e-09
-1.93548e-08
4.39876e-09
-2.05925e-08
4.38517e-09
-2.18251e-08
4.36508e-09
-2.30509e-08
4.33957e-09
-2.42686e-08
4.30954e-09
-2.54771e-08
4.27572e-09
-2.66753e-08
4.23865e-09
-2.78624e-08
4.19879e-09
-2.90376e-08
4.15648e-09
-3.02003e-08
4.11197e-09
-3.13499e-08
4.06545e-09
-3.24859e-08
4.01707e-09
-3.36075e-08
3.96693e-09
-3.47145e-08
3.91511e-09
-3.58062e-08
3.86166e-09
-3.68823e-08
3.80663e-09
-3.79422e-08
3.75004e-09
-3.89856e-08
3.69191e-09
-4.00119e-08
3.63227e-09
-4.10208e-08
3.57113e-09
-4.20118e-08
3.50851e-09
-4.29845e-08
3.44442e-09
-4.39385e-08
3.37888e-09
-4.48735e-08
3.3119e-09
-4.57889e-08
3.2435e-09
-4.66844e-08
3.17369e-09
-4.75596e-08
3.10251e-09
-4.84141e-08
3.02996e-09
-4.92476e-08
2.95607e-09
-5.00597e-08
2.88086e-09
-5.085e-08
2.80435e-09
-5.16181e-08
2.72658e-09
-5.23638e-08
2.64755e-09
-5.30866e-08
2.5673e-09
-5.37863e-08
2.48586e-09
-5.44625e-08
2.40325e-09
-5.51148e-08
2.31949e-09
-5.57431e-08
2.23463e-09
-5.63469e-08
2.14867e-09
-5.69261e-08
2.06166e-09
-5.74802e-08
1.97361e-09
-5.80091e-08
1.88457e-09
-5.85124e-08
1.79456e-09
-5.89899e-08
1.70361e-09
-5.94414e-08
1.61175e-09
-5.98666e-08
1.51901e-09
-6.02653e-08
1.42542e-09
-6.06372e-08
1.33101e-09
-6.09821e-08
1.23583e-09
-6.12999e-08
1.13989e-09
-6.15903e-08
1.04323e-09
-6.18532e-08
9.45888e-10
-6.20884e-08
8.47896e-10
-6.22957e-08
7.49291e-10
-6.24749e-08
6.50108e-10
-6.2626e-08
5.50383e-10
-6.27488e-08
4.50152e-10
-6.28431e-08
3.49455e-10
-6.29088e-08
2.48328e-10
-6.29459e-08
1.46814e-10
-6.29543e-08
4.49508e-11
-6.29339e-08
-5.72193e-11
-6.28845e-08
-1.59656e-10
-6.28063e-08
-2.62318e-10
-6.2699e-08
-3.65163e-10
-6.25627e-08
-4.68148e-10
-6.23974e-08
-5.71227e-10
-6.22031e-08
-6.74357e-10
-6.19797e-08
-7.77492e-10
-6.17272e-08
-8.80587e-10
-6.14458e-08
-9.83598e-10
-6.11355e-08
-1.08648e-09
-6.07962e-08
-1.18918e-09
-6.04282e-08
-1.29165e-09
-6.00314e-08
-1.39385e-09
-5.96059e-08
-1.49572e-09
-5.9152e-08
-1.59722e-09
-5.86696e-08
-1.69829e-09
-5.8159e-08
-1.79889e-09
-5.76203e-08
-1.89896e-09
-5.70536e-08
-1.99846e-09
-5.64592e-08
-2.09732e-09
-5.58372e-08
-2.1955e-09
-5.51879e-08
-2.29294e-09
-5.45115e-08
-2.38958e-09
-5.38082e-08
-2.48538e-09
-5.30783e-08
-2.58028e-09
-5.23221e-08
-2.67423e-09
-5.15397e-08
-2.76716e-09
-5.07317e-08
-2.85904e-09
-4.98982e-08
-2.94979e-09
-4.90396e-08
-3.03937e-09
-4.81562e-08
-3.12773e-09
-4.72485e-08
-3.2148e-09
-4.63167e-08
-3.30055e-09
-4.53613e-08
-3.38492e-09
-4.43827e-08
-3.46785e-09
-4.33812e-08
-3.5493e-09
-4.23574e-08
-3.62921e-09
-4.13117e-08
-3.70754e-09
-4.02446e-08
-3.78423e-09
-3.91565e-08
-3.85923e-09
-3.80479e-08
-3.93248e-09
-3.69193e-08
-4.00393e-09
-3.57714e-08
-4.07349e-09
-3.46047e-08
-4.14108e-09
-3.34197e-08
-4.2066e-09
-3.22171e-08
-4.26992e-09
-3.09977e-08
-4.33088e-09
-2.97621e-08
-4.38929e-09
-2.85113e-08
-4.44489e-09
-2.72461e-08
-4.49734e-09
-2.59676e-08
-4.54623e-09
-2.46769e-08
-4.59105e-09
-2.33756e-08
-4.63113e-09
-2.20652e-08
-4.66567e-09
-2.07475e-08
-4.69367e-09
-1.94249e-08
-4.71395e-09
-1.80998e-08
-4.72506e-09
-1.67754e-08
-4.7253e-09
-1.54552e-08
-4.71272e-09
-1.41434e-08
-4.68503e-09
-1.28447e-08
-4.6397e-09
-1.15646e-08
-4.57388e-09
-1.03094e-08
-4.4845e-09
-9.08606e-09
-4.3683e-09
-7.90233e-09
-4.22193e-09
-6.76671e-09
-4.04207e-09
-5.68835e-09
-3.82566e-09
-4.67686e-09
-3.57012e-09
-3.74213e-09
-3.27375e-09
-2.894e-09
-2.93616e-09
-2.14188e-09
-2.55896e-09
-1.49429e-09
-2.14658e-09
-9.58278e-10
-1.70745e-09
-5.39016e-10
-1.25545e-09
-2.39378e-10
-8.11642e-10
-5.9956e-11
-4.0641e-10
-8.5216e-11
-7.0506e-11
1.48446e-10
-2.77756e-10
5.62246e-10
-6.15991e-10
1.06137e-09
-1.0806e-09
1.59904e-09
-1.66622e-09
2.14202e-09
-2.3662e-09
2.66781e-09
-3.17258e-09
3.1614e-09
-4.07639e-09
3.61338e-09
-5.06799e-09
4.01862e-09
-6.13743e-09
4.37516e-09
-7.2748e-09
4.68329e-09
-8.4705e-09
4.94496e-09
-9.7154e-09
5.16314e-09
-1.1001e-08
5.34147e-09
-1.23196e-08
5.48394e-09
-1.36641e-08
5.59459e-09
-1.50285e-08
5.67738e-09
-1.64071e-08
5.73607e-09
-1.77954e-08
5.77409e-09
-1.91891e-08
5.79457e-09
-2.05849e-08
5.80025e-09
-2.19796e-08
5.79354e-09
-2.33709e-08
5.77646e-09
-2.47566e-08
5.75074e-09
-2.61348e-08
5.71779e-09
-2.75041e-08
5.6788e-09
-2.8863e-08
5.63469e-09
-3.02106e-08
5.58621e-09
-3.15457e-08
5.53394e-09
-3.28676e-08
5.47836e-09
-3.41755e-08
5.41979e-09
-3.54685e-08
5.35851e-09
-3.67462e-08
5.29472e-09
-3.80078e-08
5.22855e-09
-3.92528e-08
5.16012e-09
-4.04807e-08
5.08952e-09
-4.16908e-08
5.01679e-09
-4.28827e-08
4.94198e-09
-4.4056e-08
4.86512e-09
-4.521e-08
4.78626e-09
-4.63442e-08
4.70541e-09
-4.74583e-08
4.6226e-09
-4.85517e-08
4.53785e-09
-4.9624e-08
4.45117e-09
-5.06748e-08
4.36261e-09
-5.17034e-08
4.27217e-09
-5.27096e-08
4.17988e-09
-5.36929e-08
4.08578e-09
-5.46528e-08
3.98988e-09
-5.5589e-08
3.89222e-09
-5.65009e-08
3.79283e-09
-5.73883e-08
3.69174e-09
-5.82507e-08
3.58898e-09
-5.90877e-08
3.48457e-09
-5.9899e-08
3.37857e-09
-6.06841e-08
3.271e-09
-6.14428e-08
3.16189e-09
-6.21746e-08
3.0513e-09
-6.28792e-08
2.93924e-09
-6.35563e-08
2.82575e-09
-6.42055e-08
2.71089e-09
-6.48266e-08
2.59467e-09
-6.54191e-08
2.47715e-09
-6.5983e-08
2.35837e-09
-6.65177e-08
2.23835e-09
-6.70231e-08
2.11715e-09
-6.74989e-08
1.9948e-09
-6.79448e-08
1.87134e-09
-6.83606e-08
1.74683e-09
-6.87461e-08
1.62129e-09
-6.9101e-08
1.49478e-09
-6.94251e-08
1.36734e-09
-6.97182e-08
1.23901e-09
-6.99802e-08
1.10984e-09
-7.02107e-08
9.79869e-10
-7.04098e-08
8.49156e-10
-7.05771e-08
7.17743e-10
-7.07127e-08
5.8568e-10
-7.08162e-08
4.53016e-10
-7.08877e-08
3.19802e-10
-7.0927e-08
1.86092e-10
-7.0934e-08
5.19362e-11
-7.09086e-08
-8.26105e-11
-7.08507e-08
-2.17495e-10
-7.07604e-08
-3.52663e-10
-7.06375e-08
-4.88058e-10
-7.0482e-08
-6.23624e-10
-7.0294e-08
-7.59302e-10
-7.00733e-08
-8.95035e-10
-6.982e-08
-1.03076e-09
-6.95342e-08
-1.16643e-09
-6.92158e-08
-1.30197e-09
-6.8865e-08
-1.43733e-09
-6.84817e-08
-1.57243e-09
-6.80661e-08
-1.70723e-09
-6.76183e-08
-1.84166e-09
-6.71384e-08
-1.97565e-09
-6.66265e-08
-2.10913e-09
-6.60827e-08
-2.24205e-09
-6.55073e-08
-2.37433e-09
-6.49003e-08
-2.50591e-09
-6.42621e-08
-2.63671e-09
-6.35927e-08
-2.76668e-09
-6.28925e-08
-2.89574e-09
-6.21616e-08
-3.02382e-09
-6.14003e-08
-3.15085e-09
-6.06089e-08
-3.27676e-09
-5.97877e-08
-3.40147e-09
-5.8937e-08
-3.52493e-09
-5.80572e-08
-3.64705e-09
-5.71484e-08
-3.76776e-09
-5.62112e-08
-3.887e-09
-5.52459e-08
-4.0047e-09
-5.42528e-08
-4.12078e-09
-5.32325e-08
-4.23517e-09
-5.21852e-08
-4.34781e-09
-5.11115e-08
-4.45862e-09
-5.00118e-08
-4.56754e-09
-4.88866e-08
-4.67451e-09
-4.77364e-08
-4.77945e-09
-4.65616e-08
-4.8823e-09
-4.53628e-08
-4.98298e-09
-4.41406e-08
-5.08143e-09
-4.28956e-08
-5.17756e-09
-4.16282e-08
-5.27129e-09
-4.03392e-08
-5.36251e-09
-3.90291e-08
-5.45112e-09
-3.76988e-08
-5.53696e-09
-3.63488e-08
-5.61987e-09
-3.49801e-08
-5.69963e-09
-3.35934e-08
-5.77596e-09
-3.21898e-08
-5.84853e-09
-3.07702e-08
-5.91689e-09
-2.9336e-08
-5.98049e-09
-2.78884e-08
-6.03865e-09
-2.6429e-08
-6.09049e-09
-2.49597e-08
-6.13497e-09
-2.34826e-08
-6.1708e-09
-2.20001e-08
-6.19641e-09
-2.05152e-08
-6.20997e-09
-1.90312e-08
-6.2093e-09
-1.7552e-08
-6.19187e-09
-1.60822e-08
-6.15482e-09
-1.4627e-08
-6.0949e-09
-1.31924e-08
-6.00854e-09
-1.1785e-08
-5.89191e-09
-1.04123e-08
-5.74094e-09
-9.08276e-09
-5.5515e-09
-7.8053e-09
-5.31953e-09
-6.58964e-09
-5.04132e-09
-5.44598e-09
-4.71378e-09
-4.38484e-09
-4.33489e-09
-3.41674e-09
-3.90425e-09
-2.55196e-09
-3.42374e-09
-1.80013e-09
-2.89842e-09
-1.16991e-09
-2.33766e-09
-6.68798e-10
-1.75657e-09
-3.03053e-10
-1.17739e-09
-7.81188e-11
-6.31344e-10
-1.63335e-10
-8.60104e-11
2.34454e-10
-3.32802e-10
8.09038e-10
-7.29408e-10
1.45798e-09
-1.26687e-09
2.1365e-09
-1.93658e-09
2.81173e-09
-2.72949e-09
3.46073e-09
-3.63594e-09
4.06785e-09
-4.64574e-09
4.62318e-09
-5.74838e-09
5.12126e-09
-6.93321e-09
5.55999e-09
-8.18979e-09
5.93986e-09
-9.508e-09
6.26317e-09
-1.08783e-08
6.53345e-09
-1.22918e-08
6.755e-09
-1.37405e-08
6.93254e-09
-1.52168e-08
7.07093e-09
-1.67143e-08
7.17491e-09
-1.82272e-08
7.249e-09
-1.97505e-08
7.29739e-09
-2.12798e-08
7.32387e-09
-2.28114e-08
7.33179e-09
-2.43419e-08
7.3241e-09
-2.58688e-08
7.3033e-09
-2.73896e-08
7.27153e-09
-2.89023e-08
7.23055e-09
-3.04054e-08
7.18182e-09
-3.18972e-08
7.12652e-09
-3.33766e-08
7.06559e-09
-3.48424e-08
6.99978e-09
-3.62937e-08
6.92966e-09
-3.77296e-08
6.8557e-09
-3.91493e-08
6.77821e-09
-4.05521e-08
6.69748e-09
-4.19372e-08
6.61369e-09
-4.33041e-08
6.52699e-09
-4.46521e-08
6.43749e-09
-4.59806e-08
6.34526e-09
-4.7289e-08
6.25038e-09
-4.85767e-08
6.1529e-09
-4.98433e-08
6.05285e-09
-5.10882e-08
5.95027e-09
-5.23108e-08
5.8452e-09
-5.35106e-08
5.73767e-09
-5.46871e-08
5.62771e-09