/*--------------------------------*- C++ -*----------------------------------*\
  =========                 |
  \\      /  F ield         | OpenFOAM: The Open Source CFD Toolbox
   \\    /   O peration     | Website:  https://openfoam.org
    \\  /    A nd           | Version:  7
     \\/     M anipulation  |
\*---------------------------------------------------------------------------*/
FoamFile
{
    version     2.0;
    format      ascii;
    class       volScalarField;
    location    "0.4375";
    object      p;
}
// * * * * * * * * * * * * * * * * * * * * * * * * * * * * * * * * * * * * * //

dimensions      [0 2 -2 0 0 0 0];

internalField   nonuniform List<scalar> 
25600
(
6.03953e-07
0.000112714
0.000141453
3.32667e-05
-0.000220025
-0.000614422
-0.00113893
-0.001779
-0.00251914
-0.00334414
-0.00423952
-0.0051917
-0.00618805
-0.00721691
-0.00826757
-0.00933019
-0.0103957
-0.011456
-0.0125033
-0.0135308
-0.0145322
-0.0155016
-0.0164337
-0.0173239
-0.0181676
-0.018961
-0.0197005
-0.0203828
-0.0210051
-0.0215648
-0.0220595
-0.0224874
-0.0228467
-0.0231358
-0.0233534
-0.0234986
-0.0235705
-0.0235685
-0.023492
-0.0233408
-0.0231147
-0.0228138
-0.0224383
-0.0219884
-0.0214647
-0.0208677
-0.0201982
-0.0194569
-0.0186448
-0.017763
-0.0168126
-0.0157949
-0.0147112
-0.0135629
-0.0123516
-0.0110788
-0.00974629
-0.00835574
-0.00690902
-0.005408
-0.00385466
-0.00225102
-0.000599166
0.00109875
0.00284053
0.00462392
0.0064466
0.00830624
0.0102004
0.0121267
0.0140826
0.0160656
0.0180731
0.0201025
0.0221513
0.0242166
0.026296
0.0283865
0.0304856
0.0325905
0.0346983
0.0368063
0.0389117
0.0410117
0.0431035
0.0451843
0.0472513
0.0493016
0.0513325
0.0533412
0.055325
0.0572809
0.0592064
0.0610988
0.0629553
0.0647733
0.0665503
0.0682836
0.0699708
0.0716094
0.0731971
0.0747314
0.0762101
0.0776311
0.0789922
0.0802914
0.0815267
0.0826963
0.0837985
0.0848315
0.0857939
0.0866843
0.0875013
0.0882438
0.0889107
0.0895012
0.0900145
0.09045
0.0908074
0.0910862
0.0912866
0.0914085
0.0914523
0.0914184
0.0913076
0.0911207
0.090859
0.0905237
0.0901164
0.0896392
0.089094
0.0884833
0.0878099
0.0870766
0.086287
0.0854445
0.0845534
0.0836179
0.0826428
0.0816335
0.0805956
0.0795352
0.0784591
0.0773745
0.0762892
0.0752117
0.0741512
0.0731175
0.0721214
0.0711743
0.0702887
0.0694776
0.068755
0.0681355
0.0676333
0.0672618
0.06703
0.0669397
0.0669797
0.0670947
-0.000110648
1.17821e-06
5.3198e-06
-0.000115638
-0.00035771
-0.000719205
-0.00119359
-0.00177042
-0.00243773
-0.00318314
-0.00399442
-0.00485976
-0.00576797
-0.00670848
-0.00767144
-0.00864772
-0.00962882
-0.0106069
-0.0115748
-0.0125258
-0.0134538
-0.0143532
-0.0152189
-0.0160461
-0.0168306
-0.0175684
-0.018256
-0.0188903
-0.0194683
-0.0199875
-0.0204456
-0.0208405
-0.0211704
-0.0214339
-0.0216296
-0.0217564
-0.0218134
-0.0218
-0.0217155
-0.0215596
-0.0213322
-0.0210333
-0.0206628
-0.0202211
-0.0197086
-0.0191258
-0.0184733
-0.0177519
-0.0169624
-0.0161059
-0.0151833
-0.014196
-0.0131451
-0.012032
-0.0108582
-0.0096251
-0.0083344
-0.00698775
-0.0055869
-0.00413367
-0.00262994
-0.00107765
0.000521174
0.00216448
0.00385014
0.00557597
0.00733977
0.00913924
0.0109721
0.0128359
0.0147283
0.0166469
0.0185892
0.0205526
0.0225347
0.0245327
0.0265443
0.0285666
0.0305972
0.0326332
0.0346721
0.0367112
0.0387476
0.0407788
0.042802
0.0448145
0.0468136
0.0487966
0.0507607
0.0527033
0.0546217
0.0565132
0.0583753
0.0602054
0.0620007
0.0637589
0.0654774
0.0671537
0.0687855
0.0703704
0.0719061
0.0733904
0.074821
0.076196
0.0775133
0.0787709
0.0799671
0.0810999
0.0821679
0.0831694
0.0841031
0.0849674
0.0857614
0.0864838
0.0871337
0.0877103
0.088213
0.0886412
0.0889946
0.0892729
0.0894763
0.0896047
0.0896586
0.0896385
0.0895452
0.0893796
0.0891428
0.0888363
0.0884617
0.0880208
0.0875159
0.0869493
0.0863237
0.0856422
0.0849079
0.0841245
0.083296
0.0824267
0.0815212
0.0805846
0.0796226
0.078641
0.0776462
0.0766451
0.0756452
0.0746546
0.0736818
0.0727358
0.0718267
0.0709647
0.0701608
0.0694264
0.0687732
0.0682128
0.0677562
0.0674129
0.0671881
0.0670818
0.0670956
0.0672105
-0.000139431
-2.84466e-06
1.45967e-06
-0.000120753
-0.000352925
-0.000691957
-0.00113241
-0.0016656
-0.00228147
-0.0029695
-0.00371903
-0.00451962
-0.00536118
-0.00623411
-0.00712933
-0.00803832
-0.00895312
-0.00986633
-0.0107711
-0.0116609
-0.0125301
-0.0133731
-0.0141849
-0.0149611
-0.0156973
-0.0163898
-0.017035
-0.0176299
-0.0181715
-0.0186574
-0.0190851
-0.0194527
-0.0197584
-0.0200006
-0.020178
-0.0202895
-0.0203341
-0.0203112
-0.02022
-0.0200603
-0.0198317
-0.0195343
-0.0191681
-0.0187332
-0.01823
-0.017659
-0.0170208
-0.0163161
-0.0155455
-0.0147102
-0.0138111
-0.0128493
-0.011826
-0.0107425
-0.00960017
-0.00840051
-0.00714504
-0.00583536
-0.00447316
-0.00306019
-0.00159827
-8.92741e-05
0.00146485
0.0030621
0.00470043
0.00637773
0.00809184
0.00984056
0.0116216
0.0134328
0.0152717
0.0171359
0.0190232
0.0209309
0.0228567
0.024798
0.0267524
0.0287172
0.03069
0.032668
0.0346488
0.0366297
0.038608
0.0405812
0.0425466
0.0445016
0.0464435
0.0483697
0.0502776
0.0521646
0.0540281
0.0558655
0.0576742
0.0594519
0.0611958
0.0629037
0.0645731
0.0662016
0.0677869
0.0693267
0.0708188
0.0722611
0.0736515
0.0749879
0.0762685
0.0774913
0.0786547
0.0797568
0.0807962
0.0817714
0.082681
0.0835237
0.0842983
0.085004
0.0856397
0.0862048
0.0866986
0.0871208
0.0874708
0.0877488
0.0879545
0.0880884
0.0881507
0.088142
0.0880631
0.087915
0.0876989
0.0874161
0.0870683
0.0866574
0.0861855
0.085655
0.0850686
0.0844292
0.0837401
0.0830047
0.082227
0.0814112
0.0805618
0.0796837
0.0787824
0.0778635
0.0769332
0.0759981
0.0750652
0.0741422
0.0732371
0.0723583
0.0715149
0.0707164
0.0699726
0.0692937
0.0686896
0.0681703
0.0677449
0.0674213
0.0672041
0.0670952
0.0671095
0.0672514
-3.17294e-05
0.000118106
0.000124038
1.95557e-06
-0.000224293
-0.000549589
-0.000968202
-0.00147195
-0.00205186
-0.00269851
-0.00340241
-0.00415412
-0.00494451
-0.00576475
-0.00660647
-0.00746174
-0.0083231
-0.00918354
-0.0100366
-0.0108761
-0.0116964
-0.0124924
-0.0132592
-0.0139924
-0.0146879
-0.015342
-0.0159512
-0.0165125
-0.0170231
-0.0174803
-0.017882
-0.0182262
-0.018511
-0.0187348
-0.0188965
-0.0189947
-0.0190285
-0.0189973
-0.0189003
-0.0187372
-0.0185077
-0.0182117
-0.0178492
-0.0174203
-0.0169253
-0.0163647
-0.015739
-0.0150489
-0.0142951
-0.0134784
-0.0125999
-0.0116605
-0.0106616
-0.00960416
-0.00848966
-0.00731948
-0.0060951
-0.00481805
-0.00348998
-0.00211258
-0.000687593
0.000783145
0.00229776
0.0038543
0.00545079
0.00708517
0.00875535
0.0104592
0.0121945
0.0139591
0.0157506
0.0175668
0.0194054
0.0212639
0.0231399
0.0250311
0.0269349
0.0288489
0.0307705
0.0326974
0.0346268
0.0365563
0.0384833
0.0404053
0.0423197
0.0442239
0.0461153
0.0479915
0.0498498
0.0516878
0.0535028
0.0552925
0.0570542
0.0587857
0.0604844
0.0621481
0.0637742
0.0653606
0.066905
0.0684052
0.0698591
0.0712645
0.0726195
0.0739222
0.0751705
0.0763629
0.0774975
0.0785727
0.0795871
0.0805392
0.0814277
0.0822514
0.0830093
0.0837003
0.0843236
0.0848786
0.0853647
0.0857815
0.0861286
0.0864061
0.086614
0.0867524
0.0868219
0.086823
0.0867566
0.0866235
0.086425
0.0861625
0.0858377
0.0854524
0.0850087
0.0845089
0.0839558
0.0833521
0.0827011
0.0820062
0.0812712
0.0805001
0.0796975
0.0788681
0.0780169
0.0771496
0.076272
0.0753904
0.0745115
0.0736424
0.0727907
0.0719644
0.0711716
0.0704211
0.0697218
0.0690828
0.0685133
0.068022
0.0676172
0.0673063
0.0670942
0.0669853
0.0670028
0.0671619
0.000220829
0.000360203
0.000356628
0.00022875
2.46486e-06
-0.000315891
-0.000720283
-0.00120286
-0.00175536
-0.0023693
-0.00303611
-0.00374728
-0.00449447
-0.00526962
-0.00606501
-0.00687327
-0.00768743
-0.00850094
-0.00930764
-0.0101018
-0.0108779
-0.0116312
-0.0123568
-0.0130506
-0.0137086
-0.0143272
-0.0149031
-0.0154332
-0.0159149
-0.0163455
-0.0167229
-0.0170451
-0.0173103
-0.0175169
-0.0176637
-0.0177495
-0.0177733
-0.0177343
-0.0176319
-0.0174657
-0.0172353
-0.0169406
-0.0165817
-0.0161586
-0.0156715
-0.0151209
-0.0145073
-0.0138312
-0.0130933
-0.0122946
-0.0114358
-0.0105181
-0.00954247
-0.00851014
-0.00742237
-0.00628053
-0.00508603
-0.00384037
-0.00254512
-0.00120192
0.000187525
0.00162145
0.00309804
0.00461541
0.00617163
0.0077647
0.0093926
0.0110532
0.0127445
0.0144642
0.0162102
0.0179801
0.0197718
0.0215829
0.0234111
0.025254
0.0271091
0.0289742
0.0308467
0.0327243
0.0346043
0.0364844
0.0383621
0.0402349
0.0421002
0.0439556
0.0457986
0.0476267
0.0494374
0.0512282
0.0529968
0.0547406
0.0564573
0.0581445
0.0597999
0.061421
0.0630058
0.0645519
0.0660571
0.0675194
0.0689366
0.0703068
0.0716279
0.0728982
0.0741158
0.075279
0.0763861
0.0774357
0.0784261
0.0793562
0.0802246
0.0810302
0.081772
0.082449
0.0830606
0.0836059
0.0840845
0.0844961
0.0848405
0.0851174
0.0853272
0.0854699
0.0855461
0.0855563
0.0855014
0.0853824
0.0852004
0.0849568
0.0846533
0.0842918
0.0838742
0.083403
0.0828806
0.0823099
0.0816941
0.0810364
0.0803405
0.0796104
0.0788504
0.0780651
0.0772593
0.0764383
0.0756078
0.0747738
0.0739424
0.0731206
0.0723151
0.0715336
0.0707836
0.070073
0.06941
0.0688028
0.0682597
0.0677887
0.0673976
0.0670934
0.0668815
0.0667676
0.0667779
0.0669311
0.000614433
0.000722005
0.000696424
0.000554779
0.000321219
2.53326e-06
-0.000395159
-0.000864409
-0.00139756
-0.0019869
-0.00262467
-0.00330315
-0.00401476
-0.00475211
-0.0055081
-0.00627592
-0.00704909
-0.00782147
-0.00858726
-0.00934103
-0.0100777
-0.0107925
-0.011481
-0.0121391
-0.012763
-0.0133492
-0.0138946
-0.0143961
-0.0148511
-0.0152571
-0.0156121
-0.015914
-0.016161
-0.0163517
-0.0164847
-0.0165589
-0.0165733
-0.0165272
-0.0164198
-0.0162507
-0.0160197
-0.0157264
-0.015371
-0.0149534
-0.0144739
-0.0139329
-0.0133307
-0.0126681
-0.0119455
-0.0111639
-0.010324
-0.00942692
-0.0084736
-0.00746523
-0.006403
-0.00528824
-0.0041223
-0.00290664
-0.00164278
-0.000332291
0.00102317
0.00242189
0.00386211
0.00534201
0.00685969
0.00841325
0.0100007
0.01162
0.0132691
0.0149459
0.0166483
0.018374
0.0201209
0.0218866
0.023669
0.0254657
0.0272743
0.0290926
0.0309181
0.0327485
0.0345814
0.0364143
0.0382448
0.0400705
0.041889
0.0436978
0.0454945
0.0472767
0.049042
0.0507879
0.0525121
0.0542122
0.055886
0.057531
0.059145
0.0607257
0.062271
0.0637787
0.0652467
0.0666729
0.0680552
0.0693918
0.0706808
0.0719204
0.0731087
0.0742442
0.0753252
0.0763503
0.0773181
0.0782273
0.0790766
0.079865
0.0805915
0.0812553
0.0818555
0.0823917
0.0828632
0.0832698
0.0836114
0.0838877
0.0840991
0.0842457
0.084328
0.0843466
0.0843024
0.0841962
0.0840294
0.0838033
0.0835195
0.0831798
0.0827863
0.0823412
0.081847
0.0813065
0.0807227
0.0800988
0.0794384
0.0787453
0.0780236
0.0772778
0.0765124
0.0757326
0.0749436
0.0741512
0.0733611
0.0725798
0.0718138
0.0710698
0.0703551
0.0696767
0.0690423
0.0684592
0.0679349
0.0674768
0.0670922
0.0667881
0.0665698
0.0664437
0.0664348
0.0665611
0.00113851
0.00119735
0.00113839
0.000974749
0.000726333
0.000399899
1.46091e-06
-0.000462051
-0.00098359
-0.00155612
-0.00217259
-0.002826
-0.00350943
-0.00421614
-0.0049396
-0.00567351
-0.00641188
-0.00714898
-0.00787937
-0.00859796
-0.00929992
-0.00998076
-0.0106363
-0.0112625
-0.0118559
-0.012413
-0.0129308
-0.0134064
-0.0138373
-0.014221
-0.0145555
-0.0148389
-0.0150694
-0.0152455
-0.0153659
-0.0154296
-0.0154354
-0.0153827
-0.0152708
-0.0150992
-0.0148677
-0.0145759
-0.0142238
-0.0138116
-0.0133394
-0.0128074
-0.0122162
-0.0115663
-0.0108583
-0.0100929
-0.00927092
-0.00839337
-0.00746121
-0.00647554
-0.00543753
-0.00434845
-0.0032096
-0.0020224
-0.000788299
0.000491156
0.00181437
0.00317969
0.0045854
0.00602973
0.00751086
0.00902691
0.010576
0.012156
0.0137652
0.0154012
0.0170622
0.0187459
0.0204503
0.022173
0.0239119
0.0256648
0.0274293
0.0292033
0.0309842
0.0327699
0.0345581
0.0363462
0.0381321
0.0399132
0.0416873
0.043452
0.0452048
0.0469436
0.0486658
0.0503692
0.0520515
0.0537103
0.0553434
0.0569485
0.0585234
0.060066
0.0615741
0.0630455
0.0644783
0.0658704
0.0672199
0.0685248
0.0697835
0.070994
0.0721548
0.0732642
0.0743206
0.0753228
0.0762692
0.0771586
0.07799
0.0787622
0.0794743
0.0801255
0.0807151
0.0812425
0.0817073
0.0821092
0.082448
0.0827236
0.0829363
0.0830863
0.0831741
0.0832003
0.0831658
0.0830714
0.0829184
0.0827081
0.0824422
0.0821223
0.0817505
0.081329
0.0808603
0.0803469
0.0797918
0.0791982
0.0785694
0.0779092
0.0772214
0.0765103
0.0757803
0.0750363
0.0742832
0.0735263
0.0727713
0.072024
0.0712904
0.070577
0.0698902
0.0692366
0.0686232
0.0680567
0.0675439
0.0670916
0.0667065
0.0663953
0.0661636
0.0660175
0.0659785
0.0660608
0.00177922
0.00177637
0.00167433
0.00148099
0.00121048
0.000869259
0.000463111
-1.64832e-06
-0.000518618
-0.0010814
-0.00168359
-0.00231884
-0.00298086
-0.00366348
-0.00436071
-0.00506678
-0.00577611
-0.00648339
-0.00718355
-0.00787181
-0.00854364
-0.00919478
-0.00982126
-0.0104193
-0.0109856
-0.0115167
-0.0120099
-0.0124622
-0.0128714
-0.013235
-0.013551
-0.0138175
-0.014033
-0.0141959
-0.0143049
-0.0143589
-0.014357
-0.0142985
-0.0141826
-0.0140088
-0.013777
-0.0134867
-0.013138
-0.0127309
-0.0122656
-0.0117424
-0.0111616
-0.0105238
-0.00982952
-0.00907951
-0.00827455
-0.00741554
-0.00650343
-0.00553928
-0.00452423
-0.00345948
-0.00234631
-0.00118607
1.98105e-05
0.00126985
0.0025625
0.00389616
0.00526915
0.00667976
0.00812622
0.00960671
0.0111194
0.0126623
0.0142334
0.0158309
0.0174527
0.0190966
0.0207606
0.0224426
0.0241403
0.0258516
0.0275744
0.0293063
0.031045
0.0327884
0.0345342
0.0362799
0.0380235
0.0397625
0.0414945
0.0432175
0.0449289
0.0466265
0.0483081
0.0499713
0.051614
0.0532337
0.0548284
0.0563959
0.057934
0.0594405
0.0609134
0.0623507
0.0637503
0.0651102
0.0664287
0.0677039
0.068934
0.0701172
0.071252
0.0723368
0.0733702
0.0743506
0.075277
0.0761479
0.0769623
0.0777193
0.0784178
0.0790572
0.0796367
0.0801559
0.0806142
0.0810115
0.0813475
0.0816224
0.0818361
0.0819891
0.0820818
0.0821148
0.0820889
0.0820051
0.0818645
0.0816686
0.0814187
0.0811167
0.0807645
0.0803641
0.0799181
0.079429
0.0788995
0.0783327
0.0777319
0.0771006
0.0764425
0.0757617
0.0750624
0.0743491
0.0736265
0.0728997
0.0721738
0.0714544
0.070747
0.0700576
0.069392
0.0687565
0.0681572
0.0676004
0.0670924
0.0666392
0.066247
0.0659221
0.0656698
0.0654963
0.0654175
0.0654428
0.00252202
0.00244786
0.00229485
0.00206505
0.00176595
0.00140353
0.000983309
0.000510945
-7.83138e-06
-0.000567245
-0.00116151
-0.00178487
-0.00243161
-0.00309613
-0.00377294
-0.00445672
-0.00514234
-0.00582488
-0.00649963
-0.00716211
-0.00780808
-0.00843355
-0.00903475
-0.00960816
-0.0101505
-0.0106587
-0.0111299
-0.0115616
-0.0119513
-0.0122968
-0.0125962
-0.0128477
-0.0130496
-0.0132005
-0.0132993
-0.0133447
-0.0133359
-0.0132721
-0.0131527
-0.0129772
-0.0127453
-0.0124566
-0.0121113
-0.0117092
-0.0112505
-0.0107356
-0.0101647
-0.00953842
-0.00885723
-0.00812183
-0.00733298
-0.00649153
-0.00559842
-0.00465467
-0.00366135
-0.00261965
-0.0015308
-0.000396114
0.00078304
0.00200522
0.00326891
0.00457257
0.00591457
0.00729324
0.00870686
0.0101537
0.0116318
0.0131395
0.0146747
0.0162357
0.0178202
0.0194265
0.0210523
0.0226956
0.0243544
0.0260264
0.0277096
0.0294017
0.0311005
0.0328039
0.0345095
0.0362152
0.0379188
0.0396179
0.0413103
0.0429937
0.044666
0.0463248
0.047968
0.0495933
0.0511985
0.0527814
0.05434
0.0558719
0.0573752
0.0588478
0.0602875
0.0616926
0.0630609
0.0643907
0.06568
0.0669271
0.0681303
0.0692879
0.0703983
0.07146
0.0724716
0.0734317
0.0743391
0.0751926
0.0759911
0.0767337
0.0774195
0.0780477
0.0786177
0.079129
0.0795812
0.079974
0.0803074
0.0805812
0.0807958
0.0809513
0.0810482
0.0810872
0.0810691
0.0809947
0.0808653
0.0806821
0.0804466
0.0801606
0.0798258
0.0794443
0.0790185
0.0785508
0.0780439
0.0775008
0.0769244
0.0763183
0.075686
0.0750312
0.0743581
0.0736708
0.0729738
0.0722718
0.0715697
0.0708725
0.0701855
0.0695141
0.0688637
0.0682401
0.0676488
0.0670955
0.0665859
0.0661257
0.0657205
0.0653756
0.0650965
0.0648888
0.0647622
0.0647208
0.00335273
0.00320039
0.00299021
0.00271826
0.0023849
0.0019956
0.00155562
0.00106992
0.000543583
-1.8235e-05
-0.000610327
-0.00122749
-0.00186457
-0.00251647
-0.00317817
-0.00384481
-0.00451168
-0.00517421
-0.00582804
-0.00646901
-0.00709317
-0.00769676
-0.00827624
-0.0088283
-0.00934984
-0.00983794
-0.0102899
-0.0107033
-0.0110758
-0.0114053
-0.0116899
-0.0119279
-0.0121178
-0.0122581
-0.0123477
-0.0123855
-0.0123706
-0.0123022
-0.0121798
-0.0120029
-0.0117711
-0.0114842
-0.0111421
-0.0107449
-0.0102927
-0.00978567
-0.00922426
-0.00860889
-0.00794011
-0.00721856
-0.00644497
-0.00562016
-0.00474504
-0.00382058
-0.00284783
-0.00182794
-0.000762096
0.000348431
0.0015023
0.00269813
0.00393444
0.00520972
0.00652241
0.00787087
0.00925343
0.0106684
0.0121139
0.0135883
0.0150895
0.0166159
0.0181653
0.0197359
0.0213256
0.0229325
0.0245544
0.0261893
0.027835
0.0294896
0.0311507
0.0328162
0.034484
0.0361519
0.0378177
0.0394791
0.0411341
0.0427803
0.0444156
0.0460379
0.0476449
0.0492344
0.0508044
0.0523526
0.0538771
0.0553756
0.0568461
0.0582868
0.0596954
0.0610702
0.0624092
0.0637105
0.0649724
0.0661932
0.0673711
0.0685046
0.0695921
0.0706321
0.0716233
0.0725644
0.073454
0.0742911
0.0750747
0.0758038
0.0764775
0.0770952
0.0776563
0.0781601
0.0786064
0.078995
0.0793256
0.0795983
0.0798134
0.0799709
0.0800716
0.0801158
0.0801045
0.0800385
0.0799189
0.079747
0.0795243
0.0792524
0.078933
0.0785682
0.0781601
0.0777112
0.0772241
0.0767014
0.0761463
0.0755618
0.0749515
0.0743188
0.0736676
0.0730019
0.0723258
0.0716438
0.0709604
0.0702803
0.0696083
0.0689494
0.0683087
0.0676913
0.0671023
0.0665469
0.0660302
0.0655574
0.0651334
0.0647631
0.0644515
0.064204
0.0640234
0.0639082
0.00425799
0.00402271
0.00375067
0.00343191
0.00305948
0.00263839
0.00217363
0.0016695
0.00113044
0.000561032
-3.40803e-05
-0.000650225
-0.00128275
-0.00192702
-0.00257851
-0.00323276
-0.00388543
-0.00453234
-0.00516946
-0.00579293
-0.00639906
-0.00698435
-0.00754549
-0.00807936
-0.00858304
-0.00905379
-0.00948906
-0.0098865
-0.0102439
-0.0105594
-0.010831
-0.0110571
-0.0112363
-0.0113673
-0.0114488
-0.0114799
-0.0114596
-0.0113874
-0.0112625
-0.0110845
-0.0108531
-0.010568
-0.0102293
-0.00983678
-0.00939074
-0.00889135
-0.00833895
-0.00773398
-0.00707698
-0.00636855
-0.00560941
-0.00480034
-0.00394222
-0.00303599
-0.00208268
-0.00108339
-3.927e-05
0.00104844
0.00217844
0.00334937
0.00455983
0.00580832
0.00709333
0.00841327
0.00976651
0.0111514
0.0125661
0.014009
0.0154782
0.0169719
0.0184882
0.0200252
0.0215808
0.0231532
0.0247404
0.0263402
0.0279507
0.0295698
0.0311953
0.0328252
0.0344574
0.0360896
0.0377198
0.0393458
0.0409655
0.0425767
0.0441773
0.0457651
0.0473381
0.048894
0.0504309
0.0519465
0.0534389
0.0549061
0.0563459
0.0577565
0.059136
0.0604823
0.0617938
0.0630685
0.0643047
0.0655008
0.0666551
0.067766
0.0688321
0.0698518
0.0708239
0.0717471
0.0726201
0.0734419
0.0742114
0.0749279
0.0755903
0.0761981
0.0767506
0.0772474
0.0776881
0.0780725
0.0784004
0.0786719
0.0788871
0.0790464
0.0791501
0.0791989
0.0791935
0.0791348
0.0790238
0.0788619
0.0786503
0.0783907
0.0780847
0.0777344
0.0773418
0.0769092
0.076439
0.075934
0.0753968
0.0748307
0.0742388
0.0736244
0.0729912
0.072343
0.0716835
0.071017
0.0703477
0.0696798
0.0690179
0.0683665
0.0677303
0.067114
0.0665222
0.0659595
0.0654307
0.0649403
0.0644926
0.064092
0.0637433
0.0634511
0.0632118
0.0630177
0.00522542
0.00490408
0.00456673
0.00419743
0.00378195
0.00332487
0.00283098
0.00230395
0.0017476
0.00116596
0.000563159
-5.66273e-05
-0.000689217
-0.00133044
-0.00197618
-0.00262239
-0.00326509
-0.00390046
-0.00452477
-0.00513446
-0.0057261
-0.00629645
-0.00684242
-0.00736108
-0.0078497
-0.0083057
-0.00872667
-0.0091104
-0.00945483
-0.00975807
-0.0100184
-0.0102342
-0.0104042
-0.0105269
-0.0106014
-0.0106267
-0.0106019
-0.0105264
-0.0103995
-0.0102208
-0.00999
-0.00970693
-0.00937146
-0.00898363
-0.00854354
-0.00805144
-0.00750763
-0.00691256
-0.00626671
-0.00557071
-0.00482522
-0.00403102
-0.00318895
-0.00229993
-0.00136495
-0.000385084
0.000638547
0.00170474
0.00281224
0.00395972
0.0051458
0.00636905
0.00762797
0.00892103
0.0102466
0.0116032
0.0129889
0.0144022
0.0158412
0.0173041
0.0187892
0.0202945
0.0218181
0.0233581
0.0249125
0.0264794
0.0280567
0.0296424
0.0312345
0.0328308
0.0344294
0.0360282
0.037625
0.0392177
0.0408042
0.0423826
0.0439505
0.045506
0.047047
0.0485714
0.0500772
0.0515623
0.0530247
0.0544624
0.0558735
0.0572561
0.0586082
0.059928
0.0612137
0.0624635
0.0636757
0.0648488
0.065981
0.0670708
0.0681168
0.0691176
0.0700718
0.0709783
0.0718358
0.0726433
0.0733997
0.0741043
0.0747562
0.0753547
0.0758992
0.0763893
0.0768247
0.077205
0.0775302
0.0778003
0.0780155
0.078176
0.0782823
0.0783348
0.0783345
0.0782821
0.0781786
0.0780252
0.0778233
0.0775743
0.0772799
0.0769421
0.0765626
0.0761439
0.0756881
0.0751978
0.0746758
0.0741248
0.073548
0.0729484
0.0723296
0.0716949
0.071048
0.0703928
0.0697332
0.0690732
0.0684168
0.0677684
0.0671321
0.0665122
0.0659129
0.0653384
0.0647929
0.0642804
0.0638047
0.0633697
0.0629797
0.0626393
0.0623376
0.0620613
0.0062437
0.00583439
0.00542929
0.00500659
0.0045448
0.00404821
0.00352146
0.00296763
0.00238995
0.00179196
0.00117731
0.000549694
-8.71474e-05
-0.000729466
-0.00137354
-0.00201568
-0.0026523
-0.00327988
-0.003895
-0.00449437
-0.00507485
-0.00563341
-0.00616718
-0.00667344
-0.00714963
-0.00759334
-0.00800231
-0.00837445
-0.00870783
-0.00900066
-0.0092513
-0.00945829
-0.00962027
-0.00973605
-0.00980459
-0.00982494
-0.00979633
-0.00971808
-0.00958967
-0.00941066
-0.00918077
-0.00889978
-0.00856763
-0.00818433
-0.00775
-0.00726487
-0.00672925
-0.00614356
-0.00550829
-0.00482403
-0.00409144
-0.00331126
-0.00248432
-0.0016115
-0.000693788
0.000267798
0.00127215
0.00231811
0.00340444
0.00452985
0.00569301
0.00689252
0.00812692
0.00939471
0.0106943
0.0120242
0.0133827
0.0147681
0.0161787
0.0176128
0.0190685
0.020544
0.0220375
0.023547
0.0250707
0.0266066
0.0281528
0.0297072
0.0312679
0.0328328
0.0344
0.0359673
0.0375327
0.0390943
0.0406498
0.0421973
0.0437347
0.04526
0.0467711
0.048266
0.0497427
0.0511993
0.0526336
0.0540439
0.0554281
0.0567845
0.0581111
0.0594061
0.0606677
0.0618944
0.0630842
0.0642358
0.0653474
0.0664176
0.067445
0.0684281
0.0693658
0.0702567
0.0710997
0.0718939
0.0726381
0.0733316
0.0739736
0.0745634
0.0751004
0.0755842
0.0760144
0.0763909
0.0767134
0.076982
0.0771968
0.0773582
0.0774665
0.0775222
0.0775261
0.077479
0.0773818
0.0772357
0.077042
0.0768021
0.0765175
0.0761902
0.0758218
0.0754147
0.0749708
0.0744927
0.073983
0.0734442
0.0728793
0.0722912
0.0716832
0.0710585
0.0704205
0.0697728
0.0691189
0.0684626
0.0678077
0.067158
0.0665174
0.0658897
0.0652787
0.0646883
0.064122
0.0635836
0.0630763
0.0626031
0.0621687
0.0617771
0.0614104
0.0610498
0.00730251
0.00680424
0.00632976
0.00585149
0.00534079
0.00480178
0.00423902
0.00365501
0.0030525
0.00243453
0.00180432
0.00116512
0.000520261
-0.000126898
-0.000773007
-0.00141474
-0.00204883
-0.00267207
-0.00328134
-0.00387363
-0.00444601
-0.00499572
-0.00552008
-0.00601658
-0.00648282
-0.00691656
-0.0073157
-0.00767826
-0.00800245
-0.00828657
-0.0085291
-0.00872864
-0.00888393
-0.00899384
-0.00905737
-0.00907366
-0.00904195
-0.00896161
-0.00883215
-0.00865317
-0.00842437
-0.0081456
-0.00781676
-0.0074379
-0.00700913
-0.00653068
-0.00600285
-0.00542607
-0.0048008
-0.00412762
-0.00340717
-0.0026402
-0.00182748
-0.000969905
-6.84054e-05
0.000876008
0.00186226
0.00288922
0.00395568
0.0050604
0.00620206
0.00737929
0.00859068
0.00983477
0.01111
0.0124149
0.0137478
0.0151071
0.0164911
0.0178981
0.0193263
0.020774
0.0222392
0.0237202
0.0252152
0.0267221
0.0282391
0.0297642
0.0312955
0.032831
0.0343688
0.0359067
0.0374429
0.0389752
0.0405018
0.0420205
0.0435294
0.0450264
0.0465097
0.0479771
0.0494267
0.0508567
0.0522649
0.0536496
0.0550088
0.0563408
0.0576436
0.0589156
0.060155
0.06136
0.0625291
0.0636607
0.0647533
0.0658053
0.0668153
0.0677821
0.0687044
0.0695809
0.0704105
0.0711923
0.0719252
0.0726084
0.0732412
0.0738228
0.0743528
0.0748306
0.075256
0.0756287
0.0759485
0.0762155
0.0764298
0.0765917
0.0767015
0.0767597
0.0767671
0.0767243
0.0766324
0.0764924
0.0763055
0.0760731
0.0757967
0.075478
0.0751188
0.074721
0.0742868
0.0738184
0.0733183
0.0727889
0.072233
0.0716534
0.071053
0.0704349
0.0698023
0.0691585
0.0685067
0.0678505
0.0671932
0.0665385
0.0658897
0.0652504
0.064624
0.064014
0.0634235
0.0628557
0.0623135
0.0617994
0.0613178
0.0608727
0.0604393
0.0599932
0.00839249
0.00780493
0.00726007
0.00672464
0.00616303
0.00557923
0.00497779
0.00436075
0.00373035
0.00308922
0.00244016
0.00178603
0.00112978
0.000474404
-0.000177104
-0.000821746
-0.00145656
-0.00207864
-0.00268515
-0.00327331
-0.00384046
-0.00438405
-0.0049016
-0.0053908
-0.00584942
-0.00627538
-0.00666672
-0.00702161
-0.00733835
-0.00761539
-0.00785128
-0.00804472
-0.00819452
-0.00829962
-0.00835909
-0.00837212
-0.00833799
-0.00825613
-0.00812607
-0.00794743
-0.00771996
-0.0074435
-0.00711799
-0.00674347
-0.00632006
-0.005848
-0.00532759
-0.00475923
-0.0041434
-0.00348066
-0.00277164
-0.00201706
-0.0012177
-0.000374408
0.000511895
0.00144022
0.00240953
0.0034187
0.00446657
0.00555192
0.00667345
0.00782985
0.00901972
0.0102416
0.0114941
0.0127757
0.0140847
0.0154196
0.0167787
0.0181604
0.0195629
0.0209845
0.0224233
0.0238777
0.0253458
0.0268256
0.0283154
0.0298132
0.0313171
0.0328252
0.0343355
0.0358461
0.0373549
0.0388601
0.0403597
0.0418517
0.043334
0.0448048
0.0462622
0.047704
0.0491285
0.0505337
0.0519177
0.0532787
0.0546148
0.0559241
0.057205
0.0584556
0.0596743
0.0608594
0.0620093
0.0631225
0.0641974
0.0652326
0.0662267
0.0671783
0.0680864
0.0689496
0.0697668
0.0705371
0.0712596
0.0719333
0.0725575
0.0731316
0.073655
0.0741273
0.0745481
0.0749171
0.0752343
0.0754996
0.0757131
0.0758752
0.075986
0.0760462
0.0760563
0.076017
0.0759294
0.0757943
0.0756129
0.0753866
0.0751168
0.074805
0.074453
0.0740626
0.0736359
0.0731749
0.0726819
0.0721593
0.0716097
0.0710357
0.0704399
0.0698254
0.069195
0.0685517
0.0678987
0.0672391
0.0665761
0.0659128
0.0652524
0.0645981
0.063953
0.0633201
0.0627023
0.0621023
0.0615224
0.0609649
0.0604341
0.0599338
0.0594326
0.0589005
0.00950512
0.00882846
0.00821271
0.00761903
0.00700496
0.00637447
0.00573217
0.00507966
0.00441874
0.00375168
0.00308088
0.00240886
0.0017382
0.00107156
0.000411615
-0.000238945
-0.000877456
-0.00150128
-0.00210785
-0.00269463
-0.0032592
-0.00379919
-0.00431236
-0.00479655
-0.00524972
-0.00566995
-0.00605541
-0.00640441
-0.00671538
-0.00698686
-0.0072175
-0.0074061
-0.00755155
-0.00765286
-0.00770916
-0.00771969
-0.0076838
-0.00760095
-0.00747071
-0.00729273
-0.00706679
-0.00679275
-0.00647056
-0.00610027
-0.00568204
-0.00521607
-0.00470269
-0.0041423
-0.00353536
-0.00288243
-0.00218413
-0.00144117
-0.000654298
0.000175638
0.00104774
0.00196105
0.00291453
0.00390711
0.00493763
0.0060049
0.00710768
0.00824464
0.00941445
0.0106157
0.011847
0.0131067
0.0143935
0.0157056
0.0170416
0.0183997
0.0197782
0.0211756
0.0225899
0.0240195
0.0254626
0.0269173
0.0283817
0.0298541
0.0313326
0.0328152
0.0343
0.0357851
0.0372687
0.0387487
0.0402232
0.0416903
0.0431481
0.0445946
0.046028
0.0474462
0.0488474
0.0502298
0.0515914
0.0529305
0.0542451
0.0555336
0.0567942
0.0580252
0.0592249
0.0603916
0.0615239
0.06262
0.0636787
0.0646984
0.0656778
0.0666157
0.0675106
0.0683616
0.0691675
0.0699273
0.0706401
0.071305
0.0719214
0.0724885
0.0730058
0.0734729
0.0738893
0.0742549
0.0745695
0.074833
0.0750456
0.0752075
0.075319
0.0753805
0.0753927
0.0753562
0.0752718
0.0751406
0.0749635
0.074742
0.0744772
0.0741707
0.0738242
0.0734393
0.0730179
0.0725621
0.072074
0.0715558
0.0710099
0.0704388
0.069845
0.0692311
0.0685999
0.0679543
0.0672969
0.0666308
0.0659589
0.0652839
0.0646089
0.0639366
0.0632698
0.0626112
0.0619634
0.0613286
0.0607089
0.060106
0.0595243
0.0589676
0.0583979
0.0577799
0.0106327
0.0098675
0.0091807
0.00852805
0.0078604
0.00718173
0.00649677
0.00580674
0.00511307
0.00441766
0.0037226
0.00303005
0.0023423
0.00166167
0.000990561
0.000331356
-0.000313546
-0.000941774
-0.00155099
-0.00213892
-0.00270333
-0.00324208
-0.0037531
-0.00423443
-0.00468418
-0.00510058
-0.00548196
-0.00582675
-0.00613349
-0.00640084
-0.00662755
-0.00681251
-0.00695467
-0.00705314
-0.00710711
-0.00711588
-0.00707884
-0.00699551
-0.00686548
-0.00668845
-0.00646423
-0.00619269
-0.00587381
-0.00550766
-0.00509439
-0.00463424
-0.00412752
-0.00357463
-0.00297604
-0.0023323
-0.00164403
-0.000911903
-0.000136687
0.000680804
0.00153968
0.00243901
0.00337778
0.00435492
0.00536931
0.00641979
0.00750513
0.00862404
0.00977522
0.0109573
0.0121688
0.0134084
0.0146744
0.0159655
0.0172799
0.0186161
0.0199725
0.0213474
0.022739
0.0241456
0.0255655
0.0269968
0.0284379
0.0298868
0.0313416
0.0328006
0.0342619
0.0357236
0.0371837
0.0386404
0.0400919
0.0415361
0.0429712
0.0443953
0.0458065
0.047203
0.0485828
0.0499441
0.0512852
0.0526041
0.0538991
0.0551685
0.0564105
0.0576234
0.0588057
0.0599556
0.0610717
0.0621524
0.0631962
0.0642018
0.0651678
0.066093
0.066976
0.0678158
0.0686114
0.0693616
0.0700656
0.0707225
0.0713317
0.0718924
0.0724041
0.0728663
0.0732787
0.073641
0.073953
0.0742148
0.0744263
0.0745878
0.0746995
0.0747619
0.0747754
0.0747409
0.0746589
0.0745306
0.0743567
0.0741386
0.0738775
0.0735748
0.0732321
0.0728509
0.0724331
0.0719805
0.0714951
0.070979
0.0704345
0.0698638
0.0692693
0.0686535
0.0680188
0.067368
0.0667035
0.0660281
0.0653443
0.0646549
0.0639625
0.0632694
0.0625784
0.0618916
0.0612114
0.0605397
0.0598783
0.0592284
0.0585946
0.0579808
0.0573423
0.0566388
0.0117681
0.0109153
0.0101576
0.00944557
0.00872352
0.00799553
0.00726647
0.00653722
0.00580888
0.00508306
0.00436152
0.00364615
0.00293891
0.00224187
0.00155713
0.000886822
0.000233083
-0.000401957
-0.0010162
-0.00160757
-0.00217407
-0.00271373
-0.00322469
-0.00370513
-0.00415334
-0.0045677
-0.00494667
-0.00528881
-0.00559278
-0.00585734
-0.00608136
-0.00626378
-0.00640368
-0.00650021
-0.00655263
-0.00656031
-0.0065227
-0.00643934
-0.0063099
-0.00613409
-0.00591174
-0.00564278
-0.00532719
-0.00496506
-0.00455656
-0.00410193
-0.00360149
-0.00305566
-0.00246488
-0.00182972
-0.00115078
-0.000428745
0.000335648
0.00114159
0.00198821
0.00287458
0.00379971
0.00476256
0.00576202
0.00679696