/*--------------------------------*- C++ -*----------------------------------*\
  =========                 |
  \\      /  F ield         | OpenFOAM: The Open Source CFD Toolbox
   \\    /   O peration     | Website:  https://openfoam.org
    \\  /    A nd           | Version:  7
     \\/     M anipulation  |
\*---------------------------------------------------------------------------*/
FoamFile
{
    version     2.0;
    format      ascii;
    class       surfaceScalarField;
    location    "0.4375";
    object      phi;
}
// * * * * * * * * * * * * * * * * * * * * * * * * * * * * * * * * * * * * * //

dimensions      [0 3 -1 0 0 0 0];

internalField   nonuniform List<scalar> 
50880
(
6.07152e-12
-6.15425e-12
3.62535e-11
-3.01815e-11
8.11394e-11
-4.48877e-11
1.30779e-10
-4.96354e-11
1.78033e-10
-4.72464e-11
2.1792e-10
-3.98829e-11
2.47008e-10
-2.90891e-11
2.62981e-10
-1.59764e-11
2.64317e-10
-1.33504e-12
2.5005e-10
1.42717e-11
2.19618e-10
3.04367e-11
1.72759e-10
4.68618e-11
1.09435e-10
6.33243e-11
2.9779e-11
7.96547e-11
-6.59444e-11
9.57225e-11
-1.77372e-10
1.11427e-10
-3.04061e-10
1.2669e-10
-4.45509e-10
1.41449e-10
-6.01165e-10
1.55658e-10
-7.70444e-10
1.6928e-10
-9.5273e-10
1.82287e-10
-1.14739e-09
1.94657e-10
-1.35376e-09
2.06376e-10
-1.5712e-09
2.17433e-10
-1.79902e-09
2.2782e-10
-2.03655e-09
2.37532e-10
-2.28312e-09
2.46569e-10
-2.53805e-09
2.5493e-10
-2.80066e-09
2.62619e-10
-3.0703e-09
2.6964e-10
-3.3463e-09
2.75998e-10
-3.628e-09
2.81699e-10
-3.91475e-09
2.86751e-10
-4.20591e-09
2.91163e-10
-4.50085e-09
2.94942e-10
-4.79895e-09
2.981e-10
-5.0996e-09
3.00646e-10
-5.40219e-09
3.02591e-10
-5.70613e-09
3.03946e-10
-6.01085e-09
3.04722e-10
-6.31578e-09
3.04931e-10
-6.62037e-09
3.04585e-10
-6.92406e-09
3.03696e-10
-7.22634e-09
3.02276e-10
-7.52668e-09
3.00338e-10
-7.82457e-09
2.97894e-10
-8.11953e-09
2.94957e-10
-8.41107e-09
2.91539e-10
-8.69872e-09
2.87654e-10
-8.98204e-09
2.83315e-10
-9.26057e-09
2.78534e-10
-9.5339e-09
2.73324e-10
-9.8016e-09
2.67698e-10
-1.00633e-08
2.6167e-10
-1.03185e-08
2.55253e-10
-1.0567e-08
2.48459e-10
-1.08083e-08
2.41302e-10
-1.10421e-08
2.33796e-10
-1.1268e-08
2.25952e-10
-1.14858e-08
2.17786e-10
-1.16951e-08
2.09309e-10
-1.18957e-08
2.00535e-10
-1.20871e-08
1.91478e-10
-1.22693e-08
1.82152e-10
-1.24419e-08
1.72569e-10
-1.26046e-08
1.62743e-10
-1.27573e-08
1.52689e-10
-1.28997e-08
1.42419e-10
-1.30317e-08
1.31948e-10
-1.31529e-08
1.21289e-10
-1.32634e-08
1.10457e-10
-1.33629e-08
9.94651e-11
-1.34512e-08
8.83283e-11
-1.35283e-08
7.70606e-11
-1.35939e-08
6.56765e-11
-1.36481e-08
5.41906e-11
-1.36907e-08
4.26176e-11
-1.37217e-08
3.09723e-11
-1.3741e-08
1.92697e-11
-1.37485e-08
7.52491e-12
-1.37443e-08
-4.24679e-12
-1.37282e-08
-1.603e-11
-1.37004e-08
-2.78093e-11
-1.36609e-08
-3.9569e-11
-1.36096e-08
-5.12932e-11
-1.35466e-08
-6.29659e-11
-1.3472e-08
-7.45712e-11
-1.33859e-08
-8.60927e-11
-1.32884e-08
-9.75141e-11
-1.31796e-08
-1.08819e-10
-1.30596e-08
-1.19991e-10
-1.29286e-08
-1.31013e-10
-1.27867e-08
-1.41868e-10
-1.26342e-08
-1.5254e-10
-1.24712e-08
-1.63012e-10
-1.22979e-08
-1.73266e-10
-1.21146e-08
-1.83286e-10
-1.19216e-08
-1.93054e-10
-1.1719e-08
-2.02554e-10
-1.15072e-08
-2.11768e-10
-1.12866e-08
-2.2068e-10
-1.10573e-08
-2.29271e-10
-1.08198e-08
-2.37526e-10
-1.05743e-08
-2.45427e-10
-1.03214e-08
-2.52958e-10
-1.00613e-08
-2.60101e-10
-9.79445e-09
-2.66841e-10
-9.52129e-09
-2.7316e-10
-9.24224e-09
-2.79043e-10
-8.95777e-09
-2.84474e-10
-8.66833e-09
-2.89437e-10
-8.37442e-09
-2.93917e-10
-8.07652e-09
-2.97899e-10
-7.77515e-09
-3.01367e-10
-7.47084e-09
-3.04308e-10
-7.16414e-09
-3.06707e-10
-6.85558e-09
-3.08551e-10
-6.54576e-09
-3.09827e-10
-6.23523e-09
-3.10522e-10
-5.92461e-09
-3.10625e-10
-5.61448e-09
-3.10124e-10
-5.30548e-09
-3.09008e-10
-4.99821e-09
-3.07266e-10
-4.69332e-09
-3.04891e-10
-4.39145e-09
-3.01872e-10
-4.09324e-09
-2.98202e-10
-3.79937e-09
-2.93875e-10
-3.51048e-09
-2.88884e-10
-3.22726e-09
-2.83224e-10
-2.95037e-09
-2.76892e-10
-2.68048e-09
-2.69885e-10
-2.41828e-09
-2.62202e-10
-2.16443e-09
-2.53844e-10
-1.91962e-09
-2.44812e-10
-1.68451e-09
-2.3511e-10
-1.45977e-09
-2.24744e-10
-1.24604e-09
-2.13725e-10
-1.04398e-09
-2.02063e-10
-8.54206e-10
-1.89772e-10
-6.77337e-10
-1.76869e-10
-5.13953e-10
-1.63381e-10
-3.64613e-10
-1.49338e-10
-2.29838e-10
-1.34775e-10
-1.10104e-10
-1.19734e-10
-5.82963e-12
-1.04274e-10
8.26334e-11
-8.84624e-11
1.55018e-10
-7.23854e-11
2.11166e-10
-5.61498e-11
2.51062e-10
-3.98939e-11
2.74862e-10
-2.37966e-11
2.82953e-10
-8.08851e-12
2.76025e-10
6.92781e-12
2.55173e-10
2.08471e-11
2.22055e-10
3.31139e-11
1.79108e-10
4.29486e-11
1.29866e-10
4.92536e-11
7.93535e-11
5.05239e-11
3.46327e-11
4.47087e-11
5.34276e-12
2.92431e-11
5.29593e-12
3.01244e-11
-3.62765e-11
1.01273e-10
-1.01322e-10
1.95535e-10
-1.3915e-10
2.95867e-10
-1.49971e-10
3.87916e-10
-1.39294e-10
4.60445e-10
-1.12403e-10
5.04986e-10
-7.36221e-11
5.1535e-10
-2.63375e-11
4.87144e-10
2.68689e-11
4.17368e-10
8.40447e-11
3.04102e-10
1.43704e-10
1.46258e-10
2.04709e-10
-5.66004e-11
2.66186e-10
-3.04397e-10
3.27454e-10
-5.96652e-10
3.8798e-10
-9.32571e-10
4.47347e-10
-1.3111e-09
5.05222e-10
-1.731e-09
5.61344e-10
-2.19085e-09
6.15507e-10
-2.68911e-09
6.67546e-10
-3.22416e-09
7.17333e-10
-3.79427e-09
7.64769e-10
-4.39767e-09
8.09778e-10
-5.03254e-09
8.52304e-10
-5.69703e-09
8.92307e-10
-6.38925e-09
9.2976e-10
-7.10733e-09
9.64647e-10
-7.84936e-09
9.96962e-10
-8.61345e-09
1.02671e-09
-9.3977e-09
1.05389e-09
-1.02002e-08
1.07853e-09
-1.10192e-08
1.10065e-09
-1.18527e-08
1.12026e-09
-1.26989e-08
1.1374e-09
-1.35561e-08
1.1521e-09
-1.44224e-08
1.16439e-09
-1.5296e-08
1.1743e-09
-1.61753e-08
1.18189e-09
-1.70585e-08
1.18718e-09
-1.79441e-08
1.19022e-09
-1.88302e-08
1.19106e-09
-1.97153e-08
1.18974e-09
-2.05979e-08
1.18629e-09
-2.14764e-08
1.18078e-09
-2.23493e-08
1.17324e-09
-2.32152e-08
1.16373e-09
-2.40725e-08
1.1523e-09
-2.492e-08
1.13898e-09
-2.57561e-08
1.12384e-09
-2.65797e-08
1.10692e-09
-2.73895e-08
1.08827e-09
-2.81841e-08
1.06794e-09
-2.89624e-08
1.04598e-09
-2.97232e-08
1.02245e-09
-3.04653e-08
9.97392e-10
-3.11877e-08
9.7086e-10
-3.18893e-08
9.42904e-10
-3.25691e-08
9.13578e-10
-3.32261e-08
8.82931e-10
-3.38593e-08
8.51017e-10
-3.44679e-08
8.17888e-10
-3.50509e-08
7.83596e-10
-3.56077e-08
7.48193e-10
-3.61372e-08
7.11733e-10
-3.66389e-08
6.74269e-10
-3.7112e-08
6.35854e-10
-3.75559e-08
5.96542e-10
-3.79699e-08
5.56387e-10
-3.83534e-08
5.15443e-10
-3.87058e-08
4.73765e-10
-3.90268e-08
4.31408e-10
-3.93158e-08
3.88428e-10
-3.95723e-08
3.44881e-10
-3.97961e-08
3.00823e-10
-3.99867e-08
2.5631e-10
-4.01439e-08
2.11401e-10
-4.02675e-08
1.66153e-10
-4.03571e-08
1.20625e-10
-4.04127e-08
7.48747e-11
-4.04341e-08
2.89621e-11
-4.04213e-08
-1.70529e-11
-4.03743e-08
-6.31098e-11
-4.02929e-08
-1.09148e-10
-4.01774e-08
-1.55105e-10
-4.00278e-08
-2.0092e-10
-3.98442e-08
-2.4653e-10
-3.96269e-08
-2.91872e-10
-3.93761e-08
-3.36882e-10
-3.90921e-08
-3.81496e-10
-3.87753e-08
-4.25651e-10
-3.8426e-08
-4.6928e-10
-3.80447e-08
-5.12319e-10
-3.76319e-08
-5.54703e-10
-3.7188e-08
-5.96364e-10
-3.67138e-08
-6.37238e-10
-3.62098e-08
-6.77258e-10
-3.56767e-08
-7.16358e-10
-3.51153e-08
-7.5447e-10
-3.45263e-08
-7.91529e-10
-3.39106e-08
-8.27467e-10
-3.32691e-08
-8.62219e-10
-3.26027e-08
-8.95717e-10
-3.19123e-08
-9.27897e-10
-3.1199e-08
-9.58692e-10
-3.0464e-08
-9.88037e-10
-2.97082e-08
-1.01587e-09
-2.89329e-08
-1.04212e-09
-2.81393e-08
-1.06673e-09
-2.73287e-08
-1.08964e-09
-2.65024e-08
-1.11078e-09
-2.56618e-08
-1.13009e-09
-2.48082e-08
-1.14752e-09
-2.39431e-08
-1.16301e-09
-2.30679e-08
-1.17649e-09
-2.21843e-08
-1.18792e-09
-2.12938e-08
-1.19724e-09
-2.03979e-08
-1.2044e-09
-1.94984e-08
-1.20936e-09
-1.85969e-08
-1.21205e-09
-1.76951e-08
-1.21244e-09
-1.67947e-08
-1.21049e-09
-1.58976e-08
-1.20615e-09
-1.50055e-08
-1.19938e-09
-1.41202e-08
-1.19016e-09
-1.32436e-08
-1.17845e-09
-1.23776e-08
-1.16422e-09
-1.1524e-08
-1.14746e-09
-1.06848e-08
-1.12813e-09
-9.86175e-09
-1.10622e-09
-9.0569e-09
-1.08173e-09
-8.27214e-09
-1.05465e-09
-7.50936e-09
-1.02498e-09
-6.77048e-09
-9.9272e-10
-6.0574e-09
-9.57892e-10
-5.37199e-09
-9.20515e-10
-4.71612e-09
-8.80621e-10
-4.09159e-09
-8.38253e-10
-3.50018e-09
-7.93466e-10
-2.94362e-09
-7.46328e-10
-2.42357e-09
-6.96923e-10
-1.9416e-09
-6.45356e-10
-1.49918e-09
-5.91757e-10
-1.09766e-09
-5.36286e-10
-7.38265e-10
-4.79133e-10
-4.22004e-10
-4.20534e-10
-1.49682e-10
-3.60781e-10
7.81679e-11
-3.00233e-10
2.61349e-10
-2.39332e-10
4.00085e-10
-1.78634e-10
4.95125e-10
-1.18839e-10
5.47878e-10
-6.08391e-11
5.6059e-10
-5.77932e-12
5.36581e-10
4.4861e-11
4.80536e-10
8.91539e-11
3.9889e-10
1.24577e-10
3.00277e-10
1.47851e-10
1.95982e-10
1.54838e-10
1.00173e-10
1.40586e-10
2.93117e-11
1.00186e-10
3.45711e-11
4.48726e-11
-8.115e-11
1.39199e-10
-1.95637e-10
2.56475e-10
-2.56418e-10
3.7508e-10
-2.68576e-10
4.76742e-10
-2.4096e-10
5.46592e-10
-1.82251e-10
5.7292e-10
-9.99433e-11
5.46767e-10
-1.76705e-13
4.61495e-10
1.12145e-10
3.12362e-10
2.33177e-10
9.61747e-11
3.5989e-10
-1.89019e-10
4.89903e-10
-5.44169e-10
6.21338e-10
-9.6942e-10
7.52707e-10
-1.46426e-09
8.82827e-10
-2.02767e-09
1.01075e-09
-2.65818e-09
1.13573e-09
-3.35399e-09
1.25716e-09
-4.11302e-09
1.37454e-09
-4.93298e-09
1.4875e-09
-5.81137e-09
1.59572e-09
-6.74556e-09
1.69897e-09
-7.73283e-09
1.79704e-09
-8.77033e-09
1.88981e-09
-9.85517e-09
1.97715e-09
-1.09844e-08
2.059e-09
-1.21551e-08
2.13531e-09
-1.33642e-08
2.20604e-09
-1.46086e-08
2.2712e-09
-1.58855e-08
2.33078e-09
-1.71918e-08
2.38482e-09
-1.85245e-08
2.43335e-09
-1.98807e-08
2.47641e-09
-2.12573e-08
2.51406e-09
-2.26516e-08
2.54635e-09
-2.40606e-08
2.57337e-09
-2.54814e-08
2.59518e-09
-2.69114e-08
2.61187e-09
-2.83478e-08
2.62352e-09
-2.97877e-08
2.63021e-09
-3.12287e-08
2.63204e-09
-3.26681e-08
2.62912e-09
-3.41033e-08
2.62152e-09
-3.55319e-08
2.60936e-09
-3.69514e-08
2.59273e-09
-3.83594e-08
2.57175e-09
-3.97536e-08
2.54651e-09
-4.11318e-08
2.51712e-09
-4.24916e-08
2.48369e-09
-4.3831e-08
2.44632e-09
-4.51479e-08
2.40514e-09
-4.64402e-08
2.36024e-09
-4.7706e-08
2.31174e-09
-4.89433e-08
2.25975e-09
-5.01503e-08
2.20439e-09
-5.13252e-08
2.14576e-09
-5.24662e-08
2.08398e-09
-5.35718e-08
2.01917e-09
-5.46403e-08
1.95143e-09
-5.56702e-08
1.88088e-09
-5.66599e-08
1.80765e-09
-5.76082e-08
1.73184e-09
-5.85136e-08
1.65357e-09
-5.93748e-08
1.57296e-09
-6.01906e-08
1.49012e-09
-6.096e-08
1.40518e-09
-6.16817e-08
1.31826e-09
-6.23548e-08
1.22947e-09
-6.29783e-08
1.13893e-09
-6.35513e-08
1.04677e-09
-6.4073e-08
9.53111e-10
-6.45426e-08
8.58073e-10
-6.49595e-08
7.61781e-10
-6.5323e-08
6.6436e-10
-6.56327e-08
5.65938e-10
-6.58879e-08
4.6664e-10
-6.60884e-08
3.66596e-10
-6.62337e-08
2.65936e-10
-6.63236e-08
1.64789e-10
-6.63579e-08
6.32873e-11
-6.63365e-08
-3.8436e-11
-6.62594e-08
-1.40247e-10
-6.61265e-08
-2.42011e-10
-6.5938e-08
-3.4359e-10
-6.56941e-08
-4.44849e-10
-6.5395e-08
-5.45647e-10
-6.5041e-08
-6.45846e-10
-6.46326e-08
-7.45305e-10
-6.41702e-08
-8.43882e-10
-6.36544e-08
-9.41435e-10
-6.30859e-08
-1.03782e-09
-6.24653e-08
-1.13289e-09
-6.17935e-08
-1.22651e-09
-6.10713e-08
-1.31852e-09
-6.02998e-08
-1.40879e-09
-5.94799e-08
-1.49716e-09
-5.86128e-08
-1.58349e-09
-5.76996e-08
-1.66763e-09
-5.67417e-08
-1.74944e-09
-5.57404e-08
-1.82877e-09
-5.46971e-08
-1.90547e-09
-5.36135e-08
-1.97939e-09
-5.2491e-08
-2.0504e-09
-5.13313e-08
-2.11834e-09
-5.01363e-08
-2.18308e-09
-4.89077e-08
-2.24447e-09
-4.76474e-08
-2.30237e-09
-4.63575e-08
-2.35664e-09
-4.504e-08
-2.40715e-09
-4.3697e-08
-2.45376e-09
-4.23308e-08
-2.49634e-09
-4.09436e-08
-2.53476e-09
-3.95377e-08
-2.56889e-09
-3.81156e-08
-2.59861e-09
-3.66797e-08
-2.6238e-09
-3.52326e-08
-2.64434e-09
-3.37769e-08
-2.66013e-09
-3.23152e-08
-2.67105e-09
-3.08502e-08
-2.67701e-09
-2.93847e-08
-2.6779e-09
-2.79216e-08
-2.67363e-09
-2.64636e-08
-2.66412e-09
-2.50137e-08
-2.64929e-09
-2.35748e-08
-2.62907e-09
-2.21499e-08
-2.60338e-09
-2.07419e-08
-2.57219e-09
-1.93539e-08
-2.53543e-09
-1.7989e-08
-2.49307e-09
-1.66501e-08
-2.44508e-09
-1.53404e-08
-2.39144e-09
-1.40629e-08
-2.33216e-09
-1.28207e-08
-2.26723e-09
-1.16167e-08
-2.19669e-09
-1.0454e-08
-2.12056e-09
-9.33561e-09
-2.03893e-09
-8.26437e-09
-1.95186e-09
-7.24317e-09
-1.85945e-09
-6.27478e-09
-1.76186e-09
-5.36186e-09
-1.65924e-09
-4.50698e-09
-1.5518e-09
-3.71255e-09
-1.43979e-09
-2.98079e-09
-1.32352e-09
-2.31372e-09
-1.20335e-09
-1.71311e-09
-1.07974e-09
-1.18041e-09
-9.53235e-10
-7.16695e-10
-8.24491e-10
-3.22599e-10
-6.94325e-10
1.80154e-12
-5.6373e-10
2.57099e-10
-4.33932e-10
4.44708e-10
-3.06452e-10
5.67053e-10
-1.83188e-10
6.278e-10
-6.65254e-11
6.32141e-10
4.05291e-11
5.87123e-10
1.34182e-10
5.02028e-10
2.09667e-10
3.88771e-10
2.61076e-10
2.62265e-10
2.81302e-10
1.40575e-10
2.62269e-10
4.47381e-11
1.96078e-10
7.93032e-11
4.972e-11
-1.30873e-10
1.50343e-10
-2.96255e-10
2.6925e-10
-3.75313e-10
3.81246e-10
-3.80565e-10
4.65528e-10
-3.25242e-10
5.05031e-10
-2.21757e-10
4.86036e-10
-8.09482e-11
3.97769e-10
8.80953e-11
2.31993e-10
2.77927e-10
-1.73486e-11
4.82522e-10
-3.54486e-10
6.97029e-10
-7.8213e-10
9.17548e-10
-1.30173e-09
1.14094e-09
-1.91371e-09
1.36468e-09
-2.61761e-09
1.58673e-09
-3.41228e-09
1.80543e-09
-4.29599e-09
2.01945e-09
-5.26653e-09
2.2277e-09
-6.3213e-09
2.42931e-09
-7.45737e-09
2.62357e-09
-8.67155e-09
2.8099e-09
-9.96045e-09
2.98786e-09
-1.13205e-08
3.15708e-09
-1.27479e-08
3.31727e-09
-1.4239e-08
3.46824e-09
-1.57898e-08
3.60981e-09
-1.73964e-08
3.74189e-09
-1.90548e-08
3.8644e-09
-2.07609e-08
3.97732e-09
-2.25108e-08
4.08064e-09
-2.43003e-08
4.17438e-09
-2.61256e-08
4.2586e-09
-2.79825e-08
4.33336e-09
-2.98672e-08
4.39874e-09
-3.17757e-08
4.45485e-09
-3.37041e-08
4.50178e-09
-3.56486e-08
4.53968e-09
-3.76054e-08
4.56866e-09
-3.95707e-08
4.58887e-09
-4.1541e-08
4.60046e-09
-4.35125e-08
4.60358e-09
-4.54818e-08
4.5984e-09
-4.74454e-08
4.58508e-09
-4.93998e-08
4.56379e-09
-5.13418e-08
4.5347e-09
-5.3268e-08
4.49801e-09
-5.51754e-08
4.45387e-09
-5.70608e-08
4.40249e-09
-5.89211e-08
4.34404e-09
-6.07535e-08
4.27871e-09
-6.25551e-08
4.2067e-09
-6.4323e-08
4.12819e-09
-6.60547e-08
4.04338e-09
-6.77474e-08
3.95246e-09
-6.93986e-08
3.85564e-09
-7.1006e-08
3.75309e-09
-7.2567e-08
3.64503e-09
-7.40795e-08
3.53166e-09
-7.55412e-08
3.41316e-09
-7.69501e-08
3.28975e-09
-7.83041e-08
3.16163e-09
-7.96013e-08
3.029e-09
-8.08397e-08
2.89205e-09
-8.20178e-08
2.75101e-09
-8.31338e-08
2.60608e-09
-8.4186e-08
2.45746e-09
-8.51731e-08
2.30536e-09
-8.60937e-08
2.15e-09
-8.69463e-08
1.99158e-09
-8.77299e-08
1.83032e-09
-8.84432e-08
1.66643e-09
-8.90852e-08
1.50014e-09
-8.96551e-08
1.33165e-09
-9.01519e-08
1.16119e-09
-9.0575e-08
9.88983e-10
-9.09236e-08
8.15248e-10
-9.11972e-08
6.40212e-10
-9.13954e-08
4.64101e-10
-9.15177e-08
2.87147e-10
-9.1564e-08
1.09578e-10
-9.15341e-08
-6.83708e-11
-9.14279e-08
-2.46465e-10
-9.12454e-08
-4.24468e-10
-9.09869e-08
-6.02141e-10
-9.06525e-08
-7.79242e-10
-9.02426e-08
-9.55529e-10
-8.97577e-08
-1.13076e-09
-8.91983e-08
-1.30468e-09
-8.85651e-08
-1.47705e-09
-8.78589e-08
-1.64762e-09
-8.70806e-08
-1.81613e-09
-8.62312e-08
-1.98234e-09
-8.53117e-08
-2.14599e-09
-8.43234e-08
-2.30683e-09
-8.32676e-08
-2.4646e-09
-8.21457e-08
-2.61905e-09
-8.09593e-08
-2.76992e-09
-7.97099e-08
-2.91695e-09
-7.83995e-08
-3.05989e-09
-7.70298e-08
-3.19848e-09
-7.56028e-08
-3.33248e-09
-7.41206e-08
-3.46161e-09
-7.25853e-08
-3.58564e-09
-7.09993e-08
-3.70431e-09
-6.93651e-08
-3.81737e-09
-6.76849e-08
-3.92457e-09
-6.59616e-08
-4.02568e-09
-6.41978e-08
-4.12044e-09
-6.23964e-08
-4.20863e-09
-6.05601e-08
-4.29001e-09
-5.86921e-08
-4.36435e-09
-5.67954e-08
-4.43142e-09
-5.48733e-08
-4.49101e-09
-5.2929e-08
-4.54291e-09
-5.09659e-08
-4.5869e-09
-4.89875e-08
-4.6228e-09
-4.69972e-08
-4.6504e-09
-4.49987e-08
-4.66953e-09
-4.29957e-08
-4.68e-09
-4.0992e-08
-4.68166e-09
-3.89912e-08
-4.67435e-09
-3.69974e-08
-4.65792e-09
-3.50145e-08
-4.63224e-09
-3.30464e-08
-4.59719e-09
-3.10971e-08
-4.55267e-09
-2.91707e-08
-4.49858e-09
-2.72713e-08
-4.43484e-09
-2.54029e-08
-4.36141e-09
-2.35698e-08
-4.27823e-09
-2.17759e-08
-4.1853e-09
-2.00255e-08
-4.0826e-09
-1.83225e-08
-3.97018e-09
-1.66711e-08
-3.84809e-09
-1.50753e-08
-3.7164e-09
-1.3539e-08
-3.57526e-09
-1.2066e-08
-3.42481e-09
-1.06602e-08
-3.26525e-09
-9.32523e-09
-3.09685e-09
-8.06454e-09
-2.91993e-09
-6.88148e-09
-2.73485e-09
-5.77917e-09
-2.5421e-09
-4.76046e-09
-2.34223e-09
-3.8279e-09
-2.13591e-09
-2.98369e-09
-1.92396e-09
-2.22958e-09
-1.70734e-09
-1.56683e-09
-1.48725e-09
-9.9605e-10
-1.2651e-09
-5.1715e-10
-1.04263e-09
-1.29145e-10
-8.21933e-10
1.7e-10
-6.05597e-10
3.83585e-10
-3.96777e-10
5.16419e-10
-1.99367e-10
5.75111e-10
-1.81643e-11
5.68389e-10
1.40918e-10
5.07433e-10
2.70645e-10
4.06221e-10
3.62294e-10
2.81891e-10
4.05604e-10
1.55094e-10
3.89031e-10
5.05713e-11
3.00613e-10
1.29883e-10
4.75123e-11
-1.78385e-10
1.40269e-10
-3.89014e-10
2.42798e-10
-4.77837e-10
3.27709e-10
-4.65467e-10
3.72634e-10
-3.7016e-10
3.59209e-10
-2.08331e-10
2.72523e-10
5.73635e-12
1.00673e-10
2.59945e-10
-1.65608e-10
5.44211e-10
-5.33295e-10
8.50211e-10
-1.00738e-09
1.17111e-09
-1.59116e-09
1.50133e-09
-2.28651e-09
1.83629e-09
-3.09408e-09
2.17226e-09
-4.01352e-09
2.50617e-09
-5.04362e-09
2.83552e-09
-6.18243e-09
3.15826e-09
-7.42744e-09
3.47272e-09
-8.77563e-09
3.7775e-09
-1.02236e-08
4.0715e-09
-1.17674e-08
4.35379e-09
-1.34032e-08
4.62365e-09
-1.51266e-08
4.88048e-09
-1.69332e-08
5.12382e-09
-1.88182e-08
5.3533e-09
-2.07771e-08
5.56865e-09
-2.28049e-08
5.76968e-09
-2.48967e-08
5.95625e-09
-2.70477e-08
6.1283e-09
-2.92528e-08
6.28579e-09
-3.15072e-08
6.42875e-09
-3.38058e-08
6.55722e-09
-3.61438e-08
6.67129e-09
-3.85161e-08
6.77107e-09
-4.09179e-08
6.85669e-09
-4.33445e-08
6.92832e-09
-4.57909e-08
6.98613e-09
-4.82526e-08
7.03032e-09
-5.07248e-08
7.06108e-09
-5.3203e-08
7.07864e-09
-5.56826e-08
7.08322e-09
-5.81593e-08
7.07508e-09
-6.06286e-08
7.05445e-09
-6.30865e-08
7.02159e-09
-6.55285e-08
6.97677e-09
-6.79508e-08
6.92026e-09
-7.03492e-08
6.85232e-09
-7.272e-08
6.77324e-09
-7.50592e-08
6.6833e-09
-7.73633e-08
6.58279e-09
-7.96286e-08
6.47199e-09
-8.18516e-08
6.3512e-09
-8.40289e-08
6.22071e-09
-8.61573e-08
6.08083e-09
-8.82335e-08
5.93185e-09
-9.02545e-08
5.77407e-09
-9.22172e-08
5.60779e-09
-9.41189e-08
5.43333e-09
-9.59568e-08
5.25099e-09
-9.77281e-08
5.06108e-09
-9.94304e-08
4.86392e-09
-1.01061e-07
4.6598e-09
-1.02618e-07
4.44906e-09
-1.04099e-07
4.232e-09
-1.05502e-07
4.00894e-09
-1.06825e-07
3.78021e-09
-1.08066e-07
3.54613e-09
-1.09223e-07
3.30702e-09
-1.10294e-07
3.06321e-09
-1.11279e-07
2.81502e-09
-1.12175e-07
2.5628e-09
-1.12982e-07
2.30687e-09
-1.13698e-07
2.04757e-09
-1.14322e-07
1.78524e-09
-1.14853e-07
1.52023e-09
-1.15291e-07
1.25287e-09
-1.15634e-07
9.83518e-10
-1.15883e-07
7.12519e-10
-1.16036e-07
4.4023e-10
-1.16093e-07
1.67007e-10
-1.16055e-07
-1.06792e-10
-1.1592e-07
-3.80804e-10
-1.1569e-07
-6.54663e-10
-1.15364e-07
-9.28e-10
-1.14943e-07
-1.20045e-09
-1.14427e-07
-1.47163e-09
-1.13817e-07
-1.74116e-09
-1.13113e-07
-2.00868e-09
-1.12316e-07
-2.27379e-09
-1.11427e-07
-2.53612e-09
-1.10448e-07
-2.79527e-09
-1.0938e-07
-3.05086e-09
-1.08223e-07
-3.3025e-09
-1.0698e-07
-3.5498e-09
-1.05652e-07
-3.79237e-09
-1.04242e-07
-4.02982e-09
-1.0275e-07
-4.26174e-09
-1.01179e-07
-4.48776e-09
-9.95315e-08
-4.70747e-09
-9.78095e-08
-4.92049e-09
-9.60155e-08
-5.12642e-09
-9.41523e-08
-5.32487e-09
-9.22224e-08
-5.51547e-09
-9.02289e-08
-5.69782e-09
-8.81747e-08
-5.87154e-09
-8.60631e-08
-6.03626e-09
-8.38971e-08
-6.1916e-09
-8.16804e-08
-6.3372e-09
-7.94163e-08
-6.47269e-09
-7.71086e-08
-6.59772e-09
-7.4761e-08
-6.71193e-09
-7.23775e-08
-6.815e-09
-6.99619e-08
-6.90658e-09
-6.75184e-08
-6.98636e-09
-6.50513e-08
-7.05402e-09
-6.25649e-08
-7.10925e-09
-6.00635e-08
-7.15178e-09
-5.75517e-08
-7.18131e-09
-5.50341e-08
-7.1976e-09
-5.25154e-08
-7.20039e-09
-5.00003e-08
-7.18945e-09
-4.74936e-08
-7.16456e-09
-4.50003e-08
-7.12553e-09
-4.25253e-08
-7.07219e-09
-4.00736e-08
-7.00438e-09
-3.76502e-08
-6.92197e-09
-3.52602e-08
-6.82485e-09
-3.29087e-08
-6.71295e-09
-3.06007e-08
-6.58622e-09
-2.83413e-08
-6.44464e-09
-2.61357e-08
-6.28824e-09
-2.39888e-08
-6.11707e-09
-2.19057e-08
-5.93125e-09
-1.98911e-08
-5.73091e-09
-1.79501e-08
-5.51628e-09
-1.60873e-08
-5.28762e-09
-1.43073e-08
-5.04527e-09
-1.26145e-08
-4.78966e-09
-1.10131e-08
-4.52128e-09
-9.5072e-09
-4.24077e-09
-8.10043e-09
-3.94887e-09
-6.79619e-09
-3.64647e-09
-5.59747e-09
-3.33463e-09
-4.50679e-09
-3.01463e-09
-3.52615e-09
-2.68799e-09
-2.65689e-09
-2.35651e-09
-1.89961e-09
-2.02238e-09
-1.25403e-09
-1.68821e-09
-7.1881e-10
-1.35715e-09
-2.91407e-10
-1.033e-09
3.21627e-11
-7.20346e-10
2.57557e-10
-4.24766e-10
3.92377e-10
-1.52995e-10
4.4646e-10
8.68269e-11
4.32196e-10
2.84921e-10
3.64838e-10
4.29673e-10
2.62906e-10
5.07541e-10
1.48725e-10
5.03187e-10
4.94413e-11
3.99885e-10
1.79329e-10
4.04132e-11
-2.18793e-10
1.14259e-10
-4.62861e-10
1.85789e-10
-5.49367e-10
2.26841e-10
-5.06517e-10
2.14374e-10
-3.57685e-10
1.2942e-10
-1.23371e-10
-4.35292e-11
1.78687e-10
-3.16977e-10
5.33393e-10
-7.00783e-10
9.28019e-10
-1.20248e-09
1.35191e-09
-1.82755e-09
1.79619e-09
-2.5797e-09
2.25348e-09
-3.46109e-09
2.71769e-09
-4.47256e-09
3.18373e-09
-5.61382e-09
3.64743e-09
-6.8836e-09
4.1053e-09
-8.27982e-09
4.55448e-09
-9.7997e-09
4.99259e-09
-1.14399e-08
5.41766e-09
-1.31964e-08
5.82808e-09
-1.50651e-08
6.22251e-09
-1.70414e-08
6.59988e-09
-1.91202e-08
6.9593e-09
-2.12965e-08
7.30009e-09
-2.35648e-08
7.62168e-09
-2.59198e-08
7.92365e-09
-2.83559e-08
8.20569e-09
-3.08672e-08
8.46758e-09
-3.34481e-08
8.70918e-09
-3.60927e-08
8.93042e-09
-3.87952e-08
9.1313e-09
-4.15499e-08
9.31188e-09
-4.43508e-08
9.47223e-09
-4.71923e-08
9.61251e-09
-5.00684e-08
9.73287e-09
-5.29737e-08
9.83354e-09
-5.59023e-08
9.91474e-09
-5.88487e-08
9.97672e-09
-6.18073e-08
1.00198e-08
-6.47729e-08
1.00442e-08
-6.77399e-08
1.00503e-08
-7.07032e-08
1.00384e-08
-7.36576e-08
1.00088e-08
-7.6598e-08
9.96196e-09
-7.95194e-08
9.89819e-09
-8.2417e-08
9.81785e-09
-8.5286e-08
9.72134e-09
-8.81218e-08
9.60905e-09
-9.09199e-08
9.48137e-09
-9.36758e-08
9.33871e-09
-9.63853e-08
9.18146e-09
-9.90441e-08
9.01005e-09
-1.01648e-07
8.82489e-09
-1.04194e-07
8.62639e-09
-1.06677e-07
8.41499e-09
-1.09094e-07
8.1911e-09
-1.11441e-07
7.95516e-09
-1.13716e-07
7.70761e-09
-1.15914e-07
7.44887e-09
-1.18032e-07
7.17938e-09
-1.20068e-07
6.89959e-09
-1.22018e-07
6.60995e-09
-1.2388e-07
6.31089e-09
-1.2565e-07
6.00287e-09
-1.27328e-07
5.68634e-09
-1.28909e-07
5.36176e-09
-1.30393e-07
5.02958e-09
-1.31776e-07
4.69026e-09
-1.33057e-07
4.34428e-09
-1.34234e-07
3.9921e-09
-1.35306e-07
3.63419e-09
-1.3627e-07
3.27102e-09
-1.37125e-07
2.90308e-09
-1.37871e-07
2.53085e-09
-1.38505e-07
2.15481e-09
-1.39028e-07
1.77545e-09
-1.39438e-07
1.39328e-09
-1.39734e-07
1.00878e-09
-1.39916e-07
6.22465e-10
-1.39984e-07
2.34835e-10
-1.39937e-07
-1.53597e-10
-1.39776e-07
-5.42316e-10
-1.395e-07
-9.30803e-10
-1.39109e-07
-1.31853e-09
-1.38605e-07
-1.70498e-09
-1.37987e-07
-2.08962e-09
-1.37256e-07
-2.47191e-09
-1.36413e-07
-2.85131e-09
-1.3546e-07
-3.22729e-09
-1.34396e-07
-3.59929e-09
-1.33225e-07
-3.96678e-09
-1.31947e-07
-4.3292e-09
-1.30563e-07
-4.686e-09
-1.29076e-07
-5.03663e-09
-1.27488e-07
-5.38052e-09
-1.25801e-07
-5.71714e-09
-1.24017e-07
-6.04591e-09
-1.22138e-07
-6.36629e-09
-1.20168e-07
-6.67772e-09
-1.18109e-07
-6.97965e-09
-1.15964e-07
-7.27152e-09
-1.13736e-07
-7.55278e-09
-1.11428e-07
-7.82289e-09
-1.09045e-07
-8.08131e-09
-1.06589e-07
-8.32749e-09
-1.04064e-07
-8.56092e-09
-1.01475e-07
-8.78105e-09
-9.88245e-08
-8.98738e-09
-9.61178e-08
-9.17939e-09
-9.3359e-08
-9.35659e-09
-9.05524e-08
-9.51849e-09
-8.77028e-08
-9.6646e-09
-8.48149e-08
-9.79446e-09
-8.18937e-08
-9.90763e-09
-7.8944e-08
-1.00037e-08
-7.59712e-08
-1.00821e-08
-7.29803e-08
-1.01426e-08
-6.99768e-08
-1.01848e-08
-6.69662e-08
-1.02082e-08
-6.3954e-08
-1.02126e-08
-6.09458e-08
-1.01976e-08
-5.79473e-08
-1.0163e-08
-5.49644e-08
-1.01084e-08
-5.20029e-08
-1.00337e-08
-4.90687e-08
-9.93856e-09
-4.61678e-08
-9.82289e-09
-4.33061e-08
-9.68655e-09
-4.04896e-08
-9.52943e-09
-3.77243e-08
-9.35149e-09
-3.50163e-08
-9.15273e-09
-3.23713e-08
-8.93319e-09
-2.97954e-08
-8.69298e-09
-2.72944e-08
-8.43228e-09
-2.48739e-08
-8.15133e-09
-2.25398e-08
-7.85044e-09
-2.02974e-08
-7.53004e-09
-1.8152e-08
-7.19063e-09
-1.61088e-08
-6.83285e-09
-1.41726e-08
-6.45744e-09
-1.23481e-08
-6.06533e-09
-1.06393e-08
-5.6576e-09
-9.05026e-09
-5.23554e-09
-7.58419e-09
-4.8007e-09
-6.24395e-09
-4.35487e-09
-5.03169e-09
-3.90024e-09
-3.94886e-09
-3.43934e-09
-2.99602e-09
-2.97522e-09
-2.17274e-09
-2.5115e-09
-1.47742e-09
-2.05246e-09
-9.07147e-10
-1.60327e-09
-4.5745e-10
-1.17004e-09
-1.22102e-10
-7.60111e-10
1.0713e-10
-3.8223e-10
2.40749e-10
-4.68037e-11
2.91822e-10
2.33839e-10
2.76306e-10
4.45198e-10
2.13458e-10
5.70407e-10
1.26441e-10
5.90201e-10
4.34145e-11
4.82901e-10
2.22743e-10
2.99582e-11
-2.48745e-10
7.65963e-11
-5.09495e-10
1.05625e-10
-5.78397e-10
8.93166e-11
-4.9021e-10
4.75956e-12
-2.73126e-10
-1.67019e-10
4.84118e-11
-4.41633e-10
4.53305e-10
-8.31769e-10
9.2353e-10
-1.34752e-09
1.44377e-09
-1.99666e-09
2.00105e-09
-2.78492e-09
2.58446e-09
-3.71624e-09
3.1848e-09
-4.79291e-09
3.79436e-09
-6.01589e-09
4.40671e-09
-7.38487e-09
5.01642e-09
-8.89855e-09
5.61898e-09
-1.05547e-08
6.2106e-09
-1.23502e-08
6.78815e-09
-1.42815e-08
7.34898e-09
-1.63444e-08
7.89091e-09
-1.8534e-08
8.41215e-09
-2.08453e-08
8.91119e-09
-2.32729e-08
9.38682e-09
-2.58108e-08
9.83807e-09
-2.84533e-08
1.02641e-08
-3.11941e-08
1.06644e-08
-3.40269e-08
1.10385e-08
-3.69453e-08
1.1386e-08
-3.99427e-08
1.17066e-08
-4.30126e-08
1.20004e-08
-4.61485e-08
1.22671e-08
-4.93435e-08
1.25069e-08
-5.25912e-08
1.27199e-08
-5.5885e-08
1.29063e-08
-5.92182e-08
1.30661e-08
-6.25843e-08
1.31997e-08
-6.5977e-08
1.33074e-08
-6.93897e-08
1.33894e-08
-7.28162e-08
1.34462e-08
-7.62502e-08
1.34782e-08
-7.96856e-08
1.34857e-08
-8.31163e-08
1.34691e-08
-8.65365e-08
1.34289e-08
-8.99402e-08
1.33657e-08
-9.33217e-08
1.32797e-08
-9.66755e-08
1.31717e-08
-9.99961e-08
1.30419e-08
-1.03278e-07
1.28911e-08
-1.06516e-07
1.27196e-08
-1.09706e-07
1.2528e-08
-1.12841e-07
1.23169e-08
-1.15918e-07
1.20868e-08
-1.18931e-07
1.18383e-08
-1.21877e-07
1.15719e-08
-1.2475e-07
1.12882e-08
-1.27547e-07
1.09878e-08
-1.30263e-07
1.06712e-08
-1.32894e-07
1.0339e-08
-1.35437e-07
9.99177e-09
-1.37888e-07
9.63016e-09
-1.40243e-07
9.25472e-09
-1.42499e-07
8.86605e-09
-1.44653e-07
8.46476e-09
-1.46702e-07
8.05144e-09
-1.48642e-07
7.6267e-09
-1.50471e-07
7.19116e-09
-1.52187e-07
6.74543e-09
-1.53787e-07
6.29013e-09
-1.55269e-07
5.82589e-09
-1.5663e-07
5.35333e-09
-1.57869e-07
4.87309e-09
-1.58984e-07
4.38581e-09
-1.59973e-07
3.89213e-09
-1.60834e-07
3.39271e-09
-1.61568e-07
2.88818e-09
-1.62172e-07
2.37923e-09
-1.62645e-07
1.8665e-09
-1.62987e-07
1.35067e-09
-1.63197e-07
8.32414e-10
-1.63274e-07
3.12414e-10
-1.63219e-07
-2.08645e-10
-1.63031e-07
-7.3007e-10
-1.62711e-07
-1.25116e-09
-1.62258e-07
-1.77123e-09
-1.61674e-07
-2.28955e-09
-1.60958e-07
-2.80542e-09
-1.60112e-07
-3.31812e-09
-1.59136e-07
-3.82692e-09
-1.58032e-07
-4.33111e-09
-1.56802e-07
-4.82995e-09
-1.55446e-07
-5.32272e-09
-1.53966e-07
-5.80866e-09
-1.52365e-07
-6.28705e-09
-1.50645e-07
-6.75714e-09
-1.48807e-07
-7.21819e-09
-1.46855e-07
-7.66945e-09
-1.44791e-07
-8.11019e-09
-1.42617e-07
-8.53966e-09
-1.40338e-07
-8.95711e-09
-1.37956e-07
-9.36181e-09
-1.35474e-07
-9.75302e-09
-1.32897e-07
-1.013e-08
-1.30228e-07
-1.0492e-08
-1.27471e-07
-1.08384e-08
-1.2463e-07
-1.11684e-08
-1.21709e-07
-1.14812e-08
-1.18714e-07
-1.17763e-08
-1.15649e-07
-1.20528e-08
-1.12518e-07
-1.23102e-08
-1.09327e-07
-1.25478e-08
-1.0608e-07
-1.27649e-08
-1.02784e-07
-1.29608e-08
-9.94435e-08
-1.31351e-08
-9.60642e-08
-1.3287e-08
-9.26519e-08
-1.3416e-08
-8.92125e-08
-1.35215e-08
-8.57521e-08
-1.3603e-08
-8.22769e-08
-1.366e-08
-7.8793e-08
-1.36921e-08
-7.5307e-08
-1.36987e-08
-7.18252e-08
-1.36795e-08
-6.83542e-08
-1.3634e-08
-6.49006e-08
-1.3562e-08
-6.14712e-08
-1.34631e-08
-5.80727e-08
-1.33371e-08
-5.47119e-08
-1.31837e-08
-5.13956e-08
-1.30029e-08
-4.81306e-08
-1.27944e-08
-4.49238e-08
-1.25583e-08
-4.1782e-08
-1.22946e-08
-3.87119e-08
-1.20033e-08
-3.57202e-08
-1.16846e-08
-3.28136e-08
-1.13389e-08
-2.99985e-08
-1.09664e-08
-2.72813e-08
-1.05677e-08
-2.46681e-08
-1.01432e-08
-2.2165e-08
-9.69374e-09
-1.97777e-08
-9.22019e-09
-1.75115e-08
-8.7236e-09
-1.53717e-08
-8.20521e-09
-1.33627e-08
-7.66652e-09
-1.1489e-08
-7.10929e-09
-9.75409e-09
-6.53559e-09
-8.16111e-09
-5.94786e-09
-6.71238e-09
-5.34897e-09
-5.40941e-09
-4.74231e-09
-4.25278e-09
-4.13185e-09
-3.24197e-09
-3.52231e-09
-2.37523e-09
-2.9192e-09
-1.64941e-09
-2.32909e-09
-1.05975e-09
-1.75969e-09
-5.99716e-10
-1.22014e-09
-2.60738e-10
-7.21202e-10
-3.20058e-11
-2.75538e-10
9.98148e-11
1.02007e-10
1.509e-10
3.94106e-10
1.40673e-10
5.80641e-10
9.23743e-11
6.38507e-10
3.39791e-11
5.41294e-10
2.56719e-10
1.72451e-11
-2.65989e-10
3.05977e-11
-5.22841e-10
8.29673e-12
-5.56091e-10
-7.60421e-11
-4.0587e-10
-2.44521e-10
-1.04648e-10
-5.15601e-10
3.19494e-10
-9.04584e-10
8.42292e-10
-1.42398e-09
1.44293e-09
-2.08381e-09
2.10359e-09
-2.89183e-09
2.80908e-09
-3.85381e-09
3.54644e-09
-4.9737e-09
4.30469e-09
-6.25384e-09
5.07451e-09
-7.69516e-09
5.84803e-09
-9.29731e-09
6.61857e-09
-1.10589e-08
7.38053e-09
-1.29774e-08
8.12916e-09
-1.50497e-08
8.86046e-09
-1.72718e-08
9.57109e-09
-1.96392e-08
1.02582e-08
-2.21466e-08
1.09196e-08
-2.47886e-08
1.15532e-08
-2.75591e-08
1.21574e-08
-3.04519e-08
1.27309e-08
-3.34605e-08
1.32727e-08
-3.6578e-08
1.3782e-08
-3.97975e-08
1.4258e-08
-4.31119e-08
1.47004e-08
-4.65141e-08
1.51088e-08
-4.99967e-08
1.54829e-08
-5.35523e-08
1.58228e-08
-5.71738e-08
1.61284e-08
-6.08536e-08
1.63997e-08
-6.45844e-08
1.66371e-08
-6.83589e-08
1.68406e-08
-7.21699e-08
1.70106e-08
-7.601e-08
1.71475e-08
-7.98722e-08
1.72516e-08
-8.37494e-08
1.73234e-08
-8.76345e-08
1.73633e-08
-9.15207e-08
1.73719e-08
-9.54013e-08
1.73496e-08
-9.92695e-08
1.72971e-08
-1.03119e-07
1.72149e-08
-1.06943e-07
1.71037e-08
-1.10735e-07
1.6964e-08
-1.1449e-07
1.67964e-08
-1.182e-07
1.66018e-08
-1.21861e-07
1.63806e-08
-1.25467e-07