/*--------------------------------*- C++ -*----------------------------------*\
  =========                 |
  \\      /  F ield         | OpenFOAM: The Open Source CFD Toolbox
   \\    /   O peration     | Website:  https://openfoam.org
    \\  /    A nd           | Version:  7
     \\/     M anipulation  |
\*---------------------------------------------------------------------------*/
FoamFile
{
    version     2.0;
    format      ascii;
    class       volScalarField;
    location    "0.4";
    object      p;
}
// * * * * * * * * * * * * * * * * * * * * * * * * * * * * * * * * * * * * * //

dimensions      [0 2 -2 0 0 0 0];

internalField   nonuniform List<scalar> 
6400
(
1.24427e-05
3.37948e-05
-0.000471196
-0.00150389
-0.00294627
-0.00468805
-0.0066289
-0.00867927
-0.0107619
-0.0128114
-0.0147727
-0.0165995
-0.0182535
-0.0197028
-0.0209218
-0.0218896
-0.02259
-0.0230111
-0.0231441
-0.0229837
-0.0225275
-0.0217754
-0.0207301
-0.0193959
-0.0177794
-0.0158889
-0.013734
-0.0113263
-0.00867815
-0.0058036
-0.00271761
0.000563785
0.00402358
0.0076439
0.0114061
0.0152907
0.0192779
0.0233468
0.0274766
0.0316456
0.0358321
0.0400139
0.0441689
0.0482748
0.0523093
0.0562503
0.0600761
0.0637652
0.0672967
0.0706503
0.0738067
0.0767473
0.0794548
0.0819131
0.0841075
0.0860251
0.0876546
0.0889868
0.0900147
0.0907338
0.0911421
0.0912406
0.0910331
0.0905273
0.089734
0.0886684
0.0873498
0.0858023
0.0840553
0.082144
0.0801103
0.0780033
0.0758804
0.0738088
0.0718658
0.0701401
0.0687286
0.0677356
0.0672677
0.0673053
9.61345e-06
2.41054e-05
-0.000429202
-0.00131244
-0.00252627
-0.0039915
-0.00563225
-0.00737612
-0.00915787
-0.0109202
-0.0126135
-0.0141952
-0.0156292
-0.0168853
-0.0179383
-0.0187678
-0.0193576
-0.0196952
-0.0197715
-0.0195805
-0.0191189
-0.0183859
-0.0173828
-0.0161134
-0.0145829
-0.0127986
-0.010769
-0.00850446
-0.00601631
-0.00331727
-0.000421165
0.00265719
0.00590202
0.0092967
0.0128238
0.0164653
0.0202024
0.0240158
0.0278858
0.0317922
0.0357147
0.0396325
0.0435248
0.0473709
0.0511499
0.0548412
0.0584246
0.06188
0.0651882
0.0683303
0.0712885
0.0740458
0.0765863
0.0788953
0.0809597
0.0827677
0.0843095
0.0855771
0.0865647
0.0872687
0.0876882
0.0878248
0.0876832
0.0872713
0.0866003
0.0856853
0.0845452
0.0832034
0.0816881
0.0800324
0.0782753
0.0764616
0.074643
0.0728778
0.0712314
0.0697751
0.0685822
0.0677274
0.0673042
0.0673428
0.000517635
0.000479609
2.57848e-05
-0.000790075
-0.00188076
-0.00318298
-0.00463558
-0.00617846
-0.007756
-0.00931815
-0.0108206
-0.0122247
-0.0134971
-0.0146094
-0.0155378
-0.0162627
-0.0167682
-0.017042
-0.0170748
-0.0168604
-0.016395
-0.0156772
-0.0147079
-0.01349
-0.012028
-0.0103283
-0.00839871
-0.00624851
-0.00388825
-0.00132968
0.00141436
0.00433002
0.00740252
0.0106163
0.0139549
0.0174013
0.0209379
0.0245464
0.0282082
0.0319043
0.0356154
0.0393219
0.0430043
0.0466427
0.0502178
0.0537099
0.0571001
0.0603697
0.0635003
0.0664745
0.0692756
0.0718877
0.0742961
0.0764873
0.078449
0.0801707
0.0816434
0.0828601
0.0838158
0.0845075
0.084935
0.0851003
0.0850085
0.0846675
0.0840885
0.0832861
0.0822787
0.0810885
0.0797421
0.0782705
0.0767093
0.0750996
0.0734871
0.0719229
0.0704629
0.0691664
0.0680926
0.0673018
0.0668793
0.0668767
0.00155077
0.00136572
0.000842023
2.28264e-05
-0.00102525
-0.00224865
-0.00359564
-0.00501549
-0.00646058
-0.00788733
-0.00925655
-0.0105335
-0.0116879
-0.0126935
-0.0135283
-0.0141737
-0.0146148
-0.0148396
-0.0148391
-0.0146072
-0.0141398
-0.0134354
-0.0124944
-0.0113193
-0.00991406
-0.00828444
-0.00643765
-0.00438223
-0.00212801
0.000314034
0.00293184
0.00571239
0.00864174
0.0117051
0.0148871
0.0181715
0.0215415
0.0249799
0.0284689
0.0319906
0.0355264
0.039058
0.0425665
0.0460334
0.0494399
0.0527679
0.0559989
0.0591155
0.0621002
0.0649367
0.067609
0.0701023
0.0724027
0.0744976
0.0763756
0.0780269
0.0794432
0.0806181
0.0815472
0.082228
0.0826605
0.082847
0.0827927
0.0825052
0.0819954
0.0812774
0.0803684
0.0792895
0.0780652
0.0767241
0.075299
0.0738264
0.0723473
0.0709062
0.0695512
0.0683328
0.0673014
0.0665086
0.0660225
0.0658869
0.00299973
0.00258819
0.00193663
0.00106449
8.9622e-06
-0.00118515
-0.00247395
-0.00381516
-0.00516851
-0.00649652
-0.00776497
-0.00894317
-0.010004
-0.0109237
-0.0116822
-0.0122624
-0.0126502
-0.0128346
-0.012807
-0.0125613
-0.0120937
-0.0114025
-0.0104881
-0.0093523
-0.00799894
-0.00643321
-0.00466177
-0.00269258
-0.000534812
0.00180122
0.00430419
0.0069618
0.0097609
0.0126875
0.015727
0.018864
0.0220825
0.0253663
0.0286983
0.0320615
0.0354384
0.0388112
0.0421623
0.0454738
0.048728
0.0519075
0.054995
0.0579736
0.0608269
0.0635394
0.066096
0.0684826
0.0706861
0.0726947
0.0744976
0.0760856
0.0774511
0.0785882
0.0794926
0.0801625
0.0805978
0.080801
0.0807769
0.0805331
0.0800799
0.0794303
0.0786006
0.0776102
0.0764817
0.0752412
0.073918
0.0725449
0.0711577
0.0697951
0.0684982
0.0673094
0.0662719
0.0654294
0.0648231
0.0644754
0.00476241
0.00407403
0.00325146
0.00228612
0.00118175
-2.45802e-05
-0.00129563
-0.00259671
-0.00389424
-0.00515641
-0.00635374
-0.00745947
-0.00844968
-0.0093033
-0.0100022
-0.0105308
-0.0108765
-0.0110289
-0.0109802
-0.0107248
-0.0102589
-0.00958111
-0.00869144
-0.00759178
-0.00628555
-0.0047776
-0.00307415
-0.00118266
0.000888233
0.00312883
0.00552842
0.0080754
0.0107573
0.0135608
0.0164721
0.0194765
0.0225589
0.0257037
0.0288948
0.0321158
0.0353501
0.0385808
0.0417909
0.0449634
0.0480816
0.0511286
0.054088
0.0569438
0.0596803
0.0622826
0.0647364
0.0670284
0.0691461
0.0710782
0.0728146
0.0743465
0.0756667
0.0767696
0.0776514
0.0783102
0.0787461
0.0789614
0.0789607
0.078751
0.0783419
0.0777455
0.0769769
0.0760538
0.0749966
0.0738289
0.0725767
0.0712691
0.0699372
0.0686143
0.067335
0.0661347
0.0650504
0.0641188
0.0633495
0.0627387
0.0067481
0.00575466
0.0047313
0.00364114
0.00245403
0.00120049
-8.76715e-05
-0.00138244
-0.00265627
-0.00388246
-0.00503594
-0.00609372
-0.007035
-0.00784133
-0.00849662
-0.00898715
-0.00930148
-0.00943039
-0.00936676
-0.00910549
-0.00864335
-0.0079789
-0.00711236
-0.00604551
-0.00478158
-0.00332519
-0.0016822
0.000140315
0.00213419
0.00429022
0.00659826
0.00904728
0.0116254
0.0143201
0.0171179
0.0200052
0.0229673
0.0259894
0.0290561
0.0321517
0.0352603
0.0383658
0.041452
0.0445026
0.0475013
0.0504323
0.0532797
0.0560282
0.0586627
0.0611691
0.0635335
0.0657433
0.0677864
0.0696521
0.0713306
0.0728136
0.0740942
0.0751669
0.0760281
0.0766759
0.0771103
0.0773333
0.0773492
0.0771643
0.0767875
0.0762298
0.0755049
0.0746288
0.0736199
0.0724991
0.0712896
0.0700165
0.068707
0.0673894
0.0660927
0.064846
0.0636811
0.0626288
0.0616666
0.0607633
0.00887755
0.00756559
0.00632234
0.00508421
0.00378829
0.00245985
0.0011263
-0.000190139
-0.00146723
-0.00268287
-0.00381606
-0.00484729
-0.00575876
-0.00653456
-0.0071607
-0.00762519
-0.00791802
-0.00803108
-0.00795814
-0.00769473
-0.0072381
-0.00658711
-0.00574213
-0.00470499
-0.00347885
-0.00206815
-0.000478525
0.00128327
0.00320945
0.00529123
0.00751894
0.00988204
0.0123692
0.0149685
0.017667
0.0204517
0.0233086
0.0262234
0.0291815
0.0321677
0.0351669
0.0381635
0.041142
0.0440866
0.0469819
0.0498125
0.0525631
0.0552191
0.0577658
0.0601897
0.0624774
0.0646167
0.066596
0.0684048
0.0700338
0.0714748
0.0727211
0.0737675
0.0746101
0.0752471
0.0756782
0.0759052
0.0759316
0.0757633
0.0754082
0.0748762
0.0741795
0.0733325
0.0723516
0.0712552
0.0700637
0.0687988
0.0674839
0.066143
0.0648001
0.0634788
0.0622071
0.0610107
0.0598358
0.0586256
0.0110837
0.00944931
0.0079751
0.00657281
0.00514866
0.00372382
0.00232235
0.000961466
-0.000341227
-0.00156772
-0.00270065
-0.00372375
-0.00462203
-0.00538199
-0.0059917
-0.00644091
-0.00672102
-0.00682511
-0.00674787
-0.00648558
-0.00603603
-0.00539846
-0.0045735
-0.00356309
-0.00237041
-0.000999821
0.0005432
0.00225214
0.00411949
0.00613684
0.00829489
0.0105835
0.012992
0.0155086
0.0181214
0.0208174
0.0235834
0.0264058
0.0292703
0.0321624
0.0350676
0.0379707
0.0408569
0.043711
0.0465181
0.0492631
0.0519316
0.054509
0.0569815
0.0593357
0.0615589
0.0636389
0.0655646
0.0673257
0.0689132
0.070319
0.0715364
0.0725602
0.0733865
0.0740131
0.0744397
0.0746673
0.0746992
0.0745402
0.0741974
0.0736796
0.0729977
0.0721642
0.0711937
0.0701024
0.0689078
0.0676288
0.0662853
0.0648975
0.0634851
0.0620671
0.0606685
0.0593113
0.0579119
0.0563898
0.0133107
0.0113557
0.0096451
0.00806784
0.00650128
0.00496364
0.00347645
0.0020527
0.000706012
-0.0005492
-0.00169884
-0.00272955
-0.00362896
-0.00438584
-0.00499023
-0.00543357
-0.00570869
-0.00580984
-0.00573269
-0.0054743
-0.00503307
-0.00440868
-0.00360208
-0.00261542
-0.00145195
-0.000116049
0.00138692
0.00305058
0.00486767
0.00683004
0.00892874
0.011154
0.0134955
0.0159419
0.0184817
0.0211026
0.0237916
0.0265357
0.0293211
0.0321339
0.0349598
0.0377845
0.0405933
0.0433717
0.0461051
0.048779
0.0513792
0.0538918
0.0563031
0.0586002
0.0607704
0.0628021
0.0646842
0.0664066
0.0679604
0.0693376
0.0705315
0.0715366
0.072349
0.0729662
0.0733873
0.0736131
0.0736461
0.0734903
0.0731519
0.0726385
0.0719595
0.0711261
0.0701508
0.0690479
0.0678323
0.0665204
0.065129
0.063675
0.0621745
0.0606427
0.0591022
0.0575726
0.0559424
0.0541093
0.0155118
0.0132414
0.0112927
0.00953366
0.00781467
0.00615191
0.00456514
0.00306383
0.00165818
0.000359488
-0.000821023
-0.00187264
-0.00278537
-0.0035501
-0.00415873
-0.00460432
-0.00488108
-0.00498445
-0.00491107
-0.00465882
-0.00422674
-0.00361502
-0.00282497
-0.00185899
-0.000720505
0.000586077
0.0020554
0.00368119
0.00545634
0.00737292
0.00942223
0.0115949
0.0138807
0.0162689
0.0187483
0.021307
0.0239325
0.026612
0.0293323
0.03208
0.0348411
0.0376017
0.0403476
0.0430646
0.0457385
0.0483552
0.0509009
0.0533617
0.0557246
0.0579765
0.0601053
0.0620992
0.0639475
0.0656402
0.0671681
0.0685234
0.0696991
0.0706897
0.071491
0.0721001
0.0725156
0.0727378
0.0727684
0.0726108
0.07227
0.0717525
0.0710665
0.0702217
0.0692288
0.0681001
0.0668486
0.0654881
0.0640328
0.062497
0.0608936
0.0592346
0.0575414
0.0558316
0.0539681
0.0518282
0.0176474
0.0150687
0.0128827
0.010938
0.00905971
0.00726278
0.00556581
0.00397537
0.00249873
0.00114452
-7.85578e-05
-0.00116215
-0.00209842
-0.0028802
-0.00350113
-0.0039558
-0.00423976
-0.00434961
-0.00428297
-0.00403852
-0.00361597
-0.00301606
-0.00224051
-0.00129202
-0.000174211
0.00110839
0.0025504
0.0041456
0.00588696
0.00776672
0.00977637
0.0119067
0.014148
0.0164897
0.0189209
0.0214299
0.0240048
0.0266332
0.0293021
0.0319984
0.0347086
0.0374191
0.0401161
0.0427856
0.0454139
0.047987
0.0504913
0.0529133
0.05524
0.0574587
0.0595573
0.061524
0.0633483
0.0650199
0.0665299
0.06787
0.0690333
0.0700138
0.0708071
0.0714099
0.0718203
0.0720378
0.0720636
0.0719001
0.0715514
0.071023
0.0703217
0.0694558
0.0684345
0.0672683
0.0659683
0.0645463
0.0630142
0.0613839
0.0596659
0.0578697
0.0560158
0.0541209
0.052024
0.0495832
0.0196843
0.0168047
0.0143839
0.0122516
0.0102095
0.00827192
0.00645676
0.00476819
0.00321104
0.00179164
0.00051649
-0.000608153
-0.00157638
-0.0023828
-0.00302269
-0.00349206
-0.00378774
-0.00390744
-0.00384974
-0.00361414
-0.00320104
-0.00261171
-0.00184833
-0.000913932
0.000187621
0.00145165
0.00287267
0.00444447
0.00616007
0.00801181
0.00999133
0.0120897
0.0142972
0.0166037
0.0189984
0.0214702
0.0240073
0.0265974
0.0292281
0.0318865
0.0345595
0.0372336
0.0398953
0.042531
0.045127
0.0476697
0.0501457
0.0525415
0.0548443
0.0570415
0.0591209
0.0610709
0.0628807
0.0645402
0.0660401
0.0673721
0.0685288
0.0695042
0.0702932
0.070892
0.0712983
0.071511
0.0715303
0.0713581
0.0709973
0.0704524
0.0697291
0.0688342
0.0677756
0.0665622
0.0652034
0.0637092
0.0620897
0.0603549
0.0585132
0.0565721
0.054552
0.0524691
0.0501398
0.0474048
0.0215937
0.0184209
0.0157681
0.0134478
0.0112393
0.0091565
0.00721722
0.00542367
0.00377858
0.00228633
0.000951504
-0.000221484
-0.00122847
-0.00206568
-0.00272986
-0.00321839
-0.0035293
-0.00366135
-0.00361407
-0.00338775
-0.00298347
-0.00240308
-0.00164922
-0.000725279
0.000364598
0.00161553
0.00302194
0.00457753
0.00627534
0.00810776
0.0100665
0.0121428
0.0143272
0.0166097
0.0189797
0.0214262
0.0239377
0.0265024
0.0291079
0.0317416
0.0343906
0.0370417
0.0396815
0.0422967
0.0448738
0.0473991
0.0498595
0.0522416
0.0545326
0.0567198
0.0587911
0.0607348
0.06254
0.0641963
0.0656943
0.0670254
0.0681819
0.0691572
0.069946
0.0705439
0.070948
0.0711564
0.0711687
0.0709859
0.0706099
0.0700443
0.0692936
0.0683634
0.0672603
0.0659919
0.064566
0.0629911
0.0612758
0.0594285
0.057456
0.0553643
0.0531738
0.0509012
0.0483415
0.0453184
0.0233506
0.0198917
0.0170104
0.0145025
0.012126
0.00989498
0.00782734
0.00592366
0.00418494
0.00261391
0.00121346
-1.36088e-05
-0.00106469
-0.00193749
-0.00263011
-0.00314117
-0.00346984
-0.0036159
-0.00357977
-0.00336253
-0.00296594
-0.00239241
-0.00164507
-0.000727682
0.000355304
0.00159879
0.00299702
0.00454362
0.0062316
0.00805335
0.0100007
0.0120649
0.0142365
0.0165059
0.0188625
0.0212957
0.0237939
0.0263457
0.0289387
0.0315606
0.0341987
0.0368399
0.0394711
0.0420789
0.04465
0.0471709
0.0496284
0.0520092
0.0543003
0.0564891
0.0585634
0.0605113
0.0623217
0.0639841
0.0654885
0.0668263
0.0679892
0.0689702
0.0697635
0.0703642
0.0707685
0.0709741
0.0709797
0.0707854
0.0703924
0.0698031
0.069021
0.0680507
0.0668976
0.0655678
0.0640682
0.0624058
0.060588
0.0586219
0.056513
0.0542663
0.0519028
0.0494395
0.0466514
0.0433459
0.0249329
0.0211942
0.0180879
0.0153933
0.0128482
0.010467
0.00826805
0.0062505
0.00441392
0.00275961
0.00128902
3.50031e-06
-0.00109573
-0.0020077
-0.00273177
-0.00326772
-0.00361578
-0.0037767
-0.00375174
-0.00354277
-0.00315219
-0.002583
-0.0018388
-0.000923751
0.000157366
0.0013992
0.00279583
0.00434075
0.00602689
0.00784662
0.00979177
0.0118536
0.014023
0.0162901
0.0186447
0.0210761
0.0235731
0.0261241
0.0287173
0.0313402
0.0339803
0.0366247
0.0392602
0.0418737
0.0444518
0.0469811
0.0494482
0.05184
0.0541433
0.0563454
0.0584338
0.0603966
0.0622223
0.0639
0.0654197
0.066772
0.0679485
0.0689414
0.0697445
0.0703522
0.0707601
0.0709652
0.0709653
0.0707598
0.0703489
0.0697341
0.068918
0.067904
0.0666966
0.0653007
0.0637222
0.061967
0.0600414
0.0579516
0.0557021
0.053297
0.0507583
0.0481039
0.0450891
0.0415058
0.0263208
0.0223079
0.0189796
0.0160995
0.0133858
0.0108533
0.00852101
0.00638696
0.00444947
0.00270861
0.00116457
-0.000182561
-0.00133283
-0.00228648
-0.003044
-0.00360626
-0.00397448
-0.00415032
-0.00413587
-0.00393373
-0.00354695
-0.0029791
-0.00223427
-0.00131703
-0.000232491
0.00101372
0.00241548
0.00396612
0.00565847
0.00748485
0.00943708
0.0115064
0.0136838
0.0159594
0.0183231
0.0207643
0.023272
0.0258346
0.0284403
0.0310768
0.0337317
0.0363922
0.039045
0.0416771
0.0442751
0.0468255
0.0493149
0.05173
0.0540576
0.0562847
0.0583986
0.0603871
0.0622384
0.0639414
0.0654854
0.0668606
0.0680582
0.0690699
0.0698886
0.0705083
0.070924
0.0711316
0.0711284
0.0709128
0.0704842
0.0698433
0.0689916
0.0679317
0.066667
0.0652016
0.0635403
0.0616881
0.0596507
0.0574333
0.0550398
0.0524738
0.0497582
0.0469121
0.043672
0.0398146
0.0274959
0.0232135
0.019666
0.0166017
0.0137196
0.0110354
0.00856845
0.00631616
0.00427568
0.00244603
0.000826294
-0.000584582
-0.00178777
-0.00278461
-0.00357666
-0.00416577
-0.00455411
-0.00474419
-0.00473891
-0.00454156
-0.00415584
-0.00358588
-0.00283625
-0.00191193
-0.000818391
0.000438462
0.00185226
0.00341618
0.00512291
0.00696469
0.00893327
0.0110199
0.0132155
0.0155104
0.0178944
0.0203569
0.022887
0.0254733
0.0281039
0.0307667
0.0334492
0.0361385
0.0388215
0.0414852
0.0441159
0.0467003
0.0492246
0.0516756
0.0540397
0.0563037
0.0584546
0.06048
0.0623676
0.0641057
0.0656835
0.0670906
0.0683174
0.0693552
0.0701962
0.0708337
0.0712618
0.071476
0.0714725
0.071249
0.0708041
0.0701374
0.0692497
0.0681427
0.0668189
0.0652816
0.0635347
0.0615827
0.0594303
0.0570823
0.0545422
0.051813
0.0489191
0.0458808
0.0424161
0.0382868
0.0284415
0.0238932
0.0201288
0.0168814
0.0138315
0.0109952
0.00839305
0.00602147
0.00387673
0.00195691
0.00026012
-0.00121571
-0.00247279
-0.00351345
-0.00434024
-0.00495594
-0.0053636
-0.00556656
-0.00556846
-0.00537329
-0.00498536
-0.00440935
-0.00365032
-0.00271368
-0.00160525
-0.000331244
0.00110174
0.00268666
0.00441607
0.00628208
0.00827639
0.0103902
0.0126144
0.0149392
0.0173546
0.0198499
0.0224143
0.0250364
0.0277042
0.0304058
0.0331284
0.0358595
0.0385857
0.0412938
0.0439702
0.0466014
0.0491735
0.0516729
0.0540859
0.0563989
0.0585988
0.0606724
0.0626073
0.0643913
0.0660128
0.067461
0.0687258
0.0697977
0.0706683
0.07133
0.0717764
0.0720019
0.0720021
0.0717738
0.0713147
0.0706237
0.0697006
0.0685464
0.0671627
0.0655522
0.063718
0.0616639
0.0593943
0.0569135
0.0542244
0.0513302
0.0482566
0.0450253
0.0413361
0.0369359
0.0291413
0.0243299
0.0203503
0.016921
0.0137036
0.0107154
0.0079778
0.00548644
0.00323681
0.00122617
-0.000548252
-0.00208946
-0.00340058
-0.00448489
-0.00534587
-0.00598715
-0.00641262
-0.00662641
-0.00663288
-0.00643668
-0.00604275
-0.0054563
-0.00468286
-0.00372828
-0.00259875
-0.00130078
0.000158756
0.00177261
0.00353316
0.0054324
0.00746189
0.00961281
0.0118759
0.0142414
0.0166993
0.019239
0.0218495
0.0245194
0.0272368
0.0299896
0.0327653
0.0355509
0.0383332
0.0410988
0.043834
0.046525
0.0491578
0.0517184
0.054193
0.0565675
0.0588283
0.0609621
0.0629556
0.0647964
0.0664722
0.0679716
0.0692837
0.0703984
0.0713065
0.0719998
0.0724709
0.0727134
0.0727222
0.0724931
0.0720231
0.0713101
0.0703533
0.0691527
0.0677094
0.0660252
0.0641028
0.0619453
0.0595568
0.0569413
0.0541016
0.0510406
0.0477857
0.0443603
0.0404458
0.0357745
0.0295797
0.024507
0.0203136
0.016703
0.0133187
0.0101789
0.00730587
0.00469468
0.00234007
0.000238572
-0.00161339
-0.00321968
-0.00458429
-0.00571137
-0.00660524
-0.00727039
-0.00771149
-0.00793342
-0.00794125
-0.00774027
-0.00733602
-0.00673424
-0.00594096
-0.00496244
-0.00380524
-0.00247621
-0.000982484
0.000668458
0.0024688
0.00441039
0.00648466
0.00868269
0.0109951
0.0134123
0.0159239
0.0185194
0.0211878
0.0239176
0.026697
0.0295137
0.0323551
0.0352082
0.0380597
0.0408959
0.0437031
0.0464671
0.0491737
0.0518086
0.0543576
0.0568064
0.0591407
0.0613468
0.063411
0.0653201
0.0670612
0.0686223
0.0699917
0.0711587
0.0721131
0.072846
0.0733491
0.0736153
0.0736384
0.0734136
0.0729368
0.0722052
0.0712172
0.0699721
0.0684702
0.0667128
0.0647019
0.0624404
0.0599319
0.0571805
0.0541885
0.0509591
0.0475213
0.0439
0.0397587
0.0348146
0.0297416
0.0244086
0.020002
0.0162107
0.0126599
0.00936875
0.00636051
0.00362977
0.00117053
-0.00102134
-0.00295018
-0.00462063
-0.00603751
-0.0072058
-0.00813062
-0.00881727
-0.00927118
-0.00949794
-0.00950333
-0.00929326
-0.00887386
-0.00825141
-0.0074324
-0.00642354
-0.00523177
-0.00386424
-0.00232841
-0.000631983
0.00121702
0.00321027
0.00533907
0.00759437
0.00996674
0.0124464
0.015023
0.0176859
0.0204242
0.0232261
0.0260799
0.0289732
0.0318932
0.0348268
0.0377606
0.0406808
0.0435732
0.0464236
0.0492174
0.05194
0.0545767
0.0571128
0.0595336
0.0618247
0.063972
0.0659614
0.0677796
0.0694136
0.0708511
0.0720805
0.0730908
0.0738722
0.0744156
0.0747129
0.0747571
0.0745424
0.0740639
0.0733181
0.0723024
0.0710154
0.0694569
0.0676275
0.0655288
0.0631632
0.0605342
0.0576457
0.0545
0.0511005
0.0474778
0.0436586
0.039288
0.0340684
0.0296117
0.0240184
0.0193988
0.015427
0.01171
0.00826786
0.00512488
0.00227514
-0.000287991
-0.00256931
-0.00457383
-0.00630696
-0.0077743
-0.00898162
-0.00993483
-0.01064
-0.0111032
-0.011331
-0.0113295
-0.0111055
-0.0106656
-0.0100167
-0.0091656
-0.0081196
-0.00688595
-0.00547219
-0.00388603
-0.00213545
-0.000228682
0.00182574
0.00401899
0.00634188
0.00878486
0.011338
0.013991
0.0167331
0.0195531
0.0224395
0.0253803
0.0283628
0.0313745
0.0344018
0.0374313
0.0404488
0.0434401
0.0463905
0.0492852
0.0521091
0.0548471
0.057484
0.0600047
0.0623941
0.0646373
0.0667198
0.0686273
0.0703462
0.0718633
0.0731661
0.0742428
0.0750825
0.0756753
0.0760121
0.0760851
0.0758874
0.0754133
0.0746584
0.0736195
0.0722943
0.0706819
0.0687825
0.0665971
0.064128
0.0613783
0.0583519
0.0550513
0.0514798
0.04767
0.0436504
0.0390473
0.033548
0.0291746
0.0233204
0.0184874
0.014335
0.0104519
0.00685914
0.00358197
0.000614009
-0.00205198
-0.0044214
-0.00649996
-0.00829377
-0.00980921
-0.0110528
-0.0120312
-0.0127513
-0.0132199
-0.013444
-0.0134309
-0.0131875
-0.0127212
-0.0120394
-0.0111496
-0.0100592
-0.008776
-0.00730788
-0.00566287
-0.00384918
-0.00187531
0.000250044
0.00251786
0.00491882
0.00744325
0.0100811
0.012822
0.015655
0.018569
0.0215522
0.0245925
0.0276773
0.0307936
0.033928
0.0370667
0.0401952
0.0432992
0.0463635
0.049373
0.0523123
0.0551656
0.0579174
0.0605518
0.0630532
0.065406
0.0675949
0.0696049
0.0714214
0.0730304
0.0744184
0.0755727
0.0764815
0.0771337
0.0775195
0.0776298
0.077457
0.0769944
0.0762367
0.0751798
0.0738208
0.0721582
0.0701914
0.0679213
0.0653496
0.0624795
0.0593147
0.0558579
0.0521126
0.0481132
0.04389
0.0390504
0.0332661
0.0284147
0.0222982
0.017251
0.0129177
0.00886838
0.0051252
0.00171445
-0.00137076
-0.00413828
-0.00659411
-0.00874462
-0.0105966
-0.0121573
-0.0134338
-0.0144337
-0.0151645
-0.0156338
-0.0158494
-0.0158189
-0.0155503
-0.0150513
-0.0143298
-0.0133939
-0.0122514
-0.0109106
-0.00937969
-0.00766694
-0.00578091
-0.0037303
-0.00152403
0.000828696
0.00331841
0.0059353
0.00866921
0.0115096
0.0144456
0.0174657
0.0205582
0.0237109
0.026911
0.0301453
0.0334003
0.0366617
0.0399153
0.0431459
0.0463384
0.0494771
0.0525461
0.0555292
0.0584103
0.0611729
0.0638006
0.0662772
0.0685866
0.0707128
0.0726404
0.0743544
0.0758403
0.0770845
0.0780741
0.0787969
0.079242
0.0793994
0.0792604
0.0788173
0.0780639
0.0769954
0.0756079
0.0738994
0.0718687
0.0695163
0.0668436
0.0638536
0.0605502
0.056936
0.0530148
0.0488229
0.0443926
0.0393116
0.0332359
0.0273159
0.020935
0.0156723
0.0111573
0.00694162
0.00304826
-0.000495401
-0.00369673
-0.0065642
-0.00910441
-0.0113244
-0.0132317
-0.0148341
-0.0161397
-0.0171568
-0.0178935
-0.0183583
-0.0185596
-0.0185058
-0.0182054
-0.0176667
-0.0168983
-0.0159086
-0.014706
-0.0132991
-0.0116964
-0.00990671
-0.00793875
-0.00580148
-0.00350406
-0.00105584
0.00153351
0.00425407
0.00709554
0.0100473
0.0130982
0.0162369
0.0194514
0.0227294
0.026058
0.0294238
0.032813
0.0362113
0.0396039
0.0429756
0.0463108
0.0495933
0.0528068
0.0559347
0.05896
0.0618658
0.0646349
0.0672501
0.0696947
0.0719517
0.0740048
0.0758379
0.0774355
0.0787828
0.0798658
0.0806713
0.0811872
0.0814024
0.0813071
0.0808927
0.0801519
0.0790788
0.0776692
0.07592
0.0738296
0.071398
0.0686264
0.0655175
0.0620754
0.0583026
0.0542033
0.0498158
0.0451742
0.0398462
0.0334715
0.0258616
0.0192135
0.0137335
0.0090359
0.00465342
0.000610034
-0.00306581
-0.00638198
-0.00934759
-0.0119698
-0.0142564
-0.0162155
-0.0178558
-0.0191862
-0.0202155
-0.0209529
-0.0214074
-0.0215882
-0.0215044
-0.021165
-0.0205792
-0.0197559
-0.0187042
-0.0174328
-0.0159509
-0.0142672
-0.012391
-0.0103312
-0.00809704
-0.00569792
-0.0031434
-0.000443277
0.00239235
0.00535307
0.00842812
0.0116063
0.0148761
0.0182255
0.0216418
0.0251122
0.0286231
0.0321605
0.0357098
0.0392559
0.0427834
0.046276
0.0497175
0.0530908
0.0563788
0.0595639
0.0626285
0.0655545
0.0683241
0.0709194
0.0733227
0.0755165
0.0774837
0.0792076
0.0806723
0.0818625
0.0827639
0.0833632
0.0836481
0.0836076
0.083232
0.082513
0.0814438
0.0800191
0.0782353
0.0760902
0.0735831
0.0707151
0.0674888
0.063908
0.0599757
0.0556959
0.0511093
0.0462518
0.0406705
0.033988
0.0240346
0.0171158
0.0114163
0.00653481
0.00198495
-0.00220837
-0.00601563
-0.00944522
-0.0125069
-0.0152085
-0.0175583
-0.0195654
-0.0212393
-0.0225894
-0.0236255
-0.0243575
-0.0247953
-0.0249487
-0.0248276
-0.0244417
-0.0238007
-0.0229142
-0.0217916
-0.0204424
-0.018876
-0.0171017
-0.0151289
-0.012967
-0.0106254
-0.00811377
-0.00544184
-0.00261959
0.00034273
0.0034346
0.00664512
0.00996303
0.0133766
0.0168738
0.0204418
0.0240676
0.0277374
0.0314371
0.0351518
0.0388661
0.0425642
0.0462296
0.0498455
0.0533943
0.0568583
0.0602193
0.0634588
0.0665581
0.0694984
0.0722609
0.0748268
0.0771775
0.0792947
0.0811606
0.0827581
0.0840705
0.0850822
0.0857787
0.0861463
0.0861728
0.0858474
0.0851606
0.0841045
0.0826731
0.0808617
0.0786675
0.0760895
0.0731282
0.0697861
0.0660672
0.0619742
0.0575117
0.0527222
0.0476437
0.0418019
0.0348018
0.0218167
0.0146232
0.00870155
0.00363464
-0.00108335
-0.00542656
-0.00936442
-0.0129059
-0.0160613
-0.0188392
-0.0212486
-0.0232994
-0.0250018
-0.0263661
-0.027403
-0.0281231
-0.0285371
-0.0286557
-0.0284894
-0.0280486
-0.0273437
-0.0263849
-0.0251822
-0.0237455
-0.0220848
-0.0202096
-0.0181299
-0.0158551
-0.0133952
-0.0107599
-0.00795921
-0.00500322
-0.00190235
0.00133276
0.00469111
0.00816132
0.0117316
0.0153897
0.0191228
0.0229177
0.0267606
0.0306368
0.0345315
0.038429
0.0423131
0.0461668
0.0499729
0.0537134
0.0573698
0.0609233
0.0643547
0.0676444
0.0707726
0.0737194
0.0764651
0.0789899
0.0812742
0.083299
0.0850457
0.0864965
0.0876341
0.0884428
0.0889074
0.0890145
0.0887518
0.0881088
0.0870764
0.0856473
0.0838163
0.0815798
0.078936
0.0758852
0.0724296
0.0685731
0.0643186
0.0596708
0.0546744
0.0493694
0.0432592
0.0359308
0.019189
0.0117162
0.00556928
0.000315155
-0.00457188
-0.00906501
-0.0131326
-0.0167841
-0.0200307
-0.0228816
-0.0253465
-0.0274362
-0.0291615
-0.0305339
-0.0315649
-0.0322658
-0.0326483
-0.0327238
-0.0325036
-0.031999
-0.0312209
-0.0301802
-0.0288874
-0.0273531
-0.0255876
-0.0236009
-0.0214033
-0.0190047
-0.0164152
-0.0136448
-0.0107036
-0.007602
-0.00435048
-0.000959817
0.00255889
0.00619419
0.00993419
0.0137665
0.0176784
0.0216563
0.0256863
0.0297537
0.0338434
0.0379392
0.0420248
0.0460828
0.0500954
0.0540442
0.05791
0.0616733
0.065314
0.0688118
0.0721459
0.0752953
0.078239
0.0809561
0.0834257
0.0856274
0.0875411
0.0891475
0.0904281
0.0913652
0.0919426
0.0921451
0.0919591
0.0913727
0.0903755
0.0889594
0.0871178
0.0848465
0.082143
0.079007
0.0754406
0.0714476
0.0670308
0.0621951
0.0569875
0.0514501
0.0450629
0.0373943
0.0161317
0.00837428
0.00199856
-0.00344485
-0.008502
-0.0131451
-0.0173415
-0.0211012
-0.0244361
-0.0273561
-0.029872
-0.031995
-0.0337373
-0.035111
-0.0361286
-0.0368024
-0.0371449
-0.0371684
-0.036885
-0.0363068
-0.0354455
-0.0343125
-0.0329191
-0.0312764
-0.0293951
-0.0272857
-0.0249589
-0.022425
-0.0196941
-0.0167767
-0.0136831
-0.0104237
-0.00700924
-0.00345049
0.000241325
0.00405467
0.00797759
0.0119977
0.016102
0.020277
0.0245085
0.0287818
0.0330815
0.0373912
0.0416942
0.0459727
0.0502086
0.0543826
0.0584753
0.0624663
0.0663346
0.0700591
0.0736178
0.0769888
0.0801498
0.0830785
0.0857527
0.0881504
0.0902502
0.0920311
0.0934729
0.0945564
0.0952636
0.0955778
0.0954838
0.0949682
0.0940194
0.0926278
0.0907859
0.0884883
0.085732
0.082516
0.0788421
0.074714
0.0701343
0.0651082
0.059685
0.0539086
0.0472353
0.0392136
0.0126238
0.00457587
-0.00203261
-0.00766765
-0.0128961
-0.0176893
-0.0220134
-0.0258791
-0.0292992
-0.0322842
-0.0348458
-0.0369963
-0.0387488
-0.0401163
-0.0411122
-0.0417501
-0.0420433
-0.0420051
-0.0416484
-0.0409861
-0.0400308
-0.0387945
-0.0372892
-0.0355266
-0.0335178
-0.0312741
-0.0288062
-0.0261249
-0.0232407
-0.0201641
-0.0169057
-0.0134761
-0.00988602
-0.00614644
-0.0022686
0.00173592
0.00585512
0.0100765
0.0143872
0.0187735
0.0232211
0.0277152
0.0322402
0.0367795
0.041316
0.0458317
0.0503078
0.0547248
0.0590624
0.0632994
0.0674143
0.0713847
0.0751878
0.0788003
0.0821988
0.0853596
0.088259
0.0908734
0.0931797
0.0951552
0.096778
0.0980271
0.0988828
0.0993265
0.0993414
0.0989125
0.0980265
0.0966724
0.0948416
0.0925275
0.0897263
0.0864363
0.0826589
0.0783974
0.0736545
0.0684355
0.062792
0.05677
0.0498005
0.0414117
0.00864324
0.000298202
-0.00654744
-0.0123767
-0.0177779
-0.0227213
-0.0271719
-0.0311413
-0.0346429
-0.0376883
-0.0402899
-0.0424613
-0.0442163
-0.0455693
-0.0465347
-0.047127
-0.0473607
-0.0472501
-0.046809
-0.0460513
-0.0449903
-0.0436388
-0.0420096
-0.0401149
-0.0379665
-0.0355759
-0.0329546
-0.0301134
-0.0270632
-0.0238149
-0.020379
-0.0167664
-0.012988
-0.00905459
-0.0049776
-0.000768618
0.00356036
0.00799686
0.0125279
0.0171397
0.0218182
0.0265482
0.0313139
0.0360987
0.0408852
0.045655
0.0503888
0.0550667
0.0596676
0.0641698
0.0685508
0.0727872
0.0768552
0.0807303
0.0843877
0.0878022
0.0909485
0.0938014
0.0963361
0.0985279
0.100353
0.101789
0.102813
0.103406
0.103548
0.103224
0.102416
0.101114
0.0993075
0.096988
0.0941508
0.0907938
0.0869175
0.0825251
0.077619
0.0722047
0.0663359
0.0600612
0.0527849
0.0440141
0.00416662
-0.00448277
-0.0115705
-0.0175969
-0.0231723
-0.028266
-0.0328418
-0.0369121
-0.0404913
-0.0435918
-0.0462272
-0.0484119
-0.0501612
-0.0514904
-0.0524153
-0.0529515
-0.0531145
-0.0529198
-0.0523824
-0.0515169
-0.0503376
-0.0488583
-0.0470922
-0.0450525
-0.0427513
-0.040201
-0.037413
-0.034399
-0.0311698
-0.0277367
-0.0241104
-0.0203018
-0.0163218
-0.0121814
-0.00789202
-0.00346513
0.00108725
0.00575267
0.0105181
0.01537
0.020294
0.025275
0.0302972
0.0353436
0.0403967
0.0454377
0.0504471
0.0554043
0.0602876
0.0650746
0.0697419
0.0742653
0.0786196
0.0827793
0.0867179
0.0904089
0.0938253
0.0969401
0.0997265
0.102158
0.104209
0.105854
0.107069
0.107832
0.108122
0.107921
0.10721
0.105976
0.104208
0.101895
0.0990325
0.0956163
0.0916467
0.0871264
0.0820576
0.0764456
0.0703468
0.0638118
0.0562174
0.0470486
-0.000830765
-0.00979254
-0.0171277
-0.0233546
-0.0291059
-0.0343498
-0.0390494
-0.0432176
-0.0468698
-0.0500196
-0.0526816
-0.0548715
-0.0566057
-0.0579009
-0.0587742
-0.0592426
-0.0593227
-0.0590312
-0.0583842
-0.0573975
-0.0560864
-0.0544654
-0.0525487
-0.0503501
-0.0478825
-0.0451585
-0.0421904
-0.0389897
-0.0355681
-0.0319367
-0.0281065
-0.0240885
-0.0198936
-0.0155329
-0.0110176
-0.00635926
-0.00156978
0.00333849
0.0083526
0.013459
0.0186434
0.0238907
0.029185
0.0345093
0.0398458
0.0451755
0.0504785
0.0557337
0.0609189
0.0660109
0.0709855
0.0758174
0.0804804
0.0849475
0.089191
0.0931826
0.0968936
0.100295
0.103358
0.106055
0.108356
0.110235
0.111665
0.112622
0.113082
0.113024
0.11243
0.111283
0.109568
0.107277
0.1044
0.100934
0.0968776
0.0922332
0.0870025
0.0811908
0.0748569
0.0680539
0.0601294
0.0505455
-0.00637514
-0.0156582
-0.0232468
-0.0296776
-0.0356066
-0.0410009
-0.0458225
-0.0500851
-0.0538054