/*--------------------------------*- C++ -*----------------------------------*\
  =========                 |
  \\      /  F ield         | OpenFOAM: The Open Source CFD Toolbox
   \\    /   O peration     | Website:  https://openfoam.org
    \\  /    A nd           | Version:  7
     \\/     M anipulation  |
\*---------------------------------------------------------------------------*/
FoamFile
{
    version     2.0;
    format      ascii;
    class       volVectorField;
    location    "0.4";
    object      U;
}
// * * * * * * * * * * * * * * * * * * * * * * * * * * * * * * * * * * * * * //

dimensions      [0 1 -1 0 0 0 0];

internalField   nonuniform List<vector> 
6400
(
(7.10319e-06 -7.39509e-06 0)
(2.95818e-05 -1.45262e-05 0)
(5.91856e-05 -1.42078e-05 0)
(8.05489e-05 -9.74772e-06 0)
(8.54145e-05 -3.43307e-06 0)
(7.05583e-05 3.54053e-06 0)
(3.48616e-05 1.05608e-05 0)
(-2.16424e-05 1.73103e-05 0)
(-9.81986e-05 2.36272e-05 0)
(-0.000193617 2.94301e-05 0)
(-0.000306452 3.46807e-05 0)
(-0.000435108 3.93645e-05 0)
(-0.000577903 4.348e-05 0)
(-0.000733119 4.7034e-05 0)
(-0.000899027 5.00383e-05 0)
(-0.00107391 5.25081e-05 0)
(-0.00125608 5.44606e-05 0)
(-0.00144389 5.59142e-05 0)
(-0.00163573 5.68886e-05 0)
(-0.00183004 5.74038e-05 0)
(-0.00202535 5.74802e-05 0)
(-0.0022202 5.71383e-05 0)
(-0.00241322 5.63989e-05 0)
(-0.00260311 5.52824e-05 0)
(-0.00278862 5.38093e-05 0)
(-0.00296857 5.2e-05 0)
(-0.00314185 4.98746e-05 0)
(-0.00330741 4.74535e-05 0)
(-0.00346427 4.47565e-05 0)
(-0.00361152 4.18036e-05 0)
(-0.00374831 3.86147e-05 0)
(-0.00387388 3.52097e-05 0)
(-0.00398751 3.16085e-05 0)
(-0.00408856 2.78313e-05 0)
(-0.00417647 2.38983e-05 0)
(-0.00425074 1.98298e-05 0)
(-0.00431094 1.56468e-05 0)
(-0.00435671 1.13702e-05 0)
(-0.00438779 7.02148e-06 0)
(-0.00440397 2.62248e-06 0)
(-0.00440511 -1.80454e-06 0)
(-0.00439117 -6.23684e-06 0)
(-0.00436217 -1.06512e-05 0)
(-0.00431823 -1.50239e-05 0)
(-0.00425953 -1.93308e-05 0)
(-0.00418637 -2.35471e-05 0)
(-0.00409908 -2.76478e-05 0)
(-0.00399812 -3.16076e-05 0)
(-0.00388403 -3.54006e-05 0)
(-0.00375742 -3.9001e-05 0)
(-0.003619 -4.23826e-05 0)
(-0.00346957 -4.55192e-05 0)
(-0.00331 -4.83847e-05 0)
(-0.00314127 -5.09532e-05 0)
(-0.00296443 -5.31991e-05 0)
(-0.00278062 -5.50975e-05 0)
(-0.00259104 -5.66238e-05 0)
(-0.002397 -5.77542e-05 0)
(-0.00219987 -5.8466e-05 0)
(-0.00200108 -5.87373e-05 0)
(-0.00180213 -5.85478e-05 0)
(-0.00160459 -5.78785e-05 0)
(-0.00141007 -5.67122e-05 0)
(-0.00122023 -5.50333e-05 0)
(-0.00103675 -5.28281e-05 0)
(-0.00086137 -5.00857e-05 0)
(-0.000695805 -4.67977e-05 0)
(-0.000541791 -4.29595e-05 0)
(-0.000401035 -3.85709e-05 0)
(-0.0002752 -3.3638e-05 0)
(-0.000165871 -2.81757e-05 0)
(-7.45088e-05 -2.22134e-05 0)
(-2.3811e-06 -1.58048e-05 0)
(4.95434e-05 -9.0474e-06 0)
(8.07703e-05 -2.12082e-06 0)
(9.15639e-05 4.64043e-06 0)
(8.33695e-05 1.06109e-05 0)
(5.97531e-05 1.45949e-05 0)
(2.9226e-05 1.43497e-05 0)
(6.87069e-06 6.86881e-06 0)
(1.43681e-05 -3.00234e-05 0)
(5.13864e-05 -5.16363e-05 0)
(8.9683e-05 -4.41416e-05 0)
(0.000103443 -1.91326e-05 0)
(7.69455e-05 1.52917e-05 0)
(2.34171e-06 5.41096e-05 0)
(-0.000124067 9.4245e-05 0)
(-0.000303195 0.000133811 0)
(-0.000533998 0.00017165 0)
(-0.000814111 0.000207046 0)
(-0.00114029 0.000239561 0)
(-0.00150873 0.000268934 0)
(-0.00191525 0.000295019 0)
(-0.00235543 0.000317753 0)
(-0.00282477 0.000337123 0)
(-0.00331871 0.000353158 0)
(-0.0038327 0.000365915 0)
(-0.00436226 0.00037547 0)
(-0.00490299 0.000381915 0)
(-0.00545061 0.000385355 0)
(-0.00600098 0.0003859 0)
(-0.00655009 0.000383668 0)
(-0.00709409 0.000378781 0)
(-0.00762932 0.000371366 0)
(-0.00815225 0.00036155 0)
(-0.00865957 0.000349464 0)
(-0.00914813 0.000335238 0)
(-0.00961495 0.000319004 0)
(-0.0100573 0.000300896 0)
(-0.0104725 0.000281047 0)
(-0.0108582 0.000259592 0)
(-0.0112123 0.000236667 0)
(-0.0115326 0.000212408 0)
(-0.0118174 0.000186954 0)
(-0.0120651 0.000160443 0)
(-0.0122743 0.000133017 0)
(-0.0124437 0.000104819 0)
(-0.0125725 7.59952e-05 0)
(-0.0126596 4.66931e-05 0)
(-0.0127047 1.70631e-05 0)
(-0.0127074 -1.27415e-05 0)
(-0.0126675 -4.25647e-05 0)
(-0.0125852 -7.22477e-05 0)
(-0.0124607 -0.000101629 0)
(-0.0122946 -0.000130544 0)
(-0.0120878 -0.000158826 0)
(-0.0118413 -0.000186306 0)
(-0.0115563 -0.000212813 0)
(-0.0112343 -0.000238177 0)
(-0.0108772 -0.000262223 0)
(-0.010487 -0.000284779 0)
(-0.0100659 -0.000305673 0)
(-0.00961634 -0.000324734 0)
(-0.00914116 -0.000341793 0)
(-0.00864329 -0.000356685 0)
(-0.00812594 -0.00036925 0)
(-0.0075925 -0.000379332 0)
(-0.00704662 -0.000386783 0)
(-0.00649209 -0.000391462 0)
(-0.00593294 -0.000393238 0)
(-0.00537333 -0.000391991 0)
(-0.00481757 -0.000387615 0)
(-0.00427012 -0.000380017 0)
(-0.00373551 -0.000369123 0)
(-0.00321835 -0.000354876 0)
(-0.0027233 -0.000337245 0)
(-0.002255 -0.000316227 0)
(-0.00181802 -0.000291855 0)
(-0.00141682 -0.000264207 0)
(-0.00105565 -0.000233421 0)
(-0.000738446 -0.000199719 0)
(-0.000468664 -0.000163439 0)
(-0.000249103 -0.000125101 0)
(-8.15883e-05 -8.54938e-05 0)
(3.34498e-05 -4.58471e-05 0)
(9.75999e-05 -8.09775e-06 0)
(0.000115246 2.46678e-05 0)
(9.48588e-05 4.75004e-05 0)
(5.26135e-05 5.2563e-05 0)
(1.43499e-05 2.92023e-05 0)
(1.42529e-05 -5.95135e-05 0)
(4.44796e-05 -8.99936e-05 0)
(6.11734e-05 -6.05298e-05 0)
(3.55154e-05 6.68065e-06 0)
(-5.08707e-05 9.62189e-05 0)
(-0.000208205 0.00019743 0)
(-0.000441823 0.000303085 0)
(-0.000753431 0.000408347 0)
(-0.001142 0.000509995 0)
(-0.00160451 0.000605884 0)
(-0.00213655 0.000694602 0)
(-0.00273274 0.000775231 0)
(-0.00338701 0.000847204 0)
(-0.00409286 0.000910197 0)
(-0.00484352 0.000964067 0)
(-0.00563209 0.0010088 0)
(-0.00645162 0.00104447 0)
(-0.00729522 0.00107124 0)
(-0.00815606 0.00108932 0)
(-0.0090275 0.00109895 0)
(-0.00990304 0.00110042 0)
(-0.0107764 0.00109404 0)
(-0.0116415 0.00108012 0)
(-0.0124926 0.00105902 0)
(-0.0133241 0.00103108 0)
(-0.0141308 0.000996653 0)
(-0.0149075 0.000956117 0)
(-0.0156498 0.000909839 0)
(-0.016353 0.000858196 0)
(-0.0170131 0.000801568 0)
(-0.0176263 0.000740339 0)
(-0.018189 0.000674898 0)
(-0.0186981 0.000605638 0)
(-0.0191507 0.000532955 0)
(-0.0195442 0.000457251 0)
(-0.0198764 0.000378934 0)
(-0.0201454 0.000298417 0)
(-0.0203495 0.000216119 0)
(-0.0204876 0.000132467 0)
(-0.0205587 4.78956e-05 0)
(-0.0205623 -3.71553e-05 0)
(-0.0204983 -0.000122237 0)
(-0.0203668 -0.000206892 0)
(-0.0201683 -0.000290658 0)
(-0.0199038 -0.000373065 0)
(-0.0195745 -0.000453637 0)
(-0.0191822 -0.000531891 0)
(-0.0187288 -0.000607342 0)
(-0.0182169 -0.000679502 0)
(-0.0176492 -0.000747881 0)
(-0.0170289 -0.000811991 0)
(-0.0163597 -0.000871345 0)
(-0.0156455 -0.000925464 0)
(-0.0148907 -0.000973876 0)
(-0.0140999 -0.00101612 0)
(-0.0132783 -0.00105175 0)
(-0.0124311 -0.00108033 0)
(-0.0115642 -0.00110146 0)
(-0.0106835 -0.00111476 0)
(-0.00979525 -0.00111987 0)
(-0.00890609 -0.00111648 0)
(-0.00802272 -0.00110431 0)
(-0.00715205 -0.00108314 0)
(-0.00630112 -0.00105278 0)
(-0.00547706 -0.00101313 0)
(-0.00468701 -0.000964167 0)
(-0.00393804 -0.000905937 0)
(-0.00323708 -0.000838622 0)
(-0.00259079 -0.000762544 0)
(-0.00200546 -0.000678213 0)
(-0.00148678 -0.000586395 0)
(-0.00103962 -0.000488204 0)
(-0.000667769 -0.000385247 0)
(-0.000373471 -0.000279844 0)
(-0.000156902 -0.00017536 0)
(-1.54384e-05 -7.67104e-05 0)
(5.71676e-05 8.90542e-06 0)
(7.19434e-05 7.10604e-05 0)
(4.79774e-05 9.49261e-05 0)
(1.46785e-05 5.97912e-05 0)
(1.00385e-05 -8.12294e-05 0)
(2.03601e-05 -0.000104446 0)
(-4.34706e-06 -3.52141e-05 0)
(-9.08533e-05 9.36214e-05 0)
(-0.000257307 0.00025929 0)
(-0.000514658 0.000445243 0)
(-0.000868816 0.000639616 0)
(-0.00132174 0.000834053 0)
(-0.00187227 0.0010227 0)
(-0.00251688 0.00120148 0)
(-0.00325028 0.00136758 0)
(-0.00406587 0.0015191 0)
(-0.00495612 0.00165477 0)
(-0.00591286 0.00177383 0)
(-0.00692749 0.00187586 0)
(-0.00799116 0.00196072 0)
(-0.0090949 0.00202847 0)
(-0.0102298 0.00207931 0)
(-0.0113868 0.00211357 0)
(-0.0125574 0.00213169 0)
(-0.0137329 0.00213415 0)
(-0.014905 0.0021215 0)
(-0.0160658 0.00209435 0)
(-0.0172074 0.00205332 0)
(-0.0183227 0.00199907 0)
(-0.0194044 0.00193228 0)
(-0.0204459 0.00185364 0)
(-0.021441 0.00176388 0)
(-0.0223838 0.0016637 0)
(-0.0232686 0.00155385 0)
(-0.0240905 0.00143507 0)
(-0.0248447 0.00130811 0)
(-0.0255268 0.00117374 0)
(-0.0261332 0.00103272 0)
(-0.0266602 0.000885845 0)
(-0.027105 0.000733906 0)
(-0.027465 0.000577708 0)
(-0.0277381 0.000418071 0)
(-0.0279225 0.000255826 0)
(-0.0280172 9.18196e-05 0)
(-0.0280215 -7.30897e-05 0)
(-0.027935 -0.000238028 0)
(-0.0277581 -0.000402109 0)
(-0.0274916 -0.000564431 0)
(-0.0271365 -0.000724083 0)
(-0.0266948 -0.000880141 0)
(-0.0261686 -0.00103167 0)
(-0.0255607 -0.00117774 0)
(-0.0248744 -0.0013174 0)
(-0.0241135 -0.00144971 0)
(-0.0232823 -0.00157373 0)
(-0.0223856 -0.00168853 0)
(-0.0214287 -0.00179319 0)
(-0.0204174 -0.00188681 0)
(-0.019358 -0.0019685 0)
(-0.0182572 -0.00203742 0)
(-0.0171221 -0.00209277 0)
(-0.0159604 -0.00213376 0)
(-0.0147799 -0.0021597 0)
(-0.0135891 -0.00216992 0)
(-0.0123965 -0.00216386 0)
(-0.011211 -0.00214102 0)
(-0.0100417 -0.002101 0)
(-0.00889768 -0.00204352 0)
(-0.00778836 -0.00196845 0)
(-0.00672294 -0.00187578 0)
(-0.00571057 -0.00176573 0)
(-0.0047601 -0.00163873 0)
(-0.00388003 -0.00149553 0)
(-0.00307823 -0.00133723 0)
(-0.00236179 -0.00116544 0)
(-0.00173668 -0.000982423 0)
(-0.00120743 -0.000791317 0)
(-0.000776638 -0.000596499 0)
(-0.000444434 -0.000404049 0)
(-0.000207763 -0.000222436 0)
(-5.96206e-05 -6.3447e-05 0)
(1.19381e-05 5.6736e-05 0)
(2.61097e-05 0.000116183 0)
(1.09041e-05 8.38365e-05 0)
(4.01192e-06 -8.70567e-05 0)
(-1.30312e-05 -7.95592e-05 0)
(-9.20056e-05 4.99248e-05 0)
(-0.000253989 0.000259641 0)
(-0.000514825 0.000520189 0)
(-0.000884961 0.000809511 0)
(-0.00136998 0.00111121 0)
(-0.00197149 0.00141329 0)
(-0.00268792 0.00170704 0)
(-0.00351515 0.00198618 0)
(-0.0044471 0.00224623 0)
(-0.00547614 0.00248402 0)
(-0.00659354 0.00269741 0)
(-0.00778972 0.00288501 0)
(-0.00905457 0.003046 0)
(-0.0103776 0.00318001 0)
(-0.0117481 0.003287 0)
(-0.0131554 0.00336719 0)
(-0.0145888 0.00342103 0)
(-0.0160378 0.00344911 0)
(-0.0174919 0.00345217 0)
(-0.0189411 0.00343103 0)
(-0.0203758 0.0033866 0)
(-0.0217863 0.00331987 0)
(-0.0231638 0.00323187 0)
(-0.0244997 0.00312366 0)
(-0.0257857 0.00299635 0)
(-0.0270141 0.00285107 0)
(-0.0281778 0.00268898 0)
(-0.0292698 0.00251127 0)
(-0.0302839 0.00231913 0)
(-0.0312144 0.00211377 0)
(-0.0320559 0.00189643 0)
(-0.0328038 0.00166835 0)
(-0.0334537 0.00143082 0)
(-0.0340021 0.00118512 0)
(-0.0344457 0.00093255 0)
(-0.034782 0.000674445 0)
(-0.035009 0.000412154 0)
(-0.0351252 0.000147046 0)
(-0.0351298 -0.000119485 0)
(-0.0350226 -0.000386025 0)
(-0.0348038 -0.000651137 0)
(-0.0344743 -0.000913366 0)
(-0.0340358 -0.00117124 0)
(-0.0334905 -0.00142326 0)
(-0.032841 -0.00166794 0)
(-0.0320908 -0.00190376 0)
(-0.031244 -0.0021292 0)
(-0.0303052 -0.00234276 0)
(-0.0292797 -0.00254292 0)
(-0.0281735 -0.00272819 0)
(-0.026993 -0.00289711 0)
(-0.0257454 -0.00304823 0)
(-0.0244383 -0.00318017 0)
(-0.0230799 -0.00329157 0)
(-0.0216791 -0.00338116 0)
(-0.020245 -0.00344774 0)
(-0.0187874 -0.00349019 0)
(-0.0173162 -0.0035075 0)
(-0.0158421 -0.0034988 0)
(-0.0143757 -0.00346334 0)
(-0.012928 -0.00340055 0)
(-0.01151 -0.00331005 0)
(-0.010133 -0.0031917 0)
(-0.00880793 -0.0030456 0)
(-0.00754574 -0.00287221 0)
(-0.00635692 -0.00267234 0)
(-0.00525148 -0.0024473 0)
(-0.00423864 -0.00219901 0)
(-0.00332665 -0.00193014 0)
(-0.00252241 -0.00164436 0)
(-0.00183116 -0.00134667 0)
(-0.00125598 -0.00104377 0)
(-0.000797274 -0.000744692 0)
(-0.000452174 -0.000461598 0)
(-0.000213839 -0.00021079 0)
(-7.06147e-05 -1.38751e-05 0)
(-5.23778e-06 0.00010072 0)
(5.25974e-06 9.31254e-05 0)
(-2.66954e-06 -7.37659e-05 0)
(-5.09383e-05 -7.39e-06 0)
(-0.000191892 0.00020542 0)
(-0.00043876 0.000516284 0)
(-0.000803651 0.00089026 0)
(-0.00129557 0.00130043 0)
(-0.00191901 0.0017262 0)
(-0.00267469 0.00215209 0)
(-0.00356028 0.00256648 0)
(-0.00457088 0.0029608 0)
(-0.00569956 0.00332871 0)
(-0.00693774 0.00366568 0)
(-0.00827558 0.00396849 0)
(-0.00970233 0.004235 0)
(-0.0112065 0.00446388 0)
(-0.0127763 0.00465443 0)
(-0.0143995 0.00480645 0)
(-0.0160638 0.00492014 0)
(-0.0177571 0.00499602 0)
(-0.0194671 0.00503486 0)
(-0.0211819 0.00503764 0)
(-0.02289 0.00500548 0)
(-0.02458 0.00493964 0)
(-0.0262409 0.00484151 0)
(-0.0278624 0.00471253 0)
(-0.0294344 0.00455423 0)
(-0.0309473 0.00436818 0)
(-0.0323922 0.00415602 0)
(-0.0337606 0.00391942 0)
(-0.0350446 0.00366008 0)
(-0.0362368 0.00337974 0)
(-0.0373304 0.00308017 0)
(-0.0383194 0.00276317 0)
(-0.0391981 0.00243055 0)
(-0.0399616 0.00208417 0)
(-0.0406057 0.0017259 0)
(-0.0411266 0.00135767 0)
(-0.0415213 0.000981406 0)
(-0.0417876 0.000599078 0)
(-0.0419236 0.00021269 0)
(-0.0419285 -0.000175727 0)
(-0.041802 -0.000564109 0)
(-0.0415444 -0.000950365 0)
(-0.0411569 -0.00133237 0)
(-0.0406412 -0.00170799 0)
(-0.04 -0.00207506 0)
(-0.0392366 -0.00243139 0)
(-0.0383549 -0.00277478 0)
(-0.0373596 -0.00310306 0)
(-0.0362563 -0.00341402 0)
(-0.0350511 -0.00370549 0)
(-0.033751 -0.00397531 0)
(-0.0323634 -0.00422138 0)
(-0.0308968 -0.00444162 0)
(-0.0293601 -0.00463404 0)
(-0.0277627 -0.00479671 0)
(-0.026115 -0.0049278 0)
(-0.0244275 -0.00502562 0)
(-0.0227116 -0.00508859 0)
(-0.0209789 -0.0051153 0)
(-0.0192415 -0.00510454 0)
(-0.0175118 -0.00505529 0)
(-0.0158023 -0.00496681 0)
(-0.0141259 -0.00483865 0)
(-0.0124953 -0.00467067 0)
(-0.0109231 -0.00446316 0)
(-0.00942179 -0.00421687 0)
(-0.00800319 -0.00393313 0)
(-0.00667866 -0.00361395 0)
(-0.00545863 -0.00326219 0)
(-0.00435239 -0.00288179 0)
(-0.00336776 -0.002478 0)
(-0.00251074 -0.00205782 0)
(-0.00178509 -0.00163043 0)
(-0.00119188 -0.00120786 0)
(-0.000728973 -0.000805856 0)
(-0.000390449 -0.000444928 0)
(-0.000165871 -0.000151535 0)
(-4.13301e-05 4.03852e-05 0)
(-1.09739e-06 8.43038e-05 0)
(-9.44619e-06 -4.01072e-05 0)
(-9.0597e-05 0.000116249 0)
(-0.000297613 0.000437529 0)
(-0.000634868 0.00087086 0)
(-0.00110987 0.00137697 0)
(-0.00172949 0.00192487 0)
(-0.00249653 0.0024903 0)
(-0.00341034 0.00305451 0)
(-0.00446748 0.00360318 0)
(-0.00566206 0.0041254 0)
(-0.00698617 0.00461299 0)
(-0.00843025 0.00505993 0)
(-0.00998342 0.00546187 0)
(-0.0116338 0.00581581 0)
(-0.0133688 0.00611981 0)
(-0.0151752 0.00637279 0)
(-0.0170395 0.00657432 0)
(-0.0189483 0.00672455 0)
(-0.0208878 0.00682405 0)
(-0.0228445 0.00687375 0)
(-0.0248052 0.00687486 0)
(-0.0267567 0.00682883 0)
(-0.0286864 0.00673731 0)
(-0.0305821 0.00660209 0)
(-0.032432 0.0064251 0)
(-0.0342247 0.00620835 0)
(-0.0359496 0.00595398 0)
(-0.0375965 0.00566416 0)
(-0.0391558 0.00534115 0)
(-0.0406186 0.00498724 0)
(-0.0419765 0.00460481 0)
(-0.0432221 0.00419623 0)
(-0.0443482 0.00376396 0)
(-0.0453486 0.00331047 0)
(-0.0462177 0.00283829 0)
(-0.0469507 0.00234997 0)
(-0.0475434 0.00184812 0)
(-0.0479925 0.00133539 0)
(-0.0482952 0.000814445 0)
(-0.0484498 0.000288027 0)
(-0.048455 -0.0002411 0)
(-0.0483107 -0.000770128 0)
(-0.0480172 -0.00129621 0)
(-0.0475758 -0.00181647 0)
(-0.0469886 -0.00232798 0)
(-0.0462586 -0.00282781 0)
(-0.0453893 -0.00331301 0)
(-0.0443855 -0.0037806 0)
(-0.0432524 -0.00422761 0)
(-0.0419962 -0.00465107 0)
(-0.0406239 -0.00504806 0)
(-0.0391433 -0.00541566 0)
(-0.037563 -0.00575103 0)
(-0.0358923 -0.00605138 0)
(-0.0341412 -0.00631405 0)
(-0.0323207 -0.00653644 0)
(-0.0304419 -0.00671614 0)
(-0.0285171 -0.00685087 0)
(-0.0265589 -0.00693856 0)
(-0.0245802 -0.00697737 0)
(-0.0225946 -0.0069657 0)
(-0.020616 -0.00690228 0)
(-0.0186585 -0.00678618 0)
(-0.0167361 -0.00661687 0)
(-0.0148632 -0.0063943 0)
(-0.0130538 -0.00611897 0)
(-0.0113216 -0.00579201 0)
(-0.00967975 -0.00541533 0)
(-0.00814084 -0.00499175 0)
(-0.00671639 -0.00452519 0)
(-0.00541672 -0.00402094 0)
(-0.0042506 -0.00348596 0)
(-0.00322496 -0.00292929 0)
(-0.00234445 -0.00236259 0)
(-0.00161116 -0.0018008 0)
(-0.0010242 -0.00126299 0)
(-0.000579119 -0.000773456 0)
(-0.000267403 -0.000362763 0)
(-7.93703e-05 -6.92344e-05 0)
(-7.59319e-06 5.59996e-05 0)
(-1.60555e-05 1.41797e-05 0)
(-0.000130442 0.000293186 0)
(-0.000405193 0.000749517 0)
(-0.000835555 0.00132755 0)
(-0.001424 0.00198483 0)
(-0.0021748 0.00268713 0)
(-0.00308863 0.00340707 0)
(-0.00416309 0.00412307 0)
(-0.00539329 0.00481825 0)
(-0.00677213 0.00547955 0)
(-0.00829059 0.00609697 0)
(-0.00993802 0.00666299 0)
(-0.0117025 0.00717211 0)
(-0.013571 0.00762041 0)
(-0.0155299 0.00800531 0)
(-0.0175648 0.00832528 0)
(-0.0196612 0.00857966 0)
(-0.0218041 0.00876846 0)
(-0.0239787 0.00889231 0)
(-0.0261703 0.00895229 0)
(-0.0283643 0.00894984 0)
(-0.0305465 0.00888677 0)
(-0.0327028 0.0087651 0)
(-0.03482 0.00858708 0)
(-0.036885 0.00835515 0)
(-0.0388855 0.00807189 0)
(-0.0408096 0.00773998 0)
(-0.0426461 0.00736224 0)
(-0.0443845 0.00694155 0)
(-0.0460149 0.00648088 0)
(-0.0475281 0.00598328 0)
(-0.0489158 0.00545183 0)
(-0.0501703 0.0048897 0)
(-0.0512845 0.0043001 0)
(-0.0522524 0.00368631 0)
(-0.0530687 0.00305163 0)
(-0.0537286 0.00239946 0)
(-0.0542285 0.00173322 0)
(-0.0545655 0.00105639 0)
(-0.0547375 0.000372513 0)
(-0.0547433 -0.000314822 0)
(-0.0545825 -0.00100197 0)
(-0.0542557 -0.00168525 0)
(-0.0537643 -0.00236093 0)
(-0.0531106 -0.00302523 0)
(-0.0522978 -0.00367436 0)
(-0.05133 -0.00430448 0)
(-0.0502123 -0.00491177 0)
(-0.0489505 -0.00549239 0)
(-0.0475515 -0.00604252 0)
(-0.046023 -0.00655838 0)
(-0.0443736 -0.00703624 0)
(-0.0426127 -0.00747243 0)
(-0.0407507 -0.00786339 0)
(-0.0387984 -0.00820569 0)
(-0.0367679 -0.00849605 0)
(-0.0346717 -0.00873136 0)
(-0.032523 -0.00890876 0)
(-0.0303355 -0.0090256 0)
(-0.0281238 -0.00907959 0)
(-0.0259025 -0.00906875 0)
(-0.0236868 -0.00899151 0)
(-0.0214921 -0.00884676 0)
(-0.0193339 -0.00863393 0)
(-0.0172277 -0.00835306 0)
(-0.0151888 -0.00800489 0)
(-0.0132321 -0.007591 0)
(-0.011372 -0.00711393 0)
(-0.00962228 -0.00657737 0)
(-0.00799547 -0.00598637 0)
(-0.00650297 -0.00534763 0)
(-0.00515461 -0.0046698 0)
(-0.00395837 -0.00396399 0)
(-0.00292008 -0.00324423 0)
(-0.00204314 -0.00252815 0)
(-0.00132829 -0.00183785 0)
(-0.000773017 -0.00120085 0)
(-0.000371169 -0.000651084 0)
(-0.000117751 -0.00023017 0)
(-1.39514e-05 7.85582e-06 0)
(-2.23874e-05 8.87991e-05 0)
(-0.000169626 0.000523716 0)
(-0.000512242 0.00114255 0)
(-0.00103652 0.00188824 0)
(-0.00173977 0.00271615 0)
(-0.00262339 0.00358957 0)
(-0.00368562 0.00447859 0)
(-0.004922 0.00535919 0)
(-0.00632596 0.00621226 0)
(-0.00788896 0.00702275 0)
(-0.00960069 0.00777894 0)
(-0.0114494 0.00847191 0)
(-0.0134219 0.00909496 0)
(-0.0155042 0.00964331 0)
(-0.0176816 0.0101137 0)
(-0.0199385 0.0105041 0)
(-0.0222593 0.0108136 0)
(-0.024628 0.0110422 0)
(-0.0270286 0.0111904 0)
(-0.0294454 0.0112594 0)
(-0.0318624 0.0112511 0)
(-0.0342645 0.0111674 0)
(-0.0366366 0.0110109 0)
(-0.0389642 0.0107844 0)
(-0.0412333 0.0104906 0)
(-0.0434305 0.0101329 0)
(-0.045543 0.00971461 0)
(-0.0475586 0.00923909 0)
(-0.049466 0.00870998 0)
(-0.0512545 0.00813096 0)
(-0.0529141 0.00750582 0)
(-0.0544358 0.00683842 0)
(-0.0558111 0.00613269 0)
(-0.0570325 0.00539267 0)
(-0.0580934 0.00462243 0)
(-0.058988 0.00382613 0)
(-0.0597113 0.00300799 0)
(-0.0602592 0.00217231 0)
(-0.0606286 0.00132345 0)
(-0.0608173 0.000465819 0)
(-0.0608239 -0.000396078 0)
(-0.0606481 -0.00125769 0)
(-0.0602904 -0.00211442 0)
(-0.0597525 -0.00296159 0)
(-0.0590367 -0.0037945 0)
(-0.0581465 -0.00460841 0)
(-0.0570866 -0.00539855 0)
(-0.0558622 -0.00616013 0)
(-0.0544798 -0.0068884 0)
(-0.0529467 -0.00757859 0)
(-0.0512714 -0.008226 0)
(-0.0494632 -0.008826 0)
(-0.0475321 -0.00937405 0)
(-0.0454895 -0.00986574 0)
(-0.0433472 -0.0102968 0)
(-0.041118 -0.0106632 0)
(-0.0388155 -0.0109612 0)
(-0.0364539 -0.0111871 0)
(-0.0340483 -0.0113378 0)
(-0.0316141 -0.0114105 0)
(-0.0291672 -0.0114028 0)
(-0.0267239 -0.0113127 0)
(-0.0243009 -0.0111391 0)
(-0.0219148 -0.0108814 0)
(-0.0195823 -0.0105395 0)
(-0.01732 -0.0101147 0)
(-0.0151438 -0.00960881 0)
(-0.0130694 -0.00902519 0)
(-0.0111115 -0.00836837 0)
(-0.00928388 -0.00764456 0)
(-0.00759907 -0.00686185 0)
(-0.00606804 -0.00603059 0)
(-0.00470003 -0.00516382 0)
(-0.00350224 -0.00427781 0)
(-0.00247965 -0.00339264 0)
(-0.00163491 -0.00253305 0)
(-0.000967776 -0.00172928 0)
(-0.000474723 -0.0010179 0)
(-0.00015559 -0.000442888 0)
(-2.00518e-05 -5.99022e-05 0)
(-2.8408e-05 0.000183177 0)
(-0.00020772 0.000807215 0)
(-0.0006174 0.00161643 0)
(-0.00123516 0.00255323 0)
(-0.00205318 0.00357161 0)
(-0.00306989 0.00463306 0)
(-0.00428092 0.00570567 0)
(-0.00567953 0.00676341 0)
(-0.00725724 0.00778522 0)
(-0.00900391 0.00875431 0)
(-0.0109078 0.0096574 0)
(-0.0129558 0.0104842 0)
(-0.0151337 0.011227 0)
(-0.0174263 0.0118801 0)
(-0.0198177 0.0124396 0)
(-0.0222914 0.0129031 0)
(-0.0248306 0.0132692 0)
(-0.0274183 0.0135379 0)
(-0.0300375 0.0137097 0)
(-0.0326714 0.0137861 0)
(-0.0353031 0.0137691 0)
(-0.0379163 0.013661 0)
(-0.0404951 0.0134648 0)
(-0.0430239 0.0131838 0)
(-0.0454877 0.0128215 0)
(-0.0478724 0.0123816 0)
(-0.0501642 0.0118681 0)
(-0.0523502 0.0112853 0)
(-0.0544181 0.0106375 0)
(-0.0563566 0.00992901 0)
(-0.058155 0.00916456 0)
(-0.0598036 0.00834878 0)
(-0.0612934 0.00748646 0)
(-0.0626164 0.00658249 0)
(-0.0637655 0.00564182 0)
(-0.0647344 0.0046695 0)
(-0.0655179 0.00367069 0)
(-0.0661115 0.00265059 0)
(-0.0665119 0.0016145 0)
(-0.0667168 0.000567815 0)
(-0.0667247 -0.000484015 0)
(-0.0665352 -0.00153546 0)
(-0.0661489 -0.00258091 0)
(-0.0655674 -0.00361471 0)
(-0.0647935 -0.00463115 0)
(-0.0638309 -0.00562447 0)
(-0.0626843 -0.00658888 0)
(-0.0613595 -0.0075186 0)
(-0.0598634 -0.00840784 0)
(-0.0582039 -0.00925086 0)
(-0.0563899 -0.010042 0)
(-0.0544314 -0.0107756 0)
(-0.0523391 -0.0114461 0)
(-0.050125 -0.0120484 0)
(-0.0478019 -0.0125773 0)
(-0.0453834 -0.0130278 0)
(-0.042884 -0.0133954 0)
(-0.040319 -0.0136759 0)
(-0.0377041 -0.0138655 0)
(-0.035056 -0.0139608 0)
(-0.0323917 -0.013959 0)
(-0.0297285 -0.0138578 0)
(-0.0270842 -0.0136559 0)
(-0.0244765 -0.0133525 0)
(-0.0219233 -0.012948 0)
(-0.0194421 -0.0124435 0)
(-0.0170503 -0.0118417 0)
(-0.0147644 -0.0111463 0)
(-0.0126004 -0.0103629 0)
(-0.0105732 -0.00949882 0)
(-0.00869661 -0.00856348 0)
(-0.00698283 -0.00756885 0)
(-0.0054425 -0.00652979 0)
(-0.0040844 -0.0054646 0)
(-0.00291532 -0.00439555 0)
(-0.00194004 -0.00334964 0)
(-0.00116074 -0.00235933 0)
(-0.000576665 -0.00146324 0)
(-0.000192436 -0.000706914 0)
(-2.58541e-05 -0.000146753 0)
(-3.41209e-05 0.000296623 0)
(-0.000244547 0.00114256 0)
(-0.000719958 0.0021701 0)
(-0.00142996 0.00332177 0)
(-0.00236183 0.00455079 0)
(-0.00351098 0.00581741 0)
(-0.00487031 0.0070882 0)
(-0.0064307 0.0083355 0)
(-0.00818162 0.00953665 0)
(-0.0101111 0.0106733 0)
(-0.012206 0.0117309 0)
(-0.0144516 0.0126979 0)
(-0.0168326 0.0135655 0)
(-0.0193325 0.0143273 0)
(-0.0219343 0.0149788 0)
(-0.0246205 0.0155171 0)
(-0.0273733 0.0159406 0)
(-0.0301745 0.0162492 0)
(-0.0330063 0.0164435 0)
(-0.0358508 0.016525 0)
(-0.0386902 0.0164961 0)
(-0.0415073 0.0163594 0)
(-0.0442852 0.0161185 0)
(-0.0470075 0.0157771 0)
(-0.0496584 0.0153392 0)
(-0.0522229 0.0148094 0)
(-0.0546864 0.0141924 0)
(-0.0570353 0.013493 0)
(-0.0592566 0.0127164 0)
(-0.0613384 0.0118679 0)
(-0.0632692 0.0109529 0)
(-0.0650389 0.00997685 0)
(-0.066638 0.00894556 0)
(-0.0680579 0.00786479 0)
(-0.0692912 0.00674043 0)
(-0.0703311 0.00557849 0)
(-0.0711721 0.00438508 0)
(-0.0718096 0.0031664 0)
(-0.07224 0.00192876 0)
(-0.0724608 0.000678554 0)
(-0.0724704 -0.000577731 0)
(-0.0722685 -0.00183352 0)
(-0.0718557 -0.00308216 0)
(-0.0712337 -0.00431692 0)
(-0.0704052 -0.00553103 0)
(-0.0693744 -0.00671765 0)
(-0.0681461 -0.00786993 0)
(-0.0667265 -0.00898099 0)
(-0.0651228 -0.010044 0)
(-0.0633434 -0.0110521 0)
(-0.0613977 -0.0119986 0)
(-0.0592961 -0.0128769 0)
(-0.0570501 -0.0136804 0)
(-0.0546724 -0.014403 0)
(-0.0521763 -0.0150385 0)
(-0.0495764 -0.0155812 0)
(-0.0468879 -0.0160257 0)
(-0.0441269 -0.0163671 0)
(-0.0413101 -0.0166008 0)
(-0.0384552 -0.016723 0)
(-0.03558 -0.0167303 0)
(-0.032703 -0.0166203 0)
(-0.0298429 -0.0163912 0)
(-0.0270185 -0.0160423 0)
(-0.0242487 -0.015574 0)
(-0.0215523 -0.0149878 0)
(-0.0189475 -0.0142866 0)
(-0.0164523 -0.0134751 0)
(-0.0140838 -0.0125596 0)
(-0.011858 -0.0115484 0)
(-0.00979011 -0.0104523 0)
(-0.00789372 -0.00928469 0)
(-0.00618101 -0.00806223 0)
(-0.00466249 -0.00680496 0)
(-0.0033469 -0.0055371 0)
(-0.00224131 -0.00428754 0)
(-0.00135043 -0.00309056 0)
(-0.000676278 -0.00198627 0)
(-0.0002281 -0.00102126 0)
(-3.13584e-05 -0.000252049 0)
(-3.95473e-05 0.00042842 0)
(-0.000280072 0.00152839 0)
(-0.00081963 0.00280205 0)
(-0.00162023 0.00419246 0)
(-0.00266445 0.00565253 0)
(-0.00394474 0.00714168 0)
(-0.0054513 0.00862537 0)
(-0.0071725 0.0100747 0)
(-0.00909566 0.0114657 0)
(-0.011207 0.0127787 0)
(-0.0134915 0.0139979 0)
(-0.0159332 0.0151109 0)
(-0.0185152 0.016108 0)
(-0.02122 0.0169819 0)
(-0.0240293 0.0177277 0)
(-0.0269246 0.018342 0)
(-0.0298869 0.0188232 0)
(-0.0328972 0.019171 0)
(-0.0359367 0.019386 0)
(-0.0389864 0.01947 0)
(-0.0420278 0.0194256 0)
(-0.0450428 0.019256 0)
(-0.0480137 0.0189651 0)
(-0.0509232 0.0185571 0)
(-0.0537548 0.0180369 0)
(-0.0564927 0.0174096 0)
(-0.0591216 0.0166806 0)
(-0.0616272 0.0158556 0)
(-0.0639961 0.0149406 0)
(-0.0662154 0.0139417 0)
(-0.0682735 0.0128652 0)
(-0.0701595 0.0117176 0)
(-0.0718634 0.0105055 0)
(-0.0733763 0.00923565 0)
(-0.0746904 0.00791497 0)
(-0.0757986 0.00655045 0)
(-0.0766952 0.00514922 0)
(-0.0773752 0.00371852 0)
(-0.0778348 0.00226571 0)
(-0.0780715 0.000798256 0)
(-0.0780836 -0.000676273 0)
(-0.0778706 -0.00215021 0)
(-0.0774332 -0.00361578 0)
(-0.0767732 -0.00506516 0)
(-0.0758935 -0.00649044 0)
(-0.0747982 -0.00788365 0)
(-0.0734926 -0.0092368 0)
(-0.071983 -0.0105419 0)
(-0.0702771 -0.0117909 0)
(-0.0683834 -0.012976 0)
(-0.0663119 -0.0140893 0)
(-0.0640736 -0.0151231 0)
(-0.0616804 -0.0160698 0)
(-0.0591456 -0.0169222 0)
(-0.0564832 -0.0176733 0)
(-0.0537083 -0.0183163 0)
(-0.0508371 -0.018845 0)
(-0.0478863 -0.0192537 0)
(-0.0448736 -0.0195372 0)
(-0.0418174 -0.019691 0)
(-0.0387366 -0.0197112 0)
(-0.0356505 -0.019595 0)
(-0.0325788 -0.0193405 0)
(-0.0295414 -0.0189467 0)
(-0.0265583 -0.0184142 0)
(-0.0236492 -0.0177447 0)
(-0.0208337 -0.0169416 0)
(-0.0181308 -0.0160101 0)
(-0.0155588 -0.0149572 0)
(-0.0131352 -0.0137925 0)
(-0.0108764 -0.0125278 0)
(-0.00879769 -0.0111779 0)
(-0.00691285 -0.00976099 0)
(-0.00523422 -0.00829868 0)
(-0.00377264 -0.00681685 0)
(-0.00253752 -0.00534602 0)
(-0.00153615 -0.00392189 0)
(-0.000773289 -0.00258572 0)
(-0.000262552 -0.00138469 0)
(-3.65854e-05 -0.000375116 0)
(-4.47163e-05 0.000577876 0)
(-0.000314348 0.00196325 0)
(-0.000916395 0.00351056 0)
(-0.00180574 0.00516358 0)
(-0.00296051 0.00687522 0)
(-0.00437033 0.00860444 0)
(-0.00602266 0.0103159 0)
(-0.00790337 0.0119798 0)
(-0.00999753 0.0135711 0)
(-0.0122894 0.0150691 0)
(-0.0147622 0.0164571 0)
(-0.0173985 0.0177216 0)
(-0.0201798 0.0188524 0)
(-0.0230874 0.0198414 0)
(-0.0261018 0.0206834 0)
(-0.0292033 0.0213746 0)
(-0.0323719 0.0219133 0)
(-0.0355878 0.022299 0)
(-0.0388309 0.0225327 0)
(-0.0420816 0.0226162 0)
(-0.0453204 0.0225526 0)
(-0.0485285 0.0223453 0)
(-0.0516872 0.0219989 0)
(-0.0547787 0.0215182 0)
(-0.0577858 0.0209087 0)
(-0.0606917 0.0201762 0)
(-0.0634808 0.019327 0)
(-0.0661381 0.0183675 0)
(-0.0686495 0.0173046 0)
(-0.0710018 0.0161454 0)
(-0.0731827 0.0148969 0)
(-0.0751809 0.0135668 0)
(-0.0769861 0.0121625 0)
(-0.0785889 0.0106918 0)
(-0.0799812 0.00916275 0)
(-0.0811556 0.00758327 0)
(-0.082106 0.0059616 0)
(-0.0828275 0.00430606 0)
(-0.0833159 0.0026251 0)
(-0.0835686 0.0009273 0)
(-0.0835839 -0.000778632 0)
(-0.0833612 -0.00248389 0)
(-0.0829011 -0.00417955 0)
(-0.0822056 -0.00585662 0)
(-0.0812776 -0.007506 0)
(-0.0801214 -0.00911857 0)
(-0.0787424 -0.0106851 0)
(-0.0771471 -0.0121965 0)
(-0.0753435 -0.0136436 0)
(-0.0733406 -0.0150172 0)
(-0.0711486 -0.0163084 0)
(-0.0687789 -0.0175084 0)
(-0.066244 -0.0186085 0)
(-0.0635576 -0.0196002 0)
(-0.0607343 -0.0204757 0)
(-0.05779 -0.0212273 0)
(-0.0547413 -0.0218478 0)
(-0.0516058 -0.0223305 0)
(-0.048402 -0.0226697 0)
(-0.045149 -0.02286 0)
(-0.0418666 -0.0228973 0)
(-0.038575 -0.0227781 0)
(-0.035295 -0.0225003 0)
(-0.0320474 -0.0220628 0)
(-0.0288533 -0.0214662 0)
(-0.0257334 -0.0207124 0)
(-0.0227086 -0.0198051 0)
(-0.019799 -0.0187501 0)
(-0.0170243 -0.0175552 0)
(-0.0144034 -0.0162307 0)
(-0.0119541 -0.0147897 0)
(-0.00969342 -0.0132483 0)
(-0.00763684 -0.0116257 0)
(-0.00579865 -0.00994514 0)
(-0.00419187 -0.00823395 0)
(-0.00282829 -0.00652394 0)
(-0.00171778 -0.00485196 0)
(-0.000867711 -0.00326012 0)
(-0.000295854 -0.00179593 0)
(-4.15653e-05 -0.000515304 0)
(-4.96602e-05 0.000744352 0)
(-0.000347475 0.00244576 0)
(-0.0010104 0.00429384 0)
(-0.0019866 0.00623323 0)
(-0.00325004 0.00821704 0)
(-0.0047876 0.010204 0)
(-0.00658406 0.0121584 0)
(-0.00862277 0.0140495 0)
(-0.0108866 0.0158517 0)
(-0.0133577 0.0175434 0)
(-0.0160175 0.019107 0)
(-0.0188469 0.0205285 0)
(-0.021826 0.0217969 0)
(-0.0249346 0.0229039 0)
(-0.028152 0.0238436 0)
(-0.0314574 0.0246122 0)
(-0.0348298 0.0252077 0)
(-0.0382482 0.02563 0)
(-0.0416918 0.0258799 0)
(-0.0451399 0.0259596 0)
(-0.0485725 0.0258726 0)
(-0.0519696 0.0256228 0)
(-0.0553121 0.0252153 0)
(-0.0585813 0.0246556 0)
(-0.0617594 0.0239499 0)
(-0.0648291 0.0231046 0)
(-0.067774 0.022127 0)
(-0.0705788 0.0210243 0)
(-0.0732287 0.0198043 0)
(-0.07571 0.0184749 0)
(-0.0780101 0.0170443 0)
(-0.0801173 0.015521 0)
(-0.0820208 0.0139135 0)
(-0.0837109 0.0122308 0)
(-0.0851792 0.0104816 0)
(-0.0864182 0.00867534 0)
(-0.0874214 0.00682112 0)
(-0.0881836 0.00492844 0)
(-0.0887007 0.00300689 0)
(-0.0889698 0.00106621 0)
(-0.088989 -0.000883738 0)
(-0.0887579 -0.00283296 0)
(-0.0882771 -0.00477134 0)
(-0.0875484 -0.00668867 0)
(-0.0865749 -0.00857466 0)
(-0.0853608 -0.0104189 0)
(-0.0839119 -0.0122111 0)
(-0.0822349 -0.0139407 0)
(-0.0803378 -0.0155974 0)
(-0.07823 -0.017171 0)
(-0.0759221 -0.0186511 0)
(-0.0734256 -0.0200277 0)
(-0.0707537 -0.0212912 0)
(-0.0679204 -0.022432 0)