0.05 	0.0003125 	0.005 	0.0147472
0.05 	0.0009375 	0.005 	0.0147486
0.05 	0.0015625 	0.005 	0.0147491
0.05 	0.0021875 	0.005 	0.014749
0.05 	0.0028125 	0.005 	0.0147487
0.05 	0.0034375 	0.005 	0.0147482
0.05 	0.0040625 	0.005 	0.0147477
0.05 	0.0046875 	0.005 	0.0147471
0.05 	0.0053125 	0.005 	0.0147462
0.05 	0.0059375 	0.005 	0.0147449
0.05 	0.0065625 	0.005 	0.0147431
0.05 	0.0071875 	0.005 	0.0147405
0.05 	0.0078125 	0.005 	0.0147372
0.05 	0.0084375 	0.005 	0.0147333
0.05 	0.0090625 	0.005 	0.014729
0.05 	0.0096875 	0.005 	0.0147243
0.05 	0.0103125 	0.005 	0.0147195
0.05 	0.0109375 	0.005 	0.0147145
0.05 	0.0115625 	0.005 	0.0147092
0.05 	0.0121875 	0.005 	0.0147036
0.05 	0.0128125 	0.005 	0.0146975
0.05 	0.0134375 	0.005 	0.014691
0.05 	0.0140625 	0.005 	0.0146841
0.05 	0.0146875 	0.005 	0.0146768
0.05 	0.0153125 	0.005 	0.0146693
0.05 	0.0159375 	0.005 	0.0146616
0.05 	0.0165625 	0.005 	0.0146536
0.05 	0.0171875 	0.005 	0.0146452
0.05 	0.0178125 	0.005 	0.0146361
0.05 	0.0184375 	0.005 	0.0146265
0.05 	0.0190625 	0.005 	0.0146162
0.05 	0.0196875 	0.005 	0.0146055
0.05 	0.0203125 	0.005 	0.0145946
0.05 	0.0209375 	0.005 	0.0145836
0.05 	0.0215625 	0.005 	0.0145723
0.05 	0.0221875 	0.005 	0.0145605
0.05 	0.0228125 	0.005 	0.0145479
0.05 	0.0234375 	0.005 	0.0145344
0.05 	0.0240625 	0.005 	0.0145199
0.05 	0.0246875 	0.005 	0.0145046
0.05 	0.0253125 	0.005 	0.0144885
0.05 	0.0259375 	0.005 	0.0144716
0.05 	0.0265625 	0.005 	0.0144536
0.05 	0.0271875 	0.005 	0.0144345
0.05 	0.0278125 	0.005 	0.014414
0.05 	0.0284375 	0.005 	0.0143922
0.05 	0.0290625 	0.005 	0.0143693
0.05 	0.0296875 	0.005 	0.0143456
0.05 	0.0303125 	0.005 	0.0143211
0.05 	0.0309375 	0.005 	0.0142956
0.05 	0.0315625 	0.005 	0.0142691
0.05 	0.0321875 	0.005 	0.0142412
0.05 	0.0328125 	0.005 	0.014212
0.05 	0.0334375 	0.005 	0.0141817
0.05 	0.0340625 	0.005 	0.0141504
0.05 	0.0346875 	0.005 	0.0141184
0.05 	0.0353125 	0.005 	0.0140853
0.05 	0.0359375 	0.005 	0.014051
0.05 	0.0365625 	0.005 	0.0140154
0.05 	0.0371875 	0.005 	0.0139788
0.05 	0.0378125 	0.005 	0.0139415
0.05 	0.0384375 	0.005 	0.0139034
0.05 	0.0390625 	0.005 	0.0138644
0.05 	0.0396875 	0.005 	0.013824
0.05 	0.0403125 	0.005 	0.0137822
0.05 	0.0409375 	0.005 	0.0137389
0.05 	0.0415625 	0.005 	0.0136944
0.05 	0.0421875 	0.005 	0.0136487
0.05 	0.0428125 	0.005 	0.0136014
0.05 	0.0434375 	0.005 	0.0135522
0.05 	0.0440625 	0.005 	0.0135011
0.05 	0.0446875 	0.005 	0.0134483
0.05 	0.0453125 	0.005 	0.0133941
0.05 	0.0459375 	0.005 	0.0133382
0.05 	0.0465625 	0.005 	0.0132802
0.05 	0.0471875 	0.005 	0.0132199
0.05 	0.0478125 	0.005 	0.0131574
0.05 	0.0484375 	0.005 	0.013093
0.05 	0.0490625 	0.005 	0.0130266
0.05 	0.0496875 	0.005 	0.0129579
0.05 	0.0503125 	0.005 	0.0128864
0.05 	0.0509375 	0.005 	0.0128121
0.05 	0.0515625 	0.005 	0.0127354
0.05 	0.0521875 	0.005 	0.0126564
0.05 	0.0528125 	0.005 	0.0125745
0.05 	0.0534375 	0.005 	0.0124893
0.05 	0.0540625 	0.005 	0.0124009
0.05 	0.0546875 	0.005 	0.0123097
0.05 	0.0553125 	0.005 	0.0122156
0.05 	0.0559375 	0.005 	0.012118
0.05 	0.0565625 	0.005 	0.0120168
0.05 	0.0571875 	0.005 	0.0119124
0.05 	0.0578125 	0.005 	0.0118051
0.05 	0.0584375 	0.005 	0.0116943
0.05 	0.0590625 	0.005 	0.0115797
0.05 	0.0596875 	0.005 	0.0114612
0.05 	0.0603125 	0.005 	0.0113394
0.05 	0.0609375 	0.005 	0.011214
0.05 	0.0615625 	0.005 	0.0110844
0.05 	0.0621875 	0.005 	0.0109506
0.05 	0.0628125 	0.005 	0.010813
0.05 	0.0634375 	0.005 	0.0106716
0.05 	0.0640625 	0.005 	0.0105258
0.05 	0.0646875 	0.005 	0.0103755
0.05 	0.0653125 	0.005 	0.0102211
0.05 	0.0659375 	0.005 	0.0100627
0.05 	0.0665625 	0.005 	0.00989973
0.05 	0.0671875 	0.005 	0.0097321
0.05 	0.0678125 	0.005 	0.00956023
0.05 	0.0684375 	0.005 	0.00938394
0.05 	0.0690625 	0.005 	0.00920277
0.05 	0.0696875 	0.005 	0.00901696
0.05 	0.0703125 	0.005 	0.00882686
0.05 	0.0709375 	0.005 	0.00863223
0.05 	0.0715625 	0.005 	0.00843298
0.05 	0.0721875 	0.005 	0.0082295
0.05 	0.0728125 	0.005 	0.00802181
0.05 	0.0734375 	0.005 	0.00780972
0.05 	0.0740625 	0.005 	0.00759345
0.05 	0.0746875 	0.005 	0.00737315
0.05 	0.0753125 	0.005 	0.00714873
0.05 	0.0759375 	0.005 	0.00692037
0.05 	0.0765625 	0.005 	0.00668832
0.05 	0.0771875 	0.005 	0.00645263
0.05 	0.0778125 	0.005 	0.00621352
0.05 	0.0784375 	0.005 	0.00597128
0.05 	0.0790625 	0.005 	0.00572609
0.05 	0.0796875 	0.005 	0.00547823
0.05 	0.0803125 	0.005 	0.00522799
0.05 	0.0809375 	0.005 	0.00497562
0.05 	0.0815625 	0.005 	0.00472146
0.05 	0.0821875 	0.005 	0.00446587
0.05 	0.0828125 	0.005 	0.0042092
0.05 	0.0834375 	0.005 	0.00395197
0.05 	0.0840625 	0.005 	0.00369474
0.05 	0.0846875 	0.005 	0.00343816
0.05 	0.0853125 	0.005 	0.00318296
0.05 	0.0859375 	0.005 	0.00293001
0.05 	0.0865625 	0.005 	0.00268029
0.05 	0.0871875 	0.005 	0.00243487
0.05 	0.0878125 	0.005 	0.00219501
0.05 	0.0884375 	0.005 	0.00196215
0.05 	0.0890625 	0.005 	0.00173798
0.05 	0.0896875 	0.005 	0.00152436
0.05 	0.0903125 	0.005 	0.00132335
0.05 	0.0909375 	0.005 	0.00113716
0.05 	0.0915625 	0.005 	0.000968026
0.05 	0.0921875 	0.005 	0.000818091
0.05 	0.0928125 	0.005 	0.000689267
0.05 	0.0934375 	0.005 	0.000583124
0.05 	0.0940625 	0.005 	0.00050075
0.05 	0.0946875 	0.005 	0.000442623
0.05 	0.0953125 	0.005 	0.000408505
0.05 	0.0959375 	0.005 	0.000397371
0.05 	0.0965625 	0.005 	0.000407393
0.05 	0.0971875 	0.005 	0.00043599
0.05 	0.0978125 	0.005 	0.000479624
0.05 	0.0984375 	0.005 	0.000534563
0.05 	0.0990625 	0.005 	0.000603722
0.05 	0.0996875 	0.005 	0.000690227
