/*--------------------------------*- C++ -*----------------------------------*\
  =========                 |
  \\      /  F ield         | OpenFOAM: The Open Source CFD Toolbox
   \\    /   O peration     | Website:  https://openfoam.org
    \\  /    A nd           | Version:  7
     \\/     M anipulation  |
\*---------------------------------------------------------------------------*/
FoamFile
{
    version     2.0;
    format      ascii;
    class       volScalarField;
    location    "0.2875";
    object      p;
}
// * * * * * * * * * * * * * * * * * * * * * * * * * * * * * * * * * * * * * //

dimensions      [0 2 -2 0 0 0 0];

internalField   nonuniform List<scalar> 
25600
(
3.2842e-06
0.00011745
0.000146761
3.87609e-05
-0.000214508
-0.000608959
-0.00113357
-0.00177364
-0.00251372
-0.00333861
-0.00423387
-0.00518589
-0.00618204
-0.00721066
-0.00826103
-0.00932334
-0.0103886
-0.0114485
-0.0124955
-0.0135226
-0.0145235
-0.0154925
-0.0164242
-0.0173139
-0.0181572
-0.0189501
-0.0196891
-0.0203708
-0.0209926
-0.0215517
-0.0220459
-0.0224732
-0.0228318
-0.0231203
-0.0233375
-0.0234821
-0.0235535
-0.0235509
-0.0234739
-0.0233221
-0.0230956
-0.0227942
-0.0224181
-0.0219678
-0.0214436
-0.0208461
-0.0201761
-0.0194344
-0.0186218
-0.0177395
-0.0167886
-0.0157704
-0.0146863
-0.0135375
-0.0123258
-0.0110526
-0.00971965
-0.00832874
-0.00688166
-0.00538032
-0.00382667
-0.00222275
-0.000570635
0.00112753
0.00286954
0.00465316
0.00647607
0.00833593
0.0102303
0.0121568
0.0141129
0.0160961
0.0181038
0.0201335
0.0221824
0.024248
0.0263276
0.0284183
0.0305176
0.0326226
0.0347306
0.0368388
0.0389445
0.0410447
0.0431367
0.0452177
0.0472848
0.0493354
0.0513665
0.0533754
0.0553593
0.0573154
0.0592411
0.0611336
0.0629903
0.0648085
0.0665856
0.068319
0.0700064
0.0716452
0.073233
0.0747675
0.0762464
0.0776676
0.0790289
0.0803284
0.081564
0.0827339
0.0838363
0.0848696
0.0858324
0.086723
0.0875403
0.0882831
0.0889503
0.0895411
0.0900548
0.0904906
0.0908483
0.0911276
0.0913283
0.0914506
0.0914948
0.0914614
0.091351
0.0911646
0.0909033
0.0905685
0.0901618
0.0896851
0.0891405
0.0885304
0.0878575
0.0871248
0.0863357
0.0854938
0.0846032
0.0836683
0.0826938
0.081685
0.0806476
0.0795877
0.078512
0.0774278
0.0763429
0.0752658
0.0742055
0.0731721
0.0721762
0.0712292
0.0703436
0.0695326
0.06881
0.0681904
0.067688
0.0673162
0.0670841
0.0669937
0.0670339
0.0671492
-0.000105749
6.43248e-06
1.08732e-05
-0.000109892
-0.000351949
-0.000713534
-0.001188
-0.00176479
-0.00243196
-0.00317723
-0.00398838
-0.0048536
-0.00576162
-0.0067019
-0.0076646
-0.00864058
-0.00962139
-0.0105992
-0.0115667
-0.0125173
-0.013445
-0.014344
-0.0152092
-0.016036
-0.0168201
-0.0175574
-0.0182446
-0.0188783
-0.0194558
-0.0199744
-0.0204319
-0.0208263
-0.0211557
-0.0214186
-0.0216137
-0.02174
-0.0217964
-0.0217825
-0.0216975
-0.0215411
-0.0213132
-0.0210138
-0.0206428
-0.0202007
-0.0196877
-0.0191044
-0.0184514
-0.0177295
-0.0169395
-0.0160825
-0.0151595
-0.0141717
-0.0131203
-0.0120068
-0.0108325
-0.00959902
-0.00830793
-0.0069609
-0.0055597
-0.00410614
-0.0026021
-0.00104953
0.000549562
0.00219312
0.00387902
0.00560509
0.00736912
0.00916881
0.0110019
0.0128659
0.0147586
0.0166774
0.0186198
0.0205835
0.0225658
0.0245641
0.0265758
0.0285984
0.0306291
0.0326654
0.0347045
0.0367437
0.0387804
0.0408118
0.0428352
0.0448479
0.0468472
0.0488303
0.0507947
0.0527375
0.0546561
0.0565478
0.0584101
0.0602403
0.0620358
0.0637942
0.0655128
0.0671893
0.0688212
0.0704063
0.0719421
0.0734266
0.0748575
0.0762327
0.0775502
0.0788081
0.0800045
0.0811377
0.0822059
0.0832078
0.0841417
0.0850064
0.0858006
0.0865233
0.0871735
0.0877505
0.0882535
0.088682
0.0890357
0.0893145
0.0895182
0.089647
0.0897013
0.0896816
0.0895887
0.0894236
0.0891873
0.0888812
0.0885071
0.0880668
0.0875624
0.0869963
0.0863713
0.0856903
0.0849565
0.0841737
0.0833457
0.0824769
0.0815719
0.0806359
0.0796743
0.0786932
0.0776988
0.0766981
0.0756986
0.0747083
0.0737357
0.0727901
0.0718811
0.0710192
0.0702154
0.069481
0.0688278
0.0682674
0.0678107
0.0674672
0.067242
0.0671352
0.067149
0.0672645
-0.000133672
2.94214e-06
7.35203e-06
-0.000114827
-0.000346993
-0.000686085
-0.00112658
-0.00165971
-0.00227543
-0.00296331
-0.00371271
-0.00451317
-0.00535457
-0.00622727
-0.00712224
-0.00803096
-0.00894549
-0.00985839
-0.0107628
-0.0116523
-0.0125211
-0.0133637
-0.0141752
-0.014951
-0.0156867
-0.0163788
-0.0170235
-0.0176179
-0.018159
-0.0186443
-0.0190715
-0.0194385
-0.0197437
-0.0199853
-0.0201622
-0.0202732
-0.0203172
-0.0202938
-0.0202021
-0.0200419
-0.0198129
-0.019515
-0.0191482
-0.0187129
-0.0182092
-0.0176378
-0.0169991
-0.0162938
-0.0155228
-0.014687
-0.0137874
-0.0128251
-0.0118013
-0.0107174
-0.00957464
-0.00837457
-0.0071187
-0.00580864
-0.00444609
-0.00303278
-0.00157055
-6.12734e-05
0.00149312
0.00309063
0.00472921
0.00640675
0.00812109
0.00987005
0.0116514
0.0134627
0.0153018
0.0171663
0.0190538
0.0209617
0.0228877
0.0248293
0.0267839
0.0287489
0.0307219
0.0327002
0.0346812
0.0366622
0.0386408
0.0406142
0.0425798
0.044535
0.0464771
0.0484036
0.0503117
0.0521989
0.0540626
0.0559002
0.0577091
0.0594869
0.061231
0.0629391
0.0646086
0.0662373
0.0678227
0.0693627
0.070855
0.0722975
0.0736881
0.0750247
0.0763056
0.0775287
0.0786923
0.0797947
0.0808344
0.0818099
0.0827198
0.0835628
0.0843377
0.0850437
0.0856797
0.0862451
0.0867393
0.0871617
0.0875121
0.0877904
0.0879966
0.0881308
0.0881935
0.0881852
0.0881068
0.0879591
0.0877434
0.0874611
0.0871138
0.0867034
0.086232
0.0857021
0.0851162
0.0844773
0.0837887
0.0830538
0.0822766
0.0814613
0.0806124
0.0797348
0.078834
0.0779155
0.0769856
0.0760508
0.0751184
0.0741957
0.0732908
0.0724122
0.0715691
0.0707707
0.070027
0.069348
0.0687439
0.0682245
0.0677992
0.0674756
0.0672582
0.0671488
0.0671627
0.0673049
-2.54042e-05
0.000124356
0.00013026
8.06529e-06
-0.000218241
-0.000543545
-0.000962118
-0.0014658
-0.0020456
-0.00269215
-0.00339592
-0.00414749
-0.00493768
-0.0057577
-0.00659918
-0.00745421
-0.0083153
-0.00917546
-0.0100282
-0.0108673
-0.0116873
-0.012483
-0.0132494
-0.0139822
-0.0146773
-0.0153309
-0.0159397
-0.0165005
-0.0170105
-0.0174673
-0.0178684
-0.018212
-0.0184963
-0.0187196
-0.0188807
-0.0189784
-0.0190117
-0.01898
-0.0188825
-0.0187189
-0.0184889
-0.0181924
-0.0178294
-0.0174
-0.0169046
-0.0163436
-0.0157174
-0.0150268
-0.0142725
-0.0134553
-0.0125763
-0.0116365
-0.010637
-0.00957917
-0.00846425
-0.00729365
-0.00606886
-0.00479144
-0.00346302
-0.00208528
-0.000659988
0.00081104
0.00232593
0.00388274
0.00547947
0.0071141
0.00878452
0.0104886
0.0122241
0.0139889
0.0157807
0.0175971
0.0194359
0.0212946
0.0231709
0.0250623
0.0269663
0.0288806
0.0308024
0.0327295
0.0346591
0.0365889
0.0385161
0.0404383
0.0423529
0.0442573
0.046149
0.0480254
0.0498839
0.0517221
0.0535373
0.0553272
0.0570892
0.0588208
0.0605197
0.0621835
0.0638098
0.0653964
0.066941
0.0684414
0.0698954
0.071301
0.0726562
0.0739591
0.0752077
0.0764003
0.0775352
0.0786107
0.0796254
0.0805778
0.0814667
0.0822907
0.0830488
0.0837401
0.0843638
0.0849191
0.0854055
0.0858226
0.0861701
0.0864479
0.0866561
0.086795
0.0868648
0.0868663
0.0868003
0.0866676
0.0864696
0.0862076
0.0858832
0.0854984
0.0850552
0.0845559
0.0840033
0.0834001
0.0827496
0.0820552
0.0813207
0.0805502
0.079748
0.078919
0.0780683
0.0772014
0.0763242
0.075443
0.0745644
0.0736956
0.0728442
0.072018
0.0712254
0.0704751
0.0697759
0.069137
0.0685674
0.068076
0.0676711
0.0673602
0.0671481
0.0670391
0.0670561
0.067215
0.000227583
0.00036677
0.000363022
0.000234976
8.6227e-06
-0.000309693
-0.000713989
-0.00119649
-0.00174892
-0.00236279
-0.00302948
-0.00374049
-0.00448747
-0.0052624
-0.00605756
-0.00686559
-0.0076795
-0.00849274
-0.00929913
-0.0100929
-0.0108688
-0.0116217
-0.012347
-0.0130404
-0.013698
-0.0143162
-0.0148916
-0.0154212
-0.0159023
-0.0163324
-0.0167093
-0.017031
-0.0172956
-0.0175018
-0.017648
-0.0177332
-0.0177565
-0.017717
-0.0176141
-0.0174474
-0.0172166
-0.0169215
-0.016562
-0.0161384
-0.0156509
-0.0150998
-0.0144857
-0.0138091
-0.0130708
-0.0122716
-0.0114124
-0.0104941
-0.00951805
-0.00848526
-0.00739706
-0.0062548
-0.0050599
-0.00381386
-0.00251826
-0.00117473
0.000215026
0.00164925
0.00312612
0.00464376
0.00620023
0.00779355
0.00942169
0.0110826
0.0127741
0.014494
0.0162402
0.0180104
0.0198023
0.0216136
0.023442
0.0252852
0.0271406
0.0290059
0.0308786
0.0327564
0.0346366
0.036517
0.0383949
0.0402678
0.0421334
0.043989
0.0458322
0.0476605
0.0494715
0.0512626
0.0530313
0.0547754
0.0564923
0.0581797
0.0598352
0.0614566
0.0630415
0.0645878
0.0660932
0.0675556
0.068973
0.0703434
0.0716648
0.0729353
0.0741531
0.0753166
0.076424
0.0774738
0.0784646
0.079395
0.0802637
0.0810696
0.0818117
0.082489
0.0831008
0.0836465
0.0841255
0.0845374
0.084882
0.0851593
0.0853694
0.0855125
0.0855891
0.0855997
0.0855452
0.0854266
0.085245
0.0850019
0.0846989
0.0843378
0.0839208
0.08345
0.0829281
0.082358
0.0817426
0.0810854
0.08039
0.0796604
0.0789008
0.0781159
0.0773105
0.07649
0.0756599
0.0748261
0.0739952
0.0731736
0.0723684
0.0715871
0.0708373
0.0701268
0.069464
0.0688568
0.0683137
0.0678426
0.0674514
0.0671471
0.0669352
0.0668212
0.0668312
0.0669841
0.000621383
0.000728704
0.000702922
0.000561137
0.000327527
8.88454e-06
-0.000388713
-0.00085789
-0.00139099
-0.00198027
-0.00261792
-0.00329623
-0.00400763
-0.00474478
-0.00550055
-0.00626815
-0.00704106
-0.00781316
-0.00857867
-0.00933213
-0.0100685
-0.0107829
-0.0114711
-0.0121288
-0.0127523
-0.0133381
-0.013883
-0.014384
-0.0148386
-0.0152441
-0.0155985
-0.0158999
-0.0161464
-0.0163366
-0.0164691
-0.0165428
-0.0165567
-0.01651
-0.0164021
-0.0162326
-0.016001
-0.0157073
-0.0153514
-0.0149334
-0.0144534
-0.0139119
-0.0133093
-0.0126461
-0.0119231
-0.011141
-0.0103007
-0.00940306
-0.00844928
-0.00744045
-0.00637779
-0.00526261
-0.00409627
-0.00288024
-0.00161602
-0.0003052
0.00105057
0.0024496
0.0038901
0.00537027
0.00688822
0.00844202
0.0100297
0.0116493
0.0132986
0.0149757
0.0166782
0.0184042
0.0201513
0.0219173
0.0236999
0.0254968
0.0273057
0.0291242
0.03095
0.0327806
0.0346137
0.0364468
0.0382776
0.0401035
0.0419222
0.0437313
0.0455282
0.0473106
0.0490761
0.0508223
0.0525467
0.0542471
0.055921
0.0575662
0.0591804
0.0607614
0.0623068
0.0638147
0.0652828
0.0667092
0.0680917
0.0694286
0.0707178
0.0719575
0.0731461
0.0742819
0.0753632
0.0763886
0.0773567
0.0782662
0.0791158
0.0799045
0.0806314
0.0812954
0.0818959
0.0824324
0.0829042
0.0833112
0.083653
0.0839298
0.0841414
0.0842884
0.0843711
0.0843901
0.0843463
0.0842406
0.0840742
0.0838485
0.0835652
0.083226
0.0828329
0.0823882
0.0818945
0.0813545
0.0807712
0.0801477
0.0794878
0.0787952
0.0780739
0.0773285
0.0765636
0.0757841
0.0749955
0.0742034
0.0734137
0.0726327
0.0718669
0.0711232
0.0704086
0.0697304
0.069096
0.068513
0.0679887
0.0675306
0.067146
0.0668417
0.0666232
0.066497
0.066488
0.0666139
0.00114559
0.00120413
0.00114498
0.000981248
0.000732806
0.000406385
7.99403e-06
-0.000455467
-0.00097695
-0.0015494
-0.00216574
-0.00281897
-0.00350221
-0.00420872
-0.00493197
-0.00566566
-0.00640378
-0.00714061
-0.00787072
-0.00858902
-0.00929068
-0.00997119
-0.0106263
-0.0112522
-0.0118452
-0.0124019
-0.0129193
-0.0133944
-0.0138248
-0.014208
-0.014542
-0.0148248
-0.0150548
-0.0152304
-0.0153503
-0.0154134
-0.0154188
-0.0153656
-0.0152532
-0.0150812
-0.0148491
-0.0145569
-0.0142043
-0.0137916
-0.0133189
-0.0127865
-0.0121949
-0.0115445
-0.0108359
-0.01007
-0.00924762
-0.00836959
-0.00743697
-0.00645085
-0.00541241
-0.00432291
-0.00318366
-0.00199608
-0.000761631
0.000518159
0.00184169
0.00320732
0.00461332
0.00605792
0.00753931
0.00905562
0.0106049
0.0121852
0.0137946
0.0154309
0.0170921
0.0187761
0.0204807
0.0222036
0.0239428
0.0256959
0.0274607
0.0292349
0.0310161
0.032802
0.0345904
0.0363788
0.0381648
0.0399462
0.0417205
0.0434854
0.0452386
0.0469775
0.0487
0.0504037
0.0520862
0.0537452
0.0553785
0.0569838
0.058559
0.0601017
0.0616099
0.0630816
0.0645145
0.0659068
0.0672565
0.0685617
0.0698205
0.0710313
0.0721923
0.073302
0.0743588
0.0753612
0.0763079
0.0771977
0.0780293
0.0788018
0.0795142
0.0801658
0.0807557
0.0812834
0.0817485
0.0821507
0.0824898
0.0827657
0.0829788
0.0831292
0.0832173
0.0832439
0.0832097
0.0831158
0.0829632
0.0827534
0.0824879
0.0821685
0.0817971
0.0813761
0.0809078
0.0803949
0.0798403
0.0792471
0.0786188
0.077959
0.0772716
0.076561
0.0758314
0.0750877
0.074335
0.0735785
0.0728238
0.0720767
0.0713434
0.0706302
0.0699436
0.0692902
0.0686769
0.0681104
0.0675976
0.0671453
0.0667602
0.0664489
0.0662169
0.0660707
0.0660314
0.0661135
0.00178639
0.00178323
0.00168101
0.0014876
0.00121707
0.000875826
0.000469683
4.95841e-06
-0.00051194
-0.00107461
-0.00167667
-0.00231175
-0.00297358
-0.00365601
-0.00435304
-0.00505888
-0.00576796
-0.00647497
-0.00717487
-0.00786285
-0.00853438
-0.0091852
-0.00981133
-0.010409
-0.0109749
-0.0115056
-0.0119983
-0.0124502
-0.0128589
-0.013222
-0.0135375
-0.0138035
-0.0140184
-0.0141808
-0.0142893
-0.0143428
-0.0143405
-0.0142814
-0.014165
-0.0139908
-0.0137585
-0.0134677
-0.0131186
-0.012711
-0.0122453
-0.0117216
-0.0111403
-0.010502
-0.00980724
-0.00905675
-0.00825132
-0.00739183
-0.00647926
-0.00551467
-0.00449918
-0.00343402
-0.00232045
-0.00115984
4.63979e-05
0.00129677
0.00258974
0.0039237
0.00529699
0.00670788
0.00815461
0.00963536
0.0111483
0.0126914
0.0142628
0.0158605
0.0174825
0.0191267
0.0207909
0.0224731
0.0241711
0.0258827
0.0276057
0.0293378
0.0310768
0.0328205
0.0345665
0.0363125
0.0380562
0.0397955
0.0415278
0.043251
0.0449626
0.0466605
0.0483423
0.0500058
0.0516487
0.0532687
0.0548636
0.0564313
0.0579695
0.0594763
0.0609494
0.0623868
0.0637866
0.0651467
0.0664654
0.0677408
0.0689711
0.0701546
0.0712897
0.0723748
0.0734084
0.0743892
0.0753158
0.076187
0.0770018
0.077759
0.0784578
0.0790975
0.0796774
0.0801968
0.0806555
0.0810531
0.0813894
0.0816646
0.0818787
0.082032
0.0821251
0.0821584
0.0821329
0.0820495
0.0819094
0.0817139
0.0814644
0.0811629
0.0808111
0.0804112
0.0799657
0.079477
0.0789479
0.0783816
0.0777812
0.0771504
0.0764927
0.0758123
0.0751134
0.0744004
0.0736782
0.0729517
0.0722262
0.071507
0.0707999
0.0701107
0.0694453
0.06881
0.0682108
0.0676541
0.0671461
0.0666928
0.0663007
0.0659756
0.0657232
0.0655495
0.0654704
0.0654954
0.00252924
0.00245479
0.00230158
0.0020717
0.00177255
0.00141009
0.000989866
0.000517539
-1.15022e-06
-0.00056044
-0.00115456
-0.00177776
-0.00242433
-0.00308865
-0.00376524
-0.00444879
-0.00513417
-0.00581645
-0.00649094
-0.00715314
-0.00779882
-0.00842397
-0.00902483
-0.00959787
-0.0101398
-0.0106476
-0.0111184
-0.0115496
-0.0119388
-0.0122839
-0.0125827
-0.0128337
-0.0130351
-0.0131855
-0.0132838
-0.0133287
-0.0133194
-0.0132551
-0.0131352
-0.0129592
-0.0127268
-0.0124377
-0.0120919
-0.0116893
-0.0112302
-0.0107148
-0.0101435
-0.00951668
-0.008835
-0.00809912
-0.0073098
-0.00646789
-0.00557432
-0.00463012
-0.00363638
-0.00259427
-0.00150502
-0.000369958
0.000809552
0.00203207
0.00329609
0.00460005
0.00594235
0.0073213
0.0087352
0.0101823
0.0116607
0.0131686
0.0147041
0.0162652
0.0178501
0.0194565
0.0210826
0.0227262
0.0243852
0.0260575
0.0277409
0.0294332
0.0311323
0.0328359
0.0345418
0.0362478
0.0379515
0.0396509
0.0413435
0.0430272
0.0446997
0.0463588
0.0480023
0.0496278
0.0512332
0.0528164
0.0543751
0.0559073
0.0574108
0.0588836
0.0603235
0.0617288
0.0630973
0.0644273
0.0657168
0.0669641
0.0681676
0.0693254
0.0704361
0.071498
0.0725099
0.0734704
0.074378
0.0752318
0.0760307
0.0767735
0.0774596
0.0780881
0.0786584
0.07917
0.0796225
0.0800157
0.0803494
0.0806235
0.0808384
0.0809943
0.0810916
0.081131
0.0811132
0.0810392
0.0809102
0.0807274
0.0804924
0.0802068
0.0798724
0.0794914
0.0790661
0.0785988
0.0780924
0.0775496
0.0769737
0.076368
0.0757361
0.0750818
0.074409
0.0737221
0.0730254
0.0723238
0.071622
0.0709251
0.0702383
0.0695671
0.068917
0.0682935
0.0677023
0.0671491
0.0666396
0.0661794
0.065774
0.0654291
0.0651499
0.0649419
0.0648151
0.0647734
0.00335993
0.00320731
0.00299691
0.00272483
0.00239141
0.00200209
0.00156211
0.00107647
0.000550223
-1.14629e-05
-0.000603406
-0.00122041
-0.00185732
-0.00250901
-0.00317049
-0.0038369
-0.00450352
-0.0051658
-0.00581937
-0.00646007
-0.00708393
-0.0076872
-0.00826635
-0.00881805
-0.00933919
-0.00982689
-0.0102784
-0.0106914
-0.0110634
-0.0113924
-0.0116765
-0.011914
-0.0121033
-0.0122431
-0.0123322
-0.0123695
-0.0123541
-0.0122852
-0.0121623
-0.0119849
-0.0117527
-0.0114653
-0.0111228
-0.0107251
-0.0102724
-0.00976493
-0.00920305
-0.0085872
-0.00791793
-0.0071959
-0.00642184
-0.00559658
-0.004721
-0.0037961
-0.00282293
-0.00180263
-0.00073639
0.000374513
0.00152874
0.00272491
0.00396154
0.00523714
0.00655012
0.00789887
0.00928171
0.0106969
0.0121427
0.0136173
0.0151188
0.0166454
0.0181951
0.0197659
0.0213559
0.022963
0.0245852
0.0262203
0.0278663
0.0295211
0.0311824
0.0328482
0.0345163
0.0361844
0.0378504
0.0395121
0.0411673
0.0428138
0.0444494
0.0460719
0.0476791
0.0492689
0.0508391
0.0523876
0.0539123
0.055411
0.0568818
0.0583226
0.0597315
0.0611064
0.0624456
0.0637472
0.0650093
0.0662303
0.0674085
0.0685422
0.06963
0.0706703
0.0716618
0.0726031
0.073493
0.0743305
0.0751143
0.0758437
0.0765177
0.0771357
0.0776971
0.0782012
0.0786478
0.0790367
0.0793676
0.0796407
0.0798561
0.080014
0.080115
0.0801596
0.0801487
0.0800831
0.0799639
0.0797924
0.0795701
0.0792986
0.0789796
0.0786153
0.0782077
0.0777592
0.0772725
0.0767503
0.0761955
0.0756115
0.0750015
0.0743693
0.0737184
0.0730531
0.0723774
0.0716958
0.0710127
0.0703328
0.0696611
0.0690025
0.0683619
0.0677447
0.0671558
0.0666005
0.0660839
0.0656111
0.065187
0.0648167
0.064505
0.0642572
0.0640764
0.0639608
0.00426504
0.00402948
0.00375722
0.00343833
0.00306583
0.00264472
0.00218
0.00167594
0.00113699
0.000567714
-2.72445e-05
-0.000643222
-0.00127556
-0.00191963
-0.00257089
-0.0032249
-0.00387733
-0.004524
-0.00516085
-0.00578404
-0.00638987
-0.00697484
-0.00753563
-0.00806914
-0.00857243
-0.00904277
-0.00947761
-0.00987459
-0.0102315
-0.0105465
-0.0108176
-0.0110432
-0.0112219
-0.0113524
-0.0114334
-0.0114639
-0.0114432
-0.0113704
-0.011245
-0.0110666
-0.0108347
-0.0105492
-0.01021
-0.00981702
-0.00937051
-0.00887065
-0.00831778
-0.00771233
-0.00705485
-0.00634594
-0.00558633
-0.00477681
-0.00391824
-0.00301158
-0.00205785
-0.00105815
-1.36368e-05
0.00107445
0.00220481
0.00337608
0.00458686
0.00583567
0.00712098
0.00844121
0.00979473
0.0111799
0.0125949
0.014038
0.0155075
0.0170014
0.018518
0.0200552
0.0216111
0.0231838
0.0247712
0.0263713
0.027982
0.0296013
0.0312271
0.0328573
0.0344896
0.0361221
0.0377526
0.0393789
0.0409988
0.0426103
0.0442111
0.0457992
0.0473724
0.0489286
0.0504657
0.0519816
0.0534742
0.0549415
0.0563816
0.0577924
0.0591721
0.0605186
0.0618303
0.0631052
0.0643417
0.065538
0.0666925
0.0678037
0.06887
0.0698901
0.0708624
0.0717859
0.0726592
0.0734813
0.0742511
0.0749679
0.0756306
0.0762387
0.0767915
0.0772886
0.0777296
0.0781143
0.0784425
0.0787144
0.0789299
0.0790895
0.0791936
0.0792428
0.0792377
0.0791794
0.0790689
0.0789073
0.0786962
0.078437
0.0781315
0.0777816
0.0773894
0.0769572
0.0764875
0.0759828
0.0754461
0.0748804
0.0742889
0.0736749
0.0730421
0.0723942
0.0717351
0.071069
0.0703999
0.0697323
0.0690707
0.0684196
0.0677836
0.0671674
0.0665757
0.0660132
0.0654844
0.064994
0.0645463
0.0641457
0.0637968
0.0635045
0.0632649
0.0630705
0.00523218
0.00491056
0.00457302
0.00420362
0.00378808
0.00333101
0.00283718
0.00231023
0.00175399
0.0011725
0.00056986
-4.97458e-05
-0.000682137
-0.00132315
-0.00196866
-0.00261462
-0.00325708
-0.0038922
-0.00451624
-0.00512564
-0.00571698
-0.00628701
-0.00683263
-0.00735092
-0.00783914
-0.00829472
-0.00871526
-0.00909854
-0.00944248
-0.00974522
-0.010005
-0.0102203
-0.0103898
-0.010512
-0.010586
-0.0106108
-0.0105855
-0.0105095
-0.0103821
-0.0102029
-0.00997168
-0.00968813
-0.0093522
-0.0089639
-0.00852336
-0.00803078
-0.0074865
-0.00689095
-0.00624463
-0.00554815
-0.0048022
-0.00400754
-0.00316503
-0.00227558
-0.00134019
-0.000359913
0.000664108
0.00173068
0.00283853
0.00398636
0.00517277
0.00639634
0.00765557
0.00894892
0.0102748
0.0116316
0.0130176
0.0144311
0.0158704
0.0173336
0.0188189
0.0203244
0.0218483
0.0233885
0.0249432
0.0265104
0.0280879
0.0296739
0.0312662
0.0328628
0.0344617
0.0360607
0.0376577
0.0392507
0.0408375
0.0424161
0.0439843
0.0455401
0.0470814
0.048606
0.0501121
0.0515974
0.05306
0.054498
0.0559093
0.057292
0.0586443
0.0599643
0.0612502
0.0625003
0.0637127
0.064886
0.0660185
0.0671086
0.0681548
0.0691559
0.0701104
0.0710172
0.071875
0.0726828
0.0734395
0.0741444
0.0747965
0.0753953
0.0759402
0.0764306
0.0768662
0.0772469
0.0775724
0.0778428
0.0780583
0.0782192
0.0783258
0.0783788
0.0783788
0.0783268
0.0782237
0.0780707
0.0778692
0.0776206
0.0773267
0.0769892
0.0766103
0.0761919
0.0757366
0.0752467
0.0747251
0.0741745
0.0735981
0.0729989
0.0723804
0.0717461
0.0710996
0.0704448
0.0697855
0.0691257
0.0684697
0.0678215
0.0671854
0.0665656
0.0659665
0.0653921
0.0648467
0.0643342
0.0638586
0.0634235
0.0630334
0.0626929
0.0623909
0.0621143
0.00625006
0.00584049
0.00543525
0.00501248
0.00455066
0.0040541
0.00352743
0.00297369
0.00239615
0.00179831
0.00118384
0.000556416
-8.02129e-05
-0.000722304
-0.00136614
-0.00200804
-0.00264441
-0.00327173
-0.00388657
-0.00448565
-0.00506581
-0.00562404
-0.00615746
-0.00666334
-0.00713913
-0.00758241
-0.00799094
-0.00836262
-0.00869552
-0.00898785
-0.00923799
-0.00944446
-0.00960592
-0.0097212
-0.00978922
-0.00980907
-0.00977996
-0.00970123
-0.00957233
-0.00939285
-0.00916248
-0.00888103
-0.00854841
-0.00816464
-0.00772985
-0.00724424
-0.00670816
-0.00612199
-0.00548625
-0.00480152
-0.00406846
-0.00328784
-0.00246045
-0.00158721
-0.000669083
0.000292903
0.00129764
0.00234397
0.00343066
0.00455643
0.00571992
0.00691975
0.00815446
0.00942254
0.0107225
0.0120526
0.0134114
0.014797
0.0162079
0.0176422
0.0190982
0.020574
0.0220677
0.0235775
0.0251015
0.0266376
0.028184
0.0297387
0.0312996
0.0328648
0.0344322
0.0359998
0.0375655
0.0391273
0.0406831
0.0422309
0.0437685
0.0452941
0.0468055
0.0483006
0.0497776
0.0512344
0.052669
0.0540795
0.0554639
0.0568205
0.0581473
0.0594425
0.0607044
0.0619312
0.0631213
0.0642731
0.065385
0.0664554
0.0674831
0.0684665
0.0694044
0.0702957
0.071139
0.0719334
0.072678
0.0733718
0.074014
0.0746041
0.0751414
0.0756255
0.0760561
0.0764328
0.0767556
0.0770246
0.0772398
0.0774015
0.0775101
0.0775662
0.0775705
0.0775238
0.077427
0.0772813
0.077088
0.0768484
0.0765643
0.0762374
0.0758695
0.0754627
0.0750193
0.0745417
0.0740323
0.0734939
0.0729294
0.0723417
0.0717341
0.0711097
0.0704721
0.0698247
0.0691712
0.0685152
0.0678606
0.0672112
0.0665707
0.0659432
0.0653324
0.0647421
0.064176
0.0636376
0.0631303
0.0626572
0.0622227
0.0618309
0.061464
0.0611032
0.00730839
0.0068099
0.00633533
0.00585702
0.00534634
0.00480738
0.0042447
0.00366082
0.00305845
0.00244066
0.00181063
0.00117164
0.000527015
-0.000119905
-0.000765769
-0.00140726
-0.00204109
-0.00266405
-0.00327303
-0.003865
-0.00443707
-0.00498643
-0.00551043
-0.00600654
-0.00647237
-0.00690568
-0.00730437
-0.00766647
-0.00799017
-0.0082738
-0.00851582
-0.00871485
-0.00886962
-0.00897902
-0.00904205
-0.00905783
-0.00902562
-0.0089448
-0.00881485
-0.00863539
-0.00840612
-0.00812687
-0.00779757
-0.00741824
-0.006989
-0.00651008
-0.00598178
-0.00540452
-0.00477878
-0.00410514
-0.00338424
-0.00261682
-0.00180367
-0.000945669
-4.37584e-05
0.000901052
0.00188769
0.00291502
0.00398184
0.00508691
0.0062289
0.00740646
0.00861817
0.00986256
0.0111381
0.0124433
0.0137765
0.015136
0.0165203
0.0179275
0.019356
0.0208039
0.0222694
0.0237507
0.0252459
0.026753
0.0282703
0.0297957
0.0313273
0.032863
0.034401
0.0359392
0.0374756
0.0390083
0.0405351
0.0420541
0.0435632
0.0450606
0.0465441
0.0480117
0.0494616
0.0508918
0.0523003
0.0536852
0.0550447
0.0563768
0.0576799
0.0589521
0.0601916
0.0613969
0.0625663
0.0636981
0.0647909
0.0658431
0.0668535
0.0678206
0.0687431
0.0696199
0.0704498
0.0712319
0.0719651
0.0726486
0.0732817
0.0738636
0.0743939
0.074872
0.0752977
0.0756707
0.0759908
0.0762581
0.0764728
0.076635
0.0767452
0.0768038
0.0768115
0.0767692
0.0766776
0.076538
0.0763515
0.0761195
0.0758436
0.0755253
0.0751665
0.0747691
0.0743353
0.0738674
0.0733676
0.0728387
0.0722832
0.0717039
0.0711039
0.0704862
0.069854
0.0692105
0.0685591
0.0679031
0.0672462
0.0665917
0.0659432
0.0653041
0.0646779
0.064068
0.0634776
0.06291
0.0623678
0.0618537
0.0613721
0.0609268
0.0604933
0.060047
0.00839784
0.00781011
0.00726519
0.00672977
0.0061682
0.00558447
0.00498315
0.00436624
0.00373601
0.00309508
0.00244623
0.00179233
0.00113632
0.000481195
-0.000170056
-0.000814434
-0.00144898
-0.00207077
-0.00267696
-0.0032648
-0.00383162
-0.00437485
-0.00489203
-0.00538082
-0.00583903
-0.00626455
-0.00665543
-0.00700985
-0.00732612
-0.00760265
-0.00783803
-0.00803095
-0.00818024
-0.00828483
-0.0083438
-0.00835632
-0.0083217
-0.00823935
-0.0081088
-0.00792968
-0.00770174
-0.00742481
-0.00709882
-0.00672383
-0.00629995
-0.00582741
-0.00530653
-0.00473771
-0.00412141
-0.00345821
-0.00274875
-0.00199373
-0.00119393
-0.00035022
0.000536489
0.00146521
0.0024349
0.00344444
0.00449267
0.00557837
0.00670024
0.00785697
0.00904716
0.0102694
0.0115222
0.012804
0.0141133
0.0154484
0.0168078
0.0181897
0.0195925
0.0210144
0.0224535
0.0239082
0.0253765
0.0268566
0.0283466
0.0298447
0.0313489
0.0328572
0.0343678
0.0358786
0.0373877
0.0388932
0.040393
0.0418853
0.0433679
0.044839
0.0462966
0.0477387
0.0491635
0.0505689
0.0519532
0.0533143
0.0546506
0.0559602
0.0572413
0.0584921
0.0597111
0.0608964
0.0620465
0.0631599
0.0642351
0.0652705
0.0662649
0.0672168
0.0681252
0.0689886
0.0698062
0.0705768
0.0712995
0.0719735
0.072598
0.0731724
0.0736961
0.0741687
0.0745898
0.0749591
0.0752766
0.0755423
0.0757562
0.0759185
0.0760297
0.0760903
0.0761007
0.0760619
0.0759746
0.07584
0.075659
0.0754331
0.0751637
0.0748523
0.0745007
0.0741108
0.0736844
0.0732238
0.0727313
0.0722091
0.0716599
0.0710862
0.0704909
0.0698767
0.0692467
0.0686038
0.0679511
0.0672918
0.0666291
0.0659661
0.065306
0.064652
0.0640071
0.0633744
0.0627567
0.0621568
0.061577
0.0610195
0.0604887
0.0599884
0.059487
0.0589547
0.00950986
0.0088331
0.00821731
0.00762367
0.00700968
0.0063793
0.00573714
0.0050848
0.00442407
0.00375723
0.00308667
0.00241489
0.00174449
0.00107812
0.000418448
-0.000231831
-0.000870048
-0.00149357
-0.00209981
-0.00268625
-0.00325046
-0.00379009
-0.00430287
-0.00478665
-0.00523939
-0.00565917
-0.00604417
-0.0063927
-0.00670318
-0.00697415
-0.00720428
-0.00739236
-0.0075373
-0.0076381
-0.00769389
-0.00770392
-0.00766753
-0.00758419
-0.00745346
-0.007275
-0.00704859
-0.00677407
-0.0064514
-0.00608065
-0.00566193
-0.0051955
-0.00468165
-0.00412079
-0.0035134
-0.00286001
-0.00216127
-0.00141787
-0.000630571
0.000199781
0.00107229
0.00198598
0.00293985
0.00393279
0.00496367
0.0060313
0.00713441
0.00827171
0.00944184
0.0106434
0.011875
0.013135
0.014422
0.0157344
0.0170707
0.018429
0.0198079
0.0212054
0.0226201
0.0240499
0.0254932
0.0269482
0.0284129
0.0298856
0.0313643
0.0328472
0.0343323
0.0358177
0.0373015
0.0387818
0.0402566
0.041724
0.043182
0.0446288
0.0460624
0.0474809
0.0488824
0.050265
0.0516268
0.0529661
0.054281
0.0555697
0.0568306
0.0580617
0.0592616
0.0604286
0.0615611
0.0626575
0.0637165
0.0647364
0.0657161
0.0666542
0.0675495
0.0684007
0.0692069
0.069967
0.0706801
0.0713453
0.071962
0.0725294
0.073047
0.0735143
0.0739311
0.074297
0.0746119
0.0748758
0.0750887
0.0752509
0.0753628
0.0754247
0.0754372
0.0754011
0.0753171
0.0751863
0.0750097
0.0747885
0.0745241
0.0742181
0.073872
0.0734875
0.0730665
0.0726112
0.0721235
0.0716057
0.0710602
0.0704895
0.069896
0.0692825
0.0686517
0.0680064
0.0673494
0.0666837
0.066012
0.0653374
0.0646626
0.0639906
0.0633241
0.0626657
0.062018
0.0613834
0.0607638
0.060161
0.0595793
0.0590226
0.0584529
0.0578347
0.0106367
0.0098715
0.00918472
0.00853214
0.00786461
0.00718609
0.00650131
0.00581148
0.00511803
0.00442287
0.00372807
0.00303579
0.00234831
0.00166798
0.00099716
0.000338258
-0.00030633
-0.00093423
-0.00154311
-0.00213067
-0.00269471
-0.00323307
-0.0037437
-0.0042246
-0.00467391
-0.00508986
-0.00547077
-0.00581507
-0.00612132
-0.00638816
-0.00661436
-0.0067988
-0.00694045
-0.00703842
-0.00709188
-0.00710013
-0.00706259
-0.00697876
-0.00684824
-0.00667074
-0.00644604
-0.00617402
-0.00585466
-0.00548804
-0.00507429
-0.00461367
-0.00410649
-0.00355314
-0.00295409
-0.00230991
-0.00162119
-0.000888635
-0.000112995
0.000704908
0.00156419
0.0024639
0.00340304
0.00438055
0.00539531
0.00644614
0.00753182
0.00865107
0.00980257
0.0109849
0.0121968
0.0134366
0.014703
0.0159943
0.017309
0.0186455
0.0200021
0.0213772
0.0227691
0.024176
0.0255961
0.0270278
0.0284691
0.0299182
0.0313733
0.0328326
0.0342942
0.0357561
0.0372165
0.0386735
0.0401252
0.0415697
0.0430051
0.0444295
0.045841
0.0472377
0.0486178
0.0499794
0.0513206
0.0526398
0.053935
0.0552046
0.0564468
0.05766
0.0588425
0.0599927
0.061109
0.0621899
0.063234
0.0642399
0.0652062
0.0661316
0.0670149
0.067855
0.0686508
0.0694013
0.0701056
0.0707628
0.0713723
0.0719333
0.0724452
0.0729078
0.0733205
0.0736831
0.0739954
0.0742575
0.0744694
0.0746312
0.0747433
0.074806
0.07482
0.0747858
0.0747043
0.0745763
0.0744029
0.0741852
0.0739245
0.0736222
0.0732799
0.0728992
0.0724817
0.0720295
0.0715446
0.0710289
0.0704848
0.0699145
0.0693204
0.0687049
0.0680707
0.0674202
0.0667561
0.066081
0.0653976
0.0647085
0.0640164
0.0633237
0.0626328
0.0619463
0.0612663
0.0605948
0.0599335
0.0592838
0.0586501
0.0580363
0.0573978
0.0566942
0.0117714
0.0109186
0.010161
0.00944906
0.00872717
0.00799938
0.00727053
0.00654153
0.00581345
0.0050879
0.00436665
0.00365156
0.00294463
0.0022479
0.00156348
0.000893501
0.000240098
-0.000394594
-0.00100847
-0.00159947
-0.00216557
-0.00270483
-0.00321537
-0.00369538
-0.00414314
-0.00455703
-0.00493552
-0.00527717
-0.00558064
-0.00584469
-0.00606819
-0.0062501
-0.00638948
-0.0064855
-0.00653742
-0.00654458
-0.00650646
-0.00642261
-0.00629268
-0.00611638
-0.00589356
-0.00562411
-0.00530804
-0.00494544
-0.00453646
-0.00408136
-0.00358046
-0.00303417
-0.00244295
-0.00180734
-0.00112797
-0.000405499
0.000359312
0.00116566
0.00201267
0.00289943
0.00382493
0.00478815
0.00578797
0.00682326
0.00789281
0.00899537