/*--------------------------------*- C++ -*----------------------------------*\
  =========                 |
  \\      /  F ield         | OpenFOAM: The Open Source CFD Toolbox
   \\    /   O peration     | Website:  https://openfoam.org
    \\  /    A nd           | Version:  7
     \\/     M anipulation  |
\*---------------------------------------------------------------------------*/
FoamFile
{
    version     2.0;
    format      ascii;
    class       surfaceScalarField;
    location    "0.2875";
    object      phi;
}
// * * * * * * * * * * * * * * * * * * * * * * * * * * * * * * * * * * * * * //

dimensions      [0 3 -1 0 0 0 0];

internalField   nonuniform List<scalar> 
50880
(
5.88845e-12
-6.35241e-12
3.61592e-11
-3.02767e-11
8.1071e-11
-4.49211e-11
1.3071e-10
-4.96377e-11
1.77941e-10
-4.72257e-11
2.17792e-10
-3.98424e-11
2.46826e-10
-2.90377e-11
2.62742e-10
-1.59207e-11
2.64018e-10
-1.27876e-12
2.4969e-10
1.43288e-11
2.19197e-10
3.04957e-11
1.72275e-10
4.69223e-11
1.08889e-10
6.33843e-11
2.9174e-11
7.97128e-11
-6.66053e-11
9.57782e-11
-1.78084e-10
1.1148e-10
-3.04822e-10
1.26739e-10
-4.46315e-10
1.41494e-10
-6.02013e-10
1.55698e-10
-7.71329e-10
1.69316e-10
-9.53647e-10
1.82319e-10
-1.14833e-09
1.94686e-10
-1.35473e-09
2.06401e-10
-1.57219e-09
2.17454e-10
-1.80002e-09
2.27836e-10
-2.03757e-09
2.37544e-10
-2.28415e-09
2.46577e-10
-2.53908e-09
2.54935e-10
-2.8017e-09
2.6262e-10
-3.07134e-09
2.69638e-10
-3.34733e-09
2.75992e-10
-3.62902e-09
2.8169e-10
-3.91576e-09
2.86739e-10
-4.20691e-09
2.91148e-10
-4.50183e-09
2.94925e-10
-4.79991e-09
2.98081e-10
-5.10054e-09
3.00625e-10
-5.40311e-09
3.02568e-10
-5.70703e-09
3.03922e-10
-6.01173e-09
3.04697e-10
-6.31663e-09
3.04904e-10
-6.62119e-09
3.04557e-10
-6.92486e-09
3.03667e-10
-7.2271e-09
3.02247e-10
-7.52741e-09
3.00308e-10
-7.82527e-09
2.97863e-10
-8.1202e-09
2.94926e-10
-8.41171e-09
2.91508e-10
-8.69933e-09
2.87623e-10
-8.98262e-09
2.83284e-10
-9.26112e-09
2.78502e-10
-9.53441e-09
2.73292e-10
-9.80208e-09
2.67667e-10
-1.00637e-08
2.61639e-10
-1.03189e-08
2.55222e-10
-1.05674e-08
2.48429e-10
-1.08086e-08
2.41273e-10
-1.10424e-08
2.33766e-10
-1.12683e-08
2.25924e-10
-1.14861e-08
2.17758e-10
-1.16954e-08
2.09282e-10
-1.18959e-08
2.00509e-10
-1.20873e-08
1.91454e-10
-1.22695e-08
1.82128e-10
-1.2442e-08
1.72546e-10
-1.26047e-08
1.62721e-10
-1.27574e-08
1.52668e-10
-1.28998e-08
1.42399e-10
-1.30317e-08
1.31929e-10
-1.3153e-08
1.21272e-10
-1.32634e-08
1.10441e-10
-1.33629e-08
9.94506e-11
-1.34512e-08
8.8315e-11
-1.35283e-08
7.70486e-11
-1.35939e-08
6.56658e-11
-1.36481e-08
5.41813e-11
-1.36907e-08
4.26097e-11
-1.37217e-08
3.0966e-11
-1.37409e-08
1.92651e-11
-1.37485e-08
7.52203e-12
-1.37442e-08
-4.24799e-12
-1.37282e-08
-1.60296e-11
-1.37004e-08
-2.78073e-11
-1.36608e-08
-3.95654e-11
-1.36095e-08
-5.12881e-11
-1.35466e-08
-6.29593e-11
-1.3472e-08
-7.45629e-11
-1.33859e-08
-8.60827e-11
-1.32884e-08
-9.75024e-11
-1.31796e-08
-1.08806e-10
-1.30596e-08
-1.19976e-10
-1.29286e-08
-1.30996e-10
-1.27868e-08
-1.4185e-10
-1.26343e-08
-1.52521e-10
-1.24713e-08
-1.62991e-10
-1.2298e-08
-1.73244e-10
-1.21148e-08
-1.83262e-10
-1.19217e-08
-1.93029e-10
-1.17192e-08
-2.02527e-10
-1.15075e-08
-2.1174e-10
-1.12868e-08
-2.2065e-10
-1.10576e-08
-2.2924e-10
-1.08201e-08
-2.37494e-10
-1.05747e-08
-2.45394e-10
-1.03218e-08
-2.52924e-10
-1.00617e-08
-2.60066e-10
-9.7949e-09
-2.66805e-10
-9.52177e-09
-2.73124e-10
-9.24276e-09
-2.79007e-10
-8.95833e-09
-2.84437e-10
-8.66893e-09
-2.894e-10
-8.37505e-09
-2.9388e-10
-8.07718e-09
-2.97861e-10
-7.77585e-09
-3.0133e-10
-7.47158e-09
-3.04271e-10
-7.16491e-09
-3.0667e-10
-6.8564e-09
-3.08515e-10
-6.5466e-09
-3.09792e-10
-6.23611e-09
-3.10489e-10
-5.92552e-09
-3.10593e-10
-5.61543e-09
-3.10093e-10
-5.30645e-09
-3.08978e-10
-4.99921e-09
-3.07238e-10
-4.69435e-09
-3.04865e-10
-4.3925e-09
-3.01848e-10
-4.09432e-09
-2.98181e-10
-3.80046e-09
-2.93856e-10
-3.51159e-09
-2.88868e-10
-3.22838e-09
-2.83212e-10
-2.9515e-09
-2.76883e-10
-2.68162e-09
-2.6988e-10
-2.41942e-09
-2.62201e-10
-2.16557e-09
-2.53846e-10
-1.92075e-09
-2.44819e-10
-1.68563e-09
-2.35122e-10
-1.46087e-09
-2.24762e-10
-1.24712e-09
-2.13747e-10
-1.04503e-09
-2.02089e-10
-8.55229e-10
-1.89803e-10
-6.78323e-10
-1.76907e-10
-5.14898e-10
-1.63425e-10
-3.65512e-10
-1.49386e-10
-2.30685e-10
-1.34826e-10
-1.10894e-10
-1.1979e-10
-6.55876e-12
-1.04334e-10
8.1968e-11
-8.85262e-11
1.54421e-10
-7.24522e-11
2.10641e-10
-5.622e-11
2.50609e-10
-3.99672e-11
2.74481e-10
-2.38712e-11
2.82642e-10
-8.16144e-12
2.75782e-10
6.85938e-12
2.54997e-10
2.07845e-11
2.21941e-10
3.30551e-11
1.79049e-10
4.28915e-11
1.29844e-10
4.92042e-11
7.93453e-11
5.05019e-11
3.4621e-11
4.47323e-11
5.3285e-12
2.93037e-11
5.33371e-12
3.00316e-11
-3.63861e-11
1.01147e-10
-1.01412e-10
1.95383e-10
-1.39161e-10
2.95665e-10
-1.4991e-10
3.8763e-10
-1.39183e-10
4.60042e-10
-1.12253e-10
5.04441e-10
-7.34441e-11
5.1465e-10
-2.61378e-11
4.86286e-10
2.70835e-11
4.1635e-10
8.42676e-11
3.02917e-10
1.4393e-10
1.44904e-10
2.04935e-10
-5.81204e-11
2.66408e-10
-3.06077e-10
3.27669e-10
-5.98484e-10
3.88186e-10
-9.34546e-10
4.47542e-10
-1.31321e-09
5.05404e-10
-1.73323e-09
5.61512e-10
-2.19319e-09
6.15659e-10
-2.69156e-09
6.67683e-10
-3.22669e-09
7.17454e-10
-3.79688e-09
7.64875e-10
-4.40035e-09
8.09868e-10
-5.03527e-09
8.52378e-10
-5.6998e-09
8.92366e-10
-6.39206e-09
9.29803e-10
-7.11016e-09
9.64675e-10
-7.85221e-09
9.96977e-10
-8.61629e-09
1.02671e-09
-9.40054e-09
1.05388e-09
-1.02031e-08
1.07851e-09
-1.1022e-08
1.10061e-09
-1.18555e-08
1.12021e-09
-1.27016e-08
1.13734e-09
-1.35587e-08
1.15203e-09
-1.4425e-08
1.16431e-09
-1.52986e-08
1.17422e-09
-1.61778e-08
1.1818e-09
-1.7061e-08
1.18709e-09
-1.79464e-08
1.19013e-09
-1.88325e-08
1.19096e-09
-1.97175e-08
1.18963e-09
-2.06e-08
1.18618e-09
-2.14785e-08
1.18066e-09
-2.23513e-08
1.17313e-09
-2.3217e-08
1.16361e-09
-2.40743e-08
1.15218e-09
-2.49216e-08
1.13886e-09
-2.57577e-08
1.12372e-09
-2.65812e-08
1.10679e-09
-2.73909e-08
1.08814e-09
-2.81854e-08
1.06782e-09
-2.89636e-08
1.04586e-09
-2.97243e-08
1.02233e-09
-3.04663e-08
9.97273e-10
-3.11887e-08
9.70742e-10
-3.18902e-08
9.42789e-10
-3.25699e-08
9.13464e-10
-3.32268e-08
8.82821e-10
-3.38599e-08
8.5091e-10
-3.44684e-08
8.17784e-10
-3.50514e-08
7.83495e-10
-3.5608e-08
7.48096e-10
-3.61376e-08
7.11639e-10
-3.66392e-08
6.74179e-10
-3.71122e-08
6.35768e-10
-3.7556e-08
5.9646e-10
-3.79699e-08
5.56309e-10
-3.83534e-08
5.1537e-10
-3.87058e-08
4.73697e-10
-3.90267e-08
4.31346e-10
-3.93156e-08
3.88371e-10
-3.95721e-08
3.44829e-10
-3.97959e-08
3.00776e-10
-3.99865e-08
2.56269e-10
-4.01437e-08
2.11366e-10
-4.02672e-08
1.66124e-10
-4.03568e-08
1.20602e-10
-4.04124e-08
7.48575e-11
-4.04338e-08
2.89513e-11
-4.0421e-08
-1.70574e-11
-4.03739e-08
-6.31082e-11
-4.02926e-08
-1.0914e-10
-4.01771e-08
-1.55091e-10
-4.00275e-08
-2.009e-10
-3.98439e-08
-2.46503e-10
-3.96266e-08
-2.91839e-10
-3.93759e-08
-3.36842e-10
-3.90919e-08
-3.8145e-10
-3.87751e-08
-4.25598e-10
-3.84259e-08
-4.69221e-10
-3.80446e-08
-5.12254e-10
-3.76319e-08
-5.54631e-10
-3.71881e-08
-5.96287e-10
-3.67139e-08
-6.37155e-10
-3.621e-08
-6.77169e-10
-3.5677e-08
-7.16263e-10
-3.51157e-08
-7.5437e-10
-3.45268e-08
-7.91423e-10
-3.39111e-08
-8.27356e-10
-3.32697e-08
-8.62103e-10
-3.26033e-08
-8.95597e-10
-3.19131e-08
-9.27772e-10
-3.11999e-08
-9.58563e-10
-3.04649e-08
-9.87905e-10
-2.97092e-08
-1.01573e-09
-2.89341e-08
-1.04198e-09
-2.81406e-08
-1.06659e-09
-2.73301e-08
-1.0895e-09
-2.65039e-08
-1.11063e-09
-2.56634e-08
-1.12995e-09
-2.48099e-08
-1.14738e-09
-2.39449e-08
-1.16286e-09
-2.30698e-08
-1.17635e-09
-2.21863e-08
-1.18778e-09
-2.12959e-08
-1.1971e-09
-2.04002e-08
-1.20427e-09
-1.95007e-08
-1.20922e-09
-1.85993e-08
-1.21192e-09
-1.76976e-08
-1.21231e-09
-1.67973e-08
-1.21036e-09
-1.59002e-08
-1.20603e-09
-1.50082e-08
-1.19927e-09
-1.4123e-08
-1.19006e-09
-1.32465e-08
-1.17836e-09
-1.23805e-08
-1.16414e-09
-1.1527e-08
-1.14738e-09
-1.06878e-08
-1.12807e-09
-9.86486e-09
-1.10618e-09
-9.06004e-09
-1.0817e-09
-8.27529e-09
-1.05463e-09
-7.51252e-09
-1.02497e-09
-6.77363e-09
-9.9273e-10
-6.06053e-09
-9.57918e-10
-5.3751e-09
-9.20559e-10
-4.71918e-09
-8.80684e-10
-4.09459e-09
-8.38335e-10
-3.50311e-09
-7.93566e-10
-2.94647e-09
-7.46446e-10
-2.42632e-09
-6.97059e-10
-1.94423e-09
-6.45512e-10
-1.50168e-09
-5.91932e-10
-1.10003e-09
-5.36478e-10
-7.40474e-10
-4.79342e-10
-4.24047e-10
-4.2076e-10
-1.51551e-10
-3.61021e-10
7.64816e-11
-3.00483e-10
2.59853e-10
-2.39591e-10
3.98784e-10
-1.78899e-10
4.94019e-10
-1.19108e-10
5.46963e-10
-6.11068e-11
5.5986e-10
-6.03592e-12
5.36022e-10
4.4625e-11
4.80133e-10
8.8945e-11
3.98633e-10
1.24394e-10
3.00149e-10
1.4769e-10
1.95943e-10
1.54702e-10
1.00157e-10
1.40496e-10
2.92626e-11
1.00166e-10
3.46035e-11
4.48164e-11
-8.12119e-11
1.39071e-10
-1.95661e-10
2.56265e-10
-2.56345e-10
3.74748e-10
-2.68401e-10
4.7626e-10
-2.40697e-10
5.45923e-10
-1.8192e-10
5.72035e-10
-9.95613e-11
5.45647e-10
2.46819e-13
4.60133e-10
1.12601e-10
3.10752e-10
2.33654e-10
9.43117e-11
3.60374e-10
-1.91137e-10
4.90383e-10
-5.46538e-10
6.21807e-10
-9.72031e-10
7.5316e-10
-1.46711e-09
8.83261e-10
-2.03073e-09
1.01116e-09
-2.66144e-09
1.13612e-09
-3.35744e-09
1.25751e-09
-4.11664e-09
1.37486e-09
-4.93675e-09
1.48779e-09
-5.81527e-09
1.59598e-09
-6.74958e-09
1.69919e-09
-7.73694e-09
1.79723e-09
-8.77452e-09
1.88996e-09
-9.85943e-09
1.97727e-09
-1.09887e-08
2.05909e-09
-1.21594e-08
2.13536e-09
-1.33685e-08
2.20607e-09
-1.4613e-08
2.27119e-09
-1.58898e-08
2.33075e-09
-1.71961e-08
2.38477e-09
-1.85288e-08
2.43327e-09
-1.98848e-08
2.4763e-09
-2.12614e-08
2.51393e-09
-2.26556e-08
2.54621e-09
-2.40645e-08
2.57321e-09
-2.54853e-08
2.595e-09
-2.69152e-08
2.61167e-09
-2.83514e-08
2.62331e-09
-2.97912e-08
2.62999e-09
-3.12321e-08
2.63181e-09
-3.26713e-08
2.62887e-09
-3.41064e-08
2.62127e-09
-3.55349e-08
2.6091e-09
-3.69542e-08
2.59247e-09
-3.83621e-08
2.57148e-09
-3.97561e-08
2.54624e-09
-4.11341e-08
2.51684e-09
-4.24938e-08
2.48341e-09
-4.38331e-08
2.44605e-09
-4.51498e-08
2.40486e-09
-4.64419e-08
2.35996e-09
-4.77076e-08
2.31147e-09
-4.89447e-08
2.25948e-09
-5.01516e-08
2.20412e-09
-5.13263e-08
2.1455e-09
-5.24672e-08
2.08372e-09
-5.35727e-08
2.01891e-09
-5.46411e-08
1.95118e-09
-5.56708e-08
1.88064e-09
-5.66604e-08
1.80742e-09
-5.76085e-08
1.73161e-09
-5.85138e-08
1.65335e-09
-5.93749e-08
1.57275e-09
-6.01906e-08
1.48992e-09
-6.09599e-08
1.40499e-09
-6.16815e-08
1.31808e-09
-6.23545e-08
1.2293e-09
-6.29779e-08
1.13877e-09
-6.35508e-08
1.04662e-09
-6.40724e-08
9.52973e-10
-6.4542e-08
8.57946e-10
-6.49588e-08
7.61666e-10
-6.53223e-08
6.64258e-10
-6.56319e-08
5.65848e-10
-6.58871e-08
4.66563e-10
-6.60875e-08
3.66532e-10
-6.62328e-08
2.65885e-10
-6.63227e-08
1.64752e-10
-6.6357e-08
6.32641e-11
-6.63356e-08
-3.84453e-11
-6.62585e-08
-1.40242e-10
-6.61256e-08
-2.41992e-10
-6.59372e-08
-3.43557e-10
-6.56933e-08
-4.44801e-10
-6.53942e-08
-5.45586e-10
-6.50402e-08
-6.4577e-10
-6.46319e-08
-7.45215e-10
-6.41695e-08
-8.43778e-10
-6.36538e-08
-9.41316e-10
-6.30854e-08
-1.03769e-09
-6.24649e-08
-1.13275e-09
-6.17931e-08
-1.22635e-09
-6.10711e-08
-1.31835e-09
-6.02996e-08
-1.4086e-09
-5.94798e-08
-1.49696e-09
-5.86128e-08
-1.58328e-09
-5.76998e-08
-1.66741e-09
-5.6742e-08
-1.74921e-09
-5.57408e-08
-1.82852e-09
-5.46977e-08
-1.90521e-09
-5.36142e-08
-1.97912e-09
-5.24918e-08
-2.05012e-09
-5.13324e-08
-2.11805e-09
-5.01375e-08
-2.18278e-09
-4.89091e-08
-2.24416e-09
-4.7649e-08
-2.30206e-09
-4.63592e-08
-2.35633e-09
-4.50419e-08
-2.40683e-09
-4.36991e-08
-2.45344e-09
-4.2333e-08
-2.49602e-09
-4.0946e-08
-2.53443e-09
-3.95403e-08
-2.56856e-09
-3.81183e-08
-2.59829e-09
-3.66826e-08
-2.62348e-09
-3.52357e-08
-2.64403e-09
-3.37801e-08
-2.65982e-09
-3.23186e-08
-2.67075e-09
-3.08538e-08
-2.67671e-09
-2.93885e-08
-2.67761e-09
-2.79255e-08
-2.67336e-09
-2.64677e-08
-2.66386e-09
-2.50179e-08
-2.64905e-09
-2.35791e-08
-2.62884e-09
-2.21543e-08
-2.60318e-09
-2.07464e-08
-2.572e-09
-1.93586e-08
-2.53527e-09
-1.79937e-08
-2.49293e-09
-1.66549e-08
-2.44497e-09
-1.53452e-08
-2.39136e-09
-1.40678e-08
-2.33211e-09
-1.28255e-08
-2.26721e-09
-1.16216e-08
-2.1967e-09
-1.04589e-08
-2.12062e-09
-9.34041e-09
-2.03902e-09
-8.26911e-09
-1.95198e-09
-7.24782e-09
-1.85962e-09
-6.27932e-09
-1.76207e-09
-5.36628e-09
-1.65949e-09
-4.51125e-09
-1.55209e-09
-3.71664e-09
-1.44012e-09
-2.98469e-09
-1.32389e-09
-2.31741e-09
-1.20376e-09
-1.71656e-09
-1.08019e-09
-1.18361e-09
-9.53712e-10
-7.1963e-10
-8.24999e-10
-3.25255e-10
-6.94857e-10
-5.67206e-13
-5.64278e-10
2.55025e-10
-4.34491e-10
4.42932e-10
-3.07014e-10
5.65572e-10
-1.83746e-10
6.26603e-10
-6.70672e-11
6.31208e-10
4.00192e-11
5.86426e-10
1.33723e-10
5.01542e-10
2.09278e-10
3.88476e-10
2.60763e-10
2.62132e-10
2.81061e-10
1.4054e-10
2.62098e-10
4.46991e-11
1.95991e-10
7.93075e-11
4.96695e-11
-1.30887e-10
1.50199e-10
-2.96179e-10
2.68979e-10
-3.75101e-10
3.80796e-10
-3.80216e-10
4.64862e-10
-3.24769e-10
5.04116e-10
-2.21181e-10
4.84845e-10
-8.02911e-11
3.96281e-10
8.88158e-11
2.30192e-10
2.78694e-10
-1.94703e-11
4.83317e-10
-3.56933e-10
6.97835e-10
-7.849e-10
9.18349e-10
-1.30482e-09
1.14173e-09
-1.9171e-09
1.36544e-09
-2.62128e-09
1.58745e-09
-3.41623e-09
1.80611e-09
-4.3002e-09
2.02008e-09
-5.27097e-09
2.22829e-09
-6.32595e-09
2.42984e-09
-7.4622e-09
2.62404e-09
-8.67655e-09
2.81032e-09
-9.96558e-09
2.98822e-09
-1.13257e-08
3.15738e-09
-1.27533e-08
3.31752e-09
-1.42444e-08
3.46842e-09
-1.57953e-08
3.60994e-09
-1.74019e-08
3.74197e-09
-1.90603e-08
3.86443e-09
-2.07664e-08
3.9773e-09
-2.25162e-08
4.08057e-09
-2.43057e-08
4.17427e-09
-2.61309e-08
4.25845e-09
-2.79877e-08
4.33316e-09
-2.98723e-08
4.39851e-09
-3.17807e-08
4.45458e-09
-3.37089e-08
4.50148e-09
-3.56533e-08
4.53935e-09
-3.76099e-08
4.5683e-09
-3.95751e-08
4.58849e-09
-4.15452e-08
4.60006e-09
-4.35165e-08
4.60316e-09
-4.54856e-08
4.59797e-09
-4.7449e-08
4.58463e-09
-4.94032e-08
4.56333e-09
-5.1345e-08
4.53424e-09
-5.3271e-08
4.49753e-09
-5.51782e-08
4.45339e-09
-5.70633e-08
4.402e-09
-5.89235e-08
4.34355e-09
-6.07557e-08
4.27822e-09
-6.2557e-08
4.20621e-09
-6.43247e-08
4.1277e-09
-6.60562e-08
4.0429e-09
-6.77487e-08
3.95199e-09
-6.93997e-08
3.85516e-09
-7.10069e-08
3.75263e-09
-7.25677e-08
3.64458e-09
-7.408e-08
3.53121e-09
-7.55415e-08
3.41273e-09
-7.69502e-08
3.28933e-09
-7.8304e-08
3.16122e-09
-7.9601e-08
3.0286e-09
-8.08393e-08
2.89167e-09
-8.20172e-08
2.75064e-09
-8.3133e-08
2.60573e-09
-8.41852e-08
2.45712e-09
-8.51721e-08
2.30504e-09
-8.60925e-08
2.14969e-09
-8.69451e-08
1.99129e-09
-8.77285e-08
1.83005e-09
-8.84417e-08
1.66619e-09
-8.90837e-08
1.49991e-09
-8.96535e-08
1.33145e-09
-9.01502e-08
1.16101e-09
-9.05732e-08
9.88825e-10
-9.09217e-08
8.15113e-10
-9.11953e-08
6.401e-10
-9.13934e-08
4.64014e-10
-9.15158e-08
2.87083e-10
-9.1562e-08
1.09539e-10
-9.15321e-08
-6.83853e-11
-9.14259e-08
-2.46455e-10
-9.12434e-08
-4.24433e-10
-9.09849e-08
-6.0208e-10
-9.06506e-08
-7.79156e-10
-9.02407e-08
-9.55417e-10
-8.97559e-08
-1.13062e-09
-8.91966e-08
-1.30452e-09
-8.85635e-08
-1.47686e-09
-8.78574e-08
-1.64741e-09
-8.70792e-08
-1.8159e-09
-8.62299e-08
-1.98208e-09
-8.53105e-08
-2.14571e-09
-8.43223e-08
-2.30652e-09
-8.32667e-08
-2.46427e-09
-8.21449e-08
-2.6187e-09
-8.09587e-08
-2.76954e-09
-7.97095e-08
-2.91655e-09
-7.83993e-08
-3.05947e-09
-7.70297e-08
-3.19805e-09
-7.56029e-08
-3.33202e-09
-7.41209e-08
-3.46114e-09
-7.25859e-08
-3.58515e-09
-7.10001e-08
-3.7038e-09
-6.93661e-08
-3.81685e-09
-6.76862e-08
-3.92404e-09
-6.59631e-08
-4.02513e-09
-6.41995e-08
-4.11989e-09
-6.23983e-08
-4.20807e-09
-6.05623e-08
-4.28944e-09
-5.86945e-08
-4.36377e-09
-5.67981e-08
-4.43085e-09
-5.48763e-08
-4.49044e-09
-5.29322e-08
-4.54234e-09
-5.09693e-08
-4.58634e-09
-4.89911e-08
-4.62224e-09
-4.70011e-08
-4.64985e-09
-4.50029e-08
-4.66899e-09
-4.30001e-08
-4.67948e-09
-4.09966e-08
-4.68115e-09
-3.89961e-08
-4.67386e-09
-3.70025e-08
-4.65745e-09
-3.50197e-08
-4.6318e-09
-3.30518e-08
-4.59678e-09
-3.11027e-08
-4.55229e-09
-2.91764e-08
-4.49824e-09
-2.72771e-08
-4.43455e-09
-2.54089e-08
-4.36115e-09
-2.35759e-08
-4.27803e-09
-2.17821e-08
-4.18514e-09
-2.00317e-08
-4.0825e-09
-1.83288e-08
-3.97013e-09
-1.66774e-08
-3.84809e-09
-1.50815e-08
-3.71647e-09
-1.35451e-08
-3.57539e-09
-1.20721e-08
-3.425e-09
-1.06662e-08
-3.26552e-09
-9.3311e-09
-3.09719e-09
-8.07025e-09
-2.92033e-09
-6.88701e-09
-2.73533e-09
-5.78448e-09
-2.54265e-09
-4.76553e-09
-2.34284e-09
-3.8327e-09
-2.13659e-09
-2.9882e-09
-1.92469e-09
-2.23377e-09
-1.70814e-09
-1.57067e-09
-1.4881e-09
-9.9954e-10
-1.26599e-09
-5.20273e-10
-1.04354e-09
-1.31896e-10
-8.2287e-10
1.67627e-10
-6.06537e-10
3.81589e-10
-3.97705e-10
5.14791e-10
-2.00267e-10
5.7383e-10
-1.90201e-11
5.67422e-10
1.4013e-10
5.0674e-10
2.69956e-10
4.05766e-10
3.61732e-10
2.81643e-10
4.05183e-10
1.55008e-10
3.88744e-10
5.05416e-11
3.00454e-10
1.29851e-10
4.74605e-11
-1.78343e-10
1.40105e-10
-3.88816e-10
2.42464e-10
-4.77456e-10
3.27149e-10
-4.64906e-10
3.71805e-10
-3.69431e-10
3.58079e-10
-2.07459e-10
2.71067e-10
6.72304e-12
9.88704e-11
2.61019e-10
-1.67777e-10
5.45344e-10
-5.35839e-10
8.51379e-10
-1.0103e-09
1.17229e-09
-1.59445e-09
1.5025e-09
-2.29017e-09
1.83744e-09
-3.09809e-09
2.17336e-09
-4.01786e-09
2.50722e-09
-5.04826e-09
2.83651e-09
-6.18736e-09
3.15918e-09
-7.43263e-09
3.47356e-09
-8.78105e-09
3.77826e-09
-1.02292e-08
4.07218e-09
-1.17732e-08
4.35439e-09
-1.34092e-08
4.62416e-09
-1.51327e-08
4.8809e-09
-1.69393e-08
5.12415e-09
-1.88245e-08
5.35354e-09
-2.07833e-08
5.56881e-09
-2.28111e-08
5.76976e-09
-2.49029e-08
5.95626e-09
-2.70539e-08
6.12823e-09
-2.9259e-08
6.28565e-09
-3.15132e-08
6.42854e-09
-3.38117e-08
6.55695e-09
-3.61495e-08
6.67096e-09
-3.85217e-08
6.77068e-09
-4.09234e-08
6.85625e-09
-4.33497e-08
6.92784e-09
-4.5796e-08
6.9856e-09
-4.82574e-08
7.02975e-09
-5.07294e-08
7.06047e-09
-5.32073e-08
7.078e-09
-5.56867e-08
7.08256e-09
-5.81631e-08
7.07439e-09
-6.06323e-08
7.05374e-09
-6.30898e-08
7.02087e-09
-6.55316e-08
6.97603e-09
-6.79536e-08
6.9195e-09
-7.03517e-08
6.85156e-09
-7.27222e-08
6.77247e-09
-7.50612e-08
6.68253e-09
-7.7365e-08
6.58202e-09
-7.963e-08
6.47122e-09
-8.18527e-08
6.35043e-09
-8.40298e-08
6.21995e-09
-8.61579e-08
6.08008e-09
-8.82338e-08
5.9311e-09
-9.02545e-08
5.77334e-09
-9.2217e-08
5.60708e-09
-9.41184e-08
5.43263e-09
-9.5956e-08
5.25031e-09
-9.77271e-08
5.06042e-09
-9.94292e-08
4.86327e-09
-1.0106e-07
4.65918e-09
-1.02617e-07
4.44845e-09
-1.04097e-07
4.23142e-09
-1.055e-07
4.00839e-09
-1.06823e-07
3.77968e-09
-1.08063e-07
3.54563e-09
-1.0922e-07
3.30655e-09
-1.10291e-07
3.06277e-09
-1.11276e-07
2.81461e-09
-1.12172e-07
2.56242e-09
-1.12979e-07
2.30653e-09
-1.13695e-07
2.04726e-09
-1.14319e-07
1.78497e-09
-1.1485e-07
1.51999e-09
-1.15287e-07
1.25266e-09
-1.15631e-07
9.83347e-10
-1.15879e-07
7.12386e-10
-1.16032e-07
4.40135e-10
-1.16089e-07
1.66949e-10
-1.16051e-07
-1.06811e-10
-1.15917e-07
-3.80784e-10
-1.15686e-07
-6.54604e-10
-1.15361e-07
-9.27902e-10
-1.1494e-07
-1.20031e-09
-1.14423e-07
-1.47145e-09
-1.13813e-07
-1.74095e-09
-1.13109e-07
-2.00842e-09
-1.12313e-07
-2.27349e-09
-1.11424e-07
-2.53578e-09
-1.10445e-07
-2.79489e-09
-1.09377e-07
-3.05045e-09
-1.08221e-07
-3.30205e-09
-1.06978e-07
-3.54932e-09
-1.0565e-07
-3.79185e-09
-1.0424e-07
-4.02926e-09
-1.02748e-07
-4.26115e-09
-1.01177e-07
-4.48713e-09
-9.95301e-08
-4.70681e-09
-9.78083e-08
-4.9198e-09
-9.60146e-08
-5.1257e-09
-9.41516e-08
-5.32413e-09
-9.22221e-08
-5.5147e-09
-9.02289e-08
-5.69702e-09
-8.8175e-08
-5.87073e-09
-8.60636e-08
-6.03542e-09
-8.3898e-08
-6.19075e-09
-8.16816e-08
-6.33633e-09
-7.94178e-08
-6.47181e-09
-7.71104e-08
-6.59683e-09
-7.47632e-08
-6.71104e-09
-7.23799e-08
-6.8141e-09
-6.99647e-08
-6.90568e-09
-6.75215e-08
-6.98546e-09
-6.50547e-08
-7.05313e-09
-6.25686e-08
-7.10837e-09
-6.00675e-08
-7.15091e-09
-5.75561e-08
-7.18047e-09
-5.50388e-08
-7.19678e-09
-5.25203e-08
-7.19959e-09
-5.00055e-08
-7.18868e-09
-4.74991e-08
-7.16383e-09
-4.50061e-08
-7.12484e-09
-4.25313e-08
-7.07155e-09
-4.00798e-08
-7.00378e-09
-3.76567e-08
-6.92143e-09
-3.52668e-08
-6.82437e-09
-3.29155e-08
-6.71253e-09
-3.06076e-08
-6.58587e-09
-2.83484e-08
-6.44437e-09
-2.61428e-08
-6.28805e-09
-2.3996e-08
-6.11696e-09
-2.19129e-08
-5.93123e-09
-1.98984e-08
-5.73099e-09
-1.79573e-08
-5.51645e-09
-1.60944e-08
-5.28789e-09
-1.43143e-08
-5.04564e-09
-1.26213e-08
-4.79013e-09
-1.10198e-08
-4.52186e-09
-9.5137e-09
-4.24145e-09
-8.10669e-09
-3.94966e-09
-6.80218e-09
-3.64736e-09
-5.60315e-09
-3.33562e-09
-4.51213e-09
-3.01571e-09
-3.53113e-09
-2.68915e-09
-2.66148e-09
-2.35774e-09
-1.90379e-09
-2.02368e-09
-1.25778e-09
-1.68955e-09
-7.22123e-10
-1.35852e-09
-2.94281e-10
-1.03438e-09
2.97263e-11
-7.21711e-10
2.55549e-10
-4.26089e-10
3.90779e-10
-1.54251e-10
4.45246e-10
8.56654e-11
4.31322e-10
2.83886e-10
3.64252e-10
4.28805e-10
2.62559e-10
5.06871e-10
1.48579e-10
5.02728e-10
4.94068e-11
3.99627e-10
1.79259e-10
4.03561e-11
-2.18699e-10
1.14068e-10
-4.62532e-10
1.85396e-10
-5.48791e-10
2.26187e-10
-5.05705e-10
2.13413e-10
-3.5666e-10
1.28118e-10
-1.22163e-10
-4.51968e-11
1.80043e-10
-3.1903e-10
5.34858e-10
-7.0324e-10
9.29556e-10
-1.20535e-09
1.35348e-09
-1.83083e-09
1.79777e-09
-2.58338e-09
2.25505e-09
-3.46516e-09
2.71922e-09
-4.477e-09
3.18521e-09
-5.61861e-09
3.64883e-09
-6.88872e-09
4.10662e-09
-8.28523e-09
4.5557e-09
-9.80537e-09
4.9937e-09
-1.14458e-08
5.41866e-09
-1.32025e-08
5.82896e-09
-1.50714e-08
6.22327e-09
-1.70478e-08
6.60052e-09
-1.91267e-08
6.95982e-09
-2.13031e-08
7.30048e-09
-2.35715e-08
7.62196e-09
-2.59265e-08
7.92381e-09
-2.83624e-08
8.20574e-09
-3.08737e-08
8.46752e-09
-3.34545e-08
8.70902e-09
-3.6099e-08
8.93016e-09
-3.88014e-08
9.13095e-09
-4.15559e-08
9.31143e-09
-4.43567e-08
9.47171e-09
-4.71979e-08
9.6119e-09
-5.00738e-08
9.7322e-09
-5.29788e-08
9.8328e-09
-5.59071e-08
9.91394e-09
-5.88532e-08
9.97587e-09
-6.18116e-08
1.00189e-08
-6.47769e-08
1.00432e-08
-6.77436e-08
1.00493e-08
-7.07066e-08
1.00373e-08
-7.36606e-08
1.00078e-08
-7.66006e-08
9.96089e-09
-7.95217e-08
9.8971e-09
-8.24189e-08
9.81675e-09
-8.52876e-08
9.72023e-09
-8.81231e-08
9.60793e-09
-9.09208e-08
9.48025e-09
-9.36763e-08
9.33758e-09
-9.63855e-08
9.18034e-09
-9.9044e-08
9.00893e-09
-1.01648e-07
8.82378e-09
-1.04193e-07
8.6253e-09
-1.06676e-07
8.41391e-09
-1.09093e-07
8.19004e-09
-1.1144e-07
7.95412e-09
-1.13714e-07
7.70659e-09
-1.15911e-07
7.44787e-09
-1.18029e-07
7.17842e-09
-1.20064e-07
6.89866e-09
-1.22014e-07
6.60904e-09
-1.23876e-07
6.31002e-09
-1.25647e-07
6.00204e-09
-1.27324e-07
5.68554e-09
-1.28905e-07
5.361e-09
-1.30388e-07
5.02886e-09
-1.31771e-07
4.68959e-09
-1.33052e-07
4.34365e-09
-1.34229e-07
3.99151e-09
-1.353e-07
3.63364e-09
-1.36264e-07
3.27052e-09
-1.3712e-07
2.90263e-09
-1.37865e-07
2.53045e-09
-1.385e-07
2.15446e-09
-1.39022e-07
1.77516e-09
-1.39432e-07
1.39304e-09
-1.39728e-07
1.00859e-09
-1.3991e-07
6.22332e-10
-1.39978e-07
2.34758e-10
-1.39931e-07
-1.53618e-10
-1.3977e-07
-5.42281e-10
-1.39494e-07
-9.30711e-10
-1.39103e-07
-1.31839e-09
-1.38599e-07
-1.70478e-09
-1.37981e-07
-2.08936e-09
-1.3725e-07
-2.47159e-09
-1.36408e-07
-2.85094e-09
-1.35454e-07
-3.22686e-09
-1.34391e-07
-3.5988e-09
-1.3322e-07
-3.96624e-09
-1.31942e-07
-4.3286e-09
-1.30558e-07
-4.68535e-09
-1.29072e-07
-5.03592e-09
-1.27484e-07
-5.37976e-09
-1.25797e-07
-5.71633e-09
-1.24013e-07
-6.04506e-09
-1.22135e-07
-6.36539e-09
-1.20165e-07
-6.67677e-09
-1.18106e-07
-6.97865e-09
-1.15961e-07
-7.27048e-09
-1.13733e-07
-7.5517e-09
-1.11426e-07
-7.82178e-09
-1.09043e-07
-8.08016e-09
-1.06588e-07
-8.32631e-09
-1.04063e-07
-8.55971e-09
-1.01474e-07
-8.77982e-09
-9.88245e-08
-8.98612e-09
-9.61182e-08
-9.17812e-09
-9.33597e-08
-9.3553e-09
-9.05536e-08
-9.51719e-09
-8.77044e-08
-9.6633e-09
-8.48169e-08
-9.79316e-09
-8.1896e-08
-9.90633e-09
-7.89468e-08
-1.00024e-08
-7.59743e-08
-1.00808e-08
-7.29839e-08
-1.01414e-08
-6.99808e-08
-1.01836e-08
-6.69705e-08
-1.0207e-08
-6.39587e-08
-1.02115e-08
-6.09508e-08
-1.01965e-08
-5.79527e-08
-1.01619e-08
-5.49702e-08
-1.01074e-08
-5.2009e-08
-1.00327e-08
-4.90751e-08
-9.93767e-09
-4.61744e-08
-9.82209e-09
-4.3313e-08
-9.68582e-09
-4.04967e-08
-9.5288e-09
-3.77316e-08
-9.35095e-09
-3.50237e-08
-9.15229e-09
-3.23789e-08
-8.93286e-09
-2.98031e-08
-8.69277e-09
-2.73021e-08
-8.4322e-09
-2.48817e-08
-8.15137e-09
-2.25476e-08
-7.85062e-09
-2.03051e-08
-7.53036e-09
-1.81596e-08
-7.19109e-09
-1.61163e-08
-6.83345e-09
-1.418e-08
-6.45819e-09
-1.23552e-08
-6.06622e-09
-1.06462e-08
-5.65863e-09
-9.05688e-09
-5.23672e-09
-7.59049e-09
-4.802e-09
-6.24989e-09
-4.35631e-09
-5.03725e-09
-3.90179e-09
-3.95399e-09
-3.44099e-09
-3.00071e-09
-2.97696e-09
-2.17696e-09
-2.5133e-09
-1.48117e-09
-2.05431e-09
-9.10415e-10
-1.60513e-09
-4.60236e-10
-1.17189e-09
-1.24417e-10
-7.6191e-10
1.05269e-10
-3.83938e-10
2.3932e-10
-4.83829e-11
2.90791e-10
2.32424e-10
2.75614e-10
4.43988e-10
2.13039e-10
5.69444e-10
1.26245e-10
5.89519e-10
4.33652e-11
4.82506e-10
2.22624e-10
2.98977e-11
-2.48595e-10
7.63816e-11
-5.09021e-10
1.05184e-10
-5.77601e-10
8.85901e-11
-4.89116e-10
3.70213e-12
-2.7177e-10
-1.68445e-10
4.99879e-11
-4.43453e-10
4.55056e-10
-8.34002e-10
9.25408e-10
-1.35017e-09
1.44573e-09
-1.99974e-09
2.00305e-09
-2.78843e-09
2.58646e-09
-3.72016e-09
3.18678e-09
-4.79723e-09
3.79629e-09
-6.02058e-09
4.40855e-09
-7.38991e-09
5.01817e-09
-8.9039e-09
5.62061e-09
-1.05603e-08
6.21211e-09
-1.23561e-08
6.78951e-09
-1.42877e-08
7.35019e-09
-1.63507e-08
7.89197e-09
-1.85404e-08
8.41305e-09
-2.08519e-08
8.91193e-09
-2.32794e-08
9.38741e-09
-2.58175e-08
9.8385e-09
-2.84599e-08
1.02644e-08
-3.12007e-08
1.06646e-08
-3.40334e-08
1.10385e-08
-3.69516e-08
1.13858e-08
-3.99489e-08
1.17063e-08
-4.30187e-08
1.19999e-08
-4.61543e-08
1.22666e-08
-4.93491e-08
1.25063e-08
-5.25966e-08
1.27192e-08
-5.589e-08
1.29054e-08
-5.9223e-08
1.30651e-08
-6.25888e-08
1.31986e-08
-6.59811e-08
1.33062e-08
-6.93934e-08
1.33882e-08
-7.28195e-08
1.3445e-08
-7.62532e-08
1.34769e-08
-7.96882e-08
1.34843e-08
-8.31185e-08
1.34677e-08
-8.65382e-08
1.34275e-08
-8.99415e-08
1.33642e-08
-9.33226e-08
1.32782e-08
-9.6676e-08
1.31701e-08
-9.99961e-08
1.30404e-08
-1.03278e-07
1.28895e-08
-1.06515e-07
1.2718e-08
-1.09704e-07
1.25265e-08
-1.12839e-07
1.23154e-08
-1.15916e-07
1.20853e-08
-1.18929e-07
1.18368e-08
-1.21874e-07
1.15704e-08
-1.24747e-07
1.12867e-08
-1.27543e-07
1.09863e-08
-1.30259e-07
1.06697e-08
-1.3289e-07
1.03376e-08
-1.35432e-07
9.99041e-09
-1.37883e-07
9.62883e-09
-1.40237e-07
9.25343e-09
-1.42493e-07
8.86481e-09
-1.44647e-07
8.46356e-09
-1.46695e-07
8.05029e-09
-1.48635e-07
7.6256e-09
-1.50464e-07
7.19012e-09
-1.5218e-07
6.74444e-09
-1.53779e-07
6.2892e-09
-1.55261e-07
5.82502e-09
-1.56622e-07
5.35252e-09
-1.5786e-07
4.87235e-09
-1.58975e-07
4.38513e-09
-1.59964e-07
3.89152e-09
-1.60826e-07
3.39217e-09
-1.61559e-07
2.88771e-09
-1.62162e-07
2.37883e-09
-1.62636e-07
1.86617e-09
-1.62977e-07
1.35042e-09
-1.63187e-07
8.32239e-10
-1.63265e-07
3.12316e-10
-1.6321e-07
-2.08666e-10
-1.63022e-07
-7.30014e-10
-1.62702e-07
-1.25103e-09
-1.62249e-07
-1.77101e-09
-1.61665e-07
-2.28926e-09
-1.60949e-07
-2.80505e-09
-1.60103e-07
-3.31767e-09
-1.59127e-07
-3.8264e-09
-1.58024e-07
-4.33051e-09
-1.56793e-07
-4.82927e-09
-1.55438e-07
-5.32196e-09
-1.53958e-07
-5.80783e-09
-1.52358e-07
-6.28614e-09
-1.50637e-07
-6.75616e-09
-1.488e-07
-7.21714e-09
-1.46848e-07
-7.66834e-09
-1.44784e-07
-8.10901e-09
-1.42611e-07
-8.53841e-09
-1.40332e-07
-8.9558e-09
-1.3795e-07
-9.36044e-09
-1.35469e-07
-9.75159e-09
-1.32892e-07
-1.01285e-08
-1.30224e-07
-1.04905e-08
-1.27467e-07
-1.08368e-08
-1.24626e-07
-1.11667e-08
-1.21707e-07
-1.14795e-08
-1.18712e-07
-1.17746e-08
-1.15647e-07
-1.20511e-08
-1.12517e-07
-1.23085e-08
-1.09326e-07
-1.2546e-08
-1.0608e-07
-1.27631e-08
-1.02784e-07
-1.2959e-08
-9.9444e-08
-1.31333e-08
-9.60652e-08
-1.32852e-08
-9.26534e-08
-1.34142e-08
-8.92145e-08
-1.35197e-08
-8.57546e-08
-1.36013e-08
-8.22798e-08
-1.36583e-08
-7.87964e-08
-1.36904e-08
-7.53108e-08
-1.36971e-08
-7.18295e-08
-1.36779e-08
-6.83589e-08
-1.36325e-08
-6.49058e-08
-1.35605e-08
-6.14768e-08
-1.34617e-08
-5.80786e-08
-1.33358e-08
-5.47182e-08
-1.31826e-08
-5.14022e-08
-1.30018e-08
-4.81375e-08
-1.27935e-08
-4.4931e-08
-1.25575e-08
-4.17894e-08
-1.22939e-08
-3.87195e-08
-1.20028e-08
-3.57279e-08
-1.16843e-08
-3.28214e-08
-1.13387e-08
-3.00064e-08
-1.09664e-08
-2.72892e-08
-1.05678e-08
-2.46761e-08
-1.01435e-08
-2.21729e-08
-9.69425e-09
-1.97855e-08
-9.22089e-09
-1.75192e-08
-8.72448e-09
-1.53791e-08
-8.20629e-09
-1.337e-08
-7.66778e-09
-1.1496e-08
-7.11074e-09
-9.76075e-09
-6.53721e-09
-8.16741e-09
-5.94965e-09
-6.71829e-09
-5.35091e-09
-5.41489e-09
-4.74439e-09
-4.2578e-09
-4.13405e-09
-3.24651e-09
-3.52459e-09
-2.37928e-09
-2.92155e-09
-1.65295e-09
-2.33146e-09
-1.06279e-09
-1.76205e-09
-6.02251e-10
-1.22245e-09
-2.62791e-10
-7.234e-10
-3.35981e-11
-2.77577e-10
9.8653e-11
1.00174e-10
1.50118e-10
3.92525e-10
1.40203e-10
5.79359e-10
9.21462e-11
6.37571e-10
3.3917e-11
5.40734e-10
2.5654e-10
1.71804e-11
-2.65778e-10
3.03676e-11
-5.22209e-10
7.82444e-12
-5.55058e-10
-7.68151e-11
-4.04476e-10
-2.45639e-10
-1.02943e-10
-5.17101e-10
3.21453e-10
-9.06492e-10
8.44449e-10
-1.42631e-09
1.44523e-09
-2.08657e-09
2.10598e-09
-2.89502e-09
2.8115e-09
-3.85742e-09
3.54886e-09
-4.97771e-09
4.30707e-09
-6.25823e-09
5.07682e-09
-7.6999e-09
5.85023e-09
-9.30238e-09
6.62064e-09
-1.10642e-08
7.38245e-09
-1.2983e-08
8.13091e-09
-1.50556e-08
8.86204e-09
-1.72778e-08
9.57248e-09
-1.96453e-08
1.02594e-08
-2.21528e-08
1.09206e-08
-2.47949e-08
1.15539e-08
-2.75654e-08
1.21579e-08
-3.04582e-08
1.27313e-08
-3.34667e-08
1.32729e-08
-3.65841e-08
1.3782e-08
-3.98034e-08
1.42578e-08
-4.31177e-08
1.47e-08
-4.65196e-08
1.51082e-08
-5.00019e-08
1.54822e-08
-5.35573e-08
1.58219e-08
-5.71784e-08
1.61274e-08
-6.08579e-08
1.63986e-08
-6.45883e-08
1.66358e-08
-6.83624e-08
1.68392e-08
-7.2173e-08
1.70092e-08
-7.60127e-08
1.71459e-08
-7.98744e-08
1.725e-08
-8.37511e-08
1.73217e-08
-8.76358e-08
1.73615e-08
-9.15215e-08
1.737e-08
-9.54015e-08
1.73477e-08
-9.92692e-08
1.72952e-08
-1.03118e-07
1.72129e-08
-1.06941e-07
1.71016e-08
-1.10733e-07
1.69619e-08
-1.14487e-07
1.67944e-08
-1.18197e-07
1.65997e-08
-1.21858e-07
1.63785e-08