/*--------------------------------*- C++ -*----------------------------------*\
  =========                 |
  \\      /  F ield         | OpenFOAM: The Open Source CFD Toolbox
   \\    /   O peration     | Website:  https://openfoam.org
    \\  /    A nd           | Version:  7
     \\/     M anipulation  |
\*---------------------------------------------------------------------------*/
FoamFile
{
    version     2.0;
    format      ascii;
    class       volVectorField;
    location    "0.2875";
    object      U;
}
// * * * * * * * * * * * * * * * * * * * * * * * * * * * * * * * * * * * * * //

dimensions      [0 1 -1 0 0 0 0];

internalField   nonuniform List<vector> 
25600
(
(1.73164e-07 -2.12606e-07 0)
(2.82859e-06 -1.79836e-06 0)
(9.07012e-06 -2.83474e-06 0)
(1.69223e-05 -3.20682e-06 0)
(2.48794e-05 -3.12251e-06 0)
(3.19926e-05 -2.74407e-06 0)
(3.76089e-05 -2.17919e-06 0)
(4.12787e-05 -1.49866e-06 0)
(4.27038e-05 -7.48731e-07 0)
(4.16916e-05 4.02729e-08 0)
(3.81244e-05 8.47792e-07 0)
(3.19396e-05 1.65964e-06 0)
(2.31156e-05 2.46579e-06 0)
(1.1662e-05 3.25904e-06 0)
(-2.38771e-06 4.03409e-06 0)
(-1.89823e-05 4.78696e-06 0)
(-3.80564e-05 5.51463e-06 0)
(-5.9534e-05 6.21488e-06 0)
(-8.33302e-05 6.88612e-06 0)
(-0.000109354 7.52717e-06 0)
(-0.000137508 8.13716e-06 0)
(-0.000167692 8.7155e-06 0)
(-0.000199804 9.26179e-06 0)
(-0.000233738 9.77581e-06 0)
(-0.000269387 1.02575e-05 0)
(-0.000306643 1.07069e-05 0)
(-0.000345399 1.11242e-05 0)
(-0.000385546 1.15095e-05 0)
(-0.000426976 1.18632e-05 0)
(-0.000469583 1.21856e-05 0)
(-0.000513259 1.24771e-05 0)
(-0.000557898 1.2738e-05 0)
(-0.000603398 1.29689e-05 0)
(-0.000649654 1.31702e-05 0)
(-0.000696564 1.33424e-05 0)
(-0.000744028 1.3486e-05 0)
(-0.000791948 1.36015e-05 0)
(-0.000840227 1.36896e-05 0)
(-0.000888769 1.37507e-05 0)
(-0.000937481 1.37854e-05 0)
(-0.000986271 1.37943e-05 0)
(-0.00103505 1.3778e-05 0)
(-0.00108373 1.3737e-05 0)
(-0.00113222 1.36719e-05 0)
(-0.00118045 1.35834e-05 0)
(-0.00122832 1.3472e-05 0)
(-0.00127576 1.33383e-05 0)
(-0.0013227 1.3183e-05 0)
(-0.00136904 1.30065e-05 0)
(-0.00141473 1.28095e-05 0)
(-0.0014597 1.25926e-05 0)
(-0.00150386 1.23564e-05 0)
(-0.00154715 1.21015e-05 0)
(-0.00158951 1.18285e-05 0)
(-0.00163087 1.1538e-05 0)
(-0.00167118 1.12306e-05 0)
(-0.00171037 1.09069e-05 0)
(-0.00174839 1.05674e-05 0)
(-0.00178517 1.02128e-05 0)
(-0.00182068 9.84367e-06 0)
(-0.00185486 9.46063e-06 0)
(-0.00188765 9.06425e-06 0)
(-0.00191902 8.65515e-06 0)
(-0.00194891 8.23391e-06 0)
(-0.0019773 7.80115e-06 0)
(-0.00200413 7.35748e-06 0)
(-0.00202937 6.90351e-06 0)
(-0.00205298 6.43985e-06 0)
(-0.00207494 5.96714e-06 0)
(-0.0020952 5.48598e-06 0)
(-0.00211374 4.997e-06 0)
(-0.00213054 4.50082e-06 0)
(-0.00214557 3.99807e-06 0)
(-0.0021588 3.4894e-06 0)
(-0.00217022 2.97545e-06 0)
(-0.00217981 2.45688e-06 0)
(-0.00218756 1.93434e-06 0)
(-0.00219345 1.40851e-06 0)
(-0.00219747 8.80045e-07 0)
(-0.00219961 3.49622e-07 0)
(-0.00219988 -1.82081e-07 0)
(-0.00219825 -7.14379e-07 0)
(-0.00219475 -1.24658e-06 0)
(-0.00218936 -1.77797e-06 0)
(-0.00218209 -2.30785e-06 0)
(-0.00217294 -2.83549e-06 0)
(-0.00216194 -3.36016e-06 0)
(-0.00214908 -3.88114e-06 0)
(-0.00213439 -4.3977e-06 0)
(-0.00211788 -4.9091e-06 0)
(-0.00209958 -5.41459e-06 0)
(-0.00207949 -5.91342e-06 0)
(-0.00205766 -6.40482e-06 0)
(-0.0020341 -6.88805e-06 0)
(-0.00200885 -7.36232e-06 0)
(-0.00198194 -7.82686e-06 0)
(-0.00195341 -8.2809e-06 0)
(-0.0019233 -8.72367e-06 0)
(-0.00189164 -9.1544e-06 0)
(-0.00185849 -9.5723e-06 0)
(-0.00182389 -9.9766e-06 0)
(-0.00178788 -1.03665e-05 0)
(-0.00175053 -1.07413e-05 0)
(-0.00171188 -1.11001e-05 0)
(-0.001672 -1.14423e-05 0)
(-0.00163095 -1.17669e-05 0)
(-0.00158878 -1.20734e-05 0)
(-0.00154557 -1.23608e-05 0)
(-0.00150138 -1.26286e-05 0)
(-0.00145629 -1.28759e-05 0)
(-0.00141036 -1.3102e-05 0)
(-0.00136368 -1.33062e-05 0)
(-0.00131632 -1.34878e-05 0)
(-0.00126837 -1.3646e-05 0)
(-0.0012199 -1.37804e-05 0)
(-0.001171 -1.38901e-05 0)
(-0.00112177 -1.39745e-05 0)
(-0.00107228 -1.40331e-05 0)
(-0.00102263 -1.40652e-05 0)
(-0.000972923 -1.40702e-05 0)
(-0.000923244 -1.40475e-05 0)
(-0.000873694 -1.39968e-05 0)
(-0.000824373 -1.39174e-05 0)
(-0.000775379 -1.38088e-05 0)
(-0.000726817 -1.36707e-05 0)
(-0.00067879 -1.35027e-05 0)
(-0.000631401 -1.33042e-05 0)
(-0.000584757 -1.30751e-05 0)
(-0.000538965 -1.2815e-05 0)
(-0.000494131 -1.25236e-05 0)
(-0.000450364 -1.22008e-05 0)
(-0.000407771 -1.18463e-05 0)
(-0.000366461 -1.14601e-05 0)
(-0.000326542 -1.10422e-05 0)
(-0.000288121 -1.05926e-05 0)
(-0.000251305 -1.01114e-05 0)
(-0.0002162 -9.59872e-06 0)
(-0.000182909 -9.05497e-06 0)
(-0.000151534 -8.48058e-06 0)
(-0.000122175 -7.87613e-06 0)
(-9.4927e-05 -7.24239e-06 0)
(-6.98821e-05 -6.58035e-06 0)
(-4.71269e-05 -5.8913e-06 0)
(-2.67413e-05 -5.17687e-06 0)
(-8.79765e-06 -4.43911e-06 0)
(6.64163e-06 -3.68065e-06 0)
(1.95263e-05 -2.90487e-06 0)
(2.98216e-05 -2.11616e-06 0)
(3.75118e-05 -1.32029e-06 0)
(4.2606e-05 -5.2502e-07 0)
(4.51454e-05 2.59196e-07 0)
(4.52129e-05 1.01786e-06 0)
(4.2947e-05 1.73019e-06 0)
(3.85618e-05 2.3655e-06 0)
(3.23771e-05 2.87732e-06 0)
(2.48605e-05 3.1954e-06 0)
(1.6678e-05 3.21521e-06 0)
(8.78097e-06 2.78048e-06 0)
(2.645e-06 1.69833e-06 0)
(1.22737e-07 1.23265e-07 0)
(1.77435e-06 -2.8886e-06 0)
(9.37497e-06 -9.42047e-06 0)
(2.31286e-05 -1.34197e-05 0)
(3.93633e-05 -1.47251e-05 0)
(5.52359e-05 -1.39572e-05 0)
(6.87537e-05 -1.16868e-05 0)
(7.83774e-05 -8.35486e-06 0)
(8.29503e-05 -4.28978e-06 0)
(8.16418e-05 2.68194e-07 0)
(7.38745e-05 5.14425e-06 0)
(5.9265e-05 1.02096e-05 0)
(3.75806e-05 1.53683e-05 0)
(8.70622e-06 2.05479e-05 0)
(-2.73816e-05 2.56934e-05 0)
(-7.06343e-05 3.07623e-05 0)
(-0.000120947 3.57216e-05 0)
(-0.000178169 4.05456e-05 0)
(-0.000242115 4.52141e-05 0)
(-0.000312571 4.97116e-05 0)
(-0.000389298 5.40259e-05 0)
(-0.000472044 5.81477e-05 0)
(-0.000560538 6.20697e-05 0)
(-0.0006545 6.57867e-05 0)
(-0.000753644 6.92948e-05 0)
(-0.000857674 7.25913e-05 0)
(-0.000966291 7.56749e-05 0)
(-0.00107919 7.85449e-05 0)
(-0.00119608 8.12012e-05 0)
(-0.00131665 8.36445e-05 0)
(-0.00144059 8.5876e-05 0)
(-0.0015676 8.78971e-05 0)
(-0.00169739 8.971e-05 0)
(-0.00182965 9.13168e-05 0)
(-0.0019641 9.27202e-05 0)
(-0.00210043 9.39229e-05 0)
(-0.00223837 9.4928e-05 0)
(-0.00237763 9.57387e-05 0)
(-0.00251792 9.63582e-05 0)
(-0.00265898 9.67901e-05 0)
(-0.00280053 9.70378e-05 0)
(-0.00294232 9.71051e-05 0)
(-0.00308407 9.69958e-05 0)
(-0.00322554 9.67135e-05 0)
(-0.00336647 9.62623e-05 0)
(-0.00350663 9.56461e-05 0)
(-0.00364577 9.48688e-05 0)
(-0.00378367 9.39344e-05 0)
(-0.00392009 9.2847e-05 0)
(-0.00405482 9.16106e-05 0)
(-0.00418764 9.02294e-05 0)
(-0.00431835 8.87074e-05 0)
(-0.00444673 8.70488e-05 0)
(-0.00457259 8.52578e-05 0)
(-0.00469575 8.33385e-05 0)
(-0.00481601 8.12951e-05 0)
(-0.0049332 7.91317e-05 0)
(-0.00504715 7.68526e-05 0)
(-0.00515769 7.44619e-05 0)
(-0.00526465 7.1964e-05 0)
(-0.00536789 6.93629e-05 0)
(-0.00546726 6.6663e-05 0)
(-0.00556261 6.38686e-05 0)
(-0.00565382 6.09838e-05 0)
(-0.00574074 5.8013e-05 0)
(-0.00582326 5.49605e-05 0)
(-0.00590126 5.18307e-05 0)
(-0.00597463 4.86278e-05 0)
(-0.00604328 4.53564e-05 0)
(-0.00610709 4.20209e-05 0)
(-0.00616598 3.86255e-05 0)
(-0.00621986 3.51749e-05 0)
(-0.00626867 3.16735e-05 0)
(-0.00631232 2.81259e-05 0)
(-0.00635075 2.45366e-05 0)
(-0.00638391 2.09102e-05 0)
(-0.00641174 1.72514e-05 0)
(-0.00643421 1.35649e-05 0)
(-0.00645127 9.85552e-06 0)
(-0.00646289 6.1279e-06 0)
(-0.00646906 2.3869e-06 0)
(-0.00646975 -1.36262e-06 0)
(-0.00646496 -5.11576e-06 0)
(-0.00645468 -8.86758e-06 0)
(-0.00643893 -1.26131e-05 0)
(-0.00641771 -1.63471e-05 0)
(-0.00639105 -2.00647e-05 0)
(-0.00635898 -2.37607e-05 0)
(-0.00632153 -2.74299e-05 0)
(-0.00627874 -3.10672e-05 0)
(-0.00623066 -3.46672e-05 0)
(-0.00617736 -3.82247e-05 0)
(-0.0061189 -4.17345e-05 0)
(-0.00605536 -4.5191e-05 0)
(-0.00598681 -4.85891e-05 0)
(-0.00591336 -5.19231e-05 0)
(-0.00583508 -5.51879e-05 0)
(-0.0057521 -5.83779e-05 0)
(-0.00566452 -6.14876e-05 0)
(-0.00557247 -6.45118e-05 0)
(-0.00547608 -6.74448e-05 0)
(-0.00537547 -7.02814e-05 0)
(-0.00527081 -7.3016e-05 0)
(-0.00516224 -7.56433e-05 0)
(-0.00504992 -7.81578e-05 0)
(-0.00493403 -8.05544e-05 0)
(-0.00481473 -8.28275e-05 0)
(-0.00469221 -8.49721e-05 0)
(-0.00456667 -8.69828e-05 0)
(-0.00443831 -8.88546e-05 0)
(-0.00430732 -9.05824e-05 0)
(-0.00417392 -9.21613e-05 0)
(-0.00403834 -9.35862e-05 0)
(-0.0039008 -9.48525e-05 0)
(-0.00376154 -9.59554e-05 0)
(-0.0036208 -9.68905e-05 0)
(-0.00347882 -9.76533e-05 0)
(-0.00333586 -9.82394e-05 0)
(-0.00319218 -9.86449e-05 0)
(-0.00304805 -9.88656e-05 0)
(-0.00290373 -9.88978e-05 0)
(-0.0027595 -9.87379e-05 0)
(-0.00261564 -9.83826e-05 0)
(-0.00247244 -9.78285e-05 0)
(-0.00233019 -9.70729e-05 0)
(-0.00218918 -9.61129e-05 0)
(-0.00204971 -9.49462e-05 0)
(-0.00191208 -9.35706e-05 0)
(-0.00177658 -9.19844e-05 0)
(-0.00164353 -9.01859e-05 0)
(-0.00151324 -8.81741e-05 0)
(-0.001386 -8.59483e-05 0)
(-0.00126212 -8.35083e-05 0)
(-0.00114191 -8.08543e-05 0)
(-0.00102568 -7.79871e-05 0)
(-0.000913722 -7.4908e-05 0)
(-0.000806341 -7.16192e-05 0)
(-0.000703829 -6.81236e-05 0)
(-0.000606476 -6.4425e-05 0)
(-0.00051456 -6.05285e-05 0)
(-0.000428353 -5.64403e-05 0)
(-0.000348114 -5.21682e-05 0)
(-0.000274089 -4.77219e-05 0)
(-0.000206503 -4.31133e-05 0)
(-0.000145564 -3.83571e-05 0)
(-9.14504e-05 -3.34716e-05 0)
(-4.43116e-05 -2.84793e-05 0)
(-4.25637e-06 -2.34082e-05 0)
(2.8654e-05 -1.82938e-05 0)
(5.44178e-05 -1.31806e-05 0)
(7.31076e-05 -8.12591e-06 0)
(8.48894e-05 -3.2037e-06 0)
(9.00476e-05 1.4892e-06 0)
(8.90167e-05 5.82393e-06 0)
(8.2424e-05 9.6266e-06 0)
(7.11461e-05 1.26604e-05 0)
(5.63757e-05 1.46045e-05 0)
(3.96709e-05 1.50355e-05 0)
(2.30147e-05 1.3415e-05 0)
(9.18236e-06 9.18654e-06 0)
(1.69474e-06 2.64404e-06 0)
(2.82332e-06 -9.09909e-06 0)
(1.34008e-05 -2.31673e-05 0)
(3.10579e-05 -3.10655e-05 0)
(5.08172e-05 -3.31218e-05 0)
(6.90783e-05 -3.04359e-05 0)
(8.32817e-05 -2.41018e-05 0)
(9.13451e-05 -1.50473e-05 0)
(9.16276e-05 -4.01659e-06 0)
(8.28979e-05 8.41001e-06 0)
(6.42616e-05 2.17846e-05 0)
(3.50972e-05 3.57625e-05 0)
(-4.99649e-06 5.00771e-05 0)
(-5.62424e-05 6.45214e-05 0)
(-0.000118721 7.89335e-05 0)
(-0.000192396 9.31857e-05 0)
(-0.00027714 0.000107177 0)
(-0.000372751 0.000120828 0)
(-0.000478964 0.000134074 0)
(-0.000595466 0.000146866 0)
(-0.000721905 0.000159162 0)
(-0.000857896 0.000170933 0)
(-0.00100303 0.000182153 0)
(-0.00115687 0.000192803 0)
(-0.00131898 0.000202869 0)
(-0.0014889 0.000212341 0)
(-0.00166615 0.000221212 0)
(-0.00185026 0.000229477 0)
(-0.00204077 0.000237136 0)
(-0.00223717 0.000244187 0)
(-0.002439 0.000250632 0)
(-0.00264577 0.000256475 0)
(-0.002857 0.000261721 0)
(-0.00307222 0.000266373 0)
(-0.00329095 0.00027044 0)
(-0.00351272 0.000273928 0)
(-0.00373708 0.000276845 0)
(-0.00396357 0.000279199 0)
(-0.00419173 0.000281 0)
(-0.00442112 0.000282257 0)
(-0.00465132 0.000282979 0)
(-0.00488188 0.000283178 0)
(-0.00511239 0.000282863 0)
(-0.00534244 0.000282045 0)
(-0.00557162 0.000280735 0)
(-0.00579954 0.000278944 0)
(-0.00602581 0.000276684 0)
(-0.00625005 0.000273967 0)
(-0.00647191 0.000270802 0)
(-0.00669101 0.000267203 0)
(-0.00690701 0.000263181 0)
(-0.00711957 0.000258748 0)
(-0.00732836 0.000253916 0)
(-0.00753306 0.000248697 0)
(-0.00773335 0.000243102 0)
(-0.00792894 0.000237145 0)
(-0.00811954 0.000230837 0)
(-0.00830486 0.000224191 0)
(-0.00848464 0.000217218 0)
(-0.00865861 0.000209931 0)
(-0.00882652 0.000202343 0)
(-0.00898812 0.000194465 0)
(-0.0091432 0.000186311 0)
(-0.00929152 0.000177892 0)
(-0.00943288 0.000169222 0)
(-0.00956707 0.000160313 0)
(-0.00969392 0.000151178 0)
(-0.00981323 0.000141829 0)
(-0.00992483 0.00013228 0)
(-0.0100286 0.000122543 0)
(-0.0101243 0.000112632 0)
(-0.0102119 0.000102559 0)
(-0.0102912 9.23381e-05 0)
(-0.0103622 8.19823e-05 0)
(-0.0104246 7.1505e-05 0)
(-0.0104785 6.09199e-05 0)
(-0.0105237 5.02405e-05 0)
(-0.0105602 3.94806e-05 0)
(-0.0105878 2.86542e-05 0)
(-0.0106066 1.77752e-05 0)
(-0.0106166 6.85775e-06 0)
(-0.0106176 -4.08386e-06 0)
(-0.0106097 -1.50353e-05 0)
(-0.0105929 -2.59819e-05 0)
(-0.0105672 -3.69092e-05 0)
(-0.0105326 -4.78024e-05 0)
(-0.0104892 -5.86465e-05 0)
(-0.0104369 -6.94265e-05 0)
(-0.0103759 -8.01274e-05 0)
(-0.0103063 -9.0734e-05 0)
(-0.010228 -0.000101231 0)
(-0.0101412 -0.000111603 0)
(-0.0100461 -0.000121834 0)
(-0.00994266 -0.000131909 0)
(-0.00983112 -0.000141812 0)
(-0.0097116 -0.000151527 0)
(-0.00958426 -0.00016104 0)
(-0.00944927 -0.000170333 0)
(-0.00930681 -0.000179391 0)
(-0.0091571 -0.000188198 0)
(-0.00900032 -0.000196739 0)
(-0.00883672 -0.000204997 0)
(-0.00866653 -0.000212957 0)
(-0.00849 -0.000220604 0)
(-0.00830738 -0.000227921 0)
(-0.00811896 -0.000234893 0)
(-0.00792502 -0.000241506 0)
(-0.00772586 -0.000247743 0)
(-0.0075218 -0.00025359 0)
(-0.00731315 -0.000259031 0)
(-0.00710025 -0.000264053 0)
(-0.00688345 -0.000268641 0)
(-0.00666311 -0.000272781 0)
(-0.00643959 -0.000276459 0)
(-0.00621328 -0.000279662 0)
(-0.00598457 -0.000282377 0)
(-0.00575386 -0.000284591 0)
(-0.00552156 -0.000286292 0)
(-0.00528808 -0.000287468 0)
(-0.00505387 -0.000288108 0)
(-0.00481935 -0.000288202 0)
(-0.00458497 -0.000287739 0)
(-0.00435119 -0.00028671 0)
(-0.00411847 -0.000285107 0)
(-0.00388727 -0.00028292 0)
(-0.00365806 -0.000280143 0)
(-0.00343133 -0.00027677 0)
(-0.00320755 -0.000272794 0)
(-0.00298721 -0.000268212 0)
(-0.00277079 -0.00026302 0)
(-0.00255879 -0.000257216 0)
(-0.0023517 -0.000250798 0)
(-0.00215 -0.000243767 0)
(-0.00195419 -0.000236126 0)
(-0.00176474 -0.000227877 0)
(-0.00158213 -0.000219027 0)
(-0.00140683 -0.000209583 0)
(-0.00123932 -0.000199556 0)
(-0.00108002 -0.000188959 0)
(-0.000929397 -0.00017781 0)
(-0.000787854 -0.000166129 0)
(-0.000655791 -0.000153942 0)
(-0.000533582 -0.00014128 0)
(-0.000421569 -0.000128182 0)
(-0.000320056 -0.000114696 0)
(-0.000229303 -0.000100877 0)
(-0.000149515 -8.67964e-05 0)
(-8.08333e-05 -7.254e-05 0)
(-2.33188e-05 -5.82146e-05 0)
(2.30637e-05 -4.39531e-05 0)
(5.84677e-05 -2.99218e-05 0)
(8.31917e-05 -1.6331e-05 0)
(9.7712e-05 -3.44797e-06 0)
(0.000102724 8.38435e-06 0)
(9.91904e-05 1.87248e-05 0)
(8.8405e-05 2.70062e-05 0)
(7.20544e-05 3.25086e-05 0)
(5.22437e-05 3.43483e-05 0)
(3.15193e-05 3.15072e-05 0)
(1.34145e-05 2.30146e-05 0)
(2.77624e-06 8.77512e-06 0)
(3.2051e-06 -1.6942e-05 0)
(1.4745e-05 -3.94136e-05 0)
(3.31955e-05 -5.08355e-05 0)
(5.26905e-05 -5.25805e-05 0)
(6.91242e-05 -4.63864e-05 0)
(7.95868e-05 -3.39267e-05 0)
(8.16664e-05 -1.6661e-05 0)
(7.34139e-05 4.19895e-06 0)
(5.33225e-05 2.76727e-05 0)
(2.02646e-05 5.29772e-05 0)
(-2.65688e-05 7.94908e-05 0)
(-8.77212e-05 0.00010672 0)
(-0.000163515 0.000134273 0)
(-0.000254092 0.000161837 0)
(-0.000359441 0.000189162 0)
(-0.000479429 0.000216046 0)
(-0.00061382 0.000242328 0)
(-0.000762294 0.000267879 0)
(-0.000924464 0.000292593 0)
(-0.00109988 0.000316387 0)
(-0.00128806 0.000339195 0)
(-0.00148847 0.000360962 0)
(-0.00170055 0.000381647 0)
(-0.00192372 0.000401219 0)
(-0.00215737 0.000419653 0)
(-0.00240088 0.000436932 0)
(-0.00265364 0.000453046 0)
(-0.00291499 0.000467986 0)
(-0.00318431 0.000481751 0)
(-0.00346094 0.000494342 0)
(-0.00374425 0.000505763 0)
(-0.00403358 0.000516021 0)
(-0.0043283 0.000525124 0)
(-0.00462778 0.000533084 0)
(-0.00493137 0.000539913 0)
(-0.00523845 0.000545626 0)
(-0.00554842 0.000550238 0)
(-0.00586064 0.000553766 0)
(-0.00617454 0.000556228 0)
(-0.0064895 0.000557642 0)
(-0.00680496 0.000558026 0)
(-0.00712033 0.000557403 0)
(-0.00743507 0.000555791 0)
(-0.00774861 0.000553211 0)
(-0.00806042 0.000549686 0)
(-0.00836997 0.000545237 0)
(-0.00867675 0.000539886 0)
(-0.00898026 0.000533656 0)
(-0.00928 0.000526569 0)
(-0.0095755 0.000518649 0)
(-0.0098663 0.000509918 0)
(-0.0101519 0.0005004 0)
(-0.010432 0.000490119 0)
(-0.010706 0.000479097 0)
(-0.0109736 0.000467359 0)
(-0.0112343 0.000454929 0)
(-0.0114879 0.000441831 0)
(-0.0117338 0.000428089 0)
(-0.0119718 0.000413727 0)
(-0.0122015 0.000398769 0)
(-0.0124226 0.000383241 0)
(-0.0126347 0.000367166 0)
(-0.0128376 0.00035057 0)
(-0.013031 0.000333477 0)
(-0.0132145 0.000315912 0)
(-0.013388 0.000297901 0)
(-0.0135512 0.000279469 0)
(-0.0137039 0.000260641 0)
(-0.0138457 0.000241443 0)
(-0.0139767 0.000221901 0)
(-0.0140964 0.00020204 0)
(-0.0142049 0.000181888 0)
(-0.0143019 0.000161469 0)
(-0.0143872 0.000140812 0)
(-0.0144608 0.000119942 0)
(-0.0145226 9.88871e-05 0)
(-0.0145724 7.76741e-05 0)
(-0.0146101 5.63305e-05 0)
(-0.0146358 3.48842e-05 0)
(-0.0146493 1.3363e-05 0)
(-0.0146506 -8.20493e-06 0)
(-0.0146397 -2.9791e-05 0)
(-0.0146166 -5.13666e-05 0)
(-0.0145813 -7.29028e-05 0)
(-0.0145339 -9.43703e-05 0)
(-0.0144743 -0.00011574 0)
(-0.0144027 -0.000136982 0)
(-0.0143192 -0.000158066 0)
(-0.0142237 -0.000178963 0)
(-0.0141166 -0.000199643 0)
(-0.0139978 -0.000220074 0)
(-0.0138675 -0.000240227 0)
(-0.013726 -0.00026007 0)
(-0.0135733 -0.000279573 0)
(-0.0134098 -0.000298705 0)
(-0.0132355 -0.000317435 0)
(-0.0130508 -0.000335731 0)
(-0.0128559 -0.000353564 0)
(-0.0126511 -0.000370901 0)
(-0.0124366 -0.000387711 0)
(-0.0122129 -0.000403964 0)
(-0.0119801 -0.000419629 0)
(-0.0117386 -0.000434675 0)
(-0.0114889 -0.000449071 0)
(-0.0112312 -0.000462788 0)
(-0.010966 -0.000475795 0)
(-0.0106936 -0.000488062 0)
(-0.0104146 -0.000499561 0)
(-0.0101293 -0.000510262 0)
(-0.00983818 -0.000520136 0)
(-0.00954175 -0.000529157 0)
(-0.00924049 -0.000537296 0)
(-0.0089349 -0.000544527 0)
(-0.00862549 -0.000550824 0)
(-0.00831281 -0.000556162 0)
(-0.00799738 -0.000560516 0)
(-0.00767978 -0.000563862 0)
(-0.00736057 -0.000566179 0)
(-0.00704035 -0.000567444 0)
(-0.00671969 -0.000567637 0)
(-0.00639921 -0.00056674 0)
(-0.00607953 -0.000564734 0)
(-0.00576126 -0.000561602 0)
(-0.00544505 -0.00055733 0)
(-0.00513152 -0.000551904 0)
(-0.00482133 -0.000545313 0)
(-0.00451513 -0.000537546 0)
(-0.00421357 -0.000528597 0)
(-0.0039173 -0.000518459 0)
(-0.00362699 -0.000507129 0)
(-0.00334329 -0.000494607 0)
(-0.00306687 -0.000480896 0)
(-0.00279836 -0.000466001 0)
(-0.00253842 -0.000449932 0)
(-0.00228769 -0.000432701 0)
(-0.00204679 -0.000414328 0)
(-0.00181632 -0.000394836 0)
(-0.0015969 -0.000374253 0)
(-0.00138909 -0.000352617 0)
(-0.00119343 -0.000329973 0)
(-0.00101045 -0.000306374 0)
(-0.000840627 -0.000281887 0)
(-0.000684391 -0.000256593 0)
(-0.000542126 -0.000230587 0)
(-0.000414152 -0.000203986 0)
(-0.000300713 -0.000176932 0)
(-0.000201964 -0.000149599 0)
(-0.000117954 -0.000122196 0)
(-4.86016e-05 -9.49826e-05 0)
(6.32531e-06 -6.8279e-05 0)
(4.72445e-05 -4.24811e-05 0)
(7.47931e-05 -1.80821e-05 0)
(8.98709e-05 4.30235e-06 0)
(9.36892e-05 2.39039e-05 0)
(8.78276e-05 3.97692e-05 0)
(7.42912e-05 5.07323e-05 0)
(5.55216e-05 5.54091e-05 0)
(3.44231e-05 5.2245e-05 0)
(1.50569e-05 3.96871e-05 0)
(3.21379e-06 1.66711e-05 0)
(3.133e-06 -2.49176e-05 0)
(1.40369e-05 -5.53521e-05 0)
(3.06509e-05 -6.91757e-05 0)
(4.67346e-05 -6.90514e-05 0)
(5.79036e-05 -5.74922e-05 0)
(6.10271e-05 -3.67996e-05 0)
(5.34973e-05 -8.98123e-06 0)
(3.31795e-05 2.42698e-05 0)
(-1.60745e-06 6.1553e-05 0)
(-5.21484e-05 0.000101724 0)
(-0.000119387 0.000143852 0)
(-0.000203974 0.000187183 0)
(-0.000306314 0.000231108 0)
(-0.000426599 0.00027513 0)
(-0.000564846 0.000318847 0)
(-0.000720922 0.000361933 0)
(-0.000894571 0.000404121 0)
(-0.00108543 0.000445196 0)
(-0.00129306 0.00048498 0)
(-0.00151692 0.00052333 0)
(-0.00175645 0.000560133 0)
(-0.00201102 0.000595294 0)
(-0.00227995 0.00062874 0)
(-0.00256254 0.000660414 0)
(-0.00285807 0.000690271 0)
(-0.00316578 0.000718279 0)
(-0.00348491 0.000744414 0)
(-0.00381467 0.000768663 0)
(-0.00415429 0.000791016 0)
(-0.00450297 0.000811473 0)
(-0.00485991 0.000830037 0)
(-0.00522433 0.000846717 0)
(-0.00559543 0.000861525 0)
(-0.00597242 0.000874476 0)
(-0.00635452 0.00088559 0)
(-0.00674096 0.000894888 0)
(-0.00713096 0.000902393 0)
(-0.00752376 0.000908131 0)
(-0.00791862 0.00091213 0)
(-0.00831479 0.000914419 0)
(-0.00871156 0.000915027 0)
(-0.0091082 0.000913988 0)
(-0.00950401 0.000911333 0)
(-0.00989831 0.000907095 0)
(-0.0102904 0.000901311 0)
(-0.0106797 0.000894013 0)
(-0.0110655 0.000885239 0)
(-0.0114471 0.000875025 0)
(-0.011824 0.000863407 0)
(-0.0121956 0.000850422 0)
(-0.0125612 0.000836108 0)
(-0.0129204 0.000820504 0)
(-0.0132725 0.000803647 0)
(-0.013617 0.000785576 0)
(-0.0139535 0.00076633 0)
(-0.0142813 0.000745948 0)
(-0.0146001 0.000724469 0)
(-0.0149093 0.000701933 0)
(-0.0152086 0.000678379 0)
(-0.0154974 0.000653848 0)
(-0.0157753 0.00062838 0)
(-0.016042 0.000602014 0)
(-0.0162971 0.000574793 0)
(-0.0165402 0.000546756 0)
(-0.0167709 0.000517945 0)
(-0.016989 0.000488401 0)
(-0.0171942 0.000458166 0)
(-0.017386 0.000427282 0)
(-0.0175644 0.000395791 0)
(-0.0177289 0.000363735 0)
(-0.0178794 0.000331157 0)
(-0.0180157 0.0002981 0)
(-0.0181375 0.000264607 0)
(-0.0182447 0.000230723 0)
(-0.0183372 0.000196492 0)
(-0.0184147 0.000161957 0)
(-0.0184772 0.000127165 0)
(-0.0185246 9.21588e-05 0)
(-0.0185567 5.69857e-05 0)
(-0.0185735 2.16911e-05 0)
(-0.0185751 -1.36785e-05 0)
(-0.0185612 -4.90765e-05 0)
(-0.0185321 -8.44556e-05 0)
(-0.0184876 -0.000119768 0)
(-0.0184278 -0.000154967 0)
(-0.0183528 -0.000190002 0)
(-0.0182627 -0.000224827 0)
(-0.0181575 -0.000259391 0)
(-0.0180374 -0.000293646 0)
(-0.0179026 -0.000327542 0)
(-0.0177532 -0.000361029 0)
(-0.0175893 -0.000394058 0)
(-0.0174113 -0.000426576 0)
(-0.0172193 -0.000458535 0)
(-0.0170136 -0.000489884 0)
(-0.0167945 -0.000520572 0)
(-0.0165622 -0.000550547 0)
(-0.0163171 -0.000579759 0)
(-0.0160596 -0.000608158 0)
(-0.01579 -0.000635693 0)
(-0.0155087 -0.000662312 0)
(-0.015216 -0.000687967 0)
(-0.0149125 -0.000712605 0)
(-0.0145986 -0.000736179 0)
(-0.0142747 -0.000758638 0)
(-0.0139413 -0.000779933 0)
(-0.013599 -0.000800016 0)
(-0.0132483 -0.00081884 0)
(-0.0128898 -0.000836358 0)
(-0.0125239 -0.000852522 0)
(-0.0121514 -0.000867289 0)
(-0.0117728 -0.000880613 0)
(-0.0113888 -0.000892452 0)
(-0.0109999 -0.000902763 0)
(-0.010607 -0.000911505 0)
(-0.0102106 -0.00091864 0)
(-0.0098114 -0.00092413 0)
(-0.00941021 -0.000927937 0)
(-0.00900773 -0.000930029 0)
(-0.00860468 -0.000930371 0)
(-0.00820183 -0.000928935 0)
(-0.00779994 -0.00092569 0)
(-0.00739979 -0.000920613 0)
(-0.00700217 -0.000913679 0)
(-0.00660787 -0.000904867 0)
(-0.00621769 -0.000894161 0)
(-0.00583245 -0.000881544 0)
(-0.00545295 -0.000867008 0)
(-0.00508001 -0.000850543 0)
(-0.00471444 -0.000832148 0)
(-0.00435706 -0.000811824 0)
(-0.00400867 -0.000789577 0)
(-0.00367007 -0.000765419 0)
(-0.00334207 -0.000739369 0)
(-0.00302543 -0.000711452 0)
(-0.00272093 -0.0006817 0)
(-0.00242931 -0.000650157 0)
(-0.00215129 -0.000616873 0)
(-0.00188757 -0.000581914 0)
(-0.00163881 -0.000545357 0)
(-0.00140562 -0.000507296 0)
(-0.00118857 -0.000467845 0)
(-0.000988175 -0.000427138 0)
(-0.000804882 -0.000385339 0)
(-0.000639053 -0.000342642 0)
(-0.000490962 -0.000299283 0)
(-0.000360768 -0.000255544 0)
(-0.000248504 -0.000211768 0)
(-0.000154047 -0.000168368 0)
(-7.7096e-05 -0.000125848 0)
(-1.71383e-05 -8.48237e-05 0)
(2.65865e-05 -4.60465e-05 0)
(5.51263e-05 -1.04353e-05 0)
(6.98623e-05 2.08893e-05 0)
(7.25601e-05 4.65693e-05 0)
(6.54214e-05 6.49797e-05 0)
(5.10951e-05 7.42182e-05 0)
(3.27209e-05 7.21394e-05 0)
(1.46762e-05 5.6458e-05 0)
(3.20194e-06 2.48698e-05 0)
(2.77095e-06 -3.2087e-05 0)
(1.18499e-05 -6.90217e-05 0)
(2.45182e-05 -8.35714e-05 0)
(3.46195e-05 -7.9677e-05 0)
(3.77074e-05 -6.06815e-05 0)
(3.05372e-05 -2.9542e-05 0)
(1.04027e-05 1.11772e-05 0)
(-2.49255e-05 5.92989e-05 0)
(-7.72248e-05 0.000112997 0)
(-0.000147873 0.000170755 0)
(-0.000237899 0.000231318 0)
(-0.000348026 0.000293651 0)
(-0.000478713 0.000356904 0)
(-0.000630193 0.000420377 0)
(-0.000802501 0.000483494 0)
(-0.000995505 0.00054578 0)
(-0.00120893 0.000606847 0)
(-0.00144239 0.000666374 0)
(-0.00169537 0.000724096 0)
(-0.00196731 0.000779798 0)
(-0.00225754 0.000833304 0)
(-0.00256535 0.000884471 0)
(-0.00288997 0.000933183 0)
(-0.0032306 0.00097935 0)
(-0.0035864 0.0010229 0)
(-0.00395649 0.00106378 0)
(-0.00434 0.00110195 0)
(-0.00473601 0.00113738 0)
(-0.0051436 0.00117006 0)
(-0.00556186 0.00119998 0)
(-0.00598984 0.00122714 0)
(-0.00642662 0.00125155 0)
(-0.00687128 0.00127323 0)
(-0.00732286 0.00129219 0)
(-0.00778047 0.00130846 0)
(-0.00824317 0.00132207 0)
(-0.00871005 0.00133305 0)
(-0.00918023 0.00134144 0)
(-0.00965281 0.00134727 0)
(-0.0101269 0.00135059 0)
(-0.0106017 0.00135144 0)
(-0.0110763 0.00134987 0)
(-0.0115498 0.00134592 0)
(-0.0120216 0.00133963 0)
(-0.0124906 0.00133107 0)
(-0.0129563 0.00132028 0)
(-0.0134178 0.00130731 0)
(-0.0138743 0.00129222 0)
(-0.0143251 0.00127505 0)
(-0.0147695 0.00125587 0)
(-0.0152069 0.00123473 0)
(-0.0156365 0.00121168 0)
(-0.0160576 0.00118679 0)
(-0.0164697 0.0011601 0)
(-0.0168721 0.00113167 0)
(-0.0172642 0.00110157 0)
(-0.0176454 0.00106984 0)
(-0.0180152 0.00103655 0)
(-0.0183731 0.00100176 0)
(-0.0187184 0.000965527 0)
(-0.0190508 0.000927906 0)
(-0.0193698 0.00088896 0)
(-0.0196748 0.000848748 0)
(-0.0199655 0.000807332 0)
(-0.0202414 0.000764771 0)
(-0.0205022 0.000721128 0)
(-0.0207474 0.000676464 0)
(-0.0209768 0.00063084 0)
(-0.02119 0.000584319 0)
(-0.0213867 0.000536964 0)
(-0.0215666 0.000488839 0)
(-0.0217295 0.000440007 0)
(-0.0218751 0.000390533 0)
(-0.0220032 0.000340481 0)
(-0.0221136 0.000289916 0)
(-0.0222062 0.000238906 0)
(-0.0222808 0.000187515 0)
(-0.0223373 0.000135811 0)
(-0.0223756 8.38617e-05 0)
(-0.0223956 3.17347e-05 0)
(-0.0223973 -2.05011e-05 0)
(-0.0223806 -7.27766e-05 0)
(-0.0223456 -0.000125022 0)
(-0.0222923 -0.000177167 0)
(-0.0222207 -0.000229141 0)
(-0.0221309 -0.000280872 0)
(-0.0220229 -0.000332289 0)
(-0.0218971 -0.000383319 0)
(-0.0217533 -0.000433889 0)
(-0.021592 -0.000483927 0)
(-0.0214132 -0.000533358 0)
(-0.0212171 -0.000582109 0)
(-0.0210042 -0.000630105 0)
(-0.0207745 -0.000677273 0)
(-0.0205285 -0.000723536 0)
(-0.0202664 -0.000768822 0)
(-0.0199886 -0.000813053 0)
(-0.0196955 -0.000856157 0)
(-0.0193875 -0.000898057 0)
(-0.0190651 -0.00093868 0)
(-0.0187287 -0.000977951 0)
(-0.0183788 -0.0010158 0)
(-0.0180159 -0.00105214 0)
(-0.0176405 -0.00108691 0)
(-0.0172533 -0.00112004 0)
(-0.0168547 -0.00115145 0)
(-0.0164455 -0.00118107 0)
(-0.0160262 -0.00120883 0)
(-0.0155976 -0.00123467 0)
(-0.0151602 -0.00125851 0)
(-0.0147149 -0.00128029 0)
(-0.0142623 -0.00129995 0)
(-0.0138031 -0.00131742 0)
(-0.0133383 -0.00133264 0)
(-0.0128685 -0.00134555 0)
(-0.0123945 -0.00135609 0)
(-0.0119173 -0.00136421 0)
(-0.0114376 -0.00136986 0)
(-0.0109563 -0.00137299 0)
(-0.0104743 -0.00137355 0)
(-0.00999249 -0.00137149 0)
(-0.00951178 -0.00136679 0)
(-0.0090331 -0.00135939 0)
(-0.00855736 -0.00134927 0)
(-0.00808552 -0.00133639 0)
(-0.00761852 -0.00132074 0)
(-0.00715731 -0.0013023 0)
(-0.00670285 -0.00128105 0)
(-0.00625611 -0.00125698 0)
(-0.00581803 -0.00123009 0)
(-0.00538957 -0.00120039 0)
(-0.00497169 -0.00116789 0)
(-0.00456532 -0.00113261 0)
(-0.00417138 -0.00109459 0)
(-0.0037908 -0.00105385 0)
(-0.00342445 -0.00101046 0)
(-0.00307321 -0.000964485 0)
(-0.00273791 -0.000916002 0)
(-0.00241935 -0.000865114 0)
(-0.00211828 -0.00081194 0)
(-0.00183542 -0.000756625 0)
(-0.00157141 -0.000699339 0)
(-0.00132683 -0.000640289 0)
(-0.00110217 -0.000579717 0)
(-0.000897841 -0.000517913 0)
(-0.000714129 -0.000455224 0)
(-0.000551203 -0.000392062 0)
(-0.000409079 -0.000328921 0)
(-0.000287605 -0.000266392 0)
(-0.000186427 -0.000205187 0)
(-0.000104964 -0.00014616 0)
(-4.23701e-05 -9.03407e-05 0)
(2.49915e-06 -3.89653e-05 0)
(3.11304e-05 6.48222e-06 0)
(4.53979e-05 4.42333e-05 0)
(4.76117e-05 7.21988e-05 0)
(4.05353e-05 8.79452e-05 0)
(2.74424e-05 8.87014e-05 0)
(1.28165e-05 7.13838e-05 0)
(2.89805e-06 3.24366e-05 0)
(2.22665e-06 -3.78104e-05 0)
(8.62256e-06 -7.89118e-05 0)
(1.57173e-05 -9.19778e-05 0)
(1.77862e-05 -8.20882e-05 0)
(1.05101e-05 -5.33919e-05 0)
(-9.37231e-06 -9.49552e-06 0)
(-4.45839e-05 4.6487e-05 0)
(-9.73762e-05 0.000111901 0)
(-0.000169559 0.000184501 0)
(-0.000262551 0.000262395 0)
(-0.000377421 0.000343999 0)
(-0.000514931 0.00042799 0)
(-0.000675571 0.000513264 0)
(-0.000859593 0.000598903 0)
(-0.00106704 0.000684142 0)
(-0.00129778 0.000768343 0)
(-0.00155152 0.000850979 0)
(-0.00182783 0.00093161 0)
(-0.00212617 0.00100987 0)
(-0.00244591 0.00108546 0)
(-0.00278633 0.00115813 0)
(-0.00314664 0.00122769 0)
(-0.00352599 0.00129395 0)
(-0.00392347 0.00135679 0)
(-0.00433815 0.00141611 0)
(-0.00476905 0.00147182 0)
(-0.00521518 0.00152387 0)
(-0.00567552 0.00157221 0)
(-0.00614903 0.00161681 0)
(-0.00663465 0.00165765 0)
(-0.00713134 0.00169474 0)
(-0.00763804 0.00172809 0)
(-0.00815369 0.0017577 0)
(-0.00867723 0.0017836 0)
(-0.0092076 0.00180582 0)
(-0.00974375 0.00182441 0)
(-0.0102847 0.00183939 0)
(-0.0108293 0.00185082 0)
(-0.0113766 0.00185874 0)
(-0.0119256 0.00186322 0)
(-0.0124754 0.00186431 0)
(-0.0130248 0.00186206 0)
(-0.0135731 0.00185655 0)
(-0.0141191 0.00184783 0)
(-0.0146621 0.00183598 0)
(-0.0152011 0.00182106 0)
(-0.0157352 0.00180314 0)
(-0.0162635 0.0017823 0)
(-0.0167853 0.00175861 0)
(-0.0172996 0.00173214 0)
(-0.0178057 0.00170296 0)
(-0.0183028 0.00167116 0)
(-0.0187902 0.00163681 0)
(-0.019267 0.00159998 0)
(-0.0197326 0.00156077 0)
(-0.0201863 0.00151923 0)
(-0.0206274 0.00147547 0)
(-0.0210553 0.00142954 0)
(-0.0214693 0.00138155 0)
(-0.0218689 0.00133156 0)
(-0.0222535 0.00127965 0)
(-0.0226224 0.00122592 0)
(-0.0229753 0.00117045 0)
(-0.0233116 0.00111331 0)
(-0.0236308 0.00105459 0)
(-0.0239324 0.000994383 0)
(-0.0242161 0.000932764 0)
(-0.0244814 0.000869821 0)
(-0.024728 0.000805642 0)
(-0.0249554 0.000740313 0)
(-0.0251635 0.000673921 0)
(-0.0253518 0.000606556 0)
(-0.0255202 0.000538306 0)
(-0.0256683 0.00046926 0)
(-0.0257959 0.000399509 0)
(-0.0259029 0.000329143 0)
(-0.0259891 0.000258256 0)
(-0.0260543 0.000186938 0)
(-0.0260985 0.000115285 0)
(-0.0261215 4.33883e-05 0)
(-0.0261233 -2.86557e-05 0)
(-0.0261039 -0.000100752 0)
(-0.0260632 -0.000172803 0)
(-0.0260014 -0.000244714 0)
(-0.0259184 -0.000316385 0)