/*--------------------------------*- C++ -*----------------------------------*\
  =========                 |
  \\      /  F ield         | OpenFOAM: The Open Source CFD Toolbox
   \\    /   O peration     | Website:  https://openfoam.org
    \\  /    A nd           | Version:  7
     \\/     M anipulation  |
\*---------------------------------------------------------------------------*/
FoamFile
{
    version     2.0;
    format      ascii;
    class       surfaceScalarField;
    location    "0.025";
    object      phi;
}
// * * * * * * * * * * * * * * * * * * * * * * * * * * * * * * * * * * * * * //

dimensions      [0 3 -1 0 0 0 0];

internalField   nonuniform List<scalar> 
50880
(
1.51657e-11
-1.51632e-11
8.90325e-12
6.26269e-12
-3.36001e-11
4.25023e-11
-1.06971e-10
7.33694e-11
-2.04612e-10
9.76402e-11
-3.19771e-10
1.15158e-10
-4.46782e-10
1.27011e-10
-5.81353e-10
1.3457e-10
-7.20405e-10
1.39053e-10
-8.61818e-10
1.41413e-10
-1.00421e-09
1.4239e-10
-1.14674e-09
1.42527e-10
-1.28892e-09
1.42185e-10
-1.4305e-09
1.41577e-10
-1.57132e-09
1.40822e-10
-1.71131e-09
1.39988e-10
-1.85042e-09
1.39111e-10
-1.98862e-09
1.38206e-10
-2.12589e-09
1.3727e-10
-2.26219e-09
1.36299e-10
-2.39748e-09
1.35289e-10
-2.53172e-09
1.34237e-10
-2.66486e-09
1.33142e-10
-2.79686e-09
1.32001e-10
-2.92767e-09
1.30813e-10
-3.05725e-09
1.29573e-10
-3.18553e-09
1.28282e-10
-3.31247e-09
1.26941e-10
-3.43802e-09
1.2555e-10
-3.56213e-09
1.24108e-10
-3.68474e-09
1.22615e-10
-3.80582e-09
1.21074e-10
-3.9253e-09
1.19483e-10
-4.04314e-09
1.17843e-10
-4.1593e-09
1.16155e-10
-4.27371e-09
1.14419e-10
-4.38635e-09
1.12638e-10
-4.49716e-09
1.10811e-10
-4.6061e-09
1.08937e-10
-4.71312e-09
1.0702e-10
-4.81818e-09
1.0506e-10
-4.92124e-09
1.03057e-10
-5.02225e-09
1.01012e-10
-5.12117e-09
9.89261e-11
-5.21797e-09
9.67998e-11
-5.31261e-09
9.46345e-11
-5.40504e-09
9.2431e-11
-5.49523e-09
9.01899e-11
-5.58314e-09
8.79117e-11
-5.66873e-09
8.55976e-11
-5.75198e-09
8.3249e-11
-5.83285e-09
8.0867e-11
-5.9113e-09
7.84521e-11
-5.98731e-09
7.6005e-11
-6.06083e-09
7.35265e-11
-6.13185e-09
7.10179e-11
-6.20033e-09
6.84804e-11
-6.26624e-09
6.59148e-11
-6.32957e-09
6.3322e-11
-6.39027e-09
6.07027e-11
-6.44833e-09
5.8058e-11
-6.50372e-09
5.53891e-11
-6.55641e-09
5.26971e-11
-6.6064e-09
4.99828e-11
-6.65364e-09
4.72469e-11
-6.69813e-09
4.44904e-11
-6.73985e-09
4.17141e-11
-6.77877e-09
3.89192e-11
-6.81487e-09
3.61069e-11
-6.84815e-09
3.32779e-11
-6.87859e-09
3.04333e-11
-6.90616e-09
2.75739e-11
-6.93086e-09
2.47007e-11
-6.95268e-09
2.1815e-11
-6.9716e-09
1.89179e-11
-6.98761e-09
1.60102e-11
-7.0007e-09
1.30929e-11
-7.01087e-09
1.01668e-11
-7.0181e-09
7.23295e-12
-7.02239e-09
4.29257e-12
-7.02374e-09
1.3469e-12
-7.02214e-09
-1.60329e-12
-7.01758e-09
-4.55642e-12
-7.01007e-09
-7.51183e-12
-6.9996e-09
-1.04684e-11
-6.98618e-09
-1.3425e-11
-6.9698e-09
-1.63806e-11
-6.95047e-09
-1.93339e-11
-6.92818e-09
-2.22836e-11
-6.90295e-09
-2.52285e-11
-6.87479e-09
-2.81676e-11
-6.84369e-09
-3.10996e-11
-6.80967e-09
-3.40233e-11
-6.77273e-09
-3.69375e-11
-6.73289e-09
-3.98409e-11
-6.69015e-09
-4.27321e-11
-6.64454e-09
-4.561e-11
-6.59607e-09
-4.84734e-11
-6.54475e-09
-5.13211e-11
-6.4906e-09
-5.41517e-11
-6.43364e-09
-5.69641e-11
-6.37388e-09
-5.97568e-11
-6.31135e-09
-6.25285e-11
-6.24607e-09
-6.52781e-11
-6.17807e-09
-6.80042e-11
-6.10736e-09
-7.07058e-11
-6.03398e-09
-7.33818e-11
-5.95795e-09
-7.6031e-11
-5.8793e-09
-7.86522e-11
-5.79805e-09
-8.12442e-11
-5.71425e-09
-8.38057e-11
-5.62791e-09
-8.63354e-11
-5.53908e-09
-8.88322e-11
-5.44779e-09
-9.12948e-11
-5.35406e-09
-9.37222e-11
-5.25795e-09
-9.6113e-11
-5.15948e-09
-9.84661e-11
-5.0587e-09
-1.00781e-10
-4.95565e-09
-1.03055e-10
-4.85036e-09
-1.05288e-10
-4.74288e-09
-1.07478e-10
-4.63326e-09
-1.09625e-10
-4.52153e-09
-1.11726e-10
-4.40775e-09
-1.13782e-10
-4.29196e-09
-1.1579e-10
-4.17421e-09
-1.1775e-10
-4.05455e-09
-1.1966e-10
-3.93303e-09
-1.2152e-10
-3.8097e-09
-1.23328e-10
-3.68462e-09
-1.25084e-10
-3.55783e-09
-1.26786e-10
-3.4294e-09
-1.28434e-10
-3.29937e-09
-1.30027e-10
-3.16781e-09
-1.31564e-10
-3.03476e-09
-1.33045e-10
-2.90029e-09
-1.3447e-10
-2.76445e-09
-1.35839e-10
-2.6273e-09
-1.37152e-10
-2.48889e-09
-1.38412e-10
-2.34927e-09
-1.39619e-10
-2.20849e-09
-1.40776e-10
-2.0666e-09
-1.41888e-10
-1.92365e-09
-1.42956e-10
-1.77967e-09
-1.43982e-10
-1.6347e-09
-1.44964e-10
-1.48881e-09
-1.45888e-10
-1.3421e-09
-1.46719e-10
-1.19471e-09
-1.47385e-10
-1.04696e-09
-1.47754e-10
-8.99355e-10
-1.47602e-10
-7.52786e-10
-1.46569e-10
-6.08667e-10
-1.44118e-10
-4.69179e-10
-1.39488e-10
-3.37507e-10
-1.31672e-10
-2.1807e-10
-1.19437e-10
-1.16622e-10
-1.01448e-10
-3.99837e-11
-7.66389e-11
5.03553e-12
-4.50194e-11
1.51132e-11
-1.00777e-11
1.51135e-11
-1.09289e-11
-4.23409e-12
-7.8565e-11
7.38973e-11
-2.16456e-10
1.80394e-10
-4.20561e-10
2.77474e-10
-6.79401e-10
3.56479e-10
-9.8028e-10
4.16036e-10
-1.31144e-09
4.58164e-10
-1.66313e-09
4.86263e-10
-2.0279e-09
5.0382e-10
-2.40035e-09
5.13862e-10
-2.77675e-09
5.188e-10
-3.15467e-09
5.20439e-10
-3.53252e-09
5.20042e-10
-3.90937e-09
5.18426e-10
-4.28464e-09
5.16092e-10
-4.65798e-09
5.13329e-10
-5.02917e-09
5.10298e-10
-5.39804e-09
5.07074e-10
-5.76446e-09
5.03689e-10
-6.12831e-09
5.00148e-10
-6.48947e-09
4.96445e-10
-6.84781e-09
4.92575e-10
-7.2032e-09
4.88534e-10
-7.55551e-09
4.84316e-10
-7.90462e-09
4.79917e-10
-8.25038e-09
4.75333e-10
-8.59266e-09
4.70562e-10
-8.93132e-09
4.65605e-10
-9.26623e-09
4.60462e-10
-9.59726e-09
4.55134e-10
-9.92427e-09
4.49624e-10
-1.02471e-08
4.43932e-10
-1.05657e-08
4.3806e-10
-1.08799e-08
4.32011e-10
-1.11895e-08
4.25785e-10
-1.14945e-08
4.19388e-10
-1.17946e-08
4.12821e-10
-1.20899e-08
4.06086e-10
-1.23802e-08
3.99186e-10
-1.26653e-08
3.92125e-10
-1.29451e-08
3.84905e-10
-1.32196e-08
3.7753e-10
-1.34886e-08
3.70002e-10
-1.3752e-08
3.62324e-10
-1.40097e-08
3.54498e-10
-1.42616e-08
3.4653e-10
-1.45076e-08
3.38421e-10
-1.47475e-08
3.30175e-10
-1.49814e-08
3.21794e-10
-1.52091e-08
3.13283e-10
-1.54305e-08
3.04645e-10
-1.56455e-08
2.95884e-10
-1.58541e-08
2.87003e-10
-1.60561e-08
2.78004e-10
-1.62514e-08
2.68893e-10
-1.64401e-08
2.59671e-10
-1.66219e-08
2.50342e-10
-1.67969e-08
2.40912e-10
-1.6965e-08
2.31382e-10
-1.71261e-08
2.21756e-10
-1.728e-08
2.12038e-10
-1.74269e-08
2.02232e-10
-1.75665e-08
1.92342e-10
-1.76989e-08
1.8237e-10
-1.7824e-08
1.72321e-10
-1.79417e-08
1.62197e-10
-1.8052e-08
1.52003e-10
-1.81548e-08
1.41741e-10
-1.82501e-08
1.31417e-10
-1.83379e-08
1.21033e-10
-1.8418e-08
1.10594e-10
-1.84906e-08
1.00102e-10
-1.85554e-08
8.95632e-11
-1.86126e-08
7.89797e-11
-1.8662e-08
6.83556e-11
-1.87037e-08
5.76948e-11
-1.87376e-08
4.7001e-11
-1.87637e-08
3.62779e-11
-1.8782e-08
2.55294e-11
-1.87925e-08
1.47595e-11
-1.87951e-08
3.97232e-12
-1.87899e-08
-6.82815e-12
-1.87768e-08
-1.76379e-11
-1.87559e-08
-2.8453e-11
-1.87271e-08
-3.92697e-11
-1.86904e-08
-5.0084e-11
-1.86459e-08
-6.08916e-11
-1.85936e-08
-7.16884e-11
-1.85334e-08
-8.24703e-11
-1.84654e-08
-9.3233e-11
-1.83896e-08
-1.03972e-10
-1.8306e-08
-1.14684e-10
-1.82146e-08
-1.25364e-10
-1.81156e-08
-1.36009e-10
-1.80088e-08
-1.46613e-10
-1.78944e-08
-1.57173e-10
-1.77723e-08
-1.67683e-10
-1.76426e-08
-1.78141e-10
-1.75054e-08
-1.88541e-10
-1.73607e-08
-1.98879e-10
-1.72085e-08
-2.0915e-10
-1.70489e-08
-2.1935e-10
-1.6882e-08
-2.29474e-10
-1.67077e-08
-2.39518e-10
-1.65262e-08
-2.49478e-10
-1.63376e-08
-2.59349e-10
-1.61419e-08
-2.69127e-10
-1.59391e-08
-2.78806e-10
-1.57293e-08
-2.88384e-10
-1.55127e-08
-2.97855e-10
-1.52893e-08
-3.07214e-10
-1.50592e-08
-3.16457e-10
-1.48225e-08
-3.25579e-10
-1.45792e-08
-3.34575e-10
-1.43295e-08
-3.43442e-10
-1.40734e-08
-3.52175e-10
-1.38111e-08
-3.60769e-10
-1.35427e-08
-3.69221e-10
-1.32682e-08
-3.77525e-10
-1.29878e-08
-3.85677e-10
-1.27016e-08
-3.93673e-10
-1.24097e-08
-4.01508e-10
-1.21123e-08
-4.09179e-10
-1.18094e-08
-4.16681e-10
-1.15011e-08
-4.2401e-10
-1.11877e-08
-4.31161e-10
-1.08693e-08
-4.38133e-10
-1.05459e-08
-4.44919e-10
-1.02177e-08
-4.51518e-10
-9.88482e-09
-4.57925e-10
-9.54747e-09
-4.64138e-10
-9.20575e-09
-4.70153e-10
-8.85981e-09
-4.75967e-10
-8.5098e-09
-4.81579e-10
-8.15586e-09
-4.86986e-10
-7.79814e-09
-4.92188e-10
-7.43679e-09
-4.97184e-10
-7.07197e-09
-5.01978e-10
-6.70381e-09
-5.0657e-10
-6.33246e-09
-5.10965e-10
-5.95807e-09
-5.15168e-10
-5.58077e-09
-5.19184e-10
-5.20072e-09
-5.23012e-10
-4.81806e-09
-5.26642e-10
-4.43298e-09
-5.30038e-10
-4.04575e-09
-5.33119e-10
-3.65675e-09
-5.35718e-10
-3.26661e-09
-5.3753e-10
-2.87633e-09
-5.38032e-10
-2.48754e-09
-5.36387e-10
-2.10279e-09
-5.31319e-10
-1.72591e-09
-5.21002e-10
-1.36242e-09
-5.02973e-10
-1.01996e-09
-4.74139e-10
-7.08424e-10
-4.30971e-10
-4.3981e-10
-3.70062e-10
-2.27106e-10
-2.89343e-10
-8.18888e-11
-1.90237e-10
-1.00803e-11
-8.18857e-11
5.03342e-12
-4.21668e-11
3.79317e-11
-1.81717e-10
2.13445e-10
-4.17248e-10
4.15923e-10
-7.40428e-10
6.00653e-10
-1.13699e-09
7.53039e-10
-1.59109e-09
8.70135e-10
-2.08778e-09
9.54856e-10
-2.61429e-09
1.01277e-09
-3.16049e-09
1.05002e-09
-3.7188e-09
1.07217e-09
-4.28381e-09
1.08381e-09
-4.85183e-09
1.08846e-09
-5.42041e-09
1.08863e-09
-5.98798e-09
1.086e-09
-6.55355e-09
1.08166e-09
-7.11647e-09
1.07625e-09
-7.67631e-09
1.07014e-09
-8.23276e-09
1.06353e-09
-8.78558e-09
1.05651e-09
-9.33455e-09
1.04911e-09
-9.87946e-09
1.04135e-09
-1.04201e-08
1.03322e-09
-1.09563e-08
1.02472e-09
-1.14878e-08
1.01583e-09
-1.20145e-08
1.00656e-09
-1.2536e-08
9.96897e-10
-1.30523e-08
9.8684e-10
-1.35631e-08
9.76392e-10
-1.40682e-08
9.65553e-10
-1.45674e-08
9.54326e-10
-1.50605e-08
9.42715e-10
-1.55472e-08
9.30723e-10
-1.60275e-08
9.18355e-10
-1.65011e-08
9.05615e-10
-1.69679e-08
8.92507e-10
-1.74275e-08
8.79039e-10
-1.78799e-08
8.65214e-10
-1.83249e-08
8.51039e-10
-1.87622e-08
8.3652e-10
-1.91917e-08
8.21663e-10
-1.96133e-08
8.06474e-10
-2.00267e-08
7.90959e-10
-2.04319e-08
7.75125e-10
-2.08285e-08
7.58977e-10
-2.12165e-08
7.42523e-10
-2.15958e-08
7.25769e-10
-2.19661e-08
7.08722e-10
-2.23273e-08
6.91388e-10
-2.26793e-08
6.73775e-10
-2.30219e-08
6.5589e-10
-2.3355e-08
6.37741e-10
-2.36784e-08
6.19333e-10
-2.39921e-08
6.00675e-10
-2.42959e-08
5.81773e-10
-2.45896e-08
5.62636e-10
-2.48732e-08
5.43269e-10
-2.51465e-08
5.23681e-10
-2.54095e-08
5.0388e-10
-2.5662e-08
4.83873e-10
-2.59039e-08
4.63667e-10
-2.61351e-08
4.4327e-10
-2.63556e-08
4.2269e-10
-2.65652e-08
4.01933e-10
-2.67638e-08
3.81009e-10
-2.69514e-08
3.59923e-10
-2.71279e-08
3.38684e-10
-2.72932e-08
3.17299e-10
-2.74472e-08
2.95776e-10
-2.759e-08
2.74123e-10
-2.77213e-08
2.52348e-10
-2.78411e-08
2.30459e-10
-2.79495e-08
2.08463e-10
-2.80463e-08
1.86369e-10
-2.81315e-08
1.64184e-10
-2.82051e-08
1.41917e-10
-2.8267e-08
1.19574e-10
-2.83171e-08
9.71652e-11
-2.83555e-08
7.46973e-11
-2.83822e-08
5.21789e-11
-2.8397e-08
2.96182e-11
-2.84001e-08
7.02366e-12
-2.83913e-08
-1.55965e-11
-2.83707e-08
-3.82339e-11
-2.83383e-08
-6.08804e-11
-2.82941e-08
-8.35276e-11
-2.8238e-08
-1.06167e-10
-2.81701e-08
-1.28791e-10
-2.80904e-08
-1.51389e-10
-2.79989e-08
-1.73955e-10
-2.78956e-08
-1.96478e-10
-2.77807e-08
-2.1895e-10
-2.7654e-08
-2.41363e-10
-2.75156e-08
-2.63708e-10
-2.73657e-08
-2.85975e-10
-2.72041e-08
-3.08158e-10
-2.70311e-08
-3.30245e-10
-2.68465e-08
-3.52229e-10
-2.66506e-08
-3.74101e-10
-2.64432e-08
-3.9585e-10
-2.62247e-08
-4.17469e-10
-2.59949e-08
-4.38947e-10
-2.57539e-08
-4.60275e-10
-2.5502e-08
-4.81445e-10
-2.5239e-08
-5.02447e-10
-2.49652e-08
-5.23271e-10
-2.46807e-08
-5.43909e-10
-2.43855e-08
-5.64351e-10
-2.40797e-08
-5.84587e-10
-2.37635e-08
-6.04609e-10
-2.34369e-08
-6.24406e-10
-2.31001e-08
-6.4397e-10
-2.27533e-08
-6.6329e-10
-2.23965e-08
-6.82357e-10
-2.20299e-08
-7.01162e-10
-2.16537e-08
-7.19695e-10
-2.12679e-08
-7.37947e-10
-2.08728e-08
-7.55909e-10
-2.04684e-08
-7.73571e-10
-2.0055e-08
-7.90926e-10
-1.96327e-08
-8.07962e-10
-1.92017e-08
-8.24672e-10
-1.87622e-08
-8.41046e-10
-1.83143e-08
-8.57076e-10
-1.78582e-08
-8.72753e-10
-1.73942e-08
-8.88068e-10
-1.69223e-08
-9.03015e-10
-1.64429e-08
-9.17583e-10
-1.5956e-08
-9.31767e-10
-1.5462e-08
-9.45558e-10
-1.4961e-08
-9.58949e-10
-1.44532e-08
-9.71933e-10
-1.39388e-08
-9.84505e-10
-1.34181e-08
-9.96657e-10
-1.28913e-08
-1.00839e-09
-1.23586e-08
-1.01969e-09
-1.18202e-08
-1.03056e-09
-1.12764e-08
-1.041e-09
-1.07274e-08
-1.05101e-09
-1.01734e-08
-1.06059e-09
-9.61458e-09
-1.06976e-09
-9.05125e-09
-1.0785e-09
-8.48362e-09
-1.08682e-09
-7.91193e-09
-1.0947e-09
-7.33647e-09
-1.1021e-09
-6.75758e-09
-1.10893e-09
-6.17575e-09
-1.11496e-09
-5.59165e-09
-1.11981e-09
-5.00636e-09
-1.12281e-09
-4.42154e-09
-1.12285e-09
-3.83973e-09
-1.1182e-09
-3.26473e-09
-1.10631e-09
-2.70212e-09
-1.08362e-09
-2.15963e-09
-1.04546e-09
-1.64762e-09
-9.86149e-10
-1.17911e-09
-8.99481e-10
-7.69392e-10
-7.79783e-10
-4.34737e-10
-6.23997e-10
-1.90016e-10
-4.34958e-10
-4.49406e-11
-2.2696e-10
-3.99069e-11
-7.29176e-11
1.1085e-10
-2.77883e-10
4.18409e-10
-6.01413e-10
7.39452e-10
-1.02825e-09
1.02749e-09
-1.54052e-09
1.2653e-09
-2.11995e-09
1.44956e-09
-2.74963e-09
1.58454e-09
-3.41506e-09
1.67821e-09
-4.1046e-09
1.73956e-09
-4.80939e-09
1.77695e-09
-5.52296e-09
1.79738e-09
-6.24078e-09
1.80628e-09
-6.95977e-09
1.80762e-09
-7.67788e-09
1.80412e-09
-8.39378e-09
1.79755e-09
-9.10657e-09
1.78903e-09
-9.81563e-09
1.7792e-09
-1.05205e-08
1.76841e-09
-1.12209e-08
1.75686e-09
-1.19164e-08
1.74462e-09
-1.26067e-08
1.73173e-09
-1.32917e-08
1.7182e-09
-1.3971e-08
1.70402e-09
-1.46444e-08
1.6892e-09
-1.53115e-08
1.67372e-09
-1.59722e-08
1.65759e-09
-1.66262e-08
1.6408e-09
-1.72732e-08
1.62336e-09
-1.79129e-08
1.60527e-09
-1.85451e-08
1.58653e-09
-1.91695e-08
1.56715e-09
-1.9786e-08
1.54714e-09
-2.03941e-08
1.52651e-09
-2.09937e-08
1.50525e-09
-2.15846e-08
1.48338e-09
-2.21665e-08
1.46092e-09
-2.27391e-08
1.43786e-09
-2.33023e-08
1.41423e-09
-2.38558e-08
1.39002e-09
-2.43994e-08
1.36525e-09
-2.49329e-08
1.33993e-09
-2.5456e-08
1.31407e-09
-2.59685e-08
1.28767e-09
-2.64703e-08
1.26076e-09
-2.69611e-08
1.23335e-09
-2.74408e-08
1.20543e-09
-2.79091e-08
1.17703e-09
-2.83659e-08
1.14816e-09
-2.88109e-08
1.11882e-09
-2.92441e-08
1.08904e-09
-2.96651e-08
1.05881e-09
-3.0074e-08
1.02816e-09
-3.04704e-08
9.97096e-10
-3.08542e-08
9.65629e-10
-3.12254e-08
9.33771e-10
-3.15836e-08
9.01536e-10
-3.19289e-08
8.68936e-10
-3.2261e-08
8.35983e-10
-3.25798e-08
8.02691e-10
-3.28852e-08
7.6907e-10
-3.31771e-08
7.35135e-10
-3.34553e-08
7.00898e-10
-3.37197e-08
6.6637e-10
-3.39703e-08
6.31566e-10
-3.42069e-08
5.96496e-10
-3.44293e-08
5.61174e-10
-3.46377e-08
5.25614e-10
-3.48317e-08
4.89827e-10
-3.50114e-08
4.53827e-10
-3.51767e-08
4.17627e-10
-3.53275e-08
3.81239e-10
-3.54637e-08
3.44678e-10
-3.55853e-08
3.07956e-10
-3.56922e-08
2.71086e-10
-3.57844e-08
2.34081e-10
-3.58617e-08
1.96955e-10
-3.59243e-08
1.59721e-10
-3.5972e-08
1.22393e-10
-3.60048e-08
8.49835e-11
-3.60227e-08
4.75068e-11
-3.60256e-08
9.9766e-12
-3.60136e-08
-2.75934e-11
-3.59867e-08
-6.51895e-11
-3.59448e-08
-1.02798e-10
-3.58879e-08
-1.40405e-10
-3.58161e-08
-1.77996e-10
-3.57293e-08
-2.15558e-10
-3.56276e-08
-2.53076e-10
-3.5511e-08
-2.90536e-10
-3.53796e-08
-3.27923e-10
-3.52333e-08
-3.65224e-10
-3.50722e-08
-4.02424e-10
-3.48964e-08
-4.39508e-10
-3.4706e-08
-4.76463e-10
-3.45008e-08
-5.13273e-10
-3.42812e-08
-5.49924e-10
-3.4047e-08
-5.86401e-10
-3.37984e-08
-6.22689e-10
-3.35355e-08
-6.58773e-10
-3.32583e-08
-6.94638e-10
-3.2967e-08
-7.30268e-10
-3.26616e-08
-7.65648e-10
-3.23423e-08
-8.00764e-10
-3.20091e-08
-8.356e-10
-3.16623e-08
-8.7014e-10
-3.13018e-08
-9.04369e-10
-3.09279e-08
-9.38271e-10
-3.05406e-08
-9.71832e-10
-3.01402e-08
-1.00504e-09
-2.97268e-08
-1.03787e-09
-2.93004e-08
-1.07031e-09
-2.88614e-08
-1.10235e-09
-2.84098e-08
-1.13396e-09
-2.79458e-08
-1.16514e-09
-2.74696e-08
-1.19587e-09
-2.69814e-08
-1.22614e-09
-2.64814e-08
-1.25592e-09
-2.59698e-08
-1.28521e-09
-2.54467e-08
-1.31398e-09
-2.49124e-08
-1.34223e-09
-2.43672e-08
-1.36993e-09
-2.38112e-08
-1.39708e-09
-2.32446e-08
-1.42366e-09
-2.26677e-08
-1.44965e-09
-2.20807e-08
-1.47505e-09
-2.14839e-08
-1.49983e-09
-2.08775e-08
-1.52399e-09
-2.02617e-08
-1.5475e-09
-1.96369e-08
-1.57037e-09
-1.90033e-08
-1.59258e-09
-1.83611e-08
-1.61411e-09
-1.77107e-08
-1.63496e-09
-1.70522e-08
-1.65511e-09
-1.6386e-08
-1.67456e-09
-1.57124e-08
-1.6933e-09
-1.50317e-08
-1.71132e-09
-1.4344e-08
-1.72863e-09
-1.36498e-08
-1.74521e-09
-1.29494e-08
-1.76108e-09
-1.22429e-08
-1.77623e-09
-1.15307e-08
-1.79065e-09
-1.08132e-08
-1.80434e-09
-1.00907e-08
-1.81724e-09
-9.36349e-09
-1.82927e-09
-8.6322e-09
-1.84022e-09
-7.89744e-09
-1.84971e-09
-7.16018e-09
-1.85707e-09
-6.42184e-09
-1.86115e-09
-5.68457e-09
-1.86013e-09
-4.95154e-09
-1.85123e-09
-4.22743e-09
-1.83042e-09
-3.51888e-09
-1.79217e-09
-2.83494e-09
-1.72939e-09
-2.1875e-09
-1.63359e-09
-1.59133e-09
-1.49565e-09
-1.0637e-09
-1.30741e-09
-6.23362e-10
-1.06433e-09
-2.88846e-10
-7.69474e-10
-7.64497e-11
-4.39356e-10
-1.16357e-10
-9.72235e-11
2.08073e-10
-3.571e-10
6.78284e-10
-7.54647e-10
1.137e-09
-1.26766e-09
1.5405e-09
-1.87434e-09
1.87199e-09
-2.55415e-09
2.12937e-09
-3.28873e-09
2.31912e-09
-4.06256e-09
2.45204e-09
-4.86315e-09
2.54014e-09
-5.68091e-09
2.59471e-09
-6.50879e-09
2.62526e-09
-7.34177e-09
2.63926e-09
-8.17637e-09
2.64222e-09
-9.01023e-09
2.63798e-09
-9.84176e-09
2.62908e-09
-1.06699e-08
2.61714e-09
-1.14938e-08
2.60313e-09
-1.2313e-08
2.58759e-09
-1.31269e-08
2.57083e-09
-1.39353e-08
2.553e-09
-1.47378e-08
2.53416e-09
-1.55339e-08
2.51435e-09
-1.63235e-08
2.49358e-09
-1.71061e-08
2.47184e-09
-1.78815e-08
2.44913e-09
-1.86494e-08
2.42545e-09
-1.94094e-08
2.40081e-09
-2.01612e-08
2.37521e-09
-2.09046e-08
2.34865e-09
-2.16392e-08
2.32114e-09
-2.23648e-08
2.2927e-09
-2.30809e-08
2.26333e-09
-2.37875e-08
2.23305e-09
-2.44841e-08
2.20186e-09
-2.51705e-08
2.16978e-09
-2.58464e-08
2.13682e-09
-2.65115e-08
2.103e-09
-2.71656e-08
2.06833e-09
-2.78084e-08
2.03282e-09
-2.84397e-08
1.9965e-09
-2.90591e-08
1.95937e-09
-2.96665e-08
1.92145e-09
-3.02616e-08
1.88276e-09
-3.08441e-08
1.84331e-09
-3.14139e-08
1.80312e-09
-3.19707e-08
1.7622e-09
-3.25142e-08
1.72058e-09
-3.30443e-08
1.67827e-09
-3.35608e-08
1.63528e-09
-3.40634e-08
1.59164e-09
-3.45519e-08
1.54736e-09
-3.50262e-08
1.50246e-09
-3.54861e-08
1.45695e-09
-3.59313e-08
1.41086e-09
-3.63618e-08
1.3642e-09
-3.67772e-08
1.31699e-09
-3.71775e-08
1.26926e-09
-3.75626e-08
1.221e-09
-3.79321e-08
1.17226e-09
-3.82861e-08
1.12304e-09
-3.86243e-08
1.07336e-09
-3.89467e-08
1.02324e-09
-3.9253e-08
9.72702e-10
-3.95432e-08
9.21761e-10
-3.98171e-08
8.70436e-10
-4.00747e-08
8.18747e-10
-4.03158e-08
7.66711e-10
-4.05403e-08
7.14348e-10
-4.07482e-08
6.61676e-10
-4.09393e-08
6.08716e-10
-4.11135e-08
5.55485e-10
-4.12708e-08
5.02003e-10
-4.14112e-08
4.48289e-10
-4.15344e-08
3.94362e-10
-4.16406e-08
3.40242e-10
-4.17296e-08
2.85948e-10
-4.18014e-08
2.315e-10
-4.18559e-08
1.76917e-10
-4.18931e-08
1.22219e-10
-4.19131e-08
6.74263e-11
-4.19156e-08
1.25585e-11
-4.19009e-08
-4.23643e-11
-4.18687e-08
-9.73221e-11
-4.18192e-08
-1.52295e-10
-4.17524e-08
-2.07262e-10
-4.16682e-08
-2.62203e-10
-4.15666e-08
-3.17098e-10
-4.14478e-08
-3.71926e-10
-4.13117e-08
-4.26665e-10
-4.11583e-08
-4.81296e-10
-4.09877e-08
-5.35798e-10
-4.08e-08
-5.9015e-10
-4.05952e-08
-6.4433e-10
-4.03733e-08
-6.98318e-10
-4.01345e-08
-7.52092e-10
-3.98788e-08
-8.05631e-10
-3.96063e-08
-8.58913e-10
-3.9317e-08
-9.11917e-10
-3.90112e-08
-9.6462e-10
-3.86888e-08
-1.017e-09
-3.83501e-08
-1.06904e-09
-3.7995e-08
-1.12071e-09
-3.76238e-08
-1.17199e-09
-3.72365e-08
-1.22286e-09
-3.68334e-08
-1.27329e-09
-3.64145e-08
-1.32328e-09
-3.598e-08
-1.37278e-09
-3.553e-08
-1.42178e-09
-3.50648e-08
-1.47026e-09
-3.45845e-08
-1.51819e-09
-3.40892e-08
-1.56556e-09
-3.35792e-08
-1.61233e-09
-3.30547e-08
-1.65849e-09
-3.25158e-08
-1.70401e-09
-3.19628e-08
-1.74887e-09
-3.13959e-08
-1.79306e-09
-3.08153e-08
-1.83653e-09
-3.02212e-08
-1.87929e-09
-2.96139e-08
-1.92129e-09
-2.89936e-08
-1.96253e-09
-2.83606e-08
-2.00297e-09
-2.7715e-08
-2.04261e-09
-2.70573e-08
-2.08141e-09
-2.63876e-08
-2.11935e-09
-2.57062e-08
-2.15643e-09
-2.50134e-08
-2.19261e-09
-2.43095e-08
-2.22788e-09
-2.35948e-08
-2.26221e-09
-2.28696e-08
-2.2956e-09
-2.21341e-08
-2.32802e-09
-2.13888e-08
-2.35946e-09
-2.06339e-08
-2.38989e-09
-1.98696e-08
-2.41931e-09
-1.90965e-08
-2.44771e-09
-1.83147e-08
-2.47507e-09
-1.75247e-08
-2.50138e-09
-1.67267e-08
-2.52663e-09
-1.59211e-08
-2.55082e-09
-1.51082e-08
-2.57395e-09
-1.42884e-08
-2.596e-09
-1.34621e-08
-2.61697e-09
-1.26296e-08
-2.63681e-09
-1.17914e-08
-2.65544e-09
-1.0948e-08
-2.6727e-09
-1.01e-08
-2.68827e-09
-9.24812e-09
-2.70155e-09
-8.39365e-09
-2.71154e-09
-7.53821e-09
-2.71658e-09
-6.68428e-09
-2.71407e-09
-5.83544e-09
-2.70007e-09
-4.99686e-09
-2.66899e-09
-4.17578e-09
-2.61326e-09
-3.38198e-09
-2.5232e-09
-2.62817e-09
-2.38739e-09
-1.9302e-09
-2.19362e-09
-1.30681e-09
-1.93081e-09
-7.79045e-10
-1.5921e-09
-3.69415e-10
-1.1791e-09
-1.01173e-10
-7.07598e-10
-2.1753e-10
-1.15053e-10
3.23125e-10
-4.17557e-10
9.80787e-10
-8.73727e-10
1.59317e-09
-1.4552e-09
2.12197e-09
-2.13641e-09
2.5532e-09
-2.89462e-09
2.88757e-09
-3.71021e-09
3.13471e-09
-4.56691e-09
3.30874e-09
-5.45175e-09
3.42498e-09
-6.35477e-09
3.49773e-09
-7.26863e-09
3.53912e-09
-8.18805e-09
3.55868e-09
-9.10934e-09
3.56351e-09
-1.003e-08
3.55859e-09
-1.09481e-08
3.54727e-09
-1.18627e-08
3.5317e-09
-1.27728e-08
3.51318e-09
-1.36776e-08
3.49248e-09
-1.45768e-08
3.47003e-09
-1.54699e-08
3.44605e-09
-1.63564e-08
3.42067e-09
-1.7236e-08
3.39393e-09
-1.81082e-08
3.36585e-09
-1.89729e-08
3.33645e-09
-1.98295e-08
3.30573e-09
-2.06777e-08
3.27369e-09
-2.15172e-08
3.24035e-09
-2.23477e-08
3.2057e-09
-2.31688e-08
3.16976e-09
-2.39802e-08
3.13254e-09
-2.47816e-08
3.09405e-09
-2.55726e-08
3.05432e-09
-2.63529e-08
3.01334e-09
-2.71222e-08
2.97114e-09
-2.78801e-08
2.92775e-09
-2.86265e-08
2.88316e-09
-2.93609e-08
2.83742e-09
-3.00831e-08
2.79053e-09
-3.07928e-08
2.74251e-09
-3.14897e-08
2.69339e-09
-3.21735e-08
2.64318e-09
-3.28439e-08
2.59192e-09
-3.35008e-08
2.53961e-09
-3.41438e-08
2.48628e-09
-3.47726e-08
2.43195e-09
-3.5387e-08
2.37665e-09
-3.59869e-08
2.32039e-09
-3.65718e-08
2.26321e-09
-3.71416e-08
2.20512e-09
-3.76962e-08
2.14615e-09
-3.82351e-08
2.08632e-09
-3.87583e-08
2.02566e-09
-3.92655e-08
1.96418e-09
-3.97566e-08
1.90192e-09
-4.02313e-08
1.83889e-09
-4.06894e-08
1.77513e-09
-4.11308e-08
1.71066e-09
-4.15553e-08
1.6455e-09
-4.19627e-08
1.57967e-09
-4.23529e-08
1.5132e-09
-4.27257e-08
1.44612e-09
-4.30809e-08
1.37846e-09
-4.34184e-08
1.31022e-09
-4.37381e-08
1.24145e-09
-4.40398e-08
1.17217e-09
-4.43235e-08
1.1024e-09
-4.45889e-08
1.03216e-09
-4.48361e-08
9.61488e-10
-4.50648e-08
8.90403e-10
-4.5275e-08
8.18932e-10
-4.54666e-08
7.47099e-10
-4.56396e-08
6.74932e-10
-4.57937e-08
6.02456e-10
-4.59291e-08
5.29697e-10
-4.60455e-08
4.56681e-10
-4.6143e-08
3.83434e-10
-4.62215e-08
3.09984e-10
-4.62809e-08
2.36355e-10
-4.63213e-08
1.62576e-10
-4.63425e-08
8.86719e-11
-4.63446e-08
1.46705e-11
-4.63276e-08
-5.94017e-11
-4.62914e-08
-1.33517e-10
-4.6236e-08
-2.0765e-10
-4.61615e-08
-2.81771e-10
-4.60679e-08
-3.55853e-10
-4.59551e-08
-4.2987e-10
-4.58232e-08
-5.03793e-10
-4.56723e-08
-5.77594e-10
-4.55024e-08
-6.51245e-10
-4.53134e-08
-7.2472e-10
-4.51056e-08
-7.97988e-10
-4.48789e-08
-8.71023e-10
-4.46334e-08
-9.43796e-10
-4.43692e-08
-1.01628e-09
-4.40864e-08
-1.08844e-09
-4.37851e-08
-1.16025e-09
-4.34653e-08
-1.23169e-09
-4.31272e-08
-1.30271e-09
-4.27709e-08
-1.3733e-09
-4.23965e-08
-1.44343e-09
-4.20042e-08
-1.51305e-09
-4.1594e-08
-1.58216e-09
-4.11662e-08
-1.6507e-09
-4.07208e-08
-1.71866e-09
-4.02581e-08
-1.78601e-09
-3.97782e-08
-1.85271e-09
-3.92812e-08
-1.91873e-09
-3.87674e-08
-1.98404e-09
-3.8237e-08
-2.04862e-09
-3.76901e-08
-2.11243e-09
-3.7127e-08
-2.17545e-09
-3.65479e-08
-2.23763e-09
-3.59529e-08
-2.29896e-09
-3.53424e-08
-2.3594e-09
-3.47165e-08
-2.41892e-09
-3.40756e-08
-2.47749e-09
-3.34198e-08
-2.53509e-09
-3.27494e-08
-2.59167e-09
-3.20647e-08
-2.64723e-09
-3.13659e-08
-2.70171e-09
-3.06534e-08
-2.7551e-09
-2.99275e-08
-2.80738e-09
-2.91883e-08
-2.8585e-09
-2.84363e-08
-2.90845e-09
-2.76717e-08
-2.95719e-09
-2.68949e-08
-3.00471e-09
-2.61062e-08
-3.05097e-09
-2.53058e-08
-3.09595e-09
-2.44942e-08
-3.13963e-09
-2.36717e-08
-3.18198e-09
-2.28386e-08
-3.22299e-09
-2.19953e-08
-3.26262e-09
-2.11421e-08
-3.30088e-09
-2.02794e-08
-3.33773e-09
-1.94076e-08
-3.37317e-09
-1.85271e-08
-3.40717e-09
-1.76382e-08
-3.43973e-09
-1.67413e-08
-3.47084e-09
-1.58368e-08
-3.50048e-09
-1.49252e-08
-3.52861e-09
-1.40068e-08
-3.55518e-09
-1.30822e-08
-3.58005e-09
-1.21519e-08
-3.60297e-09
-1.12167e-08
-3.62348e-09
-1.02775e-08
-3.64079e-09
-9.33552e-09
-3.65352e-09
-8.39263e-09
-3.65947e-09
-7.45148e-09
-3.65522e-09
-6.51588e-09
-3.63567e-09
-5.59124e-09
-3.59363e-09
-4.6851e-09
-3.5194e-09
-3.80761e-09
-3.40069e-09
-2.97199e-09
-3.22301e-09
-2.19483e-09
-2.97078e-09
-1.49617e-09
-2.62948e-09
-8.99278e-10
-2.18898e-09
-4.30469e-10
-1.64791e-09
-1.19152e-10
-1.01892e-09
-3.36682e-10
-1.27446e-10
4.5057e-10
-4.61191e-10
1.31453e-09
-9.61484e-10
2.09346e-09
-1.59508e-09
2.75557e-09
-2.33318e-09
3.2913e-09
-3.151e-09
3.70539e-09
-4.02775e-09
4.01146e-09
-4.94653e-09
4.22752e-09
-5.89403e-09
4.37248e-09
-6.8601e-09
4.46381e-09
-7.83726e-09
4.51628e-09
-8.82014e-09
4.54156e-09
-9.80495e-09
4.54832e-09
-1.07891e-08
4.54271e-09
-1.17707e-08
4.52888e-09
-1.27485e-08
4.5095e-09
-1.37215e-08
4.48623e-09
-1.46891e-08
4.46007e-09
-1.56507e-08
4.43158e-09
-1.66057e-08
4.40106e-09
-1.75537e-08
4.36869e-09
-1.84943e-08
4.33454e-09
-1.94271e-08
4.29866e-09
-2.03517e-08
4.26106e-09
-2.12678e-08
4.22176e-09
-2.21748e-08
4.18076e-09
-2.30726e-08
4.13809e-09
-2.39606e-08
4.09374e-09
-2.48386e-08
4.04774e-09
-2.57062e-08
4.00011e-09
-2.6563e-08
3.95085e-09
-2.74086e-08
3.89999e-09
-2.82429e-08
3.84756e-09
-2.90653e-08
3.79356e-09
-2.98756e-08
3.73804e-09
-3.06734e-08
3.681e-09
-3.14585e-08
3.62247e-09
-3.22304e-08
3.56249e-09
-3.2989e-08
3.50106e-09
-3.37338e-08
3.43823e-09
-3.44646e-08
3.37402e-09
-3.51812e-08
3.30845e-09
-3.58831e-08
3.24155e-09
-3.65702e-08
3.17336e-09
-3.72421e-08
3.10389e-09
-3.78987e-08
3.03318e-09
-3.85395e-08
2.96126e-09
-3.91645e-08
2.88816e-09
-3.97733e-08
2.8139e-09
-4.03656e-08
2.73852e-09
-4.09414e-08
2.66204e-09
-4.15002e-08
2.58451e-09
-4.2042e-08
2.50594e-09
-4.25664e-08
2.42637e-09
-4.30733e-08
2.34583e-09
-4.35626e-08
2.26435e-09
-4.40339e-08
2.18197e-09
-4.44871e-08
2.09871e-09
-4.4922e-08
2.01461e-09
-4.53385e-08
1.9297e-09
-4.57364e-08
1.84401e-09
-4.61155e-08
1.75757e-09
-4.64757e-08
1.67041e-09
-4.68168e-08
1.58257e-09
-4.71388e-08
1.49408e-09
-4.74413e-08
1.40497e-09
-4.77245e-08
1.31528e-09
-4.7988e-08
1.22503e-09
-4.82318e-08
1.13425e-09
-4.84559e-08
1.04299e-09
-4.86601e-08
9.51273e-10
-4.88443e-08
8.59132e-10
-4.90084e-08
7.66601e-10
-4.91524e-08
6.73713e-10
-4.92763e-08
5.80501e-10
-4.93798e-08
4.87e-10
-4.94631e-08
3.93242e-10
-4.9526e-08
2.99261e-10
-4.95685e-08
2.05092e-10
-4.95906e-08
1.10767e-10
-4.95922e-08
1.63221e-11
-4.95734e-08
-7.82093e-11
-4.95342e-08
-1.72793e-10
-4.94744e-08
-2.67393e-10
-4.93942e-08
-3.61975e-10
-4.92936e-08
-4.56505e-10
-4.91725e-08
-5.50947e-10
-4.9031e-08
-6.45266e-10
-4.88692e-08
-7.39427e-10
-4.8687e-08
-8.33394e-10
-4.84846e-08
-9.27131e-10
-4.8262e-08
-1.0206e-09
-4.80192e-08
-1.11377e-09
-4.77564e-08
-1.20661e-09
-4.74737e-08
-1.29906e-09
-4.7171e-08
-1.39111e-09
-4.68485e-08
-1.48271e-09
-4.65064e-08
-1.57382e-09
-4.61447e-08
-1.66442e-09
-4.57635e-08
-1.75445e-09
-4.53631e-08
-1.84389e-09
-4.49434e-08
-1.93269e-09
-4.45048e-08
-2.02081e-09
-4.40473e-08
-2.10823e-09
-4.3571e-08
-2.1949e-09
-4.30762e-08
-2.28078e-09
-4.25631e-08
-2.36584e-09
-4.20318e-08
-2.45003e-09
-4.14825e-08
-2.53332e-09
-4.09155e-08
-2.61567e-09
-4.03309e-08
-2.69704e-09
-3.9729e-08
-2.77739e-09
-3.91099e-08
-2.85668e-09
-3.8474e-08
-2.93488e-09
-3.78214e-08
-3.01194e-09
-3.71525e-08
-3.08784e-09
-3.64675e-08
-3.16252e-09
-3.57666e-08
-3.23596e-09
-3.50502e-08
-3.30812e-09
-3.43185e-08
-3.37895e-09
-3.35717e-08
-3.44843e-09
-3.28103e-08
-3.51651e-09
-3.20346e-08
-3.58316e-09
-3.12447e-08
-3.64835e-09
-3.04411e-08
-3.71204e-09
-2.96241e-08
-3.7742e-09
-2.8794e-08
-3.83479e-09
-2.79512e-08
-3.89378e-09
-2.7096e-08
-3.95114e-09
-2.62288e-08
-4.00684e-09
-2.53499e-08
-4.06085e-09
-2.44598e-08
-4.11314e-09
-2.35587e-08
-4.16368e-09
-2.26471e-08
-4.21246e-09
-2.17254e-08
-4.25945e-09
-2.0794e-08
-4.30462e-09
-1.98532e-08
-4.34795e-09
-1.89035e-08
-4.38944e-09
-1.79453e-08
-4.42905e-09
-1.6979e-08
-4.46676e-09
-1.60051e-08
-4.50251e-09
-1.50241e-08
-4.5362e-09
-1.40365e-08
-4.56766e-09
-1.30429e-08
-4.59655e-09
-1.20441e-08
-4.62226e-09
-1.10411e-08
-4.64377e-09
-1.00353e-08
-4.65935e-09
-9.02851e-09
-4.66624e-09
-8.02353e-09
-4.6602e-09
-7.02425e-09
-4.63496e-09
-6.03617e-09
-4.5817e-09
-5.06697e-09
-4.4886e-09
-4.12698e-09
-4.34068e-09
-3.22979e-09
-4.12021e-09
-2.39263e-09
-3.80794e-09
-1.63671e-09
-3.3854e-09
-9.87375e-10
-2.83832e-09
-4.74212e-10
-2.16107e-09
-1.31495e-10
-1.36163e-09
-4.68177e-10
-1.35651e-10
5.86219e-10
-4.91258e-10
1.67014e-09
-1.02338e-09
2.62558e-09
-1.69525e-09
3.42744e-09
-2.47544e-09
4.07149e-09
-3.33743e-09
4.56738e-09
-4.25937e-09
4.9334e-09
-5.22377e-09
5.19192e-09
-6.21704e-09
5.36574e-09
-7.2289e-09
5.47567e-09
-8.25183e-09
5.53921e-09
-9.28044e-09
5.57016e-09
-1.03109e-08
5.57879e-09
-1.13406e-08
5.5724e-09
-1.23677e-08
5.55593e-09
-1.33908e-08
5.5326e-09
-1.44089e-08
5.50441e-09
-1.54214e-08
5.47257e-09
-1.64276e-08
5.43778e-09
-1.7427e-08
5.40045e-09
-1.84191e-08
5.36077e-09
-1.94034e-08
5.31888e-09
-2.03796e-08
5.27482e-09
-2.13472e-08
5.22863e-09
-2.23058e-08
5.18034e-09
-2.3255e-08
5.12996e-09
-2.41944e-08
5.0775e-09
-2.51236e-08
5.02299e-09
-2.60423e-08
4.96645e-09
-2.69501e-08
4.90789e-09
-2.78466e-08
4.84734e-09
-2.87314e-08
4.78483e-09
-2.96042e-08
4.72037e-09
-3.04647e-08
4.65401e-09
-3.13124e-08
4.58577e-09
-3.21471e-08
4.51567e-09
-3.29684e-08
4.44375e-09
-3.37759e-08
4.37003e-09
-3.45694e-08
4.29456e-09
-3.53485e-08
4.21736e-09
-3.6113e-08
4.13847e-09
-3.68625e-08
4.05791e-09
-3.75966e-08
3.97573e-09
-3.83152e-08
3.89196e-09