/*--------------------------------*- C++ -*----------------------------------*\
  =========                 |
  \\      /  F ield         | OpenFOAM: The Open Source CFD Toolbox
   \\    /   O peration     | Website:  https://openfoam.org
    \\  /    A nd           | Version:  7
     \\/     M anipulation  |
\*---------------------------------------------------------------------------*/
FoamFile
{
    version     2.0;
    format      ascii;
    class       volScalarField;
    location    "0.225";
    object      p;
}
// * * * * * * * * * * * * * * * * * * * * * * * * * * * * * * * * * * * * * //

dimensions      [0 2 -2 0 0 0 0];

internalField   nonuniform List<scalar> 
25600
(
-4.72927e-09
1.03963e-05
2.10355e-05
2.62552e-05
2.49678e-05
1.90521e-05
9.81096e-06
-1.67368e-06
-1.45874e-05
-2.82969e-05
-4.22878e-05
-5.61426e-05
-6.94884e-05
-8.19983e-05
-9.34271e-05
-0.000103587
-0.00011232
-0.000119491
-0.00012499
-0.00012873
-0.000130625
-0.000130606
-0.00012864
-0.000124708
-0.000118784
-0.000110849
-0.000100898
-8.89308e-05
-7.4944e-05
-5.89308e-05
-4.09006e-05
-2.08761e-05
1.12681e-06
2.51042e-05
5.10506e-05
7.89464e-05
0.000108767
0.000140494
0.000174126
0.000209655
0.000247064
0.000286328
0.000327428
0.00037036
0.000415117
0.000461684
0.000510036
0.000560153
0.000612026
0.00066565
0.000721014
0.000778095
0.000836869
0.000897314
0.000959419
0.00102318
0.00108857
0.00115556
0.00122413
0.00129425
0.00136591
0.00143909
0.00151376
0.0015899
0.00166746
0.00174642
0.00182676
0.00190844
0.00199143
0.00207571
0.00216123
0.00224793
0.00233578
0.00242473
0.00251475
0.00260578
0.00269777
0.00279065
0.00288437
0.00297886
0.00307405
0.00316988
0.00326629
0.0033632
0.00346053
0.0035582
0.00365611
0.00375419
0.00385235
0.00395051
0.00404859
0.00414648
0.0042441
0.00434132
0.00443806
0.00453422
0.0046297
0.00472441
0.00481825
0.00491111
0.0050029
0.00509349
0.00518279
0.00527069
0.00535708
0.00544186
0.00552494
0.00560622
0.0056856
0.00576297
0.00583823
0.00591129
0.00598204
0.00605041
0.0061163
0.00617965
0.00624037
0.0062984
0.00635366
0.00640609
0.00645563
0.00650221
0.00654578
0.00658631
0.00662375
0.00665808
0.0066893
0.00671737
0.00674231
0.00676412
0.00678279
0.00679836
0.00681083
0.00682026
0.00682668
0.00683016
0.00683077
0.0068286
0.00682374
0.00681632
0.00680645
0.00679428
0.00677996
0.00676367
0.00674559
0.00672595
0.00670498
0.00668295
0.00666017
0.00663697
0.00661375
0.00659093
0.00656902
0.00654858
0.00653023
0.00651468
0.00650264
0.00649484
0.00649187
0.00649321
9.30795e-06
1.9083e-05
2.70383e-05
3.06935e-05
2.98858e-05
2.53867e-05
1.80796e-05
8.74982e-06
-1.91265e-06
-1.33382e-05
-2.50881e-05
-3.67743e-05
-4.80562e-05
-5.86534e-05
-6.8317e-05
-7.68421e-05
-8.40656e-05
-8.98513e-05
-9.40947e-05
-9.67036e-05
-9.75896e-05
-9.66875e-05
-9.39542e-05
-8.93511e-05
-8.28417e-05
-7.44039e-05
-6.4034e-05
-5.17292e-05
-3.74737e-05
-2.1255e-05
-3.08446e-06
1.7019e-05
3.90499e-05
6.30113e-05
8.88982e-05
0.00011669
0.000146366
0.000177915
0.00021134
0.000246632
0.00028377
0.00032273
0.000363503
0.000406087
0.000450474
0.000496646
0.000544576
0.000594249
0.000645659
0.000698801
0.000753663
0.000810219
0.000868441
0.000928315
0.000989831
0.00105298
0.00111774
0.00118408
0.00125197
0.00132138
0.00139231
0.00146474
0.00153864
0.00161398
0.00169072
0.00176883
0.00184829
0.00192907
0.00201115
0.00209448
0.00217901
0.00226471
0.00235153
0.00243942
0.00252836
0.00261828
0.00270914
0.00280086
0.00289339
0.00298666
0.00308061
0.00317519
0.00327031
0.00336592
0.00346192
0.00355824
0.00365478
0.00375147
0.00384823
0.00394497
0.00404161
0.00413806
0.00423421
0.00432997
0.00442523
0.0045199
0.0046139
0.00470712
0.00479947
0.00489086
0.00498117
0.0050703
0.00515814
0.00524459
0.00532955
0.00541293
0.00549463
0.00557455
0.0056526
0.00572868
0.00580269
0.00587453
0.00594411
0.00601135
0.00607616
0.00613849
0.00619825
0.00625539
0.00630982
0.0063615
0.00641035
0.00645633
0.00649938
0.00653946
0.00657656
0.00661064
0.0066417
0.00666973
0.00669473
0.0067167
0.00673566
0.00675162
0.00676462
0.00677469
0.00678188
0.00678626
0.0067879
0.00678689
0.00678334
0.00677736
0.00676908
0.00675864
0.0067462
0.00673192
0.006716
0.00669865
0.0066801
0.00666062
0.00664049
0.00662004
0.00659962
0.00657964
0.00656054
0.0065428
0.00652694
0.00651353
0.00650308
0.0064961
0.00649321
0.00649455
2.71698e-05
3.36685e-05
3.79774e-05
3.95001e-05
3.80397e-05
3.38701e-05
2.74567e-05
1.93533e-05
1.01027e-05
1.65699e-07
-1.00492e-05
-2.01903e-05
-2.99696e-05
-3.91325e-05
-4.74473e-05
-5.47154e-05
-6.0767e-05
-6.5471e-05
-6.87215e-05
-7.04185e-05
-7.04811e-05
-6.88515e-05
-6.54799e-05
-6.03159e-05
-5.33145e-05
-4.44539e-05
-3.37316e-05
-2.11341e-05
-6.63753e-06
9.76581e-06
2.80633e-05
4.82455e-05
7.03164e-05
9.42809e-05
0.000120129
0.000147841
0.0001774
0.000208811
0.000242073
0.000277171
0.000314082
0.000352791
0.000393293
0.00043559
0.000479667
0.000525502
0.000573074
0.000622371
0.000673391
0.000726128
0.000780561
0.000836664
0.000894415
0.000953804
0.00101482
0.00107745
0.00114167
0.00120745
0.00127476
0.00134358
0.0014139
0.0014857
0.00155895
0.00163361
0.00170966
0.00178706
0.00186578
0.00194582
0.00202713
0.00210967
0.00219339
0.00227825
0.00236421
0.00245123
0.00253927
0.00262828
0.00271821
0.00280897
0.00290052
0.00299279
0.00308573
0.00317927
0.00327334
0.00336788
0.0034628
0.00355801
0.00365343
0.00374898
0.00384459
0.00394018
0.00403566
0.00413093
0.0042259
0.00432047
0.00441453
0.004508
0.0046008
0.00469282
0.00478398
0.00487417
0.0049633
0.00505124
0.00513791
0.0052232
0.00530701
0.00538926
0.00546985
0.00554869
0.00562568
0.00570072
0.00577372
0.00584458
0.00591322
0.00597956
0.00604352
0.00610503
0.00616402
0.00622044
0.00627422
0.00632529
0.00637359
0.00641908
0.00646171
0.00650145
0.00653827
0.00657215
0.00660309
0.00663108
0.00665612
0.00667823
0.00669741
0.00671369
0.0067271
0.00673768
0.00674548
0.00675057
0.00675303
0.00675294
0.00675042
0.00674558
0.00673855
0.00672946
0.00671848
0.00670576
0.00669151
0.00667591
0.00665921
0.00664165
0.0066235
0.00660506
0.00658668
0.00656871
0.00655155
0.00653563
0.00652139
0.00650929
0.00649976
0.00649321
0.00649033
0.00649161
4.81714e-05
5.10435e-05
5.22735e-05
5.15947e-05
4.8938e-05
4.43587e-05
3.81176e-05
3.05872e-05
2.21356e-05
1.31407e-05
3.9608e-06
-5.1037e-06
-1.37886e-05
-2.18615e-05
-2.91236e-05
-3.53881e-05
-4.04977e-05
-4.43286e-05
-4.6766e-05
-4.77081e-05
-4.70811e-05
-4.48305e-05
-4.09017e-05
-3.52395e-05
-2.78037e-05
-1.85762e-05
-7.54128e-06
5.32732e-06
2.00481e-05
3.66202e-05
5.50359e-05
7.52987e-05
9.742e-05
0.0001214
0.00014722
0.000174865
0.000204333
0.000235632
0.000268756
0.000303683
0.000340395
0.000378884
0.000419152
0.000461196
0.000504997
0.000550529
0.000597776
0.000646737
0.000697412
0.000749785
0.000803831
0.000859523
0.000916849
0.000975801
0.00103637
0.00109854
0.00116227
0.00122754
0.00129433
0.00136262
0.00143239
0.00150363
0.0015763
0.00165037
0.0017258
0.00180256
0.00188065
0.00196003
0.00204066
0.00212251
0.00220552
0.00228965
0.00237486
0.00246112
0.00254839
0.00263661
0.00272572
0.00281566
0.00290636
0.00299776
0.00308982
0.00318247
0.00327565
0.00336926
0.00346324
0.0035575
0.00365196
0.00374654
0.00384118
0.00393578
0.00403027
0.00412455
0.00421851
0.00431206
0.00440511
0.00449757
0.00458935
0.00468037
0.00477052
0.00485971
0.00494783
0.00503478
0.00512046
0.00520477
0.00528762
0.00536892
0.00544858
0.00552651
0.00560261
0.00567679
0.00574895
0.00581899
0.00588684
0.00595242
0.00601566
0.00607649
0.00613485
0.00619067
0.00624389
0.00629445
0.0063423
0.00638738
0.00642966
0.00646911
0.00650569
0.00653941
0.00657024
0.00659819
0.00662328
0.00664549
0.00666485
0.00668139
0.00669514
0.00670613
0.00671443
0.00672011
0.00672323
0.0067239
0.00672222
0.0067183
0.00671228
0.00670429
0.00669448
0.00668302
0.00667008
0.00665588
0.00664061
0.00662453
0.00660788
0.00659096
0.00657406
0.00655752
0.0065417
0.00652697
0.00651371
0.00650232
0.00649318
0.00648665
0.00648338
0.00648386
6.96794e-05
6.96229e-05
6.83398e-05
6.57662e-05
6.18161e-05
5.65356e-05
5.01099e-05
4.27649e-05
3.47727e-05
2.64296e-05
1.80086e-05
9.77008e-06
1.95552e-06
-5.23041e-06
-1.1606e-05
-1.70047e-05
-2.12905e-05
-2.43421e-05
-2.60458e-05
-2.63087e-05
-2.50619e-05
-2.22453e-05
-1.77956e-05
-1.16623e-05
-3.81951e-06
5.75429e-06
1.70928e-05
3.02266e-05
4.51631e-05
6.18974e-05
8.04331e-05
0.000100784
0.000122961
0.000146957
0.000172752
0.00020034
0.000229731
0.000260928
0.000293919
0.000328681
0.000365202
0.000403485
0.000443531
0.00048533
0.000528859
0.000574095
0.000621031
0.000669669
0.000720005
0.00077202
0.000825684
0.000880976
0.000937889
0.000996417
0.00105655
0.00111826
0.00118152
0.0012463
0.00131258
0.00138035
0.0014496
0.0015203
0.00159241
0.00166589
0.00174073
0.00181689
0.00189437
0.00197312
0.00205311
0.0021343
0.00221662
0.00230006
0.00238457
0.00247012
0.00255665
0.00264413
0.00273247
0.00282162
0.00291153
0.00300212
0.00309336
0.00318518
0.0032775
0.00337026
0.00346337
0.00355674
0.0036503
0.00374398
0.00383771
0.0039314
0.00402497
0.00411832
0.00421135
0.00430397
0.00439608
0.00448761
0.00457846
0.00466855
0.00475778
0.00484605
0.00493325
0.00501929
0.00510407
0.00518748
0.00526945
0.00534989
0.0054287
0.0055058
0.00558109
0.00565447
0.00572586
0.00579515
0.00586229
0.00592718
0.00598976
0.00604997
0.00610774
0.00616302
0.00621573
0.00626583
0.00631326
0.00635797
0.00639992
0.0064391
0.00647547
0.00650902
0.00653976
0.00656768
0.00659279
0.00661509
0.00663462
0.00665138
0.00666543
0.00667679
0.00668553
0.00669172
0.00669544
0.00669678
0.00669584
0.00669275
0.00668761
0.00668058
0.0066718
0.00666143
0.00664964
0.00663662
0.00662258
0.00660774
0.00659234
0.00657665
0.00656095
0.00654552
0.00653069
0.00651679
0.00650415
0.00649311
0.00648399
0.00647713
0.006473
0.00647195
9.20752e-05
8.91151e-05
8.55742e-05
8.12677e-05
7.60246e-05
6.99139e-05
6.30495e-05
5.56022e-05
4.77895e-05
3.98247e-05
3.19211e-05
2.42948e-05
1.71502e-05
1.06687e-05
5.01587e-06
3.32624e-07
-3.25376e-06
-5.62432e-06
-6.67898e-06
-6.33944e-06
-4.53872e-06
-1.2074e-06
3.71857e-06
1.02779e-05
1.84932e-05
2.83968e-05
4.00279e-05
5.34099e-05
6.85452e-05
8.54347e-05
0.000104093
0.000124536
0.000146769
0.000170777
0.000196549
0.000224092
0.000253417
0.000284518
0.000317379
0.000351983
0.000388327
0.000426417
0.000466251
0.00050781
0.000551074
0.000596026
0.000642665
0.000690994
0.000741001
0.000792663
0.000845953
0.000900859
0.000957375
0.00101549
0.0010752
0.00113647
0.00119926
0.00126357
0.00132936
0.00139664
0.00146539
0.00153556
0.00160713
0.00168007
0.00175434
0.00182993
0.00190683
0.00198499
0.00206437
0.00214493
0.00222662
0.0023094
0.00239326
0.00247813
0.00256399
0.00265076
0.00273839
0.00282681
0.00291597
0.00300582
0.0030963
0.00318734
0.00327889
0.00337084
0.00346314
0.00355569
0.00364843
0.00374129
0.00383418
0.00392704
0.00401977
0.00411227
0.00420445
0.00429622
0.00438748
0.00447816
0.00456817
0.00465742
0.00474581
0.00483325
0.00491962
0.00500483
0.00508879
0.0051714
0.00525258
0.00533224
0.00541029
0.00548664
0.00556119
0.00563386
0.00570455
0.00577317
0.00583966
0.00590393
0.00596592
0.00602557
0.00608281
0.0061376
0.00618985
0.00623953
0.00628658
0.00633095
0.00637261
0.00641154
0.00644771
0.00648112
0.00651176
0.00653964
0.00656477
0.00658715
0.00660681
0.00662377
0.00663807
0.00664975
0.00665888
0.00666552
0.00666975
0.00667167
0.00667138
0.00666899
0.00666462
0.00665842
0.00665052
0.00664107
0.00663025
0.00661823
0.0066052
0.00659138
0.00657699
0.00656227
0.00654747
0.00653286
0.00651872
0.00650534
0.00649299
0.00648197
0.00647257
0.00646506
0.00645969
0.00645659
0.000115175
0.00010934
0.000103603
9.76267e-05
9.10851e-05
8.40291e-05
7.65621e-05
6.88165e-05
6.09461e-05
5.31198e-05
4.55139e-05
3.82974e-05
3.16388e-05
2.56982e-05
2.06123e-05
1.65053e-05
1.34987e-05
1.17008e-05
1.11961e-05
1.20544e-05
1.43472e-05
1.81426e-05
2.34915e-05
3.0426e-05
3.89792e-05
4.91924e-05
6.10963e-05
7.47039e-05
9.002e-05
0.000107057
0.000125837
0.000146371
0.000168653
0.00019267
0.000218426
0.000245934
0.000275198
0.000306206
0.000338941
0.000373397
0.000409578
0.000447488
0.000487118
0.000528445
0.000571451
0.000616132
0.000662491
0.000710524
0.000760213
0.000811532
0.000864462
0.000918997
0.000975133
0.00103286
0.00109216
0.001153
0.00121535
0.00127919
0.00134453
0.00141134
0.0014796
0.00154928
0.00162034
0.00169275
0.0017665
0.00184156
0.00191791
0.00199551
0.00207433
0.0021543
0.00223539
0.00231758
0.00240082
0.00248508
0.00257031
0.00265643
0.0027434
0.00283115
0.00291963
0.00300879
0.00309858
0.00318892
0.00327975
0.00337098
0.00346253
0.00355434
0.00364634
0.00373845
0.0038306
0.0039227
0.00401467
0.00410641
0.00419783
0.00428883
0.00437934
0.00446926
0.00455852
0.00464702
0.00473467
0.00482136
0.004907
0.00499148
0.00507471
0.0051566
0.00523708
0.00531605
0.00539342
0.00546911
0.00554302
0.00561505
0.00568512
0.00575315
0.00581906
0.00588278
0.00594425
0.00600341
0.00606019
0.00611453
0.00616638
0.00621569
0.00626239
0.00630646
0.00634785
0.00638655
0.00642254
0.00645582
0.00648637
0.00651421
0.00653934
0.00656178
0.00658154
0.00659867
0.00661318
0.00662513
0.00663458
0.0066416
0.00664626
0.00664867
0.00664893
0.00664713
0.00664342
0.0066379
0.00663073
0.00662204
0.00661201
0.00660079
0.00658858
0.00657556
0.00656194
0.00654794
0.00653379
0.00651973
0.006506
0.00649285
0.00648052
0.00646924
0.00645928
0.00645086
0.00644398
0.00643852
0.000138684
0.000129988
0.000122104
0.000114493
0.000106606
9.85172e-05
9.03365e-05
8.21413e-05
7.40409e-05
6.61746e-05
5.86812e-05
5.16989e-05
4.53653e-05
3.98114e-05
3.51538e-05
3.15052e-05
2.89726e-05
2.76452e-05
2.75957e-05
2.8896e-05
3.16198e-05
3.58225e-05
4.1539e-05
4.88053e-05
5.7667e-05
6.81628e-05
8.03115e-05
9.41209e-05
0.000109604
0.000126783
0.00014568
0.000166294
0.000188615
0.000212642
0.000238389
0.000265867
0.000295072
0.000325987
0.000358603
0.000392921
0.00042895
0.000466689
0.00050612
0.000547222
0.000589983
0.000634409
0.0006805
0.000728246
0.000777625
0.000828613
0.000881198
0.000935378
0.000991151
0.0010485
0.0011074
0.00116783
0.00122975
0.00129317
0.00135807
0.00142444
0.00149224
0.00156144
0.00163202
0.00170394
0.00177719
0.00185175
0.0019276
0.00200468
0.00208296
0.00216239
0.00224294
0.00232457
0.00240726
0.00249095
0.00257559
0.00266113
0.00274749
0.00283463
0.00292249
0.00301103
0.00310018
0.00318988
0.00328006
0.00337063
0.00346153
0.00355267
0.00364399
0.00373543
0.00382691
0.00391835
0.00400964
0.0041007
0.00419144
0.00428177
0.00437161
0.00446086
0.00454946
0.0046373
0.00472429
0.00481033
0.00489532
0.00497916
0.00506175
0.00514303
0.00522289
0.00530126
0.00537804
0.00545315
0.00552649
0.00559797
0.0056675
0.00573501
0.00580041
0.00586365
0.00592467
0.00598339
0.00603976
0.00609372
0.00614521
0.00619418
0.00624058
0.00628438
0.00632554
0.00636403
0.00639986
0.006433
0.00646347
0.00649126
0.00651639
0.00653887
0.00655871
0.00657596
0.00659064
0.00660281
0.00661252
0.00661985
0.00662488
0.00662769
0.00662839
0.00662709
0.0066239
0.00661895
0.00661236
0.00660429
0.00659488
0.0065843
0.00657271
0.00656029
0.00654723
0.00653374
0.00652001
0.00650626
0.0064927
0.00647954
0.00646698
0.00645523
0.00644449
0.00643497
0.0064264
0.00641841
0.000162246
0.000150746
0.000140761
0.000131521
0.000122268
0.000113095
0.000104099
9.53323e-05
8.68751e-05
7.88274e-05
7.13018e-05
6.44115e-05
5.82625e-05
5.29599e-05
4.86096e-05
4.53117e-05
4.31511e-05
4.21985e-05
4.25238e-05
4.42006e-05
4.72921e-05
5.18376e-05
5.78702e-05
6.54345e-05
7.45749e-05
8.53201e-05
9.76814e-05
0.00011167
0.000127309
0.000144624
0.000163625
0.000184304
0.000206658
0.000230699
0.000256441
0.000283888
0.00031303
0.000343854
0.000376357
0.00041055
0.000446437
0.000484008
0.000523243
0.000564127
0.000606658
0.000650842
0.000696676
0.000744143
0.00079322
0.000843889
0.000896145
0.000949989
0.00100542
0.0010624
0.00112092
0.00118095
0.00124247
0.00130548
0.00136997
0.00143591
0.00150328
0.00157203
0.00164215
0.00171362
0.00178641
0.00186051
0.00193588
0.00201248
0.00209026
0.00216919
0.00224924
0.00233036
0.00241254
0.00249571
0.00257982
0.00266481
0.00275063
0.00283721
0.00292452
0.00301249
0.00310108
0.00319021
0.0032798
0.00336979
0.00346009
0.00355064
0.00364137
0.00373222
0.00382311
0.00391395
0.00400465
0.00409511
0.00418526
0.004275
0.00436424
0.00445292
0.00454094
0.00462821
0.00471464
0.00480011
0.00488454
0.00496782
0.00504987
0.0051306
0.00520994
0.00528778
0.00536406
0.00543867
0.00551152
0.00558252
0.00565159
0.00571865
0.00578362
0.00584645
0.00590706
0.00596541
0.00602142
0.00607505
0.00612623
0.00617491
0.00622105
0.0062646
0.00630554
0.00634386
0.00637953
0.00641256
0.00644294
0.00647068
0.00649579
0.00651829
0.00653819
0.00655553
0.00657034
0.00658268
0.0065926
0.00660018
0.00660549
0.00660862
0.00660968
0.00660877
0.00660599
0.00660148
0.00659536
0.00658776
0.00657883
0.00656872
0.00655758
0.00654558
0.0065329
0.00651972
0.00650621
0.00649257
0.00647898
0.00646561
0.00645265
0.00644024
0.00642857
0.00641781
0.00640744
0.00639686
0.000185536
0.000171316
0.000159254
0.000148399
0.000137789
0.000127492
0.000117607
0.000108179
9.92582e-05
9.09158e-05
8.32422e-05
7.63218e-05
7.0237e-05
6.5077e-05
6.09324e-05
5.78834e-05
5.59955e-05
5.53325e-05
5.59656e-05
5.79564e-05
6.13477e-05
6.6175e-05
7.24806e-05
8.03096e-05
8.96945e-05
0.000100653
0.000113196
0.000127345
0.00014313
0.000160567
0.000179653
0.000200384
0.000222769
0.000246825
0.000272562
0.000299975
0.00032905
0.000359784
0.000392184
0.00042626
0.000462009
0.000499414
0.000538457
0.000579133
0.000621447
0.000665402
0.000710988
0.000758182
0.000806966
0.00085733
0.000909274
0.000962799
0.00101789
0.00107453
0.00113268
0.00119233
0.00125347
0.0013161
0.00138019
0.00144574
0.00151269
0.00158102
0.00165072
0.00172175
0.00179412
0.00186779
0.00194272
0.00201887
0.0020962
0.00217467
0.00225426
0.00233493
0.00241664
0.00249934
0.00258297
0.00266747
0.00275279
0.00283888
0.00292569
0.00301317
0.00310125
0.00318987
0.00327894
0.0033684
0.00345818
0.00354821
0.00363843
0.00372877
0.00381914
0.00390947
0.00399965
0.00408961
0.00417924
0.00426847
0.00435722
0.0044454
0.00453293
0.00461972
0.00470566
0.00479065
0.0048746
0.00495741
0.00503899
0.00511928
0.00519816
0.00527558
0.00535143
0.00542561
0.00549805
0.00556865
0.00563733
0.005704
0.00576861
0.00583109
0.00589137
0.00594939
0.00600511
0.00605845
0.00610936
0.00615778
0.00620369
0.00624703
0.00628778
0.00632593
0.00636147
0.00639439
0.00642468
0.00645237
0.00647746
0.00649995
0.00651989
0.00653729
0.00655219
0.00656465
0.00657473
0.00658249
0.00658801
0.00659139
0.00659272
0.0065921
0.00658964
0.00658546
0.00657968
0.00657243
0.00656384
0.00655405
0.00654321
0.00653148
0.00651901
0.00650597
0.00649251
0.00647881
0.00646501
0.00645128
0.00643775
0.00642455
0.00641183
0.00639975
0.00638754
0.00637439
0.000208265
0.000191403
0.000177314
0.000164867
0.000152891
0.000141449
0.000130636
0.00012048
0.000111015
0.000102291
9.4369e-05
8.73137e-05
8.11958e-05
7.60873e-05
7.20567e-05
6.91627e-05
6.74617e-05
6.7019e-05
6.78959e-05
7.01322e-05
7.37601e-05
7.88212e-05
8.53614e-05
9.34167e-05
0.000103006
0.000114141
0.000126842
0.000141139
0.000157054
0.00017459
0.000193743
0.000214518
0.000236933
0.000261002
0.000286728
0.000314098
0.000343105
0.000373755
0.000406059
0.000440023
0.000475635
0.000512874
0.000551732
0.000592212
0.000634321
0.000678056
0.000723398
0.000770327
0.00081883
0.000868905
0.000920555
0.000973775
0.00102855
0.00108484
0.00114264
0.00120193
0.00126272
0.00132499
0.00138872
0.00145388
0.00152044
0.00158838
0.00165768
0.00172833
0.0018003
0.00187358
0.0019481
0.00202384
0.00210075
0.00217881
0.00225798
0.00233824
0.00241953
0.00250181
0.002585
0.00266907
0.00275394
0.0028396
0.00292597
0.00301301
0.00310065
0.00318882
0.00327745
0.00336646
0.00345579
0.00354537
0.00363515
0.00372505
0.00381499
0.00390488
0.00399462
0.00408414
0.00417334
0.00426215
0.00435048
0.00443825
0.00452538
0.00461176
0.0046973
0.00478189
0.00486545
0.00494787
0.00502908
0.00510899
0.00518752
0.00526458
0.00534007
0.00541392
0.00548602
0.00555628
0.00562464
0.005691
0.00575531
0.0058175
0.0058775
0.00593526
0.00599072
0.00604382
0.0060945
0.00614272
0.00618842
0.00623158
0.00627217
0.00631018
0.00634559
0.0063784
0.00640862
0.00643624
0.00646129
0.00648377
0.00650371
0.00652114
0.0065361
0.00654864
0.00655881
0.0065667
0.00657238
0.00657593
0.00657745
0.00657704
0.0065748
0.00657085
0.0065653
0.00655827
0.0065499
0.0065403
0.00652963
0.00651802
0.00650562
0.00649256
0.00647901
0.0064651
0.00645096
0.00643673
0.00642252
0.00640843
0.00639459
0.00638114
0.00636709
0.00635144
0.000230137
0.000210743
0.0001947
0.000180682
0.000167339
0.000154742
0.000142974
0.000132044
0.000121976
0.000112798
0.000104548
9.72792e-05
9.10486e-05
8.59087e-05
8.19059e-05
7.90863e-05
7.75068e-05
7.72229e-05
7.82744e-05
8.06893e-05
8.45029e-05
8.9759e-05
9.64949e-05
0.000104733
0.000114484
0.000125766
0.000138608
0.000153036
0.000169057
0.000186669
0.000205874
0.000226688
0.000249131
0.000273207
0.00029891
0.000326231
0.00035517
0.000385743
0.000417957
0.000451808
0.000487279
0.000524355
0.000563038
0.000603335
0.000645249
0.000688768
0.000733871
0.000780544
0.000828779
0.000878583
0.000929954
0.000982882
0.00103734
0.00109331
0.00115078
0.00120974
0.00127019
0.00133212
0.0013955
0.00146031
0.0015265
0.00159408
0.00166302
0.00173331
0.00180493
0.00187783
0.00195198
0.00202735
0.00210388
0.00218157
0.00226037
0.00234026
0.00242118
0.00250308
0.00258589
0.00266957
0.00275406
0.00283933
0.00292533
0.00301199
0.00309925
0.00318704
0.00327528
0.00336391
0.00345286
0.00354208
0.00363149
0.00372103
0.00381061
0.00390013
0.00398952
0.00407868
0.00416754
0.004256
0.004344
0.00443144
0.00451824
0.0046043
0.00468952
0.0047738
0.00485704
0.00493916
0.00502007
0.00509969
0.00517794
0.00525472
0.00532994
0.00540352
0.00547535
0.00554536
0.00561346
0.00567957
0.00574364
0.0058056
0.00586539
0.00592294
0.0059782
0.0060311
0.0060816
0.00612963
0.00617517
0.00621817
0.00625862
0.0062965
0.00633179
0.00636451
0.00639465
0.00642221
0.0064472
0.00646965
0.00648958
0.00650701
0.00652199
0.00653456
0.00654479
0.00655275
0.00655852
0.00656217
0.00656381
0.00656352
0.00656141
0.00655759
0.00655217
0.00654527
0.00653699
0.00652748
0.00651685
0.00650524
0.00649277
0.00647958
0.00646581
0.00645156
0.00643698
0.00642215
0.00640717
0.00639211
0.0063771
0.00636227
0.00634642
0.00632837
0.000250898
0.000229096
0.000211167
0.000195619
0.000180929
0.000167172
0.000154432
0.000142698
0.000131979
0.000122289
0.000113652
0.000106109
9.96976e-05
9.44507e-05
9.04014e-05
8.75957e-05
8.60819e-05
8.58923e-05
8.70519e-05
8.95914e-05
9.35495e-05
9.8962e-05
0.00010585
0.000114227
0.000124105
0.000135513
0.000148477
0.00016301
0.000179109
0.000196777
0.000216026
0.000236876
0.000259338
0.000283408
0.000309078
0.000336345
0.000365222
0.000395722
0.000427846
0.000461579
0.000496908
0.000533827
0.000572345
0.000612469
0.000654193
0.000697499
0.00074237
0.000788796
0.000836781
0.00088633
0.000937436
0.000990082
0.00104424
0.00109991
0.00115707
0.00121572
0.00127586
0.00133747
0.00140052
0.00146499
0.00153085
0.00159809
0.0016667
0.00173667
0.00180795
0.00188052
0.00195434
0.00202936
0.00210556
0.00218292
0.0022614
0.00234096
0.00242155
0.00250312
0.00258559
0.00266894
0.00275311
0.00283806
0.00292374
0.00301008
0.00309703
0.00318449
0.00327241
0.00336073
0.00344938
0.0035383
0.00362742
0.00371667
0.00380596
0.0038952
0.00398431
0.00407319
0.00416178
0.00424998
0.00433772
0.00442492
0.00451148
0.0045973
0.00468227
0.00476632
0.00484933
0.00493122
0.00501192
0.00509133
0.00516937
0.00524595
0.00532097
0.00539435
0.00546599
0.0055358
0.00560372
0.00566965
0.00573355
0.00579534
0.00585496
0.00591235
0.00596745
0.00602021
0.00607055
0.00611844
0.00616384
0.00620672
0.00624705
0.00628482
0.00632001
0.00635264
0.0063827
0.00641019
0.00643513
0.00645753
0.00647741
0.00649482
0.00650978
0.00652235
0.00653259
0.00654057
0.00654637
0.00655006
0.00655174
0.00655151
0.00654945
0.00654568
0.00654029
0.0065334
0.00652513
0.00651559
0.00650489
0.00649317
0.00648053
0.0064671
0.00645299
0.00643832
0.00642319
0.00640768
0.00639186
0.0063758
0.00635961
0.0063434
0.00632581
0.00630547
0.00027035
0.000246235
0.000226494
0.00020947
0.000193459
0.00017855
0.000164834
0.000152278
0.000140872
0.000130628
0.000121562
0.000113693
0.000107038
0.00010162
9.74717e-05
9.46307e-05
9.31231e-05
9.29647e-05
9.418e-05
9.68036e-05
0.000100868
0.000106393
0.000113387
0.000121864
0.000131845
0.000143359
0.00015642
0.000171028
0.000187181
0.000204892
0.000224178
0.000245055
0.000267523
0.000291573
0.000317201
0.000344416
0.000373235
0.000403662
0.000435689
0.0004693
0.000504488
0.00054126
0.000579623
0.000619579
0.000661115
0.000704212
0.000748857
0.000795052
0.000842802
0.00089211
0.000942961
0.000995335
0.00104921
0.00110459
0.00116146
0.00121982
0.00127967
0.00134099
0.00140373
0.00146789
0.00153344
0.00160038
0.0016687
0.00173837
0.00180936
0.00188162
0.00195513
0.00202986
0.00210577
0.00218284
0.00226104
0.00234032
0.00242062
0.00250189
0.00258408
0.00266715
0.00275105
0.00283574
0.00292116
0.00300724
0.00309393
0.00318114
0.00326881
0.00335688
0.0034453
0.003534
0.0036229
0.00371193
0.00380101
0.00389004
0.00397894
0.00406763
0.00415602
0.00424405
0.00433162
0.00441865
0.00450504
0.00459069
0.00467551
0.0047594
0.00484226
0.00492401
0.00500457
0.00508385
0.00516176
0.00523821
0.00531311
0.00538636
0.00545788
0.00552757
0.00559536
0.00566118
0.00572496
0.00578664
0.00584615
0.00590343
0.00595842
0.00601106
0.0060613
0.00610909
0.00615438
0.00619715
0.00623739
0.00627506
0.00631017
0.00634271
0.00637269
0.00640011
0.00642498
0.00644732
0.00646715
0.0064845
0.00649941
0.00651195
0.00652215
0.00653011
0.00653588
0.00653955
0.00654121
0.00654096
0.00653887
0.00653506
0.00652963
0.00652268
0.00651431
0.00650464
0.00649378
0.00648185
0.00646894
0.00645517
0.00644065
0.00642547
0.00640972
0.00639347
0.00637678
0.00635968
0.00634231
0.00632475
0.00630549
0.00628301
0.000288304
0.000261976
0.000240493
0.000222043
0.00020475
0.000188708
0.000174013
0.000160622
0.000148513
0.000137692
0.000128159
0.000119915
0.000112966
0.000107335
0.000103047
0.000100118
9.8557e-05
9.838e-05
9.96137e-05
0.000102286
0.000106415
0.000112005
0.000119065
0.000127615
0.00013768
0.000149275
0.0001624
0.000177054
0.000193245
0.00021099
0.000230306
0.000251195
0.000273651
0.000297668
0.000323252
0.000350419
0.000379179
0.000409527
0.000441449
0.000474935
0.000509989
0.000546622
0.000584837
0.000624627
0.000665975
0.000708867
0.000753298
0.000799277
0.000846808
0.000895884
0.000946489
0.000998603
0.00105221
0.00110732
0.00116393
0.00122203
0.00128161
0.00134264
0.0014051
0.00146897
0.00153425
0.00160092
0.00166897
0.00173838
0.0018091
0.00188109
0.00195434
0.0020288
0.00210446
0.00218129
0.00225924
0.00233828
0.00241834
0.00249937
0.00258133
0.00266417
0.00274786
0.00283234
0.00291755
0.00300344
0.00308992
0.00317694
0.00326443
0.00335233
0.00344059
0.00352913
0.00361789
0.00370678
0.00379571
0.00388461
0.00397338
0.00406195
0.00415024
0.00423816
0.00432564
0.00441258
0.00449888
0.00458445
0.00466919
0.004753
0.00483579
0.00491747
0.00499797
0.00507719
0.00515505
0.00523145
0.0053063
0.00537949
0.00545095
0.00552059
0.00558832
0.00565409
0.00571781
0.00577943
0.00583889
0.00589611
0.00595104
0.00600361
0.00605378
0.00610149
0.00614671
0.00618941
0.00622956
0.00626716
0.00630219
0.00633466
0.00636456
0.0063919
0.0064167
0.00643896
0.00645871
0.00647598
0.00649082
0.00650328
0.00651342
0.0065213
0.006527
0.0065306
0.00653218
0.00653183
0.00652965
0.00652573
0.00652018
0.00651307
0.00650453
0.00649466
0.00648355
0.00647132
0.00645806
0.00644388
0.00642886
0.0064131
0.00639668
0.00637965
0.00636205
0.00634392
0.00632537
0.00630651
0.00628566
0.00626117
0.000304576
0.000276151
0.000252996
0.000233171
0.00021464
0.000197485
0.000181816
0.00016759
0.000154773
0.000143354
0.00013332
0.000124664
0.000117391
0.000111516
0.000107044
0.000103974
0.000102315
0.000102085
0.000103306
0.000105988
0.000110136
0.00011575
0.000122848
0.000131452
0.000141575
0.000153218
0.000166377
0.000181058
0.000197275
0.000215045
0.000234375
0.000255257
0.000277685
0.000301663
0.000327204
0.000354322
0.000383017
0.000413276
0.000445087
0.000478452
0.00051338
0.00054988
0.000587948
0.000627571
0.000668733
0.000711428
0.000755659
0.000801437
0.000848759
0.000897613
0.00094798
0.000999848
0.00105321
0.00110808
0.00116444
0.00122229
0.00128162
0.0013424
0.0014046
0.00146821
0.00153324
0.00159968
0.00166749
0.00173666
0.00180714
0.0018789
0.00195191
0.00202616
0.0021016
0.00217823
0.00225598
0.00233482
0.00241468
0.00249551
0.00257729
0.00265996
0.00274349
0.00282782
0.00291289
0.00299863
0.00308498
0.00317187
0.00325924
0.00334704
0.00343521
0.00352367
0.00361235
0.00370117
0.00379004
0.00387887
0.0039676
0.00405612
0.00414438
0.00423228
0.00431974
0.00440667
0.00449296
0.00457853
0.00466326
0.00474707
0.00482987
0.00491157
0.00499208
0.00507133
0.0051492
0.00522562
0.00530048
0.00537369
0.00544516
0.00551481
0.00558255
0.00564832
0.00571205
0.00577367
0.00583312
0.00589033
0.00594524
0.00599779
0.00604792
0.00609559
0.00614077
0.00618341
0.00622351
0.00626105
0.00629602
0.00632842
0.00635825
0.00638551
0.00641022
0.00643239
0.00645204
0.00646922
0.00648396
0.00649631
0.00650633
0.0065141
0.00651968
0.00652315
0.0065246
0.0065241
0.00652176
0.00651767
0.00651191
0.00650459
0.0064958
0.00648564
0.00647421
0.00646161
0.00644793
0.00643326
0.0064177
0.00640131
0.00638417
0.00636633
0.00634782
0.00632865
0.00630896
0.00628884
0.00626649
0.00624012
0.000319013
0.000288605
0.000263857
0.000242704
0.000222969
0.00020473
0.000188108
0.000173056
0.000159526
0.000147489
0.00013693
0.000127843
0.000120227
0.000114073
0.000109373
0.000106124
0.000104338
0.000104028
0.000105199
0.000107849
0.000111974
0.000117586
0.000124704
0.000133337
0.000143486
0.000155144
0.000168314
0.000183008
0.000199242
0.000217023
0.000236346
0.000257202
0.000279593
0.000303531
0.000329029
0.000356092
0.00038471
0.00041487
0.000446571
0.00047982