/*--------------------------------*- C++ -*----------------------------------*\
  =========                 |
  \\      /  F ield         | OpenFOAM: The Open Source CFD Toolbox
   \\    /   O peration     | Website:  https://openfoam.org
    \\  /    A nd           | Version:  7
     \\/     M anipulation  |
\*---------------------------------------------------------------------------*/
FoamFile
{
    version     2.0;
    format      ascii;
    class       volVectorField;
    location    "0.1875";
    object      U;
}
// * * * * * * * * * * * * * * * * * * * * * * * * * * * * * * * * * * * * * //

dimensions      [0 1 -1 0 0 0 0];

internalField   nonuniform List<vector> 
25600
(
(2.85145e-07 -3.15897e-07 0)
(2.74886e-06 -1.71902e-06 0)
(8.0616e-06 -2.51649e-06 0)
(1.43696e-05 -2.64645e-06 0)
(2.03297e-05 -2.39108e-06 0)
(2.51693e-05 -1.92317e-06 0)
(2.84217e-05 -1.33791e-06 0)
(2.97918e-05 -6.85947e-07 0)
(2.90956e-05 -4.30354e-09 0)
(2.62311e-05 6.91452e-07 0)
(2.11527e-05 1.3852e-06 0)
(1.38495e-05 2.06826e-06 0)
(4.34648e-06 2.73554e-06 0)
(-7.31762e-06 3.38072e-06 0)
(-2.10846e-05 4.00149e-06 0)
(-3.68835e-05 4.5974e-06 0)
(-5.46397e-05 5.16584e-06 0)
(-7.42682e-05 5.70609e-06 0)
(-9.56809e-05 6.21815e-06 0)
(-0.00011879 6.70001e-06 0)
(-0.000143501 7.15233e-06 0)
(-0.000169722 7.57785e-06 0)
(-0.000197361 7.97505e-06 0)
(-0.000226325 8.34372e-06 0)
(-0.00025652 8.6855e-06 0)
(-0.000287858 8.99932e-06 0)
(-0.000320248 9.28577e-06 0)
(-0.000353602 9.54803e-06 0)
(-0.000387835 9.78677e-06 0)
(-0.000422863 1.00012e-05 0)
(-0.000458603 1.01927e-05 0)
(-0.000494975 1.03615e-05 0)
(-0.000531902 1.0507e-05 0)
(-0.000569307 1.06304e-05 0)
(-0.000607115 1.07331e-05 0)
(-0.000645254 1.08156e-05 0)
(-0.000683656 1.08779e-05 0)
(-0.00072225 1.0921e-05 0)
(-0.00076097 1.09459e-05 0)
(-0.000799753 1.09535e-05 0)
(-0.000838536 1.09443e-05 0)
(-0.000877258 1.0918e-05 0)
(-0.000915858 1.08751e-05 0)
(-0.00095428 1.08161e-05 0)
(-0.000992467 1.07409e-05 0)
(-0.00103036 1.06506e-05 0)
(-0.00106792 1.0546e-05 0)
(-0.00110508 1.04278e-05 0)
(-0.00114179 1.02956e-05 0)
(-0.00117801 1.01491e-05 0)
(-0.00121368 9.98904e-06 0)
(-0.00124876 9.816e-06 0)
(-0.0012832 9.63007e-06 0)
(-0.00131696 9.43147e-06 0)
(-0.00134999 9.22079e-06 0)
(-0.00138225 8.99848e-06 0)
(-0.00141369 8.76439e-06 0)
(-0.00144428 8.51826e-06 0)
(-0.00147396 8.26036e-06 0)
(-0.00150272 7.99145e-06 0)
(-0.00153049 7.71197e-06 0)
(-0.00155725 7.42192e-06 0)
(-0.00158296 7.12131e-06 0)
(-0.00160758 6.81055e-06 0)
(-0.00163107 6.49006e-06 0)
(-0.00165341 6.15985e-06 0)
(-0.00167455 5.82012e-06 0)
(-0.00169447 5.47134e-06 0)
(-0.00171313 5.11383e-06 0)
(-0.00173051 4.74798e-06 0)
(-0.00174657 4.37389e-06 0)
(-0.00176129 3.99147e-06 0)
(-0.00177463 3.60128e-06 0)
(-0.00178658 3.20407e-06 0)
(-0.00179711 2.80026e-06 0)
(-0.00180619 2.39024e-06 0)
(-0.00181381 1.97427e-06 0)
(-0.00181995 1.5526e-06 0)
(-0.00182458 1.12577e-06 0)
(-0.00182769 6.94388e-07 0)
(-0.00182927 2.58996e-07 0)
(-0.0018293 -1.7994e-07 0)
(-0.00182778 -6.21944e-07 0)
(-0.00182468 -1.06624e-06 0)
(-0.00182002 -1.51207e-06 0)
(-0.00181379 -1.95893e-06 0)
(-0.00180597 -2.40622e-06 0)
(-0.00179658 -2.85324e-06 0)
(-0.00178561 -3.29943e-06 0)
(-0.00177308 -3.74396e-06 0)
(-0.00175898 -4.18576e-06 0)
(-0.00174334 -4.62409e-06 0)
(-0.00172616 -5.05835e-06 0)
(-0.00170746 -5.48774e-06 0)
(-0.00168726 -5.91134e-06 0)
(-0.00166559 -6.32833e-06 0)
(-0.00164246 -6.73788e-06 0)
(-0.00161791 -7.13918e-06 0)
(-0.00159197 -7.53135e-06 0)
(-0.00156467 -7.91337e-06 0)
(-0.00153606 -8.28424e-06 0)
(-0.00150616 -8.64305e-06 0)
(-0.00147503 -8.98893e-06 0)
(-0.00144271 -9.32103e-06 0)
(-0.00140925 -9.63863e-06 0)
(-0.00137471 -9.94091e-06 0)
(-0.00133914 -1.02268e-05 0)
(-0.00130261 -1.04955e-05 0)
(-0.00126516 -1.07461e-05 0)
(-0.00122687 -1.09778e-05 0)
(-0.00118781 -1.11896e-05 0)
(-0.00114804 -1.13809e-05 0)
(-0.00110764 -1.15509e-05 0)
(-0.00106668 -1.16991e-05 0)
(-0.00102525 -1.18245e-05 0)
(-0.00098342 -1.19267e-05 0)
(-0.000941275 -1.20051e-05 0)
(-0.000898899 -1.20588e-05 0)
(-0.000856379 -1.20873e-05 0)
(-0.000813804 -1.20902e-05 0)
(-0.000771262 -1.20672e-05 0)
(-0.000728846 -1.20177e-05 0)
(-0.000686648 -1.19414e-05 0)
(-0.00064476 -1.18379e-05 0)
(-0.000603277 -1.17069e-05 0)
(-0.000562295 -1.15481e-05 0)
(-0.00052191 -1.13614e-05 0)
(-0.000482217 -1.11468e-05 0)
(-0.000443312 -1.09042e-05 0)
(-0.000405292 -1.06337e-05 0)
(-0.000368251 -1.03354e-05 0)
(-0.000332284 -1.00096e-05 0)
(-0.000297484 -9.65649e-06 0)
(-0.000263943 -9.27649e-06 0)
(-0.000231752 -8.87002e-06 0)
(-0.000200999 -8.43772e-06 0)
(-0.000171771 -7.98012e-06 0)
(-0.000144152 -7.49773e-06 0)
(-0.000118221 -6.9912e-06 0)
(-9.40563e-05 -6.46151e-06 0)
(-7.17311e-05 -5.90984e-06 0)
(-5.13139e-05 -5.33736e-06 0)
(-3.28676e-05 -4.74535e-06 0)
(-1.64487e-05 -4.13534e-06 0)
(-2.10663e-06 -3.50934e-06 0)
(1.01188e-05 -2.87006e-06 0)
(2.01989e-05 -2.22083e-06 0)
(2.81189e-05 -1.56559e-06 0)
(3.38808e-05 -9.09295e-07 0)
(3.75077e-05 -2.58487e-07 0)
(3.90492e-05 3.77969e-07 0)
(3.859e-05 9.87709e-07 0)
(3.62608e-05 1.55348e-06 0)
(3.22535e-05 2.05028e-06 0)
(2.68459e-05 2.44052e-06 0)
(2.0435e-05 2.66748e-06 0)
(1.35775e-05 2.64691e-06 0)
(7.05549e-06 2.25431e-06 0)
(2.0565e-06 1.34139e-06 0)
(6.01862e-08 6.00137e-08 0)
(1.47488e-06 -2.67878e-06 0)
(7.69518e-06 -8.02457e-06 0)
(1.84683e-05 -1.09189e-05 0)
(3.05719e-05 -1.12646e-05 0)
(4.15222e-05 -9.84067e-06 0)
(4.96556e-05 -7.25701e-06 0)
(5.38027e-05 -3.91426e-06 0)
(5.31284e-05 -9.04219e-08 0)
(4.70757e-05 4.0287e-06 0)
(3.52955e-05 8.3089e-06 0)
(1.75859e-05 1.26548e-05 0)
(-6.12954e-06 1.69995e-05 0)
(-3.5852e-05 2.12889e-05 0)
(-7.15075e-05 2.54871e-05 0)
(-0.000112972 2.95665e-05 0)
(-0.000160092 3.35048e-05 0)
(-0.000212675 3.72891e-05 0)
(-0.00027051 4.09087e-05 0)
(-0.000333373 4.43536e-05 0)
(-0.000401024 4.76204e-05 0)
(-0.000473216 5.07061e-05 0)
(-0.000549703 5.36087e-05 0)
(-0.000630229 5.63293e-05 0)
(-0.000714536 5.88685e-05 0)
(-0.000802374 6.12272e-05 0)
(-0.000893488 6.34068e-05 0)
(-0.000987628 6.54107e-05 0)
(-0.00108455 6.72432e-05 0)
(-0.001184 6.89074e-05 0)
(-0.00128576 7.0407e-05 0)
(-0.00138957 7.17465e-05 0)
(-0.00149523 7.29289e-05 0)
(-0.00160249 7.39571e-05 0)
(-0.00171115 7.48359e-05 0)
(-0.00182098 7.55697e-05 0)
(-0.00193179 7.61615e-05 0)
(-0.00204336 7.66155e-05 0)
(-0.0021555 7.69356e-05 0)
(-0.00226803 7.71253e-05 0)
(-0.00238074 7.71882e-05 0)
(-0.00249346 7.71282e-05 0)
(-0.002606 7.69486e-05 0)
(-0.00271821 7.66522e-05 0)
(-0.0028299 7.62421e-05 0)
(-0.00294091 7.57206e-05 0)
(-0.00305108 7.50909e-05 0)
(-0.00316026 7.43563e-05 0)
(-0.00326829 7.35191e-05 0)
(-0.00337502 7.25818e-05 0)
(-0.00348031 7.15462e-05 0)
(-0.00358401 7.04147e-05 0)
(-0.00368599 6.91897e-05 0)
(-0.0037861 6.78727e-05 0)
(-0.00388422 6.64656e-05 0)
(-0.00398021 6.4971e-05 0)
(-0.00407395 6.33908e-05 0)
(-0.00416531 6.17265e-05 0)
(-0.00425417 5.99795e-05 0)
(-0.00434041 5.81517e-05 0)
(-0.00442391 5.62454e-05 0)
(-0.00450456 5.42622e-05 0)
(-0.00458225 5.22034e-05 0)
(-0.00465687 5.00711e-05 0)
(-0.00472831 4.78674e-05 0)
(-0.00479648 4.55942e-05 0)
(-0.00486126 4.32532e-05 0)
(-0.00492256 4.08461e-05 0)
(-0.0049803 3.83753e-05 0)
(-0.00503437 3.58433e-05 0)
(-0.00508469 3.3252e-05 0)
(-0.00513117 3.06035e-05 0)
(-0.00517374 2.78998e-05 0)
(-0.00521232 2.51439e-05 0)
(-0.00524683 2.23386e-05 0)
(-0.0052772 1.94869e-05 0)
(-0.00530337 1.65916e-05 0)
(-0.00532528 1.36558e-05 0)
(-0.00534287 1.06825e-05 0)
(-0.00535609 7.67499e-06 0)
(-0.0053649 4.63706e-06 0)
(-0.00536925 1.57229e-06 0)
(-0.00536912 -1.51533e-06 0)
(-0.00536446 -4.62171e-06 0)
(-0.00535527 -7.74273e-06 0)
(-0.00534151 -1.08739e-05 0)
(-0.00532318 -1.40107e-05 0)
(-0.00530029 -1.71486e-05 0)
(-0.00527282 -2.02827e-05 0)
(-0.00524079 -2.34078e-05 0)
(-0.00520423 -2.65187e-05 0)
(-0.00516315 -2.96102e-05 0)
(-0.00511758 -3.26768e-05 0)
(-0.00506758 -3.57132e-05 0)
(-0.00501319 -3.87137e-05 0)
(-0.00495446 -4.16721e-05 0)
(-0.00489147 -4.45827e-05 0)
(-0.00482428 -4.74397e-05 0)
(-0.00475299 -5.02371e-05 0)
(-0.00467767 -5.29689e-05 0)
(-0.00459845 -5.5629e-05 0)
(-0.00451541 -5.8211e-05 0)
(-0.00442869 -6.07085e-05 0)
(-0.00433841 -6.31155e-05 0)
(-0.00424471 -6.54257e-05 0)
(-0.00414773 -6.76332e-05 0)
(-0.00404762 -6.97322e-05 0)
(-0.00394456 -7.17169e-05 0)
(-0.0038387 -7.35814e-05 0)
(-0.00373023 -7.53199e-05 0)
(-0.00361933 -7.69263e-05 0)
(-0.00350621 -7.8395e-05 0)
(-0.00339106 -7.97208e-05 0)
(-0.0032741 -8.08988e-05 0)
(-0.00315554 -8.19246e-05 0)
(-0.00303561 -8.27934e-05 0)
(-0.00291453 -8.35006e-05 0)
(-0.00279255 -8.4042e-05 0)
(-0.0026699 -8.44135e-05 0)
(-0.00254684 -8.46115e-05 0)
(-0.00242362 -8.46327e-05 0)
(-0.0023005 -8.44745e-05 0)
(-0.00217773 -8.41342e-05 0)
(-0.00205558 -8.36095e-05 0)
(-0.00193432 -8.28984e-05 0)
(-0.00181422 -8.19991e-05 0)
(-0.00169555 -8.09104e-05 0)
(-0.00157858 -7.96316e-05 0)
(-0.00146358 -7.81626e-05 0)
(-0.00135083 -7.65037e-05 0)
(-0.0012406 -7.46556e-05 0)
(-0.00113315 -7.26196e-05 0)
(-0.00102877 -7.03977e-05 0)
(-0.000927695 -6.79922e-05 0)
(-0.000830203 -6.54062e-05 0)
(-0.000736544 -6.26432e-05 0)
(-0.000646965 -5.97074e-05 0)
(-0.000561708 -5.66037e-05 0)
(-0.000481005 -5.33378e-05 0)
(-0.000405077 -4.99164e-05 0)
(-0.000334138 -4.63473e-05 0)
(-0.000268383 -4.26394e-05 0)
(-0.000207997 -3.88031e-05 0)
(-0.000153144 -3.48503e-05 0)
(-0.000103967 -3.07953e-05 0)
(-6.05874e-05 -2.66554e-05 0)
(-2.30945e-05 -2.24515e-05 0)
(8.4557e-06 -1.8209e-05 0)
(3.40497e-05 -1.39588e-05 0)
(5.37249e-05 -9.73911e-06 0)
(6.75815e-05 -5.59815e-06 0)
(7.57978e-05 -1.59758e-06 0)
(7.86488e-05 2.18258e-06 0)
(7.65326e-05 5.63687e-06 0)
(7.00027e-05 8.62446e-06 0)
(5.98135e-05 1.09547e-05 0)
(4.69718e-05 1.23709e-05 0)
(3.27737e-05 1.25365e-05 0)
(1.88449e-05 1.10294e-05 0)
(7.42585e-06 7.43025e-06 0)
(1.33955e-06 2.05487e-06 0)
(2.15133e-06 -7.58437e-06 0)
(1.01813e-05 -1.85816e-05 0)
(2.30345e-05 -2.39539e-05 0)
(3.65879e-05 -2.39717e-05 0)
(4.77886e-05 -1.99504e-05 0)
(5.45152e-05 -1.3046e-05 0)
(5.51415e-05 -4.12481e-06 0)
(4.84561e-05 6.16648e-06 0)
(3.36022e-05 1.73498e-05 0)
(1.00031e-05 2.90657e-05 0)
(-2.26847e-05 4.10528e-05 0)
(-6.46419e-05 5.31061e-05 0)
(-0.000115903 6.50753e-05 0)
(-0.000176399 7.68475e-05 0)
(-0.000245981 8.83301e-05 0)
(-0.000324428 9.94598e-05 0)
(-0.000411473 0.000110188 0)
(-0.000506813 0.000120475 0)
(-0.000610109 0.000130296 0)
(-0.000721004 0.000139631 0)
(-0.000839126 0.000148466 0)
(-0.000964088 0.000156796 0)
(-0.0010955 0.000164616 0)
(-0.00123296 0.000171926 0)
(-0.00137608 0.000178728 0)
(-0.00152446 0.000185027 0)
(-0.00167771 0.000190828 0)
(-0.00183543 0.000196138 0)
(-0.00199723 0.000200967 0)
(-0.00216275 0.000205323 0)
(-0.0023316 0.000209217 0)
(-0.00250342 0.000212658 0)
(-0.00267785 0.000215657 0)
(-0.00285454 0.000218224 0)
(-0.00303314 0.00022037 0)
(-0.00321332 0.000222105 0)
(-0.00339475 0.00022344 0)
(-0.00357711 0.000224385 0)
(-0.00376009 0.000224951 0)
(-0.00394339 0.000225146 0)
(-0.0041267 0.000224981 0)
(-0.00430973 0.000224465 0)
(-0.00449222 0.000223608 0)
(-0.00467386 0.000222417 0)
(-0.00485441 0.000220902 0)
(-0.0050336 0.000219069 0)
(-0.00521116 0.000216927 0)
(-0.00538686 0.000214484 0)
(-0.00556044 0.000211746 0)
(-0.00573167 0.000208719 0)
(-0.00590032 0.000205412 0)
(-0.00606615 0.00020183 0)
(-0.00622894 0.000197978 0)
(-0.00638848 0.000193862 0)
(-0.00654455 0.00018949 0)
(-0.00669695 0.000184865 0)
(-0.00684547 0.000179994 0)
(-0.0069899 0.000174882 0)
(-0.00713007 0.000169533 0)
(-0.00726576 0.000163955 0)
(-0.00739681 0.000158152 0)
(-0.00752303 0.000152128 0)
(-0.00764423 0.00014589 0)
(-0.00776026 0.000139444 0)
(-0.00787094 0.000132794 0)
(-0.0079761 0.000125947 0)
(-0.0080756 0.000118908 0)
(-0.00816928 0.000111684 0)
(-0.00825698 0.000104281 0)
(-0.00833858 9.67062e-05 0)
(-0.00841392 8.8966e-05 0)
(-0.00848289 8.10676e-05 0)
(-0.00854535 7.30184e-05 0)
(-0.0086012 6.48268e-05 0)
(-0.00865031 5.6501e-05 0)
(-0.00869258 4.80496e-05 0)
(-0.00872792 3.9482e-05 0)
(-0.00875624 3.08074e-05 0)
(-0.00877746 2.20357e-05 0)
(-0.0087915 1.31775e-05 0)
(-0.0087983 4.24374e-06 0)
(-0.00879781 -4.75437e-06 0)
(-0.00878998 -1.38046e-05 0)
(-0.00877477 -2.28946e-05 0)
(-0.00875216 -3.20119e-05 0)
(-0.00872213 -4.11435e-05 0)
(-0.00868469 -5.02757e-05 0)
(-0.00863984 -5.93943e-05 0)
(-0.00858759 -6.84843e-05 0)
(-0.00852798 -7.75306e-05 0)
(-0.00846106 -8.65179e-05 0)
(-0.00838687 -9.54309e-05 0)
(-0.00830549 -0.000104254 0)
(-0.008217 -0.00011297 0)
(-0.0081215 -0.000121562 0)
(-0.00801909 -0.000130013 0)
(-0.00790989 -0.000138307 0)
(-0.00779405 -0.000146426 0)
(-0.0076717 -0.000154351 0)
(-0.00754303 -0.000162067 0)
(-0.0074082 -0.000169555 0)
(-0.00726741 -0.000176797 0)
(-0.00712087 -0.000183775 0)
(-0.0069688 -0.000190471 0)
(-0.00681143 -0.000196869 0)
(-0.00664901 -0.000202951 0)
(-0.00648181 -0.000208699 0)
(-0.0063101 -0.000214099 0)
(-0.00613418 -0.000219132 0)
(-0.00595434 -0.000223783 0)
(-0.0057709 -0.000228035 0)
(-0.00558419 -0.000231873 0)
(-0.00539455 -0.000235284 0)
(-0.00520234 -0.000238253 0)
(-0.0050079 -0.000240767 0)
(-0.00481162 -0.000242814 0)
(-0.00461387 -0.000244382 0)
(-0.00441505 -0.000245458 0)
(-0.00421555 -0.000246035 0)
(-0.00401579 -0.000246101 0)
(-0.00381617 -0.000245649 0)
(-0.00361712 -0.000244672 0)
(-0.00341906 -0.000243163 0)
(-0.00322241 -0.000241118 0)
(-0.00302762 -0.000238532 0)
(-0.00283511 -0.000235402 0)
(-0.00264531 -0.000231727 0)
(-0.00245868 -0.000227507 0)
(-0.00227563 -0.000222742 0)
(-0.00209661 -0.000217436 0)
(-0.00192204 -0.000211593 0)
(-0.00175235 -0.000205219 0)
(-0.00158795 -0.000198322 0)
(-0.00142927 -0.00019091 0)
(-0.00127669 -0.000182996 0)
(-0.00113061 -0.000174592 0)
(-0.00099142 -0.000165714 0)
(-0.00085947 -0.000156381 0)
(-0.000735111 -0.000146612 0)
(-0.000618671 -0.000136434 0)
(-0.000510453 -0.000125873 0)
(-0.000410737 -0.000114963 0)
(-0.000319767 -0.000103742 0)
(-0.000237757 -9.22547e-05 0)
(-0.000164875 -8.05541e-05 0)
(-0.000101242 -6.8704e-05 0)
(-4.69228e-05 -5.67809e-05 0)
(-1.91065e-06 -4.4877e-05 0)
(3.38819e-05 -3.31054e-05 0)
(6.06413e-05 -2.16055e-05 0)
(7.86744e-05 -1.05513e-05 0)
(8.84338e-05 -1.62085e-07 0)
(9.05497e-05 9.28328e-06 0)
(8.58686e-05 1.74288e-05 0)
(7.55005e-05 2.38198e-05 0)
(6.0868e-05 2.78837e-05 0)
(4.37213e-05 2.89246e-05 0)
(2.61497e-05 2.61533e-05 0)
(1.10191e-05 1.88463e-05 0)
(2.24862e-06 7.04703e-06 0)
(2.36148e-06 -1.34286e-05 0)
(1.06058e-05 -3.02404e-05 0)
(2.29866e-05 -3.73784e-05 0)
(3.48411e-05 -3.5906e-05 0)
(4.28194e-05 -2.77377e-05 0)
(4.45433e-05 -1.45895e-05 0)
(3.81448e-05 2.17274e-06 0)
(2.21691e-05 2.14822e-05 0)
(-4.44766e-06 4.25077e-05 0)
(-4.24367e-05 6.46174e-05 0)
(-9.22765e-05 8.73148e-05 0)
(-0.000154223 0.000110221 0)
(-0.000228362 0.000133044 0)
(-0.000314643 0.000155553 0)
(-0.000412899 0.000177574 0)
(-0.000522876 0.000198972 0)
(-0.000644253 0.000219639 0)
(-0.000776649 0.0002395 0)
(-0.000919642 0.000258496 0)
(-0.00107278 0.000276582 0)
(-0.00123558 0.000293729 0)
(-0.00140755 0.000309917 0)
(-0.00158817 0.000325134 0)
(-0.00177694 0.000339377 0)
(-0.00197331 0.000352646 0)
(-0.00217678 0.000364946 0)
(-0.00238681 0.000376286 0)
(-0.00260289 0.000386679 0)
(-0.0028245 0.000396139 0)
(-0.00305113 0.00040468 0)
(-0.00328229 0.000412321 0)
(-0.00351748 0.000419079 0)
(-0.00375621 0.000424974 0)
(-0.00399801 0.000430024 0)
(-0.00424241 0.000434249 0)
(-0.00448897 0.000437669 0)
(-0.00473722 0.000440303 0)
(-0.00498675 0.000442172 0)
(-0.00523712 0.000443294 0)
(-0.00548791 0.000443687 0)
(-0.00573873 0.00044337 0)
(-0.00598917 0.00044236 0)
(-0.00623885 0.000440676 0)
(-0.00648739 0.000438334 0)
(-0.00673443 0.000435349 0)
(-0.00697959 0.000431739 0)
(-0.00722254 0.000427516 0)
(-0.00746292 0.000422697 0)
(-0.00770041 0.000417294 0)
(-0.00793467 0.000411322 0)
(-0.00816538 0.000404792 0)
(-0.00839224 0.000397719 0)
(-0.00861493 0.000390112 0)
(-0.00883315 0.000381985 0)
(-0.00904662 0.000373349 0)
(-0.00925504 0.000364215 0)
(-0.00945814 0.000354593 0)
(-0.00965564 0.000344495 0)
(-0.00984728 0.000333931 0)
(-0.0100328 0.000322913 0)
(-0.0102119 0.00031145 0)
(-0.0103844 0.000299554 0)
(-0.0105501 0.000287235 0)
(-0.0107086 0.000274505 0)
(-0.0108598 0.000261375 0)
(-0.0110034 0.000247857 0)
(-0.0111393 0.000233962 0)
(-0.0112672 0.000219703 0)
(-0.0113869 0.000205093 0)
(-0.0114982 0.000190145 0)
(-0.011601 0.000174873 0)
(-0.011695 0.000159291 0)
(-0.0117801 0.000143415 0)
(-0.0118562 0.000127261 0)
(-0.011923 0.000110845 0)
(-0.0119805 9.41844e-05 0)
(-0.0120285 7.72972e-05 0)
(-0.0120669 6.02029e-05 0)
(-0.0120956 4.2921e-05 0)
(-0.0121144 2.54718e-05 0)
(-0.0121234 7.87712e-06 0)
(-0.0121224 -9.84047e-06 0)
(-0.0121114 -2.76575e-05 0)
(-0.0120903 -4.55496e-05 0)
(-0.0120591 -6.34916e-05 0)
(-0.0120177 -8.14578e-05 0)
(-0.0119663 -9.94215e-05 0)
(-0.0119047 -0.000117355 0)
(-0.011833 -0.000135229 0)
(-0.0117513 -0.000153014 0)
(-0.0116596 -0.00017068 0)
(-0.011558 -0.000188196 0)
(-0.0114467 -0.000205532 0)
(-0.0113256 -0.000222654 0)
(-0.0111949 -0.000239531 0)
(-0.0110549 -0.000256128 0)
(-0.0109056 -0.000272413 0)
(-0.0107473 -0.000288352 0)
(-0.0105801 -0.000303909 0)
(-0.0104043 -0.000319051 0)
(-0.0102201 -0.000333744 0)
(-0.0100278 -0.000347952 0)
(-0.00982768 -0.000361641 0)
(-0.00962003 -0.000374776 0)
(-0.00940518 -0.000387324 0)
(-0.00918347 -0.000399251 0)
(-0.00895525 -0.000410523 0)
(-0.0087209 -0.000421109 0)
(-0.00848081 -0.000430976 0)
(-0.00823541 -0.000440093 0)
(-0.00798511 -0.000448429 0)
(-0.00773036 -0.000455954 0)
(-0.00747162 -0.000462641 0)
(-0.00720937 -0.000468463 0)
(-0.00694411 -0.000473394 0)
(-0.00667632 -0.00047741 0)
(-0.00640654 -0.000480489 0)
(-0.00613529 -0.000482608 0)
(-0.00586311 -0.000483748 0)
(-0.00559055 -0.000483892 0)
(-0.00531817 -0.000483024 0)
(-0.00504653 -0.000481131 0)
(-0.00477622 -0.0004782 0)
(-0.0045078 -0.000474222 0)
(-0.00424186 -0.00046919 0)
(-0.003979 -0.0004631 0)
(-0.00371978 -0.000455948 0)
(-0.0034648 -0.000447735 0)
(-0.00321465 -0.000438465 0)
(-0.0029699 -0.000428144 0)
(-0.00273113 -0.000416781 0)
(-0.00249891 -0.000404389 0)
(-0.00227381 -0.000390983 0)
(-0.00205636 -0.000376583 0)
(-0.00184711 -0.000361213 0)
(-0.00164657 -0.0003449 0)
(-0.00145525 -0.000327676 0)
(-0.00127363 -0.00030958 0)
(-0.00110216 -0.000290655 0)
(-0.000941273 -0.000270951 0)
(-0.000791363 -0.000250527 0)
(-0.000652785 -0.00022945 0)
(-0.000525855 -0.000207798 0)
(-0.000410835 -0.000185663 0)
(-0.000307932 -0.000163153 0)
(-0.000217285 -0.000140394 0)
(-0.000138953 -0.000117539 0)
(-7.29058e-05 -9.47698e-05 0)
(-1.9002e-05 -7.23048e-05 0)
(2.30269e-05 -5.04115e-05 0)
(5.36015e-05 -2.94165e-05 0)
(7.33223e-05 -9.72294e-06 0)
(8.30023e-05 8.17015e-06 0)
(8.37049e-05 2.36445e-05 0)
(7.67871e-05 3.59384e-05 0)
(6.39429e-05 4.41274e-05 0)
(4.72066e-05 4.71258e-05 0)
(2.89667e-05 4.37324e-05 0)
(1.2536e-05 3.27805e-05 0)
(2.63946e-06 1.35595e-05 0)
(2.22608e-06 -1.90544e-05 0)
(9.44327e-06 -4.07686e-05 0)
(1.92717e-05 -4.83386e-05 0)
(2.69158e-05 -4.3809e-05 0)
(2.89225e-05 -2.97628e-05 0)
(2.27987e-05 -8.47265e-06 0)
(6.53997e-06 1.81979e-05 0)
(-2.14344e-05 4.87466e-05 0)
(-6.23018e-05 8.19913e-05 0)
(-0.000116911 0.00011698 0)
(-0.000185821 0.00015297 0)
(-0.000269353 0.000189373 0)
(-0.000367635 0.000225721 0)
(-0.000480629 0.000261651 0)
(-0.000608164 0.000296876 0)
(-0.000749967 0.000331168 0)
(-0.000905671 0.000364354 0)
(-0.00107484 0.000396298 0)
(-0.00125699 0.000426896 0)
(-0.00145157 0.000456072 0)
(-0.00165803 0.00048377 0)
(-0.00187577 0.000509952 0)
(-0.00210418 0.000534593 0)
(-0.00234264 0.000557681 0)
(-0.0025905 0.000579211 0)
(-0.00284714 0.000599189 0)
(-0.00311191 0.000617624 0)
(-0.00338418 0.000634533 0)
(-0.00366332 0.000649936 0)
(-0.0039487 0.000663854 0)
(-0.0042397 0.000676313 0)
(-0.00453572 0.00068734 0)
(-0.00483615 0.000696964 0)
(-0.0051404 0.000705215 0)
(-0.0054479 0.000712121 0)
(-0.00575807 0.000717715 0)
(-0.00607037 0.000722025 0)
(-0.00638425 0.000725084 0)
(-0.00669918 0.000726921 0)
(-0.00701463 0.000727566 0)
(-0.0073301 0.000727047 0)
(-0.00764509 0.000725393 0)
(-0.00795911 0.000722632 0)
(-0.00827169 0.00071879 0)
(-0.00858238 0.000713893 0)
(-0.0088907 0.000707967 0)
(-0.00919623 0.000701037 0)
(-0.00949853 0.000693124 0)
(-0.00979717 0.000684252 0)
(-0.0100917 0.000674443 0)
(-0.0103818 0.000663718 0)
(-0.0106671 0.000652098 0)
(-0.0109471 0.000639601 0)
(-0.0112214 0.000626249 0)
(-0.0114898 0.00061206 0)
(-0.0117518 0.000597052 0)
(-0.012007 0.000581242 0)
(-0.0122553 0.00056465 0)
(-0.0124961 0.000547294 0)
(-0.0127292 0.000529191 0)
(-0.0129543 0.000510359 0)
(-0.013171 0.000490815 0)
(-0.013379 0.000470579 0)
(-0.0135781 0.000449669 0)
(-0.013768 0.000428103 0)
(-0.0139483 0.000405902 0)
(-0.0141188 0.000383084 0)
(-0.0142793 0.000359672 0)
(-0.0144295 0.000335686 0)
(-0.0145691 0.000311149 0)
(-0.014698 0.000286082 0)
(-0.0148159 0.000260511 0)
(-0.0149225 0.000234462 0)
(-0.0150178 0.000207959 0)
(-0.0151014 0.000181031 0)
(-0.0151733 0.000153707 0)
(-0.0152332 0.000126015 0)
(-0.0152811 9.79881e-05 0)
(-0.0153168 6.96585e-05 0)
(-0.0153401 4.106e-05 0)
(-0.015351 1.2228e-05 0)
(-0.0153494 -1.68003e-05 0)
(-0.0153351 -4.59867e-05 0)
(-0.0153083 -7.52911e-05 0)
(-0.0152687 -0.000104672 0)
(-0.0152165 -0.000134088 0)
(-0.0151515 -0.000163494 0)
(-0.0150738 -0.000192845 0)
(-0.0149835 -0.000222094 0)
(-0.0148806 -0.000251194 0)
(-0.0147652 -0.000280094 0)
(-0.0146374 -0.000308745 0)
(-0.0144973 -0.000337095 0)
(-0.0143451 -0.000365092 0)
(-0.0141808 -0.000392683 0)
(-0.0140048 -0.000419814 0)
(-0.0138173 -0.000446431 0)
(-0.0136183 -0.000472477 0)
(-0.0134084 -0.000497897 0)
(-0.0131876 -0.000522636 0)
(-0.0129563 -0.000546637 0)
(-0.0127149 -0.000569844 0)
(-0.0124637 -0.0005922 0)
(-0.0122031 -0.000613651 0)
(-0.0119335 -0.000634141 0)
(-0.0116553 -0.000653616 0)
(-0.0113689 -0.000672021 0)
(-0.0110749 -0.000689303 0)
(-0.0107737 -0.000705412 0)
(-0.0104659 -0.000720295 0)
(-0.0101519 -0.000733905 0)
(-0.00983235 -0.000746193 0)
(-0.00950781 -0.000757115 0)
(-0.00917888 -0.000766626 0)
(-0.00884616 -0.000774685 0)
(-0.00851028 -0.000781254 0)
(-0.00817188 -0.000786296 0)
(-0.00783163 -0.000789775 0)
(-0.0074902 -0.000791662 0)
(-0.00714826 -0.000791929 0)
(-0.00680652 -0.00079055 0)
(-0.00646568 -0.000787503 0)
(-0.00612645 -0.000782772 0)
(-0.00578955 -0.00077634 0)
(-0.0054557 -0.000768197 0)
(-0.00512562 -0.000758337 0)
(-0.00480005 -0.000746757 0)
(-0.00447971 -0.000733458 0)
(-0.00416531 -0.000718447 0)
(-0.00385759 -0.000701736 0)
(-0.00355724 -0.00068334 0)
(-0.00326498 -0.000663283 0)
(-0.00298148 -0.00064159 0)
(-0.00270742 -0.000618297 0)
(-0.00244347 -0.000593442 0)
(-0.00219025 -0.000567075 0)
(-0.00194838 -0.000539249 0)
(-0.00171844 -0.000510029 0)
(-0.00150098 -0.000479491 0)
(-0.00129652 -0.000447718 0)
(-0.00110553 -0.000414809 0)
(-0.000928431 -0.000380879 0)
(-0.000765598 -0.000346058 0)
(-0.000617335 -0.0003105 0)
(-0.000483874 -0.000274383 0)
(-0.000365365 -0.000237917 0)
(-0.000261861 -0.000201349 0)
(-0.000173303 -0.000164972 0)
(-9.95037e-05 -0.000129137 0)
(-4.01235e-05 -9.42622e-05 0)
(5.35005e-06 -6.08553e-05 0)
(3.76316e-05 -2.9529e-05 0)
(5.76687e-05 -1.02658e-06 0)
(6.66761e-05 2.37523e-05 0)
(6.61747e-05 4.37248e-05 0)
(5.80309e-05 5.76049e-05 0)
(4.44604e-05 6.39017e-05 0)
(2.80563e-05 6.09546e-05 0)
(1.24117e-05 4.70255e-05 0)
(2.66389e-06 2.04168e-05 0)
(1.85906e-06 -2.37478e-05 0)
(7.1207e-06 -4.86641e-05 0)
(1.27575e-05 -5.488e-05 0)
(1.41939e-05 -4.54502e-05 0)
(8.04209e-06 -2.36159e-05 0)
(-8.2203e-06 7.78393e-06 0)
(-3.66396e-05 4.63998e-05 0)
(-7.88338e-05 9.03229e-05 0)
(-0.000136045 0.000137987 0)
(-0.000209172 0.000188138 0)
(-0.000298823 0.000239762 0)
(-0.000405363 0.000292042 0)
(-0.00052894 0.000344326 0)
(-0.000669527 0.000396092 0)
(-0.000826954 0.000446921 0)
(-0.00100092 0.000496485 0)
(-0.00119103 0.000544522 0)
(-0.00139681 0.000590825 0)
(-0.0016177 0.000635239 0)
(-0.00185311 0.00067764 0)
(-0.00210239 0.000717941 0)
(-0.00236487 0.000756078 0)
(-0.00263985 0.000792008 0)
(-0.00292662 0.000825704 0)
(-0.00322443 0.000857157 0)
(-0.00353256 0.000886365 0)
(-0.00385026 0.00091334 0)
(-0.00417679 0.000938099 0)
(-0.00451142 0.000960666 0)
(-0.00485342 0.000981072 0)
(-0.00520204 0.000999349 0)
(-0.0055566 0.00101553 0)
(-0.00591636 0.00102967 0)
(-0.00628064 0.00104179 0)
(-0.00664876 0.00105193 0)
(-0.00702005 0.00106016 0)
(-0.00739384 0.00106649 0)
(-0.00776948 0.00107098 0)
(-0.00814636 0.00107368 0)
(-0.00852384 0.00107462 0)
(-0.00890133 0.00107384 0)
(-0.00927822 0.00107138 0)
(-0.00965395 0.0010673 0)
(-0.0100279 0.00106161 0)
(-0.0103996 0.00105437 0)
(-0.0107685 0.0010456 0)
(-0.011134 0.00103535 0)
(-0.0114956 0.00102364 0)
(-0.0118529 0.00101052 0)
(-0.0122052 0.000996007 0)
(-0.0125522 0.00098014 0)
(-0.0128934 0.000962946 0)
(-0.0132282 0.000944457 0)
(-0.0135563 0.000924701 0)
(-0.0138772 0.000903705 0)
(-0.0141905 0.000881498 0)
(-0.0144957 0.000858106 0)
(-0.0147925 0.000833557 0)
(-0.0150804 0.000807877 0)
(-0.015359 0.000781093 0)
(-0.015628 0.000753232 0)
(-0.015887 0.000724321 0)
(-0.0161356 0.000694387 0)
(-0.0163735 0.000663458 0)
(-0.0166002 0.000631563 0)
(-0.0168156 0.00059873 0)
(-0.0170193 0.000564989 0)
(-0.0172109 0.000530373 0)
(-0.0173901 0.000494912 0)
(-0.0175567 0.00045864 0)
(-0.0177105 0.000421591 0)
(-0.017851 0.000383802 0)
(-0.0179782 0.00034531 0)
(-0.0180916 0.000306154 0)
(-0.0181913 0.000266376 0)
(-0.0182768 0.000226017 0)
(-0.0183481 0.000185123 0)
(-0.0184049 0.00014374 0)
(-0.0184471 0.000101916 0)
(-0.0184746 5.97019e-05 0)
(-0.0184872 1.71499e-05 0)
(-0.0184849 -2.5685e-05 0)
(-0.0184675 -6.8746e-05 0)
(-0.018435 -0.000111975 0)
(-0.0183874 -0.00015531 0)
(-0.0183246 -0.00019869 0)
(-0.0182466 -0.000242049 0)
(-0.0181535 -0.000285319 0)
(-0.0180453 -0.000328433 0)
(-0.0179221 -0.00037132 0)
(-0.017784 -0.000413907 0)
(-0.017631 -0.000456121 0)
(-0.0174634 -0.000497886 0)
(-0.0172813 -0.000539125 0)
(-0.017085 -0.000579761 0)
(-0.0168746 -0.000619714 0)
(-0.0166504 -0.000658904 0)
(-0.0164128 -0.00069725 0)
(-0.0161619 -0.000734671 0)
(-0.0158982 -0.000771084 0)
(-0.015622 -0.000806408 0)
(-0.0153337 -0.000840561 0)
(-0.0150338 -0.000873459 0)
(-0.0147226 -0.000905023 0)
(-0.0144007 -0.000935171 0)
(-0.0140686 -0.000963823 0)
(-0.0137268 -0.000990902 0)
(-0.0133758 -0.00101633 0)
(-0.0130164 -0.00104003 0)
(-0.012649 -0.00106193 0)
(-0.0122742 -0.00108196 0)
(-0.0118929 -0.00110004 0)
(-0.0115056 -0.00111612 0)
(-0.011113 -0.00113013 0)
(-0.010716 -0.00114201 0)
(-0.0103151 -0.00115169 0)
(-0.00991124 -0.00115914 0)
(-0.00950513 -0.0011643 0)
(-0.00909758 -0.00116713 0)
(-0.0086894 -0.00116758 0)
(-0.0082814 -0.00116562 0)
(-0.00787442 -0.00116121 0)
(-0.0074693 -0.00115434 0)
(-0.0070669 -0.00114499 0)
(-0.00666805 -0.00113313 0)
(-0.00627362 -0.00111876 0)
(-0.00588446 -0.00110187 0)
(-0.00550142 -0.00108248 0)
(-0.00512536 -0.00106059 0)
(-0.00475712 -0.00103623 0)
(-0.00439753 -0.0010094 0)
(-0.00404742 -0.000980163 0)
(-0.00370759 -0.000948545 0)
(-0.00337882 -0.000914602 0)
(-0.0030619 -0.000878396 0)
(-0.00275754 -0.00084 0)
(-0.00246647 -0.000799498 0)
(-0.00218937 -0.000756988 0)
(-0.00192686 -0.000712582 0)
(-0.00167954 -0.00066641 0)
(-0.00144796 -0.000618621 0)
(-0.00123258 -0.000569385 0)
(-0.00103384 -0.0005189 0)
(-0.00085206 -0.000467392 0)
(-0.000687508 -0.000415127 0)
(-0.000540338 -0.000362411 0)
(-0.000410596 -0.000309604 0)
(-0.000298201 -0.00025713 0)
(-0.000202926 -0.000205486 0)
(-0.00012438 -0.000155264 0)
(-6.19801e-05 -0.000107168 0)
(-1.49311e-05 -6.20352e-05 0)
(1.78067e-05 -2.08666e-05 0)
(3.75462e-05 1.51489e-05 0)
(4.59091e-05 4.46027e-05 0)
(4.48635e-05 6.58433e-05 0)
(3.6733e-05 7.69623e-05 0)
(2.42363e-05 7.58065e-05 0)
(1.10801e-05 6.00059e-05 0)
(2.44849e-06 2.68566e-05 0)
(1.34456e-06 -2.70035e-05 0)
(3.99558e-06 -5.27525e-05 0)
(4.20049e-06 -5.54355e-05 0)
(-2.12581e-06 -3.90016e-05 0)
(-1.81671e-05 -7.33099e-06 0)
(-4.64043e-05 3.62073e-05 0)
(-8.88367e-05 8.88123e-05 0)
(-0.000147081 0.000148155 0)
(-0.000222373 0.000212327 0)
(-0.00031562 0.000279756 0)
(-0.000427452 0.000349155 0)
(-0.000558241 0.000419479 0)
(-0.000708145 0.000489876 0)
(-0.00087714 0.000559653 0)
(-0.00106504 0.000628253 0)
(-0.00127153 0.000695228 0)
(-0.00149618 0.000760218 0)
(-0.00173848 0.00082294 0)
(-0.00199782 0.000883169 0)
(-0.00227356 0.000940733 0)
(-0.00256497 0.000995502 0)
(-0.00287133 0.00104738 0)
(-0.00319185 0.0010963 0)
(-0.00352573 0.00114222 0)
(-0.00387215 0.00118511 0)
(-0.0042303 0.00122497 0)
(-0.00459933 0.00126181 0)
(-0.00497841 0.00129565 0)
(-0.00536672 0.00132651 0)
(-0.00576341 0.00135443 0)
(-0.00616767 0.00137944 0)
(-0.00657869 0.0014016 0)
(-0.00699565 0.00142096 0)
(-0.00741776 0.00143756 0)
(-0.00784425 0.00145147 0)
(-0.00827434 0.00146273 0)
(-0.00870729 0.00147141 0)
(-0.00914234 0.00147755 0)
(-0.00957877 0.00148122 0)
(-0.0100159 0.00148248 0)
(-0.0104529 0.00148137 0)
(-0.0108893 0.00147796 0)
(-0.0113243 0.00147229 0)
(-0.0117573 0.00146442 0)
(-0.0121875 0.00145441 0)
(-0.0126145 0.00144229 0)
(-0.0130376 0.00142811 0)
(-0.0134562 0.00141194 0)
(-0.0138696 0.0013938 0)
(-0.0142774 0.00137374 0)
(-0.014679 0.00135182 0)
(-0.0150738 0.00132806 0)
(-0.0154612 0.00130251 0)
(-0.0158409 0.00127521 0)
(-0.0162121 0.00124619 0)
(-0.0165746 0.00121551 0)
(-0.0169277 0.00118318 0)
(-0.0172709 0.00114926 0)
(-0.0176039 0.00111378 0)
(-0.0179262 0.00107678 0)
(-0.0182372 0.00103829 0)
(-0.0185367 0.000998347 0)
(-0.0188241 0.000956998 0)
(-0.019099 0.000914278 0)
(-0.0193611 0.000870227 0)
(-0.01961 0.000824885 0)
(-0.0198453 0.000778294 0)
(-0.0200667 0.000730499 0)
(-0.0202737 0.000681542 0)
(-0.0204661 0.000631472 0)
(-0.0206436 0.000580336 0)
(-0.0208058 0.000528184 0)
(-0.0209525 0.000475069 0)
(-0.0210834 0.000421046 0)
(-0.0211982 0.00036617 0)
(-0.0212967 0.000310502 0)
(-0.0213787 0.000254103 0)
(-0.021444 0.000197037 0)
(-0.0214925 0.000139372 0)
(-0.0215239 8.11773e-05 0)
(-0.0215381 2.25255e-05 0)
(-0.021535 -3.65077e-05 0)