0.05 	0.0003125 	0.005 	0.0325892
0.05 	0.0009375 	0.005 	0.032632
0.05 	0.0015625 	0.005 	0.0326668
0.05 	0.0021875 	0.005 	0.0326961
0.05 	0.0028125 	0.005 	0.032723
0.05 	0.0034375 	0.005 	0.0327473
0.05 	0.0040625 	0.005 	0.0327687
0.05 	0.0046875 	0.005 	0.0327872
0.05 	0.0053125 	0.005 	0.0328026
0.05 	0.0059375 	0.005 	0.032815
0.05 	0.0065625 	0.005 	0.032824
0.05 	0.0071875 	0.005 	0.0328296
0.05 	0.0078125 	0.005 	0.0328316
0.05 	0.0084375 	0.005 	0.0328297
0.05 	0.0090625 	0.005 	0.0328239
0.05 	0.0096875 	0.005 	0.0328138
0.05 	0.0103125 	0.005 	0.0327993
0.05 	0.0109375 	0.005 	0.03278
0.05 	0.0115625 	0.005 	0.0327557
0.05 	0.0121875 	0.005 	0.0327262
0.05 	0.0128125 	0.005 	0.0326911
0.05 	0.0134375 	0.005 	0.0326501
0.05 	0.0140625 	0.005 	0.032603
0.05 	0.0146875 	0.005 	0.0325493
0.05 	0.0153125 	0.005 	0.0324887
0.05 	0.0159375 	0.005 	0.032421
0.05 	0.0165625 	0.005 	0.0323456
0.05 	0.0171875 	0.005 	0.0322622
0.05 	0.0178125 	0.005 	0.0321704
0.05 	0.0184375 	0.005 	0.0320698
0.05 	0.0190625 	0.005 	0.03196
0.05 	0.0196875 	0.005 	0.0318405
0.05 	0.0203125 	0.005 	0.0317108
0.05 	0.0209375 	0.005 	0.0315705
0.05 	0.0215625 	0.005 	0.031419
0.05 	0.0221875 	0.005 	0.0312559
0.05 	0.0228125 	0.005 	0.0310807
0.05 	0.0234375 	0.005 	0.0308928
0.05 	0.0240625 	0.005 	0.0306915
0.05 	0.0246875 	0.005 	0.0304765
0.05 	0.0253125 	0.005 	0.030247
0.05 	0.0259375 	0.005 	0.0300025
0.05 	0.0265625 	0.005 	0.0297422
0.05 	0.0271875 	0.005 	0.0294657
0.05 	0.0278125 	0.005 	0.0291723
0.05 	0.0284375 	0.005 	0.0288612
0.05 	0.0290625 	0.005 	0.0285317
0.05 	0.0296875 	0.005 	0.0281833
0.05 	0.0303125 	0.005 	0.0278151
0.05 	0.0309375 	0.005 	0.0274264
0.05 	0.0315625 	0.005 	0.0270165
0.05 	0.0321875 	0.005 	0.0265846
0.05 	0.0328125 	0.005 	0.02613
0.05 	0.0334375 	0.005 	0.0256519
0.05 	0.0340625 	0.005 	0.0251495
0.05 	0.0346875 	0.005 	0.0246221
0.05 	0.0353125 	0.005 	0.0240687
0.05 	0.0359375 	0.005 	0.0234887
0.05 	0.0365625 	0.005 	0.0228813
0.05 	0.0371875 	0.005 	0.0222456
0.05 	0.0378125 	0.005 	0.0215808
0.05 	0.0384375 	0.005 	0.0208862
0.05 	0.0390625 	0.005 	0.0201611
0.05 	0.0396875 	0.005 	0.0194045
0.05 	0.0403125 	0.005 	0.0186159
0.05 	0.0409375 	0.005 	0.0177944
0.05 	0.0415625 	0.005 	0.0169394
0.05 	0.0421875 	0.005 	0.0160502
0.05 	0.0428125 	0.005 	0.0151261
0.05 	0.0434375 	0.005 	0.0141666
0.05 	0.0440625 	0.005 	0.0131711
0.05 	0.0446875 	0.005 	0.0121391
0.05 	0.0453125 	0.005 	0.0110701
0.05 	0.0459375 	0.005 	0.0099636
0.05 	0.0465625 	0.005 	0.00881939
0.05 	0.0471875 	0.005 	0.00763714
0.05 	0.0478125 	0.005 	0.00641666
0.05 	0.0484375 	0.005 	0.00515783
0.05 	0.0490625 	0.005 	0.0038606
0.05 	0.0496875 	0.005 	0.00252504
0.05 	0.0503125 	0.005 	0.0011513
0.05 	0.0509375 	0.005 	-0.000260348
0.05 	0.0515625 	0.005 	-0.00170954
0.05 	0.0521875 	0.005 	-0.00319577
0.05 	0.0528125 	0.005 	-0.00471839
0.05 	0.0534375 	0.005 	-0.00627664
0.05 	0.0540625 	0.005 	-0.00786957
0.05 	0.0546875 	0.005 	-0.00949614
0.05 	0.0553125 	0.005 	-0.0111551
0.05 	0.0559375 	0.005 	-0.0128451
0.05 	0.0565625 	0.005 	-0.0145645
0.05 	0.0571875 	0.005 	-0.0163117
0.05 	0.0578125 	0.005 	-0.0180847
0.05 	0.0584375 	0.005 	-0.0198815
0.05 	0.0590625 	0.005 	-0.0216997
0.05 	0.0596875 	0.005 	-0.0235368
0.05 	0.0603125 	0.005 	-0.0253902
0.05 	0.0609375 	0.005 	-0.027257
0.05 	0.0615625 	0.005 	-0.0291341
0.05 	0.0621875 	0.005 	-0.0310183
0.05 	0.0628125 	0.005 	-0.0329061
0.05 	0.0634375 	0.005 	-0.0347939
0.05 	0.0640625 	0.005 	-0.0366777
0.05 	0.0646875 	0.005 	-0.0385536
0.05 	0.0653125 	0.005 	-0.0404174
0.05 	0.0659375 	0.005 	-0.0422647
0.05 	0.0665625 	0.005 	-0.044091
0.05 	0.0671875 	0.005 	-0.0458916
0.05 	0.0678125 	0.005 	-0.0476618
0.05 	0.0684375 	0.005 	-0.0493967
0.05 	0.0690625 	0.005 	-0.0510913
0.05 	0.0696875 	0.005 	-0.0527406
0.05 	0.0703125 	0.005 	-0.0543395
0.05 	0.0709375 	0.005 	-0.0558831
0.05 	0.0715625 	0.005 	-0.0573661
0.05 	0.0721875 	0.005 	-0.0587836
0.05 	0.0728125 	0.005 	-0.0601306
0.05 	0.0734375 	0.005 	-0.0614024
0.05 	0.0740625 	0.005 	-0.0625942
0.05 	0.0746875 	0.005 	-0.0637015
0.05 	0.0753125 	0.005 	-0.0647202
0.05 	0.0759375 	0.005 	-0.0656461
0.05 	0.0765625 	0.005 	-0.0664756
0.05 	0.0771875 	0.005 	-0.0672053
0.05 	0.0778125 	0.005 	-0.0678324
0.05 	0.0784375 	0.005 	-0.0683541
0.05 	0.0790625 	0.005 	-0.0687686
0.05 	0.0796875 	0.005 	-0.0690742
0.05 	0.0803125 	0.005 	-0.0692699
0.05 	0.0809375 	0.005 	-0.0693553
0.05 	0.0815625 	0.005 	-0.0693305
0.05 	0.0821875 	0.005 	-0.0691963
0.05 	0.0828125 	0.005 	-0.0689542
0.05 	0.0834375 	0.005 	-0.0686063
0.05 	0.0840625 	0.005 	-0.0681553
0.05 	0.0846875 	0.005 	-0.0676048
0.05 	0.0853125 	0.005 	-0.0669589
0.05 	0.0859375 	0.005 	-0.0662225
0.05 	0.0865625 	0.005 	-0.0654011
0.05 	0.0871875 	0.005 	-0.0645009
0.05 	0.0878125 	0.005 	-0.0635286
0.05 	0.0884375 	0.005 	-0.0624915
0.05 	0.0890625 	0.005 	-0.0613976
0.05 	0.0896875 	0.005 	-0.0602551
0.05 	0.0903125 	0.005 	-0.0590728
0.05 	0.0909375 	0.005 	-0.0578597
0.05 	0.0915625 	0.005 	-0.0566251
0.05 	0.0921875 	0.005 	-0.0553786
0.05 	0.0928125 	0.005 	-0.0541296
0.05 	0.0934375 	0.005 	-0.0528876
0.05 	0.0940625 	0.005 	-0.0516621
0.05 	0.0946875 	0.005 	-0.050462
0.05 	0.0953125 	0.005 	-0.0492962
0.05 	0.0959375 	0.005 	-0.0481731
0.05 	0.0965625 	0.005 	-0.0471
0.05 	0.0971875 	0.005 	-0.0460837
0.05 	0.0978125 	0.005 	-0.0451342
0.05 	0.0984375 	0.005 	-0.0442605
0.05 	0.0990625 	0.005 	-0.0434161
0.05 	0.0996875 	0.005 	-0.0425533
