/*--------------------------------*- C++ -*----------------------------------*\
  =========                 |
  \\      /  F ield         | OpenFOAM: The Open Source CFD Toolbox
   \\    /   O peration     | Website:  https://openfoam.org
    \\  /    A nd           | Version:  7
     \\/     M anipulation  |
\*---------------------------------------------------------------------------*/
FoamFile
{
    version     2.0;
    format      ascii;
    class       volScalarField;
    location    "0.2";
    object      p;
}
// * * * * * * * * * * * * * * * * * * * * * * * * * * * * * * * * * * * * * //

dimensions      [0 2 -2 0 0 0 0];

internalField   nonuniform List<scalar> 
25600
(
-1.19806e-07
0.000110701
0.000137923
2.90068e-05
-0.000224357
-0.000618545
-0.00114289
-0.00178296
-0.00252318
-0.00334822
-0.00424347
-0.00519538
-0.00619129
-0.00721957
-0.00826954
-0.00933131
-0.0103959
-0.0114551
-0.0125012
-0.0135274
-0.0145274
-0.0154953
-0.0164259
-0.0173145
-0.0181566
-0.0189483
-0.019686
-0.0203666
-0.0209871
-0.0215451
-0.0220381
-0.0224641
-0.0228216
-0.0231089
-0.0233248
-0.0234683
-0.0235384
-0.0235345
-0.0234562
-0.0233032
-0.0230754
-0.0227729
-0.0223957
-0.0219441
-0.0214187
-0.0208201
-0.020149
-0.0194063
-0.0185927
-0.0177095
-0.0167577
-0.0157385
-0.0146534
-0.0135038
-0.0122911
-0.011017
-0.00968319
-0.0082914
-0.00684347
-0.00534124
-0.0037867
-0.00218191
-0.000528935
0.00117009
0.00291296
0.00469741
0.00652113
0.0083818
0.010277
0.0122043
0.0141612
0.0161452
0.0181537
0.0201842
0.0222339
0.0243003
0.0263806
0.0284721
0.0305721
0.0326779
0.0347866
0.0368956
0.0390019
0.0411029
0.0431956
0.0452773
0.0473453
0.0493966
0.0514284
0.0534382
0.0554229
0.05738
0.0593066
0.0612
0.0630577
0.0648769
0.0666551
0.0683897
0.0700782
0.0717181
0.0733071
0.0748428
0.0763229
0.0777453
0.0791078
0.0804085
0.0816453
0.0828164
0.0839201
0.0849547
0.0859187
0.0868106
0.0876293
0.0883734
0.089042
0.0896341
0.0901491
0.0905864
0.0909455
0.0912261
0.0914282
0.0915519
0.0915975
0.0915654
0.0914563
0.0912713
0.0910113
0.0906777
0.0902723
0.0897968
0.0892533
0.0886444
0.0879726
0.087241
0.086453
0.0856122
0.0847226
0.0837886
0.0828151
0.0818072
0.0807707
0.0797117
0.0786368
0.0775533
0.0764691
0.0753925
0.0743327
0.0732997
0.072304
0.0713572
0.0704716
0.0696605
0.0689376
0.0683175
0.0678145
0.0674418
0.0672088
0.0671173
0.0671567
0.0672712
-0.000111215
3.03762e-07
3.56854e-06
-0.000117954
-0.000360145
-0.00072166
-0.00119601
-0.00177289
-0.00244025
-0.00318568
-0.00399686
-0.00486199
-0.00576979
-0.00670979
-0.00767209
-0.00864758
-0.00962777
-0.0106048
-0.0115716
-0.0125213
-0.013448
-0.014346
-0.0152102
-0.0160358
-0.0168187
-0.0175549
-0.0182409
-0.0188735
-0.0194498
-0.0199673
-0.0204235
-0.0208167
-0.0211448
-0.0214065
-0.0216005
-0.0217256
-0.0217808
-0.0217656
-0.0216794
-0.0215217
-0.0212926
-0.020992
-0.0206199
-0.0201765
-0.0196624
-0.019078
-0.0184239
-0.017701
-0.0169101
-0.0160521
-0.0151282
-0.0141394
-0.0130872
-0.0119727
-0.0107976
-0.00956316
-0.00827119
-0.00692331
-0.00552124
-0.00406681
-0.00256192
-0.00100852
0.000591422
0.00223584
0.00392259
0.00564948
0.00741428
0.00921478
0.0110486
0.0129135
0.0148069
0.0167265
0.0186697
0.0206342
0.0226172
0.0246163
0.0266288
0.0286521
0.0306836
0.0327206
0.0347604
0.0368003
0.0388377
0.0408698
0.042894
0.0449075
0.0469075
0.0488914
0.0508565
0.0528001
0.0547196
0.0566123
0.0584755
0.0603066
0.0621032
0.0638626
0.0655823
0.0672599
0.0688929
0.0704792
0.0720162
0.0735019
0.0749339
0.0763103
0.077629
0.0788881
0.0800858
0.0812202
0.0822897
0.0832927
0.0842279
0.0850939
0.0858894
0.0866135
0.087265
0.0878433
0.0883476
0.0887775
0.0891326
0.0894127
0.0896178
0.089748
0.0898036
0.0897853
0.0896937
0.0895298
0.0892948
0.08899
0.0886171
0.088178
0.0876747
0.0871098
0.0864859
0.0858059
0.0850732
0.0842914
0.0834644
0.0825966
0.0816926
0.0807574
0.0797967
0.0788163
0.0778226
0.0768226
0.0758238
0.074834
0.0738618
0.0729165
0.0720077
0.0711459
0.0703421
0.0696076
0.0689541
0.0683932
0.067936
0.0675917
0.0673658
0.0672582
0.0672712
0.0673858
-0.000137952
-1.8472e-06
1.7194e-06
-0.000121084
-0.000353582
-0.000692785
-0.00113343
-0.00166679
-0.00228278
-0.00297085
-0.00372034
-0.0045207
-0.00536193
-0.00623434
-0.00712894
-0.00803721
-0.00895109
-0.00986331
-0.010767
-0.0116556
-0.0125235
-0.0133651
-0.0141755
-0.0149501
-0.0156848
-0.0163757
-0.0170193
-0.0176125
-0.0181524
-0.0186366
-0.0190626
-0.0194285
-0.0197324
-0.0199729
-0.0201485
-0.0202583
-0.0203012
-0.0202765
-0.0201836
-0.0200221
-0.0197918
-0.0194927
-0.0191248
-0.0186883
-0.0181836
-0.0176111
-0.0169713
-0.016265
-0.0154931
-0.0146563
-0.0137558
-0.0127926
-0.011768
-0.0106831
-0.00953947
-0.00833851
-0.00708179
-0.00577088
-0.00440745
-0.00299329
-0.00153023
-2.01401e-05
0.00153509
0.00313344
0.00477284
0.00645117
0.0081663
0.00991603
0.0116981
0.0135103
0.0153502
0.0172154
0.0191036
0.0210124
0.0229391
0.0248814
0.0268368
0.0288026
0.0307763
0.0327553
0.034737
0.0367188
0.038698
0.0406722
0.0426386
0.0445945
0.0465374
0.0484646
0.0503735
0.0522615
0.054126
0.0559645
0.0577744
0.0595532
0.0612983
0.0630074
0.0646781
0.0663078
0.0678944
0.0694355
0.070929
0.0723727
0.0737644
0.0751023
0.0763843
0.0776086
0.0787735
0.0798771
0.0809181
0.0818947
0.0828059
0.0836502
0.0844264
0.0851337
0.0857711
0.0863378
0.0868333
0.0872571
0.0876088
0.0878885
0.0880959
0.0882315
0.0882955
0.0882886
0.0882114
0.088065
0.0878506
0.0875695
0.0872234
0.0868142
0.0863439
0.0858151
0.0852303
0.0845925
0.0839049
0.083171
0.0823948
0.0815804
0.0807324
0.0798557
0.0789556
0.0780379
0.0771087
0.0761746
0.0752427
0.0743204
0.0734159
0.0725377
0.0716947
0.0708964
0.0701527
0.0694736
0.0688692
0.0683494
0.0679235
0.0675992
0.0673811
0.067271
0.0672841
0.0674252
-2.76903e-05
0.000121339
0.000126439
3.57826e-06
-0.000223301
-0.000549
-0.000967999
-0.00147203
-0.00205213
-0.00269887
-0.0034027
-0.00415429
-0.00494433
-0.00576411
-0.00660525
-0.00745976
-0.00832028
-0.00917976
-0.0100317
-0.01087
-0.0116891
-0.0124837
-0.0132491
-0.0139809
-0.0146748
-0.0153273
-0.015935
-0.0164946
-0.0170034
-0.017459
-0.017859
-0.0182015
-0.0184846
-0.0187067
-0.0188666
-0.0189631
-0.0189952
-0.0189622
-0.0188636
-0.0186988
-0.0184676
-0.0181699
-0.0178057
-0.0173752
-0.0168787
-0.0163165
-0.0156893
-0.0149977
-0.0142425
-0.0134244
-0.0125445
-0.0116038
-0.0106035
-0.00954473
-0.00842891
-0.00725746
-0.00603183
-0.00475356
-0.00342428
-0.0020457
-0.000619597
0.000852245
0.00236796
0.00392558
0.00552311
0.00715851
0.00882972
0.0105346
0.0122709
0.0140364
0.015829
0.0176462
0.0194857
0.0213452
0.0232222
0.0251144
0.0270191
0.0289341
0.0308567
0.0327845
0.0347149
0.0366453
0.0385733
0.0404962
0.0424115
0.0443167
0.0462091
0.0480863
0.0499457
0.0517847
0.0536008
0.0553915
0.0571544
0.0588871
0.060587
0.0622519
0.0638793
0.0654669
0.0670126
0.0685142
0.0699694
0.0713762
0.0727326
0.0740366
0.0752864
0.0764802
0.0776163
0.0786931
0.079709
0.0806626
0.0815527
0.082378
0.0831374
0.08383
0.084455
0.0850116
0.0854993
0.0859177
0.0862666
0.0865457
0.0867553
0.0868954
0.0869666
0.0869694
0.0869047
0.0867733
0.0865765
0.0863157
0.0859925
0.0856088
0.0851667
0.0846686
0.084117
0.0835149
0.0828654
0.082172
0.0814384
0.0806688
0.0798675
0.0790394
0.0781894
0.0773232
0.0764467
0.0755661
0.074688
0.0738197
0.0729686
0.0721427
0.0713503
0.0706
0.0699009
0.0692618
0.068692
0.0682001
0.0677947
0.0674832
0.0672704
0.0671605
0.0671767
0.0673344
0.000227018
0.000365256
0.000360691
0.000231863
4.705e-06
-0.00031427
-0.000719114
-0.00120204
-0.00175477
-0.00236877
-0.00303554
-0.00374653
-0.00449341
-0.00526815
-0.00606295
-0.00687047
-0.00768381
-0.00849636
-0.009302
-0.010095
-0.0108699
-0.0116218
-0.012346
-0.0130384
-0.0136949
-0.014312
-0.0148863
-0.0154147
-0.0158947
-0.0163237
-0.0166994
-0.0170199
-0.0172834
-0.0174884
-0.0176335
-0.0177175
-0.0177396
-0.0176988
-0.0175948
-0.0174269
-0.0171949
-0.0168985
-0.016538
-0.0161133
-0.0156247
-0.0150725
-0.0144574
-0.0137799
-0.0130406
-0.0122405
-0.0113804
-0.0104613
-0.00948433
-0.00845066
-0.0073616
-0.00621851
-0.00502276
-0.00377588
-0.00247944
-0.0011351
0.000255453
0.00169049
0.00316818
0.0046866
0.00624382
0.00783792
0.00946684
0.0111285
0.0128208
0.0145415
0.0162884
0.0180594
0.019852
0.0216641
0.0234933
0.0253371
0.0271933
0.0290593
0.0309328
0.0328113
0.0346923
0.0365733
0.038452
0.0403257
0.042192
0.0440484
0.0458924
0.0477215
0.0495332
0.0513252
0.0530948
0.0548397
0.0565576
0.058246
0.0599025
0.0615249
0.0631109
0.0646583
0.0661648
0.0676284
0.069047
0.0704185
0.0717411
0.0730128
0.0742318
0.0753965
0.0765051
0.0775561
0.0785481
0.0794797
0.0803497
0.0811569
0.0819002
0.0825788
0.0831919
0.0837388
0.0842191
0.0846324
0.0849784
0.085257
0.0854684
0.0856128
0.0856906
0.0857025
0.0856493
0.0855319
0.0853516
0.0851097
0.0848079
0.0844479
0.084032
0.0835623
0.0830415
0.0824724
0.081858
0.0812018
0.0805073
0.0797786
0.0790199
0.0782357
0.0774311
0.0766113
0.0757818
0.0749487
0.0741182
0.0732971
0.0724923
0.0717112
0.0709615
0.0702511
0.0695882
0.068981
0.0684376
0.0679662
0.0675743
0.0672695
0.0670569
0.0669421
0.0669511
0.0671027
0.000621897
0.000728135
0.000701541
0.000558847
0.000324303
4.86029e-06
-0.000393311
-0.000862898
-0.00139625
-0.00198566
-0.00262335
-0.00330163
-0.00401294
-0.00474985
-0.00550527
-0.00627241
-0.00704471
-0.00781613
-0.00858089
-0.00933352
-0.0100689
-0.0107824
-0.0114695
-0.0121262
-0.0127486
-0.0133333
-0.0138771
-0.014377
-0.0148304
-0.0152348
-0.0155881
-0.0158883
-0.0161337
-0.0163227
-0.0164541
-0.0165266
-0.0165393
-0.0164914
-0.0163823
-0.0162116
-0.0159789
-0.015684
-0.015327
-0.0149079
-0.0144269
-0.0138843
-0.0132807
-0.0126166
-0.0118927
-0.0111097
-0.0102685
-0.00937006
-0.00841541
-0.00740572
-0.00634224
-0.00522623
-0.00405905
-0.00284217
-0.00157714
-0.00026554
0.00109103
0.00249085
0.00393215
0.00541307
0.00693177
0.00848634
0.0100748
0.0116951
0.0133452
0.015023
0.0167264
0.0184531
0.0202009
0.0219677
0.023751
0.0255487
0.0273584
0.0291776
0.0310041
0.0328355
0.0346693
0.0365031
0.0383346
0.0401613
0.0419808
0.0437906
0.0455883
0.0473715
0.0491379
0.0508849
0.0526102
0.0543114
0.0559863
0.0576325
0.0592477
0.0608297
0.0623763
0.0638852
0.0653545
0.066782
0.0681657
0.0695037
0.0707941
0.072035
0.0732248
0.0743618
0.0754443
0.0764709
0.0774402
0.0783509
0.0792017
0.0799917
0.0807198
0.081385
0.0819869
0.0825246
0.0829978
0.083406
0.0837492
0.0840272
0.0842402
0.0843884
0.0844724
0.0844927
0.0844501
0.0843456
0.0841804
0.083956
0.0836738
0.0833357
0.0829438
0.0825002
0.0820076
0.0814686
0.0808862
0.0802638
0.0796048
0.078913
0.0781926
0.0774479
0.0766837
0.075905
0.075117
0.0743255
0.0735363
0.0727557
0.0719902
0.0712467
0.0705323
0.0698542
0.0692198
0.0686367
0.0681122
0.0676537
0.0672685
0.0669636
0.0667445
0.0666175
0.0666074
0.0667319
0.00114664
0.00120397
0.00114396
0.000979303
0.000729907
0.000402671
3.71175e-06
-0.0004601
-0.000981829
-0.00155439
-0.00217073
-0.0028239
-0.00350698
-0.00421322
-0.0049361
-0.0056693
-0.00640683
-0.00714299
-0.00787233
-0.00858976
-0.00929051
-0.00997006
-0.0106242
-0.011249
-0.0118409
-0.0123965
-0.0129128
-0.0133868
-0.013816
-0.0141982
-0.0145311
-0.0148128
-0.0150416
-0.0152161
-0.0153348
-0.0153968
-0.015401
-0.0153466
-0.015233
-0.0150598
-0.0148266
-0.0145332
-0.0141797
-0.0137659
-0.0132921
-0.0127587
-0.0121661
-0.0115147
-0.0108053
-0.0100386
-0.00921532
-0.00833644
-0.00740296
-0.00641603
-0.00537678
-0.00428645
-0.00314637
-0.00195797
-0.000722736
0.000557833
0.00188216
0.00324856
0.00465531
0.00610066
0.0075828
0.00909987
0.0106499
0.012231
0.0138411
0.0154782
0.0171402
0.0188249
0.0205302
0.0222539
0.0239939
0.0257477
0.0275132
0.0292881
0.0310701
0.0328568
0.0346458
0.036435
0.0382218
0.0400039
0.041779
0.0435447
0.0452986
0.0470384
0.0487618
0.0504663
0.0521496
0.0538096
0.0554438
0.0570502
0.0586263
0.0601701
0.0616794
0.0631521
0.0645862
0.0659796
0.0673305
0.0686368
0.0698968
0.0711088
0.072271
0.0733818
0.0744397
0.0754433
0.0763913
0.0772823
0.0781151
0.0788889
0.0796025
0.0802553
0.0808464
0.0813755
0.0818419
0.0822453
0.0825857
0.082863
0.0830773
0.083229
0.0833184
0.0833463
0.0833133
0.0832206
0.0830692
0.0828606
0.0825962
0.082278
0.0819078
0.0814878
0.0810205
0.0805086
0.079955
0.0793628
0.0787354
0.0780765
0.0773899
0.07668
0.0759512
0.0752082
0.0744561
0.0737002
0.0729459
0.0721993
0.0714663
0.0707534
0.0700669
0.0694136
0.0688003
0.0682337
0.0677207
0.0672681
0.0668825
0.0665706
0.0663379
0.0661909
0.0661506
0.0662312
0.00178748
0.00178308
0.00167994
0.00148565
0.00121422
0.000872239
0.000465573
5.45163e-07
-0.000516535
-0.00107928
-0.00168136
-0.00231631
-0.00297792
-0.00366003
-0.00435664
-0.00506195
-0.00577047
-0.00647679
-0.00717591
-0.00786301
-0.00853361
-0.00918344
-0.00980855
-0.0104052
-0.01097
-0.0114996
-0.0119912
-0.0124421
-0.0128496
-0.0132116
-0.013526
-0.0137909
-0.0140047
-0.014166
-0.0142733
-0.0143257
-0.0143222
-0.014262
-0.0141444
-0.0139691
-0.0137356
-0.0134438
-0.0130936
-0.012685
-0.0122182
-0.0116935
-0.0111113
-0.0104721
-0.00977645
-0.00902513
-0.00821886
-0.00735854
-0.00644515
-0.00547976
-0.00446347
-0.00339748
-0.0022831
-0.0011217
8.53065e-05
0.00133646
0.00263021
0.00396492
0.00533893
0.00675055
0.00819803
0.00967953
0.0111932
0.0127371
0.0143092
0.0159077
0.0175305
0.0191754
0.0208404
0.0225233
0.0242221
0.0259344
0.0276582
0.029391
0.0311308
0.0328752
0.0346219
0.0363687
0.0381132
0.0398531
0.0415862
0.0433102
0.0450227
0.0467214
0.0484041
0.0500684
0.0517121
0.0533331
0.054929
0.0564976
0.0580369
0.0595446
0.0610188
0.0624573
0.0638583
0.0652196
0.0665394
0.0678159
0.0690473
0.070232
0.0713682
0.0724545
0.0734893
0.0744712
0.075399
0.0762715
0.0770874
0.0778459
0.078546
0.0791869
0.079768
0.0802887
0.0807487
0.0811476
0.0814852
0.0817616
0.081977
0.0821316
0.0822259
0.0822606
0.0822363
0.0821541
0.0820152
0.0818208
0.0815725
0.0812721
0.0809214
0.0805227
0.0800781
0.0795904
0.0790624
0.078497
0.0778976
0.0772676
0.0766107
0.0759311
0.0752329
0.0745206
0.073799
0.0730731
0.072348
0.0716293
0.0709225
0.0702335
0.0695683
0.0689331
0.068334
0.0677772
0.0672689
0.0668154
0.0664228
0.0660972
0.0658441
0.0656696
0.0655895
0.0656131
0.00253012
0.0024544
0.00230028
0.00206957
0.00176963
0.00140653
0.000985848
0.00051325
-5.57953e-06
-0.000564915
-0.00115898
-0.00178201
-0.00242831
-0.00309227
-0.00376838
-0.0044514
-0.00513616
-0.00581773
-0.00649143
-0.00715275
-0.00779747
-0.00842162
-0.00902148
-0.00959345
-0.0101343
-0.010641
-0.0111107
-0.0115408
-0.011929
-0.0122729
-0.0125707
-0.0128206
-0.0130209
-0.0131702
-0.0132673
-0.0133111
-0.0133007
-0.0132352
-0.0131142
-0.0129371
-0.0127036
-0.0124134
-0.0120665
-0.011663
-0.0112029
-0.0106865
-0.0101142
-0.00948655
-0.00880404
-0.00806734
-0.00727718
-0.00643446
-0.00554011
-0.00459512
-0.00360057
-0.00255764
-0.00146761
-0.000331786
0.000848491
0.00207178
0.00333655
0.00464124
0.00598425
0.00736393
0.00877856
0.0102264
0.0117055
0.0132142
0.0147504
0.0163123
0.0178979
0.0195052
0.021132
0.0227763
0.0244361
0.0261091
0.0277933
0.0294864
0.0311862
0.0328905
0.0345972
0.0363039
0.0380084
0.0397085
0.0414019
0.0430864
0.0447598
0.0464197
0.048064
0.0496904
0.0512967
0.0528808
0.0544405
0.0559736
0.0574781
0.0589519
0.060393
0.0617993
0.063169
0.0645
0.0657906
0.0670391
0.0682436
0.0694026
0.0705145
0.0715776
0.0725907
0.0735523
0.0744612
0.0753162
0.0761162
0.0768603
0.0775476
0.0781773
0.0787489
0.0792618
0.0797156
0.08011
0.0804449
0.0807204
0.0809365
0.0810937
0.0811922
0.0812329
0.0812163
0.0811436
0.0810158
0.0808342
0.0806003
0.0803158
0.0799825
0.0796026
0.0791783
0.078712
0.0782066
0.0776648
0.0770898
0.076485
0.0758539
0.0752003
0.0745283
0.073842
0.073146
0.0724449
0.0717436
0.0710471
0.0703607
0.0696898
0.0690398
0.0684165
0.0678253
0.0672721
0.0667624
0.0663019
0.0658962
0.0655508
0.0652709
0.0650622
0.0649344
0.0648913
0.00336027
0.00320649
0.00299523
0.00272244
0.00238833
0.00199843
0.00155806
0.00107221
0.000545876
-1.5794e-05
-0.000607615
-0.00122442
-0.00186098
-0.00251228
-0.00317324
-0.00383909
-0.00450502
-0.00516658
-0.00581933
-0.00645912
-0.00708203
-0.00768429
-0.00826243
-0.00881306
-0.00933313
-0.00981973
-0.0102702
-0.010682
-0.011053
-0.0113809
-0.0116639
-0.0119004
-0.0120886
-0.0122273
-0.0123153
-0.0123515
-0.0123349
-0.0122649
-0.0121409
-0.0119624
-0.0117291
-0.0114407
-0.0110971
-0.0106984
-0.0102448
-0.00973635
-0.00917356
-0.00855687
-0.00788678
-0.00716393
-0.00638906
-0.005563
-0.00468665
-0.00376096
-0.00278699
-0.0017659
-0.000698897
0.000412761
0.00156775
0.00276466
0.00400202
0.00527832
0.00659201
0.00794148
0.00932505
0.010741
0.0121875
0.0136629
0.0151651
0.0166925
0.0182429
0.0198145
0.0214052
0.0230131
0.024636
0.0262719
0.0279187
0.0295742
0.0312363
0.0329028
0.0345716
0.0362405
0.0379073
0.0395697
0.0412257
0.042873
0.0445095
0.0461328
0.0477409
0.0493315
0.0509026
0.052452
0.0539776
0.0554773
0.0569491
0.0583909
0.0598008
0.0611769
0.0625171
0.0638198
0.065083
0.0663051
0.0674844
0.0686193
0.0697082
0.0707497
0.0717423
0.0726848
0.073576
0.0744146
0.0751997
0.0759303
0.0766055
0.0772248
0.0777874
0.0782928
0.0787407
0.0791308
0.079463
0.0797374
0.079954
0.0801132
0.0802155
0.0802613
0.0802516
0.0801872
0.0800693
0.079899
0.0796778
0.0794074
0.0790896
0.0787263
0.0783197
0.0778722
0.0773865
0.0768652
0.0763114
0.0757283
0.0751191
0.0744876
0.0738375
0.0731729
0.0724978
0.0718167
0.0711341
0.0704547
0.0697833
0.069125
0.0684847
0.0678676
0.0672788
0.0667235
0.0662067
0.0657337
0.0653093
0.0649385
0.0646263
0.0643778
0.0641961
0.0640792
0.00426464
0.00402808
0.00375512
0.00343557
0.00306247
0.0026409
0.00217584
0.00167162
0.00113265
0.000563455
-3.13108e-05
-0.000647005
-0.00127897
-0.00192259
-0.00257332
-0.0032267
-0.00387842
-0.00452431
-0.00516031
-0.00578259
-0.00638745
-0.00697141
-0.00753116
-0.00806363
-0.00856584
-0.00903507
-0.00946882
-0.00986473
-0.0102206
-0.0105345
-0.0108045
-0.0110291
-0.0112067
-0.0113361
-0.011416
-0.0114455
-0.0114236
-0.0113497
-0.0112233
-0.0110437
-0.0108108
-0.0105242
-0.010184
-0.00979008
-0.00934259
-0.0088418
-0.00828806
-0.00768179
-0.00702348
-0.00631376
-0.00555336
-0.00474306
-0.00388372
-0.00297626
-0.00202175
-0.00102128
2.39776e-05
0.00111282
0.00224393
0.00341593
0.0046274
0.00587691
0.00716292
0.00848386
0.00983809
0.0112239
0.0126397
0.0140836
0.0155538
0.0170485
0.0185658
0.0201037
0.0216604
0.0232338
0.024822
0.0264229
0.0280344
0.0296544
0.031281
0.0329119
0.034545
0.0361782
0.0378094
0.0394365
0.0410572
0.0426695
0.0442712
0.0458601
0.0474341
0.0489911
0.0505291
0.0520459
0.0535395
0.0550078
0.0564488
0.0578607
0.0592414
0.060589
0.0619017
0.0631777
0.0644153
0.0656127
0.0667683
0.0678806
0.0689481
0.0699692
0.0709428
0.0718674
0.0727419
0.0735652
0.0743363
0.0750542
0.0757182
0.0763276
0.0768817
0.07738
0.0778223
0.0782083
0.0785378
0.0788109
0.0790277
0.0791886
0.0792939
0.0793443
0.0793405
0.0792834
0.0791741
0.0790137
0.0788037
0.0785456
0.0782412
0.0778924
0.0775012
0.07707
0.0766013
0.0760976
0.0755618
0.074997
0.0744062
0.0737931
0.073161
0.0725138
0.0718554
0.0711898
0.0705212
0.0698541
0.0691928
0.068542
0.0679063
0.0672903
0.0666988
0.0661362
0.0656074
0.0651168
0.0646689
0.0642679
0.0639185
0.0636256
0.0633852
0.0631897
0.00523091
0.00490846
0.00457034
0.00420044
0.00378439
0.00332692
0.00283284
0.00230579
0.00174959
0.00116826
0.000565877
-5.33737e-05
-0.000685338
-0.00132584
-0.00197078
-0.00261609
-0.00325779
-0.00389208
-0.00451524
-0.00512373
-0.00571408
-0.00628309
-0.00682767
-0.00734491
-0.00783204
-0.00828654
-0.00870598
-0.00908818
-0.00943104
-0.00973273
-0.00999151
-0.0102058
-0.0103741
-0.0104953
-0.0105682
-0.0105919
-0.0105655
-0.0104884
-0.0103599
-0.0101797
-0.0099474
-0.00966285
-0.00932593
-0.00893664
-0.00849514
-0.00800166
-0.00745654
-0.00686015
-0.00621301
-0.00551573
-0.00476901
-0.00397359
-0.00313029
-0.00224004
-0.00130388
-0.000322858
0.000701911
0.00176923
0.00287781
0.00402634
0.00521343
0.00643768
0.00769761
0.00899166
0.0103183
0.0116758
0.0130625
0.0144767
0.0159168
0.0173807
0.0188667
0.020373
0.0218976
0.0234386
0.0249941
0.026562
0.0281403
0.029727
0.0313201
0.0329175
0.0345171
0.0361168
0.0377146
0.0393084
0.040896
0.0424754
0.0440444
0.045601
0.0471431
0.0486686
0.0501755
0.0516617
0.0531253
0.0545642
0.0559764
0.0573602
0.0587136
0.0600346
0.0613215
0.0625726
0.0637862
0.0649605
0.0660941
0.0671853
0.0682327
0.0692349
0.0701906
0.0710986
0.0719575
0.0727665
0.0735245
0.0742305
0.074884
0.075484
0.0760301
0.0765218
0.0769587
0.0773406
0.0776675
0.0779392
0.078156
0.0783181
0.078426
0.0784802
0.0784814
0.0784306
0.0783287
0.0781769
0.0779765
0.0777291
0.0774363
0.0770999
0.0767219
0.0763046
0.0758503
0.0753614
0.0748407
0.0742909
0.0737153
0.0731169
0.0724992
0.0718656
0.0712198
0.0705655
0.0699067
0.0692474
0.0685918
0.067944
0.0673082
0.0666887
0.0660896
0.0655153
0.0649699
0.0644574
0.0639816
0.0635462
0.0631557
0.0628146
0.062512
0.0622344
0.00624776
0.00583753
0.00543184
0.00500872
0.00454653
0.0040497
0.00352286
0.0029691
0.00239167
0.00179406
0.00117991
0.000552902
-8.32425e-05
-0.000724775
-0.00136799
-0.00200919
-0.00264478
-0.00327123
-0.00388516
-0.00448331
-0.00506247
-0.00561967
-0.00615205
-0.00665686
-0.00713156
-0.00757375
-0.0079812
-0.00835179
-0.00868363
-0.00897491
-0.009224
-0.00942942
-0.00958983
-0.00970404
-0.00977097
-0.00978973
-0.00975954
-0.00967975
-0.00954979
-0.00936926
-0.00913786
-0.00885541
-0.0085218
-0.00813705
-0.00770132
-0.00721485
-0.00667791
-0.00609091
-0.00545436
-0.00476884
-0.00403502
-0.00325361
-0.00242544
-0.00155142
-0.000632535
0.000330202
0.00133569
0.00238276
0.00347015
0.00459659
0.00576076
0.00696127
0.00819666
0.00946543
0.010766
0.0120969
0.0134564
0.0148428
0.0162544
0.0176894
0.0191461
0.0206226
0.0221171
0.0236277
0.0251524
0.0266893
0.0282365
0.0297919
0.0313536
0.0329196
0.0344877
0.036056
0.0376225
0.039185
0.0407416
0.0422902
0.0438286
0.045355
0.0468672
0.0483632
0.0498411
0.0512987
0.0527342
0.0541456
0.055531
0.0568886
0.0582164
0.0595126
0.0607755
0.0620034
0.0631946
0.0643475
0.0654604
0.066532
0.0675607
0.0685453
0.0694844
0.0703768
0.0712213
0.0720169
0.0727627
0.0734577
0.0741013
0.0746926
0.0752312
0.0757166
0.0761484
0.0765264
0.0768505
0.0771208
0.0773372
0.0775002
0.0776101
0.0776674
0.0776729
0.0776274
0.0775318
0.0773873
0.0771951
0.0769567
0.0766737
0.0763478
0.075981
0.0755753
0.0751328
0.0746561
0.0741477
0.0736102
0.0730465
0.0724596
0.0718528
0.0712292
0.0705922
0.0699454
0.0692924
0.068637
0.0679828
0.0673337
0.0666937
0.0660664
0.0654558
0.0648656
0.0642996
0.0637612
0.0632538
0.0627805
0.0623456
0.0619535
0.061586
0.0612244
0.00730492
0.00680595
0.00633106
0.00585254
0.00534166
0.00480255
0.00423984
0.00365601
0.00305384
0.00243633
0.0018067
0.00116819
0.000524097
-0.000122196
-0.000767382
-0.00140813
-0.00204114
-0.00266322
-0.00327127
-0.00386229
-0.00443335
-0.00498167
-0.00550461
-0.00599964
-0.0064644
-0.0068966
-0.00729421
-0.00765522
-0.00797788
-0.00826045
-0.00850142
-0.0086994
-0.00885313
-0.00896145
-0.00902339
-0.0090381
-0.00900483
-0.00892296
-0.00879195
-0.00861145
-0.00838118
-0.00810092
-0.00777063
-0.00739033
-0.00696019
-0.0064804
-0.00595125
-0.00537316
-0.00474662
-0.0040722
-0.00335052
-0.0025823
-0.00176835
-0.000909584
-6.9197e-06
0.000938644
0.00192603
0.00295408
0.00402158
0.00512731
0.00626998
0.0074482
0.00866059
0.00990565
0.0111819
0.0124877
0.0138216
0.0151819
0.0165669
0.0179749
0.0194041
0.0208527
0.022319
0.023801
0.0252969
0.0268049
0.0283229
0.029849
0.0313813
0.0329178
0.0344566
0.0359955
0.0375327
0.0390661
0.0405937
0.0421134
0.0436233
0.0451215
0.0466058
0.0480743
0.0495251
0.0509561
0.0523654
0.0537512
0.0551117
0.0564448
0.0577489
0.059022
0.0602626
0.061469
0.0626394
0.0637723
0.0648662
0.0659195
0.066931
0.0678992
0.0688229
0.0697008
0.070532
0.0713152
0.0720496
0.0727344
0.0733687
0.0739519
0.0744835
0.0749629
0.0753899
0.0757641
0.0760856
0.0763542
0.0765701
0.0767336
0.0768449
0.0769048
0.0769137
0.0768726
0.0767823
0.0766438
0.0764585
0.0762276
0.0759528
0.0756355
0.0752778
0.0748815
0.0744487
0.0739817
0.0734829
0.0729548
0.0724001
0.0718218
0.0712226
0.0706056
0.0699741
0.0693312
0.0686803
0.0680249
0.0673685
0.0667144
0.0660662
0.0654275
0.0648015
0.0641918
0.0636016
0.063034
0.0624918
0.0619776
0.0614958
0.0610503
0.0606164
0.0601694
0.00839313
0.00780508
0.00725998
0.0067245
0.00616285
0.00557914
0.0049779
0.00436118
0.00373121
0.00309066
0.00244226
0.00178888
0.00113347
0.000479018
-0.000171498
-0.000815084
-0.00144878
-0.00206965
-0.0026749
-0.00326177
-0.00382756
-0.00436974
-0.00488585
-0.00537357
-0.00583068
-0.0062551
-0.0066449
-0.00699826
-0.00731345
-0.00758893
-0.00782326
-0.00801514
-0.00816337
-0.00826688
-0.00832479
-0.00833625
-0.00830057
-0.00821717
-0.00808557
-0.00790544
-0.00767648
-0.00739853
-0.00707156
-0.00669562
-0.00627085
-0.00579745
-0.00527571
-0.00470606
-0.00408897
-0.00342498
-0.00271471
-0.00195888
-0.0011583
-0.000313819
0.000573658
0.00150314
0.00247355
0.0034838
0.0045327
0.00561906
0.0067416
0.00789898
0.00908983
0.0103127
0.0115662
0.0128487
0.0141587
0.0154945
0.0168546
0.0182373
0.0196408
0.0210634
0.0225033
0.0239587
0.0254277
0.0269086
0.0283993
0.0298982
0.0314031
0.0329121
0.0344234
0.035935
0.0374449
0.0389511
0.0404517
0.0419446
0.043428
0.0448999
0.0463583
0.0478013
0.0492268
0.0506331
0.0520182
0.0533803
0.0547176
0.0560281
0.0573101
0.058562
0.0597819
0.0609683
0.0621195
0.063234
0.0643102
0.0653467
0.0663422
0.0672953
0.0682048
0.0690694
0.0698881
0.0706599
0.0713839
0.0720591
0.0726849
0.0732606
0.0737856
0.0742594
0.0746818
0.0750524
0.0753712
0.0756381
0.0758533
0.0760169
0.0761293
0.0761911
0.0762028
0.0761652
0.0760791
0.0759456
0.0757658
0.075541
0.0752727
0.0749624
0.0746119
0.074223
0.0737976
0.073338
0.0728464
0.0723251
0.0717768
0.071204
0.0706094
0.069996
0.0693667
0.0687245
0.0680724
0.0674137
0.0667515
0.0660889
0.0654293
0.0647756
0.064131
0.0634986
0.0628811
0.0622814
0.0617017
0.0611442
0.0606133
0.0601129
0.0596113
0.0590786
0.00950378
0.00882694
0.00821113
0.00761754
0.00700363
0.0063734
0.00573144
0.00507939
0.00441905
0.00375266
0.0030826
0.00241142
0.00174166
0.00107601
0.000417135
-0.000232309
-0.000869652
-0.00149223
-0.00209749
-0.00268295
-0.00324611
-0.00378467
-0.00429638
-0.00477909
-0.00523073
-0.00564942
-0.00603332
-0.00638079
-0.00669019
-0.00696011
-0.00718919
-0.00737622
-0.00752008
-0.00761981
-0.00767456
-0.00768353
-0.0076461
-0.00756171
-0.00742995
-0.00725046
-0.00702302
-0.00674749
-0.00642386
-0.00605217
-0.00563256
-0.00516525
-0.00465056
-0.00408888
-0.00348067
-0.00282647
-0.00212691
-0.0013827
-0.000594609
0.000236526
0.00110981
0.00202426
0.00297884
0.00397247
0.00500402
0.00607231
0.00717608
0.00831402
0.0094848
0.010687
0.0119192
0.01318
0.0144677
0.0157808
0.0171177
0.0184768
0.0198563
0.0212547
0.02267
0.0241006
0.0255447
0.0270003
0.0284658
0.0299392
0.0314186
0.0329022
0.034388
0.0358742
0.0373587
0.0388397
0.0403153
0.0417834
0.0432422
0.0446898
0.0461242
0.0475435
0.0489458
0.0503292
0.0516919
0.0530321
0.0543479
0.0556376
0.0568993
0.0581315
0.0593324
0.0605005
0.061634
0.0627315
0.0637914
0.0648125
0.0657933
0.0667325
0.0676289
0.0684813
0.0692887
0.07005
0.0707643
0.0714308
0.0720487
0.0726173
0.0731362
0.0736048
0.0740229
0.0743901
0.0747063
0.0749714
0.0751856
0.0753491
0.0754622
0.0755253
0.075539
0.0755041
0.0754213
0.0752917
0.0751162
0.0748962
0.0746329
0.074328
0.0739829
0.0735995
0.0731796
0.0727252
0.0722384
0.0717216
0.071177
0.0706071
0.0700145
0.0694018
0.0687717
0.0681271
0.0674708
0.0668057
0.0661346
0.0654604
0.0647862
0.0641145
0.0634484
0.0627903
0.0621429
0.0615086
0.0608892
0.0602865
0.0597049
0.0591482
0.0585784
0.0579601
0.0106292
0.00986417
0.00917754
0.00852516
0.00785784
0.0071796
0.00649514
0.00580572
0.00511273
0.0044181
0.00372389
0.00303226
0.00234549
0.00166591
0.000995937
0.000337906
-0.000305768
-0.000932701
-0.00154058
-0.00212712
-0.00269012
-0.0032274
-0.00373694
-0.00421675
-0.00466496
-0.00507981
-0.00545965
-0.00580287
-0.00610805
-0.00637384
-0.00659898
-0.00678234
-0.00692293
-0.00701984
-0.00707225
-0.00707946
-0.00704087
-0.00695601
-0.00682446
-0.00664591
-0.00642018
-0.00614716
-0.00582685
-0.0054593
-0.00504465
-0.00458316
-0.00407513
-0.00352095
-0.00292108
-0.00227605
-0.0015865
-0.000853133
-7.66878e-05
0.000742012
0.00160208
0.00250253
0.00344239
0.00442058
0.005436
0.00648749
0.00757382
0.00869371
0.00984584
0.0110289
0.0122414
0.0134819
0.0147489
0.0160409
0.0173563
0.0186935
0.0200509
0.0214267
0.0228193
0.0242269
0.0256478
0.0270801
0.0285221
0.029972
0.0314278
0.0328878
0.0343501
0.0358127
0.0372739
0.0387316
0.040184
0.0416293
0.0430654
0.0444905
0.0459028
0.0473003
0.0486812
0.0500436
0.0513857
0.0527058
0.0540019
0.0552724
0.0565156
0.0577298
0.0589133
0.0600645
0.0611818
0.0622638
0.0633089
0.0643158
0.0652832
0.0662098
0.0670942
0.0679355
0.0687325
0.0694841
0.0701896
0.0708481
0.0714588
0.072021
0.0725343
0.0729981
0.0734121
0.073776
0.0740896
0.074353
0.0745661
0.0747291
0.0748424
0.0749064
0.0749216
0.0748886
0.0748083
0.0746815
0.0745092
0.0742926
0.0740331
0.0737319
0.0733906
0.0730109
0.0725946
0.0721434
0.0716594
0.0711447
0.0706015
0.0700321
0.0694388
0.0688242
0.0681907
0.067541
0.0668776
0.0662031
0.0655204
0.0648318
0.0641402
0.0634479
0.0627576
0.0620714
0.0613918
0.0607207
0.0600597
0.0594102
0.0587767
0.0581631
0.0575247
0.0568212
0.0117625
0.01091
0.0101528
0.0094412
0.00871966
0.00799228
0.00726389
0.00653537
0.00580784
0.00508291
0.00436232
0.00364795
0.00294177
0.00224586
0.00156232
0.000893247
0.000240792
-0.000392903
-0.00100577
-0.00159572
-0.00216076
-0.00269893
-0.00320838
-0.00368728
-0.00413395
-0.00454674
-0.00492415
-0.00526471
-0.00556711
-0.00583011
-0.00605253
-0.00623336
-0.00637169
-0.00646666
-0.00651752
-0.00652365
-0.0064845
-0.00639961
-0.00626864
-0.0060913
-0.00586744
-0.00559701
-0.00527998
-0.00491645
-0.00450657
-0.0040506
-0.00354886
-0.00300172
-0.00240964
-0.00177318
-0.00109296
-0.000369667
0.00039597
0.00120313
0.00205092
0.00293842
0.00386463
0.00482853