/*--------------------------------*- C++ -*----------------------------------*\
  =========                 |
  \\      /  F ield         | OpenFOAM: The Open Source CFD Toolbox
   \\    /   O peration     | Website:  https://openfoam.org
    \\  /    A nd           | Version:  7
     \\/     M anipulation  |
\*---------------------------------------------------------------------------*/
FoamFile
{
    version     2.0;
    format      ascii;
    class       surfaceScalarField;
    location    "0.2";
    object      phi;
}
// * * * * * * * * * * * * * * * * * * * * * * * * * * * * * * * * * * * * * //

dimensions      [0 3 -1 0 0 0 0];

internalField   nonuniform List<scalar> 
50880
(
6.32788e-12
-6.30988e-12
3.66485e-11
-3.03256e-11
8.15279e-11
-4.48815e-11
1.31086e-10
-4.95605e-11
1.7824e-10
-4.71546e-11
2.18005e-10
-3.97634e-11
2.46947e-10
-2.89396e-11
2.62744e-10
-1.57961e-11
2.63868e-10
-1.12814e-12
2.49365e-10
1.44981e-11
2.18688e-10
3.0677e-11
1.71575e-10
4.71099e-11
1.08e-10
6.35731e-11
2.80973e-11
7.99036e-11
-6.78678e-11
9.5965e-11
-1.79528e-10
1.11659e-10
-3.06437e-10
1.26914e-10
-4.48101e-10
1.41657e-10
-6.03956e-10
1.55857e-10
-7.73425e-10
1.69466e-10
-9.55891e-10
1.82462e-10
-1.15071e-09
1.94825e-10
-1.35724e-09
2.06534e-10
-1.57482e-09
2.17578e-10
-1.80277e-09
2.27957e-10
-2.04043e-09
2.37659e-10
-2.28712e-09
2.46685e-10
-2.54215e-09
2.55042e-10
-2.80487e-09
2.62725e-10
-3.07461e-09
2.69735e-10
-3.35069e-09
2.76086e-10
-3.63247e-09
2.8178e-10
-3.9193e-09
2.86821e-10
-4.21053e-09
2.91229e-10
-4.50554e-09
2.95007e-10
-4.8037e-09
2.98159e-10
-5.1044e-09
3.007e-10
-5.40705e-09
3.02642e-10
-5.71104e-09
3.03995e-10
-6.01581e-09
3.04767e-10
-6.32079e-09
3.04975e-10
-6.62541e-09
3.0463e-10
-6.92915e-09
3.03737e-10
-7.23146e-09
3.02312e-10
-7.53183e-09
3.0037e-10
-7.82976e-09
2.97924e-10
-8.12474e-09
2.94985e-10
-8.41631e-09
2.91566e-10
-8.70399e-09
2.87681e-10
-8.98733e-09
2.83342e-10
-9.26589e-09
2.78558e-10
-9.53924e-09
2.73345e-10
-9.80696e-09
2.67718e-10
-1.00686e-08
2.61689e-10
-1.03239e-08
2.5527e-10
-1.05724e-08
2.48474e-10
-1.08137e-08
2.41317e-10
-1.10475e-08
2.33809e-10
-1.12735e-08
2.25964e-10
-1.14913e-08
2.17796e-10
-1.17006e-08
2.09318e-10
-1.19011e-08
2.00543e-10
-1.20926e-08
1.91485e-10
-1.22748e-08
1.82156e-10
-1.24474e-08
1.72571e-10
-1.26101e-08
1.62744e-10
-1.27628e-08
1.52687e-10
-1.29052e-08
1.42416e-10
-1.30371e-08
1.31944e-10
-1.31584e-08
1.21284e-10
-1.32689e-08
1.10449e-10
-1.33683e-08
9.9456e-11
-1.34567e-08
8.83194e-11
-1.35337e-08
7.70529e-11
-1.35994e-08
6.56687e-11
-1.36535e-08
5.41802e-11
-1.36962e-08
4.26038e-11
-1.37271e-08
3.09566e-11
-1.37464e-08
1.9254e-11
-1.37539e-08
7.51048e-12
-1.37496e-08
-4.25954e-12
-1.37336e-08
-1.60413e-11
-1.37058e-08
-2.78194e-11
-1.36662e-08
-3.95783e-11
-1.36149e-08
-5.13024e-11
-1.35519e-08
-6.29748e-11
-1.34773e-08
-7.45783e-11
-1.33912e-08
-8.60968e-11
-1.32937e-08
-9.75153e-11
-1.31849e-08
-1.08818e-10
-1.30649e-08
-1.19988e-10
-1.29339e-08
-1.31008e-10
-1.2792e-08
-1.41861e-10
-1.26395e-08
-1.5253e-10
-1.24765e-08
-1.63e-10
-1.23033e-08
-1.73252e-10
-1.212e-08
-1.8327e-10
-1.1927e-08
-1.93035e-10
-1.17244e-08
-2.02532e-10
-1.15127e-08
-2.11745e-10
-1.1292e-08
-2.20655e-10
-1.10628e-08
-2.29245e-10
-1.08253e-08
-2.37498e-10
-1.05799e-08
-2.45398e-10
-1.0327e-08
-2.52927e-10
-1.00669e-08
-2.60069e-10
-9.80008e-09
-2.6681e-10
-9.52695e-09
-2.73129e-10
-9.24794e-09
-2.79012e-10
-8.96349e-09
-2.84443e-10
-8.67408e-09
-2.89408e-10
-8.38019e-09
-2.9389e-10
-8.08232e-09
-2.97873e-10
-7.78097e-09
-3.01344e-10
-7.47668e-09
-3.04287e-10
-7.16999e-09
-3.0669e-10
-6.86146e-09
-3.08537e-10
-6.55164e-09
-3.09816e-10
-6.24112e-09
-3.10515e-10
-5.9305e-09
-3.10622e-10
-5.62037e-09
-3.10126e-10
-5.31135e-09
-3.09015e-10
-5.00407e-09
-3.0728e-10
-4.69917e-09
-3.0491e-10
-4.39727e-09
-3.01897e-10
-4.09903e-09
-2.98233e-10
-3.80512e-09
-2.93912e-10
-3.51619e-09
-2.88928e-10
-3.23292e-09
-2.83276e-10
-2.95597e-09
-2.76951e-10
-2.68601e-09
-2.69952e-10
-2.42374e-09
-2.62277e-10
-2.16981e-09
-2.53927e-10
-1.9249e-09
-2.44905e-10
-1.68969e-09
-2.35213e-10
-1.46483e-09
-2.24859e-10
-1.25098e-09
-2.13851e-10
-1.04878e-09
-2.022e-10
-8.58858e-10
-1.89921e-10
-6.81824e-10
-1.77034e-10
-5.18263e-10
-1.63561e-10
-3.6873e-10
-1.49532e-10
-2.33748e-10
-1.34982e-10
-1.1379e-10
-1.19957e-10
-9.2767e-12
-1.04513e-10
7.94394e-11
-8.87161e-11
1.52093e-10
-7.26532e-11
2.08525e-10
-5.64317e-11
2.48715e-10
-4.0189e-11
2.72817e-10
-2.41012e-11
2.81214e-10
-8.39736e-12
2.74593e-10
6.62052e-12
2.54046e-10
2.05465e-11
2.21222e-10
3.28241e-11
1.78546e-10
4.26756e-11
1.29532e-10
4.90133e-11
7.91881e-11
5.03446e-11
3.45733e-11
4.46153e-11
5.33772e-12
2.92356e-11
5.33758e-12
3.04181e-11
-3.67292e-11
1.01828e-10
-1.01725e-10
1.96175e-10
-1.39225e-10
2.96469e-10
-1.49855e-10
3.88362e-10
-1.39041e-10
4.60615e-10
-1.1202e-10
5.04765e-10
-7.30894e-11
5.14634e-10
-2.56687e-11
4.85859e-10
2.76492e-11
4.15457e-10
8.49006e-11
3.01536e-10
1.44605e-10
1.43019e-10
2.05624e-10
-6.05044e-11
2.67101e-10
-3.08953e-10
3.28353e-10
-6.01841e-10
3.88853e-10
-9.38369e-10
4.4819e-10
-1.31748e-09
5.06023e-10
-1.73792e-09
5.62106e-10
-2.19828e-09
6.16227e-10
-2.69703e-09
6.68216e-10
-3.23253e-09
7.17961e-10
-3.80306e-09
7.65351e-10
-4.40685e-09
8.10319e-10
-5.04208e-09
8.52809e-10
-5.7069e-09
8.92776e-10
-6.39944e-09
9.30188e-10
-7.11779e-09
9.65044e-10
-7.86009e-09
9.97328e-10
-8.62442e-09
1.02704e-09
-9.40889e-09
1.05421e-09
-1.02116e-08
1.07882e-09
-1.10308e-08
1.10091e-09
-1.18644e-08
1.1205e-09
-1.27108e-08
1.13762e-09
-1.35681e-08
1.1523e-09
-1.44345e-08
1.16457e-09
-1.53083e-08
1.17448e-09
-1.61877e-08
1.18205e-09
-1.7071e-08
1.18733e-09
-1.79566e-08
1.19036e-09
-1.88428e-08
1.19119e-09
-1.97281e-08
1.18985e-09
-2.06107e-08
1.1864e-09
-2.14893e-08
1.18087e-09
-2.23622e-08
1.17333e-09
-2.32281e-08
1.16381e-09
-2.40855e-08
1.15237e-09
-2.4933e-08
1.13905e-09
-2.57692e-08
1.1239e-09
-2.65928e-08
1.10697e-09
-2.74026e-08
1.08832e-09
-2.81972e-08
1.06798e-09
-2.89755e-08
1.04602e-09
-2.97363e-08
1.02249e-09
-3.04785e-08
9.97422e-10
-3.12009e-08
9.70886e-10
-3.19025e-08
9.42926e-10
-3.25823e-08
9.13594e-10
-3.32393e-08
8.82942e-10
-3.38725e-08
8.51023e-10
-3.44811e-08
8.17888e-10
-3.50641e-08
7.83591e-10
-3.56208e-08
7.48184e-10
-3.61504e-08
7.11721e-10
-3.6652e-08
6.74253e-10
-3.71251e-08
6.35833e-10
-3.7569e-08
5.96516e-10
-3.79829e-08
5.56357e-10
-3.83664e-08
5.15411e-10
-3.87188e-08
4.73731e-10
-3.90397e-08
4.31369e-10
-3.93286e-08
3.88384e-10
-3.95852e-08
3.44834e-10
-3.98089e-08
3.00774e-10
-3.99995e-08
2.56261e-10
-4.01567e-08
2.11353e-10
-4.02802e-08
1.66106e-10
-4.03698e-08
1.20577e-10
-4.04253e-08
7.48265e-11
-4.04467e-08
2.89139e-11
-4.04339e-08
-1.70987e-11
-4.03868e-08
-6.31505e-11
-4.03054e-08
-1.09182e-10
-4.01899e-08
-1.55133e-10
-4.00403e-08
-2.00941e-10
-3.98567e-08
-2.46545e-10
-3.96394e-08
-2.91879e-10
-3.93886e-08
-3.3688e-10
-3.91046e-08
-3.81485e-10
-3.87878e-08
-4.2563e-10
-3.84386e-08
-4.6925e-10
-3.80573e-08
-5.12279e-10
-3.76445e-08
-5.54651e-10
-3.72007e-08
-5.96303e-10
-3.67266e-08
-6.37168e-10
-3.62226e-08
-6.77179e-10
-3.56896e-08
-7.16269e-10
-3.51283e-08
-7.54372e-10
-3.45394e-08
-7.91421e-10
-3.39238e-08
-8.27351e-10
-3.32824e-08
-8.62095e-10
-3.2616e-08
-8.95587e-10
-3.19258e-08
-9.27761e-10
-3.12126e-08
-9.5855e-10
-3.04777e-08
-9.87892e-10
-2.9722e-08
-1.01572e-09
-2.89468e-08
-1.04197e-09
-2.81534e-08
-1.06658e-09
-2.73429e-08
-1.08949e-09
-2.65167e-08
-1.11063e-09
-2.56762e-08
-1.12995e-09
-2.48227e-08
-1.14738e-09
-2.39577e-08
-1.16287e-09
-2.30827e-08
-1.17636e-09
-2.21992e-08
-1.1878e-09
-2.13087e-08
-1.19713e-09
-2.04129e-08
-1.20431e-09
-1.95135e-08
-1.20927e-09
-1.8612e-08
-1.21198e-09
-1.77103e-08
-1.21238e-09
-1.68099e-08
-1.21045e-09
-1.59128e-08
-1.20612e-09
-1.50207e-08
-1.19938e-09
-1.41355e-08
-1.19018e-09
-1.32589e-08
-1.17849e-09
-1.23928e-08
-1.16429e-09
-1.15392e-08
-1.14755e-09
-1.06999e-08
-1.12825e-09
-9.87676e-09
-1.10637e-09
-9.0718e-09
-1.08191e-09
-8.28689e-09
-1.05486e-09
-7.52395e-09
-1.02522e-09
-6.78488e-09
-9.93e-10
-6.07158e-09
-9.58209e-10
-5.38592e-09
-9.20872e-10
-4.72976e-09
-8.81021e-10
-4.10491e-09
-8.38698e-10
-3.51315e-09
-7.93958e-10
-2.9562e-09
-7.46869e-10
-2.43572e-09
-6.97516e-10
-1.95327e-09
-6.46004e-10
-1.51034e-09
-5.92462e-10
-1.10827e-09
-5.37047e-10
-7.48275e-10
-4.79952e-10
-4.31375e-10
-4.21412e-10
-1.58376e-10
-3.61715e-10
7.01891e-11
-3.01217e-10
2.54122e-10
-2.40363e-10
3.93639e-10
-1.79705e-10
4.8948e-10
-1.19942e-10
5.43042e-10
-6.19601e-11
5.56562e-10
-6.89856e-12
5.33341e-10
4.37684e-11
4.78051e-10
8.81152e-11
3.9711e-10
1.23618e-10
2.99123e-10
1.47e-10
1.95334e-10
1.54133e-10
9.98734e-11
1.40075e-10
2.92023e-11
9.99058e-11
3.45415e-11
4.50031e-11
-8.17374e-11
1.3946e-10
-1.9619e-10
2.56781e-10
-2.56543e-10
3.75296e-10
-2.68384e-10
4.76725e-10
-2.40476e-10
5.46165e-10
-1.8146e-10
5.71915e-10
-9.88417e-11
5.45047e-10
1.19831e-12
4.58952e-10
1.13739e-10
3.08928e-10
2.34924e-10
9.18048e-11
3.61717e-10
-1.94335e-10
4.91769e-10
-5.50427e-10
6.23194e-10
-9.766e-10
7.54528e-10
-1.47233e-09
8.84591e-10
-2.03659e-09
1.01244e-09
-2.66791e-09
1.13734e-09
-3.36447e-09
1.25868e-09
-4.12422e-09
1.37597e-09
-4.94483e-09
1.48884e-09
-5.82384e-09
1.59697e-09
-6.7586e-09
1.70012e-09
-7.74638e-09
1.79811e-09
-8.78436e-09
1.89079e-09
-9.86964e-09
1.97805e-09
-1.09993e-08
2.05983e-09
-1.21703e-08
2.13606e-09
-1.33797e-08
2.20673e-09
-1.46245e-08
2.27182e-09
-1.59016e-08
2.33135e-09
-1.72081e-08
2.38534e-09
-1.8541e-08
2.43381e-09
-1.98974e-08
2.47683e-09
-2.12742e-08
2.51443e-09
-2.26686e-08
2.54669e-09
-2.40777e-08
2.57367e-09
-2.54986e-08
2.59545e-09
-2.69287e-08
2.61211e-09
-2.83651e-08
2.62373e-09
-2.98051e-08
2.6304e-09
-3.12462e-08
2.63221e-09
-3.26856e-08
2.62926e-09
-3.41208e-08
2.62164e-09
-3.55494e-08
2.60946e-09
-3.69689e-08
2.59282e-09
-3.83769e-08
2.57182e-09
-3.97711e-08
2.54656e-09
-4.11492e-08
2.51716e-09
-4.2509e-08
2.48372e-09
-4.38484e-08
2.44635e-09
-4.51652e-08
2.40515e-09
-4.64575e-08
2.36024e-09
-4.77232e-08
2.31173e-09
-4.89605e-08
2.25974e-09
-5.01674e-08
2.20437e-09
-5.13423e-08
2.14573e-09
-5.24833e-08
2.08394e-09
-5.35888e-08
2.01912e-09
-5.46572e-08
1.95137e-09
-5.5687e-08
1.88082e-09
-5.66767e-08
1.80758e-09
-5.76249e-08
1.73176e-09
-5.85302e-08
1.65348e-09
-5.93913e-08
1.57287e-09
-6.02071e-08
1.49003e-09
-6.09763e-08
1.40508e-09
-6.1698e-08
1.31815e-09
-6.2371e-08
1.22936e-09
-6.29944e-08
1.13882e-09
-6.35673e-08
1.04665e-09
-6.40889e-08
9.52993e-10
-6.45585e-08
8.57953e-10
-6.49753e-08
7.6166e-10
-6.53388e-08
6.64239e-10
-6.56483e-08
5.65816e-10
-6.59035e-08
4.66521e-10
-6.61039e-08
3.66483e-10
-6.62491e-08
2.6583e-10
-6.6339e-08
1.64691e-10
-6.63733e-08
6.31976e-11
-6.63519e-08
-3.85156e-11
-6.62747e-08
-1.40314e-10
-6.61418e-08
-2.42062e-10
-6.59533e-08
-3.43625e-10
-6.57094e-08
-4.44866e-10
-6.54103e-08
-5.45645e-10
-6.50564e-08
-6.45823e-10
-6.4648e-08
-7.4526e-10
-6.41857e-08
-8.43814e-10
-6.36699e-08
-9.41344e-10
-6.31015e-08
-1.03771e-09
-6.2481e-08
-1.13276e-09
-6.18093e-08
-1.22635e-09
-6.10873e-08
-1.31834e-09
-6.03159e-08
-1.40858e-09
-5.94961e-08
-1.49693e-09
-5.86291e-08
-1.58324e-09
-5.77162e-08
-1.66736e-09
-5.67584e-08
-1.74915e-09
-5.57573e-08
-1.82845e-09
-5.47143e-08
-1.90514e-09
-5.36308e-08
-1.97904e-09
-5.25086e-08
-2.05004e-09
-5.13491e-08
-2.11797e-09
-5.01543e-08
-2.18269e-09
-4.8926e-08
-2.24407e-09
-4.7666e-08
-2.30197e-09
-4.63763e-08
-2.35624e-09
-4.50591e-08
-2.40674e-09
-4.37163e-08
-2.45336e-09
-4.23503e-08
-2.49594e-09
-4.09634e-08
-2.53437e-09
-3.95577e-08
-2.56851e-09
-3.81358e-08
-2.59824e-09
-3.67002e-08
-2.62345e-09
-3.52533e-08
-2.64401e-09
-3.37978e-08
-2.65982e-09
-3.23363e-08
-2.67077e-09
-3.08715e-08
-2.67675e-09
-2.94062e-08
-2.67767e-09
-2.79433e-08
-2.67344e-09
-2.64854e-08
-2.66397e-09
-2.50356e-08
-2.64918e-09
-2.35968e-08
-2.629e-09
-2.21719e-08
-2.60337e-09
-2.0764e-08
-2.57222e-09
-1.9376e-08
-2.53552e-09
-1.80111e-08
-2.49322e-09
-1.66721e-08
-2.44529e-09
-1.53623e-08
-2.39172e-09
-1.40847e-08
-2.33251e-09
-1.28422e-08
-2.26766e-09
-1.1638e-08
-2.1972e-09
-1.04751e-08
-2.12116e-09
-9.35635e-09
-2.03961e-09
-8.28473e-09
-1.95264e-09
-7.26309e-09
-1.86034e-09
-6.2942e-09
-1.76285e-09
-5.38073e-09
-1.66034e-09
-4.52523e-09
-1.55301e-09
-3.73011e-09
-1.44112e-09
-2.9976e-09
-1.32497e-09
-2.32971e-09
-1.20493e-09
-1.72822e-09
-1.08145e-09
-1.19457e-09
-9.5506e-10
-7.2985e-10
-8.26435e-10
-3.34689e-10
-6.96377e-10
-9.17244e-12
-5.65878e-10
2.47283e-10
-4.3616e-10
4.36082e-10
-3.0874e-10
5.59632e-10
-1.85511e-10
6.2158e-10
-6.88477e-11
6.27093e-10
3.82546e-11
5.83193e-10
1.32015e-10
4.99138e-10
2.07673e-10
3.8682e-10
2.59318e-10
2.61113e-10
2.79839e-10
1.40029e-10
2.61159e-10
4.45593e-11
1.95376e-10
7.91016e-11
4.96573e-11
-1.31397e-10
1.50153e-10
-2.96687e-10
2.6888e-10
-3.75273e-10
3.80615e-10
-3.80106e-10
4.6448e-10
-3.24355e-10
5.03427e-10
-2.20398e-10
4.83713e-10
-7.91278e-11
3.94589e-10
9.03232e-11
2.27856e-10
2.80481e-10
-2.25192e-11
4.85295e-10
-3.60725e-10
6.99933e-10
-7.89458e-10
9.20495e-10
-1.31014e-09
1.14387e-09
-1.92316e-09
1.36755e-09
-2.62808e-09
1.5895e-09
-3.42371e-09
1.80808e-09
-4.30834e-09
2.02196e-09
-5.27973e-09
2.23007e-09
-6.33529e-09
2.43153e-09
-7.47208e-09
2.62563e-09
-8.68694e-09
2.81181e-09
-9.97643e-09
2.98962e-09
-1.1337e-08
3.15869e-09
-1.2765e-08
3.31874e-09
-1.42565e-08
3.46957e-09
-1.58077e-08
3.61102e-09
-1.74146e-08
3.74298e-09
-1.90733e-08
3.86538e-09
-2.07796e-08
3.9782e-09
-2.25297e-08
4.08142e-09
-2.43194e-08
4.17507e-09
-2.61448e-08
4.2592e-09
-2.80019e-08
4.33388e-09
-2.98866e-08
4.39919e-09
-3.17952e-08
4.45523e-09
-3.37236e-08
4.50211e-09
-3.56681e-08
4.53994e-09
-3.76249e-08
4.56887e-09
-3.95902e-08
4.58904e-09
-4.15604e-08
4.60059e-09
-4.35318e-08
4.60367e-09
-4.5501e-08
4.59845e-09
-4.74645e-08
4.5851e-09
-4.94188e-08
4.56378e-09
-5.13607e-08
4.53467e-09
-5.32868e-08
4.49795e-09
-5.5194e-08
4.45379e-09
-5.70793e-08
4.40239e-09
-5.89395e-08
4.34392e-09
-6.07717e-08
4.27858e-09
-6.25731e-08
4.20656e-09
-6.43409e-08
4.12803e-09
-6.60724e-08
4.04321e-09
-6.77649e-08
3.95228e-09
-6.9416e-08
3.85545e-09
-7.10232e-08
3.75289e-09
-7.2584e-08
3.64482e-09
-7.40964e-08
3.53144e-09
-7.55579e-08
3.41293e-09
-7.69666e-08
3.28952e-09
-7.83204e-08
3.16139e-09
-7.96174e-08
3.02874e-09
-8.08557e-08
2.8918e-09
-8.20336e-08
2.75075e-09
-8.31494e-08
2.60581e-09
-8.42015e-08
2.45719e-09
-8.51884e-08
2.30509e-09
-8.61088e-08
2.14973e-09
-8.69613e-08
1.99131e-09
-8.77447e-08
1.83005e-09
-8.84579e-08
1.66617e-09
-8.90998e-08
1.49988e-09
-8.96695e-08
1.3314e-09
-9.01662e-08
1.16095e-09
-9.05892e-08
9.88752e-10
-9.09377e-08
8.15028e-10
-9.12112e-08
6.40007e-10
-9.14093e-08
4.63916e-10
-9.15316e-08
2.86982e-10
-9.15778e-08
1.09437e-10
-9.15479e-08
-6.84847e-11
-9.14416e-08
-2.46549e-10
-9.12592e-08
-4.2452e-10
-9.10006e-08
-6.02159e-10
-9.06663e-08
-7.79223e-10
-9.02565e-08
-9.55471e-10
-8.97716e-08
-1.13066e-09
-8.92123e-08
-1.30454e-09
-8.85793e-08
-1.47686e-09
-8.78732e-08
-1.64739e-09
-8.70951e-08
-1.81586e-09
-8.62458e-08
-1.98202e-09
-8.53265e-08
-2.14563e-09
-8.43385e-08
-2.30642e-09
-8.32829e-08
-2.46415e-09
-8.21613e-08
-2.61856e-09
-8.09751e-08
-2.76938e-09
-7.97261e-08
-2.91638e-09
-7.8416e-08
-3.05928e-09
-7.70466e-08
-3.19784e-09
-7.56199e-08
-3.33179e-09
-7.41381e-08
-3.4609e-09
-7.26032e-08
-3.5849e-09
-7.10176e-08
-3.70354e-09
-6.93838e-08
-3.81658e-09
-6.77041e-08
-3.92377e-09
-6.59812e-08
-4.02486e-09
-6.42178e-08
-4.11961e-09
-6.24167e-08
-4.2078e-09
-6.05809e-08
-4.28917e-09
-5.87134e-08
-4.36351e-09
-5.68171e-08
-4.43059e-09
-5.48954e-08
-4.4902e-09
-5.29516e-08
-4.54211e-09
-5.09889e-08
-4.58613e-09
-4.90108e-08
-4.62206e-09
-4.7021e-08
-4.64969e-09
-4.50229e-08
-4.66886e-09
-4.30202e-08
-4.67938e-09
-4.10168e-08
-4.68109e-09
-3.90164e-08
-4.67383e-09
-3.70229e-08
-4.65746e-09
-3.50403e-08
-4.63185e-09
-3.30724e-08
-4.59688e-09
-3.11233e-08
-4.55244e-09
-2.91971e-08
-4.49845e-09
-2.72978e-08
-4.43481e-09
-2.54295e-08
-4.36148e-09
-2.35964e-08
-4.27841e-09
-2.18025e-08
-4.1856e-09
-2.0052e-08
-4.08303e-09
-1.83489e-08
-3.97074e-09
-1.66973e-08
-3.84879e-09
-1.51012e-08
-3.71726e-09
-1.35646e-08
-3.57627e-09
-1.20912e-08
-3.42599e-09
-1.06849e-08
-3.26662e-09
-9.34938e-09
-3.0984e-09
-8.08805e-09
-2.92167e-09
-6.90426e-09
-2.7368e-09
-5.80114e-09
-2.54425e-09
-4.78152e-09
-2.34459e-09
-3.84797e-09
-2.13848e-09
-3.00268e-09
-1.92674e-09
-2.24741e-09
-1.71033e-09
-1.58341e-09
-1.49043e-09
-1.01132e-09
-1.26847e-09
-5.31039e-10
-1.04616e-09
-1.416e-10
-8.25598e-10
1.59018e-10
-6.09359e-10
3.74099e-10
-4.00592e-10
5.08431e-10
-2.03179e-10
5.68592e-10
-2.19061e-11
5.63274e-10
1.37334e-10
5.03622e-10
2.67325e-10
4.03592e-10
3.59349e-10
2.80291e-10
4.0314e-10
1.54319e-10
3.87131e-10
5.03387e-11
2.99358e-10
1.29441e-10
4.72896e-11
-1.78684e-10
1.39682e-10
-3.89076e-10
2.41792e-10
-4.77389e-10
3.26211e-10
-4.64525e-10
3.70534e-10
-3.68682e-10
3.56397e-10
-2.06263e-10
2.68876e-10
8.38605e-12
9.60906e-11
2.6311e-10
-1.71219e-10
5.47781e-10
-5.39987e-10
8.54066e-10
-1.01518e-09
1.17513e-09
-1.60009e-09
1.5054e-09
-2.29655e-09
1.84034e-09
-3.1052e-09
2.1762e-09
-4.02567e-09
2.50997e-09
-5.05674e-09
2.83915e-09
-6.19647e-09
3.16169e-09
-7.44232e-09
3.47593e-09
-8.79128e-09
3.78049e-09
-1.02399e-08
4.07426e-09
-1.17844e-08
4.35633e-09
-1.34208e-08
4.62596e-09
-1.51447e-08
4.88258e-09
-1.69516e-08
5.12571e-09
-1.8837e-08
5.35499e-09
-2.07962e-08
5.57015e-09
-2.28242e-08
5.771e-09
-2.49162e-08
5.95741e-09
-2.70673e-08
6.1293e-09
-2.92725e-08
6.28665e-09
-3.15269e-08
6.42947e-09
-3.38256e-08
6.55782e-09
-3.61634e-08
6.67177e-09
-3.85357e-08
6.77144e-09
-4.09374e-08
6.85697e-09
-4.33638e-08
6.92851e-09
-4.58101e-08
6.98623e-09
-4.82716e-08
7.03034e-09
-5.07436e-08
7.06103e-09
-5.32215e-08
7.07853e-09
-5.57009e-08
7.08306e-09
-5.81773e-08
7.07486e-09
-6.06464e-08
7.05419e-09
-6.31039e-08
7.02129e-09
-6.55457e-08
6.97644e-09
-6.79676e-08
6.91989e-09
-7.03657e-08
6.85192e-09
-7.27362e-08
6.77282e-09
-7.50751e-08
6.68286e-09
-7.73789e-08
6.58233e-09
-7.96438e-08
6.47151e-09
-8.18665e-08
6.35071e-09
-8.40435e-08
6.22021e-09
-8.61715e-08
6.08031e-09
-8.82474e-08
5.93132e-09
-9.0268e-08
5.77353e-09
-9.22305e-08
5.60725e-09
-9.41318e-08
5.43279e-09
-9.59693e-08
5.25044e-09
-9.77403e-08
5.06053e-09
-9.94423e-08
4.86336e-09
-1.01073e-07
4.65924e-09
-1.0263e-07
4.4485e-09
-1.0411e-07
4.23144e-09
-1.05513e-07
4.00839e-09
-1.06835e-07
3.77966e-09
-1.08076e-07
3.54559e-09
-1.09233e-07
3.30649e-09
-1.10304e-07
3.06269e-09
-1.11288e-07
2.81452e-09
-1.12185e-07
2.56232e-09
-1.12991e-07
2.30641e-09
-1.13707e-07
2.04713e-09
-1.14331e-07
1.78483e-09
-1.14862e-07
1.51984e-09
-1.15299e-07
1.25252e-09
-1.15642e-07
9.83197e-10
-1.15891e-07
7.12237e-10
-1.16044e-07
4.39991e-10
-1.16101e-07
1.66814e-10
-1.16063e-07
-1.06933e-10
-1.15928e-07
-3.80888e-10
-1.15698e-07
-6.54689e-10
-1.15372e-07
-9.27966e-10
-1.14951e-07
-1.20035e-09
-1.14435e-07
-1.47146e-09
-1.13825e-07
-1.74092e-09
-1.13121e-07
-2.00837e-09
-1.12325e-07
-2.27341e-09
-1.11436e-07
-2.53566e-09
-1.10457e-07
-2.79473e-09
-1.09389e-07
-3.05025e-09
-1.08233e-07
-3.30182e-09
-1.0699e-07
-3.54905e-09
-1.05663e-07
-3.79154e-09
-1.04253e-07
-4.02892e-09
-1.02761e-07
-4.26078e-09
-1.01191e-07
-4.48673e-09
-9.95438e-08
-4.70637e-09
-9.78224e-08
-4.91933e-09
-9.60289e-08
-5.12521e-09
-9.41662e-08
-5.32361e-09
-9.2237e-08
-5.51416e-09
-9.02441e-08
-5.69646e-09
-8.81905e-08
-5.87014e-09
-8.60794e-08
-6.03483e-09
-8.39141e-08
-6.19014e-09
-8.1698e-08
-6.33572e-09
-7.94346e-08
-6.4712e-09
-7.71276e-08
-6.59622e-09
-7.47807e-08
-6.71043e-09
-7.23978e-08
-6.81351e-09
-6.99828e-08
-6.9051e-09
-6.75401e-08
-6.9849e-09
-6.50736e-08
-7.05259e-09
-6.25878e-08
-7.10786e-09
-6.00871e-08
-7.15043e-09
-5.75759e-08
-7.18002e-09
-5.50589e-08
-7.19637e-09
-5.25407e-08
-7.19924e-09
-5.00262e-08
-7.18838e-09
-4.75201e-08
-7.16359e-09
-4.50272e-08
-7.12466e-09
-4.25527e-08
-7.07144e-09
-4.01014e-08
-7.00375e-09
-3.76784e-08
-6.92148e-09
-3.52887e-08
-6.82451e-09
-3.29374e-08
-6.71277e-09
-3.06296e-08
-6.58621e-09
-2.83704e-08
-6.44481e-09
-2.61648e-08
-6.28861e-09
-2.40179e-08
-6.11765e-09
-2.19346e-08
-5.93205e-09
-1.99199e-08
-5.73195e-09
-1.79786e-08
-5.51757e-09
-1.61155e-08
-5.28917e-09
-1.4335e-08
-5.04709e-09
-1.26416e-08
-4.79176e-09
-1.10396e-08
-4.52368e-09
-9.53296e-09
-4.24347e-09
-8.12533e-09
-3.95188e-09
-6.82012e-09
-3.6498e-09
-5.62031e-09
-3.33828e-09
-4.52845e-09
-3.0186e-09
-3.54653e-09
-2.69226e-09
-2.67588e-09
-2.36108e-09
-1.91713e-09
-2.02722e-09
-1.27e-09
-1.69329e-09
-7.33165e-10
-1.36243e-09
-3.04101e-10
-1.03842e-09
2.11589e-11
-7.25853e-10
2.4825e-10
-4.3027e-10
3.84744e-10
-1.58399e-10
4.40442e-10
8.16357e-11
4.27686e-10
2.8008e-10
3.61695e-10
4.2534e-10
2.60958e-10
5.03876e-10
1.47762e-10
5.00329e-10
4.91608e-11
3.97959e-10
1.78602e-10
4.00999e-11
-2.18792e-10
1.13401e-10
-4.62385e-10
1.84314e-10
-5.48294e-10
2.24673e-10
-5.04883e-10
2.11428e-10
-3.55438e-10
1.25616e-10
-1.20456e-10
-4.82541e-11
1.82262e-10
-3.22693e-10
5.3755e-10
-7.07543e-10
9.32635e-10
-1.21032e-09
1.35684e-09
-1.83648e-09
1.80129e-09
-2.58971e-09
2.25864e-09
-3.47217e-09
2.72279e-09
-4.48466e-09
3.1887e-09
-5.62688e-09
3.6522e-09
-6.89756e-09
4.10983e-09
-8.2946e-09
4.55874e-09
-9.81522e-09
4.99655e-09
-1.1456e-08
5.42131e-09
-1.32132e-08
5.83142e-09
-1.50824e-08
6.22555e-09
-1.70591e-08
6.60261e-09
-1.91382e-08
6.96174e-09
-2.13148e-08
7.30224e-09
-2.35833e-08
7.62356e-09
-2.59385e-08
7.92527e-09
-2.83745e-08
8.20707e-09
-3.08858e-08
8.46873e-09
-3.34666e-08
8.71011e-09
-3.61111e-08
8.93115e-09
-3.88135e-08
9.13185e-09
-4.1568e-08
9.31225e-09
-4.43686e-08
9.47244e-09
-4.72098e-08
9.61257e-09
-5.00856e-08
9.73281e-09
-5.29905e-08
9.83335e-09
-5.59186e-08
9.91443e-09
-5.88646e-08
9.97631e-09
-6.18229e-08
1.00193e-08
-6.47879e-08
1.00436e-08
-6.77545e-08
1.00496e-08
-7.07172e-08
1.00376e-08
-7.36711e-08
1.0008e-08
-7.66109e-08
9.96113e-09
-7.95318e-08
9.89731e-09
-8.24288e-08
9.81694e-09
-8.52973e-08
9.7204e-09
-8.81326e-08
9.60807e-09
-9.09301e-08
9.48037e-09
-9.36855e-08
9.33769e-09
-9.63944e-08
9.18043e-09
-9.90527e-08
9.009e-09
-1.01656e-07
8.82383e-09
-1.04201e-07
8.62533e-09
-1.06684e-07
8.41392e-09
-1.091e-07
8.19003e-09
-1.11447e-07
7.95409e-09
-1.13721e-07
7.70654e-09
-1.15918e-07
7.44781e-09
-1.18036e-07
7.17833e-09
-1.20071e-07
6.89855e-09
-1.22021e-07
6.60892e-09
-1.23882e-07
6.30987e-09
-1.25653e-07
6.00187e-09
-1.2733e-07
5.68536e-09
-1.28911e-07
5.3608e-09
-1.30394e-07
5.02865e-09
-1.31777e-07
4.68936e-09
-1.33058e-07
4.34341e-09
-1.34234e-07
3.99127e-09
-1.35305e-07
3.6334e-09
-1.36269e-07
3.27027e-09
-1.37125e-07
2.90238e-09
-1.3787e-07
2.5302e-09
-1.38504e-07
2.15422e-09
-1.39027e-07
1.77492e-09
-1.39436e-07
1.39281e-09
-1.39732e-07
1.00839e-09
-1.39915e-07
6.22144e-10
-1.39982e-07
2.34596e-10
-1.39936e-07
-1.5375e-10
-1.39774e-07
-5.42378e-10
-1.39498e-07
-9.30769e-10
-1.39108e-07
-1.3184e-09
-1.38603e-07
-1.70475e-09
-1.37985e-07
-2.08928e-09
-1.37255e-07
-2.47146e-09
-1.36412e-07
-2.85075e-09
-1.35459e-07
-3.22661e-09
-1.34396e-07
-3.5985e-09
-1.33225e-07
-3.96587e-09
-1.31947e-07
-4.32817e-09
-1.30564e-07
-4.68486e-09
-1.29078e-07
-5.03538e-09
-1.2749e-07
-5.37916e-09
-1.25804e-07
-5.71567e-09
-1.2402e-07
-6.04434e-09
-1.22142e-07
-6.36462e-09
-1.20173e-07
-6.67595e-09
-1.18114e-07
-6.97779e-09
-1.1597e-07
-7.26957e-09
-1.13743e-07
-7.55075e-09
-1.11436e-07
-7.82078e-09
-1.09053e-07
-8.07913e-09
-1.06598e-07
-8.32525e-09
-1.04074e-07
-8.55862e-09
-1.01486e-07
-8.77871e-09
-9.88365e-08
-8.985e-09
-9.61307e-08
-9.17699e-09
-9.33728e-08
-9.35417e-09
-9.05672e-08
-9.51605e-09
-8.77185e-08
-9.66216e-09
-8.48316e-08
-9.79204e-09
-8.19113e-08
-9.90523e-09
-7.89626e-08
-1.00013e-08
-7.59906e-08
-1.00798e-08
-7.30007e-08
-1.01404e-08
-6.99981e-08
-1.01826e-08
-6.69884e-08
-1.02061e-08
-6.3977e-08
-1.02106e-08
-6.09696e-08
-1.01958e-08
-5.7972e-08
-1.01612e-08
-5.49898e-08
-1.01068e-08
-5.20291e-08
-1.00322e-08
-4.90955e-08
-9.93727e-09
-4.61952e-08
-9.82179e-09
-4.33341e-08
-9.68566e-09
-4.05181e-08
-9.52877e-09
-3.77532e-08
-9.35107e-09
-3.50455e-08
-9.15256e-09
-3.24008e-08
-8.9333e-09
-2.9825e-08
-8.69339e-09
-2.73241e-08
-8.43301e-09
-2.49036e-08
-8.15239e-09
-2.25693e-08
-7.85186e-09
-2.03267e-08
-7.53182e-09
-1.8181e-08
-7.1928e-09
-1.61373e-08
-6.83542e-09
-1.42006e-08
-6.46043e-09
-1.23753e-08
-6.06874e-09
-1.06657e-08
-5.66145e-09
-9.07569e-09
-5.23983e-09
-7.60854e-09
-4.80543e-09
-6.26709e-09
-4.36004e-09
-5.05352e-09
-3.90583e-09
-3.96926e-09
-3.44534e-09
-3.01488e-09
-2.9816e-09
-2.18997e-09
-2.5182e-09
-1.49295e-09
-2.05945e-09
-9.20918e-10
-1.61046e-09
-4.69424e-10
-1.17735e-09
-1.32267e-10
-7.67427e-10
9.87561e-11
-3.89422e-10
2.34116e-10
-5.37245e-11
2.86836e-10
2.2736e-10
2.7282e-10
4.39356e-10
2.11282e-10
5.65415e-10
1.25349e-10
5.86262e-10
4.30946e-11
4.80214e-10
2.21698e-10
2.96119e-11
-2.48401e-10
7.55959e-11
-5.08371e-10
1.03856e-10
-5.76555e-10
8.66956e-11
-4.87722e-10
1.22521e-12
-2.69962e-10
-1.71514e-10
5.22857e-11
-4.47125e-10
4.57872e-10
-8.38273e-10
9.28702e-10
-1.35505e-09
1.44941e-09
-2.00522e-09
2.00701e-09
-2.79451e-09
2.59058e-09
-3.72681e-09
3.19094e-09
-4.80443e-09
3.80041e-09
-6.02829e-09
4.41256e-09
-7.3981e-09
5.022e-09
-8.91252e-09
5.62425e-09
-1.05693e-08
6.21552e-09
-1.23654e-08
6.79268e-09
-1.42972e-08
7.35311e-09
-1.63605e-08
7.89465e-09
-1.85504e-08
8.41548e-09
-2.08619e-08
8.91413e-09
-2.32896e-08
9.38938e-09
-2.58276e-08
9.84026e-09
-2.847e-08
1.0266e-08
-3.12107e-08
1.06659e-08
-3.40433e-08
1.10397e-08
-3.69614e-08
1.13868e-08
-3.99585e-08
1.17072e-08
-4.3028e-08
1.20007e-08
-4.61634e-08
1.22672e-08
-4.9358e-08
1.25068e-08
-5.26051e-08
1.27196e-08
-5.58983e-08
1.29057e-08
-5.92309e-08
1.30654e-08
-6.25963e-08
1.31988e-08
-6.59883e-08
1.33064e-08
-6.94003e-08
1.33883e-08
-7.2826e-08
1.3445e-08
-7.62592e-08
1.34768e-08
-7.96938e-08
1.34842e-08
-8.31238e-08
1.34676e-08
-8.65431e-08
1.34273e-08
-8.9946e-08
1.3364e-08
-9.33267e-08
1.3278e-08
-9.66796e-08
1.31699e-08
-9.99994e-08
1.30401e-08
-1.03281e-07
1.28892e-08
-1.06518e-07
1.27177e-08
-1.09706e-07
1.25262e-08
-1.12841e-07
1.23151e-08
-1.15917e-07
1.2085e-08
-1.1893e-07
1.18365e-08
-1.21874e-07
1.15701e-08
-1.24747e-07
1.12864e-08
-1.27543e-07
1.09859e-08
-1.30258e-07
1.06693e-08
-1.32889e-07
1.03372e-08
-1.35431e-07
9.98999e-09
-1.37881e-07
9.6284e-09
-1.40235e-07
9.25299e-09
-1.42491e-07
8.86436e-09
-1.44644e-07
8.4631e-09
-1.46692e-07
8.04982e-09
-1.48632e-07
7.62513e-09
-1.5046e-07
7.18964e-09
-1.52176e-07
6.74396e-09
-1.53775e-07
6.28872e-09
-1.55256e-07
5.82454e-09
-1.56617e-07
5.35205e-09
-1.57856e-07
4.87189e-09
-1.5897e-07
4.38469e-09
-1.59959e-07
3.89109e-09
-1.6082e-07
3.39176e-09
-1.61553e-07
2.88733e-09
-1.62157e-07
2.37848e-09
-1.6263e-07
1.86586e-09
-1.62972e-07
1.35014e-09
-1.63182e-07
8.32007e-10
-1.63259e-07
3.12134e-10
-1.63204e-07
-2.0879e-10
-1.63016e-07
-7.30076e-10
-1.62696e-07
-1.25103e-09
-1.62244e-07
-1.77094e-09
-1.61659e-07
-2.28911e-09
-1.60944e-07
-2.80482e-09
-1.60098e-07
-3.31735e-09
-1.59123e-07
-3.826e-09
-1.58019e-07
-4.33002e-09
-1.56789e-07
-4.8287e-09
-1.55433e-07
-5.32129e-09
-1.53955e-07
-5.80707e-09
-1.52354e-07
-6.2853e-09
-1.50634e-07
-6.75522e-09
-1.48797e-07
-7.21612e-09
-1.46846e-07
-7.66723e-09
-1.44782e-07
-8.10781e-09
-1.4261e-07
-8.53714e-09
-1.40331e-07
-8.95445e-09
-1.3795e-07
-9.35902e-09
-1.3547e-07
-9.7501e-09
-1.32893e-07
-1.0127e-08
-1.30225e-07
-1.04889e-08
-1.27469e-07
-1.08351e-08
-1.2463e-07
-1.1165e-08
-1.2171e-07
-1.14778e-08
-1.18716e-07
-1.17728e-08
-1.15652e-07
-1.20493e-08
-1.12522e-07
-1.23066e-08
-1.09332e-07
-1.25441e-08
-1.06087e-07
-1.27612e-08
-1.02792e-07
-1.29572e-08
-9.9453e-08
-1.31314e-08
-9.60749e-08
-1.32833e-08
-9.26638e-08
-1.34123e-08
-8.92257e-08
-1.35179e-08
-8.57666e-08
-1.35995e-08
-8.22926e-08
-1.36566e-08
-7.88099e-08
-1.36888e-08
-7.53251e-08
-1.36955e-08
-7.18444e-08
-1.36764e-08
-6.83745e-08
-1.36311e-08
-6.49221e-08
-1.35593e-08
-6.14937e-08
-1.34606e-08
-5.80962e-08
-1.33348e-08
-5.47363e-08
-1.31817e-08
-5.14208e-08
-1.30011e-08
-4.81566e-08
-1.2793e-08
-4.49505e-08
-1.25572e-08
-4.18093e-08
-1.22938e-08
-3.87397e-08
-1.20029e-08
-3.57484e-08
-1.16846e-08
-3.28421e-08
-1.13393e-08
-3.00272e-08
-1.09673e-08
-2.73101e-08
-1.0569e-08
-2.46969e-08
-1.0145e-08
-2.21936e-08
-9.69608e-09
-1.98059e-08
-9.22307e-09
-1.75394e-08
-8.72703e-09
-1.53989e-08
-8.2092e-09
-1.33892e-08
-7.67109e-09
-1.15146e-08
-7.11444e-09
-9.77874e-09
-6.54132e-09
-8.18462e-09
-5.95416e-09
-6.73462e-09
-5.35583e-09
-5.43025e-09
-4.7497e-09
-4.27211e-09
-4.13974e-09
-3.25968e-09
-3.53063e-09
-2.39124e-09
-2.92789e-09
-1.66364e-09
-2.33806e-09
-1.07217e-09
-1.76882e-09
-6.1029e-10
-1.2293e-09
-2.69481e-10
-7.30231e-10
-3.89592e-11
-2.84246e-10
9.45688e-11
9.38315e-11
1.47226e-10
3.867e-10
1.38378e-10
5.74264e-10
9.12164e-11
6.33425e-10
3.36366e-11
5.37795e-10
2.55336e-10
1.68937e-11
-2.65303e-10
2.95488e-11
-5.21016e-10
6.38376e-12
-5.53399e-10
-7.89061e-11
-4.0243e-10
-2.48389e-10
-1.0048e-10
-5.20495e-10
3.2439e-10
-9.10503e-10
8.47876e-10
-1.4309e-09
1.4491e-09
-2.09171e-09
2.11021e-09
-2.90067e-09
2.81598e-09
-3.86355e-09
3.55346e-09
-4.98429e-09
4.31167e-09
-6.26521e-09
5.08133e-09
-7.70723e-09
5.85458e-09
-9.31001e-09
6.62478e-09
-1.10721e-08
7.38633e-09
-1.29911e-08
8.1345e-09
-1.50637e-08
8.86533e-09
-1.72861e-08
9.57546e-09
-1.96535e-08
1.02621e-08
-2.2161e-08
1.09229e-08
-2.48029e-08
1.1556e-08
-2.75733e-08
1.21597e-08
-3.04658e-08
1.27328e-08
-3.3474e-08
1.32742e-08
-3.65911e-08
1.3783e-08
-3.98101e-08
1.42587e-08
-4.31239e-08
1.47007e-08
-4.65254e-08
1.51087e-08
-5.00073e-08
1.54825e-08
-5.35622e-08
1.58221e-08
-5.71827e-08
1.61274e-08
-6.08616e-08
1.63985e-08
-6.45915e-08
1.66356e-08
-6.83651e-08
1.68389e-08
-7.2175e-08
1.70088e-08
-7.60141e-08
1.71455e-08
-7.98752e-08
1.72494e-08
-8.37512e-08
1.7321e-08
-8.76352e-08
1.73608e-08
-9.15203e-08
1.73693e-08
-9.53997e-08
1.7347e-08
-9.92667e-08
1.72944e-08
-1.03115e-07
1.72121e-08
-1.06938e-07
1.71008e-08
-1.10729e-07
1.6961e-08
-1.14482e-07
1.67935e-08
-1.18192e-07
1.65988e-08
-1.21851e-07
1.63776e-08