/*--------------------------------*- C++ -*----------------------------------*\
  =========                 |
  \\      /  F ield         | OpenFOAM: The Open Source CFD Toolbox
   \\    /   O peration     | Website:  https://openfoam.org
    \\  /    A nd           | Version:  7
     \\/     M anipulation  |
\*---------------------------------------------------------------------------*/
FoamFile
{
    version     2.0;
    format      ascii;
    class       surfaceScalarField;
    location    "0.1625";
    object      phi;
}
// * * * * * * * * * * * * * * * * * * * * * * * * * * * * * * * * * * * * * //

dimensions      [0 3 -1 0 0 0 0];

internalField   nonuniform List<scalar> 
50880
(
7.57684e-12
-7.57055e-12
3.06616e-11
-2.308e-11
5.67034e-11
-2.6043e-11
8.01162e-11
-2.34137e-11
9.64897e-11
-1.63726e-11
1.03285e-10
-6.79445e-12
9.90289e-11
4.25635e-12
8.29475e-11
1.60812e-11
5.47342e-11
2.82116e-11
1.44004e-11
4.03332e-11
-3.78383e-11
5.22381e-11
-1.01624e-10
6.37871e-11
-1.76507e-10
7.48824e-11
-2.61976e-10
8.5468e-11
-3.57485e-10
9.55094e-11
-4.62459e-10
1.04972e-10
-5.76301e-10
1.13844e-10
-6.98428e-10
1.22127e-10
-8.2826e-10
1.29829e-10
-9.65225e-10
1.36964e-10
-1.10876e-09
1.43537e-10
-1.25833e-09
1.49561e-10
-1.41338e-09
1.55051e-10
-1.57341e-09
1.60027e-10
-1.73792e-09
1.64512e-10
-1.90645e-09
1.68528e-10
-2.07854e-09
1.72092e-10
-2.25376e-09
1.75221e-10
-2.4317e-09
1.77936e-10
-2.61195e-09
1.80254e-10
-2.79415e-09
1.82195e-10
-2.97793e-09
1.83778e-10
-3.16294e-09
1.85018e-10
-3.34887e-09
1.8593e-10
-3.5354e-09
1.86528e-10
-3.72223e-09
1.8683e-10
-3.90908e-09
1.8685e-10
-4.09568e-09
1.866e-10
-4.28177e-09
1.86094e-10
-4.46712e-09
1.85343e-10
-4.65147e-09
1.84357e-10
-4.83462e-09
1.83149e-10
-5.01635e-09
1.81729e-10
-5.19646e-09
1.80103e-10
-5.37474e-09
1.78281e-10
-5.55101e-09
1.76272e-10
-5.72509e-09
1.74081e-10
-5.89681e-09
1.71714e-10
-6.06599e-09
1.69177e-10
-6.23246e-09
1.66476e-10
-6.39608e-09
1.63615e-10
-6.55667e-09
1.60598e-10
-6.7141e-09
1.5743e-10
-6.86821e-09
1.54112e-10
-7.01886e-09
1.50647e-10
-7.1659e-09
1.4704e-10
-7.30919e-09
1.43293e-10
-7.4486e-09
1.39408e-10
-7.58399e-09
1.35386e-10
-7.71522e-09
1.31229e-10
-7.84216e-09
1.26938e-10
-7.96468e-09
1.22515e-10
-8.08264e-09
1.17961e-10
-8.19591e-09
1.13278e-10
-8.30437e-09
1.08466e-10
-8.4079e-09
1.03526e-10
-8.50636e-09
9.8457e-11
-8.59963e-09
9.32647e-11
-8.68758e-09
8.79516e-11
-8.7701e-09
8.25185e-11
-8.84706e-09
7.69648e-11
-8.91835e-09
7.12901e-11
-8.98384e-09
6.54971e-11
-9.04343e-09
5.95903e-11
-9.09701e-09
5.35736e-11
-9.14446e-09
4.7451e-11
-9.18568e-09
4.12247e-11
-9.22058e-09
3.48961e-11
-9.24905e-09
2.84686e-11
-9.27099e-09
2.19463e-11
-9.28633e-09
1.53352e-11
-9.29497e-09
8.64192e-12
-9.29684e-09
1.87188e-12
-9.29187e-09
-4.96955e-12
-9.28e-09
-1.18763e-11
-9.26115e-09
-1.88421e-11
-9.23529e-09
-2.58598e-11
-9.20237e-09
-3.29209e-11
-9.16235e-09
-4.0017e-11
-9.11521e-09
-4.71385e-11
-9.06094e-09
-5.4275e-11
-8.99952e-09
-6.14174e-11
-8.93096e-09
-6.85556e-11
-8.85529e-09
-7.56783e-11
-8.77251e-09
-8.27743e-11
-8.68268e-09
-8.9833e-11
-8.58584e-09
-9.68423e-11
-8.48205e-09
-1.03789e-10
-8.37139e-09
-1.10659e-10
-8.25395e-09
-1.1744e-10
-8.12983e-09
-1.24118e-10
-7.99915e-09
-1.3068e-10
-7.86204e-09
-1.37112e-10
-7.71864e-09
-1.43398e-10
-7.56912e-09
-1.49522e-10
-7.41365e-09
-1.5547e-10
-7.25242e-09
-1.61225e-10
-7.08565e-09
-1.66772e-10
-6.91356e-09
-1.72093e-10
-6.73638e-09
-1.77174e-10
-6.55438e-09
-1.81999e-10
-6.36783e-09
-1.8655e-10
-6.17702e-09
-1.90812e-10
-5.98225e-09
-1.94771e-10
-5.78384e-09
-1.98409e-10
-5.58213e-09
-2.01713e-10
-5.37746e-09
-2.04666e-10
-5.17021e-09
-2.07252e-10
-4.96075e-09
-2.0946e-10
-4.74948e-09
-2.11274e-10
-4.53679e-09
-2.12682e-10
-4.32312e-09
-2.13669e-10
-4.1089e-09
-2.14225e-10
-3.89456e-09
-2.14337e-10
-3.68057e-09
-2.13994e-10
-3.46738e-09
-2.13183e-10
-3.25549e-09
-2.11895e-10
-3.04537e-09
-2.1012e-10
-2.83752e-09
-2.07848e-10
-2.63245e-09
-2.05071e-10
-2.43067e-09
-2.01779e-10
-2.2327e-09
-1.97968e-10
-2.03907e-09
-1.93631e-10
-1.85031e-09
-1.88763e-10
-1.66695e-09
-1.83358e-10
-1.48953e-09
-1.77416e-10
-1.3186e-09
-1.70936e-10
-1.15468e-09
-1.63918e-10
-9.98311e-10
-1.56365e-10
-8.50031e-10
-1.48281e-10
-7.1036e-10
-1.39671e-10
-5.79815e-10
-1.30544e-10
-4.58903e-10
-1.20911e-10
-3.48114e-10
-1.10789e-10
-2.47913e-10
-1.00202e-10
-1.58735e-10
-8.9178e-11
-8.09815e-11
-7.77526e-11
-1.50043e-11
-6.59763e-11
3.89131e-11
-5.39175e-11
8.05785e-11
-4.16659e-11
1.09922e-10
-2.93433e-11
1.27043e-10
-1.71205e-11
1.32283e-10
-5.23935e-12
1.26329e-10
5.9533e-12
1.10381e-10
1.59481e-11
8.63986e-11
2.39831e-11
5.74674e-11
2.89307e-11
2.8375e-11
2.90919e-11
6.42349e-12
2.19517e-11
6.42295e-12
2.01374e-11
-2.77036e-11
6.18222e-11
-6.47748e-11
1.07731e-10
-7.19517e-11
1.44325e-10
-6.00115e-11
1.62831e-10
-3.48803e-11
1.57044e-10
-1.00987e-12
1.22963e-10
3.83373e-11
5.81751e-11
8.08696e-11
-3.8546e-11
1.24934e-10
-1.67581e-10
1.69366e-10
-3.28693e-10
2.13349e-10
-5.21213e-10
2.56305e-10
-7.44154e-10
2.97823e-10
-9.96313e-10
3.37628e-10
-1.27634e-09
3.75532e-10
-1.58278e-09
4.11413e-10
-1.91413e-09
4.45192e-10
-2.26884e-09
4.76838e-10
-2.64536e-09
5.06351e-10
-3.04214e-09
5.33743e-10
-3.45765e-09
5.59046e-10
-3.89039e-09
5.82303e-10
-4.33889e-09
6.03559e-10
-4.80175e-09
6.22879e-10
-5.27756e-09
6.40331e-10
-5.76502e-09
6.55981e-10
-6.26283e-09
6.69899e-10
-6.76976e-09
6.82152e-10
-7.28463e-09
6.92808e-10
-7.80631e-09
7.01934e-10
-8.33371e-09
7.09599e-10
-8.86581e-09
7.15866e-10
-9.40159e-09
7.20799e-10
-9.94012e-09
7.2446e-10
-1.04805e-08
7.26903e-10
-1.10219e-08
7.28183e-10
-1.15634e-08
7.28357e-10
-1.21042e-08
7.27474e-10
-1.26437e-08
7.25581e-10
-1.31811e-08
7.22727e-10
-1.37157e-08
7.18955e-10
-1.42469e-08
7.14303e-10
-1.47739e-08
7.08806e-10
-1.52963e-08
7.02501e-10
-1.58135e-08
6.95424e-10
-1.63248e-08
6.876e-10
-1.68298e-08
6.79057e-10
-1.73279e-08
6.69818e-10
-1.78186e-08
6.59907e-10
-1.83015e-08
6.49344e-10
-1.8776e-08
6.3815e-10
-1.92418e-08
6.26341e-10
-1.96983e-08
6.13934e-10
-2.01451e-08
6.00939e-10
-2.05818e-08
5.87368e-10
-2.1008e-08
5.73234e-10
-2.14233e-08
5.58547e-10
-2.18272e-08
5.43316e-10
-2.22193e-08
5.27547e-10
-2.25993e-08
5.11247e-10
-2.29668e-08
4.94421e-10
-2.33214e-08
4.77078e-10
-2.36627e-08
4.59226e-10
-2.39903e-08
4.4087e-10
-2.43038e-08
4.22015e-10
-2.46029e-08
4.02664e-10
-2.48873e-08
3.82821e-10
-2.51565e-08
3.62492e-10
-2.54103e-08
3.41686e-10
-2.56482e-08
3.20409e-10
-2.58699e-08
2.98669e-10
-2.6075e-08
2.76473e-10
-2.62634e-08
2.5383e-10
-2.64345e-08
2.30747e-10
-2.65882e-08
2.07237e-10
-2.67241e-08
1.83314e-10
-2.68418e-08
1.58992e-10
-2.69412e-08
1.34283e-10
-2.70219e-08
1.09201e-10
-2.70838e-08
8.3764e-11
-2.71264e-08
5.79908e-11
-2.71497e-08
3.19022e-11
-2.71533e-08
5.52123e-12
-2.71372e-08
-2.11285e-11
-2.7101e-08
-4.80219e-11
-2.70447e-08
-7.51324e-11
-2.69681e-08
-1.02433e-10
-2.68712e-08
-1.29892e-10
-2.67537e-08
-1.57476e-10
-2.66157e-08
-1.8515e-10
-2.64571e-08
-2.12875e-10
-2.62779e-08
-2.40614e-10
-2.60781e-08
-2.68327e-10
-2.58578e-08
-2.95973e-10
-2.56171e-08
-3.23507e-10
-2.53561e-08
-3.50885e-10
-2.50748e-08
-3.78061e-10
-2.47736e-08
-4.04985e-10
-2.44527e-08
-4.31607e-10
-2.41123e-08
-4.57875e-10
-2.37526e-08
-4.83736e-10
-2.33742e-08
-5.09137e-10
-2.29773e-08
-5.34022e-10
-2.25623e-08
-5.58333e-10
-2.21298e-08
-5.82012e-10
-2.16803e-08
-6.04999e-10
-2.12143e-08
-6.27236e-10
-2.07324e-08
-6.4866e-10
-2.02353e-08
-6.6921e-10
-1.97236e-08
-6.88825e-10
-1.91982e-08
-7.07444e-10
-1.86597e-08
-7.25007e-10
-1.81091e-08
-7.41451e-10
-1.75472e-08
-7.56716e-10
-1.69748e-08
-7.70743e-10
-1.63931e-08
-7.83474e-10
-1.58029e-08
-7.9485e-10
-1.52053e-08
-8.04814e-10
-1.46015e-08
-8.13313e-10
-1.39924e-08
-8.20291e-10
-1.33794e-08
-8.25699e-10
-1.27636e-08
-8.29486e-10
-1.21462e-08
-8.31603e-10
-1.15286e-08
-8.32006e-10
-1.09119e-08
-8.30652e-10
-1.02976e-08
-8.27497e-10
-9.68698e-09
-8.22501e-10
-9.08147e-09
-8.15628e-10
-8.48247e-09
-8.06845e-10
-7.89142e-09
-7.96122e-10
-7.30977e-09
-7.83431e-10
-6.73899e-09
-7.68746e-10
-6.18057e-09
-7.52049e-10
-5.63601e-09
-7.33326e-10
-5.1068e-09
-7.12563e-10
-4.59446e-09
-6.89756e-10
-4.10049e-09
-6.64907e-10
-3.62638e-09
-6.38025e-10
-3.17362e-09
-6.09124e-10
-2.74368e-09
-5.78226e-10
-2.33799e-09
-5.45363e-10
-1.95795e-09
-5.10582e-10
-1.60492e-09
-4.73942e-10
-1.28019e-09
-4.3552e-10
-9.8497e-10
-3.95421e-10
-7.20369e-10
-3.53776e-10
-4.87364e-10
-3.10757e-10
-2.8676e-10
-2.66582e-10
-1.19137e-10
-2.21542e-10
1.52155e-11
-1.76017e-10
1.16388e-10
-1.30514e-10
1.84978e-10
-8.57112e-11
2.22265e-10
-4.2528e-11
2.30444e-10
-2.22461e-12
2.12933e-10
3.34606e-11
1.7479e-10
6.21251e-11
1.23216e-10
8.05021e-11
6.80549e-11
8.42522e-11
2.1937e-11
6.8069e-11
2.83592e-11
2.6531e-11
-5.42358e-11
7.17127e-11
-1.09951e-10
1.1566e-10
-1.15899e-10
1.42417e-10
-8.67686e-11
1.4043e-10
-3.2894e-11
1.01391e-10
3.80292e-11
1.95754e-11
1.2015e-10
-1.0866e-10
2.09106e-10
-2.8538e-10
3.01653e-10
-5.11424e-10
3.95412e-10
-7.86715e-10
4.88638e-10
-1.11048e-09
5.80071e-10
-1.48145e-09
6.68791e-10
-1.89796e-09
7.54138e-10
-2.35809e-09
8.35662e-10
-2.85973e-09
9.13048e-10
-3.40064e-09
9.86097e-10
-3.9785e-09
1.0547e-09
-4.59098e-09
1.11882e-09
-5.23569e-09
1.17845e-09
-5.91029e-09
1.23365e-09
-6.61246e-09
1.28447e-09
-7.33991e-09
1.33101e-09
-8.09042e-09
1.37339e-09
-8.86182e-09
1.41173e-09
-9.65201e-09
1.44617e-09
-1.0459e-08
1.47684e-09
-1.12807e-08
1.50389e-09
-1.21153e-08
1.52745e-09
-1.29611e-08
1.54767e-09
-1.38162e-08
1.56468e-09
-1.46789e-08
1.57863e-09
-1.55478e-08
1.58964e-09
-1.64211e-08
1.59784e-09
-1.72976e-08
1.60337e-09
-1.81757e-08
1.60633e-09
-1.90542e-08
1.60684e-09
-1.99318e-08
1.60502e-09
-2.08072e-08
1.60096e-09
-2.16792e-08
1.59476e-09
-2.25468e-08
1.58653e-09
-2.34088e-08
1.57634e-09
-2.42643e-08
1.56427e-09
-2.51122e-08
1.55041e-09
-2.59516e-08
1.53482e-09
-2.67815e-08
1.51756e-09
-2.76012e-08
1.49871e-09
-2.84097e-08
1.47831e-09
-2.92062e-08
1.45641e-09
-2.99899e-08
1.43305e-09
-3.076e-08
1.40829e-09
-3.15158e-08
1.38216e-09
-3.22566e-08
1.35469e-09
-3.29815e-08
1.32591e-09
-3.369e-08
1.29586e-09
-3.43814e-08
1.26455e-09
-3.50548e-08
1.23201e-09
-3.57098e-08
1.19827e-09
-3.63456e-08
1.16333e-09
-3.69615e-08
1.12722e-09
-3.75571e-08
1.08996e-09
-3.81315e-08
1.05154e-09
-3.86843e-08
1.012e-09
-3.92148e-08
9.71337e-10
-3.97223e-08
9.29575e-10
-4.02064e-08
8.86723e-10
-4.06664e-08
8.42795e-10
-4.11017e-08
7.97803e-10
-4.15118e-08
7.5176e-10
-4.1896e-08
7.04683e-10
-4.22539e-08
6.5659e-10
-4.2585e-08
6.075e-10
-4.28886e-08
5.57433e-10
-4.31642e-08
5.06412e-10
-4.34115e-08
4.54461e-10
-4.36298e-08
4.01608e-10
-4.38186e-08
3.47883e-10
-4.39777e-08
2.93318e-10
-4.41064e-08
2.37946e-10
-4.42045e-08
1.81809e-10
-4.42714e-08
1.24946e-10
-4.43069e-08
6.74038e-11
-4.43106e-08
9.2309e-12
-4.42822e-08
-4.95193e-11
-4.42215e-08
-1.08791e-10
-4.41281e-08
-1.68525e-10
-4.40019e-08
-2.28658e-10
-4.38426e-08
-2.89122e-10
-4.36503e-08
-3.49844e-10
-4.34247e-08
-4.10747e-10
-4.31658e-08
-4.71752e-10
-4.28736e-08
-5.32773e-10
-4.25482e-08
-5.93721e-10
-4.21897e-08
-6.54506e-10
-4.17982e-08
-7.15032e-10
-4.13739e-08
-7.75201e-10
-4.0917e-08
-8.34908e-10
-4.04279e-08
-8.94049e-10
-3.9907e-08
-9.52512e-10
-3.93547e-08
-1.01018e-09
-3.87715e-08
-1.06695e-09
-3.8158e-08
-1.12269e-09
-3.75147e-08
-1.17728e-09
-3.68424e-08
-1.2306e-09
-3.61419e-08
-1.28252e-09
-3.5414e-08
-1.33291e-09
-3.46596e-08
-1.38165e-09
-3.38797e-08
-1.42859e-09
-3.30752e-08
-1.47361e-09
-3.22475e-08
-1.51658e-09
-3.13976e-08
-1.55735e-09
-3.05268e-08
-1.5958e-09
-2.96365e-08
-1.6318e-09
-2.8728e-08
-1.66521e-09
-2.78028e-08
-1.6959e-09
-2.68625e-08
-1.72375e-09
-2.59087e-08
-1.74864e-09
-2.49431e-08
-1.77043e-09
-2.39674e-08
-1.78901e-09
-2.29835e-08
-1.80426e-09
-2.19931e-08
-1.81607e-09
-2.09983e-08
-1.82433e-09
-2.00009e-08
-1.82893e-09
-1.90031e-08
-1.82979e-09
-1.8007e-08
-1.8268e-09
-1.70146e-08
-1.81987e-09
-1.60282e-08
-1.80892e-09
-1.505e-08
-1.79387e-09
-1.40821e-08
-1.77466e-09
-1.31271e-08
-1.75121e-09
-1.2187e-08
-1.72348e-09
-1.12643e-08
-1.69142e-09
-1.03614e-08
-1.65499e-09
-9.48056e-09
-1.61415e-09
-8.62422e-09
-1.5689e-09
-7.79474e-09
-1.51924e-09
-6.99449e-09
-1.46516e-09
-6.22581e-09
-1.4067e-09
-5.49103e-09
-1.3439e-09
-4.79243e-09
-1.27683e-09
-4.13222e-09
-1.20557e-09
-3.51257e-09
-1.13023e-09
-2.93555e-09
-1.05097e-09
-2.40308e-09
-9.67982e-10
-1.91699e-09
-8.81515e-10
-1.47888e-09
-7.91886e-10
-1.09014e-09
-6.995e-10
-7.51844e-10
-6.04874e-10
-4.64716e-10
-5.08671e-10
-2.28983e-10
-4.1175e-10
-4.42704e-11
-3.15227e-10
9.0582e-11
-2.20565e-10
1.77736e-10
-1.29683e-10
2.20635e-10
-4.51229e-11
2.24347e-10
2.97475e-11
1.95978e-10
9.04936e-11
1.45121e-10
1.3136e-10
8.42594e-11
1.45113e-10
2.9069e-11
1.23259e-10
5.74281e-11
2.41155e-11
-7.83548e-11
6.12569e-11
-1.47094e-10
8.85982e-11
-1.43241e-10
8.909e-11
-8.72614e-11
4.9962e-11
6.23514e-12
-3.81789e-11
1.26169e-10
-1.81988e-10
2.6396e-10
-3.85893e-10
4.13007e-10
-6.52532e-10
5.68292e-10
-9.83116e-10
7.25996e-10
-1.37774e-09
8.83257e-10
-1.83561e-09
1.03794e-09
-2.35528e-09
1.18846e-09
-2.93479e-09
1.33365e-09
-3.57182e-09
1.47269e-09
-4.26374e-09
1.60497e-09
-5.00777e-09
1.73012e-09
-5.80096e-09
1.84789e-09
-6.6403e-09
1.95816e-09
-7.52274e-09
2.0609e-09
-8.44524e-09
2.15615e-09
-9.40477e-09
2.24399e-09
-1.03983e-08
2.32457e-09
-1.1423e-08
2.39805e-09
-1.24759e-08
2.46462e-09
-1.35542e-08
2.5245e-09
-1.46553e-08
2.57789e-09
-1.57764e-08
2.62504e-09
-1.69151e-08
2.66617e-09
-1.8069e-08
2.70152e-09
-1.92356e-08
2.73131e-09
-2.04128e-08
2.75578e-09
-2.15983e-08
2.77514e-09
-2.279e-08
2.78962e-09
-2.39861e-08
2.79943e-09
-2.51845e-08
2.80476e-09
-2.63835e-08
2.80582e-09
-2.75813e-08
2.80279e-09
-2.87762e-08
2.79585e-09
-2.99666e-08
2.78516e-09
-3.11509e-08
2.77089e-09
-3.23278e-08
2.75319e-09
-3.34957e-08
2.73219e-09
-3.46533e-08
2.70803e-09
-3.57994e-08
2.68084e-09
-3.69325e-08
2.65071e-09
-3.80516e-08
2.61777e-09
-3.91554e-08
2.5821e-09
-4.02427e-08
2.54379e-09
-4.13126e-08
2.50292e-09
-4.23639e-08
2.45958e-09
-4.33956e-08
2.41382e-09
-4.44066e-08
2.36571e-09
-4.5396e-08
2.3153e-09
-4.63627e-08
2.26264e-09
-4.7306e-08
2.20778e-09
-4.82247e-08
2.15076e-09
-4.91181e-08
2.09162e-09
-4.99851e-08
2.03039e-09
-5.0825e-08
1.96711e-09
-5.16369e-08
1.90179e-09
-5.24198e-08
1.83448e-09
-5.3173e-08
1.76519e-09
-5.38956e-08
1.69395e-09
-5.45868e-08
1.62078e-09
-5.52458e-08
1.54572e-09
-5.58718e-08
1.46878e-09
-5.6464e-08
1.38999e-09
-5.70216e-08
1.30937e-09
-5.75439e-08
1.22697e-09
-5.80301e-08
1.1428e-09
-5.84795e-08
1.0569e-09
-5.88913e-08
9.69306e-10
-5.9265e-08
8.80066e-10
-5.95998e-08
7.89222e-10
-5.9895e-08
6.96821e-10
-6.015e-08
6.02917e-10
-6.03643e-08
5.07566e-10
-6.05371e-08
4.10831e-10
-6.06681e-08
3.12781e-10
-6.07567e-08
2.1349e-10
-6.08023e-08
1.13037e-10
-6.08046e-08
1.15076e-11
-6.07631e-08
-9.10048e-11
-6.06775e-08
-1.94402e-10
-6.05474e-08
-2.98581e-10
-6.03726e-08
-4.03428e-10
-6.01529e-08
-5.08826e-10
-5.98881e-08
-6.14649e-10
-5.95781e-08
-7.20764e-10
-5.92228e-08
-8.2703e-10
-5.88223e-08
-9.33302e-10
-5.83766e-08
-1.03942e-09
-5.78859e-08
-1.14524e-09
-5.73503e-08
-1.25058e-09
-5.67702e-08
-1.35528e-09
-5.6146e-08
-1.45916e-09
-5.5478e-08
-1.56202e-09
-5.47668e-08
-1.66368e-09
-5.40131e-08
-1.76395e-09
-5.32174e-08
-1.86262e-09
-5.23806e-08
-1.95949e-09
-5.15036e-08
-2.05434e-09
-5.05872e-08
-2.14696e-09
-4.96326e-08
-2.23713e-09
-4.86409e-08
-2.32463e-09
-4.76133e-08
-2.40924e-09
-4.65512e-08
-2.49072e-09
-4.54559e-08
-2.56884e-09
-4.43291e-08
-2.64339e-09
-4.31723e-08
-2.71412e-09
-4.19873e-08
-2.78082e-09
-4.07759e-08
-2.84325e-09
-3.95399e-08
-2.90118e-09
-3.82814e-08
-2.9544e-09
-3.70025e-08
-3.00267e-09
-3.57053e-08
-3.0458e-09
-3.43922e-08
-3.08356e-09
-3.30654e-08
-3.11575e-09
-3.17275e-08
-3.14216e-09
-3.0381e-08
-3.16261e-09
-2.90284e-08
-3.17691e-09
-2.76724e-08
-3.18488e-09
-2.63159e-08
-3.18635e-09
-2.49615e-08
-3.18116e-09
-2.36122e-08
-3.16915e-09
-2.2271e-08
-3.15019e-09
-2.09407e-08
-3.12415e-09
-1.96244e-08
-3.0909e-09
-1.83253e-08
-3.05036e-09
-1.70464e-08
-3.00242e-09
-1.57908e-08
-2.94702e-09
-1.45617e-08
-2.88409e-09
-1.33622e-08
-2.8136e-09
-1.21956e-08
-2.73553e-09
-1.10649e-08
-2.64989e-09
-9.9734e-09
-2.5567e-09
-8.92407e-09
-2.45603e-09
-7.92e-09
-2.34797e-09
-6.96419e-09
-2.23264e-09
-6.05954e-09
-2.11022e-09
-5.20883e-09
-1.98093e-09
-4.41474e-09
-1.84507e-09
-3.67973e-09
-1.70299e-09
-3.00607e-09
-1.55517e-09
-2.39577e-09
-1.40219e-09
-1.85048e-09
-1.24478e-09
-1.37148e-09
-1.08388e-09
-9.59502e-10
-9.20648e-10
-6.14667e-10
-7.56585e-10
-3.36304e-10
-5.93592e-10
-1.22762e-10
-4.34107e-10
2.88149e-11
-2.81259e-10
1.22772e-10
-1.39079e-10
1.65262e-10
-1.27444e-11
1.64624e-10
9.1132e-11
1.31782e-10
1.64201e-10
8.06865e-11
1.96206e-10
2.89338e-11
1.75011e-10
8.63626e-11
1.73093e-11
-9.56644e-11
3.67781e-11
-1.66563e-10
3.58188e-11
-1.42282e-10
-2.74801e-12
-4.86942e-11
-9.20153e-11
9.54996e-11
-2.41768e-10
2.75925e-10
-4.59069e-10
4.8126e-10
-7.48724e-10
7.02663e-10
-1.11369e-09
9.33251e-10
-1.55539e-09
1.1677e-09
-2.07403e-09
1.4019e-09
-2.66882e-09
1.63273e-09
-3.3382e-09
1.85783e-09
-4.07997e-09
2.07543e-09
-4.89151e-09
2.28422e-09
-5.7698e-09
2.48327e-09
-6.71161e-09
2.67193e-09
-7.71351e-09
2.84978e-09
-8.77194e-09
3.01659e-09
-9.88327e-09
3.17224e-09
-1.10439e-08
3.31675e-09
-1.22501e-08
3.45022e-09
-1.34984e-08
3.57282e-09
-1.47851e-08
3.68476e-09
-1.61068e-08
3.78631e-09
-1.746e-08
3.87775e-09
-1.88415e-08
3.9594e-09
-2.02481e-08
4.03158e-09
-2.16765e-08
4.09462e-09
-2.31238e-08
4.14885e-09
-2.45872e-08
4.19463e-09
-2.60637e-08
4.23229e-09
-2.75507e-08
4.26214e-09
-2.90456e-08
4.28453e-09
-3.05459e-08
4.29975e-09
-3.20492e-08
4.30811e-09
-3.35533e-08
4.30991e-09
-3.5056e-08
4.30542e-09
-3.6555e-08
4.29492e-09
-3.80485e-08
4.27864e-09
-3.95345e-08
4.25685e-09
-4.10111e-08
4.22976e-09
-4.24764e-08
4.19758e-09
-4.39289e-08
4.16052e-09
-4.53669e-08
4.11876e-09
-4.67886e-08
4.07248e-09
-4.81927e-08
4.02183e-09
-4.95776e-08
3.96696e-09
-5.09418e-08
3.90802e-09
-5.2284e-08
3.84512e-09
-5.36028e-08
3.77838e-09
-5.48969e-08
3.70791e-09
-5.6165e-08
3.6338e-09
-5.74058e-08
3.55614e-09
-5.86182e-08
3.475e-09
-5.98009e-08
3.39047e-09
-6.09527e-08
3.3026e-09
-6.20725e-08
3.21145e-09
-6.31592e-08
3.11709e-09
-6.42117e-08
3.01955e-09
-6.52288e-08
2.9189e-09
-6.62095e-08
2.81516e-09
-6.71527e-08
2.70839e-09
-6.80573e-08
2.59863e-09
-6.89225e-08
2.48591e-09
-6.9747e-08
2.37028e-09
-7.053e-08
2.25177e-09
-7.12705e-08
2.13044e-09
-7.19674e-08
2.00631e-09
-7.26199e-08
1.87945e-09
-7.3227e-08
1.7499e-09
-7.37878e-08
1.61771e-09
-7.43015e-08
1.48294e-09
-7.47671e-08
1.34567e-09
-7.51838e-08
1.20595e-09
-7.55508e-08
1.06388e-09
-7.58674e-08
9.19517e-10
-7.61328e-08
7.72966e-10
-7.63463e-08
6.24322e-10
-7.65072e-08
4.73691e-10
-7.66149e-08
3.21186e-10
-7.66688e-08
1.66932e-10
-7.66684e-08
1.10621e-11
-7.66131e-08
-1.46283e-10
-7.65026e-08
-3.04951e-10
-7.63364e-08
-4.64781e-10
-7.61142e-08
-6.25601e-10
-7.58358e-08
-7.8723e-10
-7.5501e-08
-9.49474e-10
-7.51096e-08
-1.11213e-09
-7.46616e-08
-1.27498e-09
-7.41571e-08
-1.43781e-09
-7.35962e-08
-1.60038e-09
-7.2979e-08
-1.76245e-09
-7.23058e-08
-1.92376e-09
-7.1577e-08
-2.08405e-09
-7.07931e-08
-2.24304e-09
-6.99547e-08
-2.40046e-09
-6.90624e-08
-2.55601e-09
-6.81169e-08
-2.7094e-09
-6.71192e-08
-2.86031e-09
-6.60703e-08
-3.00844e-09
-6.49712e-08
-3.15346e-09
-6.38231e-08
-3.29504e-09
-6.26274e-08
-3.43285e-09
-6.13854e-08
-3.56656e-09
-6.00988e-08
-3.69582e-09
-5.87693e-08
-3.82028e-09
-5.73985e-08
-3.93961e-09
-5.59885e-08
-4.05344e-09
-5.45411e-08
-4.16144e-09
-5.30587e-08
-4.26326e-09
-5.15434e-08
-4.35855e-09
-4.99976e-08
-4.44697e-09
-4.84238e-08
-4.52818e-09
-4.68246e-08
-4.60185e-09
-4.52028e-08
-4.66765e-09
-4.35611e-08
-4.72525e-09
-4.19025e-08
-4.77435e-09
-4.023e-08
-4.81464e-09
-3.85468e-08
-4.84584e-09
-3.68561e-08
-4.86765e-09
-3.51611e-08
-4.87982e-09
-3.34654e-08
-4.88208e-09
-3.17724e-08
-4.87419e-09
-3.00856e-08
-4.85593e-09
-2.84087e-08
-4.82709e-09
-2.67453e-08
-4.78748e-09
-2.50993e-08
-4.73693e-09
-2.34744e-08
-4.67529e-09
-2.18743e-08
-4.60243e-09
-2.03031e-08
-4.51825e-09
-1.87645e-08
-4.42268e-09
-1.72625e-08
-4.31567e-09
-1.58008e-08
-4.1972e-09
-1.43834e-08
-4.06731e-09
-1.3014e-08
-3.92605e-09
-1.16965e-08
-3.77355e-09
-1.04345e-08
-3.60995e-09
-9.2317e-09
-3.43548e-09
-8.09149e-09
-3.25043e-09
-7.01724e-09
-3.05518e-09
-6.0121e-09
-2.85021e-09
-5.07898e-09
-2.63611e-09
-4.22052e-09
-2.41363e-09
-3.43902e-09
-2.18369e-09
-2.73636e-09
-1.94745e-09
-2.1139e-09
-1.70634e-09
-1.57239e-09
-1.46216e-09
-1.11182e-09
-1.21715e-09
-7.31289e-10
-9.74126e-10
-4.28775e-10
-7.3662e-10
-2.00943e-10
-5.09091e-10
-4.28748e-11
-2.97147e-10
5.22156e-11
-1.07835e-10
9.33105e-11
5.00378e-11
9.19668e-11
1.65545e-10
6.27769e-11
2.25396e-10
2.40893e-11
2.13698e-10
1.10452e-10
7.76751e-12
-1.03431e-10
3.10304e-12
-1.61901e-10
-3.47478e-11
-1.0443e-10
-1.22064e-10
3.86208e-11
-2.71513e-10
2.44948e-10
-4.92706e-10
4.97116e-10
-7.92676e-10
7.81231e-10
-1.17628e-09
1.08627e-09
-1.64655e-09
1.40351e-09
-2.20496e-09
1.72611e-09
-2.85173e-09
2.04867e-09
-3.58603e-09
2.36703e-09
-4.40617e-09
2.67798e-09
-5.3098e-09
2.97905e-09
-6.29402e-09
3.26843e-09
-7.35551e-09
3.54477e-09
-8.49067e-09
3.80709e-09
-9.69565e-09
4.05477e-09
-1.09665e-08
4.28739e-09
-1.2299e-08
4.50476e-09
-1.36891e-08
4.70685e-09
-1.51326e-08
4.89373e-09
-1.66254e-08
5.0656e-09
-1.81633e-08
5.22271e-09
-1.97424e-08
5.36539e-09
-2.13587e-08
5.49401e-09
-2.30082e-08
5.60897e-09
-2.46874e-08
5.71071e-09
-2.63924e-08
5.79965e-09
-2.81198e-08
5.87626e-09
-2.98662e-08
5.94099e-09
-3.16282e-08
5.99429e-09
-3.34027e-08
6.03662e-09
-3.51865e-08
6.06841e-09
-3.69769e-08
6.09009e-09
-3.87708e-08
6.10207e-09
-4.05657e-08
6.10477e-09
-4.23588e-08
6.09857e-09
-4.41478e-08
6.08384e-09
-4.59301e-08
6.06093e-09
-4.77034e-08
6.03017e-09
-4.94655e-08
5.99189e-09
-5.12143e-08
5.94637e-09
-5.29477e-08
5.89391e-09
-5.46637e-08
5.83475e-09
-5.63604e-08
5.76916e-09
-5.80359e-08
5.69734e-09
-5.96884e-08
5.61952e-09
-6.13163e-08
5.53588e-09
-6.29178e-08
5.4466e-09
-6.44912e-08
5.35186e-09
-6.60351e-08
5.25179e-09
-6.75479e-08
5.14654e-09
-6.90279e-08
5.03622e-09
-7.04739e-08
4.92097e-09
-7.18843e-08
4.80087e-09
-7.32578e-08
4.67603e-09
-7.45928e-08
4.54654e-09
-7.58882e-08
4.41247e-09
-7.71426e-08
4.27389e-09
-7.83546e-08
4.13089e-09
-7.95229e-08
3.98352e-09
-8.06464e-08
3.83186e-09
-8.17237e-08
3.67595e-09
-8.27536e-08
3.51586e-09
-8.3735e-08
3.35165e-09
-8.46666e-08
3.18338e-09
-8.55473e-08
3.01112e-09
-8.63759e-08
2.83492e-09
-8.71513e-08
2.65487e-09
-8.78725e-08
2.47103e-09
-8.85382e-08
2.28349e-09
-8.91476e-08
2.09233e-09
-8.96996e-08
1.89764e-09
-9.01932e-08
1.69953e-09
-9.06274e-08
1.49811e-09
-9.10014e-08
1.29349e-09
-9.13142e-08
1.08581e-09
-9.15651e-08
8.75214e-10
-9.17533e-08
6.61843e-10
-9.18779e-08
4.45864e-10
-9.19385e-08
2.27453e-10
-9.19342e-08
6.80098e-12
-9.18646e-08
-2.15892e-10
-9.17291e-08
-4.40411e-10
-9.15274e-08
-6.66526e-10
-9.1259e-08
-8.93995e-10
-9.09237e-08
-1.12256e-09
-9.05212e-08
-1.35195e-09
-9.00514e-08
-1.58187e-09
-8.95144e-08
-1.81203e-09
-8.89101e-08
-2.04211e-09
-8.82387e-08
-2.27177e-09
-8.75005e-08
-2.50069e-09
-8.66957e-08
-2.72849e-09
-8.5825e-08
-2.9548e-09
-8.48888e-08
-3.17925e-09
-8.38878e-08
-3.40144e-09
-8.28229e-08
-3.62095e-09
-8.16949e-08
-3.83736e-09
-8.0505e-08
-4.05025e-09
-7.92542e-08
-4.25917e-09
-7.7944e-08
-4.46367e-09
-7.65758e-08
-4.66329e-09
-7.51511e-08
-4.85757e-09
-7.36716e-08
-5.04603e-09
-7.21392e-08
-5.22819e-09
-7.05559e-08
-5.40357e-09
-6.89238e-08
-5.57168e-09
-6.72452e-08
-5.73205e-09
-6.55225e-08
-5.88417e-09
-6.37582e-08
-6.02756e-09
-6.1955e-08
-6.16175e-09
-6.01157e-08
-6.28625e-09
-5.82433e-08
-6.40058e-09
-5.63409e-08
-6.50429e-09
-5.44116e-08
-6.59692e-09
-5.24589e-08
-6.67801e-09
-5.04861e-08
-6.74713e-09
-4.84969e-08
-6.80386e-09
-4.64949e-08
-6.84779e-09
-4.4484e-08
-6.87854e-09
-4.24681e-08
-6.89572e-09
-4.04512e-08
-6.89898e-09
-3.84374e-08
-6.88799e-09
-3.64309e-08
-6.86245e-09
-3.4436e-08
-6.82206e-09
-3.24569e-08
-6.76656e-09
-3.04981e-08
-6.69573e-09
-2.8564e-08
-6.60937e-09
-2.66591e-08
-6.50731e-09
-2.47879e-08
-6.38942e-09
-2.2955e-08
-6.25562e-09
-2.11648e-08
-6.10585e-09
-1.94219e-08
-5.94013e-09
-1.77307e-08
-5.7585e-09
-1.60957e-08
-5.56108e-09
-1.45212e-08
-5.34804e-09
-1.30115e-08
-5.11966e-09
-1.15707e-08
-4.87626e-09
-1.02028e-08
-4.6183e-09
-8.91166e-09
-4.34634e-09
-7.70077e-09
-4.0611e-09
-6.57343e-09
-3.76345e-09
-5.53259e-09
-3.45447e-09
-4.58076e-09
-3.13551e-09
-3.72001e-09
-2.80821e-09
-2.95176e-09
-2.47458e-09
-2.27679e-09
-2.13714e-09
-1.695e-09
-1.79894e-09
-1.20532e-09
-1.46381e-09
-8.0551e-10
-1.13643e-09
-4.91965e-10
-8.22637e-10
-2.59477e-10
-5.29636e-10
-1.00994e-10
-2.66317e-10
-7.33574e-12
-4.36202e-11
3.31479e-11
1.25062e-10
3.49979e-11
2.23547e-10
1.62733e-11
2.32423e-10
1.26724e-10
-3.34296e-12
-1.00088e-10
-3.63541e-11
-1.2889e-10
-1.17099e-10
-2.36861e-11
-2.60218e-10
1.81743e-10
-4.77369e-10
4.62096e-10
-7.7752e-10
7.97267e-10
-1.16732e-09
1.17103e-09
-1.65138e-09
1.57033e-09
-2.23257e-09
1.98471e-09
-2.91228e-09
2.40582e-09
-3.69062e-09
2.82701e-09
-4.56664e-09
3.24305e-09
-5.53853e-09
3.64986e-09
-6.60373e-09
4.04426e-09
-7.75913e-09
4.42384e-09
-9.00116e-09
4.78679e-09
-1.03259e-08
5.13181e-09
-1.17291e-08
5.45799e-09
-1.32065e-08
5.76474e-09
-1.47534e-08
6.05173e-09
-1.63654e-08
6.31886e-09
-1.80379e-08
6.56616e-09
-1.97661e-08
6.79384e-09
-2.15456e-08
7.00218e-09
-2.33718e-08
7.19158e-09
-2.52402e-08
7.36248e-09
-2.71466e-08
7.51537e-09
-2.90867e-08
7.65079e-09
-3.10563e-08
7.76928e-09
-3.30515e-08
7.87144e-09
-3.50683e-08
7.95782e-09
-3.71031e-08
8.02902e-09
-3.91521e-08
8.08561e-09
-4.12118e-08
8.12817e-09
-4.3279e-08
8.15724e-09
-4.53503e-08
8.17336e-09
-4.74226e-08
8.17707e-09
-4.94929e-08
8.16887e-09
-5.15583e-08
8.14925e-09
-5.3616e-08
8.11865e-09
-5.56634e-08
8.07754e-09
-5.76978e-08
8.02632e-09
-5.97168e-08
7.96538e-09
-6.1718e-08
7.8951e-09
-6.36991e-08
7.81583e-09
-6.56578e-08
7.72788e-09
-6.7592e-08
7.63157e-09
-6.94997e-08
7.52717e-09
-7.13787e-08
7.41493e-09
-7.32273e-08
7.29511e-09
-7.50433e-08
7.16792e-09
-7.68251e-08
7.03356e-09
-7.85708e-08
6.89223e-09
-8.02786e-08
6.74408e-09
-8.19469e-08
6.58928e-09
-8.3574e-08
6.42797e-09
-8.51583e-08
6.26029e-09
-8.66981e-08
6.08634e-09
-8.81919e-08
5.90625e-09
-8.96381e-08
5.72012e-09
-9.10353e-08
5.52805e-09
-9.23819e-08
5.33013e-09
-9.36765e-08
5.12644e-09
-9.49176e-08
4.91708e-09
-9.61039e-08
4.70212e-09
-9.72339e-08
4.48166e-09
-9.83063e-08
4.25577e-09
-9.93197e-08
4.02455e-09
-1.00273e-07
3.78809e-09
-1.01164e-07
3.54649e-09
-1.01993e-07
3.29985e-09
-1.02758e-07
3.04828e-09
-1.03458e-07
2.7919e-09
-1.04091e-07
2.53084e-09
-1.04657e-07
2.26523e-09
-1.05154e-07
1.99524e-09
-1.05581e-07
1.72102e-09
-1.05938e-07
1.44275e-09
-1.06224e-07
1.16062e-09
-1.06437e-07
8.7483e-10
-1.06576e-07
5.85607e-10
-1.06642e-07
2.93186e-10
-1.06633e-07
-2.17878e-12
-1.06549e-07
-3.00216e-10
-1.06388e-07
-6.00638e-10
-1.06152e-07
-9.03136e-10
-1.05838e-07
-1.20739e-09
-1.05448e-07
-1.51304e-09
-1.0498e-07
-1.81974e-09
-1.04435e-07
-2.12709e-09
-1.03812e-07
-2.43471e-09
-1.03112e-07
-2.74215e-09
-1.02335e-07
-3.049e-09
-1.01481e-07
-3.35478e-09
-1.0055e-07
-3.65902e-09
-9.9544e-08
-3.96123e-09
-9.84623e-08
-4.26089e-09
-9.73063e-08
-4.55748e-09
-9.60768e-08
-4.85044e-09
-9.47749e-08
-5.13924e-09
-9.34019e-08
-5.42328e-09
-9.19591e-08
-5.70198e-09
-9.0448e-08
-5.97474e-09
-8.88704e-08
-6.24096e-09
-8.72279e-08
-6.50001e-09
-8.55227e-08
-6.75126e-09
-8.37568e-08
-6.99409e-09
-8.19325e-08
-7.22785e-09
-8.00523e-08
-7.4519e-09
-7.81187e-08
-7.66559e-09
-7.61346e-08
-7.86827e-09
-7.41029e-08
-8.05932e-09
-7.20266e-08
-8.23807e-09
-6.99089e-08
-8.40391e-09
-6.77533e-08
-8.55621e-09
-6.55632e-08
-8.69434e-09
-6.33424e-08
-8.81772e-09
-6.10947e-08
-8.92573e-09
-5.8824e-08
-9.01782e-09
-5.65344e-08
-9.09342e-09
-5.42302e-08
-9.152e-09
-5.19157e-08
-9.19304e-09
-4.95954e-08
-9.21605e-09
-4.72738e-08
-9.22058e-09
-4.49556e-08
-9.20618e-09
-4.26456e-08
-9.17245e-09
-4.03487e-08
-9.11902e-09
-3.80697e-08
-9.04557e-09
-3.58136e-08
-8.95179e-09
-3.35855e-08
-8.83745e-09
-3.13905e-08
-8.70233e-09
-2.92336e-08
-8.54627e-09
-2.71201e-08
-8.3692e-09
-2.50549e-08
-8.17105e-09
-2.30431e-08
-7.95186e-09
-2.10899e-08
-7.71173e-09
-1.92001e-08
-7.45085e-09
-1.73787e-08
-7.16947e-09
-1.56304e-08
-6.86798e-09
-1.39598e-08
-6.54687e-09
-1.23713e-08
-6.20677e-09
-1.08692e-08
-5.84849e-09
-9.45726e-09
-5.473e-09
-8.13919e-09
-5.08151e-09
-6.91816e-09
-4.6755e-09
-5.79689e-09
-4.25678e-09
-4.77757e-09
-3.82752e-09
-3.86174e-09
-3.39041e-09
-3.05018e-09
-2.9487e-09
-2.34279e-09
-2.50634e-09
-1.73842e-09
-2.06817e-09
-1.23476e-09
-1.64009e-09
-8.28115e-10
-1.22928e-09
-5.1324e-10
-8.4451e-10
-2.83116e-10
-4.9644e-10
-1.28722e-10
-1.98016e-10
-3.87562e-11
3.50956e-11
6.95573e-13
1.84095e-10
6.64079e-12
2.26478e-10
1.33365e-10
-1.52758e-11
-8.48114e-11
-7.92301e-11
-6.49372e-11
-2.06844e-10
1.03927e-10
-4.10679e-10
3.85577e-10
-7.0094e-10
7.5236e-10
-1.08561e-09
1.18193e-09
-1.57062e-09
1.65604e-09
-2.16011e-09
2.15982e-09
-2.8566e-09
2.6812e-09
-3.66121e-09
3.21042e-09
-4.57383e-09
3.73963e-09
-5.59333e-09
4.26255e-09
-6.71769e-09
4.77422e-09
-7.94418e-09
5.27074e-09
-9.26945e-09
5.7491e-09
-1.06897e-08
6.20701e-09
-1.22006e-08
6.64278e-09
-1.37979e-08
7.05522e-09
-1.54766e-08
7.44351e-09
-1.72321e-08
7.80718e-09
-1.90592e-08
8.14602e-09
-2.09531e-08
8.46003e-09
-2.29087e-08
8.7494e-09
-2.49209e-08
9.01444e-09
-2.69849e-08
9.2556e-09
-2.90958e-08
9.47337e-09
-3.12488e-08
9.66836e-09
-3.34392e-08
9.84119e-09
-3.56625e-08
9.99254e-09
-3.79141e-08
1.01231e-08
-4.01899e-08
1.02336e-08
-4.24856e-08
1.03247e-08
-4.47971e-08
1.03972e-08
-4.71207e-08
1.04517e-08
-4.94524e-08
1.0489e-08
-5.17887e-08
1.05096e-08
-5.4126e-08
1.05144e-08
-5.6461e-08
1.05039e-08
-5.87904e-08
1.04787e-08
-6.11111e-08
1.04394e-08
-6.34201e-08
1.03865e-08
-6.57145e-08
1.03206e-08
-6.79913e-08
1.02423e-08
-7.02481e-08
1.01518e-08
-7.24821e-08
1.00498e-08
-7.46908e-08
9.93659e-09
-7.68718e-08
9.81257e-09