/*--------------------------------*- C++ -*----------------------------------*\
  =========                 |
  \\      /  F ield         | OpenFOAM: The Open Source CFD Toolbox
   \\    /   O peration     | Website:  https://openfoam.org
    \\  /    A nd           | Version:  7
     \\/     M anipulation  |
\*---------------------------------------------------------------------------*/
FoamFile
{
    version     2.0;
    format      ascii;
    class       volVectorField;
    location    "0.4875";
    object      U;
}
// * * * * * * * * * * * * * * * * * * * * * * * * * * * * * * * * * * * * * //

dimensions      [0 1 -1 0 0 0 0];

internalField   nonuniform List<vector> 
25600
(
(1.24123e-06 -1.32537e-06 0)
(4.90296e-06 -2.30571e-06 0)
(9.02919e-06 -1.9847e-06 0)
(1.12847e-05 -1.09442e-06 0)
(1.04786e-05 1.26554e-08 0)
(6.29584e-06 1.1647e-06 0)
(-1.30572e-06 2.27396e-06 0)
(-1.22088e-05 3.30431e-06 0)
(-2.62074e-05 4.24329e-06 0)
(-4.30592e-05 5.08607e-06 0)
(-6.25032e-05 5.83203e-06 0)
(-8.42787e-05 6.48767e-06 0)
(-0.000108135 7.06362e-06 0)
(-0.000133837 7.56729e-06 0)
(-0.000161162 8.00355e-06 0)
(-0.000189905 8.37833e-06 0)
(-0.000219878 8.69772e-06 0)
(-0.000250913 8.96703e-06 0)
(-0.000282854 9.19199e-06 0)
(-0.000315563 9.37918e-06 0)
(-0.000348917 9.53364e-06 0)
(-0.000382805 9.6587e-06 0)
(-0.00041713 9.75744e-06 0)
(-0.000451805 9.83267e-06 0)
(-0.000486752 9.88738e-06 0)
(-0.000521904 9.92493e-06 0)
(-0.000557203 9.94807e-06 0)
(-0.000592596 9.95857e-06 0)
(-0.000628036 9.958e-06 0)
(-0.000663485 9.94787e-06 0)
(-0.000698905 9.92905e-06 0)
(-0.000734266 9.90215e-06 0)
(-0.00076954 9.8684e-06 0)
(-0.0008047 9.82922e-06 0)
(-0.000839724 9.78518e-06 0)
(-0.00087459 9.73634e-06 0)
(-0.000909279 9.68278e-06 0)
(-0.000943772 9.62455e-06 0)
(-0.00097805 9.56155e-06 0)
(-0.00101209 9.49384e-06 0)
(-0.00104589 9.42178e-06 0)
(-0.00107941 9.34555e-06 0)
(-0.00111265 9.26479e-06 0)
(-0.00114557 9.17868e-06 0)
(-0.00117817 9.08645e-06 0)
(-0.00121041 8.98786e-06 0)
(-0.00124229 8.88312e-06 0)
(-0.00127376 8.77229e-06 0)
(-0.00130481 8.65486e-06 0)
(-0.00133542 8.52978e-06 0)
(-0.00136554 8.39607e-06 0)
(-0.00139516 8.25333e-06 0)
(-0.00142423 8.10157e-06 0)
(-0.00145274 7.94073e-06 0)
(-0.00148064 7.77034e-06 0)
(-0.00150789 7.58962e-06 0)
(-0.00153447 7.39781e-06 0)
(-0.00156033 7.19428e-06 0)
(-0.00158542 6.97869e-06 0)
(-0.00160972 6.75096e-06 0)
(-0.00163318 6.51106e-06 0)
(-0.00165575 6.25872e-06 0)
(-0.00167738 5.99333e-06 0)
(-0.00169804 5.71419e-06 0)
(-0.00171768 5.42089e-06 0)
(-0.00173624 5.11349e-06 0)
(-0.00175369 4.79232e-06 0)
(-0.00176997 4.45757e-06 0)
(-0.00178503 4.10902e-06 0)
(-0.00179884 3.74637e-06 0)
(-0.00181133 3.36943e-06 0)
(-0.00182247 2.97843e-06 0)
(-0.00183221 2.57395e-06 0)
(-0.0018405 2.15655e-06 0)
(-0.0018473 1.72665e-06 0)
(-0.00185257 1.28455e-06 0)
(-0.00185627 8.30575e-07 0)
(-0.00185836 3.65298e-07 0)
(-0.0018588 -1.10525e-07 0)
(-0.00185756 -5.95963e-07 0)
(-0.00185462 -1.08987e-06 0)
(-0.00184993 -1.59115e-06 0)
(-0.00184349 -2.09883e-06 0)
(-0.00183528 -2.61207e-06 0)
(-0.00182527 -3.12996e-06 0)
(-0.00181345 -3.65113e-06 0)
(-0.00179982 -4.17382e-06 0)
(-0.00178438 -4.69631e-06 0)
(-0.00176713 -5.21716e-06 0)
(-0.00174807 -5.73517e-06 0)
(-0.00172723 -6.24907e-06 0)
(-0.00170461 -6.75722e-06 0)
(-0.00168025 -7.25766e-06 0)
(-0.00165417 -7.74851e-06 0)
(-0.00162641 -8.22804e-06 0)
(-0.00159701 -8.69464e-06 0)
(-0.00156601 -9.14681e-06 0)
(-0.00153347 -9.58304e-06 0)
(-0.00149945 -1.00017e-05 0)
(-0.00146401 -1.0401e-05 0)
(-0.00142721 -1.07792e-05 0)
(-0.00138914 -1.11347e-05 0)
(-0.00134986 -1.14661e-05 0)
(-0.00130947 -1.17723e-05 0)
(-0.00126806 -1.20523e-05 0)
(-0.0012257 -1.23049e-05 0)
(-0.0011825 -1.25286e-05 0)
(-0.00113856 -1.27221e-05 0)
(-0.00109398 -1.28847e-05 0)
(-0.00104887 -1.3016e-05 0)
(-0.00100332 -1.31155e-05 0)
(-0.000957462 -1.31829e-05 0)
(-0.000911393 -1.32175e-05 0)
(-0.000865227 -1.32188e-05 0)
(-0.000819078 -1.31866e-05 0)
(-0.000773057 -1.31212e-05 0)
(-0.000727279 -1.30229e-05 0)
(-0.000681853 -1.28922e-05 0)
(-0.000636892 -1.27294e-05 0)
(-0.000592505 -1.25349e-05 0)
(-0.000548799 -1.23091e-05 0)
(-0.000505879 -1.20529e-05 0)
(-0.000463849 -1.1767e-05 0)
(-0.000422809 -1.14527e-05 0)
(-0.000382856 -1.1111e-05 0)
(-0.000344083 -1.07431e-05 0)
(-0.00030658 -1.035e-05 0)
(-0.000270433 -9.93264e-06 0)
(-0.000235723 -9.49231e-06 0)
(-0.000202529 -9.03053e-06 0)
(-0.000170922 -8.54898e-06 0)
(-0.000140971 -8.04916e-06 0)
(-0.000112738 -7.53235e-06 0)
(-8.62832e-05 -6.99978e-06 0)
(-6.16576e-05 -6.4529e-06 0)
(-3.89093e-05 -5.89334e-06 0)
(-1.80802e-05 -5.32283e-06 0)
(7.93958e-07 -4.74317e-06 0)
(1.76834e-05 -4.15613e-06 0)
(3.25649e-05 -3.56345e-06 0)
(4.54224e-05 -2.967e-06 0)
(5.62473e-05 -2.36867e-06 0)
(6.50393e-05 -1.77069e-06 0)
(7.18073e-05 -1.17584e-06 0)
(7.6571e-05 -5.87498e-07 0)
(7.93624e-05 -9.51116e-09 0)
(8.02282e-05 5.54018e-07 0)
(7.92318e-05 1.09835e-06 0)
(7.64571e-05 1.61751e-06 0)
(7.20132e-05 2.10291e-06 0)
(6.60415e-05 2.54293e-06 0)
(5.87233e-05 2.92242e-06 0)
(5.02912e-05 3.22159e-06 0)
(4.10439e-05 3.41313e-06 0)
(3.13685e-05 3.45738e-06 0)
(2.17697e-05 3.2973e-06 0)
(1.28985e-05 2.8564e-06 0)
(5.5685e-06 2.04039e-06 0)
(7.69616e-07 7.96869e-07 0)
(-4.31058e-07 -4.29816e-07 0)
(2.19754e-06 -4.8822e-06 0)
(7.38472e-06 -7.49727e-06 0)
(1.14962e-05 -5.19841e-06 0)
(1.04929e-05 -3.41963e-07 0)
(2.208e-06 5.72079e-06 0)
(-1.42886e-05 1.22093e-05 0)
(-3.92991e-05 1.86719e-05 0)
(-7.27191e-05 2.48606e-05 0)
(-0.000114197 3.06443e-05 0)
(-0.000163231 3.5961e-05 0)
(-0.000219238 4.07861e-05 0)
(-0.00028161 4.5122e-05 0)
(-0.000349734 4.89891e-05 0)
(-0.000423012 5.24133e-05 0)
(-0.000500873 5.54238e-05 0)
(-0.00058278 5.80528e-05 0)
(-0.000668234 6.03319e-05 0)
(-0.000756776 6.22923e-05 0)
(-0.000847984 6.39643e-05 0)
(-0.000941477 6.53776e-05 0)
(-0.00103691 6.65608e-05 0)
(-0.00113397 6.75387e-05 0)
(-0.00123237 6.8333e-05 0)
(-0.00133188 6.89643e-05 0)
(-0.00143226 6.94517e-05 0)
(-0.00153331 6.98127e-05 0)
(-0.00163487 7.00626e-05 0)
(-0.00173677 7.02141e-05 0)
(-0.00183888 7.02789e-05 0)
(-0.00194108 7.02677e-05 0)
(-0.00204324 7.01891e-05 0)
(-0.00214529 7.00497e-05 0)
(-0.00224712 6.98558e-05 0)
(-0.00234865 6.96129e-05 0)
(-0.00244983 6.93249e-05 0)
(-0.00255056 6.89951e-05 0)
(-0.0026508 6.86262e-05 0)
(-0.00275048 6.82197e-05 0)
(-0.00284954 6.77756e-05 0)
(-0.00294793 6.7294e-05 0)
(-0.00304558 6.67751e-05 0)
(-0.00314244 6.62188e-05 0)
(-0.00323845 6.56243e-05 0)
(-0.00333355 6.49897e-05 0)
(-0.00342768 6.43125e-05 0)
(-0.00352077 6.359e-05 0)
(-0.00361275 6.28203e-05 0)
(-0.00370355 6.20019e-05 0)
(-0.0037931 6.11324e-05 0)
(-0.00388132 6.02084e-05 0)
(-0.00396813 5.92263e-05 0)
(-0.00405343 5.8183e-05 0)
(-0.00413715 5.70758e-05 0)
(-0.00421918 5.59022e-05 0)
(-0.00429942 5.46594e-05 0)
(-0.00437778 5.33443e-05 0)
(-0.00445414 5.19539e-05 0)
(-0.0045284 5.04851e-05 0)
(-0.00460045 4.89353e-05 0)
(-0.00467016 4.7302e-05 0)
(-0.00473741 4.55835e-05 0)
(-0.00480208 4.37779e-05 0)
(-0.00486405 4.18833e-05 0)
(-0.00492319 3.98977e-05 0)
(-0.00497936 3.78195e-05 0)
(-0.00503243 3.56478e-05 0)
(-0.00508228 3.33823e-05 0)
(-0.00512877 3.10231e-05 0)
(-0.00517177 2.85703e-05 0)
(-0.00521114 2.60242e-05 0)
(-0.00524675 2.33854e-05 0)
(-0.00527848 2.06553e-05 0)
(-0.00530619 1.78358e-05 0)
(-0.00532977 1.49295e-05 0)
(-0.00534909 1.19395e-05 0)
(-0.00536405 8.8691e-06 0)
(-0.00537452 5.72203e-06 0)
(-0.00538041 2.50268e-06 0)
(-0.00538161 -7.83953e-07 0)
(-0.00537805 -4.13241e-06 0)
(-0.00536963 -7.53645e-06 0)
(-0.00535629 -1.09892e-05 0)
(-0.00533796 -1.44835e-05 0)
(-0.0053146 -1.80119e-05 0)
(-0.00528615 -2.15664e-05 0)
(-0.0052526 -2.51387e-05 0)
(-0.00521393 -2.87195e-05 0)
(-0.00517012 -3.22989e-05 0)
(-0.00512121 -3.5867e-05 0)
(-0.0050672 -3.94138e-05 0)
(-0.00500813 -4.29292e-05 0)
(-0.00494407 -4.64026e-05 0)
(-0.00487507 -4.98229e-05 0)
(-0.00480123 -5.31788e-05 0)
(-0.00472264 -5.64593e-05 0)
(-0.00463942 -5.96532e-05 0)
(-0.0045517 -6.27496e-05 0)
(-0.00445963 -6.57377e-05 0)
(-0.00436336 -6.86067e-05 0)
(-0.00426307 -7.13461e-05 0)
(-0.00415895 -7.39456e-05 0)
(-0.00405122 -7.63951e-05 0)
(-0.00394007 -7.86851e-05 0)
(-0.00382576 -8.08068e-05 0)
(-0.00370852 -8.27521e-05 0)
(-0.0035886 -8.45131e-05 0)
(-0.00346627 -8.60827e-05 0)
(-0.0033418 -8.74541e-05 0)
(-0.00321549 -8.86213e-05 0)
(-0.00308761 -8.95795e-05 0)
(-0.00295847 -9.03249e-05 0)
(-0.00282836 -9.0854e-05 0)
(-0.00269761 -9.11642e-05 0)
(-0.00256651 -9.12536e-05 0)
(-0.00243538 -9.1121e-05 0)
(-0.00230454 -9.07666e-05 0)
(-0.00217429 -9.01912e-05 0)
(-0.00204494 -8.93965e-05 0)
(-0.00191682 -8.8385e-05 0)
(-0.00179022 -8.71596e-05 0)
(-0.00166544 -8.57241e-05 0)
(-0.00154278 -8.40829e-05 0)
(-0.00142253 -8.22414e-05 0)
(-0.00130497 -8.02053e-05 0)
(-0.00119037 -7.79814e-05 0)
(-0.001079 -7.55766e-05 0)
(-0.000971104 -7.29984e-05 0)
(-0.000866933 -7.02544e-05 0)
(-0.000766717 -6.7353e-05 0)
(-0.000670676 -6.43029e-05 0)
(-0.000579017 -6.11135e-05 0)
(-0.000491935 -5.77945e-05 0)
(-0.00040961 -5.43556e-05 0)
(-0.000332208 -5.08068e-05 0)
(-0.000259883 -4.71583e-05 0)
(-0.00019277 -4.34213e-05 0)
(-0.000130989 -3.96072e-05 0)
(-7.46428e-05 -3.57281e-05 0)
(-2.38168e-05 -3.17967e-05 0)
(2.14234e-05 -2.78265e-05 0)
(6.10332e-05 -2.38321e-05 0)
(9.49906e-05 -1.98294e-05 0)
(0.000123299 -1.58363e-05 0)
(0.000145989 -1.18726e-05 0)
(0.000163125 -7.96149e-06 0)
(0.000174806 -4.13005e-06 0)
(0.000181176 -4.09865e-07 0)
(0.000182426 3.16153e-06 0)
(0.000178808 6.5389e-06 0)
(0.000170646 9.66594e-06 0)
(0.00015835 1.24721e-05 0)
(0.000142434 1.48684e-05 0)
(0.00012354 1.67415e-05 0)
(0.000102465 1.79471e-05 0)
(8.01955e-05 1.83009e-05 0)
(5.79384e-05 1.75733e-05 0)
(3.71206e-05 1.55013e-05 0)
(1.93425e-05 1.18309e-05 0)
(6.5014e-06 6.51901e-06 0)
(7.90052e-07 7.69244e-07 0)
(1.9838e-06 -9.02987e-06 0)
(5.21948e-06 -1.15605e-05 0)
(4.37456e-06 -4.3661e-06 0)
(-4.77211e-06 8.40086e-06 0)
(-2.47166e-05 2.41058e-05 0)
(-5.66839e-05 4.10455e-05 0)
(-0.000101163 5.81425e-05 0)
(-0.000158108 7.47323e-05 0)
(-0.000227111 9.04286e-05 0)
(-0.000307535 0.000105019 0)
(-0.000398606 0.000118398 0)
(-0.000499477 0.000130537 0)
(-0.000609278 0.000141453 0)
(-0.000727145 0.000151192 0)
(-0.000852239 0.000159818 0)
(-0.000983761 0.000167403 0)
(-0.00112096 0.000174028 0)
(-0.00126312 0.000179769 0)
(-0.00140962 0.000184705 0)
(-0.00155985 0.000188911 0)
(-0.00171327 0.000192461 0)
(-0.00186939 0.00019542 0)
(-0.00202778 0.00019785 0)
(-0.00218802 0.000199809 0)
(-0.00234976 0.000201347 0)
(-0.00251268 0.000202513 0)
(-0.0026765 0.000203349 0)
(-0.00284095 0.00020389 0)
(-0.00300581 0.000204171 0)
(-0.00317086 0.000204221 0)
(-0.00333594 0.000204064 0)
(-0.00350087 0.000203721 0)
(-0.0036655 0.000203212 0)
(-0.00382969 0.000202549 0)
(-0.00399332 0.000201745 0)
(-0.00415627 0.00020081 0)
(-0.00431843 0.000199752 0)
(-0.00447969 0.000198576 0)
(-0.00463996 0.000197284 0)
(-0.00479913 0.000195876 0)
(-0.0049571 0.000194354 0)
(-0.00511378 0.000192715 0)
(-0.00526907 0.000190959 0)
(-0.00542286 0.00018908 0)
(-0.00557506 0.000187074 0)
(-0.00572554 0.000184934 0)
(-0.00587419 0.000182654 0)
(-0.00602091 0.000180229 0)
(-0.00616556 0.000177651 0)
(-0.00630803 0.000174912 0)
(-0.00644816 0.000172005 0)
(-0.00658582 0.000168921 0)
(-0.00672087 0.000165651 0)
(-0.00685316 0.000162189 0)
(-0.00698251 0.000158525 0)
(-0.00710878 0.000154652 0)
(-0.00723179 0.000150562 0)
(-0.00735135 0.000146248 0)
(-0.0074673 0.000141702 0)
(-0.00757944 0.000136918 0)
(-0.00768759 0.00013189 0)
(-0.00779153 0.000126612 0)
(-0.00789109 0.000121079 0)
(-0.00798604 0.000115288 0)
(-0.00807619 0.000109235 0)
(-0.00816134 0.000102918 0)
(-0.00824126 9.63338e-05 0)
(-0.00831575 8.94838e-05 0)
(-0.00838461 8.23685e-05 0)
(-0.00844762 7.49895e-05 0)
(-0.00850459 6.73498e-05 0)
(-0.0085553 5.94534e-05 0)
(-0.00859956 5.13061e-05 0)
(-0.00863717 4.29148e-05 0)
(-0.00866796 3.42881e-05 0)
(-0.00869174 2.54359e-05 0)
(-0.00870834 1.63697e-05 0)
(-0.00871761 7.10209e-06 0)
(-0.00871938 -2.35245e-06 0)
(-0.00871353 -1.19782e-05 0)
(-0.00869992 -2.1758e-05 0)
(-0.00867846 -3.16727e-05 0)
(-0.00864904 -4.17017e-05 0)
(-0.00861159 -5.18234e-05 0)
(-0.00856604 -6.20149e-05 0)
(-0.00851235 -7.22521e-05 0)
(-0.00845051 -8.25094e-05 0)
(-0.00838051 -9.27599e-05 0)
(-0.00830237 -0.000102976 0)
(-0.00821613 -0.000113128 0)
(-0.00812185 -0.000123188 0)
(-0.00801963 -0.000133126 0)
(-0.00790957 -0.00014291 0)
(-0.00779181 -0.000152511 0)
(-0.00766651 -0.000161896 0)
(-0.00753384 -0.000171035 0)
(-0.00739403 -0.000179897 0)
(-0.00724729 -0.000188451 0)
(-0.00709388 -0.000196667 0)
(-0.00693408 -0.000204516 0)
(-0.0067682 -0.000211968 0)
(-0.00659654 -0.000218997 0)
(-0.00641947 -0.000225576 0)
(-0.00623732 -0.000231679 0)
(-0.0060505 -0.000237284 0)
(-0.0058594 -0.000242367 0)
(-0.00566443 -0.00024691 0)
(-0.00546603 -0.000250894 0)
(-0.00526464 -0.000254303 0)
(-0.00506071 -0.000257121 0)
(-0.00485472 -0.000259338 0)
(-0.00464713 -0.000260944 0)
(-0.00443844 -0.00026193 0)
(-0.00422912 -0.000262293 0)
(-0.00401966 -0.000262029 0)
(-0.00381057 -0.000261137 0)
(-0.00360233 -0.000259619 0)
(-0.00339543 -0.000257479 0)
(-0.00319036 -0.000254723 0)
(-0.0029876 -0.000251361 0)
(-0.00278763 -0.000247401 0)
(-0.0025909 -0.000242856 0)
(-0.00239788 -0.00023774 0)
(-0.00220901 -0.00023207 0)
(-0.00202473 -0.000225863 0)
(-0.00184545 -0.000219138 0)
(-0.00167157 -0.000211916 0)
(-0.00150349 -0.000204218 0)
(-0.00134156 -0.000196069 0)
(-0.00118615 -0.000187492 0)
(-0.00103758 -0.000178514 0)
(-0.000896163 -0.00016916 0)
(-0.000762188 -0.000159459 0)
(-0.000635923 -0.000149441 0)
(-0.000517611 -0.000139134 0)
(-0.00040747 -0.000128571 0)
(-0.000305692 -0.000117786 0)
(-0.000212443 -0.000106812 0)
(-0.000127858 -9.56875e-05 0)
(-5.20401e-05 -8.44528e-05 0)
(1.49408e-05 -7.31514e-05 0)
(7.30528e-05 -6.18309e-05 0)
(0.000122305 -5.05446e-05 0)
(0.000162753 -3.93521e-05 0)
(0.000194504 -2.83217e-05 0)
(0.000217725 -1.75323e-05 0)
(0.000232652 -7.07623e-06 0)
(0.000239599 2.9375e-06 0)
(0.000238972 1.23786e-05 0)
(0.000231286 2.10906e-05 0)
(0.000217187 2.88827e-05 0)
(0.000197467 3.55217e-05 0)
(0.000173098 4.07219e-05 0)
(0.000145257 4.41363e-05 0)
(0.000115353 4.53502e-05 0)
(8.50535e-05 4.38885e-05 0)
(5.62467e-05 3.92616e-05 0)
(3.09678e-05 3.10751e-05 0)
(1.17517e-05 1.93391e-05 0)
(2.01579e-06 5.54274e-06 0)
(1.12154e-06 -1.12795e-05 0)
(3.87091e-07 -1.05398e-05 0)
(-8.43876e-06 4.80303e-06 0)
(-2.89425e-05 2.88174e-05 0)
(-6.34613e-05 5.76689e-05 0)
(-0.00011328 8.87102e-05 0)
(-0.000178932 0.000120164 0)
(-0.000260372 0.000150881 0)
(-0.00035715 0.000180143 0)
(-0.000468545 0.000207523 0)
(-0.000593656 0.000232795 0)
(-0.000731477 0.000255866 0)
(-0.000880955 0.000276731 0)
(-0.00104103 0.000295448 0)
(-0.00121066 0.000312112 0)
(-0.00138883 0.000326841 0)
(-0.00157459 0.000339768 0)
(-0.00176705 0.00035103 0)
(-0.00196537 0.000360763 0)
(-0.00216878 0.000369104 0)
(-0.00237656 0.000376183 0)
(-0.00258807 0.000382121 0)
(-0.00280273 0.000387032 0)
(-0.00301999 0.000391024 0)
(-0.00323937 0.000394193 0)
(-0.00346045 0.000396627 0)
(-0.00368283 0.000398406 0)
(-0.00390615 0.000399601 0)
(-0.0041301 0.000400274 0)
(-0.0043544 0.000400481 0)
(-0.00457879 0.00040027 0)
(-0.00480303 0.000399683 0)
(-0.00502692 0.000398755 0)
(-0.00525025 0.000397513 0)
(-0.00547286 0.000395982 0)
(-0.00569456 0.000394182 0)
(-0.0059152 0.000392127 0)
(-0.00613464 0.000389827 0)
(-0.00635272 0.000387289 0)
(-0.00656931 0.000384517 0)
(-0.00678425 0.000381509 0)
(-0.00699743 0.000378265 0)
(-0.00720868 0.00037478 0)
(-0.00741786 0.000371047 0)
(-0.00762484 0.000367058 0)
(-0.00782945 0.000362802 0)
(-0.00803154 0.000358268 0)
(-0.00823095 0.000353444 0)
(-0.0084275 0.000348316 0)
(-0.00862102 0.00034287 0)
(-0.00881132 0.000337091 0)
(-0.00899821 0.000330965 0)
(-0.00918149 0.000324476 0)
(-0.00936096 0.000317609 0)
(-0.0095364 0.000310348 0)
(-0.00970758 0.000302679 0)
(-0.00987428 0.000294587 0)
(-0.0100362 0.000286058 0)
(-0.0101933 0.000277081 0)
(-0.010345 0.000267641 0)
(-0.0104914 0.000257727 0)
(-0.0106319 0.000247331 0)
(-0.0107665 0.000236442 0)
(-0.0108948 0.000225053 0)
(-0.0110165 0.00021316 0)
(-0.0111314 0.000200756 0)
(-0.0112393 0.000187841 0)
(-0.0113397 0.000174414 0)
(-0.0114325 0.000160476 0)
(-0.0115173 0.000146032 0)
(-0.0115939 0.000131088 0)
(-0.0116621 0.000115653 0)
(-0.0117215 9.97385e-05 0)
(-0.011772 8.33576e-05 0)
(-0.0118132 6.65274e-05 0)
(-0.011845 4.92671e-05 0)
(-0.011867 3.15993e-05 0)
(-0.0118792 1.3549e-05 0)
(-0.0118813 -4.85585e-06 0)
(-0.0118731 -2.35844e-05 0)
(-0.0118545 -4.26033e-05 0)
(-0.0118253 -6.18759e-05 0)
(-0.0117854 -8.13631e-05 0)
(-0.0117347 -0.000101023 0)
(-0.0116732 -0.000120811 0)
(-0.0116007 -0.00014068 0)
(-0.0115173 -0.000160582 0)
(-0.011423 -0.000180464 0)
(-0.0113177 -0.000200275 0)
(-0.0112016 -0.000219959 0)
(-0.0110747 -0.00023946 0)
(-0.0109372 -0.000258721 0)
(-0.0107892 -0.000277683 0)
(-0.0106309 -0.000296286 0)
(-0.0104625 -0.000314473 0)
(-0.0102842 -0.000332183 0)
(-0.0100964 -0.000349358 0)
(-0.00989926 -0.000365939 0)
(-0.00969323 -0.000381868 0)
(-0.00947864 -0.00039709 0)
(-0.0092559 -0.000411549 0)
(-0.00902543 -0.000425194 0)
(-0.00878768 -0.000437974 0)
(-0.00854313 -0.000449841 0)
(-0.0082923 -0.00046075 0)
(-0.00803571 -0.000470658 0)
(-0.00777391 -0.000479529 0)
(-0.00750748 -0.000487326 0)
(-0.00723699 -0.000494019 0)
(-0.00696305 -0.000499581 0)
(-0.00668628 -0.000503987 0)
(-0.00640731 -0.00050722 0)
(-0.00612678 -0.000509264 0)
(-0.00584533 -0.000510109 0)
(-0.00556361 -0.00050975 0)
(-0.00528226 -0.000508185 0)
(-0.00500196 -0.000505416 0)
(-0.00472333 -0.000501451 0)
(-0.00444703 -0.000496301 0)
(-0.0041737 -0.000489981 0)
(-0.00390397 -0.00048251 0)
(-0.00363845 -0.00047391 0)
(-0.00337775 -0.00046421 0)
(-0.00312247 -0.000453438 0)
(-0.00287319 -0.000441627 0)
(-0.00263044 -0.000428814 0)
(-0.00239479 -0.000415037 0)
(-0.00216674 -0.000400339 0)
(-0.00194679 -0.000384764 0)
(-0.0017354 -0.000368358 0)
(-0.00153302 -0.00035117 0)
(-0.00134007 -0.000333253 0)
(-0.00115694 -0.000314659 0)
(-0.000983983 -0.000295445 0)
(-0.000821526 -0.000275669 0)
(-0.000669865 -0.000255395 0)
(-0.000529256 -0.000234686 0)
(-0.000399922 -0.000213611 0)
(-0.000282042 -0.000192245 0)
(-0.000175754 -0.000170667 0)
(-8.11493e-05 -0.000148963 0)
(1.73315e-06 -0.000127228 0)
(7.29101e-05 -0.000105567 0)
(0.000132461 -8.41e-05 0)
(0.000180536 -6.29595e-05 0)
(0.000217363 -4.23003e-05 0)
(0.000243264 -2.23011e-05 0)
(0.00025866 -3.1715e-06 0)
(0.000264094 1.48414e-05 0)
(0.000260246 3.14453e-05 0)
(0.000247951 4.62915e-05 0)
(0.000228225 5.89638e-05 0)
(0.000202291 6.89674e-05 0)
(0.000171598 7.57198e-05 0)
(0.000137851 7.85507e-05 0)
(0.000103019 7.6725e-05 0)
(6.92962e-05 6.9511e-05 0)
(3.90362e-05 5.63233e-05 0)
(1.53433e-05 3.70337e-05 0)
(2.80583e-06 1.2801e-05 0)
(1.43855e-08 -1.05254e-05 0)
(-5.75026e-06 -2.17422e-06 0)
(-2.44346e-05 2.49111e-05 0)
(-5.84001e-05 6.3429e-05 0)
(-0.000109487 0.000108506 0)
(-0.000178859 0.000156654 0)
(-0.000266956 0.000205442 0)
(-0.000373665 0.000253231 0)
(-0.00049847 0.000298946 0)
(-0.000640567 0.000341919 0)
(-0.000798958 0.000381771 0)
(-0.000972521 0.000418321 0)
(-0.00116007 0.000451528 0)
(-0.0013604 0.000481449 0)
(-0.0015723 0.000508205 0)
(-0.00179461 0.000531955 0)
(-0.00202623 0.000552886 0)
(-0.00226608 0.000571199 0)
(-0.00251318 0.000587097 0)
(-0.00276661 0.000600782 0)
(-0.00302552 0.000612451 0)
(-0.00328912 0.00062229 0)
(-0.00355669 0.000630476 0)
(-0.00382759 0.000637172 0)
(-0.00410122 0.00064253 0)
(-0.00437703 0.000646689 0)
(-0.00465456 0.000649773 0)
(-0.00493334 0.000651894 0)
(-0.00521299 0.000653152 0)
(-0.00549315 0.000653635 0)
(-0.00577348 0.000653421 0)
(-0.00605369 0.000652574 0)
(-0.0063335 0.000651153 0)
(-0.00661267 0.000649204 0)
(-0.00689096 0.000646767 0)
(-0.00716815 0.000643872 0)
(-0.00744403 0.000640544 0)
(-0.00771841 0.0006368 0)
(-0.0079911 0.000632652 0)
(-0.00826191 0.000628106 0)
(-0.00853066 0.000623164 0)
(-0.00879717 0.000617824 0)
(-0.00906125 0.000612078 0)
(-0.00932272 0.000605916 0)
(-0.00958138 0.000599327 0)
(-0.00983704 0.000592294 0)
(-0.0100895 0.000584801 0)
(-0.0103385 0.000576828 0)
(-0.010584 0.000568354 0)
(-0.0108256 0.000559356 0)
(-0.011063 0.000549813 0)
(-0.0112962 0.000539701 0)
(-0.0115248 0.000528996 0)
(-0.0117486 0.000517674 0)
(-0.0119673 0.000505712 0)
(-0.0121805 0.000493085 0)
(-0.0123882 0.000479773 0)
(-0.0125898 0.000465753 0)
(-0.0127852 0.000451004 0)
(-0.0129741 0.000435509 0)
(-0.013156 0.00041925 0)
(-0.0133307 0.00040221 0)
(-0.0134979 0.000384377 0)
(-0.0136572 0.000365739 0)
(-0.0138083 0.000346288 0)
(-0.0139508 0.000326018 0)
(-0.0140845 0.000304927 0)
(-0.0142089 0.000283014 0)
(-0.0143238 0.000260283 0)
(-0.0144287 0.000236741 0)
(-0.0145235 0.0002124 0)
(-0.0146076 0.000187273 0)
(-0.014681 0.000161381 0)
(-0.0147431 0.000134746 0)
(-0.0147937 0.000107395 0)
(-0.0148326 7.93608e-05 0)
(-0.0148595 5.06789e-05 0)
(-0.0148741 2.13904e-05 0)
(-0.0148762 -8.45941e-06 0)
(-0.0148656 -3.88205e-05 0)
(-0.014842 -6.96385e-05 0)
(-0.0148054 -0.000100855 0)
(-0.0147555 -0.000132406 0)
(-0.0146923 -0.000164225 0)
(-0.0146157 -0.000196241 0)
(-0.0145256 -0.000228377 0)
(-0.014422 -0.000260557 0)
(-0.0143049 -0.000292696 0)
(-0.0141743 -0.000324712 0)
(-0.0140304 -0.000356515 0)
(-0.0138732 -0.000388017 0)
(-0.0137029 -0.000419125 0)
(-0.0135196 -0.000449747 0)
(-0.0133237 -0.000479788 0)
(-0.0131153 -0.000509154 0)
(-0.0128948 -0.000537751 0)
(-0.0126626 -0.000565483 0)
(-0.0124189 -0.00059226 0)
(-0.0121642 -0.000617988 0)
(-0.011899 -0.000642579 0)
(-0.0116238 -0.000665946 0)
(-0.011339 -0.000688006 0)
(-0.0110453 -0.000708677 0)
(-0.0107431 -0.000727885 0)
(-0.0104333 -0.000745558 0)
(-0.0101163 -0.000761628 0)
(-0.00979282 -0.000776035 0)
(-0.00946363 -0.000788723 0)
(-0.0091294 -0.000799642 0)
(-0.00879088 -0.000808749 0)
(-0.00844881 -0.000816006 0)
(-0.00810396 -0.000821384 0)
(-0.00775711 -0.000824858 0)
(-0.00740904 -0.000826411 0)
(-0.00706054 -0.000826034 0)
(-0.00671241 -0.000823724 0)
(-0.00636544 -0.000819484 0)
(-0.00602043 -0.000813325 0)
(-0.00567815 -0.000805264 0)
(-0.0053394 -0.000795325 0)
(-0.00500493 -0.000783537 0)
(-0.00467552 -0.000769937 0)
(-0.00435189 -0.000754564 0)
(-0.00403477 -0.000737467 0)
(-0.00372487 -0.000718698 0)
(-0.00342288 -0.000698313 0)
(-0.00312944 -0.000676374 0)
(-0.0028452 -0.000652948 0)
(-0.00257076 -0.000628105 0)
(-0.0023067 -0.000601919 0)
(-0.00205357 -0.000574469 0)
(-0.00181187 -0.000545837 0)
(-0.00158209 -0.00051611 0)
(-0.00136467 -0.000485379 0)
(-0.00116 -0.000453738 0)
(-0.00096846 -0.000421288 0)
(-0.000790355 -0.000388136 0)
(-0.000625958 -0.000354393 0)
(-0.000475492 -0.000320181 0)
(-0.000339122 -0.00028563 0)
(-0.000216958 -0.000250882 0)
(-0.000109045 -0.000216092 0)
(-1.53572e-05 -0.000181432 0)
(6.42075e-05 -0.000147096 0)
(0.000129838 -0.000113302 0)
(0.00018182 -8.02984e-05 0)
(0.000220546 -4.83719e-05 0)
(0.000246535 -1.78537e-05 0)
(0.000260441 1.08699e-05 0)
(0.000263078 3.73469e-05 0)
(0.000255434 6.10476e-05 0)
(0.000238699 8.13526e-05 0)
(0.000214278 9.75415e-05 0)
(0.000183819 0.000108785 0)
(0.00014923 0.000114153 0)
(0.000112694 0.000112641 0)
(7.66311e-05 0.000103246 0)
(4.36611e-05 8.51028e-05 0)
(1.73664e-05 5.7731e-05 0)
(3.22168e-06 2.15525e-05 0)
(-1.15738e-06 -6.32513e-06 0)
(-1.24413e-05 1.46207e-05 0)
(-4.20015e-05 5.74131e-05 0)
(-9.06694e-05 0.000113818 0)
(-0.000159583 0.000178138 0)
(-0.000249619 0.000246194 0)
(-0.000361017 0.000314981 0)
(-0.000493519 0.000382409 0)
(-0.000646498 0.000447063 0)
(-0.000819057 0.000508032 0)
(-0.0010101 0.000564768 0)
(-0.00121842 0.000616993 0)
(-0.0014427 0.000664617 0)
(-0.00168164 0.000707687 0)
(-0.00193391 0.000746341 0)
(-0.00219821 0.000780779 0)
(-0.00247332 0.000811241 0)
(-0.00275803 0.00083799 0)
(-0.00305124 0.000861299 0)
(-0.0033519 0.000881443 0)
(-0.00365903 0.000898689 0)
(-0.00397174 0.000913294 0)
(-0.0042892 0.000925505 0)
(-0.00461066 0.000935548 0)
(-0.00493541 0.000943638 0)
(-0.00526284 0.000949967 0)
(-0.00559235 0.000954713 0)
(-0.00592345 0.000958036 0)
(-0.00625564 0.000960078 0)
(-0.0065885 0.000960966 0)
(-0.00692163 0.00096081 0)
(-0.00725467 0.000959705 0)
(-0.00758729 0.000957733 0)
(-0.00791918 0.000954964 0)
(-0.00825006 0.000951455 0)
(-0.00857965 0.000947252 0)
(-0.00890771 0.00094239 0)
(-0.00923399 0.000936897 0)
(-0.00955826 0.000930788 0)
(-0.00988029 0.000924076 0)
(-0.0101998 0.000916764 0)
(-0.0105167 0.000908849 0)
(-0.0108307 0.000900322 0)
(-0.0111415 0.000891171 0)
(-0.0114489 0.000881378 0)
(-0.0117527 0.000870922 0)
(-0.0120526 0.000859778 0)
(-0.0123485 0.00084792 0)
(-0.0126399 0.000835319 0)
(-0.0129267 0.000821944 0)
(-0.0132086 0.000807762 0)
(-0.0134853 0.00079274 0)
(-0.0137565 0.000776846 0)
(-0.0140219 0.000760045 0)
(-0.0142811 0.000742304 0)
(-0.0145339 0.000723591 0)
(-0.0147799 0.000703874 0)
(-0.0150187 0.000683122 0)
(-0.01525 0.000661307 0)
(-0.0154734 0.000638403 0)
(-0.0156886 0.000614385 0)
(-0.0158952 0.000589233 0)
(-0.0160927 0.000562927 0)
(-0.0162809 0.000535452 0)
(-0.0164592 0.000506798 0)
(-0.0166274 0.000476956 0)
(-0.016785 0.000445924 0)
(-0.0169316 0.000413703 0)
(-0.0170668 0.0003803 0)
(-0.0171903 0.000345726 0)
(-0.0173017 0.000309998 0)
(-0.0174005 0.000273138 0)
(-0.0174864 0.000235175 0)
(-0.0175592 0.000196144 0)
(-0.0176183 0.000156084 0)
(-0.0176635 0.000115044 0)
(-0.0176946 7.30758e-05 0)
(-0.0177111 3.02399e-05 0)
(-0.0177129 -1.33976e-05 0)
(-0.0176996 -5.77638e-05 0)
(-0.0176712 -0.000102779 0)
(-0.0176273 -0.000148358 0)
(-0.0175678 -0.000194409 0)
(-0.0174927 -0.000240834 0)
(-0.0174018 -0.00028753 0)
(-0.017295 -0.000334389 0)
(-0.0171723 -0.000381295 0)
(-0.0170338 -0.000428131 0)
(-0.0168795 -0.000474774 0)
(-0.0167095 -0.000521098 0)
(-0.016524 -0.000566973 0)
(-0.016323 -0.000612268 0)
(-0.0161069 -0.000656848 0)
(-0.015876 -0.000700577 0)
(-0.0156304 -0.000743321 0)
(-0.0153707 -0.000784942 0)
(-0.0150971 -0.000825307 0)
(-0.0148102 -0.000864281 0)
(-0.0145104 -0.000901734 0)
(-0.0141982 -0.000937538 0)
(-0.0138743 -0.000971567 0)
(-0.0135393 -0.0010037 0)
(-0.0131937 -0.00103383 0)
(-0.0128383 -0.00106183 0)
(-0.0124737 -0.00108762 0)
(-0.0121009 -0.00111109 0)
(-0.0117204 -0.00113216 0)
(-0.0113332 -0.00115074 0)
(-0.01094 -0.00116676 0)
(-0.0105417 -0.00118017 0)
(-0.0101393 -0.0011909 0)
(-0.00973349 -0.00119892 0)
(-0.00932528 -0.00120418 0)
(-0.00891557 -0.00120667 0)
(-0.00850526 -0.00120637 0)
(-0.00809529 -0.00120328 0)
(-0.00768658 -0.0011974 0)
(-0.00728003 -0.00118874 0)
(-0.00687658 -0.00117732 0)
(-0.00647712 -0.00116319 0)
(-0.00608255 -0.00114639 0)
(-0.00569375 -0.00112695 0)
(-0.00531159 -0.00110495 0)
(-0.0049369 -0.00108045 0)
(-0.0045705 -0.00105352 0)
(-0.0042132 -0.00102424 0)
(-0.00386575 -0.000992708 0)
(-0.00352891 -0.000959013 0)
(-0.00320338 -0.000923257 0)
(-0.00288983 -0.000885548 0)
(-0.0025889 -0.000845997 0)
(-0.00230118 -0.000804726 0)
(-0.00202725 -0.000761859 0)
(-0.00176761 -0.000717529 0)
(-0.00152273 -0.000671873 0)
(-0.00129304 -0.000625039 0)
(-0.0010789 -0.000577183 0)
(-0.000880627 -0.000528469 0)
(-0.000698482 -0.000479077 0)
(-0.000532654 -0.000429196 0)
(-0.000383268 -0.000379036 0)
(-0.000250372 -0.000328825 0)
(-0.000133933 -0.000278816 0)
(-3.38271e-05 -0.000229291 0)
(5.01694e-05 -0.000180567 0)
(0.000118391 -0.000133004 0)
(0.000171295 -8.7012e-05 0)
(0.000209476 -4.30617e-05 0)
(0.000233684 -1.69529e-06 0)
(0.000244837 3.64604e-05 0)
(0.000244045 7.0681e-05 0)
(0.000232624 0.000100132 0)
(0.000212119 0.000123859 0)
(0.000184318 0.00014078 0)
(0.000151276 0.000149698 0)
(0.000115333 0.000149325 0)
(7.90837e-05 0.00013835 0)
(4.5371e-05 0.000115543 0)
(1.81272e-05 7.99234e-05 0)
(3.36706e-06 3.10107e-05 0)
(-2.31386e-06 1.4309e-06 0)
(-1.92613e-05 4.03385e-05 0)
(-6.01327e-05 0.000103086 0)
(-0.000124118 0.000180879 0)
(-0.000211526 0.000267454 0)
(-0.000322843 0.000358098 0)
(-0.000458016 0.000449339 0)
(-0.00061657 0.000538703 0)
(-0.000797725 0.000624474 0)
(-0.00100046 0.000705514 0)
(-0.00122358 0.000781117 0)
(-0.00146577 0.000850903 0)
(-0.00172564 0.000914729 0)
(-0.00200178 0.000972628 0)
(-0.00229275 0.00102475 0)
(-0.00259718 0.00107133 0)
(-0.00291371 0.00111267 0)
(-0.00324106 0.00114909 0)
(-0.003578 0.00118092 0)
(-0.00392339 0.00120853 0)
(-0.00427616 0.00123225 0)
(-0.0046353 0.00125242 0)
(-0.00499989 0.00126934 0)
(-0.0053691 0.00128333 0)
(-0.00574213 0.00129466 0)
(-0.00611828 0.00130358 0)
(-0.00649689 0.00131034 0)
(-0.00687736 0.00131513 0)
(-0.00725916 0.00131815 0)
(-0.00764179 0.00131957 0)
(-0.00802478 0.00131954 0)
(-0.00840772 0.00131819 0)
(-0.00879022 0.00131562 0)
(-0.00917192 0.00131192 0)
(-0.00955248 0.00130719 0)
(-0.00993159 0.00130148 0)
(-0.0103089 0.00129484 0)
(-0.0106843 0.0012873 0)
(-0.0110573 0.0012789 0)
(-0.0114277 0.00126964 0)
(-0.0117952 0.00125954 0)
(-0.0121596 0.00124859 0)
(-0.0125207 0.00123678 0)
(-0.012878 0.00122409 0)
(-0.0132314 0.00121051 0)
(-0.0135807 0.001196 0)
(-0.0139254 0.00118054 0)
(-0.0142653 0.00116408 0)
(-0.0146001 0.00114659 0)
(-0.0149296 0.00112803 0)
(-0.0152532 0.00110836 0)
(-0.0155709 0.00108754 0)
(-0.0158821 0.00106551 0)
(-0.0161865 0.00104224 0)
(-0.0164838 0.00101768 0)
(-0.0167736 0.000991785 0)
(-0.0170555 0.00096452 0)
(-0.0173291 0.000935841 0)
(-0.017594 0.000905713 0)
(-0.0178498 0.000874099 0)
(-0.0180961 0.000840969 0)
(-0.0183323 0.000806295 0)
(-0.0185582 0.000770054 0)
(-0.0187732 0.000732226 0)
(-0.0189769 0.000692797 0)
(-0.0191688 0.000651759 0)
(-0.0193486 0.000609108 0)
(-0.0195157 0.00056485 0)
(-0.0196697 0.000518993 0)
(-0.0198103 0.000471554 0)
(-0.0199368 0.000422558 0)
(-0.0200491 0.000372038 0)
(-0.0201465 0.000320031 0)
(-0.0202288 0.000266587 0)
(-0.0202955 0.000211762 0)
(-0.0203463 0.00015562 0)
(-0.0203809 9.82358e-05 0)
(-0.0203988 3.96903e-05 0)
(-0.0203999 -1.99255e-05 0)
(-0.0203839 -8.05121e-05 0)
(-0.0203505 -0.000141961 0)
(-0.0202996 -0.000204157 0)