0.05 	0.0003125 	0.005 	0.00252828
0.05 	0.0009375 	0.005 	0.0025229
0.05 	0.0015625 	0.005 	0.00251818
0.05 	0.0021875 	0.005 	0.00251375
0.05 	0.0028125 	0.005 	0.0025092
0.05 	0.0034375 	0.005 	0.00250451
0.05 	0.0040625 	0.005 	0.0024996
0.05 	0.0046875 	0.005 	0.00249438
0.05 	0.0053125 	0.005 	0.00248874
0.05 	0.0059375 	0.005 	0.00248255
0.05 	0.0065625 	0.005 	0.00247569
0.05 	0.0071875 	0.005 	0.00246803
0.05 	0.0078125 	0.005 	0.00245941
0.05 	0.0084375 	0.005 	0.00244969
0.05 	0.0090625 	0.005 	0.00243869
0.05 	0.0096875 	0.005 	0.00242626
0.05 	0.0103125 	0.005 	0.00241222
0.05 	0.0109375 	0.005 	0.00239637
0.05 	0.0115625 	0.005 	0.00237852
0.05 	0.0121875 	0.005 	0.00235846
0.05 	0.0128125 	0.005 	0.00233596
0.05 	0.0134375 	0.005 	0.00231081
0.05 	0.0140625 	0.005 	0.00228273
0.05 	0.0146875 	0.005 	0.00225146
0.05 	0.0153125 	0.005 	0.00221671
0.05 	0.0159375 	0.005 	0.00217817
0.05 	0.0165625 	0.005 	0.00213551
0.05 	0.0171875 	0.005 	0.00208836
0.05 	0.0178125 	0.005 	0.00203632
0.05 	0.0184375 	0.005 	0.00197898
0.05 	0.0190625 	0.005 	0.00191588
0.05 	0.0196875 	0.005 	0.00184652
0.05 	0.0203125 	0.005 	0.00177036
0.05 	0.0209375 	0.005 	0.00168682
0.05 	0.0215625 	0.005 	0.00159527
0.05 	0.0221875 	0.005 	0.00149504
0.05 	0.0228125 	0.005 	0.0013854
0.05 	0.0234375 	0.005 	0.00126554
0.05 	0.0240625 	0.005 	0.00113463
0.05 	0.0246875 	0.005 	0.000991749
0.05 	0.0253125 	0.005 	0.000835919
0.05 	0.0259375 	0.005 	0.000666092
0.05 	0.0265625 	0.005 	0.00048115
0.05 	0.0271875 	0.005 	0.000279902
0.05 	0.0278125 	0.005 	6.10849e-05
0.05 	0.0284375 	0.005 	-0.000176634
0.05 	0.0290625 	0.005 	-0.000434656
0.05 	0.0296875 	0.005 	-0.000714452
0.05 	0.0303125 	0.005 	-0.00101755
0.05 	0.0309375 	0.005 	-0.00134555
0.05 	0.0315625 	0.005 	-0.00170009
0.05 	0.0321875 	0.005 	-0.00208285
0.05 	0.0328125 	0.005 	-0.00249555
0.05 	0.0334375 	0.005 	-0.00293995
0.05 	0.0340625 	0.005 	-0.00341781
0.05 	0.0346875 	0.005 	-0.00393088
0.05 	0.0353125 	0.005 	-0.0044809
0.05 	0.0359375 	0.005 	-0.00506957
0.05 	0.0365625 	0.005 	-0.00569851
0.05 	0.0371875 	0.005 	-0.00636929
0.05 	0.0378125 	0.005 	-0.00708333
0.05 	0.0384375 	0.005 	-0.00784195
0.05 	0.0390625 	0.005 	-0.00864629
0.05 	0.0396875 	0.005 	-0.00949733
0.05 	0.0403125 	0.005 	-0.0103958
0.05 	0.0409375 	0.005 	-0.0113423
0.05 	0.0415625 	0.005 	-0.012337
0.05 	0.0421875 	0.005 	-0.01338
0.05 	0.0428125 	0.005 	-0.0144709
0.05 	0.0434375 	0.005 	-0.0156091
0.05 	0.0440625 	0.005 	-0.0167936
0.05 	0.0446875 	0.005 	-0.018023
0.05 	0.0453125 	0.005 	-0.0192957
0.05 	0.0459375 	0.005 	-0.0206096
0.05 	0.0465625 	0.005 	-0.0219623
0.05 	0.0471875 	0.005 	-0.0233509
0.05 	0.0478125 	0.005 	-0.0247725
0.05 	0.0484375 	0.005 	-0.0262234
0.05 	0.0490625 	0.005 	-0.0277
0.05 	0.0496875 	0.005 	-0.0291981
0.05 	0.0503125 	0.005 	-0.0307134
0.05 	0.0509375 	0.005 	-0.0322412
0.05 	0.0515625 	0.005 	-0.0337769
0.05 	0.0521875 	0.005 	-0.0353156
0.05 	0.0528125 	0.005 	-0.036852
0.05 	0.0534375 	0.005 	-0.0383813
0.05 	0.0540625 	0.005 	-0.0398981
0.05 	0.0546875 	0.005 	-0.0413973
0.05 	0.0553125 	0.005 	-0.0428739
0.05 	0.0559375 	0.005 	-0.0443228
0.05 	0.0565625 	0.005 	-0.0457393
0.05 	0.0571875 	0.005 	-0.0471185
0.05 	0.0578125 	0.005 	-0.0484559
0.05 	0.0584375 	0.005 	-0.0497475
0.05 	0.0590625 	0.005 	-0.0509891
0.05 	0.0596875 	0.005 	-0.0521771
0.05 	0.0603125 	0.005 	-0.0533081
0.05 	0.0609375 	0.005 	-0.0543791
0.05 	0.0615625 	0.005 	-0.0553874
0.05 	0.0621875 	0.005 	-0.0563307
0.05 	0.0628125 	0.005 	-0.057207
0.05 	0.0634375 	0.005 	-0.0580148
0.05 	0.0640625 	0.005 	-0.0587527
0.05 	0.0646875 	0.005 	-0.05942
0.05 	0.0653125 	0.005 	-0.0600162
0.05 	0.0659375 	0.005 	-0.0605411
0.05 	0.0665625 	0.005 	-0.060995
0.05 	0.0671875 	0.005 	-0.0613783
0.05 	0.0678125 	0.005 	-0.061692
0.05 	0.0684375 	0.005 	-0.0619372
0.05 	0.0690625 	0.005 	-0.0621153
0.05 	0.0696875 	0.005 	-0.062228
0.05 	0.0703125 	0.005 	-0.0622774
0.05 	0.0709375 	0.005 	-0.0622655
0.05 	0.0715625 	0.005 	-0.0621948
0.05 	0.0721875 	0.005 	-0.0620679
0.05 	0.0728125 	0.005 	-0.0618874
0.05 	0.0734375 	0.005 	-0.0616562
0.05 	0.0740625 	0.005 	-0.0613773
0.05 	0.0746875 	0.005 	-0.0610539
0.05 	0.0753125 	0.005 	-0.060689
0.05 	0.0759375 	0.005 	-0.060286
0.05 	0.0765625 	0.005 	-0.0598479
0.05 	0.0771875 	0.005 	-0.0593782
0.05 	0.0778125 	0.005 	-0.0588801
0.05 	0.0784375 	0.005 	-0.0583568
0.05 	0.0790625 	0.005 	-0.0578115
0.05 	0.0796875 	0.005 	-0.0572472
0.05 	0.0803125 	0.005 	-0.0566671
0.05 	0.0809375 	0.005 	-0.056074
0.05 	0.0815625 	0.005 	-0.0554707
0.05 	0.0821875 	0.005 	-0.0548598
0.05 	0.0828125 	0.005 	-0.0542438
0.05 	0.0834375 	0.005 	-0.0536251
0.05 	0.0840625 	0.005 	-0.0530057
0.05 	0.0846875 	0.005 	-0.0523876
0.05 	0.0853125 	0.005 	-0.0517724
0.05 	0.0859375 	0.005 	-0.0511616
0.05 	0.0865625 	0.005 	-0.0505566
0.05 	0.0871875 	0.005 	-0.0499583
0.05 	0.0878125 	0.005 	-0.0493675
0.05 	0.0884375 	0.005 	-0.0487848
0.05 	0.0890625 	0.005 	-0.0482105
0.05 	0.0896875 	0.005 	-0.0476448
0.05 	0.0903125 	0.005 	-0.0470875
0.05 	0.0909375 	0.005 	-0.0465383
0.05 	0.0915625 	0.005 	-0.0459967
0.05 	0.0921875 	0.005 	-0.0454622
0.05 	0.0928125 	0.005 	-0.0449337
0.05 	0.0934375 	0.005 	-0.0444106
0.05 	0.0940625 	0.005 	-0.0438917
0.05 	0.0946875 	0.005 	-0.043376
0.05 	0.0953125 	0.005 	-0.0428626
0.05 	0.0959375 	0.005 	-0.0423504
0.05 	0.0965625 	0.005 	-0.0418385
0.05 	0.0971875 	0.005 	-0.0413259
0.05 	0.0978125 	0.005 	-0.0408149
0.05 	0.0984375 	0.005 	-0.0403081
0.05 	0.0990625 	0.005 	-0.039765
0.05 	0.0996875 	0.005 	-0.0391438
