/*--------------------------------*- C++ -*----------------------------------*\
  =========                 |
  \\      /  F ield         | OpenFOAM: The Open Source CFD Toolbox
   \\    /   O peration     | Website:  https://openfoam.org
    \\  /    A nd           | Version:  7
     \\/     M anipulation  |
\*---------------------------------------------------------------------------*/
FoamFile
{
    version     2.0;
    format      ascii;
    class       volScalarField;
    location    "0.2375";
    object      p;
}
// * * * * * * * * * * * * * * * * * * * * * * * * * * * * * * * * * * * * * //

dimensions      [0 2 -2 0 0 0 0];

internalField   nonuniform List<scalar> 
25600
(
-6.94562e-09
-1.32797e-06
-7.63741e-06
-1.80416e-05
-3.14289e-05
-4.72167e-05
-6.47611e-05
-8.34577e-05
-0.000102762
-0.000122189
-0.00014133
-0.000159844
-0.000177454
-0.000193912
-0.000209011
-0.00022259
-0.000234522
-0.000244698
-0.000253011
-0.000259372
-0.000263716
-0.000266004
-0.000266214
-0.000264332
-0.000260339
-0.000254221
-0.000245969
-0.000235583
-0.000223075
-0.00020846
-0.000191754
-0.000172966
-0.000152107
-0.000129192
-0.000104238
-7.72672e-05
-4.82996e-05
-1.735e-05
1.55657e-05
5.04308e-05
8.7229e-05
0.000125944
0.00016656
0.000209065
0.000253445
0.000299686
0.000347772
0.000397688
0.000449421
0.000502959
0.000558288
0.000615391
0.000674249
0.000734845
0.000797161
0.000861181
0.000926886
0.000994255
0.00106327
0.00113389
0.00120611
0.00127989
0.00135521
0.00143205
0.00151036
0.00159011
0.00167128
0.00175383
0.00183772
0.0019229
0.00200934
0.002097
0.00218583
0.00227578
0.00236681
0.00245885
0.00255186
0.00264577
0.00274053
0.00283607
0.00293233
0.00302922
0.00312668
0.00322461
0.00332296
0.00342163
0.00352055
0.00361961
0.00371872
0.0038178
0.00391675
0.00401546
0.00411385
0.00421181
0.00430923
0.00440602
0.00450207
0.00459727
0.0046915
0.00478467
0.00487666
0.00496737
0.0050567
0.00514453
0.00523075
0.00531526
0.00539796
0.00547874
0.00555749
0.00563413
0.00570854
0.00578063
0.00585032
0.00591751
0.00598211
0.00604406
0.00610327
0.00615967
0.00621319
0.00626378
0.00631138
0.00635594
0.00639742
0.00643577
0.00647098
0.00650302
0.00653189
0.00655757
0.00658007
0.0065994
0.00661559
0.00662866
0.00663866
0.00664562
0.00664962
0.00665073
0.00664902
0.0066446
0.00663757
0.00662805
0.00661618
0.00660212
0.00658601
0.00656805
0.00654845
0.00652743
0.00650524
0.00648216
0.00645849
0.00643458
0.00641084
0.00638768
0.0063656
0.00634515
0.00632694
0.00631166
0.00629997
0.00629253
0.0062899
0.00629143
-2.41674e-06
-3.55787e-06
-8.97184e-06
-1.78416e-05
-2.93003e-05
-4.28282e-05
-5.79118e-05
-7.4053e-05
-9.07971e-05
-0.00010773
-0.000124475
-0.000140718
-0.000156189
-0.000170655
-0.00018391
-0.000195781
-0.000206133
-0.000214856
-0.000221855
-0.000227046
-0.000230354
-0.000231724
-0.00023112
-0.000228515
-0.000223894
-0.000217241
-0.000208544
-0.000197796
-0.000184998
-0.000170155
-0.000153278
-0.000134378
-0.000113465
-9.05487e-05
-6.56406e-05
-3.87563e-05
-9.91153e-06
2.08777e-05
5.35962e-05
8.82312e-05
0.00012477
0.000163197
0.000203499
0.000245662
0.000289673
0.000335521
0.000383193
0.000432673
0.000483946
0.000536999
0.000591818
0.000648388
0.000706695
0.000766719
0.000828441
0.000891839
0.000956896
0.00102359
0.00109191
0.00116182
0.0012333
0.00130631
0.00138083
0.00145684
0.0015343
0.00161319
0.00169345
0.00177507
0.001858
0.00194219
0.00202762
0.00211423
0.00220199
0.00229085
0.00238075
0.00247163
0.00256346
0.00265615
0.00274967
0.00284395
0.00293891
0.00303449
0.0031306
0.00322717
0.00332413
0.00342139
0.00351886
0.00361647
0.00371412
0.00381171
0.00390915
0.00400635
0.00410321
0.00419963
0.00429552
0.00439076
0.00448526
0.0045789
0.00467159
0.00476322
0.00485368
0.00494287
0.00503068
0.00511702
0.00520178
0.00528485
0.00536613
0.00544552
0.00552292
0.00559824
0.00567138
0.00574225
0.00581076
0.00587682
0.00594037
0.00600131
0.00605958
0.00611511
0.00616783
0.0062177
0.00626466
0.00630867
0.00634968
0.00638766
0.00642259
0.00645446
0.00648325
0.00650896
0.0065316
0.0065512
0.00656776
0.00658133
0.00659194
0.00659965
0.00660452
0.00660663
0.00660606
0.0066029
0.00659728
0.0065893
0.00657911
0.00656686
0.00655271
0.00653684
0.00651946
0.00650078
0.00648106
0.00646056
0.00643956
0.00641841
0.00639747
0.00637712
0.00635781
0.00634
0.00632422
0.00631097
0.00630077
0.00629405
0.00629143
0.00629296
-1.45073e-06
-2.31243e-06
-7.0295e-06
-1.4919e-05
-2.51496e-05
-3.72286e-05
-5.06915e-05
-6.50965e-05
-8.00465e-05
-9.51796e-05
-0.000110164
-0.000124702
-0.000138542
-0.000151466
-0.000163281
-0.000173813
-0.000182918
-0.000190482
-0.000196416
-0.000200642
-0.000203089
-0.000203693
-0.000202408
-0.000199199
-0.000194045
-0.00018693
-0.000177842
-0.000166773
-0.000153715
-0.000138666
-0.000121632
-0.000102622
-8.16451e-05
-5.87113e-05
-3.38281e-05
-7.00318e-06
2.17499e-05
5.2415e-05
8.49785e-05
0.000119429
0.000155755
0.000193946
0.000233988
0.000275867
0.000319569
0.000365087
0.000412409
0.000461522
0.000512409
0.000565053
0.000619442
0.000675561
0.000733398
0.000792935
0.000854152
0.000917024
0.000981533
0.00104766
0.00111539
0.00118469
0.00125554
0.0013279
0.00140176
0.00147707
0.00155382
0.00163196
0.00171148
0.00179231
0.00187444
0.00195782
0.0020424
0.00212815
0.00221502
0.00230296
0.00239193
0.00248186
0.00257271
0.00266441
0.00275691
0.00285015
0.00294405
0.00303854
0.00313356
0.00322901
0.00332483
0.00342094
0.00351724
0.00361367
0.00371012
0.0038065
0.00390272
0.00399869
0.00409431
0.00418949
0.00428413
0.00437812
0.00447136
0.00456375
0.00465519
0.00474558
0.00483481
0.00492277
0.00500937
0.00509451
0.00517809
0.00526
0.00534015
0.00541842
0.00549474
0.00556901
0.00564112
0.00571101
0.00577857
0.00584374
0.00590642
0.00596656
0.00602407
0.00607891
0.00613099
0.00618029
0.00622673
0.00627029
0.00631092
0.0063486
0.00638331
0.00641503
0.00644375
0.00646949
0.00649225
0.00651204
0.0065289
0.00654286
0.00655396
0.00656225
0.00656781
0.00657071
0.00657103
0.00656888
0.00656435
0.00655759
0.00654871
0.00653788
0.00652525
0.00651101
0.00649533
0.00647845
0.00646061
0.00644205
0.00642305
0.00640393
0.00638502
0.00636667
0.00634928
0.00633326
0.00631903
0.00630706
0.00629772
0.00629141
0.00628879
0.00629033
4.12734e-06
2.68635e-06
-2.05704e-06
-9.56178e-06
-1.91531e-05
-3.03771e-05
-4.28136e-05
-5.60634e-05
-6.97642e-05
-8.35968e-05
-9.72687e-05
-0.000110506
-0.000123072
-0.000134764
-0.000145407
-0.00015484
-0.000162921
-0.000169532
-0.000174577
-0.00017798
-0.000179675
-0.000179604
-0.000177718
-0.000173978
-0.000168354
-0.000160825
-0.000151379
-0.000140008
-0.000126703
-0.00011146
-9.42769e-05
-7.51579e-05
-5.41113e-05
-3.11463e-05
-6.26853e-06
2.05151e-05
4.91945e-05
7.97581e-05
0.000112194
0.000146488
0.000182633
0.000220618
0.000260433
0.000302063
0.000345497
0.000390724
0.000437735
0.000486517
0.000537056
0.000589336
0.000643343
0.00069906
0.000756475
0.000815573
0.000876332
0.000938732
0.00100275
0.00106837
0.00113557
0.00120433
0.00127461
0.00134639
0.00141965
0.00149435
0.00157047
0.00164796
0.0017268
0.00180696
0.00188838
0.00197103
0.00205488
0.00213987
0.00222597
0.00231312
0.00240128
0.00249039
0.00258039
0.00267123
0.00276286
0.0028552
0.00294818
0.00304175
0.00313582
0.00323031
0.00332516
0.00342027
0.00351558
0.00361099
0.00370642
0.00380177
0.00389695
0.00399187
0.00408644
0.00418056
0.00427414
0.00436708
0.00445926
0.0045506
0.00464099
0.00473032
0.00481851
0.00490545
0.00499104
0.00507517
0.00515776
0.00523869
0.00531788
0.00539523
0.00547064
0.00554402
0.00561528
0.00568434
0.00575111
0.00581552
0.00587749
0.00593694
0.00599383
0.00604807
0.00609962
0.00614842
0.00619443
0.00623761
0.00627793
0.00631535
0.00634986
0.00638145
0.00641012
0.00643587
0.00645871
0.00647866
0.00649576
0.00651003
0.00652153
0.0065303
0.00653642
0.00653996
0.00654101
0.00653967
0.00653605
0.00653026
0.00652245
0.00651276
0.00650135
0.0064884
0.00647409
0.00645863
0.00644224
0.00642518
0.00640771
0.00639011
0.00637268
0.00635576
0.0063397
0.00632484
0.00631158
0.00630029
0.00629133
0.00628504
0.00628207
0.00628293
1.38277e-05
1.08796e-05
5.44487e-06
-2.17958e-06
-1.15602e-05
-2.23087e-05
-3.40648e-05
-4.64817e-05
-5.92372e-05
-7.20449e-05
-8.46467e-05
-9.68035e-05
-0.000108295
-0.000118927
-0.000128537
-0.000136983
-0.000144135
-0.000149879
-0.000154116
-0.000156768
-0.000157767
-0.00015706
-0.000154601
-0.000150351
-0.000144275
-0.000136351
-0.000126561
-0.000114892
-0.00010134
-8.58973e-05
-6.85615e-05
-4.93319e-05
-2.82125e-05
-5.20864e-06
1.96739e-05
4.64275e-05
7.50436e-05
0.000105514
0.00013783
0.000171981
0.000207957
0.000245748
0.000285343
0.000326734
0.00036991
0.000414861
0.000461573
0.000510035
0.000560235
0.000612159
0.000665794
0.000721123
0.000778131
0.0008368
0.000897113
0.000959049
0.00102259
0.00108772
0.00115441
0.00122263
0.00129237
0.00136359
0.00143627
0.00151038
0.00158589
0.00166276
0.00174096
0.00182045
0.0019012
0.00198317
0.00206632
0.0021506
0.00223596
0.00232237
0.00240977
0.00249809
0.0025873
0.00267734
0.00276814
0.00285964
0.00295177
0.00304447
0.00313765
0.00323125
0.00332518
0.00341938
0.00351376
0.00360823
0.0037027
0.0037971
0.00389131
0.00398527
0.00407887
0.00417202
0.00426462
0.00435658
0.00444779
0.00453816
0.00462758
0.00471595
0.00480319
0.00488918
0.00497384
0.00505705
0.00513873
0.00521878
0.00529709
0.00537359
0.00544816
0.00552073
0.00559121
0.00565952
0.00572556
0.00578928
0.00585059
0.00590943
0.00596573
0.00601943
0.00607049
0.00611884
0.00616445
0.00620728
0.0062473
0.00628448
0.0063188
0.00635027
0.00637888
0.00640463
0.00642754
0.00644763
0.00646493
0.00647947
0.00649132
0.00650051
0.00650712
0.00651123
0.00651293
0.0065123
0.00650947
0.00650456
0.00649769
0.006489
0.00647866
0.00646683
0.0064537
0.00643945
0.00642432
0.00640852
0.00639231
0.00637595
0.00635971
0.0063439
0.00632882
0.0063148
0.00630215
0.0062912
0.00628227
0.00627567
0.00627189
0.00627132
2.66383e-05
2.1647e-05
1.50676e-05
6.92234e-06
-2.6274e-06
-1.32534e-05
-2.46451e-05
-3.65204e-05
-4.86063e-05
-6.06426e-05
-7.2402e-05
-8.36787e-05
-9.42786e-05
-0.000104023
-0.000112755
-0.000120342
-0.000126667
-0.000131629
-0.000135134
-0.000137104
-0.00013747
-0.00013618
-0.000133187
-0.000128454
-0.000121949
-0.000113648
-0.00010353
-9.15796e-05
-7.77874e-05
-6.21469e-05
-4.46556e-05
-2.53131e-05
-4.11843e-06
1.89275e-05
4.382e-05
7.05516e-05
9.91144e-05
0.000129502
0.000161707
0.000195724
0.000231541
0.00026915
0.000308539
0.000349701
0.000392629
0.000437313
0.000483741
0.000531898
0.000581772
0.000633352
0.000686626
0.000741579
0.000798194
0.000856451
0.000916333
0.000977823
0.0010409
0.00110555
0.00117175
0.00123947
0.00130868
0.00137936
0.00145149
0.00152503
0.00159996
0.00167623
0.00175383
0.0018327
0.00191281
0.00199414
0.00207662
0.00216023
0.00224491
0.00233062
0.0024173
0.00250491
0.00259338
0.00268266
0.0027727
0.00286342
0.00295476
0.00304665
0.00313902
0.00323179
0.00332489
0.00341824
0.00351176
0.00360537
0.00369897
0.00379249
0.00388582
0.0039789
0.00407161
0.00416387
0.00425559
0.00434666
0.00443699
0.00452647
0.00461502
0.00470253
0.0047889
0.00487404
0.00495785
0.00504024
0.0051211
0.00520034
0.00527787
0.00535359
0.00542741
0.00549925
0.00556903
0.00563665
0.00570204
0.00576513
0.00582585
0.00588412
0.0059399
0.00599311
0.00604371
0.00609165
0.0061369
0.0061794
0.00621914
0.0062561
0.00629025
0.0063216
0.00635014
0.00637588
0.00639884
0.00641904
0.00643651
0.00645129
0.00646343
0.00647299
0.00648003
0.00648463
0.00648688
0.00648688
0.00648473
0.00648056
0.0064745
0.00646668
0.00645725
0.00644637
0.00643423
0.00642101
0.00640691
0.00639215
0.00637696
0.00636157
0.00634626
0.00633126
0.00631687
0.00630336
0.00629101
0.00628009
0.00627089
0.00626366
0.0062587
0.00625618
4.1734e-05
3.43879e-05
2.63538e-05
1.73877e-05
7.36296e-06
-3.44337e-06
-1.47612e-05
-2.63638e-05
-3.80288e-05
-4.95328e-05
-6.06711e-05
-7.1263e-05
-8.11431e-05
-9.01549e-05
-9.81552e-05
-0.000105018
-0.000110635
-0.000114911
-0.000117764
-0.00011912
-0.000118916
-0.000117098
-0.00011362
-0.000108443
-0.000101538
-9.2882e-05
-8.24534e-05
-7.0236e-05
-5.62167e-05
-4.03876e-05
-2.27457e-05
-3.28926e-06
1.79841e-05
4.10744e-05
6.59792e-05
9.26935e-05
0.000121211
0.000151524
0.00018363
0.00021752
0.000253189
0.000290626
0.000329822
0.00037077
0.000413463
0.000457892
0.000504046
0.000551912
0.000601476
0.000652729
0.000705658
0.000760249
0.000816485
0.000874347
0.000933819
0.000994883
0.00105752
0.00112172
0.00118744
0.00125467
0.00132339
0.00139356
0.00146516
0.00153816
0.00161254
0.00168826
0.00176528
0.00184357
0.00192309
0.00200382
0.00208569
0.00216867
0.00225272
0.00233778
0.00242381
0.00251075
0.00259854
0.00268714
0.00277647
0.00286648
0.0029571
0.00304826
0.00313988
0.0032319
0.00332424
0.00341682
0.00350957
0.00360239
0.00369521
0.00378794
0.00388048
0.00397276
0.00406468
0.00415615
0.00424707
0.00433735
0.00442689
0.00451559
0.00460336
0.00469009
0.0047757
0.00486008
0.00494315
0.00502479
0.00510493
0.00518346
0.00526029
0.00533532
0.00540848
0.00547968
0.00554882
0.00561584
0.00568065
0.00574318
0.00580337
0.00586114
0.00591645
0.00596922
0.00601942
0.00606699
0.0061119
0.00615411
0.0061936
0.00623035
0.00626434
0.00629557
0.00632404
0.00634976
0.00637275
0.00639303
0.00641064
0.00642561
0.00643799
0.00644785
0.00645524
0.00646026
0.00646298
0.0064635
0.00646193
0.00645839
0.006453
0.00644589
0.00643722
0.00642713
0.0064158
0.0064034
0.00639013
0.00637619
0.00636178
0.00634713
0.00633246
0.00631802
0.00630404
0.00629076
0.00627843
0.00626727
0.00625753
0.00624942
0.006243
0.0062382
5.84111e-05
4.8536e-05
3.88411e-05
2.88326e-05
1.81052e-05
6.88008e-06
-4.60611e-06
-1.61647e-05
-2.76217e-05
-3.87965e-05
-4.95096e-05
-5.95995e-05
-6.89213e-05
-7.73422e-05
-8.47373e-05
-9.09934e-05
-9.60105e-05
-9.96992e-05
-0.000101983
-0.000102796
-0.000102081
-9.97861e-05
-9.58667e-05
-9.0287e-05
-8.30169e-05
-7.40318e-05
-6.33125e-05
-5.08424e-05
-3.66085e-05
-2.06025e-05
-2.81823e-06
1.67489e-05
3.81009e-05
6.12373e-05
8.61567e-05
0.000112857
0.000141333
0.00017158
0.000203594
0.000237368
0.000272895
0.000310169
0.000349183
0.00038993
0.000432401
0.000476588
0.000522479
0.000570065
0.000619334
0.000670276
0.000722877
0.000777121
0.000832992
0.000890475
0.000949555
0.00101021
0.00107243
0.00113619
0.00120147
0.00126824
0.00133648
0.00140616
0.00147727
0.00154977
0.00162363
0.00169882
0.00177531
0.00185306
0.00193203
0.00201219
0.0020935
0.00217591
0.00225937
0.00234384
0.00242926
0.00251559
0.00260277
0.00269074
0.00277944
0.0028688
0.00295876
0.00304926
0.00314021
0.00323155
0.00332321
0.0034151
0.00350715
0.00359928
0.0036914
0.00378342
0.00387526
0.00396683
0.00405804
0.00414881
0.00423903
0.00432861
0.00441745
0.00450546
0.00459254
0.00467859
0.00476353
0.00484725
0.00492966
0.00501066
0.00509016
0.00516806
0.00524428
0.00531872
0.00539129
0.00546192
0.00553051
0.005597
0.0056613
0.00572334
0.00578306
0.00584039
0.00589527
0.00594766
0.00599749
0.00604474
0.00608935
0.0061313
0.00617056
0.00620711
0.00624095
0.00627206
0.00630046
0.00632615
0.00634915
0.00636949
0.00638719
0.00640231
0.00641488
0.00642498
0.00643266
0.00643801
0.00644112
0.00644207
0.00644097
0.00643794
0.0064331
0.00642658
0.00641851
0.00640906
0.00639837
0.00638662
0.00637398
0.00636065
0.00634681
0.00633267
0.00631843
0.00630431
0.0062905
0.00627722
0.00626468
0.00625305
0.00624255
0.00623338
0.00622531
0.00621805
7.60574e-05
6.35845e-05
5.21031e-05
4.08928e-05
2.92889e-05
1.74626e-05
5.61764e-06
-6.0909e-06
-1.75229e-05
-2.85377e-05
-3.89891e-05
-4.87351e-05
-5.76481e-05
-6.56125e-05
-7.25213e-05
-7.82768e-05
-8.27894e-05
-8.59779e-05
-8.77733e-05
-8.8115e-05
-8.69485e-05
-8.42272e-05
-7.99115e-05
-7.39669e-05
-6.63645e-05
-5.708e-05
-4.6093e-05
-3.33878e-05
-1.89534e-05
-2.78126e-06
1.51372e-05
3.48086e-05
5.62353e-05
7.94169e-05
0.000104352
0.00013104
0.000159478
0.000189664
0.000221593
0.000255258
0.000290653
0.000327773
0.000366614
0.000407168
0.000449429
0.000493385
0.000539027
0.000586346
0.000635332
0.000685975
0.000738262
0.000792175
0.000847699
0.000904821
0.000963525
0.0010238
0.00108561
0.00114896
0.00121381
0.00128014
0.00134793
0.00141716
0.0014878
0.00155983
0.00163321
0.00170791
0.0017839
0.00186114
0.00193961
0.00201925
0.00210004
0.00218192
0.00226485
0.00234877
0.00243365
0.00251942
0.00260604
0.00269344
0.00278156
0.00287035
0.00295972
0.00304962
0.00313997
0.00323071
0.00332176
0.00341304
0.00350447
0.00359598
0.00368748
0.00377888
0.0038701
0.00396105
0.00405165
0.0041418
0.00423141
0.00432038
0.00440861
0.00449602
0.00458251
0.00466797
0.00475232
0.00483547
0.00491731
0.00499775
0.0050767
0.00515407
0.00522975
0.00530367
0.00537574
0.00544588
0.005514
0.00558002
0.00564388
0.0057055
0.00576481
0.00582175
0.00587627
0.00592831
0.00597783
0.00602478
0.00606913
0.00611084
0.00614989
0.00618626
0.00621995
0.00625096
0.00627928
0.00630492
0.00632791
0.00634828
0.00636605
0.00638127
0.00639399
0.00640427
0.00641218
0.0064178
0.0064212
0.00642249
0.00642177
0.00641914
0.00641473
0.00640866
0.00640107
0.0063921
0.0063819
0.00637063
0.00635846
0.00634556
0.00633211
0.00631828
0.00630427
0.00629026
0.00627643
0.00626295
0.00625
0.00623773
0.00622632
0.00621593
0.00620611
0.00619631
9.41379e-05
7.90712e-05
6.57485e-05
5.32285e-05
4.06163e-05
2.80534e-05
1.57038e-05
3.68745e-06
-7.87821e-06
-1.88822e-05
-2.92095e-05
-3.87446e-05
-4.73775e-05
-5.50073e-05
-6.15422e-05
-6.68971e-05
-7.09939e-05
-7.37635e-05
-7.51446e-05
-7.50805e-05
-7.35215e-05
-7.04262e-05
-6.57585e-05
-5.94869e-05
-5.15848e-05
-4.20286e-05
-3.07984e-05
-1.78798e-05
-3.26179e-06
1.30651e-05
3.11093e-05
5.08774e-05
7.23725e-05
9.55958e-05
0.000120547
0.000147224
0.000175627
0.000205754
0.000237602
0.000271163
0.000306434
0.00034341
0.000382086
0.000422457
0.000464516
0.000508252
0.000553658
0.000600722
0.000649439
0.000699797
0.000751781
0.000805378
0.000860572
0.00091735
0.000975698
0.0010356
0.00109704
0.00115999
0.00122444
0.00129035
0.00135773
0.00142653
0.00149673
0.00156831
0.00164124
0.00171549
0.00179102
0.0018678
0.00194579
0.00202497
0.00210528
0.00218667
0.00226912
0.00235255
0.00243693
0.00252221
0.00260832
0.00269522
0.00278283
0.00287109
0.00295994
0.00304932
0.00313914
0.00322934
0.00331986
0.0034106
0.0035015
0.00359247
0.00368343
0.00377429
0.00386497
0.00395539
0.00404546
0.00413508
0.00422416
0.00431261
0.00440033
0.00448723
0.00457321
0.00465817
0.00474203
0.00482469
0.00490605
0.00498602
0.00506451
0.00514141
0.00521665
0.00529013
0.00536177
0.00543149
0.00549921
0.00556484
0.00562832
0.00568957
0.00574854
0.00580515
0.00585935
0.0059111
0.00596034
0.00600703
0.00605114
0.00609264
0.0061315
0.00616771
0.00620126
0.00623215
0.00626039
0.00628598
0.00630894
0.00632931
0.00634712
0.0063624
0.00637522
0.00638563
0.00639371
0.00639952
0.00640315
0.00640469
0.00640424
0.00640192
0.00639783
0.0063921
0.00638486
0.00637624
0.00636639
0.00635545
0.00634359
0.00633096
0.00631772
0.00630404
0.00629009
0.00627602
0.00626199
0.00624815
0.00623465
0.0062216
0.00620916
0.00619746
0.00618584
0.00617351
0.000112198
9.45878e-05
7.94134e-05
6.55243e-05
5.18116e-05
3.84055e-05
2.54414e-05
1.29981e-05
1.16925e-06
-9.95284e-06
-2.02791e-05
-2.97186e-05
-3.81807e-05
-4.55818e-05
-5.18425e-05
-5.68885e-05
-6.06549e-05
-6.30827e-05
-6.41169e-05
-6.37079e-05
-6.18125e-05
-5.83938e-05
-5.34188e-05
-4.6859e-05
-3.86894e-05
-2.88887e-05
-1.74401e-05
-4.33024e-06
1.04535e-05
2.69216e-05
4.50812e-05
6.49375e-05
8.64944e-05
0.000109754
0.000134717
0.000161385
0.000189756
0.000219827
0.000251595
0.000285057
0.000320209
0.000357049
0.00039557
0.000435766
0.000477631
0.000521157
0.000566336
0.00061316
0.00066162
0.000711705
0.000763402
0.000816696
0.000871576
0.000928028
0.000986038
0.00104559
0.00110667
0.00116925
0.00123331
0.00129885
0.00136582
0.00143422
0.00150402
0.0015752
0.00164771
0.00172153
0.00179664
0.00187299
0.00195056
0.00202931
0.00210918
0.00219014
0.00227215
0.00235514
0.00243909
0.00252392
0.00260959
0.00269603
0.00278319
0.002871
0.00295939
0.0030483
0.00313767
0.00322741
0.00331747
0.00340775
0.00349819
0.0035887
0.0036792
0.00376961
0.00385984
0.00394981
0.00403943
0.00412861
0.00421725
0.00430527
0.00439256
0.00447903
0.00456459
0.00464914
0.00473259
0.00481485
0.00489582
0.0049754
0.0050535
0.00513003
0.0052049
0.00527802
0.00534931
0.00541868
0.00548607
0.00555138
0.00561454
0.00567549
0.00573416
0.0057905
0.00584443
0.00589592
0.00594492
0.00599139
0.00603529
0.0060766
0.00611529
0.00615135
0.00618477
0.00621556
0.0062437
0.00626923
0.00629215
0.0063125
0.00633031
0.00634562
0.0063585
0.00636899
0.00637716
0.0063831
0.00638688
0.0063886
0.00638835
0.00638623
0.00638236
0.00637686
0.00636985
0.00636145
0.00635182
0.00634108
0.00632939
0.00631688
0.00630371
0.00629003
0.00627598
0.00626171
0.00624734
0.00623302
0.00621884
0.0062049
0.00619135
0.00617831
0.00616487
0.00615008
0.000129863
0.000109773
9.27654e-05
7.74893e-05
6.2619e-05
4.82887e-05
3.46236e-05
2.16629e-05
9.47227e-06
-1.87384e-06
-1.2305e-05
-2.17503e-05
-3.01395e-05
-3.74031e-05
-4.34755e-05
-4.82959e-05
-5.18102e-05
-5.39666e-05
-5.47175e-05
-5.40219e-05
-5.18429e-05
-4.8148e-05
-4.29084e-05
-3.60979e-05
-2.76937e-05
-1.76777e-05
-6.03597e-06
7.24445e-06
2.21765e-05
3.87703e-05
5.70324e-05
7.69676e-05
9.85791e-05
0.000121869
0.000146842
0.000173498
0.000201835
0.000231852
0.000263544
0.000296911
0.00033195
0.000368658
0.000407031
0.000447061
0.000488741
0.000532066
0.000577029
0.000623623
0.000671839
0.000721664
0.000773087
0.000826094
0.000880676
0.000936819
0.00099451
0.00105373
0.00111447
0.0011767
0.00124041
0.00130558
0.00137219
0.00144022
0.00150965
0.00158044
0.00165257
0.00172601
0.00180073
0.0018767
0.00195388
0.00203224
0.00211173
0.0021923
0.00227391
0.00235652
0.00244007
0.00252452
0.00260979
0.00269584
0.00278261
0.00287003
0.00295803
0.00304655
0.00313553
0.00322488
0.00331455
0.00340445
0.0034945
0.00358463
0.00367476
0.00376479
0.00385465
0.00394426
0.00403351
0.00412234
0.00421063
0.0042983
0.00438524
0.00447137
0.0045566
0.00464082
0.00472395
0.0048059
0.00488655
0.00496582
0.00504362
0.00511985
0.00519443
0.00526727
0.00533828
0.00540738
0.0054745
0.00553955
0.00560246
0.00566317
0.0057216
0.00577771
0.00583142
0.00588271
0.0059315
0.00597778
0.00602151
0.00606265
0.00610119
0.00613711
0.0061704
0.00620108
0.00622913
0.00625457
0.00627744
0.00629774
0.00631553
0.00633084
0.00634372
0.00635425
0.00636247
0.00636848
0.00637234
0.00637416
0.00637401
0.00637201
0.00636827
0.0063629
0.00635601
0.00634773
0.0063382
0.00632754
0.00631588
0.00630338
0.00629015
0.00627633
0.00626206
0.00624745
0.00623264
0.00621772
0.00620278
0.00618789
0.00617319
0.00615878
0.00614356
0.00612638
0.000146815
0.00012432
0.00010551
8.88491e-05
7.28e-05
5.74923e-05
4.3057e-05
2.95076e-05
1.68787e-05
5.22569e-06
-5.39671e-06
-1.49358e-05
-2.33364e-05
-3.05428e-05
-3.65047e-05
-4.1174e-05
-4.45047e-05
-4.64531e-05
-4.69808e-05
-4.6054e-05
-4.36414e-05
-3.97152e-05
-3.42505e-05
-2.72245e-05
-1.86185e-05
-8.41736e-06
3.39247e-06
1.68233e-05
3.18861e-05
4.85895e-05
6.694e-05
8.69427e-05
0.000108601
0.000131917
0.000156895
0.000183536
0.000211838
0.000241799
0.000273419
0.000306695
0.000341625
0.000378206
0.000416436
0.000456306
0.00049781
0.000540944
0.000585702
0.000632076
0.000680058
0.000729636
0.000780799
0.000833535
0.000887834
0.000943686
0.00100108
0.00105999
0.00112041
0.00118231
0.00124569
0.00131053
0.0013768
0.00144449
0.00151357
0.00158401
0.00165579
0.00172888
0.00180326
0.00187888
0.00195572
0.00203373
0.00211287
0.0021931
0.00227438
0.00235664
0.00243986
0.00252397
0.00260891
0.00269463
0.00278106
0.00286815
0.00295582
0.00304402
0.00313267
0.00322171
0.00331107
0.00340066
0.0034904
0.00358023
0.00367006
0.0037598
0.00384937
0.00393869
0.00402767
0.00411622
0.00420424
0.00429165
0.00437833
0.00446421
0.00454919
0.00463317
0.00471606
0.00479777
0.00487819
0.00495724
0.00503481
0.00511083
0.00518519
0.00525781
0.00532862
0.00539751
0.00546443
0.00552929
0.00559201
0.00565253
0.00571078
0.00576671
0.00582025
0.00587136
0.00592
0.00596612
0.00600969
0.00605069
0.00608909
0.00612488
0.00615806
0.00618863
0.00621658
0.00624194
0.00626473
0.00628497
0.0063027
0.00631797
0.00633083
0.00634134
0.00634956
0.00635558
0.00635946
0.0063613
0.00636119
0.00635923
0.00635552
0.00635018
0.00634332
0.00633506
0.00632552
0.00631482
0.0063031
0.00629047
0.00627707
0.00626301
0.00624841
0.00623338
0.00621802
0.00620242
0.00618665
0.00617077
0.00615489
0.00613912
0.00612217
0.00610273
0.000162779
0.000137968
0.00011739
9.93562e-05
8.21272e-05
6.58174e-05
5.05644e-05
3.63685e-05
2.32402e-05
1.12146e-05
3.30161e-07
-9.37412e-06
-1.78569e-05
-2.50778e-05
-3.09988e-05
-3.55818e-05
-3.87894e-05
-4.05881e-05
-4.09475e-05
-3.98403e-05
-3.72411e-05
-3.31261e-05
-2.74739e-05
-2.02669e-05
-1.14913e-05
-1.13332e-06
1.08204e-05
2.43806e-05
3.95558e-05
5.6353e-05
7.47781e-05
9.48362e-05
0.000116532
0.000139868
0.000164847
0.000191468
0.000219732
0.000249638
0.000281186
0.000314373
0.000349198
0.000385658
0.000423749
0.000463464
0.0005048
0.000547752
0.000592316
0.000638481
0.00068624
0.000735583
0.0007865
0.000838979
0.000893013
0.000948591
0.0010057
0.00106432
0.00112444
0.00118605
0.00124912
0.00131365
0.00137961
0.00144699
0.00151575
0.00158588
0.00165735
0.00173012
0.00180419
0.00187951
0.00195604
0.00203375
0.00211259
0.00219252
0.0022735
0.00235548
0.00243841
0.00252224
0.0026069
0.00269234
0.0027785
0.00286532
0.00295273
0.00304067
0.00312908
0.00321787
0.00330698
0.00339633
0.00348585
0.00357545
0.00366506
0.00375459
0.00384396
0.00393308
0.00402186
0.00411022
0.00419805
0.00428528
0.00437179
0.00445749
0.00454231
0.00462613
0.00470886
0.00479041
0.00487069
0.00494958
0.00502701
0.00510288
0.0051771
0.00524959
0.00532025
0.00538902
0.0054558
0.00552052
0.00558311
0.0056435
0.00570163
0.00575742
0.00581083
0.00586182
0.00591032
0.00595632
0.00599976
0.00604064
0.00607892
0.0061146
0.00614767
0.00617813
0.00620598
0.00623124
0.00625394
0.0062741
0.00629175
0.00630695
0.00631974
0.00633019
0.00633837
0.00634433
0.00634818
0.00634998
0.00634983
0.00634783
0.00634408
0.00633869
0.00633177
0.00632342
0.00631378
0.00630295
0.00629106
0.00627822
0.00626454
0.00625014
0.00623512
0.00621957
0.0062036
0.00618727
0.00617063
0.00615372
0.00613666
0.00611955
0.00610094
0.00607936
0.000177505
0.00015048
0.000128186
0.000108793
9.03906e-05
7.30728e-05
5.69754e-05
4.20915e-05
2.84161e-05
1.59644e-05
4.7616e-06
-5.16586e-06
-1.3792e-05
-2.10891e-05
-2.70287e-05
-3.15819e-05
-3.47217e-05
-3.64237e-05
-3.66645e-05
-3.54232e-05
-3.26798e-05
-2.84148e-05
-2.26119e-05
-1.52587e-05
-6.34354e-06
4.1454e-06
1.62194e-05
2.98873e-05
4.51559e-05
6.20308e-05
8.05167e-05
0.000100619
0.000122343
0.000145691
0.000170664
0.000197263
0.000225486
0.000255336
0.000286811
0.000319911
0.000354634
0.000390976
0.000428933
0.000468499
0.000509674
0.000552454
0.000596831
0.000642798
0.000690345
0.000739466
0.00079015
0.000842388
0.000896173
0.000951494
0.00100834
0.00106669
0.00112653
0.00118786
0.00125066
0.00131491
0.00138059
0.00144768
0.00151616
0.00158601
0.00165719
0.0017297
0.00180349
0.00187854
0.00195481
0.00203226
0.00211084
0.00219053
0.00227126
0.002353
0.00243569
0.00251929
0.00260373
0.00268895
0.0027749
0.00286151
0.00294872
0.00303647
0.00312469
0.00321331
0.00330225
0.00339144
0.0034808
0.00357026
0.00365972
0.00374912
0.00383836
0.00392736
0.00401603
0.00410428
0.00419201
0.00427914
0.00436555
0.00445117
0.0045359
0.00461964
0.0047023
0.00478378
0.00486398
0.00494281
0.00502017
0.00509597
0.00517012
0.00524254
0.00531313
0.00538183
0.00544854
0.00551319
0.00557571
0.00563602
0.00569406
0.00574977
0.0058031
0.00585399
0.00590241
0.00594831
0.00599166
0.00603243
0.00607061
0.00610619
0.00613915
0.0061695
0.00619725
0.00622241
0.006245
0.00626505
0.00628261
0.0062977
0.0063104
0.00632075
0.00632882
0.00633469
0.00633844
0.00634014
0.00633989
0.00633778
0.00633391
0.00632839
0.00632132
0.00631282
0.00630299
0.00629194
0.00627979
0.00626664
0.00625261
0.00623778
0.00622227
0.00620615
0.0061895
0.00617238
0.00615484
0.0061369
0.00611867
0.00610027
0.00608007
0.0060565
0.000190763
0.000161643
0.000137698
0.00011697
9.74029e-05
7.90798e-05
6.21268e-05
4.65289e-05
3.22701e-05
1.93521e-05
7.78665e-06
-2.41347e-06
-1.12347e-05
-1.8659e-05
-2.4667e-05
-2.92405e-05
-3.23621e-05
-3.4015e-05
-3.41827e-05
-3.28493e-05
-2.99998e-05
-2.56213e-05
-1.97034e-05
-1.22362e-05
-3.20954e-06
7.3856e-06
1.9557e-05
3.33114e-05
4.86542e-05
6.55902e-05
8.41236e-05
0.00010426
0.000126003
0.000149354
0.000174314
0.000200885
0.000229065
0.000258857
0.000290261
0.000323274
0.000357896
0.000394122
0.000431949
0.000471374
0.000512395
0.000555009
0.000599208
0.000644985
0.000692332
0.000741243
0.000791708
0.000843722
0.000897274
0.000952356
0.00100895
0.00106705
0.00112665
0.00118772
0.00125027
0.00131426
0.00137969
0.00144652
0.00151476
0.00158435
0.0016553
0.00172757
0.00180113
0.00187595
0.00195199
0.00202922
0.0021076
0.00218707
0.00226761
0.00234916
0.00243167
0.00251509
0.00259935
0.00268441
0.00277021
0.00285668
0.00294375
0.00303138
0.00311948
0.00320799
0.00329684
0.00338594
0.00347522
0.0035646
0.00365401
0.00374335
0.00383254
0.00392151
0.00401014
0.00409836
0.00418608
0.00427318
0.00435959
0.0044452
0.00452993
0.00461367
0.00469633
0.00477782
0.00485802
0.00493686
0.00501422
0.00509003
0.00516418
0.0052366
0.0053072
0.00537589
0.00544259
0.00550723
0.00556973
0.00563001
0.00568803
0.0057437
0.00579699
0.00584783
0.00589618
0.00594202
0.00598529
0.00602599
0.00606409
0.00609957
0.00613244
0.00616269
0.00619033
0.00621537
0.00623784
0.00625777
0.0062752
0.00629017
0.00630273
0.00631294
0.00632088
0.0063266
0.00633019
0.00633174
0.00633132
0.00632904
0.00632499
0.00631927
0.00631198
0.00630323
0.00629313
0.00628179
0.0062693
0.00625578
0.00624131
0.006226
0.00620992
0.00619317
0.0061758
0.00615788
0.00613942
0.00612045
0.00610108
0.00608142
0.00605973
0.00603429
0.000202357
0.000171257
0.000145739
0.000123714
0.000102998
8.36759e-05
6.58655e-05
4.95392e-05
3.46731e-05
2.12594e-05
9.29483e-06
-1.21873e-06