/*--------------------------------*- C++ -*----------------------------------*\
  =========                 |
  \\      /  F ield         | OpenFOAM: The Open Source CFD Toolbox
   \\    /   O peration     | Website:  https://openfoam.org
    \\  /    A nd           | Version:  7
     \\/     M anipulation  |
\*---------------------------------------------------------------------------*/
FoamFile
{
    version     2.0;
    format      ascii;
    class       volScalarField;
    location    "0.25";
    object      p;
}
// * * * * * * * * * * * * * * * * * * * * * * * * * * * * * * * * * * * * * //

dimensions      [0 2 -2 0 0 0 0];

internalField   nonuniform List<scalar> 
25600
(
1.26007e-05
0.000139895
0.000178531
7.71192e-05
-0.000171619
-0.000562642
-0.00108413
-0.00172173
-0.00245967
-0.00328269
-0.00417611
-0.00512639
-0.00612095
-0.00714792
-0.00819685
-0.00925768
-0.0103215
-0.0113799
-0.0124256
-0.0134513
-0.014451
-0.0154187
-0.0163491
-0.0172375
-0.0180795
-0.0188711
-0.0196089
-0.0202895
-0.0209101
-0.0214681
-0.0219612
-0.0223874
-0.022745
-0.0230324
-0.0232485
-0.0233922
-0.0234625
-0.0234588
-0.0233808
-0.023228
-0.0230004
-0.022698
-0.0223209
-0.0218696
-0.0213444
-0.020746
-0.020075
-0.0193323
-0.0185188
-0.0176356
-0.0166839
-0.0156648
-0.0145797
-0.01343
-0.0122174
-0.0109433
-0.00960944
-0.00821759
-0.00676957
-0.00526729
-0.00371269
-0.00210781
-0.000454737
0.0012444
0.00298738
0.00477196
0.00659582
0.0084566
0.0103519
0.0122793
0.0142363
0.0162204
0.018229
0.0202595
0.0223093
0.0243757
0.026456
0.0285476
0.0306477
0.0327535
0.0348622
0.0369712
0.0390776
0.0411785
0.0432712
0.0453529
0.0474207
0.0494719
0.0515037
0.0535132
0.0554978
0.0574546
0.0593809
0.061274
0.0631313
0.0649501
0.0667278
0.0684619
0.0701499
0.0717893
0.0733776
0.0749127
0.0763921
0.0778138
0.0791756
0.0804755
0.0817115
0.0828819
0.0839847
0.0850185
0.0859815
0.0868726
0.0876902
0.0884334
0.089101
0.0896922
0.0902062
0.0906424
0.0910004
0.09128
0.091481
0.0916036
0.091648
0.0916148
0.0915047
0.0913185
0.0910574
0.0907228
0.0903163
0.0898397
0.0892952
0.0886852
0.0880124
0.0872798
0.0864908
0.0856489
0.0847584
0.0838235
0.082849
0.0818402
0.0808028
0.079743
0.0786673
0.0775831
0.0764981
0.0754209
0.0743606
0.0733271
0.072331
0.0713839
0.0704981
0.0696868
0.068964
0.068344
0.0678414
0.0674692
0.0672367
0.0671459
0.0671858
0.0673009
-8.48008e-05
3.39722e-05
4.48489e-05
-7.05207e-05
-0.000308271
-0.000666375
-0.00113789
-0.00171209
-0.00237721
-0.00312053
-0.00392985
-0.00479338
-0.00569976
-0.00663847
-0.00759976
-0.00857429
-0.00955366
-0.0105301
-0.0114963
-0.0124455
-0.0133718
-0.0142695
-0.0151335
-0.015959
-0.0167418
-0.0174779
-0.0181639
-0.0187964
-0.0193728
-0.0198904
-0.0203468
-0.02074
-0.0210683
-0.0213302
-0.0215244
-0.0216496
-0.021705
-0.02169
-0.021604
-0.0214467
-0.0212177
-0.0209173
-0.0205453
-0.0201021
-0.0195882
-0.0190039
-0.01835
-0.0176271
-0.0168363
-0.0159783
-0.0150544
-0.0140657
-0.0130135
-0.011899
-0.0107239
-0.0094895
-0.00819749
-0.00684954
-0.0054474
-0.0039929
-0.00248792
-0.000934407
0.000665637
0.00231015
0.00399701
0.00572404
0.007489
0.00928962
0.0111236
0.0129885
0.0148821
0.0168018
0.0187451
0.0207096
0.0226927
0.0246918
0.0267043
0.0287277
0.0307592
0.0327962
0.0348361
0.0368761
0.0389135
0.0409456
0.0429697
0.0449831
0.046983
0.0489668
0.0509318
0.0528753
0.0547945
0.0566869
0.0585498
0.0603806
0.0621767
0.0639357
0.0656549
0.067332
0.0689646
0.0705502
0.0720866
0.0735716
0.075003
0.0763787
0.0776967
0.078955
0.0801519
0.0812855
0.0823541
0.0833563
0.0842906
0.0851557
0.0859502
0.0866733
0.0873239
0.0879012
0.0884046
0.0888335
0.0891875
0.0894666
0.0896705
0.0897996
0.0898542
0.0898348
0.0897421
0.0895771
0.089341
0.0890352
0.0886612
0.0882211
0.0877168
0.0871508
0.0865259
0.0858449
0.0851112
0.0843284
0.0835005
0.0826317
0.0817268
0.0807908
0.0798292
0.078848
0.0778536
0.0768529
0.0758534
0.074863
0.0738903
0.0729445
0.0720355
0.0711734
0.0703694
0.0696348
0.0689813
0.0684206
0.0679637
0.0676199
0.0673944
0.0672874
0.0673009
0.067416
-0.00010387
3.62197e-05
4.47326e-05
-7.33125e-05
-0.000301826
-0.000637729
-0.00107547
-0.00160624
-0.00221988
-0.00290585
-0.00365344
-0.00445218
-0.00529191
-0.00616314
-0.00705663
-0.00796392
-0.00887708
-0.00978865
-0.0106917
-0.0115799
-0.0124474
-0.0132887
-0.0140989
-0.0148734
-0.015608
-0.0162988
-0.0169424
-0.0175356
-0.0180756
-0.0185598
-0.0189859
-0.0193519
-0.019656
-0.0198966
-0.0200725
-0.0201824
-0.0202255
-0.020201
-0.0201083
-0.019947
-0.019717
-0.0194181
-0.0190504
-0.0186141
-0.0181095
-0.017537
-0.0168974
-0.0161912
-0.0154193
-0.0145826
-0.0136821
-0.0127189
-0.0116942
-0.0106094
-0.0094658
-0.00826484
-0.00700807
-0.00569709
-0.00433361
-0.00291938
-0.00145621
5.40146e-05
0.00160935
0.00320781
0.00484733
0.00652581
0.00824109
0.00999095
0.0117732
0.0135854
0.0154254
0.0172908
0.0191791
0.0210879
0.0230147
0.0249571
0.0269124
0.0288783
0.030852
0.032831
0.0348128
0.0367946
0.0387739
0.040748
0.0427143
0.0446701
0.0466129
0.04854
0.0504488
0.0523366
0.0542009
0.0560391
0.0578487
0.0596271
0.0613718
0.0630805
0.0647506
0.0663799
0.0679659
0.0695065
0.0709993
0.0724424
0.0738334
0.0751706
0.0764519
0.0776754
0.0788395
0.0799423
0.0809824
0.0819583
0.0828685
0.0837118
0.0844872
0.0851935
0.0858299
0.0863957
0.0868902
0.0873129
0.0876637
0.0879423
0.0881487
0.0882832
0.0883461
0.0883381
0.0882598
0.0881124
0.0878969
0.0876147
0.0872676
0.0868573
0.0863861
0.0858562
0.0852704
0.0846316
0.083943
0.0832082
0.082431
0.0816157
0.0807669
0.0798893
0.0789884
0.07807
0.07714
0.0762053
0.0752727
0.0743499
0.073445
0.0725663
0.071723
0.0709245
0.0701806
0.0695014
0.0688971
0.0683774
0.0679518
0.0676279
0.0674102
0.0673006
0.0673143
0.0674561
1.16198e-05
0.000163003
0.000171567
5.24024e-05
-0.000170946
-0.000493569
-0.000909796
-0.00141128
-0.00198912
-0.00263384
-0.00333581
-0.00408574
-0.00487435
-0.00569289
-0.00653292
-0.00738655
-0.00824627
-0.00910506
-0.00995643
-0.0107944
-0.0116131
-0.0124074
-0.0131726
-0.0139042
-0.014598
-0.0152505
-0.0158581
-0.0164177
-0.0169267
-0.0173823
-0.0177824
-0.0181249
-0.0184082
-0.0186305
-0.0187906
-0.0188872
-0.0189196
-0.0188869
-0.0187884
-0.0186238
-0.0183928
-0.0180953
-0.0177313
-0.017301
-0.0168046
-0.0162426
-0.0156154
-0.0149239
-0.0141687
-0.0133507
-0.0124708
-0.0115301
-0.0105298
-0.00947103
-0.00835522
-0.00718374
-0.00595805
-0.00467972
-0.00335038
-0.00197172
-0.000545502
0.000926462
0.00244229
0.00400004
0.00559772
0.00723327
0.00890461
0.0106096
0.012346
0.0141117
0.0159044
0.0177217
0.0195613
0.0214208
0.0232979
0.0251901
0.0270949
0.0290099
0.0309326
0.0328604
0.0347907
0.0367212
0.0386492
0.0405721
0.0424873
0.0443924
0.0462847
0.0481618
0.050021
0.0518597
0.0536756
0.0554661
0.0572287
0.0589609
0.0606604
0.0623248
0.0639518
0.0655389
0.0670841
0.068585
0.0700396
0.0714458
0.0728015
0.0741048
0.0753539
0.0765469
0.0776822
0.0787582
0.0797732
0.080726
0.0816152
0.0824396
0.0831981
0.0838897
0.0845137
0.0850694
0.0855562
0.0859736
0.0863214
0.0865995
0.086808
0.0869471
0.0870172
0.0870189
0.0869531
0.0868207
0.0866228
0.086361
0.0860368
0.0856521
0.085209
0.0847098
0.0841572
0.0835541
0.0829036
0.0822093
0.0814748
0.0807043
0.0799022
0.0790732
0.0782225
0.0773556
0.0764783
0.075597
0.0747184
0.0738496
0.072998
0.0721718
0.071379
0.0706286
0.0699292
0.0692901
0.0687203
0.0682286
0.0678235
0.0675123
0.0672999
0.0671905
0.0672073
0.0673659
0.000270124
0.000410346
0.000408235
0.000282303
5.82893e-05
-0.000257949
-0.000660209
-0.00114074
-0.00169134
-0.0023034
-0.00296841
-0.00367786
-0.00442338
-0.00519682
-0.00599058
-0.00679726
-0.00760983
-0.00842172
-0.00922681
-0.0100193
-0.0107939
-0.0115455
-0.0122696
-0.0129618
-0.0136182
-0.0142352
-0.0148094
-0.015338
-0.015818
-0.016247
-0.0166229
-0.0169435
-0.0172072
-0.0174123
-0.0175575
-0.0176418
-0.0176641
-0.0176236
-0.0175197
-0.017352
-0.0171201
-0.016824
-0.0164636
-0.0160391
-0.0155506
-0.0149986
-0.0143835
-0.0137061
-0.0129669
-0.0121667
-0.0113066
-0.0103875
-0.00941059
-0.00837694
-0.00728787
-0.00614472
-0.00494893
-0.00370198
-0.00240547
-0.00106103
0.000329649
0.0017648
0.00324261
0.00476117
0.00631858
0.00791282
0.00954188
0.0112037
0.0128961
0.0146169
0.0163639
0.018135
0.0199278
0.0217399
0.0235691
0.025413
0.0272692
0.0291353
0.0310088
0.0328873
0.0347683
0.0366493
0.0385279
0.0404016
0.0422678
0.0441241
0.045968
0.0477969
0.0496085
0.0514002
0.0531696
0.0549142
0.0566317
0.0583197
0.0599759
0.0615978
0.0631833
0.0647302
0.0662362
0.0676992
0.0691171
0.070488
0.0718099
0.0730809
0.0742992
0.075463
0.0765709
0.0776211
0.0786123
0.079543
0.0804121
0.0812183
0.0819608
0.0826384
0.0832506
0.0837966
0.0842759
0.0846882
0.0850331
0.0853107
0.0855211
0.0856644
0.0857412
0.085752
0.0856978
0.0855793
0.085398
0.085155
0.0848522
0.0844912
0.0840742
0.0836036
0.0830818
0.0825116
0.0818963
0.0812391
0.0805438
0.0798142
0.0790546
0.0782697
0.0774643
0.0766438
0.0758136
0.0749799
0.0741488
0.0733272
0.072522
0.0717405
0.0709905
0.07028
0.0696169
0.0690097
0.0684663
0.067995
0.0676034
0.0672989
0.0670867
0.0669724
0.0669821
0.0671346
0.00066866
0.000776461
0.000751857
0.000611525
0.000379582
6.25887e-05
-0.000333259
-0.000800764
-0.00133217
-0.00191976
-0.00255585
-0.00323269
-0.00394265
-0.0046784
-0.00543282
-0.00619906
-0.00697066
-0.00774148
-0.00850573
-0.00925792
-0.00999297
-0.0107062
-0.0113931
-0.0120497
-0.012672
-0.0132566
-0.0138004
-0.0143003
-0.0147538
-0.0151583
-0.0155117
-0.015812
-0.0160576
-0.0162467
-0.0163783
-0.016451
-0.0164639
-0.0164162
-0.0163074
-0.0161368
-0.0159043
-0.0156096
-0.0152527
-0.0148337
-0.0143528
-0.0138104
-0.0132069
-0.0125428
-0.0118189
-0.0110359
-0.0101947
-0.00929628
-0.00834164
-0.00733196
-0.00626843
-0.00515237
-0.00398514
-0.00276821
-0.00150308
-0.000191357
0.00116533
0.00256528
0.00400671
0.00548779
0.00700666
0.00856139
0.01015
0.0117704
0.0134207
0.0150986
0.016802
0.0185289
0.0202768
0.0220436
0.023827
0.0256247
0.0274344
0.0292537
0.0310802
0.0329116
0.0347454
0.0365792
0.0384107
0.0402373
0.0420567
0.0438664
0.0456639
0.047447
0.0492131
0.0509599
0.0526849
0.0543859
0.0560604
0.0577062
0.059321
0.0609025
0.0624486
0.0639571
0.0654258
0.0668527
0.0682358
0.0695731
0.0708628
0.072103
0.073292
0.0744282
0.07551
0.0765358
0.0775042
0.078414
0.079264
0.0800531
0.0807802
0.0814446
0.0820455
0.0825823
0.0830545
0.0834618
0.0838039
0.0840809
0.0842929
0.0844401
0.084523
0.0845422
0.0844985
0.084393
0.0842268
0.0840013
0.0837181
0.083379
0.0829861
0.0825415
0.0820479
0.0815079
0.0809246
0.0803012
0.0796413
0.0789487
0.0782274
0.077482
0.0767171
0.0759376
0.075149
0.0743568
0.0735671
0.072786
0.0720201
0.0712763
0.0705616
0.0698833
0.0692487
0.0686655
0.0681411
0.0676828
0.0672978
0.0669932
0.0667746
0.0666481
0.0666387
0.0667641
0.00119693
0.00125557
0.00119716
0.00103439
0.000787182
0.000462112
6.5154e-05
-0.000396818
-0.000916744
-0.00148771
-0.0021026
-0.00275446
-0.0034363
-0.0041415
-0.00486343
-0.00559578
-0.00633263
-0.00706823
-0.0077971
-0.00851414
-0.00921455
-0.00989385
-0.0105478
-0.0111725
-0.0117643
-0.0123199
-0.0128361
-0.0133102
-0.0137395
-0.0141217
-0.0144547
-0.0147366
-0.0149655
-0.0151402
-0.0152591
-0.0153213
-0.0153257
-0.0152715
-0.0151581
-0.0149851
-0.0147521
-0.0144589
-0.0141054
-0.0136918
-0.0132181
-0.0126848
-0.0120922
-0.011441
-0.0107316
-0.0099648
-0.00914151
-0.00826263
-0.00732916
-0.00634219
-0.00530288
-0.0042125
-0.00307237
-0.0018839
-0.000648555
0.000632136
0.00195658
0.00332312
0.00473003
0.00617556
0.00765786
0.00917507
0.0107253
0.0123065
0.0139167
0.0155539
0.017216
0.0189008
0.0206062
0.02233
0.02407
0.0258239
0.0275894
0.0293643
0.0311463
0.032933
0.034722
0.0365111
0.0382979
0.04008
0.041855
0.0436205
0.0453743
0.0471139
0.048837
0.0505412
0.0522243
0.053884
0.0555178
0.0571238
0.0586995
0.0602428
0.0617517
0.0632239
0.0646574
0.0660502
0.0674004
0.0687061
0.0699654
0.0711767
0.0723381
0.0734482
0.0745054
0.0755082
0.0764553
0.0773454
0.0781774
0.0789502
0.079663
0.0803148
0.0809051
0.0814331
0.0818985
0.082301
0.0826404
0.0829167
0.08313
0.0832806
0.083369
0.0833958
0.0833618
0.083268
0.0831156
0.0829059
0.0826406
0.0823213
0.08195
0.0815291
0.0810608
0.080548
0.0799934
0.0794002
0.0787719
0.0781122
0.0774248
0.0767142
0.0759846
0.0752409
0.0744882
0.0737316
0.0729769
0.0722298
0.0714964
0.0707831
0.0700963
0.0694428
0.0688293
0.0682627
0.0677497
0.0672972
0.0669119
0.0666003
0.0663681
0.0662215
0.0661819
0.0662635
0.00184109
0.00183781
0.00173595
0.00154326
0.00127367
0.000933503
0.000528635
6.52156e-05
-0.000450349
-0.00101172
-0.00161243
-0.0022462
-0.00290676
-0.00358791
-0.00428366
-0.00498822
-0.00569608
-0.00640187
-0.00710052
-0.00778727
-0.00845761
-0.00910725
-0.00973219
-0.0103287
-0.0108934
-0.0114231
-0.0119147
-0.0123655
-0.0127731
-0.0131352
-0.0134498
-0.0137148
-0.0139288
-0.0140902
-0.0141977
-0.0142503
-0.014247
-0.014187
-0.0140696
-0.0138945
-0.0136612
-0.0133695
-0.0130194
-0.0126109
-0.0121442
-0.0116196
-0.0110375
-0.0103983
-0.00970267
-0.00895132
-0.00814503
-0.0072847
-0.00637129
-0.00540584
-0.00438949
-0.00332345
-0.002209
-0.00104751
0.000159615
0.00141088
0.00270475
0.00403962
0.00541382
0.00682562
0.00827326
0.00975491
0.0112687
0.0128127
0.014385
0.0159836
0.0176065
0.0192515
0.0209165
0.0225996
0.0242983
0.0260107
0.0277345
0.0294673
0.0312071
0.0329515
0.0346981
0.0364449
0.0381893
0.0399292
0.0416622
0.043386
0.0450983
0.0467969
0.0484793
0.0501434
0.0517868
0.0534074
0.0550029
0.0565712
0.05811
0.0596173
0.061091
0.062529
0.0639294
0.0652901
0.0666093
0.0678851
0.0691159
0.0702999
0.0714354
0.0725209
0.0735549
0.074536
0.075463
0.0763346
0.0771496
0.0779072
0.0786064
0.0792464
0.0798266
0.0803464
0.0808054
0.0812032
0.0815399
0.0818153
0.0820296
0.0821832
0.0822765
0.08231
0.0822847
0.0822015
0.0820615
0.0818662
0.0816169
0.0813154
0.0809637
0.0805639
0.0801184
0.0796298
0.0791008
0.0785345
0.0779341
0.0773033
0.0766456
0.0759652
0.0752663
0.0745533
0.0738311
0.0731046
0.072379
0.0716598
0.0709526
0.0702633
0.0695978
0.0689624
0.0683631
0.0678062
0.067298
0.0668446
0.0664522
0.0661269
0.0658742
0.0657001
0.0656206
0.0656452
0.00258681
0.00251207
0.00235905
0.00212967
0.00183126
0.00146967
0.00105056
0.000579357
6.18168e-05
-0.000496263
-0.00108919
-0.00171115
-0.00235652
-0.00301961
-0.00369498
-0.00437735
-0.00506154
-0.00574259
-0.00641586
-0.00707688
-0.00772138
-0.00834535
-0.00894504
-0.00951696
-0.0100578
-0.0105645
-0.0110342
-0.0114644
-0.0118526
-0.0121967
-0.0124946
-0.0127446
-0.012945
-0.0130945
-0.0131918
-0.0132358
-0.0132256
-0.0131604
-0.0130395
-0.0128626
-0.0126292
-0.0123392
-0.0119924
-0.011589
-0.0111289
-0.0106127
-0.0100404
-0.00941277
-0.00873023
-0.00799349
-0.00720333
-0.00636058
-0.00546617
-0.00452112
-0.00352652
-0.00248353
-0.00139342
-0.000257477
0.000922911
0.00214631
0.00341123
0.0047161
0.0060593
0.00743915
0.00885394
0.0103019
0.0117812
0.01329
0.0148264
0.0163884
0.0179741
0.0195814
0.0212083
0.0228527
0.0245125
0.0261855
0.0278697
0.0295628
0.0312626
0.0329669
0.0346735
0.0363802
0.0380846
0.0397847
0.041478
0.0431623
0.0448355
0.0464952
0.0481392
0.0497653
0.0513714
0.0529551
0.0545144
0.0560472
0.0575513
0.0590246
0.0604652
0.061871
0.06324
0.0645705
0.0658605
0.0671084
0.0683122
0.0694705
0.0705816
0.071644
0.0726563
0.0736171
0.0745251
0.0753793
0.0761784
0.0769216
0.077608
0.0782369
0.0788075
0.0793194
0.0797723
0.0801657
0.0804996
0.0807741
0.0809892
0.0811452
0.0812427
0.0812823
0.0812648
0.081191
0.0810621
0.0808795
0.0806446
0.080359
0.0800248
0.0796439
0.0792185
0.0787513
0.0782449
0.0777022
0.0771264
0.0765207
0.0758888
0.0752344
0.0745617
0.0738747
0.0731781
0.0724764
0.0717746
0.0710776
0.0703908
0.0697196
0.0690693
0.0684457
0.0678544
0.067301
0.0667914
0.0663309
0.0659254
0.0655802
0.0653007
0.0650925
0.0649653
0.064923
0.00341994
0.00326697
0.00305662
0.00278494
0.0024521
0.00206354
0.00162447
0.00113979
0.000614574
5.39933e-05
-0.00053689
-0.00115276
-0.00178849
-0.00243901
-0.00309935
-0.00376462
-0.00443006
-0.00509115
-0.00574355
-0.00638311
-0.00700579
-0.0076079
-0.00818591
-0.00873651
-0.00925659
-0.00974321
-0.0101937
-0.0106056
-0.0109767
-0.0113047
-0.0115879
-0.0118244
-0.0120128
-0.0121518
-0.0122399
-0.0122763
-0.0122599
-0.0121902
-0.0120663
-0.011888
-0.0116548
-0.0113665
-0.0110231
-0.0106245
-0.0101709
-0.00966254
-0.00909979
-0.00848307
-0.00781295
-0.00709008
-0.00631518
-0.00548908
-0.00461266
-0.00368691
-0.00271288
-0.00169172
-0.000624614
0.000487155
0.00164226
0.0028393
0.00407683
0.00535332
0.0066672
0.00801684
0.00940056
0.0108167
0.0122633
0.0137388
0.0152412
0.0167687
0.0183192
0.0198909
0.0214816
0.0230895
0.0247125
0.0263484
0.0279952
0.0296507
0.0313128
0.0329793
0.034648
0.0363168
0.0379835
0.0396459
0.0413018
0.0429489
0.0445851
0.0462083
0.0478161
0.0494065
0.0509773
0.0525263
0.0540515
0.0555509
0.0570222
0.0584636
0.059873
0.0612485
0.0625883
0.0638903
0.065153
0.0663744
0.0675531
0.0686872
0.0697754
0.0708162
0.071808
0.0727497
0.07364
0.0744777
0.0752619
0.0759916
0.076666
0.0772843
0.077846
0.0783505
0.0787974
0.0791865
0.0795177
0.079791
0.0800066
0.0801648
0.080266
0.0803108
0.0803
0.0802346
0.0801156
0.0799442
0.0797221
0.0794506
0.0791317
0.0787674
0.0783599
0.0779115
0.0774248
0.0769026
0.0763479
0.0757639
0.075154
0.0745217
0.0738709
0.0732056
0.0725299
0.0718482
0.0711651
0.0704852
0.0698134
0.0691547
0.0685141
0.0678967
0.0673077
0.0667523
0.0662355
0.0657625
0.0653383
0.0649677
0.0646557
0.0644077
0.0642265
0.0641104
0.00432718
0.0040913
0.00381901
0.00350045
0.0031284
0.00270794
0.00224394
0.00174074
0.00120272
0.000634406
4.04645e-05
-0.000574467
-0.0012057
-0.00184869
-0.00249885
-0.00315173
-0.003803
-0.00444853
-0.00508426
-0.00570631
-0.006311
-0.00689483
-0.00745455
-0.00798699
-0.00848922
-0.0089585
-0.00939231
-0.00978833
-0.0101443
-0.0104583
-0.0107285
-0.0109532
-0.011131
-0.0112606
-0.0113407
-0.0113703
-0.0113487
-0.011275
-0.0111487
-0.0109693
-0.0107365
-0.0104501
-0.01011
-0.00971612
-0.00926873
-0.00876801
-0.00821427
-0.00760797
-0.00694964
-0.00623991
-0.00547947
-0.00466911
-0.0038097
-0.00290219
-0.0019476
-0.000947041
9.83238e-05
0.00118727
0.00231849
0.00349064
0.00470231
0.00595201
0.0072382
0.00855931
0.00991371
0.0112997
0.0127156
0.0141596
0.01563
0.0171248
0.0186421
0.0201802
0.0217369
0.0233103
0.0248985
0.0264994
0.0281109
0.029731
0.0313575
0.0329883
0.0346214
0.0362546
0.0378857
0.0395127
0.0411333
0.0427454
0.0443468
0.0459355
0.0475093
0.0490661
0.0506037
0.0521202
0.0536134
0.0550813
0.056522
0.0579334
0.0593136
0.0606607
0.0619729
0.0632483
0.0644852
0.065682
0.066837
0.0679486
0.0690154
0.0700358
0.0710085
0.0719323
0.072806
0.0736284
0.0743986
0.0751156
0.0757787
0.0763871
0.0769403
0.0774377
0.077879
0.078264
0.0785924
0.0788645
0.0790803
0.0792401
0.0793443
0.0793937
0.0793888
0.0793307
0.0792203
0.0790589
0.0788478
0.0785887
0.0782833
0.0779335
0.0775413
0.0771092
0.0766395
0.0761349
0.0755982
0.0750325
0.074441
0.0738271
0.0731943
0.0725464
0.0718874
0.0712212
0.0705521
0.0698845
0.0692228
0.0685717
0.0679356
0.0673193
0.0667275
0.0661649
0.065636
0.0651454
0.0646975
0.0642966
0.0639475
0.063655
0.063415
0.0632201
0.00529631
0.0049743
0.00463672
0.00426758
0.00385239
0.00339582
0.00290264
0.00237646
0.00182103
0.0012404
0.000638733
2.01506e-05
-0.000611244
-0.00125123
-0.00189568
-0.00254054
-0.00318189
-0.00381591
-0.00443885
-0.00504713
-0.00563736
-0.00620631
-0.00675087
-0.00726813
-0.00775529
-0.00820985
-0.00862942
-0.00901174
-0.00935476
-0.00965656
-0.00991546
-0.0101299
-0.0102984
-0.0104198
-0.0104929
-0.0105168
-0.0104906
-0.0104137
-0.0102854
-0.0101053
-0.00987318
-0.00958873
-0.0092519
-0.00886273
-0.00842131
-0.00792788
-0.00738274
-0.00678634
-0.00613918
-0.00544188
-0.00469511
-0.00389962
-0.00305627
-0.00216597
-0.00122972
-0.000248601
0.000776267
0.00184369
0.00295241
0.00410111
0.00528839
0.00651284
0.00777294
0.00906717
0.0103939
0.0117516
0.0131385
0.0145529
0.015993
0.017457
0.0189432
0.0204495
0.0219742
0.0235152
0.0250707
0.0266385
0.0282169
0.0298036
0.0313966
0.032994
0.0345935
0.0361932
0.0377909
0.0393845
0.040972
0.0425512
0.04412
0.0456764
0.0472183
0.0487435
0.0502501
0.051736
0.0531992
0.0546377
0.0560496
0.0574329
0.0587858
0.0601063
0.0613927
0.0626433
0.0638562
0.0650299
0.0661628
0.0672534
0.0683001
0.0693015
0.0702564
0.0711635
0.0720217
0.0728298
0.0735868
0.074292
0.0749445
0.0755436
0.0760888
0.0765795
0.0770154
0.0773963
0.0777221
0.0779928
0.0782085
0.0783695
0.0784763
0.0785295
0.0785297
0.0784778
0.0783748
0.078222
0.0780206
0.0777721
0.0774783
0.0771409
0.076762
0.0763437
0.0758884
0.0753986
0.074877
0.0743264
0.07375
0.0731509
0.0725324
0.0718981
0.0712516
0.0705968
0.0699375
0.0692777
0.0686216
0.0679734
0.0673373
0.0667174
0.0661182
0.0655437
0.0649981
0.0644856
0.0640098
0.0635744
0.0631841
0.0628433
0.0625411
0.0622641
0.00631587
0.00590597
0.00550067
0.00507808
0.00461655
0.00412043
0.00359433
0.00304126
0.00246445
0.00186746
0.00125386
0.000627384
-8.2995e-06
-0.000649387
-0.00129217
-0.00193303
-0.00256836
-0.0031946
-0.00380834
-0.00440634
-0.00498544
-0.00554265
-0.00607502
-0.00657987
-0.00705464
-0.00749695
-0.00790454
-0.0082753
-0.00860727
-0.00889868
-0.00914793
-0.00935355
-0.00951416
-0.00962855
-0.00969569
-0.00971465
-0.00968467
-0.00960507
-0.00947529
-0.00929491
-0.00906364
-0.00878129
-0.0084478
-0.00806317
-0.00762752
-0.00714106
-0.00660412
-0.00601712
-0.00538055
-0.004695
-0.00396113
-0.00317967
-0.00235145
-0.00147736
-0.000558391
0.000404436
0.00141002
0.0024572
0.00354475
0.00467138
0.00583574
0.00703643
0.008272
0.00954095
0.0108417
0.0121728
0.0135324
0.0149189
0.0163306
0.0177658
0.0192225
0.0206991
0.0221937
0.0237042
0.025229
0.0267659
0.028313
0.0298685
0.0314301
0.032996
0.0345641
0.0361323
0.0376987
0.0392611
0.0408176
0.042366
0.0439042
0.0454304
0.0469423
0.0484381
0.0499156
0.051373
0.0528081
0.0542192
0.0556042
0.0569613
0.0582886
0.0595844
0.0608468
0.0620741
0.0632647
0.0644169
0.0655292
0.0666001
0.0676282
0.068612
0.0695503
0.0704418
0.0712855
0.0720803
0.0728251
0.0735192
0.0741618
0.0747522
0.0752899
0.0757743
0.0762051
0.0765821
0.0769051
0.0771743
0.0773897
0.0775516
0.0776604
0.0777167
0.0777211
0.0776745
0.0775779
0.0774323
0.0772391
0.0769997
0.0767157
0.0763888
0.076021
0.0756142
0.0751709
0.0746932
0.0741839
0.0736456
0.0730811
0.0724935
0.0718859
0.0712616
0.070624
0.0699766
0.0693231
0.0686671
0.0680124
0.067363
0.0667225
0.066095
0.0654841
0.0648937
0.0643274
0.0637889
0.0632815
0.0628082
0.0623734
0.0619814
0.0616143
0.061253
0.00737571
0.00687691
0.00640221
0.00592407
0.00541367
0.00487511
0.00431293
0.00372964
0.003128
0.00251099
0.00188179
0.00124366
0.000599958
-4.59778e-05
-0.000690842
-0.00133133
-0.00196415
-0.00258606
-0.00319398
-0.00378492
-0.00435597
-0.00490432
-0.00542731
-0.0059224
-0.00638726
-0.00681965
-0.00721741
-0.00757859
-0.00790138
-0.00818413
-0.0084253
-0.00862348
-0.0087774
-0.00888593
-0.00894808
-0.008963
-0.00892994
-0.00884826
-0.00871744
-0.00853708
-0.00830693
-0.00802681
-0.00769665
-0.00731646
-0.00688637
-0.0064066
-0.00587746
-0.00529938
-0.00467283
-0.00399837
-0.00327665
-0.0025084
-0.00169441
-0.000835571
6.71744e-05
0.00101282
0.0020003
0.00302848
0.00409616
0.00520207
0.00634492
0.00752333
0.00873589
0.00998113
0.0112576
0.0125636
0.0138976
0.015258
0.0166431
0.0180512
0.0194805
0.0209292
0.0223955
0.0238775
0.0253735
0.0268814
0.0283994
0.0299255
0.0314578
0.0329942
0.0345329
0.0360718
0.0376088
0.0391421
0.0406695
0.0421892
0.0436989
0.0451968
0.0466809
0.0481492
0.0495996
0.0510303
0.0524394
0.0538249
0.0551849
0.0565176
0.0578212
0.0590939
0.060334
0.0615397
0.0627095
0.0638418
0.064935
0.0659877
0.0669985
0.0679659
0.0688888
0.0697659
0.0705962
0.0713786
0.0721121
0.0727959
0.0734293
0.0740116
0.0745421
0.0750206
0.0754465
0.0758197
0.0761401
0.0764077
0.0766225
0.0767849
0.0768952
0.076954
0.0769619
0.0769197
0.0768283
0.0766888
0.0765025
0.0762706
0.0759947
0.0756765
0.0753177
0.0749204
0.0744867
0.0740188
0.0735191
0.0729902
0.0724347
0.0718555
0.0712556
0.0706379
0.0700057
0.0693622
0.0687108
0.0680549
0.0673979
0.0667434
0.0660948
0.0654557
0.0648295
0.0642195
0.0636291
0.0630613
0.062519
0.0620047
0.0615229
0.0610775
0.0606437
0.0601971
0.00846648
0.00787845
0.00733342
0.00679817
0.00623686
0.00565349
0.00505262
0.0044363
0.00380678
0.00316655
0.00251848
0.00186542
0.00121032
0.000556126
-9.41887e-05
-0.000737609
-0.00137114
-0.0019919
-0.00259709
-0.00318396
-0.00374979
-0.00429201
-0.00480819
-0.00529603
-0.00575331
-0.00617793
-0.0065679
-0.00692141
-0.00723679
-0.00751248
-0.00774703
-0.00793912
-0.00808755
-0.00819128
-0.0082494
-0.00826107
-0.00822562
-0.00814241
-0.00801099
-0.007831
-0.00760219
-0.0073244
-0.00699758
-0.00662174
-0.00619701
-0.00572363
-0.00520193
-0.00463228
-0.00401518
-0.00335117
-0.00264088
-0.00188503
-0.0010844
-0.000239861
0.000647677
0.00157723
0.00254776
0.00355814
0.00460722
0.00569376
0.00681648
0.00797405
0.00916508
0.0103882
0.0116418
0.0129244
0.0142346
0.0155706
0.0169308
0.0183135
0.0197171
0.0211398
0.0225797
0.0240351
0.0255042
0.026985
0.0284758
0.0299746
0.0314794
0.0329885
0.0344997
0.0360112
0.037521
0.0390271
0.0405275
0.0420204
0.0435036
0.0449753
0.0464334
0.0478761
0.0493014
0.0507074
0.0520922
0.0534539
0.0547908
0.0561009
0.0573825
0.0586339
0.0598533
0.0610391
0.0621897
0.0633035
0.0643791
0.065415
0.0664097
0.0673621
0.0682707
0.0691345
0.0699524
0.0707233
0.0714464
0.0721207
0.0727455
0.0733202
0.0738442
0.0743171
0.0747384
0.075108
0.0754257
0.0756916
0.0759057
0.0760682
0.0761796
0.0762403
0.0762509
0.0762123
0.0761251
0.0759906
0.0758097
0.0755839
0.0753146
0.0750033
0.0746517
0.0742618
0.0738356
0.073375
0.0728825
0.0723604
0.0718113
0.0712377
0.0706424
0.0700283
0.0693983
0.0687554
0.0681028
0.0674435
0.0667807
0.0661177
0.0654576
0.0648036
0.0641587
0.0635259
0.0629081
0.0623081
0.0617283
0.0611707
0.0606397
0.0601392
0.0596377
0.0591051
0.0095796
0.00890263
0.00828681
0.00769329
0.00707955
0.00644955
0.00580786
0.00515605
0.00449597
0.0038298
0.00316
0.00248906
0.00181951
0.00115401
0.000495253
-0.00015407
-0.000791307
-0.00141385
-0.00201915
-0.00260464
-0.00316788
-0.00370652
-0.00421835
-0.00470122
-0.00515308
-0.00557196
-0.00595605
-0.0063037
-0.00661333
-0.00688348
-0.00711279
-0.00730004
-0.00744412
-0.00754408
-0.00759905
-0.00760826
-0.00757104
-0.00748685
-0.00735525
-0.00717594
-0.00694868
-0.00667332
-0.00634982
-0.00597822
-0.00555867
-0.00509141
-0.00457675
-0.00401509
-0.00340688
-0.00275268
-0.00205311
-0.00130888
-0.000520761
0.000310414
0.00118374
0.00209827
0.00305297
0.00404675
0.00507848
0.00614694
0.00725088
0.00838902
0.00955998
0.0107624
0.0119948
0.0132557
0.0145435
0.0158568
0.0171938
0.018553
0.0199326
0.021331
0.0227464
0.024177
0.025621
0.0270767
0.0285422
0.0300155
0.0314949
0.0329785
0.0344642
0.0359503
0.0374347
0.0389156
0.0403911
0.0418591
0.0433177
0.0447651
0.0461992
0.0476182
0.0490203
0.0504034
0.0517658
0.0531057
0.0544211
0.0557104
0.0569717
0.0582034
0.0594037
0.0605712
0.0617041
0.062801
0.0638604
0.0648808
0.0658608
0.0667993
0.0676949
0.0685465
0.069353
0.0701134
0.0708268
0.0714923
0.0721093
0.072677
0.0731949
0.0736625
0.0740795
0.0744457
0.0747608
0.0750249
0.075238
0.0754004
0.0755124
0.0755745
0.0755872
0.0755512
0.0754674
0.0753367
0.0751602
0.0749391
0.0746748
0.0743688
0.0740227
0.0736383
0.0732175
0.0727622
0.0722745
0.0717568
0.0712114
0.0706407
0.0700473
0.0694339
0.0688032
0.0681579
0.067501
0.0668352
0.0661636
0.065489
0.0648142
0.0641422
0.0634757
0.0628172
0.0621695
0.0615348
0.0609151
0.0603122
0.0597304
0.0591737
0.0586037
0.0579854
0.0107075
0.00994212
0.00925538
0.00860289
0.00793562
0.00725751
0.0065732
0.00588387
0.005191
0.00449654
0.00380249
0.003111
0.00242433
0.00174483
0.00107491
0.000416954
-0.000226714
-0.000853701
-0.00146166
-0.00204829
-0.00261136
-0.00314879
-0.00365852
-0.00413855
-0.00458698
-0.00500204
-0.00538207
-0.00572553
-0.00603096
-0.00629699
-0.00652237
-0.00670597
-0.0068468
-0.00694395
-0.0069966
-0.00700405
-0.00696568
-0.006881
-0.00674963
-0.00657129
-0.00634576
-0.00607291
-0.00575273
-0.00538527
-0.0049707
-0.00450926
-0.00400128
-0.00344712
-0.00284727
-0.00220227
-0.00151273
-0.000779352
-2.89316e-06
0.000815827
0.00167593
0.00257647
0.00351645
0.00449479
0.00551038
0.00656203
0.00764853
0.00876861
0.00992093
0.0111041
0.0123168
0.0135575
0.0148246
0.0161168
0.0174323
0.0187696
0.020127
0.0215029
0.0228955
0.0243032
0.0257241
0.0271564
0.0285984
0.0300482
0.0315041
0.032964
0.0344262
0.0358887
0.0373498
0.0388074
0.0402597
0.0417048
0.0431408
0.0445657
0.0459777
0.047375
0.0487556
0.0501178
0.0514596
0.0527793
0.054075
0.0553452
0.0565879
0.0578015
0.0589845
0.0601351
0.0612519
0.0623332
0.0633778
0.064384
0.0653507
0.0662765
0.0671602
0.0680006
0.0687967
0.0695475
0.0702521
0.0709097
0.0715194
0.0720807
0.072593
0.0730558
0.0734687
0.0738316
0.0741442
0.0744064
0.0746185
0.0747805
0.0748927
0.0749557
0.0749698
0.0749358
0.0748544
0.0747265
0.0745532
0.0743356
0.074075
0.0737728
0.0734305
0.0730498
0.0726325
0.0721803
0.0716954
0.0711799
0.0706358
0.0700656
0.0694716
0.0688562
0.068222
0.0675716
0.0669076
0.0662326
0.0655492
0.0648601
0.064168
0.0634753
0.0627845
0.0620979
0.0614179
0.0607464
0.060085
0.0594352
0.0588014
0.0581875
0.057549
0.0568452
0.011843
0.0109902
0.0102327
0.00952091
0.0087993
0.00807189
0.00734348
0.00661499
0.00588751
0.00516263
0.0044421
0.00372775
0.0030216
0.00232572
0.00164218
0.000973079
0.000320539
-0.000313271
-0.000926231
-0.0015163
-0.0020815
-0.00261987
-0.00312955
-0.00360869
-0.00405558
-0.00446861
-0.00484626
-0.0051871
-0.00548977
-0.00575301
-0.00597569
-0.00615678
-0.00629536
-0.00639058
-0.0064417
-0.00644806
-0.00640911
-0.00632443
-0.00619366
-0.00601655
-0.00579291
-0.00552264
-0.00520574
-0.00484232
-0.00443253
-0.00397663
-0.00347494
-0.00292784
-0.00233581
-0.00169939
-0.00101919
-0.000295911
0.000469713
0.00127688
0.00212471
0.00301229
0.00393863
0.00490267
0.00590332
0.00693942
0.00800979
0.00911316
0.0102482