/*--------------------------------*- C++ -*----------------------------------*\
  =========                 |
  \\      /  F ield         | OpenFOAM: The Open Source CFD Toolbox
   \\    /   O peration     | Website:  https://openfoam.org
    \\  /    A nd           | Version:  7
     \\/     M anipulation  |
\*---------------------------------------------------------------------------*/
FoamFile
{
    version     2.0;
    format      ascii;
    class       volVectorField;
    location    "0.25";
    object      U;
}
// * * * * * * * * * * * * * * * * * * * * * * * * * * * * * * * * * * * * * //

dimensions      [0 1 -1 0 0 0 0];

internalField   nonuniform List<vector> 
25600
(
(1.38303e-07 -2.51821e-07 0)
(2.74908e-06 -1.8208e-06 0)
(9.06245e-06 -2.85769e-06 0)
(1.69432e-05 -3.21998e-06 0)
(2.49243e-05 -3.1286e-06 0)
(3.20423e-05 -2.74569e-06 0)
(3.76578e-05 -2.17763e-06 0)
(4.13224e-05 -1.49592e-06 0)
(4.27382e-05 -7.44784e-07 0)
(4.17124e-05 4.46267e-08 0)
(3.81306e-05 8.52672e-07 0)
(3.19309e-05 1.66513e-06 0)
(2.30902e-05 2.47103e-06 0)
(1.16206e-05 3.26492e-06 0)
(-2.44523e-06 4.04028e-06 0)
(-1.90567e-05 4.79278e-06 0)
(-3.8147e-05 5.52002e-06 0)
(-5.96402e-05 6.22025e-06 0)
(-8.34521e-05 6.8912e-06 0)
(-0.000109491 7.5319e-06 0)
(-0.00013766 8.14173e-06 0)
(-0.000167859 8.71996e-06 0)
(-0.000199985 9.26601e-06 0)
(-0.000233933 9.78005e-06 0)
(-0.000269595 1.0262e-05 0)
(-0.000306864 1.07114e-05 0)
(-0.000345633 1.11283e-05 0)
(-0.000385792 1.15132e-05 0)
(-0.000427234 1.18668e-05 0)
(-0.000469853 1.21893e-05 0)
(-0.000513541 1.24809e-05 0)
(-0.000558192 1.27419e-05 0)
(-0.000603703 1.29727e-05 0)
(-0.000649969 1.31739e-05 0)
(-0.00069689 1.3346e-05 0)
(-0.000744366 1.34895e-05 0)
(-0.000792297 1.36049e-05 0)
(-0.000840585 1.36929e-05 0)
(-0.000889137 1.37539e-05 0)
(-0.000937859 1.37885e-05 0)
(-0.000986659 1.37974e-05 0)
(-0.00103545 1.37811e-05 0)
(-0.00108414 1.37402e-05 0)
(-0.00113264 1.36751e-05 0)
(-0.00118087 1.35864e-05 0)
(-0.00122875 1.34749e-05 0)
(-0.0012762 1.33411e-05 0)
(-0.00132315 1.31856e-05 0)
(-0.0013695 1.30091e-05 0)
(-0.0014152 1.28121e-05 0)
(-0.00146017 1.25951e-05 0)
(-0.00150434 1.23589e-05 0)
(-0.00154764 1.21039e-05 0)
(-0.00159 1.18309e-05 0)
(-0.00163137 1.15404e-05 0)
(-0.00167169 1.12328e-05 0)
(-0.00171088 1.09089e-05 0)
(-0.00174891 1.05693e-05 0)
(-0.0017857 1.02147e-05 0)
(-0.00182121 9.84545e-06 0)
(-0.00185539 9.46233e-06 0)
(-0.00188819 9.0659e-06 0)
(-0.00191956 8.65674e-06 0)
(-0.00194947 8.23542e-06 0)
(-0.00197785 7.80256e-06 0)
(-0.00200469 7.35879e-06 0)
(-0.00202993 6.90471e-06 0)
(-0.00205355 6.44094e-06 0)
(-0.00207551 5.96811e-06 0)
(-0.00209577 5.48687e-06 0)
(-0.00211432 4.99783e-06 0)
(-0.00213112 4.50157e-06 0)
(-0.00214615 3.99872e-06 0)
(-0.00215938 3.48995e-06 0)
(-0.0021708 2.97589e-06 0)
(-0.0021804 2.45721e-06 0)
(-0.00218814 1.93458e-06 0)
(-0.00219403 1.40867e-06 0)
(-0.00219805 8.80118e-07 0)
(-0.0022002 3.49598e-07 0)
(-0.00220046 -1.8222e-07 0)
(-0.00219884 -7.14625e-07 0)
(-0.00219533 -1.24691e-06 0)
(-0.00218994 -1.77838e-06 0)
(-0.00218267 -2.30833e-06 0)
(-0.00217352 -2.83606e-06 0)
(-0.00216252 -3.36082e-06 0)
(-0.00214966 -3.8819e-06 0)
(-0.00213497 -4.39856e-06 0)
(-0.00211845 -4.91005e-06 0)
(-0.00210014 -5.41562e-06 0)
(-0.00208006 -5.91453e-06 0)
(-0.00205822 -6.40601e-06 0)
(-0.00203466 -6.88929e-06 0)
(-0.0020094 -7.36362e-06 0)
(-0.00198249 -7.82824e-06 0)
(-0.00195396 -8.28237e-06 0)
(-0.00192384 -8.72525e-06 0)
(-0.00189218 -9.15607e-06 0)
(-0.00185902 -9.57406e-06 0)
(-0.00182441 -9.97841e-06 0)
(-0.0017884 -1.03684e-05 0)
(-0.00175105 -1.07432e-05 0)
(-0.0017124 -1.11021e-05 0)
(-0.00167251 -1.14443e-05 0)
(-0.00163145 -1.1769e-05 0)
(-0.00158928 -1.20755e-05 0)
(-0.00154606 -1.23631e-05 0)
(-0.00150186 -1.26309e-05 0)
(-0.00145676 -1.28782e-05 0)
(-0.00141083 -1.31043e-05 0)
(-0.00136414 -1.33085e-05 0)
(-0.00131678 -1.34901e-05 0)
(-0.00126881 -1.36485e-05 0)
(-0.00122034 -1.37829e-05 0)
(-0.00117143 -1.38926e-05 0)
(-0.00112219 -1.39771e-05 0)
(-0.0010727 -1.40357e-05 0)
(-0.00102304 -1.40678e-05 0)
(-0.000973324 -1.40728e-05 0)
(-0.000923638 -1.40502e-05 0)
(-0.00087408 -1.39995e-05 0)
(-0.00082475 -1.39201e-05 0)
(-0.000775748 -1.38116e-05 0)
(-0.000727177 -1.36736e-05 0)
(-0.000679141 -1.35055e-05 0)
(-0.000631744 -1.33071e-05 0)
(-0.000585091 -1.3078e-05 0)
(-0.000539289 -1.2818e-05 0)
(-0.000494446 -1.25266e-05 0)
(-0.00045067 -1.22038e-05 0)
(-0.000408067 -1.18494e-05 0)
(-0.000366748 -1.14633e-05 0)
(-0.000326819 -1.10454e-05 0)
(-0.000288388 -1.05958e-05 0)
(-0.000251562 -1.01146e-05 0)
(-0.000216446 -9.60201e-06 0)
(-0.000183144 -9.05833e-06 0)
(-0.000151759 -8.48402e-06 0)
(-0.000122388 -7.87966e-06 0)
(-9.51288e-05 -7.246e-06 0)
(-7.00722e-05 -6.58404e-06 0)
(-4.7305e-05 -5.89508e-06 0)
(-2.69072e-05 -5.18076e-06 0)
(-8.95115e-06 -4.4431e-06 0)
(6.50079e-06 -3.68474e-06 0)
(1.93984e-05 -2.90903e-06 0)
(2.97067e-05 -2.12036e-06 0)
(3.74102e-05 -1.32454e-06 0)
(4.25179e-05 -5.2925e-07 0)
(4.50707e-05 2.55057e-07 0)
(4.51514e-05 1.01383e-06 0)
(4.28983e-05 1.7263e-06 0)
(3.85254e-05 2.36182e-06 0)
(3.2352e-05 2.87406e-06 0)
(2.48454e-05 3.1927e-06 0)
(1.66709e-05 3.21308e-06 0)
(8.77954e-06 2.77896e-06 0)
(2.64648e-06 1.69761e-06 0)
(1.23699e-07 1.23947e-07 0)
(1.77002e-06 -2.99193e-06 0)
(9.37607e-06 -9.49205e-06 0)
(2.3163e-05 -1.34887e-05 0)
(3.94438e-05 -1.47694e-05 0)
(5.5341e-05 -1.39785e-05 0)
(6.88709e-05 -1.16915e-05 0)
(7.84876e-05 -8.34584e-06 0)
(8.30457e-05 -4.27239e-06 0)
(8.1712e-05 2.91256e-07 0)
(7.39128e-05 5.17088e-06 0)
(5.92668e-05 1.02392e-05 0)
(3.75429e-05 1.53993e-05 0)
(8.62691e-06 2.05793e-05 0)
(-2.7503e-05 2.57266e-05 0)
(-7.07992e-05 3.07952e-05 0)
(-0.000121156 3.57544e-05 0)
(-0.000178421 4.05778e-05 0)
(-0.000242409 4.5246e-05 0)
(-0.000312907 4.97424e-05 0)
(-0.000389676 5.40561e-05 0)
(-0.000472461 5.81771e-05 0)
(-0.000560993 6.20981e-05 0)
(-0.000654994 6.58138e-05 0)
(-0.000754174 6.93212e-05 0)
(-0.00085824 7.2618e-05 0)
(-0.000966893 7.57012e-05 0)
(-0.00107983 7.85704e-05 0)
(-0.00119675 8.12257e-05 0)
(-0.00131735 8.36683e-05 0)
(-0.00144132 8.58992e-05 0)
(-0.00156837 8.792e-05 0)
(-0.00169819 8.97326e-05 0)
(-0.00183048 9.13391e-05 0)
(-0.00196495 9.27421e-05 0)
(-0.00210132 9.39443e-05 0)
(-0.00223928 9.49489e-05 0)
(-0.00237857 9.57592e-05 0)
(-0.00251889 9.63784e-05 0)
(-0.00265997 9.68098e-05 0)
(-0.00280155 9.7057e-05 0)
(-0.00294336 9.71239e-05 0)
(-0.00308514 9.70142e-05 0)
(-0.00322663 9.67318e-05 0)
(-0.00336759 9.62803e-05 0)
(-0.00350777 9.56636e-05 0)
(-0.00364693 9.48857e-05 0)
(-0.00378485 9.39508e-05 0)
(-0.0039213 9.2863e-05 0)
(-0.00405605 9.16263e-05 0)
(-0.00418889 9.02447e-05 0)
(-0.00431961 8.87223e-05 0)
(-0.00444801 8.70632e-05 0)
(-0.00457389 8.52718e-05 0)
(-0.00469707 8.33521e-05 0)
(-0.00481735 8.13083e-05 0)
(-0.00493456 7.91445e-05 0)
(-0.00504852 7.68648e-05 0)
(-0.00515907 7.44736e-05 0)
(-0.00526605 7.19751e-05 0)
(-0.00536931 6.93736e-05 0)
(-0.00546869 6.66731e-05 0)
(-0.00556406 6.38781e-05 0)
(-0.00565527 6.09929e-05 0)
(-0.0057422 5.80216e-05 0)
(-0.00582474 5.49686e-05 0)
(-0.00590275 5.18383e-05 0)
(-0.00597613 4.86349e-05 0)
(-0.00604478 4.53629e-05 0)
(-0.0061086 4.20268e-05 0)
(-0.0061675 3.86308e-05 0)
(-0.00622139 3.51797e-05 0)
(-0.0062702 3.16778e-05 0)
(-0.00631385 2.81296e-05 0)
(-0.00635229 2.45397e-05 0)
(-0.00638545 2.09128e-05 0)
(-0.00641329 1.72534e-05 0)
(-0.00643576 1.35664e-05 0)
(-0.00645282 9.85644e-06 0)
(-0.00646444 6.12828e-06 0)
(-0.00647061 2.38672e-06 0)
(-0.0064713 -1.3634e-06 0)
(-0.00646651 -5.11711e-06 0)
(-0.00645623 -8.86945e-06 0)
(-0.00644048 -1.26154e-05 0)
(-0.00641926 -1.635e-05 0)
(-0.00639259 -2.00681e-05 0)
(-0.00636051 -2.37646e-05 0)
(-0.00632306 -2.74343e-05 0)
(-0.00628026 -3.10721e-05 0)
(-0.00623218 -3.46726e-05 0)
(-0.00617887 -3.82306e-05 0)
(-0.00612041 -4.17408e-05 0)
(-0.00605686 -4.51978e-05 0)
(-0.0059883 -4.85962e-05 0)
(-0.00591483 -5.19308e-05 0)
(-0.00583655 -5.51959e-05 0)
(-0.00575356 -5.83863e-05 0)
(-0.00566597 -6.14966e-05 0)
(-0.0055739 -6.45212e-05 0)
(-0.0054775 -6.74547e-05 0)
(-0.00537688 -7.02916e-05 0)
(-0.00527221 -7.30265e-05 0)
(-0.00516362 -7.56541e-05 0)
(-0.00505129 -7.8169e-05 0)
(-0.00493538 -8.05658e-05 0)
(-0.00481607 -8.28394e-05 0)
(-0.00469354 -8.49843e-05 0)
(-0.00456798 -8.69954e-05 0)
(-0.0044396 -8.88675e-05 0)
(-0.00430859 -9.05956e-05 0)
(-0.00417518 -9.21746e-05 0)
(-0.00403958 -9.35998e-05 0)
(-0.00390203 -9.48663e-05 0)
(-0.00376275 -9.59695e-05 0)
(-0.00362199 -9.69049e-05 0)
(-0.00347999 -9.76679e-05 0)
(-0.00333701 -9.82544e-05 0)
(-0.00319331 -9.86601e-05 0)
(-0.00304916 -9.8881e-05 0)
(-0.00290482 -9.89135e-05 0)
(-0.00276057 -9.87538e-05 0)
(-0.00261669 -9.83986e-05 0)
(-0.00247347 -9.78448e-05 0)
(-0.0023312 -9.70894e-05 0)
(-0.00219016 -9.61297e-05 0)
(-0.00205067 -9.49633e-05 0)
(-0.00191301 -9.3588e-05 0)
(-0.0017775 -9.2002e-05 0)
(-0.00164442 -9.02039e-05 0)
(-0.0015141 -8.81925e-05 0)
(-0.00138684 -8.5967e-05 0)
(-0.00126293 -8.35273e-05 0)
(-0.0011427 -8.08736e-05 0)
(-0.00102644 -7.80067e-05 0)
(-0.000914457 -7.4928e-05 0)
(-0.000807049 -7.16396e-05 0)
(-0.000704509 -6.81444e-05 0)
(-0.000607127 -6.44463e-05 0)
(-0.000515181 -6.05504e-05 0)
(-0.000428944 -5.64627e-05 0)
(-0.000348674 -5.21912e-05 0)
(-0.000274617 -4.77454e-05 0)
(-0.000206999 -4.31373e-05 0)
(-0.000146026 -3.83817e-05 0)
(-9.18787e-05 -3.34967e-05 0)
(-4.47053e-05 -2.85049e-05 0)
(-4.61495e-06 -2.34343e-05 0)
(2.8331e-05 -1.83201e-05 0)
(5.41308e-05 -1.32071e-05 0)
(7.28569e-05 -8.15236e-06 0)
(8.46749e-05 -3.22985e-06 0)
(8.98686e-05 1.46358e-06 0)
(8.8872e-05 5.79918e-06 0)
(8.23121e-05 9.60332e-06 0)
(7.10644e-05 1.26395e-05 0)
(5.63206e-05 1.45869e-05 0)
(3.96378e-05 1.5022e-05 0)
(2.29987e-05 1.34062e-05 0)
(9.17905e-06 9.1822e-06 0)
(1.69525e-06 2.6449e-06 0)
(2.82294e-06 -9.1751e-06 0)
(1.34022e-05 -2.32743e-05 0)
(3.10945e-05 -3.11763e-05 0)
(5.08831e-05 -3.3201e-05 0)
(6.91712e-05 -3.04753e-05 0)
(8.33816e-05 -2.41073e-05 0)
(9.14399e-05 -1.50246e-05 0)
(9.17004e-05 -3.97333e-06 0)
(8.29382e-05 8.46821e-06 0)
(6.42589e-05 2.18538e-05 0)
(3.50448e-05 3.58388e-05 0)
(-5.10366e-06 5.01588e-05 0)
(-5.6407e-05 6.4606e-05 0)
(-0.000118946 7.90201e-05 0)
(-0.000192683 9.32725e-05 0)
(-0.00027749 0.000107264 0)
(-0.000373163 0.000120914 0)
(-0.000479438 0.000134158 0)
(-0.000596001 0.000146948 0)
(-0.0007225 0.000159243 0)
(-0.000858549 0.000171012 0)
(-0.00100374 0.00018223 0)
(-0.00115764 0.000192877 0)
(-0.0013198 0.000202942 0)
(-0.00148977 0.000212412 0)
(-0.00166707 0.000221281 0)
(-0.00185124 0.000229545 0)
(-0.00204179 0.000237202 0)
(-0.00223824 0.000244252 0)
(-0.00244011 0.000250695 0)
(-0.00264693 0.000256537 0)
(-0.0028582 0.000261781 0)
(-0.00307346 0.000266432 0)
(-0.00329224 0.000270498 0)
(-0.00351405 0.000273984 0)
(-0.00373845 0.0002769 0)
(-0.00396498 0.000279253 0)
(-0.00419318 0.000281053 0)
(-0.00442261 0.000282309 0)
(-0.00465284 0.00028303 0)
(-0.00488344 0.000283227 0)
(-0.00511399 0.000282911 0)
(-0.00534407 0.000282092 0)
(-0.00557328 0.000280782 0)
(-0.00580123 0.00027899 0)
(-0.00602754 0.000276729 0)
(-0.00625181 0.00027401 0)
(-0.0064737 0.000270845 0)
(-0.00669283 0.000267245 0)
(-0.00690886 0.000263222 0)
(-0.00712144 0.000258787 0)
(-0.00733026 0.000253954 0)
(-0.00753498 0.000248734 0)
(-0.00773531 0.000243138 0)
(-0.00793092 0.000237179 0)
(-0.00812154 0.00023087 0)
(-0.00830689 0.000224222 0)
(-0.00848669 0.000217248 0)
(-0.00866068 0.00020996 0)
(-0.0088286 0.00020237 0)
(-0.00899023 0.000194491 0)
(-0.00914532 0.000186336 0)
(-0.00929366 0.000177916 0)
(-0.00943504 0.000169244 0)
(-0.00956925 0.000160334 0)
(-0.0096961 0.000151197 0)
(-0.00981543 0.000141847 0)
(-0.00992705 0.000132297 0)
(-0.0100308 0.000122559 0)
(-0.0101266 0.000112646 0)
(-0.0102142 0.000102572 0)
(-0.0102935 9.23492e-05 0)
(-0.0103644 8.19919e-05 0)
(-0.0104269 7.15132e-05 0)
(-0.0104808 6.09266e-05 0)
(-0.010526 5.02457e-05 0)
(-0.0105624 3.94844e-05 0)
(-0.0105901 2.86565e-05 0)
(-0.0106089 1.77761e-05 0)
(-0.0106189 6.85724e-06 0)
(-0.0106199 -4.08581e-06 0)
(-0.010612 -1.50386e-05 0)
(-0.0105952 -2.59867e-05 0)
(-0.0105695 -3.69153e-05 0)
(-0.0105349 -4.78097e-05 0)
(-0.0104914 -5.86551e-05 0)
(-0.0104392 -6.94365e-05 0)
(-0.0103782 -8.01388e-05 0)
(-0.0103085 -9.07467e-05 0)
(-0.0102302 -0.000101245 0)
(-0.0101434 -0.000111618 0)
(-0.0100483 -0.00012185 0)
(-0.00994486 -0.000131926 0)
(-0.00983331 -0.00014183 0)
(-0.00971378 -0.000151547 0)
(-0.00958642 -0.00016106 0)
(-0.00945141 -0.000170354 0)
(-0.00930894 -0.000179414 0)
(-0.00915921 -0.000188222 0)
(-0.00900242 -0.000196764 0)
(-0.0088388 -0.000205023 0)
(-0.00866859 -0.000212984 0)
(-0.00849204 -0.000220632 0)
(-0.0083094 -0.00022795 0)
(-0.00812096 -0.000234923 0)
(-0.007927 -0.000241536 0)
(-0.00772782 -0.000247774 0)
(-0.00752373 -0.000253622 0)
(-0.00731506 -0.000259064 0)
(-0.00710214 -0.000264087 0)
(-0.00688532 -0.000268676 0)
(-0.00666495 -0.000272816 0)
(-0.00644141 -0.000276495 0)
(-0.00621508 -0.000279699 0)
(-0.00598634 -0.000282414 0)
(-0.0057556 -0.000284629 0)
(-0.00552327 -0.000286331 0)
(-0.00528977 -0.000287508 0)
(-0.00505553 -0.000288149 0)
(-0.00482098 -0.000288243 0)
(-0.00458658 -0.000287781 0)
(-0.00435277 -0.000286753 0)
(-0.00412001 -0.00028515 0)
(-0.00388878 -0.000282964 0)
(-0.00365954 -0.000280188 0)
(-0.00343277 -0.000276815 0)
(-0.00320896 -0.000272841 0)
(-0.00298859 -0.000268259 0)
(-0.00277214 -0.000263068 0)
(-0.0025601 -0.000257265 0)
(-0.00235298 -0.000250848 0)
(-0.00215124 -0.000243819 0)
(-0.00195539 -0.000236178 0)
(-0.0017659 -0.00022793 0)
(-0.00158325 -0.000219081 0)
(-0.00140791 -0.000209638 0)
(-0.00124035 -0.000199613 0)
(-0.00108102 -0.000189017 0)
(-0.000930347 -0.00017787 0)
(-0.000788758 -0.00016619 0)
(-0.000656649 -0.000154005 0)
(-0.000534392 -0.000141345 0)
(-0.00042233 -0.000128249 0)
(-0.000320766 -0.000114763 0)
(-0.000229962 -0.000100946 0)
(-0.000150122 -8.68666e-05 0)
(-8.13868e-05 -7.26114e-05 0)
(-2.38185e-05 -5.82868e-05 0)
(2.26185e-05 -4.40257e-05 0)
(5.80773e-05 -2.99943e-05 0)
(8.28557e-05 -1.64026e-05 0)
(9.74295e-05 -3.51813e-06 0)
(0.000102493 8.31677e-06 0)
(9.90095e-05 1.86613e-05 0)
(8.82702e-05 2.69485e-05 0)
(7.19609e-05 3.24587e-05 0)
(5.2185e-05 3.43087e-05 0)
(3.1488e-05 3.14802e-05 0)
(1.34038e-05 2.30002e-05 0)
(2.77508e-06 8.77269e-06 0)
(3.20458e-06 -1.702e-05 0)
(1.47449e-05 -3.95413e-05 0)
(3.32034e-05 -5.09739e-05 0)
(5.27166e-05 -5.26837e-05 0)
(6.91619e-05 -4.64404e-05 0)
(7.96291e-05 -3.39304e-05 0)
(8.16958e-05 -1.66226e-05 0)
(7.34185e-05 4.27174e-06 0)
(5.32891e-05 2.77719e-05 0)
(2.01828e-05 5.30963e-05 0)
(-2.67078e-05 7.96246e-05 0)
(-8.79231e-05 0.000106865 0)
(-0.000163785 0.000134426 0)
(-0.000254433 0.000161993 0)
(-0.000359856 0.000189319 0)
(-0.000479918 0.000216204 0)
(-0.000614384 0.000242485 0)
(-0.000762933 0.000268033 0)
(-0.000925176 0.000292744 0)
(-0.00110067 0.000316535 0)
(-0.00128892 0.000339339 0)
(-0.0014894 0.000361102 0)
(-0.00170154 0.000381784 0)
(-0.00192477 0.000401353 0)
(-0.00215849 0.000419783 0)
(-0.00240207 0.000437059 0)
(-0.00265488 0.000453169 0)
(-0.0029163 0.000468107 0)
(-0.00318567 0.000481869 0)
(-0.00346236 0.000494457 0)
(-0.00374572 0.000505875 0)
(-0.00403511 0.00051613 0)
(-0.00432988 0.000525231 0)
(-0.0046294 0.000533189 0)
(-0.00493305 0.000540016 0)
(-0.00524018 0.000545726 0)
(-0.00555019 0.000550336 0)
(-0.00586246 0.000553862 0)
(-0.0061764 0.000556322 0)
(-0.00649141 0.000557734 0)
(-0.00680691 0.000558116 0)
(-0.00712232 0.000557491 0)
(-0.0074371 0.000555877 0)
(-0.00775068 0.000553295 0)
(-0.00806253 0.000549768 0)
(-0.00837212 0.000545317 0)
(-0.00867893 0.000539964 0)
(-0.00898248 0.000533732 0)
(-0.00928225 0.000526643 0)
(-0.00957779 0.000518721 0)
(-0.00986862 0.000509988 0)
(-0.0101543 0.000500468 0)
(-0.0104344 0.000490184 0)
(-0.0107084 0.00047916 0)
(-0.010976 0.000467421 0)
(-0.0112368 0.000454988 0)
(-0.0114903 0.000441888 0)
(-0.0117363 0.000428143 0)
(-0.0119743 0.000413779 0)
(-0.0122041 0.000398819 0)
(-0.0124252 0.000383288 0)
(-0.0126373 0.000367211 0)
(-0.0128402 0.000350612 0)
(-0.0130336 0.000333517 0)
(-0.0132172 0.00031595 0)
(-0.0133907 0.000297936 0)
(-0.0135539 0.000279501 0)
(-0.0137066 0.000260671 0)
(-0.0138485 0.00024147 0)
(-0.0139794 0.000221926 0)
(-0.0140992 0.000202062 0)
(-0.0142076 0.000181907 0)
(-0.0143046 0.000161486 0)
(-0.01439 0.000140826 0)
(-0.0144636 0.000119954 0)
(-0.0145253 9.88963e-05 0)
(-0.0145751 7.76807e-05 0)
(-0.0146129 5.63346e-05 0)
(-0.0146385 3.48857e-05 0)
(-0.014652 1.33619e-05 0)
(-0.0146534 -8.20844e-06 0)
(-0.0146425 -2.9797e-05 0)
(-0.0146194 -5.1375e-05 0)
(-0.0145841 -7.29136e-05 0)
(-0.0145366 -9.43835e-05 0)
(-0.0144771 -0.000115755 0)
(-0.0144055 -0.000137 0)
(-0.0143219 -0.000158086 0)
(-0.0142265 -0.000178986 0)
(-0.0141193 -0.000199667 0)
(-0.0140005 -0.000220101 0)
(-0.0138702 -0.000240256 0)
(-0.0137287 -0.000260101 0)
(-0.013576 -0.000279606 0)
(-0.0134124 -0.00029874 0)
(-0.0132382 -0.000317472 0)
(-0.0130535 -0.00033577 0)
(-0.0128585 -0.000353604 0)
(-0.0126537 -0.000370943 0)
(-0.0124392 -0.000387755 0)
(-0.0122154 -0.00040401 0)
(-0.0119826 -0.000419677 0)
(-0.0117411 -0.000434724 0)
(-0.0114913 -0.000449122 0)
(-0.0112336 -0.00046284 0)
(-0.0109684 -0.000475849 0)
(-0.010696 -0.000488118 0)
(-0.010417 -0.000499618 0)
(-0.0101316 -0.00051032 0)
(-0.00984051 -0.000520196 0)
(-0.00954406 -0.000529218 0)
(-0.00924278 -0.000537359 0)
(-0.00893716 -0.000544591 0)
(-0.00862772 -0.000550889 0)
(-0.008315 -0.000556228 0)
(-0.00799955 -0.000560583 0)
(-0.00768191 -0.000563931 0)
(-0.00736268 -0.000566249 0)
(-0.00704242 -0.000567516 0)
(-0.00672173 -0.000567711 0)
(-0.00640122 -0.000566815 0)
(-0.0060815 -0.00056481 0)
(-0.0057632 -0.000561679 0)
(-0.00544695 -0.000557409 0)
(-0.00513338 -0.000551984 0)
(-0.00482315 -0.000545395 0)
(-0.00451691 -0.00053763 0)
(-0.00421531 -0.000528682 0)
(-0.003919 -0.000518546 0)
(-0.00362864 -0.000507219 0)
(-0.0033449 -0.000494699 0)
(-0.00306843 -0.00048099 0)
(-0.00279988 -0.000466097 0)
(-0.00253989 -0.00045003 0)
(-0.00228911 -0.000432802 0)
(-0.00204816 -0.000414431 0)
(-0.00181764 -0.000394941 0)
(-0.00159817 -0.000374362 0)
(-0.0013903 -0.000352729 0)
(-0.00119459 -0.000330087 0)
(-0.00101155 -0.000306491 0)
(-0.000841663 -0.000282008 0)
(-0.000685365 -0.000256716 0)
(-0.000543037 -0.000230713 0)
(-0.000414998 -0.000204115 0)
(-0.000301493 -0.000177064 0)
(-0.000202677 -0.000149732 0)
(-0.000118598 -0.000122331 0)
(-4.91769e-05 -9.51184e-05 0)
(5.81924e-06 -6.84146e-05 0)
(4.68071e-05 -4.26153e-05 0)
(7.44234e-05 -1.82133e-05 0)
(8.9567e-05 4.1762e-06 0)
(9.34484e-05 2.37853e-05 0)
(8.76457e-05 3.9661e-05 0)
(7.41626e-05 5.06375e-05 0)
(5.54395e-05 5.53314e-05 0)
(3.43784e-05 5.21883e-05 0)
(1.50402e-05 3.96536e-05 0)
(3.21116e-06 1.66618e-05 0)
(3.12997e-06 -2.49869e-05 0)
(1.40239e-05 -5.54793e-05 0)
(3.06327e-05 -6.93203e-05 0)
(4.67101e-05 -6.91614e-05 0)
(5.7877e-05 -5.75462e-05 0)
(6.09905e-05 -3.67945e-05 0)
(5.34414e-05 -8.92168e-06 0)
(3.30922e-05 2.43764e-05 0)
(-1.73657e-06 6.16974e-05 0)
(-5.233e-05 0.000101898 0)
(-0.000119628 0.000144049 0)
(-0.000204283 0.000187397 0)
(-0.000306696 0.000231333 0)
(-0.000427059 0.000275362 0)
(-0.000565384 0.000319083 0)
(-0.000721542 0.00036217 0)
(-0.000895272 0.000404357 0)
(-0.00108621 0.000445429 0)
(-0.00129392 0.000485209 0)
(-0.00151787 0.000523555 0)
(-0.00175747 0.000560351 0)
(-0.00201212 0.000595507 0)
(-0.00228112 0.000628949 0)
(-0.00256379 0.000660617 0)
(-0.00285938 0.000690469 0)
(-0.00316716 0.000718471 0)
(-0.00348635 0.000744602 0)
(-0.00381618 0.000768845 0)
(-0.00415586 0.000791194 0)
(-0.0045046 0.000811647 0)
(-0.00486161 0.000830207 0)
(-0.00522609 0.000846883 0)
(-0.00559724 0.000861687 0)
(-0.00597429 0.000874634 0)
(-0.00635644 0.000885744 0)
(-0.00674293 0.000895039 0)
(-0.00713298 0.00090254 0)
(-0.00752583 0.000908275 0)
(-0.00792073 0.00091227 0)
(-0.00831695 0.000914556 0)
(-0.00871376 0.000915162 0)
(-0.00911045 0.000914119 0)
(-0.0095063 0.000911461 0)
(-0.00990065 0.000907221 0)
(-0.0102928 0.000901433 0)
(-0.0106821 0.000894132 0)
(-0.0110679 0.000885355 0)
(-0.0114496 0.000875138 0)
(-0.0118265 0.000863516 0)
(-0.0121981 0.000850529 0)
(-0.0125638 0.000836212 0)
(-0.012923 0.000820604 0)
(-0.0132752 0.000803744 0)
(-0.0136197 0.00078567 0)
(-0.0139562 0.00076642 0)
(-0.0142841 0.000746035 0)
(-0.0146029 0.000724552 0)
(-0.0149121 0.000702013 0)
(-0.0152114 0.000678456 0)
(-0.0155002 0.000653921 0)
(-0.0157782 0.000628449 0)
(-0.0160449 0.00060208 0)
(-0.0163 0.000574855 0)
(-0.0165431 0.000546815 0)
(-0.0167739 0.000518 0)
(-0.016992 0.000488453 0)
(-0.0171971 0.000458214 0)
(-0.017389 0.000427326 0)
(-0.0175674 0.000395831 0)
(-0.0177319 0.000363771 0)
(-0.0178824 0.000331189 0)
(-0.0180187 0.000298128 0)
(-0.0181406 0.000264632 0)
(-0.0182478 0.000230744 0)
(-0.0183403 0.000196509 0)
(-0.0184178 0.000161971 0)
(-0.0184803 0.000127174 0)
(-0.0185276 9.21647e-05 0)
(-0.0185598 5.69877e-05 0)
(-0.0185766 2.16894e-05 0)
(-0.0185781 -1.36839e-05 0)
(-0.0185643 -4.90854e-05 0)
(-0.0185351 -8.4468e-05 0)
(-0.0184906 -0.000119784 0)
(-0.0184309 -0.000154986 0)
(-0.0183559 -0.000190025 0)
(-0.0182657 -0.000224853 0)
(-0.0181605 -0.000259421 0)
(-0.0180405 -0.000293679 0)
(-0.0179056 -0.000327578 0)
(-0.0177562 -0.000361068 0)
(-0.0175923 -0.0003941 0)
(-0.0174143 -0.000426621 0)
(-0.0172222 -0.000458583 0)
(-0.0170165 -0.000489935 0)
(-0.0167974 -0.000520625 0)
(-0.0165651 -0.000550604 0)
(-0.01632 -0.000579819 0)
(-0.0160625 -0.00060822 0)
(-0.0157929 -0.000635757 0)
(-0.0155115 -0.000662379 0)
(-0.0152188 -0.000688036 0)
(-0.0149153 -0.000712677 0)
(-0.0146013 -0.000736253 0)
(-0.0142774 -0.000758714 0)
(-0.013944 -0.000780012 0)
(-0.0136017 -0.000800098 0)
(-0.013251 -0.000818924 0)
(-0.0128924 -0.000836443 0)
(-0.0125265 -0.00085261 0)
(-0.012154 -0.000867379 0)
(-0.0117754 -0.000880705 0)
(-0.0113913 -0.000892546 0)
(-0.0110024 -0.000902859 0)
(-0.0106094 -0.000911603 0)
(-0.010213 -0.00091874 0)
(-0.00981381 -0.000924232 0)
(-0.00941259 -0.000928042 0)
(-0.00901007 -0.000930135 0)
(-0.00860699 -0.00093048 0)
(-0.0082041 -0.000929045 0)
(-0.00780218 -0.000925804 0)
(-0.00740199 -0.000920728 0)
(-0.00700433 -0.000913797 0)
(-0.00660999 -0.000904988 0)
(-0.00621977 -0.000894284 0)
(-0.00583449 -0.000881671 0)
(-0.00545494 -0.000867137 0)
(-0.00508196 -0.000850676 0)
(-0.00471634 -0.000832284 0)
(-0.00435891 -0.000811963 0)
(-0.00401047 -0.000789719 0)
(-0.00367183 -0.000765565 0)
(-0.00334377 -0.000739519 0)
(-0.00302708 -0.000711606 0)
(-0.00272252 -0.000681859 0)
(-0.00243084 -0.000650319 0)
(-0.00215276 -0.000617041 0)
(-0.00188898 -0.000582086 0)
(-0.00164015 -0.000545534 0)
(-0.00140689 -0.000507478 0)
(-0.00118977 -0.000468031 0)
(-0.000989311 -0.000427329 0)
(-0.000805945 -0.000385535 0)
(-0.000640042 -0.000342843 0)
(-0.000491875 -0.000299488 0)
(-0.000361604 -0.000255752 0)
(-0.00024926 -0.000211978 0)
(-0.000154724 -0.000168579 0)
(-7.76933e-05 -0.000126059 0)
(-1.76561e-05 -8.50326e-05 0)
(2.61471e-05 -4.62509e-05 0)
(5.47635e-05 -1.06321e-05 0)
(6.9573e-05 2.07037e-05 0)
(7.23395e-05 4.63993e-05 0)
(6.52635e-05 6.48299e-05 0)
(5.09929e-05 7.40935e-05 0)
(3.2665e-05 7.20451e-05 0)
(1.46548e-05 5.63991e-05 0)
(3.19815e-06 2.48505e-05 0)
(2.76636e-06 -3.2146e-05 0)
(1.18278e-05 -6.91331e-05 0)
(2.44732e-05 -8.37007e-05 0)
(3.4553e-05 -7.97745e-05 0)
(3.76179e-05 -6.07211e-05 0)
(3.04238e-05 -2.95166e-05 0)
(1.02589e-05 1.12658e-05 0)
(-2.51074e-05 5.94442e-05 0)
(-7.74541e-05 0.00011319 0)
(-0.000148157 0.000170987 0)
(-0.000238245 0.000231581 0)
(-0.000348441 0.000293936 0)
(-0.000479203 0.000357205 0)
(-0.000630761 0.000420689 0)
(-0.00080315 0.000483812 0)
(-0.000996237 0.0005461 0)
(-0.00120975 0.000607166 0)
(-0.00144329 0.00066669 0)
(-0.00169636 0.000724407 0)
(-0.00196837 0.000780103 0)
(-0.00225869 0.000833603 0)
(-0.00256657 0.000884762 0)
(-0.00289127 0.000933467 0)
(-0.00323198 0.000979627 0)
(-0.00358785 0.00102317 0)
(-0.00395801 0.00106404 0)
(-0.00434158 0.0011022 0)
(-0.00473766 0.00113763 0)
(-0.00514531 0.0011703 0)
(-0.00556363 0.00120022 0)
(-0.00599168 0.00122737 0)
(-0.00642852 0.00125178 0)
(-0.00687323 0.00127345 0)
(-0.00732487 0.0012924 0)
(-0.00778253 0.00130867 0)
(-0.00824528 0.00132227 0)
(-0.00871221 0.00133325 0)
(-0.00918244 0.00134163 0)
(-0.00965507 0.00134746 0)
(-0.0101292 0.00135078 0)
(-0.010604 0.00135162 0)
(-0.0110787 0.00135005 0)
(-0.0115523 0.00134609 0)
(-0.012024 0.0013398 0)
(-0.0124932 0.00133123 0)
(-0.0129588 0.00132044 0)
(-0.0134203 0.00130747 0)
(-0.0138769 0.00129237 0)
(-0.0143278 0.0012752 0)
(-0.0147722 0.00125602 0)
(-0.0152096 0.00123487 0)
(-0.0156392 0.00121182 0)
(-0.0160604 0.00118692 0)
(-0.0164725 0.00116022 0)
(-0.0168749 0.00113179 0)
(-0.017267 0.00110168 0)
(-0.0176483 0.00106995 0)
(-0.0180182 0.00103666 0)
(-0.018376 0.00100186 0)
(-0.0187214 0.000965623 0)
(-0.0190538 0.000927997 0)
(-0.0193728 0.000889046 0)
(-0.0196778 0.00084883 0)
(-0.0199685 0.000807409 0)
(-0.0202445 0.000764843 0)
(-0.0205052 0.000721195 0)
(-0.0207505 0.000676526 0)
(-0.0209799 0.000630897 0)
(-0.0211931 0.000584371 0)
(-0.0213898 0.000537011 0)
(-0.0215697 0.000488881 0)
(-0.0217326 0.000440044 0)
(-0.0218782 0.000390565 0)
(-0.0220064 0.000340508 0)
(-0.0221168 0.000289938 0)
(-0.0222094 0.000238923 0)
(-0.022284 0.000187527 0)
(-0.0223405 0.000135818 0)
(-0.0223788 8.3864e-05 0)
(-0.0223988 3.17322e-05 0)
(-0.0224005 -2.05084e-05 0)
(-0.0223838 -7.27886e-05 0)
(-0.0223488 -0.000125039 0)
(-0.0222955 -0.000177188 0)
(-0.0222238 -0.000229166 0)
(-0.022134 -0.000280902 0)
(-0.0220261 -0.000332323 0)
(-0.0219002 -0.000383357 0)
(-0.0217565 -0.000433932 0)
(-0.0215951 -0.000483974 0)
(-0.0214163 -0.000533409 0)
(-0.0212202 -0.000582164 0)
(-0.0210072 -0.000630164 0)
(-0.0207776 -0.000677335 0)
(-0.0205315 -0.000723603 0)
(-0.0202694 -0.000768892 0)
(-0.0199916 -0.000813127 0)
(-0.0196985 -0.000856234 0)
(-0.0193905 -0.000898138 0)
(-0.0190681 -0.000938764 0)
(-0.0187317 -0.000978038 0)
(-0.0183817 -0.00101589 0)
(-0.0180188 -0.00105223 0)
(-0.0176434 -0.00108701 0)
(-0.0172562 -0.00112014 0)
(-0.0168576 -0.00115155 0)
(-0.0164483 -0.00118117 0)
(-0.0160291 -0.00120894 0)
(-0.0156004 -0.00123478 0)
(-0.015163 -0.00125863 0)
(-0.0147176 -0.00128041 0)
(-0.014265 -0.00130007 0)
(-0.0138058 -0.00131754 0)
(-0.0133409 -0.00133276 0)
(-0.0128711 -0.00134568 0)
(-0.0123971 -0.00135622 0)
(-0.0119198 -0.00136435 0)
(-0.0114401 -0.00137 0)
(-0.0109588 -0.00137313 0)
(-0.0104768 -0.00137369 0)
(-0.00999491 -0.00137164 0)
(-0.00951417 -0.00136694 0)
(-0.00903545 -0.00135954 0)
(-0.00855968 -0.00134942 0)
(-0.0080878 -0.00133655 0)
(-0.00762075 -0.00132091 0)
(-0.0071595 -0.00130247 0)
(-0.006705 -0.00128122 0)
(-0.00625821 -0.00125716 0)
(-0.00582008 -0.00123028 0)
(-0.00539158 -0.00120058 0)
(-0.00497364 -0.00116809 0)
(-0.00456722 -0.00113281 0)
(-0.00417323 -0.00109479 0)
(-0.00379258 -0.00105406 0)
(-0.00342618 -0.00101068 0)
(-0.00307488 -0.000964709 0)
(-0.00273951 -0.000916234 0)
(-0.00242089 -0.000865353 0)
(-0.00211975 -0.000812186 0)
(-0.00183682 -0.000756877 0)
(-0.00157274 -0.000699599 0)
(-0.00132808 -0.000640556 0)
(-0.00110334 -0.00057999 0)
(-0.000898931 -0.000518193 0)
(-0.000715136 -0.000455509 0)
(-0.000552126 -0.000392352 0)
(-0.000409917 -0.000329214 0)
(-0.000288356 -0.000266688 0)
(-0.000187091 -0.000205483 0)
(-0.000105541 -0.000146453 0)
(-4.28612e-05 -9.06271e-05 0)
(2.09214e-06 -3.92416e-05 0)
(3.08044e-05 6.22071e-06 0)
(4.5148e-05 4.39923e-05 0)
(4.74316e-05 7.19851e-05 0)
(4.04177e-05 8.77657e-05 0)
(2.73778e-05 8.85632e-05 0)
(1.27917e-05 7.12943e-05 0)
(2.89353e-06 3.24051e-05 0)
(2.22132e-06 -3.78546e-05 0)
(8.59399e-06 -7.89955e-05 0)
(1.56539e-05 -9.20741e-05 0)
(1.76838e-05 -8.21539e-05 0)
(1.03694e-05 -5.34006e-05 0)
(-9.55226e-06 -9.4366e-06 0)
(-4.48054e-05 4.66141e-05 0)
(-9.76443e-05 0.000112091 0)
(-0.000169879 0.000184746 0)
(-0.000262928 0.000262687 0)
(-0.000377862 0.000344328 0)
(-0.000515441 0.000428347 0)
(-0.000676154 0.000513642 0)
(-0.000860252 0.000599295 0)
(-0.00106778 0.000684541 0)
(-0.0012986 0.000768746 0)
(-0.00155242 0.000851382 0)
(-0.00182881 0.000932009 0)
(-0.00212724 0.00101026 0)
(-0.00244706 0.00108585 0)
(-0.00278756 0.00115851 0)
(-0.00314794 0.00122805 0)
(-0.00352736 0.00129431 0)
(-0.00392491 0.00135714 0)
(-0.00433966 0.00141645 0)
(-0.00477064 0.00147216 0)
(-0.00521684 0.00152419 0)
(-0.00567724 0.00157252 0)
(-0.0061508 0.00161711 0)
(-0.00663649 0.00165795 0)
(-0.00713324 0.00169503 0)
(-0.00763999 0.00172837 0)
(-0.00815569 0.00175797 0)
(-0.00867928 0.00178387 0)
(-0.0092097 0.00180608 0)
(-0.00974591 0.00182466 0)
(-0.0102869 0.00183964 0)
(-0.0108315 0.00185106 0)
(-0.0113789 0.00185898 0)
(-0.011928 0.00186345 0)
(-0.0124777 0.00186453 0)
(-0.0130272 0.00186228 0)
(-0.0135755 0.00185676 0)
(-0.0141216 0.00184804 0)
(-0.0146646 0.00183618 0)
(-0.0152037 0.00182126 0)
(-0.0157378 0.00180333 0)
(-0.0162662 0.00178249 0)
(-0.016788 0.00175879 0)
(-0.0173023 0.00173231 0)
(-0.0178085 0.00170313 0)
(-0.0183056 0.00167132 0)
(-0.0187929 0.00163697 0)
(-0.0192698 0.00160014 0)
(-0.0197354 0.00156091 0)
(-0.0201892 0.00151937 0)
(-0.0206303 0.0014756 0)
(-0.0210582 0.00142967 0)
(-0.0214722 0.00138167 0)
(-0.0218718 0.00133167 0)
(-0.0222564 0.00127977 0)
(-0.0226254 0.00122603 0)
(-0.0229783 0.00117055 0)
(-0.0233146 0.0011134 0)
(-0.0236338 0.00105468 0)
(-0.0239354 0.000994464 0)
(-0.0242191 0.000932838 0)
(-0.0244844 0.00086989 0)
(-0.024731 0.000805705 0)
(-0.0249585 0.000740369 0)
(-0.0251665 0.000673972 0)
(-0.0253549 0.0006066 0)
(-0.0255232 0.000538344 0)
(-0.0256713 0.000469292 0)
(-0.025799 0.000399535 0)
(-0.025906 0.000329163 0)
(-0.0259922 0.00025827 0)
(-0.0260574 0.000186947 0)
(-0.0261016 0.000115287 0)
(-0.0261246 4.33847e-05 0)
(-0.0261264 -2.8665e-05 0)
(-0.0261069 -0.000100767 0)
(-0.0260663 -0.000172824 0)
(-0.0260044 -0.00024474 0)
(-0.0259214 -0.000316416 0)
(-0.0258174 -0.000387755 0)