/*--------------------------------*- C++ -*----------------------------------*\
  =========                 |
  \\      /  F ield         | OpenFOAM: The Open Source CFD Toolbox
   \\    /   O peration     | Website:  https://openfoam.org
    \\  /    A nd           | Version:  7
     \\/     M anipulation  |
\*---------------------------------------------------------------------------*/
FoamFile
{
    version     2.0;
    format      ascii;
    class       volScalarField;
    location    "0.1";
    object      p;
}
// * * * * * * * * * * * * * * * * * * * * * * * * * * * * * * * * * * * * * //

dimensions      [0 2 -2 0 0 0 0];

internalField   nonuniform List<scalar> 
25600
(
3.48104e-08
-1.84926e-05
-6.74617e-05
-0.00013574
-0.000216352
-0.000310278
-0.000416418
-0.000533053
-0.000658153
-0.00078962
-0.000925453
-0.00106381
-0.00120314
-0.00134202
-0.00147909
-0.00161314
-0.00174311
-0.00186802
-0.00198708
-0.00209957
-0.00220481
-0.00230216
-0.00239107
-0.00247106
-0.00254172
-0.00260273
-0.00265384
-0.00269485
-0.00272554
-0.00274574
-0.00275527
-0.00275403
-0.00274191
-0.00271889
-0.00268494
-0.00264005
-0.00258424
-0.00251754
-0.00243998
-0.00235161
-0.00225249
-0.0021427
-0.00202237
-0.0018916
-0.0017505
-0.0015992
-0.00143786
-0.00126666
-0.00108576
-0.000895344
-0.000695565
-0.000486624
-0.000268734
-4.20935e-05
0.000193109
0.00043667
0.000688372
0.00094799
0.00121529
0.00149005
0.00177205
0.00206106
0.00235684
0.00265911
0.00296762
0.00328213
0.00360239
0.00392812
0.00425902
0.0045948
0.0049352
0.00527993
0.00562868
0.00598114
0.00633699
0.00669589
0.00705751
0.00742152
0.00778761
0.00815543
0.00852462
0.00889478
0.00926551
0.00963646
0.0100073
0.0103776
0.0107471
0.0111153
0.0114817
0.0118459
0.0122077
0.0125665
0.0129221
0.0132739
0.0136215
0.0139645
0.0143025
0.014635
0.0149617
0.0152822
0.0155961
0.015903
0.0162024
0.0164941
0.0167775
0.0170524
0.0173183
0.0175749
0.0178219
0.0180589
0.0182856
0.0185017
0.0187069
0.018901
0.0190836
0.0192547
0.0194139
0.019561
0.0196959
0.0198183
0.0199282
0.0200255
0.0201101
0.020182
0.0202412
0.0202877
0.0203215
0.0203428
0.0203516
0.0203481
0.0203324
0.0203049
0.0202659
0.0202157
0.0201547
0.0200833
0.0200021
0.0199114
0.019812
0.0197045
0.0195896
0.0194683
0.0193413
0.0192097
0.0190745
0.0189368
0.0187981
0.0186596
0.018523
0.0183899
0.0182624
0.0181425
0.0180324
0.0179346
0.0178518
0.0177865
0.017741
0.017717
0.0177147
0.0177279
-4.11056e-05
-5.80418e-05
-9.96921e-05
-0.000158821
-0.000230755
-0.000314616
-0.000409302
-0.0005134
-0.000625321
-0.000743377
-0.000865787
-0.000990912
-0.00111727
-0.00124351
-0.00136842
-0.00149086
-0.00160978
-0.00172424
-0.00183341
-0.00193654
-0.00203297
-0.00212213
-0.00220345
-0.00227648
-0.00234081
-0.00239606
-0.00244197
-0.0024783
-0.00250484
-0.00252138
-0.00252777
-0.00252386
-0.00250956
-0.00248481
-0.00244956
-0.00240381
-0.00234755
-0.0022808
-0.00220357
-0.00211587
-0.00201778
-0.00190937
-0.00179075
-0.00166199
-0.00152322
-0.00137454
-0.0012161
-0.00104809
-0.000870648
-0.000683928
-0.00048809
-0.000283338
-6.98706e-05
0.000152137
0.000382501
0.000621009
0.000867443
0.0011216
0.00138325
0.00165218
0.00192818
0.00221103
0.00250046
0.00279622
0.00309807
0.0034058
0.00371914
0.0040378
0.00436149
0.00468991
0.00502284
0.00535998
0.00570105
0.00604572
0.00639367
0.00674457
0.00709809
0.00745393
0.00781177
0.00817129
0.0085321
0.00889382
0.00925606
0.00961849
0.00998076
0.0103426
0.0107034
0.011063
0.0114208
0.0117765
0.0121297
0.0124801
0.0128272
0.0131706
0.0135099
0.0138447
0.0141746
0.0144991
0.014818
0.0151308
0.0154371
0.0157366
0.0160288
0.0163134
0.0165901
0.0168584
0.017118
0.0173686
0.0176098
0.0178413
0.0180629
0.0182741
0.0184749
0.0186648
0.0188437
0.0190114
0.0191676
0.0193122
0.019445
0.0195658
0.0196745
0.019771
0.0198554
0.0199276
0.0199876
0.0200355
0.0200712
0.020095
0.0201067
0.0201067
0.0200952
0.0200724
0.0200387
0.0199944
0.0199399
0.0198757
0.0198021
0.0197198
0.0196293
0.0195312
0.0194264
0.0193156
0.0191997
0.0190797
0.0189565
0.0188314
0.0187054
0.01858
0.0184566
0.0183368
0.0182223
0.018115
0.0180169
0.0179299
0.0178563
0.0177979
0.0177563
0.0177325
0.0177279
0.0177411
-7.85041e-05
-8.51957e-05
-0.00011589
-0.000166131
-0.000230221
-0.00030615
-0.000392362
-0.000487332
-0.000589599
-0.000697644
-0.000809962
-0.00092503
-0.00104142
-0.00115787
-0.00127325
-0.00138649
-0.00149662
-0.00160272
-0.00170395
-0.00179957
-0.00188892
-0.0019714
-0.00204651
-0.00211381
-0.00217287
-0.00222335
-0.00226494
-0.00229738
-0.00232044
-0.00233392
-0.00233766
-0.00233149
-0.00231533
-0.00228909
-0.00225272
-0.0022062
-0.00214952
-0.00208266
-0.00200564
-0.00191846
-0.00182119
-0.0017139
-0.00159667
-0.00146958
-0.00133271
-0.0011862
-0.0010302
-0.000864841
-0.000690276
-0.000506648
-0.000314124
-0.000112895
9.68532e-05
0.000314953
0.000541227
0.000775469
0.00101746
0.001267
0.00152387
0.00178789
0.00205883
0.00233647
0.00262054
0.00291081
0.00320705
0.00350904
0.00381654
0.00412924
0.00444684
0.00476908
0.00509572
0.00542649
0.0057611
0.00609921
0.0064405
0.00678466
0.00713138
0.00748037
0.00783131
0.00818386
0.00853764
0.00889227
0.0092474
0.00960269
0.00995783
0.0103125
0.0106662
0.0110185
0.0113692
0.0117177
0.0120638
0.0124071
0.0127472
0.0130836
0.013416
0.013744
0.0140671
0.014385
0.0146973
0.0150037
0.0153038
0.0155972
0.0158834
0.0161623
0.0164333
0.0166961
0.0169505
0.0171961
0.0174326
0.0176596
0.0178769
0.0180842
0.0182813
0.0184678
0.0186436
0.0188086
0.0189624
0.0191049
0.019236
0.0193554
0.0194631
0.0195591
0.0196433
0.0197158
0.0197765
0.0198255
0.0198628
0.0198885
0.0199028
0.0199057
0.0198975
0.0198786
0.0198492
0.0198098
0.0197606
0.0197021
0.0196348
0.0195592
0.0194758
0.0193853
0.0192885
0.0191861
0.019079
0.0189681
0.0188544
0.0187389
0.0186229
0.0185074
0.018394
0.018284
0.0181791
0.0180809
0.0179912
0.0179117
0.0178442
0.0177903
0.0177512
0.017728
0.0177235
0.0177389
-9.02178e-05
-9.04416e-05
-0.000114504
-0.000158248
-0.000216218
-0.000286004
-0.000365899
-0.000454205
-0.000549347
-0.000649916
-0.000754522
-0.000861775
-0.000970364
-0.00107909
-0.00118683
-0.00129261
-0.0013955
-0.00149466
-0.00158927
-0.00167862
-0.00176203
-0.00183893
-0.0019088
-0.0019712
-0.00202574
-0.00207208
-0.00210991
-0.00213898
-0.00215902
-0.00216981
-0.0021712
-0.00216304
-0.0021452
-0.00211763
-0.00208023
-0.002033
-0.0019759
-0.00190891
-0.00183202
-0.00174525
-0.00164866
-0.00154232
-0.00142628
-0.0013006
-0.00116539
-0.00102078
-0.00086689
-0.000703862
-0.000531824
-0.000350917
-0.000161309
3.68097e-05
0.000243269
0.000457917
0.000680578
0.00091104
0.00114909
0.00139453
0.00164718
0.00190684
0.00217329
0.0024463
0.00272563
0.00301104
0.00330232
0.00359926
0.00390159
0.004209
0.00452122
0.004838
0.00515911
0.00548427
0.00581317
0.00614549
0.0064809
0.00681913
0.00715988
0.00750285
0.00784772
0.00819413
0.00854172
0.00889013
0.00923901
0.00958805
0.00993693
0.0102853
0.0106327
0.0109788
0.0113231
0.0116654
0.0120053
0.0123424
0.0126763
0.0130067
0.0133331
0.0136551
0.0139724
0.0142845
0.0145912
0.0148921
0.0151867
0.0154748
0.0157559
0.0160297
0.0162958
0.016554
0.0168039
0.0170452
0.0172776
0.0175007
0.0177144
0.0179183
0.0181121
0.0182958
0.018469
0.0186315
0.0187833
0.0189241
0.0190536
0.0191719
0.0192788
0.0193743
0.0194584
0.0195311
0.0195925
0.0196425
0.0196811
0.0197085
0.0197248
0.0197302
0.019725
0.0197093
0.0196836
0.0196483
0.0196035
0.0195499
0.0194878
0.0194178
0.0193403
0.0192561
0.0191659
0.0190704
0.0189705
0.018867
0.0187609
0.0186531
0.0185448
0.0184372
0.0183314
0.0182289
0.0181311
0.0180394
0.0179556
0.017881
0.0178173
0.017766
0.0177281
0.017705
0.0176999
0.0177151
-7.17324e-05
-7.30927e-05
-9.56234e-05
-0.000136227
-0.000190296
-0.000255694
-0.00033074
-0.00041377
-0.000503238
-0.000597719
-0.000695903
-0.000796528
-0.000898403
-0.00100041
-0.0011015
-0.00120071
-0.00129716
-0.00139006
-0.00147865
-0.00156224
-0.00164019
-0.00171194
-0.00177698
-0.00183486
-0.00188519
-0.00192767
-0.00196198
-0.00198784
-0.00200502
-0.00201327
-0.00201243
-0.00200235
-0.00198291
-0.00195402
-0.00191563
-0.00186769
-0.00181016
-0.001743
-0.00166621
-0.00157981
-0.00148385
-0.00137838
-0.00126345
-0.00113911
-0.00100546
-0.000862656
-0.000710789
-0.000549975
-0.000380347
-0.000202053
-1.52566e-05
0.000179873
0.00038318
0.000594514
0.000813694
0.00104051
0.00127475
0.00151626
0.00176485
0.00202032
0.00228243
0.00255098
0.00282573
0.00310648
0.00339301
0.00368508
0.00398243
0.00428477
0.00459182
0.00490337
0.00521917
0.00553894
0.00586237
0.00618912
0.00651891
0.00685146
0.0071865
0.00752371
0.00786276
0.00820329
0.00854496
0.00888742
0.00923035
0.00957343
0.00991632
0.0102587
0.0106001
0.0109402
0.0112785
0.0116149
0.0119488
0.0122801
0.0126082
0.0129328
0.0132535
0.0135699
0.0138816
0.0141883
0.0144896
0.0147852
0.0150747
0.0153578
0.015634
0.0159031
0.0161647
0.0164184
0.0166641
0.0169014
0.0171299
0.0173494
0.0175596
0.0177602
0.0179511
0.0181321
0.0183028
0.0184632
0.018613
0.0187521
0.0188803
0.0189975
0.0191036
0.0191987
0.0192827
0.0193557
0.0194176
0.0194685
0.0195084
0.0195374
0.0195556
0.0195633
0.0195607
0.0195481
0.0195258
0.0194941
0.0194535
0.0194043
0.019347
0.019282
0.01921
0.0191315
0.0190472
0.0189578
0.0188643
0.0187674
0.0186679
0.0185669
0.0184653
0.0183643
0.018265
0.0181686
0.0180765
0.01799
0.0179106
0.0178395
0.0177783
0.0177282
0.0176905
0.0176661
0.0176585
0.01767
-2.87151e-05
-3.54661e-05
-5.99661e-05
-0.000100172
-0.000152736
-0.000215699
-0.000287522
-0.000366713
-0.000451841
-0.000541551
-0.000634578
-0.000729751
-0.000825983
-0.000922246
-0.00101758
-0.00111107
-0.0012019
-0.00128928
-0.00137251
-0.00145092
-0.00152392
-0.00159097
-0.00165158
-0.0017053
-0.00175178
-0.00179069
-0.00182173
-0.00184461
-0.00185909
-0.00186496
-0.00186203
-0.00185013
-0.00182916
-0.00179903
-0.00175968
-0.00171105
-0.00165308
-0.00158573
-0.00150901
-0.00142294
-0.00132756
-0.0012229
-0.00110899
-0.000985898
-0.000853748
-0.000712647
-0.000562683
-0.000403965
-0.000236633
-6.08352e-05
0.000123283
0.000315566
0.000515868
0.000724036
0.000939884
0.0011632
0.00139381
0.00163156
0.00187627
0.00212773
0.0023857
0.00264998
0.00292037
0.00319667
0.00347865
0.00376609
0.00405869
0.00435618
0.00465832
0.00496488
0.00527562
0.00559026
0.00590847
0.00622992
0.00655437
0.00688153
0.00721114
0.00754287
0.00787638
0.00821133
0.00854738
0.0088842
0.00922148
0.00955891
0.00989614
0.0102328
0.0105685
0.0109029
0.0112356
0.0115663
0.0118947
0.0122204
0.0125431
0.0128623
0.0131776
0.0134887
0.0137951
0.0140967
0.014393
0.0146837
0.0149684
0.0152468
0.0155184
0.0157831
0.0160404
0.01629
0.0165318
0.0167652
0.0169901
0.0172062
0.0174132
0.0176109
0.017799
0.0179774
0.0181458
0.0183041
0.0184522
0.0185897
0.0187166
0.0188328
0.0189383
0.0190329
0.0191169
0.01919
0.0192524
0.0193041
0.0193452
0.0193756
0.0193956
0.0194054
0.0194052
0.0193954
0.0193762
0.0193479
0.019311
0.0192658
0.0192128
0.0191524
0.0190851
0.0190117
0.0189326
0.0188487
0.0187608
0.0186696
0.0185759
0.0184806
0.0183847
0.0182892
0.0181951
0.0181037
0.0180161
0.0179334
0.0178571
0.0177883
0.0177282
0.0176782
0.0176392
0.0176123
0.0176004
0.0176051
3.47139e-05
1.96916e-05
-9.28777e-06
-5.12938e-05
-0.00010433
-0.000166682
-0.000236924
-0.000313731
-0.000395843
-0.000482015
-0.000571086
-0.000661975
-0.00075365
-0.000845162
-0.000935647
-0.00102427
-0.00111024
-0.00119284
-0.00127138
-0.00134523
-0.00141384
-0.00147669
-0.0015333
-0.00158327
-0.00162626
-0.00166193
-0.00168997
-0.00171011
-0.00172212
-0.00172576
-0.00172088
-0.00170729
-0.00168489
-0.00165359
-0.00161333
-0.00156403
-0.00150562
-0.00143808
-0.00136142
-0.00127565
-0.00118079
-0.00107685
-0.000963894
-0.000841985
-0.00071123
-0.000571722
-0.000423541
-0.000266799
-0.000101638
7.18035e-05
0.000253393
0.00044299
0.000640451
0.000845617
0.0010583
0.00127832
0.00150549
0.00173968
0.00198072
0.00222836
0.0024824
0.00274265
0.00300893
0.00328103
0.00355872
0.00384175
0.00412985
0.00442277
0.00472027
0.00502213
0.0053281
0.00563789
0.00595116
0.00626763
0.00658704
0.00690914
0.00723363
0.0075602
0.0078885
0.00821819
0.00854895
0.00888048
0.00921246
0.00954458
0.00987649
0.0102078
0.0105382
0.0108673
0.0111947
0.0115202
0.0118433
0.0121639
0.0124814
0.0127955
0.0131058
0.0134119
0.0137135
0.0140104
0.014302
0.0145882
0.0148684
0.0151424
0.0154098
0.0156703
0.0159236
0.0161695
0.0164076
0.0166375
0.0168591
0.017072
0.017276
0.0174709
0.0176565
0.0178326
0.0179989
0.0181553
0.0183017
0.0184378
0.0185635
0.0186788
0.0187836
0.0188779
0.0189617
0.0190351
0.019098
0.0191504
0.0191925
0.0192242
0.0192458
0.0192575
0.0192595
0.0192521
0.0192356
0.0192104
0.0191768
0.0191351
0.0190859
0.0190295
0.0189664
0.0188973
0.0188229
0.0187437
0.0186605
0.0185742
0.0184853
0.0183948
0.0183035
0.0182125
0.0181226
0.0180349
0.0179505
0.0178705
0.017796
0.0177282
0.0176681
0.0176169
0.0175755
0.0175449
0.017527
0.0175229
0.000115
8.96701e-05
5.43078e-05
8.74262e-06
-4.63631e-05
-0.000109622
-0.000179722
-0.000255498
-0.00033582
-0.00041959
-0.000505788
-0.000593416
-0.000681517
-0.000769229
-0.00085574
-0.000940285
-0.00102214
-0.00110061
-0.00117509
-0.00124498
-0.00130973
-0.00136885
-0.00142191
-0.00146853
-0.00150837
-0.0015411
-0.00156642
-0.00158406
-0.0015938
-0.00159541
-0.00158871
-0.00157355
-0.00154983
-0.00151745
-0.00147632
-0.00142638
-0.00136755
-0.00129983
-0.00122321
-0.00113771
-0.00104332
-0.000940055
-0.000827984
-0.00070718
-0.00057773
-0.000439712
-0.000293204
-0.000138324
2.47877e-05
0.000196006
0.000375216
0.000562285
0.000757062
0.000959384
0.00116908
0.00138597
0.00160991
0.00184075
0.00207829
0.00232233
0.00257266
0.00282911
0.00309151
0.00335965
0.00363327
0.00391214
0.00419601
0.00448462
0.00477775
0.00507518
0.00537666
0.00568187
0.0059905
0.00630228
0.00661695
0.00693429
0.00725398
0.00757569
0.00789909
0.00822384
0.00854964
0.00887621
0.00920323
0.00953038
0.00985732
0.0101837
0.0105091
0.0108332
0.0111556
0.0114762
0.0117945
0.0121102
0.012423
0.0127324
0.013038
0.0133395
0.0136366
0.0139291
0.0142164
0.0144983
0.0147744
0.0150443
0.0153078
0.0155645
0.0158142
0.0160566
0.0162913
0.016518
0.0167365
0.0169465
0.0171477
0.0173401
0.0175233
0.0176972
0.0178616
0.0180163
0.0181612
0.0182959
0.0184206
0.0185351
0.0186393
0.0187332
0.018817
0.0188905
0.0189538
0.0190068
0.0190498
0.0190827
0.0191057
0.0191191
0.019123
0.0191178
0.0191037
0.0190812
0.0190504
0.0190119
0.0189659
0.018913
0.0188536
0.0187883
0.0187177
0.0186426
0.0185634
0.0184811
0.0183962
0.0183096
0.018222
0.0181344
0.0180476
0.0179626
0.0178804
0.0178019
0.0177282
0.0176603
0.0175991
0.0175456
0.0175007
0.0174654
0.0174403
0.0174258
0.000208853
0.000171913
0.000128776
7.82955e-05
1.97651e-05
-4.56534e-05
-0.000116821
-0.000192722
-0.00027237
-0.000354808
-0.000439111
-0.00052439
-0.000609804
-0.000694557
-0.0007779
-0.000859124
-0.000937552
-0.00101255
-0.00108356
-0.00115002
-0.0012114
-0.00126725
-0.0013172
-0.00136085
-0.00139788
-0.00142796
-0.00145083
-0.00146622
-0.00147389
-0.00147363
-0.00146527
-0.00144867
-0.00142373
-0.00139034
-0.00134841
-0.00129785
-0.00123864
-0.00117075
-0.00109418
-0.00100891
-0.000914945
-0.000812313
-0.00070108
-0.000581312
-0.00045308
-0.000316454
-0.000171521
-1.84003e-05
0.000142777
0.000311905
0.000488881
0.00067357
0.000865811
0.00106544
0.00127231
0.00148627
0.00170716
0.00193483
0.00216909
0.00240972
0.00265656
0.00290944
0.0031682
0.00343259
0.00370239
0.00397734
0.0042572
0.00454177
0.0048308
0.00512406
0.0054213
0.0057222
0.00602647
0.00633384
0.00664409
0.00695696
0.00727215
0.00758931
0.0079081
0.00822822
0.00854939
0.00887132
0.00919372
0.00951623
0.00983851
0.0101602
0.010481
0.0108004
0.0111183
0.0114343
0.0117481
0.0120594
0.0123677
0.0126727
0.012974
0.0132713
0.0135642
0.0138526
0.0141359
0.0144139
0.0146862
0.0149524
0.0152122
0.0154655
0.0157118
0.0159509
0.0161825
0.0164062
0.0166219
0.0168292
0.017028
0.017218
0.0173991
0.0175711
0.0177337
0.0178868
0.0180302
0.0181638
0.0182875
0.0184011
0.0185048
0.0185985
0.0186821
0.0187557
0.0188193
0.018873
0.0189167
0.0189506
0.0189749
0.0189898
0.0189954
0.0189921
0.0189802
0.0189599
0.0189317
0.0188958
0.0188527
0.0188027
0.0187464
0.0186843
0.0186171
0.0185452
0.0184694
0.0183903
0.0183086
0.018225
0.0181403
0.0180552
0.0179706
0.0178873
0.0178063
0.0177284
0.0176546
0.0175856
0.0175224
0.0174657
0.0174165
0.0173754
0.0173423
0.0173163
0.00031323
0.000263943
0.000212178
0.000155733
9.27043e-05
2.40645e-05
-4.9177e-05
-0.000126184
-0.000206142
-0.00028819
-0.000371495
-0.000455291
-0.000538833
-0.000621389
-0.000702288
-0.000780874
-0.000856524
-0.000928674
-0.000996776
-0.0010603
-0.00111879
-0.00117184
-0.00121907
-0.00126012
-0.00129466
-0.0013224
-0.00134308
-0.00135644
-0.00136224
-0.00136029
-0.00135042
-0.00133252
-0.00130646
-0.00127213
-0.00122945
-0.00117834
-0.00111878
-0.00105074
-0.000974209
-0.000889153
-0.000795586
-0.000693554
-0.000583112
-0.000464312
-0.000337214
-0.000201896
-5.845e-05
9.30108e-05
0.000252372
0.000419542
0.000594421
0.000776864
0.000966711
0.00116381
0.00136804
0.00157924
0.00179727
0.00202195
0.00225311
0.00249055
0.00273411
0.00298364
0.00323897
0.00349985
0.00376604
0.0040373
0.00431342
0.00459419
0.00487937
0.00516873
0.00546198
0.00575884
0.00605902
0.00636228
0.00666839
0.00697709
0.00728806
0.00760095
0.00791544
0.00823124
0.0085481
0.00886573
0.00918381
0.009502
0.00981995
0.0101373
0.0104537
0.0107689
0.0110826
0.0113944
0.011704
0.0120111
0.0123154
0.0126163
0.0129136
0.013207
0.0134961
0.0137807
0.0140604
0.0143348
0.0146035
0.0148663
0.0151228
0.0153729
0.0156162
0.0158523
0.016081
0.0163021
0.0165151
0.01672
0.0169165
0.0171044
0.0172836
0.0174537
0.0176147
0.0177664
0.0179085
0.018041
0.0181638
0.0182768
0.0183799
0.0184733
0.0185568
0.0186306
0.0186945
0.0187486
0.018793
0.0188278
0.0188532
0.0188693
0.0188764
0.0188748
0.0188647
0.0188464
0.0188203
0.0187867
0.018746
0.0186985
0.0186448
0.0185854
0.0185208
0.0184516
0.0183785
0.018302
0.0182227
0.0181414
0.0180587
0.0179754
0.0178921
0.0178097
0.017729
0.0176509
0.017576
0.0175052
0.0174391
0.0173785
0.0173241
0.0172767
0.0172349
0.0171969
0.000425531
0.000363556
0.000302589
0.00023947
0.000171129
9.84114e-05
2.22316e-05
-5.67417e-05
-0.00013783
-0.000220295
-0.000303415
-0.00038651
-0.000468921
-0.000549998
-0.000629112
-0.000705691
-0.000779175
-0.000849027
-0.000914736
-0.000975833
-0.0010319
-0.00108257
-0.00112747
-0.00116625
-0.00119862
-0.00122431
-0.00124305
-0.0012546
-0.00125872
-0.00125525
-0.00124405
-0.00122497
-0.00119789
-0.00116271
-0.00111934
-0.00106774
-0.00100788
-0.000939711
-0.000863204
-0.000778351
-0.000685173
-0.000583715
-0.000474017
-0.000356119
-0.000230087
-9.60047e-05
4.60374e-05
0.000195939
0.000353601
0.00051894
0.000691849
0.000872178
0.00105977
0.0012545
0.00145625
0.00166488
0.00188022
0.0021021
0.00233034
0.00256479
0.00280529
0.0030517
0.00330382
0.00356139
0.00382419
0.004092
0.00436462
0.00464184
0.00492342
0.00520911
0.00549863
0.0057917
0.00608807
0.0063875
0.00668975
0.00699456
0.00730159
0.0076105
0.00792098
0.00823278
0.00854564
0.00885928
0.00917337
0.00948755
0.00980148
0.0101148
0.0104273
0.0107385
0.0110483
0.0113562
0.011662
0.0119653
0.0122658
0.012563
0.0128566
0.0131464
0.0134321
0.0137132
0.0139895
0.0142606
0.0145262
0.0147858
0.0150394
0.0152865
0.015527
0.0157605
0.0159866
0.0162052
0.0164159
0.0166186
0.016813
0.016999
0.0171764
0.017345
0.0175045
0.0176549
0.0177958
0.0179273
0.0180493
0.0181616
0.0182644
0.0183575
0.0184409
0.0185147
0.0185788
0.0186333
0.0186783
0.0187139
0.0187402
0.0187575
0.0187658
0.0187656
0.018757
0.0187405
0.0187162
0.0186844
0.0186457
0.0186003
0.0185487
0.0184914
0.018429
0.0183619
0.0182909
0.0182163
0.0181388
0.0180591
0.0179777
0.0178953
0.0178127
0.0177304
0.0176493
0.0175701
0.0174935
0.0174201
0.0173505
0.0172853
0.0172252
0.0171709
0.0171199
0.0170695
0.00054366
0.000468793
0.000398266
0.000327993
0.000253746
0.000176281
9.64359e-05
1.47715e-05
-6.81523e-05
-0.000151747
-0.000235391
-0.000318475
-0.000400418
-0.000480651
-0.000558604
-0.000633768
-0.000705638
-0.000773704
-0.000837507
-0.000896647
-0.000950743
-0.000999422
-0.00104234
-0.00107919
-0.0011097
-0.00113362
-0.00115066
-0.0011606
-0.00116325
-0.00115845
-0.00114605
-0.00112591
-0.00109792
-0.00106197
-0.001018
-0.000965978
-0.000905848
-0.00083756
-0.000761091
-0.000676446
-0.000583649
-0.000482736
-0.000373734
-0.000256685
-0.000131659
1.25361e-06
0.000141973
0.000290414
0.000446492
0.000610119
0.000781177
0.000959518
0.001145
0.00133753
0.00153697
0.00174319
0.00195601
0.00217526
0.00240079
0.00263245
0.00287011
0.00311359
0.0033627
0.00361718
0.00387681
0.0041414
0.00441076
0.00468467
0.00496289
0.00524515
0.00553118
0.00582073
0.00611355
0.00640942
0.00670809
0.00700928
0.00731264
0.00761785
0.00792463
0.00823273
0.00854191
0.00885187
0.00916226
0.00947274
0.00978297
0.0100927
0.0104015
0.0107091
0.0110153
0.0113197
0.011622
0.0119218
0.0122188
0.0125126
0.012803
0.0130895
0.013372
0.01365
0.0139232
0.0141913
0.0144539
0.0147108
0.0149617
0.0152062
0.0154442
0.0156752
0.015899
0.0161153
0.016324
0.0165247
0.0167173
0.0169016
0.0170774
0.0172445
0.0174028
0.0175519
0.0176919
0.0178225
0.0179437
0.0180555
0.0181578
0.0182507
0.018334
0.0184078
0.0184722
0.018527
0.0185725
0.0186087
0.0186358
0.018654
0.0186634
0.0186644
0.0186571
0.0186419
0.0186191
0.0185889
0.0185517
0.018508
0.018458
0.0184024
0.0183416
0.0182762
0.0182066
0.0181334
0.0180571
0.0179783
0.0178976
0.0178155
0.0177328
0.01765
0.0175679
0.0174869
0.0174079
0.0173313
0.0172576
0.0171874
0.0171211
0.0170595
0.0169991
0.0169362
0.000665756
0.000577948
0.000497671
0.000419888
0.000339292
0.000256571
0.000172505
8.7551e-05
2.15774e-06
-8.31887e-05
-0.000167966
-0.000251647
-0.000333714
-0.000413669
-0.000491029
-0.000565314
-0.000636061
-0.000702824
-0.000765198
-0.000822824
-0.000875341
-0.000922395
-0.000963677
-0.000998926
-0.00102788
-0.00105026
-0.00106584
-0.00107439
-0.00107577
-0.0010698
-0.00105635
-0.00103527
-0.00100646
-0.000969843
-0.000925364
-0.000872971
-0.000812605
-0.000744222
-0.000667813
-0.000583388
-0.000490964
-0.000390565
-0.000282218
-0.00016597
-4.19011e-05
8.99064e-05
0.000229387
0.000376472
0.000531074
0.000693095
0.000862415
0.0010389
0.00122242
0.0014129
0.00161021
0.00181418
0.00202463
0.00224144
0.00246445
0.00269354
0.00292855
0.0031693
0.0034156
0.00366719
0.00392388
0.00418548
0.00445182
0.00472266
0.00499773
0.00527678
0.00555957
0.00584585
0.00613541
0.00642799
0.00672334
0.00702115
0.00732112
0.00762291
0.00792628
0.008231
0.00853679
0.00884337
0.00915037
0.00945746
0.00976431
0.0100706
0.0103761
0.0106805
0.0109834
0.0112846
0.0115837
0.0118804
0.0121743
0.012465
0.0127524
0.013036
0.0133156
0.0135908
0.0138613
0.0141267
0.0143867
0.014641
0.0148895
0.0151317
0.0153674
0.0155962
0.015818
0.0160324
0.0162391
0.0164381
0.0166291
0.0168119
0.0169863
0.0171522
0.0173092
0.0174573
0.0175964
0.0177262
0.0178468
0.0179581
0.0180601
0.0181527
0.018236
0.0183098
0.0183743
0.0184294
0.0184753
0.018512
0.0185397
0.0185587
0.018569
0.0185709
0.0185647
0.0185506
0.0185289
0.0185
0.018464
0.0184215
0.0183729
0.0183185
0.0182589
0.0181945
0.0181259
0.0180535
0.0179778
0.0178994
0.0178188
0.0177365
0.0176531
0.0175692
0.0174853
0.0174022
0.0173202
0.0172399
0.0171616
0.0170858
0.0170131
0.0169439
0.0168739
0.0167986
0.00079014
0.000689512
0.000599384
0.000513855
0.000426582
0.000338223
0.000249506
0.000160766
7.23809e-05
-1.52484e-05
-0.000101694
-0.000186496
-0.000269216
-0.000349421
-0.000426682
-0.000500561
-0.000570643
-0.000636555
-0.000697943
-0.000754458
-0.000805755
-0.000851531
-0.000891522
-0.000925476
-0.000953127
-0.000974219
-0.000988547
-0.000995939
-0.000996229
-0.000989258
-0.00097488
-0.000952979
-0.000923471
-0.000886292
-0.000841376
-0.000788663
-0.000728098
-0.000659653
-0.000583331
-0.000499134
-0.000407069
-0.000307155
-0.000199429
-8.39465e-05
3.9215e-05
0.000169986
0.000308318
0.000454144
0.000607369
0.000767885
0.000935582
0.00111034
0.00129207
0.00148066
0.00167597
0.00187784
0.00208611
0.00230065
0.00252134
0.00274805
0.00298061
0.00321883
0.00346251
0.00371142
0.00396539
0.00422424
0.00448777
0.00475575
0.0050279
0.00530399
0.00558378
0.00586706
0.00615359
0.00644314
0.00673542
0.00703013
0.00732696
0.00762564
0.0079259
0.00822751
0.00853022
0.0088337
0.00913761
0.00944161
0.0097454
0.0100487
0.0103512
0.0106526
0.0109526
0.0112509
0.0115471
0.011841
0.0121321
0.0124201
0.0127048
0.0129858
0.0132628
0.0135355
0.0138035
0.0140665
0.0143242
0.0145764
0.0148226
0.0150628
0.0152965
0.0155235
0.0157434
0.015956
0.0161612
0.0163586
0.0165482
0.0167296
0.0169029
0.0170676
0.0172237
0.0173709
0.0175091
0.0176383
0.0177583
0.0178692
0.0179709
0.0180633
0.0181464
0.0182203
0.0182849
0.0183402
0.0183864
0.0184235
0.0184518
0.0184713
0.0184823
0.018485
0.0184796
0.0184664
0.0184456
0.0184175
0.0183825
0.0183409
0.0182931
0.0182395
0.0181807
0.018117
0.0180488
0.0179768
0.0179012
0.0178227
0.0177416
0.0176585
0.0175739
0.0174883
0.0174024
0.0173164
0.017231
0.0171466
0.0170633
0.0169817
0.0169022
0.0168254
0.0167457
0.0166581
0.00091536
0.000802066
0.0007021
0.000608713
0.000514533
0.000420234
0.000326515
0.000233604
0.0001418
5.14367e-05
-3.71287e-05
-0.000123516
-0.000207354
-0.000288272
-0.000365872
-0.000439771
-0.000509625
-0.000575112
-0.000635901
-0.000691655
-0.000742077
-0.00078692
-0.000825936
-0.000858863
-0.00088545
-0.000905487
-0.000918803
-0.000925234
-0.00092461
-0.000916775
-0.000901608
-0.000879015
-0.000848929
-0.000811279
-0.000765991
-0.000713007
-0.000652291
-0.000583827
-0.000507614
-0.000423645
-0.000331923
-0.000232474
-0.000125344
-1.05913e-05
0.000111718
0.000241529
0.000378801
0.000523459
0.000675396
0.000834511
0.00100071
0.00117389
0.00135396
0.0015408
0.00173427
0.0019342
0.00214045
0.00235292
0.00257149
0.002796
0.00302629
0.00326217
0.00350343
0.00374989
0.00400135
0.00425767
0.00451862
0.00478395
0.0050534
0.00532675
0.0056038
0.00588433
0.0061681
0.00645486
0.00674432
0.00703618
0.00733017
0.007626
0.00792344
0.00822225
0.00852216
0.00882284
0.00912395
0.00942517
0.0097262
0.0100268
0.0103266
0.0106254
0.0109228
0.0112185
0.0115121
0.0118034
0.0120921
0.0123777
0.01266
0.0129387
0.0132135
0.0134839
0.0137498
0.0140107
0.0142664
0.0145166
0.014761
0.0149994
0.0152313
0.0154566
0.015675
0.0158861
0.0160899
0.016286
0.0164743
0.0166547
0.0168269
0.0169907
0.0171459
0.0172923
0.0174298
0.0175584
0.017678
0.0177886
0.01789
0.0179822
0.0180652
0.0181391
0.0182037
0.0182592
0.0183056
0.0183431
0.0183717
0.0183917
0.0184032
0.0184064
0.0184016
0.018389
0.0183689
0.0183414
0.018307
0.018266
0.0182187
0.0181656
0.0181071
0.0180436
0.0179756
0.0179034
0.0178275
0.0177483
0.0176663
0.017582
0.0174957
0.0174081
0.0173194
0.0172303
0.0171411
0.0170521
0.0169637
0.0168759
0.0167894
0.0167049
0.0166157
0.016516
0.00104009
0.00091435
0.000804631
0.000703348
0.000602127
0.000501661
0.000402671
0.00030528
0.000209707
0.000116242
2.5171e-05
-6.32141e-05
-0.000148577
-0.000230589
-0.000308919
-0.000383247
-0.000453278
-0.000518714
-0.000579239
-0.000634565
-0.000684454
-0.00072868
-0.000766988
-0.000799127
-0.000824894
-0.000844117
-0.000856636
-0.000862285
-0.000860899
-0.000852345
-0.000836531
-0.00081338
-0.000782821
-0.000744776
-0.000699178
-0.000645985
-0.000585173
-0.000516727
-0.000440636
-0.00035689
-0.000265499
-0.0001665
-5.99446e-05
5.41194e-05
0.000175639
0.00030457
0.000440862
0.000584433
0.000735175
0.000892999
0.00105783
0.00122958
0.00140813
0.00159336
0.00178513
0.00198328
0.00218769
0.00239828
0.0026149
0.00283741
0.00306561
0.00329933
0.00353839
0.0037826
0.00403179
0.00428578
0.00454435
0.00480725
0.00507423
0.00534508
0.00561963
0.00589766
0.00617892
0.00646314
0.00675002
0.00703931
0.00733072
0.007624
0.0079189
0.00821519
0.00851258
0.00881075
0.00910936
0.00940809
0.00970668
0.0100049
0.0103023
0.0105988
0.0108939
0.0111873
0.0114787
0.0117678
0.0120542
0.0123378
0.012618
0.0128947
0.0131675
0.013436
0.0137
0.0139591
0.0142131
0.0144616
0.0147044
0.0149412
0.0151718
0.0153957
0.0156127
0.0158225
0.0160251
0.0162201
0.0164074
0.0165869
0.0167582
0.0169212
0.0170756
0.0172214
0.0173584
0.0174865
0.0176057
0.0177159
0.0178171
0.0179092
0.0179921
0.0180659
0.0181306
0.0181861
0.0182327
0.0182704
0.0182993
0.0183196
0.0183315
0.0183351
0.0183307
0.0183185
0.0182987
0.0182716
0.0182375
0.0181967
0.0181497
0.0180967
0.0180382
0.0179745
0.0179062
0.0178334
0.0177568
0.0176766
0.0175933
0.0175072
0.0174189
0.0173287
0.0172371
0.0171444
0.0170511
0.0169573
0.0168633
0.0167692
0.0166758
0.0165834
0.0164848
0.0163733
0.00116316
0.00102526
0.00090589
0.000796723
0.000688409
0.00058163
0.000477156
0.000375043
0.000275433
0.000178553
8.46293e-05
-6.08861e-06
-9.33181e-05
-0.000176772
-0.000256193
-0.00033132
-0.000401877
-0.000467578
-0.000528155
-0.000583385
-0.000633054
-0.000676927
-0.000714762
-0.000746354
-0.000771545
-0.000790179
-0.000802088
-0.000807112
-0.000805113
-0.000795992
-0.000779675
-0.000756085
-0.000725141
-0.000686774
-0.000640934
-0.000587596
-0.00052674
-0.000458338
-0.000382376
-0.000298853
-0.000207788
-0.000109227
-3.2166e-06
0.000110209
0.000231006
0.000359128
0.000494516
0.00063708
0.000786723
0.000943377
0.00110697
0.00127742
0.00145458
0.00163834
0.00182855
0.00202509
0.00222785
0.00243673
0.0026516
0.00287227
0.00309856
0.00333032
0.00356738
0.00380956
0.00405668
0.00430855
0.00456495
0.00482564
0.00509038
0.00535898
0.00563129
0.00590706
0.00618605
0.00646796
0.00675254
0.00703951
0.00732862
0.00761963
0.00791229
0.00820634
0.00850149
0.00879743
0.00909382
0.00939038
0.00968683
0.0099829
0.0102783
0.0105727
0.0108658
0.0111572
0.0114467
0.0117339
0.0120185
0.0123002
0.0125787
0.0128537
0.0131247
0.0133916
0.013654
0.0139116
0.0141641
0.0144113
0.0146528
0.0148883
0.0151176
0.0153403
0.0155562
0.0157651
0.0159666
0.0161608
0.0163473
0.0165259
0.0166966
0.0168589
0.0170128
0.017158
0.0172945
0.0174223
0.0175412
0.0176511
0.0177521
0.017844
0.0179269
0.0180006
0.0180653
0.0181209
0.0181675
0.0182053
0.0182344
0.0182549