/*--------------------------------*- C++ -*----------------------------------*\
  =========                 |
  \\      /  F ield         | OpenFOAM: The Open Source CFD Toolbox
   \\    /   O peration     | Website:  https://openfoam.org
    \\  /    A nd           | Version:  7
     \\/     M anipulation  |
\*---------------------------------------------------------------------------*/
FoamFile
{
    version     2.0;
    format      ascii;
    class       volVectorField;
    location    "0.1";
    object      U;
}
// * * * * * * * * * * * * * * * * * * * * * * * * * * * * * * * * * * * * * //

dimensions      [0 1 -1 0 0 0 0];

internalField   nonuniform List<vector> 
25600
(
(-1.12277e-07 -9.13625e-07 0)
(2.83568e-06 -2.19654e-06 0)
(7.27096e-06 -2.25108e-06 0)
(1.24622e-05 -2.12748e-06 0)
(1.65791e-05 -1.75716e-06 0)
(1.94389e-05 -1.24392e-06 0)
(2.0665e-05 -6.5134e-07 0)
(2.005e-05 -1.96314e-08 0)
(1.74893e-05 6.25808e-07 0)
(1.29323e-05 1.26085e-06 0)
(6.37843e-06 1.88043e-06 0)
(-2.14233e-06 2.48171e-06 0)
(-1.25915e-05 3.05948e-06 0)
(-2.48995e-05 3.61281e-06 0)
(-3.89929e-05 4.13802e-06 0)
(-5.47985e-05 4.63189e-06 0)
(-7.22251e-05 5.09633e-06 0)
(-9.11866e-05 5.53473e-06 0)
(-0.000111597 5.94641e-06 0)
(-0.000133363 6.33113e-06 0)
(-0.000156396 6.69023e-06 0)
(-0.000180607 7.02182e-06 0)
(-0.000205907 7.32456e-06 0)
(-0.000232209 7.59997e-06 0)
(-0.000259429 7.8497e-06 0)
(-0.000287484 8.07513e-06 0)
(-0.000316294 8.27818e-06 0)
(-0.000345782 8.46039e-06 0)
(-0.000375873 8.62148e-06 0)
(-0.000406493 8.76159e-06 0)
(-0.000437572 8.88155e-06 0)
(-0.000469041 8.98157e-06 0)
(-0.000500835 9.06278e-06 0)
(-0.000532888 9.12622e-06 0)
(-0.00056514 9.17222e-06 0)
(-0.000597531 9.20165e-06 0)
(-0.000630003 9.21501e-06 0)
(-0.000662501 9.2126e-06 0)
(-0.000694973 9.19604e-06 0)
(-0.000727369 9.16602e-06 0)
(-0.000759638 9.12219e-06 0)
(-0.000791734 9.06524e-06 0)
(-0.000823612 8.99595e-06 0)
(-0.000855227 8.91453e-06 0)
(-0.000886539 8.82158e-06 0)
(-0.000917506 8.71764e-06 0)
(-0.00094809 8.60263e-06 0)
(-0.000978251 8.4769e-06 0)
(-0.00100796 8.34155e-06 0)
(-0.00103717 8.1972e-06 0)
(-0.00106586 8.04388e-06 0)
(-0.00109399 7.88185e-06 0)
(-0.00112153 7.71139e-06 0)
(-0.00114845 7.53257e-06 0)
(-0.00117473 7.34564e-06 0)
(-0.00120033 7.15089e-06 0)
(-0.00122522 6.94834e-06 0)
(-0.00124939 6.73823e-06 0)
(-0.0012728 6.52135e-06 0)
(-0.00129542 6.29825e-06 0)
(-0.00131725 6.06859e-06 0)
(-0.00133824 5.83189e-06 0)
(-0.00135838 5.58853e-06 0)
(-0.00137765 5.33933e-06 0)
(-0.00139603 5.0846e-06 0)
(-0.00141348 4.82398e-06 0)
(-0.00143001 4.55736e-06 0)
(-0.00144557 4.28528e-06 0)
(-0.00146017 4.00824e-06 0)
(-0.00147377 3.72634e-06 0)
(-0.00148636 3.43948e-06 0)
(-0.00149793 3.14781e-06 0)
(-0.00150845 2.85174e-06 0)
(-0.00151792 2.55132e-06 0)
(-0.00152631 2.2464e-06 0)
(-0.00153362 1.93719e-06 0)
(-0.00153983 1.6243e-06 0)
(-0.00154493 1.3085e-06 0)
(-0.00154891 9.90079e-07 0)
(-0.00155175 6.68677e-07 0)
(-0.00155345 3.44094e-07 0)
(-0.001554 1.6689e-08 0)
(-0.00155339 -3.12809e-07 0)
(-0.00155162 -6.43702e-07 0)
(-0.00154868 -9.7585e-07 0)
(-0.00154456 -1.30944e-06 0)
(-0.00153926 -1.64428e-06 0)
(-0.00153279 -1.97979e-06 0)
(-0.00152514 -2.31516e-06 0)
(-0.00151631 -2.64974e-06 0)
(-0.0015063 -2.98324e-06 0)
(-0.00149512 -3.31561e-06 0)
(-0.00148278 -3.64652e-06 0)
(-0.00146928 -3.97544e-06 0)
(-0.00145463 -4.30176e-06 0)
(-0.00143884 -4.62474e-06 0)
(-0.00142192 -4.94374e-06 0)
(-0.00140389 -5.25831e-06 0)
(-0.00138477 -5.56802e-06 0)
(-0.00136457 -5.8725e-06 0)
(-0.00134332 -6.17137e-06 0)
(-0.00132103 -6.46405e-06 0)
(-0.00129772 -6.74976e-06 0)
(-0.00127344 -7.02779e-06 0)
(-0.00124819 -7.29755e-06 0)
(-0.00122202 -7.55835e-06 0)
(-0.00119495 -7.80955e-06 0)
(-0.00116703 -8.05054e-06 0)
(-0.00113828 -8.28066e-06 0)
(-0.00110875 -8.49923e-06 0)
(-0.00107848 -8.70565e-06 0)
(-0.00104752 -8.89922e-06 0)
(-0.0010159 -9.07921e-06 0)
(-0.00098368 -9.24491e-06 0)
(-0.000950909 -9.39573e-06 0)
(-0.000917641 -9.53104e-06 0)
(-0.000883929 -9.65029e-06 0)
(-0.000849831 -9.75304e-06 0)
(-0.000815406 -9.83874e-06 0)
(-0.000780716 -9.90664e-06 0)
(-0.000745823 -9.95594e-06 0)
(-0.000710794 -9.98601e-06 0)
(-0.000675696 -9.99631e-06 0)
(-0.000640599 -9.98641e-06 0)
(-0.000605573 -9.95597e-06 0)
(-0.000570691 -9.90464e-06 0)
(-0.000536026 -9.83184e-06 0)
(-0.000501656 -9.73681e-06 0)
(-0.000467658 -9.61888e-06 0)
(-0.000434111 -9.47753e-06 0)
(-0.000401098 -9.31232e-06 0)
(-0.000368699 -9.12288e-06 0)
(-0.000336998 -8.90891e-06 0)
(-0.000306079 -8.6701e-06 0)
(-0.000276028 -8.40595e-06 0)
(-0.000246929 -8.11605e-06 0)
(-0.00021887 -7.80032e-06 0)
(-0.000191936 -7.45891e-06 0)
(-0.000166215 -7.09178e-06 0)
(-0.00014179 -6.69867e-06 0)
(-0.000118748 -6.27962e-06 0)
(-9.71718e-05 -5.83515e-06 0)
(-7.71435e-05 -5.36573e-06 0)
(-5.87424e-05 -4.8715e-06 0)
(-4.20448e-05 -4.35278e-06 0)
(-2.71232e-05 -3.81067e-06 0)
(-1.4044e-05 -3.24682e-06 0)
(-2.8663e-06 -2.66316e-06 0)
(6.36105e-06 -2.06208e-06 0)
(1.36021e-05 -1.44734e-06 0)
(1.88396e-05 -8.24607e-07 0)
(2.2081e-05 -2.01918e-07 0)
(2.33677e-05 4.08565e-07 0)
(2.27898e-05 9.87775e-07 0)
(2.05078e-05 1.50531e-06 0)
(1.67867e-05 1.91213e-06 0)
(1.2039e-05 2.13008e-06 0)
(6.90424e-06 2.03235e-06 0)
(2.47908e-06 1.43406e-06 0)
(3.1047e-07 3.11184e-07 0)
(7.85284e-07 -2.50916e-06 0)
(5.98836e-06 -7.63369e-06 0)
(1.47938e-05 -8.83854e-06 0)
(2.36325e-05 -8.25133e-06 0)
(3.04076e-05 -6.289e-06 0)
(3.39481e-05 -3.47477e-06 0)
(3.33513e-05 -1.15871e-07 0)
(2.8033e-05 3.56527e-06 0)
(1.76204e-05 7.41105e-06 0)
(1.92552e-06 1.13184e-05 0)
(-1.91217e-05 1.52104e-05 0)
(-4.55156e-05 1.90347e-05 0)
(-7.71625e-05 2.27599e-05 0)
(-0.000113932 2.63597e-05 0)
(-0.000155657 2.98111e-05 0)
(-0.000202136 3.31032e-05 0)
(-0.000253158 3.62272e-05 0)
(-0.000308498 3.91775e-05 0)
(-0.000367916 4.19532e-05 0)
(-0.000431175 4.45532e-05 0)
(-0.00049803 4.69784e-05 0)
(-0.000568237 4.92292e-05 0)
(-0.000641555 5.13072e-05 0)
(-0.000717744 5.32158e-05 0)
(-0.000796569 5.49583e-05 0)
(-0.000877799 5.65393e-05 0)
(-0.000961209 5.79642e-05 0)
(-0.00104658 5.92378e-05 0)
(-0.00113369 6.03653e-05 0)
(-0.00122234 6.13502e-05 0)
(-0.00131233 6.21969e-05 0)
(-0.00140345 6.29094e-05 0)
(-0.00149552 6.34919e-05 0)
(-0.00158836 6.39498e-05 0)
(-0.00168178 6.42875e-05 0)
(-0.00177562 6.45086e-05 0)
(-0.00186971 6.46181e-05 0)
(-0.00196389 6.46206e-05 0)
(-0.002058 6.45197e-05 0)
(-0.00215191 6.43197e-05 0)
(-0.00224546 6.40245e-05 0)
(-0.00233852 6.36368e-05 0)
(-0.00243096 6.31602e-05 0)
(-0.00252266 6.25988e-05 0)
(-0.00261347 6.19555e-05 0)
(-0.0027033 6.12324e-05 0)
(-0.00279202 6.04326e-05 0)
(-0.00287953 5.95596e-05 0)
(-0.00296571 5.86165e-05 0)
(-0.00305048 5.76054e-05 0)
(-0.00313372 5.65286e-05 0)
(-0.00321535 5.53889e-05 0)
(-0.00329526 5.41883e-05 0)
(-0.00337339 5.29286e-05 0)
(-0.00344962 5.1611e-05 0)
(-0.0035239 5.02374e-05 0)
(-0.00359612 4.88096e-05 0)
(-0.00366622 4.73296e-05 0)
(-0.00373412 4.57994e-05 0)
(-0.00379975 4.42207e-05 0)
(-0.00386304 4.25944e-05 0)
(-0.00392391 4.09216e-05 0)
(-0.0039823 3.92039e-05 0)
(-0.00403814 3.74431e-05 0)
(-0.00409139 3.56408e-05 0)
(-0.00414196 3.37977e-05 0)
(-0.00418981 3.19149e-05 0)
(-0.00423488 2.9994e-05 0)
(-0.00427711 2.80368e-05 0)
(-0.00431646 2.60447e-05 0)
(-0.00435287 2.40189e-05 0)
(-0.00438629 2.19605e-05 0)
(-0.00441668 1.98708e-05 0)
(-0.00444399 1.7751e-05 0)
(-0.00446819 1.56024e-05 0)
(-0.00448923 1.34269e-05 0)
(-0.00450708 1.12269e-05 0)
(-0.00452169 9.00422e-06 0)
(-0.00453305 6.76063e-06 0)
(-0.00454112 4.49718e-06 0)
(-0.00454587 2.21535e-06 0)
(-0.00454728 -8.24719e-08 0)
(-0.00454533 -2.39375e-06 0)
(-0.00454 -4.71616e-06 0)
(-0.00453128 -7.04779e-06 0)
(-0.00451916 -9.38688e-06 0)
(-0.00450362 -1.17309e-05 0)
(-0.00448468 -1.40764e-05 0)
(-0.00446232 -1.64204e-05 0)
(-0.00443655 -1.876e-05 0)
(-0.00440738 -2.10926e-05 0)
(-0.00437482 -2.34157e-05 0)
(-0.0043389 -2.57261e-05 0)
(-0.00429963 -2.80202e-05 0)
(-0.00425704 -3.02946e-05 0)
(-0.00421116 -3.25455e-05 0)
(-0.00416204 -3.47692e-05 0)
(-0.0041097 -3.69621e-05 0)
(-0.0040542 -3.91206e-05 0)
(-0.0039956 -4.12412e-05 0)
(-0.00393395 -4.33203e-05 0)
(-0.00386932 -4.5354e-05 0)
(-0.00380177 -4.73378e-05 0)
(-0.00373139 -4.92673e-05 0)
(-0.00365825 -5.11383e-05 0)
(-0.00358245 -5.29463e-05 0)
(-0.00350407 -5.46872e-05 0)
(-0.00342323 -5.63563e-05 0)
(-0.00334003 -5.79493e-05 0)
(-0.00325458 -5.94617e-05 0)
(-0.003167 -6.08889e-05 0)
(-0.00307742 -6.22265e-05 0)
(-0.00298598 -6.34698e-05 0)
(-0.00289281 -6.46142e-05 0)
(-0.00279806 -6.56556e-05 0)
(-0.00270188 -6.65896e-05 0)
(-0.00260444 -6.74121e-05 0)
(-0.00250589 -6.81192e-05 0)
(-0.0024064 -6.87066e-05 0)
(-0.00230616 -6.917e-05 0)
(-0.00220535 -6.95051e-05 0)
(-0.00210415 -6.97079e-05 0)
(-0.00200276 -6.97748e-05 0)
(-0.00190137 -6.97023e-05 0)
(-0.00180019 -6.94875e-05 0)
(-0.00169944 -6.91268e-05 0)
(-0.00159931 -6.86168e-05 0)
(-0.00150004 -6.79539e-05 0)
(-0.00140184 -6.71348e-05 0)
(-0.00130493 -6.61566e-05 0)
(-0.00120956 -6.50169e-05 0)
(-0.00111594 -6.37136e-05 0)
(-0.00102432 -6.22446e-05 0)
(-0.000934937 -6.0608e-05 0)
(-0.000848023 -5.88024e-05 0)
(-0.000763823 -5.68268e-05 0)
(-0.000682577 -5.46809e-05 0)
(-0.000604526 -5.23646e-05 0)
(-0.000529907 -4.98789e-05 0)
(-0.000458957 -4.72251e-05 0)
(-0.000391909 -4.44054e-05 0)
(-0.00032899 -4.14232e-05 0)
(-0.000270421 -3.82832e-05 0)
(-0.000216413 -3.49912e-05 0)
(-0.000167165 -3.15549e-05 0)
(-0.000122863 -2.79844e-05 0)
(-8.36692e-05 -2.42933e-05 0)
(-4.97218e-05 -2.05001e-05 0)
(-2.11257e-05 -1.66294e-05 0)
(2.05737e-06 -1.27134e-05 0)
(1.98229e-05 -8.79568e-06 0)
(3.22407e-05 -4.93591e-06 0)
(3.94787e-05 -1.2166e-06 0)
(4.18358e-05 2.24602e-06 0)
(3.97874e-05 5.28618e-06 0)
(3.4045e-05 7.66691e-06 0)
(2.56107e-05 9.05245e-06 0)
(1.58557e-05 8.97701e-06 0)
(6.8514e-06 6.85974e-06 0)
(1.42882e-06 2.47732e-06 0)
(1.73082e-06 -6.72154e-06 0)
(8.12421e-06 -1.56267e-05 0)
(1.74766e-05 -1.82764e-05 0)
(2.61803e-05 -1.62773e-05 0)
(3.1534e-05 -1.1023e-05 0)
(3.18585e-05 -3.5415e-06 0)
(2.5935e-05 5.41576e-06 0)
(1.28662e-05 1.53112e-05 0)
(-7.91195e-06 2.57513e-05 0)
(-3.67408e-05 3.64488e-05 0)
(-7.37821e-05 4.71862e-05 0)
(-0.000119046 5.78131e-05 0)
(-0.000172453 6.8217e-05 0)
(-0.000233832 7.83097e-05 0)
(-0.000302947 8.8036e-05 0)
(-0.000379525 9.73481e-05 0)
(-0.000463253 0.000106214 0)
(-0.000553791 0.000114615 0)
(-0.000650788 0.000122536 0)
(-0.00075388 0.000129971 0)
(-0.000862691 0.000136918 0)
(-0.000976849 0.00014338 0)
(-0.00109598 0.000149359 0)
(-0.00121971 0.000154863 0)
(-0.00134766 0.0001599 0)
(-0.00147948 0.00016448 0)
(-0.00161481 0.000168613 0)
(-0.0017533 0.000172313 0)
(-0.00189461 0.000175589 0)
(-0.0020384 0.000178456 0)
(-0.00218435 0.000180925 0)
(-0.00233215 0.000183008 0)
(-0.00248149 0.000184718 0)
(-0.00263207 0.000186066 0)
(-0.00278362 0.000187065 0)
(-0.00293586 0.000187728 0)
(-0.00308851 0.000188066 0)
(-0.00324132 0.000188092 0)
(-0.00339404 0.000187818 0)
(-0.00354643 0.000187253 0)
(-0.00369826 0.000186409 0)
(-0.0038493 0.000185296 0)
(-0.00399935 0.000183923 0)
(-0.00414818 0.000182301 0)
(-0.00429561 0.000180439 0)
(-0.00444144 0.000178344 0)
(-0.00458548 0.000176025 0)
(-0.00472755 0.000173492 0)
(-0.00486749 0.000170751 0)
(-0.00500511 0.00016781 0)
(-0.00514027 0.000164675 0)
(-0.00527281 0.000161355 0)
(-0.00540257 0.000157854 0)
(-0.00552941 0.000154179 0)
(-0.00565318 0.000150336 0)
(-0.00577376 0.000146328 0)
(-0.00589102 0.000142162 0)
(-0.00600481 0.000137842 0)
(-0.00611503 0.000133375 0)
(-0.00622154 0.000128764 0)
(-0.00632424 0.000124014 0)
(-0.00642301 0.000119128 0)
(-0.00651775 0.000114111 0)
(-0.00660834 0.000108968 0)
(-0.0066947 0.000103703 0)
(-0.00677671 9.83201e-05 0)
(-0.00685428 9.28223e-05 0)
(-0.00692734 8.72137e-05 0)
(-0.00699577 8.14988e-05 0)
(-0.00705951 7.56817e-05 0)
(-0.00711847 6.97666e-05 0)
(-0.00717256 6.37574e-05 0)
(-0.00722173 5.7658e-05 0)
(-0.0072659 5.14725e-05 0)
(-0.00730499 4.52055e-05 0)
(-0.00733895 3.88618e-05 0)
(-0.00736772 3.2447e-05 0)
(-0.00739124 2.59663e-05 0)
(-0.00740947 1.94248e-05 0)
(-0.00742235 1.28272e-05 0)
(-0.00742984 6.17895e-06 0)
(-0.00743191 -5.13788e-07 0)
(-0.00742853 -7.24442e-06 0)
(-0.00741966 -1.40067e-05 0)
(-0.00740529 -2.07942e-05 0)
(-0.0073854 -2.76002e-05 0)
(-0.00735998 -3.44173e-05 0)
(-0.00732902 -4.12373e-05 0)
(-0.00729254 -4.8052e-05 0)
(-0.00725053 -5.48532e-05 0)
(-0.00720301 -6.16328e-05 0)
(-0.00715 -6.8382e-05 0)
(-0.00709155 -7.50917e-05 0)
(-0.00702767 -8.17523e-05 0)
(-0.00695843 -8.83539e-05 0)
(-0.00688386 -9.48863e-05 0)
(-0.00680404 -0.000101339 0)
(-0.00671903 -0.000107702 0)
(-0.00662891 -0.000113963 0)
(-0.00653377 -0.000120113 0)
(-0.0064337 -0.000126139 0)
(-0.00632882 -0.000132032 0)
(-0.00621923 -0.000137778 0)
(-0.00610506 -0.000143365 0)
(-0.00598645 -0.000148781 0)
(-0.00586353 -0.000154014 0)
(-0.00573647 -0.00015905 0)
(-0.00560543 -0.000163878 0)
(-0.00547059 -0.000168484 0)
(-0.00533212 -0.000172856 0)
(-0.00519022 -0.00017698 0)
(-0.00504511 -0.000180845 0)
(-0.00489699 -0.000184435 0)
(-0.00474609 -0.00018774 0)
(-0.00459265 -0.000190747 0)
(-0.00443691 -0.000193442 0)
(-0.00427913 -0.000195814 0)
(-0.00411957 -0.000197851 0)
(-0.00395852 -0.000199542 0)
(-0.00379625 -0.000200873 0)
(-0.00363307 -0.000201835 0)
(-0.00346926 -0.000202414 0)
(-0.00330515 -0.0002026 0)
(-0.00314105 -0.000202384 0)
(-0.00297729 -0.000201756 0)
(-0.00281421 -0.000200707 0)
(-0.00265215 -0.000199226 0)
(-0.00249146 -0.000197305 0)
(-0.0023325 -0.000194937 0)
(-0.00217562 -0.000192112 0)
(-0.00202119 -0.000188826 0)
(-0.00186958 -0.000185071 0)
(-0.00172117 -0.000180843 0)
(-0.00157633 -0.000176138 0)
(-0.00143545 -0.000170952 0)
(-0.00129889 -0.000165285 0)
(-0.00116705 -0.000159137 0)
(-0.0010403 -0.000152508 0)
(-0.000919001 -0.000145404 0)
(-0.000803536 -0.00013783 0)
(-0.000694261 -0.000129794 0)
(-0.000591525 -0.000121309 0)
(-0.000495667 -0.00011239 0)
(-0.000407005 -0.000103059 0)
(-0.000325839 -9.33422e-05 0)
(-0.000252437 -8.32739e-05 0)
(-0.000187035 -7.28992e-05 0)
(-0.000129821 -6.22767e-05 0)
(-8.09294e-05 -5.14828e-05 0)
(-4.04212e-05 -4.06159e-05 0)
(-8.26713e-06 -2.98056e-05 0)
(1.56781e-05 -1.92233e-05 0)
(3.17077e-05 -9.09694e-06 0)
(4.03037e-05 2.67573e-07 0)
(4.21886e-05 8.45958e-06 0)
(3.83862e-05 1.49285e-05 0)
(3.02658e-05 1.89511e-05 0)
(1.95958e-05 1.96125e-05 0)
(8.95815e-06 1.58587e-05 0)
(2.0224e-06 6.89177e-06 0)
(1.84906e-06 -1.10783e-05 0)
(7.92466e-06 -2.39683e-05 0)
(1.59151e-05 -2.68668e-05 0)
(2.18856e-05 -2.21482e-05 0)
(2.29429e-05 -1.19446e-05 0)
(1.71943e-05 2.14066e-06 0)
(3.19873e-06 1.89011e-05 0)
(-2.00756e-05 3.7425e-05 0)
(-5.33567e-05 5.70296e-05 0)
(-9.70889e-05 7.71898e-05 0)
(-0.000151494 9.75146e-05 0)
(-0.000216633 0.000117703 0)
(-0.000292423 0.00013753 0)
(-0.000378674 0.000156829 0)
(-0.000475116 0.000175472 0)
(-0.000581414 0.000193368 0)
(-0.000697181 0.00021045 0)
(-0.000821995 0.00022667 0)
(-0.000955406 0.000241993 0)
(-0.00109695 0.000256404 0)
(-0.00124613 0.000269891 0)
(-0.00140248 0.000282452 0)
(-0.00156551 0.000294094 0)
(-0.00173471 0.000304825 0)
(-0.00190961 0.000314659 0)
(-0.00208972 0.000323612 0)
(-0.00227457 0.000331702 0)
(-0.00246369 0.00033895 0)
(-0.00265663 0.000345377 0)
(-0.00285293 0.000351006 0)
(-0.00305218 0.000355859 0)
(-0.00325393 0.000359959 0)
(-0.00345779 0.000363331 0)
(-0.00366334 0.000365996 0)
(-0.00387022 0.000367978 0)
(-0.00407803 0.000369301 0)
(-0.00428642 0.000369988 0)
(-0.00449503 0.00037006 0)
(-0.00470354 0.00036954 0)
(-0.0049116 0.00036845 0)
(-0.00511891 0.000366809 0)
(-0.00532515 0.000364636 0)
(-0.00553004 0.000361953 0)
(-0.00573329 0.000358777 0)
(-0.00593462 0.000355125 0)
(-0.00613377 0.000351015 0)
(-0.00633049 0.000346463 0)
(-0.00652453 0.000341484 0)
(-0.00671565 0.000336096 0)
(-0.00690361 0.000330311 0)
(-0.00708821 0.000324143 0)
(-0.00726923 0.000317606 0)
(-0.00744644 0.000310711 0)
(-0.00761967 0.000303471 0)
(-0.00778871 0.000295897 0)
(-0.00795338 0.000287998 0)
(-0.00811349 0.000279787 0)
(-0.00826887 0.000271272 0)
(-0.00841935 0.000262464 0)
(-0.00856477 0.000253372 0)
(-0.00870497 0.000244005 0)
(-0.00883979 0.000234371 0)
(-0.00896908 0.000224479 0)
(-0.00909271 0.000214337 0)
(-0.00921053 0.000203954 0)
(-0.00932241 0.000193338 0)
(-0.00942822 0.000182496 0)
(-0.00952784 0.000171437 0)
(-0.00962114 0.00016017 0)
(-0.00970801 0.000148701 0)
(-0.00978833 0.00013704 0)
(-0.00986201 0.000125194 0)
(-0.00992895 0.000113172 0)
(-0.00998904 0.000100982 0)
(-0.0100422 8.86343e-05 0)
(-0.0100883 7.61374e-05 0)
(-0.0101274 6.35018e-05 0)
(-0.0101592 5.07375e-05 0)
(-0.0101839 3.78543e-05 0)
(-0.0102012 2.4863e-05 0)
(-0.0102112 1.17749e-05 0)
(-0.0102137 -1.39809e-06 0)
(-0.0102088 -1.46436e-05 0)
(-0.0101965 -2.79491e-05 0)
(-0.0101766 -4.13018e-05 0)
(-0.0101491 -5.46878e-05 0)
(-0.0101142 -6.80923e-05 0)
(-0.0100717 -8.15001e-05 0)
(-0.0100216 -9.48955e-05 0)
(-0.00996402 -0.000108262 0)
(-0.00989893 -0.000121584 0)
(-0.00982636 -0.000134844 0)
(-0.00974635 -0.000148023 0)
(-0.00965897 -0.000161103 0)
(-0.00956428 -0.000174065 0)
(-0.00946234 -0.000186888 0)
(-0.00935324 -0.000199554 0)
(-0.00923709 -0.00021204 0)
(-0.00911398 -0.000224326 0)
(-0.00898404 -0.000236391 0)
(-0.00884741 -0.000248211 0)
(-0.00870422 -0.000259765 0)
(-0.00855464 -0.000271029 0)
(-0.00839884 -0.000281979 0)
(-0.008237 -0.000292593 0)
(-0.00806931 -0.000302844 0)
(-0.007896 -0.000312709 0)
(-0.00771728 -0.000322163 0)
(-0.0075334 -0.000331182 0)
(-0.0073446 -0.00033974 0)
(-0.00715116 -0.000347812 0)
(-0.00695335 -0.000355373 0)
(-0.00675146 -0.000362398 0)
(-0.0065458 -0.000368862 0)
(-0.0063367 -0.000374742 0)
(-0.00612449 -0.000380011 0)
(-0.00590951 -0.000384648 0)
(-0.00569213 -0.000388628 0)
(-0.00547272 -0.000391928 0)
(-0.00525166 -0.000394526 0)
(-0.00502936 -0.000396399 0)
(-0.00480623 -0.000397525 0)
(-0.00458268 -0.000397884 0)
(-0.00435915 -0.000397456 0)
(-0.00413608 -0.000396223 0)
(-0.00391392 -0.000394166 0)
(-0.00369315 -0.000391268 0)
(-0.00347422 -0.000387513 0)
(-0.00325762 -0.000382885 0)
(-0.00304383 -0.000377371 0)
(-0.00283334 -0.00037096 0)
(-0.00262665 -0.000363641 0)
(-0.00242427 -0.000355404 0)
(-0.00222669 -0.000346245 0)
(-0.00203442 -0.000336159 0)
(-0.00184796 -0.000325145 0)
(-0.00166782 -0.000313204 0)
(-0.0014945 -0.000300343 0)
(-0.00132848 -0.000286572 0)
(-0.00117026 -0.000271904 0)
(-0.0010203 -0.000256359 0)
(-0.00087905 -0.000239966 0)
(-0.000746956 -0.000222757 0)
(-0.000624422 -0.00020478 0)
(-0.000511825 -0.000186091 0)
(-0.000409501 -0.000166764 0)
(-0.000317734 -0.000146893 0)
(-0.000236749 -0.000126596 0)
(-0.00016669 -0.000106027 0)
(-0.000107609 -8.53806e-05 0)
(-5.9436e-05 -6.49065e-05 0)
(-2.19572e-05 -4.49283e-05 0)
(5.2241e-06 -2.58646e-05 0)
(2.27275e-05 -8.25785e-06 0)
(3.14451e-05 7.188e-06 0)
(3.25976e-05 1.9567e-05 0)
(2.77706e-05 2.77335e-05 0)
(1.89615e-05 3.02861e-05 0)
(9.03766e-06 2.56086e-05 0)
(2.11839e-06 1.20106e-05 0)
(1.629e-06 -1.52592e-05 0)
(6.29043e-06 -3.06819e-05 0)
(1.11012e-05 -3.22682e-05 0)
(1.22166e-05 -2.32269e-05 0)
(6.73197e-06 -6.35919e-06 0)
(-7.36966e-06 1.61628e-05 0)
(-3.15959e-05 4.26834e-05 0)
(-6.70955e-05 7.19099e-05 0)
(-0.000114654 0.00010284 0)
(-0.000174786 0.000134702 0)
(-0.000247767 0.000166892 0)
(-0.000333677 0.000198944 0)
(-0.000432445 0.000230501 0)
(-0.000543868 0.000261287 0)
(-0.000667645 0.000291092 0)
(-0.000803399 0.000319759 0)
(-0.000950685 0.000347173 0)
(-0.00110901 0.000373247 0)
(-0.00127786 0.000397925 0)
(-0.00145667 0.000421168 0)
(-0.00164486 0.000442953 0)
(-0.00184187 0.000463272 0)
(-0.00204709 0.000482125 0)
(-0.00225994 0.000499525 0)
(-0.00247983 0.000515487 0)
(-0.00270617 0.000530034 0)
(-0.00293837 0.000543193 0)
(-0.00317588 0.000554994 0)
(-0.00341812 0.000565469 0)
(-0.00366456 0.00057465 0)
(-0.00391465 0.000582575 0)
(-0.00416786 0.000589279 0)
(-0.0044237 0.000594796 0)
(-0.00468167 0.000599166 0)
(-0.00494127 0.000602424 0)
(-0.00520206 0.000604606 0)
(-0.00546357 0.000605749 0)
(-0.00572537 0.000605889 0)
(-0.00598704 0.00060506 0)
(-0.00624815 0.000603297 0)
(-0.00650833 0.000600631 0)
(-0.00676717 0.000597096 0)
(-0.00702433 0.000592722 0)
(-0.00727942 0.000587538 0)
(-0.00753213 0.000581574 0)
(-0.0077821 0.000574857 0)
(-0.00802901 0.000567413 0)
(-0.00827257 0.00055927 0)
(-0.00851246 0.00055045 0)
(-0.0087484 0.000540978 0)
(-0.0089801 0.000530876 0)
(-0.00920731 0.000520166 0)
(-0.00942974 0.000508867 0)
(-0.00964716 0.000497 0)
(-0.00985932 0.000484582 0)
(-0.010066 0.000471631 0)
(-0.0102669 0.000458166 0)
(-0.0104619 0.000444202 0)
(-0.0106507 0.000429756 0)
(-0.0108332 0.000414842 0)
(-0.0110091 0.000399477 0)
(-0.0111782 0.000383673 0)
(-0.0113404 0.000367446 0)
(-0.0114954 0.00035081 0)
(-0.0116432 0.000333778 0)
(-0.0117834 0.000316364 0)
(-0.0119161 0.00029858 0)
(-0.0120409 0.000280441 0)
(-0.0121578 0.00026196 0)
(-0.0122667 0.000243151 0)
(-0.0123673 0.000224028 0)
(-0.0124595 0.000204603 0)
(-0.0125433 0.000184891 0)
(-0.0126184 0.000164907 0)
(-0.0126849 0.000144665 0)
(-0.0127425 0.000124183 0)
(-0.0127912 0.000103475 0)
(-0.0128309 8.25582e-05 0)
(-0.0128615 6.14497e-05 0)
(-0.0128829 4.01671e-05 0)
(-0.0128951 1.87292e-05 0)
(-0.012898 -2.8445e-06 0)
(-0.0128916 -2.4534e-05 0)
(-0.0128757 -4.63183e-05 0)
(-0.0128505 -6.8176e-05 0)
(-0.0128158 -9.00842e-05 0)
(-0.0127716 -0.000112019 0)
(-0.0127179 -0.000133956 0)
(-0.0126549 -0.000155869 0)
(-0.0125823 -0.000177733 0)
(-0.0125004 -0.000199518 0)
(-0.0124091 -0.000221198 0)
(-0.0123085 -0.000242743 0)
(-0.0121986 -0.000264123 0)
(-0.0120796 -0.000285306 0)
(-0.0119515 -0.00030626 0)
(-0.0118145 -0.000326953 0)
(-0.0116687 -0.000347349 0)
(-0.0115141 -0.000367415 0)
(-0.011351 -0.000387115 0)
(-0.0111795 -0.000406414 0)
(-0.0109999 -0.000425274 0)
(-0.0108122 -0.000443657 0)
(-0.0106168 -0.000461526 0)
(-0.0104138 -0.000478841 0)
(-0.0102036 -0.000495562 0)
(-0.00998627 -0.000511651 0)
(-0.00976223 -0.000527068 0)
(-0.00953175 -0.000541771 0)
(-0.00929512 -0.000555721 0)
(-0.0090527 -0.000568877 0)
(-0.00880483 -0.000581197 0)
(-0.00855188 -0.000592643 0)
(-0.00829423 -0.000603174 0)
(-0.00803228 -0.000612749 0)
(-0.00776646 -0.000621331 0)
(-0.00749718 -0.00062888 0)
(-0.00722492 -0.000635358 0)
(-0.00695012 -0.000640729 0)
(-0.00667327 -0.000644954 0)
(-0.00639487 -0.000647999 0)
(-0.00611542 -0.00064983 0)
(-0.00583545 -0.000650412 0)
(-0.0055555 -0.000649715 0)
(-0.00527612 -0.000647708 0)
(-0.00499788 -0.000644362 0)
(-0.00472133 -0.000639651 0)
(-0.00444707 -0.000633549 0)
(-0.00417569 -0.000626033 0)
(-0.00390779 -0.000617083 0)
(-0.00364397 -0.00060668 0)
(-0.00338484 -0.00059481 0)
(-0.00313103 -0.000581461 0)
(-0.00288316 -0.000566625 0)
(-0.00264183 -0.000550297 0)
(-0.00240767 -0.000532479 0)
(-0.00218128 -0.000513176 0)
(-0.00196329 -0.0004924 0)
(-0.00175428 -0.000470171 0)
(-0.00155484 -0.000446515 0)
(-0.00136553 -0.000421471 0)
(-0.00118689 -0.000395086 0)
(-0.00101946 -0.000367423 0)
(-0.000863694 -0.00033856 0)
(-0.00072005 -0.000308598 0)
(-0.000588908 -0.000277662 0)
(-0.000470593 -0.00024591 0)
(-0.000365351 -0.000213539 0)
(-0.000273332 -0.000180799 0)
(-0.000194573 -0.000148004 0)
(-0.000128973 -0.000115548 0)
(-7.62627e-05 -8.39321e-05 0)
(-3.59711e-05 -5.3789e-05 0)
(-7.38739e-06 -2.59201e-05 0)
(1.04845e-05 -1.33779e-06 0)
(1.89759e-05 1.86892e-05 0)
(1.97861e-05 3.25889e-05 0)
(1.50329e-05 3.84593e-05 0)
(7.68186e-06 3.40678e-05 0)
(1.90309e-06 1.67491e-05 0)
(1.21812e-06 -1.82549e-05 0)
(3.68638e-06 -3.43367e-05 0)
(3.97158e-06 -3.28108e-05 0)
(-1.42175e-06 -1.7645e-05 0)
(-1.52299e-05 7.67532e-06 0)
(-3.94666e-05 4.04742e-05 0)
(-7.56805e-05 7.86311e-05 0)
(-0.000125025 0.000120488 0)
(-0.000188327 0.000164728 0)
(-0.000266123 0.000210309 0)
(-0.000358709 0.000256411 0)
(-0.000466182 0.000302386 0)
(-0.000588467 0.000347727 0)
(-0.000725353 0.00039204 0)
(-0.000876515 0.000435016 0)
(-0.00104154 0.00047642 0)
(-0.00121993 0.000516075 0)
(-0.00141114 0.000553851 0)
(-0.00161459 0.000589652 0)
(-0.00182965 0.000623416 0)
(-0.00205568 0.000655102 0)
(-0.00229199 0.000684691 0)
(-0.00253793 0.000712179 0)
(-0.0027928 0.000737572 0)
(-0.00305594 0.000760891 0)
(-0.00332665 0.000782163 0)
(-0.00360426 0.000801422 0)
(-0.00388812 0.000818708 0)
(-0.00417756 0.000834065 0)
(-0.00447195 0.000847537 0)
(-0.00477064 0.000859173 0)
(-0.00507304 0.000869025 0)
(-0.00537854 0.000877142 0)
(-0.00568655 0.000883577 0)
(-0.00599651 0.000888381 0)
(-0.00630787 0.000891608 0)
(-0.00662008 0.000893307 0)
(-0.00693263 0.000893531 0)
(-0.00724502 0.000892328 0)
(-0.00755675 0.000889748 0)
(-0.00786736 0.000885837 0)
(-0.00817639 0.000880644 0)
(-0.0084834 0.000874213 0)
(-0.00878796 0.000866585 0)
(-0.00908966 0.000857804 0)
(-0.0093881 0.00084791 0)
(-0.00968289 0.000836943 0)
(-0.00997368 0.000824938 0)
(-0.0102601 0.000811933 0)
(-0.0105418 0.000797962 0)
(-0.0108184 0.000783057 0)
(-0.0110896 0.000767252 0)
(-0.0113552 0.000750575 0)
(-0.0116147 0.000733056 0)
(-0.011868 0.000714721 0)
(-0.0121147 0.000695598 0)
(-0.0123545 0.000675713 0)
(-0.0125873 0.000655089 0)
(-0.0128126 0.000633752 0)
(-0.0130304 0.000611724 0)
(-0.0132403 0.000589026 0)
(-0.0134421 0.000565682 0)
(-0.0136355 0.000541712 0)
(-0.0138205 0.000517137 0)
(-0.0139967 0.000491978 0)
(-0.014164 0.000466255 0)
(-0.0143222 0.000439987 0)
(-0.014471 0.000413195 0)
(-0.0146103 0.0003859 0)
(-0.01474 0.000358122 0)
(-0.0148598 0.00032988 0)
(-0.0149697 0.000301197 0)
(-0.0150694 0.000272092 0)
(-0.0151588 0.000242588 0)
(-0.0152378 0.000212708 0)
(-0.0153063 0.000182475 0)
(-0.0153641 0.000151912 0)
(-0.0154112 0.000121045 0)
(-0.0154474 8.9898e-05 0)
(-0.0154726 5.84985e-05 0)
(-0.0154868 2.68741e-05 0)
(-0.01549 -4.94652e-06 0)
(-0.0154819 -3.69335e-05 0)
(-0.0154626 -6.90559e-05 0)
(-0.0154321 -0.000101281 0)
(-0.0153904 -0.000133577 0)
(-0.0153373 -0.000165907 0)
(-0.015273 -0.000198235 0)
(-0.0151974 -0.000230524 0)
(-0.0151105 -0.000262734 0)
(-0.0150124 -0.000294825 0)
(-0.0149032 -0.000326755 0)
(-0.0147828 -0.000358482 0)
(-0.0146515 -0.000389961 0)
(-0.0145093 -0.000421146 0)
(-0.0143562 -0.000451989 0)
(-0.0141925 -0.000482443 0)
(-0.0140183 -0.000512456 0)
(-0.0138338 -0.000541979 0)
(-0.0136391 -0.000570959 0)
(-0.0134344 -0.000599344 0)
(-0.01322 -0.000627079 0)
(-0.0129961 -0.00065411 0)
(-0.0127629 -0.000680379 0)
(-0.0125208 -0.00070583 0)
(-0.01227 -0.000730406 0)
(-0.0120108 -0.000754048 0)
(-0.0117436 -0.000776699 0)
(-0.0114688 -0.000798299 0)
(-0.0111867 -0.000818789 0)
(-0.0108977 -0.000838109 0)
(-0.0106022 -0.000856202 0)
(-0.0103007 -0.000873007 0)
(-0.00999364 -0.000888467 0)
(-0.00968145 -0.000902524 0)
(-0.00936466 -0.00091512 0)
(-0.00904378 -0.000926199 0)
(-0.00871934 -0.000935706 0)
(-0.00839189 -0.000943586 0)
(-0.00806201 -0.000949787 0)
(-0.00773028 -0.000954257 0)
(-0.0073973 -0.000956946 0)
(-0.00706369 -0.000957806 0)
(-0.0067301 -0.000956792 0)
(-0.00639716 -0.000953861 0)
(-0.00606554 -0.000948971 0)
(-0.00573592 -0.000942084 0)
(-0.00540899 -0.000933164 0)
(-0.00508543 -0.00092218 0)
(-0.00476595 -0.000909104 0)
(-0.00445128 -0.000893911 0)
(-0.00414211 -0.000876582 0)
(-0.00383918 -0.000857102 0)
(-0.00354321 -0.000835462 0)
(-0.00325491 -0.000811659 0)
(-0.00297501 -0.000785698 0)
(-0.00270422 -0.000757591 0)
(-0.00244324 -0.000727359 0)
(-0.00219276 -0.000695037 0)
(-0.00195346 -0.000660667 0)
(-0.00172597 -0.000624311 0)
(-0.00151092 -0.000586044 0)
(-0.0013089 -0.000545965 0)
(-0.00112046 -0.000504195 0)
(-0.000946072 -0.000460886 0)
(-0.000786178 -0.000416229 0)
(-0.00064113 -0.000370458 0)
(-0.000511189 -0.000323865 0)
(-0.000396512 -0.000276811 0)
(-0.000297127 -0.000229743 0)
(-0.00021291 -0.000183219 0)
(-0.000143555 -0.000137931 0)
(-8.85487e-05 -9.47387e-05 0)
(-4.71297e-05 -5.47097e-05 0)
(-1.8252e-05 -1.91662e-05 0)
(-5.40699e-07 1.02639e-05 0)
(7.74014e-06 3.15903e-05 0)
(8.74118e-06 4.24176e-05 0)
(5.36351e-06 3.99019e-05 0)
(1.50424e-06 2.04827e-05 0)
(6.89195e-07 -1.96966e-05 0)
(4.70025e-07 -3.39982e-05 0)
(-4.74404e-06 -2.71969e-05 0)
(-1.78606e-05 -3.95394e-06 0)
(-4.1342e-05 3.172e-05 0)
(-7.71207e-05 7.66263e-05 0)
(-0.000126693 0.000128248 0)
(-0.000191192 0.000184558 0)
(-0.000271425 0.000243937 0)
(-0.000367923 0.000305082 0)
(-0.000480983 0.000366946 0)
(-0.000610691 0.000428692 0)
(-0.000756966 0.000489658 0)
(-0.00091958 0.000549317 0)
(-0.00109819 0.000607256 0)
(-0.00129233 0.000663153 0)
(-0.00150149 0.00071676 0)
(-0.00172507 0.000767892 0)
(-0.00196242 0.000816411 0)
(-0.00221285 0.000862221 0)
(-0.00247566 0.000905259 0)
(-0.00275011 0.000945491 0)
(-0.00303544 0.000982902 0)
(-0.0033309 0.0010175 0)
(-0.00363572 0.00104929 0)
(-0.00394915 0.00107832 0)
(-0.00427042 0.00110462 0)
(-0.00459879 0.00112825 0)
(-0.00493352 0.00114925 0)
(-0.00527387 0.00116769 0)
(-0.00561915 0.00118363 0)
(-0.00596864 0.00119713 0)
(-0.00632166 0.00120826 0)
(-0.00667756 0.00121709 0)
(-0.00703567 0.00122369 0)
(-0.00739538 0.00122813 0)
(-0.00775605 0.00123047 0)
(-0.0081171 0.00123078 0)
(-0.00847796 0.00122913 0)
(-0.00883805 0.00122559 0)
(-0.00919684 0.00122022 0)
(-0.00955379 0.00121309 0)
(-0.00990841 0.00120424 0)
(-0.0102602 0.00119375 0)
(-0.0106087 0.00118167 0)
(-0.0109534 0.00116805 0)
(-0.0112939 0.00115295 0)
(-0.0116298 0.00113642 0)
(-0.0119606 0.0011185 0)
(-0.0122859 0.00109925 0)
(-0.0126054 0.00107871 0)
(-0.0129187 0.00105692 0)
(-0.0132254 0.00103393 0)
(-0.0135252 0.00100978 0)
(-0.0138177 0.000984497 0)
(-0.0141025 0.000958126 0)
(-0.0143795 0.000930701 0)
(-0.0146482 0.000902257 0)
(-0.0149084 0.000872826 0)
(-0.0151598 0.000842441 0)
(-0.0154021 0.000811132 0)
(-0.015635 0.00077893 0)
(-0.0158584 0.000745865 0)
(-0.0160718 0.000711966 0)
(-0.0162752 0.000677261 0)
(-0.0164682 0.000641778 0)
(-0.0166506 0.000605546 0)
(-0.0168223 0.000568594 0)
(-0.0169829 0.000530948 0)
(-0.0171324 0.000492639 0)
(-0.0172705 0.000453693 0)
(-0.0173971 0.00041414 0)
(-0.017512 0.00037401 0)
(-0.0176149 0.000333334 0)
(-0.0177058 0.000292143 0)
(-0.0177846 0.000250468 0)
(-0.017851 0.000208344 0)