/*--------------------------------*- C++ -*----------------------------------*\
  =========                 |
  \\      /  F ield         | OpenFOAM: The Open Source CFD Toolbox
   \\    /   O peration     | Website:  https://openfoam.org
    \\  /    A nd           | Version:  7
     \\/     M anipulation  |
\*---------------------------------------------------------------------------*/
FoamFile
{
    version     2.0;
    format      ascii;
    class       volScalarField;
    location    "0.175";
    object      p;
}
// * * * * * * * * * * * * * * * * * * * * * * * * * * * * * * * * * * * * * //

dimensions      [0 2 -2 0 0 0 0];

internalField   nonuniform List<scalar> 
25600
(
-1.5957e-09
0.000110313
0.000135245
2.55182e-05
-0.000226751
-0.000618429
-0.00113975
-0.00177697
-0.00251481
-0.00333795
-0.0042318
-0.00518266
-0.00617779
-0.00720543
-0.00825483
-0.00931613
-0.0103802
-0.0114389
-0.0124845
-0.0135102
-0.0145095
-0.0154769
-0.016407
-0.0172949
-0.0181364
-0.0189274
-0.0196645
-0.0203443
-0.0209642
-0.0215214
-0.0220137
-0.022439
-0.0227958
-0.0230823
-0.0232975
-0.0234402
-0.0235095
-0.0235049
-0.0234258
-0.0232722
-0.0230438
-0.0227406
-0.0223628
-0.0219107
-0.0213847
-0.0207855
-0.0201139
-0.0193707
-0.0185566
-0.0176728
-0.0167205
-0.015701
-0.0146155
-0.0134655
-0.0122525
-0.0109782
-0.00964412
-0.00825208
-0.00680389
-0.00530148
-0.00374679
-0.00214184
-0.00048866
0.00121057
0.00295364
0.00473829
0.00656227
0.00842324
0.0103188
0.0122464
0.0142036
0.016188
0.0181969
0.0202277
0.0222778
0.0243445
0.0264252
0.0285171
0.0306175
0.0327236
0.0348327
0.036942
0.0390487
0.04115
0.043243
0.0453249
0.0473931
0.0494446
0.0514767
0.0534865
0.0554714
0.0574285
0.0593552
0.0612487
0.0631064
0.0649257
0.0667039
0.0684385
0.0701271
0.0717671
0.0733561
0.0748919
0.0763721
0.0777947
0.0791574
0.0804582
0.0816953
0.0828666
0.0839706
0.0850056
0.08597
0.0868624
0.0876815
0.0884261
0.0890953
0.0896881
0.0902038
0.0906418
0.0910016
0.0912829
0.0914858
0.0916103
0.0916567
0.0916255
0.0915173
0.091333
0.0910739
0.0907412
0.0903367
0.0898621
0.0893195
0.0887115
0.0880406
0.08731
0.0865229
0.085683
0.0847944
0.0838614
0.0828888
0.0818818
0.0808463
0.0797882
0.0787142
0.0776317
0.0765483
0.0754726
0.0744137
0.0733814
0.0723864
0.0714402
0.0705551
0.0697442
0.0690216
0.0684015
0.0678986
0.0675258
0.0672924
0.0672005
0.0672393
0.0673532
-0.000110263
1.60623e-06
4.00483e-06
-0.000117798
-0.000359124
-0.000718774
-0.00119091
-0.00176571
-0.00243124
-0.00317521
-0.00398525
-0.00484947
-0.00575659
-0.00669592
-0.00765767
-0.00863262
-0.00961229
-0.0105889
-0.0115551
-0.0125043
-0.0134304
-0.0143278
-0.0151914
-0.0160164
-0.0167987
-0.0175342
-0.0182195
-0.0188514
-0.019427
-0.0199437
-0.0203993
-0.0207918
-0.0211192
-0.0213802
-0.0215733
-0.0216977
-0.0217522
-0.0217363
-0.0216493
-0.021491
-0.0212612
-0.0209599
-0.0205872
-0.0201433
-0.0196285
-0.0190436
-0.018389
-0.0176656
-0.0168741
-0.0160156
-0.0150912
-0.014102
-0.0130494
-0.0119346
-0.0107591
-0.00952445
-0.00823224
-0.00688409
-0.00548178
-0.00402716
-0.00252209
-0.000968498
0.000631641
0.00227625
0.00396317
0.00569026
0.00745534
0.00925614
0.0110903
0.0129554
0.0148492
0.0167692
0.0187128
0.0206776
0.0226609
0.0246604
0.0266733
0.028697
0.0307288
0.0327661
0.0348063
0.0368466
0.0388844
0.0409168
0.0429412
0.0449549
0.0469552
0.0489394
0.0509047
0.0528485
0.0547681
0.0566609
0.0585242
0.0603554
0.062152
0.0639114
0.0656312
0.067309
0.0689422
0.0705285
0.0720656
0.0735514
0.0749836
0.0763602
0.0776791
0.0789384
0.0801363
0.081271
0.0823408
0.0833442
0.0842798
0.0851463
0.0859423
0.0866668
0.087319
0.0878979
0.0884029
0.0888335
0.0891893
0.08947
0.0896758
0.0898068
0.0898633
0.0898458
0.089755
0.089592
0.0893578
0.0890539
0.0886819
0.0882437
0.0877413
0.0871773
0.0865543
0.0858753
0.0851435
0.0843626
0.0835365
0.0826696
0.0817664
0.0808322
0.0798724
0.0788929
0.0779001
0.076901
0.0759029
0.0749139
0.0739425
0.0729979
0.0720898
0.0712286
0.0704251
0.0696909
0.0690375
0.0684768
0.0680195
0.0676752
0.0674489
0.067341
0.0673534
0.0674672
-0.000133593
2.84653e-06
5.81586e-06
-0.000117164
-0.000349145
-0.000687101
-0.00112627
-0.00165813
-0.00227289
-0.00295985
-0.00370843
-0.00450815
-0.00534872
-0.0062206
-0.00711467
-0.00802233
-0.00893579
-0.00984753
-0.0107506
-0.0116388
-0.012506
-0.0133471
-0.0141569
-0.0149309
-0.0156649
-0.0163552
-0.0169981
-0.0175906
-0.0181298
-0.0186133
-0.0190386
-0.0194037
-0.0197069
-0.0199466
-0.0201215
-0.0202305
-0.0202727
-0.0202473
-0.0201537
-0.0199915
-0.0197606
-0.0194608
-0.0190923
-0.0186552
-0.0181499
-0.0175768
-0.0169365
-0.0162297
-0.0154571
-0.0146199
-0.0137189
-0.0127553
-0.0117302
-0.010645
-0.00950105
-0.00829984
-0.00704285
-0.00573168
-0.00436805
-0.00295372
-0.00149047
1.98396e-05
0.00157526
0.00317378
0.00481335
0.0064919
0.00820731
0.00995734
0.0117397
0.0135521
0.0153924
0.017258
0.0191466
0.0210556
0.0229827
0.0249254
0.0268811
0.0288473
0.0308213
0.0328006
0.0347827
0.0367649
0.0387445
0.040719
0.0426856
0.0446418
0.0465849
0.0485124
0.0504215
0.0523097
0.0541744
0.056013
0.057823
0.0596019
0.0613472
0.0630563
0.0647271
0.066357
0.0679437
0.069485
0.0709786
0.0724225
0.0738144
0.0751525
0.0764348
0.0776593
0.0788244
0.0799284
0.0809697
0.0819468
0.0828583
0.0837031
0.0844798
0.0851876
0.0858256
0.086393
0.0868891
0.0873135
0.087666
0.0879463
0.0881545
0.0882909
0.0883557
0.0883496
0.0882732
0.0881276
0.087914
0.0876338
0.0872886
0.0868803
0.0864109
0.085883
0.0852991
0.0846622
0.0839755
0.0832425
0.0824672
0.0816536
0.0808065
0.0799307
0.0790315
0.0781147
0.0771863
0.076253
0.0753218
0.0744004
0.0734966
0.072619
0.0717766
0.0709788
0.0702354
0.0695565
0.0689523
0.0684326
0.0680067
0.0676823
0.0674639
0.0673534
0.0673659
0.0675063
-1.92348e-05
0.000129863
0.00013462
1.14744e-05
-0.000215194
-0.000540358
-0.000958514
-0.00146174
-0.00204106
-0.00268708
-0.00339036
-0.00414138
-0.004931
-0.00575033
-0.00659094
-0.00744502
-0.00830504
-0.00916402
-0.0100155
-0.0108533
-0.0116718
-0.0124658
-0.0132306
-0.0139617
-0.0146551
-0.0153069
-0.0159139
-0.0164728
-0.016981
-0.0174359
-0.0178352
-0.0181769
-0.0184592
-0.0186806
-0.0188397
-0.0189354
-0.0189669
-0.0189332
-0.0188338
-0.0186683
-0.0184364
-0.0181381
-0.0177733
-0.0173421
-0.016845
-0.0162824
-0.0156546
-0.0149624
-0.0142066
-0.013388
-0.0125076
-0.0115665
-0.0105658
-0.00950665
-0.00839054
-0.0072188
-0.00599289
-0.00471438
-0.00338491
-0.00200618
-0.000579875
0.000892183
0.00240808
0.00396585
0.00556355
0.00719919
0.00887067
0.0105758
0.0123123
0.0140782
0.0158711
0.0176886
0.0195285
0.0213883
0.0232656
0.0251581
0.0270633
0.0289785
0.0309015
0.0328296
0.0347603
0.0366911
0.0386194
0.0405426
0.0424582
0.0443637
0.0462564
0.0481338
0.0499934
0.0518325
0.0536488
0.0554398
0.0572029
0.0589356
0.0606357
0.0623007
0.0639282
0.0655161
0.067062
0.0685637
0.0700191
0.0714261
0.0727828
0.0740871
0.0753372
0.0765313
0.0776676
0.0787447
0.0797611
0.0807151
0.0816057
0.0824314
0.0831913
0.0838845
0.0845101
0.0850674
0.0855558
0.0859748
0.0863243
0.0866041
0.0868144
0.0869554
0.0870274
0.087031
0.086967
0.0868364
0.0866405
0.0863805
0.0860583
0.0856754
0.0852342
0.0847369
0.0841863
0.083585
0.0829364
0.0822439
0.0815112
0.0807424
0.079942
0.0791147
0.0782656
0.0774003
0.0765245
0.0756447
0.0747674
0.0738998
0.0730494
0.0722241
0.0714322
0.0706824
0.0699835
0.0693447
0.068775
0.0682832
0.0678778
0.0675661
0.067353
0.0672427
0.0672584
0.0674153
0.00023916
0.000377193
0.000372352
0.000243129
1.5814e-05
-0.000303072
-0.000707604
-0.00119018
-0.00174248
-0.00235617
-0.00302253
-0.00373318
-0.00447974
-0.00525406
-0.00604849
-0.00685559
-0.00766846
-0.00848058
-0.00928574
-0.0100782
-0.0108526
-0.0116039
-0.0123276
-0.0130193
-0.0136752
-0.0142916
-0.0148652
-0.0153931
-0.0158723
-0.0163006
-0.0166756
-0.0169954
-0.0172582
-0.0174624
-0.0176067
-0.01769
-0.0177113
-0.0176699
-0.0175651
-0.0173965
-0.0171638
-0.0168669
-0.0165056
-0.0160803
-0.0155911
-0.0150384
-0.0144227
-0.0137446
-0.0130048
-0.0122041
-0.0113435
-0.010424
-0.00944658
-0.00841259
-0.00732323
-0.00617983
-0.00498381
-0.00373671
-0.0024401
-0.00109559
0.000295167
0.0017304
0.00320823
0.0047268
0.00628424
0.00787857
0.00950772
0.0111696
0.0128621
0.0145831
0.0163303
0.0181016
0.0198946
0.0217069
0.0235364
0.0253806
0.0272371
0.0291034
0.0309772
0.032856
0.0347374
0.0366188
0.0384977
0.0403717
0.0422383
0.044095
0.0459392
0.0477685
0.0495805
0.0513726
0.0531425
0.0548877
0.0566057
0.0582942
0.059951
0.0615736
0.0631598
0.0647074
0.0662142
0.067678
0.0690968
0.0704686
0.0717914
0.0730635
0.0742828
0.0754478
0.0765567
0.0776082
0.0786006
0.0795327
0.0804031
0.0812108
0.0819547
0.0826339
0.0832477
0.0837953
0.0842762
0.08469
0.0850367
0.085316
0.0855282
0.0856734
0.085752
0.0857647
0.0857122
0.0855956
0.0854162
0.0851751
0.0848742
0.0845151
0.0841
0.0836312
0.0831112
0.082543
0.0819295
0.0812741
0.0805805
0.0798526
0.0790947
0.0783115
0.0775077
0.0766887
0.07586
0.0750276
0.0741978
0.0733773
0.0725732
0.0717927
0.0710435
0.0703335
0.0696709
0.0690639
0.0685207
0.0680493
0.0676575
0.0673525
0.0671396
0.0670243
0.0670328
0.0671836
0.000636914
0.000742573
0.000715606
0.000572416
0.000337429
1.77714e-05
-0.000380483
-0.000849933
-0.00138312
-0.00197229
-0.00260978
-0.00328779
-0.0039988
-0.00473539
-0.00549052
-0.00625722
-0.00702916
-0.00780015
-0.00856442
-0.00931654
-0.0100514
-0.0107644
-0.011451
-0.0121071
-0.0127288
-0.0133129
-0.013856
-0.0143553
-0.014808
-0.0152118
-0.0155643
-0.0158638
-0.0161084
-0.0162967
-0.0164273
-0.0164991
-0.0165111
-0.0164625
-0.0163527
-0.0161813
-0.0159479
-0.0156524
-0.0152947
-0.0148749
-0.0143933
-0.0138502
-0.013246
-0.0125813
-0.0118568
-0.0110733
-0.0102316
-0.00933268
-0.00837763
-0.00736761
-0.0063038
-0.00518749
-0.00402007
-0.00280301
-0.00153781
-0.000226017
0.00113074
0.00253072
0.00397215
0.00545324
0.00697216
0.00852694
0.0101156
0.0117361
0.0133864
0.0150645
0.0167681
0.0184951
0.0202432
0.0220102
0.0237939
0.0255919
0.0274018
0.0292214
0.0310481
0.0328798
0.034714
0.0365481
0.0383799
0.0402069
0.0420266
0.0438367
0.0456347
0.0474181
0.0491847
0.0509319
0.0526575
0.054359
0.0560341
0.0576805
0.0592959
0.0608781
0.062425
0.0639342
0.0654037
0.0668315
0.0682155
0.0695538
0.0708445
0.0720858
0.073276
0.0744133
0.0754962
0.0765232
0.077493
0.0784042
0.0792556
0.0800461
0.0807747
0.0814407
0.0820432
0.0825816
0.0830554
0.0834643
0.0838081
0.0840869
0.0843007
0.0844497
0.0845344
0.0845554
0.0845136
0.0844099
0.0842456
0.084022
0.0837407
0.0834034
0.0830123
0.0825696
0.0820778
0.0815397
0.0809582
0.0803366
0.0796784
0.0789875
0.0782679
0.0775241
0.0767608
0.0759828
0.0751955
0.0744047
0.0736161
0.0728362
0.0720713
0.0713284
0.0706144
0.0699367
0.0693026
0.0687196
0.0681953
0.0677369
0.0673517
0.0670467
0.0668274
0.0666999
0.0666893
0.066813
0.00116352
0.00122002
0.00115959
0.000994363
0.000744333
0.000416647
1.74203e-05
-0.000446503
-0.000968129
-0.00154055
-0.00215675
-0.00280965
-0.00349249
-0.00419845
-0.00492101
-0.00565387
-0.00639103
-0.00712672
-0.00785562
-0.00857259
-0.00927278
-0.00995184
-0.0106054
-0.0112297
-0.011821
-0.012376
-0.0128916
-0.013365
-0.0137936
-0.0141751
-0.0145072
-0.0147882
-0.0150163
-0.01519
-0.015308
-0.0153692
-0.0153728
-0.0153177
-0.0152034
-0.0150295
-0.0147956
-0.0145016
-0.0141473
-0.0137329
-0.0132585
-0.0127245
-0.0121313
-0.0114794
-0.0107694
-0.0100021
-0.00917836
-0.00829903
-0.00736517
-0.00637787
-0.00533828
-0.00424766
-0.00310738
-0.00191882
-0.000683404
0.00059736
0.00192185
0.00328838
0.00469527
0.0061408
0.00762316
0.00914041
0.0106906
0.0122719
0.0138822
0.0155195
0.0171818
0.0188667
0.0205723
0.0222963
0.0240365
0.0257906
0.0275564
0.0293315
0.0311138
0.0329008
0.0346902
0.0364796
0.0382666
0.0400491
0.0418245
0.0435904
0.0453446
0.0470846
0.0488081
0.0505129
0.0521965
0.0538567
0.0554912
0.0570978
0.0586742
0.0602183
0.0617279
0.0632009
0.0646353
0.066029
0.0673802
0.0686869
0.0699473
0.0711597
0.0723223
0.0734335
0.0744919
0.075496
0.0764445
0.077336
0.0781694
0.0789437
0.079658
0.0803115
0.0809033
0.081433
0.0819
0.0823042
0.0826453
0.0829233
0.0831384
0.0832908
0.083381
0.0834096
0.0833774
0.0832855
0.083135
0.0829272
0.0826637
0.0823462
0.0819768
0.0815577
0.0810913
0.0805803
0.0800275
0.0794361
0.0788095
0.0781514
0.0774658
0.0767567
0.0760287
0.0752864
0.0745349
0.0737796
0.0730261
0.0722801
0.0715477
0.0708353
0.0701492
0.0694963
0.0688832
0.0683168
0.067804
0.0673514
0.0669659
0.0666539
0.066421
0.0662736
0.0662328
0.0663127
0.0018053
0.00179999
0.0016964
0.0015015
0.00122942
0.00088683
0.000479778
1.45408e-05
-0.00050256
-0.00106526
-0.00166712
-0.00230186
-0.00296319
-0.00364502
-0.00434133
-0.00504631
-0.00575441
-0.0064603
-0.00715897
-0.00784559
-0.0085157
-0.00916504
-0.00978963
-0.0103857
-0.0109499
-0.011479
-0.0119699
-0.0124202
-0.0128271
-0.0131884
-0.0135021
-0.0137663
-0.0139794
-0.0141398
-0.0142465
-0.0142982
-0.014294
-0.0142331
-0.0141149
-0.0139388
-0.0137046
-0.0134121
-0.0130612
-0.012652
-0.0121846
-0.0116593
-0.0110765
-0.0104367
-0.00974056
-0.00898867
-0.00818189
-0.00732112
-0.00640734
-0.00544157
-0.00442494
-0.00335869
-0.00224413
-0.00108257
0.000124622
0.00137595
0.00266983
0.00400466
0.00537884
0.00679066
0.00823832
0.00971997
0.0112337
0.0127778
0.0143502
0.0159489
0.0175719
0.019217
0.0208823
0.0225655
0.0242645
0.0259771
0.027701
0.0294342
0.0311742
0.0329189
0.0346659
0.0364129
0.0381577
0.0398979
0.0416314
0.0433556
0.0450683
0.0467672
0.0484501
0.0501147
0.0517587
0.0533799
0.054976
0.056545
0.0580846
0.0595926
0.0610671
0.062506
0.0639072
0.0652688
0.0665891
0.067866
0.0690979
0.070283
0.0714196
0.0725063
0.0735417
0.0745242
0.0754525
0.0763255
0.077142
0.0779011
0.0786019
0.0792435
0.0798253
0.0803467
0.0808074
0.0812069
0.0815453
0.0818226
0.0820387
0.0821941
0.0822891
0.0823245
0.082301
0.0822197
0.0820815
0.081888
0.0816405
0.0813409
0.0809911
0.0805932
0.0801495
0.0796627
0.0791355
0.0785709
0.0779722
0.077343
0.076687
0.0760082
0.0753107
0.0745992
0.0738782
0.0731529
0.0724285
0.0717104
0.0710042
0.0703157
0.0696509
0.069016
0.0684171
0.0678604
0.0673524
0.066899
0.0665065
0.0661809
0.0659276
0.0657527
0.0656722
0.0656952
0.00254806
0.00247147
0.00231696
0.00208572
0.00178514
0.00142141
0.00100029
0.000527407
8.50332e-06
-0.000550749
-0.00114468
-0.00176747
-0.00241347
-0.00307715
-0.00375297
-0.00443559
-0.00511994
-0.00580104
-0.00647428
-0.00713514
-0.0077794
-0.00840304
-0.00900237
-0.00957382
-0.0101141
-0.0106202
-0.0110894
-0.0115189
-0.0119064
-0.0122497
-0.0125468
-0.0127959
-0.0129954
-0.0131441
-0.0132405
-0.0132836
-0.0132725
-0.0132064
-0.0130847
-0.0129069
-0.0126726
-0.0123818
-0.0120342
-0.01163
-0.0111693
-0.0106523
-0.0100795
-0.00945127
-0.00876817
-0.0080309
-0.00724025
-0.00639709
-0.00550232
-0.00455694
-0.00356208
-0.00251893
-0.00142872
-0.000292709
0.000887746
0.00211117
0.00337605
0.00468088
0.00602408
0.00740396
0.00881874
0.0102667
0.011746
0.0132548
0.0147913
0.0163534
0.0179392
0.0195466
0.0211737
0.0228183
0.0244783
0.0261516
0.027836
0.0295293
0.0312294
0.032934
0.0346409
0.0363479
0.0380527
0.0397531
0.0414468
0.0431315
0.0448051
0.0464652
0.0481098
0.0497365
0.0513431
0.0529274
0.0544874
0.0560208
0.0575257
0.0589998
0.0604412
0.0618478
0.0632178
0.0645493
0.0658404
0.0670893
0.0682943
0.0694537
0.070566
0.0716297
0.0726432
0.0736054
0.0745149
0.0753704
0.0761711
0.0769159
0.0776039
0.0782344
0.0788067
0.0793202
0.0797747
0.0801699
0.0805056
0.0807819
0.0809988
0.0811566
0.0812559
0.0812973
0.0812816
0.0812097
0.0810827
0.0809019
0.0806688
0.0803851
0.0800527
0.0796737
0.0792502
0.0787848
0.0782802
0.0777392
0.077165
0.076561
0.0759307
0.0752779
0.0746066
0.073921
0.0732256
0.0725251
0.0718244
0.0711285
0.0704427
0.0697722
0.0691226
0.0684996
0.0679087
0.0673556
0.0668461
0.0663858
0.0659802
0.0656347
0.0653547
0.0651458
0.0650176
0.0649741
0.00337785
0.00322334
0.0030118
0.00273851
0.00240382
0.00201333
0.00157253
0.00108638
0.000559972
-1.65516e-06
-0.000593307
-0.00120985
-0.00184614
-0.00249711
-0.00315774
-0.00382319
-0.0044887
-0.00514975
-0.00580205
-0.0064414
-0.00706381
-0.00766557
-0.00824316
-0.00879327
-0.00931278
-0.00979884
-0.0102487
-0.01066
-0.0110303
-0.0113576
-0.0116399
-0.0118756
-0.0120632
-0.0122012
-0.0122885
-0.012324
-0.0123068
-0.0122362
-0.0121115
-0.0119323
-0.0116982
-0.0114091
-0.0110649
-0.0106656
-0.0102113
-0.00970229
-0.00913894
-0.00852165
-0.00785098
-0.00712759
-0.00635223
-0.00552572
-0.00464893
-0.00372286
-0.00274862
-0.00172732
-0.000660126
0.000451721
0.00160687
0.00280389
0.00404137
0.00531784
0.00663173
0.00798137
0.00936507
0.0107811
0.0122278
0.0137034
0.0152059
0.0167334
0.018284
0.0198558
0.0214469
0.023055
0.0246781
0.0263142
0.0279612
0.029617
0.0312794
0.0329461
0.0346152
0.0362843
0.0379514
0.0396142
0.0412705
0.042918
0.0445546
0.0461782
0.0477866
0.0493775
0.0509489
0.0524985
0.0540244
0.0555245
0.0569966
0.0584388
0.059849
0.0612254
0.062566
0.0638691
0.0651328
0.0663554
0.0675352
0.0686705
0.0697599
0.0708019
0.0717951
0.0727382
0.0736299
0.0744691
0.0752548
0.0759861
0.0766622
0.0772821
0.0778454
0.0783515
0.0788002
0.0791911
0.0795241
0.0797993
0.0800167
0.0801766
0.0802796
0.0803263
0.0803174
0.0802538
0.0801367
0.0799672
0.0797468
0.0794772
0.0791603
0.0787979
0.0783922
0.0779455
0.0774606
0.0769401
0.0763871
0.0758047
0.0751964
0.0745656
0.0739162
0.0732522
0.0725777
0.0718972
0.0712153
0.0705364
0.0698656
0.0692077
0.0685678
0.0679509
0.0673624
0.0668073
0.0662908
0.0658179
0.0653937
0.0650229
0.0647106
0.0644619
0.06428
0.0641628
0.00428158
0.00404445
0.00377124
0.00345136
0.00307779
0.00265566
0.00219022
0.00168572
0.00114667
0.000577546
-1.70664e-05
-0.000632523
-0.00126415
-0.00190744
-0.00255777
-0.00321074
-0.003862
-0.00450739
-0.00514292
-0.00576473
-0.00636911
-0.00695255
-0.00751177
-0.00804368
-0.00854536
-0.00901409
-0.00944728
-0.00984263
-0.0101979
-0.0105111
-0.0107805
-0.0110043
-0.0111813
-0.0113099
-0.0113892
-0.011418
-0.0113955
-0.011321
-0.0111938
-0.0110136
-0.0107799
-0.0104927
-0.0101518
-0.0097573
-0.00930923
-0.00880788
-0.00825356
-0.00764668
-0.00698779
-0.00627756
-0.00551667
-0.0047059
-0.00384612
-0.00293832
-0.00198355
-0.000982874
6.25911e-05
0.00115161
0.00228284
0.00345495
0.00466657
0.00591627
0.00720247
0.00852356
0.00987792
0.0112639
0.0126799
0.014124
0.0155944
0.0170892
0.0186067
0.020145
0.0217019
0.0232756
0.024864
0.0264651
0.0280768
0.0296972
0.031324
0.0329551
0.0345885
0.036222
0.0378536
0.0394809
0.0411019
0.0427144
0.0443163
0.0459055
0.0474798
0.0490371
0.0505753
0.0520924
0.0535863
0.055055
0.0564964
0.0579085
0.0592895
0.0606375
0.0619506
0.0632271
0.0644651
0.065663
0.0668191
0.0679319
0.0689999
0.0700216
0.0709957
0.0719209
0.072796
0.0736199
0.0743916
0.0751103
0.075775
0.0763851
0.0769399
0.077439
0.077882
0.0782688
0.0785991
0.078873
0.0790906
0.0792523
0.0793584
0.0794096
0.0794067
0.0793504
0.0792418
0.0790823
0.0788731
0.0786159
0.0783123
0.0779644
0.0775741
0.0771438
0.0766758
0.0761729
0.0756379
0.0750738
0.0744839
0.0738715
0.0732401
0.0725935
0.0719356
0.0712706
0.0706027
0.0699361
0.0692754
0.068625
0.0679897
0.067374
0.0667826
0.0662204
0.0656918
0.0652015
0.0647537
0.0643527
0.0640033
0.0637103
0.0634698
0.063274
0.00524699
0.00492414
0.00458593
0.00421577
0.00379935
0.00334143
0.00284702
0.00231974
0.00176351
0.00118223
0.000580016
-3.89973e-05
-0.000670614
-0.00131075
-0.00195526
-0.00260011
-0.00324136
-0.00387514
-0.0044978
-0.00510578
-0.00569566
-0.00626411
-0.00680817
-0.00732486
-0.00781148
-0.00826547
-0.0086844
-0.00906602
-0.0094083
-0.00970932
-0.0099674
-0.010181
-0.0103487
-0.0104692
-0.0105415
-0.0105645
-0.0105375
-0.0104597
-0.0103306
-0.0101496
-0.00991668
-0.00963147
-0.0092939
-0.00890402
-0.00846195
-0.00796791
-0.00742218
-0.0068252
-0.00617751
-0.00547972
-0.00473249
-0.00393659
-0.00309289
-0.00220234
-0.00126593
-0.00028467
0.000740305
0.00180777
0.00291647
0.00406513
0.0052524
0.00647686
0.00773695
0.00903114
0.0103579
0.0117156
0.0131025
0.014517
0.0159572
0.0174213
0.0189076
0.0204142
0.0219391
0.0234803
0.025036
0.0266041
0.0281828
0.0297698
0.0313631
0.0329607
0.0345606
0.0361607
0.0377588
0.0393528
0.0409407
0.0425203
0.0440896
0.0456465
0.0471888
0.0487146
0.0502218
0.0517083
0.0531722
0.0546114
0.0560241
0.0574081
0.0587618
0.0600832
0.0613705
0.0626221
0.0638361
0.0650109
0.0661449
0.0672366
0.0682846
0.0692874
0.0702436
0.0711521
0.0720117
0.0728213
0.0735799
0.0742868
0.0749409
0.0755417
0.0760885
0.0765809
0.0770186
0.0774013
0.077729
0.0780015
0.0782191
0.078382
0.0784907
0.0785457
0.0785478
0.0784978
0.0783967
0.0782458
0.0780462
0.0777997
0.0775078
0.0771723
0.0767952
0.0763786
0.0759251
0.075437
0.0749171
0.0743682
0.0737933
0.0731956
0.0725785
0.0719455
0.0713003
0.0706466
0.0699884
0.0693297
0.0686746
0.0680272
0.0673918
0.0667726
0.0661739
0.0655999
0.0650547
0.0645424
0.0640667
0.0636314
0.063241
0.0629
0.0625973
0.0623197
0.0062629
0.00585248
0.00544675
0.00502349
0.00456104
0.00406382
0.00353671
0.0029828
0.00240533
0.00180782
0.00119387
0.0005671
-6.86829e-05
-0.000709799
-0.00135255
-0.00199329
-0.0026284
-0.00325434
-0.00386775
-0.00446536
-0.00504401
-0.00560065
-0.00613248
-0.00663678
-0.00711097
-0.00755266
-0.0079596
-0.00832964
-0.00866087
-0.00895148
-0.00919991
-0.00940468
-0.00956444
-0.00967801
-0.00974434
-0.0097625
-0.00973166
-0.00965118
-0.00952054
-0.00933934
-0.00910728
-0.00882417
-0.00848995
-0.00810464
-0.00766836
-0.0071813
-0.00664376
-0.00605619
-0.0054191
-0.00473306
-0.00399872
-0.00321685
-0.00238831
-0.001514
-0.000594855
0.000368123
0.0013738
0.002421
0.00350852
0.00463513
0.00579951
0.00700021
0.00823576
0.00950469
0.0108055
0.0121366
0.0134963
0.0148828
0.0162946
0.0177299
0.0191869
0.0206637
0.0221585
0.0236693
0.0251943
0.0267315
0.028279
0.0298347
0.0313966
0.0329628
0.0345313
0.0361
0.0376667
0.0392295
0.0407864
0.0423352
0.043874
0.0454006
0.0469131
0.0484094
0.0498875
0.0513455
0.0527813
0.0541931
0.0555788
0.0569366
0.0582648
0.0595614
0.0608247
0.062053
0.0632447
0.064398
0.0655114
0.0665835
0.0676128
0.0685979
0.0695375
0.0704305
0.0712756
0.0720718
0.0728183
0.0735141
0.0741583
0.0747503
0.0752896
0.0757757
0.0762084
0.0765872
0.0769121
0.0771831
0.0774004
0.0775642
0.0776749
0.0777332
0.0777395
0.0776949
0.0776001
0.0774564
0.0772651
0.0770277
0.0767456
0.0764205
0.0760545
0.0756496
0.0752079
0.074732
0.0742244
0.0736877
0.0731248
0.0725386
0.0719324
0.0713094
0.070673
0.0700268
0.0693744
0.0687195
0.0680658
0.0674172
0.0667776
0.0661507
0.0655404
0.0649506
0.0643848
0.0638467
0.0633394
0.0628663
0.0624316
0.0620396
0.0616722
0.0613106
0.00731909
0.00681999
0.00634524
0.0058667
0.00535563
0.00481628
0.00425335
0.00366944
0.00306726
0.00244989
0.00182046
0.00118221
0.000538491
-0.000107374
-0.000752066
-0.00139232
-0.00202483
-0.0026464
-0.0032539
-0.00384436
-0.00441485
-0.00496264
-0.00548503
-0.00597955
-0.00644379
-0.00687551
-0.00727258
-0.00763304
-0.00795507
-0.00823702
-0.00847735
-0.00867469
-0.00882779
-0.00893553
-0.00899688
-0.00901097
-0.00897705
-0.00889449
-0.00876283
-0.00858167
-0.00835074
-0.00806987
-0.007739
-0.00735816
-0.00692744
-0.00644706
-0.00591733
-0.00533868
-0.0047116
-0.00403664
-0.00331445
-0.00254581
-0.00173153
-0.000872465
3.04773e-05
0.000976275
0.00196383
0.00299201
0.00405969
0.00516563
0.0063085
0.00748691
0.00869945
0.0099447
0.0112212
0.0125273
0.0138614
0.0152219
0.0166071
0.0180154
0.0194449
0.0208938
0.0223603
0.0238426
0.0253388
0.0268471
0.0283654
0.0298918
0.0314244
0.0329612
0.0345003
0.0360396
0.037577
0.0391107
0.0406386
0.0421587
0.0436689
0.0451673
0.0466519
0.0481207
0.0495717
0.0510031
0.0524128
0.053799
0.0551597
0.0564931
0.0577975
0.0590711
0.0603121
0.0615188
0.0626897
0.063823
0.0649173
0.0659712
0.0669832
0.0679519
0.0688761
0.0697546
0.0705863
0.0713702
0.0721053
0.0727908
0.0734258
0.0740096
0.0745419
0.0750221
0.0754499
0.0758249
0.0761471
0.0764165
0.0766333
0.0767976
0.0769099
0.0769707
0.0769805
0.0769402
0.0768507
0.0767131
0.0765287
0.0762988
0.0760248
0.0757085
0.0753515
0.074956
0.074524
0.0740578
0.0735598
0.0730326
0.0724787
0.071901
0.0713024
0.070686
0.0700551
0.0694128
0.0687625
0.0681077
0.0674518
0.0667982
0.0661505
0.0655121
0.0648866
0.0642773
0.0636873
0.06312
0.062578
0.0620641
0.0615825
0.0611372
0.0607035
0.0602567
0.00840618
0.00781824
0.00727337
0.00673796
0.00617629
0.00559243
0.00499105
0.00437428
0.00374439
0.00310397
0.00245582
0.00180276
0.00114772
0.000493714
-0.000156305
-0.000799366
-0.00143254
-0.0020529
-0.00265757
-0.00324385
-0.00380906
-0.00435069
-0.00486627
-0.00535346
-0.00581006
-0.00623399
-0.00662325
-0.00697602
-0.00729061
-0.00756549
-0.00779922
-0.00799048
-0.00813811
-0.00824106
-0.00829836
-0.0083092
-0.00827287
-0.00818881
-0.00805656
-0.00787578
-0.0076462
-0.00736768
-0.00704017
-0.00666368
-0.00623833
-0.00576434
-0.00524203
-0.00467183
-0.00405419
-0.00338966
-0.00267891
-0.0019227
-0.00112179
-0.000277001
0.00061075
0.00154044
0.00251103
0.00352143
0.00457055
0.00565714
0.00677989
0.00793745
0.00912849
0.0103516
0.0116053
0.0128881
0.0141983
0.0155344
0.0168948
0.0182777
0.0196815
0.0211044
0.0225446
0.0240003
0.0254696
0.0269508
0.0284419
0.029941
0.0314462
0.0329557
0.0344673
0.0359792
0.0374894
0.0389959
0.0404968
0.0419901
0.0434739
0.044946
0.0464047
0.0478479
0.0492738
0.0506804
0.0520659
0.0534283
0.0547659
0.0560767
0.0573591
0.0586113
0.0598317
0.0610184
0.06217
0.0632849
0.0643616
0.0653987
0.0663947
0.0673483
0.0682582
0.0691234
0.0699427
0.0707151
0.0714397
0.0721156
0.072742
0.0733183
0.073844
0.0743186
0.0747418
0.0751132
0.0754327
0.0757004
0.0759164
0.0760809
0.0761943
0.076257
0.0762696
0.0762328
0.0761476
0.0760149
0.0758361
0.0756122
0.0753448
0.0750354
0.0746857
0.0742976
0.0738731
0.0734143
0.0729235
0.072403
0.0718554
0.0712833
0.0706895
0.0700767
0.069448
0.0688063
0.0681549
0.0674968
0.0668351
0.0661731
0.0655139
0.0648607
0.0642166
0.0635845
0.0629674
0.0623679
0.0617885
0.0612314
0.0607008
0.0602006
0.0596993
0.0591669
0.00951584
0.00883914
0.00822366
0.00763034
0.00701649
0.00638621
0.00574421
0.00509216
0.00443191
0.0037657
0.00309596
0.00242512
0.00175576
0.00109057
0.000432198
-0.000216704
-0.000853503
-0.00147553
-0.00208022
-0.00266505
-0.00322765
-0.00376564
-0.00427681
-0.00475898
-0.00521011
-0.00562827
-0.00601164
-0.00635851
-0.00666735
-0.00693666
-0.00716516
-0.00735162
-0.00749492
-0.00759409
-0.00764822
-0.00765656
-0.00761848
-0.00753345
-0.00740105
-0.00722094
-0.00699292
-0.00671686
-0.00639269
-0.00602045
-0.00560027
-0.00513239
-0.00461714
-0.0040549
-0.00344613
-0.00279142
-0.00209142
-0.00134684
-0.000558417
0.000273029
0.00114656
0.00206121
0.00301597
0.00400982
0.00504162
0.00611014
0.00721411
0.00835226
0.00952329
0.0107258
0.0119583
0.0132192
0.0145072
0.0158206
0.0171578
0.0185172
0.0198971
0.0212957
0.0227113
0.0241423
0.0255867
0.0270427
0.0285085
0.0299822
0.031462
0.0329459
0.0344321
0.0359185
0.0374034
0.0388847
0.0403606
0.0418291
0.0432883
0.0447361
0.0461708
0.0475904
0.048993
0.0503768
0.0517399
0.0530804
0.0543965
0.0556865
0.0569487
0.0581812
0.0593825
0.0605509
0.0616848
0.0627827
0.0638432
0.0648648
0.0658461
0.0667857
0.0676826
0.0685355
0.0693434
0.0701053
0.0708202
0.0714873
0.0721058
0.0726752
0.0731947
0.0736641
0.0740829
0.0744508
0.0747677
0.0750337
0.0752487
0.0754131
0.0755271
0.0755911
0.0756057
0.0755717
0.0754898
0.075361
0.0751865
0.0749674
0.0747051
0.074401
0.0740567
0.0736741
0.0732551
0.0728015
0.0723156
0.0717996
0.0712557
0.0706866
0.0700946
0.0694826
0.0688532
0.0682092
0.0675535
0.066889
0.0662185
0.0655449
0.0648712
0.0642001
0.0635344
0.0628768
0.0622298
0.0615958
0.0609767
0.0603743
0.0597931
0.0592368
0.0586674
0.0580494
0.0106402
0.00987544
0.00918924
0.00853719
0.00787005
0.00719189
0.00650747
0.00581811
0.00512527
0.00443087
0.00373699
0.00304576
0.00235942
0.00168031
0.00101086
0.000353389
-0.00028972
-0.000916069
-0.00152336
-0.00210929
-0.00267168
-0.0032084
-0.00371738
-0.00419666
-0.00464435
-0.00505864
-0.00543791
-0.00578056
-0.00608519
-0.00635039
-0.00657498
-0.00675781
-0.00689784
-0.00699418
-0.00704598
-0.00705256
-0.00701335
-0.00692786
-0.00679568
-0.00661656
-0.00639029
-0.00611676
-0.00579591
-0.00542781
-0.00501261
-0.00455056
-0.00404197
-0.00348722
-0.00288681
-0.0022413
-0.00155135
-0.000817619
-4.08351e-05
0.000778161
0.00163845
0.00253911
0.00347918
0.00445762
0.00547331
0.00652502
0.00761157
0.00873171
0.00988414
0.0110675
0.0122802
0.013521
0.0147883
0.0160806
0.0173964
0.0187339
0.0200915
0.0214677
0.0228606
0.0242686
0.0256898
0.0271225
0.0285648
0.0300151
0.0314713
0.0329317
0.0343943
0.0358572
0.0373187
0.0387768
0.0402296
0.0416752
0.0431117
0.0445371
0.0459497
0.0473475
0.0487288
0.0500916
0.051434
0.0527544
0.0540509
0.0553218
0.0565653
0.0577799
0.0589637
0.0601152
0.0612329
0.0623154
0.063361
0.0643685
0.0653363
0.0662633
0.0671482
0.0679899
0.0687874
0.0695397
0.0702458
0.0709048
0.0715161
0.072079
0.0725929
0.0730574
0.0734721
0.0738367
0.0741511
0.0744152
0.0746292
0.0747931
0.0749073
0.0749722
0.0749882
0.0749561
0.0748766
0.0747508
0.0745794
0.0743638
0.0741052
0.0738048
0.0734644
0.0730856
0.07267
0.0722197
0.0717365
0.0712227
0.0706802
0.0701116
0.0695191
0.0689052
0.0682724
0.0676233
0.0669606
0.0662868
0.0656046
0.0649166
0.0642256
0.0635339
0.0628441
0.0621585
0.0614793
0.0608086
0.0601479
0.0594988
0.0588658
0.0582526
0.0576147
0.0569116
0.0117725
0.0109204
0.0101636
0.00945247
0.00873122
0.00800402
0.00727573
0.00654738
0.00582006
0.0050954
0.00437517
0.00366125
0.00295555
0.00226011
0.00157711
0.000908612
0.000256763
-0.000376323
-0.000988563
-0.00157792
-0.00214233
-0.00267994
-0.00318881
-0.00366717
-0.00411328
-0.00452552
-0.00490236
-0.00524237
-0.00554421
-0.00580665
-0.00602856
-0.00620887
-0.00634664
-0.00644103
-0.00649129
-0.0064968
-0.00645703
-0.00637154
-0.00623998
-0.00606211
-0.00583776
-0.00556681
-0.00524926
-0.00488519
-0.00447477
-0.00401826
-0.00351594
-0.00296824
-0.00237566
-0.00173876
-0.00105816
-0.000334496
0.000431461
0.00123888
0.00208689
0.0029746
0.00390108