/*--------------------------------*- C++ -*----------------------------------*\
  =========                 |
  \\      /  F ield         | OpenFOAM: The Open Source CFD Toolbox
   \\    /   O peration     | Website:  https://openfoam.org
    \\  /    A nd           | Version:  7
     \\/     M anipulation  |
\*---------------------------------------------------------------------------*/
FoamFile
{
    version     2.0;
    format      ascii;
    class       surfaceScalarField;
    location    "0.175";
    object      phi;
}
// * * * * * * * * * * * * * * * * * * * * * * * * * * * * * * * * * * * * * //

dimensions      [0 3 -1 0 0 0 0];

internalField   nonuniform List<scalar> 
50880
(
6.77788e-12
-6.77699e-12
3.74586e-11
-3.06742e-11
8.22847e-11
-4.48289e-11
1.31624e-10
-4.93428e-11
1.78574e-10
-4.69497e-11
2.18221e-10
-3.96513e-11
2.47152e-10
-2.89219e-11
2.62999e-10
-1.58462e-11
2.64213e-10
-1.21674e-12
2.49812e-10
1.43999e-11
2.19228e-10
3.05878e-11
1.72194e-10
4.7035e-11
1.08679e-10
6.35167e-11
2.88218e-11
7.98614e-11
-6.71117e-11
9.59347e-11
-1.78754e-10
1.11642e-10
-3.05654e-10
1.269e-10
-4.47309e-10
1.41655e-10
-6.03161e-10
1.55852e-10
-7.72627e-10
1.69463e-10
-9.55085e-10
1.82463e-10
-1.14991e-09
1.94817e-10
-1.35643e-09
2.06528e-10
-1.574e-09
2.17568e-10
-1.80194e-09
2.27943e-10
-2.03959e-09
2.37643e-10
-2.28626e-09
2.46669e-10
-2.54127e-09
2.55017e-10
-2.80397e-09
2.62697e-10
-3.07368e-09
2.69711e-10
-3.34974e-09
2.76054e-10
-3.63149e-09
2.81748e-10
-3.91828e-09
2.86792e-10
-4.20949e-09
2.91198e-10
-4.50446e-09
2.94972e-10
-4.80258e-09
2.98125e-10
-5.10325e-09
3.00666e-10
-5.40585e-09
3.02606e-10
-5.7098e-09
3.03958e-10
-6.01453e-09
3.04732e-10
-6.31947e-09
3.04941e-10
-6.62406e-09
3.04593e-10
-6.92775e-09
3.03698e-10
-7.23003e-09
3.02271e-10
-7.53036e-09
3.00329e-10
-7.82825e-09
2.97885e-10
-8.1232e-09
2.94949e-10
-8.41473e-09
2.91534e-10
-8.70238e-09
2.87653e-10
-8.98569e-09
2.83314e-10
-9.26422e-09
2.78529e-10
-9.53753e-09
2.73315e-10
-9.80522e-09
2.67688e-10
-1.00669e-08
2.61661e-10
-1.03221e-08
2.55243e-10
-1.05706e-08
2.4845e-10
-1.08119e-08
2.41296e-10
-1.10457e-08
2.3379e-10
-1.12716e-08
2.25944e-10
-1.14894e-08
2.17775e-10
-1.16987e-08
2.09298e-10
-1.18992e-08
2.00527e-10
-1.20907e-08
1.91471e-10
-1.22728e-08
1.82142e-10
-1.24454e-08
1.72558e-10
-1.26081e-08
1.62733e-10
-1.27608e-08
1.52679e-10
-1.29032e-08
1.42407e-10
-1.30351e-08
1.31934e-10
-1.31564e-08
1.21275e-10
-1.32668e-08
1.10442e-10
-1.33663e-08
9.9448e-11
-1.34546e-08
8.83089e-11
-1.35316e-08
7.70402e-11
-1.35973e-08
6.56563e-11
-1.36515e-08
5.41696e-11
-1.36941e-08
4.25946e-11
-1.3725e-08
3.09475e-11
-1.37442e-08
1.92449e-11
-1.37517e-08
7.50208e-12
-1.37475e-08
-4.26705e-12
-1.37314e-08
-1.60485e-11
-1.37036e-08
-2.78263e-11
-1.3664e-08
-3.95838e-11
-1.36127e-08
-5.1305e-11
-1.35497e-08
-6.29738e-11
-1.34752e-08
-7.45739e-11
-1.33891e-08
-8.60891e-11
-1.32916e-08
-9.75037e-11
-1.31828e-08
-1.08802e-10
-1.30628e-08
-1.19967e-10
-1.29318e-08
-1.30982e-10
-1.279e-08
-1.4183e-10
-1.26375e-08
-1.52494e-10
-1.24746e-08
-1.62957e-10
-1.23014e-08
-1.73203e-10
-1.21181e-08
-1.83214e-10
-1.19252e-08
-1.92974e-10
-1.17227e-08
-2.02467e-10
-1.1511e-08
-2.11674e-10
-1.12904e-08
-2.20578e-10
-1.10613e-08
-2.29163e-10
-1.08239e-08
-2.37411e-10
-1.05786e-08
-2.45307e-10
-1.03257e-08
-2.52833e-10
-1.00658e-08
-2.59973e-10
-9.79904e-09
-2.66711e-10
-9.52602e-09
-2.73028e-10
-9.2471e-09
-2.78911e-10
-8.96276e-09
-2.84342e-10
-8.67345e-09
-2.89308e-10
-8.37966e-09
-2.93791e-10
-8.08189e-09
-2.97775e-10
-7.78064e-09
-3.01248e-10
-7.47644e-09
-3.04195e-10
-7.16984e-09
-3.06601e-10
-6.86139e-09
-3.08453e-10
-6.55166e-09
-3.09737e-10
-6.24122e-09
-3.1044e-10
-5.93067e-09
-3.1055e-10
-5.62062e-09
-3.10056e-10
-5.31167e-09
-3.08948e-10
-5.00445e-09
-3.07216e-10
-4.69961e-09
-3.04848e-10
-4.39777e-09
-3.01837e-10
-4.09959e-09
-2.98175e-10
-3.80574e-09
-2.93855e-10
-3.51687e-09
-2.88871e-10
-3.23365e-09
-2.83219e-10
-2.95675e-09
-2.76896e-10
-2.68686e-09
-2.69898e-10
-2.42463e-09
-2.62224e-10
-2.17076e-09
-2.53876e-10
-1.9259e-09
-2.44856e-10
-1.69073e-09
-2.35167e-10
-1.46591e-09
-2.24817e-10
-1.2521e-09
-2.13813e-10
-1.04993e-09
-2.02167e-10
-8.6004e-10
-1.89893e-10
-6.83027e-10
-1.77012e-10
-5.1948e-10
-1.63547e-10
-3.69953e-10
-1.49526e-10
-2.34966e-10
-1.34986e-10
-1.14996e-10
-1.19971e-10
-1.04599e-11
-1.04536e-10
7.82897e-11
-8.87492e-11
1.50988e-10
-7.2697e-11
2.07476e-10
-5.64868e-11
2.47732e-10
-4.02553e-11
2.71911e-10
-2.41779e-11
2.80395e-10
-8.48312e-12
2.73869e-10
6.52665e-12
2.53424e-10
2.04454e-11
2.20707e-10
3.27171e-11
1.78143e-10
4.25654e-11
1.2924e-10
4.89034e-11
7.90005e-11
5.02396e-11
3.4479e-11
4.45213e-11
5.31731e-12
2.91617e-11
5.31797e-12
3.10127e-11
-3.77809e-11
1.0299e-10
-1.02666e-10
1.97543e-10
-1.39384e-10
2.97902e-10
-1.49694e-10
3.89858e-10
-1.38907e-10
4.62241e-10
-1.12034e-10
5.06571e-10
-7.32545e-11
5.16651e-10
-2.59289e-11
4.88083e-10
2.73571e-11
4.17856e-10
8.46213e-11
3.04074e-10
1.44365e-10
1.45666e-10
2.05441e-10
-5.7792e-11
2.66968e-10
-3.06195e-10
3.28263e-10
-5.99067e-10
3.888e-10
-9.35582e-10
4.48155e-10
-1.31468e-09
5.06007e-10
-1.73513e-09
5.62094e-10
-2.19549e-09
6.16215e-10
-2.69423e-09
6.68204e-10
-3.22971e-09
7.1794e-10
-3.80022e-09
7.65321e-10
-4.40397e-09
8.1028e-10
-5.03916e-09
8.52754e-10
-5.70392e-09
8.92708e-10
-6.39638e-09
9.30113e-10
-7.11467e-09
9.6495e-10
-7.85687e-09
9.97222e-10
-8.62109e-09
1.02692e-09
-9.40546e-09
1.05407e-09
-1.02081e-08
1.07868e-09
-1.10271e-08
1.10076e-09
-1.18606e-08
1.12034e-09
-1.27069e-08
1.13745e-09
-1.3564e-08
1.15212e-09
-1.44303e-08
1.16439e-09
-1.53039e-08
1.17428e-09
-1.61831e-08
1.18185e-09
-1.70663e-08
1.18713e-09
-1.79517e-08
1.19016e-09
-1.88378e-08
1.19099e-09
-1.97229e-08
1.18966e-09
-2.06054e-08
1.18621e-09
-2.14838e-08
1.18068e-09
-2.23566e-08
1.17314e-09
-2.32223e-08
1.16362e-09
-2.40795e-08
1.15218e-09
-2.49269e-08
1.13887e-09
-2.57629e-08
1.12373e-09
-2.65864e-08
1.1068e-09
-2.73961e-08
1.08815e-09
-2.81906e-08
1.06782e-09
-2.89687e-08
1.04587e-09
-2.97294e-08
1.02233e-09
-3.04714e-08
9.97273e-10
-3.11937e-08
9.70742e-10
-3.18952e-08
9.42791e-10
-3.25749e-08
9.13466e-10
-3.32318e-08
8.82821e-10
-3.38649e-08
8.50908e-10
-3.44734e-08
8.17782e-10
-3.50564e-08
7.83493e-10
-3.5613e-08
7.48091e-10
-3.61425e-08
7.11632e-10
-3.66441e-08
6.7417e-10
-3.71171e-08
6.35758e-10
-3.75609e-08
5.96446e-10
-3.79748e-08
5.5629e-10
-3.83582e-08
5.15346e-10
-3.87106e-08
4.73671e-10
-3.90314e-08
4.31315e-10
-3.93203e-08
3.88334e-10
-3.95768e-08
3.44787e-10
-3.98005e-08
3.0073e-10
-3.99911e-08
2.5622e-10
-4.01482e-08
2.11315e-10
-4.02717e-08
1.6607e-10
-4.03613e-08
1.20545e-10
-4.04168e-08
7.48008e-11
-4.04382e-08
2.88957e-11
-4.04254e-08
-1.71097e-11
-4.03783e-08
-6.31548e-11
-4.02969e-08
-1.09179e-10
-4.01814e-08
-1.55121e-10
-4.00318e-08
-2.00918e-10
-3.98482e-08
-2.4651e-10
-3.9631e-08
-2.91831e-10
-3.93803e-08
-3.36819e-10
-3.90964e-08
-3.81408e-10
-3.87796e-08
-4.25535e-10
-3.84305e-08
-4.69136e-10
-3.80493e-08
-5.12147e-10
-3.76366e-08
-5.54502e-10
-3.7193e-08
-5.96135e-10
-3.6719e-08
-6.36979e-10
-3.62152e-08
-6.76968e-10
-3.56824e-08
-7.16037e-10
-3.51212e-08
-7.5412e-10
-3.45325e-08
-7.9115e-10
-3.39172e-08
-8.27062e-10
-3.32759e-08
-8.61788e-10
-3.26098e-08
-8.95262e-10
-3.19198e-08
-9.27419e-10
-3.12069e-08
-9.58195e-10
-3.04723e-08
-9.87524e-10
-2.97169e-08
-1.01534e-09
-2.8942e-08
-1.04158e-09
-2.81488e-08
-1.06619e-09
-2.73387e-08
-1.08909e-09
-2.65128e-08
-1.11023e-09
-2.56725e-08
-1.12955e-09
-2.48193e-08
-1.14698e-09
-2.39546e-08
-1.16248e-09
-2.30799e-08
-1.17597e-09
-2.21967e-08
-1.18742e-09
-2.13065e-08
-1.19676e-09
-2.0411e-08
-1.20394e-09
-1.95119e-08
-1.20892e-09
-1.86107e-08
-1.21163e-09
-1.77092e-08
-1.21205e-09
-1.68091e-08
-1.21012e-09
-1.59122e-08
-1.20581e-09
-1.50204e-08
-1.19908e-09
-1.41354e-08
-1.18988e-09
-1.3259e-08
-1.1782e-09
-1.23932e-08
-1.16401e-09
-1.15397e-08
-1.14727e-09
-1.07006e-08
-1.12797e-09
-9.87775e-09
-1.1061e-09
-9.073e-09
-1.08165e-09
-8.28829e-09
-1.0546e-09
-7.52554e-09
-1.02497e-09
-6.78665e-09
-9.92761e-10
-6.07352e-09
-9.57983e-10
-5.38803e-09
-9.20661e-10
-4.73201e-09
-8.80828e-10
-4.1073e-09
-8.38524e-10
-3.51566e-09
-7.93805e-10
-2.95881e-09
-7.46739e-10
-2.43841e-09
-6.97412e-10
-1.95603e-09
-6.45929e-10
-1.51313e-09
-5.92419e-10
-1.11108e-09
-5.37038e-10
-7.51072e-10
-4.79978e-10
-4.34135e-10
-4.21473e-10
-1.6107e-10
-3.61812e-10
6.75872e-11
-3.01353e-10
2.51639e-10
-2.40537e-10
3.91302e-10
-1.79918e-10
4.87315e-10
-1.20191e-10
5.41075e-10
-6.22424e-11
5.54813e-10
-7.21056e-12
5.31829e-10
4.34309e-11
4.76789e-10
8.77581e-11
3.96104e-10
1.23251e-10
2.98372e-10
1.46634e-10
1.94827e-10
1.53783e-10
9.95913e-11
1.39756e-10
2.911e-11
9.96441e-11
3.44274e-11
4.53699e-11
-8.31563e-11
1.4032e-10
-1.97601e-10
2.58006e-10
-2.57076e-10
3.76899e-10
-2.68585e-10
4.78729e-10
-2.40747e-10
5.48586e-10
-1.81892e-10
5.74738e-10
-9.94114e-11
5.48239e-10
5.80919e-13
4.62447e-10
1.13145e-10
3.12667e-10
2.34404e-10
9.5726e-11
3.61309e-10
-1.90296e-10
4.91455e-10
-5.46297e-10
6.22976e-10
-9.72411e-10
7.54377e-10
-1.4681e-09
8.84492e-10
-2.03232e-09
1.01238e-09
-2.66359e-09
1.13729e-09
-3.36012e-09
1.25862e-09
-4.1198e-09
1.3759e-09
-4.94035e-09
1.48875e-09
-5.81925e-09
1.59685e-09
-6.75391e-09
1.69998e-09
-7.74156e-09
1.79793e-09
-8.77939e-09
1.89058e-09
-9.8645e-09
1.97781e-09
-1.09939e-08
2.05956e-09
-1.21647e-08
2.13576e-09
-1.33739e-08
2.2064e-09
-1.46185e-08
2.27146e-09
-1.58954e-08
2.33096e-09
-1.72016e-08
2.38492e-09
-1.85342e-08
2.43337e-09
-1.98902e-08
2.47637e-09
-2.12667e-08
2.51395e-09
-2.26608e-08
2.54619e-09
-2.40696e-08
2.57316e-09
-2.54902e-08
2.59493e-09
-2.692e-08
2.61158e-09
-2.8356e-08
2.62319e-09
-2.97957e-08
2.62986e-09
-3.12364e-08
2.63168e-09
-3.26755e-08
2.62873e-09
-3.41104e-08
2.62112e-09
-3.55387e-08
2.60894e-09
-3.69578e-08
2.59231e-09
-3.83655e-08
2.57131e-09
-3.97594e-08
2.54606e-09
-4.11372e-08
2.51667e-09
-4.24967e-08
2.48324e-09
-4.38358e-08
2.44588e-09
-4.51523e-08
2.40469e-09
-4.64443e-08
2.3598e-09
-4.77097e-08
2.3113e-09
-4.89467e-08
2.25932e-09
-5.01534e-08
2.20396e-09
-5.1328e-08
2.14534e-09
-5.24688e-08
2.08357e-09
-5.35741e-08
2.01876e-09
-5.46423e-08
1.95103e-09
-5.56719e-08
1.8805e-09
-5.66613e-08
1.80727e-09
-5.76093e-08
1.73147e-09
-5.85144e-08
1.65321e-09
-5.93754e-08
1.57261e-09
-6.0191e-08
1.48979e-09
-6.09601e-08
1.40486e-09
-6.16816e-08
1.31794e-09
-6.23545e-08
1.22916e-09
-6.29778e-08
1.13863e-09
-6.35506e-08
1.04649e-09
-6.40721e-08
9.52836e-10
-6.45416e-08
8.57808e-10
-6.49583e-08
7.61528e-10
-6.53217e-08
6.64121e-10
-6.56312e-08
5.65713e-10
-6.58863e-08
4.66432e-10
-6.60867e-08
3.66407e-10
-6.62319e-08
2.65769e-10
-6.63217e-08
1.64647e-10
-6.6356e-08
6.31727e-11
-6.63346e-08
-3.85208e-11
-6.62575e-08
-1.40299e-10
-6.61246e-08
-2.42025e-10
-6.59362e-08
-3.43563e-10
-6.56923e-08
-4.44777e-10
-6.53933e-08
-5.45527e-10
-6.50395e-08
-6.45674e-10
-6.46312e-08
-7.45079e-10
-6.4169e-08
-8.43599e-10
-6.36535e-08
-9.41091e-10
-6.30852e-08
-1.03741e-09
-6.24649e-08
-1.13242e-09
-6.17934e-08
-1.22598e-09
-6.10717e-08
-1.31793e-09
-6.03005e-08
-1.40813e-09
-5.9481e-08
-1.49643e-09
-5.86144e-08
-1.5827e-09
-5.77017e-08
-1.66678e-09
-5.67443e-08
-1.74852e-09
-5.57436e-08
-1.82779e-09
-5.4701e-08
-1.90443e-09
-5.36179e-08
-1.97831e-09
-5.24961e-08
-2.04927e-09
-5.13371e-08
-2.11717e-09
-5.01428e-08
-2.18187e-09
-4.89149e-08
-2.24322e-09
-4.76554e-08
-2.3011e-09
-4.63662e-08
-2.35535e-09
-4.50494e-08
-2.40585e-09
-4.37072e-08
-2.45245e-09
-4.23417e-08
-2.49503e-09
-4.09553e-08
-2.53346e-09
-3.95501e-08
-2.5676e-09
-3.81288e-08
-2.59734e-09
-3.66936e-08
-2.62256e-09
-3.52473e-08
-2.64313e-09
-3.37923e-08
-2.65896e-09
-3.23313e-08
-2.66992e-09
-3.0867e-08
-2.67592e-09
-2.94022e-08
-2.67686e-09
-2.79397e-08
-2.67264e-09
-2.64823e-08
-2.66319e-09
-2.50329e-08
-2.64841e-09
-2.35946e-08
-2.62825e-09
-2.21701e-08
-2.60263e-09
-2.07627e-08
-2.5715e-09
-1.93751e-08
-2.53481e-09
-1.80106e-08
-2.49253e-09
-1.6672e-08
-2.44462e-09
-1.53626e-08
-2.39107e-09
-1.40854e-08
-2.33187e-09
-1.28433e-08
-2.26704e-09
-1.16394e-08
-2.19661e-09
-1.04768e-08
-2.1206e-09
-9.35838e-09
-2.03909e-09
-8.28705e-09
-1.95216e-09
-7.26568e-09
-1.8599e-09
-6.29702e-09
-1.76246e-09
-5.38376e-09
-1.66e-09
-4.52843e-09
-1.55274e-09
-3.73345e-09
-1.44091e-09
-3.00105e-09
-1.32483e-09
-2.33323e-09
-1.20486e-09
-1.73176e-09
-1.08144e-09
-1.1981e-09
-9.55133e-10
-7.33331e-10
-8.26585e-10
-3.38077e-10
-6.96607e-10
-1.2427e-11
-5.66187e-10
2.44203e-10
-4.36547e-10
4.33213e-10
-3.09202e-10
5.57012e-10
-1.86041e-10
6.19241e-10
-6.94396e-11
6.25062e-10
3.76108e-11
5.81489e-10
1.31332e-10
4.97773e-10
2.06967e-10
3.85794e-10
2.58613e-10
2.60416e-10
2.7916e-10
1.39638e-10
2.60535e-10
4.4427e-11
1.94856e-10
7.88538e-11
4.97999e-11
-1.32955e-10
1.50564e-10
-2.98371e-10
2.69632e-10
-3.76133e-10
3.81788e-10
-3.8074e-10
4.66162e-10
-3.25112e-10
5.05625e-10
-2.21357e-10
4.86421e-10
-8.02075e-11
3.97759e-10
8.92375e-11
2.3142e-10
2.79482e-10
-1.86172e-11
4.84453e-10
-3.56563e-10
6.99247e-10
-7.85072e-10
9.19973e-10
-1.30558e-09
1.14347e-09
-1.91844e-09
1.36724e-09
-2.62321e-09
1.58926e-09
-3.4187e-09
1.80786e-09
-4.30316e-09
2.02175e-09
-5.27438e-09
2.22984e-09
-6.32975e-09
2.43127e-09
-7.46633e-09
2.62533e-09
-8.68094e-09
2.81146e-09
-9.97018e-09
2.98921e-09
-1.13305e-08
3.15822e-09
-1.27581e-08
3.31822e-09
-1.42493e-08
3.46899e-09
-1.58001e-08
3.61038e-09
-1.74066e-08
3.74228e-09
-1.90649e-08
3.86463e-09
-2.07708e-08
3.97739e-09
-2.25204e-08
4.08056e-09
-2.43096e-08
4.17417e-09
-2.61345e-08
4.25826e-09
-2.79911e-08
4.33291e-09
-2.98753e-08
4.39819e-09
-3.17833e-08
4.45419e-09
-3.37112e-08
4.50105e-09
-3.56551e-08
4.53887e-09
-3.76113e-08
4.56779e-09
-3.95761e-08
4.58795e-09
-4.15457e-08
4.5995e-09
-4.35166e-08
4.60258e-09
-4.54853e-08
4.59737e-09
-4.74482e-08
4.58402e-09
-4.94019e-08
4.56272e-09
-5.13433e-08
4.53362e-09
-5.32689e-08
4.49691e-09
-5.51756e-08
4.45277e-09
-5.70603e-08
4.40139e-09
-5.892e-08
4.34294e-09
-6.07517e-08
4.27762e-09
-6.25526e-08
4.20561e-09
-6.432e-08
4.12711e-09
-6.6051e-08
4.04231e-09
-6.77431e-08
3.95141e-09
-6.93937e-08
3.8546e-09
-7.10005e-08
3.75208e-09
-7.25609e-08
3.64404e-09
-7.40729e-08
3.53069e-09
-7.5534e-08
3.41221e-09
-7.69424e-08
3.28883e-09
-7.82958e-08
3.16073e-09
-7.95925e-08
3.02813e-09
-8.08305e-08
2.89121e-09
-8.20081e-08
2.7502e-09
-8.31236e-08
2.6053e-09
-8.41755e-08
2.45671e-09
-8.51622e-08
2.30464e-09
-8.60823e-08
2.1493e-09
-8.69346e-08
1.99092e-09
-8.77178e-08
1.82969e-09
-8.84308e-08
1.66584e-09
-8.90726e-08
1.49958e-09
-8.96422e-08
1.33113e-09
-9.01387e-08
1.16071e-09
-9.05616e-08
9.88544e-10
-9.091e-08
8.14853e-10
-9.11835e-08
6.39866e-10
-9.13815e-08
4.6381e-10
-9.15038e-08
2.86915e-10
-9.155e-08
1.09411e-10
-9.15201e-08
-6.84699e-11
-9.14139e-08
-2.46492e-10
-9.12315e-08
-4.24417e-10
-9.0973e-08
-6.02007e-10
-9.06388e-08
-7.79019e-10
-9.02291e-08
-9.55212e-10
-8.97444e-08
-1.13034e-09
-8.91854e-08
-1.30416e-09
-8.85525e-08
-1.47642e-09
-8.78467e-08
-1.64688e-09
-8.70689e-08
-1.81528e-09
-8.62199e-08
-1.98138e-09
-8.5301e-08
-2.14492e-09
-8.43133e-08
-2.30564e-09
-8.32581e-08
-2.46329e-09
-8.21369e-08
-2.61763e-09
-8.09512e-08
-2.76838e-09
-7.97027e-08
-2.9153e-09
-7.83931e-08
-3.05814e-09
-7.70242e-08
-3.19663e-09
-7.55981e-08
-3.33053e-09
-7.41169e-08
-3.45957e-09
-7.25826e-08
-3.58352e-09
-7.09977e-08
-3.70211e-09
-6.93644e-08
-3.8151e-09
-6.76854e-08
-3.92225e-09
-6.59632e-08
-4.0233e-09
-6.42005e-08
-4.11803e-09
-6.24002e-08
-4.20618e-09
-6.05651e-08
-4.28754e-09
-5.86983e-08
-4.36187e-09
-5.68028e-08
-4.42894e-09
-5.48818e-08
-4.48855e-09
-5.29387e-08
-4.54047e-09
-5.09768e-08
-4.58449e-09
-4.89995e-08
-4.62043e-09
-4.70104e-08
-4.64808e-09
-4.5013e-08
-4.66727e-09
-4.30111e-08
-4.67781e-09
-4.10084e-08
-4.67954e-09
-3.90088e-08
-4.67231e-09
-3.7016e-08
-4.65597e-09
-3.5034e-08
-4.63039e-09
-3.30668e-08
-4.59544e-09
-3.11184e-08
-4.55103e-09
-2.91929e-08
-4.49705e-09
-2.72942e-08
-4.43344e-09
-2.54266e-08
-4.36014e-09
-2.35941e-08
-4.27711e-09
-2.18009e-08
-4.18433e-09
-2.00509e-08
-4.0818e-09
-1.83484e-08
-3.96956e-09
-1.66973e-08
-3.84766e-09
-1.51018e-08
-3.71619e-09
-1.35656e-08
-3.57527e-09
-1.20927e-08
-3.42506e-09
-1.06868e-08
-3.26576e-09
-9.35164e-09
-3.09764e-09
-8.09065e-09
-2.921e-09
-6.90716e-09
-2.73622e-09
-5.80428e-09
-2.54379e-09
-4.78487e-09
-2.34424e-09
-3.85148e-09
-2.13825e-09
-3.00629e-09
-1.92663e-09
-2.25107e-09
-1.71035e-09
-1.58707e-09
-1.49059e-09
-1.01492e-09
-1.26875e-09
-5.34539e-10
-1.04657e-09
-1.44944e-10
-8.26142e-10
1.55881e-10
-6.10026e-10
3.71215e-10
-4.01374e-10
5.05841e-10
-2.04064e-10
5.66331e-10
-2.28787e-11
5.61369e-10
1.36294e-10
5.0209e-10
2.66245e-10
4.02438e-10
3.58264e-10
2.79507e-10
4.02091e-10
1.5388e-10
3.86163e-10
5.01912e-11
2.98545e-10
1.29045e-10
4.72427e-11
-1.80203e-10
1.39688e-10
-3.90814e-10
2.4202e-10
-4.78471e-10
3.26802e-10
-4.65522e-10
3.716e-10
-3.69907e-10
3.57983e-10
-2.0774e-10
2.71002e-10
6.7778e-12
9.87284e-11
2.61509e-10
-1.68095e-10
5.46307e-10
-5.36438e-10
8.52784e-10
-1.01125e-09
1.17406e-09
-1.59581e-09
1.50453e-09
-2.29194e-09
1.83961e-09
-3.10029e-09
2.17559e-09
-4.02046e-09
2.50942e-09
-5.05121e-09
2.83862e-09
-6.19061e-09
3.16115e-09
-7.43612e-09
3.47535e-09
-8.7847e-09
3.77985e-09
-1.02329e-08
4.07355e-09
-1.1777e-08
4.35554e-09
-1.34129e-08
4.62509e-09
-1.51363e-08
4.88161e-09
-1.69427e-08
5.12464e-09
-1.88275e-08
5.35383e-09
-2.07861e-08
5.56891e-09
-2.28135e-08
5.76967e-09
-2.49048e-08
5.956e-09
-2.70553e-08
6.12781e-09
-2.92598e-08
6.28509e-09
-3.15135e-08
6.42784e-09
-3.38113e-08
6.55613e-09
-3.61485e-08
6.67003e-09
-3.85199e-08
6.76965e-09
-4.09209e-08
6.85514e-09
-4.33465e-08
6.92665e-09
-4.5792e-08
6.98436e-09
-4.82526e-08
7.02845e-09
-5.07238e-08
7.05913e-09
-5.32009e-08
7.07663e-09
-5.56795e-08
7.08117e-09
-5.81551e-08
7.07298e-09
-6.06234e-08
7.05232e-09
-6.30802e-08
7.01945e-09
-6.55212e-08
6.97461e-09
-6.79423e-08
6.91809e-09
-7.03397e-08
6.85015e-09
-7.27094e-08
6.77107e-09
-7.50476e-08
6.68114e-09
-7.73506e-08
6.58065e-09
-7.96149e-08
6.46987e-09
-8.18369e-08
6.3491e-09
-8.40132e-08
6.21864e-09
-8.61406e-08
6.07879e-09
-8.82158e-08
5.92985e-09
-9.02359e-08
5.77211e-09
-9.21977e-08
5.60588e-09
-9.40985e-08
5.43146e-09
-9.59354e-08
5.24917e-09
-9.77059e-08
5.05932e-09
-9.94074e-08
4.8622e-09
-1.01037e-07
4.65814e-09
-1.02594e-07
4.44746e-09
-1.04074e-07
4.23046e-09
-1.05476e-07
4.00747e-09
-1.06798e-07
3.7788e-09
-1.08038e-07
3.54478e-09
-1.09195e-07
3.30573e-09
-1.10266e-07
3.06199e-09
-1.1125e-07
2.81388e-09
-1.12146e-07
2.56173e-09
-1.12952e-07
2.30587e-09
-1.13668e-07
2.04666e-09
-1.14291e-07
1.78441e-09
-1.14822e-07
1.51948e-09
-1.1526e-07
1.25222e-09
-1.15603e-07
9.82963e-10
-1.15851e-07
7.1207e-10
-1.16004e-07
4.39893e-10
-1.16061e-07
1.66788e-10
-1.16023e-07
-1.06885e-10
-1.15889e-07
-3.80765e-10
-1.15659e-07
-6.54486e-10
-1.15333e-07
-9.2768e-10
-1.14912e-07
-1.19997e-09
-1.14396e-07
-1.471e-09
-1.13786e-07
-1.74037e-09
-1.13083e-07
-2.00771e-09
-1.12286e-07
-2.27265e-09
-1.11399e-07
-2.5348e-09
-1.1042e-07
-2.79377e-09
-1.09352e-07
-3.04918e-09
-1.08197e-07
-3.30064e-09
-1.06954e-07
-3.54776e-09
-1.05628e-07
-3.79014e-09
-1.04218e-07
-4.02741e-09
-1.02727e-07
-4.25916e-09
-1.01157e-07
-4.485e-09
-9.95109e-08
-4.70455e-09
-9.77901e-08
-4.91741e-09
-9.59975e-08
-5.12319e-09
-9.41355e-08
-5.3215e-09
-9.22071e-08
-5.51197e-09
-9.0215e-08
-5.6942e-09
-8.81623e-08
-5.86781e-09
-8.60521e-08
-6.03243e-09
-8.38877e-08
-6.18769e-09
-8.16725e-08
-6.33322e-09
-7.94101e-08
-6.46865e-09
-7.7104e-08
-6.59364e-09
-7.4758e-08
-6.70783e-09
-7.23761e-08
-6.81088e-09
-6.99621e-08
-6.90247e-09
-6.75203e-08
-6.98227e-09
-6.50549e-08
-7.04996e-09
-6.25701e-08
-7.10524e-09
-6.00703e-08
-7.14783e-09
-5.75601e-08
-7.17744e-09
-5.50441e-08
-7.19382e-09
-5.2527e-08
-7.19671e-09
-5.00134e-08
-7.18588e-09
-4.75083e-08
-7.16112e-09
-4.50164e-08
-7.12223e-09
-4.25428e-08
-7.06904e-09
-4.00924e-08
-7.00139e-09
-3.76703e-08
-6.91916e-09
-3.52815e-08
-6.82223e-09
-3.29311e-08
-6.71054e-09
-3.06242e-08
-6.58404e-09
-2.83658e-08
-6.4427e-09
-2.61611e-08
-6.28657e-09
-2.40149e-08
-6.11569e-09
-2.19324e-08
-5.93017e-09
-1.99185e-08
-5.73016e-09
-1.79779e-08
-5.51588e-09
-1.61153e-08
-5.2876e-09
-1.43354e-08
-5.04564e-09
-1.26426e-08
-4.79044e-09
-1.10411e-08
-4.52251e-09
-9.53489e-09
-4.24246e-09
-8.12764e-09
-3.95103e-09
-6.82276e-09
-3.64912e-09
-5.62322e-09
-3.33778e-09
-4.53157e-09
-3.01828e-09
-3.54979e-09
-2.69213e-09
-2.67923e-09
-2.36114e-09
-1.9205e-09
-2.02748e-09
-1.27332e-09
-1.69375e-09
-7.36383e-10
-1.36308e-09
-3.07156e-10
-1.03925e-09
1.83223e-11
-7.26851e-10
2.45682e-10
-4.31422e-10
3.82486e-10
-1.59682e-10
4.38529e-10
8.02518e-11
4.26142e-10
2.78633e-10
3.6053e-10
4.23877e-10
2.60168e-10
5.02454e-10
1.47321e-10
4.9901e-10
4.90137e-11
3.96853e-10
1.7806e-10
3.99273e-11
-2.20136e-10
1.1311e-10
-4.63999e-10
1.84115e-10
-5.49477e-10
2.24737e-10
-5.06148e-10
2.11878e-10
-3.57057e-10
1.26548e-10
-1.22405e-10
-4.68063e-11
1.80129e-10
-3.20706e-10
5.35408e-10
-7.05021e-10
9.30622e-10
-1.20726e-09
1.35503e-09
-1.83292e-09
1.79972e-09
-2.58566e-09
2.25727e-09
-3.46763e-09
2.72158e-09
-4.47963e-09
3.1876e-09
-5.62137e-09
3.65115e-09
-6.89154e-09
4.10879e-09
-8.28806e-09
4.55767e-09
-9.80812e-09
4.99542e-09
-1.14484e-08
5.42009e-09
-1.32049e-08
5.83009e-09
-1.50735e-08
6.2241e-09
-1.70494e-08
6.60104e-09
-1.91278e-08
6.96004e-09
-2.13036e-08
7.30041e-09
-2.35714e-08
7.6216e-09
-2.59256e-08
7.92319e-09
-2.83608e-08
8.20486e-09
-3.08712e-08
8.4664e-09
-3.34511e-08
8.70768e-09
-3.60946e-08
8.92863e-09
-3.8796e-08
9.12923e-09
-4.15495e-08
9.30955e-09
-4.43491e-08
9.46968e-09
-4.71892e-08
9.60974e-09
-5.0064e-08
9.72993e-09
-5.29678e-08
9.83044e-09
-5.58949e-08
9.91149e-09
-5.88398e-08
9.97335e-09
-6.1797e-08
1.00163e-08
-6.4761e-08
1.00406e-08
-6.77265e-08
1.00467e-08
-7.06882e-08
1.00347e-08
-7.3641e-08
1.00051e-08
-7.65798e-08
9.95825e-09
-7.94996e-08
9.89445e-09
-8.23956e-08
9.81412e-09
-8.52631e-08
9.71762e-09
-8.80974e-08
9.60534e-09
-9.08939e-08
9.47769e-09
-9.36483e-08
9.33506e-09
-9.63563e-08
9.17785e-09
-9.90137e-08
9.00649e-09
-1.01616e-07
8.82138e-09
-1.04161e-07
8.62294e-09
-1.06642e-07
8.41161e-09
-1.09058e-07
8.18779e-09
-1.11404e-07
7.95193e-09
-1.13677e-07
7.70446e-09
-1.15874e-07
7.44581e-09
-1.17991e-07
7.17641e-09
-1.20025e-07
6.89672e-09
-1.21974e-07
6.60718e-09
-1.23835e-07
6.30822e-09
-1.25605e-07
6.00031e-09
-1.27281e-07
5.68389e-09
-1.28862e-07
5.35942e-09
-1.30345e-07
5.02735e-09
-1.31727e-07
4.68816e-09
-1.33007e-07
4.3423e-09
-1.34184e-07
3.99024e-09
-1.35254e-07
3.63246e-09
-1.36218e-07
3.26943e-09
-1.37073e-07
2.90163e-09
-1.37818e-07
2.52954e-09
-1.38452e-07
2.15366e-09
-1.38975e-07
1.77447e-09
-1.39384e-07
1.39246e-09
-1.3968e-07
1.00814e-09
-1.39862e-07
6.22011e-10
-1.3993e-07
2.34576e-10
-1.39883e-07
-1.53654e-10
-1.39722e-07
-5.42162e-10
-1.39446e-07
-9.3043e-10
-1.39056e-07
-1.31793e-09
-1.38551e-07
-1.70415e-09
-1.37934e-07
-2.08854e-09
-1.37204e-07
-2.47058e-09
-1.36362e-07
-2.84973e-09
-1.35409e-07
-3.22544e-09
-1.34347e-07
-3.59718e-09
-1.33176e-07
-3.9644e-09
-1.31899e-07
-4.32655e-09
-1.30516e-07
-4.68308e-09
-1.2903e-07
-5.03344e-09
-1.27443e-07
-5.37708e-09
-1.25757e-07
-5.71343e-09
-1.23975e-07
-6.04195e-09
-1.22098e-07
-6.36208e-09
-1.20129e-07
-6.67327e-09
-1.18071e-07
-6.97497e-09
-1.15928e-07
-7.26662e-09
-1.13702e-07
-7.54768e-09
-1.11396e-07
-7.8176e-09
-1.09014e-07
-8.07584e-09
-1.0656e-07
-8.32186e-09
-1.04038e-07
-8.55514e-09
-1.0145e-07
-8.77515e-09
-9.8802e-08
-8.98136e-09
-9.60974e-08
-9.17329e-09
-9.33406e-08
-9.35041e-09
-9.05362e-08
-9.51225e-09
-8.76888e-08
-9.65833e-09
-8.48031e-08
-9.78818e-09
-8.1884e-08
-9.90136e-09
-7.89365e-08
-9.99741e-09
-7.59658e-08
-1.00759e-08
-7.29771e-08
-1.01365e-08
-6.99758e-08
-1.01788e-08
-6.69673e-08
-1.02023e-08
-6.39572e-08
-1.02068e-08
-6.09511e-08
-1.0192e-08
-5.79547e-08
-1.01575e-08
-5.49738e-08
-1.01031e-08
-5.20142e-08
-1.00286e-08
-4.90819e-08
-9.93371e-09
-4.61827e-08
-9.81829e-09
-4.33228e-08
-9.68222e-09
-4.05079e-08
-9.5254e-09
-3.77441e-08
-9.34779e-09
-3.50375e-08
-9.14937e-09
-3.23938e-08
-8.93021e-09
-2.98191e-08
-8.69042e-09
-2.73191e-08
-8.43015e-09
-2.48996e-08
-8.14967e-09
-2.25662e-08
-7.84929e-09
-2.03244e-08
-7.52942e-09
-1.81794e-08
-7.19057e-09
-1.61365e-08
-6.83338e-09
-1.42004e-08
-6.45859e-09
-1.23757e-08
-6.06713e-09
-1.06667e-08
-5.66006e-09
-9.07715e-09
-5.23868e-09
-7.61041e-09
-4.80453e-09
-6.26929e-09
-4.3594e-09
-5.05598e-09
-3.90544e-09
-3.9719e-09
-3.44522e-09
-3.01765e-09
-2.98174e-09
-2.19278e-09
-2.51861e-09
-1.49574e-09
-2.06012e-09
-9.23619e-10
-1.61137e-09
-4.71972e-10
-1.1785e-09
-1.34604e-10
-7.68788e-10
9.668e-11
-3.90966e-10
2.32343e-10
-5.54107e-11
2.85396e-10
2.25581e-10
2.7173e-10
4.37545e-10
2.10542e-10
5.63644e-10
1.24937e-10
5.84615e-10
4.29585e-11
4.78833e-10
2.21019e-10
2.93729e-11
-2.49497e-10
7.51217e-11
-5.09757e-10
1.03369e-10
-5.77719e-10
8.63704e-11
-4.89145e-10
1.19118e-12
-2.71878e-10
-1.71148e-10
4.99375e-11
-4.46278e-10
4.55259e-10
-8.36889e-10
9.26018e-10
-1.35308e-09
1.44682e-09
-2.00265e-09
2.0046e-09
-2.79131e-09
2.58837e-09
-3.72297e-09
3.18893e-09
-4.79994e-09
3.79855e-09
-6.02314e-09
4.41079e-09
-7.39226e-09
5.02027e-09
-8.90596e-09
5.6225e-09
-1.0562e-08
6.2137e-09
-1.23573e-08
6.79077e-09
-1.42883e-08
7.35108e-09
-1.63507e-08
7.89246e-09
-1.85397e-08
8.41314e-09
-2.08503e-08
8.91162e-09
-2.3277e-08
9.3867e-09
-2.5814e-08
9.83741e-09
-2.84553e-08
1.0263e-08
-3.11949e-08
1.06627e-08
-3.40264e-08
1.10363e-08
-3.69433e-08
1.13833e-08
-3.99392e-08
1.17036e-08
-4.30075e-08
1.19969e-08
-4.61416e-08
1.22633e-08
-4.93349e-08
1.25028e-08
-5.25808e-08
1.27155e-08
-5.58726e-08
1.29016e-08
-5.92039e-08
1.30612e-08
-6.2568e-08
1.31946e-08
-6.59586e-08
1.33021e-08
-6.93693e-08
1.3384e-08
-7.27937e-08
1.34407e-08
-7.62256e-08
1.34725e-08
-7.96588e-08
1.34799e-08
-8.30874e-08
1.34633e-08
-8.65055e-08
1.34231e-08
-8.9907e-08
1.33598e-08
-9.32865e-08
1.32739e-08
-9.66382e-08
1.31658e-08
-9.99566e-08
1.30361e-08
-1.03237e-07
1.28853e-08
-1.06473e-07
1.27138e-08
-1.0966e-07
1.25223e-08
-1.12793e-07
1.23113e-08
-1.15868e-07
1.20813e-08
-1.1888e-07
1.18329e-08
-1.21823e-07
1.15666e-08
-1.24695e-07
1.1283e-08
-1.2749e-07
1.09827e-08
-1.30204e-07
1.06662e-08
-1.32834e-07
1.03341e-08
-1.35375e-07
9.98707e-09
-1.37824e-07
9.6256e-09
-1.40178e-07
9.25031e-09
-1.42432e-07
8.86181e-09
-1.44585e-07
8.46068e-09
-1.46632e-07
8.04753e-09
-1.48571e-07
7.62297e-09
-1.50399e-07
7.1876e-09
-1.52114e-07
6.74206e-09
-1.53713e-07
6.28695e-09
-1.55193e-07
5.8229e-09
-1.56554e-07
5.35055e-09
-1.57792e-07
4.87052e-09
-1.58906e-07
4.38346e-09
-1.59894e-07
3.89001e-09
-1.60755e-07
3.39081e-09
-1.61488e-07
2.88653e-09
-1.62092e-07
2.37783e-09
-1.62565e-07
1.86536e-09
-1.62906e-07
1.3498e-09
-1.63116e-07
8.31833e-10
-1.63194e-07
3.12126e-10
-1.63139e-07
-2.08629e-10
-1.62951e-07
-7.29742e-10
-1.62631e-07
-1.25051e-09
-1.62179e-07
-1.77024e-09
-1.61595e-07
-2.28822e-09
-1.60879e-07
-2.80374e-09
-1.60034e-07
-3.31608e-09
-1.59059e-07
-3.82453e-09
-1.57956e-07
-4.32835e-09
-1.56727e-07
-4.82682e-09
-1.55372e-07
-5.3192e-09
-1.53894e-07
-5.80477e-09
-1.52294e-07
-6.28279e-09
-1.50575e-07
-6.75251e-09
-1.48739e-07
-7.2132e-09
-1.46788e-07
-7.6641e-09
-1.44725e-07
-8.10449e-09
-1.42554e-07
-8.53362e-09
-1.40276e-07
-8.95074e-09
-1.37896e-07
-9.35513e-09
-1.35417e-07
-9.74604e-09
-1.32842e-07
-1.01227e-08
-1.30175e-07
-1.04845e-08
-1.2742e-07
-1.08306e-08
-1.24582e-07
-1.11603e-08
-1.21664e-07
-1.1473e-08
-1.18671e-07
-1.17679e-08
-1.15608e-07
-1.20443e-08
-1.1248e-07
-1.23015e-08
-1.09291e-07
-1.2539e-08
-1.06048e-07
-1.2756e-08
-1.02754e-07
-1.29519e-08
-9.94162e-08
-1.31261e-08
-9.60396e-08
-1.3278e-08
-9.263e-08
-1.3407e-08
-8.91934e-08
-1.35125e-08
-8.57358e-08
-1.35941e-08
-8.22633e-08
-1.36513e-08
-7.87821e-08
-1.36834e-08
-7.52988e-08
-1.36902e-08
-7.18196e-08
-1.36711e-08
-6.83513e-08
-1.36259e-08
-6.49003e-08
-1.35541e-08
-6.14734e-08
-1.34555e-08
-5.80773e-08
-1.33298e-08
-5.47189e-08
-1.31767e-08
-5.14048e-08
-1.29963e-08
-4.8142e-08
-1.27882e-08
-4.49373e-08
-1.25525e-08
-4.17974e-08
-1.22893e-08
-3.87291e-08
-1.19985e-08
-3.57391e-08
-1.16804e-08
-3.28339e-08
-1.13353e-08
-3.00202e-08
-1.09634e-08
-2.73041e-08
-1.05653e-08
-2.4692e-08
-1.01416e-08
-2.21897e-08
-9.69288e-09
-1.98029e-08
-9.22012e-09
-1.75372e-08
-8.72435e-09
-1.53975e-08
-8.20681e-09
-1.33885e-08
-7.669e-09
-1.15146e-08
-7.11267e-09
-9.77922e-09
-6.53987e-09
-8.18557e-09
-5.95304e-09
-6.73597e-09
-5.35505e-09
-5.43192e-09
-4.74926e-09
-4.27401e-09
-4.13965e-09
-3.26174e-09
-3.53088e-09
-2.39338e-09
-2.92848e-09
-1.66579e-09
-2.33896e-09
-1.07425e-09
-1.77004e-09
-6.12242e-10
-1.23079e-09
-2.71245e-10
-7.31962e-10
-4.0487e-11
-2.86169e-10
9.33153e-11
9.17791e-11
1.4627e-10
3.84592e-10
1.37726e-10
5.72189e-10
9.08522e-11
6.31489e-10
3.35167e-11
5.3617e-10
2.54535e-10
1.6632e-11
-2.66126e-10
2.89976e-11
-5.22125e-10
5.75388e-12
-5.54467e-10
-7.94619e-11
-4.03934e-10
-2.48735e-10
-1.02605e-10
-5.20511e-10
3.21711e-10
-9.10077e-10
8.44825e-10
-1.42995e-09
1.44589e-09
-2.09014e-09
2.10701e-09
-2.89844e-09
2.81289e-09
-3.86059e-09
3.55052e-09
-4.98055e-09
4.30889e-09
-6.26065e-09
5.07866e-09
-7.70182e-09
5.85196e-09
-9.30371e-09
6.62216e-09
-1.10649e-08
7.38365e-09
-1.29829e-08
8.13172e-09
-1.50545e-08
8.8624e-09
-1.72758e-08
9.57237e-09
-1.96422e-08
1.02588e-08
-2.21485e-08
1.09195e-08
-2.47892e-08
1.15523e-08
-2.75583e-08
1.21558e-08
-3.04496e-08
1.27287e-08
-3.34565e-08
1.32698e-08
-3.65722e-08
1.37785e-08
-3.97898e-08
1.42539e-08
-4.31022e-08
1.46957e-08
-4.65022e-08
1.51036e-08
-4.99825e-08
1.54773e-08
-5.35359e-08
1.58167e-08
-5.71549e-08
1.61219e-08
-6.08323e-08
1.63929e-08
-6.45606e-08
1.66299e-08
-6.83325e-08
1.68331e-08
-7.21408e-08
1.70029e-08
-7.59783e-08
1.71396e-08
-7.98378e-08
1.72435e-08
-8.37123e-08
1.73151e-08
-8.75947e-08
1.73549e-08
-9.14782e-08
1.73634e-08
-9.5356e-08
1.73411e-08
-9.92214e-08
1.72886e-08
-1.03068e-07
1.72064e-08
-1.06889e-07
1.70951e-08
-1.10679e-07
1.69554e-08
-1.14431e-07
1.67879e-08
-1.18139e-07
1.65933e-08