/*--------------------------------*- C++ -*----------------------------------*\
  =========                 |
  \\      /  F ield         | OpenFOAM: The Open Source CFD Toolbox
   \\    /   O peration     | Website:  https://openfoam.org
    \\  /    A nd           | Version:  7
     \\/     M anipulation  |
\*---------------------------------------------------------------------------*/
FoamFile
{
    version     2.0;
    format      ascii;
    class       volScalarField;
    location    "0.2";
    object      p;
}
// * * * * * * * * * * * * * * * * * * * * * * * * * * * * * * * * * * * * * //

dimensions      [0 2 -2 0 0 0 0];

internalField   nonuniform List<scalar> 
1600
(
2.13885e-07
-0.00119058
-0.00391985
-0.00759127
-0.0115332
-0.0152505
-0.0183853
-0.0206858
-0.0219842
-0.0221809
-0.0212304
-0.0191307
-0.0159153
-0.011647
-0.00641321
-0.000321499
0.00650323
0.0139216
0.0217823
0.0299244
0.03818
0.0463763
0.054339
0.0618953
0.0688776
0.0751274
0.0805002
0.0848701
0.0881356
0.0902252
0.091104
0.0907807
0.0893155
0.0868294
0.0835157
0.0796533
0.0756222
0.0719308
0.0692467
0.068131
0.00118872
-2.07064e-06
-0.0022173
-0.00506656
-0.00810682
-0.010973
-0.0133808
-0.0151172
-0.0160322
-0.0160299
-0.0150602
-0.0131117
-0.0102052
-0.00638888
-0.00173377
0.00366943
0.00971366
0.016278
0.02323
0.0304284
0.0377253
0.0449688
0.0520056
0.0586847
0.0648601
0.0703951
0.0751664
0.0790685
0.0820184
0.0839611
0.0848746
0.084776
0.0837269
0.0818404
0.0792869
0.0763004
0.0731826
0.0703093
0.0681275
0.0670173
0.00393101
0.00220442
-4.10322e-05
-0.00259845
-0.00522504
-0.00765107
-0.00965302
-0.0110593
-0.0117445
-0.0116248
-0.0106543
-0.00881985
-0.00613671
-0.00264468
0.0015954
0.00650458
0.0119885
0.0179396
0.0242397
0.0307622
0.037374
0.0439385
0.0503179
0.0563765
0.0619836
0.0670173
0.0713683
0.0749437
0.0776718
0.079506
0.0804299
0.080461
0.0796558
0.0781131
0.0759769
0.073438
0.0707363
0.0681534
0.0659476
0.0643307
0.00769207
0.00508244
0.00244302
-0.000183914
-0.00273683
-0.00501593
-0.00684703
-0.00809854
-0.00867208
-0.0085009
-0.00754838
-0.00580519
-0.00328613
-2.73765e-05
0.0039161
0.00847295
0.0135577
0.0190726
0.0249099
0.0309537
0.0370823
0.04317
0.0490901
0.0547177
0.0599324
0.0646219
0.0686853
0.072037
0.0746105
0.0763623
0.0772754
0.0773631
0.0766719
0.0752833
0.0733144
0.0709169
0.068283
0.0656277
0.0630382
0.0605708
0.0118774
0.00824014
0.0050336
0.00215522
-0.000500195
-0.00278878
-0.00457806
-0.0057735
-0.00630389
-0.00612097
-0.0051998
-0.00353743
-0.00115097
0.00192436
0.00563705
0.00992103
0.0146975
0.0198763
0.0253582
0.0310359
0.0367965
0.0425232
0.048098
0.0534038
0.0583277
0.062764
0.0666171
0.0698051
0.0722636
0.0739486
0.0748398
0.0749432
0.0742934
0.0729537
0.071015
0.0685942
0.0658445
0.0629293
0.0597779
0.05631
0.0160613
0.0113535
0.00748725
0.00423973
0.00135967
-0.00105197
-0.00289633
-0.00411141
-0.00465144
-0.00448643
-0.00360405
-0.0020093
0.000276607
0.0032174
0.00676297
0.0108505
0.015406
0.020345
0.0255745
0.030994
0.0364972
0.041974
0.0473125
0.0524014
0.0571326
0.0614038
0.0651221
0.0682067
0.070592
0.0722312
0.073098
0.0731895
0.0725272
0.071157
0.069146
0.066581
0.0635858
0.0602855
0.0564725
0.0519537
0.0199349
0.0141616
0.00958906
0.00589648
0.00270708
9.04523e-05
-0.00188047
-0.00317136
-0.00375924
-0.00363129
-0.00278786
-0.00124266
0.000977728
0.00383453
0.00727738
0.0112451
0.0156664
0.0204609
0.02554
0.0308079
0.0361632
0.0415001
0.0467109
0.0516873
0.0563237
0.0605191
0.0641804
0.067225
0.0695844
0.0712059
0.0720561
0.0721214
0.0714103
0.069952
0.067793
0.0649956
0.0616622
0.0578924
0.0533621
0.0477881
0.0232655
0.0164508
0.0111541
0.00697289
0.00342157
0.00054722
-0.00159676
-0.00299937
-0.00365743
-0.00357386
-0.00276126
-0.00124234
0.000950293
0.00377433
0.00717791
0.0111
0.0154708
0.0202123
0.0252385
0.0304568
0.0357688
0.0410714
0.0462588
0.051224
0.0558616
0.0600695
0.0637523
0.0668237
0.0692095
0.07085
0.0717024
0.0717422
0.0709646
0.0693835
0.0670275
0.0639395
0.0602073
0.0559148
0.0506385
0.0440214
0.0258712
0.0180421
0.0120182
0.00732578
0.00338277
0.000220265
-0.00212312
-0.0036559
-0.00439211
-0.00434898
-0.00355067
-0.00202873
0.00017774
0.00302218
0.00645036
0.0104003
0.0148025
0.0195798
0.0246478
0.0299155
0.0352859
0.040657
0.0459233
0.0509774
0.0557119
0.060022
0.0638079
0.0669775
0.0694493
0.0711546
0.0720402
0.0720698
0.0712254
0.0695067
0.0669267
0.0635129
0.0593442
0.0544961
0.0484575
0.0408089
0.0276017
0.0187799
0.0120314
0.00681816
0.00246925
-0.000995583
-0.00354898
-0.00521589
-0.00602566
-0.00600852
-0.00519949
-0.00363885
-0.00137228
0.00154889
0.00506731
0.00911929
0.0136345
0.0185358
0.0237392
0.0291541
0.0346836
0.0402255
0.0456731
0.0509169
0.0558463
0.0603517
0.0643273
0.0676734
0.0702992
0.0721258
0.073088
0.0731371
0.0722416
0.0703876
0.0675747
0.0638175
0.0591901
0.053765
0.0469515
0.0382733
0.0283242
0.0185228
0.0110534
0.00531697
0.000558617
-0.00321054
-0.00597183
-0.00776464
-0.00863221
-0.00861681
-0.00776378
-0.00612197
-0.00374382
-0.000685742
0.00299127
0.0072211
0.011932
0.0170459
0.0224784
0.0281383
0.033928
0.0397437
0.0454766
0.0510136
0.0562395
0.0610385
0.0652971
0.068906
0.071764
0.0737798
0.0748753
0.0749878
0.0740722
0.072101
0.0690612
0.0649567
0.0598595
0.0538429
0.0462398
0.0365207
0.0279131
0.0171357
0.00894739
0.00268966
-0.00247429
-0.0065403
-0.00949687
-0.0113968
-0.0122962
-0.012249
-0.0113105
-0.0095381
-0.00699118
-0.00373155
0.000175798
0.00466186
0.00965282
0.0150693
0.0208257
0.0268295
0.0329817
0.0391762
0.045301
0.0512386
0.0568677
0.0620652
0.0667079
0.070676
0.0738554
0.0761412
0.0774405
0.0776754
0.0767857
0.0747303
0.0714834
0.0670391
0.0614694
0.0548501
0.0464385
0.0356521
0.0262431
0.0144835
0.00557542
-0.00119928
-0.00675941
-0.011107
-0.0142373
-0.0162159
-0.0171117
-0.01699
-0.0159163
-0.0139566
-0.0111776
-0.00764663
-0.00343318
0.00139058
0.0067485
0.0125594
0.0187361
0.0251847
0.0318039
0.0384851
0.0451122
0.0515625
0.0577079
0.0634162
0.068554
0.0729885
0.0765915
0.0792421
0.0808308
0.0812626
0.0804608
0.0783689
0.0749479
0.070182
0.0641435
0.0569124
0.0476678
0.0357727
0.0231834
0.0104264
0.000794403
-0.00649151
-0.0124339
-0.0170411
-0.020315
-0.0223345
-0.0231817
-0.0229336
-0.0216662
-0.0194548
-0.0163736
-0.012496
-0.00789607
-0.00264939
0.00316532
0.00946499
0.0161608
0.0231572
0.0303508
0.0376297
0.0448739
0.0519548
0.0587365
0.0650773
0.0708316
0.0758524
0.0799951
0.0831211
0.0851015
0.0858219
0.0851866
0.0831218
0.0795734
0.0745145
0.0680179
0.0601673
0.0500593
0.0369993
0.0185934
0.00481533
-0.00554797
-0.0133381
-0.0196445
-0.0244824
-0.0278614
-0.0298745
-0.0306179
-0.0301814
-0.0286526
-0.0261166
-0.0226557
-0.0183497
-0.0132776
-0.00751863
-0.00115388
0.00573175
0.013048
0.0206978
0.0285759
0.0365675
0.0445483
0.0523837
0.0599297
0.0670342
0.0735381
0.0792788
0.0840934
0.0878226
0.0903156
0.0914353
0.0910641
0.0891075
0.0854936
0.0801821
0.0732448
0.0647691
0.0537617
0.0394668
0.0123196
-0.00251158
-0.0136168
-0.0219026
-0.02855
-0.0335824
-0.0370183
-0.0389668
-0.0395399
-0.038842
-0.0369734
-0.0340302
-0.0301036
-0.0252804
-0.0196447
-0.0132793
-0.00626753
0.00130419
0.00934477
0.0177562
0.0264317
0.0352544
0.0440959
0.0528161
0.0612626
0.0692721
0.0766716
0.0832811
0.0889169
0.0933966
0.096544
0.0981956
0.0982073
0.0964602
0.0928603
0.0873503
0.0799988
0.0708951
0.0589479
0.0433342
0.00419215
-0.0117329
-0.0235936
-0.0323648
-0.0393242
-0.0445057
-0.047939
-0.0497519
-0.050075
-0.0490293
-0.0467301
-0.0432859
-0.0387979
-0.0333604
-0.0270631
-0.019992
-0.0122324
-0.0038715
0.0049996
0.0142829
0.0238713
0.0336465
0.0434774
0.0532185
0.0627097
0.0717764
0.0802307
0.0878738
0.0944994
0.0998985
0.103866
0.106207
0.106745
0.105333
0.101847
0.0962094
0.0884815
0.0787522
0.0658207
0.0487915
-0.00597878
-0.0230481
-0.0356811
-0.0449238
-0.0521586
-0.0574324
-0.0607893
-0.0623798
-0.0623567
-0.0608611
-0.0580255
-0.0539731
-0.0488164
-0.0426582
-0.0355936
-0.0277119
-0.0190998
-0.00984381
-3.4149e-05
0.0102327
0.020851
0.0317025
0.0426546
0.053558
0.0642456
0.074532
0.084214
0.0930729
0.100877
0.107389
0.112369
0.115585
0.116823
0.115898
0.112653
0.10698
0.0989283
0.0885828
0.0746203
0.0560653
-0.0184068
-0.0366824
-0.0501074
-0.0598034
-0.0672664
-0.0725604
-0.0757488
-0.0770099
-0.0765239
-0.0744561
-0.0709601
-0.0661761
-0.0602297
-0.0532333
-0.0452874
-0.0364842
-0.0269105
-0.0166514
-0.00579404
0.00556856
0.0173338
0.0293861
0.0415933
0.0538043
0.0658464
0.0775245
0.0886206
0.098895
0.10809
0.115933
0.122148
0.126458
0.128605
0.128355
0.125509
0.119918
0.111615
0.100674
0.085632
0.0654273
-0.0333345
-0.0528929
-0.0671331
-0.0772571
-0.0848866
-0.0901085
-0.0930119
-0.0938105
-0.0927184
-0.089931
-0.0856277
-0.0799689
-0.0730956
-0.0651302
-0.0561794
-0.0463372
-0.0356893
-0.0243173
-0.0123032
0.000266096
0.0132941
0.0266703
0.0402664
0.0539318
0.0674911
0.0807413
0.0934503
0.105358
0.116178
0.125602
0.133308
0.13897
0.142274
0.142929
0.140678
0.135323
0.126866
0.115364
0.0991967
0.077203
-0.0510404
-0.0719772
-0.0870595
-0.0975759
-0.10529
-0.110319
-0.112789
-0.112957
-0.111082
-0.107396
-0.10211
-0.0954087
-0.0874514
-0.0783716
-0.0682813
-0.0572757
-0.0454374
-0.0328422
-0.0195639
-0.00568013
0.00872218
0.0235417
0.0386573
0.0539232
0.0691643
0.0841726
0.0987046
0.11248
0.125183
0.136467
0.14596
0.153277
0.158037
0.159877
0.158468
0.153545
0.145067
0.133061
0.115723
0.0917837
-0.0718484
-0.0942849
-0.11024
-0.121098
-0.128785
-0.133464
-0.135306
-0.134631
-0.131751
-0.126947
-0.120468
-0.112528
-0.103306
-0.0929486
-0.0815725
-0.0692721
-0.0561246
-0.0421966
-0.0275504
-0.0122502
0.0036312
0.020006
0.0367653
0.0537726
0.0708583
0.0878136
0.104387
0.12028
0.13515
0.148606
0.160224
0.169549
0.176121
0.17949
0.179232
0.174995
0.166675
0.15425
0.135702
0.10964
-0.0961422
-0.120234
-0.137096
-0.14822
-0.155728
-0.159844
-0.160808
-0.159016
-0.154853
-0.14866
-0.140733
-0.131322
-0.120629
-0.108811
-0.0959898
-0.0822566
-0.0676798
-0.0523126
-0.0362012
-0.0193915
-0.00193711
0.0160935
0.0346093
0.0534897
0.072576
0.0916652
0.110503
0.128777
0.146118
0.162095
0.176221
0.187969
0.19678
0.202097
0.203379
0.200156
0.192233
0.179516
0.159729
0.131343
-0.124385
-0.150333
-0.168139
-0.179419
-0.186535
-0.189802
-0.189553
-0.186291
-0.180493
-0.172577
-0.162896
-0.151741
-0.139336
-0.125854
-0.111416
-0.096107
-0.0799814
-0.0630746
-0.0454107
-0.0270118
-0.00790586
0.0118644
0.0322332
0.0531027
0.0743335
0.0957356
0.117059
0.137987
0.158125
0.177004
0.194076
0.208726
0.220287
0.22807
0.231383
0.2296
0.222398
0.209574
0.188534
0.157587
-0.157148
-0.185217
-0.204
-0.215269
-0.221693
-0.223717
-0.221813
-0.216623
-0.208746
-0.198694
-0.186888
-0.173666
-0.159278
-0.143906
-0.127669
-0.110638
-0.0928482
-0.0743112
-0.0550224
-0.0349727
-0.0141575
0.00741392
0.029709
0.0526615
0.0761607
0.10004
0.124064
0.147919
0.171197
0.193395
0.213903
0.232014
0.246936
0.257819
0.263784
0.263999
0.25796
0.245295
0.223016
0.189228
-0.195158
-0.225693
-0.245475
-0.256477
-0.261777
-0.262019
-0.257868
-0.250154
-0.239634
-0.226936
-0.212563
-0.196899
-0.180221
-0.162714
-0.144486
-0.125589
-0.10603
-0.0857888
-0.0648231
-0.0430855
-0.0205306
0.00287412
0.0271384
0.0522378
0.0781013
0.104598
0.13152
0.15857
0.185342
0.211305
0.235797
0.258014
0.277025
0.291794
0.301203
0.304152
0.299877
0.287762
0.264298
0.227334
-0.239358
-0.272818
-0.293584
-0.303921
-0.307472
-0.305181
-0.297986
-0.286975
-0.273103
-0.257137
-0.239671
-0.221137
-0.201829
-0.181926
-0.161516
-0.140619
-0.119204
-0.0972071
-0.0745408
-0.0511099
-0.0268197
-0.00158656
0.0246514
0.0519224
0.080208
0.109427
0.139418
0.169916
0.200534
0.230735
0.259813
0.286877
0.310847
0.330469
0.344336
0.350996
0.349325
0.338333
0.313812
0.273257
-0.291019
-0.327999
-0.349663
-0.358704
-0.359589
-0.353712
-0.342405
-0.327095
-0.308983
-0.289
-0.26783
-0.245946
-0.223644
-0.201082
-0.17831
-0.1553
-0.13197
-0.1082
-0.0838471
-0.0587583
-0.0327803
-0.0057692
0.0223992
0.0518179
0.0825347
0.114535
0.147722
0.18189
0.216695
0.251619
0.28594
0.318694
0.348653
0.374326
0.393956
0.405638
0.407744
0.398733
0.37341
0.328752
-0.351897
-0.393173
-0.415481
-0.422218
-0.419077
-0.408138
-0.391285
-0.370386
-0.346941
-0.322053
-0.296487
-0.270736
-0.245071
-0.219601
-0.194315
-0.169118
-0.143857
-0.118344
-0.0923669
-0.0657063
-0.0381406
-0.00945655
0.0205424
0.0520253
0.0851212
0.119901
0.156355
0.194365
0.233664
0.273794
0.314054
0.353442
0.390606
0.423805
0.450881
0.469356
0.476912
0.471185
0.445545
0.396151
-0.424514
-0.471055
-0.493421
-0.496219
-0.487021
-0.468944
-0.444633
-0.416509
-0.386407
-0.355594
-0.324881
-0.294734
-0.265359
-0.236776
-0.20888
-0.181481
-0.154336
-0.127171
-0.0996957
-0.0716113
-0.0426205
-0.0124326
0.0192299
0.0526235
0.0879722
0.125451
0.165166
0.207116
0.251158
0.296946
0.343858
0.390917
0.436697
0.479232
0.515926
0.543601
0.559016
0.558589
0.533545
0.478665
-0.512637
-0.565562
-0.586721
-0.582894
-0.564593
-0.536471
-0.502177
-0.464792
-0.426482
-0.38862
-0.351991
-0.316959
-0.283596
-0.25178
-0.221267
-0.19174
-0.162843
-0.1342
-0.105427
-0.0761403
-0.0459594
-0.0145102
0.0185728
0.0536419
0.0910291
0.131033
0.173898
0.219786
0.268724
0.320546
0.374798
0.430624
0.486624
0.540683
0.589783
0.629942
0.65672
0.664771
0.642049
0.580891
-0.622135
-0.682463
-0.699782
-0.684896
-0.652924
-0.610715
-0.563173
-0.514067
-0.465811
-0.419748
-0.376499
-0.336208
-0.298715
-0.263684
-0.23068
-0.199222
-0.168816
-0.138967
-0.109189
-0.0790056
-0.0479508
-0.0155641
0.018611
0.0550283
0.094137
0.136375
0.182153
0.23183
0.28567
0.343767
0.405951
0.471631
0.539602
0.607771
0.672812
0.729918
0.773187
0.794802
0.777687
0.709744
-0.762624
-0.830435
-0.838543
-0.805255
-0.752803
-0.690992
-0.626101
-0.562449
-0.502443
-0.447135
-0.396758
-0.351057
-0.309516
-0.271495
-0.236308
-0.203275
-0.171738
-0.141073
-0.110685
-0.0800052
-0.048481
-0.0155682
0.019279
0.0566156
0.097012
0.141056
0.189346
0.242478
0.301009
0.365398
0.435896
0.512382
0.594105
0.679311
0.764667
0.844719
0.911979
0.955356
0.950178
0.87621
-0.950793
-1.02274
-1.01074
-0.946947
-0.864041
-0.775329
-0.688203
-0.607024
-0.533653
-0.468403
-0.410776
-0.359891
-0.314717
-0.274214
-0.237389
-0.203328
-0.171197
-0.140237
-0.109745
-0.079065
-0.0475662
-0.0146285
0.020375
0.0580937
0.099215
0.144477
0.19468
0.250684
0.313399
0.383743
0.462559
0.550448
0.647496
0.752793
0.863624
0.974473
1.07657
1.15495
1.17406
1.09891
-1.21715
-1.27969
-1.22549
-1.11152
-0.984056
-0.859359
-0.744744
-0.64342
-0.555734
-0.480563
-0.416233
-0.360953
-0.31302
-0.270906
-0.233269
-0.198948
-0.166933
-0.136334
-0.106357
-0.0762706
-0.0453806
-0.0130074
0.0215408
0.0589918
0.100135
0.14585
0.19713
0.255111
0.321092
0.396537
0.483042
0.582226
0.695496
0.823545
0.965355
1.1167
1.26882
1.40346
1.47112
1.4112
-1.61769
-1.63093
-1.49151
-1.2967
-1.10588
-0.934997
-0.788306
-0.665542
-0.56398
-0.480138
-0.410639
-0.352514
-0.303264
-0.260828
-0.223513
-0.189925
-0.1589
-0.129448
-0.100703
-0.071886
-0.042264
-0.0111211
0.0222746
0.0587033
0.0990292
0.144241
0.195501
0.2542
0.322022
0.401016
0.49365
0.602839
0.73185
0.883965
1.06154
1.26421
1.48649
1.71006
1.87237
1.87272
-2.25445
-2.11586
-1.81357
-1.49441
-1.21741
-0.990507
-0.809412
-0.666451
-0.553625
-0.464013
-0.392068
-0.333472
-0.284903
-0.243803
-0.208186
-0.176481
-0.147424
-0.119967
-0.0932163
-0.0663755
-0.0387058
-0.00948601
0.0220236
0.0566201
0.0952013
0.138819
0.188747
0.246567
0.314288
0.394498
0.49056
0.606848
0.74898
0.923932
1.13976
1.40419
1.72092
2.07937
2.41782
2.58908
-3.3559
-2.78316
-2.17269
-1.67584
-1.29257
-1.00573
-0.794146
-0.637273
-0.519331
-0.429176
-0.358976
-0.303186
-0.257841
-0.220061
-0.187703
-0.159135
-0.133077
-0.10849
-0.0845014
-0.0603435
-0.0353081
-0.00870557
0.0201736
0.0520994
0.0879503
0.128773
0.175863
0.230878
0.295999
0.374169
0.469451
0.587543
0.736522
0.927884
1.17796
1.50833
1.94097
2.49106
3.15794
3.79442
-5.52065
-3.6608
-2.43094
-1.71416
-1.24178
-0.92181
-0.704867
-0.553971
-0.445497
-0.365215
-0.304193
-0.256577
-0.218409
-0.186926
-0.160132
-0.136538
-0.114988
-0.0945572
-0.0744699
-0.0540481
-0.0326674
-0.00971965
0.0154211
0.0434364
0.0751073
0.111371
0.153401
0.202719
0.26137
0.332193
0.419272
0.52867
0.669673
0.857064
1.1154
1.48389
2.01596
2.80538
4.1234
6.09138
-9.20661
-4.51955
-2.30621
-1.42118
-0.958936
-0.682905
-0.512254
-0.400586
-0.322921
-0.266424
-0.223901
-0.190923
-0.16458
-0.142864
-0.124317
-0.107844
-0.092583
-0.0778371
-0.0630161
-0.0475988
-0.0311025
-0.0130561
0.00702532
0.0296674
0.0554687
0.0851423
0.119572
0.159896
0.207636
0.2649
0.334751
0.421853
0.533753
0.683738
0.897439
1.2241
1.7539
2.73324
5.0614
9.86891
)
;

boundaryField
{
    movingWall
    {
        type            zeroGradient;
    }
    fixedWalls
    {
        type            zeroGradient;
    }
    frontAndBack
    {
        type            empty;
    }
}


// ************************************************************************* //
