/*--------------------------------*- C++ -*----------------------------------*\
  =========                 |
  \\      /  F ield         | OpenFOAM: The Open Source CFD Toolbox
   \\    /   O peration     | Website:  https://openfoam.org
    \\  /    A nd           | Version:  7
     \\/     M anipulation  |
\*---------------------------------------------------------------------------*/
FoamFile
{
    version     2.0;
    format      ascii;
    class       surfaceScalarField;
    location    "0.2";
    object      phi;
}
// * * * * * * * * * * * * * * * * * * * * * * * * * * * * * * * * * * * * * //

dimensions      [0 3 -1 0 0 0 0];

internalField   nonuniform List<scalar> 
3120
(
2.54005e-09
-2.54027e-09
4.09553e-09
-1.55552e-09
2.24939e-09
1.84606e-09
-3.55809e-09
5.80751e-09
-1.31381e-08
9.58017e-09
-2.59825e-08
1.28445e-08
-4.1452e-08
1.54697e-08
-5.8871e-08
1.74188e-08
-7.75717e-08
1.87007e-08
-9.69179e-08
1.93462e-08
-1.16316e-07
1.93977e-08
-1.35219e-07
1.89033e-08
-1.53133e-07
1.79144e-08
-1.69617e-07
1.64836e-08
-1.84281e-07
1.4664e-08
-1.96791e-07
1.25096e-08
-2.06865e-07
1.00745e-08
-2.14279e-07
7.41363e-09
-2.18862e-07
4.58329e-09
-2.20503e-07
1.64132e-09
-2.19151e-07
-1.35246e-09
-2.14815e-07
-4.33598e-09
-2.0757e-07
-7.24485e-09
-1.97557e-07
-1.00125e-08
-1.84987e-07
-1.25705e-08
-1.70137e-07
-1.48495e-08
-1.53357e-07
-1.678e-08
-1.35064e-07
-1.82934e-08
-1.15739e-07
-1.93242e-08
-9.59277e-08
-1.98115e-08
-7.62266e-08
-1.97011e-08
-5.72783e-08
-1.89482e-08
-3.97571e-08
-1.75211e-08
-2.43505e-08
-1.54066e-08
-1.17302e-08
-1.26203e-08
-2.50185e-09
-9.22837e-09
2.89102e-09
-5.39289e-09
4.35391e-09
-1.46285e-09
2.55963e-09
1.79429e-09
2.55963e-09
1.61621e-09
-4.15609e-09
-1.17445e-09
1.23504e-09
-1.17179e-08
1.23897e-08
-3.10721e-08
2.51614e-08
-5.90352e-08
3.75429e-08
-9.46641e-08
4.84731e-08
-1.3661e-07
5.74158e-08
-1.83335e-07
6.41435e-08
-2.33239e-07
6.86051e-08
-2.84743e-07
7.08499e-08
-3.36333e-07
7.09873e-08
-3.86592e-07
6.91626e-08
-4.3422e-07
6.55426e-08
-4.78044e-07
6.03076e-08
-5.17026e-07
5.36459e-08
-5.50268e-07
4.57521e-08
-5.77019e-07
3.68251e-08
-5.96674e-07
2.7069e-08
-6.08784e-07
1.66932e-08
-6.13056e-07
5.9134e-09
-6.09361e-07
-5.04771e-09
-5.97737e-07
-1.59599e-08
-5.78396e-07
-2.65856e-08
-5.51728e-07
-3.66808e-08
-5.18301e-07
-4.5997e-08
-4.78867e-07
-5.42836e-08
-4.34355e-07
-6.12925e-08
-3.85866e-07
-6.67827e-08
-3.34663e-07
-7.05268e-08
-2.82156e-07
-7.23188e-08
-2.29874e-07
-7.19835e-08
-1.79434e-07
-6.93883e-08
-1.32496e-07
-6.4459e-08
-9.06987e-08
-5.72035e-08
-5.55695e-08
-4.77496e-08
-2.83843e-08
-3.64136e-08
-9.95377e-09
-2.38235e-08
-2.97158e-10
-1.11196e-08
1.85172e-09
-3.54577e-10
4.41127e-09
-1.66813e-09
-2.48828e-09
-1.21155e-08
1.16824e-08
-3.40826e-08
3.43569e-08
-6.84305e-08
5.95097e-08
-1.14746e-07
8.38585e-08
-1.71744e-07
1.05471e-07
-2.37591e-07
1.23263e-07
-3.10153e-07
1.36705e-07
-3.87161e-07
1.45613e-07
-4.66332e-07
1.50021e-07
-5.45447e-07
1.50102e-07
-6.22405e-07
1.46121e-07
-6.95262e-07
1.38399e-07
-7.62249e-07
1.27295e-07
-8.21799e-07
1.13196e-07
-8.7255e-07
9.65033e-08
-9.13361e-07
7.76361e-08
-9.43317e-07
5.70247e-08
-9.61737e-07
3.51131e-08
-9.68182e-07
1.23589e-08
-9.62464e-07
-1.07656e-08
-9.44651e-07
-3.37735e-08
-9.15072e-07
-5.61641e-08
-8.74328e-07
-7.74249e-08
-8.23288e-07
-9.70366e-08
-7.63093e-07
-1.14479e-07
-6.95145e-07
-1.2924e-07
-6.21102e-07
-1.40826e-07
-5.4285e-07
-1.48779e-07
-4.6248e-07
-1.52688e-07
-3.82246e-07
-1.52218e-07
-3.04504e-07
-1.47129e-07
-2.31647e-07
-1.37316e-07
-1.65998e-07
-1.22853e-07
-1.0968e-07
-1.04068e-07
-6.44347e-08
-8.16587e-08
-3.13794e-08
-5.68788e-08
-1.06923e-08
-3.18067e-08
-1.24023e-09
-9.80667e-09
3.17094e-09
-5.56721e-09
3.07892e-09
-2.49693e-08
3.10845e-08
-5.96634e-08
6.90505e-08
-1.09824e-07
1.09671e-07
-1.74562e-07
1.48596e-07
-2.52171e-07
1.8308e-07
-3.4038e-07
2.11472e-07
-4.36573e-07
2.32898e-07
-5.37961e-07
2.47001e-07
-6.41718e-07
2.53777e-07
-7.45073e-07
2.53458e-07
-8.45388e-07
2.46436e-07
-9.40204e-07
2.33215e-07
-1.02728e-06
2.14369e-07
-1.10461e-06
1.90529e-07
-1.17047e-06
1.6236e-07
-1.22339e-06
1.30557e-07
-1.26221e-06
9.5841e-08
-1.28605e-06
5.89569e-08
-1.29436e-06
2.06731e-08
-1.28691e-06
-1.82176e-08
-1.26379e-06
-5.6899e-08
-1.22542e-06
-9.45339e-08
-1.17257e-06
-1.30268e-07
-1.10637e-06
-1.63239e-07
-1.02826e-06
-1.92585e-07
-9.4004e-07
-2.17464e-07
-8.43797e-07
-2.37069e-07
-7.4192e-07
-2.50655e-07
-6.3704e-07
-2.57568e-07
-5.31977e-07
-2.57281e-07
-4.29668e-07
-2.49438e-07
-3.33074e-07
-2.33911e-07
-2.45055e-07
-2.10871e-07
-1.68226e-07
-1.80897e-07
-1.04762e-07
-1.45123e-07
-5.61801e-08
-1.05461e-07
-2.30947e-08
-6.48922e-08
-4.98566e-09
-2.79157e-08
-1.81472e-09
-9.46448e-09
1.25434e-08
-3.81571e-08
5.97772e-08
-8.60373e-08
1.16931e-07
-1.52319e-07
1.75953e-07
-2.35435e-07
2.31712e-07
-3.33148e-07
2.80793e-07
-4.42721e-07
3.21045e-07
-5.61089e-07
3.51266e-07
-6.85017e-07
3.70929e-07
-8.11229e-07
3.79989e-07
-9.3651e-07
3.78739e-07
-1.05779e-06
3.67714e-07
-1.17219e-06
3.47619e-07
-1.2771e-06
3.19277e-07
-1.37017e-06
2.83597e-07
-1.44936e-06
2.41548e-07
-1.51295e-06
1.94152e-07
-1.55958e-06
1.42469e-07
-1.58822e-06
8.75976e-08
-1.59822e-06
3.06732e-08
-1.5893e-06
-2.71348e-08
-1.56158e-06
-8.4623e-08
-1.51555e-06
-1.40559e-07
-1.45213e-06
-1.93688e-07
-1.37263e-06
-2.42746e-07
-1.27874e-06
-2.86475e-07
-1.17255e-06
-3.23646e-07
-1.05653e-06
-3.53091e-07
-9.33454e-07
-3.73734e-07
-8.06381e-07
-3.8464e-07
-6.78595e-07
-3.85067e-07
-5.53508e-07
-3.74526e-07
-4.34556e-07
-3.52862e-07
-3.25075e-07
-3.20352e-07
-2.28144e-07
-2.77829e-07
-1.4641e-07
-2.26856e-07
-8.19109e-08
-1.6996e-07
-3.59013e-08
-1.10902e-07
-8.7526e-09
-5.50643e-08
-1.05673e-08
-1.31559e-08
2.56991e-08
-5.10013e-08
9.7623e-08
-1.12036e-07
1.77966e-07
-1.94403e-07
2.5832e-07
-2.95729e-07
3.33038e-07
-4.1315e-07
3.98214e-07
-5.4341e-07
4.51304e-07
-6.82985e-07
4.90841e-07
-8.28219e-07
5.16163e-07
-9.75435e-07
5.27205e-07
-1.12104e-06
5.24344e-07
-1.2616e-06
5.08277e-07
-1.39392e-06
4.79932e-07
-1.51505e-06
4.40409e-07
-1.62238e-06
3.90926e-07
-1.71362e-06
3.32795e-07
-1.78687e-06
2.67397e-07
-1.84057e-06
1.96175e-07
-1.8736e-06
1.20621e-07
-1.8852e-06
4.22796e-08
-1.87508e-06
-3.7258e-08
-1.84335e-06
-1.16357e-07
-1.79056e-06
-1.93342e-07
-1.71774e-06
-2.66514e-07
-1.62632e-06
-3.3416e-07
-1.51822e-06
-3.94577e-07
-1.39576e-06
-4.46108e-07
-1.26168e-06
-4.87176e-07
-1.11907e-06
-5.16339e-07
-9.71365e-07
-5.32344e-07
-8.22232e-07
-5.34201e-07
-6.75495e-07
-5.21263e-07
-5.3503e-07
-4.93328e-07
-4.04628e-07
-4.50754e-07
-2.87855e-07
-3.94601e-07
-1.87896e-07
-3.26815e-07
-1.07411e-07
-2.50445e-07
-4.84305e-08
-1.69883e-07
-1.23305e-08
-9.11644e-08
-2.28976e-08
-1.66015e-08
4.23004e-08
-6.32769e-08
1.44298e-07
-1.372e-07
2.51888e-07
-2.35428e-07
3.56548e-07
-3.5472e-07
4.52331e-07
-4.91516e-07
5.35009e-07
-6.41983e-07
6.01772e-07
-8.02116e-07
6.50974e-07
-9.67833e-07
6.8188e-07
-1.13508e-06
6.94452e-07
-1.29992e-06
6.89184e-07
-1.45861e-06
6.66966e-07
-1.60766e-06
6.28984e-07
-1.74389e-06
5.76636e-07
-1.86445e-06
5.11486e-07
-1.96687e-06
4.35212e-07
-2.04906e-06
3.4959e-07
-2.10936e-06
2.56473e-07
-2.14652e-06
1.57781e-07
-2.15974e-06
5.54991e-08
-2.14867e-06
-4.83272e-08
-2.11343e-06
-1.51597e-07
-2.05461e-06
-2.5216e-07
-1.97329e-06
-3.47833e-07
-1.87103e-06
-4.36417e-07
-1.74988e-06
-5.15728e-07
-1.61235e-06
-5.83639e-07
-1.4614e-06
-6.38127e-07
-1.3004e-06
-6.77338e-07
-1.13308e-06
-6.99662e-07
-9.63462e-07
-7.03823e-07
-7.95748e-07
-6.88976e-07
-6.34244e-07
-6.54832e-07
-4.83214e-07
-6.01784e-07
-3.46752e-07
-5.31064e-07
-2.28645e-07
-4.44922e-07
-1.3226e-07
-3.4683e-07
-6.04713e-08
-2.41671e-07
-1.56809e-08
-1.35955e-07
-3.85785e-08
-1.98306e-08
6.21309e-08
-7.49884e-08
1.99456e-07
-1.61464e-07
3.38364e-07
-2.75265e-07
4.70349e-07
-4.12261e-07
5.89326e-07
-5.68146e-07
6.90894e-07
-7.38475e-07
7.721e-07
-9.18723e-07
8.31222e-07
-1.10437e-06
8.6753e-07
-1.29099e-06
8.81075e-07
-1.47433e-06
8.72521e-07
-1.65036e-06
8.42992e-07
-1.81534e-06
7.93966e-07
-1.96588e-06
7.27179e-07
-2.09896e-06
6.44562e-07
-2.21194e-06
5.48193e-07
-2.30261e-06
4.40265e-07
-2.36921e-06
3.23064e-07
-2.41039e-06
1.98963e-07
-2.4253e-06
7.04106e-08
-2.41355e-06
-6.00719e-08
-2.37526e-06
-1.89893e-07
-2.31102e-06
-3.16402e-07
-2.22194e-06
-4.36905e-07
-2.10968e-06
-5.48686e-07
-1.97636e-06
-6.49048e-07
-1.82464e-06
-7.35354e-07
-1.65767e-06
-8.05096e-07
-1.47905e-06
-8.55964e-07
-1.29276e-06
-8.85946e-07
-1.10316e-06
-8.93425e-07
-9.14827e-07
-8.77308e-07
-7.32504e-07
-8.37156e-07
-5.60955e-07
-7.73332e-07
-4.04851e-07
-6.87168e-07
-2.68642e-07
-5.81131e-07
-1.56459e-07
-4.59013e-07
-7.20587e-08
-3.26071e-07
-1.88408e-08
-1.89173e-07
-5.74194e-08
-2.28957e-08
8.50266e-08
-8.62417e-08
2.62802e-07
-1.84965e-07
4.37087e-07
-3.14069e-07
5.99453e-07
-4.6853e-07
7.43788e-07
-6.43276e-07
8.65641e-07
-8.33211e-07
9.62035e-07
-1.03327e-06
1.03128e-06
-1.23847e-06
1.07274e-06
-1.44402e-06
1.08662e-06
-1.64534e-06
1.07384e-06
-1.83815e-06
1.0358e-06
-2.01849e-06
9.74311e-07
-2.1828e-06
8.91486e-07
-2.32789e-06
7.89656e-07
-2.45102e-06
6.71323e-07
-2.54988e-06
5.39118e-07
-2.62259e-06
3.95781e-07
-2.66778e-06
2.4415e-07
-2.68452e-06
8.71512e-08
-2.67239e-06
-7.22023e-08
-2.63147e-06
-2.30815e-07
-2.56235e-06
-3.8552e-07
-2.46617e-06
-5.33091e-07
-2.34458e-06
-6.70273e-07
-2.1998e-06
-7.93824e-07
-2.03459e-06
-9.00565e-07
-1.85223e-06
-9.87457e-07
-1.65651e-06
-1.05169e-06
-1.45167e-06
-1.09078e-06
-1.24236e-06
-1.10273e-06
-1.03356e-06
-1.08611e-06
-8.30454e-07
-1.04026e-06
-6.38348e-07
-9.65439e-07
-4.62535e-07
-8.62981e-07
-3.08183e-07
-7.35484e-07
-1.80233e-07
-5.86963e-07
-8.33414e-08
-4.22963e-07
-2.18747e-08
-2.5064e-07
-7.92941e-08
-2.58528e-08
1.10879e-07
-9.71787e-08
3.34128e-07
-2.07923e-07
5.47832e-07
-3.52124e-07
7.43654e-07
-5.23872e-07
9.15535e-07
-7.1731e-07
1.05908e-06
-9.26667e-07
1.17139e-06
-1.14631e-06
1.25092e-06
-1.3708e-06
1.29722e-06
-1.59494e-06
1.31077e-06
-1.81386e-06
1.29276e-06
-2.02303e-06
1.24497e-06
-2.2183e-06
1.16958e-06
-2.39595e-06
1.06914e-06
-2.55269e-06
9.46393e-07
-2.68566e-06
8.043e-07
-2.79249e-06
6.45946e-07
-2.87125e-06
4.74539e-07
-2.92049e-06
2.93388e-07
-2.93924e-06
1.05904e-07
-2.92704e-06
-8.44029e-08
-2.88393e-06
-2.73929e-07
-2.81047e-06
-4.5898e-07
-2.70777e-06
-6.35789e-07
-2.5775e-06
-8.00541e-07
-2.4219e-06
-9.49423e-07
-2.24379e-06
-1.07868e-06
-2.04655e-06
-1.1847e-06
-1.83413e-06
-1.2641e-06
-1.61102e-06
-1.3139e-06
-1.38216e-06
-1.33159e-06
-1.1529e-06
-1.31537e-06
-9.2892e-07
-1.26424e-06
-7.16091e-07
-1.17827e-06
-5.20381e-07
-1.05869e-06
-3.47722e-07
-9.08143e-07
-2.03908e-07
-7.30776e-07
-9.45135e-08
-5.32357e-07
-2.48535e-08
-3.203e-07
-1.04148e-07
-2.87539e-08
1.39633e-07
-1.07946e-07
4.1332e-07
-2.30585e-07
6.7047e-07
-3.89766e-07
9.02836e-07
-5.78694e-07
1.10446e-06
-7.90713e-07
1.2711e-06
-1.01936e-06
1.40004e-06
-1.25841e-06
1.48997e-06
-1.50195e-06
1.54076e-06
-1.7444e-06
1.55322e-06
-1.98058e-06
1.52894e-06
-2.20573e-06
1.47012e-06
-2.41554e-06
1.37939e-06
-2.60616e-06
1.25976e-06
-2.77421e-06
1.11444e-06
-2.91677e-06
9.46863e-07
-3.03141e-06
7.60586e-07
-3.11616e-06
5.5929e-07
-3.16954e-06
3.46759e-07
-3.19052e-06
1.26887e-07
-3.17859e-06
-9.63274e-08
-3.13375e-06
-3.18772e-07
-3.05651e-06
-5.36227e-07
-2.94792e-06
-7.44378e-07
-2.80962e-06
-9.3884e-07
-2.64384e-06
-1.11521e-06
-2.45341e-06
-1.26911e-06
-2.24179e-06
-1.39631e-06
-2.01307e-06
-1.49282e-06
-1.77193e-06
-1.55505e-06
-1.52359e-06
-1.57993e-06
-1.27382e-06
-1.56513e-06
-1.02879e-06
-1.50928e-06
-7.94968e-07
-1.41209e-06
-5.79048e-07
-1.27461e-06
-3.87777e-07
-1.09941e-06
-2.27847e-07
-8.90706e-07
-1.05781e-07
-6.54424e-07
-2.78469e-08
-3.98234e-07
-1.31995e-07
-3.16454e-08
1.71279e-07
-1.18682e-07
5.00357e-07
-2.53193e-07
8.04981e-07
-4.27333e-07
1.07698e-06
-6.33408e-07
1.31054e-06
-8.6395e-07
1.50164e-06
-1.11178e-06
1.64787e-06
-1.37008e-06
1.74827e-06
-1.63243e-06
1.80311e-06
-1.89288e-06
1.81367e-06
-2.14595e-06
1.78201e-06
-2.38668e-06
1.71084e-06
-2.6106e-06
1.60332e-06
-2.81378e-06
1.46294e-06
-2.99278e-06
1.29344e-06
-3.14464e-06
1.09873e-06
-3.26692e-06
8.82858e-07
-3.35761e-06
6.49981e-07
-3.4152e-06
4.04353e-07
-3.43865e-06
1.50334e-07
-3.42738e-06
-1.07596e-07
-3.38132e-06
-3.64834e-07
-3.3009e-06
-6.16644e-07
-3.18711e-06
-8.58167e-07
-3.04151e-06
-1.08444e-06
-2.86627e-06
-1.29045e-06
-2.66419e-06
-1.47118e-06
-2.43878e-06
-1.62172e-06
-2.19419e-06
-1.73741e-06
-1.93529e-06
-1.81395e-06
-1.6676e-06
-1.84762e-06
-1.39725e-06
-1.83548e-06
-1.13093e-06
-1.7756e-06
-8.7577e-07
-1.66725e-06
-6.39214e-07
-1.51117e-06
-4.28883e-07
-1.30974e-06
-2.52421e-07
-1.06717e-06
-1.17347e-07
-7.89497e-07
-3.09198e-08
-4.84662e-07
-1.62914e-07
-3.45673e-08
2.05846e-07
-1.29513e-07
5.95303e-07
-2.75973e-07
9.51441e-07
-4.65139e-07
1.26614e-06
-6.88397e-07
1.5338e-06
-9.3744e-07
1.75068e-06
-1.20435e-06
1.91478e-06
-1.4817e-06
2.02562e-06
-1.76257e-06
2.08398e-06
-2.04063e-06
2.09173e-06
-2.31013e-06
2.05151e-06
-2.56592e-06
1.96663e-06
-2.80342e-06
1.84082e-06
-3.01865e-06
1.67816e-06
-3.20812e-06
1.48291e-06
-3.36891e-06
1.25952e-06
-3.49856e-06
1.01251e-06
-3.59509e-06
7.4651e-07
-3.65697e-06
4.66232e-07
-3.68312e-06
1.76485e-07
-3.67292e-06
-1.17798e-07
-3.62621e-06
-4.11545e-07
-3.54333e-06
-6.99525e-07
-3.42515e-06
-9.7635e-07
-3.2731e-06
-1.23648e-06
-3.08927e-06
-1.47429e-06
-2.87638e-06
-1.68407e-06
-2.63789e-06
-1.86021e-06
-2.37802e-06
-1.99728e-06
-2.10177e-06
-2.0902e-06
-1.81491e-06
-2.13448e-06
-1.52397e-06
-2.12643e-06
-1.23614e-06
-2.06342e-06
-9.59248e-07
-1.94414e-06
-7.01533e-07
-1.76888e-06
-4.71557e-07
-1.53972e-06
-2.77985e-07
-1.26074e-06
-1.29405e-07
-9.38078e-07
-3.41326e-08
-5.79934e-07
-1.97047e-07
-3.7555e-08
2.43401e-07
-1.40551e-07
6.98299e-07
-2.99127e-07
1.11002e-06
-5.03469e-07
1.47048e-06
-7.44001e-07
1.77433e-06
-1.01154e-06
2.01822e-06
-1.29741e-06
2.20065e-06
-1.59354e-06
2.32175e-06
-1.89253e-06
2.38297e-06
-2.18767e-06
2.38687e-06
-2.47296e-06
2.33681e-06
-2.74311e-06
2.23678e-06
-2.99347e-06
2.09118e-06
-3.22002e-06
1.90471e-06
-3.41934e-06
1.68223e-06
-3.58853e-06
1.4287e-06
-3.72518e-06
1.14916e-06
-3.82734e-06
8.48678e-07
-3.89352e-06
5.32403e-07
-3.92259e-06
2.05563e-07
-3.9139e-06
-1.26494e-07
-3.86718e-06
-4.58262e-07
-3.78266e-06
-7.84051e-07
-3.66104e-06
-1.09797e-06
-3.50361e-06
-1.39391e-06
-3.31227e-06
-1.66563e-06
-3.08962e-06
-1.90672e-06
-2.83903e-06
-2.1108e-06
-2.56469e-06
-2.27161e-06
-2.2717e-06
-2.38319e-06
-1.96604e-06
-2.44014e-06
-1.6546e-06
-2.43787e-06
-1.34511e-06
-2.37291e-06
-1.04607e-06
-2.24318e-06
-7.66612e-07
-2.04834e-06
-5.16289e-07
-1.79004e-06
-3.04879e-07
-1.47215e-06
-1.42138e-07
-1.10082e-06
-3.75417e-08
-6.8453e-07
-2.34589e-07
-4.06404e-08
2.84042e-07
-1.51899e-07
8.09558e-07
-3.22844e-07
1.28096e-06
-5.42582e-07
1.69022e-06
-8.00513e-07
2.03226e-06
-1.08653e-06
2.30423e-06
-1.39116e-06
2.50528e-06
-1.70569e-06
2.63628e-06
-2.02222e-06
2.69951e-06
-2.33371e-06
2.69835e-06
-2.63393e-06
2.63703e-06
-2.91747e-06
2.52032e-06
-3.17969e-06
2.3534e-06
-3.4166e-06
2.14163e-06
-3.62487e-06
1.8905e-06
-3.8017e-06
1.60553e-06
-3.94478e-06
1.29224e-06
-4.05224e-06
9.56142e-07
-4.12262e-06
6.02778e-07
-4.1548e-06
2.3775e-07
-4.14807e-06
-1.33225e-07
-4.10207e-06
-5.04262e-07
-4.01686e-06
-8.6926e-07
-3.89297e-06
-1.22186e-06
-3.73145e-06
-1.55544e-06
-3.53397e-06
-1.8631e-06
-3.30294e-06
-2.13776e-06
-3.04153e-06
-2.37221e-06
-2.75387e-06
-2.55927e-06
-2.44504e-06
-2.69202e-06
-2.12119e-06
-2.76399e-06
-1.78954e-06
-2.76953e-06
-1.45834e-06
-2.70411e-06
-1.13681e-06
-2.56471e-06
-8.34993e-07
-2.35016e-06
-5.6353e-07
-2.06151e-06
-3.33422e-07
-1.70226e-06
-1.55719e-07
-1.27852e-06
-4.12006e-08
-7.99049e-07
-2.75789e-07
-4.38541e-08
3.27896e-07
-1.63656e-07
9.29359e-07
-3.47299e-07
1.46461e-06
-5.82711e-07
1.92563e-06
-8.58186e-07
2.30774e-06
-1.16262e-06
2.60867e-06
-1.48572e-06
2.82838e-06
-1.81809e-06
2.96865e-06
-2.15137e-06
3.03278e-06
-2.47817e-06
3.02515e-06
-2.79211e-06
2.95097e-06
-3.08774e-06
2.81596e-06
-3.36046e-06
2.62611e-06
-3.60642e-06
2.38758e-06
-3.82242e-06
2.1065e-06
-4.00584e-06
1.78895e-06
-4.15453e-06
1.44093e-06
-4.26674e-06
1.06836e-06
-4.3411e-06
6.77133e-07
-4.37651e-06
2.73165e-07
-4.37221e-06
-1.37525e-07
-4.32773e-06
-5.48743e-07
-4.24295e-06
-9.54038e-07
-4.11817e-06
-1.34665e-06
-3.95415e-06
-1.71946e-06
-3.75226e-06
-2.06498e-06
-3.5146e-06
-2.37542e-06
-3.24408e-06
-2.64272e-06
-2.94464e-06
-2.85872e-06
-2.62127e-06
-3.01538e-06
-2.28021e-06
-3.10505e-06
-1.92893e-06
-3.12081e-06
-1.57618e-06
-3.05685e-06
-1.23192e-06
-2.90897e-06
-9.07148e-07
-2.67493e-06
-6.13696e-07
-2.35496e-06
-3.63916e-07
-1.95204e-06
-1.70316e-07
-1.47212e-06
-4.51614e-08
-9.24203e-07
-3.20951e-07
-4.72275e-08
3.75123e-07
-1.75924e-07
1.05806e-06
-3.72669e-07
1.66135e-06
-6.24086e-07
2.17705e-06
-9.17245e-07
2.60089e-06
-1.23997e-06
2.9314e-06
-1.58108e-06
3.16949e-06
-1.93051e-06
3.31808e-06
-2.27941e-06
3.38168e-06
-2.62013e-06
3.36587e-06
-2.94618e-06
3.27703e-06
-3.25215e-06
3.12193e-06
-3.53357e-06
2.90753e-06
-3.7868e-06
2.64081e-06
-4.00889e-06
2.32859e-06
-4.19748e-06
1.97753e-06
-4.35064e-06
1.59409e-06
-4.46681e-06
1.18454e-06
-4.54474e-06
7.55062e-07
-4.5834e-06
3.11824e-07
-4.58198e-06
-1.38944e-07
-4.5399e-06
-5.90821e-07
-4.45684e-06
-1.0371e-06
-4.33281e-06
-1.47069e-06
-4.16822e-06
-1.88404e-06
-3.96406e-06
-2.26914e-06
-3.72201e-06
-2.61748e-06
-3.4446e-06
-2.92012e-06
-3.13545e-06
-3.16788e-06
-2.79935e-06
-3.35148e-06
-2.44251e-06
-3.4619e-06
-2.07258e-06
-3.49074e-06
-1.69875e-06
-3.43068e-06
-1.33171e-06
-3.27601e-06
-9.83474e-07
-3.02317e-06
-6.67167e-07
-2.67127e-06
-3.96651e-07
-2.22255e-06
-1.86095e-07
-1.68268e-06
-4.94767e-08
-1.06082e-06
-3.70428e-07
-5.07964e-08
4.2592e-07
-1.88815e-07
1.19607e-06
-3.99149e-07
1.87168e-06
-6.66943e-07
2.44485e-06
-9.77906e-07
2.91186e-06
-1.31868e-06
3.27218e-06
-1.67714e-06
3.52794e-06
-2.04252e-06
3.68346e-06
-2.40552e-06
3.74468e-06
-2.75829e-06
3.71864e-06
-3.09432e-06
3.61306e-06
-3.40833e-06
3.43593e-06
-3.69609e-06
3.1953e-06
-3.95429e-06
2.89901e-06
-4.18034e-06
2.55464e-06
-4.37221e-06
2.1694e-06
-4.5283e-06
1.75018e-06
-4.64732e-06
1.30355e-06
-4.72819e-06
8.35928e-07
-4.76997e-06
3.53604e-07
-4.77184e-06
-1.37066e-07
-4.73312e-06
-6.29546e-07
-4.65324e-06
-1.11698e-06
-4.53188e-06
-1.59204e-06
-4.36905e-06
-2.04687e-06
-4.16524e-06
-2.47296e-06
-3.92159e-06
-2.86113e-06
-3.64013e-06
-3.20158e-06
-3.32398e-06
-3.48402e-06
-2.97761e-06
-3.69785e-06
-2.60702e-06
-3.83249e-06
-2.21994e-06
-3.87782e-06
-1.82591e-06
-3.8247e-06
-1.43634e-06
-3.66559e-06
-1.06429e-06
-3.39522e-06
-7.24292e-07
-3.01126e-06
-4.31914e-07
-2.51493e-06
-2.03225e-07
-1.91137e-06
-5.42018e-08
-1.20984e-06
-4.24629e-07
-5.46041e-08
4.80524e-07
-2.02466e-07
1.34394e-06
-4.26968e-07
2.09619e-06
-7.11558e-07
2.72944e-06
-1.0404e-06
3.2407e-06
-1.39882e-06
3.6306e-06
-1.77368e-06
3.9028e-06
-2.1535e-06
4.06329e-06
-2.5286e-06
4.11978e-06
-2.89096e-06
4.08101e-06
-3.23419e-06
3.95628e-06
-3.55326e-06
3.755e-06
-3.84434e-06
3.48638e-06
-4.10456e-06
3.15924e-06
-4.33182e-06
2.7819e-06
-4.52455e-06
2.36213e-06
-4.68157e-06
1.9072e-06
-4.80194e-06
1.42392e-06
-4.88481e-06
9.18807e-07
-4.92942e-06
3.98205e-07
-4.93494e-06
-1.31543e-07
-4.90057e-06
-6.63915e-07
-4.82551e-06
-1.19203e-06
-4.70906e-06
-1.70849e-06
-4.55074e-06
-2.2052e-06
-4.35043e-06
-2.67327e-06
-4.10863e-06
-3.10293e-06
-3.82667e-06
-3.48354e-06
-3.50703e-06
-3.80366e-06
-3.15361e-06
-4.05126e-06
-2.77206e-06
-4.21404e-06
-2.37001e-06
-4.27988e-06
-1.95724e-06
-4.23747e-06
-1.54578e-06
-4.07704e-06
-1.14982e-06
-3.79118e-06
-7.85397e-07
-3.37568e-06
-4.69996e-07
-2.83033e-06
-2.21889e-07
-2.15947e-06
-5.93976e-08
-1.37234e-06
-4.84027e-07
-5.8707e-08
5.39231e-07
-2.17052e-07
1.50228e-06
-4.56413e-07
2.33555e-06
-7.58264e-07
3.03129e-06
-1.10498e-06
3.58742e-06
-1.48044e-06
4.00606e-06
-1.87038e-06
4.29273e-06
-2.26263e-06
4.45554e-06
-2.64716e-06
4.5043e-06
-3.01595e-06
4.4498e-06
-3.36282e-06
4.30315e-06
-3.68319e-06
4.07536e-06
-3.97376e-06
3.77695e-06
-4.23231e-06
3.41778e-06
-4.45732e-06
3.00692e-06
-4.64786e-06
2.55267e-06
-4.80326e-06
2.0626e-06
-4.92303e-06
1.54369e-06
-5.00666e-06
1.00243e-06
-5.05355e-06
4.45097e-07
-5.06296e-06
-1.22131e-07
-5.03398e-06
-6.92897e-07
-4.96555e-06
-1.26046e-06
-4.85655e-06
-1.81749e-06
-4.70593e-06
-2.35582e-06
-4.51288e-06
-2.86632e-06
-4.27709e-06
-3.33872e-06
-3.99903e-06
-3.7616e-06
-3.6803e-06
-4.12239e-06
-3.32403e-06
-4.40753e-06
-2.93525e-06
-4.60282e-06
-2.52127e-06
-4.69386e-06
-2.09193e-06
-4.6668e-06
-1.65982e-06
-4.50915e-06
-1.24021e-06
-4.2108e-06
-8.50789e-07
-3.7651e-06
-5.11206e-07
-3.16991e-06
-2.42287e-07
-2.42839e-06
-6.51338e-08
-1.54949e-06
-5.49161e-07
-6.31804e-08
6.02411e-07
-2.32802e-07
1.6719e-06
-4.87863e-07
2.59061e-06
-8.07493e-07
3.35092e-06
-1.172e-06
3.95192e-06
-1.56358e-06
4.39764e-06
-1.96681e-06
4.69596e-06
-2.36882e-06
4.85756e-06
-2.75934e-06
4.89483e-06
-3.1305e-06
4.82095e-06
-3.47653e-06
4.64918e-06
-3.79348e-06
4.39231e-06
-4.07882e-06
4.06229e-06
-4.3311e-06
3.67006e-06
-4.54964e-06
3.22546e-06
-4.73421e-06
2.73725e-06
-4.88484e-06
2.21323e-06
-5.00155e-06
1.6604e-06
-5.08427e-06
1.08515e-06
-5.13265e-06
4.93477e-07
-5.14605e-06
-1.08731e-07
-5.12347e-06
-7.15468e-07
-5.06362e-06
-1.32032e-06
-4.96491e-06
-1.91619e-06
-4.82567e-06
-2.49506e-06
-4.64428e-06
-3.04771e-06
-4.41946e-06
-3.56354e-06
-4.15063e-06
-4.03044e-06
-3.83827e-06
-4.43474e-06
-3.48446e-06
-4.76134e-06
-3.09332e-06
-4.99396e-06
-2.67153e-06
-5.11566e-06
-2.22876e-06
-5.10957e-06
-1.77798e-06
-4.95994e-06
-1.33549e-06
-4.65328e-06
-9.20769e-07
-4.17982e-06
-5.55886e-07
-3.5348e-06
-2.64657e-07
-2.71962e-06
-7.14945e-08
-1.74265e-06
-6.20655e-07
-6.81275e-08
6.70539e-07
-2.5003e-07
1.85381e-06
-5.21821e-07
2.8624e-06
-8.5981e-07
3.68891e-06
-1.24186e-06
4.33397e-06
-1.64827e-06
4.80406e-06
-2.06237e-06
5.11006e-06
-2.47066e-06
5.26584e-06
-2.86276e-06
5.28693e-06
-3.23114e-06
5.18934e-06
-3.57074e-06
4.98878e-06
-3.87846e-06
4.70004e-06
-4.15278e-06
4.33661e-06
-4.39325e-06
3.91054e-06
-4.60018e-06
3.43239e-06
-4.77425e-06
2.91132e-06
-4.91627e-06
2.35524e-06
-5.02692e-06
1.77105e-06
-5.10662e-06
1.16485e-06
-5.15537e-06
5.42226e-07
-5.17267e-06
-9.14317e-08
-5.15749e-06
-7.30651e-07
-5.10826e-06
-1.36955e-06
-5.02296e-06
-2.00149e-06
-4.89922e-06
-2.6188e-06
-4.73453e-06
-3.21241e-06
-4.52649e-06
-3.77157e-06
-4.27326e-06
-4.28367e-06
-3.97395e-06
-4.73405e-06
-3.62923e-06
-5.10606e-06
-3.24196e-06
-5.38124e-06
-2.81782e-06
-5.5398e-06
-2.36596e-06
-5.56143e-06
-1.89946e-06
-5.42643e-06
-1.43558e-06
-5.11716e-06
-9.95637e-07
-4.61977e-06
-6.04434e-07
-3.926e-06
-2.89286e-07
-3.03477e-06
-7.85847e-08
-1.95335e-06
-6.9924e-07
-7.36918e-08
7.44231e-07
-2.69163e-07
2.04928e-06
-5.58964e-07
3.1522e-06
-9.15958e-07
4.0459e-06
-1.31509e-06
4.7331e-06
-1.73453e-06
5.2235e-06
-2.15627e-06
5.5318e-06
-2.56628e-06
5.67586e-06
-2.95433e-06
5.67498e-06
-3.31353e-06
5.54854e-06
-3.6398e-06
5.31504e-06
-3.93123e-06
4.99147e-06
-4.18755e-06
4.59293e-06
-4.4096e-06
4.13258e-06
-4.59884e-06
3.62163e-06
-4.75704e-06
3.06951e-06
-4.88591e-06
2.48412e-06
-4.98691e-06
1.87205e-06
-5.06103e-06
1.23897e-06
-5.10868e-06
5.89871e-07
-5.12956e-06
-7.05518e-08
-5.12264e-06
-7.37567e-07
-5.08615e-06
-1.40604e-06
-5.0176e-06
-2.07005e-06
-4.9139e-06
-2.7225e-06
-4.77158e-06
-3.35473e-06
-4.587e-06
-3.95614e-06
-4.35685e-06
-4.51383e-06
-4.07857e-06
-5.01234e-06
-3.75107e-06
-5.43355e-06
-3.37552e-06
-5.75679e-06
-2.95612e-06
-5.95919e-06
-2.50103e-06
-6.01652e-06
-2.02308e-06
-5.90438e-06
-1.54025e-06
-5.6e-06
-1.07571e-06
-5.08431e-06
-6.57331e-07
-4.34437e-06
-3.16538e-07
-3.37556e-06
-8.65407e-08
-2.18335e-06
-7.85781e-07
-8.00731e-08
8.24304e-07
-2.90785e-07
2.25999e-06
-6.00201e-07
3.46162e-06
-9.76903e-07
4.4226e-06
-1.39234e-06
5.14854e-06
-1.82226e-06
5.65341e-06
-2.24732e-06
5.95686e-06
-2.65318e-06
6.08171e-06
-3.03006e-06
6.05186e-06
-3.37212e-06
5.8906e-06
-3.67664e-06
5.61957e-06
-3.9433e-06
5.25812e-06
-4.17339e-06
4.82302e-06
-4.36926e-06
4.32845e-06
-4.53377e-06
3.78614e-06
-4.6699e-06
3.20564e-06
-4.7804e-06
2.59461e-06
-4.86757e-06
1.95923e-06
-4.93308e-06
1.30447e-06
-4.97777e-06
6.3457e-07
-5.00165e-06
-4.66792e-08
-5.00372e-06
-7.35494e-07
-4.98204e-06
-1.42771e-06
-4.93371e-06
-2.11838e-06
-4.85493e-06
-2.80127e-06
-4.74122e-06
-3.46845e-06
-4.58761e-06
-4.10974e-06
-4.38913e-06
-4.71231e-06
-4.14129e-06
-5.26018e-06
-3.84084e-06
-5.734e-06
-3.48673e-06
-6.1109e-06
-3.08113e-06
-6.3648e-06
-2.63058e-06
-6.46706e-06
-2.14711e-06
-6.38785e-06
-1.64903e-06
-6.09808e-06
-1.1613e-06
-5.57203e-06
-7.15176e-07
-4.7905e-06
-3.46892e-07
-3.74385e-06
-9.55448e-08
-2.4347e-06
-8.81325e-07
-8.75528e-08
9.11857e-07
-3.15703e-07
2.48814e-06
-6.46745e-07
3.79266e-06
-1.04387e-06
4.81973e-06
-1.47434e-06
5.57901e-06
-1.91117e-06
6.09024e-06
-2.33379e-06
6.37948e-06
-2.72788e-06
6.47581e-06
-3.08463e-06
6.40861e-06
-3.39974e-06
6.20571e-06
-3.6724e-06
5.89223e-06
-3.90425e-06
5.48997e-06
-4.09852e-06
5.01729e-06
-4.25934e-06
4.48927e-06
-4.39113e-06
3.91793e-06
-4.49822e-06
3.31273e-06
-4.58448e-06
2.68088e-06
-4.65314e-06
2.02788e-06
-4.70655e-06
1.35788e-06
-4.7461e-06
6.74117e-07
-4.77209e-06
-2.06951e-08
-4.78365e-06
-7.23926e-07
-4.77875e-06
-1.43261e-06
-4.75412e-06
-2.14301e-06
-4.70534e-06
-2.85006e-06
-4.6269e-06
-3.54688e-06
-4.5125e-06
-4.22414e-06
-4.35536e-06
-4.86945e-06
-4.1488e-06
-5.46674e-06
-3.88704e-06
-5.99576e-06
-3.56625e-06
-6.43169e-06
-3.18583e-06
-6.74521e-06
-2.74995e-06
-6.90294e-06
-2.26904e-06
-6.86877e-06
-1.76115e-06
-6.60598e-06
-1.25276e-06
-6.08042e-06
-7.78737e-07
-5.26452e-06
-3.80987e-07
-4.1416e-06
-1.05848e-07
-2.70984e-06
-9.87173e-07
-9.65302e-08
1.00839e-06
-3.45026e-07
2.73664e-06
-7.00201e-07
4.14783e-06
-1.11839e-06
5.23792e-06
-1.56179e-06
6.02241e-06
-2.00049e-06
6.52894e-06
-2.41296e-06
6.79195e-06
-2.78547e-06
6.84831e-06
-3.11085e-06
6.73399e-06
-3.38707e-06
6.48194e-06
-3.61582e-06
6.12098e-06
-3.8012e-06
5.67535e-06
-3.94873e-06
5.16483e-06
-4.06456e-06
4.60509e-06
-4.15482e-06
4.0082e-06
-4.22527e-06
3.38318e-06
-4.28096e-06
2.73657e-06
-4.32601e-06
2.07294e-06
-4.36352e-06
1.39539e-06
-4.3954e-06
7.05996e-07
-4.42232e-06
6.22066e-09
-4.44361e-06
-7.02636e-07
-4.45721e-06
-1.41901e-06
-4.45962e-06
-2.1406e-06
-4.44588e-06
-2.86381e-06
-4.4096e-06
-3.58316e-06
-4.34315e-06
-4.29059e-06
-4.23793e-06
-4.97467e-06
-4.08488e-06
-5.61979e-06
-3.87532e-06
-6.20532e-06
-3.60206e-06
-6.70495e-06
-3.26095e-06
-7.08632e-06
-2.85276e-06
-7.31113e-06
-2.38527e-06
-7.33626e-06
-1.87533e-06
-7.11592e-06
-1.35039e-06
-6.60536e-06
-8.49003e-07
-5.76591e-06
-4.19699e-07
-4.5709e-06
-1.17804e-07
-3.01173e-06
-1.10498e-06
-1.0758e-07
1.11597e-06
-3.80287e-07
3.00934e-06
-7.62667e-07
4.53021e-06
-1.20224e-06
5.67749e-06
-1.65517e-06
6.47534e-06
-2.08857e-06
6.96234e-06
-2.48052e-06
7.1839e-06
-2.81878e-06
7.18657e-06
-3.09881e-06
7.01403e-06
-3.32175e-06
6.70488e-06
-3.49249e-06
6.29171e-06
-3.61811e-06
5.80097e-06
-3.70678e-06
5.2535e-06
-3.76683e-06
4.66514e-06
-3.8062e-06
4.04757e-06
-3.83206e-06
3.40904e-06
-3.85058e-06
2.75509e-06
-3.86677e-06
2.08913e-06
-3.88438e-06
1.413e-06
-3.90586e-06
7.27473e-07
-3.93225e-06
3.26154e-08
-3.96316e-06
-6.71732e-07
-3.99661e-06
-1.38555e-06
-4.02903e-06
-2.10818e-06
-4.0551e-06
-2.83774e-06
-4.06774e-06
-3.57052e-06
-4.05816e-06
-4.30017e-06
-4.01602e-06
-5.01681e-06
-3.92986e-06
-5.70596e-06
-3.7878e-06
-6.34738e-06
-3.57877e-06
-6.91398e-06
-3.29418e-06
-7.37091e-06
-2.93021e-06
-7.67511e-06
-2.49056e-06
-7.7759e-06
-1.98948e-06
-7.61701e-06
-1.45435e-06
-7.14048e-06
-9.27246e-07
-6.29302e-06
-4.64249e-07
-5.0339e-06
-1.31927e-07
-3.34405e-06
-1.2369e-06
-1.21543e-07
1.23751e-06
-4.23615e-07
3.31142e-06
-8.3684e-07
4.94344e-06
-1.29735e-06
6.13799e-06
-1.7543e-06
6.93229e-06
-2.17211e-06
7.38016e-06
-2.52957e-06
7.54136e-06
-2.8173e-06
7.47429e-06
-3.03474e-06
7.23147e-06
-3.18729e-06
6.85743e-06
-3.28384e-06
6.38825e-06
-3.33499e-06
5.85213e-06
-3.35178e-06
5.27029e-06
-3.34482e-06
4.65817e-06
-3.32378e-06
4.02653e-06
-3.29715e-06
3.38242e-06
-3.27207e-06
2.73e-06
-3.25427e-06
2.07132e-06
-3.24806e-06
1.4068e-06
-3.25636e-06
7.35764e-07
-3.28057e-06
5.68293e-08
-3.32061e-06
-6.31693e-07
-3.37475e-06
-1.33141e-06
-3.43951e-06
-2.04342e-06
-3.50949e-06
-2.76776e-06
-3.57724e-06
-3.50278e-06
-3.6331e-06
-4.24431e-06
-3.66529e-06
-4.98462e-06
-3.66006e-06
-5.71119e-06
-3.6023e-06
-6.40513e-06
-3.47662e-06
-7.03966e-06
-3.26912e-06
-7.57841e-06
-2.97001e-06
-7.97421e-06
-2.57714e-06
-8.16878e-06
-2.1001e-06
-8.09404e-06
-1.5645e-06
-7.67609e-06
-1.01507e-06
-6.84244e-06
-5.16352e-07
-5.53262e-06
-1.4898e-07
-3.71143e-06
-1.38588e-06
-1.3968e-07
1.37719e-06
-4.77977e-07
3.64971e-06
-9.26088e-07
5.39155e-06
-1.40545e-06
6.61736e-06
-1.85746e-06
7.3843e-06
-2.24486e-06
7.76755e-06
-2.54899e-06
7.8455e-06
-2.76541e-06
7.69071e-06
-2.89928e-06
7.36534e-06
-2.96153e-06
6.91968e-06
-2.96589e-06
6.39261e-06
-2.92686e-06
5.8131e-06
-2.85844e-06
5.20187e-06
-2.77341e-06
4.57315e-06
-2.68297e-06
3.93609e-06
-2.59662e-06
3.29606e-06
-2.52218e-06
2.65556e-06
-2.46587e-06
2.01501e-06
-2.43236e-06
1.37329e-06
-2.42487e-06
7.28275e-07
-2.44515e-06
7.71113e-08
-2.49346e-06
-5.83389e-07
-2.56843e-06
-1.25644e-06
-2.66693e-06
-1.94492e-06
-2.78382e-06
-2.65087e-06
-2.91167e-06
-3.37493e-06
-3.0405e-06
-4.11548e-06
-3.15754e-06
-4.86758e-06
-3.24722e-06
-5.62151e-06
-3.29139e-06
-6.36096e-06
-3.27022e-06
-7.06084e-06
-3.16378e-06
-7.68485e-06
-2.95492e-06
-8.18307e-06
-2.63337e-06
-8.49032e-06
-2.20134e-06
-8.52607e-06
-1.67981e-06
-8.19762e-06
-1.11441e-06
-7.40785e-06
-5.78444e-07
-6.06859e-06
-1.70127e-07
-4.11974e-06
-1.55601e-06
-1.63929e-07
1.54112e-06
-5.47524e-07
4.03331e-06
-1.03439e-06
5.87842e-06
-1.52731e-06
7.11028e-06
-1.95986e-06
7.81685e-06
-2.29544e-06
8.10312e-06
-2.52102e-06
8.07108e-06
-2.63994e-06
7.80962e-06
-2.66523e-06
7.39064e-06
-2.61474e-06
6.86919e-06
-2.5077e-06
6.28556e-06
-2.36263e-06
5.66803e-06
-2.19634e-06
5.03558e-06
-2.02336e-06
4.40017e-06