/*--------------------------------*- C++ -*----------------------------------*\
  =========                 |
  \\      /  F ield         | OpenFOAM: The Open Source CFD Toolbox
   \\    /   O peration     | Website:  https://openfoam.org
    \\  /    A nd           | Version:  7
     \\/     M anipulation  |
\*---------------------------------------------------------------------------*/
FoamFile
{
    version     2.0;
    format      ascii;
    class       volVectorField;
    location    "0.2";
    object      U;
}
// * * * * * * * * * * * * * * * * * * * * * * * * * * * * * * * * * * * * * //

dimensions      [0 1 -1 0 0 0 0];

internalField   nonuniform List<vector> 
1600
(
(6.05881e-05 -6.03579e-05 0)
(0.000155977 -5.70011e-05 0)
(0.000156791 -6.97368e-06 0)
(6.44693e-06 5.24578e-05 0)
(-0.000303448 0.000107944 0)
(-0.000756537 0.000154769 0)
(-0.00132837 0.00019157 0)
(-0.00199198 0.000218389 0)
(-0.00272018 0.000235803 0)
(-0.00348669 0.000244557 0)
(-0.00426679 0.000245441 0)
(-0.00503762 0.000239238 0)
(-0.00577833 0.000226709 0)
(-0.00647016 0.000208588 0)
(-0.0070965 0.000185583 0)
(-0.00764286 0.000158386 0)
(-0.00809691 0.000127677 0)
(-0.00844852 9.41368e-05 0)
(-0.00868976 5.84541e-05 0)
(-0.008815 2.13372e-05 0)
(-0.00882095 -1.64803e-05 0)
(-0.00870676 -5.42322e-05 0)
(-0.00847411 -9.11156e-05 0)
(-0.00812729 -0.000126292 0)
(-0.00767333 -0.000158891 0)
(-0.00712199 -0.000188014 0)
(-0.00648583 -0.00021275 0)
(-0.00578019 -0.000232183 0)
(-0.00502311 -0.000245415 0)
(-0.00423516 -0.000251581 0)
(-0.00343927 -0.000249867 0)
(-0.00266036 -0.000239534 0)
(-0.00192493 -0.000219948 0)
(-0.00126047 -0.000190626 0)
(-0.000694542 -0.000151369 0)
(-0.00025337 -0.000102598 0)
(4.05531e-05 -4.61944e-05 0)
(0.000174099 1.26118e-05 0)
(0.000160213 6.01341e-05 0)
(6.02217e-05 5.99856e-05 0)
(5.86782e-05 -0.000156651 0)
(7.24954e-05 -6.91739e-05 0)
(-0.000178555 0.000182463 0)
(-0.000772713 0.000476886 0)
(-0.00172446 0.000760788 0)
(-0.00300724 0.00100903 0)
(-0.00457254 0.0012103 0)
(-0.00636097 0.00136069 0)
(-0.00830882 0.00146013 0)
(-0.0103519 0.0015105 0)
(-0.0124279 0.00151477 0)
(-0.014478 0.00147651 0)
(-0.0164478 0.00139957 0)
(-0.0182876 0.00128801 0)
(-0.0199531 0.00114596 0)
(-0.0214056 0.000977623 0)
(-0.0226121 0.000787254 0)
(-0.0235453 0.000579185 0)
(-0.0241842 0.000357845 0)
(-0.0245139 0.000127797 0)
(-0.0245259 -0.000106248 0)
(-0.0242182 -0.000339404 0)
(-0.023596 -0.000566615 0)
(-0.0226711 -0.000782663 0)
(-0.0214628 -0.000982206 0)
(-0.0199974 -0.00115983 0)
(-0.0183086 -0.00131012 0)
(-0.0164371 -0.0014278 0)
(-0.0144304 -0.0015078 0)
(-0.012342 -0.00154548 0)
(-0.010231 -0.00153674 0)
(-0.00816081 -0.00147831 0)
(-0.00619742 -0.00136803 0)
(-0.00440757 -0.00120534 0)
(-0.00285564 -0.000992144 0)
(-0.00159935 -0.00073448 0)
(-0.000683132 -0.000445897 0)
(-0.000127123 -0.00015354 0)
(9.18177e-05 8.82022e-05 0)
(6.16819e-05 0.000160599 0)
(1.14448e-05 -0.000162487 0)
(-0.00017189 0.000178731 0)
(-0.00080381 0.000813898 0)
(-0.00193039 0.00153593 0)
(-0.00355248 0.00223793 0)
(-0.00563418 0.00286043 0)
(-0.00811068 0.00337187 0)
(-0.0109005 0.00375787 0)
(-0.0139143 0.00401425 0)
(-0.01706 0.00414297 0)
(-0.020247 0.00414971 0)
(-0.0233883 0.00404245 0)
(-0.0264029 0.00383061 0)
(-0.0292162 0.0035245 0)
(-0.0317613 0.00313504 0)
(-0.0339796 0.00267351 0)
(-0.035821 0.00215156 0)
(-0.0372442 0.00158115 0)
(-0.0382172 0.000974538 0)
(-0.0387176 0.000344399 0)
(-0.0387327 -0.000296204 0)
(-0.0382601 -0.00093378 0)
(-0.0373077 -0.00155443 0)
(-0.035894 -0.0021439 0)
(-0.0340484 -0.00268769 0)
(-0.0318112 -0.00317124 0)
(-0.0292333 -0.00358015 0)
(-0.0263761 -0.00390048 0)
(-0.0233106 -0.00411918 0)
(-0.0201169 -0.00422447 0)
(-0.0168821 -0.00420649 0)
(-0.0136993 -0.00405798 0)
(-0.0106642 -0.00377524 0)
(-0.00787214 -0.00335956 0)
(-0.00541368 -0.00281935 0)
(-0.00336821 -0.00217395 0)
(-0.00179537 -0.00145997 0)
(-0.000723062 -0.000741169 0)
(-0.000138938 -0.000126688 0)
(1.7628e-05 0.000179838 0)
(-4.539e-05 -2.17673e-05 0)
(-0.000464169 0.000768093 0)
(-0.0015347 0.00194094 0)
(-0.0032403 0.00322552 0)
(-0.00555189 0.00446632 0)
(-0.00841853 0.00556852 0)
(-0.0117593 0.00647716 0)
(-0.0154742 0.00716413 0)
(-0.0194537 0.00761882 0)
(-0.0235843 0.00784191 0)
(-0.0277534 0.00784152 0)
(-0.031852 0.00763067 0)
(-0.0357779 0.0072256 0)
(-0.0394367 0.0066447 0)
(-0.0427433 0.00590784 0)
(-0.0456229 0.00503593 0)
(-0.0480115 0.00405069 0)
(-0.0498563 0.0029746 0)
(-0.0511165 0.00183083 0)
(-0.0517636 0.000643289 0)
(-0.0517815 -0.000563368 0)
(-0.0511674 -0.00176373 0)
(-0.0499315 -0.00293169 0)
(-0.048098 -0.00404058 0)
(-0.0457043 -0.0050634 0)
(-0.0428021 -0.00597318 0)
(-0.0394563 -0.0067434 0)
(-0.0357448 -0.00734863 0)
(-0.0317576 -0.00776527 0)
(-0.0275955 -0.00797243 0)
(-0.0233681 -0.00795312 0)
(-0.0191915 -0.00769554 0)
(-0.0151845 -0.00719499 0)
(-0.011465 -0.00645625 0)
(-0.00814415 -0.0054972 0)
(-0.00531994 -0.00435428 0)
(-0.00306774 -0.00309101 0)
(-0.00142939 -0.00180952 0)
(-0.000419944 -0.000669674 0)
(-3.66939e-05 5.95638e-05 0)
(-0.000100428 0.000278701 0)
(-0.000760778 0.00172879 0)
(-0.00228858 0.00359071 0)
(-0.00459111 0.00555373 0)
(-0.00759893 0.00742531 0)
(-0.01124 0.00908043 0)
(-0.0154148 0.0104422 0)
(-0.0200051 0.0114686 0)
(-0.0248835 0.0121416 0)
(-0.0299186 0.0124603 0)
(-0.0349798 0.012435 0)
(-0.0399405 0.012084 0)
(-0.0446814 0.0114313 0)
(-0.0490924 0.0105046 0)
(-0.0530736 0.00933434 0)
(-0.0565374 0.00795281 0)
(-0.0594083 0.00639392 0)
(-0.0616247 0.00469286 0)
(-0.0631383 0.00288603 0)
(-0.0639157 0.00101102 0)
(-0.0639382 -0.000893426 0)
(-0.0632023 -0.00278743 0)
(-0.0617203 -0.00463012 0)
(-0.0595204 -0.00637984 0)
(-0.0566469 -0.00799455 0)
(-0.0531602 -0.00943239 0)
(-0.0491362 -0.0106524 0)
(-0.0446661 -0.0116156 0)
(-0.0398551 -0.0122859 0)
(-0.0348206 -0.012632 0)
(-0.0296901 -0.0126286 0)
(-0.0245986 -0.0122592 0)
(-0.019684 -0.0115181 0)
(-0.0150833 -0.0104145 0)
(-0.0109264 -0.00897668 0)
(-0.00732993 -0.00725901 0)
(-0.004388 -0.005351 0)
(-0.00216266 -0.00338895 0)
(-0.000706929 -0.00157312 0)
(-8.95818e-05 -0.000214838 0)
(-0.000150628 0.000732487 0)
(-0.00104527 0.00306155 0)
(-0.00302787 0.00577046 0)
(-0.00592719 0.0085279 0)
(-0.00962823 0.0111159 0)
(-0.0140332 0.0133862 0)
(-0.0190208 0.0152439 0)
(-0.0244535 0.0166346 0)
(-0.0301863 0.0175341 0)
(-0.0360716 0.0179399 0)
(-0.0419631 0.017865 0)
(-0.0477195 0.0173338 0)
(-0.0532076 0.0163788 0)
(-0.0583041 0.0150381 0)
(-0.0628977 0.0133539 0)
(-0.0668901 0.0113716 0)
(-0.0701971 0.00913876 0)
(-0.0727495 0.0067052 0)
(-0.0744934 0.00412236 0)
(-0.0753911 0.00144345 0)
(-0.0754218 -0.0012767 0)
(-0.0745812 -0.00398172 0)
(-0.0728831 -0.00661389 0)
(-0.0703587 -0.0091145 0)
(-0.0670572 -0.0114244 0)
(-0.0630459 -0.0134849 0)
(-0.0584094 -0.0152386 0)
(-0.0532494 -0.0166311 0)
(-0.0476831 -0.0176124 0)
(-0.0418416 -0.0181391 0)
(-0.0358675 -0.018177 0)
(-0.0299117 -0.0177035 0)
(-0.0241294 -0.0167121 0)
(-0.0186751 -0.0152155 0)
(-0.0136978 -0.0132523 0)
(-0.00933445 -0.0108932 0)
(-0.00570115 -0.00825067 0)
(-0.00288526 -0.00548932 0)
(-0.000983151 -0.00283954 0)
(-0.000137818 -0.000637697 0)
(-0.000195895 0.00132926 0)
(-0.00131332 0.00475496 0)
(-0.0037388 0.00847257 0)
(-0.0072254 0.0121424 0)
(-0.011611 0.0155309 0)
(-0.0167689 0.0184737 0)
(-0.0225534 0.0208626 0)
(-0.028806 0.0226342 0)
(-0.0353637 0.0237599 0)
(-0.0420629 0.0242371 0)
(-0.048743 0.0240829 0)
(-0.0552497 0.0233284 0)
(-0.0614378 0.0220158 0)
(-0.0671735 0.0201946 0)
(-0.0723357 0.0179203 0)
(-0.0768179 0.0152522 0)
(-0.0805288 0.0122533 0)
(-0.0833931 0.00898915 0)
(-0.0853525 0.00552781 0)
(-0.0863658 0.00193957 0)
(-0.0864099 -0.00170314 0)
(-0.0854801 -0.00532586 0)
(-0.0835907 -0.00885244 0)
(-0.0807748 -0.0122055 0)
(-0.0770853 -0.0153071 0)
(-0.0725944 -0.01808 0)
(-0.0673935 -0.0204487 0)
(-0.0615923 -0.0223418 0)
(-0.055318 -0.0236938 0)
(-0.0487131 -0.0244477 0)
(-0.0419332 -0.0245587 0)
(-0.035144 -0.0239976 0)
(-0.0285168 -0.0227549 0)
(-0.0222242 -0.0208462 0)
(-0.0164349 -0.0183181 0)
(-0.0113084 -0.0152552 0)
(-0.00698626 -0.0117891 0)
(-0.00358438 -0.00810644 0)
(-0.00124447 -0.0044596 0)
(-0.000181283 -0.00119932 0)
(-0.000237165 0.00205932 0)
(-0.00156615 0.00679451 0)
(-0.00442033 0.0116836 0)
(-0.00848162 0.0163859 0)
(-0.0135411 0.0206593 0)
(-0.0194415 0.0243301 0)
(-0.0260106 0.0272816 0)
(-0.0330675 0.0294457 0)
(-0.0404302 0.030792 0)
(-0.0479191 0.0313201 0)
(-0.0553597 0.0310527 0)
(-0.0625857 0.0300295 0)
(-0.0694415 0.0283034 0)
(-0.075784 0.0259367 0)
(-0.0814846 0.022999 0)
(-0.0864299 0.0195653 0)
(-0.0905228 0.0157145 0)
(-0.0936836 0.0115293 0)
(-0.0958499 0.00709536 0)
(-0.096978 0.00250115 0)
(-0.0970427 -0.00216216 0)
(-0.0960383 -0.00680092 0)
(-0.093979 -0.0113193 0)
(-0.090899 -0.0156201 0)
(-0.0868534 -0.0196052 0)
(-0.0819177 -0.0231773 0)
(-0.0761881 -0.0262415 0)
(-0.0697808 -0.0287075 0)
(-0.062831 -0.0304927 0)
(-0.0554912 -0.031525 0)
(-0.0479289 -0.0317472 0)
(-0.0403236 -0.0311211 0)
(-0.032863 -0.0296328 0)
(-0.0257382 -0.0272982 0)
(-0.0191395 -0.0241694 0)
(-0.0132513 -0.0203417 0)
(-0.00824268 -0.0159612 0)
(-0.0042608 -0.0112317 0)
(-0.00149274 -0.00642166 0)
(-0.000220995 -0.00189085 0)
(-0.000275578 0.00291491 0)
(-0.00180711 0.00916685 0)
(-0.00507742 0.0153902 0)
(-0.00970157 0.0212463 0)
(-0.0154249 0.0264906 0)
(-0.0220587 0.0309448 0)
(-0.0294031 0.0344892 0)
(-0.0372533 0.0370545 0)
(-0.0454075 0.0386124 0)
(-0.0536695 0.0391675 0)
(-0.0618512 0.0387503 0)
(-0.0697749 0.037411 0)
(-0.0772756 0.0352149 0)
(-0.0842023 0.0322385 0)
(-0.0904198 0.0285668 0)
(-0.0958096 0.024291 0)
(-0.10027 0.0195075 0)
(-0.103718 0.0143167 0)
(-0.106087 0.00882261 0)
(-0.107332 0.00313263 0)
(-0.107426 -0.00264263 0)
(-0.106362 -0.00838954 0)
(-0.104152 -0.0139918 0)
(-0.100832 -0.0193313 0)
(-0.0964576 -0.0242888 0)
(-0.0911056 -0.0287458 0)
(-0.0848757 -0.0325863 0)
(-0.077889 -0.0356997 0)
(-0.0702872 -0.0379843 0)
(-0.0622315 -0.0393509 0)
(-0.0539006 -0.0397274 0)
(-0.0454877 -0.0390646 0)
(-0.0371971 -0.0373412 0)
(-0.0292397 -0.0345704 0)
(-0.021829 -0.0308066 0)
(-0.0151763 -0.026152 0)
(-0.00948073 -0.0207635 0)
(-0.00492196 -0.014858 0)
(-0.00173223 -0.0087163 0)
(-0.000258252 -0.00270577 0)
(-0.000312191 0.00389054 0)
(-0.0020401 0.0118617 0)
(-0.00571738 0.0195812 0)
(-0.0108955 0.0267141 0)
(-0.0172751 0.0330162 0)
(-0.0246356 0.0383099 0)
(-0.0327484 0.0424767 0)
(-0.041384 0.0454505 0)
(-0.0503198 0.0472088 0)
(-0.0593428 0.0477645 0)
(-0.0682511 0.0471587 0)
(-0.0768562 0.0454544 0)
(-0.0849843 0.0427313 0)
(-0.0924778 0.0390816 0)
(-0.0991962 0.0346069 0)
(-0.105017 0.0294159 0)
(-0.109834 0.023623 0)
(-0.113563 0.0173469 0)
(-0.116135 0.0107105 0)
(-0.117501 0.00384054 0)
(-0.117635 -0.0031325 0)
(-0.116525 -0.0100747 0)
(-0.114185 -0.0168488 0)
(-0.110648 -0.023315 0)
(-0.10597 -0.0293322 0)
(-0.100227 -0.0347595 0)
(-0.0935219 -0.0394585 0)
(-0.0859782 -0.0432967 0)
(-0.0777432 -0.0461509 0)
(-0.0689856 -0.0479124 0)
(-0.0598945 -0.0484919 0)
(-0.0506771 -0.0478255 0)
(-0.0415545 -0.0458816 0)
(-0.032759 -0.042667 0)
(-0.0245288 -0.0382347 0)
(-0.017104 -0.0326899 0)
(-0.010716 -0.0261971 0)
(-0.00557819 -0.0189828 0)
(-0.00196801 -0.0113386 0)
(-0.000294314 -0.00364041 0)
(-0.000347905 0.00498295 0)
(-0.00226889 0.0148727 0)
(-0.00634808 0.0242496 0)
(-0.0120751 0.0327824 0)
(-0.0191065 0.0402305 0)
(-0.0271896 0.04642 0)
(-0.0360663 0.051238 0)
(-0.0454812 0.0546261 0)
(-0.0551905 0.0565716 0)
(-0.0649641 0.0570993 0)
(-0.0745864 0.0562642 0)
(-0.0838584 0.0541447 0)
(-0.0925984 0.050837 0)
(-0.100643 0.0464509 0)
(-0.107848 0.041106 0)
(-0.114087 0.0349294 0)
(-0.119253 0.028054 0)
(-0.123258 0.0206175 0)
(-0.126033 0.0127618 0)
(-0.127527 0.00463302 0)
(-0.127711 -0.00361857 0)
(-0.126573 -0.0118386 0)
(-0.124123 -0.0198687 0)
(-0.120393 -0.0275472 0)
(-0.115436 -0.0347103 0)
(-0.10933 -0.0411938 0)
(-0.102174 -0.0468355 0)
(-0.0940956 -0.051479 0)
(-0.0852452 -0.0549776 0)
(-0.0757983 -0.0572002 0)
(-0.0659538 -0.0580368 0)
(-0.0559323 -0.0574054 0)
(-0.0459729 -0.0552599 0)
(-0.0363297 -0.0515969 0)
(-0.0272678 -0.0464637 0)
(-0.0190582 -0.0399649 0)
(-0.0119662 -0.0322687 0)
(-0.00624076 -0.0236095 0)
(-0.00220519 -0.014289 0)
(-0.000330323 -0.00469393 0)
(-0.00038347 0.00619086 0)
(-0.00249692 0.0181971 0)
(-0.00697709 0.0293923 0)
(-0.0132522 0.0394487 0)
(-0.0209345 0.0481306 0)
(-0.0297385 0.0552717 0)
(-0.0393759 0.0607687 0)
(-0.0495648 0.064575 0)
(-0.0600397 0.0666921 0)
(-0.0705529 0.0671608 0)
(-0.0808756 0.0660534 0)
(-0.0907987 0.0634668 0)
(-0.100134 0.0595165 0)
(-0.108713 0.0543315 0)
(-0.116388 0.0480509 0)
(-0.123032 0.0408212 0)
(-0.128537 0.0327944 0)
(-0.132814 0.0241271 0)
(-0.135792 0.0149803 0)
(-0.137421 0.00551926 0)
(-0.137668 -0.00408635 0)
(-0.136519 -0.013662 0)
(-0.133983 -0.0230284 0)
(-0.130086 -0.0320021 0)
(-0.124879 -0.0403961 0)
(-0.118438 -0.0480221 0)
(-0.11086 -0.0546928 0)
(-0.102272 -0.0602259 0)
(-0.092827 -0.0644488 0)
(-0.0827055 -0.0672045 0)
(-0.0721154 -0.0683587 0)
(-0.0612905 -0.0678073 0)
(-0.0504881 -0.0654848 0)
(-0.0399855 -0.0613729 0)
(-0.0300759 -0.0555086 0)
(-0.0210634 -0.0479919 0)
(-0.0132495 -0.0389917 0)
(-0.00692092 -0.0287483 0)
(-0.00244865 -0.0175735 0)
(-0.000367295 -0.00586826 0)
(-0.000419511 0.00751472 0)
(-0.00272723 0.0218358 0)
(-0.00761137 0.0350106 0)
(-0.0144377 0.0467138 0)
(-0.0227733 0.0567168 0)
(-0.0322987 0.0648636 0)
(-0.0426945 0.0710647 0)
(-0.0536516 0.0752902 0)
(-0.0648823 0.0775601 0)
(-0.0761214 0.0779355 0)
(-0.0871271 0.0765103 0)
(-0.0976814 0.0734031 0)
(-0.10759 0.0687513 0)
(-0.116682 0.0627055 0)
(-0.124808 0.0554258 0)
(-0.13184 0.0470787 0)
(-0.137671 0.0378359 0)
(-0.142212 0.027873 0)
(-0.145393 0.0173694 0)
(-0.147162 0.00650891 0)
(-0.147485 -0.00451999 0)
(-0.146345 -0.0155235 0)
(-0.143748 -0.0263019 0)
(-0.139715 -0.0366503 0)
(-0.134293 -0.0463585 0)
(-0.127551 -0.0552134 0)
(-0.119586 -0.0630014 0)
(-0.11052 -0.0695123 0)
(-0.100507 -0.0745447 0)
(-0.0897312 -0.0779125 0)
(-0.0784076 -0.0794525 0)
(-0.066783 -0.0790336 0)
(-0.0551326 -0.0765657 0)
(-0.0437578 -0.0720101 0)
(-0.0329816 -0.0653886 0)
(-0.0231434 -0.0567918 0)
(-0.0145837 -0.046386 0)
(-0.00762951 -0.0344158 0)
(-0.002703 -0.0212035 0)
(-0.00040614 -0.00716781 0)
(-0.000456561 0.00895649 0)
(-0.00296251 0.0257931 0)
(-0.00825721 0.0411094 0)
(-0.0156417 0.0545823 0)
(-0.0246356 0.0659916 0)
(-0.0348844 0.0751954 0)
(-0.0460362 0.082122 0)
(-0.0577538 0.086763 0)
(-0.0697267 0.0891621 0)
(-0.0816729 0.0894059 0)
(-0.0933382 0.0876137 0)
(-0.104497 0.08393 0)
(-0.11495 0.078517 0)
(-0.124525 0.0715493 0)
(-0.133074 0.0632092 0)
(-0.140471 0.0536846 0)
(-0.146609 0.0431666 0)
(-0.151402 0.0318495 0)
(-0.154782 0.0199308 0)
(-0.156696 0.00761142 0)
(-0.157108 -0.00490243 0)
(-0.156 -0.0173988 0)
(-0.15337 -0.0296589 0)
(-0.149238 -0.0414567 0)
(-0.143641 -0.0525595 0)
(-0.136643 -0.062729 0)
(-0.128334 -0.0717242 0)
(-0.118831 -0.079305 0)
(-0.108287 -0.0852382 0)
(-0.096885 -0.0893047 0)
(-0.0848478 -0.0913078 0)
(-0.0724326 -0.0910833 0)
(-0.0599328 -0.0885109 0)
(-0.047674 -0.0835251 0)
(-0.0360108 -0.0761262 0)
(-0.0253204 -0.0663905 0)
(-0.0159853 -0.0544779 0)
(-0.0083768 -0.0406352 0)
(-0.00297253 -0.0251958 0)
(-0.000447694 -0.00859933 0)
(-0.000495093 0.0105195 0)
(-0.00320522 0.0300759 0)
(-0.00892039 0.0476972 0)
(-0.0168731 0.0630616 0)
(-0.026533 0.0759597 0)
(-0.0375078 0.0862669 0)
(-0.0494115 0.0939345 0)
(-0.0618781 0.0989809 0)
(-0.0745742 0.101479 0)
(-0.0872009 0.101547 0)
(-0.099493 0.0993342 0)
(-0.111219 0.095015 0)
(-0.122177 0.08878 0)
(-0.132196 0.0808299 0)
(-0.14113 0.0713713 0)
(-0.148857 0.0606137 0)
(-0.155276 0.048768 0)
(-0.160303 0.0360465 0)
(-0.163873 0.0226631 0)
(-0.165933 0.00883516 0)
(-0.166448 -0.00521561 0)
(-0.165394 -0.0192608 0)
(-0.162767 -0.0330639 0)
(-0.158577 -0.0463796 0)
(-0.152855 -0.0589529 0)
(-0.145655 -0.0705206 0)
(-0.137057 -0.0808134 0)
(-0.127172 -0.0895597 0)
(-0.116145 -0.0964914 0)
(-0.104159 -0.101352 0)
(-0.0914394 -0.103906 0)
(-0.0782522 -0.10395 0)
(-0.0649079 -0.101325 0)
(-0.051757 -0.0959334 0)
(-0.0391867 -0.0877459 0)
(-0.0276149 -0.0768183 0)
(-0.0174702 -0.0632994 0)
(-0.00917254 -0.0474358 0)
(-0.00326134 -0.029572 0)
(-0.000492747 -0.0101718 0)
(-0.000535559 0.0122081 0)
(-0.00345772 0.0346943 0)
(-0.00960643 0.0547855 0)
(-0.0181406 0.0721618 0)
(-0.0284756 0.0866266 0)
(-0.0401787 0.0980769 0)
(-0.0528277 0.106493 0)
(-0.0660262 0.111926 0)
(-0.079418 0.114485 0)
(-0.0926882 0.114325 0)
(-0.105562 0.111631 0)
(-0.117804 0.106614 0)
(-0.129213 0.0994942 0)
(-0.139621 0.0905025 0)
(-0.148889 0.0798707 0)
(-0.156901 0.0678307 0)
(-0.163563 0.054613 0)
(-0.168796 0.0404466 0)
(-0.17254 0.0255607 0)
(-0.174745 0.0101864 0)
(-0.175373 -0.0054409 0)
(-0.1744 -0.0210789 0)
(-0.171814 -0.0364757 0)
(-0.167617 -0.0513683 0)
(-0.161831 -0.0654812 0)
(-0.154496 -0.0785269 0)
(-0.14568 -0.0902072 0)
(-0.135482 -0.100217 0)
(-0.124039 -0.108252 0)
(-0.111527 -0.114011 0)
(-0.0981698 -0.117216 0)
(-0.0842421 -0.117616 0)
(-0.0700683 -0.115007 0)
(-0.0560232 -0.109248 0)
(-0.0425286 -0.100272 0)
(-0.0300454 -0.0881083 0)
(-0.019053 -0.0728874 0)
(-0.0100261 -0.0548524 0)
(-0.00357345 -0.0343582 0)
(-0.000542081 -0.0118961 0)
(-0.000578431 0.0140283 0)
(-0.00372245 0.0396607 0)
(-0.010321 0.0623892 0)
(-0.0194526 0.0818952 0)
(-0.0304732 0.0979982 0)
(-0.0429055 0.110622 0)
(-0.0562884 0.119783 0)
(-0.070194 0.125571 0)
(-0.084243 0.128141 0)
(-0.0981059 0.127691 0)
(-0.111501 0.12445 0)
(-0.12419 0.118666 0)
(-0.135979 0.110597 0)
(-0.146704 0.100506 0)
(-0.156237 0.0886512 0)
(-0.164472 0.075287 0)
(-0.171324 0.060663 0)
(-0.176724 0.0450237 0)
(-0.180618 0.0286114 0)
(-0.182958 0.0116682 0)
(-0.18371 -0.00555977 0)
(-0.182844 -0.0228193 0)
(-0.180343 -0.0398462 0)
(-0.176199 -0.0563626 0)
(-0.17042 -0.0720746 0)
(-0.163032 -0.0866714 0)
(-0.154087 -0.0998266 0)
(-0.143667 -0.111201 0)
(-0.131895 -0.120447 0)
(-0.118935 -0.127221 0)
(-0.105007 -0.131191 0)
(-0.0903878 -0.132052 0)
(-0.0754136 -0.129545 0)
(-0.0604826 -0.123475 0)
(-0.0460516 -0.113728 0)
(-0.0326283 -0.100295 0)
(-0.0207478 -0.0832829 0)
(-0.0109467 -0.0629249 0)
(-0.00391287 -0.0395855 0)
(-0.0005965 -0.0137856 0)
(-0.000624243 0.0159869 0)
(-0.00400216 0.0449908 0)
(-0.0110704 0.070526 0)
(-0.0208184 0.0922759 0)
(-0.0325356 0.11008 0)
(-0.0456954 0.123896 0)
(-0.0597945 0.133782 0)
(-0.0743718 0.13988 0)
(-0.0890253 0.142397 0)
(-0.103412 0.141582 0)
(-0.117247 0.137716 0)
(-0.130295 0.131091 0)
(-0.142368 0.122008 0)
(-0.153316 0.110761 0)
(-0.163024 0.097638 0)
(-0.1714 0.0829172 0)
(-0.178374 0.0668652 0)
(-0.183888 0.0497403 0)
(-0.187895 0.0317948 0)
(-0.190356 0.0132788 0)
(-0.191237 -0.00555461 0)
(-0.190506 -0.0244453 0)
(-0.188139 -0.0431206 0)
(-0.184115 -0.0612913 0)
(-0.178429 -0.0786482 0)
(-0.171088 -0.0948597 0)
(-0.162124 -0.109572 0)
(-0.151596 -0.12241 0)
(-0.139607 -0.132984 0)
(-0.126305 -0.140899 0)
(-0.111897 -0.145764 0)
(-0.0966577 -0.147211 0)
(-0.0809313 -0.144914 0)
(-0.0651369 -0.138612 0)
(-0.0497665 -0.128132 0)
(-0.0353779 -0.113414 0)
(-0.0225681 -0.0945299 0)
(-0.0119437 -0.0716983 0)
(-0.00428382 -0.0452891 0)
(-0.000656874 -0.0158554 0)
(-0.000673661 0.0180927 0)
(-0.00430023 0.0507032 0)
(-0.011862 0.0792169 0)
(-0.0222486 0.10332 0)
(-0.034674 0.122876 0)
(-0.0485558 0.137885 0)
(-0.0633444 0.148459 0)
(-0.0785441 0.154802 0)
(-0.0937309 0.157182 0)
(-0.108552 0.155913 0)
(-0.122721 0.151332 0)
(-0.136011 0.143786 0)
(-0.148247 0.133618 0)
(-0.159297 0.121162 0)
(-0.169065 0.106735 0)
(-0.177478 0.0906361 0)
(-0.184483 0.0731497 0)
(-0.19004 0.0545448 0)
(-0.194112 0.0350802 0)
(-0.19667 0.0150102 0)
(-0.19768 -0.00540985 0)
(-0.197111 -0.0259176 0)
(-0.19493 -0.0462367 0)
(-0.191106 -0.0660714 0)
(-0.185613 -0.0851011 0)
(-0.178439 -0.102977 0)
(-0.169588 -0.119318 0)
(-0.159094 -0.133717 0)
(-0.147031 -0.145739 0)
(-0.133523 -0.154931 0)
(-0.118758 -0.160839 0)
(-0.102999 -0.163019 0)
(-0.0865941 -0.161068 0)
(-0.0699786 -0.154642 0)
(-0.0536794 -0.143493 0)
(-0.038307 -0.127496 0)
(-0.0245271 -0.106675 0)
(-0.013027 -0.0812217 0)
(-0.00469092 -0.0515091 0)
(-0.000724184 -0.0181231 0)
(-0.00072756 0.0203562 0)
(-0.00462097 0.056821 0)
(-0.0127056 0.0884873 0)
(-0.0237568 0.115044 0)
(-0.0369017 0.136388 0)
(-0.0514943 0.152571 0)
(-0.0669342 0.163771 0)
(-0.0826894 0.170267 0)
(-0.0983152 0.172404 0)
(-0.113452 0.170571 0)
(-0.127819 0.165173 0)
(-0.141202 0.156616 0)
(-0.153449 0.145293 0)
(-0.164449 0.131578 0)
(-0.174132 0.115818 0)
(-0.182451 0.0983348 0)
(-0.189375 0.0794262 0)
(-0.194883 0.0593688 0)
(-0.198956 0.0384244 0)
(-0.201573 0.0168463 0)
(-0.202707 -0.00511328 0)
(-0.202326 -0.0271952 0)
(-0.200388 -0.0491255 0)
(-0.19685 -0.0706074 0)
(-0.191667 -0.0913144 0)
(-0.1848 -0.110885 0)
(-0.176223 -0.128916 0)
(-0.165936 -0.144966 0)
(-0.153977 -0.158555 0)
(-0.140437 -0.169172 0)
(-0.125475 -0.176288 0)
(-0.109335 -0.179376 0)
(-0.0923572 -0.177936 0)
(-0.0749893 -0.171529 0)
(-0.0577903 -0.159811 0)
(-0.0414262 -0.142569 0)
(-0.0266386 -0.119764 0)
(-0.0142073 -0.0915489 0)
(-0.00513947 -0.0582905 0)
(-0.000799593 -0.0206088 0)
(-0.000787124 0.0227904 0)
(-0.0049702 0.0633725 0)
(-0.0136137 0.0983675 0)
(-0.0253602 0.127469 0)
(-0.0392355 0.150615 0)
(-0.0545204 0.167922 0)
(-0.0705579 0.179655 0)
(-0.0867786 0.186182 0)
(-0.10272 0.187944 0)
(-0.118021 0.185415 0)
(-0.132413 0.179081 0)
(-0.145704 0.169414 0)
(-0.15777 0.156863 0)
(-0.168532 0.141844 0)
(-0.177953 0.124735 0)
(-0.186016 0.105878 0)
(-0.192719 0.0855811 0)
(-0.198066 0.0641251 0)
(-0.202056 0.0417694 0)
(-0.204683 0.0187608 0)
(-0.205926 -0.00465761 0)
(-0.205754 -0.0282367 0)
(-0.20412 -0.0517116 0)
(-0.200965 -0.0747916 0)
(-0.196222 -0.0971509 0)
(-0.189824 -0.118421 0)
(-0.181709 -0.138182 0)
(-0.171838 -0.155963 0)
(-0.160202 -0.171237 0)
(-0.146849 -0.183433 0)
(-0.131897 -0.191941 0)
(-0.115557 -0.196139 0)
(-0.0981539 -0.195415 0)
(-0.0801369 -0.189212 0)
(-0.0620931 -0.177064 0)
(-0.0447449 -0.158652 0)
(-0.0289174 -0.133844 0)
(-0.0154971 -0.102738 0)
(-0.00563578 -0.065684 0)
(-0.000884536 -0.0233358 0)
(-0.000853999 0.0254121 0)
(-0.00535583 0.0703929 0)
(-0.0146034 0.108894 0)
(-0.0270821 0.140617 0)
(-0.0416976 0.16555 0)
(-0.0576455 0.183898 0)
(-0.0742065 0.196029 0)
(-0.0907736 0.202428 0)
(-0.10687 0.203646 0)
(-0.122143 0.200263 0)
(-0.136342 0.192855 0)
(-0.149311 0.181971 0)
(-0.160961 0.168119 0)
(-0.171257 0.151759 0)
(-0.1802 0.1333 0)
(-0.187812 0.1131 0)
(-0.194126 0.091475 0)
(-0.199173 0.0687047 0)
(-0.202978 0.0450404 0)
(-0.205549 0.0207157 0)
(-0.206878 -0.00404219 0)
(-0.206933 -0.0290017 0)
(-0.205662 -0.0539146 0)
(-0.202993 -0.0785043 0)
(-0.198837 -0.102454 0)
(-0.193093 -0.125396 0)
(-0.18566 -0.146901 0)
(-0.176449 -0.166473 0)
(-0.1654 -0.183543 0)
(-0.152503 -0.197477 0)
(-0.137821 -0.207579 0)
(-0.12152 -0.213119 0)
(-0.103891 -0.213358 0)
(-0.0853727 -0.207593 0)
(-0.0665733 -0.195211 0)
(-0.0482703 -0.175749 0)
(-0.03138 -0.148957 0)
(-0.0169117 -0.11485 0)
(-0.00618776 -0.0737468 0)
(-0.000980848 -0.0263309 0)
(-0.000930507 0.0282426 0)
(-0.00578879 0.0779275 0)
(-0.0156976 0.120114 0)
(-0.0289532 0.154511 0)
(-0.0443164 0.18118 0)
(-0.0608834 0.200437 0)
(-0.0778666 0.212783 0)
(-0.0946227 0.218845 0)
(-0.110669 0.219311 0)
(-0.125668 0.214885 0)
(-0.139407 0.206247 0)
(-0.151771 0.19403 0)
(-0.162723 0.178807 0)
(-0.172278 0.16108 0)
(-0.180487 0.141288 0)
(-0.187418 0.119802 0)
(-0.193143 0.0969407 0)
(-0.197728 0.0729758 0)
(-0.201223 0.0481442 0)
(-0.203658 0.0226595 0)
(-0.205034 -0.00327475 0)
(-0.205327 -0.0294523 0)
(-0.20448 -0.0556505 0)
(-0.202407 -0.081616 0)
(-0.198995 -0.10705 0)
(-0.19411 -0.131597 0)
(-0.187607 -0.154825 0)
(-0.179342 -0.176221 0)
(-0.169192 -0.195182 0)
(-0.157078 -0.21101 0)
(-0.142992 -0.222923 0)
(-0.127032 -0.23007 0)
(-0.10944 -0.231565 0)
(-0.0906261 -0.226533 0)
(-0.071206 -0.214176 0)
(-0.0520079 -0.19385 0)
(-0.0340457 -0.165143 0)
(-0.0184697 -0.127954 0)
(-0.00680561 -0.0825442 0)
(-0.00109095 -0.0296257 0)
(-0.00101995 0.0313102 0)
(-0.00628431 0.0860345 0)
(-0.016928 0.132082 0)
(-0.0310143 0.169179 0)
(-0.0471281 0.197483 0)
(-0.064249 0.217455 0)
(-0.0815162 0.229769 0)
(-0.0982546 0.235229 0)
(-0.113987 0.234689 0)
(-0.128407 0.228998 0)
(-0.141353 0.218954 0)
(-0.152771 0.205283 0)
(-0.162687 0.188623 0)
(-0.17118 0.169521 0)
(-0.178358 0.148437 0)
(-0.184342 0.125753 0)
(-0.189249 0.101783 0)
(-0.193182 0.0767829 0)
(-0.196223 0.0509685 0)
(-0.198422 0.0245259 0)
(-0.199798 -0.00237307 0)
(-0.200331 -0.029556 0)
(-0.199963 -0.0568348 0)
(-0.198596 -0.0839892 0)
(-0.196095 -0.11075 0)
(-0.192292 -0.136782 0)
(-0.186995 -0.161667 0)
(-0.180001 -0.184885 0)
(-0.171114 -0.205806 0)
(-0.160171 -0.223676 0)
(-0.147077 -0.237624 0)
(-0.131841 -0.246671 0)
(-0.114628 -0.249766 0)
(-0.0957974 -0.245831 0)
(-0.0759518 -0.23384 0)
(-0.0559602 -0.212916 0)
(-0.0369376 -0.182431 0)
(-0.0201955 -0.142119 0)
(-0.00750293 -0.0921519 0)
(-0.00121816 -0.0332581 0)
(-0.00112708 0.0346523 0)
(-0.00686367 0.09479 0)
(-0.0183372 0.144872 0)
(-0.033319 0.184651 0)
(-0.050177 0.214419 0)
(-0.0677555 0.234832 0)
(-0.0851177 0.246788 0)
(-0.101567 0.251313 0)
(-0.116648 0.24946 0)
(-0.130109 0.242248 0)
(-0.14186 0.230607 0)
(-0.151925 0.21536 0)
(-0.16041 0.197211 0)
(-0.167468 0.176748 0)
(-0.173276 0.154446 0)
(-0.178013 0.13069 0)
(-0.181844 0.105779 0)
(-0.184915 0.0799478 0)
(-0.187337 0.0533826 0)
(-0.189187 0.0262338 0)
(-0.1905 -0.00136631 0)
(-0.191265 -0.0292876 0)
(-0.191425 -0.0573856 0)
(-0.190872 -0.0854834 0)
(-0.189453 -0.113353 0)
(-0.186967 -0.140694 0)
(-0.183175 -0.167113 0)
(-0.177812 -0.192099 0)
(-0.170601 -0.215009 0)
(-0.161284 -0.235045 0)
(-0.149657 -0.251251 0)
(-0.135618 -0.262518 0)
(-0.119222 -0.267609 0)
(-0.100747 -0.265212 0)
(-0.0807506 -0.254025 0)
(-0.0601252 -0.232872 0)
(-0.0400842 -0.200839 0)
(-0.0221214 -0.157423 0)
(-0.00829838 -0.102659 0)
(-0.00136712 -0.0372746 0)
(-0.00125886 0.0383199 0)
(-0.00755687 0.104294 0)
(-0.0199835 0.158573 0)
(-0.0359364 0.200955 0)
(-0.0535147 0.231924 0)
(-0.0714077 0.252402 0)
(-0.0886054 0.263578 0)
(-0.104408 0.266754 0)
(-0.11841 0.263226 0)
(-0.130442 0.254204 0)
(-0.140512 0.240764 0)
(-0.148745 0.223828 0)
(-0.155345 0.204162 0)
(-0.16055 0.182383 0)
(-0.164613 0.158978 0)
(-0.167773 0.134318 0)
(-0.17025 0.108682 0)
(-0.172228 0.0822735 0)
(-0.173854 0.0552397 0)
(-0.175229 0.0276881 0)
(-0.176404 -0.000295714 0)
(-0.177381 -0.0286317 0)
(-0.178106 -0.0572277 0)
(-0.178468 -0.0859601 0)
(-0.178297 -0.114654 0)
(-0.177366 -0.143057 0)
(-0.175392 -0.170819 0)
(-0.172047 -0.197456 0)
(-0.166971 -0.222329 0)
(-0.159799 -0.244615 0)
(-0.150201 -0.263286 0)
(-0.137934 -0.277103 0)
(-0.12291 -0.284636 0)
(-0.105277 -0.284304 0)
(-0.0855108 -0.274475 0)
(-0.0644916 -0.253591 0)
(-0.04352 -0.22036 0)
(-0.0242906 -0.173947 0)
(-0.00921808 -0.114173 0)
(-0.00154455 -0.0417331 0)
(-0.00142564 0.0423828 0)
(-0.00840666 0.114681 0)
(-0.0219456 0.173296 0)
(-0.0389538 0.218113 0)
(-0.0571957 0.249894 0)
(-0.0751886 0.269929 0)
(-0.0918632 0.279785 0)
(-0.106549 0.281111 0)
(-0.118929 0.275487 0)
(-0.128957 0.264342 0)
(-0.13677 0.248902 0)
(-0.14262 0.230186 0)
(-0.146823 0.20901 0)
(-0.149716 0.18601 0)
(-0.151629 0.161664 0)
(-0.152868 0.136323 0)
(-0.1537 0.110231 0)
(-0.15435 0.0835502 0)
(-0.154995 0.0563815 0)
(-0.155759 0.0287826 0)
(-0.156712 0.000785734 0)
(-0.15787 -0.0275854 0)
(-0.159184 -0.056298 0)
(-0.160545 -0.0852909 0)
(-0.161775 -0.114453 0)
(-0.162628 -0.143596 0)
(-0.162783 -0.172428 0)
(-0.161857 -0.200516 0)
(-0.159408 -0.227251 0)
(-0.154959 -0.251808 0)
(-0.148037 -0.27311 0)
(-0.138231 -0.289805 0)
(-0.125265 -0.300262 0)
(-0.109108 -0.302611 0)
(-0.0900916 -0.294823 0)
(-0.0690315 -0.274872 0)
(-0.0472861 -0.240958 0)
(-0.0267621 -0.191779 0)
(-0.0102996 -0.126824 0)
(-0.0017605 -0.0467089 0)
(-0.00164331 0.0469385 0)
(-0.00947472 0.126127 0)
(-0.0243302 0.189177 0)
(-0.0424774 0.236129 0)
(-0.0612666 0.268163 0)
(-0.0790355 0.287075 0)
(-0.094689 0.294932 0)
(-0.107639 0.293811 0)
(-0.117716 0.285624 0)
(-0.125042 0.272034 0)
(-0.129926 0.254417 0)
(-0.132772 0.233873 0)
(-0.134023 0.211251 0)
(-0.134118 0.187183 0)
(-0.133468 0.162124 0)
(-0.132437 0.136384 0)
(-0.131339 0.110161 0)
(-0.130431 0.0835666 0)
(-0.129915 0.0566471 0)
(-0.129935 0.0294051 0)
(-0.130578 0.001815 0)
(-0.131871 -0.02616 0)
(-0.13378 -0.0545513 0)
(-0.136201 -0.0833667 0)
(-0.138959 -0.112568 0)
(-0.141797 -0.142045 0)
(-0.144375 -0.171584 0)
(-0.146262 -0.200825 0)
(-0.146945 -0.22922 0)
(-0.145837 -0.255977 0)
(-0.142316 -0.280005 0)
(-0.135775 -0.299867 0)
(-0.125708 -0.313751 0)
(-0.111838 -0.319475 0)
(-0.0942734 -0.314563 0)
(-0.0736841 -0.296406 0)
(-0.0514275 -0.262539 0)
(-0.0296159 -0.211003 0)
(-0.0115978 -0.140777 0)
(-0.00203048 -0.0523018 0)
(-0.00193694 0.0521254 0)
(-0.0108516 0.138871 0)
(-0.0272805 0.206373 0)
(-0.0466287 0.254965 0)
(-0.0657424 0.286455 0)
(-0.0827955 0.303353 0)
(-0.0967347 0.308377 0)
(-0.107138 0.304122 0)
(-0.11406 0.292876 0)
(-0.117858 0.276539 0)
(-0.119049 0.25662 0)
(-0.118214 0.234273 0)
(-0.115932 0.210349 0)
(-0.112744 0.185449 0)
(-0.109132 0.159978 0)
(-0.10551 0.134191 0)
(-0.102225 0.108223 0)
(-0.099556 0.0821246 0)
(-0.0977203 0.0558844 0)
(-0.0968754 0.0294453 0)
(-0.0971209 0.00272259 0)
(-0.0984975 -0.0243822 0)
(-0.100984 -0.0519664 0)
(-0.104494 -0.0801094 0)
(-0.108863 -0.108853 0)
(-0.113842 -0.138175 0)
(-0.119087 -0.167956 0)
(-0.124144 -0.197938 0)
(-0.128445 -0.227666 0)
(-0.13131 -0.256424 0)
(-0.13197 -0.283159 0)
(-0.129606 -0.306399 0)
(-0.123443 -0.324185 0)
(-0.112883 -0.334037 0)
(-0.0977089 -0.332986 0)
(-0.078326 -0.317726 0)
(-0.0559852 -0.284924 0)
(-0.0329605 -0.231697 0)
(-0.013195 -0.156241 0)
(-0.00237932 -0.0586492 0)
(-0.00234769 0.0581439 0)
(-0.0126725 0.153228 0)
(-0.0309855 0.225052 0)
(-0.0515293 0.274492 0)
(-0.0705581 0.304326 0)
(-0.0861485 0.318062 0)
(-0.0974106 0.319254 0)
(-0.104214 0.311114 0)