/*--------------------------------*- C++ -*----------------------------------*\
  =========                 |
  \\      /  F ield         | OpenFOAM: The Open Source CFD Toolbox
   \\    /   O peration     | Website:  https://openfoam.org
    \\  /    A nd           | Version:  7
     \\/     M anipulation  |
\*---------------------------------------------------------------------------*/
FoamFile
{
    version     2.0;
    format      ascii;
    class       volScalarField;
    location    "0.025";
    object      p;
}
// * * * * * * * * * * * * * * * * * * * * * * * * * * * * * * * * * * * * * //

dimensions      [0 2 -2 0 0 0 0];

internalField   nonuniform List<scalar> 
25600
(
-4.79081e-08
-0.000795348
-0.00196703
-0.00347193
-0.00538245
-0.00783039
-0.0109058
-0.0146995
-0.0192348
-0.024507
-0.0304391
-0.0368799
-0.0438232
-0.051118
-0.0585295
-0.0657112
-0.0725001
-0.0788145
-0.0845557
-0.0896736
-0.094046
-0.0975615
-0.100161
-0.101946
-0.102895
-0.103192
-0.10282
-0.101853
-0.100241
-0.0980934
-0.0954397
-0.0922901
-0.088675
-0.0846103
-0.0802089
-0.0756447
-0.0710589
-0.0665668
-0.0622715
-0.0582246
-0.054393
-0.050711
-0.0472198
-0.0440225
-0.0411493
-0.038564
-0.0361974
-0.0340103
-0.0320002
-0.0301771
-0.028569
-0.0271455
-0.0258453
-0.0246749
-0.023691
-0.0229683
-0.0225215
-0.0222938
-0.0222764
-0.0225165
-0.0230518
-0.0239043
-0.0250558
-0.0264462
-0.0279988
-0.0296171
-0.0312082
-0.0327112
-0.0340854
-0.0353075
-0.0363773
-0.0372888
-0.038009
-0.038473
-0.0385919
-0.0382924
-0.0375637
-0.0364548
-0.0350355
-0.033354
-0.0314211
-0.0292327
-0.0267921
-0.0240943
-0.0211144
-0.0178304
-0.0142377
-0.0103436
-0.00617506
-0.00178106
0.0028014
0.00756518
0.0124946
0.0175342
0.0226112
0.0276564
0.0325872
0.0373046
0.0417244
0.0457823
0.0494022
0.0524987
0.0550267
0.0570015
0.0584631
0.0594594
0.0600749
0.0604294
0.0606161
0.0606582
0.0605445
0.0602864
0.0599099
0.0594223
0.0588246
0.0581496
0.057462
0.0568247
0.0562936
0.0559473
0.0558842
0.0561629
0.0567572
0.0575973
0.0586641
0.0600208
0.0617307
0.0637534
0.065954
0.0682301
0.0706122
0.0732246
0.076156
0.0793817
0.0828051
0.0863443
0.0899557
0.0935934
0.097191
0.100691
0.10408
0.107377
0.110567
0.113552
0.116209
0.118459
0.12032
0.121879
0.123204
0.124276
0.125025
0.125406
0.125487
0.12544
0.12541
0.125413
0.125313
0.124911
0.124175
0.123367
-0.000150968
-0.00233298
-0.004644
-0.00713435
-0.009798
-0.012715
-0.0159415
-0.0195365
-0.0236436
-0.0283802
-0.0336145
-0.0392566
-0.04523
-0.0514743
-0.0577863
-0.0639757
-0.0698353
-0.0752471
-0.0801586
-0.0845436
-0.0882938
-0.0913359
-0.0936375
-0.0952023
-0.0961192
-0.0964785
-0.0963409
-0.0956741
-0.0944547
-0.092671
-0.0904036
-0.0877036
-0.0845938
-0.0811536
-0.0774841
-0.0736647
-0.0697674
-0.0658696
-0.0620681
-0.0584516
-0.0550539
-0.0518536
-0.0488312
-0.0460207
-0.0434381
-0.0410717
-0.0389107
-0.0369076
-0.0350197
-0.0332564
-0.031665
-0.0302692
-0.0290135
-0.0278558
-0.0268341
-0.0259915
-0.0253371
-0.0248659
-0.0245916
-0.0245612
-0.0248044
-0.0253221
-0.0261231
-0.0271743
-0.0283686
-0.0295984
-0.0307905
-0.0318912
-0.0328805
-0.033754
-0.034487
-0.0350698
-0.035504
-0.0357326
-0.0356548
-0.0351984
-0.0343358
-0.0330897
-0.0315424
-0.0297734
-0.0278043
-0.0256414
-0.0232996
-0.0207534
-0.0179453
-0.0148559
-0.0114999
-0.00788576
-0.00404417
-4.49769e-05
0.00407467
0.00834327
0.0127748
0.0173179
0.0219101
0.0265082
0.0310358
0.0353746
0.0394384
0.0431974
0.0466109
0.0495937
0.0520779
0.0540604
0.0555751
0.0566718
0.0574434
0.0580185
0.0584809
0.0588204
0.0589883
0.0589751
0.0588141
0.0585364
0.0581642
0.0577358
0.0573066
0.0569282
0.0566535
0.0565584
0.0567268
0.0571985
0.0579448
0.058914
0.0601004
0.0615535
0.0633065
0.0653052
0.0674337
0.0696223
0.0719163
0.07443
0.0772358
0.0803008
0.083525
0.0868246
0.0901619
0.093507
0.0968126
0.100036
0.103167
0.106215
0.109149
0.111877
0.114289
0.116344
0.118082
0.119575
0.120852
0.121861
0.122544
0.122905
0.123057
0.123164
0.123334
0.123548
0.123678
0.123548
0.12316
0.122758
0.000181779
-0.0033784
-0.00651732
-0.00981403
-0.0131728
-0.0164708
-0.0198162
-0.0233149
-0.0271306
-0.0313921
-0.0360925
-0.0410892
-0.04631
-0.0517052
-0.0571143
-0.0624672
-0.0675787
-0.0722885
-0.076553
-0.0802801
-0.0834992
-0.0861128
-0.088143
-0.0895199
-0.0904316
-0.0907993
-0.0908292
-0.0904349
-0.089555
-0.0881151
-0.0862024
-0.0838843
-0.0811889
-0.078202
-0.075042
-0.0718034
-0.0685142
-0.0651749
-0.0618429
-0.0586132
-0.0555476
-0.0526946
-0.0500497
-0.0475711
-0.0452446
-0.0430777
-0.0410967
-0.0392659
-0.0375135
-0.0358508
-0.0343161
-0.0329269
-0.0316767
-0.0305286
-0.0294791
-0.0285372
-0.0276966
-0.0269991
-0.026502
-0.0262332
-0.0262191
-0.0264689
-0.0269801
-0.0277348
-0.0286304
-0.0295314
-0.0303784
-0.0311555
-0.031844
-0.03244
-0.0329316
-0.0332918
-0.0335056
-0.0335335
-0.0332852
-0.0326835
-0.0317084
-0.0303805
-0.0287579
-0.0269206
-0.0249237
-0.0227883
-0.0205173
-0.0180791
-0.0154124
-0.0124809
-0.00929915
-0.00590543
-0.00234699
0.00132638
0.00509651
0.00898748
0.0130176
0.0171662
0.021395
0.025656
0.029864
0.0339092
0.0377162
0.0412549
0.0444858
0.0473392
0.0497589
0.0517325
0.0532741
0.0544302
0.0553104
0.056055
0.0567328
0.0572992
0.0576792
0.0578634
0.0579
0.0578277
0.0576613
0.0574298
0.0571922
0.0570153
0.0569593
0.0570845
0.0574437
0.0580589
0.0589178
0.0600035
0.0613206
0.0628833
0.0646765
0.066636
0.0686852
0.0708002
0.0730379
0.0754899
0.0782046
0.0811427
0.0842029
0.0872973
0.0903922
0.093483
0.0965571
0.0995877
0.102545
0.105399
0.108098
0.110561
0.112731
0.114617
0.11627
0.117721
0.118929
0.119813
0.120349
0.12063
0.120828
0.121084
0.12143
0.121786
0.122047
0.122139
0.122126
0.122239
0.000472543
-0.0043187
-0.0083285
-0.0122788
-0.0160863
-0.0196696
-0.0231247
-0.0265461
-0.0301511
-0.0340194
-0.0382474
-0.0427139
-0.0473028
-0.0519661
-0.0566304
-0.0611927
-0.0656022
-0.0697034
-0.0733841
-0.0765888
-0.079306
-0.0815223
-0.0832556
-0.0845401
-0.0853506
-0.0857994
-0.0859044
-0.0856594
-0.0850379
-0.0839553
-0.082406
-0.0804764
-0.0782107
-0.0756343
-0.072861
-0.0700286
-0.0671921
-0.0643544
-0.0615215
-0.0587242
-0.0560112
-0.0534577
-0.0511101
-0.0489268
-0.0468669
-0.0449177
-0.0430965
-0.0414178
-0.0398293
-0.038311
-0.0368845
-0.0355405
-0.0342892
-0.0331302
-0.032038
-0.0310092
-0.0300314
-0.0291343
-0.0284167
-0.027929
-0.0276733
-0.0276738
-0.0279345
-0.0284044
-0.0289947
-0.0295984
-0.0301384
-0.0306011
-0.0310016
-0.0313384
-0.0315975
-0.031767
-0.0318111
-0.0316508
-0.0312078
-0.0304435
-0.0293461
-0.0279326
-0.0262634
-0.024402
-0.0223853
-0.0202534
-0.0180336
-0.0156771
-0.0130964
-0.0102737
-0.00725743
-0.004082
-0.000770604
0.00262849
0.00608882
0.00965005
0.0133555
0.0171856
0.0210889
0.0250259
0.0289398
0.0327358
0.0363284
0.0396738
0.0427341
0.0454516
0.0477797
0.0497096
0.0512592
0.0524807
0.0534846
0.0543948
0.0552484
0.0559755
0.0565064
0.0568596
0.0570972
0.057237
0.0572607
0.057191
0.0571131
0.0571198
0.0572675
0.0575884
0.0581132
0.0588627
0.0598389
0.0610382
0.062464
0.0641094
0.0659332
0.0678667
0.0698571
0.0719131
0.0741041
0.0765073
0.0791446
0.0819585
0.0848434
0.0877173
0.0905712
0.093439
0.0963329
0.0992171
0.102019
0.104665
0.107102
0.109298
0.111253
0.113006
0.114589
0.115978
0.117086
0.117824
0.118221
0.118444
0.118696
0.119087
0.119576
0.120034
0.120396
0.120695
0.121055
0.121667
0.000383971
-0.00542782
-0.0102206
-0.0146825
-0.0188547
-0.0225702
-0.0259747
-0.0293142
-0.0327012
-0.0362997
-0.0400843
-0.0441018
-0.0482219
-0.0523413
-0.0563963
-0.0603435
-0.0641282
-0.0676699
-0.0708479
-0.0736316
-0.0759247
-0.0778199
-0.0792784
-0.0804297
-0.0811871
-0.0816571
-0.0817888
-0.0816591
-0.0811644
-0.0802807
-0.079026
-0.0774376
-0.0755436
-0.0733666
-0.0709812
-0.0684829
-0.0659514
-0.0634605
-0.0610237
-0.0586193
-0.0562686
-0.0540224
-0.0519243
-0.0499689
-0.0481411
-0.0464189
-0.0447679
-0.0432108
-0.0417616
-0.040397
-0.0391068
-0.0378563
-0.0366353
-0.0354712
-0.034338
-0.0332108
-0.0321184
-0.0310949
-0.0301991
-0.0295125
-0.0290652
-0.0288587
-0.0289011
-0.0291366
-0.0294512
-0.0297749
-0.0300694
-0.030283
-0.030411
-0.030495
-0.0305376
-0.03051
-0.0303813
-0.0300669
-0.0294555
-0.0285144
-0.027279
-0.0257772
-0.0240423
-0.0221387
-0.0201252
-0.0180285
-0.0158416
-0.013517
-0.0109974
-0.00827462
-0.0053869
-0.00237572
0.000718227
0.00385759
0.00705192
0.0103581
0.0138056
0.0173632
0.0209931
0.0246713
0.0283392
0.0318976
0.0352749
0.0384474
0.0413746
0.0439748
0.0461917
0.0480408
0.0495757
0.0508599
0.0519809
0.0530249
0.0539998
0.0548301
0.0554635
0.0559425
0.0563337
0.0566337
0.0568031
0.0568694
0.0569393
0.0571092
0.0574138
0.0578692
0.0585174
0.0593976
0.0605046
0.0618078
0.0632954
0.0649695
0.066802
0.0687251
0.0706832
0.072694
0.0748461
0.0772192
0.0798031
0.0824981
0.0851894
0.0878335
0.0904807
0.0932001
0.0959857
0.0987479
0.101371
0.103779
0.105968
0.107963
0.10979
0.111469
0.112987
0.114283
0.115271
0.115897
0.11623
0.116454
0.116758
0.117218
0.117774
0.118315
0.118815
0.119332
0.11999
0.120966
-0.000358675
-0.00689741
-0.0122177
-0.017041
-0.0214249
-0.0251955
-0.0285058
-0.0316355
-0.034782
-0.0381054
-0.0416047
-0.0452453
-0.0490253
-0.0527804
-0.0564436
-0.0599604
-0.0632704
-0.0663723
-0.0691529
-0.0715487
-0.0735707
-0.0751844
-0.0764668
-0.0774444
-0.0781663
-0.0785819
-0.0787203
-0.078633
-0.0782345
-0.0774774
-0.076376
-0.0749771
-0.073323
-0.0714416
-0.0693724
-0.0671782
-0.0649245
-0.0626767
-0.0604784
-0.0583505
-0.0563052
-0.0543284
-0.0524323
-0.0506531
-0.0489951
-0.0474366
-0.0459394
-0.0445137
-0.0431931
-0.0419473
-0.0407527
-0.0396102
-0.0384791
-0.0373291
-0.0361623
-0.0349707
-0.0337871
-0.03268
-0.0316821
-0.0308447
-0.0302532
-0.0299198
-0.0297947
-0.0298277
-0.0299395
-0.0300478
-0.0301218
-0.0301397
-0.0300755
-0.0299451
-0.0297841
-0.0295843
-0.0292812
-0.0287828
-0.0280169
-0.0269551
-0.0255949
-0.0239647
-0.0221435
-0.0202108
-0.0181936
-0.0160993
-0.0139346
-0.0116542
-0.0091809
-0.00650913
-0.00371287
-0.000851641
0.00206016
0.00501493
0.0080177
0.0111097
0.0143307
0.0176761
0.0211129
0.0245985
0.028061
0.0314129
0.0346053
0.0376251
0.0404252
0.0429122
0.0450299
0.0468117
0.0483333
0.0496615
0.0508603
0.0519828
0.0530209
0.0539084
0.0546114
0.0551774
0.0556612
0.0560481
0.0563048
0.0564768
0.0566753
0.0569769
0.0573913
0.0579339
0.0586694
0.0596535
0.0608671
0.0622479
0.0637691
0.0654439
0.0672608
0.0691563
0.0710742
0.0730439
0.0751709
0.07753
0.0800682
0.0826391
0.0851348
0.0875776
0.0900852
0.0927353
0.0954639
0.0981093
0.100539
0.102725
0.104727
0.106609
0.108383
0.110019
0.111466
0.112656
0.113533
0.114091
0.114417
0.114672
0.114996
0.115438
0.115976
0.116566
0.117224
0.117955
0.11881
0.119986
-0.00195768
-0.00887096
-0.0144317
-0.0194342
-0.0238611
-0.0276252
-0.0308491
-0.033781
-0.0366962
-0.0396935
-0.0429265
-0.0463006
-0.0497908
-0.0532859
-0.0566853
-0.0598995
-0.0629289
-0.0656733
-0.0681344
-0.0702648
-0.0720466
-0.0734585
-0.0746042
-0.0754432
-0.0760768
-0.0764332
-0.076547
-0.0763975
-0.0760434
-0.0754002
-0.0744143
-0.0731357
-0.0716176
-0.0698999
-0.0680238
-0.0660539
-0.0640446
-0.0620196
-0.0600136
-0.0580744
-0.0562305
-0.0544557
-0.0527287
-0.051085
-0.0495316
-0.0480586
-0.0466793
-0.0453875
-0.0441765
-0.0430346
-0.0419273
-0.0408595
-0.0398153
-0.0387105
-0.0375283
-0.0363169
-0.0350957
-0.0339139
-0.0328519
-0.0319515
-0.0312575
-0.0308163
-0.0305897
-0.0304774
-0.0304147
-0.0303712
-0.0302887
-0.0301128
-0.0298674
-0.0296015
-0.0292978
-0.0289143
-0.0284267
-0.0277712
-0.0268519
-0.025636
-0.0241551
-0.0224426
-0.0205462
-0.0185467
-0.0165076
-0.0144366
-0.0122943
-0.010016
-0.00755985
-0.00495339
-0.00225914
0.000489253
0.00327849
0.00608824
0.00892665
0.0118515
0.0149086
0.0180858
0.0213482
0.0246629
0.0279644
0.0311596
0.0341961
0.0370698
0.039742
0.0421181
0.0441458
0.0458783
0.0474075
0.0487838
0.0500305
0.0511774
0.0522301
0.0531491
0.0539064
0.0545331
0.055072
0.0555159
0.055846
0.0561096
0.0564063
0.0568027
0.0573098
0.0579449
0.0587646
0.059815
0.0610787
0.0625015
0.064054
0.0657338
0.0675162
0.0693464
0.0712013
0.0731387
0.075259
0.077598
0.0800607
0.0824892
0.0848139
0.0871174
0.0895452
0.0921485
0.0948045
0.0973117
0.0995584
0.101577
0.10347
0.105298
0.107031
0.1086
0.109951
0.111041
0.111844
0.112374
0.112709
0.112967
0.113247
0.113604
0.114069
0.114676
0.115466
0.116363
0.117332
0.118596
-0.00452603
-0.0114505
-0.017054
-0.0220075
-0.0263632
-0.0300064
-0.0331129
-0.0358961
-0.0385746
-0.0413495
-0.0442668
-0.0473829
-0.0506446
-0.0538965
-0.0570498
-0.060044
-0.0628184
-0.0653344
-0.0675688
-0.0694822
-0.0710627
-0.0723635
-0.0733461
-0.0741041
-0.0746308
-0.0749314
-0.0750092
-0.0748238
-0.0744319
-0.0738149
-0.0729271
-0.071767
-0.0703613
-0.0687521
-0.066992
-0.0651589
-0.0633139
-0.0614642
-0.059636
-0.0578631
-0.0561488
-0.0544912
-0.0528813
-0.0513323
-0.0498488
-0.0484147
-0.0470864
-0.0458971
-0.0447816
-0.043718
-0.0427082
-0.0417152
-0.0407175
-0.039668
-0.0385111
-0.0372905
-0.036075
-0.0348791
-0.0337572
-0.0328189
-0.032106
-0.0315855
-0.0312393
-0.0310358
-0.0308819
-0.0307007
-0.0304691
-0.0301641
-0.0297792
-0.0293554
-0.0289148
-0.0284114
-0.0277717
-0.0269308
-0.025847
-0.0245083
-0.0229162
-0.0210935
-0.0191191
-0.0170933
-0.0150555
-0.0129816
-0.0108326
-0.00856396
-0.00614185
-0.00358933
-0.000969536
0.00168031
0.00435358
0.00704193
0.00975636
0.0125504
0.0154707
0.0185091
0.021628
0.0247898
0.0279356
0.0309879
0.0339001
0.036656
0.0392047
0.0414625
0.0434084
0.0451187
0.0466737
0.0480856
0.0493492
0.0504974
0.0515556
0.0524932
0.0532762
0.053934
0.0545183
0.0550294
0.0554415
0.0557864
0.0561584
0.0566358
0.0572404
0.0579781
0.0588764
0.0599655
0.0612458
0.0626909
0.0642711
0.065953
0.0676881
0.0694389
0.0712307
0.0731505
0.0752714
0.0775719
0.0799284
0.0822098
0.0844012
0.0866197
0.0889934
0.0915239
0.094055
0.0963935
0.0984753
0.100382
0.102221
0.104015
0.105687
0.107153
0.108385
0.10939
0.110165
0.110708
0.111046
0.111245
0.111403
0.111625
0.112003
0.112611
0.113478
0.114468
0.115487
0.116777
-0.00805616
-0.0147199
-0.0201847
-0.0250009
-0.0291066
-0.0324936
-0.0354287
-0.0380345
-0.0405721
-0.0431277
-0.0457962
-0.0486667
-0.0516382
-0.0546637
-0.0575892
-0.0603485
-0.0628924
-0.0652064
-0.067234
-0.0689757
-0.07044
-0.0716157
-0.0724798
-0.0731465
-0.0735932
-0.0738537
-0.0738605
-0.0736796
-0.0732768
-0.0726407
-0.0717843
-0.0707009
-0.0693952
-0.0678885
-0.0662332
-0.0645004
-0.0627554
-0.061029
-0.059349
-0.0577211
-0.0561033
-0.0545092
-0.0529685
-0.0514609
-0.05
-0.0486062
-0.0473072
-0.0461551
-0.045109
-0.0441075
-0.0431756
-0.042282
-0.0413285
-0.0402946
-0.0391977
-0.0380209
-0.0367905
-0.0355921
-0.034486
-0.0335221
-0.0327625
-0.0322099
-0.0318029
-0.0314897
-0.031234
-0.0309768
-0.0306433
-0.0301987
-0.029685
-0.0291569
-0.0285957
-0.0279392
-0.027145
-0.0261703
-0.0249572
-0.0234807
-0.0217632
-0.0198531
-0.0178293
-0.0157788
-0.0137324
-0.0116596
-0.00951438
-0.0072545
-0.00485977
-0.00236196
0.000182884
0.00275088
0.00533689
0.00792189
0.010515
0.0131871
0.0159994
0.0189304
0.0219183
0.0249272
0.0279278
0.0308595
0.0336589
0.0362882
0.0387074
0.0408676
0.042767
0.0444678
0.0460242
0.0474361
0.0486997
0.0498483
0.0509019
0.05183
0.0526123
0.0532945
0.0539306
0.0545064
0.0549826
0.0553944
0.05585
0.0564302
0.0571394
0.0579601
0.0589107
0.0600315
0.0613396
0.0628153
0.0644168
0.0660911
0.0677843
0.0694796
0.0712345
0.073148
0.0752639
0.0775136
0.0797604
0.0819098
0.0839947
0.0861452
0.0884537
0.0908712
0.0932329
0.0953882
0.0973279
0.0991623
0.100974
0.10273
0.104316
0.105652
0.10676
0.107701
0.108486
0.109063
0.109381
0.109465
0.109449
0.109524
0.109834
0.110436
0.11132
0.112322
0.113337
0.114601
-0.0124884
-0.0187019
-0.0238162
-0.0283499
-0.0322102
-0.0352683
-0.0378529
-0.0402833
-0.0426458
-0.0450553
-0.047531
-0.0501256
-0.052853
-0.0556252
-0.0582974
-0.0608281
-0.0631707
-0.0652777
-0.0671204
-0.0687004
-0.0700454
-0.071096
-0.0719192
-0.0724592
-0.0728115
-0.0730312
-0.073009
-0.0727918
-0.0723799
-0.0717593
-0.0709219
-0.0698701
-0.068623
-0.067197
-0.065642
-0.0640111
-0.0623571
-0.0607328
-0.0591604
-0.057642
-0.0561239
-0.0545756
-0.0530523
-0.0515571
-0.050087
-0.0487125
-0.0474541
-0.0463031
-0.0452808
-0.0443575
-0.0434799
-0.0426306
-0.0417542
-0.0407687
-0.0396824
-0.0385441
-0.0373553
-0.0361463
-0.0350213
-0.034068
-0.0332953
-0.0326759
-0.032196
-0.0318274
-0.0314963
-0.0311279
-0.0306819
-0.0301464
-0.029544
-0.0289069
-0.0282181
-0.0274247
-0.0264924
-0.0253889
-0.0240596
-0.0224728
-0.0206524
-0.0186652
-0.0166048
-0.0145475
-0.0124982
-0.0104137
-0.0082628
-0.00602374
-0.00367352
-0.00122539
0.0012678
0.00376711
0.00626164
0.00874622
0.0112432
0.0138204
0.0165269
0.0193369
0.0221967
0.0250837
0.0279701
0.0307816
0.0334437
0.0359322
0.0382377
0.0403272
0.0421863
0.0438567
0.0453873
0.0467815
0.0480292
0.0491482
0.050157
0.0510474
0.0518255
0.0525392
0.0532188
0.0538287
0.0543361
0.0548065
0.0553671
0.0560778
0.0568944
0.0577711
0.0587459
0.0598994
0.0612633
0.0627961
0.0644249
0.0660879
0.0677523
0.0694291
0.0711847
0.0731032
0.0752003
0.0773857
0.0795307
0.0815764
0.0835824
0.0856695
0.0878896
0.0901596
0.0923334
0.0943221
0.0961641
0.0979669
0.0997604
0.101452
0.102915
0.104105
0.105101
0.106003
0.10681
0.107406
0.107672
0.107621
0.107448
0.107413
0.107677
0.108253
0.109089
0.110029
0.110978
0.112146
-0.0177031
-0.0232436
-0.0278703
-0.0319981
-0.0355087
-0.0382855
-0.040563
-0.0426648
-0.0448201
-0.0470687
-0.0493658
-0.0517362
-0.0542089
-0.0566974
-0.0591252
-0.0614399
-0.0635888
-0.0655147
-0.0671789
-0.0685956
-0.0697786
-0.0707315
-0.0714725
-0.0719473
-0.0722353
-0.0723472
-0.0723184
-0.072076
-0.0716378
-0.0710269
-0.0702199
-0.0692075
-0.0680025
-0.0666342
-0.0651641
-0.0636352
-0.0620815
-0.0605709
-0.0591067
-0.0576601
-0.0562226
-0.0547407
-0.0532138
-0.0517076
-0.0502376
-0.0488436
-0.0475975
-0.0464794
-0.0454548
-0.0445553
-0.0437502
-0.0429363
-0.0420667
-0.0411325
-0.0401013
-0.0389596
-0.0377546
-0.0365627
-0.0354506
-0.0344696
-0.0336461
-0.0329752
-0.032442
-0.0320101
-0.0315981
-0.0311284
-0.0305778
-0.0299554
-0.0292737
-0.028537
-0.0277245
-0.026805
-0.0257594
-0.0245502
-0.0231144
-0.0214285
-0.0195361
-0.017512
-0.0154367
-0.0133689
-0.0113087
-0.00921955
-0.0070783
-0.00486279
-0.00254234
-0.000130238
0.0023075
0.00472633
0.00713291
0.00954081
0.0119637
0.014446
0.0170353
0.0197285
0.0224868
0.0252759
0.0280477
0.0307241
0.033247
0.0356135
0.0378224
0.0398344
0.0416283
0.0432491
0.0447487
0.0461162
0.0473145
0.0483541
0.0492822
0.0501294
0.0509106
0.0516464
0.0523365
0.0529445
0.0534684
0.0540073
0.0546909
0.0555388
0.0564524
0.0573669
0.0583564
0.0595524
0.0609955
0.0626041
0.0642631
0.0659116
0.0675582
0.0692495
0.0710411
0.0729723
0.0750271
0.0771235
0.0791739
0.0811584
0.0831339
0.0851768
0.0872936
0.0893975
0.0913929
0.0932606
0.0950624
0.0968611
0.0986183
0.100201
0.101502
0.102542
0.103447
0.104324
0.105133
0.105704
0.10589
0.105731
0.105468
0.10538
0.105598
0.106101
0.106829
0.107644
0.108459
0.109461
-0.0234691
-0.0282416
-0.0322234
-0.0358353
-0.0389504
-0.0414218
-0.0434423
-0.0452632
-0.0471747
-0.0491849
-0.051286
-0.0534396
-0.0556471
-0.0578765
-0.0600591
-0.0621282
-0.0640755
-0.0658461
-0.0673622
-0.0686191
-0.06962
-0.0704769
-0.0710875
-0.0715003
-0.071745
-0.0717864
-0.071706
-0.0714467
-0.0710016
-0.070387
-0.0696019
-0.0686364
-0.0674941
-0.0661962
-0.0647922
-0.063361
-0.0619365
-0.060542
-0.0591893
-0.0578302
-0.0564455
-0.0550215
-0.0535133
-0.051973
-0.050505
-0.049122
-0.0478346
-0.0467015
-0.0457217
-0.0448438
-0.0440275
-0.0432269
-0.0423889
-0.0414702
-0.040436
-0.0392812
-0.0380639
-0.0368702
-0.0357492
-0.0347278
-0.0338457
-0.0331251
-0.0325418
-0.0320341
-0.031528
-0.0309721
-0.030347
-0.0296429
-0.0288609
-0.0280159
-0.0271019
-0.0260872
-0.0249449
-0.0236403
-0.0221225
-0.020378
-0.0184528
-0.0164129
-0.0143286
-0.0122583
-0.0102047
-0.00812464
-0.00598913
-0.00378436
-0.00149235
0.000871328
0.00324743
0.00559963
0.00793905
0.0102746
0.0126105
0.0149934
0.0174881
0.0201012
0.022779
0.0254652
0.0281119
0.0306623
0.0330755
0.035345
0.0374579
0.0393755
0.0410936
0.0426699
0.0441418
0.045461
0.0465682
0.0474974
0.0483474
0.0491744
0.0499644
0.0506896
0.0513396
0.0519189
0.0524754
0.0531173
0.0539343
0.0548922
0.0558663
0.0568089
0.0578345
0.059099
0.0606255
0.0622903
0.0639574
0.0655901
0.0672425
0.0689801
0.0708235
0.0727544
0.0747379
0.0767338
0.0787171
0.0806948
0.0826877
0.0846996
0.0867007
0.0886374
0.0904863
0.0922835
0.0940764
0.0958577
0.0975325
0.0989627
0.100092
0.101
0.101835
0.102677
0.103441
0.103935
0.104028
0.103803
0.103517
0.103408
0.103561
0.103951
0.104533
0.105181
0.105809
0.106594
-0.0296484
-0.0335617
-0.0368312
-0.0397917
-0.0424394
-0.0446413
-0.046424
-0.0480394
-0.0496564
-0.0514332
-0.053309
-0.0552199
-0.0571976
-0.059189
-0.0611204
-0.0629508
-0.0646952
-0.0662807
-0.0676401
-0.0687426
-0.069615
-0.0703146
-0.0708241
-0.0711474
-0.0712857
-0.0713144
-0.071176
-0.0708832
-0.070445
-0.0698369
-0.0690739
-0.0681521
-0.0670744
-0.0658717
-0.0645569
-0.0632122
-0.0619205
-0.0606528
-0.0593965
-0.0581495
-0.0568305
-0.0554032
-0.0539145
-0.0523996
-0.0509025
-0.0494864
-0.048194
-0.0470522
-0.0460599
-0.0451773
-0.044357
-0.0435551
-0.0427126
-0.0417701
-0.0407051
-0.0395361
-0.0383076
-0.0370825
-0.0359206
-0.0348674
-0.0339518
-0.0331753
-0.0325168
-0.0319338
-0.0313577
-0.0307263
-0.0300168
-0.0292268
-0.0283571
-0.0274165
-0.0264028
-0.0252962
-0.0240794
-0.0227194
-0.0211603
-0.0193867
-0.01745
-0.0154172
-0.0133491
-0.0112956
-0.00925429
-0.00717799
-0.00504396
-0.00285748
-0.000609086
0.00170142
0.00403204
0.00634068
0.00861899
0.0108691
0.0131116
0.0154179
0.0178602
0.0204224
0.0230215
0.0256006
0.0281402
0.0306044
0.0329401
0.0351177
0.0371264
0.0389572
0.0406288
0.0421858
0.0436222
0.0448569
0.0458458
0.0466786
0.0474955
0.0483331
0.049115
0.049778
0.0503475
0.0509028
0.0515294
0.0522992
0.0532282
0.0542411
0.0552362
0.0562164
0.0573178
0.0586697
0.0602507
0.061919
0.0635666
0.0652053
0.0669088
0.0687143
0.0705898
0.0724832
0.0743799
0.0763019
0.0782711
0.080285
0.082303
0.0842636
0.0861305
0.0879091
0.0896442
0.0913931
0.0931612
0.0948778
0.0964242
0.0976958
0.0986843
0.0994945
0.100262
0.101032
0.101698
0.102078
0.102085
0.101833
0.101554
0.101427
0.101503
0.10177
0.102198
0.102661
0.103082
0.103638
-0.0360929
-0.0390753
-0.0415981
-0.0438635
-0.0459698
-0.047817
-0.0494141
-0.0508332
-0.0522409
-0.0537711
-0.055375
-0.0570473
-0.0587989
-0.0605804
-0.0623066
-0.0639262
-0.0654403
-0.0668208
-0.0680157
-0.0689563
-0.0697043
-0.0702353
-0.0706574
-0.0709124
-0.0709543
-0.0709143
-0.070737
-0.0704263
-0.0699906
-0.0693996
-0.0686619
-0.0677972
-0.0667883
-0.0656608
-0.0644612
-0.0632234
-0.0620241
-0.0608845
-0.0597371
-0.0585511
-0.0572923
-0.0558999
-0.0543984
-0.052869
-0.0513664
-0.0499348
-0.0486188
-0.0474478
-0.0464321
-0.0455449
-0.0447152
-0.0438771
-0.0429965
-0.0420337
-0.0409439
-0.0397305
-0.0384643
-0.0372258
-0.0360486
-0.0349513
-0.0339781
-0.0331578
-0.0324587
-0.0318109
-0.0311474
-0.0304315
-0.0296521
-0.0287913
-0.0278305
-0.0267851
-0.0256788
-0.0245065
-0.0232478
-0.0218612
-0.0202849
-0.0185063
-0.0165862
-0.0145907
-0.0125615
-0.0105301
-0.00849315
-0.0064175
-0.00429862
-0.00214908
5.50679e-05
0.00233442
0.00464227
0.00690831
0.00911127
0.0112769
0.0134596
0.0157369
0.0181523
0.0206587
0.0231741
0.025673
0.0281587
0.0305776
0.0328405
0.0349143
0.0368304
0.0386214
0.0402959
0.0418429
0.0432123
0.0443357
0.0452273
0.0460245
0.0468558
0.0476959
0.048419
0.0489795
0.0494755
0.0500455
0.0507644
0.0516358
0.052617
0.0536378
0.054651
0.0556987
0.0568947
0.0583091
0.0598874
0.0615148
0.0631474
0.0648358
0.0666276
0.0684929
0.0703545
0.0721736
0.0739925
0.0758873
0.077884
0.079933
0.0819367
0.0838069
0.0855295
0.0871665
0.0888014
0.0904815
0.0921765
0.0937865
0.0952003
0.0963499
0.097246
0.0979806
0.0986617
0.0993173
0.0998526
0.100121
0.100074
0.0998248
0.0995625
0.099413
0.0994169
0.0995728
0.0998527
0.100136
0.100372
0.100729
-0.0426884
-0.0446352
-0.0463634
-0.0479744
-0.04951
-0.0509766
-0.0523354
-0.053559
-0.0547777
-0.0560676
-0.0574343
-0.058872
-0.0603834
-0.0619649
-0.0635069
-0.0649508
-0.0662653
-0.0674442
-0.0684535
-0.0692576
-0.0698442
-0.0702693
-0.0705687
-0.0707302
-0.0707709
-0.0706507
-0.0704325
-0.0701153
-0.0696754
-0.0691178
-0.0684194
-0.0676063
-0.0666816
-0.0656144
-0.0644902
-0.0633877
-0.0622875
-0.0611983
-0.0601349
-0.0590342
-0.0577994
-0.0563953
-0.0548908
-0.0533691
-0.0518493
-0.0503668
-0.0490186
-0.0478563
-0.0468318
-0.0458904
-0.0450154
-0.0441723
-0.043278
-0.0422553
-0.0411005
-0.039867
-0.0386076
-0.0373531
-0.0361307
-0.0349926
-0.0339991
-0.0331556
-0.0324023
-0.0316759
-0.0309383
-0.0301607
-0.0293132
-0.0283623
-0.0272966
-0.0261564
-0.0249846
-0.0237739
-0.0224924
-0.0210944
-0.0195195
-0.0177616
-0.0158882
-0.0139519
-0.0119632
-0.00994117
-0.00790495
-0.00584934
-0.0037714
-0.0016602
0.000528811
0.00280579
0.00508811
0.00728763
0.00941251
0.0115341
0.0137132
0.0159871
0.0183618
0.0207973
0.0232519
0.0257253
0.0281986
0.0305718
0.0327429
0.0347232
0.0366011
0.0384113
0.0401026
0.0416061
0.0428778
0.0439127
0.0447783
0.0456014
0.0464479
0.0472393
0.0478586
0.0483243
0.0487959
0.049415
0.0502025
0.0511071
0.0520835
0.0531071
0.0541714
0.055306
0.0565673
0.0579794
0.0595
0.0610761
0.0627198
0.0644824
0.066353
0.0682343
0.0700365
0.0717701
0.0735373
0.0754342
0.0774552
0.0794955
0.0814316
0.0831907
0.0847878
0.0863087
0.0878377
0.0894069
0.0909835
0.0924791
0.0937999
0.0948831
0.0957221
0.0963809
0.0969545
0.0974849
0.0979047
0.0980978
0.0980286
0.0977968
0.0975508
0.0973866
0.0973371
0.0973963
0.0975376
0.0976731
0.0977742
0.0979691
-0.0492151
-0.0501805
-0.0511124
-0.0520249
-0.0530209
-0.0540837
-0.0551452
-0.0561715
-0.0571874
-0.0582739
-0.0594384
-0.0606408
-0.0619253
-0.0633047
-0.0646761
-0.0659559
-0.0671056
-0.0681167
-0.0689562
-0.0696297
-0.0700622
-0.0703893
-0.0705951
-0.0706601
-0.0706676
-0.0705272
-0.0702965
-0.069979
-0.0695344
-0.0690034
-0.068383
-0.0676171
-0.0667237
-0.0657472
-0.0647127
-0.0636561
-0.0626178
-0.0616198
-0.0606167
-0.0595131
-0.0582663
-0.0568916
-0.0554022
-0.0538287
-0.0522554
-0.0507762
-0.0494367
-0.0482345
-0.0471593
-0.0462039
-0.0453276
-0.0444486
-0.0434891
-0.0424172
-0.0412482
-0.0400103
-0.0387291
-0.0374434
-0.0362035
-0.0350598
-0.0340484
-0.0331603
-0.0323445
-0.0315552
-0.0307602
-0.0299189
-0.0289889
-0.0279372
-0.0267683
-0.0255482
-0.0243342
-0.0231061
-0.0218112
-0.0204053
-0.0188464
-0.0171386
-0.0153345
-0.0134518
-0.0114794
-0.00945881
-0.00744836
-0.00544572
-0.00341108
-0.0013071
0.000892864
0.00315656
0.00538201
0.00751036
0.00959883
0.0117298
0.0139213
0.0161659
0.018477
0.0208615
0.0233048
0.0257817
0.0282258
0.0305219
0.0326063
0.0345474
0.0364474
0.0382909
0.0399622
0.0413843
0.0425734
0.0435878
0.0444939
0.0453541
0.0461737
0.0468767
0.047404
0.0478311
0.0483257
0.0489879
0.0497901
0.0506725
0.0516302
0.0526828
0.0538208
0.0550208
0.0562848
0.0576311
0.0590676
0.0606026
0.0622665
0.0640759
0.0659658
0.0678069
0.069527
0.0711874
0.0729239
0.0748204
0.07683
0.0788145
0.0806563
0.0823154
0.0838238
0.0852554
0.0866725
0.0881041
0.0895457
0.0909496
0.0922292
0.0932906
0.0940873
0.0946667
0.0951371
0.0955689
0.0959166
0.0960721
0.0959961
0.0957725
0.0955323
0.095359
0.0952689
0.095244
0.0952775
0.0953198
0.0953286
0.0953765
-0.0555276
-0.0555779
-0.0557533
-0.0560003
-0.0564383
-0.0570615
-0.0578556
-0.0586332
-0.0594329
-0.0603396
-0.0613303
-0.0623483
-0.063446
-0.0646093
-0.0657927
-0.0669151
-0.0679163
-0.0687777
-0.0694894
-0.0700164
-0.0703764
-0.0705765
-0.0706912
-0.0707273
-0.0706537
-0.0705208
-0.0702842
-0.0699636
-0.0695803
-0.0690736
-0.068467
-0.0677844
-0.0669679
-0.0660158
-0.0650144
-0.0640295
-0.0630567
-0.0620766
-0.061075
-0.0599979
-0.058768
-0.0573642
-0.0558387
-0.0542583
-0.0526827
-0.0511784
-0.0498045
-0.0485827
-0.0475022
-0.0465339
-0.0456217
-0.0446933
-0.0436923
-0.0425952
-0.041409
-0.0401537
-0.038855
-0.0375558
-0.0363074
-0.0351531
-0.0341174
-0.0331844
-0.0323071
-0.0314545
-0.0306018
-0.0296938
-0.0286717
-0.0275113
-0.0262481
-0.0249741
-0.0237409
-0.0224962
-0.0211767
-0.0197675
-0.0182513
-0.0166128
-0.0148618
-0.0129956
-0.0110269
-0.00903671
-0.00708869
-0.00513969
-0.00311574
-0.000998932
0.0011888
0.00339696
0.00555559
0.00765206
0.00975314
0.0119009
0.014067
0.0162478
0.0185068
0.0208833
0.0233358
0.0257868
0.0281563
0.0303702
0.0324171
0.034376
0.0363087
0.0381473
0.0397616
0.0411157
0.0422837
0.0433387
0.0442985
0.0451624
0.0459236
0.0465543
0.0470515
0.047501
0.0480335
0.0487073
0.0494857
0.0503382
0.0512994
0.0523995
0.0535924
0.0548014
0.0560072
0.0572571
0.0586118
0.060111
0.0617713
0.0635691
0.0654132
0.0671791
0.06882
0.070424
0.0721297
0.0739985
0.0759596
0.0778692
0.0796239
0.0812072
0.0826532
0.0840087
0.0853177
0.0866196
0.0879475
0.0892903
0.0905565
0.0916121
0.0923766
0.0928939
0.0932941
0.0936641
0.0939656
0.0940901
0.0939956
0.0937607
0.0935113
0.0933211
0.0931906
0.0931009
0.0930742
0.0930693
0.0929936
0.0928765
-0.0614929
-0.0606914
-0.0601679
-0.0597936
-0.0596775
-0.0599037
-0.0603601
-0.0609162
-0.0615246
-0.06224
-0.0630688
-0.0639522
-0.0648874
-0.0658653
-0.0668606
-0.0678257
-0.0686832
-0.0693967
-0.0699882
-0.0703914
-0.0706814
-0.0708014
-0.0708348
-0.070849
-0.0707159
-0.0705679
-0.070378
-0.0700628
-0.0696815
-0.0692577
-0.0687267
-0.0680521
-0.0672642
-0.0663941
-0.0654454
-0.064457
-0.0634982
-0.0625687
-0.0615854
-0.0604824
-0.0592394
-0.0578431
-0.0563076
-0.0547001
-0.0531082
-0.0516002
-0.050216
-0.0489722
-0.0478707
-0.0468875
-0.0459518
-0.0449798
-0.043931
-0.0428073
-0.0416153
-0.0403526
-0.0390328
-0.0377131
-0.036459
-0.0352993
-0.0342314
-0.0332367
-0.0322928
-0.0313887
-0.030484
-0.0294917
-0.0283561
-0.0270951
-0.0257744
-0.0244743
-0.0232142
-0.0219303
-0.0205877
-0.0192027
-0.0177438
-0.0161479
-0.0144035
-0.0125362
-0.0105979
-0.00867325
-0.00678727
-0.0048606
-0.00283251
-0.000733223
0.00139479
0.0035338
0.00565793
0.00776044
0.00987342
0.0120001
0.0141084