/*--------------------------------*- C++ -*----------------------------------*\
  =========                 |
  \\      /  F ield         | OpenFOAM: The Open Source CFD Toolbox
   \\    /   O peration     | Website:  https://openfoam.org
    \\  /    A nd           | Version:  7
     \\/     M anipulation  |
\*---------------------------------------------------------------------------*/
FoamFile
{
    version     2.0;
    format      ascii;
    class       volVectorField;
    location    "0.025";
    object      U;
}
// * * * * * * * * * * * * * * * * * * * * * * * * * * * * * * * * * * * * * //

dimensions      [0 1 -1 0 0 0 0];

internalField   nonuniform List<vector> 
25600
(
(-7.86514e-07 -1.22784e-05 0)
(1.84469e-05 -2.50231e-05 0)
(5.63604e-05 -3.8387e-05 0)
(0.000118543 -4.96181e-05 0)
(0.000193134 -5.73365e-05 0)
(0.00027604 -6.12297e-05 0)
(0.00035856 -6.09029e-05 0)
(0.000437961 -5.84608e-05 0)
(0.000512533 -5.3746e-05 0)
(0.000577126 -4.7398e-05 0)
(0.00063169 -3.93796e-05 0)
(0.000673111 -3.03728e-05 0)
(0.000699182 -1.8787e-05 0)
(0.000708705 -5.92036e-06 0)
(0.000700164 6.65571e-06 0)
(0.00067487 1.8539e-05 0)
(0.000631159 3.03823e-05 0)
(0.000571698 4.04837e-05 0)
(0.000498516 5.01918e-05 0)
(0.000412549 5.79093e-05 0)
(0.000316533 6.42319e-05 0)
(0.000213851 6.86468e-05 0)
(0.000104544 7.17518e-05 0)
(-6.44368e-06 7.23861e-05 0)
(-0.00011806 7.27989e-05 0)
(-0.000228102 7.04324e-05 0)
(-0.000334743 6.76112e-05 0)
(-0.000437252 6.42301e-05 0)
(-0.000533825 5.98596e-05 0)
(-0.000625342 5.52197e-05 0)
(-0.000708917 5.08253e-05 0)
(-0.000786243 4.56767e-05 0)
(-0.000855036 3.85049e-05 0)
(-0.000914517 3.07696e-05 0)
(-0.00096622 2.30282e-05 0)
(-0.00100942 1.50693e-05 0)
(-0.00104347 8.00075e-06 0)
(-0.00106907 2.16919e-06 0)
(-0.00108667 -3.28002e-06 0)
(-0.00109612 -8.71815e-06 0)
(-0.00109762 -1.4288e-05 0)
(-0.0010919 -1.99995e-05 0)
(-0.00108006 -2.50844e-05 0)
(-0.00106278 -2.89991e-05 0)
(-0.00104119 -3.14881e-05 0)
(-0.00101659 -3.33762e-05 0)
(-0.000989242 -3.53664e-05 0)
(-0.000959965 -3.68201e-05 0)
(-0.000929421 -3.75331e-05 0)
(-0.000898149 -3.7603e-05 0)
(-0.00086644 -3.76156e-05 0)
(-0.000833518 -3.81818e-05 0)
(-0.000799544 -3.87923e-05 0)
(-0.000764554 -3.92791e-05 0)
(-0.000728329 -3.93189e-05 0)
(-0.000691943 -3.8207e-05 0)
(-0.000656072 -3.63775e-05 0)
(-0.000621327 -3.42725e-05 0)
(-0.000588774 -3.18455e-05 0)
(-0.000558781 -2.91697e-05 0)
(-0.000531976 -2.5903e-05 0)
(-0.000509175 -2.20246e-05 0)
(-0.000490683 -1.80388e-05 0)
(-0.000477163 -1.38428e-05 0)
(-0.000469211 -9.27247e-06 0)
(-0.000467118 -4.50537e-06 0)
(-0.000471583 5.35325e-07 0)
(-0.000482957 5.6965e-06 0)
(-0.000501047 1.05725e-05 0)
(-0.000525953 1.53157e-05 0)
(-0.000557538 2.00644e-05 0)
(-0.000595154 2.44697e-05 0)
(-0.000638444 2.83772e-05 0)
(-0.000687025 3.18101e-05 0)
(-0.000739983 3.45753e-05 0)
(-0.000796535 3.67221e-05 0)
(-0.000856151 3.86356e-05 0)
(-0.000918009 4.04175e-05 0)
(-0.000981381 4.18987e-05 0)
(-0.00104601 4.30233e-05 0)
(-0.00111151 4.37242e-05 0)
(-0.00117721 4.38388e-05 0)
(-0.00124249 4.33366e-05 0)
(-0.00130662 4.22873e-05 0)
(-0.00136841 4.06923e-05 0)
(-0.00142666 3.85553e-05 0)
(-0.00148063 3.58965e-05 0)
(-0.00152961 3.26442e-05 0)
(-0.00157261 2.87323e-05 0)
(-0.0016087 2.41953e-05 0)
(-0.00163712 1.90218e-05 0)
(-0.001657 1.3182e-05 0)
(-0.00166739 6.8993e-06 0)
(-0.00166766 5.61735e-07 0)
(-0.00165775 -5.66486e-06 0)
(-0.00163788 -1.17767e-05 0)
(-0.0016085 -1.75497e-05 0)
(-0.00157045 -2.26463e-05 0)
(-0.00152494 -2.70058e-05 0)
(-0.00147328 -3.06638e-05 0)
(-0.00141684 -3.33036e-05 0)
(-0.00135715 -3.44906e-05 0)
(-0.00129601 -3.43327e-05 0)
(-0.00123523 -3.34022e-05 0)
(-0.00117634 -3.19478e-05 0)
(-0.00112055 -2.96678e-05 0)
(-0.00106884 -2.64077e-05 0)
(-0.00102188 -2.26361e-05 0)
(-0.000979905 -1.89675e-05 0)
(-0.000942649 -1.55664e-05 0)
(-0.000909565 -1.23349e-05 0)
(-0.000880154 -9.38935e-06 0)
(-0.000854031 -6.97828e-06 0)
(-0.000830844 -4.95783e-06 0)
(-0.000810344 -2.75167e-06 0)
(-0.000792645 5.17648e-08 0)
(-0.00077831 3.311e-06 0)
(-0.000768042 6.64873e-06 0)
(-0.00076227 9.91117e-06 0)
(-0.000760963 1.31061e-05 0)
(-0.000763694 1.60529e-05 0)
(-0.000769758 1.83942e-05 0)
(-0.000778281 1.9988e-05 0)
(-0.000788392 2.10701e-05 0)
(-0.000799358 2.19125e-05 0)
(-0.000810595 2.24741e-05 0)
(-0.000821641 2.25197e-05 0)
(-0.000832088 2.197e-05 0)
(-0.000841459 2.10233e-05 0)
(-0.000849213 1.99674e-05 0)
(-0.000854911 1.88699e-05 0)
(-0.000858236 1.74728e-05 0)
(-0.000858835 1.55009e-05 0)
(-0.000856241 1.29693e-05 0)
(-0.000849897 1.00369e-05 0)
(-0.000839257 6.8029e-06 0)
(-0.000824048 3.38128e-06 0)
(-0.000804341 -1.38094e-07 0)
(-0.00078028 -3.74006e-06 0)
(-0.000752005 -7.31725e-06 0)
(-0.000719613 -1.07992e-05 0)
(-0.000683038 -1.42528e-05 0)
(-0.000642357 -1.76065e-05 0)
(-0.000597919 -2.07708e-05 0)
(-0.000550155 -2.36275e-05 0)
(-0.000499896 -2.58143e-05 0)
(-0.000448191 -2.7273e-05 0)
(-0.000395894 -2.81724e-05 0)
(-0.00034408 -2.85408e-05 0)
(-0.000293758 -2.85546e-05 0)
(-0.000245785 -2.80514e-05 0)
(-0.000201257 -2.67873e-05 0)
(-0.000160765 -2.5e-05 0)
(-0.000124579 -2.28662e-05 0)
(-9.28985e-05 -2.07552e-05 0)
(-6.53578e-05 -1.87667e-05 0)
(-4.17745e-05 -1.65414e-05 0)
(-2.27066e-05 -1.35805e-05 0)
(-8.6782e-06 -9.42549e-06 0)
(-2.70489e-06 -3.68141e-06 0)
(-1.66005e-05 -1.09786e-05 0)
(-1.87553e-05 -4.38178e-05 0)
(7.94846e-06 -8.33755e-05 0)
(7.53202e-05 -0.000116501 0)
(0.000165227 -0.000135224 0)
(0.000265145 -0.000142496 0)
(0.000369958 -0.000140904 0)
(0.000470851 -0.000133156 0)
(0.000560106 -0.000119678 0)
(0.000636876 -0.00010231 0)
(0.000697516 -8.03081e-05 0)
(0.000738505 -5.65905e-05 0)
(0.000757327 -2.83061e-05 0)
(0.000752689 1.1775e-06 0)
(0.000724457 3.34514e-05 0)
(0.000671428 6.33252e-05 0)
(0.000594769 9.20667e-05 0)
(0.00049565 0.000118897 0)
(0.000375142 0.000141405 0)
(0.000237123 0.000162086 0)
(8.47555e-05 0.000177235 0)
(-8.03887e-05 0.000189975 0)
(-0.000254363 0.000195459 0)
(-0.000434098 0.000200775 0)
(-0.000617136 0.000197321 0)
(-0.000801074 0.000195713 0)
(-0.000981984 0.00018781 0)
(-0.00115975 0.000180726 0)
(-0.00133209 0.000169921 0)
(-0.0014975 0.000159527 0)
(-0.00165603 0.000147433 0)
(-0.00180497 0.000134324 0)
(-0.00194446 0.000120606 0)
(-0.00207462 0.000105922 0)
(-0.00219419 9.06706e-05 0)
(-0.00230303 7.51459e-05 0)
(-0.00240164 5.98985e-05 0)
(-0.00248968 4.51764e-05 0)
(-0.00256707 3.11135e-05 0)
(-0.00263415 1.78328e-05 0)
(-0.00269112 5.66686e-06 0)
(-0.00273826 -6.21664e-06 0)
(-0.00277691 -1.70846e-05 0)
(-0.00280848 -2.56717e-05 0)
(-0.00283317 -3.23526e-05 0)
(-0.00285229 -3.72941e-05 0)
(-0.00286722 -4.13733e-05 0)
(-0.00287841 -4.44715e-05 0)
(-0.00288653 -4.63659e-05 0)
(-0.0028923 -4.79992e-05 0)
(-0.00289633 -4.92624e-05 0)
(-0.00289821 -5.06982e-05 0)
(-0.00289718 -5.28318e-05 0)
(-0.00289406 -5.48983e-05 0)
(-0.00288973 -5.64268e-05 0)
(-0.00288421 -5.63866e-05 0)
(-0.00287805 -5.44205e-05 0)
(-0.00287228 -5.15517e-05 0)
(-0.00286817 -4.78075e-05 0)
(-0.00286655 -4.29001e-05 0)
(-0.00286754 -3.70976e-05 0)
(-0.00287209 -3.01503e-05 0)
(-0.00288127 -2.21163e-05 0)
(-0.00289512 -1.34154e-05 0)
(-0.00291417 -3.78858e-06 0)
(-0.00293945 6.85444e-06 0)
(-0.00297123 1.80449e-05 0)
(-0.00301005 2.958e-05 0)
(-0.00305664 4.1236e-05 0)
(-0.00311045 5.24787e-05 0)
(-0.003171 6.31022e-05 0)
(-0.00323852 7.32078e-05 0)
(-0.00331206 8.25577e-05 0)
(-0.0033902 9.07399e-05 0)
(-0.00347258 9.76252e-05 0)
(-0.00355849 0.000103174 0)
(-0.0036465 0.000107307 0)
(-0.00373616 0.000110293 0)
(-0.00382719 0.000112665 0)
(-0.00391803 0.000114487 0)
(-0.0040075 0.000115265 0)
(-0.00409563 0.00011468 0)
(-0.00418134 0.000112716 0)
(-0.00426242 0.000109141 0)
(-0.00433781 0.000103659 0)
(-0.00440716 9.64728e-05 0)
(-0.00446881 8.79759e-05 0)
(-0.00452095 7.80981e-05 0)
(-0.00456327 6.65689e-05 0)
(-0.00459526 5.34669e-05 0)
(-0.00461495 3.89775e-05 0)
(-0.00462071 2.30523e-05 0)
(-0.00461258 5.80738e-06 0)
(-0.00459059 -1.20926e-05 0)
(-0.00455387 -2.97985e-05 0)
(-0.00450237 -4.67201e-05 0)
(-0.00443761 -6.24213e-05 0)
(-0.0043611 -7.64445e-05 0)
(-0.00427354 -8.84322e-05 0)
(-0.00417618 -9.81508e-05 0)
(-0.00407145 -0.000105288 0)
(-0.0039617 -0.000109479 0)
(-0.00384849 -0.000110633 0)
(-0.00373345 -0.000109052 0)
(-0.00361877 -0.000105161 0)
(-0.00350629 -9.9339e-05 0)
(-0.00339679 -9.2095e-05 0)
(-0.00329082 -8.41571e-05 0)
(-0.00318922 -7.6208e-05 0)
(-0.00309259 -6.8652e-05 0)
(-0.00300057 -6.17334e-05 0)
(-0.00291236 -5.56685e-05 0)
(-0.00282761 -5.04915e-05 0)
(-0.00274639 -4.58255e-05 0)
(-0.0026686 -4.10219e-05 0)
(-0.00259417 -3.55653e-05 0)
(-0.00252347 -2.9274e-05 0)
(-0.00245731 -2.2208e-05 0)
(-0.00239614 -1.46404e-05 0)
(-0.00233973 -7.19669e-06 0)
(-0.00228759 -7.71964e-07 0)
(-0.00223928 3.97228e-06 0)
(-0.00219431 7.0728e-06 0)
(-0.00215174 9.11386e-06 0)
(-0.00211035 1.05398e-05 0)
(-0.00206919 1.11785e-05 0)
(-0.002028 1.05578e-05 0)
(-0.0019868 8.61589e-06 0)
(-0.00194512 5.86871e-06 0)
(-0.00190191 2.84142e-06 0)
(-0.00185611 -4.91066e-07 0)
(-0.00180725 -4.60633e-06 0)
(-0.00175532 -9.84209e-06 0)
(-0.0017003 -1.6031e-05 0)
(-0.00164174 -2.27785e-05 0)
(-0.00157898 -2.99012e-05 0)
(-0.00151174 -3.73578e-05 0)
(-0.00144025 -4.49472e-05 0)
(-0.00136486 -5.23556e-05 0)
(-0.00128574 -5.93611e-05 0)
(-0.00120294 -6.59804e-05 0)
(-0.00111668 -7.24959e-05 0)
(-0.00102758 -7.897e-05 0)
(-0.000936584 -8.48937e-05 0)
(-0.000844438 -8.96289e-05 0)
(-0.000751876 -9.2644e-05 0)
(-0.000659811 -9.3684e-05 0)
(-0.00056941 -9.30699e-05 0)
(-0.000482412 -9.10406e-05 0)
(-0.000400567 -8.75326e-05 0)
(-0.000325106 -8.25576e-05 0)
(-0.000256897 -7.59137e-05 0)
(-0.000196233 -6.79376e-05 0)
(-0.000143449 -5.95943e-05 0)
(-9.91372e-05 -5.14794e-05 0)
(-6.36227e-05 -4.40621e-05 0)
(-3.68123e-05 -3.70625e-05 0)
(-1.91592e-05 -2.92173e-05 0)
(-7.65789e-06 -1.94917e-05 0)
(-2.22081e-06 -6.77815e-06 0)
(-3.94019e-05 1.76575e-05 0)
(-8.31812e-05 -2.08418e-05 0)
(-0.000111763 -0.000104865 0)
(-9.80492e-05 -0.000170659 0)
(-5.41683e-05 -0.000208193 0)
(2.28085e-06 -0.000223407 0)
(6.07529e-05 -0.000222006 0)
(0.000116122 -0.000207424 0)
(0.000162686 -0.000184466 0)
(0.000196257 -0.000150795 0)
(0.000215896 -0.000113481 0)
(0.000218974 -6.89232e-05 0)
(0.000202863 -2.12686e-05 0)
(0.000169204 3.13014e-05 0)
(0.00011684 8.3547e-05 0)
(4.4757e-05 0.000136636 0)
(-4.37307e-05 0.000186317 0)
(-0.000150865 0.000232044 0)
(-0.000273755 0.000272499 0)
(-0.000411969 0.000308428 0)
(-0.000563253 0.000336943 0)
(-0.000725863 0.00035957 0)
(-0.000896693 0.000375212 0)
(-0.00107675 0.000383129 0)
(-0.00126185 0.000386207 0)
(-0.00145021 0.000382985 0)
(-0.00164353 0.000376481 0)
(-0.00183514 0.00036589 0)
(-0.00202608 0.000352333 0)
(-0.00221584 0.00033555 0)
(-0.00240388 0.000317582 0)
(-0.0025878 0.00029787 0)
(-0.00276764 0.000276194 0)
(-0.00294322 0.000254296 0)
(-0.003114 0.000232238 0)
(-0.0032793 0.000209169 0)
(-0.00343833 0.000185592 0)
(-0.00359114 0.000162043 0)
(-0.00373834 0.000138872 0)
(-0.00387955 0.000116629 0)
(-0.00401457 9.59088e-05 0)
(-0.00414382 7.69221e-05 0)
(-0.00426708 5.93803e-05 0)
(-0.00438477 4.43385e-05 0)
(-0.00449752 3.19841e-05 0)
(-0.00460554 2.17984e-05 0)
(-0.0047093 1.36933e-05 0)
(-0.00480858 6.9382e-06 0)
(-0.00490398 1.4542e-06 0)
(-0.00499643 -3.10324e-06 0)
(-0.00508538 -7.53921e-06 0)
(-0.00517107 -1.16855e-05 0)
(-0.00525386 -1.5963e-05 0)
(-0.00533365 -2.03408e-05 0)
(-0.00541107 -2.35552e-05 0)
(-0.00548607 -2.50549e-05 0)
(-0.00555877 -2.44473e-05 0)
(-0.00562983 -2.17207e-05 0)
(-0.00569921 -1.75924e-05 0)
(-0.0057674 -1.18607e-05 0)
(-0.00583498 -4.31177e-06 0)
(-0.00590185 4.48856e-06 0)
(-0.00596881 1.47817e-05 0)
(-0.00603617 2.6799e-05 0)
(-0.00610333 3.99438e-05 0)
(-0.00617124 5.43127e-05 0)
(-0.00624069 7.00618e-05 0)
(-0.00631105 8.62623e-05 0)
(-0.00638263 0.000102334 0)
(-0.0064559 0.000118231 0)
(-0.00653008 0.00013321 0)
(-0.00660497 0.00014669 0)
(-0.00668094 0.000158971 0)
(-0.0067569 0.000169925 0)
(-0.00683169 0.000178783 0)
(-0.00690554 0.000185333 0)
(-0.00697822 0.000189858 0)
(-0.00704855 0.000192471 0)
(-0.00711606 0.000193338 0)
(-0.00718054 0.00019276 0)
(-0.00724089 0.000190668 0)
(-0.00729593 0.000186577 0)
(-0.0073452 0.000179972 0)
(-0.00738818 0.000170545 0)
(-0.00742384 0.000158308 0)
(-0.0074514 0.000143493 0)
(-0.00747042 0.000126194 0)
(-0.00748044 0.000106353 0)
(-0.00748071 8.41245e-05 0)
(-0.00747038 5.9777e-05 0)
(-0.00744878 3.325e-05 0)
(-0.00741568 4.43705e-06 0)
(-0.00737107 -2.60975e-05 0)
(-0.00731477 -5.7235e-05 0)
(-0.00724667 -8.80327e-05 0)
(-0.00716733 -0.000117796 0)
(-0.00707761 -0.000145605 0)
(-0.00697793 -0.000170434 0)
(-0.00686858 -0.000191759 0)
(-0.00675059 -0.000209527 0)
(-0.00662554 -0.000223479 0)
(-0.00649459 -0.000233004 0)
(-0.0063584 -0.00023778 0)
(-0.00621794 -0.000238186 0)
(-0.00607457 -0.000234943 0)
(-0.00592913 -0.000228692 0)
(-0.00578183 -0.000220101 0)
(-0.00563316 -0.000210121 0)
(-0.00548428 -0.000199801 0)
(-0.00533613 -0.000189857 0)
(-0.00518869 -0.000180572 0)
(-0.00504162 -0.000172011 0)
(-0.00489512 -0.000164141 0)
(-0.00474979 -0.000156732 0)
(-0.00460588 -0.000149302 0)
(-0.00446332 -0.000141242 0)
(-0.00432216 -0.000132071 0)
(-0.00418267 -0.000121704 0)
(-0.00404495 -0.000110629 0)
(-0.00390882 -9.98377e-05 0)
(-0.00377422 -9.04362e-05 0)
(-0.0036413 -8.31115e-05 0)
(-0.00351016 -7.7864e-05 0)
(-0.00338052 -7.42242e-05 0)
(-0.00325184 -7.17988e-05 0)
(-0.00312372 -7.06467e-05 0)
(-0.00299618 -7.10763e-05 0)
(-0.00286939 -7.31329e-05 0)
(-0.00274321 -7.64484e-05 0)
(-0.00261707 -8.0607e-05 0)
(-0.0024904 -8.55394e-05 0)
(-0.00236309 -9.15151e-05 0)
(-0.00223547 -9.8745e-05 0)
(-0.00210794 -0.000107061 0)
(-0.00198051 -0.000116097 0)
(-0.00185293 -0.000125623 0)
(-0.00172519 -0.000135429 0)
(-0.00159772 -0.000145123 0)
(-0.00147099 -0.000154256 0)
(-0.00134532 -0.000162541 0)
(-0.00122099 -0.000170049 0)
(-0.00109841 -0.000177087 0)
(-0.000978544 -0.000183574 0)
(-0.000862366 -0.000188856 0)
(-0.000750345 -0.000192094 0)
(-0.000642911 -0.000192568 0)
(-0.00054067 -0.000190041 0)
(-0.000444629 -0.000184738 0)
(-0.000356244 -0.000176816 0)
(-0.000276479 -0.000166357 0)
(-0.000205762 -0.000153408 0)
(-0.000144309 -0.000138012 0)
(-9.22763e-05 -0.000120786 0)
(-5.01638e-05 -0.000102724 0)
(-1.85235e-05 -8.48573e-05 0)
(2.43498e-06 -6.79638e-05 0)
(1.3474e-05 -5.23314e-05 0)
(1.46729e-05 -3.68256e-05 0)
(9.20413e-06 -2.09118e-05 0)
(3.93332e-06 -6.5679e-06 0)
(-5.75786e-05 8.54999e-05 0)
(-0.000136553 5.7059e-05 0)
(-0.000208562 -7.80295e-05 0)
(-0.000233272 -0.000178979 0)
(-0.000227891 -0.000235729 0)
(-0.000213173 -0.000259701 0)
(-0.000192694 -0.00025796 0)
(-0.000176981 -0.000238601 0)
(-0.000170115 -0.000204275 0)
(-0.000174939 -0.000159865 0)
(-0.00019351 -0.000105268 0)
(-0.000225469 -4.61247e-05 0)
(-0.000273435 1.89038e-05 0)
(-0.000337124 8.73458e-05 0)
(-0.000415349 0.000156552 0)
(-0.000508383 0.000225456 0)
(-0.000616574 0.000291261 0)
(-0.000737679 0.000351668 0)
(-0.000872129 0.000407593 0)
(-0.00101962 0.000453999 0)
(-0.00117867 0.000496348 0)
(-0.0013481 0.000527468 0)
(-0.00152835 0.000553806 0)
(-0.00171603 0.00056783 0)
(-0.00191195 0.000578943 0)
(-0.00211568 0.000579133 0)
(-0.00232364 0.000577453 0)
(-0.00253729 0.000569174 0)
(-0.00275416 0.000557613 0)
(-0.00297228 0.000541401 0)
(-0.00319257 0.000522409 0)
(-0.00341428 0.000500869 0)
(-0.00363587 0.000477235 0)
(-0.00385712 0.000452385 0)
(-0.00407831 0.000426736 0)
(-0.0042985 0.000400614 0)
(-0.00451663 0.000374161 0)
(-0.00473219 0.000346848 0)
(-0.00494516 0.000319222 0)
(-0.00515547 0.000292595 0)
(-0.00536274 0.000267122 0)
(-0.00556724 0.000243382 0)
(-0.00576852 0.000221656 0)
(-0.00596586 0.00020216 0)
(-0.00615913 0.000185096 0)
(-0.00634817 0.000170173 0)
(-0.00653364 0.000157722 0)
(-0.00671493 0.000147157 0)
(-0.0068912 0.000137505 0)
(-0.00706343 0.000128778 0)
(-0.00723162 0.000120471 0)
(-0.00739561 0.000112444 0)
(-0.00755579 0.000104948 0)
(-0.00771197 9.7677e-05 0)
(-0.00786471 9.1464e-05 0)
(-0.00801365 8.71425e-05 0)
(-0.00815796 8.45219e-05 0)
(-0.00829848 8.40043e-05 0)
(-0.0084353 8.56158e-05 0)
(-0.00856766 8.86922e-05 0)
(-0.00869596 9.36297e-05 0)
(-0.0088204 0.000100485 0)
(-0.00894075 0.000108583 0)
(-0.00905727 0.000118398 0)
(-0.00916983 0.000130187 0)
(-0.00927809 0.000142956 0)
(-0.00938251 0.000156555 0)
(-0.00948347 0.00017132 0)
(-0.00958043 0.000186276 0)
(-0.00967305 0.000200361 0)
(-0.00976179 0.000213517 0)
(-0.00984654 0.000225416 0)
(-0.00992648 0.00023533 0)
(-0.0100016 0.000243165 0)
(-0.0100722 0.000249065 0)
(-0.0101376 0.000252614 0)
(-0.0101971 0.000253381 0)
(-0.0102511 0.000251543 0)
(-0.0102994 0.000247522 0)
(-0.0103406 0.000241436 0)
(-0.0103739 0.000233015 0)
(-0.0104002 0.000221877 0)
(-0.0104188 0.000207816 0)
(-0.0104279 0.000190746 0)
(-0.0104277 0.000170467 0)
(-0.010419 0.000146822 0)
(-0.0104014 0.000120042 0)
(-0.0103734 9.05411e-05 0)
(-0.0103351 5.84044e-05 0)
(-0.0102872 2.34902e-05 0)
(-0.0102292 -1.39889e-05 0)
(-0.0101604 -5.33925e-05 0)
(-0.0100812 -9.40874e-05 0)
(-0.00999251 -0.00013551 0)
(-0.00989435 -0.000176757 0)
(-0.00978648 -0.000216531 0)
(-0.00966938 -0.000253664 0)
(-0.00954373 -0.000287452 0)
(-0.00940967 -0.00031742 0)
(-0.0092674 -0.000343022 0)
(-0.00911755 -0.000363758 0)
(-0.0089607 -0.000379413 0)
(-0.00879711 -0.000390042 0)
(-0.00862717 -0.000395821 0)
(-0.00845152 -0.00039709 0)
(-0.00827046 -0.000394509 0)
(-0.00808398 -0.000389052 0)
(-0.00789252 -0.000381803 0)
(-0.00769728 -0.000373723 0)
(-0.00749914 -0.000365495 0)
(-0.00729819 -0.000357464 0)
(-0.00709444 -0.000349702 0)
(-0.00688866 -0.000342141 0)
(-0.00668186 -0.000334639 0)
(-0.00647437 -0.000326915 0)
(-0.00626592 -0.000318496 0)
(-0.0060564 -0.000308924 0)
(-0.00584611 -0.000298155 0)
(-0.00563528 -0.000286764 0)
(-0.00542389 -0.000275692 0)
(-0.00521204 -0.000265785 0)
(-0.00500014 -0.000257535 0)
(-0.00478872 -0.000251097 0)
(-0.00457798 -0.000246387 0)
(-0.00436798 -0.000243193 0)
(-0.00415885 -0.000241363 0)
(-0.00395091 -0.000240901 0)
(-0.00374449 -0.000241805 0)
(-0.0035397 -0.000243936 0)
(-0.00333642 -0.00024709 0)
(-0.00313464 -0.000251138 0)
(-0.00293468 -0.000256088 0)
(-0.00273709 -0.00026201 0)
(-0.00254246 -0.000268825 0)
(-0.00235123 -0.000276232 0)
(-0.00216354 -0.000283901 0)
(-0.00197952 -0.000291449 0)
(-0.00179971 -0.000298366 0)
(-0.00162479 -0.000304273 0)
(-0.0014553 -0.00030901 0)
(-0.00129183 -0.000312558 0)
(-0.00113492 -0.000315009 0)
(-0.000985316 -0.000316077 0)
(-0.000843874 -0.000314994 0)
(-0.000711006 -0.00031111 0)
(-0.000587036 -0.000303933 0)
(-0.000472611 -0.000293279 0)
(-0.00036848 -0.000279301 0)
(-0.000275577 -0.000261954 0)
(-0.000194352 -0.0002413 0)
(-0.000124478 -0.000217549 0)
(-6.58301e-05 -0.000191083 0)
(-1.85735e-05 -0.000162764 0)
(1.6794e-05 -0.000133673 0)
(3.98699e-05 -0.000104841 0)
(5.08338e-05 -7.71461e-05 0)
(5.13868e-05 -5.12456e-05 0)
(4.14713e-05 -2.69884e-05 0)
(2.38417e-05 -5.77755e-06 0)
(9.62999e-06 4.3051e-06 0)
(-7.15093e-05 0.000176344 0)
(-0.000170973 0.000170112 0)
(-0.000271865 -1.5181e-05 0)
(-0.000323985 -0.00015221 0)
(-0.000346036 -0.00022983 0)
(-0.000356792 -0.000260439 0)
(-0.000367494 -0.000256987 0)
(-0.000382189 -0.000231556 0)
(-0.000405693 -0.00018633 0)
(-0.000440743 -0.00013037 0)
(-0.000489461 -6.29156e-05 0)
(-0.000552947 1.17163e-05 0)
(-0.000629828 8.9812e-05 0)
(-0.000721366 0.00017194 0)
(-0.000826392 0.000254998 0)
(-0.000945663 0.000335924 0)
(-0.00107742 0.000415114 0)
(-0.00122128 0.000488123 0)
(-0.00137875 0.000554843 0)
(-0.00154668 0.000614813 0)
(-0.00172665 0.000665697 0)
(-0.00191765 0.000708818 0)
(-0.00211885 0.000742365 0)
(-0.0023305 0.000768513 0)
(-0.00255096 0.000784507 0)
(-0.00278026 0.000794748 0)
(-0.00301755 0.000798113 0)
(-0.00326219 0.000795091 0)
(-0.00351203 0.00078828 0)
(-0.00376825 0.000776985 0)
(-0.00402897 0.000761563 0)
(-0.00429336 0.000742975 0)
(-0.00456073 0.000721636 0)
(-0.00483067 0.000697852 0)
(-0.00510277 0.00067245 0)
(-0.00537621 0.000646128 0)
(-0.00565078 0.000619193 0)
(-0.00592602 0.000591794 0)
(-0.0062006 0.000563932 0)
(-0.00647426 0.000536114 0)
(-0.00674696 0.000508697 0)
(-0.00701829 0.000482493 0)
(-0.00728746 0.000458231 0)
(-0.00755388 0.000435744 0)
(-0.00781743 0.00041525 0)
(-0.00807703 0.000396546 0)
(-0.0083324 0.000379752 0)
(-0.00858372 0.000364923 0)
(-0.00883027 0.000350956 0)
(-0.00907206 0.000337685 0)
(-0.00930863 0.000325052 0)
(-0.00953975 0.000312354 0)
(-0.00976641 0.000300076 0)
(-0.00998824 0.000288516 0)
(-0.0102046 0.000277731 0)
(-0.0104158 0.000268735 0)
(-0.0106213 0.000261336 0)
(-0.0108206 0.000255096 0)
(-0.011014 0.000251015 0)
(-0.011201 0.000248953 0)
(-0.011381 0.000247973 0)
(-0.0115545 0.000248679 0)
(-0.0117214 0.000251388 0)
(-0.0118806 0.000255325 0)
(-0.0120323 0.000260628 0)
(-0.0121772 0.000267588 0)
(-0.0123141 0.000275295 0)
(-0.0124426 0.000283157 0)
(-0.012564 0.000291422 0)
(-0.0126778 0.000299554 0)
(-0.0127826 0.000306365 0)
(-0.0128794 0.000311433 0)
(-0.0129686 0.000314801 0)
(-0.0130488 0.000316063 0)
(-0.0131195 0.000314718 0)
(-0.0131823 0.000310684 0)
(-0.0132371 0.000304075 0)
(-0.0132824 0.000294926 0)
(-0.013318 0.00028315 0)
(-0.0133447 0.000268559 0)
(-0.0133618 0.000251076 0)
(-0.0133683 0.000230758 0)
(-0.0133641 0.000207425 0)
(-0.0133495 0.000180664 0)
(-0.0133246 0.000150395 0)
(-0.0132891 0.000116973 0)
(-0.0132427 8.05797e-05 0)
(-0.0131857 4.10596e-05 0)
(-0.0131185 -1.51641e-06 0)
(-0.0130407 -4.66388e-05 0)
(-0.012952 -9.38429e-05 0)
(-0.0128527 -0.0001429 0)
(-0.0127439 -0.000193323 0)
(-0.012626 -0.000244071 0)
(-0.0124984 -0.000293962 0)
(-0.0123613 -0.000342122 0)
(-0.0122156 -0.000387843 0)
(-0.0120616 -0.000430279 0)
(-0.0118986 -0.000468526 0)
(-0.0117266 -0.000501946 0)
(-0.0115465 -0.000530265 0)
(-0.0113585 -0.000553413 0)
(-0.0111624 -0.000571397 0)
(-0.0109577 -0.00058434 0)
(-0.010745 -0.000592592 0)
(-0.0105247 -0.000596778 0)
(-0.0102968 -0.000597742 0)
(-0.0100614 -0.000596417 0)
(-0.00981959 -0.000593658 0)
(-0.00957235 -0.000590108 0)
(-0.0093198 -0.000586137 0)
(-0.00906209 -0.000581897 0)
(-0.00880015 -0.000577406 0)
(-0.00853518 -0.000572561 0)
(-0.00826763 -0.000567075 0)
(-0.00799721 -0.000560525 0)
(-0.0077239 -0.000552645 0)
(-0.00744819 -0.000543621 0)
(-0.00717048 -0.000534056 0)
(-0.0068908 -0.00052463 0)
(-0.00660931 -0.000515822 0)
(-0.00632677 -0.000507945 0)
(-0.00604407 -0.000501281 0)
(-0.00576171 -0.000496034 0)
(-0.00547988 -0.00049215 0)
(-0.00519897 -0.000489372 0)
(-0.00491969 -0.000487498 0)
(-0.00464271 -0.000486497 0)
(-0.00436843 -0.000486373 0)
(-0.00409695 -0.000487018 0)
(-0.00382851 -0.00048821 0)
(-0.00356377 -0.000489766 0)
(-0.00330368 -0.000491705 0)
(-0.00304905 -0.000494104 0)
(-0.00280041 -0.000496739 0)
(-0.002558 -0.000499069 0)
(-0.00232213 -0.000500511 0)
(-0.00209363 -0.000500606 0)
(-0.00187348 -0.000499192 0)
(-0.00166237 -0.000496307 0)
(-0.00146088 -0.00049182 0)
(-0.00126948 -0.000485419 0)
(-0.00108877 -0.000476644 0)
(-0.000919679 -0.000464872 0)
(-0.00076278 -0.000449699 0)
(-0.00061838 -0.000430966 0)
(-0.000487008 -0.000408533 0)
(-0.000369113 -0.000382399 0)
(-0.000265277 -0.000352553 0)
(-0.000175682 -0.000318953 0)
(-9.98295e-05 -0.000282007 0)
(-3.74301e-05 -0.000242452 0)
(1.14902e-05 -0.000201338 0)
(4.67564e-05 -0.000159882 0)
(6.83203e-05 -0.000119006 0)
(7.65439e-05 -7.95953e-05 0)
(7.32689e-05 -4.23511e-05 0)
(5.81985e-05 -8.17938e-06 0)
(3.37898e-05 1.93578e-05 0)
(1.36907e-05 2.16948e-05 0)
(-7.96522e-05 0.000284366 0)
(-0.000191792 0.000305431 0)
(-0.000310623 7.07516e-05 0)
(-0.000381425 -0.000105984 0)
(-0.000423056 -0.000199683 0)
(-0.000454966 -0.000237046 0)
(-0.000487786 -0.000233712 0)
(-0.00052659 -0.000198043 0)
(-0.000576136 -0.000144906 0)
(-0.000638731 -7.26008e-05 0)
(-0.000713092 6.37055e-06 0)
(-0.000803959 9.56751e-05 0)
(-0.000909149 0.000188576 0)
(-0.00102754 0.000284504 0)
(-0.00116134 0.000379827 0)
(-0.00130727 0.000474871 0)
(-0.00146736 0.000564974 0)
(-0.00164059 0.000651259 0)
(-0.0018244 0.000729672 0)
(-0.00202186 0.000801725 0)
(-0.00223089 0.000863176 0)
(-0.002451 0.000918413 0)
(-0.00268309 0.000961435 0)
(-0.00292607 0.000998412 0)
(-0.00317978 0.00102423 0)
(-0.00344308 0.00104407 0)
(-0.00371686 0.00105505 0)
(-0.00399911 0.00106138 0)
(-0.00428867 0.00106017 0)
(-0.00458589 0.00105443 0)
(-0.00489008 0.00104481 0)
(-0.0052004 0.00103132 0)
(-0.00551584 0.00101446 0)
(-0.00583552 0.000994584 0)
(-0.00615901 0.000972301 0)
(-0.00648561 0.000948013 0)
(-0.00681453 0.000921961 0)
(-0.0071454 0.000895105 0)
(-0.00747765 0.000867777 0)
(-0.0078106 0.000839984 0)
(-0.00814318 0.000812055 0)
(-0.0084748 0.000784579 0)
(-0.00880538 0.000758341 0)
(-0.00913395 0.000733187 0)
(-0.0094596 0.00070945 0)
(-0.00978145 0.000687338 0)
(-0.0100992 0.000666169 0)
(-0.0104127 0.000646203 0)
(-0.0107208 0.000627237 0)
(-0.0110232 0.000608715 0)
(-0.0113203 0.00059088 0)
(-0.0116115 0.000572945 0)
(-0.0118963 0.000554772 0)
(-0.0121749 0.000537598 0)
(-0.0124471 0.000521164 0)
(-0.0127125 0.000505361 0)
(-0.0129709 0.000491284 0)
(-0.0132216 0.000478596 0)
(-0.0134638 0.000466757 0)
(-0.0136982 0.000456721 0)
(-0.0139241 0.000448421 0)
(-0.0141402 0.00044088 0)
(-0.0143472 0.00043465 0)
(-0.0145451 0.000430372 0)
(-0.0147323 0.00042715 0)
(-0.0149089 0.000424452 0)
(-0.0150759 0.000422726 0)
(-0.015232 0.000421619 0)
(-0.0153762 0.000420097 0)
(-0.0155096 0.000417767 0)
(-0.0156325 0.00041455 0)
(-0.0157439 0.000409955 0)
(-0.0158431 0.000403389 0)
(-0.0159308 0.000394474 0)
(-0.0160076 0.00038296 0)
(-0.0160726 0.000368722 0)
(-0.0161252 0.00035173 0)
(-0.0161665 0.00033192 0)
(-0.0161969 0.000309259 0)
(-0.0162151 0.000283782 0)
(-0.0162202 0.000255396 0)
(-0.0162134 0.000223816 0)
(-0.0161949 0.000188865 0)
(-0.0161636 0.000150639 0)
(-0.0161192 0.000109241 0)
(-0.016063 6.45811e-05 0)
(-0.0159957 1.66448e-05 0)
(-0.0159163 -3.42331e-05 0)
(-0.0158246 -8.76057e-05 0)
(-0.0157217 -0.000143273 0)
(-0.0156077 -0.000201109 0)
(-0.0154827 -0.000260607 0)
(-0.015347 -0.000320882 0)
(-0.0152011 -0.000381039 0)
(-0.0150454 -0.000440299 0)
(-0.0148802 -0.000497797 0)
(-0.0147055 -0.000552569 0)
(-0.0145213 -0.000603798 0)
(-0.0143274 -0.000650907 0)
(-0.0141237 -0.000693405 0)
(-0.0139108 -0.000730831 0)
(-0.0136887 -0.000762926 0)
(-0.0134568 -0.000789735 0)
(-0.013215 -0.000811487 0)
(-0.0129636 -0.00082851 0)
(-0.0127027 -0.000841313 0)
(-0.0124322 -0.000850647 0)
(-0.0121526 -0.00085734 0)
(-0.0118648 -0.00086205 0)
(-0.0115696 -0.000865203 0)
(-0.0112672 -0.000867117 0)
(-0.0109578 -0.000868094 0)
(-0.0106426 -0.000868317 0)
(-0.0103227 -0.000867711 0)
(-0.00999841 -0.000865972 0)
(-0.00966961 -0.000862783 0)
(-0.00933657 -0.00085807 0)
(-0.00900012 -0.000852081 0)
(-0.00866076 -0.000845253 0)
(-0.00831845 -0.000838041 0)
(-0.0079734 -0.00083086 0)
(-0.00762664 -0.000824045 0)
(-0.00727944 -0.000817817 0)
(-0.0069325 -0.000812259 0)
(-0.00658603 -0.000807333 0)
(-0.00624055 -0.000802931 0)
(-0.00589707 -0.000798984 0)
(-0.00555663 -0.000795454 0)
(-0.00521981 -0.000792214 0)
(-0.0048868 -0.000789033 0)
(-0.004558 -0.000785711 0)
(-0.00423448 -0.000782156 0)
(-0.0039176 -0.000778378 0)
(-0.0036083 -0.00077437 0)
(-0.00330693 -0.000769819 0)
(-0.00301373 -0.000764112 0)
(-0.0027293 -0.000756735 0)
(-0.00245488 -0.000747395 0)
(-0.0021918 -0.000735981 0)
(-0.00194071 -0.000722511 0)
(-0.00170194 -0.000706719 0)
(-0.00147588 -0.000688098 0)
(-0.0012632 -0.000666298 0)
(-0.00106495 -0.000640941 0)
(-0.000881911 -0.000611788 0)
(-0.000714339 -0.000578814 0)
(-0.000562574 -0.000541787 0)
(-0.000426947 -0.000500718 0)
(-0.000307699 -0.000455736 0)
(-0.000204904 -0.000406952 0)
(-0.000118115 -0.000354926 0)
(-4.69709e-05 -0.000300491 0)
(8.61951e-06 -0.000244857 0)
(4.88535e-05 -0.000189259 0)
(7.40649e-05 -0.000134799 0)
(8.4897e-05 -8.24207e-05 0)
(8.30449e-05 -3.28281e-05 0)
(6.72377e-05 1.29053e-05 0)
(3.97746e-05 4.90853e-05 0)
(1.61523e-05 4.31998e-05 0)
(-8.2378e-05 0.000398136 0)
(-0.000199431 0.000455299 0)
(-0.000329467 0.000170124 0)
(-0.000413821 -4.11086e-05 0)
(-0.000469719 -0.000152753 0)
(-0.000521079 -0.000194267 0)
(-0.00057182 -0.000186158 0)
(-0.000632825 -0.000144455 0)
(-0.000704075 -7.67134e-05 0)
(-0.000789461 6.57835e-06 0)
(-0.00089141 0.000103331 0)
(-0.00100663 0.000206144 0)
(-0.00113875 0.000314489 0)
(-0.00128627 0.000424494 0)
(-0.00144736 0.000534832 0)
(-0.001624 0.000642619 0)
(-0.00181398 0.000746153 0)
(-0.00201684 0.000844753 0)
(-0.00223436 0.000936241 0)
(-0.00246433 0.00101921 0)
(-0.0027063 0.00109501 0)
(-0.00296182 0.00115969 0)
(-0.0032292 0.0012166 0)
(-0.00350865 0.00126307 0)
(-0.00380029 0.00130151 0)
(-0.00410251 0.00133095 0)
(-0.00441583 0.00135225 0)
(-0.00473978 0.00136763 0)
(-0.00507345 0.00137588 0)
(-0.00541452 0.00137793 0)
(-0.00576403 0.00137476 0)
(-0.00612118 0.0013672 0)
(-0.00648481 0.00135582 0)
(-0.00685415 0.00134098 0)
(-0.00722847 0.00132307 0)
(-0.00760709 0.0013025 0)
(-0.007989 0.00127935 0)
(-0.00837345 0.00125441 0)
(-0.00875987 0.00122813 0)
(-0.00914778 0.0012008 0)
(-0.00953625 0.00117306 0)
(-0.00992406 0.00114493 0)
(-0.0103107 0.00111695 0)
(-0.0106956 0.0010895 0)
(-0.0110777 0.0010626 0)
(-0.0114563 0.00103678 0)
(-0.0118305 0.00101136 0)
(-0.0121996 0.000986123 0)
(-0.0125633 0.000961713 0)
(-0.0129208 0.000937308 0)
(-0.0132719 0.000912794 0)
(-0.0136165 0.000888742 0)
(-0.0139537 0.000864311 0)
(-0.0142831 0.000839673 0)
(-0.0146054 0.000816066 0)
(-0.0149192 0.000792929 0)
(-0.015224 0.000769983 0)
(-0.0155205 0.000748508 0)
(-0.0158072 0.000728319 0)
(-0.016083 0.000708428 0)
(-0.0163489 0.000689583 0)
(-0.0166045 0.000672354 0)
(-0.0168478 0.000655883 0)
(-0.0170788 0.000639995 0)
(-0.0172986 0.000625238 0)
(-0.0175061 0.000611301 0)
(-0.0176996 0.000597568 0)
(-0.0178798 0.00058394 0)
(-0.0180478 0.000570118 0)
(-0.018202 0.000555371 0)
(-0.0183411 0.000539258 0)
(-0.0184667 0.000521652 0)
(-0.0185792 0.00050219 0)
(-0.0186771 0.000480414 0)
(-0.01876 0.000456125 0)
(-0.0188293 0.00042913 0)