/*--------------------------------*- C++ -*----------------------------------*\
  =========                 |
  \\      /  F ield         | OpenFOAM: The Open Source CFD Toolbox
   \\    /   O peration     | Website:  https://openfoam.org
    \\  /    A nd           | Version:  7
     \\/     M anipulation  |
\*---------------------------------------------------------------------------*/
FoamFile
{
    version     2.0;
    format      ascii;
    class       volVectorField;
    location    "0.1875";
    object      U;
}
// * * * * * * * * * * * * * * * * * * * * * * * * * * * * * * * * * * * * * //

dimensions      [0 1 -1 0 0 0 0];

internalField   nonuniform List<vector> 
25600
(
(4.42884e-07 -4.42515e-07 0)
(2.75031e-06 -1.60025e-06 0)
(7.1227e-06 -2.11585e-06 0)
(1.17705e-05 -2.00097e-06 0)
(1.55788e-05 -1.58392e-06 0)
(1.79545e-05 -1.03134e-06 0)
(1.8604e-05 -4.20771e-07 0)
(1.73656e-05 2.16528e-07 0)
(1.41596e-05 8.51686e-07 0)
(8.96747e-06 1.47772e-06 0)
(1.8084e-06 2.08248e-06 0)
(-7.27728e-06 2.66332e-06 0)
(-1.82205e-05 3.2189e-06 0)
(-3.09518e-05 3.7447e-06 0)
(-4.5386e-05 4.24102e-06 0)
(-6.14325e-05 4.70759e-06 0)
(-7.90045e-05 5.14223e-06 0)
(-9.80058e-05 5.54731e-06 0)
(-0.000118344 5.92533e-06 0)
(-0.00013993 6.27416e-06 0)
(-0.000162671 6.59518e-06 0)
(-0.000186477 6.89116e-06 0)
(-0.000211266 7.15972e-06 0)
(-0.000236951 7.40241e-06 0)
(-0.000263451 7.62269e-06 0)
(-0.000290689 7.81989e-06 0)
(-0.00031859 7.99485e-06 0)
(-0.000347079 8.15086e-06 0)
(-0.00037609 8.28807e-06 0)
(-0.000405556 8.40536e-06 0)
(-0.000435412 8.50502e-06 0)
(-0.000465597 8.58889e-06 0)
(-0.000496054 8.65614e-06 0)
(-0.000526728 8.70727e-06 0)
(-0.000557565 8.74417e-06 0)
(-0.000588513 8.76722e-06 0)
(-0.000619526 8.7761e-06 0)
(-0.000650557 8.77184e-06 0)
(-0.00068156 8.75571e-06 0)
(-0.000712494 8.72815e-06 0)
(-0.000743319 8.68941e-06 0)
(-0.000773995 8.64028e-06 0)
(-0.000804484 8.58216e-06 0)
(-0.000834752 8.51531e-06 0)
(-0.000864763 8.43862e-06 0)
(-0.000894484 8.35179e-06 0)
(-0.000923883 8.25559e-06 0)
(-0.000952926 8.15067e-06 0)
(-0.000981586 8.03734e-06 0)
(-0.00100983 7.91626e-06 0)
(-0.00103763 7.78839e-06 0)
(-0.00106496 7.65361e-06 0)
(-0.00109179 7.51083e-06 0)
(-0.0011181 7.35948e-06 0)
(-0.00114385 7.2002e-06 0)
(-0.00116902 7.03391e-06 0)
(-0.00119358 6.86076e-06 0)
(-0.00121752 6.68052e-06 0)
(-0.00124079 6.49332e-06 0)
(-0.00126338 6.29917e-06 0)
(-0.00128527 6.09779e-06 0)
(-0.00130642 5.88906e-06 0)
(-0.00132682 5.67335e-06 0)
(-0.00134643 5.45124e-06 0)
(-0.00136524 5.22272e-06 0)
(-0.00138322 4.98704e-06 0)
(-0.00140034 4.74379e-06 0)
(-0.00141659 4.49361e-06 0)
(-0.00143193 4.23741e-06 0)
(-0.00144636 3.97546e-06 0)
(-0.00145983 3.70721e-06 0)
(-0.00147234 3.43191e-06 0)
(-0.00148386 3.14962e-06 0)
(-0.00149437 2.86121e-06 0)
(-0.00150384 2.56739e-06 0)
(-0.00151226 2.2682e-06 0)
(-0.00151961 1.96332e-06 0)
(-0.00152587 1.65244e-06 0)
(-0.00153101 1.3359e-06 0)
(-0.00153503 1.01453e-06 0)
(-0.00153791 6.88805e-07 0)
(-0.00153962 3.58744e-07 0)
(-0.00154017 2.44091e-08 0)
(-0.00153953 -3.13757e-07 0)
(-0.00153769 -6.55134e-07 0)
(-0.00153464 -9.99325e-07 0)
(-0.00153037 -1.34618e-06 0)
(-0.00152488 -1.69548e-06 0)
(-0.00151816 -2.04671e-06 0)
(-0.00151021 -2.39899e-06 0)
(-0.00150101 -2.7514e-06 0)
(-0.00149058 -3.10347e-06 0)
(-0.00147892 -3.45514e-06 0)
(-0.00146602 -3.80615e-06 0)
(-0.0014519 -4.15574e-06 0)
(-0.00143656 -4.50286e-06 0)
(-0.00142001 -4.84651e-06 0)
(-0.00140226 -5.18596e-06 0)
(-0.00138334 -5.52084e-06 0)
(-0.00136326 -5.85067e-06 0)
(-0.00134203 -6.17459e-06 0)
(-0.00131969 -6.49156e-06 0)
(-0.00129626 -6.80074e-06 0)
(-0.00127176 -7.1015e-06 0)
(-0.00124623 -7.39321e-06 0)
(-0.0012197 -7.67502e-06 0)
(-0.00119221 -7.94592e-06 0)
(-0.00116379 -8.20506e-06 0)
(-0.0011345 -8.45179e-06 0)
(-0.00110437 -8.6854e-06 0)
(-0.00107345 -8.90499e-06 0)
(-0.0010418 -9.10973e-06 0)
(-0.00100946 -9.2989e-06 0)
(-0.000976493 -9.4718e-06 0)
(-0.000942954 -9.62768e-06 0)
(-0.000908905 -9.76577e-06 0)
(-0.000874409 -9.88531e-06 0)
(-0.000839531 -9.98565e-06 0)
(-0.000804338 -1.00662e-05 0)
(-0.000768901 -1.01266e-05 0)
(-0.000733291 -1.01661e-05 0)
(-0.000697581 -1.01841e-05 0)
(-0.000661846 -1.01801e-05 0)
(-0.000626164 -1.01537e-05 0)
(-0.000590611 -1.01045e-05 0)
(-0.000555269 -1.00323e-05 0)
(-0.000520217 -9.93635e-06 0)
(-0.000485538 -9.81621e-06 0)
(-0.000451315 -9.67161e-06 0)
(-0.000417632 -9.50266e-06 0)
(-0.000384571 -9.30948e-06 0)
(-0.000352218 -9.09184e-06 0)
(-0.000320658 -8.84922e-06 0)
(-0.000289974 -8.58139e-06 0)
(-0.000260252 -8.28865e-06 0)
(-0.000231575 -7.97151e-06 0)
(-0.000204026 -7.63015e-06 0)
(-0.000177688 -7.26434e-06 0)
(-0.000152642 -6.87401e-06 0)
(-0.000128967 -6.45964e-06 0)
(-0.000106741 -6.02213e-06 0)
(-8.60392e-05 -5.56224e-06 0)
(-6.69338e-05 -5.08036e-06 0)
(-4.9494e-05 -4.57683e-06 0)
(-3.37846e-05 -4.05242e-06 0)
(-1.98653e-05 -3.50869e-06 0)
(-7.78893e-06 -2.94763e-06 0)
(2.40024e-06 -2.37155e-06 0)
(1.06688e-05 -1.78314e-06 0)
(1.69972e-05 -1.18619e-06 0)
(2.13844e-05 -5.86624e-07 0)
(2.38551e-05 6.82486e-09 0)
(2.44683e-05 5.81756e-07 0)
(2.3331e-05 1.11943e-06 0)
(2.06198e-05 1.59008e-06 0)
(1.6612e-05 1.94609e-06 0)
(1.17267e-05 2.11174e-06 0)
(6.5988e-06 1.96599e-06 0)
(2.2859e-06 1.34028e-06 0)
(2.50207e-07 2.48296e-07 0)
(1.35985e-06 -2.67953e-06 0)
(6.43095e-06 -6.7371e-06 0)
(1.43153e-05 -8.31178e-06 0)
(2.21338e-05 -7.56339e-06 0)
(2.77902e-05 -5.39186e-06 0)
(2.99728e-05 -2.39342e-06 0)
(2.78644e-05 1.08428e-06 0)
(2.09351e-05 4.81689e-06 0)
(8.88764e-06 8.66631e-06 0)
(-8.41162e-06 1.25307e-05 0)
(-3.09873e-05 1.63428e-05 0)
(-5.87667e-05 2.00607e-05 0)
(-9.16346e-05 2.36479e-05 0)
(-0.000129418 2.70861e-05 0)
(-0.000171918 3.03612e-05 0)
(-0.00021892 3.34605e-05 0)
(-0.000270188 3.63815e-05 0)
(-0.000325481 3.91224e-05 0)
(-0.000384558 4.16812e-05 0)
(-0.000447169 4.40623e-05 0)
(-0.000513069 4.6268e-05 0)
(-0.000582019 4.83008e-05 0)
(-0.000653779 5.0166e-05 0)
(-0.000728116 5.18685e-05 0)
(-0.000804807 5.34136e-05 0)
(-0.000883632 5.48058e-05 0)
(-0.000964376 5.60525e-05 0)
(-0.00104684 5.71594e-05 0)
(-0.00113082 5.81316e-05 0)
(-0.00121613 5.89744e-05 0)
(-0.00130259 5.96943e-05 0)
(-0.00139003 6.02961e-05 0)
(-0.00147826 6.07842e-05 0)
(-0.00156715 6.11644e-05 0)
(-0.00165652 6.1442e-05 0)
(-0.00174624 6.16205e-05 0)
(-0.00183616 6.1704e-05 0)
(-0.00192615 6.16973e-05 0)
(-0.00201608 6.16045e-05 0)
(-0.00210582 6.14285e-05 0)
(-0.00219525 6.11727e-05 0)
(-0.00228426 6.08407e-05 0)
(-0.00237274 6.0436e-05 0)
(-0.00246058 5.99614e-05 0)
(-0.00254768 5.94187e-05 0)
(-0.00263395 5.88098e-05 0)
(-0.00271928 5.81371e-05 0)
(-0.00280357 5.74021e-05 0)
(-0.00288675 5.66062e-05 0)
(-0.00296873 5.57517e-05 0)
(-0.00304941 5.48411e-05 0)
(-0.00312871 5.38751e-05 0)
(-0.00320656 5.28538e-05 0)
(-0.00328287 5.17779e-05 0)
(-0.00335756 5.06487e-05 0)
(-0.00343056 4.94674e-05 0)
(-0.00350178 4.8234e-05 0)
(-0.00357116 4.69492e-05 0)
(-0.00363862 4.56142e-05 0)
(-0.00370408 4.42297e-05 0)
(-0.00376747 4.27954e-05 0)
(-0.00382872 4.13112e-05 0)
(-0.00388775 3.97779e-05 0)
(-0.00394451 3.81969e-05 0)
(-0.00399891 3.65684e-05 0)
(-0.00405089 3.48924e-05 0)
(-0.00410037 3.31685e-05 0)
(-0.0041473 3.13978e-05 0)
(-0.0041916 2.95816e-05 0)
(-0.00423321 2.77206e-05 0)
(-0.00427206 2.58151e-05 0)
(-0.00430809 2.38656e-05 0)
(-0.00434124 2.18729e-05 0)
(-0.00437144 1.98382e-05 0)
(-0.00439864 1.77628e-05 0)
(-0.00442278 1.56479e-05 0)
(-0.0044438 1.34947e-05 0)
(-0.00446165 1.13047e-05 0)
(-0.00447628 9.07939e-06 0)
(-0.00448764 6.82079e-06 0)
(-0.00449569 4.53092e-06 0)
(-0.00450037 2.21182e-06 0)
(-0.00450166 -1.34217e-07 0)
(-0.00449951 -2.50471e-06 0)
(-0.0044939 -4.89698e-06 0)
(-0.00448479 -7.30818e-06 0)
(-0.00447216 -9.73548e-06 0)
(-0.00445599 -1.21758e-05 0)
(-0.00443628 -1.46257e-05 0)
(-0.00441299 -1.70817e-05 0)
(-0.00438614 -1.954e-05 0)
(-0.00435572 -2.19967e-05 0)
(-0.00432174 -2.44478e-05 0)
(-0.00428421 -2.68891e-05 0)
(-0.00424315 -2.93163e-05 0)
(-0.00419859 -3.17249e-05 0)
(-0.00415055 -3.41102e-05 0)
(-0.00409908 -3.64673e-05 0)
(-0.00404421 -3.8791e-05 0)
(-0.00398602 -4.10763e-05 0)
(-0.00392454 -4.33184e-05 0)
(-0.00385986 -4.55118e-05 0)
(-0.00379204 -4.76512e-05 0)
(-0.00372117 -4.97315e-05 0)
(-0.00364734 -5.17471e-05 0)
(-0.00357065 -5.36926e-05 0)
(-0.0034912 -5.55625e-05 0)
(-0.00340911 -5.73511e-05 0)
(-0.0033245 -5.90532e-05 0)
(-0.0032375 -6.06633e-05 0)
(-0.00314824 -6.21762e-05 0)
(-0.00305687 -6.35864e-05 0)
(-0.00296354 -6.48888e-05 0)
(-0.00286842 -6.60785e-05 0)
(-0.00277167 -6.71505e-05 0)
(-0.00267345 -6.80999e-05 0)
(-0.00257396 -6.89219e-05 0)
(-0.00247338 -6.9612e-05 0)
(-0.0023719 -7.01659e-05 0)
(-0.00226972 -7.05801e-05 0)
(-0.00216705 -7.08507e-05 0)
(-0.00206409 -7.09742e-05 0)
(-0.00196107 -7.09469e-05 0)
(-0.00185819 -7.07656e-05 0)
(-0.00175568 -7.04277e-05 0)
(-0.00165377 -6.99307e-05 0)
(-0.00155269 -6.92725e-05 0)
(-0.00145268 -6.8451e-05 0)
(-0.00135396 -6.74644e-05 0)
(-0.00125678 -6.63115e-05 0)
(-0.00116136 -6.49918e-05 0)
(-0.00106797 -6.3505e-05 0)
(-0.000976818 -6.18509e-05 0)
(-0.00088816 -6.00294e-05 0)
(-0.000802229 -5.80413e-05 0)
(-0.000719261 -5.58879e-05 0)
(-0.000639488 -5.35713e-05 0)
(-0.00056314 -5.10936e-05 0)
(-0.000490442 -4.84574e-05 0)
(-0.000421613 -4.56664e-05 0)
(-0.000356867 -4.27251e-05 0)
(-0.000296407 -3.9639e-05 0)
(-0.000240429 -3.64147e-05 0)
(-0.000189113 -3.306e-05 0)
(-0.000142628 -2.95845e-05 0)
(-0.000101124 -2.60008e-05 0)
(-6.47273e-05 -2.23248e-05 0)
(-3.35368e-05 -1.85764e-05 0)
(-7.6161e-06 -1.47811e-05 0)
(1.30157e-05 -1.09725e-05 0)
(2.83973e-05 -7.19495e-06 0)
(3.86419e-05 -3.50871e-06 0)
(4.39595e-05 4.08891e-09 0)
(4.46886e-05 3.22942e-06 0)
(4.13384e-05 6.00667e-06 0)
(3.46438e-05 8.108e-06 0)
(2.56151e-05 9.21574e-06 0)
(1.56056e-05 8.89405e-06 0)
(6.61382e-06 6.61983e-06 0)
(1.34014e-06 2.28275e-06 0)
(1.71003e-06 -6.59343e-06 0)
(7.53856e-06 -1.4422e-05 0)
(1.57897e-05 -1.6744e-05 0)
(2.29624e-05 -1.42756e-05 0)
(2.65345e-05 -8.53162e-06 0)
(2.48359e-05 -6.58079e-07 0)
(1.66916e-05 8.56165e-06 0)
(1.30714e-06 1.85835e-05 0)
(-2.18094e-05 2.90224e-05 0)
(-5.29204e-05 3.95993e-05 0)
(-9.20985e-05 5.01237e-05 0)
(-0.000139302 6.04466e-05 0)
(-0.000194378 7.04696e-05 0)
(-0.000257103 8.01247e-05 0)
(-0.000327208 8.93544e-05 0)
(-0.000404373 9.81309e-05 0)
(-0.000488261 0.000106432 0)
(-0.000578514 0.000114241 0)
(-0.000674762 0.000121559 0)
(-0.000776631 0.000128384 0)
(-0.000883746 0.00013472 0)
(-0.000995733 0.000140575 0)
(-0.00111222 0.000145961 0)
(-0.00123285 0.000150888 0)
(-0.00135727 0.000155369 0)
(-0.00148512 0.000159419 0)
(-0.00161609 0.000163051 0)
(-0.00174983 0.000166282 0)
(-0.00188604 0.000169127 0)
(-0.00202441 0.000171599 0)
(-0.00216465 0.000173715 0)
(-0.00230649 0.000175489 0)
(-0.00244964 0.000176935 0)
(-0.00259386 0.000178067 0)
(-0.00273889 0.000178898 0)
(-0.00288449 0.000179441 0)
(-0.00303044 0.000179708 0)
(-0.00317651 0.000179711 0)
(-0.0033225 0.00017946 0)
(-0.00346819 0.000178966 0)
(-0.00361339 0.000178237 0)
(-0.00375792 0.000177284 0)
(-0.0039016 0.000176115 0)
(-0.00404424 0.000174738 0)
(-0.00418569 0.000173159 0)
(-0.00432578 0.000171386 0)
(-0.00446434 0.000169426 0)
(-0.00460124 0.000167282 0)
(-0.00473631 0.000164959 0)
(-0.00486942 0.000162464 0)
(-0.00500042 0.000159799 0)
(-0.00512918 0.00015697 0)
(-0.00525556 0.000153978 0)
(-0.00537943 0.000150827 0)
(-0.00550066 0.00014752 0)
(-0.00561912 0.00014406 0)
(-0.00573469 0.000140447 0)
(-0.00584724 0.000136683 0)
(-0.00595666 0.000132772 0)
(-0.00606281 0.000128714 0)
(-0.00616559 0.000124512 0)
(-0.00626487 0.000120165 0)
(-0.00636054 0.000115676 0)
(-0.00645249 0.000111046 0)
(-0.0065406 0.000106277 0)
(-0.00662475 0.000101371 0)
(-0.00670484 9.6328e-05 0)
(-0.00678076 9.11501e-05 0)
(-0.0068524 8.58396e-05 0)
(-0.00691965 8.03985e-05 0)
(-0.00698241 7.48288e-05 0)
(-0.00704058 6.91328e-05 0)
(-0.00709406 6.33136e-05 0)
(-0.00714274 5.7374e-05 0)
(-0.00718654 5.13175e-05 0)
(-0.00722537 4.51475e-05 0)
(-0.00725912 3.88681e-05 0)
(-0.00728773 3.2484e-05 0)
(-0.00731111 2.60001e-05 0)
(-0.00732917 1.94219e-05 0)
(-0.00734186 1.27549e-05 0)
(-0.0073491 6.00527e-06 0)
(-0.00735083 -8.20182e-07 0)
(-0.00734699 -7.71399e-06 0)
(-0.00733754 -1.46687e-05 0)
(-0.00732243 -2.16761e-05 0)
(-0.00730162 -2.87276e-05 0)
(-0.00727508 -3.58138e-05 0)
(-0.00724279 -4.29249e-05 0)
(-0.00720474 -5.00508e-05 0)
(-0.00716093 -5.71812e-05 0)
(-0.00711135 -6.43048e-05 0)
(-0.00705601 -7.14098e-05 0)
(-0.00699495 -7.84837e-05 0)
(-0.00692819 -8.5514e-05 0)
(-0.00685577 -9.24877e-05 0)
(-0.00677775 -9.93917e-05 0)
(-0.00669419 -0.000106212 0)
(-0.00660517 -0.000112934 0)
(-0.00651077 -0.000119544 0)
(-0.0064111 -0.000126026 0)
(-0.00630625 -0.000132366 0)
(-0.00619636 -0.000138548 0)
(-0.00608155 -0.000144558 0)
(-0.00596199 -0.000150379 0)
(-0.00583781 -0.000155996 0)
(-0.0057092 -0.000161393 0)
(-0.00557634 -0.000166556 0)
(-0.00543943 -0.000171467 0)
(-0.00529868 -0.000176112 0)
(-0.0051543 -0.000180475 0)
(-0.00500653 -0.000184541 0)
(-0.00485561 -0.000188296 0)
(-0.00470181 -0.000191725 0)
(-0.00454538 -0.000194814 0)
(-0.00438662 -0.00019755 0)
(-0.0042258 -0.000199918 0)
(-0.00406323 -0.000201906 0)
(-0.00389922 -0.000203503 0)
(-0.00373409 -0.000204696 0)
(-0.00356816 -0.000205475 0)
(-0.00340177 -0.000205831 0)
(-0.00323527 -0.000205752 0)
(-0.003069 -0.000205232 0)
(-0.00290332 -0.000204261 0)
(-0.00273861 -0.000202832 0)
(-0.00257521 -0.000200941 0)
(-0.00241351 -0.000198582 0)
(-0.00225389 -0.00019575 0)
(-0.00209671 -0.000192442 0)
(-0.00194236 -0.000188657 0)
(-0.00179122 -0.000184393 0)
(-0.00164367 -0.000179652 0)
(-0.00150009 -0.000174435 0)
(-0.00136085 -0.000168744 0)
(-0.00122633 -0.000162584 0)
(-0.00109688 -0.000155961 0)
(-0.000972886 -0.000148883 0)
(-0.000854681 -0.00014136 0)
(-0.000742615 -0.000133404 0)
(-0.000637015 -0.00012503 0)
(-0.000538197 -0.000116255 0)
(-0.000446457 -0.000107102 0)
(-0.00036207 -9.75967e-05 0)
(-0.000285284 -8.77721e-05 0)
(-0.000216316 -7.76681e-05 0)
(-0.000155345 -6.73346e-05 0)
(-0.0001025 -5.68342e-05 0)
(-5.78522e-05 -4.62462e-05 0)
(-2.13992e-05 -3.56716e-05 0)
(6.95257e-06 -2.52411e-05 0)
(2.74122e-05 -1.5125e-05 0)
(4.03333e-05 -5.54769e-06 0)
(4.62525e-05 3.19321e-06 0)
(4.59369e-05 1.07013e-05 0)
(4.04404e-05 1.64531e-05 0)
(3.11405e-05 1.97687e-05 0)
(1.97827e-05 1.98011e-05 0)
(8.8752e-06 1.56076e-05 0)
(1.95889e-06 6.58695e-06 0)
(1.71057e-06 -1.0788e-05 0)
(6.93916e-06 -2.1829e-05 0)
(1.33499e-05 -2.37984e-05 0)
(1.7213e-05 -1.82232e-05 0)
(1.58686e-05 -7.23258e-06 0)
(7.46736e-06 7.47015e-06 0)
(-9.33402e-06 2.46369e-05 0)
(-3.55002e-05 4.33459e-05 0)
(-7.16566e-05 6.29097e-05 0)
(-0.000118145 8.28329e-05 0)
(-0.000175114 0.000102733 0)
(-0.00024253 0.000122337 0)
(-0.000320237 0.000141446 0)
(-0.000407988 0.000159903 0)
(-0.000505451 0.000177609 0)
(-0.000612243 0.00019449 0)
(-0.000727948 0.000210491 0)
(-0.000852109 0.000225587 0)
(-0.00098426 0.00023976 0)
(-0.00112392 0.000253003 0)
(-0.00127061 0.000265321 0)
(-0.00142383 0.000276725 0)
(-0.00158311 0.00028723 0)
(-0.00174797 0.000296856 0)
(-0.00191794 0.000305625 0)
(-0.00209256 0.000313563 0)
(-0.0022714 0.000320694 0)
(-0.002454 0.000327046 0)
(-0.00263997 0.000332647 0)
(-0.00282887 0.000337524 0)
(-0.00302034 0.000341706 0)
(-0.00321398 0.000345218 0)
(-0.00340943 0.000348088 0)
(-0.00360633 0.000350341 0)
(-0.00380436 0.000352004 0)
(-0.00400318 0.000353099 0)
(-0.00420248 0.000353649 0)
(-0.00440197 0.000353678 0)
(-0.00460134 0.000353206 0)
(-0.00480033 0.000352253 0)
(-0.00499866 0.000350837 0)
(-0.00519608 0.000348977 0)
(-0.00539233 0.000346688 0)
(-0.00558718 0.000343984 0)
(-0.0057804 0.000340881 0)
(-0.00597176 0.000337392 0)
(-0.00616104 0.000333529 0)
(-0.00634803 0.000329302 0)
(-0.00653253 0.000324722 0)
(-0.00671433 0.000319799 0)
(-0.00689325 0.000314539 0)
(-0.00706909 0.000308951 0)
(-0.00724167 0.00030304 0)
(-0.0074108 0.000296815 0)
(-0.00757631 0.00029028 0)
(-0.00773802 0.00028344 0)
(-0.00789576 0.000276299 0)
(-0.00804936 0.000268861 0)
(-0.00819865 0.000261131 0)
(-0.00834347 0.000253112 0)
(-0.00848365 0.000244806 0)
(-0.00861903 0.000236218 0)
(-0.00874946 0.000227349 0)
(-0.00887478 0.000218204 0)
(-0.00899483 0.000208785 0)
(-0.00910946 0.000199095 0)
(-0.00921852 0.000189138 0)
(-0.00932186 0.000178917 0)
(-0.00941933 0.000168437 0)
(-0.0095108 0.000157701 0)
(-0.00959611 0.000146714 0)
(-0.00967514 0.00013548 0)
(-0.00974774 0.000124007 0)
(-0.00981379 0.0001123 0)
(-0.00987315 0.000100365 0)
(-0.00992571 8.82099e-05 0)
(-0.00997134 7.58428e-05 0)
(-0.0100099 6.32732e-05 0)
(-0.0100414 5.05111e-05 0)
(-0.0100656 3.75665e-05 0)
(-0.0100825 2.44508e-05 0)
(-0.0100919 1.11767e-05 0)
(-0.0100938 -2.24254e-06 0)
(-0.0100881 -1.57924e-05 0)
(-0.0100748 -2.9458e-05 0)
(-0.0100537 -4.32237e-05 0)
(-0.0100249 -5.70722e-05 0)
(-0.00998832 -7.09851e-05 0)
(-0.00994389 -8.49429e-05 0)
(-0.00989162 -9.8926e-05 0)
(-0.0098315 -0.000112914 0)
(-0.00976354 -0.000126885 0)
(-0.00968777 -0.000140816 0)
(-0.00960421 -0.000154682 0)
(-0.00951291 -0.000168459 0)
(-0.00941392 -0.000182123 0)
(-0.00930733 -0.000195646 0)
(-0.00919323 -0.000209003 0)
(-0.00907171 -0.000222164 0)
(-0.00894289 -0.000235102 0)
(-0.00880692 -0.000247788 0)
(-0.00866394 -0.000260194 0)
(-0.00851412 -0.000272288 0)
(-0.00835764 -0.000284043 0)
(-0.0081947 -0.000295426 0)
(-0.00802553 -0.000306409 0)
(-0.00785035 -0.00031696 0)
(-0.00766942 -0.00032705 0)
(-0.007483 -0.000336648 0)
(-0.00729138 -0.000345724 0)
(-0.00709485 -0.000354249 0)
(-0.00689373 -0.000362193 0)
(-0.00668836 -0.000369527 0)
(-0.00647908 -0.000376225 0)
(-0.00626625 -0.000382257 0)
(-0.00605026 -0.000387599 0)
(-0.00583149 -0.000392223 0)
(-0.00561035 -0.000396107 0)
(-0.00538725 -0.000399225 0)
(-0.00516264 -0.000401557 0)
(-0.00493694 -0.000403081 0)
(-0.00471062 -0.000403778 0)
(-0.00448414 -0.00040363 0)
(-0.00425797 -0.000402621 0)
(-0.00403259 -0.000400734 0)
(-0.00380849 -0.000397957 0)
(-0.00358616 -0.00039428 0)
(-0.00336611 -0.000389692 0)
(-0.00314884 -0.000384186 0)
(-0.00293486 -0.000377757 0)
(-0.00272467 -0.000370402 0)
(-0.00251879 -0.000362119 0)
(-0.00231771 -0.00035291 0)
(-0.00212196 -0.000342781 0)
(-0.00193202 -0.000331738 0)
(-0.0017484 -0.00031979 0)
(-0.00157157 -0.000306951 0)
(-0.00140203 -0.000293239 0)
(-0.00124022 -0.000278675 0)
(-0.0010866 -0.000263285 0)
(-0.00094161 -0.0002471 0)
(-0.000805644 -0.00023016 0)
(-0.000679089 -0.000212509 0)
(-0.000562294 -0.000194205 0)
(-0.000455574 -0.000175316 0)
(-0.000359195 -0.000155924 0)
(-0.000273369 -0.000136132 0)
(-0.000198243 -0.000116067 0)
(-0.000133884 -9.58856e-05 0)
(-8.02609e-05 -7.57871e-05 0)
(-3.72247e-05 -5.60217e-05 0)
(-4.48123e-06 -3.69088e-05 0)
(1.84399e-05 -1.88578e-05 0)
(3.2224e-05 -2.39465e-06 0)
(3.7818e-05 1.18054e-05 0)
(3.64808e-05 2.28837e-05 0)
(2.98087e-05 2.97668e-05 0)
(1.9778e-05 3.11618e-05 0)
(9.19797e-06 2.56135e-05 0)
(2.09979e-06 1.16975e-05 0)
(1.44041e-06 -1.42891e-05 0)
(5.0702e-06 -2.70997e-05 0)
(7.94914e-06 -2.71357e-05 0)
(6.48748e-06 -1.6801e-05 0)
(-1.9355e-06 1.15202e-06 0)
(-1.92053e-05 2.45007e-05 0)
(-4.67438e-05 5.15373e-05 0)
(-8.55882e-05 8.09504e-05 0)
(-0.00013642 0.000111758 0)
(-0.000199654 0.00014319 0)
(-0.000275464 0.000174677 0)
(-0.000363837 0.000205786 0)
(-0.000464623 0.000236181 0)
(-0.000577544 0.000265624 0)
(-0.000702234 0.000293935 0)
(-0.000838266 0.000320983 0)
(-0.000985149 0.000346681 0)
(-0.00114236 0.000370969 0)
(-0.00130935 0.000393812 0)
(-0.00148556 0.000415195 0)
(-0.00167039 0.000435117 0)
(-0.00186329 0.000453587 0)
(-0.00206365 0.000470627 0)
(-0.00227091 0.000486262 0)
(-0.0024845 0.000500524 0)
(-0.00270386 0.00051345 0)
(-0.00292845 0.000525078 0)
(-0.00315773 0.000535449 0)
(-0.00339119 0.000544605 0)
(-0.00362834 0.000552588 0)
(-0.00386867 0.000559442 0)
(-0.00411172 0.000565207 0)
(-0.00435704 0.000569927 0)
(-0.0046042 0.000573641 0)
(-0.00485276 0.00057639 0)
(-0.00510233 0.00057821 0)
(-0.0053525 0.00057914 0)
(-0.00560291 0.000579214 0)
(-0.00585319 0.000578465 0)
(-0.00610299 0.000576925 0)
(-0.00635197 0.000574625 0)
(-0.00659981 0.000571592 0)
(-0.00684619 0.000567854 0)
(-0.00709081 0.000563434 0)
(-0.00733338 0.000558355 0)
(-0.00757361 0.000552639 0)
(-0.00781123 0.000546305 0)
(-0.00804597 0.000539371 0)
(-0.00827757 0.000531854 0)
(-0.00850578 0.00052377 0)
(-0.00873035 0.000515132 0)
(-0.00895104 0.000505952 0)
(-0.00916762 0.000496241 0)
(-0.00937985 0.000486011 0)
(-0.00958752 0.00047527 0)
(-0.00979039 0.000464026 0)
(-0.00998826 0.000452288 0)
(-0.0101809 0.000440063 0)
(-0.0103681 0.000427357 0)
(-0.0105497 0.000414176 0)
(-0.0107254 0.000400525 0)
(-0.0108951 0.000386411 0)
(-0.0110585 0.000371839 0)
(-0.0112155 0.000356814 0)
(-0.0113658 0.000341341 0)
(-0.0115094 0.000325425 0)
(-0.0116459 0.000309074 0)
(-0.0117751 0.000292292 0)
(-0.0118971 0.000275088 0)
(-0.0120114 0.000257468 0)
(-0.012118 0.000239439 0)
(-0.0122167 0.00022101 0)
(-0.0123073 0.000202192 0)
(-0.0123897 0.000182994 0)
(-0.0124637 0.000163428 0)
(-0.0125291 0.000143507 0)
(-0.0125858 0.000123243 0)
(-0.0126337 0.000102652 0)
(-0.0126726 8.1751e-05 0)
(-0.0127024 6.05566e-05 0)
(-0.012723 3.90876e-05 0)
(-0.0127343 1.73646e-05 0)
(-0.0127362 -4.59021e-06 0)
(-0.0127285 -2.67534e-05 0)
(-0.0127113 -4.91004e-05 0)
(-0.0126844 -7.1605e-05 0)
(-0.0126478 -9.42395e-05 0)
(-0.0126014 -0.000116974 0)
(-0.0125453 -0.000139777 0)
(-0.0124793 -0.000162615 0)
(-0.0124035 -0.000185456 0)
(-0.0123179 -0.000208263 0)
(-0.0122226 -0.000231 0)
(-0.0121175 -0.000253627 0)
(-0.0120028 -0.000276104 0)
(-0.0118784 -0.00029839 0)
(-0.0117446 -0.000320443 0)
(-0.0116014 -0.000342219 0)
(-0.0114489 -0.000363673 0)
(-0.0112874 -0.00038476 0)
(-0.0111169 -0.000405432 0)
(-0.0109377 -0.000425643 0)
(-0.0107499 -0.000445345 0)
(-0.0105539 -0.000464489 0)
(-0.0103498 -0.000483026 0)
(-0.0101379 -0.000500908 0)
(-0.00991855 -0.000518085 0)
(-0.00969204 -0.000534508 0)
(-0.0094587 -0.000550129 0)
(-0.00921888 -0.000564899 0)
(-0.00897295 -0.00057877 0)
(-0.00872131 -0.000591695 0)
(-0.00846438 -0.000603628 0)
(-0.00820258 -0.000614523 0)
(-0.00793636 -0.000624337 0)
(-0.00766621 -0.000633027 0)
(-0.00739259 -0.000640551 0)
(-0.00711602 -0.00064687 0)
(-0.00683702 -0.000651947 0)
(-0.00655612 -0.000655745 0)
(-0.00627386 -0.000658233 0)
(-0.00599082 -0.000659377 0)
(-0.00570757 -0.000659149 0)
(-0.00542469 -0.000657524 0)
(-0.00514277 -0.000654477 0)
(-0.00486243 -0.000649988 0)
(-0.00458427 -0.00064404 0)
(-0.00430891 -0.000636617 0)
(-0.00403697 -0.000627709 0)
(-0.00376909 -0.000617308 0)
(-0.00350588 -0.00060541 0)
(-0.00324797 -0.000592015 0)
(-0.00299598 -0.000577127 0)
(-0.00275055 -0.000560755 0)
(-0.00251227 -0.000542913 0)
(-0.00228176 -0.000523617 0)
(-0.00205961 -0.000502894 0)
(-0.00184639 -0.000480772 0)
(-0.00164268 -0.00045729 0)
(-0.00144901 -0.000432495 0)
(-0.00126591 -0.00040644 0)
(-0.00109385 -0.000379193 0)
(-0.000933301 -0.000350834 0)
(-0.000784666 -0.000321458 0)
(-0.000648309 -0.000291182 0)
(-0.000524537 -0.000260146 0)
(-0.000413587 -0.000228521 0)
(-0.000315614 -0.000196514 0)
(-0.000230676 -0.000164383 0)
(-0.000158716 -0.000132444 0)
(-9.95367e-05 -0.000101092 0)
(-5.27778e-05 -7.08202e-05 0)
(-1.78833e-05 -4.22448e-05 0)
(5.93393e-06 -1.61397e-05 0)
(1.97343e-05 6.52786e-06 0)
(2.48962e-05 2.45556e-05 0)
(2.31395e-05 3.64715e-05 0)
(1.657e-05 4.05187e-05 0)
(8.12174e-06 3.46679e-05 0)
(1.93565e-06 1.65696e-05 0)
(9.92644e-07 -1.65667e-05 0)
(2.31643e-06 -2.90786e-05 0)
(4.10325e-07 -2.52331e-05 0)
(-7.89654e-06 -8.28302e-06 0)
(-2.50351e-05 1.84613e-05 0)
(-5.2853e-05 5.22751e-05 0)
(-9.27639e-05 9.1016e-05 0)
(-0.000145794 0.000133025 0)
(-0.000212655 0.000176983 0)
(-0.000293771 0.00022188 0)
(-0.000389328 0.000266925 0)
(-0.00049933 0.000311506 0)
(-0.000623607 0.000355157 0)
(-0.000761869 0.000397525 0)
(-0.000913725 0.000438342 0)
(-0.0010787 0.000477412 0)
(-0.00125625 0.000514598 0)
(-0.0014458 0.000549801 0)
(-0.00164674 0.000582963 0)
(-0.00185841 0.000614052 0)
(-0.00208017 0.000643058 0)
(-0.00231135 0.000669987 0)
(-0.00255129 0.000694862 0)
(-0.00279933 0.000717714 0)
(-0.00305481 0.000738585 0)
(-0.00331708 0.000757521 0)
(-0.00358552 0.000774575 0)
(-0.0038595 0.000789801 0)
(-0.00413842 0.000803258 0)
(-0.00442168 0.000815005 0)
(-0.00470873 0.000825099 0)
(-0.00499901 0.000833602 0)
(-0.00529198 0.000840571 0)
(-0.00558713 0.000846064 0)
(-0.00588395 0.000850137 0)
(-0.00618196 0.000852845 0)
(-0.0064807 0.000854241 0)
(-0.00677973 0.000854373 0)
(-0.00707859 0.000853292 0)
(-0.00737689 0.000851041 0)
(-0.00767421 0.000847665 0)
(-0.00797016 0.000843204 0)
(-0.00826438 0.000837697 0)
(-0.00855649 0.000831181 0)
(-0.00884614 0.000823688 0)
(-0.009133 0.00081525 0)
(-0.00941673 0.000805894 0)
(-0.00969701 0.000795648 0)
(-0.00997353 0.000784537 0)
(-0.010246 0.000772583 0)
(-0.0105141 0.000759806 0)
(-0.0107775 0.000746225 0)
(-0.011036 0.000731858 0)
(-0.0112893 0.00071672 0)
(-0.0115372 0.000700825 0)
(-0.0117792 0.000684185 0)
(-0.0120153 0.000666813 0)
(-0.0122451 0.00064872 0)
(-0.0124684 0.000629916 0)
(-0.012685 0.000610409 0)
(-0.0128945 0.000590209 0)
(-0.0130967 0.000569325 0)
(-0.0132915 0.000547766 0)
(-0.0134786 0.000525538 0)
(-0.0136577 0.000502652 0)
(-0.0138286 0.000479115 0)
(-0.0139911 0.000454936 0)
(-0.014145 0.000430126 0)
(-0.0142901 0.000404695 0)
(-0.014426 0.000378654 0)
(-0.0145528 0.000352015 0)
(-0.01467 0.000324791 0)
(-0.0147776 0.000296998 0)
(-0.0148754 0.000268649 0)
(-0.0149631 0.000239764 0)
(-0.0150406 0.00021036 0)
(-0.0151077 0.000180458 0)
(-0.0151642 0.000150081 0)
(-0.01521 0.000119252 0)
(-0.015245 8.79986e-05 0)
(-0.015269 5.63475e-05 0)
(-0.0152819 2.43297e-05 0)
(-0.0152835 -8.02242e-06 0)
(-0.0152738 -4.06746e-05 0)
(-0.0152527 -7.35903e-05 0)
(-0.01522 -0.00010673 0)
(-0.0151758 -0.000140053 0)
(-0.01512 -0.000173516 0)
(-0.0150525 -0.000207073 0)
(-0.0149733 -0.000240675 0)
(-0.0148825 -0.000274273 0)
(-0.01478 -0.000307815 0)
(-0.0146659 -0.000341245 0)
(-0.0145402 -0.000374508 0)
(-0.0144031 -0.000407544 0)
(-0.0142545 -0.000440293 0)
(-0.0140947 -0.000472694 0)
(-0.0139237 -0.000504681 0)
(-0.0137418 -0.000536191 0)
(-0.013549 -0.000567155 0)
(-0.0133457 -0.000597506 0)
(-0.013132 -0.000627175 0)
(-0.0129082 -0.000656092 0)
(-0.0126745 -0.000684186 0)
(-0.0124313 -0.000711386 0)
(-0.0121789 -0.000737621 0)
(-0.0119176 -0.000762819 0)
(-0.0116478 -0.000786909 0)
(-0.01137 -0.000809819 0)
(-0.0110844 -0.00083148 0)
(-0.0107916 -0.00085182 0)
(-0.0104921 -0.000870773 0)
(-0.0101863 -0.00088827 0)
(-0.00987467 -0.000904245 0)
(-0.00955784 -0.000918636 0)
(-0.00923634 -0.000931379 0)
(-0.00891074 -0.000942414 0)
(-0.00858163 -0.000951686 0)
(-0.00824964 -0.000959138 0)
(-0.00791538 -0.00096472 0)
(-0.00757951 -0.000968383 0)
(-0.00724269 -0.000970082 0)
(-0.0069056 -0.000969776 0)
(-0.00656893 -0.000967426 0)
(-0.00623337 -0.000963 0)
(-0.00589965 -0.000956469 0)
(-0.00556848 -0.000947807 0)
(-0.00524058 -0.000936994 0)
(-0.00491669 -0.000924016 0)
(-0.00459754 -0.000908862 0)
(-0.00428386 -0.000891529 0)
(-0.00397639 -0.000872018 0)
(-0.00367586 -0.000850338 0)
(-0.00338299 -0.000826502 0)
(-0.0030985 -0.000800534 0)
(-0.00282309 -0.000772462 0)
(-0.00255745 -0.000742325 0)
(-0.00230226 -0.000710172 0)
(-0.00205815 -0.000676062 0)
(-0.00182577 -0.000640065 0)
(-0.00160569 -0.000602268 0)
(-0.00139848 -0.000562773 0)
(-0.00120465 -0.000521703 0)
(-0.00102466 -0.000479204 0)
(-0.000858923 -0.00043545 0)
(-0.00070777 -0.000390651 0)
(-0.000571459 -0.00034506 0)
(-0.000450151 -0.000298982 0)
(-0.000343896 -0.000252787 0)
(-0.000252615 -0.000206928 0)
(-0.000176078 -0.000161959 0)
(-0.000113879 -0.00011856 0)
(-6.54075e-05 -7.75662e-05 0)
(-2.98149e-05 -4.00072e-05 0)
(-5.98102e-06 -7.14453e-06 0)
(7.5274e-06 1.9481e-05 0)
(1.24815e-05 3.80035e-05 0)
(1.10359e-05 4.62017e-05 0)
(6.09297e-06 4.14675e-05 0)
(1.58864e-06 2.05877e-05 0)
(4.41911e-07 -1.72492e-05 0)
(-9.99351e-07 -2.68976e-05 0)
(-8.57621e-06 -1.69381e-05 0)
(-2.48355e-05 8.67516e-06 0)
(-5.19163e-05 4.61195e-05 0)
(-9.15661e-05 9.22262e-05 0)
(-0.000145102 0.000144475 0)
(-0.000213518 0.000200842 0)
(-0.000297487 0.000259728 0)
(-0.000397412 0.000319861 0)
(-0.000513481 0.000380231 0)
(-0.000645674 0.000440052 0)
(-0.000793811 0.00049871 0)
(-0.000957584 0.000555728 0)
(-0.00113657 0.000610745 0)
(-0.00133025 0.000663491 0)
(-0.00153806 0.000713765 0)
(-0.00175935 0.00076143 0)
(-0.00199345 0.000806394 0)
(-0.00223967 0.000848601 0)
(-0.00249728 0.000888029 0)
(-0.00276555 0.000924678 0)
(-0.00304374 0.00095857 0)
(-0.00333111 0.000989742 0)
(-0.00362693 0.00101824 0)
(-0.00393047 0.00104412 0)
(-0.00424103 0.00106745 0)
(-0.00455791 0.00108831 0)
(-0.00488042 0.00110675 0)
(-0.00520789 0.00112286 0)
(-0.00553969 0.00113673 0)
(-0.00587518 0.00114841 0)
(-0.00621375 0.001158 0)
(-0.00655481 0.00116556 0)
(-0.00689778 0.00117118 0)
(-0.00724213 0.00117492 0)
(-0.0075873 0.00117686 0)
(-0.00793278 0.00117706 0)
(-0.00827808 0.00117558 0)
(-0.00862271 0.0011725 0)
(-0.00896622 0.00116786 0)
(-0.00930813 0.00116172 0)
(-0.00964804 0.00115413 0)
(-0.0099855 0.00114515 0)
(-0.0103201 0.00113482 0)
(-0.0106515 0.00112318 0)
(-0.0109792 0.00111027 0)
(-0.011303 0.00109613 0)
(-0.0116224 0.00108079 0)
(-0.0119371 0.00106428 0)
(-0.0122467 0.00104663 0)
(-0.0125509 0.00102787 0)
(-0.0128494 0.00100802 0)
(-0.0131419 0.000987103 0)
(-0.013428 0.000965138 0)
(-0.0137075 0.000942143 0)
(-0.01398 0.000918137 0)
(-0.0142452 0.000893134 0)
(-0.0145028 0.000867149 0)
(-0.0147526 0.000840195 0)
(-0.0149943 0.000812286 0)
(-0.0152276 0.000783433 0)
(-0.0154522 0.00075365 0)
(-0.0156679 0.000722947 0)
(-0.0158743 0.000691338 0)
(-0.0160712 0.000658836 0)
(-0.0162584 0.000625453 0)
(-0.0164357 0.000591203 0)
(-0.0166026 0.000556102 0)
(-0.0167591 0.000520165 0)
(-0.0169049 0.00048341 0)
(-0.0170397 0.000445855 0)
(-0.0171634 0.000407522 0)
(-0.0172756 0.000368431 0)
(-0.0173762 0.000328608 0)
(-0.0174651 0.000288079 0)
(-0.0175419 0.000246873 0)