/*--------------------------------*- C++ -*----------------------------------*\
  =========                 |
  \\      /  F ield         | OpenFOAM: The Open Source CFD Toolbox
   \\    /   O peration     | Website:  https://openfoam.org
    \\  /    A nd           | Version:  7
     \\/     M anipulation  |
\*---------------------------------------------------------------------------*/
FoamFile
{
    version     2.0;
    format      ascii;
    class       volScalarField;
    location    "0.5";
    object      p;
}
// * * * * * * * * * * * * * * * * * * * * * * * * * * * * * * * * * * * * * //

dimensions      [0 2 -2 0 0 0 0];

internalField   nonuniform List<scalar> 
1600
(
8.0594e-06
-0.00117757
-0.0039076
-0.00758183
-0.0115271
-0.0152479
-0.0183862
-0.0206896
-0.0219907
-0.0221897
-0.0212409
-0.0191423
-0.0159275
-0.0116594
-0.00642524
-0.000332809
0.00649293
0.0139126
0.0217747
0.0299185
0.0381757
0.0463737
0.054338
0.0618958
0.0688793
0.0751301
0.0805034
0.0848735
0.0881386
0.0902272
0.0911044
0.090779
0.0893112
0.0868222
0.0835053
0.0796397
0.0756056
0.0719116
0.0692259
0.0681099
0.00120237
1.19274e-05
-0.0022047
-0.00505624
-0.00809921
-0.0109683
-0.013379
-0.0151182
-0.0160356
-0.0160354
-0.0150674
-0.0131201
-0.0102144
-0.00639844
-0.00174333
0.00366023
0.00970507
0.0162702
0.0232232
0.0304227
0.0377207
0.0449653
0.0520033
0.0586833
0.0648595
0.0703951
0.0751667
0.0790686
0.082018
0.0839597
0.0848718
0.0847712
0.0837198
0.0818307
0.0792746
0.0762854
0.0731652
0.0702898
0.0681066
0.0669961
0.00394758
0.00221992
-2.7222e-05
-0.00258689
-0.00521595
-0.00764457
-0.00964914
-0.011058
-0.0117454
-0.0116277
-0.0106589
-0.00882572
-0.00614351
-0.00265206
0.00158775
0.00649695
0.0119811
0.0179327
0.0242334
0.0307565
0.0373691
0.0439343
0.0503144
0.0563737
0.0619813
0.0670153
0.0713663
0.0749414
0.0776688
0.079502
0.0804245
0.0804539
0.0796466
0.0781015
0.0759628
0.0734215
0.0707175
0.0681327
0.0659256
0.064308
0.00771158
0.00510012
0.00245872
-0.000170607
-0.00272604
-0.00500771
-0.00684137
-0.00809528
-0.00867102
-0.00850182
-0.00755099
-0.00580913
-0.00329109
-3.30805e-05
0.00390991
0.00846653
0.0135512
0.0190663
0.0249039
0.0309481
0.0370771
0.0431651
0.0490857
0.0547137
0.0599288
0.0646184
0.0686816
0.0720328
0.0746055
0.0763562
0.0772679
0.077354
0.0766608
0.07527
0.0732987
0.0708987
0.0682626
0.0656053
0.0630141
0.0605454
0.0119006
0.0082605
0.00505141
0.00217042
-0.000487632
-0.00277886
-0.0045707
-0.0057685
-0.00630111
-0.00612016
-0.0052007
-0.00353974
-0.0011544
0.00192006
0.00563208
0.0099156
0.0146918
0.0198705
0.0253524
0.0310303
0.036791
0.0425179
0.0480928
0.0533987
0.0583228
0.062759
0.0666118
0.0697993
0.072257
0.0739408
0.0748306
0.0749323
0.0742805
0.0729387
0.0709977
0.0685743
0.0658223
0.0629048
0.0597513
0.0562811
0.0160884
0.0113768
0.0075073
0.00425684
0.00137392
-0.0010405
-0.00288742
-0.00410491
-0.00464718
-0.00448416
-0.00360353
-0.00201027
0.000274398
0.00321418
0.00675893
0.0108459
0.0154008
0.0203395
0.0255688
0.0309881
0.0364913
0.0419681
0.0473066
0.0523955
0.0571265
0.0613975
0.0651155
0.0681994
0.0705839
0.0722219
0.0730872
0.073177
0.0725128
0.0711404
0.0691271
0.0665596
0.0635617
0.0602589
0.056443
0.051921
0.0199658
0.0141876
0.00961124
0.00591534
0.00272285
0.00010331
-0.00187025
-0.00316364
-0.00375377
-0.00362784
-0.0027862
-0.00124259
0.000976449
0.0038321
0.007274
0.0112409
0.0156616
0.0204556
0.0255342
0.0308018
0.0361568
0.0414937
0.0467043
0.0516806
0.0563167
0.0605117
0.0641725
0.0672165
0.069575
0.0711954
0.072044
0.0721076
0.0713945
0.0699341
0.0677726
0.0649727
0.0616364
0.0578636
0.05333
0.0477518
0.0232997
0.0164792
0.0111781
0.00699321
0.00343856
0.000561175
-0.00158557
-0.00299071
-0.00365105
-0.00356955
-0.00275882
-0.00124155
0.000949642
0.00377241
0.00717491
0.0110961
0.0154661
0.0202068
0.0252325
0.0304503
0.0357619
0.0410643
0.0462514
0.0512164
0.0558536
0.0600611
0.0637433
0.066814
0.0691989
0.0708383
0.0716892
0.0717273
0.0709477
0.0693644
0.0670059
0.0639151
0.0601799
0.0558842
0.050604
0.0439819
0.0259078
0.0180722
0.0120434
0.0073471
0.00340059
0.000234918
-0.00211135
-0.00364666
-0.00438518
-0.00434417
-0.00354776
-0.00202756
0.000177384
0.00302046
0.00644743
0.0103963
0.0147976
0.019574
0.0246413
0.0299085
0.0352784
0.0406491
0.0459151
0.0509689
0.055703
0.0600127
0.0637979
0.0669668
0.0694376
0.0711418
0.0720261
0.072054
0.0712077
0.0694866
0.0669041
0.0634874
0.0593155
0.0544639
0.0484211
0.0407668
0.0276398
0.018811
0.0120573
0.00683992
0.00248742
-0.000980679
-0.00353696
-0.00520644
-0.00601855
-0.00600357
-0.00519648
-0.0036376
-0.00137263
0.00154707
0.00506417
0.00911497
0.0136292
0.0185296
0.0237322
0.0291464
0.0346754
0.0402168
0.045664
0.0509075
0.0558365
0.0603415
0.0643165
0.0676618
0.0702867
0.0721121
0.0730731
0.0731206
0.0722232
0.070367
0.0675514
0.0637912
0.0591604
0.0537317
0.0469137
0.0382294
0.0283626
0.018554
0.0110792
0.00533855
0.000576534
-0.00319587
-0.00596
-0.00775541
-0.00862534
-0.00861211
-0.00776105
-0.00612103
-0.00374453
-0.000687992
0.0029876
0.00721617
0.0119259
0.0170389
0.0224706
0.0281298
0.0339189
0.0397341
0.0454665
0.0510032
0.0562287
0.0610274
0.0652854
0.0688937
0.0717507
0.0737654
0.0748597
0.0749707
0.0740533
0.07208
0.0690375
0.0649299
0.0598294
0.053809
0.0462013
0.0364759
0.0279507
0.017166
0.00897227
0.00271038
-0.00245718
-0.00652633
-0.00948571
-0.0113882
-0.01229
-0.0122449
-0.0113084
-0.00953783
-0.0069926
-0.00373454
0.000171325
0.00465602
0.00964577
0.0150612
0.0208167
0.0268199
0.0329715
0.0391655
0.0452899
0.0512271
0.0568559
0.0620531
0.0666954
0.070663
0.0738416
0.0761264
0.0774244
0.0776579
0.0767666
0.0747091
0.0714596
0.0670124
0.0614393
0.0548162
0.0463999
0.0356072
0.0262786
0.0145119
0.00559862
-0.00118009
-0.00674371
-0.0110944
-0.0142273
-0.0162084
-0.0171065
-0.0169869
-0.0159152
-0.0139574
-0.0111801
-0.00765074
-0.0034388
0.00138356
0.0067402
0.01255
0.0187258
0.0251737
0.0317924
0.0384731
0.0450999
0.0515499
0.057695
0.0634031
0.0685406
0.0729747
0.0765771
0.0792269
0.0808144
0.0812449
0.0804415
0.0783477
0.0749243
0.0701556
0.064114
0.0568792
0.0476299
0.0357286
0.0232156
0.0104519
0.000815092
-0.00647455
-0.0124202
-0.0170303
-0.0203068
-0.0223287
-0.023178
-0.0229319
-0.0216665
-0.019457
-0.0163775
-0.0125016
-0.00790314
-0.00265787
0.00315555
0.00945409
0.016149
0.0231447
0.0303377
0.0376164
0.0448603
0.0519409
0.0587225
0.0650631
0.0708171
0.0758377
0.07998
0.0831054
0.0850849
0.0858041
0.0851673
0.0831009
0.0795503
0.0744889
0.0679892
0.0601351
0.0500226
0.0369568
0.0186212
0.00483711
-0.00553058
-0.0133241
-0.0196334
-0.024474
-0.0278554
-0.0298706
-0.030616
-0.0301815
-0.0286546
-0.0261205
-0.0226613
-0.018357
-0.0132864
-0.00752884
-0.00116536
0.00571916
0.0130345
0.0206836
0.0285612
0.0365525
0.0445331
0.0523684
0.0599144
0.0670188
0.0735226
0.0792632
0.0840776
0.0878064
0.0902988
0.0914176
0.0910451
0.089087
0.0854712
0.0801575
0.0732174
0.0647385
0.0537271
0.0394267
0.012342
-0.00249441
-0.0136034
-0.0218922
-0.0285422
-0.0335769
-0.0370148
-0.0389653
-0.0395403
-0.0388442
-0.0369774
-0.034036
-0.0301111
-0.0252896
-0.0196555
-0.0132914
-0.00628093
0.00128975
0.00932947
0.0177402
0.0264153
0.0352377
0.0440791
0.0527993
0.061246
0.0692556
0.0766552
0.0832647
0.0889004
0.09338
0.0965271
0.0981781
0.0981888
0.0964405
0.0928389
0.0873269
0.0799731
0.0708666
0.0589158
0.0432974
0.00420818
-0.0117211
-0.0235849
-0.0323584
-0.03932
-0.0445034
-0.0479385
-0.0497531
-0.0500779
-0.0490339
-0.0467364
-0.0432939
-0.0388075
-0.0333717
-0.0270759
-0.0200062
-0.0122478
-0.00388789
0.00498241
0.0142651
0.0238531
0.0336281
0.0434589
0.0532002
0.0626917
0.0717587
0.0802133
0.0878566
0.0944824
0.0998816
0.103849
0.106189
0.106727
0.105314
0.101827
0.0961876
0.0884578
0.0787262
0.0657918
0.0487586
-0.00596982
-0.0230423
-0.0356775
-0.044922
-0.0521584
-0.0574337
-0.060792
-0.062384
-0.0623624
-0.0608683
-0.0580343
-0.0539834
-0.0488283
-0.0426717
-0.0356086
-0.0277282
-0.0191172
-0.00986221
-5.32652e-05
0.0102131
0.020831
0.0316824
0.0426346
0.0535382
0.0642262
0.0745131
0.0841956
0.093055
0.10086
0.107372
0.112352
0.115568
0.116806
0.115881
0.112635
0.10696
0.098907
0.0885597
0.0745949
0.0560368
-0.0184055
-0.0366829
-0.0501093
-0.0598064
-0.0672705
-0.0725655
-0.075755
-0.0770173
-0.0765325
-0.074466
-0.0709714
-0.0661888
-0.0602439
-0.0532489
-0.0453044
-0.0365025
-0.0269299
-0.0166717
-0.00581502
0.00554717
0.0173122
0.0293645
0.0415718
0.0537831
0.0658257
0.0775045
0.0886013
0.0988765
0.108072
0.115916
0.122131
0.126442
0.128589
0.128339
0.125492
0.1199
0.111596
0.100654
0.0856106
0.0654037
-0.0333411
-0.0529001
-0.0671407
-0.0772651
-0.0848951
-0.0901176
-0.0930217
-0.093821
-0.0927298
-0.0899436
-0.0856414
-0.0799839
-0.0731119
-0.0651479
-0.0561984
-0.0463573
-0.0357105
-0.0243394
-0.0123258
0.000243071
0.0132709
0.0266472
0.0402436
0.0539095
0.0674694
0.0807203
0.0934303
0.105339
0.11616
0.125584
0.133291
0.138954
0.142259
0.142914
0.140663
0.135308
0.126851
0.115348
0.0991797
0.0771848
-0.051055
-0.071991
-0.0870728
-0.0975889
-0.105303
-0.110332
-0.112802
-0.112971
-0.111096
-0.107411
-0.102126
-0.0954259
-0.0874698
-0.0783911
-0.068302
-0.0572975
-0.0454602
-0.0328657
-0.019588
-0.00570455
0.00869771
0.0235174
0.0386334
0.0538999
0.0691418
0.0841511
0.0986841
0.112461
0.125165
0.13645
0.145944
0.153262
0.158022
0.159863
0.158454
0.153532
0.145055
0.133049
0.11571
0.0917711
-0.0718708
-0.0943052
-0.110259
-0.121116
-0.128802
-0.13348
-0.135323
-0.134648
-0.131768
-0.126964
-0.120486
-0.112547
-0.103326
-0.0929697
-0.0815947
-0.0692952
-0.0561486
-0.0422213
-0.0275756
-0.0122756
0.00360571
0.0199808
0.0367406
0.0537487
0.0708352
0.0877916
0.104366
0.120261
0.135132
0.14859
0.160208
0.169535
0.176108
0.179478
0.179221
0.174984
0.166665
0.154241
0.135694
0.109634
-0.096172
-0.12026
-0.13712
-0.148243
-0.15575
-0.159864
-0.160827
-0.159035
-0.154872
-0.148679
-0.140753
-0.131343
-0.12065
-0.108833
-0.096013
-0.0822808
-0.0677047
-0.0523381
-0.0362271
-0.0194176
-0.00196324
0.0160676
0.0345841
0.0534653
0.0725527
0.0916432
0.110482
0.128758
0.1461
0.162079
0.176207
0.187956
0.196768
0.202087
0.203371
0.200149
0.192227
0.179512
0.159727
0.131342
-0.124421
-0.150365
-0.168167
-0.179445
-0.18656
-0.189825
-0.189575
-0.186312
-0.180514
-0.172598
-0.162918
-0.151762
-0.139358
-0.125877
-0.11144
-0.0961317
-0.0800068
-0.0631005
-0.045437
-0.0270382
-0.00793219
0.0118385
0.0322079
0.0530783
0.0743103
0.0957139
0.117039
0.137968
0.158108
0.176989
0.194063
0.208714
0.220278
0.228062
0.231376
0.229595
0.222396
0.209573
0.188536
0.157592
-0.15719
-0.185254
-0.204032
-0.215299
-0.22172
-0.223743
-0.221837
-0.216646
-0.208769
-0.198716
-0.18691
-0.173688
-0.159301
-0.143929
-0.127693
-0.110662
-0.0928736
-0.0743371
-0.0550486
-0.034999
-0.0141836
0.00738825
0.0296841
0.0526376
0.0761381
0.100019
0.124045
0.147901
0.171182
0.193381
0.213891
0.232004
0.246928
0.257813
0.26378
0.263998
0.25796
0.245298
0.223022
0.189238
-0.195205
-0.225734
-0.24551
-0.256509
-0.261807
-0.262047
-0.257893
-0.250178
-0.239658
-0.226959
-0.212585
-0.196922
-0.180244
-0.162737
-0.144509
-0.125613
-0.106055
-0.0858142
-0.0648488
-0.0431112
-0.0205561
0.00284916
0.0271143
0.0522147
0.0780796
0.104578
0.131502
0.158554
0.185328
0.211293
0.235786
0.258005
0.277019
0.29179
0.301201
0.304153
0.299881
0.287769
0.264308
0.227348
-0.239409
-0.272861
-0.293623
-0.303955
-0.307504
-0.305209
-0.298012
-0.286999
-0.273126
-0.25716
-0.239693
-0.221159
-0.201851
-0.181948
-0.161539
-0.140642
-0.119228
-0.0972315
-0.0745655
-0.0511347
-0.0268442
-0.00161043
0.0246284
0.0519006
0.0801877
0.109408
0.139401
0.169901
0.200521
0.230725
0.259805
0.286871
0.310843
0.330467
0.344337
0.351
0.349331
0.338343
0.313826
0.273276
-0.291071
-0.328044
-0.349702
-0.358739
-0.359621
-0.353741
-0.342431
-0.327119
-0.309006
-0.289021
-0.267851
-0.245966
-0.223665
-0.201103
-0.178331
-0.155322
-0.131993
-0.108223
-0.0838704
-0.0587817
-0.0328034
-0.00579163
0.0223778
0.0517977
0.082516
0.114518
0.147707
0.181877
0.216684
0.251611
0.285934
0.31869
0.348652
0.374326
0.393959
0.405644
0.407753
0.398746
0.373428
0.328775
-0.35195
-0.393218
-0.41552
-0.422254
-0.419109
-0.408166
-0.391311
-0.370409
-0.346962
-0.322073
-0.296506
-0.270755
-0.24509
-0.21962
-0.194335
-0.169138
-0.143878
-0.118365
-0.0923885
-0.0657279
-0.038162
-0.00947727
0.0205226
0.0520069
0.0851044
0.119886
0.156342
0.194354
0.233655
0.273788
0.31405
0.353441
0.390607
0.423808
0.450887
0.469364
0.476924
0.4712
0.445566
0.396178
-0.424566
-0.4711
-0.49346
-0.496253
-0.487051
-0.468971
-0.444657
-0.41653
-0.386427
-0.355611
-0.324898
-0.294751
-0.265375
-0.236793
-0.208897
-0.181499
-0.154355
-0.127191
-0.0997154
-0.071631
-0.04264
-0.0124515
0.0192121
0.0526071
0.0879574
0.125439
0.165155
0.207108
0.251152
0.296942
0.343857
0.390918
0.4367
0.479238
0.515934
0.543612
0.55903
0.558607
0.533568
0.478694
-0.512686
-0.565605
-0.586758
-0.582927
-0.564622
-0.536496
-0.502199
-0.464811
-0.426498
-0.388635
-0.352005
-0.316973
-0.28361
-0.251795
-0.221282
-0.191756
-0.16286
-0.134217
-0.105445
-0.0761581
-0.0459769
-0.014527
0.018557
0.0536275
0.0910164
0.131022
0.17389
0.219779
0.26872
0.320544
0.374799
0.430627
0.486629
0.540691
0.589794
0.629955
0.656736
0.664791
0.642073
0.580922
-0.62218
-0.682502
-0.699817
-0.684926
-0.65295
-0.610737
-0.563192
-0.514083
-0.465825
-0.41976
-0.376511
-0.336219
-0.298727
-0.263696
-0.230692
-0.199235
-0.16883
-0.138982
-0.109204
-0.0790212
-0.0479663
-0.015579
0.0185971
0.0550158
0.0941262
0.136366
0.182146
0.231826
0.285668
0.343768
0.405955
0.471637
0.53961
0.607781
0.672825
0.729933
0.773205
0.794823
0.777713
0.709776
-0.762665
-0.83047
-0.838574
-0.805282
-0.752825
-0.69101
-0.626116
-0.562462
-0.502453
-0.447144
-0.396766
-0.351065
-0.309524
-0.271504
-0.236318
-0.203286
-0.17175
-0.141086
-0.110698
-0.0800188
-0.0484946
-0.0155812
0.0192669
0.0566048
0.097003
0.141048
0.189341
0.242475
0.30101
0.365401
0.435902
0.51239
0.594116
0.679323
0.764682
0.844735
0.911998
0.955378
0.950205
0.876242
-0.950828
-1.02278
-1.01076
-0.94697
-0.86406
-0.775344
-0.688215
-0.607033
-0.53366
-0.468409
-0.410781
-0.359895
-0.314723
-0.27422
-0.237396
-0.203336
-0.171207
-0.140247
-0.109756
-0.0790768
-0.047578
-0.0146399
0.0203644
0.0580843
0.0992072
0.144472
0.194677
0.250683
0.313401
0.383748
0.462565
0.550457
0.647508
0.752807
0.86364
0.974491
1.07659
1.15498
1.17409
1.09894
-1.21718
-1.27972
-1.22551
-1.11154
-0.984071
-0.85937
-0.744752
-0.643426
-0.555737
-0.480566
-0.416235
-0.360955
-0.313023
-0.270909
-0.233274
-0.198954
-0.16694
-0.136343
-0.106367
-0.0762807
-0.045391
-0.0130175
0.0215314
0.0589835
0.100129
0.145845
0.197127
0.25511
0.321094
0.396542
0.48305
0.582236
0.695509
0.82356
0.965372
1.11672
1.26884
1.40348
1.47115
1.41123
-1.61771
-1.63095
-1.49153
-1.29672
-1.10589
-0.935005
-0.788311
-0.665544
-0.563981
-0.480138
-0.410638
-0.352513
-0.303264
-0.260829
-0.223515
-0.189929
-0.158905
-0.129454
-0.100711
-0.0718946
-0.0422731
-0.0111302
0.022266
0.0586956
0.0990227
0.144236
0.195498
0.2542
0.322024
0.40102
0.493658
0.602849
0.731863
0.88398
1.06156
1.26423
1.48651
1.71008
1.8724
1.87275
-2.25446
-2.11587
-1.81359
-1.49442
-1.21742
-0.990512
-0.809414
-0.666451
-0.553623
-0.46401
-0.392064
-0.333468
-0.2849
-0.243802
-0.208186
-0.176483
-0.147427
-0.119972
-0.0932226
-0.0663829
-0.0387139
-0.00949441
0.0220154
0.0566125
0.0951947
0.138814
0.188744
0.246566
0.31429
0.394502
0.490567
0.606858
0.748991
0.923947
1.13978
1.40421
1.72094
2.07939
2.41785
2.58911
-3.35592
-2.78318
-2.1727
-1.67585
-1.29258
-1.00573
-0.794146
-0.637271
-0.519326
-0.429171
-0.35897
-0.30318
-0.257836
-0.220057
-0.187701
-0.159135
-0.133079
-0.108493
-0.0845064
-0.0603499
-0.0353156
-0.00871365
0.0201653
0.0520914
0.087943
0.128767
0.175859
0.230875
0.295998
0.374172
0.469456
0.58755
0.736532
0.927897
1.17798
1.50834
1.94099
2.49109
3.15796
3.79445
-5.52066
-3.66081
-2.43095
-1.71417
-1.24179
-0.921811
-0.704864
-0.553966
-0.44549
-0.365206
-0.304184
-0.256568
-0.218401
-0.186919
-0.160128
-0.136535
-0.114988
-0.094559
-0.0744738
-0.0540539
-0.0326745
-0.00972789
0.0154122
0.0434274
0.0750987
0.111364
0.153395
0.202715
0.261367
0.332193
0.419275
0.528675
0.669681
0.857075
1.11541
1.48391
2.01598
2.8054
4.12342
6.0914
-9.20662
-4.51956
-2.30622
-1.42119
-0.958939
-0.682904
-0.512249
-0.400578
-0.322911
-0.266412
-0.223888
-0.19091
-0.164568
-0.142853
-0.124309
-0.107838
-0.0925804
-0.0778374
-0.063019
-0.0476042
-0.0311098
-0.013065
0.00701529
0.0296568
0.0554581
0.0851321
0.119563
0.159889
0.20763
0.264897
0.33475
0.421855
0.533758
0.683746
0.89745
1.22411
1.75391
2.73326
5.06142
9.86893
)
;

boundaryField
{
    movingWall
    {
        type            zeroGradient;
    }
    fixedWalls
    {
        type            zeroGradient;
    }
    frontAndBack
    {
        type            empty;
    }
}


// ************************************************************************* //
