/*--------------------------------*- C++ -*----------------------------------*\
  =========                 |
  \\      /  F ield         | OpenFOAM: The Open Source CFD Toolbox
   \\    /   O peration     | Website:  https://openfoam.org
    \\  /    A nd           | Version:  7
     \\/     M anipulation  |
\*---------------------------------------------------------------------------*/
FoamFile
{
    version     2.0;
    format      ascii;
    class       surfaceScalarField;
    location    "0.1125";
    object      phi;
}
// * * * * * * * * * * * * * * * * * * * * * * * * * * * * * * * * * * * * * //

dimensions      [0 3 -1 0 0 0 0];

internalField   nonuniform List<scalar> 
50880
(
8.29139e-12
-8.31596e-12
2.45864e-11
-1.6298e-11
4.71242e-11
-2.25352e-11
6.57695e-11
-1.8647e-11
7.68381e-11
-1.1067e-11
7.77207e-11
-8.8193e-13
6.69746e-11
1.07446e-11
4.3972e-11
2.30035e-11
8.56413e-12
3.54077e-11
-3.9064e-11
4.76273e-11
-9.8531e-11
5.94676e-11
-1.69313e-10
7.07852e-11
-2.50819e-10
8.151e-11
-3.42428e-10
9.16096e-11
-4.43489e-10
1.01061e-10
-5.53347e-10
1.09858e-10
-6.7134e-10
1.17994e-10
-7.96805e-10
1.25469e-10
-9.2911e-10
1.32306e-10
-1.06765e-09
1.38539e-10
-1.21183e-09
1.44183e-10
-1.36109e-09
1.49252e-10
-1.51487e-09
1.5378e-10
-1.67266e-09
1.57793e-10
-1.83397e-09
1.61307e-10
-1.99832e-09
1.64349e-10
-2.16527e-09
1.66948e-10
-2.3344e-09
1.69126e-10
-2.50531e-09
1.70906e-10
-2.67761e-09
1.72308e-10
-2.85097e-09
1.73355e-10
-3.02504e-09
1.74071e-10
-3.19951e-09
1.74472e-10
-3.37408e-09
1.74571e-10
-3.54847e-09
1.74395e-10
-3.72244e-09
1.73965e-10
-3.89573e-09
1.73292e-10
-4.06811e-09
1.72386e-10
-4.23937e-09
1.7126e-10
-4.40931e-09
1.69933e-10
-4.57772e-09
1.68417e-10
-4.74445e-09
1.66724e-10
-4.90931e-09
1.64862e-10
-5.07215e-09
1.62837e-10
-5.23281e-09
1.60664e-10
-5.39116e-09
1.5835e-10
-5.54705e-09
1.55897e-10
-5.70037e-09
1.53312e-10
-5.85097e-09
1.50603e-10
-5.99875e-09
1.47777e-10
-6.14359e-09
1.44837e-10
-6.28538e-09
1.41786e-10
-6.42401e-09
1.38629e-10
-6.55938e-09
1.3537e-10
-6.69139e-09
1.3201e-10
-6.81994e-09
1.28554e-10
-6.94494e-09
1.25002e-10
-7.06629e-09
1.21352e-10
-7.1839e-09
1.17607e-10
-7.29767e-09
1.13773e-10
-7.40753e-09
1.09855e-10
-7.51338e-09
1.05849e-10
-7.61514e-09
1.01755e-10
-7.71272e-09
9.75738e-11
-7.80602e-09
9.33069e-11
-7.89498e-09
8.8956e-11
-7.9795e-09
8.45224e-11
-8.05951e-09
8.00078e-11
-8.13492e-09
7.54127e-11
-8.20566e-09
7.07363e-11
-8.27164e-09
6.59798e-11
-8.33279e-09
6.11466e-11
-8.38902e-09
5.62396e-11
-8.44028e-09
5.12592e-11
-8.48649e-09
4.62038e-11
-8.52756e-09
4.10744e-11
-8.56344e-09
3.5876e-11
-8.59406e-09
3.06127e-11
-8.61934e-09
2.52861e-11
-8.63924e-09
1.98967e-11
-8.65368e-09
1.44455e-11
-8.66262e-09
8.9358e-12
-8.66599e-09
3.37194e-12
-8.66375e-09
-2.24299e-12
-8.65585e-09
-7.90584e-12
-8.64223e-09
-1.36128e-11
-8.62287e-09
-1.93605e-11
-8.59773e-09
-2.51454e-11
-8.56676e-09
-3.0963e-11
-8.52996e-09
-3.6808e-11
-8.48728e-09
-4.26744e-11
-8.43873e-09
-4.85568e-11
-8.38428e-09
-5.44506e-11
-8.32393e-09
-6.03503e-11
-8.25768e-09
-6.62485e-11
-8.18554e-09
-7.21387e-11
-8.10753e-09
-7.80148e-11
-8.02366e-09
-8.38705e-11
-7.93396e-09
-8.96977e-11
-7.83847e-09
-9.54863e-11
-7.73725e-09
-1.01226e-10
-7.63034e-09
-1.06909e-10
-7.51781e-09
-1.12528e-10
-7.39974e-09
-1.18075e-10
-7.2762e-09
-1.2354e-10
-7.14728e-09
-1.28912e-10
-7.0131e-09
-1.34179e-10
-6.87378e-09
-1.39328e-10
-6.72943e-09
-1.44348e-10
-6.5802e-09
-1.49229e-10
-6.42624e-09
-1.53959e-10
-6.26772e-09
-1.58526e-10
-6.1048e-09
-1.62918e-10
-5.93768e-09
-1.67119e-10
-5.76656e-09
-1.71113e-10
-5.59168e-09
-1.74885e-10
-5.41326e-09
-1.7842e-10
-5.23155e-09
-1.81708e-10
-5.04682e-09
-1.84733e-10
-4.85934e-09
-1.8748e-10
-4.66941e-09
-1.89932e-10
-4.47734e-09
-1.92071e-10
-4.28345e-09
-1.93882e-10
-4.0881e-09
-1.95351e-10
-3.89165e-09
-1.96457e-10
-3.69446e-09
-1.97186e-10
-3.49694e-09
-1.97521e-10
-3.29949e-09
-1.97447e-10
-3.10255e-09
-1.96945e-10
-2.90655e-09
-1.95995e-10
-2.71197e-09
-1.94579e-10
-2.51929e-09
-1.92681e-10
-2.32901e-09
-1.90285e-10
-2.14163e-09
-1.87372e-10
-1.95771e-09
-1.83927e-10
-1.77778e-09
-1.79933e-10
-1.6024e-09
-1.75376e-10
-1.43216e-09
-1.70242e-10
-1.26764e-09
-1.64514e-10
-1.10946e-09
-1.58178e-10
-9.58238e-10
-1.51224e-10
-8.14597e-10
-1.43642e-10
-6.79177e-10
-1.35423e-10
-5.52617e-10
-1.26562e-10
-4.35558e-10
-1.1706e-10
-3.28632e-10
-1.06925e-10
-2.32458e-10
-9.61726e-11
-1.47635e-10
-8.48229e-11
-7.47199e-11
-7.29131e-11
-1.42139e-11
-6.05046e-11
3.34748e-11
-4.76891e-11
6.80713e-11
-3.45976e-11
8.94982e-11
-2.14267e-11
9.79854e-11
-8.48676e-12
9.42429e-11
3.74199e-12
7.97307e-11
1.45108e-11
5.70762e-11
2.26534e-11
3.07787e-11
2.62967e-11
8.36549e-12
2.24138e-11
8.36714e-12
2.59474e-11
-3.42668e-11
6.40308e-11
-5.43795e-11
9.93263e-11
-5.78305e-11
1.23083e-10
-4.24059e-11
1.26312e-10
-1.42962e-11
1.03344e-10
2.20898e-11
5.06778e-11
6.34145e-11
-3.36294e-11
1.07312e-10
-1.50321e-10
1.52104e-10
-2.99345e-10
1.96653e-10
-4.80048e-10
2.40168e-10
-6.9137e-10
2.82107e-10
-9.3199e-10
3.22128e-10
-1.20039e-09
3.60012e-10
-1.49494e-09
3.95619e-10
-1.81397e-09
4.2889e-10
-2.15577e-09
4.5979e-10
-2.51862e-09
4.88314e-10
-2.90082e-09
5.14513e-10
-3.30072e-09
5.38445e-10
-3.7167e-09
5.60166e-10
-4.1472e-09
5.79754e-10
-4.59071e-09
5.97293e-10
-5.04578e-09
6.12863e-10
-5.51101e-09
6.2655e-10
-5.9851e-09
6.38442e-10
-6.46678e-09
6.48629e-10
-6.95484e-09
6.57196e-10
-7.44816e-09
6.64224e-10
-7.94565e-09
6.698e-10
-8.44631e-09
6.74007e-10
-8.94915e-09
6.76921e-10
-9.45329e-09
6.78609e-10
-9.95786e-09
6.79144e-10
-1.04621e-08
6.78597e-10
-1.09651e-08
6.77035e-10
-1.14664e-08
6.74516e-10
-1.19651e-08
6.71092e-10
-1.24606e-08
6.66818e-10
-1.29524e-08
6.61745e-10
-1.34399e-08
6.55922e-10
-1.39226e-08
6.49389e-10
-1.43999e-08
6.42186e-10
-1.48714e-08
6.34351e-10
-1.53367e-08
6.25918e-10
-1.57953e-08
6.16919e-10
-1.62468e-08
6.07377e-10
-1.66908e-08
5.97317e-10
-1.71269e-08
5.86764e-10
-1.75549e-08
5.75739e-10
-1.79743e-08
5.64259e-10
-1.83848e-08
5.52341e-10
-1.87862e-08
5.39997e-10
-1.91781e-08
5.27245e-10
-1.95602e-08
5.141e-10
-1.99322e-08
5.0057e-10
-2.02939e-08
4.86663e-10
-2.06449e-08
4.72382e-10
-2.0985e-08
4.57738e-10
-2.1314e-08
4.4274e-10
-2.16315e-08
4.27395e-10
-2.19374e-08
4.11705e-10
-2.22313e-08
3.95675e-10
-2.25131e-08
3.79309e-10
-2.27824e-08
3.62612e-10
-2.3039e-08
3.4559e-10
-2.32827e-08
3.28249e-10
-2.35133e-08
3.10594e-10
-2.37305e-08
2.92625e-10
-2.39341e-08
2.74346e-10
-2.41239e-08
2.55761e-10
-2.42996e-08
2.3688e-10
-2.44611e-08
2.1771e-10
-2.46081e-08
1.98255e-10
-2.47404e-08
1.78519e-10
-2.48579e-08
1.58508e-10
-2.49602e-08
1.3823e-10
-2.50473e-08
1.17697e-10
-2.51189e-08
9.69195e-11
-2.5175e-08
7.59049e-11
-2.52152e-08
5.46617e-11
-2.52394e-08
3.31987e-11
-2.52476e-08
1.15277e-11
-2.52395e-08
-1.03376e-11
-2.5215e-08
-3.23834e-11
-2.5174e-08
-5.45947e-11
-2.51164e-08
-7.69564e-11
-2.50421e-08
-9.94531e-11
-2.4951e-08
-1.22068e-10
-2.48431e-08
-1.44781e-10
-2.47182e-08
-1.67572e-10
-2.45763e-08
-1.9042e-10
-2.44175e-08
-2.13304e-10
-2.42416e-08
-2.36201e-10
-2.40488e-08
-2.59088e-10
-2.3839e-08
-2.81939e-10
-2.36123e-08
-3.04724e-10
-2.33687e-08
-3.27417e-10
-2.31084e-08
-3.49986e-10
-2.28315e-08
-3.724e-10
-2.25381e-08
-3.94627e-10
-2.22284e-08
-4.16633e-10
-2.19025e-08
-4.38382e-10
-2.15608e-08
-4.59839e-10
-2.12033e-08
-4.80965e-10
-2.08305e-08
-5.0172e-10
-2.04427e-08
-5.22062e-10
-2.004e-08
-5.41946e-10
-1.96231e-08
-5.61331e-10
-1.91921e-08
-5.80169e-10
-1.87477e-08
-5.98416e-10
-1.82902e-08
-6.16019e-10
-1.78202e-08
-6.3293e-10
-1.73382e-08
-6.49097e-10
-1.68448e-08
-6.64464e-10
-1.63407e-08
-6.78975e-10
-1.58266e-08
-6.92574e-10
-1.53031e-08
-7.05205e-10
-1.4771e-08
-7.16812e-10
-1.42312e-08
-7.27335e-10
-1.36844e-08
-7.36715e-10
-1.31316e-08
-7.44887e-10
-1.25736e-08
-7.5179e-10
-1.20116e-08
-7.57363e-10
-1.14465e-08
-7.61542e-10
-1.08795e-08
-7.64262e-10
-1.03115e-08
-7.65459e-10
-9.74391e-09
-7.65069e-10
-9.17783e-09
-7.63027e-10
-8.61456e-09
-7.59264e-10
-8.05543e-09
-7.53714e-10
-7.5018e-09
-7.46313e-10
-6.95508e-09
-7.36999e-10
-6.41674e-09
-7.25711e-10
-5.88828e-09
-7.12388e-10
-5.37124e-09
-6.96975e-10
-4.86719e-09
-6.79417e-10
-4.37777e-09
-6.59663e-10
-3.90462e-09
-6.37663e-10
-3.44943e-09
-6.13374e-10
-3.01389e-09
-5.86761e-10
-2.59973e-09
-5.57801e-10
-2.20868e-09
-5.26479e-10
-1.84244e-09
-4.92798e-10
-1.50272e-09
-4.5678e-10
-1.19117e-09
-4.18475e-10
-9.09379e-10
-3.77965e-10
-6.58822e-10
-3.35377e-10
-4.4083e-10
-2.90901e-10
-2.56519e-10
-2.44815e-10
-1.06691e-10
-1.97517e-10
8.28642e-12
-1.49576e-10
8.86616e-11
-1.01804e-10
1.35539e-10
-5.53674e-11
1.51242e-10
-1.19635e-11
1.39797e-10
2.59572e-11
1.07576e-10
5.48758e-11
6.40557e-11
6.9818e-11
2.23911e-11
6.40806e-11
3.07586e-11
2.5507e-11
-5.97711e-11
6.66315e-11
-9.55031e-11
9.81019e-11
-8.92976e-11
1.06983e-10
-5.12841e-11
8.28975e-11
9.78992e-12
1.85683e-11
8.64191e-11
-9.08023e-11
1.72785e-10
-2.48031e-10
2.64542e-10
-4.5441e-10
3.58486e-10
-7.10067e-10
4.52314e-10
-1.01427e-09
5.44378e-10
-1.36567e-09
6.33505e-10
-1.76244e-09
7.18903e-10
-2.20247e-09
8.00036e-10
-2.6834e-09
8.76548e-10
-3.20274e-09
9.48239e-10
-3.75795e-09
1.015e-09
-4.34646e-09
1.07682e-09
-4.96567e-09
1.13373e-09
-5.61305e-09
1.18582e-09
-6.28609e-09
1.23321e-09
-6.98237e-09
1.27603e-09
-7.69952e-09
1.31444e-09
-8.43528e-09
1.34861e-09
-9.18744e-09
1.37871e-09
-9.95393e-09
1.40493e-09
-1.07327e-08
1.42743e-09
-1.15219e-08
1.44641e-09
-1.23197e-08
1.46203e-09
-1.31244e-08
1.47448e-09
-1.39343e-08
1.48392e-09
-1.47479e-08
1.49051e-09
-1.55637e-08
1.49442e-09
-1.63804e-08
1.49579e-09
-1.71966e-08
1.49478e-09
-1.8011e-08
1.49151e-09
-1.88227e-08
1.48613e-09
-1.96303e-08
1.47874e-09
-2.0433e-08
1.46947e-09
-2.12296e-08
1.45842e-09
-2.20194e-08
1.4457e-09
-2.28014e-08
1.43141e-09
-2.35749e-08
1.41561e-09
-2.43389e-08
1.39841e-09
-2.50929e-08
1.37986e-09
-2.5836e-08
1.36005e-09
-2.65676e-08
1.33902e-09
-2.72872e-08
1.31684e-09
-2.7994e-08
1.29356e-09
-2.86875e-08
1.26923e-09
-2.93671e-08
1.24388e-09
-3.00323e-08
1.21755e-09
-3.06826e-08
1.19027e-09
-3.13174e-08
1.16209e-09
-3.19363e-08
1.13302e-09
-3.25388e-08
1.10309e-09
-3.31245e-08
1.07232e-09
-3.36928e-08
1.04072e-09
-3.42434e-08
1.00833e-09
-3.47758e-08
9.75146e-10
-3.52896e-08
9.41194e-10
-3.57844e-08
9.06482e-10
-3.62597e-08
8.7102e-10
-3.67153e-08
8.3482e-10
-3.71505e-08
7.97892e-10
-3.75652e-08
7.6025e-10
-3.79589e-08
7.21904e-10
-3.83311e-08
6.82865e-10
-3.86816e-08
6.43143e-10
-3.901e-08
6.02745e-10
-3.9316e-08
5.61684e-10
-3.95991e-08
5.19972e-10
-3.9859e-08
4.77625e-10
-4.00954e-08
4.34655e-10
-4.03079e-08
3.91077e-10
-4.04963e-08
3.46906e-10
-4.06603e-08
3.02157e-10
-4.07994e-08
2.5685e-10
-4.09135e-08
2.11006e-10
-4.10023e-08
1.64648e-10
-4.10654e-08
1.17796e-10
-4.11027e-08
7.04746e-11
-4.11138e-08
2.27069e-11
-4.10987e-08
-2.5478e-11
-4.1057e-08
-7.40498e-11
-4.09887e-08
-1.22977e-10
-4.08934e-08
-1.72224e-10
-4.07711e-08
-2.21755e-10
-4.06216e-08
-2.71531e-10
-4.04449e-08
-3.21512e-10
-4.02408e-08
-3.71655e-10
-4.00093e-08
-4.21913e-10
-3.97504e-08
-4.72237e-10
-3.9464e-08
-5.22576e-10
-3.91502e-08
-5.72878e-10
-3.88091e-08
-6.23087e-10
-3.84407e-08
-6.73142e-10
-3.80451e-08
-7.2298e-10
-3.76226e-08
-7.72535e-10
-3.71732e-08
-8.21738e-10
-3.66973e-08
-8.70517e-10
-3.61952e-08
-9.18799e-10
-3.5667e-08
-9.66507e-10
-3.51133e-08
-1.01356e-09
-3.45344e-08
-1.05987e-09
-3.39308e-08
-1.10536e-09
-3.33029e-08
-1.14993e-09
-3.26514e-08
-1.19348e-09
-3.19768e-08
-1.23593e-09
-3.12798e-08
-1.27717e-09
-3.05611e-08
-1.31709e-09
-2.98215e-08
-1.3556e-09
-2.90619e-08
-1.39258e-09
-2.8283e-08
-1.42791e-09
-2.7486e-08
-1.46148e-09
-2.66718e-08
-1.49317e-09
-2.58415e-08
-1.52286e-09
-2.49963e-08
-1.55042e-09
-2.41374e-08
-1.57573e-09
-2.32661e-08
-1.59865e-09
-2.23837e-08
-1.61906e-09
-2.14918e-08
-1.63683e-09
-2.05918e-08
-1.65181e-09
-1.96853e-08
-1.66387e-09
-1.87739e-08
-1.67288e-09
-1.78595e-08
-1.6787e-09
-1.69438e-08
-1.68118e-09
-1.60287e-08
-1.68018e-09
-1.51161e-08
-1.67558e-09
-1.42082e-08
-1.66722e-09
-1.33069e-08
-1.65496e-09
-1.24145e-08
-1.63868e-09
-1.15333e-08
-1.61823e-09
-1.06655e-08
-1.59349e-09
-9.81357e-09
-1.56434e-09
-8.97988e-09
-1.53066e-09
-8.16696e-09
-1.49234e-09
-7.37735e-09
-1.44927e-09
-6.61364e-09
-1.40137e-09
-5.87846e-09
-1.34856e-09
-5.17445e-09
-1.29077e-09
-4.50427e-09
-1.22798e-09
-3.87057e-09
-1.16018e-09
-3.27595e-09
-1.08741e-09
-2.723e-09
-1.00974e-09
-2.21416e-09
-9.2731e-10
-1.75178e-09
-8.40351e-10
-1.33797e-09
-7.49185e-10
-9.74589e-10
-6.5428e-10
-6.63111e-10
-5.56294e-10
-4.04488e-10
-4.5614e-10
-1.98978e-10
-3.55085e-10
-4.59047e-11
-2.54879e-10
5.66666e-11
-1.57942e-10
1.12322e-10
-6.7621e-11
1.2681e-10
1.14693e-11
1.08658e-10
7.30274e-11
6.98187e-11
1.08659e-10
2.62721e-11
1.07628e-10
5.70305e-11
2.10425e-11
-8.08157e-11
4.91877e-11
-1.2365e-10
5.98424e-11
-9.99491e-11
3.73843e-11
-2.88296e-11
-2.96747e-11
7.68517e-11
-1.49573e-10
2.06318e-10
-3.27848e-10
3.51062e-10
-5.67889e-10
5.04582e-10
-8.71363e-10
6.61956e-10
-1.23858e-09
8.19529e-10
-1.66879e-09
9.7459e-10
-2.16046e-09
1.12518e-09
-2.71144e-09
1.26989e-09
-3.31917e-09
1.40776e-09
-3.98075e-09
1.53812e-09
-4.69308e-09
1.66057e-09
-5.45295e-09
1.77488e-09
-6.25707e-09
1.88094e-09
-7.10213e-09
1.97879e-09
-7.98482e-09
2.06852e-09
-8.9019e-09
2.15029e-09
-9.8502e-09
2.22432e-09
-1.08266e-08
2.29084e-09
-1.18281e-08
2.35012e-09
-1.28518e-08
2.40242e-09
-1.38949e-08
2.44805e-09
-1.49548e-08
2.4873e-09
-1.60289e-08
2.52047e-09
-1.71147e-08
2.54784e-09
-1.82099e-08
2.56972e-09
-1.93124e-08
2.58639e-09
-2.042e-08
2.59811e-09
-2.15307e-08
2.60517e-09
-2.26427e-08
2.60781e-09
-2.37542e-08
2.60628e-09
-2.48635e-08
2.60082e-09
-2.59691e-08
2.59165e-09
-2.70693e-08
2.57897e-09
-2.81628e-08
2.56299e-09
-2.92483e-08
2.5439e-09
-3.03245e-08
2.52187e-09
-3.13901e-08
2.49706e-09
-3.24441e-08
2.46961e-09
-3.34854e-08
2.43968e-09
-3.45129e-08
2.40739e-09
-3.55257e-08
2.37286e-09
-3.65229e-08
2.33619e-09
-3.75035e-08
2.29748e-09
-3.84668e-08
2.25683e-09
-3.94119e-08
2.21432e-09
-4.0338e-08
2.17001e-09
-4.12445e-08
2.12399e-09
-4.21305e-08
2.07629e-09
-4.29954e-08
2.027e-09
-4.38385e-08
1.97614e-09
-4.46592e-08
1.92377e-09
-4.54568e-08
1.86993e-09
-4.62308e-08
1.81464e-09
-4.69804e-08
1.75795e-09
-4.77051e-08
1.69987e-09
-4.84044e-08
1.64045e-09
-4.90776e-08
1.57969e-09
-4.97242e-08
1.51763e-09
-5.03437e-08
1.45429e-09
-5.09354e-08
1.38968e-09
-5.1499e-08
1.32382e-09
-5.20339e-08
1.25674e-09
-5.25394e-08
1.18846e-09
-5.30153e-08
1.11898e-09
-5.34609e-08
1.04834e-09
-5.38758e-08
9.76555e-10
-5.42594e-08
9.03644e-10
-5.46114e-08
8.29631e-10
-5.49313e-08
7.54541e-10
-5.52187e-08
6.78402e-10
-5.5473e-08
6.01241e-10
-5.56939e-08
5.23088e-10
-5.5881e-08
4.43976e-10
-5.6034e-08
3.6394e-10
-5.61524e-08
2.83018e-10
-5.62358e-08
2.01249e-10
-5.6284e-08
1.18676e-10
-5.62966e-08
3.53439e-11
-5.62734e-08
-4.86972e-11
-5.62141e-08
-1.33395e-10
-5.61184e-08
-2.18694e-10
-5.59861e-08
-3.04534e-10
-5.5817e-08
-3.9085e-10
-5.56109e-08
-4.77576e-10
-5.53678e-08
-5.6464e-10
-5.50875e-08
-6.51967e-10
-5.47699e-08
-7.39475e-10
-5.44151e-08
-8.27082e-10
-5.4023e-08
-9.14696e-10
-5.35936e-08
-1.00222e-09
-5.31271e-08
-1.08957e-09
-5.26236e-08
-1.17663e-09
-5.20833e-08
-1.26329e-09
-5.15064e-08
-1.34944e-09
-5.08932e-08
-1.43496e-09
-5.0244e-08
-1.51973e-09
-4.95592e-08
-1.60362e-09
-4.88392e-08
-1.68648e-09
-4.80846e-08
-1.76819e-09
-4.72958e-08
-1.8486e-09
-4.64737e-08
-1.92755e-09
-4.56187e-08
-2.00489e-09
-4.47317e-08
-2.08045e-09
-4.38136e-08
-2.15407e-09
-4.28652e-08
-2.22557e-09
-4.18875e-08
-2.29478e-09
-4.08816e-08
-2.3615e-09
-3.98486e-08
-2.42555e-09
-3.87898e-08
-2.48674e-09
-3.77064e-08
-2.54485e-09
-3.65999e-08
-2.59969e-09
-3.54717e-08
-2.65104e-09
-3.43235e-08
-2.69869e-09
-3.31568e-08
-2.74242e-09
-3.19734e-08
-2.78201e-09
-3.07753e-08
-2.81723e-09
-2.95642e-08
-2.84785e-09
-2.83424e-08
-2.87364e-09
-2.71119e-08
-2.89437e-09
-2.5875e-08
-2.9098e-09
-2.4634e-08
-2.91969e-09
-2.33914e-08
-2.92381e-09
-2.21496e-08
-2.92191e-09
-2.09114e-08
-2.91376e-09
-1.96795e-08
-2.89913e-09
-1.84567e-08
-2.87777e-09
-1.72459e-08
-2.84947e-09
-1.60502e-08
-2.81399e-09
-1.48725e-08
-2.77114e-09
-1.37162e-08
-2.72069e-09
-1.25844e-08
-2.66248e-09
-1.14804e-08
-2.5963e-09
-1.04077e-08
-2.52202e-09
-9.36955e-09
-2.43948e-09
-8.36952e-09
-2.34859e-09
-7.41103e-09
-2.24926e-09
-6.49755e-09
-2.14147e-09
-5.63248e-09
-2.02525e-09
-4.81921e-09
-1.90068e-09
-4.06099e-09
-1.76796e-09
-3.36092e-09
-1.62737e-09
-2.72192e-09
-1.47935e-09
-2.14658e-09
-1.32452e-09
-1.63711e-09
-1.16375e-09
-1.1952e-09
-9.98209e-10
-8.21838e-10
-8.29499e-10
-5.17141e-10
-6.59783e-10
-2.80058e-10
-4.91963e-10
-1.08065e-10
-3.29934e-10
3.22484e-12
-1.78911e-10
6.05364e-11
-4.58441e-11
7.34649e-11
6.00992e-11
5.50759e-11
1.27049e-10
2.26716e-11
1.40034e-10
7.97018e-11
1.20267e-11
-9.2841e-11
1.87467e-11
-1.3037e-10
-2.97907e-12
-7.8223e-11
-6.90911e-11
3.7286e-11
-1.91285e-10
1.99045e-10
-3.78031e-10
3.93065e-10
-6.35142e-10
6.08176e-10
-9.66247e-10
8.35688e-10
-1.3732e-09
1.06891e-09
-1.85637e-09
1.3027e-09
-2.41502e-09
1.53323e-09
-3.04745e-09
1.75762e-09
-3.75131e-09
1.97375e-09
-4.52366e-09
2.18012e-09
-5.36123e-09
2.37569e-09
-6.26041e-09
2.55976e-09
-7.21746e-09
2.73193e-09
-8.22852e-09
2.892e-09
-9.28965e-09
3.03992e-09
-1.03969e-08
3.17581e-09
-1.15465e-08
3.29985e-09
-1.27345e-08
3.41232e-09
-1.39572e-08
3.51353e-09
-1.52109e-08
3.60385e-09
-1.64922e-08
3.68368e-09
-1.77976e-08
3.75343e-09
-1.91238e-08
3.81353e-09
-2.04677e-08
3.86439e-09
-2.18263e-08
3.90647e-09
-2.31968e-08
3.94017e-09
-2.45763e-08
3.96594e-09
-2.59624e-08
3.98416e-09
-2.73524e-08
3.99524e-09
-2.87442e-08
3.99957e-09
-3.01354e-08
3.99751e-09
-3.1524e-08
3.9894e-09
-3.2908e-08
3.9756e-09
-3.42854e-08
3.95641e-09
-3.56545e-08
3.93213e-09
-3.70137e-08
3.90305e-09
-3.83612e-08
3.86943e-09
-3.96957e-08
3.83151e-09
-4.10156e-08
3.78953e-09
-4.23196e-08
3.7437e-09
-4.36064e-08
3.69421e-09
-4.48748e-08
3.64125e-09
-4.61236e-08
3.58498e-09
-4.73517e-08
3.52556e-09
-4.8558e-08
3.46312e-09
-4.97415e-08
3.3978e-09
-5.09012e-08
3.32971e-09
-5.20361e-08
3.25894e-09
-5.31454e-08
3.1856e-09
-5.42282e-08
3.10977e-09
-5.52836e-08
3.03153e-09
-5.63108e-08
2.95096e-09
-5.7309e-08
2.8681e-09
-5.82773e-08
2.78302e-09
-5.92152e-08
2.69577e-09
-6.01217e-08
2.6064e-09
-6.09962e-08
2.51494e-09
-6.18379e-08
2.42144e-09
-6.26462e-08
2.32594e-09
-6.34204e-08
2.22846e-09
-6.41598e-08
2.12905e-09
-6.48637e-08
2.02773e-09
-6.55315e-08
1.92454e-09
-6.61625e-08
1.8195e-09
-6.67562e-08
1.71265e-09
-6.73119e-08
1.60402e-09
-6.7829e-08
1.49364e-09
-6.83069e-08
1.38156e-09
-6.87451e-08
1.26779e-09
-6.91429e-08
1.15239e-09
-6.94999e-08
1.0354e-09
-6.98155e-08
9.16852e-10
-7.00892e-08
7.96803e-10
-7.03206e-08
6.75303e-10
-7.0509e-08
5.52407e-10
-7.06542e-08
4.28171e-10
-7.07556e-08
3.02657e-10
-7.08128e-08
1.75931e-10
-7.08256e-08
4.80657e-11
-7.07934e-08
-8.08632e-11
-7.0716e-08
-2.10774e-10
-7.05931e-08
-3.4158e-10
-7.04245e-08
-4.7319e-10
-7.02098e-08
-6.05506e-10
-6.9949e-08
-7.38425e-10
-6.96418e-08
-8.71835e-10
-6.92881e-08
-1.00562e-09
-6.8888e-08
-1.13966e-09
-6.84412e-08
-1.27382e-09
-6.79479e-08
-1.40796e-09
-6.74082e-08
-1.54195e-09
-6.68222e-08
-1.67563e-09
-6.61899e-08
-1.80885e-09
-6.55118e-08
-1.94143e-09
-6.4788e-08
-2.0732e-09
-6.4019e-08
-2.20398e-09
-6.32052e-08
-2.33359e-09
-6.2347e-08
-2.46182e-09
-6.1445e-08
-2.58846e-09
-6.04999e-08
-2.71331e-09
-5.95123e-08
-2.83614e-09
-5.84831e-08
-2.95672e-09
-5.74132e-08
-3.07481e-09
-5.63035e-08
-3.19017e-09
-5.51551e-08
-3.30253e-09
-5.3969e-08
-3.41162e-09
-5.27466e-08
-3.51719e-09
-5.14891e-08
-3.61895e-09
-5.01981e-08
-3.7166e-09
-4.8875e-08
-3.80985e-09
-4.75214e-08
-3.89839e-09
-4.61392e-08
-3.98191e-09
-4.47302e-08
-4.0601e-09
-4.32962e-08
-4.13262e-09
-4.18395e-08
-4.19914e-09
-4.03622e-08
-4.25933e-09
-3.88666e-08
-4.31285e-09
-3.73551e-08
-4.35934e-09
-3.58303e-08
-4.39845e-09
-3.42948e-08
-4.42984e-09
-3.27515e-08
-4.45314e-09
-3.12032e-08
-4.46801e-09
-2.96529e-08
-4.47407e-09
-2.81038e-08
-4.47098e-09
-2.65592e-08
-4.45838e-09
-2.50224e-08
-4.43592e-09
-2.34969e-08
-4.40326e-09
-2.19863e-08
-4.36006e-09
-2.04943e-08
-4.30599e-09
-1.90247e-08
-4.24075e-09
-1.75813e-08
-4.16404e-09
-1.61682e-08
-4.07559e-09
-1.47894e-08
-3.97515e-09
-1.34489e-08
-3.8625e-09
-1.21509e-08
-3.73746e-09
-1.08996e-08
-3.5999e-09
-9.69912e-09
-3.44975e-09
-8.5536e-09
-3.28699e-09
-7.46713e-09
-3.11172e-09
-6.44369e-09
-2.92413e-09
-5.48711e-09
-2.72454e-09
-4.60102e-09
-2.51346e-09
-3.78875e-09
-2.29162e-09
-3.05326e-09
-2.06001e-09
-2.39703e-09
-1.81999e-09
-1.82187e-09
-1.57336e-09
-1.32882e-09
-1.32255e-09
-9.17867e-10
-1.07074e-09
-5.87741e-10
-8.22089e-10
-3.35588e-10
-5.82087e-10
-1.56629e-10
-3.5787e-10
-4.37615e-11
-1.58711e-10
1.29194e-11
3.41892e-12
2.66307e-11
1.13338e-10
1.46481e-11
1.52016e-10
9.43495e-11
9.69245e-13
-9.38096e-11
-1.94713e-11
-1.09927e-10
-8.15775e-11
-1.61175e-11
-2.00242e-10
1.55951e-10
-3.86591e-10
3.85395e-10
-6.48776e-10
6.5525e-10
-9.92454e-10
9.51854e-10
-1.42119e-09
1.26443e-09
-1.93679e-09
1.58451e-09
-2.5396e-09
1.90552e-09
-3.22877e-09
2.22241e-09
-4.00249e-09
2.53133e-09
-4.85816e-09
2.82942e-09
-5.79262e-09
3.11457e-09
-6.80222e-09
3.38529e-09
-7.883e-09
3.64054e-09
-9.03076e-09
3.87969e-09
-1.02412e-08
4.1024e-09
-1.15098e-08
4.30855e-09
-1.28322e-08
4.4982e-09
-1.42039e-08
4.67158e-09
-1.56206e-08
4.82898e-09
-1.70779e-08
4.97084e-09
-1.85716e-08
5.0976e-09
-2.00977e-08
5.20978e-09
-2.16522e-08
5.30793e-09
-2.32313e-08
5.39261e-09
-2.48313e-08
5.4644e-09
-2.64487e-08
5.52388e-09
-2.80802e-08
5.57162e-09
-2.97224e-08
5.60821e-09
-3.13724e-08
5.63419e-09
-3.30273e-08
5.65011e-09
-3.46843e-08
5.65651e-09
-3.63406e-08
5.65388e-09
-3.79939e-08
5.64272e-09
-3.96418e-08
5.62347e-09
-4.1282e-08
5.5966e-09
-4.29124e-08
5.56252e-09
-4.4531e-08
5.52161e-09
-4.61358e-08
5.47424e-09
-4.7725e-08
5.42077e-09
-4.9297e-08
5.36151e-09
-5.08501e-08
5.29677e-09
-5.23827e-08
5.22681e-09
-5.38934e-08
5.15191e-09
-5.53806e-08
5.07228e-09
-5.68432e-08
4.98815e-09
-5.82798e-08
4.89973e-09
-5.96892e-08
4.80718e-09
-6.10702e-08
4.71068e-09
-6.24216e-08
4.61036e-09
-6.37424e-08
4.50638e-09
-6.50315e-08
4.39886e-09
-6.62879e-08
4.28789e-09
-6.75105e-08
4.1736e-09
-6.86985e-08
4.05606e-09
-6.98508e-08
3.93536e-09
-7.09666e-08
3.81158e-09
-7.2045e-08
3.68478e-09
-7.30851e-08
3.55503e-09
-7.4086e-08
3.42239e-09
-7.5047e-08
3.28691e-09
-7.59672e-08
3.14863e-09
-7.68458e-08
3.00762e-09
-7.76819e-08
2.86392e-09
-7.8475e-08
2.71758e-09
-7.92241e-08
2.56863e-09
-7.99286e-08
2.41713e-09
-8.05877e-08
2.26313e-09
-8.12007e-08
2.10667e-09
-8.17669e-08
1.9478e-09
-8.22857e-08
1.78659e-09
-8.27564e-08
1.62308e-09
-8.31784e-08
1.45734e-09
-8.3551e-08
1.28943e-09
-8.38736e-08
1.11942e-09
-8.41456e-08
9.47375e-10
-8.43666e-08
7.73386e-10
-8.4536e-08
5.97531e-10
-8.46532e-08
4.19898e-10
-8.47179e-08
2.40581e-10
-8.47295e-08
5.96832e-11
-8.46877e-08
-1.22686e-10
-8.4592e-08
-3.06412e-10
-8.44422e-08
-4.9137e-10
-8.4238e-08
-6.77429e-10
-8.39791e-08
-8.64453e-10
-8.36652e-08
-1.05229e-09
-8.32962e-08
-1.2408e-09
-8.28721e-08
-1.42979e-09
-8.23926e-08
-1.61911e-09
-8.18579e-08
-1.80856e-09
-8.12679e-08
-1.99796e-09
-8.06227e-08
-2.18711e-09
-7.99226e-08
-2.37578e-09
-7.91677e-08
-2.56376e-09
-7.83583e-08
-2.75081e-09
-7.74948e-08
-2.93668e-09
-7.65776e-08
-3.12113e-09
-7.56074e-08
-3.30387e-09
-7.45845e-08
-3.48464e-09
-7.35099e-08
-3.66315e-09
-7.23841e-08
-3.83909e-09
-7.12081e-08
-4.01214e-09
-6.99828e-08
-4.182e-09
-6.87093e-08
-4.3483e-09
-6.73888e-08
-4.51072e-09
-6.60224e-08
-4.66889e-09
-6.46116e-08
-4.82243e-09
-6.31578e-08
-4.97097e-09
-6.16626e-08
-5.11411e-09
-6.01278e-08
-5.25144e-09
-5.85551e-08
-5.38254e-09
-5.69465e-08
-5.50699e-09
-5.53041e-08
-5.62435e-09
-5.363e-08
-5.73418e-09
-5.19266e-08
-5.83601e-09
-5.01964e-08
-5.92938e-09
-4.84419e-08
-6.01383e-09
-4.66658e-08
-6.08887e-09
-4.48712e-08
-6.15401e-09
-4.30608e-08
-6.20878e-09
-4.1238e-08
-6.25268e-09
-3.94059e-08
-6.28521e-09
-3.75681e-08
-6.30588e-09
-3.57279e-08
-6.31419e-09
-3.38893e-08
-6.30965e-09
-3.20559e-08
-6.29178e-09
-3.02317e-08
-6.2601e-09
-2.84208e-08
-6.21413e-09
-2.66275e-08
-6.15341e-09
-2.4856e-08
-6.07752e-09
-2.31107e-08
-5.98604e-09
-2.13962e-08
-5.87856e-09
-1.9717e-08
-5.75473e-09
-1.80779e-08
-5.61424e-09
-1.64836e-08
-5.45681e-09
-1.49389e-08
-5.28221e-09
-1.34485e-08
-5.09032e-09
-1.20171e-08
-4.88106e-09
-1.06496e-08
-4.65448e-09
-9.35061e-09
-4.41076e-09
-8.12452e-09
-4.15021e-09
-6.97569e-09
-3.87337e-09
-5.90815e-09
-3.581e-09
-4.9256e-09
-3.27417e-09
-4.03128e-09
-2.95433e-09
-3.22786e-09
-2.6234e-09
-2.51731e-09
-2.28392e-09
-1.90069e-09
-1.93917e-09
-1.378e-09
-1.59343e-09
-9.47884e-10
-1.2522e-09
-6.07428e-10
-9.22543e-10
-3.51817e-10
-6.1348e-10
-1.74026e-10
-3.365e-10
-6.44515e-11
-1.06156e-10
-1.0467e-11
5.9352e-11
4.09801e-12
1.3745e-10
9.84464e-11
-1.10774e-11
-8.27336e-11
-6.21062e-11
-5.88946e-11
-1.69762e-10
9.1538e-11
-3.47078e-10
3.33268e-10
-6.0399e-10
6.42309e-10
-9.47871e-10
9.99128e-10
-1.38386e-09
1.38784e-09
-1.91517e-09
1.79574e-09
-2.54337e-09
2.21271e-09
-3.26862e-09
2.63077e-09
-4.0899e-09
3.04368e-09
-5.00519e-09
3.44663e-09
-6.01171e-09
3.83594e-09
-7.10602e-09
4.20888e-09
-8.28419e-09
4.56347e-09
-9.54195e-09
4.8983e-09
-1.08747e-08
5.21247e-09
-1.22778e-08
5.50545e-09
-1.37463e-08
5.77703e-09
-1.52753e-08
6.02721e-09
-1.68599e-08
6.2562e-09
-1.84953e-08
6.46437e-09
-2.01766e-08
6.65219e-09
-2.18993e-08
6.82024e-09
-2.36586e-08
6.96912e-09
-2.54502e-08
7.09954e-09
-2.72698e-08
7.21219e-09
-2.91132e-08
7.30781e-09
-3.09765e-08
7.38715e-09
-3.28558e-08
7.45093e-09
-3.47475e-08
7.49989e-09
-3.66481e-08
7.53477e-09
-3.85542e-08
7.55626e-09
-4.04628e-08
7.56505e-09
-4.23707e-08
7.5618e-09
-4.42751e-08
7.54714e-09
-4.61733e-08
7.52169e-09
-4.80627e-08
7.48602e-09
-4.99409e-08
7.44068e-09
-5.18055e-08
7.38619e-09
-5.36543e-08
7.32303e-09
-5.54852e-08
7.25166e-09
-5.72962e-08
7.17252e-09
-5.90854e-08
7.086e-09
-6.0851e-08
6.99246e-09
-6.25914e-08
6.89225e-09
-6.43048e-08
6.78568e-09
-6.59897e-08
6.67305e-09
-6.76446e-08
6.55463e-09
-6.92681e-08
6.43065e-09
-7.08587e-08
6.30133e-09
-7.24152e-08
6.16689e-09
-7.39364e-08
6.0275e-09
-7.54208e-08
5.88334e-09
-7.68675e-08
5.73455e-09
-7.82752e-08
5.58128e-09
-7.96427e-08
5.42364e-09
-8.09691e-08
5.26176e-09
-8.22533e-08
5.09574e-09
-8.34942e-08
4.92568e-09
-8.46908e-08
4.75165e-09
-8.58422e-08
4.57375e-09
-8.69473e-08
4.39204e-09
-8.80053e-08
4.20661e-09
-8.90152e-08
4.01752e-09
-8.99761e-08
3.82483e-09
-9.08871e-08
3.62861e-09
-9.17474e-08
3.42893e-09
-9.25562e-08
3.22585e-09
-9.33125e-08
3.01944e-09
-9.40156e-08
2.80976e-09
-9.46646e-08
2.59689e-09
-9.52589e-08
2.3809e-09
-9.57977e-08
2.16186e-09
-9.62803e-08
1.93987e-09
-9.67058e-08
1.715e-09
-9.70738e-08
1.48736e-09
-9.73834e-08
1.25703e-09
-9.76342e-08
1.02413e-09
-9.78254e-08
7.88777e-10
-9.79566e-08
5.51079e-10
-9.80272e-08
3.11169e-10
-9.80367e-08
6.91851e-11
-9.79847e-08
-1.74727e-10
-9.78707e-08
-4.2041e-10
-9.76943e-08
-6.677e-10
-9.74553e-08
-9.16421e-10
-9.71534e-08
-1.16639e-09
-9.67883e-08
-1.4174e-09
-9.63598e-08
-1.66925e-09
-9.58679e-08
-1.92172e-09
-9.53124e-08
-2.17458e-09
-9.46934e-08
-2.42757e-09
-9.40109e-08
-2.68045e-09
-9.32651e-08
-2.93294e-09
-9.24561e-08
-3.18476e-09
-9.15843e-08
-3.4356e-09
-9.06499e-08
-3.68516e-09
-8.96535e-08
-3.93311e-09
-8.85955e-08
-4.17911e-09
-8.74766e-08
-4.4228e-09
-8.62974e-08
-4.66381e-09
-8.50588e-08
-4.90176e-09
-8.37617e-08
-5.13624e-09
-8.2407e-08
-5.36684e-09
-8.09958e-08
-5.59313e-09
-7.95295e-08
-5.81465e-09
-7.80093e-08
-6.03094e-09
-7.64366e-08
-6.24153e-09
-7.48131e-08
-6.44593e-09
-7.31405e-08
-6.64361e-09
-7.14205e-08
-6.83407e-09
-6.96552e-08
-7.01675e-09
-6.78467e-08
-7.19111e-09
-6.59971e-08
-7.35658e-09
-6.41088e-08
-7.51258e-09
-6.21845e-08
-7.65853e-09
-6.02267e-08
-7.79381e-09
-5.82383e-08
-7.91781e-09
-5.62222e-08
-8.02991e-09
-5.41816e-08
-8.12949e-09
-5.21197e-08
-8.21589e-09
-5.004e-08
-8.28849e-09
-4.7946e-08
-8.34662e-09
-4.58416e-08
-8.38965e-09
-4.37306e-08
-8.41691e-09
-4.1617e-08
-8.42778e-09
-3.9505e-08
-8.42159e-09
-3.73991e-08
-8.39773e-09
-3.53036e-08
-8.35557e-09
-3.32232e-08
-8.2945e-09
-3.11627e-08
-8.21394e-09
-2.91269e-08
-8.11332e-09
-2.71209e-08
-7.99211e-09
-2.51496e-08
-7.84983e-09
-2.32183e-08
-7.68602e-09
-2.13322e-08
-7.50031e-09
-1.94967e-08
-7.29235e-09
-1.7717e-08
-7.06192e-09
-1.59984e-08
-6.80887e-09
-1.43463e-08
-6.53316e-09
-1.27659e-08
-6.23492e-09
-1.12622e-08
-5.91442e-09
-9.84024e-09
-5.57218e-09
-8.50466e-09
-5.20895e-09
-7.25987e-09
-4.8258e-09
-6.10986e-09
-4.42419e-09
-5.05811e-09
-4.00608e-09
-4.1075e-09
-3.57401e-09
-3.26013e-09
-3.13128e-09
-2.5172e-09
-2.6821e-09
-1.87877e-09
-2.23186e-09
-1.34362e-09
-1.78736e-09
-9.08968e-10
-1.35719e-09
-5.70289e-10
-9.52159e-10
-3.21014e-10
-5.85774e-10
-1.52286e-10
-2.74884e-10
-5.26602e-11
-4.02743e-11
-7.79545e-12
9.25832e-11
9.06495e-11
-2.35263e-11
-5.92064e-11
-1.06939e-10
2.45188e-11
-2.63227e-10
2.47827e-10
-5.03076e-10
5.73116e-10
-8.34808e-10
9.74043e-10
-1.26465e-09
1.42897e-09
-1.79694e-09
1.92013e-09
-2.4343e-09
2.4331e-09
-3.17788e-09
2.95628e-09
-4.02749e-09
3.48038e-09
-4.98183e-09
3.99803e-09
-6.03865e-09
4.50346e-09
-7.19492e-09
4.99221e-09
-8.44694e-09
5.46091e-09
-9.79053e-09
5.90705e-09
-1.12211e-08
6.32886e-09
-1.27338e-08
6.72513e-09
-1.43234e-08
7.09513e-09
-1.59849e-08
7.43849e-09
-1.77129e-08
7.75518e-09
-1.9502e-08
8.04537e-09
-2.13471e-08
8.30947e-09
-2.3243e-08
8.54801e-09
-2.51844e-08
8.76165e-09
-2.71664e-08
8.95113e-09
-2.91841e-08
9.11726e-09
-3.12328e-08
9.26092e-09
-3.3308e-08
9.38298e-09
-3.54052e-08
9.48435e-09
-3.75202e-08
9.56595e-09
-3.9649e-08
9.62868e-09
-4.17877e-08
9.67344e-09
-4.39325e-08
9.70111e-09
-4.608e-08
9.71254e-09
-4.82268e-08
9.70856e-09
-5.03696e-08
9.68997e-09
-5.25054e-08
9.65753e-09
-5.46314e-08
9.61197e-09
-5.67447e-08
9.55398e-09
-5.88427e-08
9.48422e-09
-6.0923e-08
9.4033e-09
-6.29831e-08
9.31181e-09
-6.50209e-08
9.21029e-09
-6.70341e-08
9.09924e-09
-6.90208e-08
8.97914e-09
-7.0979e-08
8.85043e-09
-7.29068e-08
8.7135e-09