/*--------------------------------*- C++ -*----------------------------------*\
  =========                 |
  \\      /  F ield         | OpenFOAM: The Open Source CFD Toolbox
   \\    /   O peration     | Website:  https://openfoam.org
    \\  /    A nd           | Version:  7
     \\/     M anipulation  |
\*---------------------------------------------------------------------------*/
FoamFile
{
    version     2.0;
    format      ascii;
    class       volScalarField;
    location    "0.3875";
    object      p;
}
// * * * * * * * * * * * * * * * * * * * * * * * * * * * * * * * * * * * * * //

dimensions      [0 2 -2 0 0 0 0];

internalField   nonuniform List<scalar> 
25600
(
-7.17276e-09
-5.74461e-07
-4.237e-06
-1.06312e-05
-1.8929e-05
-2.84369e-05
-3.85624e-05
-4.88044e-05
-5.87734e-05
-6.81676e-05
-7.67466e-05
-8.43186e-05
-9.07335e-05
-9.58761e-05
-9.96619e-05
-0.00010203
-0.000102936
-0.000102349
-0.000100249
-9.66292e-05
-9.14868e-05
-8.48267e-05
-7.66562e-05
-6.69861e-05
-5.58301e-05
-4.32046e-05
-2.91274e-05
-1.36142e-05
3.31978e-06
2.16586e-05
4.13847e-05
6.24803e-05
8.49295e-05
0.00010872
0.00013384
0.000160279
0.000188021
0.000217051
0.000247361
0.000278944
0.000311794
0.000345899
0.000381247
0.000417829
0.000455639
0.000494675
0.000534928
0.000576388
0.000619042
0.000662883
0.000707904
0.0007541
0.00080146
0.000849969
0.000899612
0.000950374
0.00100225
0.00105522
0.00110926
0.00116437
0.00122051
0.00127766
0.00133581
0.00139492
0.00145498
0.00151594
0.00157778
0.00164046
0.00170394
0.0017682
0.00183319
0.00189886
0.00196516
0.00203205
0.00209948
0.0021674
0.00223575
0.00230447
0.0023735
0.00244277
0.00251222
0.00258179
0.00265139
0.00272097
0.00279044
0.00285972
0.00292875
0.00299744
0.0030657
0.00313346
0.00320064
0.00326714
0.00333288
0.00339779
0.00346176
0.00352472
0.00358659
0.00364728
0.0037067
0.00376479
0.00382145
0.00387661
0.0039302
0.00398214
0.00403237
0.00408082
0.00412743
0.00417213
0.00421489
0.00425564
0.00429435
0.00433097
0.00436547
0.00439782
0.00442799
0.00445597
0.00448175
0.00450531
0.00452666
0.00454581
0.00456275
0.00457752
0.00459012
0.0046006
0.00460898
0.0046153
0.00461962
0.00462198
0.00462244
0.00462106
0.00461791
0.00461306
0.0046066
0.0045986
0.00458916
0.00457838
0.00456634
0.00455316
0.00453895
0.00452383
0.00450791
0.00449132
0.0044742
0.00445668
0.00443892
0.00442107
0.00440329
0.00438575
0.00436866
0.00435221
0.00433661
0.00432209
0.00430891
0.00429734
0.00428765
0.00428012
0.00427499
0.00427239
0.00427227
0.00427399
6.27852e-07
6.14777e-08
-3.08567e-06
-8.37485e-06
-1.51908e-05
-2.30033e-05
-3.13771e-05
-3.99023e-05
-4.82342e-05
-5.60941e-05
-6.32563e-05
-6.95363e-05
-7.47849e-05
-7.88838e-05
-8.17408e-05
-8.32867e-05
-8.34705e-05
-8.22539e-05
-7.96099e-05
-7.55218e-05
-6.99808e-05
-6.29852e-05
-5.45373e-05
-4.46414e-05
-3.33048e-05
-2.05394e-05
-6.35825e-06
9.22567e-06
2.61993e-05
4.45499e-05
6.4265e-05
8.53307e-05
0.000107732
0.000131454
0.000156488
0.000182825
0.000210454
0.000239361
0.000269534
0.000300966
0.000333651
0.00036758
0.000402743
0.000439131
0.000476734
0.000515546
0.000555563
0.000596775
0.000639171
0.00068274
0.000727475
0.000773366
0.000820406
0.00086858
0.000917874
0.000968271
0.00101976
0.00107232
0.00112595
0.00118061
0.00123629
0.00129296
0.0013506
0.00140919
0.0014687
0.00152909
0.00159034
0.00165241
0.00171526
0.00177886
0.00184316
0.00190813
0.00197371
0.00203985
0.00210651
0.00217364
0.00224117
0.00230905
0.00237723
0.00244562
0.00251418
0.00258283
0.00265151
0.00272014
0.00278865
0.00285697
0.00292501
0.00299271
0.00305997
0.00312673
0.00319289
0.00325838
0.00332311
0.00338699
0.00344996
0.00351192
0.00357279
0.00363249
0.00369095
0.00374807
0.0038038
0.00385804
0.00391073
0.0039618
0.00401119
0.00405883
0.00410466
0.00414862
0.00419067
0.00423076
0.00426884
0.00430488
0.00433884
0.00437071
0.00440044
0.00442804
0.00445349
0.00447678
0.00449791
0.00451689
0.00453373
0.00454845
0.00456107
0.00457163
0.00458015
0.00458668
0.00459127
0.00459396
0.00459481
0.00459389
0.00459127
0.00458701
0.00458121
0.00457393
0.00456528
0.00455534
0.00454421
0.00453201
0.00451884
0.00450481
0.00449004
0.00447466
0.00445881
0.00444261
0.00442621
0.00440976
0.00439342
0.00437736
0.00436175
0.00434677
0.00433263
0.00431953
0.00430768
0.0042973
0.00428861
0.00428181
0.00427705
0.0042744
0.004274
0.00427571
4.39404e-06
3.27922e-06
1.09394e-07
-4.73935e-06
-1.07845e-05
-1.7628e-05
-2.49159e-05
-3.23156e-05
-3.95296e-05
-4.63067e-05
-5.24399e-05
-5.77576e-05
-6.21189e-05
-6.54083e-05
-6.75324e-05
-6.84191e-05
-6.80144e-05
-6.62769e-05
-6.31756e-05
-5.86887e-05
-5.28028e-05
-4.5511e-05
-3.68124e-05
-2.67086e-05
-1.52029e-05
-2.30177e-06
1.19856e-05
2.76479e-05
4.46733e-05
6.30507e-05
8.27712e-05
0.000103825
0.000126198
0.000149876
0.00017485
0.000201111
0.00022865
0.000257458
0.000287523
0.000318835
0.000351385
0.000385168
0.000420177
0.000456401
0.000493832
0.000532461
0.00057228
0.000613282
0.00065546
0.000698802
0.000743298
0.000788937
0.000835709
0.000883602
0.000932604
0.000982698
0.00103387
0.0010861
0.00113937
0.00119367
0.00124897
0.00130525
0.00136248
0.00142064
0.0014797
0.00153963
0.00160041
0.00166198
0.00172432
0.00178739
0.00185114
0.00191554
0.00198054
0.00204608
0.00211213
0.00217862
0.0022455
0.00231272
0.00238022
0.00244792
0.00251577
0.0025837
0.00265165
0.00271953
0.00278729
0.00285484
0.00292211
0.00298902
0.0030555
0.00312146
0.00318683
0.00325152
0.00331545
0.00337854
0.00344071
0.00350189
0.00356198
0.0036209
0.00367859
0.00373496
0.00378995
0.00384347
0.00389546
0.00394584
0.00399456
0.00404155
0.00408676
0.00413014
0.00417162
0.00421117
0.00424875
0.00428432
0.00431785
0.00434932
0.0043787
0.00440597
0.00443113
0.00445418
0.00447512
0.00449395
0.00451068
0.00452534
0.00453794
0.00454853
0.00455713
0.00456379
0.00456855
0.00457146
0.00457259
0.004572
0.00456976
0.00456593
0.0045606
0.00455386
0.00454578
0.00453648
0.00452604
0.00451456
0.00450217
0.00448897
0.00447508
0.00446062
0.00444572
0.00443052
0.00441515
0.00439976
0.0043845
0.00436952
0.004355
0.00434111
0.00432802
0.00431591
0.00430498
0.00429541
0.00428738
0.00428107
0.00427658
0.00427399
0.0042736
0.00427562
1.08885e-05
8.627e-06
4.9675e-06
9.26796e-08
-5.69486e-06
-1.20672e-05
-1.87293e-05
-2.54106e-05
-3.18631e-05
-3.78682e-05
-4.32393e-05
-4.78209e-05
-5.14833e-05
-5.41191e-05
-5.56397e-05
-5.59738e-05
-5.5066e-05
-5.28749e-05
-4.93687e-05
-4.45234e-05
-3.83225e-05
-3.0756e-05
-2.18198e-05
-1.15134e-05
1.61091e-07
1.31997e-05
2.7597e-05
4.33455e-05
6.04348e-05
7.88536e-05
9.85939e-05
0.000119648
0.000142007
0.000165657
0.000190588
0.000216791
0.000244259
0.000272983
0.000302954
0.000334162
0.000366598
0.000400255
0.000435126
0.000471204
0.000508481
0.000546947
0.000586592
0.000627408
0.000669389
0.000712527
0.000756809
0.000802225
0.000848761
0.000896406
0.000945148
0.000994972
0.00104586
0.0010978
0.00115077
0.00120475
0.00125972
0.00131566
0.00137253
0.00143032
0.001489
0.00154854
0.0016089
0.00167005
0.00173196
0.00179457
0.00185786
0.00192178
0.00198628
0.00205133
0.00211685
0.00218281
0.00224915
0.00231582
0.00238274
0.00244987
0.00251713
0.00258446
0.00265179
0.00271906
0.00278619
0.0028531
0.00291973
0.002986
0.00305183
0.00311714
0.00318185
0.00324588
0.00330915
0.00337159
0.0034331
0.00349362
0.00355307
0.00361136
0.00366841
0.00372416
0.00377853
0.00383145
0.00388285
0.00393267
0.00398083
0.00402728
0.00407198
0.00411485
0.00415586
0.00419496
0.00423211
0.00426728
0.00430043
0.00433155
0.0043606
0.00438759
0.0044125
0.00443532
0.00445607
0.00447474
0.00449135
0.00450592
0.00451848
0.00452905
0.00453768
0.0045444
0.00454927
0.00455233
0.00455365
0.00455328
0.00455131
0.00454779
0.00454282
0.00453647
0.00452884
0.00452002
0.0045101
0.0044992
0.00448742
0.00447486
0.00446165
0.00444792
0.00443377
0.00441935
0.00440478
0.00439022
0.00437579
0.00436166
0.00434797
0.00433489
0.00432257
0.00431119
0.00430091
0.00429189
0.0042843
0.00427828
0.00427395
0.00427139
0.00427098
0.00427307
1.92874e-05
1.54951e-05
1.101e-05
5.82128e-06
4.79847e-09
-6.17649e-06
-1.24737e-05
-1.86691e-05
-2.45612e-05
-2.99667e-05
-3.47238e-05
-3.86939e-05
-4.17601e-05
-4.38249e-05
-4.48074e-05
-4.46411e-05
-4.32719e-05
-4.06577e-05
-3.67672e-05
-3.15774e-05
-2.50706e-05
-1.72342e-05
-8.06145e-06
2.45038e-06
1.43001e-05
2.74843e-05
4.19992e-05
5.78411e-05
7.50027e-05
9.3474e-05
0.000113246
0.000134312
0.000156664
0.000180293
0.00020519
0.000231346
0.000258751
0.000287399
0.000317281
0.000348391
0.00038072
0.00041426
0.000449001
0.000484937
0.000522063
0.00056037
0.000599849
0.00064049
0.000682283
0.000725221
0.000769296
0.000814496
0.000860808
0.000908217
0.00095671
0.00100628
0.0010569
0.00110856
0.00116124
0.00121492
0.00126958
0.00132519
0.00138174
0.00143918
0.0014975
0.00155667
0.00161665
0.00167741
0.00173891
0.00180111
0.00186397
0.00192745
0.0019915
0.00205608
0.00212114
0.00218662
0.00225246
0.00231862
0.00238503
0.00245163
0.00251835
0.00258514
0.00265193
0.00271863
0.0027852
0.00285154
0.0029176
0.00298328
0.00304853
0.00311325
0.00317737
0.00324081
0.00330349
0.00336534
0.00342627
0.0034862
0.00354507
0.00360278
0.00365927
0.00371446
0.00376828
0.00382065
0.00387152
0.00392082
0.00396848
0.00401444
0.00405866
0.00410107
0.00414165
0.00418033
0.00421708
0.00425187
0.00428466
0.00431545
0.0043442
0.00437091
0.00439556
0.00441815
0.0044387
0.0044572
0.00447367
0.00448813
0.00450061
0.00451114
0.00451975
0.0045265
0.00453142
0.00453457
0.00453602
0.00453582
0.00453405
0.00453078
0.00452608
0.00452006
0.00451279
0.00450436
0.00449488
0.00448446
0.00447318
0.00446118
0.00444855
0.00443543
0.00442192
0.00440816
0.00439428
0.00438042
0.0043667
0.00435327
0.00434027
0.00432785
0.00431617
0.00430536
0.00429558
0.00428697
0.00427968
0.00427384
0.00426955
0.00426691
0.0042663
0.00426805
2.89183e-05
2.33607e-05
1.78406e-05
1.21192e-05
6.05046e-06
-1.60735e-07
-6.30834e-06
-1.22194e-05
-1.77315e-05
-2.26953e-05
-2.69759e-05
-3.04534e-05
-3.30246e-05
-3.46033e-05
-3.51173e-05
-3.45062e-05
-3.27204e-05
-2.97196e-05
-2.5473e-05
-1.99581e-05
-1.31582e-05
-5.06069e-06
4.34256e-06
1.50568e-05
2.70826e-05
4.04168e-05
5.50558e-05
7.0997e-05
8.82363e-05
0.000106766
0.000126579
0.000147667
0.000170021
0.000193636
0.000218505
0.000244621
0.000271974
0.000300555
0.000330356
0.000361373
0.000393601
0.00042703
0.000461651
0.000497455
0.000534437
0.000572591
0.00061191
0.000652383
0.000693999
0.000736749
0.000780625
0.000825618
0.000871716
0.000918903
0.000967164
0.00101649
0.00106686
0.00111826
0.00117067
0.00122407
0.00127844
0.00133375
0.00138998
0.00144711
0.00150511
0.00156394
0.00162357
0.00168397
0.0017451
0.00180693
0.0018694
0.00193248
0.00199613
0.00206029
0.00212492
0.00218996
0.00225537
0.00232107
0.00238702
0.00245315
0.00251941
0.00258572
0.00265201
0.00271823
0.00278429
0.00285013
0.00291568
0.00298085
0.00304558
0.00310979
0.00317339
0.00323631
0.00329848
0.0033598
0.00342022
0.00347964
0.00353799
0.00359519
0.00365118
0.00370587
0.0037592
0.0038111
0.0038615
0.00391033
0.00395754
0.00400306
0.00404685
0.00408885
0.00412902
0.00416732
0.0042037
0.00423814
0.00427061
0.00430108
0.00432953
0.00435597
0.00438037
0.00440273
0.00442307
0.00444138
0.00445769
0.00447202
0.0044844
0.00449484
0.00450341
0.00451013
0.00451506
0.00451825
0.00451977
0.00451967
0.00451804
0.00451494
0.00451045
0.00450467
0.00449767
0.00448956
0.00448043
0.00447038
0.00445953
0.00444797
0.00443582
0.0044232
0.00441022
0.00439701
0.0043837
0.0043704
0.00435726
0.0043444
0.00433196
0.00432007
0.00430887
0.0042985
0.00428908
0.00428075
0.00427363
0.00426785
0.00426348
0.00426064
0.00425964
0.00426075
3.91988e-05
3.17908e-05
2.51026e-05
1.86842e-05
1.21862e-05
5.76671e-06
-4.08065e-07
-6.20503e-06
-1.14971e-05
-1.61635e-05
-2.00942e-05
-2.31906e-05
-2.53648e-05
-2.65416e-05
-2.66578e-05
-2.56603e-05
-2.35055e-05
-2.01574e-05
-1.55868e-05
-9.77201e-06
-2.69698e-06
5.64953e-06
1.5275e-05
2.61854e-05
3.8383e-05
5.18666e-05
6.6633e-05
8.26791e-05
0.000100001
0.000118594
0.000138451
0.000159568
0.000181935
0.000205545
0.000230393
0.000256474
0.000283781
0.000312303
0.000342033
0.000372967
0.000405099
0.000438423
0.000472931
0.000508612
0.000545461
0.000583472
0.000622639
0.000662952
0.000704401
0.000746976
0.000790667
0.000835466
0.000881361
0.000928339
0.000976385
0.00102548
0.00107562
0.00112678
0.00117894
0.00123208
0.00128619
0.00134123
0.00139718
0.00145402
0.00151172
0.00157024
0.00162956
0.00168964
0.00175044
0.00181193
0.00187406
0.00193679
0.00200008
0.00206387
0.00212813
0.00219279
0.00225781
0.00232312
0.00238867
0.0024544
0.00252024
0.00258613
0.00265201
0.0027178
0.00278343
0.00284884
0.00291395
0.00297869
0.00304297
0.00310673
0.00316989
0.00323237
0.00329409
0.00335497
0.00341494
0.00347392
0.00353183
0.0035886
0.00364415
0.00369842
0.00375133
0.00380281
0.00385279
0.00390122
0.00394803
0.00399317
0.00403658
0.00407821
0.00411802
0.00415597
0.00419202
0.00422613
0.00425829
0.00428847
0.00431664
0.00434281
0.00436696
0.00438909
0.00440921
0.00442733
0.00444347
0.00445764
0.00446988
0.00448021
0.00448869
0.00449534
0.00450023
0.00450341
0.00450494
0.00450488
0.00450332
0.00450032
0.00449596
0.00449034
0.00448354
0.00447566
0.00446678
0.00445702
0.00444648
0.00443527
0.00442349
0.00441126
0.0043987
0.00438593
0.00437306
0.00436021
0.00434752
0.0043351
0.00432309
0.0043116
0.00430076
0.00429069
0.00428151
0.00427333
0.00426626
0.00426041
0.00425587
0.00425271
0.00425117
0.00425142
4.96275e-05
4.03703e-05
3.2453e-05
2.52336e-05
1.81795e-05
1.14163e-05
5.07755e-06
-7.40788e-07
-5.94265e-06
-1.04331e-05
-1.41244e-05
-1.69376e-05
-1.88012e-05
-1.96524e-05
-1.94368e-05
-1.8109e-05
-1.56315e-05
-1.19741e-05
-7.11124e-06
-1.02287e-06
6.30656e-06
1.48872e-05
2.47249e-05
3.58243e-05
4.81885e-05
6.18179e-05
7.67108e-05
9.2864e-05
0.000110273
0.000128932
0.000148838
0.000169987
0.000192373
0.000215986
0.000240821
0.000266873
0.000294138
0.000322608
0.000352275
0.000383134
0.00041518
0.000448406
0.000482806
0.000518372
0.000555098
0.000592977
0.000632002
0.000672164
0.000713455
0.000755866
0.000799385
0.000844004
0.000889711
0.000936494
0.000984339
0.00103323
0.00108315
0.00113409
0.00118602
0.00123893
0.0012928
0.00134759
0.00140329
0.00145987
0.0015173
0.00157555
0.00163459
0.00169439
0.0017549
0.00181609
0.00187792
0.00194034
0.00200332
0.0020668
0.00213073
0.00219506
0.00225975
0.00232472
0.00238993
0.00245532
0.00252081
0.00258635
0.00265187
0.0027173
0.00278257
0.00284762
0.00291236
0.00297673
0.00304064
0.00310404
0.00316682
0.00322893
0.00329027
0.00335078
0.00341038
0.00346899
0.00352653
0.00358293
0.00363812
0.00369202
0.00374457
0.00379569
0.00384532
0.0038934
0.00393987
0.00398467
0.00402774
0.00406905
0.00410854
0.00414618
0.00418192
0.00421574
0.00424761
0.00427751
0.00430542
0.00433133
0.00435523
0.00437713
0.00439703
0.00441494
0.00443088
0.00444487
0.00445694
0.00446713
0.00447548
0.00448202
0.00448683
0.00448994
0.00449142
0.00449135
0.00448979
0.00448683
0.00448253
0.004477
0.00447031
0.00446257
0.00445386
0.0044443
0.00443398
0.00442302
0.00441151
0.00439958
0.00438733
0.00437488
0.00436234
0.00434984
0.00433748
0.00432539
0.00431368
0.00430247
0.00429186
0.00428198
0.00427292
0.00426479
0.00425768
0.00425167
0.00424685
0.00424328
0.0042411
0.00424035
5.98039e-05
4.8739e-05
3.95781e-05
3.15011e-05
2.38073e-05
1.66022e-05
9.99591e-06
4.05081e-06
-1.16465e-06
-5.57894e-06
-9.12446e-06
-1.17398e-05
-1.3369e-05
-1.39619e-05
-1.34744e-05
-1.18687e-05
-9.11361e-06
-5.18401e-06
-5.93332e-08
6.27723e-06
1.38394e-05
2.26365e-05
3.26735e-05
4.39534e-05
5.64787e-05
7.02495e-05
8.52655e-05
0.000101524
0.000119021
0.00013775
0.000157709
0.000178894
0.0002013
0.000224921
0.000249749
0.00027578
0.00030301
0.000331432
0.000361042
0.000391834
0.000423801
0.000456938
0.000491239
0.000526697
0.000563308
0.000601064
0.000639958
0.000679981
0.000721124
0.000763381
0.000806741
0.000851194
0.000896729
0.000943333
0.000990992
0.00103969
0.00108942
0.00114016
0.00119188
0.00124458
0.00129823
0.0013528
0.00140828
0.00146463
0.00152182
0.00157984
0.00163863
0.00169818
0.00175844
0.00181938
0.00188095
0.00194311
0.00200582
0.00206903
0.00213269
0.00219675
0.00226115
0.00232585
0.00239077
0.00245587
0.00252108
0.00258633
0.00265155
0.00271669
0.00278167
0.00284642
0.00291086
0.00297493
0.00303855
0.00310163
0.00316412
0.00322592
0.00328697
0.00334717
0.00340647
0.00346477
0.00352201
0.00357811
0.003633
0.0036866
0.00373885
0.00378967
0.003839
0.00388679
0.00393296
0.00397747
0.00402026
0.00406128
0.00410049
0.00413785
0.00417332
0.00420686
0.00423847
0.0042681
0.00429575
0.00432141
0.00434507
0.00436673
0.0043864
0.00440408
0.00441981
0.0044336
0.00444548
0.00445549
0.00446367
0.00447007
0.00447474
0.00447774
0.00447913
0.00447898
0.00447737
0.00447437
0.00447006
0.00446454
0.0044579
0.00445022
0.0044416
0.00443216
0.00442197
0.00441117
0.00439984
0.0043881
0.00437606
0.00436383
0.00435153
0.00433925
0.00432713
0.00431525
0.00430375
0.00429271
0.00428224
0.00427244
0.00426341
0.00425523
0.00424799
0.00424174
0.00423657
0.00423252
0.00422962
0.00422782
6.94038e-05
5.65952e-05
4.62017e-05
3.72419e-05
2.88596e-05
2.11451e-05
1.41935e-05
8.04077e-06
2.72978e-06
-1.68922e-06
-5.16698e-06
-7.65778e-06
-9.11945e-06
-9.51401e-06
-8.80799e-06
-6.9723e-06
-3.98196e-06
1.83434e-07
5.53991e-06
1.20999e-05
1.98736e-05
2.8869e-05
3.90903e-05
5.05401e-05
6.32191e-05
7.71265e-05
9.22613e-05
0.000108622
0.000126206
0.000145006
0.00016502
0.000186244
0.000208674
0.000232304
0.00025713
0.000283146
0.000310347
0.000338729
0.000368286
0.000399016
0.000430912
0.000463968
0.000498179
0.000533537
0.000570041
0.000607683
0.000646456
0.000686351
0.00072736
0.000769474
0.000812687
0.000856988
0.000902367
0.000948808
0.0009963
0.00104483
0.00109438
0.00114493
0.00119648
0.00124899
0.00130245
0.00135683
0.0014121
0.00146825
0.00152525
0.00158305
0.00164164
0.00170098
0.00176103
0.00182175
0.0018831
0.00194505
0.00200753
0.00207052
0.00213396
0.0021978
0.00226198
0.00232645
0.00239115
0.00245602
0.002521
0.00258602
0.00265101
0.00271592
0.00278067
0.00284519
0.0029094
0.00297324
0.00303662
0.00309948
0.00316173
0.0032233
0.00328411
0.00334408
0.00340314
0.00346121
0.00351821
0.00357408
0.00362873
0.00368209
0.00373409
0.00378468
0.00383377
0.00388131
0.00392724
0.00397151
0.00401405
0.00405482
0.00409379
0.00413089
0.00416611
0.00419941
0.00423076
0.00426015
0.00428755
0.00431296
0.00433638
0.0043578
0.00437722
0.00439468
0.00441017
0.00442374
0.0044354
0.0044452
0.00445318
0.00445939
0.00446388
0.00446672
0.00446796
0.00446768
0.00446596
0.00446286
0.00445849
0.00445291
0.00444623
0.00443854
0.00442994
0.00442052
0.00441039
0.00439966
0.00438842
0.00437679
0.00436487
0.00435277
0.00434059
0.00432846
0.00431646
0.00430471
0.00429331
0.00428235
0.00427193
0.00426213
0.00425304
0.00424474
0.00423729
0.00423074
0.00422516
0.00422059
0.00421695
0.00421408
7.81565e-05
6.3682e-05
5.20837e-05
4.22362e-05
3.31406e-05
2.48748e-05
1.7523e-05
1.1101e-05
5.63032e-06
1.14192e-06
-2.3317e-06
-4.75924e-06
-6.11109e-06
-6.36052e-06
-5.48391e-06
-3.46099e-06
-2.73764e-07
4.09314e-06
9.65164e-06
1.641e-05
2.43747e-05
3.35507e-05
4.39412e-05
5.55482e-05
6.83716e-05
8.24089e-05
9.76581e-05
0.000114118
0.000131785
0.000150656
0.000170725
0.000191991
0.000214447
0.000238089
0.000262915
0.000288919
0.000316098
0.000344445
0.000373956
0.00040463
0.000436461
0.000469444
0.000503572
0.000538841
0.000575246
0.000612783
0.000651445
0.000691224
0.00073211
0.000774096
0.000817175
0.000861339
0.000906575
0.000952871
0.00100021
0.00104859
0.00109798
0.00114838
0.00119976
0.00125211
0.0013054
0.00135962
0.00141472
0.0014707
0.00152753
0.00158516
0.00164358
0.00170274
0.00176262
0.00182316
0.00188434
0.00194611
0.00200843
0.00207124
0.00213451
0.00219817
0.00226218
0.00232648
0.00239101
0.00245571
0.00252052
0.00258538
0.00265021
0.00271495
0.00277953
0.00284388
0.00290793
0.00297161
0.00303483
0.00309752
0.00315961
0.00322101
0.00328165
0.00334146
0.00340035
0.00345825
0.00351508
0.00357077
0.00362524
0.00367842
0.00373024
0.00378064
0.00382954
0.00387689
0.00392263
0.00396669
0.00400903
0.00404959
0.00408834
0.00412523
0.00416023
0.0041933
0.00422442
0.00425357
0.00428073
0.0043059
0.00432907
0.00435024
0.00436942
0.00438662
0.00440187
0.00441518
0.0044266
0.00443616
0.00444391
0.00444989
0.00445417
0.00445679
0.00445784
0.00445738
0.00445548
0.00445224
0.00444772
0.00444203
0.00443525
0.00442748
0.00441881
0.00440935
0.00439919
0.00438844
0.00437721
0.0043656
0.00435371
0.00434165
0.00432952
0.00431744
0.00430548
0.00429377
0.00428238
0.00427142
0.00426096
0.00425109
0.00424187
0.00423338
0.00422567
0.00421878
0.00421276
0.00420765
0.00420326
0.00419934
8.58307e-05
6.9777e-05
5.70143e-05
4.62877e-05
3.64702e-05
2.76305e-05
1.98431e-05
1.31073e-05
7.42753e-06
2.81837e-06
-7.02481e-07
-3.11698e-06
-4.40768e-06
-4.55828e-06
-3.55401e-06
-1.38232e-06
1.96742e-06
6.50468e-06
1.2237e-05
1.9169e-05
2.73038e-05
3.66432e-05
4.71884e-05
5.89397e-05
7.18964e-05
8.60551e-05
0.000101413
0.000117967
0.000135716
0.000154654
0.000174778
0.000196084
0.000218569
0.000242227
0.000267055
0.000293051
0.00032021
0.000348528
0.000378
0.000408624
0.000440396
0.000473313
0.000507368
0.000542555
0.000578872
0.000616314
0.000654876
0.000694548
0.000735324
0.000777196
0.000820156
0.000864196
0.000909306
0.000955473
0.00100268
0.00105093
0.00110018
0.00115044
0.00120169
0.0012539
0.00130705
0.00136113
0.00141609
0.00147193
0.00152862
0.00158611
0.00164439
0.00170342
0.00176316
0.00182358
0.00188462
0.00194626
0.00200845
0.00207114
0.00213428
0.00219783
0.00226172
0.0023259
0.00239032
0.00245491
0.00251961
0.00258436
0.00264909
0.00271372
0.00277821
0.00284246
0.00290641
0.00296999
0.00303311
0.0030957
0.00315769
0.003219
0.00327954
0.00333925
0.00339803
0.00345582
0.00351255
0.00356812
0.00362248
0.00367554
0.00372723
0.0037775
0.00382627
0.00387347
0.00391905
0.00396296
0.00400513
0.00404552
0.00408409
0.00412079
0.00415558
0.00418845
0.00421935
0.00424828
0.00427521
0.00430013
0.00432305
0.00434397
0.00436289
0.00437983
0.00439481
0.00440785
0.004419
0.00442829
0.00443577
0.00444149
0.0044455
0.00444788
0.00444868
0.00444798
0.00444586
0.0044424
0.00443769
0.00443182
0.00442487
0.00441695
0.00440815
0.00439857
0.00438831
0.00437747
0.00436617
0.0043545
0.00434256
0.00433046
0.0043183
0.00430617
0.00429418
0.00428242
0.00427098
0.00425994
0.00424937
0.00423936
0.00422996
0.00422124
0.00421322
0.00420595
0.00419947
0.00419381
0.0041887
0.00418378
9.22271e-05
7.4686e-05
6.08084e-05
4.92221e-05
3.86857e-05
2.9262e-05
2.10182e-05
1.39384e-05
8.01339e-06
3.24399e-06
-3.65213e-07
-2.80805e-06
-4.07806e-06
-4.16882e-06
-3.07404e-06
-7.88225e-07
2.69268e-06
7.37197e-06
1.32522e-05
2.03346e-05
2.8619e-05
3.81046e-05
4.87895e-05
6.06725e-05
7.37515e-05
8.80224e-05
0.000103481
0.000120126
0.000137951
0.000156954
0.00017713
0.000198478
0.000220991
0.000244666
0.000269499
0.00029549
0.000322634
0.000350927
0.000380365
0.000410945
0.000442666
0.000475523
0.000509512
0.000544627
0.000580865
0.000618223
0.000656695
0.000696273
0.000736951
0.000778721
0.000821577
0.00086551
0.00091051
0.000956566
0.00100366
0.00105179
0.00110094
0.00115108
0.00120221
0.00125431
0.00130735
0.00136131
0.00141617
0.0014719
0.00152848
0.00158587
0.00164405
0.00170298
0.00176262
0.00182295
0.00188391
0.00194546
0.00200757
0.00207018
0.00213325
0.00219673
0.00226055
0.00232468
0.00238904
0.00245357
0.00251823
0.00258293
0.00264761
0.00271221
0.00277665
0.00284087
0.00290479
0.00296833
0.00303142
0.00309399
0.00315594
0.00321722
0.00327772
0.00333739
0.00339614
0.00345389
0.00351056
0.00356609
0.00362038
0.00367338
0.00372501
0.00377519
0.00382387
0.00387098
0.00391645
0.00396024
0.00400229
0.00404254
0.00408095
0.00411749
0.00415211
0.00418478
0.00421548
0.00424419
0.0042709
0.00429558
0.00431825
0.0043389
0.00435755
0.00437421
0.0043889
0.00440166
0.00441251
0.0044215
0.00442868
0.00443409
0.00443781
0.00443988
0.0044404
0.00443941
0.00443702
0.0044333
0.00442833
0.00442221
0.00441504
0.0044069
0.00439789
0.00438812
0.00437769
0.0043667
0.00435525
0.00434344
0.00433137
0.00431916
0.00430688
0.00429465
0.00428255
0.00427068
0.00425911
0.00424792
0.0042372
0.00422699
0.00421736
0.00420836
0.00420001
0.00419235
0.00418541
0.0041792
0.0041734
0.00416755
9.71757e-05
7.82377e-05
6.33007e-05
5.08827e-05
3.96394e-05
2.96313e-05
2.09203e-05
1.34778e-05
7.28237e-06
2.32356e-06
-1.4059e-06
-3.91072e-06
-5.1938e-06
-5.25757e-06
-4.10389e-06
-1.73417e-06
1.84965e-06
6.64502e-06
1.26495e-05
1.98605e-05
2.82753e-05
3.789e-05
4.87001e-05
6.07018e-05
7.38919e-05
8.82656e-05
0.000103818
0.000120546
0.000138444
0.000157508
0.000177734
0.000199121
0.000221663
0.000245356
0.000270197
0.000296185
0.000323317
0.000351589
0.000380997
0.00041154
0.000443216
0.000476021
0.000509952
0.000545003
0.000581173
0.000618457
0.00065685
0.000696347
0.00073694
0.000778622
0.000821388
0.000865229
0.000910137
0.000956099
0.0010031
0.00105114
0.00110019
0.00115025
0.00120129
0.00125329
0.00130625
0.00136013
0.0014149
0.00147056
0.00152706
0.00158439
0.0016425
0.00170137
0.00176096
0.00182123
0.00188215
0.00194366
0.00200573
0.00206832
0.00213136
0.00219482
0.00225864
0.00232276
0.00238712
0.00245166
0.00251632
0.00258103
0.00264574
0.00271036
0.00277483
0.00283907
0.00290302
0.0029666
0.00302972
0.00309232
0.00315431
0.00321562
0.00327616
0.00333585
0.00339462
0.00345239
0.00350908
0.00356461
0.00361891
0.0036719
0.0037235
0.00377366
0.0038223
0.00386936
0.00391477
0.00395848
0.00400043
0.00404058
0.00407887
0.00411526
0.00414973
0.00418223
0.00421274
0.00424124
0.00426772
0.00429217
0.00431458
0.00433497
0.00435333
0.0043697
0.00438409
0.00439652
0.00440705
0.00441571
0.00442255
0.00442763
0.004431
0.00443274
0.00443292
0.0044316
0.00442888
0.00442484
0.00441956
0.00441314
0.00440568
0.00439726
0.00438798
0.00437796
0.00436729
0.00435606
0.00434439
0.00433238
0.00432012
0.00430771
0.00429526
0.00428285
0.00427058
0.00425853
0.00424677
0.00423539
0.00422445
0.00421401
0.00420411
0.0041948
0.00418611
0.00417804
0.00417064
0.00416392
0.00415747
0.00415078
0.000100533
8.02832e-05
6.43431e-05
5.11275e-05
3.91961e-05
2.86109e-05
1.94304e-05
1.16148e-05
5.13243e-06
-3.70273e-08
-3.91092e-06
-6.50389e-06
-7.82758e-06
-7.89203e-06
-6.70634e-06
-4.27873e-06
-6.1701e-07
4.27112e-06
1.03783e-05
1.76981e-05
2.62249e-05
3.59523e-05
4.68731e-05
5.89811e-05
7.22712e-05
8.67378e-05
0.000102376
0.00011918
0.000137146
0.000156267
0.000176541
0.000197965
0.000220535
0.000244247
0.000269097
0.000295084
0.000322207
0.000350462
0.000379846
0.000410357
0.000441995
0.000474755
0.000508635
0.000543632
0.000579742
0.000616963
0.000655289
0.000694716
0.000735237
0.000776846
0.000819538
0.000863304
0.000908136
0.000954024
0.00100096
0.00104892
0.0010979
0.00114788
0.00119886
0.0012508
0.0013037
0.00135752
0.00141225
0.00146786
0.00152432
0.00158161
0.0016397
0.00169855
0.00175812
0.00181839
0.0018793
0.00194082
0.00200291
0.00206551
0.00212858
0.00219208
0.00225593
0.0023201
0.00238452
0.00244912
0.00251385
0.00257864
0.00264342
0.00270813
0.00277269
0.00283703
0.00290107
0.00296474
0.00302797
0.00309066
0.00315275
0.00321416
0.00327479
0.00333458
0.00339344
0.00345129
0.00350805
0.00356365
0.003618
0.00367103
0.00372268
0.00377286
0.00382151
0.00386856
0.00391394
0.00395761
0.00399951
0.00403958
0.00407777
0.00411405
0.00414838
0.00418072
0.00421106
0.00423936
0.00426562
0.00428983
0.00431198
0.00433209
0.00435016
0.00436621
0.00438027
0.00439237
0.00440255
0.00441085
0.00441732
0.00442202
0.00442502
0.00442638
0.00442617
0.00442448
0.00442138
0.00441696
0.00441132
0.00440454
0.00439672
0.00438796
0.00437836
0.00436802
0.00435703
0.00434551
0.00433356
0.00432128
0.00430876
0.0042961
0.0042834
0.00427076
0.00425825
0.00424596
0.00423397
0.00422235
0.00421115
0.00420043
0.00419024
0.00418061
0.00417155
0.00416309
0.00415525
0.00414804
0.004141
0.00413355
0.000102176
8.06933e-05
6.38041e-05
4.98272e-05
3.7232e-05
2.60825e-05
1.64367e-05
8.24512e-06
1.46602e-06
-3.92904e-06
-7.96543e-06
-1.06665e-05
-1.20523e-05
-1.214e-05
-1.09453e-05
-8.48256e-06
-4.76503e-06
1.95047e-07
6.38577e-06
1.37963e-05
2.24181e-05
3.22423e-05
4.32598e-05
5.54621e-05
6.88417e-05
8.33915e-05
9.91059e-05
0.00011598
0.000134008
0.000153183
0.000173501
0.00019496
0.000217557
0.000241286
0.000266147
0.000292136
0.000319253
0.000347494
0.000376858
0.000407343
0.000438949
0.000471673
0.00050551
0.00054046
0.000576521
0.000613689
0.000651961
0.00069133
0.000731793
0.000773343
0.000815975
0.000859684
0.000904459
0.00095029
0.000997167
0.00104508
0.00109401
0.00114395
0.00119489
0.0012468
0.00129966
0.00135346
0.00140817
0.00146377
0.00152022
0.00157751
0.00163561
0.00169447
0.00175407
0.00181437
0.00187533
0.0019369
0.00199905
0.00206172
0.00212487
0.00218845
0.0022524
0.00231667
0.0023812
0.00244593
0.00251078
0.00257571
0.00264063
0.00270548
0.00277019
0.00283469
0.00289889
0.00296273
0.00302612
0.00308898
0.00315123
0.0032128
0.00327359
0.00333353
0.00339254
0.00345053
0.00350743
0.00356315
0.00361762
0.00367075
0.00372248
0.00377273
0.00382144
0.00386852
0.00391393
0.0039576
0.00399947
0.00403949
0.00407762
0.0041138
0.00414801
0.00418021
0.00421038
0.00423849
0.00426453
0.0042885
0.00431038
0.0043302
0.00434796
0.00436369
0.0043774
0.00438914
0.00439894
0.00440684
0.00441291
0.00441721
0.00441978
0.00442072
0.00442009
0.00441796
0.00441444
0.0044096
0.00440353
0.00439634
0.00438811
0.00437895
0.00436896
0.00435823
0.00434688
0.004335
0.0043227
0.00431009
0.00429724
0.00428428
0.00427128
0.00425834
0.00424555
0.00423298
0.0042207
0.00420879
0.0041973
0.00418628
0.00417577
0.0041658
0.00415639
0.00414754
0.00413927
0.00413162
0.00412404
0.00411593
0.000101994
7.9354e-05
6.15678e-05
4.68662e-05
3.36342e-05
2.19374e-05
1.18349e-05
3.26924e-06
-3.81035e-06
-9.44012e-06
-1.36522e-05
-1.64769e-05
-1.79415e-05
-1.80703e-05
-1.68854e-05
-1.44068e-05
-1.06529e-05
-5.63968e-06
6.17155e-07
8.10259e-06
1.6804e-05
2.67102e-05
3.78105e-05
5.00949e-05
6.35539e-05
7.81782e-05
9.3961e-05