/*--------------------------------*- C++ -*----------------------------------*\
  =========                 |
  \\      /  F ield         | OpenFOAM: The Open Source CFD Toolbox
   \\    /   O peration     | Website:  https://openfoam.org
    \\  /    A nd           | Version:  7
     \\/     M anipulation  |
\*---------------------------------------------------------------------------*/
FoamFile
{
    version     2.0;
    format      ascii;
    class       surfaceScalarField;
    location    "0.275";
    object      phi;
}
// * * * * * * * * * * * * * * * * * * * * * * * * * * * * * * * * * * * * * //

dimensions      [0 3 -1 0 0 0 0];

internalField   nonuniform List<scalar> 
50880
(
9.78368e-12
-9.76251e-12
3.25582e-11
-2.27722e-11
5.28577e-11
-2.02995e-11
6.5814e-11
-1.29555e-11
6.76625e-11
-1.84897e-12
5.6776e-11
1.08865e-11
3.25643e-11
2.42114e-11
-4.99194e-12
3.7556e-11
-5.55584e-11
5.05659e-11
-1.1859e-10
6.30322e-11
-1.93399e-10
7.48075e-11
-2.79244e-10
8.58437e-11
-3.75354e-10
9.6111e-11
-4.80954e-10
1.05601e-10
-5.95291e-10
1.1434e-10
-7.17631e-10
1.2234e-10
-8.47252e-10
1.29623e-10
-9.83479e-10
1.36228e-10
-1.12567e-09
1.42194e-10
-1.27322e-09
1.47551e-10
-1.42555e-09
1.52332e-10
-1.58214e-09
1.56581e-10
-1.74247e-09
1.60335e-10
-1.90609e-09
1.63615e-10
-2.07255e-09
1.66454e-10
-2.24144e-09
1.68895e-10
-2.41241e-09
1.70964e-10
-2.5851e-09
1.72683e-10
-2.75918e-09
1.74078e-10
-2.93436e-09
1.75176e-10
-3.11036e-09
1.76001e-10
-3.28693e-09
1.76572e-10
-3.46383e-09
1.76901e-10
-3.64084e-09
1.7701e-10
-3.81776e-09
1.76921e-10
-3.99441e-09
1.76649e-10
-4.17061e-09
1.76198e-10
-4.34619e-09
1.7558e-10
-4.521e-09
1.74807e-10
-4.69489e-09
1.73892e-10
-4.86773e-09
1.72843e-10
-5.03939e-09
1.71662e-10
-5.20974e-09
1.70354e-10
-5.37867e-09
1.68923e-10
-5.54604e-09
1.67376e-10
-5.71176e-09
1.65718e-10
-5.87571e-09
1.63949e-10
-6.03778e-09
1.62066e-10
-6.19785e-09
1.6007e-10
-6.35582e-09
1.57965e-10
-6.51157e-09
1.55753e-10
-6.66501e-09
1.53433e-10
-6.816e-09
1.51e-10
-6.96445e-09
1.48448e-10
-7.11022e-09
1.45775e-10
-7.2532e-09
1.42984e-10
-7.39328e-09
1.40074e-10
-7.53032e-09
1.37042e-10
-7.6642e-09
1.33881e-10
-7.79479e-09
1.30588e-10
-7.92195e-09
1.27162e-10
-8.04555e-09
1.23599e-10
-8.16545e-09
1.19898e-10
-8.28151e-09
1.16058e-10
-8.39359e-09
1.12075e-10
-8.50153e-09
1.07942e-10
-8.60518e-09
1.03657e-10
-8.7044e-09
9.92188e-11
-8.79903e-09
9.46303e-11
-8.88892e-09
8.98906e-11
-8.97392e-09
8.49964e-11
-9.05386e-09
7.9945e-11
-9.1286e-09
7.47359e-11
-9.19796e-09
6.93693e-11
-9.26181e-09
6.38462e-11
-9.31998e-09
5.81698e-11
-9.37233e-09
5.23427e-11
-9.41869e-09
4.63658e-11
-9.45893e-09
4.02402e-11
-9.4929e-09
3.3968e-11
-9.52045e-09
2.7554e-11
-9.54146e-09
2.10036e-11
-9.55578e-09
1.43218e-11
-9.56329e-09
7.51441e-12
-9.56388e-09
5.88787e-13
-9.55744e-09
-6.44878e-12
-9.54384e-09
-1.35919e-11
-9.52301e-09
-2.08326e-11
-9.49485e-09
-2.81615e-11
-9.45928e-09
-3.55676e-11
-9.41624e-09
-4.30392e-11
-9.36567e-09
-5.05652e-11
-9.30754e-09
-5.81337e-11
-9.24181e-09
-6.57324e-11
-9.16846e-09
-7.33486e-11
-9.08749e-09
-8.09684e-11
-8.99892e-09
-8.85767e-11
-8.90276e-09
-9.61576e-11
-8.79906e-09
-1.03695e-10
-8.68789e-09
-1.11172e-10
-8.56932e-09
-1.1857e-10
-8.44345e-09
-1.25874e-10
-8.31039e-09
-1.33065e-10
-8.17026e-09
-1.40127e-10
-8.02322e-09
-1.4704e-10
-7.86943e-09
-1.53785e-10
-7.70909e-09
-1.60342e-10
-7.5424e-09
-1.66693e-10
-7.36958e-09
-1.72817e-10
-7.19089e-09
-1.78695e-10
-7.00658e-09
-1.84307e-10
-6.81694e-09
-1.89636e-10
-6.62228e-09
-1.94663e-10
-6.42291e-09
-1.99368e-10
-6.21918e-09
-2.03734e-10
-6.01144e-09
-2.07741e-10
-5.80007e-09
-2.11372e-10
-5.58546e-09
-2.14609e-10
-5.36802e-09
-2.17436e-10
-5.14818e-09
-2.19838e-10
-4.92638e-09
-2.21798e-10
-4.70308e-09
-2.23304e-10
-4.47874e-09
-2.24342e-10
-4.25384e-09
-2.24898e-10
-4.02888e-09
-2.2496e-10
-3.80436e-09
-2.24517e-10
-3.58081e-09
-2.23558e-10
-3.35873e-09
-2.22075e-10
-3.13868e-09
-2.20058e-10
-2.92118e-09
-2.175e-10
-2.70678e-09
-2.14395e-10
-2.49604e-09
-2.10736e-10
-2.28952e-09
-2.06522e-10
-2.08777e-09
-2.01747e-10
-1.89136e-09
-1.9641e-10
-1.70086e-09
-1.90509e-10
-1.51681e-09
-1.84042e-10
-1.3398e-09
-1.77011e-10
-1.17038e-09
-1.69418e-10
-1.00912e-09
-1.61265e-10
-8.56563e-10
-1.52557e-10
-7.13262e-10
-1.43302e-10
-5.79753e-10
-1.33508e-10
-4.56564e-10
-1.23189e-10
-3.44204e-10
-1.12361e-10
-2.43158e-10
-1.01046e-10
-1.53886e-10
-8.92725e-11
-7.68024e-11
-7.70828e-11
-1.22708e-11
-6.4532e-11
3.9425e-11
-5.16962e-11
7.81063e-11
-3.86813e-11
1.03746e-10
-2.56399e-11
1.16542e-10
-1.2796e-11
1.17022e-10
-4.7984e-13
1.06208e-10
1.08147e-11
8.58904e-11
2.03182e-11
5.90264e-11
2.68639e-11
3.03969e-11
2.86291e-11
7.59283e-12
2.28035e-11
7.59235e-12
1.82102e-11
-2.79709e-11
5.01728e-11
-5.47414e-11
7.64624e-11
-4.65888e-11
8.32579e-11
-1.97534e-11
6.30634e-11
1.83466e-11
1.12982e-11
6.26495e-11
-7.43197e-11
1.0983e-10
-1.94497e-10
1.57731e-10
-3.48922e-10
2.04993e-10
-5.36603e-10
2.50711e-10
-7.56116e-10
2.94323e-10
-1.00578e-09
3.35502e-10
-1.28373e-09
3.74062e-10
-1.58807e-09
4.09934e-10
-1.91685e-09
4.43112e-10
-2.26814e-09
4.73631e-10
-2.64008e-09
5.01557e-10
-3.03085e-09
5.26992e-10
-3.4387e-09
5.50046e-10
-3.86198e-09
5.70826e-10
-4.2991e-09
5.89457e-10
-4.74859e-09
6.0607e-10
-5.20903e-09
6.2078e-10
-5.67912e-09
6.33699e-10
-6.15761e-09
6.4495e-10
-6.64336e-09
6.54647e-10
-7.13529e-09
6.62894e-10
-7.63239e-09
6.6979e-10
-8.13374e-09
6.75429e-10
-8.63848e-09
6.79906e-10
-9.14579e-09
6.8331e-10
-9.65492e-09
6.85708e-10
-1.01652e-08
6.8717e-10
-1.06759e-08
6.87769e-10
-1.11866e-08
6.87567e-10
-1.16966e-08
6.86616e-10
-1.22053e-08
6.84965e-10
-1.27124e-08
6.82657e-10
-1.32173e-08
6.7973e-10
-1.37197e-08
6.76225e-10
-1.4219e-08
6.72174e-10
-1.47149e-08
6.67598e-10
-1.52071e-08
6.62514e-10
-1.56951e-08
6.56947e-10
-1.61787e-08
6.50913e-10
-1.66574e-08
6.44422e-10
-1.71309e-08
6.37482e-10
-1.75989e-08
6.30098e-10
-1.80611e-08
6.22273e-10
-1.85172e-08
6.14008e-10
-1.89667e-08
6.05305e-10
-1.94094e-08
5.96162e-10
-1.9845e-08
5.86572e-10
-2.02731e-08
5.76528e-10
-2.06934e-08
5.66024e-10
-2.11054e-08
5.55054e-10
-2.1509e-08
5.43609e-10
-2.19036e-08
5.31678e-10
-2.2289e-08
5.19249e-10
-2.26647e-08
5.06315e-10
-2.30304e-08
4.92864e-10
-2.33857e-08
4.78885e-10
-2.37302e-08
4.6437e-10
-2.40634e-08
4.4931e-10
-2.4385e-08
4.33694e-10
-2.46946e-08
4.17513e-10
-2.49917e-08
4.00759e-10
-2.52759e-08
3.83424e-10
-2.55468e-08
3.65505e-10
-2.58039e-08
3.46996e-10
-2.60468e-08
3.27895e-10
-2.6275e-08
3.08199e-10
-2.64882e-08
2.87907e-10
-2.66859e-08
2.67021e-10
-2.68676e-08
2.45542e-10
-2.70329e-08
2.23476e-10
-2.71813e-08
2.00831e-10
-2.73126e-08
1.77615e-10
-2.74262e-08
1.53837e-10
-2.75217e-08
1.2951e-10
-2.75988e-08
1.0465e-10
-2.76571e-08
7.92738e-11
-2.76962e-08
5.3401e-11
-2.77157e-08
2.70536e-11
-2.77154e-08
2.57364e-13
-2.76949e-08
-2.69599e-11
-2.76539e-08
-5.45697e-11
-2.75922e-08
-8.254e-11
-2.75095e-08
-1.10835e-10
-2.74057e-08
-1.39415e-10
-2.72805e-08
-1.68241e-10
-2.71338e-08
-1.97267e-10
-2.69654e-08
-2.26449e-10
-2.67754e-08
-2.55736e-10
-2.65637e-08
-2.85078e-10
-2.63303e-08
-3.14421e-10
-2.60751e-08
-3.43709e-10
-2.57984e-08
-3.72883e-10
-2.55002e-08
-4.01882e-10
-2.51807e-08
-4.30642e-10
-2.48402e-08
-4.591e-10
-2.44789e-08
-4.87187e-10
-2.40971e-08
-5.14836e-10
-2.36953e-08
-5.41978e-10
-2.32738e-08
-5.68542e-10
-2.28331e-08
-5.94456e-10
-2.23738e-08
-6.19648e-10
-2.18964e-08
-6.44044e-10
-2.14017e-08
-6.67571e-10
-2.08902e-08
-6.90154e-10
-2.03628e-08
-7.11721e-10
-1.98202e-08
-7.32197e-10
-1.92634e-08
-7.51512e-10
-1.86932e-08
-7.69593e-10
-1.81105e-08
-7.86371e-10
-1.75165e-08
-8.01777e-10
-1.69121e-08
-8.15743e-10
-1.62985e-08
-8.28204e-10
-1.56769e-08
-8.39097e-10
-1.50483e-08
-8.4836e-10
-1.44142e-08
-8.55936e-10
-1.37757e-08
-8.61771e-10
-1.31343e-08
-8.65812e-10
-1.24912e-08
-8.68008e-10
-1.18478e-08
-8.68315e-10
-1.12056e-08
-8.66689e-10
-1.05661e-08
-8.63089e-10
-9.9307e-09
-8.57481e-10
-9.30092e-09
-8.49835e-10
-8.6783e-09
-8.4012e-10
-8.06438e-09
-8.28315e-10
-7.46072e-09
-8.14397e-10
-6.86888e-09
-7.98353e-10
-6.29046e-09
-7.80169e-10
-5.72704e-09
-7.59838e-10
-5.18019e-09
-7.37357e-10
-4.6515e-09
-7.12726e-10
-4.14256e-09
-6.85953e-10
-3.65493e-09
-6.57051e-10
-3.19016e-09
-6.26038e-10
-2.74977e-09
-5.92943e-10
-2.33527e-09
-5.57802e-10
-1.94812e-09
-5.20663e-10
-1.58971e-09
-4.81591e-10
-1.26141e-09
-4.40668e-10
-9.6445e-10
-3.98002e-10
-6.99987e-10
-3.53735e-10
-4.69015e-10
-3.08055e-10
-2.72336e-10
-2.61211e-10
-1.10493e-10
-2.13539e-10
1.63236e-11
-1.65497e-10
1.08396e-10
-1.17713e-10
1.66655e-10
-7.10551e-11
1.92924e-10
-2.67484e-11
1.90263e-10
1.34769e-11
1.63411e-10
4.71697e-11
1.19385e-10
7.08891e-11
6.81066e-11
7.99067e-11
2.27638e-11
6.81455e-11
3.03555e-11
2.00312e-11
-4.80022e-11
4.43342e-11
-7.90463e-11
5.34289e-11
-5.56836e-11
3.19073e-11
1.7678e-12
-3.01846e-11
8.04366e-11
-1.39138e-10
1.71605e-10
-2.98429e-10
2.69121e-10
-5.09474e-10
3.68778e-10
-7.72211e-10
4.67725e-10
-1.08554e-09
5.64039e-10
-1.44766e-09
6.56442e-10
-1.85629e-09
7.44137e-10
-2.30887e-09
8.26647e-10
-2.80266e-09
9.03716e-10
-3.33481e-09
9.75264e-10
-3.90248e-09
1.04131e-09
-4.50287e-09
1.10194e-09
-5.13321e-09
1.15734e-09
-5.79085e-09
1.20768e-09
-6.47322e-09
1.2532e-09
-7.17789e-09
1.29412e-09
-7.90252e-09
1.3307e-09
-8.64493e-09
1.36317e-09
-9.40301e-09
1.39178e-09
-1.01748e-08
1.41677e-09
-1.09586e-08
1.43837e-09
-1.17525e-08
1.4568e-09
-1.25549e-08
1.47227e-09
-1.33645e-08
1.48498e-09
-1.41797e-08
1.49513e-09
-1.49993e-08
1.50289e-09
-1.5822e-08
1.50843e-09
-1.66468e-08
1.51191e-09
-1.74724e-08
1.51346e-09
-1.82981e-08
1.51322e-09
-1.91228e-08
1.51131e-09
-1.99456e-08
1.50783e-09
-2.07659e-08
1.50287e-09
-2.15827e-08
1.49654e-09
-2.23953e-08
1.4889e-09
-2.32032e-08
1.48002e-09
-2.40056e-08
1.46996e-09
-2.48018e-08
1.45877e-09
-2.55913e-08
1.44649e-09
-2.63736e-08
1.43315e-09
-2.71479e-08
1.41878e-09
-2.79139e-08
1.4034e-09
-2.86708e-08
1.38702e-09
-2.94182e-08
1.36966e-09
-3.01555e-08
1.35132e-09
-3.08822e-08
1.332e-09
-3.15977e-08
1.31169e-09
-3.23015e-08
1.29039e-09
-3.29931e-08
1.26807e-09
-3.36718e-08
1.24474e-09
-3.43371e-08
1.22037e-09
-3.49884e-08
1.19496e-09
-3.56252e-08
1.16847e-09
-3.62469e-08
1.14088e-09
-3.68527e-08
1.11219e-09
-3.74422e-08
1.08235e-09
-3.80147e-08
1.05137e-09
-3.85696e-08
1.01921e-09
-3.91061e-08
9.85854e-10
-3.96237e-08
9.51282e-10
-4.01217e-08
9.15478e-10
-4.05993e-08
8.78427e-10
-4.1056e-08
8.40115e-10
-4.1491e-08
8.0053e-10
-4.19037e-08
7.59664e-10
-4.22933e-08
7.17509e-10
-4.26592e-08
6.74064e-10
-4.30006e-08
6.29325e-10
-4.33169e-08
5.83298e-10
-4.36073e-08
5.3599e-10
-4.38713e-08
4.87412e-10
-4.4108e-08
4.37581e-10
-4.43169e-08
3.86513e-10
-4.44973e-08
3.34233e-10
-4.46486e-08
2.80769e-10
-4.47701e-08
2.26156e-10
-4.48612e-08
1.70431e-10
-4.49215e-08
1.13639e-10
-4.49502e-08
5.58283e-11
-4.4947e-08
-2.94552e-12
-4.49114e-08
-6.26228e-11
-4.48428e-08
-1.23138e-10
-4.47409e-08
-1.84422e-10
-4.46054e-08
-2.46394e-10
-4.44358e-08
-3.08972e-10
-4.4232e-08
-3.72066e-10
-4.39937e-08
-4.35582e-10
-4.37207e-08
-4.99418e-10
-4.3413e-08
-5.63468e-10
-4.30704e-08
-6.27621e-10
-4.26931e-08
-6.91759e-10
-4.2281e-08
-7.55761e-10
-4.18344e-08
-8.195e-10
-4.13535e-08
-8.82842e-10
-4.08385e-08
-9.45651e-10
-4.02898e-08
-1.00779e-09
-3.97078e-08
-1.06911e-09
-3.90932e-08
-1.12946e-09
-3.84465e-08
-1.1887e-09
-3.77684e-08
-1.24666e-09
-3.70596e-08
-1.30321e-09
-3.63211e-08
-1.35817e-09
-3.55538e-08
-1.41139e-09
-3.47586e-08
-1.46272e-09
-3.39368e-08
-1.51198e-09
-3.30895e-08
-1.55903e-09
-3.2218e-08
-1.6037e-09
-3.13237e-08
-1.64584e-09
-3.0408e-08
-1.68529e-09
-2.94724e-08
-1.7219e-09
-2.85187e-08
-1.75553e-09
-2.75484e-08
-1.78602e-09
-2.65634e-08
-1.81323e-09
-2.55654e-08
-1.83704e-09
-2.45565e-08
-1.8573e-09
-2.35385e-08
-1.87389e-09
-2.25136e-08
-1.88669e-09
-2.14838e-08
-1.89559e-09
-2.04514e-08
-1.90048e-09
-1.94184e-08
-1.90126e-09
-1.83873e-08
-1.89784e-09
-1.73602e-08
-1.89013e-09
-1.63397e-08
-1.87805e-09
-1.5328e-08
-1.86155e-09
-1.43275e-08
-1.84055e-09
-1.33408e-08
-1.81501e-09
-1.23703e-08
-1.78488e-09
-1.14186e-08
-1.75014e-09
-1.0488e-08
-1.71076e-09
-9.58109e-09
-1.66672e-09
-8.70042e-09
-1.61803e-09
-7.84845e-09
-1.56469e-09
-7.02767e-09
-1.50673e-09
-6.24053e-09
-1.44419e-09
-5.48946e-09
-1.37711e-09
-4.77683e-09
-1.30558e-09
-4.10495e-09
-1.22968e-09
-3.47607e-09
-1.14954e-09
-2.89233e-09
-1.06534e-09
-2.35573e-09
-9.77264e-10
-1.86814e-09
-8.85594e-10
-1.4312e-09
-7.90673e-10
-1.04631e-09
-6.9295e-10
-7.14505e-10
-5.93014e-10
-4.36407e-10
-4.91638e-10
-2.12055e-10
-3.8985e-10
-4.07453e-11
-2.89022e-10
7.92009e-11
-1.91001e-10
1.50734e-10
-9.8281e-11
1.78455e-10
-1.42446e-11
1.69082e-10
5.65428e-11
1.31986e-10
1.07984e-10
7.9726e-11
1.32166e-10
2.85085e-11
1.19362e-10
5.88633e-11
1.29197e-11
-6.09196e-11
1.89085e-11
-8.50388e-11
-2.83251e-12
-3.39436e-11
-6.74599e-11
6.63959e-11
-1.85565e-10
1.98542e-10
-3.64033e-10
3.5007e-10
-6.06893e-10
5.11982e-10
-9.15955e-10
6.77839e-10
-1.29134e-09
8.43109e-10
-1.73193e-09
1.00463e-09
-2.23572e-09
1.16023e-09
-2.80005e-09
1.30847e-09
-3.42186e-09
1.44845e-09
-4.0978e-09
1.57966e-09
-4.82437e-09
1.70183e-09
-5.59801e-09
1.81494e-09
-6.41515e-09
1.91909e-09
-7.27229e-09
2.01447e-09
-8.16599e-09
2.10138e-09
-9.09294e-09
2.18015e-09
-1.005e-08
2.25114e-09
-1.1034e-08
2.31472e-09
-1.20421e-08
2.37131e-09
-1.30716e-08
2.42127e-09
-1.41198e-08
2.46502e-09
-1.51844e-08
2.50292e-09
-1.62629e-08
2.53535e-09
-1.73533e-08
2.56265e-09
-1.84535e-08
2.58517e-09
-1.95616e-08
2.60323e-09
-2.06759e-08
2.61712e-09
-2.17946e-08
2.62713e-09
-2.29162e-08
2.63352e-09
-2.40393e-08
2.63653e-09
-2.51624e-08
2.63639e-09
-2.62844e-08
2.6333e-09
-2.7404e-08
2.62744e-09
-2.85202e-08
2.61899e-09
-2.96317e-08
2.60808e-09
-3.07377e-08
2.59486e-09
-3.18371e-08
2.57945e-09
-3.29291e-08
2.56193e-09
-3.40127e-08
2.5424e-09
-3.50872e-08
2.52094e-09
-3.61516e-08
2.4976e-09
-3.72053e-08
2.47244e-09
-3.82474e-08
2.44548e-09
-3.92771e-08
2.41676e-09
-4.02937e-08
2.38629e-09
-4.12965e-08
2.35408e-09
-4.22846e-08
2.32015e-09
-4.32574e-08
2.28448e-09
-4.42141e-08
2.24705e-09
-4.51539e-08
2.20786e-09
-4.6076e-08
2.16688e-09
-4.69797e-08
2.12408e-09
-4.78642e-08
2.07945e-09
-4.87287e-08
2.03294e-09
-4.95723e-08
1.98453e-09
-5.03943e-08
1.93418e-09
-5.11938e-08
1.88186e-09
-5.197e-08
1.82753e-09
-5.27219e-08
1.77116e-09
-5.34488e-08
1.71273e-09
-5.41497e-08
1.65219e-09
-5.48237e-08
1.58952e-09
-5.547e-08
1.52469e-09
-5.60876e-08
1.45769e-09
-5.66755e-08
1.38849e-09
-5.7233e-08
1.31708e-09
-5.77589e-08
1.24346e-09
-5.82525e-08
1.16762e-09
-5.87127e-08
1.08955e-09
-5.91386e-08
1.00926e-09
-5.95294e-08
9.26779e-10
-5.98841e-08
8.42117e-10
-6.02019e-08
7.55303e-10
-6.04817e-08
6.66372e-10
-6.07229e-08
5.75365e-10
-6.09244e-08
4.82333e-10
-6.10856e-08
3.87335e-10
-6.12056e-08
2.90439e-10
-6.12837e-08
1.91722e-10
-6.13191e-08
9.12704e-11
-6.13113e-08
-1.08206e-11
-6.12594e-08
-1.14448e-10
-6.11631e-08
-2.19496e-10
-6.10217e-08
-3.25843e-10
-6.08347e-08
-4.33354e-10
-6.06018e-08
-5.41883e-10
-6.03226e-08
-6.51276e-10
-5.99968e-08
-7.6137e-10
-5.96242e-08
-8.71991e-10
-5.92047e-08
-9.82955e-10
-5.87383e-08
-1.09407e-09
-5.82249e-08
-1.20513e-09
-5.76647e-08
-1.31594e-09
-5.7058e-08
-1.42626e-09
-5.64049e-08
-1.53588e-09
-5.5706e-08
-1.64455e-09
-5.49618e-08
-1.75205e-09
-5.41728e-08
-1.85811e-09
-5.33397e-08
-1.96248e-09
-5.24635e-08
-2.06491e-09
-5.1545e-08
-2.16514e-09
-5.05854e-08
-2.26289e-09
-4.95856e-08
-2.3579e-09
-4.85471e-08
-2.4499e-09
-4.74712e-08
-2.5386e-09
-4.63595e-08
-2.62375e-09
-4.52134e-08
-2.70506e-09
-4.40349e-08
-2.78226e-09
-4.28256e-08
-2.8551e-09
-4.15876e-08
-2.92329e-09
-4.03229e-08
-2.98658e-09
-3.90337e-08
-3.04472e-09
-3.77223e-08
-3.09745e-09
-3.6391e-08
-3.14453e-09
-3.50423e-08
-3.18573e-09
-3.36788e-08
-3.22082e-09
-3.23031e-08
-3.24958e-09
-3.0918e-08
-3.27182e-09
-2.95263e-08
-3.28732e-09
-2.81308e-08
-3.29592e-09
-2.67346e-08
-3.29744e-09
-2.53408e-08
-3.29171e-09
-2.39523e-08
-3.2786e-09
-2.25724e-08
-3.25798e-09
-2.12042e-08
-3.22973e-09
-1.9851e-08
-3.19374e-09
-1.85161e-08
-3.14994e-09
-1.72027e-08
-3.09826e-09
-1.59142e-08
-3.03864e-09
-1.46539e-08
-2.97105e-09
-1.34251e-08
-2.89547e-09
-1.22313e-08
-2.81191e-09
-1.10756e-08
-2.72039e-09
-9.96133e-09
-2.62098e-09
-8.89178e-09
-2.51374e-09
-7.87011e-09
-2.39878e-09
-6.89942e-09
-2.27626e-09
-5.98273e-09
-2.14636e-09
-5.12294e-09
-2.00934e-09
-4.32278e-09
-1.8655e-09
-3.58481e-09
-1.71524e-09
-2.91134e-09
-1.55906e-09
-2.30441e-09
-1.39761e-09
-1.76565e-09
-1.23171e-09
-1.29625e-09
-1.06241e-09
-8.96797e-10
-8.91088e-10
-5.67142e-10
-7.19506e-10
-3.06183e-10
-5.49981e-10
-1.11637e-10
-3.85547e-10
2.02691e-11
-2.30186e-10
9.51532e-11
-8.91285e-11
1.20902e-10
3.07946e-11
1.08146e-10
1.20739e-10
7.07906e-11
1.69521e-10
2.67076e-11
1.63445e-10
8.55706e-11
2.28817e-12
-6.32074e-11
-1.84725e-11
-6.42769e-11
-8.10506e-11
2.86324e-11
-1.99536e-10
1.84883e-10
-3.8404e-10
3.83044e-10
-6.4134e-10
6.0737e-10
-9.755e-10
8.4614e-10
-1.3884e-09
1.09073e-09
-1.88018e-09
1.33489e-09
-2.44966e-09
1.57411e-09
-3.09468e-09
1.80524e-09
-3.81231e-09
2.0261e-09
-4.59911e-09
2.23526e-09
-5.4513e-09
2.43184e-09
-6.36486e-09
2.61539e-09
-7.33568e-09
2.78575e-09
-8.35959e-09
2.943e-09
-9.43247e-09
3.08735e-09
-1.05503e-08
3.21917e-09
-1.1709e-08
3.33889e-09
-1.29049e-08
3.44701e-09
-1.41342e-08
3.54406e-09
-1.53935e-08
3.63059e-09
-1.66794e-08
3.70716e-09
-1.79887e-08
3.77434e-09
-1.93185e-08
3.83267e-09
-2.06658e-08
3.88269e-09
-2.20281e-08
3.92491e-09
-2.34027e-08
3.95984e-09
-2.47875e-08
3.98795e-09
-2.618e-08
4.00968e-09
-2.75783e-08
4.02544e-09
-2.89804e-08
4.03564e-09
-3.03845e-08
4.04063e-09
-3.17889e-08
4.04075e-09
-3.31919e-08
4.03631e-09
-3.4592e-08
4.02758e-09
-3.59879e-08
4.01482e-09
-3.7378e-08
3.99826e-09
-3.87613e-08
3.9781e-09
-4.01363e-08
3.95451e-09
-4.15021e-08
3.92766e-09
-4.28573e-08
3.89768e-09
-4.42011e-08
3.86468e-09
-4.55322e-08
3.82875e-09
-4.68498e-08
3.78998e-09
-4.81527e-08
3.74843e-09
-4.94401e-08
3.70412e-09
-5.07109e-08
3.65711e-09
-5.19642e-08
3.6074e-09
-5.31991e-08
3.555e-09
-5.44145e-08
3.49991e-09
-5.56096e-08
3.44211e-09
-5.67833e-08
3.38159e-09
-5.79347e-08
3.3183e-09
-5.90629e-08
3.25223e-09
-6.01668e-08
3.18332e-09
-6.12454e-08
3.11154e-09
-6.22977e-08
3.03684e-09
-6.33227e-08
2.95917e-09
-6.43193e-08
2.87848e-09
-6.52865e-08
2.79473e-09
-6.62232e-08
2.70787e-09
-6.71283e-08
2.61784e-09
-6.80008e-08
2.52462e-09
-6.88394e-08
2.42815e-09
-6.96431e-08
2.32841e-09
-7.04108e-08
2.22535e-09
-7.11412e-08
2.11897e-09
-7.18334e-08
2.00923e-09
-7.2486e-08
1.89613e-09
-7.30981e-08
1.77966e-09
-7.36684e-08
1.65983e-09
-7.41957e-08
1.53664e-09
-7.46791e-08
1.41013e-09
-7.51173e-08
1.28033e-09
-7.55093e-08
1.14728e-09
-7.58539e-08
1.01103e-09
-7.61502e-08
8.7165e-10
-7.63971e-08
7.29222e-10
-7.65936e-08
5.83834e-10
-7.67388e-08
4.35591e-10
-7.68317e-08
2.84612e-10
-7.68714e-08
1.3103e-10
-7.68572e-08
-2.50111e-11
-7.67883e-08
-1.83351e-10
-7.6664e-08
-3.43815e-10
-7.64836e-08
-5.06213e-10
-7.62466e-08
-6.70341e-10
-7.59526e-08
-8.35979e-10
-7.56009e-08
-1.00289e-09
-7.51915e-08
-1.17083e-09
-7.47239e-08
-1.33953e-09
-7.41982e-08
-1.50872e-09
-7.36141e-08
-1.6781e-09
-7.29719e-08
-1.84736e-09
-7.22717e-08
-2.01619e-09
-7.15137e-08
-2.18426e-09
-7.06983e-08
-2.35121e-09
-6.98262e-08
-2.5167e-09
-6.88979e-08
-2.68037e-09
-6.79141e-08
-2.84183e-09
-6.68759e-08
-3.0007e-09
-6.57842e-08
-3.15659e-09
-6.46403e-08
-3.30911e-09
-6.34453e-08
-3.45785e-09
-6.22008e-08
-3.6024e-09
-6.09084e-08
-3.74235e-09
-5.95697e-08
-3.87729e-09
-5.81866e-08
-4.0068e-09
-5.67612e-08
-4.13048e-09
-5.52956e-08
-4.24792e-09
-5.37919e-08
-4.3587e-09
-5.22528e-08
-4.46243e-09
-5.06807e-08
-4.55872e-09
-4.90782e-08
-4.64717e-09
-4.74482e-08
-4.72742e-09
-4.57937e-08
-4.79908e-09
-4.41176e-08
-4.86182e-09
-4.24231e-08
-4.91529e-09
-4.07136e-08
-4.95916e-09
-3.89923e-08
-4.99311e-09
-3.72627e-08
-5.01687e-09
-3.55285e-08
-5.03015e-09
-3.37932e-08
-5.03268e-09
-3.20607e-08
-5.02424e-09
-3.03347e-08
-5.00461e-09
-2.86191e-08
-4.9736e-09
-2.69178e-08
-4.93102e-09
-2.52348e-08
-4.87674e-09
-2.35741e-08
-4.81062e-09
-2.19398e-08
-4.73257e-09
-2.03359e-08
-4.64252e-09
-1.87665e-08
-4.54042e-09
-1.72357e-08
-4.42627e-09
-1.57476e-08
-4.30007e-09
-1.43061e-08
-4.1619e-09
-1.29152e-08
-4.01183e-09
-1.15789e-08
-3.85002e-09
-1.03011e-08
-3.67666e-09
-9.08533e-09
-3.49199e-09
-7.93536e-09
-3.29634e-09
-6.85458e-09
-3.09012e-09
-5.84623e-09
-2.87384e-09
-4.91331e-09
-2.64816e-09
-4.05847e-09
-2.41389e-09
-3.28403e-09
-2.17205e-09
-2.59181e-09
-1.92393e-09
-1.98306e-09
-1.67116e-09
-1.45833e-09
-1.41582e-09
-1.01728e-09
-1.16056e-09
-6.58513e-10
-9.08745e-10
-3.79328e-10
-6.64731e-10
-1.75433e-10
-4.34081e-10
-4.06375e-11
-2.23923e-10
3.35155e-11
-4.33584e-11
5.81732e-11
9.60809e-11
4.767e-11
1.80024e-10
2.02626e-11
1.90851e-10
1.05833e-10
-1.03407e-11
-5.28667e-11
-6.27492e-11
-1.18705e-11
-1.72759e-10
1.38642e-10
-3.52453e-10
3.64576e-10
-6.10734e-10
6.41327e-10
-9.53678e-10
9.50311e-10
-1.38493e-09
1.2774e-09
-1.90614e-09
1.61194e-09
-2.51728e-09
1.94602e-09
-3.217e-09
2.27384e-09
-4.00294e-09
2.59118e-09
-4.87194e-09
2.8951e-09
-5.82027e-09
3.18359e-09
-6.84379e-09
3.45536e-09
-7.93808e-09
3.70968e-09
-9.09857e-09
3.94625e-09
-1.03206e-08
4.16506e-09
-1.15996e-08
4.36635e-09
-1.2931e-08
4.55052e-09
-1.43102e-08
4.71812e-09
-1.5733e-08
4.86976e-09
-1.7195e-08
5.00612e-09
-1.86924e-08
5.12793e-09
-2.02211e-08
5.23591e-09
-2.17776e-08
5.33082e-09
-2.33583e-08
5.41338e-09
-2.49599e-08
5.48432e-09
-2.65794e-08
5.54434e-09
-2.82136e-08
5.59411e-09
-2.986e-08
5.63427e-09
-3.15157e-08
5.66543e-09
-3.31784e-08
5.68817e-09
-3.48458e-08
5.70302e-09
-3.65157e-08
5.71049e-09
-3.8186e-08
5.71103e-09
-3.98547e-08
5.70508e-09
-4.15202e-08
5.69302e-09
-4.31806e-08
5.6752e-09
-4.48343e-08
5.65196e-09
-4.64797e-08
5.62355e-09
-4.81155e-08
5.59025e-09
-4.97401e-08
5.55227e-09
-5.13522e-08
5.50979e-09
-5.29505e-08
5.46299e-09
-5.45338e-08
5.412e-09
-5.61007e-08
5.35693e-09
-5.76501e-08
5.29785e-09
-5.91809e-08
5.23485e-09
-6.06917e-08
5.16798e-09
-6.21816e-08
5.09725e-09
-6.36493e-08
5.02268e-09
-6.50936e-08
4.94426e-09
-6.65135e-08
4.862e-09
-6.79077e-08
4.77584e-09
-6.92752e-08
4.68577e-09
-7.06147e-08
4.59174e-09
-7.19251e-08
4.4937e-09
-7.32051e-08
4.39159e-09
-7.44536e-08
4.28534e-09
-7.56694e-08
4.1749e-09
-7.68511e-08
4.06021e-09
-7.79976e-08
3.9412e-09
-7.91075e-08
3.8178e-09
-8.01796e-08
3.68996e-09
-8.12126e-08
3.55762e-09
-8.22052e-08
3.42073e-09
-8.3156e-08
3.27923e-09
-8.40638e-08
3.1331e-09
-8.49271e-08
2.98231e-09
-8.57447e-08
2.82681e-09
-8.65152e-08
2.66662e-09
-8.72372e-08
2.50171e-09
-8.79095e-08
2.33211e-09
-8.85307e-08
2.15782e-09
-8.90995e-08
1.9789e-09
-8.96145e-08
1.79538e-09
-9.00746e-08
1.60733e-09
-9.04784e-08
1.41483e-09
-9.08247e-08
1.21798e-09
-9.11124e-08
1.01689e-09
-9.13402e-08
8.11686e-10
-9.15072e-08
6.02519e-10
-9.16121e-08
3.89558e-10
-9.16541e-08
1.7299e-10
-9.16321e-08
-4.698e-11
-9.15453e-08
-2.70126e-10
-9.13929e-08
-4.96202e-10
-9.11742e-08
-7.24939e-10
-9.08885e-08
-9.56052e-10
-9.05352e-08
-1.18923e-09
-9.0114e-08
-1.42414e-09
-8.96244e-08
-1.66045e-09
-8.90661e-08
-1.89776e-09
-8.84392e-08
-2.13571e-09
-8.77434e-08
-2.37387e-09
-8.69789e-08
-2.61182e-09
-8.6146e-08
-2.84912e-09
-8.5245e-08
-3.0853e-09
-8.42763e-08
-3.31987e-09
-8.32406e-08
-3.55235e-09
-8.21388e-08
-3.78222e-09
-8.09717e-08
-4.00896e-09
-7.97403e-08
-4.23204e-09
-7.8446e-08
-4.4509e-09
-7.70901e-08
-4.665e-09
-7.56742e-08
-4.87377e-09
-7.41999e-08
-5.07664e-09
-7.26692e-08
-5.27304e-09
-7.10841e-08
-5.46239e-09
-6.94468e-08
-5.64413e-09
-6.77596e-08
-5.81766e-09
-6.60251e-08
-5.98243e-09
-6.4246e-08
-6.13787e-09
-6.2425e-08
-6.28342e-09
-6.05652e-08
-6.41852e-09
-5.86697e-08
-6.54265e-09
-5.67418e-08
-6.65528e-09
-5.4785e-08
-6.7559e-09
-5.28028e-08
-6.844e-09
-5.0799e-08
-6.91913e-09
-4.87773e-08
-6.98082e-09
-4.67418e-08
-7.02864e-09
-4.46965e-08
-7.06219e-09
-4.26456e-08
-7.08107e-09
-4.05933e-08
-7.08493e-09
-3.85441e-08
-7.07345e-09
-3.65024e-08
-7.04631e-09
-3.44727e-08
-7.00327e-09
-3.24597e-08
-6.94407e-09
-3.04679e-08
-6.86851e-09
-2.85021e-08
-6.77644e-09
-2.65669e-08
-6.66772e-09
-2.46672e-08
-6.54226e-09
-2.28076e-08
-6.40002e-09
-2.09929e-08
-6.24098e-09
-1.92278e-08
-6.0652e-09
-1.75169e-08
-5.87277e-09
-1.58649e-08
-5.66385e-09
-1.42762e-08
-5.43867e-09
-1.27554e-08
-5.19752e-09
-1.13066e-08
-4.94079e-09
-9.93392e-09
-4.66897e-09
-8.64134e-09
-4.38269e-09
-7.43248e-09
-4.08271e-09
-6.31066e-09
-3.76999e-09
-5.27884e-09
-3.44571e-09
-4.33954e-09
-3.11135e-09
-3.49472e-09
-2.76875e-09
-2.74568e-09
-2.42021e-09
-2.09293e-09
-2.06857e-09
-1.53602e-09
-1.71746e-09
-1.07338e-09
-1.37139e-09
-7.02059e-10
-1.03605e-09
-4.1753e-10
-7.18609e-10
-2.13395e-10
-4.28058e-10
-8.10871e-11
-1.75666e-10
-9.51736e-12
2.45113e-11
1.53468e-11
1.55159e-10
1.10733e-11
1.95124e-10
1.16906e-10
-2.3844e-11
-2.90233e-11
-1.10563e-10
7.48515e-11
-2.71967e-10
3.00044e-10
-5.17558e-10
6.10168e-10
-8.54518e-10
9.78285e-10
-1.28776e-09
1.38355e-09
-1.82016e-09
1.8098e-09
-2.45285e-09
2.24462e-09
-3.18541e-09
2.67859e-09
-4.01623e-09
3.10466e-09
-4.94268e-09
3.51763e-09
-5.96133e-09
3.91375e-09
-7.06817e-09
4.29043e-09
-8.25876e-09
4.64595e-09
-9.52836e-09
4.97928e-09
-1.0872e-08
5.28991e-09
-1.22847e-08
5.57775e-09
-1.37614e-08
5.84302e-09
-1.5297e-08
6.08617e-09
-1.68867e-08
6.30781e-09
-1.85256e-08
6.50868e-09
-2.02091e-08
6.68962e-09
-2.19327e-08
6.8515e-09
-2.36921e-08
6.99525e-09
-2.5483e-08
7.12179e-09
-2.73017e-08
7.23206e-09
-2.91443e-08
7.32697e-09
-3.10074e-08
7.40742e-09
-3.28876e-08
7.47426e-09
-3.47816e-08
7.52832e-09
-3.66866e-08
7.5704e-09
-3.85997e-08
7.60123e-09
-4.05182e-08
7.62152e-09
-4.24396e-08
7.63191e-09
-4.43616e-08
7.63302e-09
-4.62819e-08
7.62539e-09
-4.81984e-08
7.60955e-09
-5.01092e-08
7.58595e-09
-5.20122e-08
7.55502e-09
-5.39058e-08
7.51713e-09
-5.57882e-08
7.47262e-09
-5.76577e-08
7.42177e-09
-5.95127e-08
7.36485e-09
-6.13518e-08
7.30207e-09
-6.31734e-08
7.23362e-09
-6.49762e-08
7.15964e-09
-6.67586e-08
7.08025e-09
-6.85193e-08
6.99556e-09
-7.02569e-08
6.90562e-09
-7.19701e-08
6.81048e-09
-7.36576e-08
6.71016e-09
-7.5318e-08
6.60466e-09
-7.695e-08
6.49397e-09
-7.85522e-08
6.37806e-09
-8.01233e-08
6.25689e-09
-8.1662e-08
6.1304e-09
-8.31668e-08
5.99853e-09
-8.46364e-08
5.86122e-09
-8.60695e-08
5.71838e-09
-8.74645e-08
5.56995e-09
-8.88202e-08
5.41583e-09
-9.01349e-08
5.25596e-09
-9.14074e-08
5.09025e-09
-9.2636e-08
4.91863e-09
-9.38194e-08
4.74102e-09
-9.49561e-08
4.55737e-09
-9.60445e-08
4.36761e-09
-9.7083e-08
4.1717e-09
-9.80703e-08
3.9696e-09
-9.90048e-08
3.76129e-09
-9.98849e-08
3.54674e-09
-1.00709e-07
3.32597e-09
-1.01476e-07
3.09898e-09
-1.02184e-07
2.86582e-09
-1.02832e-07
2.62653e-09
-1.03417e-07
2.38117e-09
-1.0394e-07
2.12985e-09
-1.04398e-07
1.87266e-09
-1.0479e-07
1.60973e-09
-1.05114e-07
1.34123e-09
-1.0537e-07
1.06732e-09
-1.05555e-07
7.88201e-10
-1.0567e-07
5.04107e-10
-1.05712e-07
2.15283e-10
-1.05681e-07
-7.7996e-11
-1.05576e-07
-3.75428e-10
-1.05395e-07
-6.76684e-10
-1.05139e-07
-9.81407e-10
-1.04806e-07
-1.28922e-09
-1.04395e-07
-1.5997e-09
-1.03907e-07
-1.91242e-09
-1.0334e-07
-2.22691e-09
-1.02695e-07
-2.54269e-09
-1.01972e-07
-2.85923e-09
-1.0117e-07
-3.176e-09
-1.00289e-07
-3.49243e-09
-9.93304e-08
-3.80792e-09
-9.82939e-08
-4.12186e-09
-9.71801e-08
-4.43362e-09
-9.59899e-08
-4.74254e-09
-9.47242e-08
-5.04795e-09
-9.3384e-08
-5.34916e-09
-9.19706e-08
-5.64545e-09
-9.04854e-08
-5.93611e-09
-8.893e-08
-6.22041e-09
-8.73061e-08
-6.4976e-09
-8.56159e-08
-6.76693e-09
-8.38613e-08
-7.02764e-09
-8.20447e-08
-7.27898e-09
-8.01686e-08
-7.52019e-09
-7.82357e-08
-7.75051e-09
-7.6249e-08
-7.96919e-09
-7.42114e-08
-8.17548e-09
-7.21261e-08
-8.36865e-09
-6.99967e-08
-8.54797e-09
-6.78266e-08
-8.71273e-09
-6.56197e-08
-8.86225e-09
-6.33797e-08
-8.99584e-09
-6.11109e-08
-9.11287e-09
-5.88173e-08
-9.2127e-09
-5.65034e-08
-9.29473e-09
-5.41736e-08
-9.35841e-09
-5.18326e-08
-9.40318e-09
-4.94851e-08
-9.42855e-09
-4.7136e-08
-9.43406e-09
-4.47902e-08
-9.41926e-09
-4.24527e-08
-9.38377e-09
-4.01288e-08
-9.32724e-09
-3.78235e-08
-9.24937e-09
-3.55421e-08
-9.1499e-09
-3.32899e-08
-9.02861e-09
-3.10723e-08
-8.88536e-09
-2.88945e-08
-8.72003e-09
-2.67619e-08
-8.53258e-09
-2.46799e-08
-8.32302e-09
-2.26537e-08
-8.09143e-09
-2.06885e-08
-7.83798e-09
-1.87894e-08
-7.56289e-09
-1.69616e-08
-7.26649e-09
-1.52099e-08
-6.94923e-09
-1.3539e-08
-6.61165e-09
-1.19536e-08
-6.25445e-09
-1.04578e-08
-5.8785e-09
-9.05559e-09
-5.48487e-09
-7.7507e-09
-5.07487e-09
-6.54628e-09
-4.65013e-09
-5.44502e-09
-4.21262e-09
-4.44899e-09
-3.76479e-09
-3.55955e-09
-3.30964e-09
-2.77722e-09
-2.85091e-09
-2.10151e-09
-2.39317e-09
-1.53079e-09
-1.94211e-09
-1.06207e-09
-1.50477e-09
-6.90804e-10
-1.08987e-09
-4.10694e-10
-7.08167e-10
-2.1343e-10
-3.7293e-10
-8.84304e-11
-1.00489e-10
-2.25374e-11
8.92653e-11
3.66328e-13
1.7222e-10
1.17272e-10
-3.7553e-11
8.52869e-12
-1.59781e-10
1.97079e-10
-3.74615e-10
5.14879e-10
-6.88746e-10
9.24296e-10
-1.10729e-09
1.39683e-09
-1.63369e-09
1.90995e-09
-2.26976e-09
2.44587e-09
-3.01585e-09
2.99071e-09
-3.87102e-09
3.53376e-09
-4.83322e-09
4.06685e-09
-5.89945e-09
4.58386e-09
-7.06601e-09
5.08031e-09
-8.32858e-09
5.553e-09
-9.68242e-09
5.99979e-09
-1.11225e-08
6.41934e-09
-1.26435e-08
6.81094e-09
-1.42402e-08
7.17439e-09
-1.5907e-08
7.50986e-09
-1.76387e-08
7.81783e-09
-1.94298e-08
8.09898e-09
-2.12753e-08
8.35416e-09
-2.31701e-08
8.58436e-09
-2.51092e-08
8.79062e-09
-2.7088e-08
8.97403e-09
-2.91019e-08
9.13573e-09
-3.11467e-08
9.27683e-09
-3.32182e-08
9.39846e-09
-3.53125e-08
9.50172e-09
-3.74259e-08
9.58766e-09
-3.95548e-08
9.6573e-09
-4.16961e-08
9.71163e-09
-4.38464e-08
9.75157e-09
-4.60029e-08
9.77798e-09
-4.81627e-08
9.79169e-09
-5.03231e-08
9.79345e-09
-5.24817e-08
9.78397e-09
-5.4636e-08
9.76389e-09
-5.67839e-08
9.73379e-09
-5.8923e-08
9.69421e-09
-6.10515e-08
9.64562e-09
-6.31674e-08
9.58845e-09
-6.52687e-08
9.52307e-09
-6.73536e-08
9.44982e-09
-6.94205e-08
9.36896e-09
-7.14676e-08
9.28074e-09
-7.34934e-08
9.18535e-09
-7.5496e-08
9.08295e-09
-7.74742e-08