/*--------------------------------*- C++ -*----------------------------------*\
  =========                 |
  \\      /  F ield         | OpenFOAM: The Open Source CFD Toolbox
   \\    /   O peration     | Website:  https://openfoam.org
    \\  /    A nd           | Version:  7
     \\/     M anipulation  |
\*---------------------------------------------------------------------------*/
FoamFile
{
    version     2.0;
    format      ascii;
    class       surfaceScalarField;
    location    "0.45";
    object      phi;
}
// * * * * * * * * * * * * * * * * * * * * * * * * * * * * * * * * * * * * * //

dimensions      [0 3 -1 0 0 0 0];

internalField   nonuniform List<scalar> 
50880
(
5.98324e-12
-6.24182e-12
3.62067e-11
-3.02281e-11
8.11205e-11
-4.4906e-11
1.30772e-10
-4.96477e-11
1.78027e-10
-4.7257e-11
2.17915e-10
-3.98898e-11
2.47007e-10
-2.90916e-11
2.62986e-10
-1.59778e-11
2.64324e-10
-1.33859e-12
2.50058e-10
1.42655e-11
2.19627e-10
3.04302e-11
1.7277e-10
4.68576e-11
1.09449e-10
6.33231e-11
2.97949e-11
7.96554e-11
-6.59278e-11
9.57236e-11
-1.77356e-10
1.11428e-10
-3.04046e-10
1.26691e-10
-4.45496e-10
1.4145e-10
-6.01155e-10
1.55659e-10
-7.70436e-10
1.69281e-10
-9.52724e-10
1.82288e-10
-1.14738e-09
1.9466e-10
-1.35376e-09
2.06379e-10
-1.5712e-09
2.17436e-10
-1.79902e-09
2.27823e-10
-2.03656e-09
2.37536e-10
-2.28313e-09
2.46573e-10
-2.53806e-09
2.54935e-10
-2.80068e-09
2.62624e-10
-3.07033e-09
2.69645e-10
-3.34633e-09
2.76002e-10
-3.62803e-09
2.81704e-10
-3.91479e-09
2.86756e-10
-4.20595e-09
2.91167e-10
-4.5009e-09
2.94947e-10
-4.799e-09
2.98105e-10
-5.09965e-09
3.00651e-10
-5.40225e-09
3.02597e-10
-5.7062e-09
3.03951e-10
-6.01093e-09
3.04728e-10
-6.31586e-09
3.04937e-10
-6.62045e-09
3.04591e-10
-6.92415e-09
3.03702e-10
-7.22643e-09
3.02282e-10
-7.52678e-09
3.00344e-10
-7.82468e-09
2.979e-10
-8.11964e-09
2.94963e-10
-8.41118e-09
2.91545e-10
-8.69884e-09
2.8766e-10
-8.98217e-09
2.83321e-10
-9.2607e-09
2.78539e-10
-9.53403e-09
2.73329e-10
-9.80174e-09
2.67704e-10
-1.00634e-08
2.61676e-10
-1.03187e-08
2.55258e-10
-1.05671e-08
2.48464e-10
-1.08084e-08
2.41307e-10
-1.10422e-08
2.338e-10
-1.12682e-08
2.25957e-10
-1.1486e-08
2.1779e-10
-1.16953e-08
2.09313e-10
-1.18958e-08
2.00539e-10
-1.20873e-08
1.91482e-10
-1.22695e-08
1.82155e-10
-1.2442e-08
1.72572e-10
-1.26048e-08
1.62746e-10
-1.27575e-08
1.52691e-10
-1.28999e-08
1.42421e-10
-1.30319e-08
1.3195e-10
-1.31532e-08
1.21291e-10
-1.32636e-08
1.10458e-10
-1.33631e-08
9.94665e-11
-1.34514e-08
8.83294e-11
-1.35285e-08
7.70615e-11
-1.35941e-08
6.56773e-11
-1.36483e-08
5.41913e-11
-1.3691e-08
4.26182e-11
-1.37219e-08
3.09727e-11
-1.37412e-08
1.92699e-11
-1.37487e-08
7.5249e-12
-1.37445e-08
-4.24703e-12
-1.37284e-08
-1.60306e-11
-1.37006e-08
-2.78101e-11
-1.36611e-08
-3.95701e-11
-1.36098e-08
-5.12945e-11
-1.35468e-08
-6.29673e-11
-1.34722e-08
-7.45726e-11
-1.33861e-08
-8.60943e-11
-1.32886e-08
-9.7516e-11
-1.31798e-08
-1.08821e-10
-1.30598e-08
-1.19994e-10
-1.29288e-08
-1.31016e-10
-1.27869e-08
-1.41871e-10
-1.26344e-08
-1.52544e-10
-1.24714e-08
-1.63015e-10
-1.22981e-08
-1.7327e-10
-1.21148e-08
-1.8329e-10
-1.19217e-08
-1.93059e-10
-1.17192e-08
-2.02559e-10
-1.15074e-08
-2.11773e-10
-1.12867e-08
-2.20684e-10
-1.10575e-08
-2.29276e-10
-1.08199e-08
-2.37531e-10
-1.05745e-08
-2.45432e-10
-1.03215e-08
-2.52963e-10
-1.00614e-08
-2.60106e-10
-9.79457e-09
-2.66846e-10
-9.52141e-09
-2.73166e-10
-9.24236e-09
-2.79049e-10
-8.95788e-09
-2.8448e-10
-8.66844e-09
-2.89443e-10
-8.37451e-09
-2.93923e-10
-8.07661e-09
-2.97904e-10
-7.77524e-09
-3.01373e-10
-7.47092e-09
-3.04314e-10
-7.16421e-09
-3.06713e-10
-6.85565e-09
-3.08558e-10
-6.54582e-09
-3.09834e-10
-6.23529e-09
-3.10529e-10
-5.92466e-09
-3.10632e-10
-5.61453e-09
-3.1013e-10
-5.30551e-09
-3.09014e-10
-4.99824e-09
-3.07272e-10
-4.69335e-09
-3.04896e-10
-4.39147e-09
-3.01878e-10
-4.09326e-09
-2.98208e-10
-3.79938e-09
-2.9388e-10
-3.51049e-09
-2.88889e-10
-3.22727e-09
-2.83229e-10
-2.95037e-09
-2.76897e-10
-2.68048e-09
-2.69889e-10
-2.41827e-09
-2.62206e-10
-2.16443e-09
-2.53848e-10
-1.91961e-09
-2.44816e-10
-1.6845e-09
-2.35114e-10
-1.45975e-09
-2.24749e-10
-1.24602e-09
-2.13728e-10
-1.04396e-09
-2.02065e-10
-8.54184e-10
-1.89773e-10
-6.77313e-10
-1.76872e-10
-5.13929e-10
-1.63384e-10
-3.6459e-10
-1.49341e-10
-2.29814e-10
-1.34776e-10
-1.10078e-10
-1.19735e-10
-5.80284e-12
-1.04273e-10
8.26582e-11
-8.84614e-11
1.55041e-10
-7.23841e-11
2.11189e-10
-5.61496e-11
2.51084e-10
-3.98949e-11
2.74882e-10
-2.37966e-11
2.82968e-10
-8.08608e-12
2.76034e-10
6.93235e-12
2.5518e-10
2.08526e-11
2.22067e-10
3.31166e-11
1.79128e-10
4.29426e-11
1.29881e-10
4.92419e-11
7.93436e-11
5.05288e-11
3.45951e-11
4.47554e-11
5.30446e-12
2.93244e-11
5.34165e-12
3.00791e-11
-3.63256e-11
1.01229e-10
-1.01371e-10
1.95505e-10
-1.39182e-10
2.9585e-10
-1.49995e-10
3.87909e-10
-1.39317e-10
4.60443e-10
-1.12423e-10
5.0499e-10
-7.36386e-11
5.15359e-10
-2.63504e-11
4.87158e-10
2.68576e-11
4.1739e-10
8.40339e-11
3.0413e-10
1.43693e-10
1.4629e-10
2.047e-10
-5.65655e-11
2.6618e-10
-3.04361e-10
3.2745e-10
-5.96616e-10
3.8798e-10
-9.32536e-10
4.47348e-10
-1.31107e-09
5.05225e-10
-1.73097e-09
5.61349e-10
-2.19083e-09
6.15512e-10
-2.6891e-09
6.67552e-10
-3.22415e-09
7.17341e-10
-3.79427e-09
7.64778e-10
-4.39767e-09
8.09789e-10
-5.03255e-09
8.52317e-10
-5.69705e-09
8.92321e-10
-6.38929e-09
9.29775e-10
-7.10738e-09
9.64663e-10
-7.84942e-09
9.96979e-10
-8.61352e-09
1.02673e-09
-9.39779e-09
1.05391e-09
-1.02003e-08
1.07855e-09
-1.10193e-08
1.10067e-09
-1.18528e-08
1.12028e-09
-1.26991e-08
1.13742e-09
-1.35562e-08
1.15212e-09
-1.44225e-08
1.16441e-09
-1.52962e-08
1.17433e-09
-1.61755e-08
1.18191e-09
-1.70588e-08
1.18721e-09
-1.79443e-08
1.19025e-09
-1.88304e-08
1.19109e-09
-1.97156e-08
1.18976e-09
-2.05982e-08
1.18632e-09
-2.14767e-08
1.1808e-09
-2.23497e-08
1.17327e-09
-2.32155e-08
1.16376e-09
-2.40729e-08
1.15232e-09
-2.49203e-08
1.13901e-09
-2.57565e-08
1.12386e-09
-2.65801e-08
1.10694e-09
-2.73899e-08
1.08829e-09
-2.81845e-08
1.06796e-09
-2.89628e-08
1.046e-09
-2.97236e-08
1.02247e-09
-3.04658e-08
9.97413e-10
-3.11882e-08
9.7088e-10
-3.18898e-08
9.42924e-10
-3.25696e-08
9.13597e-10
-3.32266e-08
8.8295e-10
-3.38598e-08
8.51035e-10
-3.44684e-08
8.17905e-10
-3.50515e-08
7.83612e-10
-3.56082e-08
7.48208e-10
-3.61378e-08
7.11747e-10
-3.66395e-08
6.74282e-10
-3.71127e-08
6.35866e-10
-3.75565e-08
5.96553e-10
-3.79705e-08
5.56397e-10
-3.8354e-08
5.15452e-10
-3.87065e-08
4.73774e-10
-3.90274e-08
4.31416e-10
-3.93164e-08
3.88435e-10
-3.9573e-08
3.44887e-10
-3.97967e-08
3.00828e-10
-3.99874e-08
2.56315e-10
-4.01446e-08
2.11405e-10
-4.02681e-08
1.66156e-10
-4.03578e-08
1.20626e-10
-4.04134e-08
7.48754e-11
-4.04348e-08
2.8962e-11
-4.0422e-08
-1.7054e-11
-4.03749e-08
-6.31119e-11
-4.02936e-08
-1.09151e-10
-4.0178e-08
-1.55109e-10
-4.00284e-08
-2.00925e-10
-3.98448e-08
-2.46536e-10
-3.96275e-08
-2.91879e-10
-3.93767e-08
-3.3689e-10
-3.90928e-08
-3.81505e-10
-3.87759e-08
-4.25661e-10
-3.84266e-08
-4.69291e-10
-3.80453e-08
-5.12331e-10
-3.76325e-08
-5.54715e-10
-3.71886e-08
-5.96378e-10
-3.67144e-08
-6.37252e-10
-3.62104e-08
-6.77273e-10
-3.56773e-08
-7.16373e-10
-3.51159e-08
-7.54487e-10
-3.45269e-08
-7.91546e-10
-3.39112e-08
-8.27485e-10
-3.32696e-08
-8.62237e-10
-3.26032e-08
-8.95737e-10
-3.19128e-08
-9.27917e-10
-3.11995e-08
-9.58713e-10
-3.04644e-08
-9.88059e-10
-2.97086e-08
-1.01589e-09
-2.89333e-08
-1.04214e-09
-2.81397e-08
-1.06675e-09
-2.73291e-08
-1.08966e-09
-2.65028e-08
-1.1108e-09
-2.56621e-08
-1.13012e-09
-2.48085e-08
-1.14755e-09
-2.39434e-08
-1.16303e-09
-2.30682e-08
-1.17652e-09
-2.21846e-08
-1.18795e-09
-2.12941e-08
-1.19727e-09
-2.03982e-08
-1.20443e-09
-1.94986e-08
-1.20938e-09
-1.85971e-08
-1.21207e-09
-1.76953e-08
-1.21247e-09
-1.67949e-08
-1.21051e-09
-1.58977e-08
-1.20617e-09
-1.50056e-08
-1.19941e-09
-1.41203e-08
-1.19018e-09
-1.32437e-08
-1.17847e-09
-1.23777e-08
-1.16425e-09
-1.15241e-08
-1.14748e-09
-1.06848e-08
-1.12815e-09
-9.8618e-09
-1.10625e-09
-9.05694e-09
-1.08175e-09
-8.27216e-09
-1.05467e-09
-7.50937e-09
-1.025e-09
-6.77048e-09
-9.92738e-10
-6.05739e-09
-9.57908e-10
-5.37198e-09
-9.2053e-10
-4.71609e-09
-8.80636e-10
-4.09155e-09
-8.38266e-10
-3.50014e-09
-7.93478e-10
-2.94358e-09
-7.46337e-10
-2.42352e-09
-6.96931e-10
-1.94154e-09
-6.45364e-10
-1.49912e-09
-5.91765e-10
-1.09761e-09
-5.36291e-10
-7.38205e-10
-4.79136e-10
-4.21943e-10
-4.20536e-10
-1.49624e-10
-3.60782e-10
7.82218e-11
-3.00231e-10
2.61401e-10
-2.39328e-10
4.00136e-10
-1.78629e-10
4.95172e-10
-1.18834e-10
5.47917e-10
-6.08348e-11
5.60621e-10
-5.77467e-12
5.36601e-10
4.48699e-11
4.80551e-10
8.91702e-11
3.98913e-10
1.24591e-10
3.00317e-10
1.47843e-10
1.96021e-10
1.548e-10
1.00171e-10
1.40546e-10
2.92411e-11
1.00185e-10
3.46041e-11
4.48596e-11
-8.11771e-11
1.39176e-10
-1.95681e-10
2.56452e-10
-2.56461e-10
3.75064e-10
-2.68612e-10
4.7674e-10
-2.40992e-10
5.46599e-10
-1.82282e-10
5.72933e-10
-9.99728e-11
5.46785e-10
-2.03347e-13
4.61519e-10
1.12121e-10
3.12395e-10
2.33158e-10
9.62163e-11
3.59875e-10
-1.88971e-10
4.89891e-10
-5.44118e-10
6.21329e-10
-9.69369e-10
7.52702e-10
-1.46422e-09
8.82826e-10
-2.02762e-09
1.01076e-09
-2.65814e-09
1.13574e-09
-3.35396e-09
1.25717e-09
-4.113e-09
1.37455e-09
-4.93296e-09
1.48752e-09
-5.81136e-09
1.59574e-09
-6.74557e-09
1.69899e-09
-7.73285e-09
1.79707e-09
-8.77036e-09
1.88983e-09
-9.85522e-09
1.97718e-09
-1.09845e-08
2.05904e-09
-1.21552e-08
2.13534e-09
-1.33643e-08
2.20608e-09
-1.46088e-08
2.27124e-09
-1.58857e-08
2.33083e-09
-1.7192e-08
2.38487e-09
-1.85247e-08
2.4334e-09
-1.98809e-08
2.47646e-09
-2.12576e-08
2.51411e-09
-2.26519e-08
2.5464e-09
-2.40609e-08
2.57342e-09
-2.54818e-08
2.59523e-09
-2.69118e-08
2.61192e-09
-2.83482e-08
2.62357e-09
-2.97882e-08
2.63026e-09
-3.12292e-08
2.6321e-09
-3.26686e-08
2.62917e-09
-3.41038e-08
2.62158e-09
-3.55324e-08
2.60941e-09
-3.6952e-08
2.59279e-09
-3.836e-08
2.5718e-09
-3.97542e-08
2.54656e-09
-4.11324e-08
2.51717e-09
-4.24923e-08
2.48374e-09
-4.38317e-08
2.44637e-09
-4.51486e-08
2.40519e-09
-4.64409e-08
2.36029e-09
-4.77067e-08
2.31179e-09
-4.8944e-08
2.2598e-09
-5.01511e-08
2.20443e-09
-5.1326e-08
2.1458e-09
-5.24671e-08
2.08402e-09
-5.35727e-08
2.01921e-09
-5.46412e-08
1.95147e-09
-5.56711e-08
1.88092e-09
-5.66609e-08
1.80769e-09
-5.76091e-08
1.73187e-09
-5.85145e-08
1.6536e-09
-5.93758e-08
1.57299e-09
-6.01916e-08
1.49015e-09
-6.0961e-08
1.40521e-09
-6.16827e-08
1.31828e-09
-6.23558e-08
1.22949e-09
-6.29793e-08
1.13895e-09
-6.35523e-08
1.04679e-09
-6.40741e-08
9.53129e-10
-6.45437e-08
8.58089e-10
-6.49606e-08
7.61795e-10
-6.53242e-08
6.64372e-10
-6.56338e-08
5.65948e-10
-6.5889e-08
4.66648e-10
-6.60895e-08
3.66602e-10
-6.62348e-08
2.6594e-10
-6.63247e-08
1.64791e-10
-6.6359e-08
6.3287e-11
-6.63377e-08
-3.84384e-11
-6.62605e-08
-1.40251e-10
-6.61277e-08
-2.42017e-10
-6.59392e-08
-3.43599e-10
-6.56952e-08
-4.44859e-10
-6.53961e-08
-5.4566e-10
-6.50421e-08
-6.45861e-10
-6.46337e-08
-7.45322e-10
-6.41713e-08
-8.43901e-10
-6.36555e-08
-9.41456e-10
-6.30869e-08
-1.03784e-09
-6.24664e-08
-1.13292e-09
-6.17945e-08
-1.22654e-09
-6.10724e-08
-1.31855e-09
-6.03008e-08
-1.40882e-09
-5.94809e-08
-1.49719e-09
-5.86137e-08
-1.58353e-09
-5.77005e-08
-1.66767e-09
-5.67426e-08
-1.74948e-09
-5.57413e-08
-1.82881e-09
-5.4698e-08
-1.90551e-09
-5.36143e-08
-1.97943e-09
-5.24918e-08
-2.05044e-09
-5.13321e-08
-2.11839e-09
-5.01371e-08
-2.18312e-09
-4.89084e-08
-2.24451e-09
-4.76482e-08
-2.30242e-09
-4.63582e-08
-2.35669e-09
-4.50407e-08
-2.4072e-09
-4.36977e-08
-2.45381e-09
-4.23314e-08
-2.49639e-09
-4.09441e-08
-2.53481e-09
-3.95382e-08
-2.56894e-09
-3.81161e-08
-2.59866e-09
-3.66802e-08
-2.62386e-09
-3.5233e-08
-2.6444e-09
-3.37773e-08
-2.66019e-09
-3.23156e-08
-2.67111e-09
-3.08506e-08
-2.67706e-09
-2.93851e-08
-2.67795e-09
-2.79219e-08
-2.67368e-09
-2.64639e-08
-2.66417e-09
-2.5014e-08
-2.64934e-09
-2.3575e-08
-2.62912e-09
-2.21501e-08
-2.60344e-09
-2.07421e-08
-2.57224e-09
-1.93541e-08
-2.53548e-09
-1.79891e-08
-2.49312e-09
-1.66502e-08
-2.44513e-09
-1.53405e-08
-2.39149e-09
-1.4063e-08
-2.3322e-09
-1.28207e-08
-2.26727e-09
-1.16167e-08
-2.19672e-09
-1.0454e-08
-2.1206e-09
-9.33561e-09
-2.03896e-09
-8.26436e-09
-1.95189e-09
-7.24314e-09
-1.85948e-09
-6.27474e-09
-1.76189e-09
-5.36181e-09
-1.65926e-09
-4.50692e-09
-1.55182e-09
-3.71248e-09
-1.43981e-09
-2.98072e-09
-1.32353e-09
-2.31364e-09
-1.20336e-09
-1.71303e-09
-1.07975e-09
-1.18033e-09
-9.53239e-10
-7.16616e-10
-8.24493e-10
-3.22523e-10
-6.94324e-10
1.87388e-12
-5.63725e-10
2.57168e-10
-4.33923e-10
4.44771e-10
-3.0644e-10
5.67108e-10
-1.83176e-10
6.27849e-10
-6.65146e-11
6.3218e-10
4.05403e-11
5.87145e-10
1.34202e-10
5.02036e-10
2.09702e-10
3.88786e-10
2.61117e-10
2.62304e-10
2.81322e-10
1.40615e-10
2.62253e-10
4.4705e-11
1.96055e-10
7.931e-11
4.97167e-11
-1.30892e-10
1.50334e-10
-2.96301e-10
2.69239e-10
-3.75366e-10
3.81241e-10
-3.80613e-10
4.65533e-10
-3.25284e-10
5.05047e-10
-2.21797e-10
4.8606e-10
-8.09888e-11
3.97799e-10
8.80563e-11
2.32029e-10
2.77892e-10
-1.7304e-11
4.82494e-10
-3.54434e-10
6.97007e-10
-7.82073e-10
9.17532e-10
-1.30167e-09
1.14093e-09
-1.91365e-09
1.36468e-09
-2.61755e-09
1.58673e-09
-3.41223e-09
1.80544e-09
-4.29595e-09
2.01946e-09
-5.26651e-09
2.22772e-09
-6.32129e-09
2.42934e-09
-7.45737e-09
2.6236e-09
-8.67157e-09
2.80994e-09
-9.96048e-09
2.9879e-09
-1.13205e-08
3.15712e-09
-1.2748e-08
3.31732e-09
-1.42391e-08
3.46829e-09
-1.579e-08
3.60987e-09
-1.73966e-08
3.74196e-09
-1.9055e-08
3.86447e-09
-2.07611e-08
3.97739e-09
-2.2511e-08
4.08071e-09
-2.43006e-08
4.17446e-09
-2.61259e-08
4.25868e-09
-2.79829e-08
4.33344e-09
-2.98676e-08
4.39883e-09
-3.17761e-08
4.45493e-09
-3.37046e-08
4.50187e-09
-3.56491e-08
4.53977e-09
-3.76059e-08
4.56875e-09
-3.95713e-08
4.58896e-09
-4.15416e-08
4.60055e-09
-4.35132e-08
4.60368e-09
-4.54825e-08
4.59849e-09
-4.74461e-08
4.58517e-09
-4.94006e-08
4.56388e-09
-5.13426e-08
4.5348e-09
-5.32689e-08
4.4981e-09
-5.51763e-08
4.45396e-09
-5.70617e-08
4.40258e-09
-5.89221e-08
4.34413e-09
-6.07545e-08
4.2788e-09
-6.25561e-08
4.20679e-09
-6.43241e-08
4.12828e-09
-6.60558e-08
4.04347e-09
-6.77485e-08
3.95255e-09
-6.93998e-08
3.85572e-09
-7.10072e-08
3.75317e-09
-7.25682e-08
3.64511e-09
-7.40808e-08
3.53173e-09
-7.55425e-08
3.41323e-09
-7.69514e-08
3.28982e-09
-7.83054e-08
3.1617e-09
-7.96026e-08
3.02906e-09
-8.08411e-08
2.89211e-09
-8.20192e-08
2.75107e-09
-8.31352e-08
2.60613e-09
-8.41875e-08
2.45751e-09
-8.51746e-08
2.30541e-09
-8.60952e-08
2.15004e-09
-8.69478e-08
1.99162e-09
-8.77314e-08
1.83035e-09
-8.84447e-08
1.66646e-09
-8.90868e-08
1.50017e-09
-8.96567e-08
1.33168e-09
-9.01535e-08
1.16121e-09
-9.05766e-08
9.89001e-10
-9.09252e-08
8.15262e-10
-9.11988e-08
6.40223e-10
-9.1397e-08
4.64109e-10
-9.15193e-08
2.8715e-10
-9.15656e-08
1.09578e-10
-9.15357e-08
-6.83746e-11
-9.14295e-08
-2.46473e-10
-9.1247e-08
-4.24479e-10
-9.09885e-08
-6.02155e-10
-9.06541e-08
-7.7926e-10
-9.02442e-08
-9.55551e-10
-8.97592e-08
-1.13078e-09
-8.91999e-08
-1.30471e-09
-8.85667e-08
-1.47708e-09
-8.78605e-08
-1.64766e-09
-8.70821e-08
-1.81617e-09
-8.62327e-08
-1.98239e-09
-8.53132e-08
-2.14604e-09
-8.43248e-08
-2.30688e-09
-8.3269e-08
-2.46466e-09
-8.21471e-08
-2.61911e-09
-8.09606e-08
-2.76998e-09
-7.97113e-08
-2.91701e-09
-7.84008e-08
-3.05996e-09
-7.70311e-08
-3.19855e-09
-7.5604e-08
-3.33255e-09
-7.41218e-08
-3.46169e-09
-7.25865e-08
-3.58572e-09
-7.10005e-08
-3.70439e-09
-6.93662e-08
-3.81745e-09
-6.7686e-08
-3.92466e-09
-6.59627e-08
-4.02576e-09
-6.41988e-08
-4.12053e-09
-6.23973e-08
-4.20872e-09
-6.0561e-08
-4.2901e-09
-5.8693e-08
-4.36444e-09
-5.67963e-08
-4.43151e-09
-5.48741e-08
-4.49111e-09
-5.29298e-08
-4.543e-09
-5.09666e-08
-4.587e-09
-4.89881e-08
-4.6229e-09
-4.69978e-08
-4.6505e-09
-4.49993e-08
-4.66962e-09
-4.29963e-08
-4.6801e-09
-4.09925e-08
-4.68176e-09
-3.89917e-08
-4.67444e-09
-3.69979e-08
-4.65801e-09
-3.50149e-08
-4.63233e-09
-3.30467e-08
-4.59728e-09
-3.10974e-08
-4.55276e-09
-2.9171e-08
-4.49866e-09
-2.72716e-08
-4.43493e-09
-2.54032e-08
-4.36149e-09
-2.357e-08
-4.27831e-09
-2.17761e-08
-4.18537e-09
-2.00256e-08
-4.08268e-09
-1.83227e-08
-3.97025e-09
-1.66712e-08
-3.84815e-09
-1.50754e-08
-3.71647e-09
-1.3539e-08
-3.57532e-09
-1.2066e-08
-3.42486e-09
-1.06602e-08
-3.2653e-09
-9.3252e-09
-3.0969e-09
-8.0645e-09
-2.91997e-09
-6.88143e-09
-2.73489e-09
-5.77911e-09
-2.54213e-09
-4.76039e-09
-2.34225e-09
-3.82782e-09
-2.13593e-09
-2.98361e-09
-1.92397e-09
-2.2295e-09
-1.70735e-09
-1.56674e-09
-1.48725e-09
-9.95962e-10
-1.2651e-09
-5.17065e-10
-1.04262e-09
-1.29065e-10
-8.21922e-10
1.70072e-10
-6.05579e-10
3.83647e-10
-3.96754e-10
5.16476e-10
-1.99341e-10
5.75167e-10
-1.81433e-11
5.68433e-10
1.40931e-10
5.07451e-10
2.70661e-10
4.06221e-10
3.62326e-10
2.81901e-10
4.05643e-10
1.55133e-10
3.89048e-10
5.05705e-11
3.00601e-10
1.29876e-10
4.75106e-11
-1.78404e-10
1.40266e-10
-3.89062e-10
2.42799e-10
-4.77897e-10
3.27715e-10
-4.65528e-10
3.72645e-10
-3.70216e-10
3.5923e-10
-2.08384e-10
2.72553e-10
5.68486e-12
1.00711e-10
2.59896e-10
-1.65563e-10
5.44168e-10
-5.33243e-10
8.50175e-10
-1.00732e-09
1.17109e-09
-1.5911e-09
1.50131e-09
-2.28645e-09
1.83628e-09
-3.09403e-09
2.17226e-09
-4.01347e-09
2.50618e-09
-5.04358e-09
2.83554e-09
-6.1824e-09
3.15829e-09
-7.42743e-09
3.47275e-09
-8.77564e-09
3.77754e-09
-1.02236e-08
4.07155e-09
-1.17675e-08
4.35385e-09
-1.34033e-08
4.62372e-09
-1.51267e-08
4.88055e-09
-1.69333e-08
5.1239e-09
-1.88184e-08
5.35338e-09
-2.07773e-08
5.56874e-09
-2.28051e-08
5.76978e-09
-2.4897e-08
5.95636e-09
-2.7048e-08
6.12841e-09
-2.92532e-08
6.28591e-09
-3.15076e-08
6.42887e-09
-3.38063e-08
6.55735e-09
-3.61442e-08
6.67142e-09
-3.85166e-08
6.7712e-09
-4.09185e-08
6.85683e-09
-4.33451e-08
6.92846e-09
-4.57916e-08
6.98627e-09
-4.82533e-08
7.03046e-09
-5.07255e-08
7.06122e-09
-5.32038e-08
7.07878e-09
-5.56835e-08
7.08337e-09
-5.81602e-08
7.07522e-09
-6.06296e-08
7.05459e-09
-6.30875e-08
7.02174e-09
-6.55296e-08
6.97692e-09
-6.79519e-08
6.9204e-09
-7.03504e-08
6.85246e-09
-7.27212e-08
6.77338e-09
-7.50605e-08
6.68344e-09
-7.73646e-08
6.58292e-09
-7.96299e-08
6.47212e-09
-8.1853e-08
6.35133e-09
-8.40304e-08
6.22084e-09
-8.61588e-08
6.08096e-09
-8.8235e-08
5.93197e-09
-9.02561e-08
5.77419e-09
-9.22188e-08
5.60791e-09
-9.41206e-08
5.43345e-09
-9.59584e-08
5.2511e-09
-9.77298e-08
5.06119e-09
-9.94321e-08
4.86402e-09
-1.01063e-07
4.6599e-09
-1.0262e-07
4.44915e-09
-1.04101e-07
4.23208e-09
-1.05504e-07
4.00902e-09
-1.06827e-07
3.78029e-09
-1.08067e-07
3.5462e-09
-1.09225e-07
3.30708e-09
-1.10296e-07
3.06327e-09
-1.11281e-07
2.81508e-09
-1.12177e-07
2.56285e-09
-1.12984e-07
2.30692e-09
-1.137e-07
2.04761e-09
-1.14324e-07
1.78528e-09
-1.14855e-07
1.52026e-09
-1.15293e-07
1.25289e-09
-1.15636e-07
9.83535e-10
-1.15885e-07
7.12531e-10
-1.16038e-07
4.40236e-10
-1.16095e-07
1.67007e-10
-1.16057e-07
-1.06797e-10
-1.15922e-07
-3.80815e-10
-1.15692e-07
-6.54679e-10
-1.15366e-07
-9.28023e-10
-1.14945e-07
-1.20047e-09
-1.14429e-07
-1.47166e-09
-1.13819e-07
-1.7412e-09
-1.13115e-07
-2.00872e-09
-1.12318e-07
-2.27384e-09
-1.11429e-07
-2.53617e-09
-1.1045e-07
-2.79533e-09
-1.09382e-07
-3.05093e-09
-1.08225e-07
-3.30257e-09
-1.06982e-07
-3.54988e-09
-1.05654e-07
-3.79245e-09
-1.04243e-07
-4.0299e-09
-1.02752e-07
-4.26183e-09
-1.01181e-07
-4.48786e-09
-9.95332e-08
-4.70757e-09
-9.78111e-08
-4.92059e-09
-9.60172e-08
-5.12653e-09
-9.41539e-08
-5.32499e-09
-9.2224e-08
-5.51559e-09
-9.02304e-08
-5.69794e-09
-8.81762e-08
-5.87167e-09
-8.60645e-08
-6.03639e-09
-8.38985e-08
-6.19173e-09
-8.16817e-08
-6.33733e-09
-7.94176e-08
-6.47283e-09
-7.71099e-08
-6.59786e-09
-7.47622e-08
-6.71208e-09
-7.23786e-08
-6.81515e-09
-6.9963e-08
-6.90673e-09
-6.75195e-08
-6.98651e-09
-6.50523e-08
-7.05417e-09
-6.25658e-08
-7.1094e-09
-6.00644e-08
-7.15193e-09
-5.75525e-08
-7.18146e-09
-5.50349e-08
-7.19775e-09
-5.25161e-08
-7.20054e-09
-5.00009e-08
-7.18959e-09
-4.74943e-08
-7.16471e-09
-4.50009e-08
-7.12568e-09
-4.25259e-08
-7.07233e-09
-4.00741e-08
-7.00452e-09
-3.76507e-08
-6.9221e-09
-3.52606e-08
-6.82498e-09
-3.2909e-08
-6.71308e-09
-3.0601e-08
-6.58634e-09
-2.83416e-08
-6.44476e-09
-2.61359e-08
-6.28835e-09
-2.3989e-08
-6.11718e-09
-2.19058e-08
-5.93135e-09
-1.98913e-08
-5.73101e-09
-1.79502e-08
-5.51637e-09
-1.60874e-08
-5.28771e-09
-1.43073e-08
-5.04535e-09
-1.26145e-08
-4.78972e-09
-1.10131e-08
-4.52134e-09
-9.50717e-09
-4.24083e-09
-8.10039e-09
-3.94892e-09
-6.79613e-09
-3.64651e-09
-5.5974e-09
-3.33466e-09
-4.50671e-09
-3.01465e-09
-3.52607e-09
-2.688e-09
-2.6568e-09
-2.35652e-09
-1.89952e-09
-2.02238e-09
-1.25394e-09
-1.6882e-09
-7.18723e-10
-1.35714e-09
-2.91328e-10
-1.03298e-09
3.22301e-11
-7.20319e-10
2.57614e-10
-4.24729e-10
3.92429e-10
-1.52953e-10
4.46512e-10
8.6861e-11
4.32236e-10
2.84943e-10
3.64851e-10
4.29698e-10
2.62901e-10
5.07577e-10
1.48744e-10
5.0322e-10
4.9451e-11
3.99894e-10
1.79324e-10
4.0411e-11
-2.18813e-10
1.14259e-10
-4.6291e-10
1.85796e-10
-5.49432e-10
2.26854e-10
-5.06587e-10
2.14391e-10
-3.57756e-10
1.29443e-10
-1.23439e-10
-4.34968e-11
1.78624e-10
-3.16935e-10
5.33336e-10
-7.00734e-10
9.27969e-10
-1.20242e-09
1.35187e-09
-1.82749e-09
1.79616e-09
-2.57964e-09
2.25346e-09
-3.46104e-09
2.71768e-09
-4.47252e-09
3.18374e-09
-5.61379e-09
3.64744e-09
-6.88358e-09
4.10533e-09
-8.27982e-09
4.55452e-09
-9.79971e-09
4.99264e-09
-1.14399e-08
5.41772e-09
-1.31965e-08
5.82815e-09
-1.50652e-08
6.22259e-09
-1.70415e-08
6.59997e-09
-1.91203e-08
6.95941e-09
-2.12967e-08
7.3002e-09
-2.35651e-08
7.6218e-09
-2.59201e-08
7.92378e-09
-2.83562e-08
8.20583e-09
-3.08675e-08
8.46773e-09
-3.34485e-08
8.70934e-09
-3.60931e-08
8.93059e-09
-3.87957e-08
9.13148e-09
-4.15504e-08
9.31205e-09
-4.43514e-08
9.47241e-09
-4.71929e-08
9.61269e-09
-5.00692e-08
9.73307e-09
-5.29744e-08
9.83374e-09
-5.59031e-08
9.91494e-09
-5.88496e-08
9.97692e-09
-6.18083e-08
1.002e-08
-6.47739e-08
1.00444e-08
-6.7741e-08
1.00505e-08
-7.07044e-08
1.00386e-08
-7.36588e-08
1.0009e-08
-7.65992e-08
9.96217e-09
-7.95207e-08
9.89839e-09
-8.24183e-08
9.81806e-09
-8.52874e-08
9.72155e-09
-8.81233e-08
9.60925e-09
-9.09214e-08
9.48157e-09
-9.36774e-08
9.3389e-09
-9.63869e-08
9.18166e-09
-9.90459e-08
9.01024e-09
-1.0165e-07
8.82507e-09
-1.04196e-07
8.62657e-09
-1.06679e-07
8.41516e-09
-1.09096e-07
8.19127e-09
-1.11443e-07
7.95533e-09
-1.13718e-07
7.70777e-09
-1.15916e-07
7.44902e-09
-1.18034e-07
7.17953e-09
-1.2007e-07
6.89974e-09
-1.2202e-07
6.61009e-09
-1.23882e-07
6.31102e-09
-1.25653e-07
6.003e-09
-1.2733e-07
5.68646e-09
-1.28912e-07
5.36187e-09
-1.30395e-07
5.02968e-09
-1.31778e-07
4.69036e-09
-1.3306e-07
4.34437e-09
-1.34237e-07
3.99218e-09
-1.35308e-07
3.63426e-09
-1.36272e-07
3.27109e-09
-1.37128e-07
2.90314e-09
-1.37873e-07
2.5309e-09
-1.38508e-07
2.15485e-09
-1.39031e-07
1.77549e-09
-1.3944e-07
1.3933e-09
-1.39737e-07
1.0088e-09
-1.39919e-07
6.22474e-10
-1.39987e-07
2.34836e-10
-1.3994e-07
-1.53604e-10
-1.39778e-07
-5.42331e-10
-1.39502e-07
-9.30826e-10
-1.39112e-07
-1.31857e-09
-1.38607e-07
-1.70502e-09
-1.37989e-07
-2.08967e-09
-1.37258e-07
-2.47197e-09
-1.36416e-07
-2.85138e-09
-1.35462e-07
-3.22736e-09
-1.34399e-07
-3.59937e-09
-1.33227e-07
-3.96687e-09
-1.31949e-07
-4.3293e-09
-1.30566e-07
-4.6861e-09
-1.29079e-07
-5.03674e-09
-1.2749e-07
-5.38064e-09
-1.25803e-07
-5.71726e-09
-1.24019e-07
-6.04605e-09
-1.2214e-07
-6.36643e-09
-1.2017e-07
-6.67787e-09
-1.18111e-07
-6.9798e-09
-1.15966e-07
-7.27168e-09
-1.13738e-07
-7.55295e-09
-1.1143e-07
-7.82306e-09
-1.09047e-07
-8.08148e-09
-1.06591e-07
-8.32767e-09
-1.04066e-07
-8.5611e-09
-1.01476e-07
-8.78124e-09
-9.88262e-08
-8.98757e-09
-9.61194e-08
-9.17959e-09
-9.33605e-08
-9.35679e-09
-9.05539e-08
-9.51869e-09
-8.77042e-08
-9.66481e-09
-8.48163e-08
-9.79467e-09
-8.1895e-08
-9.90784e-09
-7.89453e-08
-1.00039e-08
-7.59723e-08
-1.00823e-08
-7.29814e-08
-1.01428e-08
-6.99779e-08
-1.0185e-08
-6.69672e-08
-1.02084e-08
-6.39549e-08
-1.02128e-08
-6.09466e-08
-1.01979e-08
-5.79481e-08
-1.01632e-08
-5.49652e-08
-1.01086e-08
-5.20036e-08
-1.00339e-08
-4.90694e-08
-9.93876e-09
-4.61684e-08
-9.82309e-09
-4.33066e-08
-9.68674e-09
-4.04901e-08
-9.52962e-09
-3.77248e-08
-9.35167e-09
-3.50166e-08
-9.1529e-09
-3.23716e-08
-8.93335e-09
-2.97957e-08
-8.69314e-09
-2.72946e-08
-8.43243e-09
-2.48741e-08
-8.15147e-09
-2.25399e-08
-7.85058e-09
-2.02975e-08
-7.53016e-09
-1.81521e-08
-7.19075e-09
-1.61088e-08
-6.83295e-09
-1.41727e-08
-6.45753e-09
-1.23481e-08
-6.06541e-09
-1.06393e-08
-5.65767e-09
-9.05022e-09
-5.2356e-09
-7.58414e-09
-4.80074e-09
-6.24388e-09
-4.35491e-09
-5.03162e-09
-3.90026e-09
-3.94878e-09
-3.43935e-09
-2.99593e-09
-2.97523e-09
-2.17265e-09
-2.51149e-09
-1.47733e-09
-2.05245e-09
-9.07066e-10
-1.60325e-09
-4.57376e-10
-1.17001e-09
-1.22042e-10
-7.60075e-10
1.07175e-10
-3.82182e-10
2.40791e-10
-4.67496e-11
2.91868e-10
2.33886e-10
2.76336e-10
4.45232e-10
2.13457e-10
5.7044e-10
1.26446e-10
5.90236e-10
4.34214e-11
4.82923e-10
2.22747e-10
2.99576e-11
-2.4877e-10
7.65974e-11
-5.0955e-10
1.05632e-10
-5.78468e-10
8.93309e-11
-4.90288e-10
4.77987e-12
-2.73208e-10
-1.66993e-10
4.83325e-11
-4.416e-10
4.53232e-10
-8.31729e-10
9.23466e-10
-1.34747e-09
1.44371e-09
-1.99661e-09
2.00101e-09
-2.78487e-09
2.58443e-09
-3.71619e-09
3.18478e-09
-4.79287e-09
3.79436e-09
-6.01586e-09
4.40672e-09
-7.38486e-09
5.01645e-09
-8.89855e-09
5.61902e-09
-1.05547e-08
6.21066e-09
-1.23503e-08
6.78822e-09
-1.42816e-08
7.34907e-09
-1.63445e-08
7.89102e-09
-1.85342e-08
8.41227e-09
-2.08455e-08
8.91132e-09
-2.32731e-08
9.38697e-09
-2.58111e-08
9.83823e-09
-2.84536e-08
1.02643e-08
-3.11945e-08
1.06646e-08
-3.40273e-08
1.10387e-08
-3.69457e-08
1.13862e-08
-3.99432e-08
1.17068e-08
-4.30132e-08
1.20006e-08
-4.61491e-08
1.22674e-08
-4.93442e-08
1.25072e-08
-5.2592e-08
1.27202e-08
-5.58858e-08
1.29065e-08
-5.92191e-08
1.30663e-08
-6.25853e-08
1.32e-08
-6.5978e-08
1.33076e-08
-6.93908e-08
1.33897e-08
-7.28174e-08
1.34465e-08
-7.62515e-08
1.34785e-08
-7.96869e-08
1.34859e-08
-8.31177e-08
1.34694e-08
-8.65379e-08
1.34292e-08
-8.99417e-08
1.33659e-08
-9.33233e-08
1.328e-08
-9.66772e-08
1.31719e-08
-9.99979e-08
1.30422e-08
-1.0328e-07
1.28913e-08
-1.06518e-07
1.27198e-08
-1.09708e-07
1.25283e-08
-1.12843e-07
1.23172e-08
-1.1592e-07
1.20871e-08
-1.18933e-07
1.18386e-08
-1.21879e-07
1.15722e-08
-1.24752e-07
1.12885e-08
-1.27549e-07
1.0988e-08
-1.30265e-07
1.06714e-08
-1.32897e-07
1.03392e-08
-1.3544e-07
9.99198e-09
-1.3789e-07
9.63036e-09
-1.40246e-07
9.25491e-09
-1.42502e-07
8.86624e-09
-1.44656e-07
8.46493e-09
-1.46704e-07
8.05161e-09
-1.48645e-07
7.62686e-09
-1.50474e-07
7.19131e-09
-1.5219e-07
6.74557e-09
-1.5379e-07
6.29026e-09
-1.55272e-07
5.82601e-09
-1.56633e-07
5.35344e-09
-1.57872e-07
4.87319e-09
-1.58987e-07
4.3859e-09
-1.59976e-07
3.89221e-09
-1.60837e-07
3.39277e-09
-1.61571e-07
2.88824e-09
-1.62175e-07
2.37927e-09
-1.62648e-07
1.86653e-09
-1.6299e-07
1.35069e-09
-1.632e-07
8.32427e-10
-1.63277e-07
3.12416e-10
-1.63222e-07
-2.08654e-10
-1.63035e-07
-7.3009e-10
-1.62714e-07
-1.2512e-09
-1.62261e-07
-1.77127e-09
-1.61677e-07
-2.2896e-09
-1.60961e-07
-2.80548e-09
-1.60115e-07
-3.31819e-09
-1.59139e-07
-3.82701e-09
-1.58035e-07
-4.33121e-09
-1.56805e-07
-4.83006e-09
-1.55449e-07
-5.32283e-09
-1.53969e-07
-5.80879e-09
-1.52368e-07
-6.28719e-09
-1.50648e-07
-6.75729e-09
-1.4881e-07
-7.21835e-09
-1.46858e-07
-7.66962e-09
-1.44793e-07
-8.11037e-09
-1.4262e-07
-8.53985e-09
-1.4034e-07
-8.95731e-09
-1.37958e-07
-9.36202e-09
-1.35477e-07
-9.75324e-09
-1.32899e-07
-1.01302e-08
-1.3023e-07
-1.04923e-08
-1.27473e-07
-1.08386e-08
-1.24632e-07
-1.11686e-08
-1.21712e-07
-1.14815e-08
-1.18716e-07
-1.17765e-08
-1.15651e-07
-1.20531e-08
-1.1252e-07
-1.23105e-08
-1.09329e-07
-1.25481e-08
-1.06082e-07
-1.27652e-08
-1.02786e-07
-1.29611e-08
-9.94452e-08
-1.31354e-08
-9.60658e-08
-1.32873e-08
-9.26534e-08
-1.34163e-08
-8.92139e-08
-1.35218e-08
-8.57535e-08
-1.36033e-08
-8.22782e-08
-1.36603e-08
-7.87942e-08
-1.36924e-08
-7.53081e-08
-1.3699e-08
-7.18262e-08
-1.36797e-08
-6.83552e-08
-1.36343e-08
-6.49015e-08
-1.35623e-08
-6.14721e-08
-1.34634e-08
-5.80735e-08
-1.33373e-08
-5.47126e-08
-1.3184e-08
-5.13962e-08
-1.30031e-08
-4.81312e-08
-1.27946e-08
-4.49244e-08
-1.25585e-08
-4.17825e-08
-1.22948e-08
-3.87123e-08
-1.20035e-08
-3.57206e-08
-1.16849e-08
-3.28139e-08
-1.13391e-08
-2.99988e-08
-1.09666e-08
-2.72815e-08
-1.05678e-08
-2.46683e-08
-1.01434e-08
-2.21652e-08
-9.69389e-09
-1.97778e-08
-9.22033e-09
-1.75116e-08
-8.72372e-09
-1.53717e-08
-8.20532e-09
-1.33627e-08
-7.66662e-09
-1.1489e-08
-7.10937e-09
-9.75407e-09
-6.53566e-09
-8.16107e-09
-5.94791e-09
-6.71232e-09
-5.34901e-09
-5.40935e-09
-4.74233e-09
-4.25271e-09
-4.13186e-09
-3.24189e-09
-3.5223e-09
-2.37515e-09
-2.91919e-09
-1.64933e-09
-2.32907e-09
-1.05968e-09
-1.75966e-09
-5.9965e-10
-1.2201e-09
-2.60691e-10
-7.21154e-10
-3.19707e-11
-2.75478e-10
9.98509e-11
1.02071e-10
1.50933e-10
3.94158e-10
1.40684e-10
5.80682e-10
9.23777e-11
6.38544e-10
3.39817e-11
5.41323e-10
2.5673e-10
1.72464e-11
-2.66016e-10
3.06006e-11
-5.22904e-10
8.30193e-12
-5.56173e-10
-7.60305e-11
-4.05959e-10
-2.44501e-10
-1.04737e-10
-5.15576e-10
3.19408e-10
-9.04553e-10
8.42212e-10
-1.42395e-09
1.44286e-09
-2.08377e-09
2.10354e-09
-2.89179e-09
2.80904e-09
-3.85377e-09
3.54641e-09
-4.97367e-09
4.30468e-09
-6.25383e-09
5.07452e-09
-7.69516e-09
5.84805e-09
-9.29733e-09
6.61862e-09
-1.10589e-08
7.3806e-09
-1.29775e-08
8.12924e-09
-1.50498e-08
8.86056e-09
-1.7272e-08
9.57122e-09
-1.96393e-08
1.02584e-08
-2.21468e-08
1.09197e-08
-2.47888e-08
1.15533e-08
-2.75594e-08
1.21576e-08
-3.04523e-08
1.27311e-08
-3.34609e-08
1.32729e-08
-3.65785e-08
1.37822e-08
-3.9798e-08
1.42583e-08
-4.31125e-08
1.47007e-08
-4.65148e-08
1.5109e-08
-4.99974e-08
1.54832e-08
-5.35531e-08
1.58231e-08
-5.71746e-08
1.61287e-08
-6.08545e-08
1.64001e-08
-6.45854e-08
1.66374e-08
-6.836e-08
1.6841e-08
-7.21711e-08
1.7011e-08
-7.60113e-08
1.71479e-08
-7.98735e-08
1.7252e-08
-8.37508e-08
1.73238e-08
-8.7636e-08
1.73637e-08
-9.15223e-08
1.73723e-08
-9.54029e-08
1.735e-08
-9.92712e-08
1.72975e-08
-1.03121e-07
1.72153e-08
-1.06945e-07
1.7104e-08
-1.10737e-07
1.69643e-08
-1.14492e-07
1.67968e-08
-1.18202e-07
1.66021e-08
-1.21863e-07
1.63809e-08