/*--------------------------------*- C++ -*----------------------------------*\
  =========                 |
  \\      /  F ield         | OpenFOAM: The Open Source CFD Toolbox
   \\    /   O peration     | Website:  https://openfoam.org
    \\  /    A nd           | Version:  7
     \\/     M anipulation  |
\*---------------------------------------------------------------------------*/
FoamFile
{
    version     2.0;
    format      ascii;
    class       volVectorField;
    location    "0.45";
    object      U;
}
// * * * * * * * * * * * * * * * * * * * * * * * * * * * * * * * * * * * * * //

dimensions      [0 1 -1 0 0 0 0];

internalField   nonuniform List<vector> 
25600
(
(1.80992e-07 -2.03143e-07 0)
(2.84074e-06 -1.79323e-06 0)
(9.07755e-06 -2.83259e-06 0)
(1.69305e-05 -3.20672e-06 0)
(2.48908e-05 -3.12383e-06 0)
(3.20092e-05 -2.74649e-06 0)
(3.76331e-05 -2.18196e-06 0)
(4.13125e-05 -1.50153e-06 0)
(4.27477e-05 -7.51698e-07 0)
(4.17455e-05 3.70902e-08 0)
(3.81883e-05 8.44473e-07 0)
(3.20137e-05 1.65639e-06 0)
(2.32e-05 2.46277e-06 0)
(1.17565e-05 3.25625e-06 0)
(-2.28373e-06 4.03141e-06 0)
(-1.88697e-05 4.78438e-06 0)
(-3.79359e-05 5.51224e-06 0)
(-5.94063e-05 6.21272e-06 0)
(-8.31959e-05 6.88418e-06 0)
(-0.000109213 7.52544e-06 0)
(-0.000137362 8.13565e-06 0)
(-0.000167542 8.71419e-06 0)
(-0.00019965 9.26069e-06 0)
(-0.000233581 9.77494e-06 0)
(-0.000269227 1.02568e-05 0)
(-0.000306482 1.07064e-05 0)
(-0.000345236 1.11239e-05 0)
(-0.000385383 1.15094e-05 0)
(-0.000426813 1.18633e-05 0)
(-0.00046942 1.21859e-05 0)
(-0.000513097 1.24775e-05 0)
(-0.000557739 1.27386e-05 0)
(-0.000603241 1.29696e-05 0)
(-0.000649499 1.3171e-05 0)
(-0.000696413 1.33434e-05 0)
(-0.000743881 1.34871e-05 0)
(-0.000791805 1.36027e-05 0)
(-0.000840088 1.36909e-05 0)
(-0.000888634 1.3752e-05 0)
(-0.000937351 1.37868e-05 0)
(-0.000986146 1.37958e-05 0)
(-0.00103493 1.37795e-05 0)
(-0.00108361 1.37386e-05 0)
(-0.00113211 1.36736e-05 0)
(-0.00118034 1.35851e-05 0)
(-0.00122822 1.34737e-05 0)
(-0.00127567 1.334e-05 0)
(-0.00132261 1.31846e-05 0)
(-0.00136896 1.30081e-05 0)
(-0.00141466 1.28112e-05 0)
(-0.00145963 1.25943e-05 0)
(-0.00150379 1.23581e-05 0)
(-0.00154709 1.21032e-05 0)
(-0.00158946 1.18302e-05 0)
(-0.00163083 1.15397e-05 0)
(-0.00167114 1.12322e-05 0)
(-0.00171033 1.09084e-05 0)
(-0.00174836 1.05689e-05 0)
(-0.00178515 1.02143e-05 0)
(-0.00182066 9.84512e-06 0)
(-0.00185484 9.46202e-06 0)
(-0.00188764 9.06559e-06 0)
(-0.00191901 8.65642e-06 0)
(-0.00194892 8.23513e-06 0)
(-0.0019773 7.80232e-06 0)
(-0.00200414 7.3586e-06 0)
(-0.00202938 6.90458e-06 0)
(-0.002053 6.44087e-06 0)
(-0.00207496 5.96808e-06 0)
(-0.00209522 5.48685e-06 0)
(-0.00211377 4.99779e-06 0)
(-0.00213057 4.50153e-06 0)
(-0.0021456 3.99871e-06 0)
(-0.00215884 3.48997e-06 0)
(-0.00217026 2.97597e-06 0)
(-0.00217985 2.45734e-06 0)
(-0.0021876 1.93473e-06 0)
(-0.00219349 1.40882e-06 0)
(-0.00219751 8.80272e-07 0)
(-0.00219966 3.49761e-07 0)
(-0.00219992 -1.8203e-07 0)
(-0.0021983 -7.14413e-07 0)
(-0.00219479 -1.24669e-06 0)
(-0.0021894 -1.77817e-06 0)
(-0.00218213 -2.30812e-06 0)
(-0.00217298 -2.83583e-06 0)
(-0.00216198 -3.36058e-06 0)
(-0.00214912 -3.88165e-06 0)
(-0.00213443 -4.3983e-06 0)
(-0.00211792 -4.90979e-06 0)
(-0.0020996 -5.41538e-06 0)
(-0.00207952 -5.91429e-06 0)
(-0.00205768 -6.40577e-06 0)
(-0.00203412 -6.88906e-06 0)
(-0.00200887 -7.3634e-06 0)
(-0.00198195 -7.82802e-06 0)
(-0.00195342 -8.28215e-06 0)
(-0.0019233 -8.72501e-06 0)
(-0.00189164 -9.15582e-06 0)
(-0.00185848 -9.57379e-06 0)
(-0.00182387 -9.97815e-06 0)
(-0.00178786 -1.03681e-05 0)
(-0.00175051 -1.0743e-05 0)
(-0.00171186 -1.11019e-05 0)
(-0.00167197 -1.1444e-05 0)
(-0.00163091 -1.17688e-05 0)
(-0.00158874 -1.20752e-05 0)
(-0.00154552 -1.23627e-05 0)
(-0.00150132 -1.26305e-05 0)
(-0.00145622 -1.28778e-05 0)
(-0.00141029 -1.31039e-05 0)
(-0.0013636 -1.33081e-05 0)
(-0.00131624 -1.34897e-05 0)
(-0.00126827 -1.3648e-05 0)
(-0.0012198 -1.37823e-05 0)
(-0.00117089 -1.3892e-05 0)
(-0.00112165 -1.39764e-05 0)
(-0.00107216 -1.4035e-05 0)
(-0.0010225 -1.4067e-05 0)
(-0.000972788 -1.40719e-05 0)
(-0.000923103 -1.40492e-05 0)
(-0.000873548 -1.39984e-05 0)
(-0.00082422 -1.39189e-05 0)
(-0.000775222 -1.38103e-05 0)
(-0.000726655 -1.36721e-05 0)
(-0.000678623 -1.35039e-05 0)
(-0.00063123 -1.33053e-05 0)
(-0.000584583 -1.3076e-05 0)
(-0.000538787 -1.28158e-05 0)
(-0.000493951 -1.25242e-05 0)
(-0.000450182 -1.22012e-05 0)
(-0.000407588 -1.18465e-05 0)
(-0.000366278 -1.14602e-05 0)
(-0.000326359 -1.10421e-05 0)
(-0.000287939 -1.05922e-05 0)
(-0.000251125 -1.01107e-05 0)
(-0.000216022 -9.59774e-06 0)
(-0.000182735 -9.05374e-06 0)
(-0.000151364 -8.47909e-06 0)
(-0.00012201 -7.87437e-06 0)
(-9.47684e-05 -7.24039e-06 0)
(-6.97306e-05 -6.57814e-06 0)
(-4.69832e-05 -5.88885e-06 0)
(-2.66062e-05 -5.17413e-06 0)
(-8.67176e-06 -4.43612e-06 0)
(6.75744e-06 -3.67746e-06 0)
(1.96313e-05 -2.90151e-06 0)
(2.99151e-05 -2.11268e-06 0)
(3.75936e-05 -1.31669e-06 0)
(4.2676e-05 -5.21267e-07 0)
(4.52035e-05 2.63047e-07 0)
(4.52591e-05 1.02161e-06 0)
(4.29818e-05 1.73368e-06 0)
(3.85863e-05 2.36858e-06 0)
(3.23931e-05 2.87973e-06 0)
(2.48693e-05 3.19704e-06 0)
(1.66803e-05 3.21644e-06 0)
(8.77851e-06 2.78205e-06 0)
(2.64025e-06 1.70008e-06 0)
(1.2042e-07 1.24028e-07 0)
(1.77846e-06 -2.87335e-06 0)
(9.38525e-06 -9.41132e-06 0)
(2.31439e-05 -1.34181e-05 0)
(3.93864e-05 -1.47305e-05 0)
(5.5272e-05 -1.39679e-05 0)
(6.88075e-05 -1.17013e-05 0)
(7.84528e-05 -8.37146e-06 0)
(8.30504e-05 -4.30781e-06 0)
(8.17679e-05 2.49079e-07 0)
(7.40273e-05 5.12433e-06 0)
(5.94453e-05 1.01893e-05 0)
(3.77887e-05 1.53482e-05 0)
(8.94169e-06 2.05285e-05 0)
(-2.71197e-05 2.56749e-05 0)
(-7.03473e-05 3.07448e-05 0)
(-0.000120636 3.57052e-05 0)
(-0.000177837 4.05304e-05 0)
(-0.000241763 4.52003e-05 0)
(-0.0003122 4.96991e-05 0)
(-0.000388912 5.40149e-05 0)
(-0.000471643 5.8138e-05 0)
(-0.000560125 6.20615e-05 0)
(-0.000654077 6.57798e-05 0)
(-0.000753212 6.92894e-05 0)
(-0.000857235 7.25874e-05 0)
(-0.000965848 7.56724e-05 0)
(-0.00107875 7.85436e-05 0)
(-0.00119563 8.12012e-05 0)
(-0.0013162 8.36456e-05 0)
(-0.00144014 8.58782e-05 0)
(-0.00156716 8.79004e-05 0)
(-0.00169696 8.97143e-05 0)
(-0.00182923 9.13221e-05 0)
(-0.00196368 9.27263e-05 0)
(-0.00210003 9.39299e-05 0)
(-0.00223798 9.49357e-05 0)
(-0.00237724 9.57471e-05 0)
(-0.00251755 9.63672e-05 0)
(-0.00265862 9.67996e-05 0)
(-0.00280019 9.70478e-05 0)
(-0.00294199 9.71156e-05 0)
(-0.00308375 9.70066e-05 0)
(-0.00322524 9.67247e-05 0)
(-0.00336619 9.62737e-05 0)
(-0.00350636 9.56577e-05 0)
(-0.00364552 9.48805e-05 0)
(-0.00378344 9.39462e-05 0)
(-0.00391988 9.28588e-05 0)
(-0.00405462 9.16224e-05 0)
(-0.00418746 9.02412e-05 0)
(-0.00431818 8.87193e-05 0)
(-0.00444658 8.70606e-05 0)
(-0.00457246 8.52696e-05 0)
(-0.00469563 8.33501e-05 0)
(-0.00481591 8.13065e-05 0)
(-0.00493312 7.9143e-05 0)
(-0.00504709 7.68636e-05 0)
(-0.00515764 7.44727e-05 0)
(-0.00526462 7.19745e-05 0)
(-0.00536788 6.93731e-05 0)
(-0.00546726 6.66729e-05 0)
(-0.00556262 6.38781e-05 0)
(-0.00565384 6.09929e-05 0)
(-0.00574078 5.80218e-05 0)
(-0.00582331 5.49689e-05 0)
(-0.00590132 5.18387e-05 0)
(-0.00597471 4.86354e-05 0)
(-0.00604336 4.53636e-05 0)
(-0.00610718 4.20276e-05 0)
(-0.00616608 3.86317e-05 0)
(-0.00621997 3.51806e-05 0)
(-0.00626879 3.16787e-05 0)
(-0.00631244 2.81306e-05 0)
(-0.00635088 2.45407e-05 0)
(-0.00638405 2.09139e-05 0)
(-0.00641189 1.72546e-05 0)
(-0.00643436 1.35676e-05 0)
(-0.00645142 9.85759e-06 0)
(-0.00646305 6.12938e-06 0)
(-0.00646921 2.3878e-06 0)
(-0.00646991 -1.36232e-06 0)
(-0.00646512 -5.11605e-06 0)
(-0.00645484 -8.86845e-06 0)
(-0.00643909 -1.26145e-05 0)
(-0.00641787 -1.63492e-05 0)
(-0.0063912 -2.00674e-05 0)
(-0.00635913 -2.37639e-05 0)
(-0.00632167 -2.74338e-05 0)
(-0.00627887 -3.10716e-05 0)
(-0.00623079 -3.46723e-05 0)
(-0.00617748 -3.82304e-05 0)
(-0.00611902 -4.17407e-05 0)
(-0.00605546 -4.51978e-05 0)
(-0.00598691 -4.85964e-05 0)
(-0.00591344 -5.1931e-05 0)
(-0.00583515 -5.51963e-05 0)
(-0.00575215 -5.83868e-05 0)
(-0.00566456 -6.14971e-05 0)
(-0.0055725 -6.45218e-05 0)
(-0.00547609 -6.74553e-05 0)
(-0.00537547 -7.02923e-05 0)
(-0.00527079 -7.30273e-05 0)
(-0.0051622 -7.56551e-05 0)
(-0.00504987 -7.817e-05 0)
(-0.00493396 -8.05669e-05 0)
(-0.00481464 -8.28403e-05 0)
(-0.00469211 -8.49851e-05 0)
(-0.00456655 -8.69961e-05 0)
(-0.00443816 -8.88682e-05 0)
(-0.00430715 -9.05961e-05 0)
(-0.00417374 -9.2175e-05 0)
(-0.00403814 -9.36e-05 0)
(-0.00390058 -9.48663e-05 0)
(-0.0037613 -9.59693e-05 0)
(-0.00362053 -9.69043e-05 0)
(-0.00347854 -9.76669e-05 0)
(-0.00333556 -9.82529e-05 0)
(-0.00319186 -9.8658e-05 0)
(-0.0030477 -9.88784e-05 0)
(-0.00290336 -9.89102e-05 0)
(-0.00275912 -9.87499e-05 0)
(-0.00261524 -9.83939e-05 0)
(-0.00247203 -9.78393e-05 0)
(-0.00232976 -9.7083e-05 0)
(-0.00218874 -9.61223e-05 0)
(-0.00204926 -9.49548e-05 0)
(-0.00191161 -9.35783e-05 0)
(-0.00177611 -9.1991e-05 0)
(-0.00164305 -9.01915e-05 0)
(-0.00151274 -8.81786e-05 0)
(-0.0013855 -8.59515e-05 0)
(-0.00126162 -8.35102e-05 0)
(-0.00114141 -8.08548e-05 0)
(-0.00102517 -7.79861e-05 0)
(-0.00091322 -7.49055e-05 0)
(-0.000805844 -7.1615e-05 0)
(-0.000703339 -6.81177e-05 0)
(-0.000605995 -6.44174e-05 0)
(-0.00051409 -6.05192e-05 0)
(-0.000427898 -5.64293e-05 0)
(-0.000347676 -5.21556e-05 0)
(-0.000273669 -4.77077e-05 0)
(-0.000206104 -4.30975e-05 0)
(-0.000145188 -3.83397e-05 0)
(-9.11001e-05 -3.34526e-05 0)
(-4.39887e-05 -2.8459e-05 0)
(-3.96262e-06 -2.33869e-05 0)
(2.89173e-05 -1.82715e-05 0)
(5.46499e-05 -1.31576e-05 0)
(7.33079e-05 -8.10248e-06 0)
(8.50578e-05 -3.18033e-06 0)
(9.01845e-05 1.51168e-06 0)
(8.91235e-05 5.84493e-06 0)
(8.2503e-05 9.64578e-06 0)
(7.12009e-05 1.26768e-05 0)
(5.64103e-05 1.46167e-05 0)
(3.96896e-05 1.50431e-05 0)
(2.30208e-05 1.34193e-05 0)
(9.18047e-06 9.18878e-06 0)
(1.69209e-06 2.6446e-06 0)
(2.82608e-06 -9.09093e-06 0)
(1.34117e-05 -2.31644e-05 0)
(3.10796e-05 -3.1075e-05 0)
(5.0856e-05 -3.31434e-05 0)
(6.91408e-05 -3.04677e-05 0)
(8.33732e-05 -2.41416e-05 0)
(9.14702e-05 -1.50927e-05 0)
(9.17899e-05 -4.06645e-06 0)
(8.30994e-05 8.35684e-06 0)
(6.45039e-05 2.17296e-05 0)
(3.53811e-05 3.57069e-05 0)
(-4.67065e-06 5.00222e-05 0)
(-5.58753e-05 6.44681e-05 0)
(-0.000118314 7.88824e-05 0)
(-0.000191951 9.31373e-05 0)
(-0.00027666 0.000107132 0)
(-0.000372238 0.000120786 0)
(-0.000478421 0.000134036 0)
(-0.000594896 0.000146831 0)
(-0.00072131 0.000159132 0)
(-0.00085728 0.000170906 0)
(-0.00100239 0.00018213 0)
(-0.00115622 0.000192784 0)
(-0.00131832 0.000202855 0)
(-0.00148823 0.000212331 0)
(-0.00166547 0.000221205 0)
(-0.00184959 0.000229475 0)
(-0.00204009 0.000237136 0)
(-0.0022365 0.000244191 0)
(-0.00243833 0.00025064 0)
(-0.00264511 0.000256486 0)
(-0.00285635 0.000261734 0)
(-0.00307158 0.000266389 0)
(-0.00329032 0.000270458 0)
(-0.00351211 0.000273948 0)
(-0.00373649 0.000276867 0)
(-0.003963 0.000279224 0)
(-0.00419118 0.000281026 0)
(-0.0044206 0.000282284 0)
(-0.00465081 0.000283008 0)
(-0.0048814 0.000283208 0)
(-0.00511194 0.000282894 0)
(-0.00534201 0.000282077 0)
(-0.00557122 0.000280768 0)
(-0.00579916 0.000278978 0)
(-0.00602546 0.000276719 0)
(-0.00624973 0.000274001 0)
(-0.00647162 0.000270837 0)
(-0.00669075 0.000267238 0)
(-0.00690678 0.000263216 0)
(-0.00711936 0.000258783 0)
(-0.00732818 0.000253951 0)
(-0.00753291 0.000248731 0)
(-0.00773323 0.000243136 0)
(-0.00792885 0.000237179 0)
(-0.00811948 0.00023087 0)
(-0.00830483 0.000224223 0)
(-0.00848463 0.000217249 0)
(-0.00865862 0.000209962 0)
(-0.00882655 0.000202372 0)
(-0.00898818 0.000194494 0)
(-0.00914328 0.000186338 0)
(-0.00929163 0.000177919 0)
(-0.00943301 0.000169248 0)
(-0.00956722 0.000160338 0)
(-0.00969409 0.000151201 0)
(-0.00981341 0.000141851 0)
(-0.00992504 0.000132301 0)
(-0.0100288 0.000122563 0)
(-0.0101246 0.00011265 0)
(-0.0102122 0.000102576 0)
(-0.0102915 9.23534e-05 0)
(-0.0103625 8.19961e-05 0)
(-0.0104249 7.15173e-05 0)
(-0.0104788 6.09306e-05 0)
(-0.010524 5.02496e-05 0)
(-0.0105605 3.94882e-05 0)
(-0.0105881 2.86601e-05 0)
(-0.010607 1.77794e-05 0)
(-0.0106169 6.86027e-06 0)
(-0.010618 -4.08304e-06 0)
(-0.0106101 -1.50361e-05 0)
(-0.0105933 -2.59845e-05 0)
(-0.0105676 -3.69136e-05 0)
(-0.010533 -4.78084e-05 0)
(-0.0104895 -5.86543e-05 0)
(-0.0104372 -6.94361e-05 0)
(-0.0103762 -8.01388e-05 0)
(-0.0103065 -9.07472e-05 0)
(-0.0102283 -0.000101246 0)
(-0.0101415 -0.000111619 0)
(-0.0100463 -0.000121852 0)
(-0.00994289 -0.000131929 0)
(-0.00983134 -0.000141833 0)
(-0.0097118 -0.000151551 0)
(-0.00958444 -0.000161064 0)
(-0.00944942 -0.000170359 0)
(-0.00930695 -0.000179418 0)
(-0.00915721 -0.000188227 0)
(-0.00900041 -0.000196769 0)
(-0.00883678 -0.000205029 0)
(-0.00866656 -0.00021299 0)
(-0.00849 -0.000220638 0)
(-0.00830736 -0.000227957 0)
(-0.00811891 -0.00023493 0)
(-0.00792494 -0.000241543 0)
(-0.00772575 -0.000247781 0)
(-0.00752165 -0.000253628 0)
(-0.00731297 -0.000259071 0)
(-0.00710004 -0.000264093 0)
(-0.00688321 -0.000268681 0)
(-0.00666283 -0.000272821 0)
(-0.00643928 -0.0002765 0)
(-0.00621294 -0.000279703 0)
(-0.0059842 -0.000282417 0)
(-0.00575345 -0.000284631 0)
(-0.00552112 -0.000286331 0)
(-0.00528761 -0.000287506 0)
(-0.00505337 -0.000288146 0)
(-0.00481882 -0.000288238 0)
(-0.00458441 -0.000287774 0)
(-0.0043506 -0.000286744 0)
(-0.00411785 -0.000285138 0)
(-0.00388663 -0.00028295 0)
(-0.0036574 -0.000280171 0)
(-0.00343064 -0.000276795 0)
(-0.00320684 -0.000272817 0)
(-0.00298648 -0.000268232 0)
(-0.00277005 -0.000263037 0)
(-0.00255804 -0.000257229 0)
(-0.00235094 -0.000250808 0)
(-0.00214924 -0.000243773 0)
(-0.00195342 -0.000236128 0)
(-0.00176396 -0.000227875 0)
(-0.00158136 -0.00021902 0)
(-0.00140607 -0.000209572 0)
(-0.00123856 -0.00019954 0)
(-0.00107928 -0.000188939 0)
(-0.000928672 -0.000177784 0)
(-0.000787149 -0.000166099 0)
(-0.000655111 -0.000153907 0)
(-0.000532931 -0.000141241 0)
(-0.000420949 -0.000128138 0)
(-0.000319472 -0.000114647 0)
(-0.000228757 -0.000100824 0)
(-0.000149011 -8.67402e-05 0)
(-8.0373e-05 -7.24809e-05 0)
(-2.29046e-05 -5.81531e-05 0)
(2.34305e-05 -4.38899e-05 0)
(5.87862e-05 -2.98579e-05 0)
(8.34615e-05 -1.62675e-05 0)
(9.79342e-05 -3.38668e-06 0)
(0.000102901 8.442e-06 0)
(9.93248e-05 1.87778e-05 0)
(8.85005e-05 2.70529e-05 0)
(7.21169e-05 3.25462e-05 0)
(5.22806e-05 3.43744e-05 0)
(3.15376e-05 3.15214e-05 0)
(1.34191e-05 2.30197e-05 0)
(2.77563e-06 8.77459e-06 0)
(3.20767e-06 -1.69394e-05 0)
(1.47576e-05 -3.94243e-05 0)
(3.32251e-05 -5.08644e-05 0)
(5.27454e-05 -5.26272e-05 0)
(6.92121e-05 -4.6449e-05 0)
(7.97137e-05 -3.40027e-05 0)
(8.18371e-05 -1.67473e-05 0)
(7.36318e-05 4.10456e-06 0)
(5.35905e-05 2.75727e-05 0)
(2.05848e-05 5.28741e-05 0)
(-2.61955e-05 7.9387e-05 0)
(-8.7295e-05 0.000106618 0)
(-0.000163037 0.000134174 0)
(-0.000253564 0.000161742 0)
(-0.000358866 0.000189071 0)
(-0.000478809 0.000215961 0)
(-0.000613159 0.00024225 0)
(-0.000761597 0.000267807 0)
(-0.000923733 0.000292529 0)
(-0.00109912 0.000316331 0)
(-0.00128728 0.000339146 0)
(-0.00148766 0.00036092 0)
(-0.00169972 0.000381614 0)
(-0.00192288 0.000401193 0)
(-0.00215652 0.000419635 0)
(-0.00240003 0.000436922 0)
(-0.00265278 0.000453042 0)
(-0.00291414 0.00046799 0)
(-0.00318347 0.000481761 0)
(-0.00346011 0.000494358 0)
(-0.00374343 0.000505785 0)
(-0.00403278 0.000516048 0)
(-0.00432752 0.000525156 0)
(-0.00462701 0.000533121 0)
(-0.00493063 0.000539955 0)
(-0.00523774 0.000545672 0)
(-0.00554773 0.000550288 0)
(-0.00585999 0.000553819 0)
(-0.00617391 0.000556284 0)
(-0.00648891 0.0005577 0)
(-0.0068044 0.000558088 0)
(-0.00711981 0.000557466 0)
(-0.00743458 0.000555855 0)
(-0.00774816 0.000553278 0)
(-0.00806001 0.000549754 0)
(-0.00836961 0.000545305 0)
(-0.00867643 0.000539955 0)
(-0.00897997 0.000533725 0)
(-0.00927976 0.000526639 0)
(-0.0095753 0.000518718 0)
(-0.00986613 0.000509987 0)
(-0.0101518 0.000500469 0)
(-0.0104319 0.000490187 0)
(-0.0107059 0.000479164 0)
(-0.0109736 0.000467426 0)
(-0.0112344 0.000454995 0)
(-0.0114879 0.000441895 0)
(-0.0117339 0.000428151 0)
(-0.0119719 0.000413788 0)
(-0.0122017 0.000398828 0)
(-0.0124228 0.000383298 0)
(-0.0126349 0.000367221 0)
(-0.0128379 0.000350623 0)
(-0.0130313 0.000333528 0)
(-0.0132149 0.000315961 0)
(-0.0133884 0.000297948 0)
(-0.0135516 0.000279513 0)
(-0.0137043 0.000260683 0)
(-0.0138462 0.000241482 0)
(-0.0139771 0.000221937 0)
(-0.0140969 0.000202074 0)
(-0.0142054 0.000181918 0)
(-0.0143024 0.000161497 0)
(-0.0143877 0.000140836 0)
(-0.0144614 0.000119963 0)
(-0.0145231 9.89052e-05 0)
(-0.0145729 7.76889e-05 0)
(-0.0146107 5.63421e-05 0)
(-0.0146363 3.48924e-05 0)
(-0.0146498 1.33678e-05 0)
(-0.0146511 -8.2035e-06 0)
(-0.0146403 -2.9793e-05 0)
(-0.0146172 -5.1372e-05 0)
(-0.0145819 -7.29116e-05 0)
(-0.0145344 -9.43827e-05 0)
(-0.0144749 -0.000115756 0)
(-0.0144033 -0.000137001 0)
(-0.0143197 -0.000158089 0)
(-0.0142242 -0.00017899 0)
(-0.0141171 -0.000199673 0)
(-0.0139983 -0.000220107 0)
(-0.013868 -0.000240263 0)
(-0.0137264 -0.00026011 0)
(-0.0135738 -0.000279616 0)
(-0.0134102 -0.000298751 0)
(-0.0132359 -0.000317484 0)
(-0.0130512 -0.000335784 0)
(-0.0128562 -0.000353619 0)
(-0.0126514 -0.000370959 0)
(-0.0124369 -0.000387772 0)
(-0.0122131 -0.000404028 0)
(-0.0119802 -0.000419695 0)
(-0.0117387 -0.000434743 0)
(-0.0114889 -0.000449142 0)
(-0.0112312 -0.00046286 0)
(-0.010966 -0.000475869 0)
(-0.0106936 -0.000488138 0)
(-0.0104145 -0.000499638 0)
(-0.0101291 -0.00051034 0)
(-0.00983799 -0.000520216 0)
(-0.00954153 -0.000529237 0)
(-0.00924022 -0.000537376 0)
(-0.00893458 -0.000544608 0)
(-0.00862513 -0.000550904 0)
(-0.00831239 -0.000556242 0)
(-0.00799692 -0.000560594 0)
(-0.00767928 -0.00056394 0)
(-0.00736003 -0.000566255 0)
(-0.00703975 -0.000567518 0)
(-0.00671906 -0.00056771 0)
(-0.00639854 -0.000566809 0)
(-0.00607882 -0.0005648 0)
(-0.00576051 -0.000561665 0)
(-0.00544426 -0.000557389 0)
(-0.0051307 -0.000551959 0)
(-0.00482048 -0.000545363 0)
(-0.00451425 -0.000537591 0)
(-0.00421266 -0.000528636 0)
(-0.00391637 -0.000518492 0)
(-0.00362604 -0.000507156 0)
(-0.00334233 -0.000494628 0)
(-0.00306589 -0.000480909 0)
(-0.00279738 -0.000466007 0)
(-0.00253744 -0.000449929 0)
(-0.0022867 -0.000432691 0)
(-0.00204581 -0.000414309 0)
(-0.00181536 -0.000394807 0)
(-0.00159595 -0.000374216 0)
(-0.00138815 -0.00035257 0)
(-0.00119253 -0.000329917 0)
(-0.00100958 -0.000306309 0)
(-0.000839785 -0.000281813 0)
(-0.000683588 -0.00025651 0)
(-0.000541368 -0.000230496 0)
(-0.000413442 -0.000203887 0)
(-0.000300056 -0.000176827 0)
(-0.000201363 -0.000149488 0)
(-0.00011741 -0.00012208 0)
(-4.81182e-05 -9.48642e-05 0)
(6.74733e-06 -6.81594e-05 0)
(4.76044e-05 -4.23624e-05 0)
(7.5092e-05 -1.79667e-05 0)
(9.01119e-05 4.41127e-06 0)
(9.38761e-05 2.40036e-05 0)
(8.7964e-05 3.98572e-05 0)
(7.43824e-05 5.0806e-05 0)
(5.55764e-05 5.54648e-05 0)
(3.44515e-05 5.22798e-05 0)
(1.50669e-05 3.97024e-05 0)
(3.21496e-06 1.66728e-05 0)
(3.13564e-06 -2.49225e-05 0)
(1.40514e-05 -5.53806e-05 0)
(3.06883e-05 -6.92306e-05 0)
(4.68047e-05 -6.91312e-05 0)
(5.80145e-05 -5.75944e-05 0)
(6.11851e-05 -3.69211e-05 0)
(5.37072e-05 -9.11828e-06 0)
(3.3445e-05 2.41211e-05 0)
(-1.28344e-06 6.13966e-05 0)
(-5.17636e-05 0.000101563 0)
(-0.000118941 0.000143691 0)
(-0.000203467 0.000187024 0)
(-0.000305748 0.000230953 0)
(-0.000425976 0.000274981 0)
(-0.00056417 0.000318707 0)
(-0.000720196 0.000361802 0)
(-0.000893799 0.000404001 0)
(-0.00108462 0.000445086 0)
(-0.00129221 0.000484881 0)
(-0.00151604 0.000523244 0)
(-0.00175555 0.000560059 0)
(-0.00201009 0.000595232 0)
(-0.002279 0.000628691 0)
(-0.00256158 0.000660377 0)
(-0.0028571 0.000690247 0)
(-0.00316481 0.000718267 0)
(-0.00348394 0.000744413 0)
(-0.00381371 0.000768673 0)
(-0.00415334 0.000791037 0)
(-0.00450203 0.000811504 0)
(-0.004859 0.000830077 0)
(-0.00522344 0.000846766 0)
(-0.00559457 0.000861582 0)
(-0.00597159 0.000874541 0)
(-0.00635373 0.000885662 0)
(-0.0067402 0.000894966 0)
(-0.00713023 0.000902477 0)
(-0.00752308 0.000908221 0)
(-0.00791798 0.000912224 0)
(-0.0083142 0.000914517 0)
(-0.00871101 0.00091513 0)
(-0.0091077 0.000914094 0)
(-0.00950356 0.000911441 0)
(-0.00989791 0.000907206 0)
(-0.0102901 0.000901424 0)
(-0.0106794 0.000894128 0)
(-0.0110652 0.000885354 0)
(-0.0114469 0.000875141 0)
(-0.0118239 0.000863523 0)
(-0.0121955 0.000850538 0)
(-0.0125612 0.000836224 0)
(-0.0129204 0.000820619 0)
(-0.0132726 0.000803761 0)
(-0.0136172 0.000785688 0)
(-0.0139536 0.000766441 0)
(-0.0142816 0.000746056 0)
(-0.0146004 0.000724575 0)
(-0.0149096 0.000702037 0)
(-0.0152089 0.00067848 0)
(-0.0154978 0.000653946 0)
(-0.0157758 0.000628475 0)
(-0.0160425 0.000602106 0)
(-0.0162976 0.000574882 0)
(-0.0165408 0.000546841 0)
(-0.0167716 0.000518026 0)
(-0.0169897 0.000488479 0)
(-0.0171948 0.00045824 0)
(-0.0173867 0.000427351 0)
(-0.0175651 0.000395855 0)
(-0.0177297 0.000363794 0)
(-0.0178802 0.000331212 0)
(-0.0180165 0.00029815 0)
(-0.0181384 0.000264653 0)
(-0.0182456 0.000230764 0)
(-0.0183381 0.000196527 0)
(-0.0184156 0.000161987 0)
(-0.0184781 0.000127189 0)
(-0.0185255 9.21777e-05 0)
(-0.0185576 5.69989e-05 0)
(-0.0185745 2.16987e-05 0)
(-0.018576 -1.36765e-05 0)
(-0.0185622 -4.90802e-05 0)
(-0.018533 -8.44649e-05 0)
(-0.0184885 -0.000119783 0)
(-0.0184287 -0.000154987 0)
(-0.0183537 -0.000190029 0)
(-0.0182636 -0.000224859 0)
(-0.0181584 -0.00025943 0)
(-0.0180383 -0.00029369 0)
(-0.0179034 -0.000327592 0)
(-0.017754 -0.000361085 0)
(-0.0175901 -0.000394119 0)
(-0.017412 -0.000426643 0)
(-0.01722 -0.000458607 0)
(-0.0170143 -0.000489961 0)
(-0.0167951 -0.000520654 0)
(-0.0165628 -0.000550634 0)
(-0.0163177 -0.000579852 0)
(-0.0160601 -0.000608255 0)
(-0.0157905 -0.000635794 0)
(-0.0155091 -0.000662418 0)
(-0.0152164 -0.000688076 0)
(-0.0149128 -0.000712719 0)
(-0.0145988 -0.000736296 0)
(-0.0142749 -0.000758758 0)
(-0.0139415 -0.000780056 0)
(-0.0135991 -0.000800142 0)
(-0.0132484 -0.000818969 0)
(-0.0128898 -0.000836488 0)
(-0.0125239 -0.000852654 0)
(-0.0121513 -0.000867422 0)
(-0.0117726 -0.000880747 0)
(-0.0113885 -0.000892585 0)
(-0.0109996 -0.000902896 0)
(-0.0106066 -0.000911638 0)
(-0.0102101 -0.000918772 0)
(-0.00981092 -0.000924259 0)
(-0.00940968 -0.000928064 0)
(-0.00900713 -0.000930153 0)
(-0.00860403 -0.000930492 0)
(-0.00820112 -0.000929051 0)
(-0.00779918 -0.000925802 0)
(-0.00739898 -0.000920719 0)
(-0.00700131 -0.000913778 0)
(-0.00660697 -0.00090496 0)
(-0.00621675 -0.000894246 0)
(-0.00583147 -0.000881621 0)
(-0.00545194 -0.000867076 0)
(-0.00507896 -0.000850602 0)
(-0.00471337 -0.000832196 0)
(-0.00435596 -0.000811861 0)
(-0.00400755 -0.000789602 0)
(-0.00366895 -0.000765432 0)
(-0.00334093 -0.000739369 0)
(-0.0030243 -0.000711439 0)
(-0.0027198 -0.000681673 0)
(-0.00242819 -0.000650115 0)
(-0.00215018 -0.000616817 0)
(-0.00188649 -0.000581843 0)
(-0.00163775 -0.000545272 0)
(-0.00140459 -0.000507196 0)
(-0.00118758 -0.00046773 0)
(-0.00098723 -0.00042701 0)
(-0.000803987 -0.000385197 0)
(-0.000638214 -0.000342489 0)
(-0.000490182 -0.000299119 0)
(-0.000360052 -0.000255372 0)
(-0.000247855 -0.000211588 0)
(-0.000153467 -0.000168183 0)
(-7.65877e-05 -0.000125661 0)
(-1.67019e-05 -8.46384e-05 0)
(2.69514e-05 -4.58658e-05 0)
(5.54226e-05 -1.02636e-05 0)
(7.00945e-05 2.10468e-05 0)
(7.2733e-05 4.67082e-05 0)
(6.55404e-05 6.50967e-05 0)
(5.11677e-05 7.43099e-05 0)
(3.27587e-05 7.22017e-05 0)
(1.46903e-05 5.64902e-05 0)
(3.20411e-06 2.48767e-05 0)
(2.77399e-06 -3.21007e-05 0)
(1.18666e-05 -6.90707e-05 0)
(2.45629e-05 -8.36567e-05 0)
(3.47027e-05 -7.97961e-05 0)
(3.78373e-05 -6.08307e-05 0)
(3.07202e-05 -2.97167e-05 0)
(1.06438e-05 1.09819e-05 0)
(-2.46225e-05 5.90885e-05 0)
(-7.6857e-05 0.000112777 0)
(-0.000147439 0.000170531 0)
(-0.000237398 0.000231093 0)
(-0.000347459 0.000293429 0)
(-0.000478084 0.000356689 0)
(-0.000629503 0.000420171 0)
(-0.000801755 0.000483299 0)
(-0.000994707 0.000545599 0)
(-0.00120809 0.000606681 0)
(-0.0014415 0.000666224 0)
(-0.00169445 0.000723963 0)
(-0.00196636 0.000779682 0)
(-0.00225656 0.000833206 0)
(-0.00256435 0.000884391 0)
(-0.00288896 0.000933121 0)
(-0.00322958 0.000979306 0)
(-0.00358538 0.00102287 0)
(-0.00395547 0.00106377 0)
(-0.00433899 0.00110196 0)
(-0.00473501 0.0011374 0)
(-0.00514262 0.0011701 0)
(-0.0055609 0.00120003 0)
(-0.00598892 0.00122721 0)
(-0.00642573 0.00125163 0)
(-0.00687042 0.00127332 0)
(-0.00732205 0.00129229 0)
(-0.0077797 0.00130857 0)
(-0.00824244 0.00132219 0)
(-0.00870938 0.00133318 0)
(-0.00917961 0.00134158 0)
(-0.00965225 0.00134742 0)
(-0.0101264 0.00135075 0)
(-0.0106012 0.0013516 0)
(-0.0110759 0.00135003 0)
(-0.0115495 0.00134608 0)
(-0.0120213 0.0013398 0)
(-0.0124904 0.00133124 0)
(-0.0129562 0.00132045 0)
(-0.0134177 0.00130749 0)
(-0.0138743 0.00129239 0)
(-0.0143252 0.00127523 0)
(-0.0147697 0.00125605 0)
(-0.0152071 0.00123491 0)
(-0.0156367 0.00121186 0)
(-0.0160579 0.00118696 0)
(-0.0164701 0.00116027 0)
(-0.0168725 0.00113184 0)
(-0.0172647 0.00110173 0)
(-0.017646 0.00107 0)
(-0.0180159 0.00103671 0)
(-0.0183738 0.00100191 0)
(-0.0187192 0.000965675 0)
(-0.0190517 0.000928049 0)
(-0.0193706 0.000889098 0)
(-0.0196757 0.000848881 0)
(-0.0199664 0.00080746 0)
(-0.0202424 0.000764893 0)
(-0.0205032 0.000721244 0)
(-0.0207485 0.000676573 0)
(-0.0209779 0.000630943 0)
(-0.0211912 0.000584415 0)
(-0.0213879 0.000537054 0)
(-0.0215678 0.000488922 0)
(-0.0217307 0.000440082 0)
(-0.0218764 0.0003906 0)
(-0.0220045 0.000340541 0)
(-0.022115 0.000289968 0)
(-0.0222076 0.00023895 0)
(-0.0222822 0.000187551 0)
(-0.0223387 0.000135839 0)
(-0.022377 8.38809e-05 0)
(-0.022397 3.17456e-05 0)
(-0.0223987 -2.04987e-05 0)
(-0.022382 -7.27828e-05 0)
(-0.022347 -0.000125037 0)
(-0.0222937 -0.00017719 0)
(-0.022222 -0.000229173 0)
(-0.0221322 -0.000280913 0)
(-0.0220243 -0.000332338 0)
(-0.0218984 -0.000383377 0)
(-0.0217546 -0.000433956 0)
(-0.0215932 -0.000484002 0)
(-0.0214144 -0.000533442 0)
(-0.0212183 -0.000582201 0)
(-0.0210053 -0.000630206 0)
(-0.0207756 -0.000677381 0)
(-0.0205295 -0.000723653 0)
(-0.0202674 -0.000768946 0)
(-0.0199896 -0.000813185 0)
(-0.0196965 -0.000856296 0)
(-0.0193884 -0.000898203 0)
(-0.019066 -0.000938833 0)
(-0.0187295 -0.00097811 0)
(-0.0183795 -0.00101596 0)
(-0.0180165 -0.00105231 0)
(-0.0176411 -0.00108709 0)
(-0.0172538 -0.00112022 0)
(-0.0168552 -0.00115163 0)
(-0.0164459 -0.00118126 0)
(-0.0160266 -0.00120902 0)
(-0.0155978 -0.00123486 0)
(-0.0151604 -0.00125871 0)
(-0.014715 -0.00128049 0)
(-0.0142623 -0.00130015 0)
(-0.0138031 -0.00131762 0)
(-0.0133381 -0.00133284 0)
(-0.0128682 -0.00134575 0)
(-0.0123942 -0.00135629 0)
(-0.0119169 -0.00136441 0)
(-0.0114371 -0.00137006 0)
(-0.0109558 -0.00137318 0)
(-0.0104737 -0.00137373 0)
(-0.00999185 -0.00137167 0)
(-0.00951107 -0.00136696 0)
(-0.00903233 -0.00135955 0)
(-0.00855653 -0.00134942 0)
(-0.00808463 -0.00133654 0)
(-0.00761758 -0.00132088 0)
(-0.00715632 -0.00130242 0)
(-0.00670181 -0.00128116 0)
(-0.00625503 -0.00125707 0)
(-0.00581691 -0.00123017 0)
(-0.00538842 -0.00120046 0)
(-0.00497051 -0.00116794 0)
(-0.00456412 -0.00113264 0)
(-0.00417017 -0.00109459 0)
(-0.00378958 -0.00105384 0)
(-0.00342323 -0.00101043 0)
(-0.00307199 -0.000964433 0)
(-0.0027367 -0.000915929 0)
(-0.00241816 -0.00086502 0)
(-0.00211712 -0.000811825 0)
(-0.0018343 -0.000756488 0)
(-0.00157033 -0.000699182 0)
(-0.00132579 -0.000640112 0)
(-0.00110118 -0.000579521 0)
(-0.000896909 -0.0005177 0)
(-0.000713261 -0.000454995 0)
(-0.000550403 -0.00039182 0)
(-0.000408352 -0.000328669 0)
(-0.000286953 -0.000266133 0)
(-0.000185852 -0.000204925 0)
(-0.000104467 -0.0001459 0)
(-4.19518e-05 -9.00865e-05 0)
(2.8407e-06 -3.87226e-05 0)
(3.13994e-05 6.70692e-06 0)
(4.56002e-05 4.4433e-05 0)
(4.77537e-05 7.23681e-05 0)
(4.0624e-05 8.80797e-05 0)
(2.74888e-05 8.8797e-05 0)
(1.28338e-05 7.14376e-05 0)
(2.90095e-06 3.24513e-05 0)
(2.22994e-06 -3.78333e-05 0)
(8.64138e-06 -7.89838e-05 0)
(1.57675e-05 -9.20977e-05 0)
(1.78791e-05 -8.22518e-05 0)
(1.06538e-05 -5.35937e-05 0)
(-9.17126e-06 -9.72924e-06 0)
(-4.43204e-05 4.62283e-05 0)
(-9.70466e-05 0.000111625 0)
(-0.000169162 0.000184213 0)
(-0.000262084 0.000262102 0)
(-0.000376885 0.000343707 0)
(-0.000514329 0.000427703 0)
(-0.000674905 0.000512987 0)
(-0.000858866 0.000598639 0)
(-0.00106626 0.000683893 0)
(-0.00129694 0.000768112 0)
(-0.00155064 0.000850768 0)
(-0.00182691 0.000931421 0)
(-0.00212522 0.00100971 0)
(-0.00244494 0.00108532 0)
(-0.00278534 0.00115802 0)
(-0.00314563 0.00122759 0)
(-0.00352497 0.00129388 0)
(-0.00392245 0.00135675 0)
(-0.00433713 0.00141609 0)
(-0.00476805 0.00147183 0)
(-0.0052142 0.00152389 0)
(-0.00567456 0.00157225 0)
(-0.0061481 0.00161687 0)
(-0.00663376 0.00165774 0)
(-0.00713049 0.00169485 0)
(-0.00763724 0.00172821 0)
(-0.00815293 0.00175783 0)
(-0.00867652 0.00178375 0)
(-0.00920695 0.00180599 0)
(-0.00974317 0.00182458 0)
(-0.0102841 0.00183958 0)
(-0.0108288 0.00185102 0)
(-0.0113762 0.00185895 0)
(-0.0119253 0.00186344 0)
(-0.0124751 0.00186453 0)
(-0.0130247 0.00186229 0)
(-0.013573 0.00185679 0)
(-0.0141191 0.00184807 0)
(-0.0146622 0.00183622 0)
(-0.0152013 0.00182131 0)
(-0.0157354 0.00180339 0)
(-0.0162639 0.00178255 0)
(-0.0167857 0.00175886 0)
(-0.0173001 0.00173238 0)
(-0.0178063 0.00170321 0)
(-0.0183035 0.0016714 0)
(-0.0187909 0.00163705 0)
(-0.0192678 0.00160022 0)
(-0.0197335 0.001561 0)
(-0.0201873 0.00151946 0)
(-0.0206285 0.00147569 0)
(-0.0210564 0.00142976 0)
(-0.0214705 0.00138176 0)
(-0.0218702 0.00133176 0)
(-0.0222548 0.00127986 0)
(-0.0226238 0.00122612 0)
(-0.0229767 0.00117064 0)
(-0.0233131 0.00111349 0)
(-0.0236323 0.00105476 0)
(-0.023934 0.000994546 0)
(-0.0242177 0.000932917 0)
(-0.0244831 0.000869966 0)
(-0.0247297 0.000805777 0)
(-0.0249572 0.000740438 0)
(-0.0251653 0.000674037 0)
(-0.0253537 0.000606661 0)
(-0.025522 0.0005384 0)
(-0.0256702 0.000469343 0)
(-0.0257978 0.000399581 0)
(-0.0259048 0.000329204 0)
(-0.025991 0.000258305 0)
(-0.0260563 0.000186976 0)
(-0.0261004 0.000115311 0)
(-0.0261235 4.34025e-05 0)
(-0.0261253 -2.86534e-05 0)
(-0.0261058 -0.000100761 0)
(-0.0260652 -0.000172825 0)
(-0.0260033 -0.000244748 0)
(-0.0259203 -0.000316431 0)