/*--------------------------------*- C++ -*----------------------------------*\
  =========                 |
  \\      /  F ield         | OpenFOAM: The Open Source CFD Toolbox
   \\    /   O peration     | Website:  https://openfoam.org
    \\  /    A nd           | Version:  7
     \\/     M anipulation  |
\*---------------------------------------------------------------------------*/
FoamFile
{
    version     2.0;
    format      ascii;
    class       volScalarField;
    location    "0.4875";
    object      p;
}
// * * * * * * * * * * * * * * * * * * * * * * * * * * * * * * * * * * * * * //

dimensions      [0 2 -2 0 0 0 0];

internalField   nonuniform List<scalar> 
25600
(
-3.1897e-09
2.14345e-05
2.41355e-05
-2.02624e-06
-5.80029e-05
-0.000142405
-0.00025258
-0.00038528
-0.000537145
-0.000704939
-0.000885622
-0.00107639
-0.00127467
-0.00147814
-0.00168467
-0.00189233
-0.0020994
-0.00230429
-0.00250561
-0.00270207
-0.00289254
-0.00307598
-0.00325148
-0.00341824
-0.00357551
-0.00372267
-0.00385913
-0.0039844
-0.00409803
-0.00419966
-0.00428893
-0.00436557
-0.00442934
-0.00448004
-0.0045175
-0.00454159
-0.0045522
-0.00454928
-0.00453277
-0.00450265
-0.00445893
-0.0044016
-0.00433072
-0.00424633
-0.00414852
-0.00403736
-0.00391297
-0.00377545
-0.00362493
-0.00346155
-0.00328545
-0.00309681
-0.00289579
-0.00268259
-0.00245742
-0.00222047
-0.00197199
-0.00171221
-0.00144139
-0.00115979
-0.000867705
-0.000565415
-0.000253236
6.8514e-05
0.000399505
0.00073939
0.00108781
0.00144437
0.00180869
0.00218034
0.0025589
0.00294393
0.00333495
0.0037315
0.00413308
0.0045392
0.00494932
0.00536292
0.00577944
0.00619832
0.00661897
0.00704082
0.00746325
0.00788565
0.0083074
0.00872786
0.00914639
0.00956234
0.00997506
0.0103839
0.0107881
0.0111871
0.0115802
0.0119667
0.012346
0.0127174
0.0130802
0.0134338
0.0137776
0.014111
0.0144333
0.014744
0.0150424
0.0153281
0.0156005
0.0158591
0.0161035
0.016333
0.0165474
0.0167463
0.0169292
0.0170959
0.0172461
0.0173795
0.0174959
0.0175951
0.0176772
0.0177419
0.0177892
0.0178192
0.017832
0.0178277
0.0178064
0.0177685
0.0177141
0.0176437
0.0175577
0.0174564
0.0173405
0.0172105
0.017067
0.0169108
0.0167426
0.0165632
0.0163736
0.0161746
0.0159674
0.015753
0.0155326
0.0153074
0.0150788
0.0148482
0.014617
0.0143868
0.0141594
0.0139364
0.0137197
0.0135114
0.0133134
0.0131281
0.0129576
0.0128043
0.0126708
0.0125594
0.0124723
0.0124115
0.0123777
0.0123701
0.0123848
0.01241
-2.12853e-05
1.69614e-07
-1.49733e-06
-2.928e-05
-8.18941e-05
-0.000158572
-0.000257641
-0.000376722
-0.000513195
-0.000664413
-0.000827802
-0.00100091
-0.00118145
-0.00136728
-0.00155647
-0.0017472
-0.00193785
-0.00212692
-0.00231306
-0.00249501
-0.00267168
-0.00284207
-0.00300527
-0.00316048
-0.00330697
-0.00344408
-0.00357125
-0.00368798
-0.00379381
-0.00388835
-0.00397125
-0.00404221
-0.00410099
-0.00414736
-0.00418114
-0.0042022
-0.00421041
-0.00420569
-0.00418798
-0.00415725
-0.00411347
-0.00405666
-0.00398682
-0.00390402
-0.0038083
-0.00369975
-0.00357846
-0.00344452
-0.00329807
-0.00313922
-0.00296811
-0.0027849
-0.00258976
-0.00238287
-0.00216443
-0.00193463
-0.00169369
-0.00144186
-0.00117938
-0.000906498
-0.000623502
-0.000330672
-2.8308e-05
0.00028328
0.000603771
0.000932827
0.0012701
0.00161521
0.00196778
0.0023274
0.00269366
0.00306611
0.00344432
0.00382783
0.00421615
0.0046088
0.00500527
0.00540505
0.0058076
0.00621238
0.00661883
0.00702637
0.00743443
0.00784241
0.00824972
0.00865573
0.00905983
0.0094614
0.00985979
0.0102544
0.0106445
0.0110296
0.0114089
0.0117819
0.0121478
0.0125062
0.0128562
0.0131974
0.0135291
0.0138507
0.0141617
0.0144614
0.0147495
0.0150252
0.0152882
0.0155379
0.0157739
0.0159958
0.0162031
0.0163955
0.0165726
0.0167342
0.01688
0.0170097
0.0171232
0.0172203
0.017301
0.0173651
0.0174126
0.0174436
0.0174582
0.0174566
0.0174388
0.0174051
0.0173559
0.0172915
0.0172122
0.0171185
0.017011
0.0168902
0.0167567
0.0166112
0.0164545
0.0162873
0.0161106
0.0159252
0.0157322
0.0155326
0.0153276
0.0151182
0.0149059
0.014692
0.0144778
0.0142648
0.0140547
0.0138491
0.0136497
0.0134583
0.0132768
0.0131073
0.0129516
0.0128118
0.01269
0.0125879
0.0125074
0.0124495
0.0124146
0.0124017
0.0124101
0.0124353
-2.38003e-05
2.03124e-06
3.50123e-07
-2.733e-05
-7.74156e-05
-0.000148974
-0.000240626
-0.000350387
-0.000476058
-0.000615375
-0.000766102
-0.000926065
-0.0010932
-0.00126558
-0.00144137
-0.00161892
-0.00179667
-0.00197321
-0.00214723
-0.00231757
-0.00248313
-0.00264295
-0.00279614
-0.00294192
-0.00307957
-0.00320843
-0.00332795
-0.00343761
-0.00353696
-0.00362561
-0.0037032
-0.00376941
-0.00382401
-0.00386674
-0.00389744
-0.00391594
-0.00392212
-0.00391588
-0.00389715
-0.00386589
-0.00382206
-0.00376567
-0.00369671
-0.00361524
-0.0035213
-0.00341496
-0.00329631
-0.00316542
-0.00302242
-0.00286742
-0.00270055
-0.00252197
-0.00233183
-0.0021303
-0.00191758
-0.00169386
-0.00145936
-0.00121429
-0.000958902
-0.000693445
-0.000418185
-0.000133399
0.000160623
0.000463578
0.000775153
0.00109502
0.00142283
0.00175823
0.00210085
0.00245027
0.00280611
0.00316793
0.0035353
0.00390778
0.0042849
0.00466619
0.00505115
0.00543929
0.00583008
0.00622299
0.00661749
0.00701301
0.007409
0.00780488
0.00820006
0.00859396
0.00898598
0.00937551
0.00976193
0.0101446
0.010523
0.0108965
0.0112643
0.0116259
0.0119808
0.0123282
0.0126676
0.0129984
0.01332
0.0136319
0.0139335
0.0142242
0.0145036
0.0147711
0.0150263
0.0152686
0.0154978
0.0157132
0.0159146
0.0161017
0.016274
0.0164314
0.0165735
0.0167002
0.0168113
0.0169066
0.016986
0.0170496
0.0170973
0.0171291
0.0171452
0.0171457
0.0171307
0.0171005
0.0170555
0.0169959
0.0169221
0.0168346
0.0167339
0.0166206
0.0164952
0.0163584
0.016211
0.0160537
0.0158874
0.0157129
0.0155313
0.0153436
0.0151508
0.0149541
0.0147548
0.014554
0.0143533
0.0141538
0.0139573
0.0137651
0.013579
0.0134006
0.0132316
0.0130739
0.0129291
0.0127991
0.0126856
0.0125902
0.0125143
0.0124589
0.0124242
0.01241
0.0124184
0.01245
2.50222e-06
3.0001e-05
2.81955e-05
4.75978e-07
-4.82883e-05
-0.000116842
-0.000203809
-0.000307364
-0.000425537
-0.000556319
-0.000697716
-0.000847775
-0.00100463
-0.00116649
-0.0013317
-0.00149869
-0.00166602
-0.00183233
-0.00199641
-0.00215711
-0.00231341
-0.00246435
-0.0026091
-0.00274689
-0.002877
-0.00299882
-0.00311176
-0.00321533
-0.00330909
-0.00339262
-0.00346559
-0.00352768
-0.00357861
-0.00361817
-0.00364616
-0.00366241
-0.0036668
-0.00365923
-0.0036396
-0.00360787
-0.00356401
-0.00350799
-0.00343982
-0.00335954
-0.00326719
-0.00316282
-0.00304652
-0.00291836
-0.00277845
-0.0026269
-0.00246383
-0.00228938
-0.00210372
-0.001907
-0.00169941
-0.00148113
-0.00125238
-0.00101337
-0.000764327
-0.000505506
-0.000237162
4.04333e-05
0.000327
0.000622245
0.00092586
0.00123753
0.00155691
0.00188366
0.0022174
0.00255776
0.00290433
0.0032567
0.00361446
0.00397715
0.00434434
0.00471556
0.00509033
0.00546817
0.00584857
0.00623101
0.00661495
0.00699988
0.00738524
0.00777047
0.008155
0.00853825
0.00891966
0.00929862
0.00967455
0.0100469
0.0104149
0.0107782
0.011136
0.0114877
0.0118329
0.0121708
0.012501
0.0128227
0.0131356
0.013439
0.0137324
0.0140152
0.0142871
0.0145475
0.0147958
0.0150318
0.015255
0.0154649
0.0156612
0.0158436
0.0160118
0.0161655
0.0163045
0.0164285
0.0165374
0.0166311
0.0167096
0.0167727
0.0168204
0.0168529
0.0168702
0.0168724
0.0168598
0.0168326
0.0167911
0.0167356
0.0166665
0.0165842
0.0164892
0.0163821
0.0162635
0.0161341
0.0159945
0.0158454
0.0156878
0.0155225
0.0153504
0.0151725
0.0149899
0.0148037
0.014615
0.0144251
0.0142352
0.0140467
0.0138611
0.0136797
0.0135041
0.0133358
0.0131764
0.0130276
0.012891
0.0127682
0.0126607
0.0125699
0.0124973
0.0124437
0.0124097
0.0123955
0.0124055
0.0124426
5.85959e-05
8.2832e-05
7.84756e-05
4.93143e-05
4.57604e-07
-6.66564e-05
-0.00015064
-0.000249781
-0.000362289
-0.000486365
-0.000620215
-0.000762079
-0.000910261
-0.00106314
-0.00121917
-0.00137691
-0.00153501
-0.0016922
-0.00184732
-0.0019993
-0.00214716
-0.00229
-0.00242699
-0.00255739
-0.00268052
-0.00279577
-0.00290257
-0.00300045
-0.00308895
-0.00316767
-0.00323628
-0.00329445
-0.00334193
-0.00337847
-0.00340389
-0.00341802
-0.00342071
-0.00341186
-0.00339139
-0.00335922
-0.00331533
-0.00325969
-0.0031923
-0.00311319
-0.00302239
-0.00291995
-0.00280594
-0.00268044
-0.00254354
-0.00239534
-0.00223597
-0.00206555
-0.00188425
-0.00169221
-0.00148961
-0.00127663
-0.00105348
-0.000820357
-0.000577492
-0.000325124
-6.35018e-05
0.00020711
0.000486436
0.000774194
0.00107009
0.0013738
0.00168502
0.00200338
0.00232854
0.00266012
0.00299773
0.00334096
0.00368943
0.00404268
0.00440029
0.00476181
0.00512677
0.00549469
0.00586509
0.00623746
0.00661128
0.00698603
0.00736119
0.00773621
0.00811053
0.0084836
0.00885485
0.00922372
0.00958962
0.00995199
0.0103102
0.0106638
0.011012
0.0113544
0.0116903
0.0120192
0.0123405
0.0126537
0.0129582
0.0132536
0.0135392
0.0138147
0.0140794
0.014333
0.0145749
0.0148048
0.0150223
0.015227
0.0154185
0.0155965
0.0157608
0.015911
0.0160469
0.0161684
0.0162754
0.0163676
0.016445
0.0165076
0.0165554
0.0165884
0.0166068
0.0166107
0.0166002
0.0165757
0.0165374
0.0164857
0.0164208
0.0163433
0.0162537
0.0161524
0.01604
0.0159173
0.0157848
0.0156433
0.0154936
0.0153366
0.0151732
0.0150043
0.0148309
0.0146541
0.0144749
0.0142947
0.0141146
0.0139358
0.0137597
0.0135877
0.0134212
0.0132616
0.0131104
0.0129691
0.0128392
0.0127221
0.0126193
0.0125321
0.0124617
0.0124092
0.0123753
0.0123607
0.0123707
0.0124091
0.000143238
0.000159861
0.000150343
0.000118007
6.745e-05
1.64477e-07
-8.24859e-05
-0.000178904
-0.00028746
-0.00040653
-0.000534498
-0.000669778
-0.000810829
-0.000956172
-0.0011044
-0.00125417
-0.00140423
-0.0015534
-0.00170058
-0.00184478
-0.00198506
-0.00212056
-0.0022505
-0.00237416
-0.00249089
-0.00260009
-0.00270123
-0.00279383
-0.00287744
-0.00295169
-0.00301623
-0.00307075
-0.00311498
-0.0031487
-0.00317171
-0.00318383
-0.00318493
-0.0031749
-0.00315364
-0.00312109
-0.0030772
-0.00302195
-0.00295533
-0.00287736
-0.00278807
-0.0026875
-0.00257572
-0.0024528
-0.00231882
-0.00217388
-0.00201809
-0.00185159
-0.0016745
-0.00148699
-0.00128923
-0.00108138
-0.00086365
-0.00063623
-0.000399339
-0.000153211
0.000101915
0.000365781
0.000638116
0.000918648
0.00120709
0.00150314
0.00180648
0.00211677
0.00243367
0.0027568
0.00308579
0.00342026
0.0037598
0.004104
0.00445242
0.00480465
0.00516022
0.00551866
0.0058795
0.00624224
0.0066064
0.00697145
0.00733689
0.00770218
0.00806679
0.00843017
0.00879178
0.00915105
0.00950744
0.00986038
0.0102093
0.0105536
0.0108928
0.0112263
0.0115535
0.0118739
0.0121869
0.012492
0.0127887
0.0130764
0.0133548
0.0136232
0.0138812
0.0141284
0.0143643
0.0145885
0.0148007
0.0150004
0.0151874
0.0153613
0.0155218
0.0156688
0.0158019
0.015921
0.016026
0.0161167
0.0161932
0.0162553
0.0163031
0.0163366
0.016356
0.0163613
0.0163528
0.0163307
0.0162954
0.016247
0.0161861
0.0161129
0.0160281
0.015932
0.0158253
0.0157087
0.0155826
0.015448
0.0153055
0.015156
0.0150003
0.0148394
0.0146743
0.0145058
0.0143352
0.0141635
0.0139919
0.0138216
0.0136539
0.0134899
0.0133312
0.0131789
0.0130344
0.0128992
0.0127746
0.012662
0.0125626
0.0124777
0.0124085
0.0123562
0.0123214
0.0123053
0.012313
0.0123489
0.000253941
0.00025955
0.000242536
0.00020529
0.000151408
8.23454e-05
-5.72975e-07
-9.58888e-05
-0.000202124
-0.000317811
-0.000441496
-0.000571744
-0.000707158
-0.000846397
-0.000988171
-0.00113124
-0.00127446
-0.00141672
-0.00155701
-0.00169438
-0.00182796
-0.00195694
-0.00208058
-0.00219818
-0.00230913
-0.00241285
-0.00250883
-0.0025966
-0.00267575
-0.00274588
-0.00280668
-0.00285783
-0.00289907
-0.00293018
-0.00295096
-0.00296124
-0.00296088
-0.00294976
-0.00292779
-0.0028949
-0.00285105
-0.0027962
-0.00273034
-0.00265349
-0.00256568
-0.00246693
-0.00235731
-0.00223688
-0.00210572
-0.00196392
-0.00181159
-0.00164884
-0.00147582
-0.00129268
-0.00109956
-0.000896652
-0.000684126
-0.000462183
-0.000231028
9.11304e-06
0.000258003
0.000515397
0.000781033
0.00105464
0.00133595
0.00162467
0.00192048
0.00222305
0.00253205
0.00284713
0.0031679
0.00349401
0.00382505
0.00416062
0.00450032
0.00484372
0.00519036
0.0055398
0.00589158
0.00624521
0.00660022
0.0069561
0.00731235
0.00766845
0.0080239
0.00837814
0.00873066
0.00908091
0.00942834
0.00977242
0.0101126
0.0104483
0.010779
0.0111041
0.0114232
0.0117355
0.0120408
0.0123383
0.0126277
0.0129084
0.0131799
0.0134417
0.0136935
0.0139347
0.014165
0.0143839
0.0145911
0.0147863
0.014969
0.0151391
0.0152961
0.01544
0.0155705
0.0156874
0.0157905
0.0158799
0.0159554
0.016017
0.0160648
0.0160987
0.0161189
0.0161255
0.0161188
0.0160989
0.0160661
0.0160208
0.0159633
0.0158941
0.0158135
0.0157221
0.0156205
0.0155093
0.015389
0.0152605
0.0151244
0.0149815
0.0148327
0.0146789
0.0145209
0.0143598
0.0141966
0.0140323
0.013868
0.013705
0.0135442
0.013387
0.0132347
0.0130883
0.0129492
0.0128188
0.0126981
0.0125886
0.0124914
0.0124076
0.0123385
0.0122851
0.0122484
0.0122293
0.0122329
0.0122628
0.000387648
0.000379676
0.000353198
0.000309438
0.000250717
0.000178395
9.3735e-05
-1.95164e-06
-0.000107338
-0.000221106
-0.000341944
-0.000468566
-0.000599707
-0.000734145
-0.000870708
-0.00100826
-0.00114574
-0.00128214
-0.00141651
-0.00154796
-0.00167568
-0.00179892
-0.00191696
-0.00202916
-0.00213493
-0.00223372
-0.00232504
-0.00240844
-0.00248351
-0.00254989
-0.00260726
-0.00265533
-0.00269383
-0.00272255
-0.00274129
-0.00274988
-0.00274819
-0.00273609
-0.00271349
-0.00268033
-0.00263655
-0.00258213
-0.00251704
-0.00244129
-0.00235491
-0.00225794
-0.00215041
-0.00203239
-0.00190396
-0.00176519
-0.00161619
-0.00145708
-0.00128798
-0.00110903
-0.000920392
-0.000722228
-0.00051471
-0.000298027
-7.2381e-05
0.000162012
0.000404922
0.000656108
0.000915321
0.00118231
0.00145679
0.00173849
0.0020271
0.0023223
0.00262377
0.00293116
0.0032441
0.00356224
0.00388519
0.00421257
0.00454397
0.00487898
0.00521716
0.00555807
0.00590127
0.00624627
0.00659262
0.00693983
0.00728741
0.00763486
0.00798166
0.0083273
0.00867126
0.00901302
0.00935205
0.00968781
0.0100198
0.0103474
0.0106701
0.0109875
0.0112989
0.0116038
0.0119018
0.0121922
0.0124748
0.0127488
0.013014
0.0132698
0.0135157
0.0137514
0.0139764
0.0141904
0.014393
0.0145839
0.0147627
0.0149292
0.015083
0.015224
0.015352
0.0154668
0.0155683
0.0156564
0.015731
0.0157921
0.0158397
0.0158739
0.0158948
0.0159026
0.0158974
0.0158794
0.0158489
0.0158064
0.015752
0.0156862
0.0156094
0.0155222
0.0154251
0.0153186
0.0152035
0.0150803
0.0149498
0.0148128
0.01467
0.0145223
0.0143706
0.0142158
0.0140589
0.0139009
0.0137429
0.0135859
0.013431
0.0132793
0.0131321
0.0129904
0.0128555
0.0127285
0.0126106
0.0125029
0.0124067
0.0123229
0.0122527
0.0121972
0.0121572
0.0121339
0.0121314
0.0121526
0.000541219
0.000517794
0.000480273
0.000428614
0.000363704
0.000286791
0.000199064
0.000101682
-4.17615e-06
-0.000117337
-0.000236624
-0.000360888
-0.000488985
-0.000619812
-0.0007523
-0.000885419
-0.00101819
-0.00114969
-0.00127905
-0.00140543
-0.00152809
-0.00164631
-0.00175944
-0.00186687
-0.00196803
-0.00206241
-0.00214955
-0.00222901
-0.00230041
-0.0023634
-0.00241766
-0.00246291
-0.00249893
-0.00252547
-0.00254236
-0.00254943
-0.00254654
-0.00253357
-0.00251044
-0.00247707
-0.00243342
-0.00237944
-0.00231512
-0.00224048
-0.00215551
-0.00206026
-0.00195478
-0.0018391
-0.0017133
-0.00157747
-0.00143169
-0.00127607
-0.00111075
-0.00093585
-0.000751522
-0.000557923
-0.000355221
-0.000143594
7.67626e-05
0.000305637
0.000542809
0.000788047
0.00104111
0.00130175
0.0015697
0.00184469
0.00212642
0.00241459
0.00270887
0.00300893
0.00331441
0.00362497
0.00394023
0.00425982
0.00458334
0.00491039
0.00524055
0.00557338
0.00590845
0.00624531
0.00658348
0.00692251
0.00726191
0.00760119
0.00793985
0.00827741
0.00861333
0.00894712
0.00927826
0.00960622
0.00993049
0.0102505
0.0105658
0.0108759
0.0111802
0.0114781
0.0117693
0.0120533
0.0123294
0.0125974
0.0128566
0.0131067
0.0133472
0.0135778
0.013798
0.0140074
0.0142057
0.0143926
0.0145678
0.0147309
0.0148818
0.0150201
0.0151458
0.0152587
0.0153585
0.0154454
0.0155191
0.0155797
0.0156272
0.0156616
0.0156831
0.0156918
0.0156879
0.0156716
0.0156432
0.015603
0.0155513
0.0154886
0.0154152
0.0153316
0.0152385
0.0151362
0.0150256
0.0149071
0.0147814
0.0146494
0.0145118
0.0143695
0.0142231
0.0140737
0.0139222
0.0137695
0.0136167
0.0134646
0.0133144
0.0131672
0.0130239
0.0128858
0.0127538
0.0126291
0.0125128
0.0124059
0.0123095
0.0122246
0.0121522
0.0120934
0.0120491
0.0120202
0.01201
0.0120205
0.00071164
0.000671436
0.000621652
0.000560945
0.000488684
0.000406008
0.00031404
0.000213784
0.000106272
-7.45758e-06
-0.000126361
-0.000249411
-0.000375585
-0.000503882
-0.000633341
-0.000763023
-0.000892042
-0.00101955
-0.00114474
-0.00126686
-0.0013852
-0.00149911
-0.00160797
-0.00171122
-0.00180833
-0.00189882
-0.00198223
-0.00205818
-0.00212629
-0.00218623
-0.0022377
-0.00228043
-0.0023142
-0.00233879
-0.00235402
-0.00235972
-0.00235577
-0.00234206
-0.00231848
-0.00228498
-0.0022415
-0.002188
-0.00212448
-0.00205092
-0.00196735
-0.0018738
-0.00177029
-0.00165689
-0.00153366
-0.00140066
-0.00125799
-0.00110576
-0.000944071
-0.000773069
-0.000592892
-0.000403685
-0.000205609
1.16006e-06
0.000216438
0.000440019
0.00067169
0.00091123
0.0011584
0.00141297
0.00167468
0.00194327
0.00221844
0.0024999
0.00278733
0.0030804
0.00337878
0.00368213
0.00399009
0.00430229
0.00461834
0.00493786
0.00526042
0.00558561
0.00591301
0.00624216
0.00657263
0.00690395
0.00723565
0.00756725
0.00789828
0.00822823
0.00855662
0.00888295
0.0092067
0.00952737
0.00984446
0.0101574
0.0104658
0.0107691
0.0110667
0.0113582
0.0116431
0.011921
0.0121912
0.0124535
0.0127072
0.0129521
0.0131876
0.0134134
0.0136291
0.0138343
0.0140287
0.0142119
0.0143837
0.0145438
0.0146918
0.0148277
0.0149513
0.0150623
0.0151607
0.0152464
0.0153192
0.0153793
0.0154266
0.0154612
0.0154832
0.0154927
0.01549
0.0154751
0.0154485
0.0154103
0.015361
0.0153009
0.0152304
0.0151501
0.0150603
0.0149617
0.0148549
0.0147404
0.014619
0.0144914
0.0143582
0.0142203
0.0140785
0.0139336
0.0137865
0.0136382
0.0134895
0.0133414
0.0131949
0.013051
0.0129107
0.012775
0.0126449
0.0125214
0.0124056
0.0122984
0.0122008
0.0121138
0.0120382
0.0119751
0.0119253
0.0118897
0.0118705
0.0118687
0.000896092
0.000838206
0.000775241
0.000704556
0.000623973
0.000534531
0.000437297
0.000333131
0.000222914
0.000107563
-1.20053e-05
-0.000134871
-0.000260131
-0.000386886
-0.000514272
-0.000641439
-0.000767585
-0.000891937
-0.00101376
-0.00113236
-0.00124709
-0.00135734
-0.00146255
-0.0015622
-0.00165579
-0.00174286
-0.00182301
-0.00189585
-0.00196105
-0.00201828
-0.00206726
-0.00210775
-0.00213952
-0.00216237
-0.00217613
-0.00218064
-0.00217578
-0.00216143
-0.0021375
-0.00210395
-0.00206069
-0.00200772
-0.001945
-0.00187254
-0.00179035
-0.00169846
-0.00159689
-0.00148571
-0.00136495
-0.00123471
-0.00109504
-0.000946071
-0.000787901
-0.000620654
-0.00044447
-0.000259486
-6.58552e-05
0.000136251
0.000346656
0.000565164
0.000791566
0.00102565
0.00126719
0.00151597
0.00177172
0.00203419
0.0023031
0.00257816
0.00285907
0.00314551
0.00343715
0.00373366
0.00403469
0.00433988
0.00464886
0.00496125
0.00527663
0.00559461
0.00591477
0.00623668
0.00655989
0.00688396
0.00720843
0.00753283
0.00785669
0.00817954
0.00850088
0.00882022
0.00913708
0.00945096
0.00976135
0.0100678
0.0103697
0.0106666
0.0109581
0.0112436
0.0115227
0.0117949
0.0120597
0.0123167
0.0125654
0.0128055
0.0130364
0.0132578
0.0134694
0.0136707
0.0138614
0.0140413
0.01421
0.0143672
0.0145127
0.0146463
0.0147679
0.0148772
0.0149742
0.0150588
0.0151309
0.0151904
0.0152375
0.0152722
0.0152946
0.0153048
0.0153029
0.0152893
0.0152642
0.0152278
0.0151805
0.0151227
0.0150547
0.0149771
0.0148903
0.0147948
0.0146913
0.0145802
0.0144623
0.0143383
0.0142088
0.0140747
0.0139366
0.0137954
0.0136519
0.013507
0.0133615
0.0132165
0.0130727
0.0129311
0.0127928
0.0126585
0.0125293
0.0124061
0.0122898
0.0121813
0.0120816
0.0119914
0.0119118
0.0118434
0.0117872
0.011744
0.0117147
0.0116994
0.00109198
0.00101583
0.000939017
0.000857617
0.00076791
0.000670858
0.000567478
0.000458494
0.000344652
0.000226748
0.000105586
-1.80278e-05
-0.000143285
-0.000269393
-0.000395576
-0.000521071
-0.000645153
-0.000767122
-0.000886312
-0.00100209
-0.00111387
-0.00122109
-0.00132324
-0.00141982
-0.00151039
-0.00159453
-0.00167184
-0.00174197
-0.00180461
-0.00185947
-0.00190627
-0.00194478
-0.0019748
-0.00199613
-0.00200861
-0.00201209
-0.00200645
-0.00199159
-0.00196742
-0.00193388
-0.00189092
-0.0018385
-0.00177661
-0.00170526
-0.00162444
-0.00153418
-0.00143452
-0.00132549
-0.00120714
-0.00107956
-0.000942811
-0.00079699
-0.000642207
-0.00047858
-0.000306238
-0.000125315
6.40461e-05
0.000261681
0.000467414
0.000681058
0.000902418
0.00113129
0.00136745
0.00161069
0.00186075
0.0021174
0.00238035
0.00264933
0.00292403
0.00320417
0.00348941
0.00377943
0.00407391
0.00437247
0.00467477
0.00498042
0.00528904
0.00560023
0.00591358
0.00622867
0.00654506
0.00686233
0.00718002
0.00749769
0.00781485
0.00813105
0.00844581
0.00875866
0.00906911
0.00937666
0.00968085
0.00998116
0.0102771
0.0105682
0.010854
0.011134
0.0114077
0.0116747
0.0119345
0.0121867
0.0124307
0.0126663
0.012893
0.0131105
0.0133182
0.013516
0.0137034
0.0138802
0.014046
0.0142006
0.0143438
0.0144754
0.0145951
0.0147029
0.0147986
0.0148821
0.0149534
0.0150125
0.0150594
0.0150941
0.0151167
0.0151274
0.0151264
0.0151138
0.01509
0.0150551
0.0150095
0.0149536
0.0148877
0.0148124
0.0147281
0.0146352
0.0145344
0.0144262
0.0143112
0.0141902
0.0140637
0.0139325
0.0137974
0.0136591
0.0135184
0.0133761
0.013233
0.0130901
0.0129482
0.012808
0.0126707
0.0125369
0.0124077
0.0122838
0.0121661
0.0120555
0.0119527
0.0118587
0.011774
0.0116996
0.0116362
0.0115845
0.0115444
0.0115148
0.00129695
0.00120217
0.00111104
0.00101836
0.000918889
0.000813524
0.000703255
0.00058867
0.000470398
0.000349121
0.00022554
0.000100355
-2.57197e-05
-0.000151989
-0.00027776
-0.000402352
-0.000525115
-0.000645416
-0.000762657
-0.000876266
-0.000985709
-0.00109048
-0.00119011
-0.00128415
-0.00137218
-0.00145382
-0.00152871
-0.00159652
-0.00165696
-0.00170976
-0.00175467
-0.00179147
-0.00181997
-0.00184
-0.00185139
-0.001854
-0.00184773
-0.00183248
-0.00180816
-0.00177472
-0.00173211
-0.0016803
-0.00161927
-0.00154903
-0.00146957
-0.00138093
-0.00128312
-0.0011762
-0.00106021
-0.00093521
-0.000801277
-0.000658501
-0.000506988
-0.000346848
-0.000178201
-1.17557e-06
0.000184084
0.000377426
0.000578682
0.000787673
0.00100421
0.0012281
0.00145912
0.00169708
0.00194173
0.00219282
0.0024501
0.0027133
0.00298212
0.00325627
0.00353545
0.00381934
0.00410761
0.00439992
0.00469592
0.00499523
0.00529748
0.00560228
0.00590923
0.00621792
0.00652793
0.00683884
0.0071502
0.00746157
0.00777249
0.00808251
0.00839116
0.00869797
0.00900246
0.00930417
0.0096026
0.00989729
0.0101877
0.0104735
0.010754
0.011029
0.0112977
0.01156
0.0118152
0.0120629
0.0123027
0.0125343
0.0127571
0.0129709
0.0131752
0.0133697
0.0135541
0.0137281
0.0138913
0.0140436
0.0141847
0.0143144
0.0144324
0.0145388
0.0146333
0.0147159
0.0147864
0.014845
0.0148916
0.0149263
0.0149492
0.0149603
0.0149599
0.0149482
0.0149253
0.0148917
0.0148475
0.0147932
0.0147291
0.0146557
0.0145733
0.0144826
0.014384
0.0142781
0.0141655
0.0140468
0.0139227
0.0137939
0.013661
0.0135248
0.0133861
0.0132456
0.0131042
0.0129626
0.0128216
0.0126821
0.0125449
0.0124108
0.0122807
0.0121553
0.0120354
0.0119218
0.0118152
0.0117165
0.0116261
0.0115449
0.0114735
0.0114128
0.0113612
0.0113167
0.00150882
0.00139525
0.00128949
0.00118511
0.00107536
0.00096111
0.000843321
0.000722473
0.000599076
0.000473714
0.000346983
0.00021949
9.1861e-05
-3.52959e-05
-0.000161367
-0.000285754
-0.000407872
-0.000527162
-0.000643086
-0.00075513
-0.000862816
-0.000965686
-0.00106331
-0.00115529
-0.00124124
-0.00132081
-0.00139367
-0.00145952
-0.0015181
-0.00156915
-0.00161245
-0.0016478
-0.00167502
-0.00169394
-0.00170443
-0.00170634
-0.00169958
-0.00168406
-0.0016597
-0.00162644
-0.00158425
-0.00153309
-0.00147295
-0.00140383
-0.00132574
-0.00123869
-0.00114271
-0.00103785
-0.000924145
-0.000801654
-0.000670451
-0.000530621
-0.000382262
-0.000225478
-6.03874e-05
0.00011289
0.000294216
0.000483444
0.000680413
0.000884951
0.00109688
0.00131601
0.00154214
0.00177506
0.00201455
0.00226036
0.00251226
0.00276996
0.0030332
0.0033017
0.00357515
0.00385324
0.00413566
0.00442207
0.00471213
0.00500548
0.00530175
0.00560055
0.00590152
0.00620423
0.00650828
0.00681324
0.00711871
0.00742422
0.00772934
0.00803362
0.00833661
0.00863784
0.00893684
0.00923314
0.00952629
0.00981579
0.0101012
0.010382
0.0106578
0.010928
0.0111923
0.0114502
0.0117012
0.0119449
0.0121809
0.0124088
0.0126282
0.0128386
0.0130398
0.0132314
0.0134131
0.0135846
0.0137455
0.0138956
0.0140348
0.0141628
0.0142793
0.0143844
0.0144778
0.0145595
0.0146294
0.0146875
0.0147339
0.0147685
0.0147915
0.0148029
0.014803
0.014792
0.01477
0.0147373
0.0146943
0.0146412
0.0145785
0.0145066
0.0144259
0.0143369
0.01424
0.0141359
0.0140251
0.0139082
0.0137858
0.0136587
0.0135274
0.0133927
0.0132553
0.0131159
0.0129753
0.0128342
0.0126935
0.0125538
0.012416
0.0122808
0.012149
0.0120213
0.0118984
0.0117811
0.01167
0.0115658
0.0114691
0.0113804
0.0113006
0.0112303
0.0111668
0.011107
0.00172561
0.00159322
0.00147264
0.00135626
0.00123584
0.00111224
0.000986414
0.00085874
0.000729624
0.000599553
0.000469034
0.000338586
0.000208749
8.00528e-05
-4.69631e-05
-0.000171777
-0.00029387
-0.000412748
-0.000527936
-0.000638975
-0.000745436
-0.000846913
-0.00094302
-0.00103339
-0.00111769
-0.00119558
-0.00126679
-0.00133103
-0.00138807
-0.00143767
-0.00147964
-0.00151379
-0.00153995
-0.00155798
-0.00156773
-0.00156911
-0.001562
-0.00154633
-0.00152202
-0.00148903
-0.00144733
-0.00139687
-0.00133765
-0.00126967
-0.00119294
-0.00110748
-0.0010133
-0.000910453
-0.000798976
-0.000678926
-0.000550368
-0.000413384
-0.000268069
-0.000114519
4.7151e-05
0.000216829
0.000394382
0.000579666
0.000772533
0.000972815
0.00118034
0.00139493
0.00161639
0.00184453
0.00207911
0.00231991
0.00256669
0.0028192
0.00307716
0.0033403
0.00360834
0.00388096
0.00415788
0.00443874
0.00472322
0.00501098
0.00530165
0.00559485
0.00589022
0.00618735
0.00648584
0.00678529
0.00708528
0.00738536
0.00768512
0.00798411
0.00828187
0.00857795
0.0088719
0.00916325
0.00945155
0.00973632
0.0100171
0.0102934
0.0105648
0.0108309
0.0110911
0.011345
0.0115923
0.0118323
0.0120649
0.0122894
0.0125057
0.0127132
0.0129116
0.0131006
0.0132799
0.0134491
0.0136079
0.0137562
0.0138937
0.0140201
0.0141353
0.0142392
0.0143317
0.0144126
0.0144819
0.0145396
0.0145856
0.0146202
0.0146432
0.0146549
0.0146553
0.0146448
0.0146234
0.0145915
0.0145494
0.0144974
0.0144358
0.014365
0.0142855
0.0141977
0.0141022
0.0139993
0.0138898
0.0137742
0.013653
0.0135269
0.0133966
0.0132627
0.0131259
0.012987
0.0128465
0.0127053
0.012564
0.0124234
0.0122843
0.0121472
0.012013
0.0118823
0.0117558
0.0116341
0.0115179
0.0114076
0.011304
0.0112074
0.0111186
0.0110383
0.0109625
0.0108872
0.00194554
0.00179437
0.0016589
0.0015303
0.00139892
0.00126561
0.00113132
0.000996354
0.000861012
0.000725697
0.000590833
0.000456857
0.000324231
0.000193415
6.4873e-05
-6.0938e-05
-0.000183567
-0.000302584
-0.000417567
-0.000528114
-0.000633847
-0.000734404
-0.00082944
-0.000918633
-0.00100167
-0.00107828
-0.00114818
-0.00121114
-0.00126695
-0.00131539
-0.00135629
-0.00138948
-0.0014148
-0.00143213
-0.00144134
-0.00144233
-0.00143501
-0.0014193
-0.00139516
-0.00136253
-0.00132137
-0.00127166
-0.0012134
-0.00114659
-0.00107122
-0.000987325
-0.000894922
-0.000794051
-0.000684749
-0.000567071
-0.000441078
-0.000306851
-0.000164473
-1.40381e-05
0.000144344
0.000310563
0.000484496
0.000666005
0.000854947
0.00105116
0.00125449
0.00146476
0.00168178
0.00190535
0.00213528
0.00237133
0.00261327
0.00286085
0.00311382
0.00337192
0.00363485
0.00390234
0.00417407
0.00444973
0.00472899
0.00501152
0.00529695
0.00558493
0.00587509
0.00616704
0.00646038
0.00675471
0.00704963
0.00734472
0.00763953
0.00793364
0.00822661
0.00851798
0.00880731
0.00909415
0.00937803
0.0096585
0.00993509
0.0102074
0.0104748
0.0107371
0.0109936
0.011244
0.0114879
0.0117247
0.0119542
0.0121758
0.0123893
0.0125941
0.0127901
0.0129768
0.0131539
0.0133212
0.0134782
0.0136248
0.0137608
0.0138859
0.014
0.0141029
0.0141945
0.0142747
0.0143434
0.0144007
0.0144465
0.0144809
0.0145039
0.0145158
0.0145165
0.0145063
0.0144854
0.0144541
0.0144126
0.0143613
0.0143005
0.0142305
0.0141519
0.014065
0.0139703
0.0138683
0.0137596
0.0136447
0.0135242
0.0133986
0.0132687
0.0131351
0.0129983
0.0128591
0.0127181
0.0125761
0.0124336
0.0122915
0.0121503
0.0120108
0.0118735
0.0117392
0.0116083
0.0114817
0.0113597
0.0112429
0.0111318
0.0110268
0.0109286
0.010838
0.0107499
0.0106589
0.00216696
0.00199714
0.00184676
0.00170581
0.00156326
0.00141995
0.00127687
0.00113422
0.000992223
0.000851203
0.000711509
0.000573507
0.000437583
0.000304133
0.000173549
4.62278e-05
-7.74485e-05
-0.000197102
-0.000312369
-0.000422898
-0.000528357
-0.00062843
-0.000722814
-0.000811224
-0.000893389
-0.000969059
-0.00103799
-0.00109999
-0.00115486
-0.00120242
-0.00124249
-0.00127494
-0.00129964
-0.00131646
-0.00132529
-0.00132605
-0.00131866
-0.00130304
-0.00127916
-0.00124696
-0.00120643
-0.00115753
-0.00110026
-0.00103462
-0.000960626
-0.000878291
-0.000787641
-0.000688707
-0.000581531
-0.000466163
-0.000342661
-0.000211098
-7.15557e-05
7.58747e-05
0.000231093
0.000393993
0.000564456
0.000742348
0.000927537
0.00111987
0.0013192
0.00152535
0.00173814
0.00195739
0.0021829
0.00241445
0.00265181
0.00289475
0.00314302
0.00339636
0.0036545
0.00391716
0.00418404
0.00445483
0.00472921
0.00500686
0.00528742
0.00557055
0.00585588
0.00614302
0.00643161
0.00672123
0.00701149
0.00730198
0.00759226
0.00788191
0.0081705
0.00845759
0.00874273
0.00902547
0.00930536
0.00958194
0.00985478
0.0101234
0.0103874
0.0106462
0.0108995
0.0111467
0.0113876
0.0116216
0.0118483
0.0120674
0.0122784
0.012481
0.0126749
0.0128596
0.0130348
0.0132004
0.0133558
0.013501
0.0136357
0.0137597
0.0138728
0.0139748
0.0140657
0.0141453
0.0142136
0.0142705
0.0143161
0.0143503
0.0143733