/*--------------------------------*- C++ -*----------------------------------*\
  =========                 |
  \\      /  F ield         | OpenFOAM: The Open Source CFD Toolbox
   \\    /   O peration     | Website:  https://openfoam.org
    \\  /    A nd           | Version:  7
     \\/     M anipulation  |
\*---------------------------------------------------------------------------*/
FoamFile
{
    version     2.0;
    format      ascii;
    class       surfaceScalarField;
    location    "0.4875";
    object      phi;
}
// * * * * * * * * * * * * * * * * * * * * * * * * * * * * * * * * * * * * * //

dimensions      [0 3 -1 0 0 0 0];

internalField   nonuniform List<scalar> 
50880
(
7.15015e-12
-7.14628e-12
3.82787e-11
-3.11294e-11
8.31263e-11
-4.48497e-11
1.31364e-10
-4.82393e-11
1.75785e-10
-4.44251e-11
2.11495e-10
-3.57108e-11
2.35209e-10
-2.3714e-11
2.44789e-10
-9.58094e-12
2.389e-10
5.8888e-12
2.16768e-10
2.21325e-11
1.78021e-10
3.87491e-11
1.22579e-10
5.54437e-11
5.05757e-11
7.20054e-11
-3.76918e-11
8.82708e-11
-1.41814e-10
1.04123e-10
-2.61286e-10
1.19473e-10
-3.95545e-10
1.34257e-10
-5.43974e-10
1.48428e-10
-7.05926e-10
1.61951e-10
-8.80727e-10
1.74801e-10
-1.06769e-09
1.86964e-10
-1.26613e-09
1.98433e-10
-1.47533e-09
2.09206e-10
-1.69461e-09
2.19283e-10
-1.92327e-09
2.28666e-10
-2.16064e-09
2.37366e-10
-2.40603e-09
2.45393e-10
-2.65879e-09
2.52759e-10
-2.91827e-09
2.59476e-10
-3.18383e-09
2.65555e-10
-3.45484e-09
2.71014e-10
-3.7307e-09
2.75862e-10
-4.01082e-09
2.80119e-10
-4.29462e-09
2.83797e-10
-4.58154e-09
2.86911e-10
-4.87101e-09
2.89477e-10
-5.16252e-09
2.91507e-10
-5.45553e-09
2.93014e-10
-5.74955e-09
2.94014e-10
-6.04406e-09
2.94519e-10
-6.33861e-09
2.94541e-10
-6.6327e-09
2.94094e-10
-6.92588e-09
2.93187e-10
-7.21771e-09
2.91831e-10
-7.50775e-09
2.90037e-10
-7.79556e-09
2.87815e-10
-8.08074e-09
2.85175e-10
-8.36287e-09
2.82125e-10
-8.64154e-09
2.78676e-10
-8.91638e-09
2.74834e-10
-9.18699e-09
2.70607e-10
-9.45299e-09
2.66003e-10
-9.71402e-09
2.61028e-10
-9.96971e-09
2.55691e-10
-1.02197e-08
2.49997e-10
-1.04637e-08
2.43953e-10
-1.07012e-08
2.37565e-10
-1.09321e-08
2.30839e-10
-1.11558e-08
2.23783e-10
-1.13722e-08
2.16402e-10
-1.15809e-08
2.08704e-10
-1.17816e-08
2.00696e-10
-1.1974e-08
1.92385e-10
-1.21578e-08
1.83777e-10
-1.23327e-08
1.74881e-10
-1.24984e-08
1.65702e-10
-1.26546e-08
1.56251e-10
-1.28012e-08
1.46532e-10
-1.29377e-08
1.36557e-10
-1.30641e-08
1.26337e-10
-1.31799e-08
1.1588e-10
-1.32851e-08
1.05197e-10
-1.33794e-08
9.42981e-11
-1.34626e-08
8.31952e-11
-1.35345e-08
7.19022e-11
-1.3595e-08
6.04318e-11
-1.36438e-08
4.87964e-11
-1.36808e-08
3.70123e-11
-1.37059e-08
2.50936e-11
-1.37189e-08
1.30543e-11
-1.37198e-08
9.12058e-13
-1.37085e-08
-1.13156e-11
-1.36849e-08
-2.36117e-11
-1.3649e-08
-3.59559e-11
-1.36006e-08
-4.83285e-11
-1.35399e-08
-6.07125e-11
-1.34668e-08
-7.30863e-11
-1.33814e-08
-8.54266e-11
-1.32837e-08
-9.77133e-11
-1.31738e-08
-1.09925e-10
-1.30517e-08
-1.22038e-10
-1.29177e-08
-1.34028e-10
-1.27718e-08
-1.45871e-10
-1.26143e-08
-1.57543e-10
-1.24453e-08
-1.6902e-10
-1.2265e-08
-1.80278e-10
-1.20737e-08
-1.91291e-10
-1.18717e-08
-2.02034e-10
-1.16592e-08
-2.12482e-10
-1.14366e-08
-2.22611e-10
-1.12042e-08
-2.32394e-10
-1.09624e-08
-2.41805e-10
-1.07115e-08
-2.50822e-10
-1.04521e-08
-2.59421e-10
-1.01846e-08
-2.67576e-10
-9.90929e-09
-2.75263e-10
-9.62683e-09
-2.82459e-10
-9.33768e-09
-2.89144e-10
-9.04239e-09
-2.95295e-10
-8.7415e-09
-3.00889e-10
-8.4356e-09
-3.05907e-10
-8.12527e-09
-3.10331e-10
-7.81113e-09
-3.14141e-10
-7.4938e-09
-3.17321e-10
-7.17395e-09
-3.19855e-10
-6.85222e-09
-3.2173e-10
-6.52929e-09
-3.2293e-10
-6.20584e-09
-3.23444e-10
-5.88258e-09
-3.2326e-10
-5.56021e-09
-3.22372e-10
-5.23944e-09
-3.20771e-10
-4.92098e-09
-3.18451e-10
-4.60557e-09
-3.15408e-10
-4.29393e-09
-3.1164e-10
-3.98679e-09
-3.07146e-10
-3.68486e-09
-3.01925e-10
-3.38888e-09
-2.95979e-10
-3.09957e-09
-2.89316e-10
-2.81762e-09
-2.81942e-10
-2.54376e-09
-2.73863e-10
-2.27867e-09
-2.65091e-10
-2.02303e-09
-2.55639e-10
-1.7775e-09
-2.45525e-10
-1.54274e-09
-2.34764e-10
-1.31936e-09
-2.23376e-10
-1.10798e-09
-2.11384e-10
-9.09161e-10
-1.98815e-10
-7.23465e-10
-1.85697e-10
-5.51402e-10
-1.72063e-10
-3.93449e-10
-1.57951e-10
-2.50043e-10
-1.43403e-10
-1.21574e-10
-1.2847e-10
-8.36985e-12
-1.13204e-10
8.9302e-11
-9.76707e-11
1.71249e-10
-8.1945e-11
2.37367e-10
-6.61162e-11
2.87658e-10
-5.02898e-11
3.2225e-10
-3.45919e-11
3.41427e-10
-1.91773e-11
3.45666e-10
-4.23969e-12
3.3569e-10
9.97555e-12
3.12535e-10
2.31531e-11
2.77652e-10
3.48815e-11
2.33045e-10
4.46089e-11
1.81464e-10
5.15827e-11
1.26683e-10
5.47827e-11
7.38118e-11
5.28696e-11
2.96973e-11
4.41129e-11
3.08291e-12
2.6614e-11
3.08384e-12
3.11432e-11
-3.82875e-11
1.02302e-10
-1.02283e-10
1.94076e-10
-1.36622e-10
2.8878e-10
-1.42939e-10
3.71865e-10
-1.27506e-10
4.32198e-10
-9.60393e-11
4.61601e-10
-5.3116e-11
4.54275e-10
-2.25506e-12
4.06268e-10
5.38944e-11
3.15048e-10
1.13351e-10
1.79161e-10
1.74631e-10
-2.01139e-12
2.36613e-10
-2.28455e-10
2.98446e-10
-4.99667e-10
3.59483e-10
-8.14772e-10
4.19229e-10
-1.1726e-09
4.77304e-10
-1.57177e-09
5.33425e-10
-2.01071e-09
5.87378e-10
-2.48777e-09
6.39e-10
-3.00115e-09
6.88181e-10
-3.54902e-09
7.34839e-10
-4.12951e-09
7.78923e-10
-4.74071e-09
8.20406e-10
-5.38071e-09
8.59279e-10
-6.04759e-09
8.95547e-10
-6.73944e-09
9.29225e-10
-7.45439e-09
9.60341e-10
-8.19056e-09
9.88928e-10
-8.94611e-09
1.01503e-09
-9.71924e-09
1.03869e-09
-1.05082e-08
1.05995e-09
-1.13112e-08
1.07886e-09
-1.21265e-08
1.09548e-09
-1.29526e-08
1.10986e-09
-1.37877e-08
1.12205e-09
-1.46304e-08
1.1321e-09
-1.54789e-08
1.14006e-09
-1.63319e-08
1.14599e-09
-1.71878e-08
1.14993e-09
-1.80452e-08
1.15193e-09
-1.89027e-08
1.15204e-09
-1.97589e-08
1.15031e-09
-2.06125e-08
1.14678e-09
-2.14622e-08
1.14148e-09
-2.23066e-08
1.13446e-09
-2.31446e-08
1.12577e-09
-2.39748e-08
1.11542e-09
-2.47961e-08
1.10347e-09
-2.56074e-08
1.08993e-09
-2.64074e-08
1.07486e-09
-2.71951e-08
1.05826e-09
-2.79693e-08
1.04018e-09
-2.87289e-08
1.02065e-09
-2.94729e-08
9.99686e-10
-3.02002e-08
9.77321e-10
-3.09098e-08
9.53581e-10
-3.16008e-08
9.28493e-10
-3.2272e-08
9.02082e-10
-3.29226e-08
8.74376e-10
-3.35516e-08
8.45399e-10
-3.41581e-08
8.15179e-10
-3.47411e-08
7.83743e-10
-3.52998e-08
7.51119e-10
-3.58334e-08
7.17337e-10
-3.63409e-08
6.82427e-10
-3.68217e-08
6.46419e-10
-3.72748e-08
6.09348e-10
-3.76995e-08
5.71247e-10
-3.80951e-08
5.3215e-10
-3.84608e-08
4.92096e-10
-3.87961e-08
4.51126e-10
-3.91002e-08
4.0928e-10
-3.93725e-08
3.66604e-10
-3.96124e-08
3.23145e-10
-3.98195e-08
2.78951e-10
-3.99931e-08
2.34075e-10
-4.01329e-08
1.88569e-10
-4.02383e-08
1.4249e-10
-4.03091e-08
9.58992e-11
-4.0345e-08
4.88579e-11
-4.03455e-08
1.42888e-12
-4.03105e-08
-4.63193e-11
-4.02398e-08
-9.4316e-11
-4.01332e-08
-1.4249e-10
-3.99908e-08
-1.90765e-10
-3.98124e-08
-2.39062e-10
-3.95982e-08
-2.87305e-10
-3.93482e-08
-3.35408e-10
-3.90627e-08
-3.83286e-10
-3.87417e-08
-4.30852e-10
-3.83858e-08
-4.7802e-10
-3.79951e-08
-5.24697e-10
-3.75702e-08
-5.7079e-10
-3.71115e-08
-6.16207e-10
-3.66197e-08
-6.60855e-10
-3.60953e-08
-7.04636e-10
-3.55392e-08
-7.47454e-10
-3.4952e-08
-7.89213e-10
-3.43347e-08
-8.29816e-10
-3.36881e-08
-8.69164e-10
-3.30133e-08
-9.07162e-10
-3.23114e-08
-9.43716e-10
-3.15835e-08
-9.78728e-10
-3.08308e-08
-1.0121e-09
-3.00547e-08
-1.04375e-09
-2.92563e-08
-1.07359e-09
-2.84373e-08
-1.10151e-09
-2.7599e-08
-1.12744e-09
-2.6743e-08
-1.15129e-09
-2.58709e-08
-1.17299e-09
-2.49843e-08
-1.19246e-09
-2.4085e-08
-1.20962e-09
-2.31748e-08
-1.2244e-09
-2.22554e-08
-1.23675e-09
-2.13286e-08
-1.24659e-09
-2.03965e-08
-1.25387e-09
-1.94609e-08
-1.25854e-09
-1.85238e-08
-1.26057e-09
-1.75871e-08
-1.2599e-09
-1.6653e-08
-1.25651e-09
-1.57234e-08
-1.25036e-09
-1.48004e-08
-1.24144e-09
-1.38861e-08
-1.22974e-09
-1.29825e-08
-1.21523e-09
-1.20917e-08
-1.19792e-09
-1.12158e-08
-1.17782e-09
-1.03568e-08
-1.15494e-09
-9.51686e-09
-1.1293e-09
-8.69789e-09
-1.10092e-09
-7.9019e-09
-1.06984e-09
-7.13087e-09
-1.03612e-09
-6.38672e-09
-9.99797e-10
-5.6713e-09
-9.60939e-10
-4.98644e-09
-9.19618e-10
-4.3339e-09
-8.75919e-10
-3.71534e-09
-8.29936e-10
-3.13238e-09
-7.81776e-10
-2.58652e-09
-7.31558e-10
-2.07916e-09
-6.79421e-10
-1.61159e-09
-6.2552e-10
-1.18496e-09
-5.70028e-10
-8.00287e-10
-5.13145e-10
-4.58391e-10
-4.55099e-10
-1.59905e-10
-3.96155e-10
9.477e-11
-3.36621e-10
3.05502e-10
-2.76852e-10
4.72481e-10
-2.17271e-10
5.96276e-10
-1.58386e-10
6.7791e-10
-1.0081e-10
7.18964e-10
-4.52924e-11
7.21698e-10
7.24206e-12
6.89218e-10
5.56351e-11
6.25678e-10
9.84232e-11
5.36543e-10
1.33744e-10
4.28902e-10
1.59225e-10
3.11801e-10
1.71885e-10
1.96513e-10
1.68158e-10
9.65252e-11
1.441e-10
2.65843e-11
9.65545e-11
2.96673e-11
4.48994e-11
-8.31899e-11
1.36797e-10
-1.94182e-10
2.4779e-10
-2.47619e-10
3.55588e-10
-2.50737e-10
4.41711e-10
-2.13629e-10
4.91425e-10
-1.45755e-10
4.934e-10
-5.50899e-11
4.39207e-10
5.19403e-11
3.22819e-10
1.70283e-10
1.4017e-10
2.96005e-10
-1.11256e-10
4.26058e-10
-4.3272e-10
5.5808e-10
-8.24507e-10
6.90234e-10
-1.28612e-09
8.21092e-10
-1.81644e-09
9.49546e-10
-2.41387e-09
1.07473e-09
-3.07644e-09
1.19599e-09
-3.80187e-09
1.31281e-09
-4.58767e-09
1.4248e-09
-5.43117e-09
1.53168e-09
-6.32958e-09
1.63324e-09
-7.28e-09
1.72935e-09
-8.27949e-09
1.81991e-09
-9.32509e-09
1.90487e-09
-1.04138e-08
1.98424e-09
-1.15426e-08
2.05803e-09
-1.27085e-08
2.12627e-09
-1.39086e-08
2.18903e-09
-1.514e-08
2.24638e-09
-1.63997e-08
2.29841e-09
-1.7685e-08
2.3452e-09
-1.8993e-08
2.38686e-09
-2.0321e-08
2.42349e-09
-2.16663e-08
2.45521e-09
-2.30264e-08
2.4821e-09
-2.43986e-08
2.50429e-09
-2.57804e-08
2.52188e-09
-2.71694e-08
2.53499e-09
-2.85632e-08
2.5437e-09
-2.99594e-08
2.54814e-09
-3.13557e-08
2.54839e-09
-3.275e-08
2.54455e-09
-3.41399e-08
2.53672e-09
-3.55234e-08
2.52498e-09
-3.68984e-08
2.50943e-09
-3.82628e-08
2.49015e-09
-3.96145e-08
2.46721e-09
-4.09518e-08
2.4407e-09
-4.22725e-08
2.41068e-09
-4.35749e-08
2.37723e-09
-4.48571e-08
2.34042e-09
-4.61172e-08
2.30031e-09
-4.73535e-08
2.25696e-09
-4.85643e-08
2.21045e-09
-4.97478e-08
2.16082e-09
-5.09023e-08
2.10815e-09
-5.20263e-08
2.05248e-09
-5.31181e-08
1.99389e-09
-5.41762e-08
1.93242e-09
-5.51989e-08
1.86814e-09
-5.61848e-08
1.80111e-09
-5.71325e-08
1.73139e-09
-5.80404e-08
1.65905e-09
-5.89072e-08
1.58414e-09
-5.97315e-08
1.50675e-09
-6.05121e-08
1.42694e-09
-6.12475e-08
1.34478e-09
-6.19366e-08
1.26035e-09
-6.25782e-08
1.17374e-09
-6.31711e-08
1.08503e-09
-6.37143e-08
9.943e-10
-6.42067e-08
9.01655e-10
-6.46472e-08
8.07191e-10
-6.50351e-08
7.11015e-10
-6.53694e-08
6.13235e-10
-6.56493e-08
5.13965e-10
-6.5874e-08
4.13328e-10
-6.6043e-08
3.11447e-10
-6.61556e-08
2.08453e-10
-6.62112e-08
1.04487e-10
-6.62094e-08
-3.07858e-13
-6.615e-08
-1.05784e-10
-6.60325e-08
-2.11787e-10
-6.58568e-08
-3.18153e-10
-6.56229e-08
-4.24719e-10
-6.53306e-08
-5.31313e-10
-6.49802e-08
-6.37756e-10
-6.45717e-08
-7.4387e-10
-6.41055e-08
-8.49466e-10
-6.35821e-08
-9.54354e-10
-6.30017e-08
-1.05834e-09
-6.23652e-08
-1.16122e-09
-6.16732e-08
-1.26279e-09
-6.09266e-08
-1.36286e-09
-6.01262e-08
-1.46121e-09
-5.92732e-08
-1.55763e-09
-5.83687e-08
-1.65192e-09
-5.74141e-08
-1.74386e-09
-5.64107e-08
-1.83324e-09
-5.536e-08
-1.91984e-09
-5.42637e-08
-2.00347e-09
-5.31235e-08
-2.08389e-09
-5.19413e-08
-2.16092e-09
-5.07191e-08
-2.23434e-09
-4.94589e-08
-2.30396e-09
-4.81629e-08
-2.36956e-09
-4.68334e-08
-2.43097e-09
-4.54729e-08
-2.488e-09
-4.40837e-08
-2.54046e-09
-4.26685e-08
-2.58818e-09
-4.123e-08
-2.63099e-09
-3.97709e-08
-2.66873e-09
-3.8294e-08
-2.70126e-09
-3.68024e-08
-2.72843e-09
-3.52988e-08
-2.75011e-09
-3.37865e-08
-2.76618e-09
-3.22685e-08
-2.77654e-09
-3.0748e-08
-2.78108e-09
-2.92282e-08
-2.77973e-09
-2.77123e-08
-2.7724e-09
-2.62036e-08
-2.75905e-09
-2.47054e-08
-2.73963e-09
-2.32211e-08
-2.7141e-09
-2.17538e-08
-2.68245e-09
-2.03071e-08
-2.64468e-09
-1.88841e-08
-2.60081e-09
-1.74882e-08
-2.55087e-09
-1.61226e-08
-2.4949e-09
-1.47905e-08
-2.43298e-09
-1.34952e-08
-2.36518e-09
-1.22397e-08
-2.29162e-09
-1.10271e-08
-2.21241e-09
-9.8603e-09
-2.12769e-09
-8.74226e-09
-2.03765e-09
-7.67572e-09
-1.94246e-09
-6.66331e-09
-1.84235e-09
-5.70753e-09
-1.73755e-09
-4.81073e-09
-1.62835e-09
-3.97509e-09
-1.51506e-09
-3.20258e-09
-1.39803e-09
-2.49494e-09
-1.27766e-09
-1.85367e-09
-1.15441e-09
-1.27998e-09
-1.02879e-09
-7.74742e-10
-9.01396e-10
-3.38439e-10
-7.72922e-10
2.8876e-11
-6.44166e-10
3.27674e-10
-5.1607e-10
5.59032e-10
-3.89748e-10
7.24749e-10
-2.6653e-10
8.27474e-10
-1.4802e-10
8.70881e-10
-3.61652e-11
8.59866e-10
6.66507e-11
8.00793e-10
1.57497e-10
7.01765e-10
2.32772e-10
5.72918e-10
2.8807e-10
4.26686e-10
3.18117e-10
2.77964e-10
3.1688e-10
1.44019e-10
2.78046e-10
4.40432e-11
1.96529e-10
7.37093e-11
4.84138e-11
-1.31603e-10
1.43498e-10
-2.89264e-10
2.51604e-10
-3.55726e-10
3.47041e-10
-3.46169e-10
4.08896e-10
-2.75484e-10
4.20329e-10
-1.57191e-10
3.68092e-10
-2.85265e-12
2.42044e-10
1.77988e-10
3.47058e-11
3.77616e-10
-2.59156e-10
5.89865e-10
-6.42924e-10
8.09825e-10
-1.11845e-09
1.03361e-09
-1.68634e-09
1.25813e-09
-2.34619e-09
1.48095e-09
-3.09678e-09
1.70014e-09
-3.93623e-09
1.91419e-09
-4.86214e-09
2.1219e-09
-5.87169e-09
2.32236e-09
-6.96173e-09
2.51484e-09
-8.12886e-09
2.69881e-09
-9.36949e-09
2.87387e-09
-1.06799e-08
3.03973e-09
-1.20562e-08
3.1962e-09
-1.34945e-08
3.34318e-09
-1.49908e-08
3.48061e-09
-1.65413e-08
3.60849e-09
-1.81419e-08
3.72687e-09
-1.97887e-08
3.83583e-09
-2.14778e-08
3.93548e-09
-2.32053e-08
4.02593e-09
-2.49675e-08
4.10734e-09
-2.67605e-08
4.17987e-09
-2.85806e-08
4.24367e-09
-3.04243e-08
4.29892e-09
-3.22881e-08
4.3458e-09
-3.41682e-08
4.38449e-09
-3.60615e-08
4.41516e-09
-3.79645e-08
4.438e-09
-3.9874e-08
4.45318e-09
-4.17867e-08
4.46087e-09
-4.36996e-08
4.46124e-09
-4.56095e-08
4.45446e-09
-4.75135e-08
4.44068e-09
-4.94085e-08
4.42006e-09
-5.12919e-08
4.39275e-09
-5.31606e-08
4.35888e-09
-5.5012e-08
4.31861e-09
-5.68434e-08
4.27206e-09
-5.8652e-08
4.21936e-09
-6.04354e-08
4.16064e-09
-6.2191e-08
4.09601e-09
-6.39163e-08
4.02559e-09
-6.56088e-08
3.94949e-09
-6.72662e-08
3.86784e-09
-6.88861e-08
3.78072e-09
-7.04662e-08
3.68825e-09
-7.20043e-08
3.59055e-09
-7.34981e-08
3.4877e-09
-7.49455e-08
3.37982e-09
-7.63444e-08
3.26702e-09
-7.76927e-08
3.1494e-09
-7.89884e-08
3.02708e-09
-8.02295e-08
2.90016e-09
-8.14141e-08
2.76878e-09
-8.25404e-08
2.63305e-09
-8.36066e-08
2.49309e-09
-8.46108e-08
2.34905e-09
-8.55515e-08
2.20105e-09
-8.6427e-08
2.04925e-09
-8.72358e-08
1.89379e-09
-8.79763e-08
1.73483e-09
-8.86472e-08
1.57255e-09
-8.92471e-08
1.40711e-09
-8.97748e-08
1.2387e-09
-9.02291e-08
1.06751e-09
-9.06089e-08
8.93759e-10
-9.09132e-08
7.17643e-10
-9.11411e-08
5.39389e-10
-9.12919e-08
3.59227e-10
-9.13648e-08
1.77398e-10
-9.13593e-08
-5.84374e-12
-9.12748e-08
-1.90237e-10
-9.11111e-08
-3.75513e-10
-9.08679e-08
-5.61391e-10
-9.0545e-08
-7.47578e-10
-9.01426e-08
-9.33775e-10
-8.96606e-08
-1.11968e-09
-8.90995e-08
-1.30496e-09
-8.84597e-08
-1.48931e-09
-8.77417e-08
-1.67239e-09
-8.69462e-08
-1.85386e-09
-8.6074e-08
-2.03337e-09
-8.51262e-08
-2.21057e-09
-8.4104e-08
-2.38511e-09
-8.30085e-08
-2.55663e-09
-8.18414e-08
-2.72477e-09
-8.06042e-08
-2.88916e-09
-7.92986e-08
-3.04942e-09
-7.79266e-08
-3.20521e-09
-7.64903e-08
-3.35614e-09
-7.4992e-08
-3.50185e-09
-7.34339e-08
-3.64199e-09
-7.18186e-08
-3.77619e-09
-7.01489e-08
-3.90409e-09
-6.84275e-08
-4.02535e-09
-6.66574e-08
-4.13963e-09
-6.48418e-08
-4.2466e-09
-6.29838e-08
-4.34593e-09
-6.1087e-08
-4.43731e-09
-5.91547e-08
-4.52044e-09
-5.71906e-08
-4.59504e-09
-5.51986e-08
-4.66082e-09
-5.31823e-08
-4.71753e-09
-5.11458e-08
-4.76494e-09
-4.90931e-08
-4.80281e-09
-4.70283e-08
-4.83094e-09
-4.49557e-08
-4.84914e-09
-4.28795e-08
-4.85726e-09
-4.08041e-08
-4.85514e-09
-3.87339e-08
-4.84266e-09
-3.66732e-08
-4.81974e-09
-3.46265e-08
-4.78628e-09
-3.25984e-08
-4.74225e-09
-3.05932e-08
-4.68763e-09
-2.86155e-08
-4.6224e-09
-2.66697e-08
-4.54662e-09
-2.47602e-08
-4.46034e-09
-2.28914e-08
-4.36365e-09
-2.10678e-08
-4.25667e-09
-1.92934e-08
-4.13955e-09
-1.75725e-08
-4.01249e-09
-1.59092e-08
-3.87571e-09
-1.43074e-08
-3.72947e-09
-1.2771e-08
-3.57407e-09
-1.13036e-08
-3.40985e-09
-9.90875e-09
-3.23721e-09
-8.58973e-09
-3.05658e-09
-7.34963e-09
-2.86846e-09
-6.19129e-09
-2.67341e-09
-5.11726e-09
-2.47206e-09
-4.1298e-09
-2.26512e-09
-3.2308e-09
-2.05342e-09
-2.42173e-09
-1.83785e-09
-1.70364e-09
-1.61949e-09
-1.07704e-09
-1.39953e-09
-5.41823e-10
-1.17938e-09
-9.72288e-11
-9.60666e-10
2.58329e-10
-7.45308e-10
5.27359e-10
-5.3556e-10
7.13451e-10
-3.34112e-10
8.21457e-10
-1.44173e-10
8.57704e-10
3.0402e-11
8.30225e-10
1.84977e-10
7.49008e-10
3.13991e-10
6.26247e-10
4.10833e-10
4.76567e-10
4.67796e-10
3.1722e-10
4.76225e-10
1.68234e-10
4.2703e-10
5.28098e-11
3.11952e-10
1.26519e-10
4.47931e-11
-1.76398e-10
1.28646e-10
-3.73113e-10
2.15533e-10
-4.42612e-10
2.77848e-10
-4.08481e-10
2.93306e-10
-2.90939e-10
2.43905e-10
-1.0779e-10
1.15317e-10
1.25735e-10
-1.03611e-10
3.96917e-10
-4.21278e-10
6.95284e-10
-8.43706e-10
1.01229e-09
-1.3749e-09
1.34102e-09
-2.01717e-09
1.67587e-09
-2.77139e-09
2.01235e-09
-3.63726e-09
2.34682e-09
-4.61352e-09
2.67639e-09
-5.69807e-09
2.99875e-09
-6.88821e-09
3.31204e-09
-8.18068e-09
3.61483e-09
-9.57181e-09
3.90597e-09
-1.10576e-08
4.18459e-09
-1.26337e-08
4.45003e-09
-1.42958e-08
4.7018e-09
-1.60392e-08
4.93958e-09
-1.78592e-08
5.16314e-09
-1.97509e-08
5.37237e-09
-2.17096e-08
5.56722e-09
-2.37305e-08
5.74774e-09
-2.58087e-08
5.91402e-09
-2.79394e-08
6.06617e-09
-3.01179e-08
6.20438e-09
-3.23393e-08
6.32883e-09
-3.45992e-08
6.43975e-09
-3.68929e-08
6.53736e-09
-3.92159e-08
6.62192e-09
-4.15638e-08
6.69367e-09
-4.39322e-08
6.75288e-09
-4.63168e-08
6.79981e-09
-4.87135e-08
6.83472e-09
-5.11182e-08
6.85787e-09
-5.35269e-08
6.86951e-09
-5.59355e-08
6.8699e-09
-5.83403e-08
6.85928e-09
-6.07376e-08
6.83789e-09
-6.31235e-08
6.80596e-09
-6.54944e-08
6.76371e-09
-6.78469e-08
6.71137e-09
-7.01774e-08
6.64914e-09
-7.24826e-08
6.57722e-09
-7.4759e-08
6.49582e-09
-7.70035e-08
6.40512e-09
-7.92128e-08
6.30531e-09
-8.13838e-08
6.19657e-09
-8.35134e-08
6.07907e-09
-8.55985e-08
5.95299e-09
-8.76363e-08
5.81849e-09
-8.96238e-08
5.67574e-09
-9.15582e-08
5.5249e-09
-9.34366e-08
5.36615e-09
-9.52564e-08
5.19965e-09
-9.7015e-08
5.02556e-09
-9.87096e-08
4.84406e-09
-1.00338e-07
4.65532e-09
-1.01897e-07
4.45953e-09
-1.03385e-07
4.25687e-09
-1.048e-07
4.04753e-09
-1.06138e-07
3.8317e-09
-1.07399e-07
3.6096e-09
-1.08579e-07
3.38144e-09
-1.09678e-07
3.14746e-09
-1.10692e-07
2.90788e-09
-1.1162e-07
2.66295e-09
-1.1246e-07
2.41293e-09
-1.13211e-07
2.15811e-09
-1.13871e-07
1.89876e-09
-1.14439e-07
1.63518e-09
-1.14913e-07
1.36769e-09
-1.15292e-07
1.09662e-09
-1.15575e-07
8.22302e-10
-1.15761e-07
5.45107e-10
-1.15849e-07
2.65401e-10
-1.15838e-07
-1.64277e-11
-1.15728e-07
-2.99976e-10
-1.15519e-07
-5.84825e-10
-1.1521e-07
-8.70546e-10
-1.14801e-07
-1.15669e-09
-1.14292e-07
-1.4428e-09
-1.13683e-07
-1.72841e-09
-1.12975e-07
-2.01302e-09
-1.12168e-07
-2.29614e-09
-1.11263e-07
-2.57726e-09
-1.10261e-07
-2.85587e-09
-1.09163e-07
-3.13142e-09
-1.0797e-07
-3.4034e-09
-1.06684e-07
-3.67125e-09
-1.05306e-07
-3.93443e-09
-1.03839e-07
-4.19238e-09
-1.02283e-07
-4.44454e-09
-1.00642e-07
-4.69036e-09
-9.89184e-08
-4.92927e-09
-9.71138e-08
-5.16072e-09
-9.52315e-08
-5.38414e-09
-9.32745e-08
-5.599e-09
-9.12459e-08
-5.80473e-09
-8.91492e-08
-6.00081e-09
-8.69879e-08
-6.1867e-09
-8.47656e-08
-6.36189e-09
-8.24863e-08
-6.52587e-09
-8.01541e-08
-6.67815e-09
-7.77732e-08
-6.81826e-09
-7.53479e-08
-6.94574e-09
-7.28828e-08
-7.06015e-09
-7.03825e-08
-7.16109e-09
-6.78519e-08
-7.24816e-09
-6.52958e-08
-7.32099e-09
-6.27194e-08
-7.37925e-09
-6.01277e-08
-7.42263e-09
-5.7526e-08
-7.45086e-09
-5.49195e-08
-7.46367e-09
-5.23138e-08
-7.46086e-09
-4.97143e-08
-7.44224e-09
-4.71263e-08
-7.40768e-09
-4.45555e-08
-7.35706e-09
-4.20075e-08
-7.29032e-09
-3.94876e-08
-7.20743e-09
-3.70016e-08
-7.10841e-09
-3.4555e-08
-6.9933e-09
-3.21531e-08
-6.86221e-09
-2.98015e-08
-6.71529e-09
-2.75054e-08
-6.55273e-09
-2.52702e-08
-6.37479e-09
-2.31009e-08
-6.18175e-09
-2.10026e-08
-5.97397e-09
-1.89802e-08
-5.75187e-09
-1.70384e-08
-5.51592e-09
-1.51816e-08
-5.26665e-09
-1.34141e-08
-5.00469e-09
-1.17399e-08
-4.73073e-09
-1.01629e-08
-4.44554e-09
-8.68628e-09
-4.15e-09
-7.31324e-09
-3.8451e-09
-6.04641e-09
-3.53194e-09
-4.88803e-09
-3.2118e-09
-3.83979e-09
-2.88609e-09
-2.90283e-09
-2.55644e-09
-2.07766e-09
-2.2247e-09
-1.36404e-09
-1.893e-09
-7.60894e-10
-1.56381e-09
-2.66205e-10
-1.24e-09
1.23144e-10
-9.24908e-10
4.11508e-10
-6.22475e-10
6.04668e-10
-3.37332e-10
7.10025e-10
-7.49559e-11
7.36816e-10
1.58186e-10
6.96331e-10
3.54478e-10
6.02139e-10
5.05028e-10
4.70322e-10
5.99615e-10
3.19757e-10
6.26789e-10
1.72532e-10
5.74253e-10
5.48417e-11
4.29643e-10
1.81361e-10
3.63216e-11
-2.1272e-10
9.78711e-11
-4.34658e-10
1.48843e-10
-4.93587e-10
1.61194e-10
-4.20834e-10
1.12203e-10
-2.41949e-10
-1.65552e-11
2.09698e-11
-2.39867e-10
3.49046e-10
-5.69363e-10
7.26411e-10
-1.01392e-09
1.13984e-09
-1.58e-09
1.57837e-09
-2.27199e-09
2.03301e-09
-3.09247e-09
2.49636e-09
-4.04251e-09
2.96238e-09
-5.12187e-09
3.42617e-09
-6.32921e-09
3.88374e-09
-7.66232e-09
4.33185e-09
-9.1182e-09
4.76792e-09
-1.06932e-08
5.18987e-09
-1.23833e-08
5.59607e-09
-1.4184e-08
5.98523e-09
-1.60903e-08
6.35637e-09
-1.80973e-08
6.70875e-09
-2.01995e-08
7.04185e-09
-2.23917e-08
7.3553e-09
-2.46682e-08
7.64889e-09
-2.70235e-08
7.92252e-09
-2.9452e-08
8.1762e-09
-3.1948e-08
8.40999e-09
-3.45059e-08
8.62406e-09
-3.71201e-08
8.8186e-09
-3.97851e-08
8.99385e-09
-4.24954e-08
9.1501e-09
-4.52457e-08
9.28764e-09
-4.80306e-08
9.40679e-09
-5.08448e-08
9.5079e-09
-5.36833e-08
9.59132e-09
-5.65408e-08
9.65738e-09
-5.94126e-08
9.70645e-09
-6.22936e-08
9.73888e-09
-6.51791e-08
9.75501e-09
-6.80644e-08
9.7552e-09
-7.09449e-08
9.73977e-09
-7.38161e-08
9.70906e-09
-7.66735e-08
9.66339e-09
-7.95129e-08
9.60308e-09
-8.23299e-08
9.52841e-09
-8.51205e-08
9.4397e-09
-8.78805e-08
9.33722e-09
-9.06059e-08
9.22125e-09
-9.32928e-08
9.09206e-09
-9.59374e-08
8.94992e-09
-9.85359e-08
8.79508e-09
-1.01085e-07
8.62778e-09
-1.0358e-07
8.44828e-09
-1.06018e-07
8.25681e-09
-1.08396e-07
8.05362e-09
-1.1071e-07
7.83894e-09
-1.12957e-07
7.61302e-09
-1.15134e-07
7.37609e-09
-1.17236e-07
7.1284e-09
-1.19262e-07
6.87019e-09
-1.21209e-07
6.60172e-09
-1.23073e-07
6.32324e-09
-1.24851e-07
6.03503e-09
-1.26541e-07
5.73735e-09
-1.28139e-07
5.43051e-09
-1.29645e-07
5.11479e-09
-1.31054e-07
4.79052e-09
-1.32364e-07
4.458e-09
-1.33574e-07
4.11759e-09
-1.34681e-07
3.76964e-09
-1.35682e-07
3.41453e-09
-1.36577e-07
3.05264e-09
-1.37362e-07
2.6844e-09
-1.38037e-07
2.31021e-09
-1.386e-07
1.93054e-09
-1.39049e-07
1.54584e-09
-1.39384e-07
1.15662e-09
-1.39602e-07
7.6338e-10
-1.39703e-07
3.66647e-10
-1.39687e-07
-3.30259e-11
-1.39552e-07
-4.35068e-10
-1.39298e-07
-8.38888e-10
-1.38924e-07
-1.24387e-09
-1.38432e-07
-1.64939e-09
-1.3782e-07
-2.05479e-09
-1.37089e-07
-2.45941e-09
-1.36239e-07
-2.86255e-09
-1.35272e-07
-3.26352e-09
-1.34187e-07
-3.6616e-09
-1.32987e-07
-4.05606e-09
-1.31672e-07
-4.44615e-09
-1.30245e-07
-4.83111e-09
-1.28706e-07
-5.21019e-09
-1.27058e-07
-5.58261e-09
-1.25302e-07
-5.94758e-09
-1.23443e-07
-6.30433e-09
-1.21481e-07
-6.65206e-09
-1.1942e-07
-6.99e-09
-1.17263e-07
-7.31735e-09
-1.15014e-07
-7.63333e-09
-1.12676e-07
-7.93718e-09
-1.10253e-07
-8.22812e-09
-1.07748e-07
-8.50539e-09
-1.05167e-07
-8.76826e-09
-1.02512e-07
-9.016e-09
-9.97904e-08
-9.2479e-09
-9.70053e-08
-9.46328e-09
-9.41621e-08
-9.66146e-09
-9.1266e-08
-9.84183e-09
-8.83224e-08
-1.00038e-08
-8.53368e-08
-1.01467e-08
-8.2315e-08
-1.027e-08
-7.92626e-08
-1.03733e-08
-7.61858e-08
-1.04561e-08
-7.30905e-08
-1.05179e-08
-6.99831e-08
-1.05583e-08
-6.68697e-08
-1.05771e-08
-6.37568e-08
-1.05738e-08
-6.06507e-08
-1.05483e-08
-5.7558e-08
-1.05004e-08
-5.44853e-08
-1.04298e-08
-5.1439e-08
-1.03366e-08
-4.84256e-08
-1.02207e-08
-4.54519e-08
-1.00822e-08
-4.25241e-08
-9.92104e-09
-3.96489e-08
-9.73746e-09
-3.68325e-08
-9.53167e-09
-3.40813e-08
-9.30396e-09
-3.14014e-08
-9.05468e-09
-2.87989e-08
-8.78428e-09
-2.62796e-08
-8.49326e-09
-2.38492e-08
-8.18223e-09
-2.15132e-08
-7.85187e-09
-1.92769e-08
-7.50297e-09
-1.71452e-08
-7.1364e-09
-1.51228e-08
-6.75317e-09
-1.32139e-08
-6.3544e-09
-1.14226e-08
-5.94134e-09
-9.75225e-09
-5.51542e-09
-8.20597e-09
-5.07822e-09
-6.78624e-09
-4.63153e-09
-5.49495e-09
-4.17738e-09
-4.33333e-09
-3.71806e-09
-3.30186e-09
-3.25616e-09
-2.40019e-09
-2.79468e-09
-1.62698e-09
-2.33701e-09
-9.7987e-10
-1.88711e-09
-4.5526e-10
-1.44952e-09
-4.82106e-11
-1.02952e-09
2.47744e-10
-6.33285e-10
4.4077e-10
-2.67981e-10
5.40927e-10
5.80303e-11
5.60369e-10
3.35038e-10
5.13557e-10
5.51842e-10
4.17516e-10
6.95658e-10
2.92192e-10
7.52114e-10
1.61013e-10
7.05432e-10
5.19242e-11
5.38732e-10
2.33286e-10
2.45774e-11
-2.37297e-10
5.56209e-11
-4.65698e-10
5.9248e-11
-4.97217e-10
8.19832e-12
-3.69782e-10
-1.19855e-10
-1.13896e-10
-3.43144e-10
2.44257e-10
-6.76393e-10
6.82296e-10
-1.13128e-09
1.1813e-09
-1.71679e-09
1.72534e-09
-2.43952e-09
2.30111e-09
-3.30401e-09
2.8975e-09
-4.31294e-09
3.50529e-09
-5.46743e-09
4.11688e-09
-6.76723e-09
4.72598e-09
-8.21094e-09
5.32744e-09
-9.79615e-09
5.91707e-09
-1.15197e-08
6.49142e-09
-1.33775e-08
7.04774e-09
-1.53653e-08
7.58382e-09
-1.74779e-08
8.0979e-09
-1.97102e-08
8.58863e-09
-2.20564e-08
9.05495e-09
-2.45107e-08
9.49611e-09
-2.70669e-08
9.91157e-09
-2.9719e-08
1.0301e-08
-3.24607e-08
1.06642e-08
-3.52855e-08
1.10011e-08
-3.81872e-08
1.13117e-08
-4.11595e-08
1.15963e-08
-4.41959e-08
1.1855e-08
-4.72902e-08
1.20882e-08
-5.04362e-08
1.22961e-08
-5.36277e-08
1.24791e-08
-5.68586e-08
1.26377e-08
-6.0123e-08
1.27723e-08
-6.34149e-08
1.28832e-08
-6.67284e-08
1.2971e-08
-7.0058e-08
1.3036e-08
-7.33979e-08
1.30788e-08
-7.67427e-08
1.30998e-08
-8.00869e-08
1.30994e-08
-8.34253e-08
1.30781e-08
-8.67526e-08
1.30363e-08
-9.00637e-08
1.29745e-08
-9.33535e-08
1.2893e-08
-9.66173e-08
1.27922e-08
-9.98502e-08
1.26725e-08
-1.03047e-07
1.25344e-08
-1.06204e-07
1.23781e-08
-1.09316e-07
1.22041e-08
-1.12379e-07
1.20127e-08
-1.15388e-07
1.18042e-08
-1.18339e-07
1.15789e-08
-1.21228e-07
1.13373e-08
-1.24051e-07
1.10796e-08
-1.26803e-07
1.08061e-08
-1.29482e-07
1.05172e-08
-1.32082e-07
1.02132e-08
-1.346e-07
9.89443e-09
-1.37033e-07
9.56122e-09
-1.39377e-07
9.2139e-09
-1.41628e-07
8.85283e-09
-1.43783e-07
8.47835e-09
-1.45839e-07
8.09083e-09
-1.47792e-07
7.69064e-09
-1.4964e-07
7.27818e-09
-1.51379e-07
6.85385e-09
-1.53006e-07
6.41809e-09
-1.5452e-07
5.97132e-09
-1.55916e-07
5.51402e-09
-1.57193e-07
5.04666e-09
-1.58348e-07
4.56975e-09
-1.59379e-07
4.08383e-09
-1.60285e-07
3.58944e-09
-1.61061e-07
3.08717e-09
-1.61709e-07
2.57762e-09
-1.62224e-07
2.06142e-09
-1.62607e-07
1.53922e-09
-1.62855e-07
1.01172e-09
-1.62968e-07
4.79623e-10
-1.62945e-07
-5.63289e-11
-1.62784e-07
-5.95368e-10
-1.62487e-07
-1.1367e-09
-1.62051e-07
-1.67951e-09
-1.61477e-07
-2.22295e-09
-1.60766e-07
-2.76615e-09
-1.59917e-07
-3.30822e-09
-1.58932e-07
-3.84824e-09
-1.5781e-07
-4.38526e-09
-1.56553e-07
-4.91834e-09
-1.55163e-07
-5.4465e-09
-1.5364e-07
-5.96875e-09
-1.51987e-07
-6.48407e-09
-1.50206e-07
-6.99145e-09
-1.48299e-07
-7.48986e-09
-1.46268e-07
-7.97826e-09
-1.44117e-07
-8.45561e-09
-1.41848e-07
-8.92086e-09
-1.39465e-07
-9.37296e-09
-1.36971e-07
-9.81088e-09
-1.34371e-07
-1.02336e-08
-1.31668e-07
-1.064e-08
-1.28867e-07
-1.10292e-08
-1.25973e-07
-1.14e-08
-1.22989e-07
-1.17517e-08
-1.19922e-07
-1.20831e-08
-1.16777e-07
-1.23933e-08
-1.13558e-07
-1.26815e-08
-1.10273e-07
-1.29468e-08
-1.06927e-07
-1.31882e-08
-1.03525e-07
-1.3405e-08
-1.00076e-07
-1.35965e-08
-9.65837e-08
-1.3762e-08
-9.30564e-08
-1.39006e-08
-8.95006e-08
-1.40119e-08
-8.59232e-08
-1.40953e-08
-8.23313e-08
-1.41502e-08
-7.87322e-08
-1.41762e-08
-7.51331e-08
-1.41729e-08
-7.15413e-08
-1.414e-08
-6.79644e-08
-1.40773e-08
-6.44097e-08
-1.39845e-08
-6.08848e-08
-1.38616e-08
-5.73971e-08
-1.37085e-08
-5.3954e-08
-1.35253e-08
-5.0563e-08
-1.3312e-08
-4.72314e-08
-1.3069e-08
-4.39666e-08
-1.27965e-08
-4.07755e-08
-1.2495e-08
-3.76654e-08
-1.21648e-08
-3.46429e-08
-1.18067e-08
-3.17149e-08
-1.14213e-08
-2.88876e-08
-1.10095e-08
-2.61674e-08
-1.05721e-08
-2.35601e-08
-1.01103e-08
-2.10713e-08
-9.62517e-09
-1.87063e-08
-9.11817e-09
-1.64699e-08
-8.59079e-09
-1.43665e-08
-8.04474e-09
-1.24e-08
-7.48192e-09
-1.05738e-08
-6.90446e-09
-8.89056e-09
-6.31477e-09
-7.35239e-09
-5.71554e-09
-5.96062e-09
-5.10983e-09
-4.71571e-09
-4.50107e-09
-3.61722e-09
-3.89317e-09
-2.66365e-09
-3.29058e-09
-1.85236e-09
-2.6984e-09
-1.17942e-09
-2.12246e-09
-6.39481e-10
-1.56947e-09
-2.25604e-10
-1.04716e-09
7.08747e-11
-5.64458e-10
2.60534e-10
-1.31628e-10
3.56048e-10
2.39525e-10
3.72397e-10
5.35495e-10
3.27133e-10
7.40924e-10
2.40767e-10
8.38478e-10
1.37353e-10
8.08846e-10
4.54293e-11
6.30657e-10
2.78716e-10
1.06647e-11
-2.47964e-10
5.27276e-12
-4.60302e-10
-4.71238e-11
-4.44822e-10
-1.72105e-10
-2.44801e-10
-3.90912e-10
1.04912e-10
-7.21051e-10
5.74393e-10
-1.17675e-09
1.138e-09
-1.76937e-09
1.77391e-09
-2.50769e-09
2.46366e-09
-3.39818e-09
3.1916e-09
-4.4453e-09
3.94461e-09
-5.65167e-09
4.71166e-09
-7.01833e-09
5.48354e-09
-8.54494e-09
6.25259e-09
-1.02299e-08
7.01245e-09
-1.20708e-08
7.75789e-09
-1.4064e-08
8.4846e-09
-1.62053e-08
9.18906e-09
-1.84899e-08
9.86845e-09
-2.09125e-08
1.05205e-08
-2.34672e-08
1.11434e-08
-2.6148e-08
1.17357e-08
-2.89484e-08
1.22965e-08
-3.18619e-08
1.2825e-08
-3.48816e-08
1.33207e-08
-3.80006e-08
1.37832e-08
-4.1212e-08
1.42125e-08
-4.45088e-08
1.46085e-08
-4.78839e-08
1.49714e-08
-5.13303e-08
1.53015e-08
-5.48412e-08
1.5599e-08
-5.84094e-08
1.58643e-08
-6.20282e-08
1.6098e-08
-6.56908e-08
1.63003e-08
-6.93905e-08
1.64719e-08
-7.31206e-08
1.66133e-08
-7.68747e-08
1.6725e-08
-8.06463e-08
1.68076e-08
-8.44291e-08
1.68616e-08
-8.8217e-08
1.68877e-08
-9.20038e-08
1.68862e-08
-9.57836e-08
1.68579e-08
-9.95504e-08
1.68032e-08
-1.03299e-07
1.67227e-08
-1.07022e-07
1.66168e-08
-1.10716e-07
1.64861e-08
-1.14375e-07
1.63312e-08
-1.17993e-07
1.61523e-08
-1.21565e-07
1.59502e-08
-1.25086e-07
1.57251e-08