/*--------------------------------*- C++ -*----------------------------------*\
  =========                 |
  \\      /  F ield         | OpenFOAM: The Open Source CFD Toolbox
   \\    /   O peration     | Website:  https://openfoam.org
    \\  /    A nd           | Version:  7
     \\/     M anipulation  |
\*---------------------------------------------------------------------------*/
FoamFile
{
    version     2.0;
    format      ascii;
    class       volVectorField;
    location    "0.4875";
    object      U;
}
// * * * * * * * * * * * * * * * * * * * * * * * * * * * * * * * * * * * * * //

dimensions      [0 1 -1 0 0 0 0];

internalField   nonuniform List<vector> 
25600
(
(2.7988e-07 -2.76639e-07 0)
(3.12089e-06 -1.88682e-06 0)
(9.4442e-06 -2.8752e-06 0)
(1.71859e-05 -3.17109e-06 0)
(2.48072e-05 -3.0065e-06 0)
(3.13613e-05 -2.55376e-06 0)
(3.62154e-05 -1.92398e-06 0)
(3.89464e-05 -1.1895e-06 0)
(3.92847e-05 -3.96623e-07 0)
(3.70682e-05 4.24635e-07 0)
(3.22098e-05 1.25436e-06 0)
(2.46766e-05 2.0789e-06 0)
(1.44755e-05 2.88906e-06 0)
(1.64261e-06 3.67798e-06 0)
(-1.37641e-05 4.44116e-06 0)
(-3.16705e-05 5.17533e-06 0)
(-5.19902e-05 5.87825e-06 0)
(-7.46284e-05 6.54847e-06 0)
(-9.94833e-05 7.18496e-06 0)
(-0.000126449 7.78707e-06 0)
(-0.000155416 8.35469e-06 0)
(-0.000186274 8.88798e-06 0)
(-0.000218912 9.38726e-06 0)
(-0.000253217 9.8527e-06 0)
(-0.000289079 1.02847e-05 0)
(-0.000326387 1.06843e-05 0)
(-0.000365033 1.10519e-05 0)
(-0.000404911 1.13885e-05 0)
(-0.000445915 1.16949e-05 0)
(-0.000487942 1.19713e-05 0)
(-0.000530891 1.2219e-05 0)
(-0.000574665 1.24386e-05 0)
(-0.000619166 1.2631e-05 0)
(-0.000664302 1.27968e-05 0)
(-0.000709981 1.29368e-05 0)
(-0.000756113 1.3052e-05 0)
(-0.000802613 1.31429e-05 0)
(-0.000849395 1.321e-05 0)
(-0.000896376 1.32543e-05 0)
(-0.000943478 1.32763e-05 0)
(-0.000990622 1.32767e-05 0)
(-0.00103773 1.3256e-05 0)
(-0.00108473 1.32148e-05 0)
(-0.00113155 1.31535e-05 0)
(-0.00117812 1.30726e-05 0)
(-0.00122436 1.29726e-05 0)
(-0.00127022 1.2854e-05 0)
(-0.00131562 1.27172e-05 0)
(-0.0013605 1.25625e-05 0)
(-0.00140479 1.23904e-05 0)
(-0.00144844 1.22011e-05 0)
(-0.00149139 1.1995e-05 0)
(-0.00153356 1.17724e-05 0)
(-0.00157492 1.15337e-05 0)
(-0.00161538 1.1279e-05 0)
(-0.00165491 1.10087e-05 0)
(-0.00169345 1.0723e-05 0)
(-0.00173093 1.04221e-05 0)
(-0.00176732 1.01064e-05 0)
(-0.00180254 9.77603e-06 0)
(-0.00183656 9.43144e-06 0)
(-0.00186933 9.07296e-06 0)
(-0.00190079 8.70081e-06 0)
(-0.00193089 8.3153e-06 0)
(-0.0019596 7.91669e-06 0)
(-0.00198685 7.5053e-06 0)
(-0.00201262 7.08144e-06 0)
(-0.00203685 6.64542e-06 0)
(-0.00205951 6.19769e-06 0)
(-0.00208055 5.7387e-06 0)
(-0.00209994 5.26883e-06 0)
(-0.00211763 4.78856e-06 0)
(-0.0021336 4.29833e-06 0)
(-0.00214781 3.79862e-06 0)
(-0.00216022 3.29014e-06 0)
(-0.00217081 2.7734e-06 0)
(-0.00217956 2.24888e-06 0)
(-0.00218643 1.71738e-06 0)
(-0.0021914 1.17955e-06 0)
(-0.00219446 6.35933e-07 0)
(-0.00219558 8.73498e-08 0)
(-0.00219475 -4.65397e-07 0)
(-0.00219196 -1.0216e-06 0)
(-0.00218719 -1.5803e-06 0)
(-0.00218045 -2.14059e-06 0)
(-0.00217173 -2.70175e-06 0)
(-0.00216102 -3.26277e-06 0)
(-0.00214834 -3.82254e-06 0)
(-0.00213369 -4.38018e-06 0)
(-0.00211707 -4.93482e-06 0)
(-0.00209851 -5.48527e-06 0)
(-0.00207802 -6.03035e-06 0)
(-0.00205562 -6.56903e-06 0)
(-0.00203134 -7.10021e-06 0)
(-0.00200521 -7.62277e-06 0)
(-0.00197725 -8.13562e-06 0)
(-0.00194752 -8.6376e-06 0)
(-0.00191604 -9.1275e-06 0)
(-0.00188287 -9.60411e-06 0)
(-0.00184805 -1.00663e-05 0)
(-0.00181163 -1.0513e-05 0)
(-0.00177368 -1.09427e-05 0)
(-0.00173426 -1.13546e-05 0)
(-0.00169342 -1.17477e-05 0)
(-0.00165124 -1.21206e-05 0)
(-0.0016078 -1.24721e-05 0)
(-0.00156316 -1.28014e-05 0)
(-0.00151741 -1.31074e-05 0)
(-0.00147064 -1.3389e-05 0)
(-0.00142292 -1.36451e-05 0)
(-0.00137435 -1.38748e-05 0)
(-0.00132503 -1.40773e-05 0)
(-0.00127505 -1.42517e-05 0)
(-0.00122451 -1.43972e-05 0)
(-0.00117351 -1.4513e-05 0)
(-0.00112215 -1.45986e-05 0)
(-0.00107055 -1.46531e-05 0)
(-0.00101882 -1.46759e-05 0)
(-0.000967053 -1.46667e-05 0)
(-0.000915375 -1.4625e-05 0)
(-0.000863896 -1.45505e-05 0)
(-0.00081273 -1.44427e-05 0)
(-0.000761992 -1.43016e-05 0)
(-0.0007118 -1.41269e-05 0)
(-0.000662269 -1.39186e-05 0)
(-0.000613516 -1.36765e-05 0)
(-0.000565655 -1.34007e-05 0)
(-0.000518804 -1.30915e-05 0)
(-0.000473076 -1.27492e-05 0)
(-0.000428584 -1.2374e-05 0)
(-0.000385441 -1.19663e-05 0)
(-0.000343757 -1.15267e-05 0)
(-0.000303638 -1.10557e-05 0)
(-0.00026519 -1.05542e-05 0)
(-0.000228516 -1.00229e-05 0)
(-0.000193712 -9.46287e-06 0)
(-0.000160875 -8.87501e-06 0)
(-0.000130094 -8.26044e-06 0)
(-0.000101454 -7.62051e-06 0)
(-7.50357e-05 -6.9568e-06 0)
(-5.09118e-05 -6.27107e-06 0)
(-2.91487e-05 -5.56524e-06 0)
(-9.8042e-06 -4.84151e-06 0)
(7.07367e-06 -4.1025e-06 0)
(2.14478e-05 -3.35132e-06 0)
(3.32937e-05 -2.59173e-06 0)
(4.26023e-05 -1.8282e-06 0)
(4.93833e-05 -1.06616e-06 0)
(5.36683e-05 -3.12411e-07 0)
(5.55166e-05 4.2423e-07 0)
(5.50221e-05 1.13205e-06 0)
(5.23226e-05 1.79528e-06 0)
(4.76131e-05 2.39215e-06 0)
(4.11649e-05 2.89139e-06 0)
(3.3352e-05 3.24684e-06 0)
(2.46898e-05 3.39083e-06 0)
(1.58773e-05 3.22679e-06 0)
(7.86238e-06 2.61892e-06 0)
(2.00913e-06 1.42396e-06 0)
(-8.66513e-08 -8.50177e-08 0)
(1.89038e-06 -3.11979e-06 0)
(9.63024e-06 -9.62395e-06 0)
(2.32231e-05 -1.33325e-05 0)
(3.88309e-05 -1.42382e-05 0)
(5.35488e-05 -1.30451e-05 0)
(6.53826e-05 -1.03681e-05 0)
(7.28277e-05 -6.67048e-06 0)
(7.47823e-05 -2.29239e-06 0)
(7.04822e-05 2.52146e-06 0)
(5.9423e-05 7.59466e-06 0)
(4.12965e-05 1.27994e-05 0)
(1.59457e-05 1.80415e-05 0)
(-1.66719e-05 2.32514e-05 0)
(-5.651e-05 2.8377e-05 0)
(-0.000103454 3.3379e-05 0)
(-0.000157337 3.82282e-05 0)
(-0.000217953 4.29032e-05 0)
(-0.000285065 4.73878e-05 0)
(-0.000358412 5.16704e-05 0)
(-0.000437716 5.57431e-05 0)
(-0.000522689 5.96006e-05 0)
(-0.000613032 6.32398e-05 0)
(-0.000708442 6.66596e-05 0)
(-0.000808613 6.98602e-05 0)
(-0.000913239 7.28424e-05 0)
(-0.00102201 7.56085e-05 0)
(-0.00113463 7.81616e-05 0)
(-0.00125079 8.0505e-05 0)
(-0.0013702 8.26428e-05 0)
(-0.00149257 8.45785e-05 0)
(-0.0016176 8.63169e-05 0)
(-0.00174503 8.78619e-05 0)
(-0.00187456 8.92186e-05 0)
(-0.00200594 9.03913e-05 0)
(-0.0021389 9.13844e-05 0)
(-0.00227318 9.22029e-05 0)
(-0.00240854 9.28509e-05 0)
(-0.00254472 9.33327e-05 0)
(-0.00268149 9.36527e-05 0)
(-0.00281861 9.38148e-05 0)
(-0.00295586 9.38231e-05 0)
(-0.00309301 9.36815e-05 0)
(-0.00322985 9.33934e-05 0)
(-0.00336616 9.29622e-05 0)
(-0.00350173 9.23914e-05 0)
(-0.00363637 9.1684e-05 0)
(-0.00376988 9.08431e-05 0)
(-0.00390205 8.98715e-05 0)
(-0.00403271 8.87721e-05 0)
(-0.00416165 8.75473e-05 0)
(-0.00428871 8.61997e-05 0)
(-0.0044137 8.47317e-05 0)
(-0.00453645 8.31456e-05 0)
(-0.00465678 8.14436e-05 0)
(-0.00477453 7.96278e-05 0)
(-0.00488953 7.77004e-05 0)
(-0.00500161 7.56634e-05 0)
(-0.00511062 7.35189e-05 0)
(-0.00521641 7.1269e-05 0)
(-0.00531881 6.89158e-05 0)
(-0.00541769 6.64614e-05 0)
(-0.00551288 6.39081e-05 0)
(-0.00560426 6.1258e-05 0)
(-0.00569168 5.85135e-05 0)
(-0.005775 5.56769e-05 0)
(-0.00585409 5.27508e-05 0)
(-0.00592883 4.97376e-05 0)
(-0.00599908 4.664e-05 0)
(-0.00606473 4.34609e-05 0)
(-0.00612567 4.02035e-05 0)
(-0.00618178 3.68708e-05 0)
(-0.00623295 3.34661e-05 0)
(-0.00627908 2.99933e-05 0)
(-0.00632008 2.64558e-05 0)
(-0.00635587 2.28577e-05 0)
(-0.00638634 1.92034e-05 0)
(-0.00641143 1.5497e-05 0)
(-0.00643107 1.17431e-05 0)
(-0.00644518 7.94668e-06 0)
(-0.00645372 4.11255e-06 0)
(-0.00645664 2.45885e-07 0)
(-0.00645389 -3.64768e-06 0)
(-0.00644544 -7.56248e-06 0)
(-0.00643126 -1.14926e-05 0)
(-0.00641135 -1.54317e-05 0)
(-0.00638568 -1.93737e-05 0)
(-0.00635427 -2.33121e-05 0)
(-0.00631713 -2.72399e-05 0)
(-0.00627428 -3.11502e-05 0)
(-0.00622575 -3.50361e-05 0)
(-0.00617158 -3.88902e-05 0)
(-0.00611184 -4.27049e-05 0)
(-0.00604657 -4.64727e-05 0)
(-0.00597586 -5.01859e-05 0)
(-0.0058998 -5.38369e-05 0)
(-0.00581848 -5.74177e-05 0)
(-0.005732 -6.09205e-05 0)
(-0.0056405 -6.43372e-05 0)
(-0.00554411 -6.76599e-05 0)
(-0.00544296 -7.08804e-05 0)
(-0.00533721 -7.3991e-05 0)
(-0.00522703 -7.69836e-05 0)
(-0.0051126 -7.98504e-05 0)
(-0.0049941 -8.25839e-05 0)
(-0.00487174 -8.51762e-05 0)
(-0.00474573 -8.76198e-05 0)
(-0.00461628 -8.99073e-05 0)
(-0.00448363 -9.20317e-05 0)
(-0.00434803 -9.39863e-05 0)
(-0.00420972 -9.57643e-05 0)
(-0.00406896 -9.73592e-05 0)
(-0.00392602 -9.8765e-05 0)
(-0.00378119 -9.99758e-05 0)
(-0.00363474 -0.000100986 0)
(-0.00348697 -0.000101792 0)
(-0.00333819 -0.000102387 0)
(-0.00318869 -0.000102768 0)
(-0.00303879 -0.000102932 0)
(-0.00288881 -0.000102874 0)
(-0.00273907 -0.000102592 0)
(-0.00258989 -0.000102084 0)
(-0.0024416 -0.000101347 0)
(-0.00229453 -0.000100381 0)
(-0.00214902 -9.91848e-05 0)
(-0.00200539 -9.77577e-05 0)
(-0.00186397 -9.61004e-05 0)
(-0.0017251 -9.42136e-05 0)
(-0.00158911 -9.20988e-05 0)
(-0.00145631 -8.97583e-05 0)
(-0.00132704 -8.71948e-05 0)
(-0.0012016 -8.44118e-05 0)
(-0.00108031 -8.14136e-05 0)
(-0.000963471 -7.82051e-05 0)
(-0.000851379 -7.4792e-05 0)
(-0.000744319 -7.11808e-05 0)
(-0.000642567 -6.7379e-05 0)
(-0.000546385 -6.33949e-05 0)
(-0.000456021 -5.92379e-05 0)
(-0.000371711 -5.49187e-05 0)
(-0.000293669 -5.04496e-05 0)
(-0.000222091 -4.58443e-05 0)
(-0.000157152 -4.11185e-05 0)
(-9.89982e-05 -3.62901e-05 0)
(-4.77483e-05 -3.138e-05 0)
(-3.48584e-06 -2.64128e-05 0)
(3.37446e-05 -2.14169e-05 0)
(6.39454e-05 -1.64262e-05 0)
(8.71748e-05 -1.1482e-05 0)
(0.000103557 -6.63434e-06 0)
(0.000113296 -1.9453e-06 0)
(0.000116693 2.50685e-06 0)
(0.000114172 6.62224e-06 0)
(0.000106304 1.02716e-05 0)
(9.38482e-05 1.32847e-05 0)
(7.77989e-05 1.54357e-05 0)
(5.94395e-05 1.64284e-05 0)
(4.03726e-05 1.58895e-05 0)
(2.2541e-05 1.3378e-05 0)
(8.51931e-06 8.52559e-06 0)
(1.4188e-06 2.00825e-06 0)
(2.87894e-06 -9.44576e-06 0)
(1.33518e-05 -2.32232e-05 0)
(3.03643e-05 -3.03285e-05 0)
(4.87881e-05 -3.13715e-05 0)
(6.49637e-05 -2.76113e-05 0)
(7.63299e-05 -2.02383e-05 0)
(8.08487e-05 -1.02379e-05 0)
(7.69534e-05 1.61304e-06 0)
(6.35043e-05 1.4717e-05 0)
(3.97105e-05 2.86189e-05 0)
(5.05891e-06 4.29729e-05 0)
(-4.07413e-05 5.7515e-05 0)
(-9.78049e-05 7.20432e-05 0)
(-0.000166108 8.64027e-05 0)
(-0.000245515 0.000100474 0)
(-0.000335805 0.000114166 0)
(-0.000436688 0.00012741 0)
(-0.000547822 0.000140151 0)
(-0.000668823 0.000152351 0)
(-0.000799274 0.000163982 0)
(-0.000938739 0.000175022 0)
(-0.00108676 0.000185459 0)
(-0.00124287 0.000195285 0)
(-0.0014066 0.000204497 0)
(-0.00157746 0.000213095 0)
(-0.00175498 0.000221083 0)
(-0.00193867 0.000228466 0)
(-0.00212807 0.000235251 0)
(-0.0023227 0.000241448 0)
(-0.0025221 0.000247067 0)
(-0.00272581 0.000252118 0)
(-0.00293338 0.000256613 0)
(-0.00314437 0.000260563 0)
(-0.00335835 0.000263982 0)
(-0.00357488 0.000266881 0)
(-0.00379356 0.000269271 0)
(-0.00401398 0.000271166 0)
(-0.00423575 0.000272577 0)
(-0.00445846 0.000273516 0)
(-0.00468175 0.000273995 0)
(-0.00490525 0.000274023 0)
(-0.00512858 0.000273612 0)
(-0.0053514 0.000272771 0)
(-0.00557336 0.000271512 0)
(-0.00579412 0.000269843 0)
(-0.00601335 0.000267773 0)
(-0.00623073 0.000265311 0)
(-0.00644593 0.000262466 0)
(-0.00665864 0.000259244 0)
(-0.00686856 0.000255655 0)
(-0.0070754 0.000251704 0)
(-0.00727885 0.0002474 0)
(-0.00747864 0.000242749 0)
(-0.00767447 0.000237757 0)
(-0.00786608 0.000232432 0)
(-0.00805319 0.00022678 0)
(-0.00823554 0.000220806 0)
(-0.00841287 0.000214517 0)
(-0.00858492 0.00020792 0)
(-0.00875144 0.000201021 0)
(-0.0089122 0.000193826 0)
(-0.00906694 0.000186342 0)
(-0.00921544 0.000178575 0)
(-0.00935748 0.000170533 0)
(-0.00949282 0.000162223 0)
(-0.00962126 0.000153652 0)
(-0.00974259 0.000144828 0)
(-0.0098566 0.00013576 0)
(-0.0099631 0.000126455 0)
(-0.0100619 0.000116923 0)
(-0.0101528 0.000107174 0)
(-0.0102357 9.72176e-05 0)
(-0.0103104 8.70641e-05 0)
(-0.0103767 7.6725e-05 0)
(-0.0104345 6.62119e-05 0)
(-0.0104837 5.55371e-05 0)
(-0.0105241 4.47138e-05 0)
(-0.0105556 3.37549e-05 0)
(-0.0105781 2.26749e-05 0)
(-0.0105916 1.14885e-05 0)
(-0.0105959 2.11169e-07 0)
(-0.0105911 -1.11412e-05 0)
(-0.0105769 -2.25518e-05 0)
(-0.0105535 -3.40035e-05 0)
(-0.0105207 -4.54783e-05 0)
(-0.0104786 -5.69576e-05 0)
(-0.0104272 -6.84227e-05 0)
(-0.0103665 -7.98539e-05 0)
(-0.0102965 -9.12308e-05 0)
(-0.0102173 -0.000102533 0)
(-0.010129 -0.000113739 0)
(-0.0100316 -0.000124828 0)
(-0.00992527 -0.000135778 0)
(-0.00981014 -0.000146566 0)
(-0.00968634 -0.000157171 0)
(-0.00955402 -0.000167569 0)
(-0.00941338 -0.000177738 0)
(-0.0092646 -0.000187654 0)
(-0.00910789 -0.000197296 0)
(-0.0089435 -0.000206639 0)
(-0.00877167 -0.000215661 0)
(-0.00859268 -0.000224339 0)
(-0.00840682 -0.000232651 0)
(-0.00821438 -0.000240575 0)
(-0.0080157 -0.000248088 0)
(-0.00781112 -0.000255169 0)
(-0.00760099 -0.000261797 0)
(-0.00738569 -0.000267952 0)
(-0.00716561 -0.000273614 0)
(-0.00694116 -0.000278764 0)
(-0.00671276 -0.000283385 0)
(-0.00648083 -0.000287457 0)
(-0.00624584 -0.000290967 0)
(-0.00600824 -0.000293896 0)
(-0.00576851 -0.000296233 0)
(-0.00552712 -0.000297963 0)
(-0.00528457 -0.000299075 0)
(-0.00504136 -0.000299558 0)
(-0.004798 -0.000299402 0)
(-0.00455502 -0.000298601 0)
(-0.00431292 -0.000297147 0)
(-0.00407224 -0.000295035 0)
(-0.0038335 -0.000292262 0)
(-0.00359725 -0.000288826 0)
(-0.003364 -0.000284727 0)
(-0.00313428 -0.000279966 0)
(-0.00290864 -0.000274547 0)
(-0.00268759 -0.000268473 0)
(-0.00247165 -0.000261753 0)
(-0.00226133 -0.000254395 0)
(-0.00205714 -0.00024641 0)
(-0.00185958 -0.00023781 0)
(-0.00166911 -0.000228611 0)
(-0.00148622 -0.000218831 0)
(-0.00131134 -0.00020849 0)
(-0.00114493 -0.00019761 0)
(-0.000987374 -0.000186216 0)
(-0.000839078 -0.00017434 0)
(-0.000700401 -0.000162012 0)
(-0.000571675 -0.000149271 0)
(-0.000453199 -0.000136159 0)
(-0.000345234 -0.000122723 0)
(-0.000247997 -0.000109019 0)
(-0.000161656 -9.51105e-05 0)
(-8.63222e-05 -8.10705e-05 0)
(-2.20415e-05 -6.69849e-05 0)
(3.12164e-05 -5.29551e-05 0)
(7.35716e-05 -3.9102e-05 0)
(0.000105249 -2.55711e-05 0)
(0.0001266 -1.25393e-05 0)
(0.000138122 -2.24174e-07 0)
(0.000140493 1.11045e-05 0)
(0.000134602 2.11094e-05 0)
(0.000121597 2.93682e-05 0)
(0.000102928 3.53523e-05 0)
(8.0396e-05 3.84145e-05 0)
(5.61569e-05 3.78004e-05 0)
(3.27026e-05 3.27109e-05 0)
(1.33627e-05 2.25415e-05 0)
(2.61002e-06 7.85103e-06 0)
(3.18206e-06 -1.72055e-05 0)
(1.42944e-05 -3.88664e-05 0)
(3.14926e-05 -4.87705e-05 0)
(4.88306e-05 -4.8676e-05 0)
(6.21734e-05 -4.05536e-05 0)
(6.86196e-05 -2.62283e-05 0)
(6.58142e-05 -7.25625e-06 0)
(5.18983e-05 1.5091e-05 0)
(2.54773e-05 3.97991e-05 0)
(-1.44493e-05 6.60683e-05 0)
(-6.85569e-05 9.32709e-05 0)
(-0.000137252 0.000120916 0)
(-0.000220721 0.000148619 0)
(-0.000318972 0.000176077 0)
(-0.000431869 0.000203057 0)
(-0.000559157 0.000229373 0)
(-0.000700489 0.000254882 0)
(-0.000855444 0.000279475 0)
(-0.00102354 0.000303068 0)
(-0.00120425 0.000325597 0)
(-0.00139702 0.000347017 0)
(-0.00160125 0.000367296 0)
(-0.00181634 0.000386414 0)
(-0.00204166 0.00040436 0)
(-0.00227659 0.00042113 0)
(-0.0025205 0.000436726 0)
(-0.00277274 0.000451155 0)
(-0.00303269 0.00046443 0)
(-0.00329971 0.000476564 0)
(-0.00357319 0.000487575 0)
(-0.00385252 0.000497481 0)
(-0.00413708 0.000506303 0)
(-0.00442628 0.000514061 0)
(-0.00471953 0.000520779 0)
(-0.00501627 0.000526478 0)
(-0.00531592 0.00053118 0)
(-0.00561793 0.000534909 0)
(-0.00592176 0.000537686 0)
(-0.00622689 0.000539533 0)
(-0.00653279 0.000540473 0)
(-0.00683897 0.000540525 0)
(-0.00714491 0.00053971 0)
(-0.00745014 0.000538047 0)
(-0.00775417 0.000535556 0)
(-0.00805656 0.000532255 0)
(-0.00835683 0.000528161 0)
(-0.00865455 0.000523292 0)
(-0.00894928 0.000517663 0)
(-0.00924059 0.00051129 0)
(-0.00952806 0.000504188 0)
(-0.00981128 0.000496372 0)
(-0.0100898 0.000487855 0)
(-0.0103634 0.000478652 0)
(-0.0106315 0.000468776 0)
(-0.0108937 0.000458239 0)
(-0.0111498 0.000447055 0)
(-0.0113994 0.000435236 0)
(-0.011642 0.000422795 0)
(-0.0118774 0.000409744 0)
(-0.0121052 0.000396098 0)
(-0.012325 0.000381867 0)
(-0.0125366 0.000367067 0)
(-0.0127396 0.00035171 0)
(-0.0129338 0.00033581 0)
(-0.0131187 0.000319383 0)
(-0.0132942 0.000302443 0)
(-0.0134599 0.000285006 0)
(-0.0136156 0.000267089 0)
(-0.0137609 0.000248709 0)
(-0.0138957 0.000229884 0)
(-0.0140197 0.000210634 0)
(-0.0141327 0.000190978 0)
(-0.0142344 0.000170938 0)
(-0.0143247 0.000150536 0)
(-0.0144033 0.000129795 0)
(-0.01447 0.00010874 0)
(-0.0145248 8.73966e-05 0)
(-0.0145674 6.5791e-05 0)
(-0.0145977 4.39514e-05 0)
(-0.0146157 2.1907e-05 0)
(-0.0146211 -3.11551e-07 0)
(-0.0146139 -2.26726e-05 0)
(-0.014594 -4.51434e-05 0)
(-0.0145615 -6.76898e-05 0)
(-0.0145162 -9.02767e-05 0)
(-0.0144582 -0.000112868 0)
(-0.0143874 -0.000135425 0)
(-0.014304 -0.000157911 0)
(-0.0142079 -0.000180285 0)
(-0.0140992 -0.000202508 0)
(-0.0139781 -0.000224537 0)
(-0.0138446 -0.000246332 0)
(-0.013699 -0.000267849 0)
(-0.0135414 -0.000289044 0)
(-0.0133719 -0.000309875 0)
(-0.0131908 -0.000330296 0)
(-0.0129984 -0.000350264 0)
(-0.0127949 -0.000369734 0)
(-0.0125806 -0.000388659 0)
(-0.0123559 -0.000406997 0)
(-0.012121 -0.000424702 0)
(-0.0118764 -0.000441731 0)
(-0.0116224 -0.000458038 0)
(-0.0113595 -0.000473582 0)
(-0.0110881 -0.000488319 0)
(-0.0108087 -0.000502208 0)
(-0.0105217 -0.000515207 0)
(-0.0102277 -0.000527279 0)
(-0.00992714 -0.000538384 0)
(-0.00962067 -0.000548485 0)
(-0.00930882 -0.000557548 0)
(-0.00899218 -0.000565539 0)
(-0.00867135 -0.000572427 0)
(-0.00834697 -0.000578181 0)
(-0.00801967 -0.000582774 0)
(-0.00769011 -0.000586181 0)
(-0.00735895 -0.00058838 0)
(-0.00702688 -0.000589349 0)
(-0.00669458 -0.000589071 0)
(-0.00636275 -0.000587531 0)
(-0.0060321 -0.000584718 0)
(-0.00570333 -0.000580621 0)
(-0.00537717 -0.000575234 0)
(-0.00505432 -0.000568554 0)
(-0.00473551 -0.000560582 0)
(-0.00442145 -0.000551321 0)
(-0.00411286 -0.000540779 0)
(-0.00381043 -0.000528964 0)
(-0.00351486 -0.000515893 0)
(-0.00322685 -0.000501582 0)
(-0.00294706 -0.000486055 0)
(-0.00267617 -0.000469338 0)
(-0.00241481 -0.000451462 0)
(-0.0021636 -0.000432463 0)
(-0.00192315 -0.000412381 0)
(-0.00169404 -0.000391264 0)
(-0.0014768 -0.000369164 0)
(-0.00127195 -0.00034614 0)
(-0.00107997 -0.000322259 0)
(-0.000901286 -0.000297597 0)
(-0.000736286 -0.000272239 0)
(-0.000585302 -0.000246283 0)
(-0.000448606 -0.000219839 0)
(-0.000326403 -0.000193035 0)
(-0.000218819 -0.000166016 0)
(-0.000125891 -0.000138954 0)
(-4.75534e-05 -0.000112048 0)
(1.63778e-05 -8.55322e-05 0)
(6.62242e-05 -5.96878e-05 0)
(0.000102467 -3.48496e-05 0)
(0.000125774 -1.14225e-05 0)
(0.000137032 1.01023e-05 0)
(0.000137378 2.91268e-05 0)
(0.000128244 4.49243e-05 0)
(0.000111398 5.66187e-05 0)
(8.8983e-05 6.31767e-05 0)
(6.35075e-05 6.34318e-05 0)
(3.78354e-05 5.61717e-05 0)
(1.58822e-05 4.03736e-05 0)
(3.21621e-06 1.58522e-05 0)
(3.02992e-06 -2.48687e-05 0)
(1.31586e-05 -5.36722e-05 0)
(2.78602e-05 -6.50285e-05 0)
(4.09108e-05 -6.2052e-05 0)
(4.79442e-05 -4.75478e-05 0)
(4.58595e-05 -2.40175e-05 0)
(3.21231e-05 6.39661e-06 0)
(4.70847e-06 4.19145e-05 0)
(-3.79344e-05 8.10828e-05 0)
(-9.69444e-05 0.000122728 0)
(-0.00017311 0.000165908 0)
(-0.000266925 0.000209869 0)
(-0.000378633 0.00025401 0)
(-0.000508272 0.000297851 0)
(-0.000655709 0.000341012 0)
(-0.000820669 0.000383191 0)
(-0.00100276 0.00042415 0)
(-0.00120151 0.000463703 0)
(-0.00141635 0.000501706 0)
(-0.00164667 0.000538047 0)
(-0.0018918 0.000572646 0)
(-0.00215103 0.000605443 0)
(-0.00242366 0.000636398 0)
(-0.00270891 0.000665486 0)
(-0.00300604 0.000692694 0)
(-0.00331427 0.000718022 0)
(-0.00363283 0.000741476 0)
(-0.00396095 0.00076307 0)
(-0.00429785 0.000782824 0)
(-0.00464277 0.00080076 0)
(-0.00499495 0.000816907 0)
(-0.00535365 0.000831293 0)
(-0.00571811 0.000843952 0)
(-0.00608763 0.000854917 0)
(-0.00646147 0.000864221 0)
(-0.00683894 0.000871899 0)
(-0.00721935 0.000877987 0)
(-0.00760203 0.000882518 0)
(-0.0079863 0.000885528 0)
(-0.00837153 0.00088705 0)
(-0.00875707 0.000887118 0)
(-0.0091423 0.000885762 0)
(-0.00952661 0.000883016 0)
(-0.00990941 0.000878908 0)
(-0.0102901 0.000873469 0)
(-0.0106681 0.000866727 0)
(-0.0110429 0.000858709 0)
(-0.0114139 0.000849442 0)
(-0.0117805 0.000838951 0)
(-0.0121423 0.00082726 0)
(-0.0124988 0.000814394 0)
(-0.0128493 0.000800376 0)
(-0.0131935 0.000785229 0)
(-0.0135308 0.000768973 0)
(-0.0138607 0.000751632 0)
(-0.0141829 0.000733227 0)
(-0.0144967 0.000713777 0)
(-0.0148019 0.000693306 0)
(-0.0150978 0.000671834 0)
(-0.0153842 0.000649383 0)
(-0.0156606 0.000625974 0)
(-0.0159265 0.000601631 0)
(-0.0161816 0.000576375 0)
(-0.0164255 0.00055023 0)
(-0.0166578 0.000523222 0)
(-0.0168781 0.000495375 0)
(-0.0170862 0.000466716 0)
(-0.0172815 0.000437272 0)
(-0.0174639 0.000407073 0)
(-0.0176329 0.000376149 0)
(-0.0177884 0.000344531 0)
(-0.0179299 0.000312254 0)
(-0.0180573 0.000279352 0)
(-0.0181703 0.000245862 0)
(-0.0182685 0.000211822 0)
(-0.0183519 0.000177274 0)
(-0.0184202 0.000142259 0)
(-0.0184732 0.000106821 0)
(-0.0185107 7.10071e-05 0)
(-0.0185327 3.48647e-05 0)
(-0.0185389 -1.55598e-06 0)
(-0.0185293 -3.82028e-05 0)
(-0.0185038 -7.5022e-05 0)
(-0.0184623 -0.000111958 0)
(-0.0184048 -0.000148953 0)
(-0.0183314 -0.000185947 0)
(-0.0182419 -0.000222879 0)
(-0.0181366 -0.000259687 0)
(-0.0180154 -0.000296305 0)
(-0.0178784 -0.000332669 0)
(-0.0177258 -0.00036871 0)
(-0.0175577 -0.000404361 0)
(-0.0173744 -0.000439551 0)
(-0.017176 -0.000474211 0)
(-0.0169629 -0.000508268 0)
(-0.0167351 -0.000541652 0)
(-0.0164932 -0.000574288 0)
(-0.0162374 -0.000606106 0)
(-0.0159681 -0.000637032 0)
(-0.0156857 -0.000666994 0)
(-0.0153907 -0.000695918 0)
(-0.0150834 -0.000723734 0)
(-0.0147644 -0.000750371 0)
(-0.0144343 -0.000775757 0)
(-0.0140935 -0.000799826 0)
(-0.0137426 -0.000822508 0)
(-0.0133823 -0.000843738 0)
(-0.0130133 -0.000863453 0)
(-0.012636 -0.000881591 0)
(-0.0122514 -0.000898092 0)
(-0.0118599 -0.000912899 0)
(-0.0114625 -0.000925959 0)
(-0.0110599 -0.00093722 0)
(-0.0106527 -0.000946636 0)
(-0.0102419 -0.000954161 0)
(-0.00982827 -0.000959756 0)
(-0.00941258 -0.000963383 0)
(-0.00899572 -0.00096501 0)
(-0.00857854 -0.00096461 0)
(-0.00816189 -0.000962157 0)
(-0.00774667 -0.000957634 0)
(-0.00733375 -0.000951025 0)
(-0.00692402 -0.000942322 0)
(-0.00651837 -0.00093152 0)
(-0.00611769 -0.000918621 0)
(-0.00572285 -0.000903631 0)
(-0.00533475 -0.000886563 0)
(-0.00495426 -0.000867436 0)
(-0.00458223 -0.000846273 0)
(-0.00421952 -0.000823106 0)
(-0.00386696 -0.000797974 0)
(-0.00352536 -0.00077092 0)
(-0.00319551 -0.000741998 0)
(-0.00287819 -0.000711268 0)
(-0.00257413 -0.000678799 0)
(-0.00228402 -0.000644669 0)
(-0.00200853 -0.000608966 0)
(-0.00174829 -0.000571791 0)
(-0.00150387 -0.000533255 0)
(-0.00127578 -0.000493485 0)
(-0.0010645 -0.000452624 0)
(-0.000870403 -0.000410833 0)
(-0.000693816 -0.000368297 0)
(-0.000534968 -0.000325225 0)
(-0.000393992 -0.000281858 0)
(-0.000270915 -0.000238473 0)
(-0.000165634 -0.000195393 0)
(-7.79094e-05 -0.000152996 0)
(-7.33426e-06 -0.000111723 0)
(4.66821e-05 -7.21007e-05 0)
(8.49432e-05 -3.47501e-05 0)
(0.000108495 -4.13569e-07 0)
(0.000118661 3.00242e-05 0)
(0.000117072 5.55117e-05 0)
(0.000105711 7.48109e-05 0)
(8.69479e-05 8.64909e-05 0)
(6.35277e-05 8.89497e-05 0)
(3.85892e-05 8.04905e-05 0)
(1.64636e-05 5.94853e-05 0)
(3.38361e-06 2.46598e-05 0)
(2.59368e-06 -3.1501e-05 0)
(1.05521e-05 -6.56638e-05 0)
(2.06369e-05 -7.65581e-05 0)
(2.68134e-05 -6.86123e-05 0)
(2.47103e-05 -4.55025e-05 0)
(1.11415e-05 -1.04255e-05 0)
(-1.65015e-05 3.38866e-05 0)
(-6.03196e-05 8.51442e-05 0)
(-0.00012194 0.00014145 0)
(-0.000202576 0.000201245 0)
(-0.000303085 0.000263255 0)
(-0.000424011 0.000326444 0)
(-0.000565638 0.000389973 0)
(-0.000728021 0.000453162 0)
(-0.000911028 0.000515463 0)
(-0.00111437 0.000576437 0)
(-0.00133762 0.000635734 0)
(-0.00158025 0.000693073 0)
(-0.00184163 0.000748236 0)
(-0.00212108 0.000801054 0)
(-0.00241783 0.000851397 0)
(-0.0027311 0.00089917 0)
(-0.00306005 0.000944305 0)
(-0.00340383 0.000986757 0)
(-0.00376154 0.0010265 0)
(-0.00413231 0.00106353 0)
(-0.00451524 0.00109784 0)
(-0.00490942 0.00112946 0)
(-0.00531395 0.0011584 0)
(-0.00572794 0.00118469 0)
(-0.0061505 0.00120837 0)
(-0.00658074 0.00122948 0)
(-0.00701781 0.00124805 0)
(-0.00746083 0.00126415 0)
(-0.00790897 0.00127781 0)
(-0.00836138 0.00128908 0)
(-0.00881727 0.00129801 0)
(-0.00927581 0.00130465 0)
(-0.00973622 0.00130905 0)
(-0.0101977 0.00131125 0)
(-0.0106596 0.00131131 0)
(-0.011121 0.00130926 0)
(-0.0115813 0.00130516 0)
(-0.0120398 0.00129905 0)
(-0.0124957 0.00129097 0)
(-0.0129484 0.00128097 0)
(-0.0133972 0.00126907 0)
(-0.0138414 0.00125532 0)
(-0.0142804 0.00123977 0)
(-0.0147135 0.00122243 0)
(-0.0151402 0.00120336 0)
(-0.0155598 0.00118258 0)
(-0.0159717 0.00116013 0)
(-0.0163754 0.00113603 0)
(-0.0167702 0.00111033 0)
(-0.0171556 0.00108306 0)
(-0.0175311 0.00105424 0)
(-0.0178961 0.00102391 0)
(-0.0182501 0.000992098 0)
(-0.0185926 0.00095884 0)
(-0.018923 0.000924167 0)
(-0.019241 0.000888114 0)
(-0.0195459 0.000850715 0)
(-0.0198373 0.000812006 0)
(-0.0201149 0.000772022 0)
(-0.0203781 0.000730803 0)
(-0.0206265 0.000688389 0)
(-0.0208597 0.000644821 0)
(-0.0210774 0.000600142 0)
(-0.0212791 0.000554398 0)
(-0.0214645 0.000507636 0)
(-0.0216333 0.000459907 0)
(-0.021785 0.000411263 0)
(-0.0219195 0.000361759 0)
(-0.0220364 0.000311451 0)
(-0.0221355 0.000260401 0)
(-0.0222165 0.000208671 0)
(-0.0222793 0.000156326 0)
(-0.0223235 0.000103435 0)
(-0.0223491 5.00694e-05 0)
(-0.0223559 -3.69721e-06 0)
(-0.0223438 -5.77879e-05 0)
(-0.0223127 -0.000112123 0)
(-0.0222625 -0.00016662 0)
(-0.0221932 -0.000221194 0)
(-0.0221048 -0.000275758 0)
(-0.0219974 -0.000330221 0)
(-0.0218709 -0.000384491 0)
(-0.0217255 -0.000438473 0)
(-0.0215614 -0.00049207 0)
(-0.0213786 -0.000545184 0)
(-0.0211773 -0.000597714 0)
(-0.0209578 -0.000649558 0)
(-0.0207204 -0.000700613 0)
(-0.0204654 -0.000750774 0)
(-0.020193 -0.000799936 0)
(-0.0199037 -0.000847993 0)
(-0.0195979 -0.000894838 0)
(-0.019276 -0.000940365 0)
(-0.0189384 -0.000984468 0)
(-0.0185858 -0.00102704 0)
(-0.0182187 -0.00106798 0)
(-0.0178376 -0.00110718 0)
(-0.0174432 -0.00114454 0)
(-0.0170362 -0.00117996 0)
(-0.0166171 -0.00121334 0)
(-0.0161868 -0.00124458 0)
(-0.0157461 -0.0012736 0)
(-0.0152956 -0.0013003 0)
(-0.0148363 -0.00132459 0)
(-0.0143689 -0.0013464 0)
(-0.0138943 -0.00136564 0)
(-0.0134135 -0.00138224 0)
(-0.0129273 -0.00139613 0)
(-0.0124367 -0.00140725 0)
(-0.0119427 -0.00141554 0)
(-0.0114463 -0.00142094 0)
(-0.0109483 -0.00142341 0)
(-0.01045 -0.00142291 0)
(-0.0099522 -0.00141941 0)
(-0.00945604 -0.00141287 0)
(-0.00896254 -0.00140328 0)
(-0.00847275 -0.00139063 0)
(-0.00798772 -0.0013749 0)
(-0.00750849 -0.00135611 0)
(-0.00703612 -0.00133427 0)
(-0.00657162 -0.00130939 0)
(-0.00611604 -0.0012815 0)
(-0.00567038 -0.00125064 0)
(-0.00523565 -0.00121687 0)
(-0.00481282 -0.00118023 0)
(-0.00440284 -0.00114079 0)
(-0.00400665 -0.00109864 0)
(-0.00362513 -0.00105386 0)
(-0.00325914 -0.00100657 0)
(-0.00290951 -0.000956868 0)
(-0.002577 -0.0009049 0)
(-0.00226233 -0.000850813 0)
(-0.00196616 -0.000794775 0)
(-0.0016891 -0.000736976 0)
(-0.00143166 -0.000677628 0)
(-0.00119429 -0.000616972 0)
(-0.000977349 -0.000555281 0)
(-0.000781083 -0.000492863 0)
(-0.000605633 -0.000430073 0)
(-0.000451015 -0.000367315 0)
(-0.000317097 -0.000305054 0)
(-0.00020359 -0.000243833 0)
(-0.000110022 -0.000184277 0)
(-3.57152e-05 -0.000127122 0)
(2.02351e-05 -7.32286e-05 0)
(5.8992e-05 -2.36056e-05 0)
(8.20056e-05 2.0562e-05 0)
(9.10441e-05 5.78888e-05 0)
(8.823e-05 8.67682e-05 0)
(7.60778e-05 0.000105361 0)
(5.74909e-05 0.000111606 0)
(3.57993e-05 0.000103262 0)
(1.55633e-05 7.79905e-05 0)
(3.2515e-06 3.33481e-05 0)
(1.98204e-06 -3.64739e-05 0)
(6.92676e-06 -7.33401e-05 0)
(1.07787e-05 -8.13173e-05 0)
(8.04026e-06 -6.59871e-05 0)
(-5.47357e-06 -3.18583e-05 0)
(-3.29316e-05 1.71941e-05 0)
(-7.69314e-05 7.78615e-05 0)
(-0.000139572 0.000147355 0)
(-0.000222495 0.000223339 0)
(-0.000326934 0.00030387 0)
(-0.000453769 0.000387337 0)
(-0.000603568 0.000472414 0)
(-0.000776625 0.000558008 0)
(-0.000973002 0.000643227 0)
(-0.00119256 0.000727342 0)
(-0.00143499 0.00080976 0)
(-0.00169983 0.000890002 0)
(-0.0019865 0.000967685 0)
(-0.00229434 0.0010425 0)
(-0.00262258 0.00111421 0)
(-0.00297039 0.00118263 0)
(-0.0033369 0.00124762 0)
(-0.00372117 0.00130908 0)
(-0.00412226 0.00136693 0)
(-0.00453918 0.00142113 0)
(-0.00497093 0.00147166 0)
(-0.0054165 0.00151852 0)
(-0.00587488 0.00156172 0)
(-0.00634505 0.00160129 0)
(-0.00682599 0.00163725 0)
(-0.0073167 0.00166965 0)
(-0.00781617 0.00169854 0)
(-0.00832342 0.00172398 0)
(-0.00883745 0.00174601 0)
(-0.00935731 0.00176471 0)
(-0.00988205 0.00178013 0)
(-0.0104107 0.00179234 0)
(-0.0109424 0.0018014 0)
(-0.0114762 0.00180738 0)
(-0.0120112 0.00181034 0)
(-0.0125465 0.00181034 0)
(-0.0130813 0.00180745 0)
(-0.0136148 0.00180172 0)
(-0.014146 0.00179322 0)
(-0.0146743 0.001782 0)
(-0.0151988 0.00176811 0)
(-0.0157187 0.00175162 0)
(-0.0162333 0.00173257 0)
(-0.0167418 0.00171102 0)
(-0.0172435 0.00168702 0)
(-0.0177377 0.00166061 0)
(-0.0182236 0.00163184 0)
(-0.0187006 0.00160075 0)
(-0.019168 0.00156741 0)
(-0.0196251 0.00153184 0)
(-0.0200712 0.00149409 0)
(-0.0205058 0.00145422 0)
(-0.0209283 0.00141225 0)
(-0.0213379 0.00136824 0)
(-0.0217341 0.00132224 0)
(-0.0221164 0.00127429 0)
(-0.0224841 0.00122443 0)
(-0.0228368 0.00117272 0)
(-0.0231738 0.0011192 0)
(-0.0234946 0.00106393 0)
(-0.0237988 0.00100696 0)
(-0.0240859 0.000948341 0)
(-0.0243553 0.000888141 0)
(-0.0246067 0.000826416 0)
(-0.0248396 0.000763229 0)
(-0.0250535 0.000698648 0)
(-0.0252482 0.000632741 0)
(-0.0254232 0.000565582 0)
(-0.0255782 0.000497247 0)
(-0.0257128 0.000427816 0)
(-0.0258268 0.000357372 0)
(-0.0259199 0.000286001 0)
(-0.0259918 0.000213796 0)
(-0.0260423 0.00014085 0)
(-0.0260713 6.72615e-05 0)
(-0.0260785 -6.86671e-06 0)
(-0.0260638 -8.14288e-05 0)
(-0.0260272 -0.000156315 0)
(-0.0259685 -0.000231412 0)
(-0.0258878 -0.000306603 0)
(-0.025785 -0.000381767 0)