/*--------------------------------*- C++ -*----------------------------------*\
  =========                 |
  \\      /  F ield         | OpenFOAM: The Open Source CFD Toolbox
   \\    /   O peration     | Website:  https://openfoam.org
    \\  /    A nd           | Version:  7
     \\/     M anipulation  |
\*---------------------------------------------------------------------------*/
FoamFile
{
    version     2.0;
    format      ascii;
    class       surfaceScalarField;
    location    "0.2375";
    object      phi;
}
// * * * * * * * * * * * * * * * * * * * * * * * * * * * * * * * * * * * * * //

dimensions      [0 3 -1 0 0 0 0];

internalField   nonuniform List<scalar> 
50880
(
1.11487e-11
-1.11337e-11
2.72867e-11
-1.61339e-11
3.70384e-11
-9.75441e-12
3.47224e-11
2.3144e-12
1.81527e-11
1.65681e-11
-1.31772e-11
3.13303e-11
-5.88426e-11
4.56652e-11
-1.17971e-10
5.91302e-11
-1.89524e-10
7.15545e-11
-2.72401e-10
8.28785e-11
-3.65485e-10
9.3082e-11
-4.67679e-10
1.02193e-10
-5.77951e-10
1.10271e-10
-6.95336e-10
1.17384e-10
-8.1894e-10
1.23605e-10
-9.47934e-10
1.28995e-10
-1.08155e-09
1.33617e-10
-1.2191e-09
1.37546e-10
-1.35996e-09
1.40859e-10
-1.50358e-09
1.43618e-10
-1.64945e-09
1.45872e-10
-1.79712e-09
1.47671e-10
-1.94618e-09
1.49067e-10
-2.0963e-09
1.50112e-10
-2.24715e-09
1.50853e-10
-2.39848e-09
1.51325e-10
-2.55003e-09
1.51557e-10
-2.70161e-09
1.5158e-10
-2.85304e-09
1.51423e-10
-3.00415e-09
1.51113e-10
-3.15482e-09
1.50668e-10
-3.30493e-09
1.50106e-10
-3.45437e-09
1.49442e-10
-3.60306e-09
1.48689e-10
-3.75091e-09
1.47856e-10
-3.89786e-09
1.46951e-10
-4.04385e-09
1.45982e-10
-4.1888e-09
1.44956e-10
-4.33268e-09
1.43875e-10
-4.47542e-09
1.42742e-10
-4.61698e-09
1.41556e-10
-4.7573e-09
1.4032e-10
-4.89633e-09
1.39035e-10
-5.03403e-09
1.37701e-10
-5.17035e-09
1.36314e-10
-5.30522e-09
1.34873e-10
-5.43859e-09
1.33377e-10
-5.57042e-09
1.31825e-10
-5.70064e-09
1.30216e-10
-5.82918e-09
1.28547e-10
-5.956e-09
1.26813e-10
-6.08101e-09
1.25012e-10
-6.20415e-09
1.23143e-10
-6.32536e-09
1.21205e-10
-6.44456e-09
1.19197e-10
-6.56167e-09
1.17114e-10
-6.67662e-09
1.14952e-10
-6.78933e-09
1.1271e-10
-6.89972e-09
1.10386e-10
-7.0077e-09
1.0798e-10
-7.11319e-09
1.0549e-10
-7.2161e-09
1.02911e-10
-7.31634e-09
1.00243e-10
-7.41383e-09
9.74845e-11
-7.50846e-09
9.46327e-11
-7.60015e-09
9.16866e-11
-7.68879e-09
8.8645e-11
-7.7743e-09
8.55068e-11
-7.85657e-09
8.22707e-11
-7.93551e-09
7.8936e-11
-8.01101e-09
7.55021e-11
-8.08298e-09
7.19685e-11
-8.15131e-09
6.83337e-11
-8.21591e-09
6.45969e-11
-8.27667e-09
6.0759e-11
-8.33349e-09
5.68209e-11
-8.38627e-09
5.27827e-11
-8.43492e-09
4.86438e-11
-8.47932e-09
4.44044e-11
-8.51938e-09
4.00662e-11
-8.55502e-09
3.56309e-11
-8.58611e-09
3.10994e-11
-8.61259e-09
2.6473e-11
-8.63434e-09
2.17541e-11
-8.65129e-09
1.69454e-11
-8.66334e-09
1.20489e-11
-8.67041e-09
7.06674e-12
-8.67241e-09
2.00172e-12
-8.66927e-09
-3.14187e-12
-8.66091e-09
-8.35956e-12
-8.64726e-09
-1.3648e-11
-8.62826e-09
-1.90041e-11
-8.60383e-09
-2.44237e-11
-8.57393e-09
-2.99019e-11
-8.5385e-09
-3.54328e-11
-8.49748e-09
-4.10109e-11
-8.45085e-09
-4.6631e-11
-8.39857e-09
-5.22876e-11
-8.34059e-09
-5.79745e-11
-8.27691e-09
-6.36854e-11
-8.20749e-09
-6.94137e-11
-8.13234e-09
-7.51525e-11
-8.05145e-09
-8.08946e-11
-7.96482e-09
-8.6632e-11
-7.87246e-09
-9.23572e-11
-7.7744e-09
-9.80627e-11
-7.67066e-09
-1.03741e-10
-7.56127e-09
-1.09383e-10
-7.44629e-09
-1.14981e-10
-7.32576e-09
-1.20525e-10
-7.19976e-09
-1.26006e-10
-7.06834e-09
-1.31416e-10
-6.93159e-09
-1.36745e-10
-6.78961e-09
-1.41982e-10
-6.6425e-09
-1.47117e-10
-6.49036e-09
-1.52139e-10
-6.33332e-09
-1.57036e-10
-6.17153e-09
-1.61797e-10
-6.00512e-09
-1.66409e-10
-5.83425e-09
-1.7086e-10
-5.65912e-09
-1.75135e-10
-5.47989e-09
-1.79221e-10
-5.29679e-09
-1.83101e-10
-5.11003e-09
-1.86758e-10
-4.91986e-09
-1.90176e-10
-4.72652e-09
-1.93335e-10
-4.53031e-09
-1.96215e-10
-4.33151e-09
-1.98796e-10
-4.13046e-09
-2.01054e-10
-3.9275e-09
-2.02964e-10
-3.723e-09
-2.04499e-10
-3.51737e-09
-2.05631e-10
-3.31104e-09
-2.06333e-10
-3.10446e-09
-2.06572e-10
-2.89815e-09
-2.06315e-10
-2.69262e-09
-2.05527e-10
-2.48845e-09
-2.04168e-10
-2.28625e-09
-2.02201e-10
-2.08667e-09
-1.99584e-10
-1.89039e-09
-1.96274e-10
-1.69817e-09
-1.92224e-10
-1.51078e-09
-1.87388e-10
-1.32906e-09
-1.81718e-10
-1.1539e-09
-1.75163e-10
-9.86231e-10
-1.67669e-10
-8.27046e-10
-1.59184e-10
-6.77388e-10
-1.49657e-10
-5.38349e-10
-1.39038e-10
-4.11068e-10
-1.27281e-10
-2.96723e-10
-1.14347e-10
-1.96514e-10
-1.00212e-10
-1.11636e-10
-8.48796e-11
-4.32298e-11
-6.84058e-11
7.71231e-12
-5.09403e-11
4.05198e-11
-3.28061e-11
5.51191e-11
-1.45996e-11
5.25875e-11
2.53024e-12
3.62937e-11
1.62924e-11
1.38362e-11
2.24562e-11
1.38351e-11
1.64176e-11
-2.75473e-11
3.1909e-11
-3.16298e-11
2.84996e-11
-6.33947e-12
-3.85734e-12
3.46714e-11
-7.0418e-11
8.31289e-11
-1.7317e-10
1.34083e-10
-3.12017e-10
1.8451e-10
-4.85595e-10
2.32705e-10
-6.91833e-10
2.77791e-10
-9.28291e-10
3.19338e-10
-1.19237e-09
3.57164e-10
-1.48144e-09
3.9126e-10
-1.7929e-09
4.21732e-10
-2.12427e-09
4.48751e-10
-2.47319e-09
4.72521e-10
-2.83746e-09
4.93264e-10
-3.21504e-09
5.11201e-10
-3.60406e-09
5.26562e-10
-4.00278e-09
5.39581e-10
-4.40964e-09
5.5048e-10
-4.82323e-09
5.59464e-10
-5.24229e-09
5.66725e-10
-5.66567e-09
5.72446e-10
-6.09235e-09
5.768e-10
-6.52144e-09
5.79945e-10
-6.95215e-09
5.82027e-10
-7.38377e-09
5.83172e-10
-7.81568e-09
5.83493e-10
-8.24735e-09
5.83095e-10
-8.67831e-09
5.82069e-10
-9.10814e-09
5.80496e-10
-9.53648e-09
5.78444e-10
-9.96301e-09
5.75972e-10
-1.03875e-08
5.73129e-10
-1.08096e-08
5.69957e-10
-1.12291e-08
5.66489e-10
-1.16459e-08
5.62755e-10
-1.20597e-08
5.58773e-10
-1.24704e-08
5.54562e-10
-1.28778e-08
5.50132e-10
-1.32817e-08
5.45492e-10
-1.3682e-08
5.40647e-10
-1.40786e-08
5.35598e-10
-1.44712e-08
5.30345e-10
-1.48598e-08
5.24884e-10
-1.52441e-08
5.19211e-10
-1.56241e-08
5.13322e-10
-1.59995e-08
5.07211e-10
-1.63701e-08
5.00872e-10
-1.67359e-08
4.94296e-10
-1.70966e-08
4.87474e-10
-1.74519e-08
4.80399e-10
-1.78019e-08
4.73062e-10
-1.81461e-08
4.65456e-10
-1.84845e-08
4.57572e-10
-1.88168e-08
4.49403e-10
-1.91428e-08
4.40938e-10
-1.94622e-08
4.3217e-10
-1.97749e-08
4.23091e-10
-2.00806e-08
4.13695e-10
-2.03791e-08
4.03974e-10
-2.06701e-08
3.93922e-10
-2.09534e-08
3.83532e-10
-2.12287e-08
3.72796e-10
-2.14958e-08
3.6171e-10
-2.17544e-08
3.50268e-10
-2.20042e-08
3.38464e-10
-2.2245e-08
3.26297e-10
-2.24765e-08
3.13761e-10
-2.26984e-08
3.00853e-10
-2.29105e-08
2.8757e-10
-2.31124e-08
2.73909e-10
-2.3304e-08
2.59871e-10
-2.34848e-08
2.45453e-10
-2.36547e-08
2.30655e-10
-2.38134e-08
2.15477e-10
-2.39605e-08
1.99922e-10
-2.40959e-08
1.8399e-10
-2.42191e-08
1.67686e-10
-2.43301e-08
1.51011e-10
-2.44284e-08
1.33971e-10
-2.45139e-08
1.16573e-10
-2.45863e-08
9.88211e-11
-2.46452e-08
8.07245e-11
-2.46906e-08
6.22914e-11
-2.47221e-08
4.35309e-11
-2.47394e-08
2.44536e-11
-2.47425e-08
5.07075e-12
-2.47311e-08
-1.46049e-11
-2.47049e-08
-3.45595e-11
-2.46637e-08
-5.47784e-11
-2.46075e-08
-7.52465e-11
-2.4536e-08
-9.59471e-11
-2.4449e-08
-1.16862e-10
-2.43464e-08
-1.37973e-10
-2.42282e-08
-1.59259e-10
-2.40941e-08
-1.80699e-10
-2.39441e-08
-2.02272e-10
-2.37782e-08
-2.23955e-10
-2.35961e-08
-2.45723e-10
-2.3398e-08
-2.67552e-10
-2.31837e-08
-2.89415e-10
-2.29533e-08
-3.11286e-10
-2.27068e-08
-3.33137e-10
-2.24442e-08
-3.54939e-10
-2.21656e-08
-3.76664e-10
-2.18711e-08
-3.98281e-10
-2.15607e-08
-4.19759e-10
-2.12346e-08
-4.41064e-10
-2.0893e-08
-4.62164e-10
-2.0536e-08
-4.83023e-10
-2.01638e-08
-5.03607e-10
-1.97767e-08
-5.23879e-10
-1.93748e-08
-5.43801e-10
-1.89586e-08
-5.63332e-10
-1.85283e-08
-5.82432e-10
-1.80843e-08
-6.01056e-10
-1.76269e-08
-6.1916e-10
-1.71567e-08
-6.36696e-10
-1.66739e-08
-6.53614e-10
-1.61792e-08
-6.69861e-10
-1.5673e-08
-6.85382e-10
-1.5156e-08
-7.00116e-10
-1.46287e-08
-7.14e-10
-1.4092e-08
-7.26965e-10
-1.35464e-08
-7.3894e-10
-1.29927e-08
-7.49847e-10
-1.24319e-08
-7.59604e-10
-1.18648e-08
-7.68125e-10
-1.12925e-08
-7.75314e-10
-1.07159e-08
-7.81073e-10
-1.01362e-08
-7.85296e-10
-9.5547e-09
-7.87868e-10
-8.9726e-09
-7.88673e-10
-8.39133e-09
-7.87582e-10
-7.81239e-09
-7.84464e-10
-7.23739e-09
-7.79177e-10
-6.66801e-09
-7.71575e-10
-6.10609e-09
-7.61506e-10
-5.55355e-09
-7.4881e-10
-5.01246e-09
-7.33322e-10
-4.48497e-09
-7.14872e-10
-3.9734e-09
-6.93289e-10
-3.48017e-09
-6.68397e-10
-3.00781e-09
-6.40023e-10
-2.559e-09
-6.07995e-10
-2.13651e-09
-5.72155e-10
-1.74319e-09
-5.32359e-10
-1.38197e-09
-4.88497e-10
-1.05581e-09
-4.40513e-10
-7.67591e-10
-3.8843e-10
-5.20064e-10
-3.32408e-10
-3.15643e-10
-2.72829e-10
-1.56148e-10
-2.10436e-10
-4.23956e-11
-1.46556e-10
2.6487e-11
-8.34797e-11
5.4098e-11
-2.50801e-11
4.81307e-11
2.22579e-11
2.23649e-11
4.82191e-11
3.61987e-11
9.80667e-12
-3.73566e-11
6.50403e-12
-2.83299e-11
-2.89698e-11
2.91336e-11
-1.08068e-10
1.1377e-10
-2.37249e-10
2.12309e-10
-4.19276e-10
3.16111e-10
-6.54389e-10
4.19625e-10
-9.41126e-10
5.19443e-10
-1.27692e-09
6.1358e-10
-1.65853e-09
7.00953e-10
-2.0824e-09
7.81032e-10
-2.54481e-09
8.53664e-10
-3.04202e-09
9.18946e-10
-3.5704e-09
9.77127e-10
-4.12643e-09
1.02856e-09
-4.70681e-09
1.07364e-09
-5.30842e-09
1.11281e-09
-5.92839e-09
1.14653e-09
-6.56405e-09
1.17525e-09
-7.21297e-09
1.1994e-09
-7.87292e-09
1.21941e-09
-8.5419e-09
1.2357e-09
-9.21809e-09
1.24864e-09
-9.89988e-09
1.25859e-09
-1.05858e-08
1.26588e-09
-1.12746e-08
1.27082e-09
-1.19651e-08
1.27368e-09
-1.26563e-08
1.27471e-09
-1.33474e-08
1.27412e-09
-1.40374e-08
1.27213e-09
-1.47258e-08
1.2689e-09
-1.5412e-08
1.26458e-09
-1.60953e-08
1.2593e-09
-1.67753e-08
1.25317e-09
-1.74516e-08
1.24628e-09
-1.81239e-08
1.23871e-09
-1.87916e-08
1.23053e-09
-1.94547e-08
1.22178e-09
-2.01126e-08
1.2125e-09
-2.07652e-08
1.20271e-09
-2.14121e-08
1.19244e-09
-2.20532e-08
1.18171e-09
-2.26881e-08
1.17051e-09
-2.33166e-08
1.15884e-09
-2.39384e-08
1.14671e-09
-2.45533e-08
1.13411e-09
-2.5161e-08
1.12103e-09
-2.57613e-08
1.10745e-09
-2.63538e-08
1.09337e-09
-2.69382e-08
1.07876e-09
-2.75144e-08
1.06362e-09
-2.80819e-08
1.04791e-09
-2.86405e-08
1.03164e-09
-2.91898e-08
1.01478e-09
-2.97295e-08
9.97315e-10
-3.02594e-08
9.79225e-10
-3.07789e-08
9.60495e-10
-3.12878e-08
9.41107e-10
-3.17858e-08
9.21047e-10
-3.22724e-08
9.00299e-10
-3.27473e-08
8.78848e-10
-3.321e-08
8.5668e-10
-3.36603e-08
8.33781e-10
-3.40976e-08
8.10138e-10
-3.45217e-08
7.8574e-10
-3.4932e-08
7.60575e-10
-3.53281e-08
7.34633e-10
-3.57097e-08
7.07906e-10
-3.60764e-08
6.80386e-10
-3.64276e-08
6.52068e-10
-3.6763e-08
6.22944e-10
-3.70821e-08
5.93009e-10
-3.73845e-08
5.62262e-10
-3.76697e-08
5.30702e-10
-3.79374e-08
4.98328e-10
-3.8187e-08
4.65142e-10
-3.84183e-08
4.31145e-10
-3.86306e-08
3.96343e-10
-3.88237e-08
3.60743e-10
-3.8997e-08
3.24354e-10
-3.91502e-08
2.87185e-10
-3.92829e-08
2.4925e-10
-3.93946e-08
2.10561e-10
-3.94851e-08
1.71138e-10
-3.95538e-08
1.30996e-10
-3.96004e-08
9.0157e-11
-3.96246e-08
4.8643e-11
-3.9626e-08
6.47976e-12
-3.96043e-08
-3.63053e-11
-3.95592e-08
-7.96831e-11
-3.94903e-08
-1.23622e-10
-3.93975e-08
-1.6809e-10
-3.92804e-08
-2.13049e-10
-3.91388e-08
-2.58461e-10
-3.89725e-08
-3.04285e-10
-3.87812e-08
-3.50478e-10
-3.8565e-08
-3.96996e-10
-3.83234e-08
-4.43791e-10
-3.80566e-08
-4.90813e-10
-3.77643e-08
-5.38012e-10
-3.74465e-08
-5.85333e-10
-3.71032e-08
-6.32722e-10
-3.67344e-08
-6.80119e-10
-3.634e-08
-7.27467e-10
-3.59203e-08
-7.74702e-10
-3.54752e-08
-8.21763e-10
-3.50049e-08
-8.68584e-10
-3.45095e-08
-9.15097e-10
-3.39894e-08
-9.61234e-10
-3.34446e-08
-1.00692e-09
-3.28755e-08
-1.05208e-09
-3.22825e-08
-1.09664e-09
-3.16659e-08
-1.14052e-09
-3.1026e-08
-1.18364e-09
-3.03634e-08
-1.22591e-09
-2.96786e-08
-1.26724e-09
-2.89721e-08
-1.30754e-09
-2.82446e-08
-1.3467e-09
-2.74967e-08
-1.38463e-09
-2.67291e-08
-1.42122e-09
-2.59426e-08
-1.45635e-09
-2.5138e-08
-1.4899e-09
-2.43164e-08
-1.52173e-09
-2.34787e-08
-1.55172e-09
-2.2626e-08
-1.57971e-09
-2.17593e-08
-1.60555e-09
-2.08801e-08
-1.62907e-09
-1.99896e-08
-1.65009e-09
-1.90894e-08
-1.66841e-09
-1.81808e-08
-1.68385e-09
-1.72657e-08
-1.69618e-09
-1.63458e-08
-1.70517e-09
-1.54231e-08
-1.71058e-09
-1.44996e-08
-1.71216e-09
-1.35776e-08
-1.70963e-09
-1.26593e-08
-1.70272e-09
-1.17474e-08
-1.69111e-09
-1.08445e-08
-1.67451e-09
-9.95339e-09
-1.65258e-09
-9.07719e-09
-1.625e-09
-8.21908e-09
-1.59143e-09
-7.38244e-09
-1.55152e-09
-6.57082e-09
-1.50491e-09
-5.78796e-09
-1.45126e-09
-5.03775e-09
-1.39023e-09
-4.32424e-09
-1.3215e-09
-3.65161e-09
-1.24479e-09
-3.0241e-09
-1.15987e-09
-2.446e-09
-1.06659e-09
-1.92156e-09
-9.64951e-10
-1.45486e-09
-8.55138e-10
-1.0496e-09
-7.37664e-10
-7.08909e-10
-6.13518e-10
-4.34924e-10
-4.84421e-10
-2.28265e-10
-3.53216e-10
-8.72752e-11
-2.24471e-10
-6.97767e-12
-1.05379e-10
2.22651e-11
-6.98614e-12
1.61956e-11
5.42866e-11
5.23934e-11
-2.2621e-12
-3.50912e-11
-3.46769e-11
4.08211e-12
-1.13972e-10
1.08429e-10
-2.50835e-10
2.50633e-10
-4.51516e-10
4.12988e-10
-7.18826e-10
5.8342e-10
-1.05302e-09
7.53817e-10
-1.45249e-09
9.18917e-10
-1.91436e-09
1.07545e-09
-2.43489e-09
1.22149e-09
-3.00988e-09
1.35601e-09
-3.63482e-09
1.47861e-09
-4.30518e-09
1.5893e-09
-5.01642e-09
1.68837e-09
-5.76417e-09
1.7763e-09
-6.54421e-09
1.85368e-09
-7.35259e-09
1.92119e-09
-8.18558e-09
1.97952e-09
-9.03972e-09
2.02939e-09
-9.91184e-09
2.07151e-09
-1.0799e-08
2.10658e-09
-1.16986e-08
2.13526e-09
-1.26081e-08
2.15819e-09
-1.35255e-08
2.17596e-09
-1.44487e-08
2.18911e-09
-1.53761e-08
2.19817e-09
-1.6306e-08
2.2036e-09
-1.72371e-08
2.20581e-09
-1.81682e-08
2.20519e-09
-1.90981e-08
2.20207e-09
-2.0026e-08
2.19675e-09
-2.09509e-08
2.18949e-09
-2.18721e-08
2.18051e-09
-2.27889e-08
2.17001e-09
-2.37008e-08
2.15814e-09
-2.46071e-08
2.14505e-09
-2.55074e-08
2.13084e-09
-2.64013e-08
2.1156e-09
-2.72882e-08
2.09941e-09
-2.81678e-08
2.0823e-09
-2.90397e-08
2.06433e-09
-2.99035e-08
2.04551e-09
-3.07588e-08
2.02587e-09
-3.16054e-08
2.0054e-09
-3.24428e-08
1.9841e-09
-3.32706e-08
1.96197e-09
-3.40886e-08
1.93899e-09
-3.48963e-08
1.91514e-09
-3.56934e-08
1.89041e-09
-3.64794e-08
1.86476e-09
-3.72539e-08
1.83818e-09
-3.80166e-08
1.81063e-09
-3.87671e-08
1.7821e-09
-3.95049e-08
1.75254e-09
-4.02295e-08
1.72194e-09
-4.09405e-08
1.69026e-09
-4.16375e-08
1.65748e-09
-4.232e-08
1.62357e-09
-4.29874e-08
1.5885e-09
-4.36394e-08
1.55225e-09
-4.42753e-08
1.5148e-09
-4.48947e-08
1.47612e-09
-4.54971e-08
1.43618e-09
-4.6082e-08
1.39497e-09
-4.66487e-08
1.35248e-09
-4.71968e-08
1.30867e-09
-4.77257e-08
1.26353e-09
-4.82349e-08
1.21706e-09
-4.87237e-08
1.16923e-09
-4.91917e-08
1.12003e-09
-4.96382e-08
1.06947e-09
-5.00627e-08
1.01753e-09
-5.04647e-08
9.64201e-10
-5.08434e-08
9.09489e-10
-5.11985e-08
8.53392e-10
-5.15293e-08
7.95915e-10
-5.18352e-08
7.37062e-10
-5.21157e-08
6.76843e-10
-5.23702e-08
6.15269e-10
-5.25982e-08
5.52356e-10
-5.27992e-08
4.88122e-10
-5.29725e-08
4.22588e-10
-5.31177e-08
3.55779e-10
-5.32343e-08
2.87725e-10
-5.33218e-08
2.18457e-10
-5.33796e-08
1.4801e-10
-5.34074e-08
7.64229e-11
-5.34047e-08
3.73895e-12
-5.3371e-08
-6.99948e-11
-5.33059e-08
-1.44728e-10
-5.32091e-08
-2.20406e-10
-5.30803e-08
-2.96971e-10
-5.29189e-08
-3.74362e-10
-5.27249e-08
-4.52514e-10
-5.24978e-08
-5.31356e-10
-5.22375e-08
-6.10814e-10
-5.19437e-08
-6.90813e-10
-5.16162e-08
-7.71272e-10
-5.12549e-08
-8.52105e-10
-5.08597e-08
-9.33226e-10
-5.04305e-08
-1.01454e-09
-4.99672e-08
-1.09596e-09
-4.947e-08
-1.17739e-09
-4.89387e-08
-1.25871e-09
-4.83736e-08
-1.33983e-09
-4.77747e-08
-1.42064e-09
-4.71423e-08
-1.50103e-09
-4.64765e-08
-1.58088e-09
-4.57776e-08
-1.66007e-09
-4.50461e-08
-1.73848e-09
-4.42822e-08
-1.81599e-09
-4.34864e-08
-1.89245e-09
-4.26591e-08
-1.96774e-09
-4.18011e-08
-2.04171e-09
-4.09128e-08
-2.11422e-09
-3.99949e-08
-2.1851e-09
-3.90482e-08
-2.25421e-09
-3.80736e-08
-2.32136e-09
-3.70718e-08
-2.38639e-09
-3.60439e-08
-2.4491e-09
-3.4991e-08
-2.50929e-09
-3.39141e-08
-2.56677e-09
-3.28146e-08
-2.62129e-09
-3.16937e-08
-2.67263e-09
-3.05529e-08
-2.72052e-09
-2.93937e-08
-2.76471e-09
-2.82179e-08
-2.80491e-09
-2.70271e-08
-2.8408e-09
-2.58235e-08
-2.87206e-09
-2.4609e-08
-2.89834e-09
-2.33859e-08
-2.91928e-09
-2.21566e-08
-2.93449e-09
-2.09236e-08
-2.94355e-09
-1.96898e-08
-2.94602e-09
-1.84579e-08
-2.94146e-09
-1.72313e-08
-2.92937e-09
-1.60131e-08
-2.90926e-09
-1.4807e-08
-2.8806e-09
-1.36168e-08
-2.84287e-09
-1.24463e-08
-2.7955e-09
-1.12998e-08
-2.73795e-09
-1.01816e-08
-2.66963e-09
-9.09655e-09
-2.58999e-09
-8.04932e-09
-2.49849e-09
-7.04495e-09
-2.3946e-09
-6.08861e-09
-2.27784e-09
-5.1856e-09
-2.14781e-09
-4.34124e-09
-2.00423e-09
-3.56085e-09
-1.84698e-09
-2.84962e-09
-1.67618e-09
-2.21243e-09
-1.49234e-09
-1.65363e-09
-1.29646e-09
-1.17677e-09
-1.09038e-09
-7.84163e-10
-8.77026e-10
-4.76349e-10
-6.6103e-10
-2.51386e-10
-4.49435e-10
-1.03963e-10
-2.52804e-10
-2.44067e-11
-8.65435e-11
2.58331e-12
2.72954e-11
5.49761e-11
-1.66229e-11
-1.84679e-11
-8.36144e-11
7.10737e-11
-2.13594e-10
2.38409e-10
-4.15006e-10
4.52047e-10
-6.92922e-10
6.90903e-10
-1.0495e-09
9.39995e-10
-1.48459e-09
1.1889e-09
-1.99628e-09
1.43061e-09
-2.58137e-09
1.66054e-09
-3.23575e-09
1.87586e-09
-3.9547e-09
2.07497e-09
-4.73321e-09
2.25712e-09
-5.56609e-09
2.42218e-09
-6.44817e-09
2.57045e-09
-7.37437e-09
2.7025e-09
-8.3398e-09
2.81911e-09
-9.33979e-09
2.92118e-09
-1.037e-08
3.00968e-09
-1.14262e-08
3.0856e-09
-1.25046e-08
3.14995e-09
-1.36018e-08
3.20374e-09
-1.47144e-08
3.24792e-09
-1.58396e-08
3.28341e-09
-1.69748e-08
3.31108e-09
-1.81174e-08
3.33174e-09
-1.92653e-08
3.34614e-09
-2.04167e-08
3.35498e-09
-2.15698e-08
3.35887e-09
-2.2723e-08
3.3584e-09
-2.3875e-08
3.35405e-09
-2.50245e-08
3.34629e-09
-2.61705e-08
3.3355e-09
-2.7312e-08
3.32202e-09
-2.84482e-08
3.30614e-09
-2.95781e-08
3.28813e-09
-3.07013e-08
3.26817e-09
-3.18169e-08
3.24645e-09
-3.29244e-08
3.2231e-09
-3.40232e-08
3.19824e-09
-3.51129e-08
3.17195e-09
-3.61928e-08
3.14429e-09
-3.72626e-08
3.11529e-09
-3.83217e-08
3.085e-09
-3.93698e-08
3.05342e-09
-4.04062e-08
3.02056e-09
-4.14306e-08
2.9864e-09
-4.24426e-08
2.95092e-09
-4.34415e-08
2.91411e-09
-4.44271e-08
2.87593e-09
-4.53986e-08
2.83635e-09
-4.63558e-08
2.79534e-09
-4.7298e-08
2.75286e-09
-4.82248e-08
2.70886e-09
-4.91356e-08
2.66332e-09
-5.00298e-08
2.61618e-09
-5.0907e-08
2.56741e-09
-5.17665e-08
2.51697e-09
-5.26077e-08
2.46482e-09
-5.34301e-08
2.41092e-09
-5.42331e-08
2.35523e-09
-5.5016e-08
2.29773e-09
-5.57783e-08
2.23837e-09
-5.65192e-08
2.17712e-09
-5.72382e-08
2.11395e-09
-5.79346e-08
2.04884e-09
-5.86077e-08
1.98176e-09
-5.92568e-08
1.91268e-09
-5.98813e-08
1.84159e-09
-6.04806e-08
1.76846e-09
-6.10538e-08
1.69328e-09
-6.16004e-08
1.61605e-09
-6.21196e-08
1.53675e-09
-6.26108e-08
1.45537e-09
-6.30732e-08
1.37192e-09
-6.35062e-08
1.28639e-09
-6.39091e-08
1.1988e-09
-6.42812e-08
1.10914e-09
-6.46218e-08
1.01745e-09
-6.49302e-08
9.23726e-10
-6.52059e-08
8.28004e-10
-6.54481e-08
7.30308e-10
-6.56562e-08
6.30674e-10
-6.58295e-08
5.29137e-10
-6.59675e-08
4.25742e-10
-6.60696e-08
3.20538e-10
-6.61352e-08
2.13579e-10
-6.61637e-08
1.04923e-10
-6.61546e-08
-5.36322e-12
-6.61074e-08
-1.17211e-10
-6.60216e-08
-2.30542e-10
-6.58967e-08
-3.45276e-10
-6.57323e-08
-4.61324e-10
-6.55281e-08
-5.78594e-10
-6.52836e-08
-6.96986e-10
-6.49986e-08
-8.16397e-10
-6.46727e-08
-9.36715e-10
-6.43057e-08
-1.05783e-09
-6.38973e-08
-1.17961e-09
-6.34475e-08
-1.30193e-09
-6.29561e-08
-1.42467e-09
-6.24229e-08
-1.54768e-09
-6.18481e-08
-1.67083e-09
-6.12315e-08
-1.79396e-09
-6.05733e-08
-1.91693e-09
-5.98735e-08
-2.03957e-09
-5.91325e-08
-2.16172e-09
-5.83503e-08
-2.28322e-09
-5.75272e-08
-2.40389e-09
-5.66638e-08
-2.52355e-09
-5.57602e-08
-2.64202e-09
-5.48171e-08
-2.7591e-09
-5.3835e-08
-2.8746e-09
-5.28144e-08
-2.98831e-09
-5.17561e-08
-3.10001e-09
-5.06608e-08
-3.20948e-09
-4.95294e-08
-3.3165e-09
-4.83628e-08
-3.42081e-09
-4.7162e-08
-3.52216e-09
-4.59281e-08
-3.62028e-09
-4.46624e-08
-3.71488e-09
-4.3366e-08
-3.80568e-09
-4.20404e-08
-3.89234e-09
-4.06872e-08
-3.97452e-09
-3.93079e-08
-4.05188e-09
-3.79044e-08
-4.12402e-09
-3.64786e-08
-4.19054e-09
-3.50325e-08
-4.25101e-09
-3.35683e-08
-4.30496e-09
-3.20885e-08
-4.3519e-09
-3.05955e-08
-4.39131e-09
-2.90922e-08
-4.42263e-09
-2.75814e-08
-4.44529e-09
-2.60662e-08
-4.45866e-09
-2.45502e-08
-4.4621e-09
-2.30367e-08
-4.45491e-09
-2.15297e-08
-4.4364e-09
-2.00331e-08
-4.40581e-09
-1.85513e-08
-4.36238e-09
-1.70889e-08
-4.30533e-09
-1.56505e-08
-4.23385e-09
-1.42414e-08
-4.14713e-09
-1.28666e-08
-4.04437e-09
-1.15319e-08
-3.92476e-09
-1.02428e-08
-3.78755e-09
-9.00535e-09
-3.63204e-09
-7.8256e-09
-3.45759e-09
-6.70971e-09
-3.26371e-09
-5.66383e-09
-3.05011e-09
-4.69408e-09
-2.81674e-09
-3.80631e-09
-2.56396e-09
-3.00599e-09
-2.29266e-09
-2.29795e-09
-2.0045e-09
-1.68606e-09
-1.70226e-09
-1.17287e-09
-1.39022e-09
-7.59088e-10
-1.07481e-09
-4.4303e-10
-7.65494e-10
-2.19938e-10
-4.75897e-10
-8.13023e-11
-2.2518e-10
-1.41407e-11
-3.98668e-11
4.08352e-11
-3.16076e-11
1.314e-11
-1.35518e-10
1.74984e-10
-3.19493e-10
4.22381e-10
-5.88991e-10
7.21547e-10
-9.47178e-10
1.04909e-09
-1.39503e-09
1.38784e-09
-1.93162e-09
1.72549e-09
-2.5545e-09
2.0535e-09
-3.26004e-09
2.36609e-09
-4.04374e-09
2.65956e-09
-4.90048e-09
2.93171e-09
-5.8248e-09
3.18143e-09
-6.81104e-09
3.40842e-09
-7.85351e-09
3.61292e-09
-8.94662e-09
3.7956e-09
-1.00849e-08
3.9574e-09
-1.12631e-08
4.09943e-09
-1.24764e-08
4.22293e-09
-1.372e-08
4.3292e-09
-1.49896e-08
4.41957e-09
-1.62812e-08
4.49535e-09
-1.75911e-08
4.55781e-09
-1.89159e-08
4.60819e-09
-2.02525e-08
4.64767e-09
-2.15981e-08
4.67734e-09
-2.29502e-08
4.69822e-09
-2.43065e-08
4.71127e-09
-2.56649e-08
4.71733e-09
-2.70237e-08
4.71719e-09
-2.83812e-08
4.71154e-09
-2.97359e-08
4.70101e-09
-3.10866e-08
4.68615e-09
-3.2432e-08
4.66742e-09
-3.37711e-08
4.64525e-09
-3.51029e-08
4.61998e-09
-3.64267e-08
4.5919e-09
-3.77415e-08
4.56127e-09
-3.90467e-08
4.52828e-09
-4.03415e-08
4.49308e-09
-4.16254e-08
4.45582e-09
-4.28977e-08
4.41657e-09
-4.41578e-08
4.3754e-09
-4.54051e-08
4.33236e-09
-4.66392e-08
4.28746e-09
-4.78593e-08
4.24072e-09
-4.90651e-08
4.19213e-09
-5.02558e-08
4.14167e-09
-5.1431e-08
4.0893e-09
-5.25901e-08
4.035e-09
-5.37325e-08
3.97872e-09
-5.48575e-08
3.92042e-09
-5.59647e-08
3.86004e-09
-5.70534e-08
3.79754e-09
-5.81229e-08
3.73286e-09
-5.91727e-08
3.66595e-09
-6.0202e-08
3.59675e-09
-6.12103e-08
3.52522e-09
-6.21968e-08
3.45129e-09
-6.31608e-08
3.37493e-09
-6.41016e-08
3.29607e-09
-6.50186e-08
3.21468e-09
-6.59109e-08
3.1307e-09
-6.67779e-08
3.0441e-09
-6.76188e-08
2.95483e-09
-6.84328e-08
2.86286e-09
-6.92192e-08
2.76815e-09
-6.99772e-08
2.67067e-09
-7.0706e-08
2.5704e-09
-7.14048e-08
2.46731e-09
-7.20729e-08
2.36137e-09
-7.27095e-08
2.25259e-09
-7.33137e-08
2.14094e-09
-7.38847e-08
2.02642e-09
-7.44218e-08
1.90903e-09
-7.49242e-08
1.78877e-09
-7.5391e-08
1.66565e-09
-7.58216e-08
1.53969e-09
-7.62151e-08
1.41091e-09
-7.65707e-08
1.27934e-09
-7.68877e-08
1.145e-09
-7.71653e-08
1.00795e-09
-7.74029e-08
8.68226e-10
-7.75996e-08
7.25882e-10
-7.77549e-08
5.8098e-10
-7.78679e-08
4.33589e-10
-7.79381e-08
2.83785e-10
-7.79648e-08
1.31651e-10
-7.79475e-08
-2.27215e-11
-7.78855e-08
-1.79235e-10
-7.77782e-08
-3.37783e-10
-7.76252e-08
-4.9825e-10
-7.7426e-08
-6.60515e-10
-7.71802e-08
-8.24449e-10
-7.68873e-08
-9.89912e-10
-7.65469e-08
-1.15676e-09
-7.61588e-08
-1.32484e-09
-7.57226e-08
-1.49399e-09
-7.52382e-08
-1.66405e-09
-7.47053e-08
-1.83483e-09
-7.41238e-08
-2.00616e-09
-7.34936e-08
-2.17785e-09
-7.28147e-08
-2.34969e-09
-7.20872e-08
-2.52148e-09
-7.13111e-08
-2.69301e-09
-7.04866e-08
-2.86407e-09
-6.96139e-08
-3.03442e-09
-6.86933e-08
-3.20384e-09
-6.77251e-08
-3.37207e-09
-6.67098e-08
-3.53888e-09
-6.56478e-08
-3.704e-09
-6.45398e-08
-3.86717e-09
-6.33862e-08
-4.02812e-09
-6.2188e-08
-4.18654e-09
-6.09459e-08
-4.34215e-09
-5.96607e-08
-4.49464e-09
-5.83335e-08
-4.64368e-09
-5.69654e-08
-4.78892e-09
-5.55575e-08
-4.93002e-09
-5.41112e-08
-5.0666e-09
-5.26278e-08
-5.19826e-09
-5.11089e-08
-5.32458e-09
-4.95562e-08
-5.44511e-09
-4.79713e-08
-5.55939e-09
-4.63563e-08
-5.66691e-09
-4.47131e-08
-5.76715e-09
-4.30442e-08
-5.85952e-09
-4.13517e-08
-5.94344e-09
-3.96384e-08
-6.01826e-09
-3.7907e-08
-6.08329e-09
-3.61605e-08
-6.13782e-09
-3.44021e-08
-6.18107e-09
-3.26351e-08
-6.21225e-09
-3.08633e-08
-6.23049e-09
-2.90905e-08
-6.23491e-09
-2.73208e-08
-6.22457e-09
-2.55587e-08
-6.19849e-09
-2.38089e-08
-6.15567e-09
-2.20762e-08
-6.09507e-09
-2.03659e-08
-6.01562e-09
-1.86835e-08
-5.91625e-09
-1.70347e-08
-5.79588e-09
-1.54256e-08
-5.65345e-09
-1.38625e-08
-5.48791e-09
-1.23517e-08
-5.2983e-09
-1.09001e-08
-5.08372e-09
-9.51423e-09
-4.84342e-09
-8.20109e-09
-4.57685e-09
-6.96747e-09
-4.28373e-09
-5.82005e-09
-3.96416e-09
-4.76523e-09
-3.61877e-09
-3.80895e-09
-3.24894e-09
-2.95643e-09
-2.85703e-09
-2.2119e-09
-2.44679e-09
-1.57828e-09
-2.02384e-09
-1.05675e-09
-1.59634e-09
-6.46351e-10
-1.17589e-09
-3.43552e-10
-7.78696e-10
-1.41875e-10
-4.26859e-10
-3.16507e-11
-1.50091e-10
9.18463e-12
-4.63336e-11
5.94738e-11
-1.87482e-10
3.16133e-10
-4.2634e-10
6.61237e-10
-7.65027e-10
1.06023e-09
-1.20437e-09
1.48844e-09
-1.74378e-09
1.92725e-09
-2.38125e-09
2.36296e-09
-3.11358e-09
2.78582e-09
-3.93657e-09
3.18908e-09
-4.84526e-09
3.56825e-09
-5.83414e-09
3.92058e-09
-6.89733e-09
4.24463e-09
-8.02879e-09
4.53988e-09
-9.22241e-09
4.80655e-09
-1.04722e-08
5.04536e-09
-1.17722e-08
5.2574e-09
-1.31167e-08
5.444e-09
-1.45005e-08
5.60668e-09
-1.59183e-08
5.74704e-09
-1.73655e-08
5.8667e-09
-1.88374e-08
5.96733e-09
-2.03302e-08
6.05053e-09
-2.18398e-08
6.11787e-09
-2.3363e-08
6.17085e-09
-2.48965e-08
6.21087e-09
-2.64376e-08
6.23925e-09
-2.79835e-08
6.25721e-09
-2.9532e-08
6.26586e-09
-3.10811e-08
6.26622e-09
-3.26287e-08
6.25919e-09
-3.41733e-08
6.2456e-09
-3.57133e-08
6.22615e-09
-3.72474e-08
6.20148e-09
-3.87743e-08
6.17213e-09
-4.02929e-08
6.13857e-09
-4.18021e-08
6.10118e-09
-4.33012e-08
6.0603e-09
-4.47891e-08
6.0162e-09
-4.62651e-08
5.9691e-09
-4.77284e-08
5.91915e-09
-4.91784e-08
5.86651e-09
-5.06142e-08
5.81125e-09
-5.20353e-08
5.75345e-09
-5.3441e-08
5.69313e-09
-5.48306e-08
5.63031e-09
-5.62034e-08
5.565e-09
-5.75589e-08
5.49716e-09
-5.88964e-08
5.42677e-09
-6.02152e-08
5.35379e-09
-6.15146e-08
5.27816e-09
-6.2794e-08
5.19983e-09
-6.40527e-08
5.11873e-09
-6.529e-08
5.03482e-09
-6.65052e-08
4.94801e-09
-6.76975e-08
4.85824e-09
-6.88661e-08
4.76544e-09
-7.00105e-08
4.66956e-09
-7.11297e-08
4.57051e-09
-7.2223e-08
4.46824e-09
-7.32896e-08
4.36268e-09
-7.43287e-08
4.25378e-09
-7.53395e-08
4.14148e-09
-7.63211e-08
4.02571e-09
-7.72727e-08
3.90644e-09
-7.81935e-08
3.78362e-09
-7.90825e-08
3.6572e-09
-7.9939e-08
3.52714e-09
-8.0762e-08
3.39341e-09
-8.15507e-08
3.25598e-09
-8.23041e-08
3.11484e-09
-8.30215e-08
2.96994e-09
-8.37019e-08
2.8213e-09
-8.43443e-08
2.6689e-09
-8.49481e-08
2.51274e-09
-8.55121e-08
2.35283e-09
-8.60356e-08
2.18918e-09
-8.65178e-08
2.02181e-09
-8.69576e-08
1.85076e-09
-8.73543e-08
1.67607e-09
-8.77071e-08
1.49777e-09
-8.80151e-08
1.31592e-09
-8.82774e-08
1.13059e-09
-8.84934e-08
9.4184e-10
-8.86622e-08
7.49763e-10
-8.8783e-08
5.54446e-10
-8.88552e-08
3.55988e-10
-8.88781e-08
1.54502e-10
-8.88509e-08
-4.98938e-11
-8.87731e-08
-2.57068e-10
-8.8644e-08
-4.6688e-10
-8.84631e-08
-6.7918e-10
-8.82298e-08
-8.93807e-10
-8.79436e-08
-1.11059e-09
-8.76042e-08
-1.32935e-09
-8.72111e-08
-1.54989e-09
-8.67639e-08
-1.77201e-09
-8.62624e-08
-1.9955e-09
-8.57063e-08
-2.22015e-09
-8.50954e-08
-2.44571e-09
-8.44296e-08
-2.67195e-09
-8.37088e-08
-2.89863e-09
-8.29331e-08
-3.12547e-09
-8.21023e-08
-3.35221e-09
-8.12168e-08
-3.57858e-09
-8.02765e-08
-3.80428e-09
-7.92819e-08
-4.02902e-09
-7.82333e-08
-4.2525e-09
-7.7131e-08
-4.47438e-09
-7.59755e-08
-4.69436e-09
-7.47674e-08
-4.91208e-09
-7.35074e-08
-5.1272e-09
-7.21962e-08
-5.33935e-09
-7.08345e-08
-5.54815e-09
-6.94235e-08
-5.75322e-09
-6.7964e-08
-5.95414e-09
-6.64572e-08
-6.15048e-09
-6.49043e-08
-6.3418e-09
-6.33067e-08
-6.52761e-09
-6.16659e-08
-6.70744e-09
-5.99834e-08
-6.88075e-09
-5.8261e-08
-7.04699e-09
-5.65005e-08
-7.20558e-09
-5.4704e-08
-7.35589e-09
-5.28736e-08
-7.49726e-09
-5.10118e-08
-7.629e-09
-4.9121e-08
-7.75035e-09
-4.72039e-08
-7.86052e-09
-4.52634e-08
-7.95868e-09
-4.33028e-08
-8.04392e-09
-4.13253e-08
-8.11531e-09
-3.93345e-08
-8.17184e-09
-3.73343e-08
-8.21245e-09
-3.53288e-08
-8.23605e-09
-3.33222e-08
-8.24146e-09
-3.13193e-08
-8.22747e-09
-2.9325e-08
-8.19284e-09
-2.73444e-08
-8.13625e-09
-2.53831e-08
-8.05638e-09
-2.34469e-08
-7.95187e-09
-2.15418e-08
-7.82135e-09
-1.96742e-08
-7.66348e-09
-1.78507e-08
-7.47691e-09
-1.60782e-08
-7.26037e-09
-1.43639e-08
-7.01267e-09
-1.27148e-08
-6.73276e-09
-1.11385e-08
-6.41977e-09
-9.64222e-09
-6.07311e-09
-8.23338e-09
-5.69257e-09
-6.91914e-09
-5.2784e-09
-5.70633e-09
-4.83158e-09
-4.60129e-09
-4.35397e-09
-3.60966e-09
-3.84866e-09
-2.73612e-09
-3.32033e-09
-1.98411e-09
-2.77585e-09
-1.35557e-09
-2.22488e-09
-8.50655e-10
-1.68081e-09
-4.67508e-10
-1.16184e-09
-2.02188e-10
-6.9218e-10
-4.87747e-11
-3.03504e-10
-3.95898e-11
-6.03831e-11
1.19856e-10
-2.37894e-10
4.93647e-10
-5.30889e-10
9.54232e-10
-9.38098e-10
1.46744e-09
-1.45783e-09
2.00817e-09
-2.08765e-09
2.55707e-09
-2.82428e-09
3.09959e-09
-3.66357e-09
3.62511e-09
-4.60061e-09
4.12612e-09
-5.62991e-09
4.59755e-09
-6.74551e-09
5.03618e-09
-7.94114e-09
5.44026e-09
-9.21039e-09
5.80913e-09
-1.05468e-08
6.14296e-09
-1.1944e-08
6.44253e-09
-1.33957e-08
6.70908e-09
-1.48958e-08
6.94417e-09
-1.64387e-08
7.14957e-09
-1.80188e-08
7.32717e-09
-1.96311e-08
7.47894e-09
-2.12706e-08
7.60688e-09
-2.2933e-08
7.71293e-09
-2.46142e-08
7.79902e-09
-2.63103e-08
7.86696e-09
-2.80179e-08
7.9185e-09
-2.97339e-08
7.95525e-09
-3.14555e-08
7.97874e-09
-3.31799e-08
7.99033e-09
-3.4905e-08
7.99131e-09
-3.66286e-08
7.9828e-09
-3.83489e-08
7.96583e-09
-4.0064e-08
7.94131e-09
-4.17726e-08
7.91002e-09
-4.34731e-08
7.87265e-09
-4.51643e-08
7.8298e-09
-4.68451e-08
7.78197e-09
-4.85144e-08
7.72958e-09
-5.01712e-08
7.67298e-09
-5.18145e-08
7.61245e-09
-5.34436e-08
7.54822e-09
-5.50575e-08
7.48046e-09
-5.66556e-08
7.40929e-09
-5.82369e-08
7.3348e-09
-5.98008e-08
7.25705e-09
-6.13466e-08
7.17605e-09
-6.28734e-08
7.09183e-09
-6.43806e-08
7.00434e-09