/*--------------------------------*- C++ -*----------------------------------*\
  =========                 |
  \\      /  F ield         | OpenFOAM: The Open Source CFD Toolbox
   \\    /   O peration     | Website:  https://openfoam.org
    \\  /    A nd           | Version:  7
     \\/     M anipulation  |
\*---------------------------------------------------------------------------*/
FoamFile
{
    version     2.0;
    format      ascii;
    class       surfaceScalarField;
    location    "0.2625";
    object      phi;
}
// * * * * * * * * * * * * * * * * * * * * * * * * * * * * * * * * * * * * * //

dimensions      [0 3 -1 0 0 0 0];

internalField   nonuniform List<scalar> 
50880
(
6.00171e-12
-6.24067e-12
3.6217e-11
-3.02239e-11
8.11175e-11
-4.48877e-11
1.30743e-10
-4.96153e-11
1.77948e-10
-4.72156e-11
2.1777e-10
-3.983e-11
2.46788e-10
-2.90166e-11
2.62679e-10
-1.58926e-11
2.63929e-10
-1.24425e-12
2.49564e-10
1.43633e-11
2.19029e-10
3.05304e-11
1.72065e-10
4.69611e-11
1.08641e-10
6.3428e-11
2.8885e-11
7.97581e-11
-6.69373e-11
9.58226e-11
-1.7846e-10
1.11525e-10
-3.05243e-10
1.26784e-10
-4.46781e-10
1.41538e-10
-6.02522e-10
1.55742e-10
-7.71881e-10
1.69361e-10
-9.54242e-10
1.82362e-10
-1.14897e-09
1.94727e-10
-1.35541e-09
2.0644e-10
-1.57291e-09
2.17492e-10
-1.80078e-09
2.27874e-10
-2.03836e-09
2.37582e-10
-2.28498e-09
2.46614e-10
-2.53994e-09
2.54973e-10
-2.8026e-09
2.62657e-10
-3.07227e-09
2.69672e-10
-3.3483e-09
2.76025e-10
-3.63002e-09
2.81722e-10
-3.91679e-09
2.8677e-10
-4.20797e-09
2.91177e-10
-4.50292e-09
2.94953e-10
-4.80103e-09
2.9811e-10
-5.10168e-09
3.00654e-10
-5.40428e-09
3.02596e-10
-5.70823e-09
3.03949e-10
-6.01295e-09
3.04724e-10
-6.31788e-09
3.04931e-10
-6.62246e-09
3.04582e-10
-6.92615e-09
3.03691e-10
-7.22842e-09
3.0227e-10
-7.52875e-09
3.00331e-10
-7.82664e-09
2.97886e-10
-8.12158e-09
2.94948e-10
-8.41311e-09
2.91531e-10
-8.70076e-09
2.87646e-10
-8.98406e-09
2.83305e-10
-9.26258e-09
2.78523e-10
-9.5359e-09
2.73312e-10
-9.80358e-09
2.67685e-10
-1.00652e-08
2.61656e-10
-1.03205e-08
2.55239e-10
-1.05689e-08
2.48447e-10
-1.08102e-08
2.4129e-10
-1.1044e-08
2.33782e-10
-1.12699e-08
2.25939e-10
-1.14877e-08
2.17773e-10
-1.1697e-08
2.09296e-10
-1.18975e-08
2.00521e-10
-1.2089e-08
1.91464e-10
-1.22711e-08
1.82137e-10
-1.24437e-08
1.72554e-10
-1.26064e-08
1.6273e-10
-1.27591e-08
1.52678e-10
-1.29015e-08
1.42409e-10
-1.30334e-08
1.31938e-10
-1.31547e-08
1.21278e-10
-1.32652e-08
1.10446e-10
-1.33646e-08
9.94548e-11
-1.34529e-08
8.83178e-11
-1.353e-08
7.70508e-11
-1.35957e-08
6.56679e-11
-1.36498e-08
5.41831e-11
-1.36925e-08
4.26115e-11
-1.37234e-08
3.0968e-11
-1.37427e-08
1.92661e-11
-1.37502e-08
7.52121e-12
-1.3746e-08
-4.25037e-12
-1.37299e-08
-1.60329e-11
-1.37021e-08
-2.78111e-11
-1.36625e-08
-3.95694e-11
-1.36113e-08
-5.12926e-11
-1.35483e-08
-6.29645e-11
-1.34737e-08
-7.45684e-11
-1.33876e-08
-8.60887e-11
-1.32901e-08
-9.75094e-11
-1.31813e-08
-1.08814e-10
-1.30613e-08
-1.19984e-10
-1.29303e-08
-1.31005e-10
-1.27885e-08
-1.4186e-10
-1.26359e-08
-1.52531e-10
-1.24729e-08
-1.63001e-10
-1.22997e-08
-1.73255e-10
-1.21164e-08
-1.83275e-10
-1.19234e-08
-1.93042e-10
-1.17208e-08
-2.0254e-10
-1.15091e-08
-2.11753e-10
-1.12884e-08
-2.20664e-10
-1.10592e-08
-2.29255e-10
-1.08216e-08
-2.37509e-10
-1.05762e-08
-2.45409e-10
-1.03233e-08
-2.52939e-10
-1.00632e-08
-2.60083e-10
-9.79639e-09
-2.66822e-10
-9.52325e-09
-2.73141e-10
-9.24423e-09
-2.79024e-10
-8.95978e-09
-2.84455e-10
-8.67036e-09
-2.89418e-10
-8.37646e-09
-2.93898e-10
-8.07858e-09
-2.9788e-10
-7.77723e-09
-3.01349e-10
-7.47294e-09
-3.0429e-10
-7.16625e-09
-3.0669e-10
-6.85772e-09
-3.08536e-10
-6.5479e-09
-3.09813e-10
-6.23739e-09
-3.1051e-10
-5.92678e-09
-3.10615e-10
-5.61666e-09
-3.10115e-10
-5.30766e-09
-3.09001e-10
-5.0004e-09
-3.07262e-10
-4.69551e-09
-3.04889e-10
-4.39364e-09
-3.01873e-10
-4.09543e-09
-2.98207e-10
-3.80155e-09
-2.93883e-10
-3.51266e-09
-2.88896e-10
-3.22942e-09
-2.8324e-10
-2.95251e-09
-2.76911e-10
-2.6826e-09
-2.69908e-10
-2.42036e-09
-2.6223e-10
-2.16649e-09
-2.53877e-10
-1.92164e-09
-2.44851e-10
-1.68648e-09
-2.35155e-10
-1.46169e-09
-2.24795e-10
-1.24791e-09
-2.13781e-10
-1.04578e-09
-2.02124e-10
-8.55947e-10
-1.8984e-10
-6.79004e-10
-1.76945e-10
-5.15541e-10
-1.63464e-10
-3.66115e-10
-1.49425e-10
-2.31247e-10
-1.34866e-10
-1.11414e-10
-1.19832e-10
-7.03628e-12
-1.04377e-10
8.15338e-11
-8.85705e-11
1.54031e-10
-7.24973e-11
2.10296e-10
-5.62662e-11
2.50309e-10
-4.00143e-11
2.74227e-10
-2.39181e-11
2.82433e-10
-8.20715e-12
2.75617e-10
6.8158e-12
2.54873e-10
2.07436e-11
2.21856e-10
3.30176e-11
1.78997e-10
4.28586e-11
1.29819e-10
4.91773e-11
7.93398e-11
5.04807e-11
3.4627e-11
4.47154e-11
5.33616e-12
2.92919e-11
5.33674e-12
3.00858e-11
-3.63561e-11
1.01221e-10
-1.01354e-10
1.9543e-10
-1.39107e-10
2.95674e-10
-1.49859e-10
3.87601e-10
-1.39124e-10
4.59954e-10
-1.12185e-10
5.04291e-10
-7.33556e-11
5.14428e-10
-2.60294e-11
4.85977e-10
2.72069e-11
4.15944e-10
8.4401e-11
3.0241e-10
1.44071e-10
1.44287e-10
2.05082e-10
-5.88493e-11
2.66561e-10
-3.06921e-10
3.27827e-10
-5.99445e-10
3.8835e-10
-9.35627e-10
4.47708e-10
-1.31442e-09
5.05569e-10
-1.73456e-09
5.61678e-10
-2.19464e-09
6.15827e-10
-2.69313e-09
6.67848e-10
-3.22838e-09
7.17617e-10
-3.79869e-09
7.65033e-10
-4.40227e-09
8.10022e-10
-5.0373e-09
8.52529e-10
-5.70194e-09
8.92512e-10
-6.39431e-09
9.29945e-10
-7.11251e-09
9.64814e-10
-7.85465e-09
9.97113e-10
-8.61883e-09
1.02684e-09
-9.40317e-09
1.05401e-09
-1.02058e-08
1.07863e-09
-1.10248e-08
1.10073e-09
-1.18584e-08
1.12033e-09
-1.27046e-08
1.13746e-09
-1.35618e-08
1.15214e-09
-1.44281e-08
1.16442e-09
-1.53018e-08
1.17433e-09
-1.61811e-08
1.18191e-09
-1.70644e-08
1.18719e-09
-1.79499e-08
1.19023e-09
-1.8836e-08
1.19106e-09
-1.97211e-08
1.18972e-09
-2.06037e-08
1.18628e-09
-2.14822e-08
1.18076e-09
-2.23551e-08
1.17322e-09
-2.32209e-08
1.1637e-09
-2.40782e-08
1.15226e-09
-2.49256e-08
1.13894e-09
-2.57618e-08
1.12379e-09
-2.65853e-08
1.10687e-09
-2.7395e-08
1.08822e-09
-2.81896e-08
1.06789e-09
-2.89678e-08
1.04593e-09
-2.97286e-08
1.0224e-09
-3.04707e-08
9.97339e-10
-3.1193e-08
9.70805e-10
-3.18946e-08
9.42848e-10
-3.25743e-08
9.13521e-10
-3.32313e-08
8.82876e-10
-3.38645e-08
8.50963e-10
-3.4473e-08
8.17833e-10
-3.5056e-08
7.83541e-10
-3.56127e-08
7.4814e-10
-3.61422e-08
7.11681e-10
-3.66439e-08
6.74217e-10
-3.7117e-08
6.35803e-10
-3.75608e-08
5.96492e-10
-3.79747e-08
5.56339e-10
-3.83582e-08
5.15397e-10
-3.87106e-08
4.73722e-10
-3.90316e-08
4.31368e-10
-3.93205e-08
3.8839e-10
-3.9577e-08
3.44845e-10
-3.98008e-08
3.00788e-10
-3.99914e-08
2.56279e-10
-4.01486e-08
2.11374e-10
-4.02721e-08
1.66129e-10
-4.03617e-08
1.20603e-10
-4.04173e-08
7.48564e-11
-4.04387e-08
2.89468e-11
-4.04259e-08
-1.70646e-11
-4.03788e-08
-6.31171e-11
-4.02975e-08
-1.09151e-10
-4.0182e-08
-1.55105e-10
-4.00323e-08
-2.00917e-10
-3.98488e-08
-2.46523e-10
-3.96315e-08
-2.91861e-10
-3.93807e-08
-3.36867e-10
-3.90968e-08
-3.81477e-10
-3.87799e-08
-4.25627e-10
-3.84307e-08
-4.69253e-10
-3.80494e-08
-5.12287e-10
-3.76366e-08
-5.54666e-10
-3.71928e-08
-5.96324e-10
-3.67186e-08
-6.37195e-10
-3.62146e-08
-6.7721e-10
-3.56816e-08
-7.16306e-10
-3.51202e-08
-7.54415e-10
-3.45313e-08
-7.91471e-10
-3.39157e-08
-8.27406e-10
-3.32742e-08
-8.62155e-10
-3.26078e-08
-8.95651e-10
-3.19175e-08
-9.27828e-10
-3.12042e-08
-9.58621e-10
-3.04692e-08
-9.87964e-10
-2.97135e-08
-1.01579e-09
-2.89383e-08
-1.04204e-09
-2.81448e-08
-1.06665e-09
-2.73342e-08
-1.08956e-09
-2.6508e-08
-1.1107e-09
-2.56674e-08
-1.13002e-09
-2.48139e-08
-1.14745e-09
-2.39488e-08
-1.16293e-09
-2.30737e-08
-1.17642e-09
-2.21902e-08
-1.18785e-09
-2.12997e-08
-1.19718e-09
-2.04039e-08
-1.20434e-09
-1.95044e-08
-1.2093e-09
-1.86029e-08
-1.212e-09
-1.77011e-08
-1.2124e-09
-1.68008e-08
-1.21045e-09
-1.59037e-08
-1.20612e-09
-1.50116e-08
-1.19936e-09
-1.41263e-08
-1.19015e-09
-1.32497e-08
-1.17845e-09
-1.23837e-08
-1.16424e-09
-1.15301e-08
-1.14748e-09
-1.06908e-08
-1.12817e-09
-9.86779e-09
-1.10628e-09
-9.0629e-09
-1.08181e-09
-8.27806e-09
-1.05474e-09
-7.51521e-09
-1.02508e-09
-6.77624e-09
-9.92845e-10
-6.06305e-09
-9.58037e-10
-5.37753e-09
-9.20682e-10
-4.72151e-09
-8.8081e-10
-4.09683e-09
-8.38465e-10
-3.50526e-09
-7.937e-10
-2.94851e-09
-7.46584e-10
-2.42825e-09
-6.97202e-10
-1.94606e-09
-6.45659e-10
-1.5034e-09
-5.92085e-10
-1.10163e-09
-5.36635e-10
-7.41962e-10
-4.79503e-10
-4.25416e-10
-4.20924e-10
-1.52799e-10
-3.61188e-10
7.53577e-11
-3.00653e-10
2.58855e-10
-2.39763e-10
3.97912e-10
-1.79072e-10
4.93273e-10
-1.1928e-10
5.46342e-10
-6.12753e-11
5.59359e-10
-6.20037e-12
5.35634e-10
4.44679e-11
4.7985e-10
8.88004e-11
3.98441e-10
1.24268e-10
3.00031e-10
1.47588e-10
1.95882e-10
1.54632e-10
1.00137e-10
1.40459e-10
2.92739e-11
1.00158e-10
3.46118e-11
4.485e-11
-8.11864e-11
1.39111e-10
-1.95611e-10
2.56264e-10
-2.56279e-10
3.74699e-10
-2.68307e-10
4.76148e-10
-2.40571e-10
5.45731e-10
-1.81763e-10
5.71745e-10
-9.93689e-11
5.4524e-10
4.7055e-13
4.59589e-10
1.12853e-10
3.10061e-10
2.3393e-10
9.34655e-11
3.6067e-10
-1.92147e-10
4.90698e-10
-5.4772e-10
6.22135e-10
-9.73389e-10
7.535e-10
-1.46864e-09
8.83609e-10
-2.03245e-09
1.01152e-09
-2.66335e-09
1.13647e-09
-3.35954e-09
1.25786e-09
-4.11892e-09
1.37522e-09
-4.93921e-09
1.48814e-09
-5.81792e-09
1.59632e-09
-6.75241e-09
1.69952e-09
-7.73995e-09
1.79756e-09
-8.7777e-09
1.89028e-09
-9.86277e-09
1.97758e-09
-1.09922e-08
2.05939e-09
-1.21631e-08
2.13566e-09
-1.33723e-08
2.20636e-09
-1.46169e-08
2.27148e-09
-1.5894e-08
2.33102e-09
-1.72003e-08
2.38503e-09
-1.85331e-08
2.43352e-09
-1.98894e-08
2.47655e-09
-2.12661e-08
2.51417e-09
-2.26604e-08
2.54645e-09
-2.40694e-08
2.57344e-09
-2.54903e-08
2.59523e-09
-2.69203e-08
2.6119e-09
-2.83566e-08
2.62352e-09
-2.97966e-08
2.6302e-09
-3.12376e-08
2.63202e-09
-3.26769e-08
2.62908e-09
-3.41121e-08
2.62147e-09
-3.55406e-08
2.6093e-09
-3.69601e-08
2.59266e-09
-3.8368e-08
2.57166e-09
-3.97622e-08
2.54642e-09
-4.11403e-08
2.51702e-09
-4.25001e-08
2.48358e-09
-4.38394e-08
2.44621e-09
-4.51562e-08
2.40502e-09
-4.64484e-08
2.36012e-09
-4.77141e-08
2.31162e-09
-4.89514e-08
2.25963e-09
-5.01583e-08
2.20426e-09
-5.13331e-08
2.14563e-09
-5.24741e-08
2.08385e-09
-5.35796e-08
2.01904e-09
-5.4648e-08
1.9513e-09
-5.56778e-08
1.88075e-09
-5.66675e-08
1.80752e-09
-5.76157e-08
1.73171e-09
-5.8521e-08
1.65344e-09
-5.93821e-08
1.57284e-09
-6.01979e-08
1.49e-09
-6.09672e-08
1.40507e-09
-6.16889e-08
1.31815e-09
-6.23619e-08
1.22936e-09
-6.29853e-08
1.13883e-09
-6.35583e-08
1.04667e-09
-6.40799e-08
9.53018e-10
-6.45495e-08
8.57985e-10
-6.49664e-08
7.617e-10
-6.53299e-08
6.64286e-10
-6.56395e-08
5.6587e-10
-6.58947e-08
4.6658e-10
-6.60951e-08
3.66543e-10
-6.62404e-08
2.65889e-10
-6.63303e-08
1.6475e-10
-6.63646e-08
6.32568e-11
-6.63432e-08
-3.84578e-11
-6.6266e-08
-1.40261e-10
-6.61332e-08
-2.42016e-10
-6.59447e-08
-3.43586e-10
-6.57008e-08
-4.44836e-10
-6.54017e-08
-5.45625e-10
-6.50477e-08
-6.45815e-10
-6.46393e-08
-7.45265e-10
-6.4177e-08
-8.43833e-10
-6.36612e-08
-9.41377e-10
-6.30927e-08
-1.03775e-09
-6.24722e-08
-1.13282e-09
-6.18004e-08
-1.22642e-09
-6.10783e-08
-1.31843e-09
-6.03068e-08
-1.40869e-09
-5.9487e-08
-1.49705e-09
-5.86199e-08
-1.58337e-09
-5.77068e-08
-1.6675e-09
-5.6749e-08
-1.7493e-09
-5.57478e-08
-1.82862e-09
-5.47046e-08
-1.90531e-09
-5.36211e-08
-1.97923e-09
-5.24987e-08
-2.05023e-09
-5.13391e-08
-2.11817e-09
-5.01442e-08
-2.18291e-09
-4.89157e-08
-2.24429e-09
-4.76555e-08
-2.30219e-09
-4.63657e-08
-2.35646e-09
-4.50483e-08
-2.40697e-09
-4.37054e-08
-2.45358e-09
-4.23393e-08
-2.49616e-09
-4.09522e-08
-2.53458e-09
-3.95464e-08
-2.56871e-09
-3.81244e-08
-2.59844e-09
-3.66886e-08
-2.62364e-09
-3.52416e-08
-2.64419e-09
-3.37859e-08
-2.65998e-09
-3.23243e-08
-2.67092e-09
-3.08594e-08
-2.67688e-09
-2.9394e-08
-2.67779e-09
-2.79309e-08
-2.67354e-09
-2.6473e-08
-2.66405e-09
-2.50231e-08
-2.64924e-09
-2.35843e-08
-2.62903e-09
-2.21593e-08
-2.60338e-09
-2.07514e-08
-2.57221e-09
-1.93634e-08
-2.53547e-09
-1.79984e-08
-2.49315e-09
-1.66595e-08
-2.44519e-09
-1.53497e-08
-2.39159e-09
-1.40721e-08
-2.33234e-09
-1.28297e-08
-2.26745e-09
-1.16256e-08
-2.19695e-09
-1.04628e-08
-2.12087e-09
-9.34422e-09
-2.03928e-09
-8.27278e-09
-1.95225e-09
-7.25135e-09
-1.8599e-09
-6.28269e-09
-1.76235e-09
-5.36949e-09
-1.65978e-09
-4.5143e-09
-1.55239e-09
-3.71952e-09
-1.44043e-09
-2.9874e-09
-1.32421e-09
-2.31994e-09
-1.20409e-09
-1.71891e-09
-1.08053e-09
-1.18578e-09
-9.54062e-10
-7.21608e-10
-8.25357e-10
-3.27042e-10
-6.95221e-10
-2.15888e-12
-5.64647e-10
2.53628e-10
-4.34861e-10
4.41729e-10
-3.07381e-10
5.6456e-10
-1.84105e-10
6.25777e-10
-6.7414e-11
6.30558e-10
3.96899e-11
5.8594e-10
1.33419e-10
5.01201e-10
2.09005e-10
3.88257e-10
2.60533e-10
2.62008e-10
2.80885e-10
1.40483e-10
2.61988e-10
4.46941e-11
1.95946e-10
7.93082e-11
4.96779e-11
-1.30869e-10
1.50197e-10
-2.96122e-10
2.68927e-10
-3.75002e-10
3.80674e-10
-3.80066e-10
4.64649e-10
-3.24557e-10
5.03799e-10
-2.20905e-10
4.84397e-10
-7.99613e-11
3.95677e-10
8.91924e-11
2.29413e-10
2.79113e-10
-2.04355e-11
4.83776e-10
-3.58095e-10
6.98329e-10
-7.86273e-10
9.18871e-10
-1.30641e-09
1.14227e-09
-1.91891e-09
1.36601e-09
-2.62333e-09
1.58803e-09
-3.41852e-09
1.8067e-09
-4.30272e-09
2.02067e-09
-5.27373e-09
2.22888e-09
-6.32894e-09
2.43043e-09
-7.46543e-09
2.62463e-09
-8.68001e-09
2.81089e-09
-9.96927e-09
2.98878e-09
-1.13296e-08
3.15793e-09
-1.27574e-08
3.31805e-09
-1.42488e-08
3.46895e-09
-1.57998e-08
3.61045e-09
-1.74066e-08
3.74246e-09
-1.90652e-08
3.86491e-09
-2.07715e-08
3.97777e-09
-2.25215e-08
4.08102e-09
-2.43112e-08
4.17471e-09
-2.61365e-08
4.25887e-09
-2.79935e-08
4.33358e-09
-2.98783e-08
4.39892e-09
-3.17868e-08
4.45498e-09
-3.37152e-08
4.50187e-09
-3.56597e-08
4.53973e-09
-3.76165e-08
4.56867e-09
-3.95819e-08
4.58885e-09
-4.15521e-08
4.60041e-09
-4.35236e-08
4.60351e-09
-4.54928e-08
4.5983e-09
-4.74563e-08
4.58496e-09
-4.94106e-08
4.56365e-09
-5.13525e-08
4.53455e-09
-5.32787e-08
4.49783e-09
-5.51859e-08
4.45369e-09
-5.70712e-08
4.40229e-09
-5.89315e-08
4.34383e-09
-6.07637e-08
4.27849e-09
-6.25652e-08
4.20647e-09
-6.4333e-08
4.12796e-09
-6.60646e-08
4.04314e-09
-6.77572e-08
3.95222e-09
-6.94083e-08
3.85539e-09
-7.10155e-08
3.75285e-09
-7.25764e-08
3.64479e-09
-7.40888e-08
3.53141e-09
-7.55504e-08
3.41292e-09
-7.69592e-08
3.28951e-09
-7.83131e-08
3.16139e-09
-7.96101e-08
3.02876e-09
-8.08485e-08
2.89182e-09
-8.20264e-08
2.75079e-09
-8.31423e-08
2.60586e-09
-8.41945e-08
2.45724e-09
-8.51815e-08
2.30515e-09
-8.61019e-08
2.1498e-09
-8.69545e-08
1.99139e-09
-8.77379e-08
1.83014e-09
-8.84512e-08
1.66626e-09
-8.90932e-08
1.49998e-09
-8.9663e-08
1.3315e-09
-9.01598e-08
1.16106e-09
-9.05828e-08
9.88862e-10
-9.09313e-08
8.1514e-10
-9.12049e-08
6.40118e-10
-9.1403e-08
4.64022e-10
-9.15254e-08
2.87082e-10
-9.15716e-08
1.09528e-10
-9.15417e-08
-6.84054e-11
-9.14355e-08
-2.46484e-10
-9.1253e-08
-4.24471e-10
-9.09945e-08
-6.02127e-10
-9.06601e-08
-7.79211e-10
-9.02502e-08
-9.55481e-10
-8.97654e-08
-1.13069e-09
-8.9206e-08
-1.3046e-09
-8.85729e-08
-1.47695e-09
-8.78668e-08
-1.6475e-09
-8.70885e-08
-1.816e-09
-8.62392e-08
-1.98219e-09
-8.53198e-08
-2.14583e-09
-8.43315e-08
-2.30665e-09
-8.32758e-08
-2.4644e-09
-8.2154e-08
-2.61883e-09
-8.09677e-08
-2.76969e-09
-7.97185e-08
-2.91671e-09
-7.84082e-08
-3.05963e-09
-7.70386e-08
-3.19821e-09
-7.56117e-08
-3.33219e-09
-7.41296e-08
-3.46132e-09
-7.25945e-08
-3.58533e-09
-7.10087e-08
-3.70399e-09
-6.93746e-08
-3.81705e-09
-6.76946e-08
-3.92424e-09
-6.59715e-08
-4.02534e-09
-6.42078e-08
-4.1201e-09
-6.24065e-08
-4.20829e-09
-6.05704e-08
-4.28967e-09
-5.87026e-08
-4.364e-09
-5.68061e-08
-4.43108e-09
-5.48841e-08
-4.49068e-09
-5.29399e-08
-4.54258e-09
-5.0977e-08
-4.58659e-09
-4.89987e-08
-4.6225e-09
-4.70086e-08
-4.65012e-09
-4.50102e-08
-4.66926e-09
-4.30073e-08
-4.67976e-09
-4.10037e-08
-4.68144e-09
-3.90031e-08
-4.67415e-09
-3.70093e-08
-4.65776e-09
-3.50265e-08
-4.63211e-09
-3.30584e-08
-4.5971e-09
-3.11092e-08
-4.55262e-09
-2.91828e-08
-4.49858e-09
-2.72834e-08
-4.43489e-09
-2.5415e-08
-4.36151e-09
-2.35818e-08
-4.27839e-09
-2.17879e-08
-4.18552e-09
-2.00373e-08
-4.08289e-09
-1.83342e-08
-3.97053e-09
-1.66827e-08
-3.84851e-09
-1.50867e-08
-3.7169e-09
-1.35501e-08
-3.57583e-09
-1.20769e-08
-3.42546e-09
-1.06708e-08
-3.26599e-09
-9.33549e-09
-3.09767e-09
-8.07444e-09
-2.92083e-09
-6.89099e-09
-2.73584e-09
-5.78825e-09
-2.54317e-09
-4.76908e-09
-2.34339e-09
-3.83602e-09
-2.13715e-09
-2.99128e-09
-1.92527e-09
-2.23662e-09
-1.70873e-09
-1.57328e-09
-1.4887e-09
-1.0019e-09
-1.2666e-09
-5.22379e-10
-1.04416e-09
-1.33749e-10
-8.2349e-10
1.66025e-10
-6.07153e-10
3.80231e-10
-3.98312e-10
5.13671e-10
-2.00856e-10
5.72939e-10
-1.95787e-11
5.66742e-10
1.39616e-10
5.06252e-10
2.695e-10
4.05445e-10
3.61344e-10
2.81459e-10
4.04873e-10
1.54919e-10
3.8853e-10
5.05216e-11
3.00344e-10
1.29831e-10
4.74475e-11
-1.78326e-10
1.40063e-10
-3.88725e-10
2.42356e-10
-4.77292e-10
3.26953e-10
-4.6466e-10
3.71494e-10
-3.691e-10
3.57629e-10
-2.07043e-10
2.70454e-10
7.21578e-12
9.80716e-11
2.61579e-10
-1.6878e-10
5.45966e-10
-5.3706e-10
8.52057e-10
-1.01175e-09
1.17302e-09
-1.59615e-09
1.50327e-09
-2.29212e-09
1.83824e-09
-3.1003e-09
2.17419e-09
-4.02034e-09
2.50807e-09
-5.05101e-09
2.83737e-09
-6.19038e-09
3.16005e-09
-7.43593e-09
3.47443e-09
-8.78462e-09
3.77912e-09
-1.0233e-08
4.07303e-09
-1.17774e-08
4.35522e-09
-1.34135e-08
4.62498e-09
-1.51373e-08
4.8817e-09
-1.69442e-08
5.12493e-09
-1.88296e-08
5.3543e-09
-2.07887e-08
5.56955e-09
-2.28167e-08
5.77048e-09
-2.49087e-08
5.95696e-09
-2.70599e-08
6.12891e-09
-2.92652e-08
6.28632e-09
-3.15196e-08
6.42919e-09
-3.38183e-08
6.55757e-09
-3.61563e-08
6.67156e-09
-3.85287e-08
6.77127e-09
-4.09305e-08
6.85683e-09
-4.3357e-08
6.9284e-09
-4.58035e-08
6.98615e-09
-4.82651e-08
7.03028e-09
-5.07372e-08
7.06099e-09
-5.32153e-08
7.07851e-09
-5.56949e-08
7.08305e-09
-5.81714e-08
7.07487e-09
-6.06407e-08
7.05421e-09
-6.30984e-08
7.02133e-09
-6.55403e-08
6.97648e-09
-6.79624e-08
6.91994e-09
-7.03607e-08
6.85198e-09
-7.27313e-08
6.77288e-09
-7.50704e-08
6.68293e-09
-7.73743e-08
6.5824e-09
-7.96394e-08
6.4716e-09
-8.18623e-08
6.3508e-09
-8.40394e-08
6.22031e-09
-8.61676e-08
6.08042e-09
-8.82437e-08
5.93143e-09
-9.02645e-08
5.77365e-09
-9.22271e-08
5.60738e-09
-9.41286e-08
5.43292e-09
-9.59662e-08
5.25058e-09
-9.77374e-08
5.06068e-09
-9.94395e-08
4.86352e-09
-1.0107e-07
4.65941e-09
-1.02627e-07
4.44867e-09
-1.04108e-07
4.23162e-09
-1.05511e-07
4.00858e-09
-1.06833e-07
3.77986e-09
-1.08074e-07
3.54579e-09
-1.09231e-07
3.3067e-09
-1.10302e-07
3.0629e-09
-1.11287e-07
2.81473e-09
-1.12183e-07
2.56253e-09
-1.1299e-07
2.30662e-09
-1.13706e-07
2.04734e-09
-1.1433e-07
1.78503e-09
-1.14861e-07
1.52004e-09
-1.15298e-07
1.2527e-09
-1.15642e-07
9.83371e-10
-1.1589e-07
7.12397e-10
-1.16043e-07
4.40133e-10
-1.161e-07
1.66934e-10
-1.16062e-07
-1.06839e-10
-1.15928e-07
-3.80825e-10
-1.15697e-07
-6.54657e-10
-1.15372e-07
-9.27968e-10
-1.1495e-07
-1.20039e-09
-1.14434e-07
-1.47154e-09
-1.13824e-07
-1.74105e-09
-1.1312e-07
-2.00854e-09
-1.12323e-07
-2.27362e-09
-1.11435e-07
-2.53592e-09
-1.10456e-07
-2.79504e-09
-1.09388e-07
-3.05061e-09
-1.08231e-07
-3.30222e-09
-1.06988e-07
-3.54949e-09
-1.05661e-07
-3.79204e-09
-1.0425e-07
-4.02946e-09
-1.02758e-07
-4.26136e-09
-1.01188e-07
-4.48735e-09
-9.95403e-08
-4.70704e-09
-9.78185e-08
-4.92003e-09
-9.60247e-08
-5.12595e-09
-9.41617e-08
-5.32438e-09
-9.22321e-08
-5.51496e-09
-9.02388e-08
-5.69729e-09
-8.81848e-08
-5.871e-09
-8.60733e-08
-6.03571e-09
-8.39076e-08
-6.19104e-09
-8.16911e-08
-6.33663e-09
-7.94273e-08
-6.47212e-09
-7.71198e-08
-6.59715e-09
-7.47724e-08
-6.71137e-09
-7.23891e-08
-6.81444e-09
-6.99737e-08
-6.90603e-09
-6.75305e-08
-6.98582e-09
-6.50636e-08
-7.05349e-09
-6.25774e-08
-7.10874e-09
-6.00762e-08
-7.15129e-09
-5.75646e-08
-7.18086e-09
-5.50472e-08
-7.19718e-09
-5.25286e-08
-7.2e-09
-5.00137e-08
-7.1891e-09
-4.75072e-08
-7.16426e-09
-4.5014e-08
-7.12529e-09
-4.25391e-08
-7.072e-09
-4.00875e-08
-7.00426e-09
-3.76641e-08
-6.92191e-09
-3.52741e-08
-6.82487e-09
-3.29226e-08
-6.71305e-09
-3.06146e-08
-6.5864e-09
-2.83552e-08
-6.44492e-09
-2.61495e-08
-6.28861e-09
-2.40024e-08
-6.11755e-09
-2.19191e-08
-5.93183e-09
-1.99044e-08
-5.73161e-09
-1.79632e-08
-5.51709e-09
-1.61001e-08
-5.28855e-09
-1.43197e-08
-5.04633e-09
-1.26265e-08
-4.79084e-09
-1.10248e-08
-4.52259e-09
-9.51842e-09
-4.24221e-09
-8.11116e-09
-3.95043e-09
-6.80639e-09
-3.64816e-09
-5.6071e-09
-3.33644e-09
-4.51581e-09
-3.01656e-09
-3.53452e-09
-2.69002e-09
-2.66459e-09
-2.35863e-09
-1.90661e-09
-2.02458e-09
-1.2603e-09
-1.69047e-09
-7.24355e-10
-1.35944e-09
-2.9622e-10
-1.03529e-09
2.80764e-11
-7.22607e-10
2.54182e-10
-4.26958e-10
3.89684e-10
-1.55076e-10
4.44403e-10
8.48985e-11
4.30706e-10
2.83197e-10
3.63834e-10
4.28212e-10
2.62316e-10
5.06395e-10
1.48462e-10
5.02385e-10
4.93765e-11
3.99432e-10
1.79207e-10
4.03352e-11
-2.18666e-10
1.13992e-10
-4.62387e-10
1.85237e-10
-5.48535e-10
2.25918e-10
-5.05337e-10
2.13003e-10
-3.56185e-10
1.27539e-10
-1.21583e-10
-4.59675e-11
1.8072e-10
-3.20012e-10
5.35626e-10
-7.04449e-10
9.30406e-10
-1.2068e-09
1.35441e-09
-1.83254e-09
1.79876e-09
-2.58536e-09
2.25609e-09
-3.46741e-09
2.7203e-09
-4.47954e-09
3.18632e-09
-5.62144e-09
3.64997e-09
-6.89184e-09
4.10777e-09
-8.28865e-09
4.55686e-09
-9.80909e-09
4.99486e-09
-1.14498e-08
5.41981e-09
-1.32068e-08
5.83009e-09
-1.5076e-08
6.22439e-09
-1.70526e-08
6.60161e-09
-1.91318e-08
6.96089e-09
-2.13084e-08
7.30153e-09
-2.35771e-08
7.62298e-09
-2.59324e-08
7.9248e-09
-2.83686e-08
8.2067e-09
-3.08801e-08
8.46846e-09
-3.34611e-08
8.70993e-09
-3.61058e-08
8.93104e-09
-3.88084e-08
9.13181e-09
-4.15631e-08
9.31227e-09
-4.43641e-08
9.47252e-09
-4.72055e-08
9.61269e-09
-5.00816e-08
9.73297e-09
-5.29868e-08
9.83355e-09
-5.59153e-08
9.91466e-09
-5.88616e-08
9.97657e-09
-6.18202e-08
1.00196e-08
-6.47855e-08
1.00439e-08
-6.77524e-08
1.00499e-08
-7.07155e-08
1.0038e-08
-7.36697e-08
1.00084e-08
-7.66099e-08
9.9615e-09
-7.95311e-08
9.89768e-09
-8.24285e-08
9.81732e-09
-8.52973e-08
9.72078e-09
-8.81329e-08
9.60847e-09
-9.09307e-08
9.48077e-09
-9.36864e-08
9.33809e-09
-9.63956e-08
9.18083e-09
-9.90542e-08
9.00941e-09
-1.01658e-07
8.82424e-09
-1.04203e-07
8.62574e-09
-1.06686e-07
8.41433e-09
-1.09103e-07
8.19045e-09
-1.1145e-07
7.95451e-09
-1.13724e-07
7.70696e-09
-1.15922e-07
7.44823e-09
-1.1804e-07
7.17875e-09
-1.20076e-07
6.89898e-09
-1.22025e-07
6.60935e-09
-1.23887e-07
6.3103e-09
-1.25658e-07
6.0023e-09
-1.27335e-07
5.68579e-09
-1.28916e-07
5.36123e-09
-1.304e-07
5.02907e-09
-1.31783e-07
4.68978e-09
-1.33064e-07
4.34382e-09
-1.34241e-07
3.99166e-09
-1.35312e-07
3.63378e-09
-1.36276e-07
3.27064e-09
-1.37131e-07
2.90273e-09
-1.37877e-07
2.53053e-09
-1.38511e-07
2.15453e-09
-1.39034e-07
1.77521e-09
-1.39443e-07
1.39307e-09
-1.3974e-07
1.00861e-09
-1.39922e-07
6.22329e-10
-1.3999e-07
2.34737e-10
-1.39943e-07
-1.53655e-10
-1.39781e-07
-5.42334e-10
-1.39505e-07
-9.30781e-10
-1.39115e-07
-1.31847e-09
-1.3861e-07
-1.70488e-09
-1.37992e-07
-2.08948e-09
-1.37262e-07
-2.47172e-09
-1.36419e-07
-2.85108e-09
-1.35466e-07
-3.22702e-09
-1.34403e-07
-3.59898e-09
-1.33231e-07
-3.96642e-09
-1.31953e-07
-4.3288e-09
-1.3057e-07
-4.68556e-09
-1.29083e-07
-5.03615e-09
-1.27495e-07
-5.38001e-09
-1.25808e-07
-5.71658e-09
-1.24024e-07
-6.04532e-09
-1.22146e-07
-6.36566e-09
-1.20176e-07
-6.67706e-09
-1.18117e-07
-6.97895e-09
-1.15972e-07
-7.27079e-09
-1.13744e-07
-7.55203e-09
-1.11437e-07
-7.82211e-09
-1.09054e-07
-8.08051e-09
-1.06598e-07
-8.32667e-09
-1.04074e-07
-8.56007e-09
-1.01485e-07
-8.78019e-09
-9.88348e-08
-8.98651e-09
-9.61284e-08
-9.17852e-09
-9.33698e-08
-9.35571e-09
-9.05636e-08
-9.51761e-09
-8.77143e-08
-9.66373e-09
-8.48267e-08
-9.7936e-09
-8.19058e-08
-9.90678e-09
-7.89564e-08
-1.00028e-08
-7.59839e-08
-1.00813e-08
-7.29933e-08
-1.01419e-08
-6.99901e-08
-1.01841e-08
-6.69797e-08
-1.02076e-08
-6.39677e-08
-1.0212e-08
-6.09597e-08
-1.01971e-08
-5.79615e-08
-1.01625e-08
-5.49788e-08
-1.0108e-08
-5.20175e-08
-1.00333e-08
-4.90834e-08
-9.9383e-09
-4.61826e-08
-9.82273e-09
-4.3321e-08
-9.68649e-09
-4.05046e-08
-9.52948e-09
-3.77393e-08
-9.35166e-09
-3.50312e-08
-9.15302e-09
-3.23862e-08
-8.93362e-09
-2.98102e-08
-8.69355e-09
-2.7309e-08
-8.433e-09
-2.48884e-08
-8.1522e-09
-2.2554e-08
-7.85148e-09
-2.03114e-08
-7.53125e-09
-1.81657e-08
-7.19201e-09
-1.61221e-08
-6.8344e-09
-1.41855e-08
-6.45917e-09
-1.23605e-08
-6.06724e-09
-1.06512e-08
-5.65969e-09
-9.06159e-09
-5.2378e-09
-7.59491e-09
-4.80312e-09
-6.25401e-09
-4.35746e-09
-5.04106e-09
-3.90297e-09
-3.95749e-09
-3.4422e-09
-3.00389e-09
-2.97819e-09
-2.17981e-09
-2.51454e-09
-1.4837e-09
-2.05556e-09
-9.12614e-10
-1.60637e-09
-4.62115e-10
-1.17311e-09
-1.25981e-10
-7.63091e-10
1.04008e-10
-3.85065e-10
2.38342e-10
-4.94367e-11
2.9007e-10
2.31471e-10
2.75121e-10
4.43162e-10
2.12747e-10
5.68773e-10
1.26104e-10
5.89024e-10
4.33276e-11
4.82212e-10
2.22535e-10
2.98729e-11
-2.48536e-10
7.6282e-11
-5.08809e-10
1.04981e-10
-5.77234e-10
8.82513e-11
-4.88607e-10
3.19903e-12
-2.71128e-10
-1.69141e-10
5.07555e-11
-4.44363e-10
4.55942e-10
-8.35142e-10
9.26404e-10
-1.35156e-09
1.44682e-09
-2.00139e-09
2.00423e-09
-2.79035e-09
2.58772e-09
-3.72236e-09
3.1881e-09
-4.79972e-09
3.79766e-09
-6.02337e-09
4.40996e-09
-7.393e-09
5.0196e-09
-8.90729e-09
5.62207e-09
-1.0564e-08
6.21357e-09
-1.23601e-08
6.79097e-09
-1.42919e-08
7.35164e-09
-1.63553e-08
7.89341e-09
-1.85453e-08
8.41445e-09
-2.0857e-08
8.91331e-09
-2.32849e-08
9.38875e-09
-2.58232e-08
9.83981e-09
-2.84659e-08
1.02657e-08
-3.12069e-08
1.06658e-08
-3.40398e-08
1.10397e-08
-3.69583e-08
1.1387e-08
-3.99559e-08
1.17074e-08
-4.30258e-08
1.2001e-08
-4.61616e-08
1.22676e-08
-4.93567e-08
1.25073e-08
-5.26043e-08
1.27202e-08
-5.5898e-08
1.29063e-08
-5.92311e-08
1.30661e-08
-6.25971e-08
1.31996e-08
-6.59895e-08
1.33071e-08
-6.94021e-08
1.33891e-08
-7.28283e-08
1.34458e-08
-7.62621e-08
1.34777e-08
-7.96972e-08
1.34851e-08
-8.31277e-08
1.34685e-08
-8.65476e-08
1.34282e-08
-8.9951e-08
1.33649e-08
-9.33322e-08
1.32789e-08
-9.66857e-08
1.31708e-08
-1.00006e-07
1.3041e-08
-1.03288e-07
1.28902e-08
-1.06526e-07
1.27187e-08
-1.09715e-07
1.25271e-08
-1.1285e-07
1.2316e-08
-1.15926e-07
1.20859e-08
-1.18939e-07
1.18374e-08
-1.21884e-07
1.1571e-08
-1.24757e-07
1.12873e-08
-1.27554e-07
1.09868e-08
-1.30269e-07
1.06702e-08
-1.32901e-07
1.0338e-08
-1.35443e-07
9.99083e-09
-1.37894e-07
9.62924e-09
-1.40248e-07
9.25382e-09
-1.42504e-07
8.86517e-09
-1.44658e-07
8.4639e-09
-1.46706e-07
8.05061e-09
-1.48646e-07
7.6259e-09
-1.50475e-07
7.19039e-09
-1.52191e-07
6.74469e-09
-1.53791e-07
6.28943e-09
-1.55272e-07
5.82522e-09
-1.56633e-07
5.35271e-09
-1.57872e-07
4.87251e-09
-1.58987e-07
4.38528e-09
-1.59975e-07
3.89164e-09
-1.60837e-07
3.39226e-09
-1.6157e-07
2.88779e-09
-1.62174e-07
2.37889e-09
-1.62647e-07
1.86621e-09
-1.62989e-07
1.35043e-09
-1.63199e-07
8.32234e-10
-1.63277e-07
3.1229e-10
-1.63222e-07
-2.08711e-10
-1.63034e-07
-7.30078e-10
-1.62713e-07
-1.25111e-09
-1.62261e-07
-1.77112e-09
-1.61676e-07
-2.28938e-09
-1.60961e-07
-2.80519e-09
-1.60114e-07
-3.31783e-09
-1.59139e-07
-3.82657e-09
-1.58035e-07
-4.3307e-09
-1.56805e-07
-4.82948e-09
-1.55449e-07
-5.32218e-09
-1.5397e-07
-5.80807e-09
-1.52369e-07
-6.2864e-09
-1.50649e-07
-6.75643e-09
-1.48811e-07
-7.21742e-09
-1.46859e-07
-7.66864e-09
-1.44795e-07
-8.10932e-09
-1.42622e-07
-8.53874e-09
-1.40343e-07
-8.95614e-09
-1.37961e-07
-9.3608e-09
-1.3548e-07
-9.75196e-09
-1.32903e-07
-1.01289e-08
-1.30234e-07
-1.04909e-08
-1.27478e-07
-1.08372e-08
-1.24637e-07
-1.11671e-08
-1.21717e-07
-1.148e-08
-1.18722e-07
-1.1775e-08
-1.15657e-07
-1.20516e-08
-1.12527e-07
-1.2309e-08
-1.09336e-07
-1.25465e-08
-1.0609e-07
-1.27636e-08
-1.02794e-07
-1.29596e-08
-9.94541e-08
-1.31338e-08
-9.60752e-08
-1.32857e-08
-9.26633e-08
-1.34147e-08
-8.92243e-08
-1.35203e-08
-8.57643e-08
-1.36019e-08
-8.22894e-08
-1.36589e-08
-7.88059e-08
-1.3691e-08
-7.53202e-08
-1.36977e-08
-7.18387e-08
-1.36786e-08
-6.8368e-08
-1.36332e-08
-6.49148e-08
-1.35613e-08
-6.14856e-08
-1.34625e-08
-5.80873e-08
-1.33366e-08
-5.47267e-08
-1.31833e-08
-5.14106e-08
-1.30026e-08
-4.81457e-08
-1.27943e-08
-4.4939e-08
-1.25584e-08
-4.17973e-08
-1.22948e-08
-3.87272e-08
-1.20037e-08
-3.57355e-08
-1.16853e-08
-3.28287e-08
-1.13397e-08
-3.00135e-08
-1.09674e-08
-2.72961e-08
-1.05689e-08
-2.46827e-08
-1.01446e-08
-2.21793e-08
-9.69541e-09
-1.97916e-08
-9.22209e-09
-1.75251e-08
-8.72573e-09
-1.53847e-08
-8.20758e-09
-1.33753e-08
-7.66912e-09
-1.1501e-08
-7.11212e-09
-9.76547e-09
-6.53864e-09
-8.17182e-09
-5.95111e-09
-6.72237e-09
-5.35242e-09
-5.41864e-09
-4.74592e-09
-4.26122e-09
-4.13561e-09
-3.24959e-09
-3.52617e-09
-2.38201e-09
-2.92314e-09
-1.65533e-09
-2.33304e-09
-1.06483e-09
-1.76361e-09
-6.03958e-10
-1.22396e-09
-2.64175e-10
-7.24848e-10
-3.46749e-11
-2.78933e-10
9.78556e-11
9.89406e-11
1.49572e-10
3.91447e-10
1.39874e-10
5.78473e-10
9.19871e-11
6.36908e-10
3.38735e-11
5.40329e-10
2.5641e-10
1.71494e-11
-2.65682e-10
3.02545e-11
-5.2191e-10
7.58424e-12
-5.54568e-10
-7.72136e-11
-4.03809e-10
-2.46223e-10
-1.02115e-10
-5.17897e-10
3.22429e-10
-9.07516e-10
8.45562e-10
-1.42758e-09
1.44647e-09
-2.08809e-09
2.10733e-09
-2.89681e-09
2.81296e-09
-3.85949e-09
3.5504e-09
-4.98007e-09
4.30868e-09
-6.26089e-09
5.07848e-09
-7.70286e-09
5.85193e-09
-9.30563e-09
6.62238e-09
-1.10678e-08
7.38421e-09
-1.29869e-08
8.13267e-09
-1.50597e-08
8.86379e-09
-1.72823e-08
9.57422e-09
-1.965e-08
1.02612e-08
-2.21578e-08
1.09223e-08
-2.48001e-08
1.15556e-08
-2.75709e-08
1.21596e-08
-3.0464e-08
1.27329e-08
-3.34727e-08
1.32744e-08
-3.65903e-08
1.37834e-08
-3.98099e-08
1.42593e-08
-4.31244e-08
1.47014e-08
-4.65265e-08
1.51096e-08
-5.00091e-08
1.54835e-08
-5.35646e-08
1.58232e-08
-5.71859e-08
1.61286e-08
-6.08656e-08
1.63998e-08
-6.45962e-08
1.6637e-08
-6.83705e-08
1.68404e-08
-7.21812e-08
1.70102e-08
-7.60211e-08
1.7147e-08
-7.98829e-08
1.7251e-08
-8.37598e-08
1.73226e-08
-8.76446e-08
1.73625e-08
-9.15304e-08
1.73709e-08
-9.54106e-08
1.73486e-08
-9.92784e-08
1.7296e-08
-1.03127e-07
1.72138e-08
-1.06951e-07
1.71025e-08
-1.10743e-07
1.69627e-08
-1.14497e-07
1.67951e-08
-1.18207e-07
1.66004e-08
-1.21868e-07
1.63792e-08