/*--------------------------------*- C++ -*----------------------------------*\
  =========                 |
  \\      /  F ield         | OpenFOAM: The Open Source CFD Toolbox
   \\    /   O peration     | Website:  https://openfoam.org
    \\  /    A nd           | Version:  7
     \\/     M anipulation  |
\*---------------------------------------------------------------------------*/
FoamFile
{
    version     2.0;
    format      ascii;
    class       volVectorField;
    location    "0.2625";
    object      U;
}
// * * * * * * * * * * * * * * * * * * * * * * * * * * * * * * * * * * * * * //

dimensions      [0 1 -1 0 0 0 0];

internalField   nonuniform List<vector> 
25600
(
(1.83615e-07 -2.02354e-07 0)
(2.84376e-06 -1.79248e-06 0)
(9.07921e-06 -2.83162e-06 0)
(1.69284e-05 -3.20534e-06 0)
(2.48827e-05 -3.12206e-06 0)
(3.19918e-05 -2.74367e-06 0)
(3.76044e-05 -2.17828e-06 0)
(4.12707e-05 -1.49728e-06 0)
(4.26917e-05 -7.46991e-07 0)
(4.16744e-05 4.18805e-08 0)
(3.8101e-05 8.49369e-07 0)
(3.19095e-05 1.66153e-06 0)
(2.3079e-05 2.46799e-06 0)
(1.16191e-05 3.26133e-06 0)
(-2.43734e-06 4.03628e-06 0)
(-1.90389e-05 4.78914e-06 0)
(-3.81201e-05 5.51683e-06 0)
(-5.96049e-05 6.21698e-06 0)
(-8.34082e-05 6.88822e-06 0)
(-0.000109439 7.52936e-06 0)
(-0.000137599 8.13929e-06 0)
(-0.000167791 8.71741e-06 0)
(-0.00019991 9.26357e-06 0)
(-0.00023385 9.77757e-06 0)
(-0.000269505 1.02593e-05 0)
(-0.000306767 1.07086e-05 0)
(-0.000345529 1.11259e-05 0)
(-0.000385681 1.15113e-05 0)
(-0.000427117 1.1865e-05 0)
(-0.000469729 1.21872e-05 0)
(-0.000513411 1.24786e-05 0)
(-0.000558056 1.27395e-05 0)
(-0.00060356 1.29703e-05 0)
(-0.00064982 1.31715e-05 0)
(-0.000696736 1.33436e-05 0)
(-0.000744205 1.34873e-05 0)
(-0.000792129 1.36029e-05 0)
(-0.000840412 1.36909e-05 0)
(-0.000888959 1.3752e-05 0)
(-0.000937675 1.37867e-05 0)
(-0.000986469 1.37956e-05 0)
(-0.00103525 1.37791e-05 0)
(-0.00108393 1.37381e-05 0)
(-0.00113243 1.3673e-05 0)
(-0.00118066 1.35845e-05 0)
(-0.00122854 1.34731e-05 0)
(-0.00127598 1.33394e-05 0)
(-0.00132292 1.3184e-05 0)
(-0.00136927 1.30076e-05 0)
(-0.00141496 1.28105e-05 0)
(-0.00145993 1.25936e-05 0)
(-0.00150409 1.23574e-05 0)
(-0.00154739 1.21024e-05 0)
(-0.00158975 1.18293e-05 0)
(-0.00163112 1.15388e-05 0)
(-0.00167143 1.12315e-05 0)
(-0.00171062 1.09077e-05 0)
(-0.00174864 1.05681e-05 0)
(-0.00178543 1.02135e-05 0)
(-0.00182094 9.84442e-06 0)
(-0.00185511 9.46131e-06 0)
(-0.00188791 9.06481e-06 0)
(-0.00191928 8.65558e-06 0)
(-0.00194918 8.23427e-06 0)
(-0.00197757 7.80151e-06 0)
(-0.0020044 7.3579e-06 0)
(-0.00202964 6.904e-06 0)
(-0.00205325 6.44036e-06 0)
(-0.00207521 5.96756e-06 0)
(-0.00209547 5.4863e-06 0)
(-0.00211402 4.99725e-06 0)
(-0.00213082 4.50099e-06 0)
(-0.00214584 3.99815e-06 0)
(-0.00215908 3.48945e-06 0)
(-0.0021705 2.97552e-06 0)
(-0.00218009 2.45695e-06 0)
(-0.00218784 1.93443e-06 0)
(-0.00219373 1.40863e-06 0)
(-0.00219775 8.80115e-07 0)
(-0.00219989 3.49576e-07 0)
(-0.00220016 -1.82224e-07 0)
(-0.00219853 -7.14574e-07 0)
(-0.00219503 -1.24678e-06 0)
(-0.00218963 -1.77817e-06 0)
(-0.00218236 -2.30806e-06 0)
(-0.00217322 -2.83574e-06 0)
(-0.00216222 -3.36042e-06 0)
(-0.00214936 -3.88143e-06 0)
(-0.00213467 -4.39804e-06 0)
(-0.00211816 -4.9095e-06 0)
(-0.00209985 -5.41501e-06 0)
(-0.00207976 -5.91385e-06 0)
(-0.00205792 -6.40529e-06 0)
(-0.00203437 -6.88852e-06 0)
(-0.00200912 -7.36281e-06 0)
(-0.00198221 -7.82743e-06 0)
(-0.00195367 -8.28156e-06 0)
(-0.00192356 -8.72433e-06 0)
(-0.0018919 -9.15501e-06 0)
(-0.00185875 -9.5729e-06 0)
(-0.00182414 -9.97727e-06 0)
(-0.00178813 -1.03672e-05 0)
(-0.00175078 -1.0742e-05 0)
(-0.00171213 -1.11008e-05 0)
(-0.00167225 -1.1443e-05 0)
(-0.00163119 -1.17678e-05 0)
(-0.00158902 -1.20742e-05 0)
(-0.00154581 -1.23617e-05 0)
(-0.00150162 -1.26295e-05 0)
(-0.00145652 -1.28767e-05 0)
(-0.0014106 -1.31028e-05 0)
(-0.00136391 -1.3307e-05 0)
(-0.00131655 -1.34886e-05 0)
(-0.00126859 -1.3647e-05 0)
(-0.00122012 -1.37813e-05 0)
(-0.00117122 -1.3891e-05 0)
(-0.00112198 -1.39755e-05 0)
(-0.00107249 -1.40341e-05 0)
(-0.00102284 -1.40662e-05 0)
(-0.000973126 -1.40712e-05 0)
(-0.000923444 -1.40486e-05 0)
(-0.00087389 -1.39979e-05 0)
(-0.000824565 -1.39185e-05 0)
(-0.000775568 -1.381e-05 0)
(-0.000727002 -1.36719e-05 0)
(-0.00067897 -1.35039e-05 0)
(-0.000631577 -1.33055e-05 0)
(-0.000584929 -1.30764e-05 0)
(-0.000539132 -1.28163e-05 0)
(-0.000494294 -1.25249e-05 0)
(-0.000450523 -1.22021e-05 0)
(-0.000407925 -1.18477e-05 0)
(-0.00036661 -1.14616e-05 0)
(-0.000326686 -1.10438e-05 0)
(-0.000288261 -1.05941e-05 0)
(-0.000251439 -1.01129e-05 0)
(-0.000216329 -9.60031e-06 0)
(-0.000183032 -9.05662e-06 0)
(-0.000151652 -8.48232e-06 0)
(-0.000122287 -7.87795e-06 0)
(-9.5033e-05 -7.24424e-06 0)
(-6.99819e-05 -6.58221e-06 0)
(-4.72201e-05 -5.89318e-06 0)
(-2.68278e-05 -5.17882e-06 0)
(-8.87748e-06 -4.44115e-06 0)
(6.56865e-06 -3.68278e-06 0)
(1.94604e-05 -2.90707e-06 0)
(2.97628e-05 -2.11841e-06 0)
(3.74602e-05 -1.32258e-06 0)
(4.25617e-05 -5.27291e-07 0)
(4.51084e-05 2.57006e-07 0)
(4.51831e-05 1.01577e-06 0)
(4.2924e-05 1.7282e-06 0)
(3.85453e-05 2.36365e-06 0)
(3.23664e-05 2.87574e-06 0)
(2.48546e-05 3.19418e-06 0)
(1.66758e-05 3.21427e-06 0)
(8.78136e-06 2.77967e-06 0)
(2.64647e-06 1.69768e-06 0)
(1.23623e-07 1.23562e-07 0)
(1.78052e-06 -2.87592e-06 0)
(9.38723e-06 -9.4101e-06 0)
(2.31388e-05 -1.34124e-05 0)
(3.93679e-05 -1.47197e-05 0)
(5.52347e-05 -1.39528e-05 0)
(6.8745e-05 -1.16817e-05 0)
(7.83588e-05 -8.34768e-06 0)
(8.29209e-05 -4.28067e-06 0)
(8.15994e-05 2.78805e-07 0)
(7.38175e-05 5.15545e-06 0)
(5.91922e-05 1.02213e-05 0)
(3.7491e-05 1.53806e-05 0)
(8.59875e-06 2.0561e-05 0)
(-2.75073e-05 2.5707e-05 0)
(-7.07787e-05 3.07761e-05 0)
(-0.00012111 3.57357e-05 0)
(-0.000178352 4.05596e-05 0)
(-0.000242318 4.5228e-05 0)
(-0.000312793 4.97256e-05 0)
(-0.00038954 5.404e-05 0)
(-0.000472304 5.81614e-05 0)
(-0.000560817 6.20829e-05 0)
(-0.000654799 6.57994e-05 0)
(-0.00075396 6.93072e-05 0)
(-0.000858007 7.26035e-05 0)
(-0.000966641 7.56868e-05 0)
(-0.00107956 7.85565e-05 0)
(-0.00119646 8.12128e-05 0)
(-0.00131704 8.36557e-05 0)
(-0.001441 8.58866e-05 0)
(-0.00156803 8.79076e-05 0)
(-0.00169783 8.97202e-05 0)
(-0.00183011 9.13267e-05 0)
(-0.00196457 9.27297e-05 0)
(-0.00210092 9.39321e-05 0)
(-0.00223887 9.49372e-05 0)
(-0.00237814 9.57477e-05 0)
(-0.00251844 9.63669e-05 0)
(-0.00265952 9.67986e-05 0)
(-0.00280108 9.70463e-05 0)
(-0.00294287 9.71134e-05 0)
(-0.00308464 9.70038e-05 0)
(-0.00322612 9.67214e-05 0)
(-0.00336706 9.627e-05 0)
(-0.00350723 9.56535e-05 0)
(-0.00364639 9.4876e-05 0)
(-0.00378429 9.39415e-05 0)
(-0.00392072 9.2854e-05 0)
(-0.00405546 9.16174e-05 0)
(-0.00418829 9.0236e-05 0)
(-0.004319 8.87139e-05 0)
(-0.00444739 8.70551e-05 0)
(-0.00457327 8.52638e-05 0)
(-0.00469643 8.33442e-05 0)
(-0.0048167 8.13006e-05 0)
(-0.0049339 7.9137e-05 0)
(-0.00504786 7.68576e-05 0)
(-0.0051584 7.44668e-05 0)
(-0.00526537 7.19687e-05 0)
(-0.00536862 6.93675e-05 0)
(-0.00546799 6.66673e-05 0)
(-0.00556335 6.38724e-05 0)
(-0.00565456 6.09873e-05 0)
(-0.00574149 5.80163e-05 0)
(-0.00582401 5.49635e-05 0)
(-0.00590202 5.18335e-05 0)
(-0.0059754 4.86306e-05 0)
(-0.00604404 4.5359e-05 0)
(-0.00610786 4.20232e-05 0)
(-0.00616675 3.86276e-05 0)
(-0.00622064 3.51767e-05 0)
(-0.00626944 3.1675e-05 0)
(-0.0063131 2.8127e-05 0)
(-0.00635153 2.45374e-05 0)
(-0.00638469 2.09109e-05 0)
(-0.00641253 1.7252e-05 0)
(-0.00643499 1.35654e-05 0)
(-0.00645205 9.85578e-06 0)
(-0.00646368 6.12789e-06 0)
(-0.00646984 2.38651e-06 0)
(-0.00647053 -1.36331e-06 0)
(-0.00646574 -5.11663e-06 0)
(-0.00645547 -8.8686e-06 0)
(-0.00643971 -1.26143e-05 0)
(-0.0064185 -1.63486e-05 0)
(-0.00639183 -2.00664e-05 0)
(-0.00635976 -2.37626e-05 0)
(-0.0063223 -2.7432e-05 0)
(-0.00627951 -3.10695e-05 0)
(-0.00623143 -3.46697e-05 0)
(-0.00617813 -3.82275e-05 0)
(-0.00611967 -4.17373e-05 0)
(-0.00605612 -4.5194e-05 0)
(-0.00598757 -4.85922e-05 0)
(-0.00591411 -5.19265e-05 0)
(-0.00583583 -5.51914e-05 0)
(-0.00575284 -5.83816e-05 0)
(-0.00566526 -6.14916e-05 0)
(-0.0055732 -6.45158e-05 0)
(-0.0054768 -6.7449e-05 0)
(-0.00537619 -7.02858e-05 0)
(-0.00527152 -7.30206e-05 0)
(-0.00516295 -7.5648e-05 0)
(-0.00505062 -7.81627e-05 0)
(-0.00493472 -8.05594e-05 0)
(-0.00481542 -8.28327e-05 0)
(-0.00469289 -8.49774e-05 0)
(-0.00456735 -8.69882e-05 0)
(-0.00443897 -8.88601e-05 0)
(-0.00430798 -9.05881e-05 0)
(-0.00417457 -9.2167e-05 0)
(-0.00403899 -9.35921e-05 0)
(-0.00390144 -9.48585e-05 0)
(-0.00376217 -9.59615e-05 0)
(-0.00362142 -9.68967e-05 0)
(-0.00347943 -9.76596e-05 0)
(-0.00333646 -9.82459e-05 0)
(-0.00319277 -9.86515e-05 0)
(-0.00304863 -9.88723e-05 0)
(-0.0029043 -9.89047e-05 0)
(-0.00276006 -9.8745e-05 0)
(-0.00261619 -9.83898e-05 0)
(-0.00247299 -9.7836e-05 0)
(-0.00233072 -9.70806e-05 0)
(-0.0021897 -9.61208e-05 0)
(-0.00205022 -9.49543e-05 0)
(-0.00191258 -9.3579e-05 0)
(-0.00177707 -9.19929e-05 0)
(-0.00164401 -9.01947e-05 0)
(-0.0015137 -8.81831e-05 0)
(-0.00138645 -8.59575e-05 0)
(-0.00126256 -8.35177e-05 0)
(-0.00114233 -8.0864e-05 0)
(-0.00102609 -7.79971e-05 0)
(-0.000914117 -7.49183e-05 0)
(-0.000806722 -7.16297e-05 0)
(-0.000704196 -6.81344e-05 0)
(-0.000606827 -6.44362e-05 0)
(-0.000514895 -6.05401e-05 0)
(-0.000428672 -5.64523e-05 0)
(-0.000348416 -5.21806e-05 0)
(-0.000274373 -4.77345e-05 0)
(-0.000206769 -4.31263e-05 0)
(-0.000145811 -3.83705e-05 0)
(-9.16791e-05 -3.34853e-05 0)
(-4.4521e-05 -2.84933e-05 0)
(-4.44615e-06 -2.34225e-05 0)
(2.84842e-05 -1.83082e-05 0)
(5.42681e-05 -1.31952e-05 0)
(7.29781e-05 -8.1404e-06 0)
(8.47801e-05 -3.21792e-06 0)
(8.9958e-05 1.47539e-06 0)
(8.89459e-05 5.81075e-06 0)
(8.23708e-05 9.61449e-06 0)
(7.11087e-05 1.26499e-05 0)
(5.63516e-05 1.45962e-05 0)
(3.96573e-05 1.50298e-05 0)
(2.3009e-05 1.34119e-05 0)
(9.18265e-06 9.18557e-06 0)
(1.69609e-06 2.64518e-06 0)
(2.82667e-06 -9.09427e-06 0)
(1.34081e-05 -2.3159e-05 0)
(3.10621e-05 -3.10566e-05 0)
(5.08138e-05 -3.3111e-05 0)
(6.90662e-05 -3.0422e-05 0)
(8.32582e-05 -2.4085e-05 0)
(9.13072e-05 -1.50262e-05 0)
(9.15723e-05 -3.99155e-06 0)
(8.28222e-05 8.43823e-06 0)
(6.41633e-05 2.18153e-05 0)
(3.49747e-05 3.57953e-05 0)
(-5.14468e-06 5.01118e-05 0)
(-5.64175e-05 6.45577e-05 0)
(-0.000118924 7.8971e-05 0)
(-0.000192627 9.32243e-05 0)
(-0.000277401 0.000107216 0)
(-0.000373042 0.000120867 0)
(-0.000479285 0.000134113 0)
(-0.000595817 0.000146905 0)
(-0.000722285 0.000159201 0)
(-0.000858306 0.000170971 0)
(-0.00100347 0.00018219 0)
(-0.00115734 0.000192839 0)
(-0.00131948 0.000202904 0)
(-0.00148942 0.000212375 0)
(-0.0016667 0.000221245 0)
(-0.00185084 0.00022951 0)
(-0.00204136 0.000237168 0)
(-0.00223779 0.000244218 0)
(-0.00243964 0.000250662 0)
(-0.00264644 0.000256505 0)
(-0.00285769 0.000261749 0)
(-0.00307293 0.000266401 0)
(-0.00329168 0.000270467 0)
(-0.00351348 0.000273954 0)
(-0.00373785 0.000276871 0)
(-0.00396436 0.000279224 0)
(-0.00419254 0.000281024 0)
(-0.00442195 0.000282281 0)
(-0.00465217 0.000283003 0)
(-0.00488275 0.000283201 0)
(-0.00511327 0.000282885 0)
(-0.00534334 0.000282067 0)
(-0.00557253 0.000280757 0)
(-0.00580047 0.000278965 0)
(-0.00602675 0.000276705 0)
(-0.00625102 0.000273987 0)
(-0.00647288 0.000270822 0)
(-0.006692 0.000267222 0)
(-0.00690801 0.0002632 0)
(-0.00712059 0.000258766 0)
(-0.00732939 0.000253933 0)
(-0.0075341 0.000248714 0)
(-0.00773441 0.000243119 0)
(-0.00793001 0.000237161 0)
(-0.00812062 0.000230852 0)
(-0.00830596 0.000224205 0)
(-0.00848574 0.000217231 0)
(-0.00865972 0.000209944 0)
(-0.00882764 0.000202355 0)
(-0.00898925 0.000194476 0)
(-0.00914434 0.000186322 0)
(-0.00929267 0.000177902 0)
(-0.00943403 0.000169232 0)
(-0.00956824 0.000160322 0)
(-0.00969509 0.000151186 0)
(-0.0098144 0.000141837 0)
(-0.00992601 0.000132287 0)
(-0.0100298 0.000122549 0)
(-0.0101255 0.000112638 0)
(-0.0102131 0.000102564 0)
(-0.0102924 9.23425e-05 0)
(-0.0103634 8.19861e-05 0)
(-0.0104258 7.15081e-05 0)
(-0.0104797 6.09223e-05 0)
(-0.0105249 5.02423e-05 0)
(-0.0105614 3.94818e-05 0)
(-0.010589 2.86546e-05 0)
(-0.0106079 1.77749e-05 0)
(-0.0106178 6.85684e-06 0)
(-0.0106188 -4.08536e-06 0)
(-0.010611 -1.50374e-05 0)
(-0.0105942 -2.59846e-05 0)
(-0.0105684 -3.69125e-05 0)
(-0.0105338 -4.78062e-05 0)
(-0.0104904 -5.8651e-05 0)
(-0.0104381 -6.94316e-05 0)
(-0.0103771 -8.01331e-05 0)
(-0.0103074 -9.07403e-05 0)
(-0.0102292 -0.000101238 0)
(-0.0101424 -0.00011161 0)
(-0.0100472 -0.000121842 0)
(-0.00994383 -0.000131917 0)
(-0.00983229 -0.000141821 0)
(-0.00971276 -0.000151537 0)
(-0.00958541 -0.000161049 0)
(-0.00945041 -0.000170343 0)
(-0.00930795 -0.000179401 0)
(-0.00915822 -0.000188209 0)
(-0.00900144 -0.00019675 0)
(-0.00883783 -0.000205009 0)
(-0.00866763 -0.00021297 0)
(-0.00849109 -0.000220617 0)
(-0.00830846 -0.000227934 0)
(-0.00812003 -0.000234907 0)
(-0.00792608 -0.00024152 0)
(-0.00772692 -0.000247757 0)
(-0.00752284 -0.000253604 0)
(-0.00731418 -0.000259046 0)
(-0.00710127 -0.000264069 0)
(-0.00688446 -0.000268657 0)
(-0.00666411 -0.000272797 0)
(-0.00644058 -0.000276476 0)
(-0.00621426 -0.000279679 0)
(-0.00598553 -0.000282394 0)
(-0.00575481 -0.000284609 0)
(-0.00552249 -0.00028631 0)
(-0.005289 -0.000287486 0)
(-0.00505477 -0.000288127 0)
(-0.00482024 -0.000288222 0)
(-0.00458585 -0.000287759 0)
(-0.00435206 -0.000286731 0)
(-0.00411932 -0.000285128 0)
(-0.0038881 -0.000282941 0)
(-0.00365887 -0.000280165 0)
(-0.00343212 -0.000276792 0)
(-0.00320833 -0.000272818 0)
(-0.00298797 -0.000268236 0)
(-0.00277154 -0.000263045 0)
(-0.00255952 -0.000257241 0)
(-0.00235241 -0.000250824 0)
(-0.00215069 -0.000243794 0)
(-0.00195485 -0.000236153 0)
(-0.00176538 -0.000227905 0)
(-0.00158275 -0.000219056 0)
(-0.00140743 -0.000209613 0)
(-0.00123989 -0.000199586 0)
(-0.00108058 -0.000188991 0)
(-0.000929924 -0.000177842 0)
(-0.000788355 -0.000166162 0)
(-0.000656266 -0.000153976 0)
(-0.00053403 -0.000141316 0)
(-0.000421989 -0.000128219 0)
(-0.000320447 -0.000114733 0)
(-0.000229664 -0.000100916 0)
(-0.000149847 -8.68358e-05 0)
(-8.11345e-05 -7.25801e-05 0)
(-2.35892e-05 -5.82553e-05 0)
(2.28245e-05 -4.39939e-05 0)
(5.82598e-05 -2.99622e-05 0)
(8.30147e-05 -1.63706e-05 0)
(9.75653e-05 -3.48633e-06 0)
(0.000102606 8.34786e-06 0)
(9.91002e-05 1.86911e-05 0)
(8.83396e-05 2.69764e-05 0)
(7.20106e-05 3.24839e-05 0)
(5.22172e-05 3.43302e-05 0)
(3.1506e-05 3.14968e-05 0)
(1.34107e-05 2.30113e-05 0)
(2.77645e-06 8.77618e-06 0)
(3.20608e-06 -1.69392e-05 0)
(1.47466e-05 -3.9406e-05 0)
(3.31922e-05 -5.08232e-05 0)
(5.26778e-05 -5.25618e-05 0)
(6.90984e-05 -4.63603e-05 0)
(7.95452e-05 -3.38932e-05 0)
(8.16059e-05 -1.66204e-05 0)
(7.33305e-05 4.24578e-06 0)
(5.32124e-05 2.7725e-05 0)
(2.01257e-05 5.30345e-05 0)
(-2.67385e-05 7.95525e-05 0)
(-8.79236e-05 0.000106786 0)
(-0.000163752 0.000134342 0)
(-0.000254364 0.000161908 0)
(-0.00035975 0.000189234 0)
(-0.000479775 0.000216119 0)
(-0.000614204 0.000242402 0)
(-0.000762717 0.000267953 0)
(-0.000924924 0.000292667 0)
(-0.00110038 0.00031646 0)
(-0.0012886 0.000339266 0)
(-0.00148904 0.000361032 0)
(-0.00170116 0.000381715 0)
(-0.00192436 0.000401286 0)
(-0.00215804 0.000419718 0)
(-0.00240159 0.000436996 0)
(-0.00265438 0.000453108 0)
(-0.00291577 0.000468047 0)
(-0.00318512 0.00048181 0)
(-0.00346178 0.000494399 0)
(-0.00374511 0.000505818 0)
(-0.00403447 0.000516074 0)
(-0.00432922 0.000525176 0)
(-0.00462872 0.000533135 0)
(-0.00493234 0.000539963 0)
(-0.00523945 0.000545675 0)
(-0.00554944 0.000550286 0)
(-0.00586169 0.000553813 0)
(-0.0061756 0.000556273 0)
(-0.00649059 0.000557686 0)
(-0.00680607 0.00055807 0)
(-0.00712147 0.000557445 0)
(-0.00743622 0.000555832 0)
(-0.00774978 0.000553251 0)
(-0.00806161 0.000549725 0)
(-0.00837118 0.000545275 0)
(-0.00867798 0.000539924 0)
(-0.00898151 0.000533692 0)
(-0.00928127 0.000526605 0)
(-0.00957679 0.000518683 0)
(-0.0098676 0.000509951 0)
(-0.0101533 0.000500432 0)
(-0.0104333 0.00049015 0)
(-0.0107073 0.000479127 0)
(-0.0109749 0.000467388 0)
(-0.0112357 0.000454957 0)
(-0.0114892 0.000441858 0)
(-0.0117352 0.000428114 0)
(-0.0119732 0.000413751 0)
(-0.0122029 0.000398792 0)
(-0.012424 0.000383262 0)
(-0.0126362 0.000367187 0)
(-0.0128391 0.000350589 0)
(-0.0130324 0.000333495 0)
(-0.013216 0.000315929 0)
(-0.0133895 0.000297917 0)
(-0.0135527 0.000279483 0)
(-0.0137054 0.000260654 0)
(-0.0138472 0.000241455 0)
(-0.0139782 0.000221912 0)
(-0.014098 0.00020205 0)
(-0.0142064 0.000181896 0)
(-0.0143034 0.000161476 0)
(-0.0143887 0.000140818 0)
(-0.0144624 0.000119947 0)
(-0.0145241 9.88906e-05 0)
(-0.0145739 7.76763e-05 0)
(-0.0146117 5.63315e-05 0)
(-0.0146373 3.48838e-05 0)
(-0.0146508 1.33615e-05 0)
(-0.0146521 -8.20749e-06 0)
(-0.0146412 -2.97948e-05 0)
(-0.0146181 -5.13715e-05 0)
(-0.0145828 -7.29088e-05 0)
(-0.0145354 -9.43774e-05 0)
(-0.0144758 -0.000115748 0)
(-0.0144042 -0.000136991 0)
(-0.0143207 -0.000158077 0)
(-0.0142252 -0.000178975 0)
(-0.0141181 -0.000199655 0)
(-0.0139993 -0.000220087 0)
(-0.013869 -0.000240241 0)
(-0.0137275 -0.000260085 0)
(-0.0135748 -0.000279589 0)
(-0.0134113 -0.000298722 0)
(-0.013237 -0.000317453 0)
(-0.0130523 -0.00033575 0)
(-0.0128574 -0.000353583 0)
(-0.0126525 -0.000370921 0)
(-0.0124381 -0.000387732 0)
(-0.0122143 -0.000403986 0)
(-0.0119815 -0.000419652 0)
(-0.01174 -0.000434699 0)
(-0.0114902 -0.000449096 0)
(-0.0112325 -0.000462813 0)
(-0.0109673 -0.000475821 0)
(-0.010695 -0.000488089 0)
(-0.0104159 -0.000499588 0)
(-0.0101306 -0.00051029 0)
(-0.00983948 -0.000520165 0)
(-0.00954304 -0.000529186 0)
(-0.00924177 -0.000537326 0)
(-0.00893616 -0.000544558 0)
(-0.00862674 -0.000550855 0)
(-0.00831404 -0.000556194 0)
(-0.0079986 -0.000560548 0)
(-0.00768098 -0.000563896 0)
(-0.00736176 -0.000566213 0)
(-0.00704151 -0.000567479 0)
(-0.00672084 -0.000567674 0)
(-0.00640034 -0.000566777 0)
(-0.00608064 -0.000564772 0)
(-0.00576236 -0.000561641 0)
(-0.00544612 -0.00055737 0)
(-0.00513258 -0.000551945 0)
(-0.00482236 -0.000545355 0)
(-0.00451614 -0.00053759 0)
(-0.00421455 -0.000528641 0)
(-0.00391826 -0.000518505 0)
(-0.00362793 -0.000507176 0)
(-0.00334421 -0.000494656 0)
(-0.00306776 -0.000480946 0)
(-0.00279922 -0.000466053 0)
(-0.00253926 -0.000449985 0)
(-0.0022885 -0.000432756 0)
(-0.00204756 -0.000414385 0)
(-0.00181707 -0.000394894 0)
(-0.00159762 -0.000374313 0)
(-0.00138977 -0.000352679 0)
(-0.00119409 -0.000330036 0)
(-0.00101107 -0.00030644 0)
(-0.000841213 -0.000281955 0)
(-0.00068494 -0.000256662 0)
(-0.000542639 -0.000230658 0)
(-0.000414627 -0.000204059 0)
(-0.000301149 -0.000177007 0)
(-0.000202361 -0.000149675 0)
(-0.000118311 -0.000122273 0)
(-4.89183e-05 -9.50598e-05 0)
(6.049e-06 -6.83557e-05 0)
(4.70079e-05 -4.25564e-05 0)
(7.45953e-05 -1.8155e-05 0)
(8.97106e-05 4.23325e-06 0)
(9.35643e-05 2.38402e-05 0)
(8.77352e-05 3.97127e-05 0)
(7.42277e-05 5.06844e-05 0)
(5.54825e-05 5.53717e-05 0)
(3.44027e-05 5.22203e-05 0)
(1.50497e-05 3.96756e-05 0)
(3.21299e-06 1.667e-05 0)
(3.13245e-06 -2.49151e-05 0)
(1.40336e-05 -5.53411e-05 0)
(3.06402e-05 -6.91553e-05 0)
(4.67113e-05 -6.90206e-05 0)
(5.78641e-05 -5.74499e-05 0)
(6.0967e-05 -3.67455e-05 0)
(5.34131e-05 -8.91655e-06 0)
(3.30672e-05 2.43437e-05 0)
(-1.75086e-06 6.16352e-05 0)
(-5.23257e-05 0.000101814 0)
(-0.0001196 0.000143948 0)
(-0.000204226 0.000187285 0)
(-0.000306605 0.000231215 0)
(-0.000426932 0.00027524 0)
(-0.000565221 0.00031896 0)
(-0.000721341 0.000362047 0)
(-0.000895034 0.000404237 0)
(-0.00108594 0.000445311 0)
(-0.0012936 0.000485094 0)
(-0.00151752 0.000523444 0)
(-0.00175709 0.000560244 0)
(-0.0020117 0.000595403 0)
(-0.00228067 0.000628847 0)
(-0.0025633 0.000660518 0)
(-0.00285887 0.000690373 0)
(-0.00316662 0.000718378 0)
(-0.00348578 0.000744511 0)
(-0.00381558 0.000768757 0)
(-0.00415523 0.000791107 0)
(-0.00450394 0.000811562 0)
(-0.00486092 0.000830124 0)
(-0.00522537 0.000846801 0)
(-0.0055965 0.000861607 0)
(-0.00597353 0.000874556 0)
(-0.00635566 0.000885668 0)
(-0.00674212 0.000894963 0)
(-0.00713214 0.000902467 0)
(-0.00752497 0.000908203 0)
(-0.00791986 0.0009122 0)
(-0.00831606 0.000914487 0)
(-0.00871285 0.000915094 0)
(-0.00910951 0.000914053 0)
(-0.00950535 0.000911396 0)
(-0.00989967 0.000907158 0)
(-0.0102918 0.000901371 0)
(-0.0106811 0.000894072 0)
(-0.0110669 0.000885297 0)
(-0.0114485 0.000875081 0)
(-0.0118255 0.000863461 0)
(-0.0121971 0.000850474 0)
(-0.0125627 0.000836159 0)
(-0.0129219 0.000820553 0)
(-0.013274 0.000803695 0)
(-0.0136186 0.000785622 0)
(-0.013955 0.000766374 0)
(-0.0142829 0.00074599 0)
(-0.0146017 0.000724509 0)
(-0.0149109 0.000701971 0)
(-0.0152102 0.000678416 0)
(-0.015499 0.000653883 0)
(-0.015777 0.000628413 0)
(-0.0160437 0.000602046 0)
(-0.0162988 0.000574822 0)
(-0.0165419 0.000546784 0)
(-0.0167726 0.000517971 0)
(-0.0169907 0.000488425 0)
(-0.0171959 0.000458189 0)
(-0.0173877 0.000427302 0)
(-0.0175661 0.000395809 0)
(-0.0177306 0.000363751 0)
(-0.0178811 0.000331171 0)
(-0.0180174 0.000298112 0)
(-0.0181393 0.000264618 0)
(-0.0182465 0.000230732 0)
(-0.0183389 0.000196499 0)
(-0.0184165 0.000161963 0)
(-0.018479 0.000127168 0)
(-0.0185263 9.21604e-05 0)
(-0.0185584 5.69854e-05 0)
(-0.0185753 2.1689e-05 0)
(-0.0185768 -1.36824e-05 0)
(-0.018563 -4.90821e-05 0)
(-0.0185338 -8.44629e-05 0)
(-0.0184893 -0.000119777 0)
(-0.0184296 -0.000154977 0)
(-0.0183546 -0.000190015 0)
(-0.0182644 -0.000224841 0)
(-0.0181592 -0.000259407 0)
(-0.0180392 -0.000293663 0)
(-0.0179043 -0.000327561 0)
(-0.0177549 -0.000361049 0)
(-0.017591 -0.000394079 0)
(-0.017413 -0.000426599 0)
(-0.017221 -0.00045856 0)
(-0.0170153 -0.00048991 0)
(-0.0167961 -0.000520598 0)
(-0.0165639 -0.000550575 0)
(-0.0163188 -0.000579789 0)
(-0.0160613 -0.000608189 0)
(-0.0157916 -0.000635725 0)
(-0.0155103 -0.000662346 0)
(-0.0152176 -0.000688001 0)
(-0.0149141 -0.000712641 0)
(-0.0146001 -0.000736216 0)
(-0.0142762 -0.000758676 0)
(-0.0139429 -0.000779972 0)
(-0.0136006 -0.000800057 0)
(-0.0132499 -0.000818882 0)
(-0.0128913 -0.0008364 0)
(-0.0125254 -0.000852566 0)
(-0.0121529 -0.000867333 0)
(-0.0117743 -0.000880659 0)
(-0.0113902 -0.000892498 0)
(-0.0110014 -0.00090281 0)
(-0.0106084 -0.000911554 0)
(-0.010212 -0.00091869 0)
(-0.00981279 -0.000924181 0)
(-0.00941159 -0.00092799 0)
(-0.00900908 -0.000930083 0)
(-0.00860602 -0.000930427 0)
(-0.00820314 -0.000928991 0)
(-0.00780123 -0.000925749 0)
(-0.00740106 -0.000920673 0)
(-0.00700342 -0.000913741 0)
(-0.0066091 -0.000904931 0)
(-0.0062189 -0.000894226 0)
(-0.00583363 -0.000881612 0)
(-0.00545411 -0.000867077 0)
(-0.00508114 -0.000850615 0)
(-0.00471555 -0.000832222 0)
(-0.00435813 -0.0008119 0)
(-0.00400971 -0.000789655 0)
(-0.00367109 -0.0007655 0)
(-0.00334305 -0.000739452 0)
(-0.00302639 -0.000711537 0)
(-0.00272185 -0.000681789 0)
(-0.0024302 -0.000650248 0)
(-0.00215214 -0.000616967 0)
(-0.00188839 -0.000582011 0)
(-0.00163958 -0.000545457 0)
(-0.00140635 -0.0005074 0)
(-0.00118926 -0.000467951 0)
(-0.000988828 -0.000427248 0)
(-0.000805492 -0.000385451 0)
(-0.00063962 -0.000342758 0)
(-0.000491483 -0.000299401 0)
(-0.000361243 -0.000255664 0)
(-0.000248932 -0.000211889 0)
(-0.000154428 -0.000168489 0)
(-7.74295e-05 -0.000125969 0)
(-1.74251e-05 -8.49424e-05 0)
(2.63455e-05 -4.61616e-05 0)
(5.49299e-05 -1.05446e-05 0)
(6.9708e-05 2.07883e-05 0)
(7.24443e-05 4.64791e-05 0)
(6.53399e-05 6.49027e-05 0)
(5.10437e-05 7.41565e-05 0)
(3.26939e-05 7.20959e-05 0)
(1.46664e-05 5.64345e-05 0)
(3.20046e-06 2.48645e-05 0)
(2.77005e-06 -3.20833e-05 0)
(1.18436e-05 -6.90034e-05 0)
(2.45009e-05 -8.35384e-05 0)
(3.45864e-05 -7.96289e-05 0)
(3.76541e-05 -6.06181e-05 0)
(3.04591e-05 -2.94634e-05 0)
(1.02955e-05 1.12698e-05 0)
(-2.50649e-05 5.94042e-05 0)
(-7.73995e-05 0.000113114 0)
(-0.000148085 0.000170882 0)
(-0.000238151 0.000231454 0)
(-0.00034832 0.000293795 0)
(-0.000479051 0.000357054 0)
(-0.000630577 0.000420531 0)
(-0.000802931 0.000483651 0)
(-0.000995982 0.000545941 0)
(-0.00120946 0.000607009 0)
(-0.00144296 0.000666535 0)
(-0.00169599 0.000724256 0)
(-0.00196797 0.000779957 0)
(-0.00225825 0.00083346 0)
(-0.00256611 0.000884624 0)
(-0.00289077 0.000933333 0)
(-0.00323145 0.000979496 0)
(-0.00358728 0.00102304 0)
(-0.00395742 0.00106392 0)
(-0.00434096 0.00110208 0)
(-0.00473701 0.00113751 0)
(-0.00514464 0.00117019 0)
(-0.00556293 0.0012001 0)
(-0.00599095 0.00122726 0)
(-0.00642777 0.00125167 0)
(-0.00687245 0.00127334 0)
(-0.00732407 0.0012923 0)
(-0.0077817 0.00130857 0)
(-0.00824443 0.00132218 0)
(-0.00871135 0.00133315 0)
(-0.00918155 0.00134154 0)
(-0.00965416 0.00134737 0)
(-0.0101283 0.00135069 0)
(-0.0106031 0.00135154 0)
(-0.0110777 0.00134996 0)
(-0.0115513 0.001346 0)
(-0.012023 0.00133972 0)
(-0.0124921 0.00133116 0)
(-0.0129578 0.00132036 0)
(-0.0134193 0.00130739 0)
(-0.0138758 0.00129229 0)
(-0.0143267 0.00127513 0)
(-0.0147711 0.00125595 0)
(-0.0152085 0.0012348 0)
(-0.0156381 0.00121175 0)
(-0.0160593 0.00118685 0)
(-0.0164713 0.00116016 0)
(-0.0168738 0.00113173 0)
(-0.0172659 0.00110162 0)
(-0.0176471 0.0010699 0)
(-0.018017 0.00103661 0)
(-0.0183748 0.00100181 0)
(-0.0187202 0.000965574 0)
(-0.0190526 0.000927951 0)
(-0.0193716 0.000889002 0)
(-0.0196766 0.000848789 0)
(-0.0199673 0.00080737 0)
(-0.0202432 0.000764807 0)
(-0.020504 0.000721161 0)
(-0.0207492 0.000676494 0)
(-0.0209786 0.000630867 0)
(-0.0211918 0.000584344 0)
(-0.0213885 0.000536987 0)
(-0.0215684 0.000488859 0)
(-0.0217313 0.000440024 0)
(-0.0218769 0.000390547 0)
(-0.022005 0.000340493 0)
(-0.0221155 0.000289926 0)
(-0.0222081 0.000238913 0)
(-0.0222827 0.000187519 0)
(-0.0223392 0.000135813 0)
(-0.0223775 8.38612e-05 0)
(-0.0223975 3.17319e-05 0)
(-0.0223992 -2.05063e-05 0)
(-0.0223825 -7.27841e-05 0)
(-0.0223475 -0.000125032 0)
(-0.0222941 -0.000177179 0)
(-0.0222225 -0.000229155 0)
(-0.0221327 -0.000280889 0)
(-0.0220248 -0.000332307 0)
(-0.0218989 -0.00038334 0)
(-0.0217552 -0.000433912 0)
(-0.0215938 -0.000483952 0)
(-0.021415 -0.000533385 0)
(-0.021219 -0.000582138 0)
(-0.021006 -0.000630136 0)
(-0.0207763 -0.000677305 0)
(-0.0205302 -0.000723571 0)
(-0.0202682 -0.000768858 0)
(-0.0199904 -0.000813091 0)
(-0.0196973 -0.000856196 0)
(-0.0193893 -0.000898099 0)
(-0.0190669 -0.000938723 0)
(-0.0187305 -0.000977995 0)
(-0.0183805 -0.00101584 0)
(-0.0180176 -0.00105219 0)
(-0.0176422 -0.00108696 0)
(-0.017255 -0.00112009 0)
(-0.0168564 -0.0011515 0)
(-0.0164472 -0.00118112 0)
(-0.0160279 -0.00120889 0)
(-0.0155992 -0.00123473 0)
(-0.0151619 -0.00125857 0)
(-0.0147165 -0.00128035 0)
(-0.0142639 -0.00130001 0)
(-0.0138047 -0.00131748 0)
(-0.0133398 -0.0013327 0)
(-0.01287 -0.00134561 0)
(-0.012396 -0.00135616 0)
(-0.0119188 -0.00136428 0)
(-0.0114391 -0.00136994 0)
(-0.0109578 -0.00137307 0)
(-0.0104757 -0.00137363 0)
(-0.00999392 -0.00137157 0)
(-0.0095132 -0.00136687 0)
(-0.00903449 -0.00135947 0)
(-0.00855873 -0.00134935 0)
(-0.00808687 -0.00133648 0)
(-0.00761984 -0.00132083 0)
(-0.00715861 -0.00130239 0)
(-0.00670413 -0.00128115 0)
(-0.00625735 -0.00125708 0)
(-0.00581925 -0.0012302 0)
(-0.00539076 -0.0012005 0)
(-0.00497285 -0.001168 0)
(-0.00456644 -0.00113273 0)
(-0.00417247 -0.0010947 0)
(-0.00379185 -0.00105397 0)
(-0.00342547 -0.00101059 0)
(-0.00307419 -0.000964613 0)
(-0.00273885 -0.000916135 0)
(-0.00242025 -0.000865251 0)
(-0.00211915 -0.000812081 0)
(-0.00183625 -0.00075677 0)
(-0.00157219 -0.00069949 0)
(-0.00132756 -0.000640444 0)
(-0.00110286 -0.000579876 0)
(-0.000898476 -0.000518076 0)
(-0.000714714 -0.000455391 0)
(-0.000551737 -0.000392231 0)
(-0.000409562 -0.000329092 0)
(-0.000288035 -0.000266564 0)
(-0.000186805 -0.000205358 0)
(-0.00010529 -0.000146328 0)
(-4.26451e-05 -9.05036e-05 0)
(2.27376e-06 -3.91206e-05 0)
(3.09522e-05 6.33758e-06 0)
(4.5263e-05 4.41029e-05 0)
(4.75159e-05 7.20863e-05 0)
(4.0474e-05 8.78543e-05 0)
(2.74098e-05 8.86352e-05 0)
(1.28045e-05 7.13452e-05 0)
(2.89615e-06 3.24256e-05 0)
(2.22563e-06 -3.78033e-05 0)
(8.61434e-06 -7.88838e-05 0)
(1.56946e-05 -9.19287e-05 0)
(1.7744e-05 -8.2019e-05 0)
(1.04437e-05 -5.33035e-05 0)
(-9.46753e-06 -9.38864e-06 0)
(-4.47116e-05 4.66112e-05 0)
(-9.75395e-05 0.000112042 0)
(-0.000169761 0.000184656 0)
(-0.000262793 0.000262562 0)
(-0.000377706 0.000344178 0)
(-0.000515261 0.000428178 0)
(-0.000675946 0.00051346 0)
(-0.000860015 0.000599105 0)
(-0.00106751 0.000684348 0)
(-0.0012983 0.000768552 0)
(-0.00155208 0.000851189 0)
(-0.00182844 0.000931819 0)
(-0.00212683 0.00101008 0)
(-0.00244663 0.00108567 0)
(-0.00278709 0.00115834 0)
(-0.00314744 0.00122788 0)
(-0.00352683 0.00129414 0)
(-0.00392436 0.00135698 0)
(-0.00433908 0.0014163 0)
(-0.00477003 0.001472 0)
(-0.0052162 0.00152404 0)
(-0.00567657 0.00157238 0)
(-0.00615011 0.00161697 0)
(-0.00663578 0.00165781 0)
(-0.0071325 0.0016949 0)
(-0.00763924 0.00172824 0)
(-0.00815491 0.00175784 0)
(-0.00867848 0.00178374 0)
(-0.00920888 0.00180596 0)
(-0.00974507 0.00182454 0)
(-0.010286 0.00183952 0)
(-0.0108307 0.00185094 0)
(-0.011378 0.00185887 0)
(-0.0119271 0.00186334 0)
(-0.0124768 0.00186442 0)
(-0.0130263 0.00186218 0)
(-0.0135746 0.00185666 0)
(-0.0141207 0.00184794 0)
(-0.0146637 0.00183609 0)
(-0.0152027 0.00182116 0)
(-0.0157368 0.00180324 0)
(-0.0162651 0.0017824 0)
(-0.0167869 0.0017587 0)
(-0.0173013 0.00173223 0)
(-0.0178074 0.00170305 0)
(-0.0183045 0.00167124 0)
(-0.0187919 0.00163689 0)
(-0.0192687 0.00160006 0)
(-0.0197343 0.00156084 0)
(-0.020188 0.00151931 0)
(-0.0206292 0.00147554 0)
(-0.0210571 0.00142961 0)
(-0.0214711 0.00138161 0)
(-0.0218707 0.00133162 0)
(-0.0222553 0.00127971 0)
(-0.0226242 0.00122598 0)
(-0.0229771 0.0011705 0)
(-0.0233134 0.00111336 0)
(-0.0236326 0.00105464 0)
(-0.0239342 0.000994423 0)
(-0.0242179 0.000932801 0)
(-0.0244832 0.000869855 0)
(-0.0247298 0.000805673 0)
(-0.0249573 0.00074034 0)
(-0.0251653 0.000673946 0)
(-0.0253537 0.000606577 0)
(-0.025522 0.000538324 0)
(-0.0256701 0.000469275 0)
(-0.0257978 0.00039952 0)
(-0.0259048 0.000329152 0)
(-0.0259909 0.000258261 0)
(-0.0260562 0.000186941 0)
(-0.0261003 0.000115284 0)
(-0.0261233 4.33846e-05 0)
(-0.0261251 -2.86622e-05 0)
(-0.0261057 -0.000100761 0)
(-0.0260651 -0.000172816 0)
(-0.0260032 -0.000244729 0)
(-0.0259202 -0.000316403 0)
(-0.0258162 -0.000387739 0)