/*--------------------------------*- C++ -*----------------------------------*\
  =========                 |
  \\      /  F ield         | OpenFOAM: The Open Source CFD Toolbox
   \\    /   O peration     | Website:  https://openfoam.org
    \\  /    A nd           | Version:  7
     \\/     M anipulation  |
\*---------------------------------------------------------------------------*/
FoamFile
{
    version     2.0;
    format      ascii;
    class       volVectorField;
    location    "0.1375";
    object      U;
}
// * * * * * * * * * * * * * * * * * * * * * * * * * * * * * * * * * * * * * //

dimensions      [0 1 -1 0 0 0 0];

internalField   nonuniform List<vector> 
25600
(
(1.04164e-06 -8.94925e-07 0)
(3.36432e-06 -1.4001e-06 0)
(5.69591e-06 -1.1375e-06 0)
(6.33225e-06 -4.39706e-07 0)
(4.66619e-06 4.08875e-07 0)
(4.9425e-07 1.26379e-06 0)
(-6.1062e-06 2.04876e-06 0)
(-1.49729e-05 2.74334e-06 0)
(-2.59024e-05 3.35208e-06 0)
(-3.86696e-05 3.88096e-06 0)
(-5.30462e-05 4.33546e-06 0)
(-6.88158e-05 4.72377e-06 0)
(-8.57776e-05 5.05163e-06 0)
(-0.000103743 5.3197e-06 0)
(-0.000122538 5.53099e-06 0)
(-0.00014201 5.69573e-06 0)
(-0.000162027 5.82637e-06 0)
(-0.000182471 5.92992e-06 0)
(-0.00020324 6.00695e-06 0)
(-0.000224244 6.05662e-06 0)
(-0.000245408 6.08184e-06 0)
(-0.000266668 6.09016e-06 0)
(-0.000287972 6.08925e-06 0)
(-0.000309278 6.0819e-06 0)
(-0.000330549 6.06614e-06 0)
(-0.000351754 6.03982e-06 0)
(-0.000372868 6.00449e-06 0)
(-0.000393871 5.96494e-06 0)
(-0.000414749 5.92527e-06 0)
(-0.000435488 5.88564e-06 0)
(-0.000456076 5.84311e-06 0)
(-0.000476504 5.79549e-06 0)
(-0.000496762 5.74389e-06 0)
(-0.000516844 5.6916e-06 0)
(-0.000536745 5.64071e-06 0)
(-0.000556457 5.59015e-06 0)
(-0.000575974 5.53703e-06 0)
(-0.000595291 5.47988e-06 0)
(-0.0006144 5.42002e-06 0)
(-0.000633297 5.35989e-06 0)
(-0.000651976 5.30035e-06 0)
(-0.00067043 5.23986e-06 0)
(-0.000688653 5.17625e-06 0)
(-0.000706637 5.10893e-06 0)
(-0.000724377 5.03934e-06 0)
(-0.000741865 4.96922e-06 0)
(-0.000759096 4.89868e-06 0)
(-0.000776061 4.8262e-06 0)
(-0.000792753 4.75027e-06 0)
(-0.000809165 4.67088e-06 0)
(-0.000825288 4.58935e-06 0)
(-0.000841116 4.50684e-06 0)
(-0.000856641 4.42318e-06 0)
(-0.000871855 4.33715e-06 0)
(-0.00088675 4.24771e-06 0)
(-0.000901318 4.155e-06 0)
(-0.000915551 4.06004e-06 0)
(-0.00092944 3.96358e-06 0)
(-0.000942978 3.86545e-06 0)
(-0.000956157 3.76481e-06 0)
(-0.000968968 3.66103e-06 0)
(-0.000981403 3.55421e-06 0)
(-0.000993453 3.44497e-06 0)
(-0.00100511 3.33376e-06 0)
(-0.00101637 3.22049e-06 0)
(-0.00102721 3.10469e-06 0)
(-0.00103764 2.98601e-06 0)
(-0.00104764 2.86451e-06 0)
(-0.00105721 2.74048e-06 0)
(-0.00106633 2.61416e-06 0)
(-0.001075 2.48552e-06 0)
(-0.00108322 2.35442e-06 0)
(-0.00109096 2.22077e-06 0)
(-0.00109823 2.08452e-06 0)
(-0.00110501 1.94567e-06 0)
(-0.0011113 1.80431e-06 0)
(-0.00111709 1.66063e-06 0)
(-0.00112237 1.51479e-06 0)
(-0.00112714 1.36677e-06 0)
(-0.00113138 1.21632e-06 0)
(-0.00113509 1.06328e-06 0)
(-0.00113826 9.07775e-07 0)
(-0.00114089 7.50189e-07 0)
(-0.00114296 5.90792e-07 0)
(-0.00114448 4.29503e-07 0)
(-0.00114542 2.66015e-07 0)
(-0.0011458 1.00203e-07 0)
(-0.00114559 -6.76592e-08 0)
(-0.0011448 -2.37139e-07 0)
(-0.00114342 -4.07997e-07 0)
(-0.00114145 -5.8037e-07 0)
(-0.00113887 -7.54544e-07 0)
(-0.00113569 -9.30549e-07 0)
(-0.0011319 -1.10804e-06 0)
(-0.00112749 -1.28655e-06 0)
(-0.00112247 -1.4659e-06 0)
(-0.00111683 -1.64622e-06 0)
(-0.00111056 -1.82771e-06 0)
(-0.00110366 -2.01031e-06 0)
(-0.00109614 -2.19361e-06 0)
(-0.00108799 -2.37721e-06 0)
(-0.0010792 -2.56096e-06 0)
(-0.00106978 -2.74496e-06 0)
(-0.00105974 -2.9293e-06 0)
(-0.00104905 -3.11381e-06 0)
(-0.00103774 -3.29815e-06 0)
(-0.0010258 -3.48195e-06 0)
(-0.00101323 -3.66504e-06 0)
(-0.00100003 -3.84744e-06 0)
(-0.00098621 -4.02917e-06 0)
(-0.00097177 -4.21007e-06 0)
(-0.000956715 -4.38985e-06 0)
(-0.000941049 -4.56819e-06 0)
(-0.000924777 -4.74489e-06 0)
(-0.000907905 -4.91986e-06 0)
(-0.000890439 -5.09306e-06 0)
(-0.000872385 -5.2644e-06 0)
(-0.000853753 -5.43365e-06 0)
(-0.000834548 -5.60054e-06 0)
(-0.00081478 -5.7648e-06 0)
(-0.000794459 -5.92626e-06 0)
(-0.000773594 -6.0848e-06 0)
(-0.000752196 -6.24031e-06 0)
(-0.000730276 -6.39258e-06 0)
(-0.000707847 -6.54129e-06 0)
(-0.000684922 -6.68606e-06 0)
(-0.000661516 -6.82649e-06 0)
(-0.000637645 -6.96227e-06 0)
(-0.000613325 -7.09308e-06 0)
(-0.000588577 -7.21843e-06 0)
(-0.000563422 -7.33754e-06 0)
(-0.000537884 -7.44946e-06 0)
(-0.00051199 -7.55318e-06 0)
(-0.000485773 -7.64767e-06 0)
(-0.000459266 -7.73169e-06 0)
(-0.000432511 -7.80367e-06 0)
(-0.000405555 -7.8616e-06 0)
(-0.000378451 -7.9031e-06 0)
(-0.000351261 -7.92561e-06 0)
(-0.000324055 -7.92634e-06 0)
(-0.000296916 -7.9021e-06 0)
(-0.000269935 -7.84909e-06 0)
(-0.000243219 -7.76296e-06 0)
(-0.000216887 -7.63894e-06 0)
(-0.000191074 -7.47199e-06 0)
(-0.000165932 -7.25664e-06 0)
(-0.000141629 -6.98679e-06 0)
(-0.000118353 -6.65569e-06 0)
(-9.63098e-05 -6.25607e-06 0)
(-7.57254e-05 -5.78026e-06 0)
(-5.68434e-05 -5.22026e-06 0)
(-3.99242e-05 -4.56813e-06 0)
(-2.52409e-05 -3.81672e-06 0)
(-1.3071e-05 -2.96091e-06 0)
(-3.67777e-06 -2.00195e-06 0)
(2.70702e-06 -9.59095e-07 0)
(5.95152e-06 1.22299e-07 0)
(6.14421e-06 1.10973e-06 0)
(3.97117e-06 1.69717e-06 0)
(1.21992e-06 1.21977e-06 0)
(1.60022e-06 -3.41244e-06 0)
(4.57844e-06 -4.36146e-06 0)
(5.80611e-06 -2.17315e-06 0)
(2.81325e-06 1.69869e-06 0)
(-5.70954e-06 6.25846e-06 0)
(-2.02408e-05 1.09589e-05 0)
(-4.07695e-05 1.54821e-05 0)
(-6.70432e-05 1.96674e-05 0)
(-9.86588e-05 2.34506e-05 0)
(-0.000135123 2.68127e-05 0)
(-0.000175907 2.97546e-05 0)
(-0.000220485 3.22934e-05 0)
(-0.000268348 3.44565e-05 0)
(-0.000319011 3.6273e-05 0)
(-0.000372027 3.77719e-05 0)
(-0.000426991 3.89859e-05 0)
(-0.00048354 3.99515e-05 0)
(-0.000541353 4.07033e-05 0)
(-0.000600142 4.127e-05 0)
(-0.000659659 4.1675e-05 0)
(-0.00071969 4.19395e-05 0)
(-0.000780054 4.20857e-05 0)
(-0.000840597 4.21361e-05 0)
(-0.00090119 4.21093e-05 0)
(-0.000961723 4.20181e-05 0)
(-0.0010221 4.18712e-05 0)
(-0.00108226 4.16767e-05 0)
(-0.00114212 4.14439e-05 0)
(-0.00120164 4.11821e-05 0)
(-0.00126078 4.08976e-05 0)
(-0.00131949 4.0593e-05 0)
(-0.00137775 4.0269e-05 0)
(-0.00143554 3.9927e-05 0)
(-0.00149281 3.95701e-05 0)
(-0.00154956 3.92013e-05 0)
(-0.00160576 3.88219e-05 0)
(-0.0016614 3.84307e-05 0)
(-0.00171645 3.80261e-05 0)
(-0.0017709 3.76081e-05 0)
(-0.00182472 3.71778e-05 0)
(-0.00187791 3.67366e-05 0)
(-0.00193043 3.62839e-05 0)
(-0.00198228 3.58183e-05 0)
(-0.00203343 3.53382e-05 0)
(-0.00208386 3.48436e-05 0)
(-0.00213356 3.43356e-05 0)
(-0.00218249 3.38147e-05 0)
(-0.00223065 3.32802e-05 0)
(-0.00227802 3.27307e-05 0)
(-0.00232456 3.21654e-05 0)
(-0.00237026 3.15845e-05 0)
(-0.0024151 3.09888e-05 0)
(-0.00245905 3.03786e-05 0)
(-0.0025021 2.97533e-05 0)
(-0.00254422 2.91119e-05 0)
(-0.00258538 2.84539e-05 0)
(-0.00262557 2.77797e-05 0)
(-0.00266477 2.70896e-05 0)
(-0.00270295 2.63839e-05 0)
(-0.00274008 2.56622e-05 0)
(-0.00277615 2.4924e-05 0)
(-0.00281113 2.41691e-05 0)
(-0.002845 2.33975e-05 0)
(-0.00287773 2.26095e-05 0)
(-0.0029093 2.18053e-05 0)
(-0.0029397 2.09846e-05 0)
(-0.00296889 2.01474e-05 0)
(-0.00299685 1.92935e-05 0)
(-0.00302356 1.8423e-05 0)
(-0.003049 1.75361e-05 0)
(-0.00307314 1.66329e-05 0)
(-0.00309596 1.57136e-05 0)
(-0.00311745 1.47781e-05 0)
(-0.00313756 1.38266e-05 0)
(-0.0031563 1.28592e-05 0)
(-0.00317362 1.1876e-05 0)
(-0.00318952 1.08772e-05 0)
(-0.00320396 9.86327e-06 0)
(-0.00321694 8.83441e-06 0)
(-0.00322842 7.79079e-06 0)
(-0.00323839 6.73245e-06 0)
(-0.00324683 5.65964e-06 0)
(-0.00325372 4.57286e-06 0)
(-0.00325904 3.47273e-06 0)
(-0.00326277 2.35975e-06 0)
(-0.0032649 1.23413e-06 0)
(-0.0032654 9.60775e-08 0)
(-0.00326427 -1.05393e-06 0)
(-0.00326148 -2.21519e-06 0)
(-0.00325703 -3.38694e-06 0)
(-0.00325089 -4.56858e-06 0)
(-0.00324305 -5.75974e-06 0)
(-0.00323351 -6.96001e-06 0)
(-0.00322225 -8.16872e-06 0)
(-0.00320926 -9.38492e-06 0)
(-0.00319453 -1.06077e-05 0)
(-0.00317805 -1.18363e-05 0)
(-0.00315982 -1.30701e-05 0)
(-0.00313983 -1.43085e-05 0)
(-0.00311807 -1.55506e-05 0)
(-0.00309455 -1.67954e-05 0)
(-0.00306925 -1.80417e-05 0)
(-0.00304218 -1.92887e-05 0)
(-0.00301334 -2.05357e-05 0)
(-0.00298273 -2.17816e-05 0)
(-0.00295035 -2.30255e-05 0)
(-0.00291621 -2.42662e-05 0)
(-0.00288031 -2.55025e-05 0)
(-0.00284266 -2.67335e-05 0)
(-0.00280327 -2.79582e-05 0)
(-0.00276215 -2.91756e-05 0)
(-0.00271931 -3.03846e-05 0)
(-0.00267477 -3.1584e-05 0)
(-0.00262853 -3.27725e-05 0)
(-0.00258062 -3.39492e-05 0)
(-0.00253105 -3.51129e-05 0)
(-0.00247984 -3.62625e-05 0)
(-0.00242702 -3.73969e-05 0)
(-0.00237261 -3.85148e-05 0)
(-0.00231663 -3.9615e-05 0)
(-0.00225911 -4.0696e-05 0)
(-0.00220008 -4.17565e-05 0)
(-0.00213957 -4.27949e-05 0)
(-0.00207761 -4.38097e-05 0)
(-0.00201423 -4.47989e-05 0)
(-0.00194949 -4.57604e-05 0)
(-0.00188341 -4.66916e-05 0)
(-0.00181605 -4.75896e-05 0)
(-0.00174745 -4.84509e-05 0)
(-0.00167768 -4.92716e-05 0)
(-0.00160679 -5.00468e-05 0)
(-0.00153486 -5.07706e-05 0)
(-0.00146197 -5.14361e-05 0)
(-0.00138821 -5.20351e-05 0)
(-0.00131368 -5.25582e-05 0)
(-0.0012385 -5.29944e-05 0)
(-0.0011628 -5.33309e-05 0)
(-0.00108674 -5.35527e-05 0)
(-0.0010105 -5.36429e-05 0)
(-0.000934282 -5.35825e-05 0)
(-0.000858308 -5.33502e-05 0)
(-0.000782842 -5.29221e-05 0)
(-0.000708179 -5.2272e-05 0)
(-0.000634651 -5.13711e-05 0)
(-0.000562629 -5.01886e-05 0)
(-0.000492525 -4.86916e-05 0)
(-0.000424795 -4.6846e-05 0)
(-0.000359938 -4.46163e-05 0)
(-0.000298496 -4.19669e-05 0)
(-0.00024105 -3.88634e-05 0)
(-0.000188214 -3.52749e-05 0)
(-0.000140628 -3.11777e-05 0)
(-9.89332e-05 -2.65615e-05 0)
(-6.37452e-05 -2.14413e-05 0)
(-3.56041e-05 -1.58788e-05 0)
(-1.48975e-05 -1.00261e-05 0)
(-1.72973e-06 -4.18487e-06 0)
(4.28498e-06 1.03718e-06 0)
(4.48549e-06 4.49255e-06 0)
(1.69373e-06 3.96209e-06 0)
(1.18759e-06 -5.75662e-06 0)
(2.22752e-06 -5.69436e-06 0)
(-8.18399e-07 8.72241e-07 0)
(-1.05126e-05 1.09488e-05 0)
(-2.82798e-05 2.26522e-05 0)
(-5.47337e-05 3.48109e-05 0)
(-8.99248e-05 4.669e-05 0)
(-0.000133561 5.78617e-05 0)
(-0.000185129 6.81022e-05 0)
(-0.000243975 7.7307e-05 0)
(-0.000309375 8.54436e-05 0)
(-0.00038058 9.25301e-05 0)
(-0.000456859 9.86178e-05 0)
(-0.000537504 0.000103774 0)
(-0.000621852 0.000108076 0)
(-0.000709289 0.000111602 0)
(-0.000799262 0.000114437 0)
(-0.000891275 0.000116663 0)
(-0.000984889 0.000118359 0)
(-0.00107971 0.000119596 0)
(-0.00117541 0.000120437 0)
(-0.00127169 0.00012094 0)
(-0.0013683 0.000121158 0)
(-0.00146504 0.000121139 0)
(-0.00156172 0.000120922 0)
(-0.0016582 0.000120541 0)
(-0.00175434 0.000120021 0)
(-0.00185004 0.000119386 0)
(-0.00194522 0.000118656 0)
(-0.00203979 0.000117847 0)
(-0.0021337 0.000116972 0)
(-0.00222689 0.000116039 0)
(-0.0023193 0.000115055 0)
(-0.00241091 0.000114023 0)
(-0.00250166 0.00011295 0)
(-0.00259153 0.000111838 0)
(-0.00268048 0.000110689 0)
(-0.00276848 0.000109502 0)
(-0.0028555 0.000108278 0)
(-0.0029415 0.000107017 0)
(-0.00302646 0.000105719 0)
(-0.00311034 0.000104384 0)
(-0.00319311 0.000103012 0)
(-0.00327475 0.000101601 0)
(-0.00335521 0.000100149 0)
(-0.00343447 9.86573e-05 0)
(-0.0035125 9.7125e-05 0)
(-0.00358926 9.55519e-05 0)
(-0.00366472 9.3937e-05 0)
(-0.00373884 9.22792e-05 0)
(-0.00381159 9.05778e-05 0)
(-0.00388294 8.88326e-05 0)
(-0.00395285 8.70438e-05 0)
(-0.00402128 8.52111e-05 0)
(-0.00408821 8.33336e-05 0)
(-0.00415359 8.14108e-05 0)
(-0.00421739 7.94424e-05 0)
(-0.00427958 7.74283e-05 0)
(-0.00434011 7.53687e-05 0)
(-0.00439896 7.32632e-05 0)
(-0.00445608 7.11116e-05 0)
(-0.00451145 6.89135e-05 0)
(-0.00456501 6.6669e-05 0)
(-0.00461675 6.43781e-05 0)
(-0.00466661 6.20409e-05 0)
(-0.00471457 5.96572e-05 0)
(-0.0047606 5.72272e-05 0)
(-0.00480464 5.47509e-05 0)
(-0.00484667 5.22286e-05 0)
(-0.00488666 4.96604e-05 0)
(-0.00492456 4.70466e-05 0)
(-0.00496035 4.43875e-05 0)
(-0.00499398 4.16834e-05 0)
(-0.00502542 3.8935e-05 0)
(-0.00505465 3.61425e-05 0)
(-0.00508162 3.33065e-05 0)
(-0.0051063 3.04274e-05 0)
(-0.00512866 2.75059e-05 0)
(-0.00514868 2.45429e-05 0)
(-0.0051663 2.15392e-05 0)
(-0.00518152 1.84954e-05 0)
(-0.00519429 1.54125e-05 0)
(-0.00520458 1.22913e-05 0)
(-0.00521238 9.13303e-06 0)
(-0.00521764 5.93909e-06 0)
(-0.00522035 2.71072e-06 0)
(-0.00522048 -5.50914e-07 0)
(-0.005218 -3.84459e-06 0)
(-0.0052129 -7.16883e-06 0)
(-0.00520514 -1.0522e-05 0)
(-0.00519472 -1.39022e-05 0)
(-0.0051816 -1.73079e-05 0)
(-0.00516577 -2.07374e-05 0)
(-0.00514722 -2.41888e-05 0)
(-0.00512593 -2.76601e-05 0)
(-0.00510188 -3.11492e-05 0)
(-0.00507507 -3.46537e-05 0)
(-0.00504548 -3.81716e-05 0)
(-0.0050131 -4.17005e-05 0)
(-0.00497794 -4.52383e-05 0)
(-0.00493998 -4.87822e-05 0)
(-0.00489922 -5.23297e-05 0)
(-0.00485567 -5.58782e-05 0)
(-0.00480931 -5.9425e-05 0)
(-0.00476017 -6.29673e-05 0)
(-0.00470823 -6.65025e-05 0)
(-0.00465351 -7.00275e-05 0)
(-0.00459603 -7.35394e-05 0)
(-0.00453579 -7.70353e-05 0)
(-0.0044728 -8.05122e-05 0)
(-0.00440709 -8.39671e-05 0)
(-0.00433867 -8.73969e-05 0)
(-0.00426756 -9.07986e-05 0)
(-0.0041938 -9.41689e-05 0)
(-0.0041174 -9.75046e-05 0)
(-0.0040384 -0.000100803 0)
(-0.00395683 -0.00010406 0)
(-0.00387271 -0.000107272 0)
(-0.0037861 -0.000110437 0)
(-0.00369702 -0.00011355 0)
(-0.00360553 -0.000116608 0)
(-0.00351167 -0.000119606 0)
(-0.00341548 -0.000122541 0)
(-0.00331703 -0.000125406 0)
(-0.00321636 -0.000128196 0)
(-0.00311355 -0.000130906 0)
(-0.00300866 -0.000133526 0)
(-0.00290177 -0.00013605 0)
(-0.00279295 -0.000138466 0)
(-0.00268231 -0.000140763 0)
(-0.00256994 -0.000142926 0)
(-0.00245597 -0.000144938 0)
(-0.00234051 -0.000146779 0)
(-0.00222372 -0.000148426 0)
(-0.00210576 -0.000149852 0)
(-0.00198683 -0.000151025 0)
(-0.00186714 -0.000151908 0)
(-0.00174693 -0.000152461 0)
(-0.0016265 -0.000152635 0)
(-0.00150615 -0.000152378 0)
(-0.00138626 -0.000151631 0)
(-0.00126722 -0.000150328 0)
(-0.00114951 -0.000148399 0)
(-0.00103363 -0.000145766 0)
(-0.000920158 -0.000142348 0)
(-0.000809723 -0.000138059 0)
(-0.000703017 -0.000132812 0)
(-0.000600792 -0.00012652 0)
(-0.000503854 -0.000119099 0)
(-0.000413057 -0.000110473 0)
(-0.00032929 -0.000100583 0)
(-0.000253456 -8.93988e-05 0)
(-0.000186442 -7.69344e-05 0)
(-0.000129071 -6.32826e-05 0)
(-8.20283e-05 -4.86626e-05 0)
(-4.57644e-05 -3.35057e-05 0)
(-2.03404e-05 -1.85883e-05 0)
(-5.21695e-06 -5.24628e-06 0)
(1.04663e-06 4.29805e-06 0)
(1.10818e-06 6.12692e-06 0)
(4.56108e-07 -6.47853e-06 0)
(-1.6901e-06 -2.76161e-06 0)
(-1.09533e-05 1.05559e-05 0)
(-2.92777e-05 2.92361e-05 0)
(-5.78739e-05 5.05377e-05 0)
(-9.73451e-05 7.26417e-05 0)
(-0.00014774 9.43518e-05 0)
(-0.000208716 0.000114921 0)
(-0.000279678 0.000133916 0)
(-0.000359869 0.000151111 0)
(-0.000448426 0.000166417 0)
(-0.000544447 0.000179834 0)
(-0.000647031 0.000191427 0)
(-0.000755307 0.000201306 0)
(-0.000868447 0.000209599 0)
(-0.000985676 0.000216446 0)
(-0.00110628 0.000221991 0)
(-0.00122963 0.000226378 0)
(-0.00135514 0.000229748 0)
(-0.00148231 0.000232235 0)
(-0.00161069 0.000233958 0)
(-0.00173991 0.000235025 0)
(-0.00186961 0.000235535 0)
(-0.00199953 0.000235572 0)
(-0.0021294 0.000235215 0)
(-0.00225904 0.000234527 0)
(-0.00238827 0.000233563 0)
(-0.00251692 0.000232368 0)
(-0.00264489 0.000230977 0)
(-0.00277206 0.000229421 0)
(-0.00289835 0.000227726 0)
(-0.00302366 0.000225911 0)
(-0.00314795 0.00022399 0)
(-0.00327113 0.000221974 0)
(-0.00339316 0.000219869 0)
(-0.00351399 0.000217682 0)
(-0.00363356 0.000215417 0)
(-0.00375184 0.000213077 0)
(-0.00386878 0.000210663 0)
(-0.00398432 0.000208175 0)
(-0.00409844 0.000205612 0)
(-0.00421108 0.000202974 0)
(-0.00432221 0.000200261 0)
(-0.00443178 0.000197472 0)
(-0.00453975 0.000194606 0)
(-0.00464608 0.00019166 0)
(-0.00475071 0.000188634 0)
(-0.0048536 0.000185528 0)
(-0.00495472 0.00018234 0)
(-0.00505401 0.000179069 0)
(-0.00515143 0.000175715 0)
(-0.00524693 0.000172277 0)
(-0.00534047 0.000168752 0)
(-0.005432 0.000165142 0)
(-0.00552147 0.000161446 0)
(-0.00560884 0.000157664 0)
(-0.00569406 0.000153794 0)
(-0.00577707 0.000149835 0)
(-0.00585784 0.000145789 0)
(-0.00593632 0.000141654 0)
(-0.00601245 0.000137431 0)
(-0.00608619 0.00013312 0)
(-0.0061575 0.000128719 0)
(-0.00622632 0.00012423 0)
(-0.00629261 0.000119652 0)
(-0.00635632 0.000114985 0)
(-0.00641741 0.00011023 0)
(-0.00647581 0.000105387 0)
(-0.0065315 0.000100456 0)
(-0.00658443 9.5438e-05 0)
(-0.00663454 9.03333e-05 0)
(-0.00668179 8.51427e-05 0)
(-0.00672614 7.98668e-05 0)
(-0.00676754 7.45065e-05 0)
(-0.00680595 6.9063e-05 0)
(-0.00684132 6.35372e-05 0)
(-0.00687361 5.79302e-05 0)
(-0.00690279 5.22433e-05 0)
(-0.0069288 4.64778e-05 0)
(-0.00695161 4.06354e-05 0)
(-0.00697118 3.47179e-05 0)
(-0.00698746 2.87271e-05 0)
(-0.00700044 2.26648e-05 0)
(-0.00701005 1.65331e-05 0)
(-0.00701628 1.03343e-05 0)
(-0.00701909 4.07098e-06 0)
(-0.00701844 -2.25428e-06 0)
(-0.0070143 -8.63883e-06 0)
(-0.00700665 -1.508e-05 0)
(-0.00699546 -2.15749e-05 0)
(-0.0069807 -2.81201e-05 0)
(-0.00696234 -3.47123e-05 0)
(-0.00694037 -4.1348e-05 0)
(-0.00691476 -4.80235e-05 0)
(-0.0068855 -5.47351e-05 0)
(-0.00685257 -6.1479e-05 0)
(-0.00681595 -6.82508e-05 0)
(-0.00677563 -7.50462e-05 0)
(-0.00673161 -8.18607e-05 0)
(-0.00668387 -8.86899e-05 0)
(-0.00663241 -9.55291e-05 0)
(-0.00657723 -0.000102373 0)
(-0.00651833 -0.000109218 0)
(-0.00645571 -0.000116057 0)
(-0.00638938 -0.000122886 0)
(-0.00631935 -0.000129699 0)
(-0.00624563 -0.00013649 0)
(-0.00616823 -0.000143256 0)
(-0.00608717 -0.000149988 0)
(-0.00600247 -0.000156683 0)
(-0.00591416 -0.000163334 0)
(-0.00582226 -0.000169935 0)
(-0.0057268 -0.00017648 0)
(-0.00562782 -0.000182964 0)
(-0.00552535 -0.00018938 0)
(-0.00541943 -0.000195721 0)
(-0.00531011 -0.000201983 0)
(-0.00519742 -0.000208157 0)
(-0.00508143 -0.000214238 0)
(-0.00496219 -0.000220217 0)
(-0.00483975 -0.000226089 0)
(-0.00471417 -0.000231843 0)
(-0.00458553 -0.000237473 0)
(-0.0044539 -0.000242966 0)
(-0.00431935 -0.000248313 0)
(-0.00418198 -0.000253501 0)
(-0.00404187 -0.000258515 0)
(-0.00389913 -0.000263337 0)
(-0.00375387 -0.000267947 0)
(-0.00360621 -0.000272322 0)
(-0.0034563 -0.000276433 0)
(-0.0033043 -0.000280248 0)
(-0.00315037 -0.000283727 0)
(-0.00299472 -0.000286826 0)
(-0.00283757 -0.000289491 0)
(-0.00267918 -0.000291662 0)
(-0.00251984 -0.00029327 0)
(-0.00235988 -0.000294234 0)
(-0.00219968 -0.000294467 0)
(-0.00203965 -0.000293867 0)
(-0.00188028 -0.000292323 0)
(-0.0017221 -0.000289715 0)
(-0.00156572 -0.000285911 0)
(-0.0014118 -0.00028077 0)
(-0.00126108 -0.000274144 0)
(-0.00111438 -0.00026588 0)
(-0.00097257 -0.000255825 0)
(-0.000836606 -0.000243829 0)
(-0.000707496 -0.000229753 0)
(-0.000586299 -0.000213479 0)
(-0.000474104 -0.000194928 0)
(-0.000372 -0.000174079 0)
(-0.000281038 -0.000151002 0)
(-0.000202177 -0.00012591 0)
(-0.000136202 -9.92379e-05 0)
(-8.36244e-05 -7.17599e-05 0)
(-4.45357e-05 -4.47725e-05 0)
(-1.84193e-05 -2.03412e-05 0)
(-4.1212e-06 -1.66945e-06 0)
(1.28653e-07 5.93926e-06 0)
(-4.03494e-07 -4.78871e-06 0)
(-6.28888e-06 5.78577e-06 0)
(-2.27666e-05 2.83711e-05 0)
(-5.07788e-05 5.78576e-05 0)
(-9.11196e-05 9.0802e-05 0)
(-0.000144241 0.000124805 0)
(-0.000210099 0.000158234 0)
(-0.000288269 0.000190023 0)
(-0.000378075 0.000219513 0)
(-0.000478669 0.000246341 0)
(-0.000589092 0.000270342 0)
(-0.000708331 0.000291489 0)
(-0.000835362 0.000309855 0)
(-0.000969182 0.000325577 0)
(-0.00110884 0.000338838 0)
(-0.00125343 0.000349844 0)
(-0.00140213 0.00035881 0)
(-0.00155418 0.00036595 0)
(-0.00170889 0.000371475 0)
(-0.00186566 0.000375584 0)
(-0.00202396 0.000378467 0)
(-0.00218331 0.000380294 0)
(-0.00234331 0.000381218 0)
(-0.0025036 0.000381373 0)
(-0.00266388 0.000380877 0)
(-0.0028239 0.000379833 0)
(-0.00298343 0.000378329 0)
(-0.00314229 0.000376439 0)
(-0.00330032 0.000374222 0)
(-0.00345737 0.000371728 0)
(-0.00361334 0.000368994 0)
(-0.00376811 0.000366054 0)
(-0.00392161 0.000362933 0)
(-0.00407374 0.000359649 0)
(-0.00422444 0.000356217 0)
(-0.00437363 0.000352644 0)
(-0.00452126 0.000348938 0)
(-0.00466726 0.000345105 0)
(-0.00481158 0.000341147 0)
(-0.00495417 0.000337067 0)
(-0.00509496 0.000332863 0)
(-0.0052339 0.000328535 0)
(-0.00537094 0.000324082 0)
(-0.00550602 0.000319504 0)
(-0.00563909 0.0003148 0)
(-0.0057701 0.000309967 0)
(-0.00589899 0.000305005 0)
(-0.0060257 0.000299911 0)
(-0.00615017 0.000294684 0)
(-0.00627236 0.000289323 0)
(-0.00639221 0.000283828 0)
(-0.00650965 0.000278196 0)
(-0.00662464 0.000272428 0)
(-0.00673711 0.00026652 0)
(-0.00684701 0.000260474 0)
(-0.00695427 0.000254288 0)
(-0.00705885 0.000247962 0)
(-0.00716069 0.000241495 0)
(-0.00725972 0.000234888 0)
(-0.00735589 0.000228138 0)
(-0.00744913 0.000221247 0)
(-0.00753941 0.000214215 0)
(-0.00762664 0.00020704 0)
(-0.00771079 0.000199724 0)
(-0.00779178 0.000192267 0)
(-0.00786957 0.000184668 0)
(-0.0079441 0.000176929 0)
(-0.0080153 0.00016905 0)
(-0.00808313 0.000161032 0)
(-0.00814753 0.000152875 0)
(-0.00820844 0.000144581 0)
(-0.00826581 0.000136151 0)
(-0.00831958 0.000127586 0)
(-0.0083697 0.000118888 0)
(-0.00841612 0.000110057 0)
(-0.00845879 0.000101097 0)
(-0.00849766 9.20091e-05 0)
(-0.00853266 8.27952e-05 0)
(-0.00856377 7.34577e-05 0)
(-0.00859092 6.39992e-05 0)
(-0.00861408 5.44226e-05 0)
(-0.00863319 4.4731e-05 0)
(-0.00864822 3.49276e-05 0)
(-0.00865911 2.50159e-05 0)
(-0.00866584 1.49993e-05 0)
(-0.00866835 4.88169e-06 0)
(-0.00866661 -5.33259e-06 0)
(-0.00866059 -1.56391e-05 0)
(-0.00865025 -2.60333e-05 0)
(-0.00863556 -3.65103e-05 0)
(-0.00861648 -4.70653e-05 0)
(-0.008593 -5.76928e-05 0)
(-0.00856508 -6.83872e-05 0)
(-0.0085327 -7.91424e-05 0)
(-0.00849584 -8.99524e-05 0)
(-0.00845449 -0.000100811 0)
(-0.00840862 -0.000111711 0)
(-0.00835822 -0.000122647 0)
(-0.00830329 -0.00013361 0)
(-0.00824381 -0.000144594 0)
(-0.00817979 -0.000155591 0)
(-0.00811122 -0.000166594 0)
(-0.0080381 -0.000177594 0)
(-0.00796043 -0.000188582 0)
(-0.00787824 -0.000199552 0)
(-0.00779152 -0.000210494 0)
(-0.0077003 -0.0002214 0)
(-0.00760459 -0.00023226 0)
(-0.00750442 -0.000243066 0)
(-0.00739981 -0.000253809 0)
(-0.00729079 -0.000264479 0)
(-0.0071774 -0.000275068 0)
(-0.00705968 -0.000285564 0)
(-0.00693766 -0.00029596 0)
(-0.00681139 -0.000306245 0)
(-0.00668093 -0.000316409 0)
(-0.00654632 -0.000326442 0)
(-0.00640762 -0.000336333 0)
(-0.00626491 -0.000346071 0)
(-0.00611823 -0.000355646 0)
(-0.00596767 -0.000365043 0)
(-0.00581331 -0.000374251 0)
(-0.00565522 -0.000383254 0)
(-0.0054935 -0.000392036 0)
(-0.00532825 -0.000400579 0)
(-0.00515958 -0.000408861 0)
(-0.00498759 -0.000416859 0)
(-0.00481243 -0.000424543 0)
(-0.00463422 -0.000431882 0)
(-0.00445312 -0.000438836 0)
(-0.00426932 -0.000445359 0)
(-0.004083 -0.000451398 0)
(-0.00389438 -0.000456891 0)
(-0.00370371 -0.000461764 0)
(-0.00351126 -0.000465933 0)
(-0.00331736 -0.000469302 0)
(-0.00312236 -0.00047176 0)
(-0.00292665 -0.000473181 0)
(-0.00273071 -0.000473425 0)
(-0.00253504 -0.000472334 0)
(-0.00234021 -0.000469735 0)
(-0.00214689 -0.000465441 0)
(-0.00195577 -0.000459247 0)
(-0.00176767 -0.00045094 0)
(-0.00158346 -0.000440296 0)
(-0.00140409 -0.000427086 0)
(-0.00123059 -0.000411082 0)
(-0.00106407 -0.00039207 0)
(-0.000905685 -0.000369856 0)
(-0.000756657 -0.000344285 0)
(-0.000618215 -0.000315267 0)
(-0.000491583 -0.000282806 0)
(-0.000377934 -0.00024705 0)
(-0.000278328 -0.000208357 0)
(-0.000193647 -0.000167394 0)
(-0.0001245 -0.000125281 0)
(-7.1094e-05 -8.3792e-05 0)
(-3.30865e-05 -4.5611e-05 0)
(-9.86164e-06 -1.46967e-05 0)
(-9.34815e-07 2.74086e-06 0)
(-1.26812e-06 -5.7907e-07 0)
(-1.10547e-05 2.04107e-05 0)
(-3.51174e-05 5.49874e-05 0)
(-7.32467e-05 9.74968e-05 0)
(-0.000125692 0.000143997 0)
(-0.000192659 0.00019163 0)
(-0.000273938 0.000238388 0)
(-0.000368982 0.000282913 0)
(-0.000477013 0.000324333 0)
(-0.000597091 0.000362138 0)
(-0.000728177 0.000396083 0)
(-0.00086917 0.000426109 0)
(-0.00101895 0.000452291 0)
(-0.00117643 0.000474797 0)
(-0.00134053 0.000493856 0)
(-0.00151028 0.000509739 0)
(-0.00168475 0.000522736 0)
(-0.00186308 0.00053314 0)
(-0.0020445 0.000541239 0)
(-0.00222833 0.000547307 0)
(-0.00241395 0.000551604 0)
(-0.00260083 0.00055437 0)
(-0.00278848 0.00055582 0)
(-0.00297652 0.000556147 0)
(-0.00316457 0.000555517 0)
(-0.00335233 0.000554078 0)
(-0.00353955 0.000551953 0)
(-0.003726 0.000549249 0)
(-0.00391148 0.000546054 0)
(-0.00409584 0.000542441 0)
(-0.00427893 0.000538467 0)
(-0.00446061 0.000534179 0)
(-0.00464079 0.000529612 0)
(-0.00481936 0.000524798 0)
(-0.00499623 0.000519756 0)
(-0.00517132 0.000514503 0)
(-0.00534456 0.000509049 0)
(-0.00551586 0.000503401 0)
(-0.00568517 0.000497565 0)
(-0.0058524 0.000491545 0)
(-0.0060175 0.000485342 0)
(-0.0061804 0.000478955 0)
(-0.00634104 0.000472383 0)
(-0.00649934 0.000465626 0)
(-0.00665525 0.000458682 0)
(-0.00680869 0.00045155 0)
(-0.00695962 0.000444228 0)
(-0.00710795 0.000436714 0)
(-0.00725362 0.000429006 0)
(-0.00739658 0.000421103 0)
(-0.00753674 0.000413002 0)
(-0.00767405 0.000404705 0)
(-0.00780844 0.000396208 0)
(-0.00793985 0.00038751 0)
(-0.0080682 0.000378611 0)
(-0.00819342 0.00036951 0)
(-0.00831546 0.000360206 0)
(-0.00843424 0.000350698 0)
(-0.0085497 0.000340987 0)
(-0.00866178 0.000331072 0)
(-0.00877039 0.000320952 0)
(-0.00887548 0.000310628 0)
(-0.00897699 0.000300101 0)
(-0.00907484 0.000289369 0)
(-0.00916896 0.000278435 0)
(-0.0092593 0.000267298 0)
(-0.00934579 0.000255959 0)
(-0.00942837 0.00024442 0)
(-0.00950696 0.000232681 0)
(-0.0095815 0.000220744 0)
(-0.00965194 0.000208611 0)
(-0.00971821 0.000196283 0)
(-0.00978025 0.000183762 0)
(-0.009838 0.000171052 0)
(-0.00989139 0.000158153 0)
(-0.00994037 0.000145069 0)
(-0.00998489 0.000131803 0)
(-0.0100249 0.000118358 0)
(-0.0100603 0.000104738 0)
(-0.0100911 9.09463e-05 0)
(-0.0101171 7.69872e-05 0)
(-0.0101385 6.28651e-05 0)
(-0.0101551 4.85849e-05 0)
(-0.0101668 3.41516e-05 0)
(-0.0101736 1.95706e-05 0)
(-0.0101755 4.84754e-06 0)
(-0.0101725 -1.00117e-05 0)
(-0.0101644 -2.50007e-05 0)
(-0.0101513 -4.01126e-05 0)
(-0.0101331 -5.53404e-05 0)
(-0.0101098 -7.06767e-05 0)
(-0.0100814 -8.61137e-05 0)
(-0.0100478 -0.000101644 0)
(-0.010009 -0.000117258 0)
(-0.00996491 -0.000132947 0)
(-0.00991563 -0.000148702 0)
(-0.00986108 -0.000164514 0)
(-0.00980127 -0.000180373 0)
(-0.00973618 -0.000196268 0)
(-0.0096658 -0.00021219 0)
(-0.00959013 -0.000228126 0)
(-0.00950917 -0.000244067 0)
(-0.00942292 -0.00026 0)
(-0.0093314 -0.000275914 0)
(-0.00923461 -0.000291796 0)
(-0.00913256 -0.000307636 0)
(-0.00902529 -0.000323419 0)
(-0.00891281 -0.000339134 0)
(-0.00879515 -0.000354767 0)
(-0.00867234 -0.000370306 0)
(-0.00854442 -0.000385737 0)
(-0.00841143 -0.000401046 0)
(-0.00827341 -0.00041622 0)
(-0.00813041 -0.000431246 0)
(-0.0079825 -0.000446108 0)
(-0.00782972 -0.000460793 0)
(-0.00767214 -0.000475285 0)
(-0.00750983 -0.000489569 0)
(-0.00734286 -0.00050363 0)
(-0.00717132 -0.000517449 0)
(-0.00699528 -0.00053101 0)
(-0.00681485 -0.000544291 0)
(-0.00663012 -0.000557273 0)
(-0.0064412 -0.00056993 0)
(-0.0062482 -0.000582236 0)
(-0.00605125 -0.00059416 0)
(-0.00585048 -0.000605664 0)
(-0.00564606 -0.000616709 0)
(-0.00543814 -0.000627246 0)
(-0.00522691 -0.000637217 0)
(-0.00501258 -0.000646556 0)
(-0.00479537 -0.000655186 0)
(-0.00457554 -0.000663015 0)
(-0.00435337 -0.000669939 0)
(-0.0041292 -0.000675836 0)
(-0.0039034 -0.000680567 0)
(-0.00367637 -0.000683975 0)
(-0.00344858 -0.000685881 0)
(-0.00322056 -0.000686083 0)
(-0.0029929 -0.000684363 0)
(-0.00276626 -0.000680475 0)
(-0.00254139 -0.000674157 0)
(-0.00231908 -0.000665127 0)
(-0.00210026 -0.000653088 0)
(-0.00188589 -0.000637735 0)
(-0.00167705 -0.000618758 0)
(-0.00147489 -0.000595855 0)
(-0.00128063 -0.000568742 0)
(-0.00109555 -0.000537173 0)
(-0.000920974 -0.000500962 0)
(-0.000758252 -0.000460016 0)
(-0.000608709 -0.000414373 0)
(-0.000473616 -0.000364268 0)
(-0.000354134 -0.000310206 0)
(-0.000251253 -0.000253078 0)
(-0.000165727 -0.00019431 0)
(-9.7959e-05 -0.000136073 0)
(-4.78862e-05 -8.15186e-05 0)
(-1.5568e-05 -3.51126e-05 0)
(-1.94986e-06 -3.53179e-06 0)
(-2.06845e-06 6.09128e-06 0)
(-1.56806e-05 4.11549e-05 0)
(-4.72933e-05 9.0531e-05 0)
(-9.55225e-05 0.000148299 0)
(-0.000160009 0.000210201 0)
(-0.000240661 0.00027305 0)
(-0.000337044 0.000334544 0)
(-0.000448449 0.000393086 0)
(-0.00057398 0.00044762 0)
(-0.000712599 0.000497502 0)
(-0.000863179 0.000542407 0)
(-0.00102454 0.000582244 0)
(-0.0011955 0.00061709 0)
(-0.00137488 0.000647142 0)
(-0.00156154 0.00067268 0)
(-0.00175441 0.000694037 0)
(-0.0019525 0.000711578 0)
(-0.00215487 0.000725675 0)
(-0.0023607 0.0007367 0)
(-0.00256922 0.00074501 0)
(-0.00277977 0.000750939 0)
(-0.00299173 0.000754801 0)
(-0.00320459 0.000756877 0)
(-0.00341788 0.000757423 0)
(-0.00363122 0.000756662 0)
(-0.00384425 0.000754788 0)
(-0.00405668 0.000751968 0)
(-0.00426825 0.000748343 0)
(-0.00447874 0.000744033 0)
(-0.00468795 0.000739137 0)
(-0.00489572 0.000733735 0)
(-0.00510191 0.000727889 0)
(-0.00530637 0.000721652 0)
(-0.005509 0.000715062 0)
(-0.00570969 0.000708151 0)
(-0.00590834 0.000700941 0)
(-0.00610486 0.000693449 0)
(-0.00629917 0.000685686 0)
(-0.00649118 0.00067766 0)
(-0.00668082 0.000669375 0)
(-0.006868 0.000660836 0)
(-0.00705265 0.000652042 0)
(-0.00723469 0.000642994 0)
(-0.00741406 0.000633691 0)
(-0.00759067 0.000624131 0)
(-0.00776445 0.000614312 0)
(-0.00793532 0.000604234 0)
(-0.00810322 0.000593894 0)
(-0.00826807 0.00058329 0)
(-0.00842979 0.000572419 0)
(-0.00858831 0.000561282 0)
(-0.00874356 0.000549875 0)
(-0.00889545 0.000538197 0)
(-0.00904391 0.000526249 0)
(-0.00918887 0.000514028 0)
(-0.00933026 0.000501533 0)
(-0.00946799 0.000488763 0)
(-0.00960199 0.00047572 0)
(-0.0097322 0.000462401 0)
(-0.00985852 0.000448807 0)
(-0.00998089 0.000434938 0)
(-0.0100992 0.000420794 0)
(-0.0102135 0.000406376 0)
(-0.0103236 0.000391684 0)
(-0.0104294 0.000376719 0)
(-0.0105309 0.000361482 0)
(-0.010628 0.000345975 0)
(-0.0107206 0.000330199 0)
(-0.0108087 0.000314156 0)
(-0.0108923 0.000297849 0)
(-0.0109711 0.000281278 0)