/*--------------------------------*- C++ -*----------------------------------*\
  =========                 |
  \\      /  F ield         | OpenFOAM: The Open Source CFD Toolbox
   \\    /   O peration     | Website:  https://openfoam.org
    \\  /    A nd           | Version:  7
     \\/     M anipulation  |
\*---------------------------------------------------------------------------*/
FoamFile
{
    version     2.0;
    format      ascii;
    class       volScalarField;
    location    "0.2375";
    object      p;
}
// * * * * * * * * * * * * * * * * * * * * * * * * * * * * * * * * * * * * * //

dimensions      [0 2 -2 0 0 0 0];

internalField   nonuniform List<scalar> 
25600
(
-6.13178e-09
-8.76495e-07
-1.35619e-05
-3.6923e-05
-6.91612e-05
-0.000109942
-0.000158204
-0.000212662
-0.000272033
-0.000335115
-0.000400807
-0.000468108
-0.000536109
-0.000604008
-0.000671097
-0.000736754
-0.000800418
-0.000861606
-0.000919894
-0.000974915
-0.00102634
-0.00107388
-0.00111728
-0.0011563
-0.00119079
-0.00122058
-0.00124556
-0.0012656
-0.00128061
-0.00129052
-0.00129526
-0.00129481
-0.00128911
-0.00127816
-0.00126192
-0.00124041
-0.00121363
-0.00118158
-0.00114428
-0.00110177
-0.00105406
-0.00100118
-0.000943158
-0.000880041
-0.000811864
-0.000738674
-0.000660519
-0.000577442
-0.000489496
-0.00039674
-0.000299232
-0.000197023
-9.01715e-05
2.12536e-05
0.000137181
0.000257539
0.000382254
0.00051125
0.000644441
0.000781742
0.000923063
0.00106831
0.00121737
0.00137016
0.00152656
0.00168646
0.00184975
0.00201629
0.00218595
0.00235858
0.00253406
0.00271223
0.00289294
0.00307602
0.00326128
0.00344856
0.00363766
0.00382841
0.0040206
0.00421401
0.00440845
0.00460369
0.0047995
0.00499564
0.00519189
0.00538799
0.0055837
0.00577877
0.00597293
0.00616592
0.00635747
0.00654731
0.00673516
0.00692075
0.00710382
0.00728409
0.00746128
0.00763511
0.00780531
0.00797161
0.00813374
0.00829145
0.00844448
0.00859258
0.00873552
0.00887306
0.00900498
0.00913105
0.00925107
0.00936486
0.00947224
0.00957305
0.00966716
0.00975442
0.00983471
0.00990793
0.009974
0.0100329
0.0100844
0.0101288
0.0101658
0.0101956
0.0102181
0.0102335
0.0102418
0.0102431
0.0102376
0.0102254
0.0102066
0.0101815
0.0101503
0.0101133
0.0100706
0.0100227
0.00996989
0.00991242
0.00985072
0.00978519
0.00971624
0.00964434
0.00956998
0.00949367
0.00941597
0.00933746
0.00925876
0.00918055
0.00910353
0.00902843
0.00895607
0.00888728
0.00882297
0.00876408
0.00871163
0.00866664
0.00863014
0.00860307
0.00858608
0.0085793
0.00858194
0.0085902
-1.23342e-05
-1.26365e-05
-2.39877e-05
-4.49013e-05
-7.37401e-05
-0.00010994
-0.000152714
-0.000201064
-0.000253945
-0.000310336
-0.000369275
-0.000429876
-0.000491317
-0.000552852
-0.000613812
-0.000673603
-0.000731691
-0.000787595
-0.000840892
-0.000891218
-0.000938248
-0.000981698
-0.00102131
-0.00105686
-0.00108815
-0.00111503
-0.00113735
-0.00115501
-0.0011679
-0.00117593
-0.00117903
-0.00117716
-0.00117027
-0.00115834
-0.00114133
-0.00111924
-0.00109207
-0.00105981
-0.00102249
-0.000980115
-0.00093271
-0.000880297
-0.000822904
-0.00076056
-0.000693302
-0.000621175
-0.00054422
-0.000462479
-0.000375999
-0.00028484
-0.000189059
-8.87052e-05
1.61675e-05
0.000125494
0.000239203
0.00035722
0.000479471
0.000605883
0.000736377
0.000870868
0.00100927
0.00115147
0.00129739
0.00144691
0.00159993
0.00175634
0.00191604
0.00207888
0.00224473
0.00241345
0.00258492
0.00275898
0.00293549
0.00311426
0.00329514
0.00347794
0.00366249
0.00384859
0.00403607
0.00422471
0.0044143
0.00460463
0.00479548
0.00498663
0.00517783
0.00536887
0.00555949
0.00574945
0.00593849
0.00612637
0.00631281
0.00649756
0.00668036
0.00686094
0.00703904
0.00721441
0.00738678
0.00755586
0.00772141
0.00788316
0.00804086
0.00819427
0.00834314
0.00848724
0.00862634
0.00876021
0.00888864
0.00901143
0.00912837
0.0092393
0.00934405
0.00944247
0.00953443
0.00961981
0.00969848
0.00977035
0.00983535
0.00989342
0.00994452
0.00998864
0.0100258
0.010056
0.0100793
0.0100957
0.0101054
0.0101084
0.0101049
0.0100949
0.0100788
0.0100567
0.0100287
0.00999521
0.00995645
0.00991269
0.00986426
0.0098115
0.00975477
0.00969446
0.00963097
0.00956476
0.00949629
0.00942606
0.0093546
0.00928247
0.00921027
0.00913862
0.00906818
0.00899965
0.00893377
0.00887129
0.00881302
0.00875978
0.00871243
0.00867179
0.00863866
0.0086137
0.00859728
0.00858939
0.0085902
0.00859846
-1.85643e-05
-1.60567e-05
-2.49377e-05
-4.35823e-05
-6.98106e-05
-0.000102797
-0.000141767
-0.000185838
-0.000234097
-0.000285634
-0.000339593
-0.000395171
-0.000451623
-0.00050826
-0.000564451
-0.000619636
-0.000673307
-0.000724999
-0.0007743
-0.000820843
-0.000864309
-0.000904421
-0.000940928
-0.000973606
-0.00100226
-0.00102671
-0.00104683
-0.00106249
-0.00107358
-0.00108002
-0.00108174
-0.00107866
-0.00107075
-0.00105796
-0.00104028
-0.00101768
-0.000990162
-0.000957714
-0.00092035
-0.000878079
-0.000830919
-0.000778886
-0.000722004
-0.000660303
-0.000593815
-0.000522579
-0.000446633
-0.000366018
-0.000280784
-0.000190983
-9.66672e-05
2.11283e-06
0.000105305
0.000212847
0.000324668
0.000440695
0.000560854
0.000685072
0.000813273
0.000945373
0.00108128
0.0012209
0.00136414
0.00151089
0.00166106
0.00181452
0.00197117
0.00213088
0.00229351
0.00245893
0.00262702
0.00279762
0.00297058
0.00314574
0.00332292
0.00350197
0.00368269
0.00386491
0.00404844
0.00423308
0.00441863
0.00460487
0.00479159
0.00497857
0.00516558
0.00535239
0.00553878
0.0057245
0.0059093
0.00609294
0.00627516
0.0064557
0.00663431
0.00681075
0.00698476
0.00715608
0.00732446
0.00748964
0.00765136
0.00780936
0.00796341
0.00811328
0.00825874
0.00839955
0.00853549
0.00866635
0.00879192
0.00891201
0.00902643
0.00913501
0.0092376
0.00933406
0.00942426
0.00950809
0.00958543
0.00965619
0.00972031
0.00977773
0.00982842
0.00987237
0.00990959
0.00994012
0.00996398
0.00998126
0.00999202
0.00999638
0.00999445
0.00998639
0.00997237
0.00995258
0.00992725
0.00989661
0.00986093
0.0098205
0.00977562
0.00972662
0.00967386
0.0096177
0.00955857
0.00949687
0.00943306
0.00936763
0.00930108
0.00923395
0.00916681
0.00910024
0.00903487
0.00897135
0.00891035
0.00885258
0.00879875
0.00874961
0.00870588
0.00866827
0.00863746
0.00861399
0.00859819
0.00859016
0.00859099
0.00860113
-1.23297e-05
-8.79179e-06
-1.65038e-05
-3.37535e-05
-5.83004e-05
-8.91885e-05
-0.000125612
-0.000166724
-0.000211687
-0.000259684
-0.000309929
-0.000361687
-0.000414276
-0.000467058
-0.000519446
-0.000570909
-0.000620966
-0.000669181
-0.00071516
-0.000758545
-0.00079902
-0.000836306
-0.00087016
-0.000900369
-0.000926736
-0.00094909
-0.000967282
-0.000981191
-0.000990707
-0.000995743
-0.000996219
-0.000992066
-0.000983235
-0.000969688
-0.000951392
-0.000928325
-0.000900475
-0.000867839
-0.000830423
-0.000788233
-0.000741275
-0.000689566
-0.00063313
-0.000571994
-0.000506185
-0.000435735
-0.000360683
-0.000281072
-0.000196946
-0.000108356
-1.53487e-05
8.2026e-05
0.000183716
0.000289659
0.000399784
0.000514024
0.00063231
0.000754568
0.000880719
0.00101068
0.00114436
0.00128167
0.00142252
0.0015668
0.00171441
0.00186524
0.00201918
0.00217611
0.00233588
0.00249838
0.00266346
0.002831
0.00300083
0.00317279
0.00334672
0.00352245
0.00369981
0.00387861
0.00405868
0.00423982
0.00442182
0.00460447
0.00478757
0.00497091
0.00515426
0.00533741
0.00552011
0.00570214
0.00588326
0.00606321
0.00624176
0.00641865
0.00659365
0.00676651
0.00693698
0.00710481
0.00726975
0.00743155
0.00758996
0.00774474
0.00789566
0.00804249
0.008185
0.00832299
0.00845622
0.00858449
0.00870761
0.00882538
0.00893763
0.0090442
0.00914494
0.00923972
0.00932841
0.0094109
0.00948709
0.0095569
0.00962024
0.00967709
0.00972741
0.00977121
0.00980848
0.00983926
0.0098636
0.00988157
0.00989324
0.00989871
0.00989812
0.0098916
0.00987933
0.00986151
0.00983835
0.00981008
0.00977697
0.0097393
0.00969736
0.00965148
0.009602
0.00954929
0.00949373
0.00943573
0.00937575
0.00931422
0.00925165
0.00918856
0.00912546
0.00906294
0.00900157
0.00894195
0.00888472
0.00883051
0.00877999
0.00873383
0.00869267
0.00865716
0.00862789
0.0086054
0.00859003
0.00858206
0.00858312
0.00859442
6.94998e-06
8.64763e-06
3.05011e-07
-1.67e-05
-4.04669e-05
-7.0085e-05
-0.00010476
-0.000143686
-0.000186099
-0.000231264
-0.000278468
-0.000327035
-0.000376341
-0.000425803
-0.000474878
-0.000523062
-0.000569903
-0.00061499
-0.000657951
-0.000698451
-0.00073618
-0.000770864
-0.000802266
-0.000830172
-0.000854394
-0.000874766
-0.00089114
-0.00090339
-0.000911408
-0.000915101
-0.000914386
-0.000909195
-0.000899479
-0.000885191
-0.000866294
-0.000842768
-0.000814595
-0.00078177
-0.000744294
-0.00070217
-0.000655402
-0.000604001
-0.00054799
-0.000487395
-0.000422237
-0.000352548
-0.000278364
-0.000199724
-0.000116674
-2.92593e-05
6.24763e-05
0.000158487
0.000258719
0.000363107
0.000471582
0.000584083
0.000700545
0.000820896
0.000945053
0.00107294
0.00120446
0.00133953
0.00147805
0.00161993
0.00176507
0.00191336
0.00206468
0.00221891
0.00237593
0.0025356
0.0026978
0.00286239
0.00302921
0.0031981
0.00336891
0.00354146
0.00371559
0.00389112
0.00406789
0.00424567
0.00442429
0.00460353
0.00478319
0.00496306
0.00514294
0.0053226
0.00550181
0.00568034
0.00585797
0.00603444
0.00620952
0.00638297
0.00655455
0.00672403
0.00689117
0.00705571
0.00721741
0.00737604
0.00753134
0.00768309
0.00783107
0.00797504
0.0081148
0.00825013
0.00838082
0.00850667
0.00862749
0.00874309
0.00885331
0.00895799
0.009057
0.0091502
0.00923747
0.00931871
0.00939381
0.00946271
0.00952532
0.00958163
0.00963159
0.00967522
0.00971252
0.00974352
0.00976828
0.00978686
0.00979934
0.00980583
0.00980644
0.00980132
0.00979064
0.0097746
0.00975341
0.0097273
0.00969652
0.00966135
0.00962208
0.00957901
0.0095325
0.00948288
0.00943053
0.00937586
0.00931929
0.00926125
0.00920221
0.00914267
0.00908313
0.00902412
0.0089662
0.00890993
0.00885587
0.00880464
0.00875682
0.00871304
0.00867388
0.00863991
0.0086117
0.00858976
0.00857446
0.00856619
0.00856676
0.00857761
3.73221e-05
3.53132e-05
2.4931e-05
7.09862e-06
-1.67981e-05
-4.59609e-05
-7.96515e-05
-0.000117134
-0.000157708
-0.000200714
-0.000245513
-0.000291488
-0.000338069
-0.000384724
-0.000430956
-0.0004763
-0.000520328
-0.000562652
-0.000602921
-0.000640818
-0.000676053
-0.000708365
-0.00073752
-0.000763309
-0.000785548
-0.000804075
-0.00081875
-0.000829446
-0.000836052
-0.000838475
-0.000836633
-0.000830458
-0.000819894
-0.000804894
-0.000785421
-0.000761451
-0.000732967
-0.000699956
-0.000662418
-0.000620352
-0.00057376
-0.000522652
-0.00046705
-0.000406971
-0.000342437
-0.000273477
-0.000200129
-0.000122427
-4.04147e-05
4.58662e-05
0.000136373
0.000231064
0.000329885
0.000432769
0.000539652
0.000650474
0.000765175
0.00088368
0.00100591
0.00113178
0.00126122
0.00139413
0.00153042
0.00166999
0.00181275
0.0019586
0.0021074
0.00225905
0.00241342
0.00257039
0.00272982
0.00289159
0.00305554
0.0032215
0.00338933
0.00355885
0.00372992
0.00390236
0.00407598
0.00425059
0.004426
0.004602
0.00477841
0.00495502
0.00513162
0.005308
0.00548392
0.00565917
0.00583351
0.00600671
0.00617854
0.00634876
0.00651715
0.00668347
0.00684749
0.00700896
0.00716764
0.0073233
0.00747571
0.00762464
0.00776987
0.00791119
0.00804838
0.00818125
0.00830958
0.00843317
0.00855185
0.00866544
0.00877377
0.0088767
0.00897409
0.00906582
0.00915177
0.00923184
0.00930593
0.00937397
0.0094359
0.00949168
0.0095413
0.00958475
0.00962205
0.00965324
0.00967836
0.00969748
0.00971067
0.00971805
0.00971974
0.00971587
0.00970662
0.00969217
0.00967275
0.00964856
0.00961987
0.00958693
0.00955003
0.00950948
0.0094656
0.00941873
0.00936923
0.0093175
0.00926392
0.00920893
0.00915298
0.00909652
0.00904004
0.00898404
0.00892904
0.00887556
0.00882413
0.0087753
0.00872963
0.00868766
0.00864994
0.008617
0.00858935
0.00856749
0.0085518
0.00854271
0.00854196
0.00855087
7.70271e-05
7.00563e-05
5.65852e-05
3.702e-05
1.21511e-05
-1.73243e-05
-5.07539e-05
-8.74874e-05
-0.000126898
-0.00016839
-0.000211393
-0.000255361
-0.000299768
-0.000344125
-0.000387983
-0.000430916
-0.000472529
-0.000512461
-0.000550378
-0.000585977
-0.00061899
-0.000649172
-0.000676297
-0.000700163
-0.000720596
-0.000737435
-0.000750544
-0.000759802
-0.000765098
-0.000766337
-0.000763442
-0.000756344
-0.000744984
-0.000729313
-0.000709293
-0.000684901
-0.000656119
-0.000622933
-0.000585335
-0.000543321
-0.000496894
-0.000446067
-0.000390854
-0.000331268
-0.000267328
-0.000199067
-0.000126519
-4.97164e-05
3.13029e-05
0.000116498
0.000205829
0.000299253
0.000396715
0.000498155
0.000603511
0.000712723
0.000825734
0.000942471
0.00106286
0.00118681
0.00131424
0.00144508
0.00157924
0.00171661
0.0018571
0.00200061
0.00214702
0.00229621
0.00244807
0.00260247
0.00275928
0.00291838
0.0030796
0.0032428
0.00340781
0.00357448
0.00374267
0.00391218
0.00408285
0.00425448
0.00442688
0.00459986
0.00477323
0.00494679
0.00512033
0.00529364
0.0054665
0.00563868
0.00580997
0.00598013
0.00614894
0.00631618
0.00648161
0.00664501
0.00680614
0.00696477
0.00712066
0.00727359
0.00742333
0.00756966
0.00771237
0.00785124
0.00798608
0.00811667
0.00824283
0.00836436
0.00848107
0.0085928
0.0086994
0.00880072
0.00889662
0.008987
0.00907173
0.00915072
0.00922387
0.00929111
0.0093524
0.00940769
0.00945697
0.00950024
0.00953752
0.00956885
0.00959427
0.00961385
0.00962766
0.00963582
0.00963844
0.00963567
0.00962767
0.00961462
0.00959674
0.00957425
0.00954738
0.0095164
0.00948159
0.00944323
0.00940165
0.00935717
0.00931014
0.00926094
0.00920994
0.00915757
0.00910424
0.00905039
0.00899648
0.00894298
0.00889037
0.00883914
0.00878979
0.00874282
0.00869874
0.00865804
0.00862123
0.0085888
0.00856122
0.00853896
0.00852239
0.00851194
0.0085091
0.00851491
0.000124376
0.000111609
9.42871e-05
7.22651e-05
4.57159e-05
1.52452e-05
-1.85653e-05
-5.51687e-05
-9.40151e-05
-0.00013457
-0.000176332
-0.000218813
-0.000261544
-0.000304077
-0.000346
-0.000386926
-0.000426495
-0.000464375
-0.000500253
-0.000533848
-0.000564905
-0.000593192
-0.000618498
-0.000640632
-0.000659426
-0.000674731
-0.000686412
-0.000694348
-0.000698435
-0.000698581
-0.000694709
-0.00068675
-0.000674645
-0.000658347
-0.000637817
-0.00061303
-0.000583969
-0.000550618
-0.000512963
-0.000471002
-0.000424736
-0.000374175
-0.000319332
-0.000260218
-0.000196849
-0.000129258
-5.74772e-05
1.84621e-05
9.85282e-05
0.000182683
0.000270887
0.000363095
0.000459254
0.000559307
0.000663197
0.000770868
0.000882259
0.000997302
0.00111592
0.00123803
0.00136355
0.00149242
0.00162453
0.00175981
0.00189814
0.00203942
0.00218355
0.00233041
0.00247988
0.00263185
0.00278618
0.00294275
0.0031014
0.00326198
0.00342434
0.00358833
0.0037538
0.00392058
0.00408848
0.00425731
0.0044269
0.00459705
0.00476758
0.00493829
0.00510898
0.00527945
0.00544946
0.0056188
0.00578726
0.0059546
0.00612063
0.0062851
0.0064478
0.0066085
0.00676697
0.00692298
0.00707631
0.00722673
0.00737402
0.00751796
0.00765836
0.00779499
0.00792767
0.00805618
0.00818035
0.00829998
0.0084149
0.00852493
0.00862994
0.00872979
0.00882433
0.00891347
0.00899708
0.00907506
0.00914735
0.00921385
0.00927454
0.00932936
0.00937831
0.0094214
0.00945864
0.00949007
0.00951573
0.00953569
0.00955004
0.00955886
0.00956229
0.00956046
0.00955354
0.00954171
0.00952517
0.00950414
0.00947885
0.00944957
0.00941655
0.00938009
0.00934048
0.00929805
0.00925314
0.00920609
0.00915729
0.00910712
0.00905598
0.0090043
0.00895251
0.00890103
0.00885033
0.00880086
0.00875308
0.00870747
0.00866447
0.00862456
0.00858818
0.00855578
0.00852779
0.00850466
0.00848673
0.00847443
0.00846884
0.00847066
0.000177845
0.000158735
0.000137015
0.000111989
8.31891e-05
5.11495e-05
1.6395e-05
-2.06199e-05
-5.94284e-05
-9.95637e-05
-0.000140579
-0.000182044
-0.000223543
-0.000264677
-0.000305068
-0.000344365
-0.000382239
-0.000418385
-0.000452517
-0.000484379
-0.00051373
-0.000540351
-0.000564043
-0.00058463
-0.000601954
-0.000615872
-0.000626254
-0.000632986
-0.000635968
-0.000635112
-0.00063034
-0.000621584
-0.000608789
-0.00059191
-0.000570907
-0.000545757
-0.000516438
-0.000482933
-0.00044523
-0.000403325
-0.000357219
-0.000306916
-0.000252428
-0.000193765
-0.000130946
-6.39986e-05
7.04453e-06
8.21558e-05
0.000161308
0.000244465
0.000331587
0.000422627
0.000517536
0.000616259
0.000718745
0.000824939
0.00093478
0.0010482
0.00116512
0.00128547
0.00140917
0.00153615
0.00166633
0.0017996
0.00193587
0.00207504
0.002217
0.00236165
0.00250886
0.00265853
0.00281051
0.00296469
0.00312092
0.00327904
0.00343891
0.00360038
0.0037633
0.00392751
0.00409282
0.00425904
0.004426
0.00459351
0.0047614
0.00492947
0.00509752
0.00526534
0.00543271
0.00559942
0.00576526
0.00593001
0.00609346
0.00625539
0.00641558
0.0065738
0.00672983
0.00688344
0.00703442
0.00718254
0.00732759
0.00746935
0.00760763
0.00774222
0.00787293
0.00799955
0.0081219
0.00823981
0.00835308
0.00846158
0.00856514
0.00866364
0.00875694
0.00884494
0.00892753
0.0090046
0.00907608
0.00914191
0.00920203
0.00925642
0.00930506
0.00934795
0.00938513
0.00941662
0.00944246
0.00946274
0.00947752
0.0094869
0.00949101
0.00948999
0.00948399
0.00947319
0.00945779
0.00943802
0.00941408
0.00938624
0.00935475
0.00931989
0.00928196
0.00924126
0.00919813
0.00915289
0.0091059
0.00905755
0.00900821
0.00895828
0.00890816
0.00885828
0.00880905
0.00876088
0.00871422
0.0086695
0.00862714
0.00858755
0.00855116
0.00851836
0.00848954
0.00846511
0.0084454
0.0084308
0.00842194
0.00841914
0.000236101
0.0002103
0.000183796
0.000155346
0.000123851
8.97729e-05
5.35976e-05
1.57035e-05
-2.35296e-05
-6.37005e-05
-0.000104412
-0.000145287
-0.00018596
-0.000226077
-0.000265301
-0.000303317
-0.00033982
-0.000374533
-0.000407202
-0.000437586
-0.000465463
-0.000490633
-0.000512911
-0.000532132
-0.000548149
-0.000560825
-0.000570038
-0.000575682
-0.000577662
-0.000575893
-0.000570299
-0.000560815
-0.000547388
-0.000529974
-0.00050854
-0.00048306
-0.000453507
-0.000419863
-0.000382121
-0.000340279
-0.000294331
-0.00024428
-0.000190135
-0.000131909
-6.96189e-05
-3.293e-06
6.70405e-05
0.000141358
0.000219635
0.000301835
0.000387917
0.000477836
0.000571546
0.000668997
0.000770139
0.000874919
0.000983278
0.00109515
0.00121045
0.00132912
0.00145108
0.00157627
0.0017046
0.00183597
0.00197028
0.00210744
0.00224735
0.0023899
0.00253498
0.00268247
0.00283225
0.00298418
0.00313812
0.00329393
0.00345146
0.00361058
0.00377112
0.00393293
0.00409581
0.0042596
0.00442412
0.00458919
0.00475463
0.00492025
0.00508585
0.00525123
0.00541616
0.00558045
0.00574388
0.00590625
0.00606734
0.00622694
0.00638483
0.00654078
0.00669458
0.00684601
0.00699484
0.00714087
0.00728388
0.00742367
0.00756003
0.00769276
0.00782168
0.00794659
0.0080673
0.00818364
0.00829543
0.00840253
0.00850478
0.00860206
0.00869424
0.00878121
0.00886286
0.0089391
0.00900986
0.00907505
0.00913465
0.00918863
0.00923696
0.00927967
0.00931676
0.00934827
0.00937425
0.00939477
0.0094099
0.00941974
0.00942441
0.00942405
0.00941882
0.00940889
0.00939445
0.00937572
0.00935292
0.00932628
0.00929607
0.00926254
0.00922599
0.00918672
0.00914504
0.00910127
0.00905576
0.00900886
0.00896094
0.00891237
0.00886354
0.00881484
0.00876666
0.00871939
0.00867343
0.00862918
0.00858703
0.00854737
0.00851056
0.00847696
0.00844694
0.00842083
0.00839896
0.00838169
0.00836918
0.00836132
0.000297961
0.000265281
0.000233721
0.000201532
0.000166992
0.000130501
9.25103e-05
5.33312e-05
1.32741e-05
-2.73251e-05
-6.81238e-05
-0.000108791
-0.000149005
-0.000188456
-0.000226847
-0.000263892
-0.000299322
-0.000332887
-0.000364354
-0.000393502
-0.000420129
-0.000444052
-0.000465105
-0.000483134
-0.000498
-0.000509575
-0.000517747
-0.000522419
-0.000523499
-0.000520906
-0.000514568
-0.000504424
-0.000490424
-0.000472528
-0.000450704
-0.000424925
-0.000395163
-0.000361403
-0.000323638
-0.000281863
-0.000236074
-0.00018627
-0.00013246
-7.46567e-05
-1.28796e-05
5.28465e-05
0.000122498
0.000196055
0.000273493
0.000354774
0.000439856
0.000528699
0.000621262
0.000717498
0.000817356
0.000920785
0.00102773
0.00113811
0.00125187
0.00136894
0.00148925
0.00161274
0.00173931
0.00186887
0.00200133
0.00213659
0.00227457
0.00241514
0.00255821
0.00270365
0.00285135
0.00300116
0.00315296
0.00330661
0.00346196
0.00361888
0.0037772
0.00393677
0.00409741
0.00425894
0.0044212
0.00458401
0.00474718
0.00491055
0.0050739
0.00523702
0.00539972
0.00556179
0.00572302
0.00588321
0.00604215
0.00619963
0.00635542
0.00650931
0.00666109
0.00681053
0.00695742
0.00710156
0.00724274
0.00738074
0.00751537
0.00764644
0.00777375
0.00789711
0.00801635
0.00813128
0.00824175
0.00834759
0.00844867
0.00854485
0.00863602
0.00872206
0.00880287
0.00887836
0.00894845
0.00901307
0.00907219
0.00912578
0.00917382
0.00921633
0.00925331
0.00928482
0.00931088
0.00933158
0.00934698
0.00935718
0.0093623
0.00936248
0.00935787
0.00934864
0.00933498
0.0093171
0.00929522
0.00926956
0.00924038
0.00920793
0.0091725
0.00913436
0.00909383
0.00905121
0.00900684
0.00896106
0.00891421
0.00886665
0.00881873
0.00877084
0.00872332
0.00867657
0.00863093
0.00858677
0.00854445
0.00850433
0.00846674
0.00843201
0.00840044
0.00837233
0.008348
0.00832775
0.0083113
0.00829811
0.000362361
0.000322729
0.000285953
0.00024979
0.000211932
0.000172734
0.000132604
9.1797e-05
5.05724e-05
9.20421e-06
-3.20227e-05
-7.28167e-05
-0.000112901
-0.000152006
-0.000189864
-0.000226227
-0.000260858
-0.000293532
-0.000324037
-0.000352176
-0.000377765
-0.000400638
-0.000420646
-0.000437647
-0.000451511
-0.000462123
-0.000469382
-0.000473193
-0.000473472
-0.000470142
-0.000463138
-0.000452403
-0.000437892
-0.000419567
-0.000397395
-0.00037135
-0.000341408
-0.000307555
-0.000269784
-0.000228085
-0.000182455
-0.000132895
-7.94143e-05
-2.20249e-05
3.92546e-05
0.000104402
0.000173399
0.000246226
0.000322858
0.000403255
0.000487378
0.000575192
0.000666659
0.000761733
0.000860366
0.000962504
0.00106809
0.00117706
0.00128936
0.00140491
0.00152365
0.00164552
0.00177043
0.00189828
0.00202898
0.00216246
0.0022986
0.00243732
0.0025785
0.00272201
0.00286776
0.00301559
0.00316539
0.00331702
0.00347034
0.00362521
0.00378148
0.00393897
0.00409753
0.00425698
0.00441716
0.00457788
0.00473898
0.00490028
0.00506156
0.00522264
0.0053833
0.00554334
0.00570257
0.00586078
0.00601777
0.00617332
0.00632722
0.00647926
0.00662921
0.00677687
0.00692202
0.00706446
0.00720399
0.0073404
0.00747349
0.00760307
0.00772895
0.00785094
0.00796886
0.00808254
0.00819182
0.00829655
0.00839659
0.0084918
0.00858207
0.00866728
0.00874734
0.00882215
0.00889164
0.00895575
0.00901443
0.00906765
0.00911541
0.00915772
0.00919459
0.00922605
0.00925216
0.00927297
0.00928856
0.00929903
0.00930449
0.00930509
0.00930096
0.00929228
0.00927924
0.00926202
0.00924086
0.00921596
0.00918758
0.00915597
0.00912139
0.00908412
0.00904446
0.0090027
0.00895916
0.00891418
0.00886807
0.00882117
0.00877383
0.00872639
0.00867919
0.00863258
0.00858691
0.0085425
0.00849968
0.00845877
0.00842008
0.0083839
0.00835049
0.00832011
0.00829305
0.00826961
0.00824902
0.00823034
0.000428353
0.000381777
0.000339707
0.000299411
0.000258029
0.000215885
0.000173359
0.000130646
8.79578e-05
4.55218e-05
3.57458e-06
-3.7642e-05
-7.78878e-05
-0.000116926
-0.000154527
-0.000190473
-0.000224557
-0.000256575
-0.000286342
-0.000313681
-0.00033843
-0.00036044
-0.000379573
-0.0003957
-0.000408706
-0.000418489
-0.000424954
-0.000428014
-0.000427588
-0.00042361
-0.000416017
-0.000404761
-0.000389801
-0.000371098
-0.000348621
-0.000322345
-0.000292254
-0.000258332
-0.00022057
-0.000178958
-0.000133492
-8.41752e-05
-3.10192e-05
2.5964e-05
8.67597e-05
0.00015135
0.000219717
0.000291843
0.000367698
0.000447246
0.000530451
0.000617281
0.000707701
0.000801667
0.00089913
0.00100004
0.00110434
0.00121196
0.00132286
0.00143698
0.00155424
0.00167458
0.00179791
0.00192414
0.0020532
0.00218498
0.00231942
0.00245639
0.00259579
0.00273751
0.00288142
0.00302742
0.00317536
0.00332512
0.00347655
0.00362952
0.00378388
0.00393947
0.00409611
0.00425365
0.00441191
0.00457073
0.00472994
0.00488934
0.00504875
0.00520796
0.00536677
0.00552498
0.0056824
0.00583883
0.00599407
0.00614789
0.0063001
0.00645047
0.0065988
0.00674487
0.00688848
0.00702942
0.00716749
0.00730249
0.00743422
0.00756248
0.0076871
0.00780788
0.00792465
0.00803724
0.00814548
0.00824923
0.00834835
0.00844271
0.00853218
0.00861667
0.00869606
0.00877027
0.00883923
0.00890287
0.00896115
0.00901405
0.00906154
0.00910365
0.00914039
0.00917178
0.00919789
0.00921876
0.00923447
0.00924512
0.00925083
0.00925172
0.00924795
0.00923967
0.00922708
0.00921036
0.00918972
0.00916538
0.00913759
0.00910658
0.00907261
0.00903596
0.00899689
0.00895571
0.00891272
0.00886823
0.00882255
0.00877601
0.00872892
0.00868161
0.00863441
0.00858763
0.0085416
0.00849662
0.00845299
0.008411
0.00837092
0.00833301
0.00829751
0.00826463
0.00823465
0.00820785
0.00818299
0.00815875
0.000495106
0.000441644
0.000394253
0.000349732
0.000304673
0.000259399
0.000214271
0.000169427
0.00012503
8.12709e-05
3.83438e-05
-3.55361e-06
-4.42135e-05
-8.34353e-05
-0.000121026
-0.000156794
-0.000190557
-0.000222138
-0.000251371
-0.000278106
-0.000302201
-0.000323519
-0.000341936
-0.000357338
-0.000369626
-0.000378707
-0.000384493
-0.000386904
-0.000385869
-0.000381327
-0.000373223
-0.000361516
-0.000346166
-0.000327136
-0.000304398
-0.000277932
-0.000247722
-0.000213754
-0.000176018
-0.000134505
-8.92102e-05
-4.01392e-05
1.26941e-05
6.92789e-05
0.000129605
0.000193658
0.000261419
0.000332867
0.000407974
0.000486708
0.000569035
0.000654925
0.000744347
0.000837256
0.000933603
0.00103334
0.00113641
0.00124277
0.00135235
0.0014651
0.00158096
0.00169985
0.0018217
0.00194641
0.00207391
0.00220412
0.00233695
0.00247229
0.00261003
0.00275007
0.00289229
0.00303657
0.00318279
0.00333081
0.00348051
0.00363173
0.00378434
0.00393817
0.00409306
0.00424885
0.00440537
0.00456246
0.00471994
0.00487764
0.00503535
0.00519287
0.00535002
0.00550659
0.0056624
0.00581724
0.00597091
0.00612321
0.00627392
0.00642282
0.00656971
0.00671439
0.00685664
0.00699627
0.00713306
0.00726683
0.00739738
0.0075245
0.00764803
0.00776776
0.00788353
0.00799517
0.00810252
0.00820543
0.00830375
0.00839738
0.00848617
0.00857003
0.00864885
0.00872254
0.00879103
0.00885426
0.00891218
0.00896477
0.00901202
0.00905393
0.00909052
0.00912183
0.00914789
0.00916877
0.00918454
0.00919529
0.00920115
0.00920223
0.00919868
0.00919067
0.00917838
0.00916199
0.0091417
0.00911774
0.00909032
0.00905969
0.00902611
0.00898982
0.0089511
0.00891024
0.00886752
0.00882325
0.00877771
0.00873123
0.0086841
0.00863663
0.00858912
0.00854187
0.00849519
0.00844936
0.00840464
0.0083613
0.00831958
0.00827972
0.00824191
0.00820635
0.00817329
0.008143
0.00811382
0.008084
0.000561888
0.000501622
0.000448924
0.00040013
0.000351296
0.000302751
0.000254856
0.000207697
0.000161394
0.000116097
7.19651e-05
2.91653e-05
-1.21326e-05
-5.17639e-05
-8.95628e-05
-0.000125364
-0.000159012
-0.000190352
-0.000219245
-0.000245559
-0.000269167
-0.000289952
-0.000307802
-0.000322623
-0.000334325
-0.000342822
-0.000348038
-0.000349901
-0.000348348
-0.000343327
-0.000334791
-0.000322699
-0.000307015
-0.000287709
-0.000264756
-0.000238139
-0.000207843
-0.000173852
-0.000136159
-9.47565e-05
-4.96427e-05
-8.23751e-07
5.16875e-05
0.000107882
0.000167753
0.000231285
0.000298459
0.000369253
0.000443641
0.000521594
0.000603081
0.000688075
0.000776545
0.000868446
0.00096373
0.00106235
0.00116426
0.00126941
0.00137775
0.00148922
0.00160375
0.00172128
0.00184173
0.00196502
0.00209107
0.0022198
0.00235113
0.00248495
0.00262115
0.00275963
0.00290027
0.00304297
0.0031876
0.00333403
0.00348213
0.00363175
0.00378276
0.00393498
0.00408828
0.00424248
0.00439743
0.00455296
0.0047089
0.00486506
0.00502125
0.00517727
0.00533294
0.00548806
0.00564243
0.00579587
0.00594818
0.00609913
0.00624853
0.00639615
0.0065418
0.00668527
0.00682635
0.00696485
0.00710055
0.00723327
0.0073628
0.00748896
0.00761155
0.0077304
0.00784533
0.00795617
0.00806276
0.00816496
0.00826263
0.00835563
0.00844385
0.00852717
0.00860551
0.00867875
0.00874684
0.00880971
0.00886732
0.00891964
0.00896666
0.00900838
0.00904482
0.00907602
0.009102
0.00912284
0.0091386
0.00914939
0.0091553
0.00915647
0.00915304
0.00914517
0.00913303
0.00911681
0.0090967
0.00907293
0.0090457
0.00901525
0.00898183
0.00894568
0.00890707
0.00886628
0.00882358
0.00877926
0.00873361
0.00868691
0.00863946
0.00859155
0.00854347
0.00849548
0.00844788
0.00840093
0.00835487
0.00830994
0.00826637
0.00822435
0.00818407
0.00814566
0.00810942
0.00807557
0.00804203
0.0080067
0.000628046
0.000561083
0.000503108
0.000450024
0.000397361
0.000345446
0.000294654
0.000245033
0.000196656
0.000149644
0.000104124
6.02287e-05
1.80931e-05
-2.21446e-05
-6.03446e-05
-9.63688e-05
-0.000130085
-0.000161367
-0.000190095
-0.000216153
-0.000239431
-0.000259829
-0.000277257
-0.000291629
-0.000302867
-0.000310893
-0.000315642
-0.000317053
-0.000315072
-0.000309655
-0.00030076
-0.000288347
-0.000272387
-0.000252856
-0.000229733
-0.000203005
-0.000172653
-0.000138665
-0.000101033
-5.97555e-05
-1.48328e-05
3.37282e-05
8.59176e-05
0.000141729
0.000201156
0.000264183
0.000330787
0.000400949
0.000474647
0.000551851
0.000632535
0.000716675
0.000804237
0.000895179
0.000989453
0.00108702
0.00118783
0.00129185
0.00139901
0.00150926
0.00162255
0.0017388
0.00185795
0.0019799
0.0021046
0.00223195
0.00236189
0.00249429
0.00262906
0.0027661
0.0029053
0.00304654
0.00318971
0.00333469
0.00348132
0.00362949
0.00377904
0.00392982
0.00408168
0.00423446
0.00438799
0.00454213
0.00469668
0.00485148
0.00500632
0.00516103
0.00531539
0.00546924
0.00562237
0.0057746
0.00592572
0.00607552
0.00622379
0.00637032
0.00651491
0.00665735
0.00679745
0.00693499
0.00706979
0.00720163
0.00733033
0.00745568
0.00757751
0.00769563
0.00780986
0.00792005
0.00802603
0.00812765
0.00822478
0.00831727
0.00840502
0.00848791
0.00856585
0.00863873
0.00870648
0.00876905
0.00882639
0.00887847
0.00892528
0.00896682
0.00900312
0.00903418
0.00906006
0.00908082
0.00909652
0.00910726
0.00911315
0.00911432
0.00911089
0.00910304
0.00909092
0.00907472
0.00905464
0.00903088
0.00900365
0.00897319
0.00893973
0.00890351
0.00886479
0.00882383
0.00878092
0.00873631
0.00869029
0.00864312
0.00859509
0.00854649
0.00849758
0.00844861
0.00839985
0.00835154
0.00830392
0.0082572