/*--------------------------------*- C++ -*----------------------------------*\
  =========                 |
  \\      /  F ield         | OpenFOAM: The Open Source CFD Toolbox
   \\    /   O peration     | Website:  https://openfoam.org
    \\  /    A nd           | Version:  7
     \\/     M anipulation  |
\*---------------------------------------------------------------------------*/
FoamFile
{
    version     2.0;
    format      ascii;
    class       surfaceScalarField;
    location    "0.2375";
    object      phi;
}
// * * * * * * * * * * * * * * * * * * * * * * * * * * * * * * * * * * * * * //

dimensions      [0 3 -1 0 0 0 0];

internalField   nonuniform List<scalar> 
50880
(
7.43536e-12
-7.42805e-12
3.17582e-11
-2.43197e-11
6.13814e-11
-2.96244e-11
8.96157e-11
-2.82399e-11
1.11524e-10
-2.1909e-11
1.24096e-10
-1.25705e-11
1.25501e-10
-1.40639e-12
1.1471e-10
1.07921e-11
9.1218e-11
2.34918e-11
5.48823e-11
3.63352e-11
5.79964e-12
4.90786e-11
-5.57572e-11
6.15538e-11
-1.29402e-10
7.3641e-11
-2.14665e-10
8.52615e-11
-3.11026e-10
9.63639e-11
-4.17936e-10
1.06909e-10
-5.34815e-10
1.1688e-10
-6.61084e-10
1.26268e-10
-7.96156e-10
1.3507e-10
-9.39449e-10
1.43296e-10
-1.0904e-09
1.50947e-10
-1.24843e-09
1.58036e-10
-1.413e-09
1.64577e-10
-1.58358e-09
1.70581e-10
-1.75965e-09
1.76069e-10
-1.94071e-09
1.8106e-10
-2.12628e-09
1.85567e-10
-2.31589e-09
1.8961e-10
-2.5091e-09
1.93209e-10
-2.70548e-09
1.96377e-10
-2.90461e-09
1.99133e-10
-3.1061e-09
2.01493e-10
-3.30958e-09
2.03473e-10
-3.51467e-09
2.05089e-10
-3.72103e-09
2.06356e-10
-3.92832e-09
2.07291e-10
-4.13622e-09
2.07903e-10
-4.34443e-09
2.08206e-10
-4.55264e-09
2.08211e-10
-4.76057e-09
2.07928e-10
-4.96794e-09
2.07368e-10
-5.17448e-09
2.06544e-10
-5.37994e-09
2.0546e-10
-5.58407e-09
2.04124e-10
-5.78661e-09
2.02544e-10
-5.98734e-09
2.00728e-10
-6.18602e-09
1.98681e-10
-6.38243e-09
1.96407e-10
-6.57633e-09
1.93909e-10
-6.76753e-09
1.91195e-10
-6.9558e-09
1.88267e-10
-7.14093e-09
1.85129e-10
-7.32271e-09
1.81783e-10
-7.50095e-09
1.78233e-10
-7.67543e-09
1.74479e-10
-7.84596e-09
1.70524e-10
-8.01232e-09
1.66369e-10
-8.17434e-09
1.62015e-10
-8.3318e-09
1.57463e-10
-8.48451e-09
1.52713e-10
-8.63227e-09
1.47767e-10
-8.7749e-09
1.42625e-10
-8.91219e-09
1.37289e-10
-9.04396e-09
1.31764e-10
-9.17001e-09
1.2605e-10
-9.29016e-09
1.20147e-10
-9.40421e-09
1.14054e-10
-9.51198e-09
1.07775e-10
-9.61329e-09
1.01314e-10
-9.70797e-09
9.46722e-11
-9.79582e-09
8.78526e-11
-9.87668e-09
8.08591e-11
-9.95038e-09
7.36976e-11
-1.00168e-08
6.63723e-11
-1.00756e-08
5.88869e-11
-1.01269e-08
5.12464e-11
-1.01703e-08
4.34568e-11
-1.02059e-08
3.5527e-11
-1.02333e-08
2.74646e-11
-1.02526e-08
1.9277e-11
-1.02636e-08
1.09738e-11
-1.02661e-08
2.56471e-12
-1.02602e-08
-5.94039e-12
-1.02457e-08
-1.45303e-11
-1.02225e-08
-2.31939e-11
-1.01906e-08
-3.19185e-11
-1.01499e-08
-4.06893e-11
-1.01004e-08
-4.94926e-11
-1.00421e-08
-5.83151e-11
-9.97492e-09
-6.71413e-11
-9.89897e-09
-7.5955e-11
-9.81423e-09
-8.47393e-11
-9.72075e-09
-9.34765e-11
-9.6186e-09
-1.02149e-10
-9.50786e-09
-1.10741e-10
-9.38863e-09
-1.19232e-10
-9.26102e-09
-1.27603e-10
-9.12519e-09
-1.35836e-10
-8.98128e-09
-1.43909e-10
-8.82948e-09
-1.51801e-10
-8.66998e-09
-1.59493e-10
-8.50302e-09
-1.66964e-10
-8.32882e-09
-1.74195e-10
-8.14766e-09
-1.81164e-10
-7.95981e-09
-1.87853e-10
-7.76557e-09
-1.94241e-10
-7.56526e-09
-2.00305e-10
-7.35924e-09
-2.06027e-10
-7.14785e-09
-2.11389e-10
-6.93148e-09
-2.16371e-10
-6.71052e-09
-2.20955e-10
-6.4854e-09
-2.25125e-10
-6.25653e-09
-2.28863e-10
-6.02438e-09
-2.32154e-10
-5.7894e-09
-2.34982e-10
-5.55206e-09
-2.37332e-10
-5.31287e-09
-2.39192e-10
-5.07232e-09
-2.40548e-10
-4.83093e-09
-2.41392e-10
-4.58922e-09
-2.41711e-10
-4.34773e-09
-2.41496e-10
-4.10699e-09
-2.40741e-10
-3.86755e-09
-2.39439e-10
-3.62996e-09
-2.37586e-10
-3.39478e-09
-2.35177e-10
-3.16257e-09
-2.3221e-10
-2.93389e-09
-2.28685e-10
-2.70928e-09
-2.24602e-10
-2.48932e-09
-2.19962e-10
-2.27455e-09
-2.14769e-10
-2.06552e-09
-2.09031e-10
-1.86277e-09
-2.02754e-10
-1.66682e-09
-1.95947e-10
-1.4782e-09
-1.88619e-10
-1.29742e-09
-1.80782e-10
-1.12497e-09
-1.72451e-10
-9.61333e-10
-1.63639e-10
-8.06965e-10
-1.54366e-10
-6.62311e-10
-1.44653e-10
-5.2779e-10
-1.34522e-10
-4.03793e-10
-1.23996e-10
-2.90686e-10
-1.13106e-10
-1.88799e-10
-1.01886e-10
-9.84242e-11
-9.03747e-11
-1.98069e-11
-7.86179e-11
4.68634e-11
-6.66701e-11
1.01461e-10
-5.45969e-11
1.43938e-10
-4.24776e-11
1.74347e-10
-3.04103e-11
1.92865e-10
-1.85186e-11
1.9983e-10
-6.96301e-12
1.95788e-10
4.04351e-12
1.81571e-10
1.42166e-11
1.58403e-10
2.31671e-11
1.28055e-10
3.0349e-11
9.30636e-11
3.49932e-11
5.70269e-11
3.60367e-11
2.50194e-11
3.20068e-11
3.98221e-12
2.10367e-11
3.98159e-12
2.2349e-11
-2.97742e-11
6.95955e-11
-7.15737e-11
1.24269e-10
-8.42908e-11
1.72217e-10
-7.61871e-11
2.03534e-10
-5.3225e-11
2.11073e-10
-2.01095e-11
1.90013e-10
1.96524e-11
1.37295e-10
6.35089e-11
5.11612e-11
1.09629e-10
-6.91864e-11
1.56685e-10
-2.2384e-10
2.03741e-10
-4.12394e-10
2.50112e-10
-6.34061e-10
2.95309e-10
-8.87787e-10
3.38988e-10
-1.17233e-09
3.80904e-10
-1.48631e-09
4.20892e-10
-1.82827e-09
4.5884e-10
-2.19669e-09
4.94685e-10
-2.59002e-09
5.28399e-10
-3.0067e-09
5.59974e-10
-3.44518e-09
5.89423e-10
-3.90392e-09
6.16775e-10
-4.38141e-09
6.42065e-10
-4.87618e-09
6.65344e-10
-5.38678e-09
6.86666e-10
-5.9118e-09
7.06086e-10
-6.4499e-09
7.23664e-10
-6.99975e-09
7.39462e-10
-7.56008e-09
7.5354e-10
-8.12967e-09
7.65964e-10
-8.70733e-09
7.76796e-10
-9.29194e-09
7.86096e-10
-9.88238e-09
7.9392e-10
-1.04776e-08
8.00327e-10
-1.10766e-08
8.05371e-10
-1.16784e-08
8.09104e-10
-1.22821e-08
8.11581e-10
-1.28868e-08
8.12845e-10
-1.34915e-08
8.12936e-10
-1.40955e-08
8.11899e-10
-1.46979e-08
8.09773e-10
-1.52979e-08
8.06593e-10
-1.58948e-08
8.02389e-10
-1.64879e-08
7.97194e-10
-1.70764e-08
7.91036e-10
-1.76596e-08
7.83941e-10
-1.82369e-08
7.75929e-10
-1.88075e-08
7.67025e-10
-1.93708e-08
7.57247e-10
-1.99262e-08
7.46609e-10
-2.04731e-08
7.35125e-10
-2.10108e-08
7.2281e-10
-2.15387e-08
7.09674e-10
-2.20562e-08
6.95728e-10
-2.25627e-08
6.80981e-10
-2.30576e-08
6.6544e-10
-2.35403e-08
6.49111e-10
-2.40103e-08
6.32e-10
-2.4467e-08
6.14115e-10
-2.49097e-08
5.95461e-10
-2.5338e-08
5.76042e-10
-2.57512e-08
5.55862e-10
-2.61488e-08
5.34927e-10
-2.65303e-08
5.13242e-10
-2.68951e-08
4.90815e-10
-2.72426e-08
4.67652e-10
-2.75723e-08
4.43762e-10
-2.78837e-08
4.19156e-10
-2.81762e-08
3.93842e-10
-2.84494e-08
3.67831e-10
-2.87027e-08
3.41136e-10
-2.89356e-08
3.13771e-10
-2.91476e-08
2.85755e-10
-2.93384e-08
2.57107e-10
-2.95073e-08
2.27846e-10
-2.96541e-08
1.97997e-10
-2.97782e-08
1.67582e-10
-2.98793e-08
1.3663e-10
-2.9957e-08
1.05171e-10
-3.0011e-08
7.32387e-11
-3.00409e-08
4.08677e-11
-3.00464e-08
8.09705e-12
-3.00273e-08
-2.50334e-11
-2.99834e-08
-5.84807e-11
-2.99144e-08
-9.2198e-11
-2.98201e-08
-1.26138e-10
-2.97006e-08
-1.60249e-10
-2.95556e-08
-1.94475e-10
-2.93851e-08
-2.2876e-10
-2.91892e-08
-2.63044e-10
-2.89679e-08
-2.97267e-10
-2.87213e-08
-3.31365e-10
-2.84495e-08
-3.65272e-10
-2.81527e-08
-3.98919e-10
-2.78312e-08
-4.32236e-10
-2.74853e-08
-4.65151e-10
-2.71153e-08
-4.97592e-10
-2.67217e-08
-5.29483e-10
-2.63048e-08
-5.60747e-10
-2.58653e-08
-5.91306e-10
-2.54038e-08
-6.21082e-10
-2.49207e-08
-6.49999e-10
-2.44169e-08
-6.77978e-10
-2.38932e-08
-7.04939e-10
-2.33502e-08
-7.30806e-10
-2.27889e-08
-7.55501e-10
-2.22103e-08
-7.78949e-10
-2.16153e-08
-8.01073e-10
-2.10049e-08
-8.21799e-10
-2.03802e-08
-8.41057e-10
-1.97423e-08
-8.58778e-10
-1.90926e-08
-8.74894e-10
-1.84321e-08
-8.89343e-10
-1.77622e-08
-9.02064e-10
-1.70842e-08
-9.12996e-10
-1.63994e-08
-9.22087e-10
-1.57093e-08
-9.29286e-10
-1.50153e-08
-9.34546e-10
-1.43189e-08
-9.37824e-10
-1.36215e-08
-9.39083e-10
-1.29247e-08
-9.38291e-10
-1.223e-08
-9.35418e-10
-1.1539e-08
-9.3044e-10
-1.08533e-08
-9.23339e-10
-1.01744e-08
-9.14103e-10
-9.50385e-09
-9.02725e-10
-8.84333e-09
-8.89202e-10
-8.19439e-09
-8.73538e-10
-7.55861e-09
-8.55745e-10
-6.93754e-09
-8.35838e-10
-6.33274e-09
-8.13839e-10
-5.74571e-09
-7.89778e-10
-5.17797e-09
-7.63692e-10
-4.63097e-09
-7.35621e-10
-4.10613e-09
-7.05615e-10
-3.60486e-09
-6.73729e-10
-3.12847e-09
-6.40029e-10
-2.67824e-09
-6.04589e-10
-2.25541e-09
-5.67493e-10
-1.86109e-09
-5.28835e-10
-1.49636e-09
-4.88722e-10
-1.16219e-09
-4.47277e-10
-8.59439e-10
-4.04641e-10
-5.88838e-10
-3.60976e-10
-3.50981e-10
-3.16474e-10
-1.46289e-10
-2.71361e-10
2.50211e-11
-2.25907e-10
1.62978e-10
-1.80436e-10
2.67912e-10
-1.35345e-10
3.40524e-10
-9.1129e-11
3.81976e-10
-4.84138e-11
3.94018e-10
-7.99874e-12
3.79151e-10
2.90841e-11
3.40835e-10
6.14856e-11
2.83755e-10
8.743e-11
2.14143e-10
1.04603e-10
1.40101e-10
1.10077e-10
7.17855e-11
1.00322e-10
2.10263e-11
7.17942e-11
2.50072e-11
2.99606e-11
-5.9736e-11
8.41719e-11
-1.25782e-10
1.41184e-10
-1.41304e-10
1.83962e-10
-1.18966e-10
1.99658e-10
-6.89217e-11
1.78732e-10
8.18813e-13
1.14396e-10
8.39857e-11
2.07433e-12
1.7583e-10
-1.6106e-10
2.72756e-10
-3.76483e-10
3.72105e-10
-6.44626e-10
4.7188e-10
-9.65128e-10
5.70614e-10
-1.33703e-09
6.67218e-10
-1.75894e-09
7.60892e-10
-2.22911e-09
8.51071e-10
-2.74556e-09
9.37342e-10
-3.30615e-09
1.01943e-09
-3.90861e-09
1.09715e-09
-4.55062e-09
1.17041e-09
-5.2298e-09
1.23915e-09
-5.94376e-09
1.30339e-09
-6.69014e-09
1.36316e-09
-7.46658e-09
1.41851e-09
-8.27077e-09
1.46954e-09
-9.10045e-09
1.51634e-09
-9.95341e-09
1.55904e-09
-1.08275e-08
1.59774e-09
-1.17206e-08
1.63257e-09
-1.26307e-08
1.66365e-09
-1.35559e-08
1.69112e-09
-1.44942e-08
1.7151e-09
-1.54438e-08
1.73572e-09
-1.6403e-08
1.75309e-09
-1.737e-08
1.76735e-09
-1.83432e-08
1.77861e-09
-1.93211e-08
1.78697e-09
-2.0302e-08
1.79254e-09
-2.12846e-08
1.79543e-09
-2.22674e-08
1.79573e-09
-2.32491e-08
1.79352e-09
-2.42282e-08
1.78889e-09
-2.52035e-08
1.78191e-09
-2.61738e-08
1.77267e-09
-2.71378e-08
1.76122e-09
-2.80944e-08
1.74762e-09
-2.90424e-08
1.73193e-09
-2.99806e-08
1.71421e-09
-3.09081e-08
1.69449e-09
-3.18237e-08
1.67282e-09
-3.27263e-08
1.64924e-09
-3.3615e-08
1.62378e-09
-3.44886e-08
1.59646e-09
-3.53463e-08
1.56733e-09
-3.61869e-08
1.53638e-09
-3.70096e-08
1.50366e-09
-3.78134e-08
1.46918e-09
-3.85972e-08
1.43295e-09
-3.93602e-08
1.39498e-09
-4.01013e-08
1.3553e-09
-4.08198e-08
1.31391e-09
-4.15146e-08
1.27083e-09
-4.21848e-08
1.22607e-09
-4.28295e-08
1.17965e-09
-4.34478e-08
1.13158e-09
-4.40389e-08
1.08187e-09
-4.46018e-08
1.03054e-09
-4.51356e-08
9.7761e-10
-4.56396e-08
9.23106e-10
-4.61128e-08
8.67049e-10
-4.65544e-08
8.09467e-10
-4.69637e-08
7.50389e-10
-4.73398e-08
6.89851e-10
-4.76819e-08
6.27889e-10
-4.79893e-08
5.64545e-10
-4.82613e-08
4.99867e-10
-4.84973e-08
4.33907e-10
-4.86964e-08
3.66722e-10
-4.88581e-08
2.98373e-10
-4.89819e-08
2.28927e-10
-4.90671e-08
1.58457e-10
-4.91133e-08
8.70418e-11
-4.912e-08
1.47649e-11
-4.90867e-08
-5.82829e-11
-4.90132e-08
-1.32007e-10
-4.88991e-08
-2.06304e-10
-4.87441e-08
-2.81067e-10
-4.85482e-08
-3.56185e-10
-4.83111e-08
-4.31537e-10
-4.80329e-08
-5.06999e-10
-4.77135e-08
-5.82439e-10
-4.73531e-08
-6.57724e-10
-4.69517e-08
-7.32713e-10
-4.65097e-08
-8.07263e-10
-4.60274e-08
-8.81224e-10
-4.55052e-08
-9.54442e-10
-4.49436e-08
-1.02676e-09
-4.43432e-08
-1.09802e-09
-4.37046e-08
-1.16805e-09
-4.30286e-08
-1.23669e-09
-4.23162e-08
-1.30378e-09
-4.15681e-08
-1.36913e-09
-4.07855e-08
-1.43259e-09
-3.99695e-08
-1.49398e-09
-3.91213e-08
-1.55313e-09
-3.82423e-08
-1.60987e-09
-3.73338e-08
-1.66403e-09
-3.63973e-08
-1.71545e-09
-3.54344e-08
-1.76397e-09
-3.44468e-08
-1.80942e-09
-3.34362e-08
-1.85164e-09
-3.24044e-08
-1.8905e-09
-3.13535e-08
-1.92585e-09
-3.02853e-08
-1.95753e-09
-2.92019e-08
-1.98543e-09
-2.81055e-08
-2.00942e-09
-2.69982e-08
-2.02938e-09
-2.58823e-08
-2.0452e-09
-2.47601e-08
-2.05677e-09
-2.36339e-08
-2.06402e-09
-2.25061e-08
-2.06685e-09
-2.13792e-08
-2.06519e-09
-2.02556e-08
-2.05899e-09
-1.91379e-08
-2.04819e-09
-1.80285e-08
-2.03276e-09
-1.69299e-08
-2.01267e-09
-1.58447e-08
-1.98791e-09
-1.47754e-08
-1.95847e-09
-1.37246e-08
-1.92437e-09
-1.26947e-08
-1.88564e-09
-1.16882e-08
-1.8423e-09
-1.07077e-08
-1.79441e-09
-9.75541e-09
-1.74205e-09
-8.83382e-09
-1.68528e-09
-7.94523e-09
-1.62421e-09
-7.0919e-09
-1.55895e-09
-6.276e-09
-1.48963e-09
-5.49962e-09
-1.4164e-09
-4.76478e-09
-1.33943e-09
-4.07336e-09
-1.25891e-09
-3.42714e-09
-1.17506e-09
-2.82773e-09
-1.08813e-09
-2.27661e-09
-9.98395e-10
-1.77507e-09
-9.06184e-10
-1.32418e-09
-8.11871e-10
-9.2476e-10
-7.15891e-10
-5.77365e-10
-6.18757e-10
-2.82199e-10
-5.21074e-10
-3.90638e-11
-4.23571e-10
1.52719e-10
-3.27127e-10
2.94411e-10
-2.32821e-10
3.87984e-10
-1.41988e-10
4.36282e-10
-5.62966e-11
4.43212e-10
2.2154e-11
4.13986e-10
9.07136e-11
3.5538e-10
1.46035e-10
2.76031e-10
1.83952e-10
1.86679e-10
1.99428e-10
1.00291e-10
1.86709e-10
3.19703e-11
1.40113e-10
5.69771e-11
2.87509e-11
-8.84903e-11
7.71617e-11
-1.74193e-10
1.20404e-10
-1.84548e-10
1.39862e-10
-1.38424e-10
1.21239e-10
-5.02989e-11
5.37289e-11
6.83283e-11
-7.05935e-11
2.08312e-10
-2.57259e-10
3.62494e-10
-5.09845e-10
5.25346e-10
-8.30352e-10
6.9261e-10
-1.21952e-09
8.61047e-10
-1.6771e-09
1.02819e-09
-2.20207e-09
1.19219e-09
-2.79281e-09
1.35163e-09
-3.44723e-09
1.5055e-09
-4.16293e-09
1.65304e-09
-4.93723e-09
1.79373e-09
-5.76728e-09
1.9272e-09
-6.6501e-09
2.05322e-09
-7.58264e-09
2.1717e-09
-8.56183e-09
2.28258e-09
-9.58457e-09
2.38589e-09
-1.06478e-08
2.48172e-09
-1.17484e-08
2.57019e-09
-1.28835e-08
2.65143e-09
-1.40501e-08
2.72563e-09
-1.52453e-08
2.79296e-09
-1.64664e-08
2.85363e-09
-1.77106e-08
2.90784e-09
-1.89753e-08
2.9558e-09
-2.02579e-08
2.99772e-09
-2.1556e-08
3.0338e-09
-2.28671e-08
3.06425e-09
-2.41891e-08
3.08928e-09
-2.55195e-08
3.10906e-09
-2.68563e-08
3.12379e-09
-2.81974e-08
3.13366e-09
-2.95408e-08
3.13881e-09
-3.08845e-08
3.13943e-09
-3.22267e-08
3.13565e-09
-3.35654e-08
3.12763e-09
-3.4899e-08
3.11549e-09
-3.62257e-08
3.09935e-09
-3.75438e-08
3.07934e-09
-3.88517e-08
3.05556e-09
-4.01479e-08
3.0281e-09
-4.14308e-08
2.99705e-09
-4.26988e-08
2.9625e-09
-4.39505e-08
2.92451e-09
-4.51844e-08
2.88315e-09
-4.63991e-08
2.83848e-09
-4.75932e-08
2.79056e-09
-4.87653e-08
2.73942e-09
-4.9914e-08
2.68511e-09
-5.1038e-08
2.62768e-09
-5.2136e-08
2.56715e-09
-5.32066e-08
2.50356e-09
-5.42485e-08
2.43693e-09
-5.52605e-08
2.36728e-09
-5.62413e-08
2.29465e-09
-5.71895e-08
2.21907e-09
-5.8104e-08
2.14054e-09
-5.89834e-08
2.05911e-09
-5.98267e-08
1.9748e-09
-6.06324e-08
1.88764e-09
-6.13996e-08
1.79766e-09
-6.21269e-08
1.7049e-09
-6.28131e-08
1.6094e-09
-6.34573e-08
1.51119e-09
-6.40582e-08
1.41034e-09
-6.46147e-08
1.3069e-09
-6.51258e-08
1.20093e-09
-6.55904e-08
1.09249e-09
-6.60075e-08
9.81669e-10
-6.63762e-08
8.68544e-10
-6.66955e-08
7.53208e-10
-6.69645e-08
6.35761e-10
-6.71824e-08
5.16313e-10
-6.73485e-08
3.94982e-10
-6.74619e-08
2.71896e-10
-6.75221e-08
1.47194e-10
-6.75283e-08
2.10215e-11
-6.74802e-08
-1.06464e-10
-6.73771e-08
-2.35094e-10
-6.72187e-08
-3.64691e-10
-6.70047e-08
-4.95069e-10
-6.67348e-08
-6.26029e-10
-6.6409e-08
-7.57365e-10
-6.60271e-08
-8.88861e-10
-6.55893e-08
-1.02029e-09
-6.50956e-08
-1.15142e-09
-6.45463e-08
-1.282e-09
-6.39418e-08
-1.41179e-09
-6.32825e-08
-1.54052e-09
-6.2569e-08
-1.66794e-09
-6.1802e-08
-1.79376e-09
-6.09823e-08
-1.91772e-09
-6.01108e-08
-2.03952e-09
-5.91886e-08
-2.15888e-09
-5.82169e-08
-2.27552e-09
-5.71969e-08
-2.38913e-09
-5.61301e-08
-2.49942e-09
-5.50179e-08
-2.60611e-09
-5.38622e-08
-2.70889e-09
-5.26645e-08
-2.80748e-09
-5.1427e-08
-2.90158e-09
-5.01515e-08
-2.99091e-09
-4.88403e-08
-3.07519e-09
-4.74956e-08
-3.15414e-09
-4.61197e-08
-3.2275e-09
-4.47152e-08
-3.29501e-09
-4.32846e-08
-3.35642e-09
-4.18307e-08
-3.41148e-09
-4.03562e-08
-3.45998e-09
-3.88639e-08
-3.50169e-09
-3.73569e-08
-3.53641e-09
-3.58381e-08
-3.56396e-09
-3.43107e-08
-3.58416e-09
-3.27779e-08
-3.59686e-09
-3.12428e-08
-3.60191e-09
-2.97088e-08
-3.59921e-09
-2.81791e-08
-3.58863e-09
-2.66572e-08
-3.57011e-09
-2.51464e-08
-3.54358e-09
-2.36501e-08
-3.50899e-09
-2.21717e-08
-3.46632e-09
-2.07146e-08
-3.41558e-09
-1.92822e-08
-3.35679e-09
-1.78778e-08
-3.29e-09
-1.65048e-08
-3.21527e-09
-1.51665e-08
-3.13271e-09
-1.38661e-08
-3.04244e-09
-1.26068e-08
-2.94459e-09
-1.13917e-08
-2.83935e-09
-1.02237e-08
-2.72692e-09
-9.10582e-09
-2.60753e-09
-8.04076e-09
-2.48146e-09
-7.03118e-09
-2.34901e-09
-6.07957e-09
-2.21053e-09
-5.18823e-09
-2.0664e-09
-4.35927e-09
-1.91709e-09
-3.59458e-09
-1.76309e-09
-2.89578e-09
-1.60498e-09
-2.26421e-09
-1.44344e-09
-1.70085e-09
-1.27925e-09
-1.20631e-09
-1.1133e-09
-7.80725e-10
-9.4666e-10
-4.237e-10
-7.80597e-10
-1.34201e-10
-6.16624e-10
8.95506e-11
-4.56571e-10
2.50229e-10
-3.02666e-10
3.51568e-10
-1.57636e-10
3.98558e-10
-2.48365e-11
3.9767e-10
9.16021e-11
3.57093e-10
1.86613e-10
2.86986e-10
2.54059e-10
1.99728e-10
2.86685e-10
1.10155e-10
2.7628e-10
3.59932e-11
2.14275e-10
9.29706e-11
2.26331e-11
-1.11123e-10
5.47796e-11
-2.06339e-10
7.13206e-11
-2.0109e-10
5.31487e-11
-1.2025e-10
-1.45626e-11
1.74078e-11
-1.43151e-10
1.96917e-10
-3.41076e-10
4.06234e-10
-6.1437e-10
6.35789e-10
-9.67048e-10
8.78023e-10
-1.40144e-09
1.12701e-09
-1.91851e-09
1.37812e-09
-2.5181e-09
1.62777e-09
-3.19913e-09
1.87322e-09
-3.95985e-09
2.11235e-09
-4.79793e-09
2.34358e-09
-5.71061e-09
2.56572e-09
-6.69481e-09
2.77793e-09
-7.74721e-09
2.97959e-09
-8.8643e-09
3.17032e-09
-1.00425e-08
3.34989e-09
-1.12781e-08
3.51818e-09
-1.25674e-08
3.6752e-09
-1.39067e-08
3.82104e-09
-1.52924e-08
3.95583e-09
-1.67207e-08
4.07976e-09
-1.81881e-08
4.19306e-09
-1.96912e-08
4.296e-09
-2.12264e-08
4.38884e-09
-2.27904e-08
4.47188e-09
-2.438e-08
4.54541e-09
-2.5992e-08
4.60974e-09
-2.76234e-08
4.66517e-09
-2.92712e-08
4.712e-09
-3.09324e-08
4.75051e-09
-3.26043e-08
4.78101e-09
-3.42843e-08
4.80375e-09
-3.59696e-08
4.819e-09
-3.76579e-08
4.82703e-09
-3.93465e-08
4.82806e-09
-4.10332e-08
4.82233e-09
-4.27156e-08
4.81004e-09
-4.43915e-08
4.79141e-09
-4.60588e-08
4.76661e-09
-4.77152e-08
4.73582e-09
-4.93589e-08
4.6992e-09
-5.09877e-08
4.65689e-09
-5.25997e-08
4.60904e-09
-5.41929e-08
4.55576e-09
-5.57656e-08
4.49717e-09
-5.73158e-08
4.43337e-09
-5.88418e-08
4.36445e-09
-6.03417e-08
4.2905e-09
-6.18139e-08
4.21158e-09
-6.32565e-08
4.12777e-09
-6.4668e-08
4.03912e-09
-6.60465e-08
3.9457e-09
-6.73905e-08
3.84754e-09
-6.86983e-08
3.74471e-09
-6.99682e-08
3.63724e-09
-7.11987e-08
3.52517e-09
-7.23882e-08
3.40855e-09
-7.35351e-08
3.28741e-09
-7.46378e-08
3.16182e-09
-7.56948e-08
3.0318e-09
-7.67046e-08
2.8974e-09
-7.76656e-08
2.75869e-09
-7.85764e-08
2.61572e-09
-7.94356e-08
2.46855e-09
-8.02416e-08
2.31726e-09
-8.09932e-08
2.16193e-09
-8.1689e-08
2.00264e-09
-8.23275e-08
1.83949e-09
-8.29076e-08
1.6726e-09
-8.3428e-08
1.50207e-09
-8.38875e-08
1.32804e-09
-8.4285e-08
1.15066e-09
-8.46193e-08
9.70075e-10
-8.48894e-08
7.86461e-10
-8.50944e-08
6.00001e-10
-8.52334e-08
4.10892e-10
-8.53056e-08
2.19346e-10
-8.53102e-08
2.55914e-11
-8.52465e-08
-1.70131e-10
-8.5114e-08
-3.67563e-10
-8.49123e-08
-5.66432e-10
-8.46409e-08
-7.66451e-10
-8.42996e-08
-9.67319e-10
-8.38883e-08
-1.16872e-09
-8.34068e-08
-1.37031e-09
-8.28553e-08
-1.57176e-09
-8.2234e-08
-1.77271e-09
-8.15433e-08
-1.97279e-09
-8.07834e-08
-2.1716e-09
-7.99552e-08
-2.36876e-09
-7.90593e-08
-2.56387e-09
-7.80965e-08
-2.7565e-09
-7.7068e-08
-2.94624e-09
-7.59749e-08
-3.13266e-09
-7.48184e-08
-3.31531e-09
-7.36002e-08
-3.49376e-09
-7.23218e-08
-3.66757e-09
-7.09849e-08
-3.83628e-09
-6.95916e-08
-3.99945e-09
-6.81438e-08
-4.15663e-09
-6.66439e-08
-4.30739e-09
-6.50942e-08
-4.45128e-09
-6.34973e-08
-4.58787e-09
-6.18557e-08
-4.71673e-09
-6.01724e-08
-4.83745e-09
-5.84503e-08
-4.94963e-09
-5.66924e-08
-5.05286e-09
-5.49021e-08
-5.14678e-09
-5.30825e-08
-5.23101e-09
-5.12373e-08
-5.30522e-09
-4.93699e-08
-5.36907e-09
-4.74841e-08
-5.42227e-09
-4.55835e-08
-5.46453e-09
-4.36721e-08
-5.49559e-09
-4.17537e-08
-5.51521e-09
-3.98324e-08
-5.52319e-09
-3.79123e-08
-5.51934e-09
-3.59974e-08
-5.50352e-09
-3.40919e-08
-5.4756e-09
-3.22e-08
-5.43548e-09
-3.03259e-08
-5.3831e-09
-2.84738e-08
-5.31845e-09
-2.66478e-08
-5.24153e-09
-2.48523e-08
-5.15237e-09
-2.30912e-08
-5.05106e-09
-2.13688e-08
-4.9377e-09
-1.9689e-08
-4.81246e-09
-1.80559e-08
-4.67553e-09
-1.64734e-08
-4.52713e-09
-1.49452e-08
-4.36755e-09
-1.3475e-08
-4.19711e-09
-1.20664e-08
-4.01617e-09
-1.07226e-08
-3.82517e-09
-9.44706e-09
-3.62459e-09
-8.2426e-09
-3.41498e-09
-7.11206e-09
-3.19695e-09
-6.05794e-09
-2.9712e-09
-5.08249e-09
-2.73854e-09
-4.1876e-09
-2.49987e-09
-3.37482e-09
-2.25623e-09
-2.64523e-09
-2.00883e-09
-1.99947e-09
-1.75906e-09
-1.43758e-09
-1.50855e-09
-9.58983e-10
-1.2592e-09
-5.62323e-10
-1.01328e-09
-2.45385e-10
-7.73509e-10
-4.93651e-12
-5.43115e-10
1.63436e-10
-3.26007e-10
2.655e-10
-1.26899e-10
3.08586e-10
4.85156e-11
3.018e-10
1.93398e-10
2.56254e-10
2.99604e-10
1.85347e-10
3.57591e-10
1.05135e-10
3.56491e-10
3.50303e-11
2.8438e-10
1.28001e-10
1.33793e-11
-1.24501e-10
2.19286e-11
-2.14889e-10
2.00592e-12
-1.81168e-10
-6.4874e-11
-5.33698e-11
-1.93284e-10
1.4582e-10
-3.94516e-10
3.98146e-10
-6.77084e-10
6.88802e-10
-1.04716e-09
1.00586e-09
-1.5089e-09
1.33976e-09
-2.06478e-09
1.68289e-09
-2.71584e-09
2.02918e-09
-3.46195e-09
2.37388e-09
-4.302e-09
2.71327e-09
-5.23409e-09
3.04444e-09
-6.25568e-09
3.36518e-09
-7.36376e-09
3.6738e-09
-8.55491e-09
3.96907e-09
-9.82541e-09
4.25009e-09
-1.11713e-08
4.51625e-09
-1.25886e-08
4.76716e-09
-1.40731e-08
5.00263e-09
-1.56204e-08
5.22259e-09
-1.72265e-08
5.42711e-09
-1.8887e-08
5.61634e-09
-2.05978e-08
5.79052e-09
-2.23546e-08
5.94991e-09
-2.41535e-08
6.09486e-09
-2.59904e-08
6.22571e-09
-2.78613e-08
6.34284e-09
-2.97626e-08
6.44665e-09
-3.16904e-08
6.53755e-09
-3.36411e-08
6.61592e-09
-3.56113e-08
6.68219e-09
-3.75976e-08
6.73673e-09
-3.95965e-08
6.77994e-09
-4.16049e-08
6.8122e-09
-4.36198e-08
6.83387e-09
-4.56381e-08
6.84528e-09
-4.76568e-08
6.84679e-09
-4.96731e-08
6.83868e-09
-5.16844e-08
6.82128e-09
-5.36878e-08
6.79484e-09
-5.56808e-08
6.75964e-09
-5.76609e-08
6.71591e-09
-5.96256e-08
6.66388e-09
-6.15725e-08
6.60376e-09
-6.34992e-08
6.53573e-09
-6.54034e-08
6.45997e-09
-6.72829e-08
6.37665e-09
-6.91354e-08
6.28589e-09
-7.09588e-08
6.18785e-09
-7.27509e-08
6.08263e-09
-7.45097e-08
5.97035e-09
-7.6233e-08
5.8511e-09
-7.79189e-08
5.72496e-09
-7.95652e-08
5.59203e-09
-8.117e-08
5.45238e-09
-8.27314e-08
5.30608e-09
-8.42474e-08
5.15319e-09
-8.5716e-08
4.99377e-09
-8.71353e-08
4.8279e-09
-8.85036e-08
4.65564e-09
-8.98188e-08
4.47706e-09
-9.10792e-08
4.29221e-09
-9.2283e-08
4.10118e-09
-9.34283e-08
3.90405e-09
-9.45135e-08
3.7009e-09
-9.55368e-08
3.49184e-09
-9.64965e-08
3.27696e-09
-9.7391e-08
3.05638e-09
-9.82186e-08
2.83024e-09
-9.89777e-08
2.59867e-09
-9.9667e-08
2.36184e-09
-1.00285e-07
2.11991e-09
-1.0083e-07
1.87307e-09
-1.01301e-07
1.62153e-09
-1.01696e-07
1.36552e-09
-1.02015e-07
1.10527e-09
-1.02256e-07
8.41048e-10
-1.02418e-07
5.73136e-10
-1.02501e-07
3.01833e-10
-1.02503e-07
2.74657e-11
-1.02423e-07
-2.49623e-10
-1.02262e-07
-5.2907e-10
-1.02018e-07
-8.10488e-10
-1.01691e-07
-1.09347e-09
-1.0128e-07
-1.3776e-09
-1.00787e-07
-1.66241e-09
-1.00209e-07
-1.94745e-09
-9.9549e-08
-2.23222e-09
-9.88055e-08
-2.51623e-09
-9.79793e-08
-2.79895e-09
-9.70711e-08
-3.07984e-09
-9.60815e-08
-3.35834e-09
-9.50115e-08
-3.6339e-09
-9.3862e-08
-3.90591e-09
-9.26345e-08
-4.1738e-09
-9.13302e-08
-4.43696e-09
-8.99507e-08
-4.69477e-09
-8.84978e-08
-4.94662e-09
-8.69735e-08
-5.19189e-09
-8.53799e-08
-5.42994e-09
-8.37192e-08
-5.66015e-09
-8.19939e-08
-5.8819e-09
-8.02067e-08
-6.09457e-09
-7.83604e-08
-6.29755e-09
-7.64581e-08
-6.49022e-09
-7.45028e-08
-6.67199e-09
-7.2498e-08
-6.84228e-09
-7.04471e-08
-7.00053e-09
-6.83538e-08
-7.14618e-09
-6.62219e-08
-7.27871e-09
-6.40553e-08
-7.3976e-09
-6.18581e-08
-7.50239e-09
-5.96346e-08
-7.59261e-09
-5.7389e-08
-7.66783e-09
-5.51259e-08
-7.72767e-09
-5.28497e-08
-7.77177e-09
-5.05651e-08
-7.79979e-09
-4.82769e-08
-7.81144e-09
-4.59897e-08
-7.80648e-09
-4.37085e-08
-7.7847e-09
-4.14382e-08
-7.74592e-09
-3.91837e-08
-7.69003e-09
-3.69498e-08
-7.61695e-09
-3.47416e-08
-7.52663e-09
-3.2564e-08
-7.41911e-09
-3.0422e-08
-7.29444e-09
-2.83203e-08
-7.15275e-09
-2.62638e-08
-6.99419e-09
-2.42572e-08
-6.81901e-09
-2.23053e-08
-6.62747e-09
-2.04125e-08
-6.41991e-09
-1.85833e-08
-6.19675e-09
-1.6822e-08
-5.95845e-09
-1.51326e-08
-5.70555e-09
-1.35191e-08
-5.43866e-09
-1.19852e-08
-5.15848e-09
-1.05344e-08
-4.86581e-09
-9.16978e-09
-4.56154e-09
-7.8943e-09
-4.24668e-09
-6.71046e-09
-3.92237e-09
-5.62041e-09
-3.58992e-09
-4.62583e-09
-3.25081e-09
-3.72792e-09
-2.90674e-09
-2.9273e-09
-2.55968e-09
-2.22395e-09
-2.21189e-09
-1.61713e-09
-1.86602e-09
-1.10522e-09
-1.52519e-09
-6.85676e-10
-1.19305e-09
-3.54848e-10
-8.73942e-10
-1.07851e-10
-5.73003e-10
6.16085e-11
-2.96359e-10
1.61406e-10
-5.12834e-11
2.01196e-10
1.53609e-10
1.92629e-10
3.08171e-10
1.49657e-10
4.00562e-10
8.89469e-11
4.17202e-10
3.06123e-11
3.42715e-10
1.58613e-10
2.22735e-12
-1.2673e-10
-1.78185e-11
-1.94842e-10
-8.12763e-11
-1.17714e-10
-2.05195e-10
7.05517e-11
-4.03263e-10
3.43885e-10
-6.86217e-10
6.81101e-10
-1.06225e-09
1.06484e-09
-1.53736e-09
1.48096e-09
-2.11559e-09
1.91799e-09
-2.79936e-09
2.36666e-09
-3.58967e-09
2.81949e-09
-4.48631e-09
3.27053e-09
-5.48809e-09
3.71504e-09
-6.59295e-09
4.1493e-09
-7.79819e-09
4.57042e-09
-9.10054e-09
4.97615e-09
-1.04963e-08
5.36482e-09
-1.19814e-08
5.73521e-09
-1.35516e-08
6.08644e-09
-1.52024e-08
6.41794e-09
-1.69291e-08
6.72938e-09
-1.87272e-08
7.02063e-09
-2.05918e-08
7.29172e-09
-2.25182e-08
7.54279e-09
-2.45018e-08
7.77409e-09
-2.65379e-08
7.98596e-09
-2.86218e-08
8.17878e-09
-3.0749e-08
8.35298e-09
-3.29152e-08
8.50904e-09
-3.5116e-08
8.64746e-09
-3.73472e-08
8.76872e-09
-3.96047e-08
8.87335e-09
-4.18843e-08
8.96186e-09
-4.41823e-08
9.03475e-09
-4.64949e-08
9.09252e-09
-4.88184e-08
9.13565e-09
-5.11491e-08
9.16462e-09
-5.34837e-08
9.17987e-09
-5.58187e-08
9.18183e-09
-5.8151e-08
9.17091e-09
-6.04772e-08
9.14751e-09
-6.27943e-08
9.11198e-09
-6.50994e-08
9.06467e-09
-6.73894e-08
9.00589e-09
-6.96614e-08
8.93595e-09
-7.19128e-08
8.85512e-09
-7.41407e-08
8.76364e-09
-7.63425e-08
8.66177e-09
-7.85156e-08
8.5497e-09
-8.06573e-08
8.42764e-09
-8.27652e-08
8.29575e-09
-8.48368e-08
8.15421e-09
-8.68696e-08
8.00316e-09
-8.88612e-08
7.84274e-09
-9.08093e-08
7.67306e-09
-9.27115e-08
7.49425e-09
-9.45656e-08
7.3064e-09
-9.63691e-08
7.10961e-09
-9.81199e-08
6.90399e-09
-9.98157e-08
6.68961e-09
-1.01454e-07
6.46658e-09
-1.03034e-07
6.23499e-09
-1.04552e-07
5.99492e-09
-1.06006e-07
5.74647e-09
-1.07394e-07
5.48976e-09
-1.08715e-07
5.2249e-09
-1.09966e-07
4.952e-09
-1.11146e-07
4.6712e-09
-1.12251e-07
4.38266e-09
-1.13282e-07
4.08652e-09
-1.14234e-07
3.78297e-09
-1.15108e-07
3.47221e-09
-1.15901e-07
3.15445e-09
-1.16611e-07
2.82992e-09
-1.17236e-07
2.49888e-09
-1.17776e-07
2.16161e-09
-1.18229e-07
1.81841e-09
-1.18594e-07
1.46961e-09
-1.18868e-07
1.11557e-09
-1.19052e-07
7.56663e-10
-1.19143e-07
3.93293e-10
-1.19142e-07
2.58955e-11
-1.19046e-07
-3.45067e-10
-1.18856e-07
-7.19107e-10
-1.18571e-07
-1.09571e-09
-1.1819e-07
-1.47433e-09
-1.17713e-07
-1.8544e-09
-1.1714e-07
-2.23532e-09
-1.16471e-07
-2.61646e-09
-1.15706e-07
-2.99719e-09
-1.14846e-07
-3.37682e-09
-1.1389e-07
-3.75466e-09
-1.1284e-07
-4.13e-09
-1.11696e-07
-4.50209e-09
-1.1046e-07
-4.87018e-09
-1.09132e-07
-5.23349e-09
-1.07715e-07
-5.59124e-09
-1.06209e-07
-5.94262e-09
-1.04617e-07
-6.28683e-09
-1.02941e-07
-6.62304e-09
-1.01182e-07
-6.95043e-09
-9.93439e-08
-7.26816e-09
-9.74287e-08
-7.5754e-09
-9.54392e-08
-7.87134e-09
-9.33787e-08
-8.15514e-09
-9.12502e-08
-8.426e-09
-8.90573e-08
-8.68311e-09
-8.68036e-08
-8.92568e-09
-8.4493e-08
-9.15294e-09
-8.21294e-08
-9.36415e-09
-7.9717e-08
-9.55858e-09
-7.72601e-08
-9.73553e-09
-7.47634e-08
-9.89432e-09
-7.22315e-08
-1.00343e-08
-6.96691e-08
-1.0155e-08
-6.70813e-08
-1.02556e-08
-6.44731e-08
-1.03359e-08
-6.18498e-08
-1.03951e-08
-5.92165e-08
-1.0433e-08
-5.65788e-08
-1.04492e-08
-5.3942e-08
-1.04432e-08
-5.13117e-08
-1.0415e-08
-4.86935e-08
-1.03641e-08
-4.6093e-08
-1.02906e-08
-4.35158e-08
-1.01942e-08
-4.09675e-08
-1.00749e-08
-3.84538e-08
-9.93282e-09
-3.59803e-08
-9.76801e-09
-3.35524e-08
-9.58063e-09
-3.11756e-08
-9.37093e-09
-2.88555e-08
-9.1392e-09
-2.65971e-08
-8.88584e-09
-2.44057e-08
-8.61132e-09
-2.22862e-08
-8.31619e-09
-2.02436e-08
-8.0011e-09
-1.82824e-08
-7.66677e-09
-1.6407e-08
-7.31405e-09
-1.46216e-08
-6.94389e-09
-1.293e-08
-6.55737e-09
-1.13359e-08
-6.15569e-09
-9.84231e-09
-5.74024e-09
-8.45213e-09
-5.31256e-09
-7.16766e-09
-4.87439e-09
-5.99075e-09
-4.42772e-09
-4.92267e-09
-3.97483e-09
-3.96405e-09
-3.5183e-09
-3.11482e-09
-3.06112e-09
-2.37411e-09
-2.60674e-09
-1.74013e-09
-2.15917e-09
-1.21011e-09
-1.72308e-09
-7.80112e-10
-1.30393e-09
-4.44961e-10
-9.08155e-10
-1.98053e-10
-5.43269e-10
-3.12195e-11
-2.18117e-10
6.54499e-11
5.69406e-11
1.03817e-10
2.69803e-10
9.79806e-11
4.06398e-10
6.46666e-11
4.50516e-10
2.38454e-11
3.83537e-10
1.82459e-10
-1.00163e-11
-1.16714e-10
-6.19338e-11
-1.42923e-10
-1.73871e-10
-5.77826e-12
-3.60898e-10
2.57576e-10
-6.35337e-10
6.18324e-10
-1.00699e-09
1.05276e-09
-1.48341e-09
1.54125e-09
-2.0701e-09
2.06766e-09
-2.77083e-09
2.61872e-09
-3.58775e-09
3.18358e-09
-4.52169e-09
3.75343e-09
-5.57229e-09
4.32112e-09
-6.73816e-09
4.88092e-09
-8.01711e-09
5.42825e-09
-9.40621e-09
5.95952e-09
-1.0902e-08
6.47191e-09
-1.25004e-08
6.96327e-09
-1.41972e-08
7.43202e-09
-1.59878e-08
7.87699e-09
-1.78672e-08
8.2974e-09
-1.98306e-08
8.69276e-09
-2.18728e-08
9.06285e-09
-2.39887e-08
9.40763e-09
-2.61732e-08
9.72723e-09
-2.8421e-08
1.00219e-08
-3.07271e-08
1.0292e-08
-3.30864e-08
1.05381e-08
-3.54939e-08
1.07605e-08
-3.79447e-08
1.09599e-08
-4.04341e-08
1.11368e-08
-4.29573e-08
1.12919e-08
-4.55098e-08
1.14258e-08
-4.80871e-08
1.15391e-08
-5.06848e-08
1.16325e-08
-5.32987e-08
1.17064e-08
-5.59247e-08
1.17616e-08
-5.85588e-08
1.17987e-08
-6.1197e-08
1.18181e-08
-6.38356e-08
1.18204e-08
-6.64709e-08
1.18062e-08
-6.90993e-08
1.17759e-08
-7.17173e-08
1.173e-08
-7.43216e-08
1.16689e-08
-7.69086e-08
1.1593e-08
-7.94754e-08
1.15027e-08
-8.20186e-08
1.13983e-08
-8.45351e-08
1.12802e-08
-8.70221e-08
1.11487e-08
-8.94764e-08