/*--------------------------------*- C++ -*----------------------------------*\
  =========                 |
  \\      /  F ield         | OpenFOAM: The Open Source CFD Toolbox
   \\    /   O peration     | Website:  https://openfoam.org
    \\  /    A nd           | Version:  7
     \\/     M anipulation  |
\*---------------------------------------------------------------------------*/
FoamFile
{
    version     2.0;
    format      ascii;
    class       volScalarField;
    location    "0.0125";
    object      p;
}
// * * * * * * * * * * * * * * * * * * * * * * * * * * * * * * * * * * * * * //

dimensions      [0 2 -2 0 0 0 0];

internalField   nonuniform List<scalar> 
25600
(
-1.96397e-08
-7.10766e-06
-2.22065e-05
-4.28854e-05
-6.1334e-05
-7.41335e-05
-8.0561e-05
-8.07028e-05
-7.47038e-05
-6.26998e-05
-4.48648e-05
-2.14055e-05
7.52722e-06
4.17933e-05
8.12485e-05
0.000125759
0.000175206
0.000229548
0.000288784
0.000352887
0.000421837
0.000495614
0.000574197
0.000657597
0.000745798
0.000838725
0.000936291
0.00103842
0.00114506
0.00125616
0.00137169
0.0014916
0.00161582
0.00174431
0.00187706
0.00201405
0.00215524
0.00230056
0.00244991
0.00260318
0.0027603
0.0029212
0.00308577
0.00325391
0.00342553
0.00360057
0.00377901
0.00396081
0.00414593
0.00433429
0.00452575
0.00472021
0.00491758
0.00511778
0.00532073
0.00552636
0.00573459
0.00594536
0.00615861
0.00637423
0.00659214
0.00681222
0.00703434
0.0072584
0.00748431
0.007712
0.00794143
0.0081725
0.00840512
0.00863918
0.00887452
0.00911096
0.00934832
0.00958647
0.00982529
0.0100647
0.0103047
0.0105451
0.010786
0.0110272
0.0112685
0.0115098
0.0117511
0.0119922
0.012233
0.0124734
0.0127133
0.0129527
0.0131915
0.0134295
0.0136667
0.0139029
0.0141382
0.0143723
0.0146053
0.0148369
0.015067
0.0152955
0.0155223
0.0157472
0.01597
0.0161908
0.0164093
0.0166254
0.016839
0.0170501
0.0172586
0.0174643
0.0176673
0.0178675
0.0180648
0.0182592
0.0184506
0.0186391
0.0188244
0.0190066
0.0191853
0.0193607
0.0195324
0.0197004
0.0198647
0.020025
0.0201813
0.0203335
0.0204816
0.0206256
0.0207655
0.020901
0.0210322
0.021159
0.0212814
0.0213991
0.0215123
0.0216207
0.0217243
0.0218232
0.0219171
0.0220062
0.0220904
0.0221697
0.0222439
0.0223131
0.0223772
0.0224361
0.0224898
0.0225381
0.022581
0.0226185
0.0226504
0.0226766
0.0226971
0.0227118
0.0227206
0.0227234
0.0227205
0.0227124
0.0226999
0.0226852
0.0226711
0.0226622
1.05998e-05
3.78755e-07
-1.43776e-05
-3.05726e-05
-4.41101e-05
-5.27314e-05
-5.60555e-05
-5.40438e-05
-4.66192e-05
-3.37079e-05
-1.53458e-05
8.39623e-06
3.74164e-05
7.16359e-05
0.000110988
0.00015536
0.000204665
0.000258847
0.00031787
0.000381751
0.000450488
0.00052405
0.000602423
0.00068559
0.000773518
0.000866167
0.000963467
0.00106532
0.00117167
0.00128245
0.00139763
0.00151718
0.00164105
0.00176918
0.00190155
0.00203813
0.00217889
0.00232379
0.00247274
0.00262561
0.00278231
0.00294276
0.00310687
0.00327456
0.00344575
0.00362037
0.00379835
0.00397968
0.00416429
0.00435214
0.00454309
0.00473704
0.00493389
0.00513355
0.00533593
0.00554098
0.00574864
0.00595886
0.00617155
0.00638662
0.00660399
0.00682351
0.00704508
0.00726857
0.00749391
0.00772103
0.00794986
0.00818034
0.00841238
0.00864585
0.0088806
0.00911643
0.00935318
0.00959071
0.00982893
0.0100678
0.0103071
0.010547
0.0107873
0.0110278
0.0112685
0.0115092
0.0117499
0.0119903
0.0122304
0.0124702
0.0127095
0.0129483
0.0131864
0.0134238
0.0136604
0.013896
0.0141307
0.0143642
0.0145966
0.0148276
0.0150571
0.0152851
0.0155112
0.0157355
0.0159578
0.016178
0.0163959
0.0166115
0.0168246
0.0170351
0.017243
0.0174481
0.0176506
0.0178502
0.018047
0.0182409
0.0184319
0.0186198
0.0188047
0.0189863
0.0191646
0.0193394
0.0195107
0.0196783
0.019842
0.0200019
0.0201578
0.0203097
0.0204574
0.0206011
0.0207405
0.0208757
0.0210065
0.0211329
0.0212549
0.0213723
0.021485
0.0215931
0.0216965
0.0217951
0.0218888
0.0219777
0.0220617
0.0221407
0.0222147
0.0222837
0.0223475
0.0224062
0.0224596
0.0225078
0.0225506
0.0225879
0.0226199
0.0226464
0.0226673
0.0226828
0.0226927
0.0226974
0.022697
0.022692
0.0226836
0.022673
0.0226622
0.0226533
2.3593e-05
7.2481e-06
-8.05244e-06
-2.18526e-05
-3.23942e-05
-3.84374e-05
-3.97512e-05
-3.62149e-05
-2.76856e-05
-1.40419e-05
4.79944e-06
2.88283e-05
5.79858e-05
9.22393e-05
0.000131536
0.000175831
0.000225067
0.000279158
0.000338079
0.000401835
0.000470424
0.000543854
0.0006221
0.000705111
0.000792857
0.000885306
0.000982395
0.00108405
0.0011902
0.00130077
0.00141572
0.00153501
0.00165861
0.00178648
0.00191857
0.00205485
0.0021953
0.00233987
0.00248851
0.00264109
0.00279752
0.00295766
0.00312145
0.00328882
0.00345971
0.00363404
0.00381174
0.00399275
0.00417704
0.00436451
0.00455509
0.00474867
0.00494514
0.00514439
0.00534636
0.00555099
0.00575824
0.00596806
0.00618036
0.00639507
0.00661207
0.00683124
0.00705244
0.00727556
0.00750052
0.00772726
0.00795569
0.00818575
0.00841737
0.00865041
0.00888472
0.00912011
0.00935643
0.00959355
0.00983138
0.0100698
0.0103088
0.0105483
0.0107882
0.0110283
0.0112686
0.0115088
0.0117489
0.0119889
0.0122286
0.0124679
0.0127068
0.0129452
0.0131829
0.0134199
0.013656
0.0138912
0.0141254
0.0143586
0.0145905
0.0148211
0.0150502
0.0152777
0.0155035
0.0157274
0.0159493
0.0161691
0.0163866
0.0166017
0.0168144
0.0170245
0.017232
0.0174368
0.0176389
0.0178382
0.0180347
0.0182283
0.0184189
0.0186065
0.018791
0.0189723
0.0191502
0.0193246
0.0194956
0.0196628
0.0198263
0.0199859
0.0201415
0.0202932
0.0204407
0.0205841
0.0207233
0.0208582
0.0209887
0.0211148
0.0212364
0.0213535
0.0214661
0.0215739
0.0216771
0.0217755
0.0218692
0.0219579
0.0220418
0.0221207
0.0221946
0.0222634
0.022327
0.0223855
0.0224388
0.0224868
0.0225295
0.0225669
0.022599
0.0226257
0.0226471
0.0226632
0.022674
0.0226799
0.0226809
0.0226778
0.0226711
0.0226621
0.0226513
0.0226391
3.35065e-05
1.28692e-05
-3.33696e-06
-1.57037e-05
-2.45437e-05
-2.91723e-05
-2.93068e-05
-2.47928e-05
-1.55162e-05
-1.33653e-06
1.78572e-05
4.20993e-05
7.14033e-05
0.00010572
0.000145017
0.000189286
0.000238473
0.000292535
0.000351435
0.000415137
0.000483652
0.000556995
0.00063514
0.000718052
0.000805689
0.000897994
0.000994924
0.00109643
0.00120245
0.00131289
0.00142769
0.00154682
0.00167022
0.00179789
0.00192978
0.00206586
0.00220609
0.00235042
0.00249881
0.00265117
0.00280739
0.00296736
0.00313096
0.00329813
0.00346881
0.00364293
0.00382044
0.00400127
0.00418535
0.00437259
0.0045629
0.00475621
0.00495239
0.00515136
0.00535304
0.00555739
0.00576437
0.00597392
0.00618598
0.00640046
0.00661725
0.0068362
0.00705719
0.0072801
0.00750484
0.00773132
0.00795948
0.00818926
0.00842058
0.0086533
0.00888728
0.00912236
0.0093584
0.00959527
0.00983287
0.0100711
0.0103099
0.0105492
0.0107888
0.0110286
0.0112685
0.0115084
0.0117482
0.0119878
0.0122272
0.0124663
0.0127049
0.012943
0.0131805
0.0134172
0.0136531
0.013888
0.0141219
0.0143548
0.0145864
0.0148167
0.0150456
0.0152728
0.0154984
0.0157221
0.0159437
0.0161632
0.0163804
0.0165953
0.0168077
0.0170175
0.0172248
0.0174294
0.0176312
0.0178304
0.0180267
0.0182201
0.0184105
0.0185978
0.0187821
0.018963
0.0191407
0.0193149
0.0194855
0.0196526
0.0198159
0.0199754
0.0201309
0.0202824
0.0204299
0.0205731
0.0207121
0.0208467
0.020977
0.0211029
0.0212243
0.0213412
0.0214535
0.0215613
0.0216644
0.0217628
0.0218564
0.0219451
0.022029
0.0221078
0.0221815
0.0222502
0.0223137
0.022372
0.0224252
0.0224731
0.0225158
0.0225533
0.0225855
0.0226125
0.0226343
0.0226508
0.0226622
0.0226688
0.0226706
0.0226682
0.0226621
0.022653
0.0226405
0.0226241
4.04406e-05
1.72167e-05
2.82879e-07
-1.14837e-05
-1.95253e-05
-2.34003e-05
-2.28449e-05
-1.77229e-05
-7.92194e-06
6.66751e-06
2.61251e-05
5.05465e-05
7.99607e-05
0.000114357
0.000153719
0.000198002
0.000247181
0.000301244
0.000360141
0.000423841
0.000492337
0.000565616
0.000643676
0.000726505
0.000814053
0.000906265
0.0010031
0.0011045
0.00121041
0.00132077
0.0014355
0.00155453
0.00167782
0.00180534
0.00193707
0.00207299
0.00221306
0.00235723
0.00250544
0.00265762
0.00281368
0.0029735
0.00313699
0.00330405
0.0034746
0.00364858
0.00382596
0.00400665
0.00419059
0.00437767
0.00456782
0.00476093
0.00495691
0.00515568
0.00535717
0.00556134
0.00576814
0.00597753
0.00618944
0.00640379
0.00662046
0.00683929
0.00706016
0.00728295
0.00750756
0.00773388
0.00796186
0.00819144
0.00842253
0.00865502
0.00888876
0.00912362
0.00935947
0.00959619
0.00983367
0.0100718
0.0103105
0.0105496
0.0107891
0.0110287
0.0112684
0.0115081
0.0117476
0.011987
0.0122262
0.0124651
0.0127036
0.0129415
0.0131788
0.0134154
0.0136511
0.0138858
0.0141196
0.0143523
0.0145838
0.0148139
0.0150426
0.0152697
0.015495
0.0157185
0.01594
0.0161593
0.0163763
0.016591
0.0168032
0.0170129
0.01722
0.0174245
0.0176263
0.0178254
0.0180215
0.0182148
0.0184051
0.0185923
0.0187763
0.0189571
0.0191345
0.0193085
0.019479
0.019646
0.0198092
0.0199686
0.0201241
0.0202756
0.0204229
0.0205661
0.0207049
0.0208394
0.0209695
0.0210952
0.0212164
0.0213332
0.0214455
0.0215532
0.0216562
0.0217546
0.0218482
0.0219369
0.0220207
0.0220995
0.0221731
0.0222417
0.0223051
0.0223633
0.0224164
0.0224644
0.0225071
0.0225447
0.0225771
0.0226043
0.0226263
0.0226432
0.022655
0.0226619
0.0226642
0.022662
0.0226558
0.0226461
0.0226317
0.0226113
4.52585e-05
1.98515e-05
1.9589e-06
-9.93497e-06
-1.78137e-05
-2.14237e-05
-2.05603e-05
-1.51222e-05
-5.01137e-06
9.84381e-06
2.95275e-05
5.40967e-05
8.36035e-05
0.000118088
0.000157524
0.000201869
0.000251101
0.000305181
0.000364087
0.000427808
0.000496307
0.000569566
0.000647584
0.000730345
0.000817822
0.000909982
0.00100677
0.00110812
0.00121399
0.0013243
0.00143899
0.00155799
0.00168124
0.00180869
0.00194033
0.00207615
0.00221612
0.00236019
0.00250831
0.00266038
0.00281632
0.00297605
0.00313946
0.00330645
0.00347695
0.00365088
0.00382819
0.00400881
0.00419267
0.00437968
0.00456974
0.00476276
0.00495864
0.00515731
0.00535871
0.0055628
0.00576952
0.00597885
0.00619071
0.00640501
0.00662163
0.00684042
0.00706127
0.00728403
0.00750858
0.00773484
0.00796274
0.00819222
0.00842319
0.00865554
0.00888915
0.0091239
0.00935967
0.00959633
0.00983378
0.0100719
0.0103106
0.0105497
0.010789
0.0110286
0.0112681
0.0115077
0.0117472
0.0119865
0.0122256
0.0124644
0.0127028
0.0129407
0.0131779
0.0134144
0.01365
0.0138848
0.0141185
0.0143511
0.0145825
0.0148126
0.0150412
0.0152682
0.0154935
0.0157168
0.0159382
0.0161574
0.0163743
0.0165889
0.0168011
0.0170108
0.0172179
0.0174224
0.0176242
0.0178232
0.0180193
0.0182125
0.0184027
0.0185898
0.0187737
0.0189544
0.0191317
0.0193057
0.0194762
0.0196431
0.0198063
0.0199657
0.0201212
0.0202726
0.0204199
0.020563
0.0207017
0.0208361
0.0209661
0.0210918
0.021213
0.0213297
0.021442
0.0215496
0.0216527
0.0217511
0.0218446
0.0219333
0.0220171
0.0220958
0.0221694
0.0222379
0.0223013
0.0223596
0.0224127
0.0224606
0.0225034
0.0225411
0.0225736
0.022601
0.0226232
0.0226403
0.0226524
0.0226595
0.0226619
0.0226597
0.0226532
0.0226427
0.0226265
0.0226028
4.65063e-05
1.9292e-05
3.84042e-07
-1.196e-05
-2.00268e-05
-2.36738e-05
-2.27432e-05
-1.71837e-05
-6.94383e-06
8.06882e-06
2.79078e-05
5.26098e-05
8.22312e-05
0.000116795
0.000156302
0.000200734
0.000250038
0.00030417
0.00036312
0.000426866
0.000495386
0.00056867
0.000646694
0.000729438
0.000816892
0.000909031
0.00100581
0.00110717
0.00121304
0.00132336
0.00143805
0.00155705
0.0016803
0.00180776
0.0019394
0.0020752
0.00221513
0.00235917
0.00250726
0.0026593
0.00281521
0.0029749
0.00313828
0.00330526
0.00347577
0.00364972
0.00382705
0.00400767
0.00419153
0.00437854
0.0045686
0.00476161
0.00495749
0.00515617
0.00535759
0.00556169
0.00576844
0.0059778
0.00618969
0.00640402
0.00662067
0.0068395
0.00706039
0.0072832
0.0075078
0.00773411
0.00796205
0.00819156
0.00842253
0.00865487
0.00888847
0.00912323
0.00935901
0.00959571
0.0098332
0.0100714
0.0103101
0.0105493
0.0107887
0.0110282
0.0112678
0.0115074
0.0117469
0.0119862
0.0122254
0.0124642
0.0127026
0.0129405
0.0131777
0.0134143
0.01365
0.0138848
0.0141186
0.0143513
0.0145827
0.0148128
0.0150414
0.0152684
0.0154936
0.015717
0.0159383
0.0161575
0.0163745
0.0165891
0.0168014
0.0170112
0.0172184
0.017423
0.0176248
0.0178238
0.01802
0.0182132
0.0184034
0.0185904
0.0187744
0.0189551
0.0191325
0.0193065
0.0194771
0.0196441
0.0198073
0.0199667
0.0201222
0.0202736
0.0204209
0.0205639
0.0207026
0.0208371
0.0209671
0.0210928
0.021214
0.0213308
0.0214431
0.0215508
0.0216538
0.0217522
0.0218458
0.0219344
0.0220181
0.0220968
0.0221705
0.0222391
0.0223025
0.0223608
0.022414
0.022462
0.0225049
0.0225427
0.0225753
0.0226028
0.0226251
0.0226424
0.0226546
0.0226618
0.0226642
0.0226617
0.0226548
0.0226434
0.0226256
0.0225994
4.30657e-05
1.44675e-05
-5.30069e-06
-1.81474e-05
-2.65488e-05
-3.03871e-05
-2.95252e-05
-2.39703e-05
-1.36835e-05
1.39271e-06
2.13115e-05
4.61297e-05
7.586e-05
0.000110511
0.000150102
0.000194606
0.000243982
0.000298199
0.00035722
0.00042102
0.000489597
0.000562936
0.000641011
0.000723805
0.000811296
0.000903459
0.00100026
0.00110165
0.00120757
0.00131793
0.00143266
0.0015517
0.001675
0.00180253
0.00193424
0.00207011
0.0022101
0.00235418
0.00250229
0.00265436
0.00281031
0.00297005
0.00313347
0.00330051
0.00347108
0.00364512
0.00382253
0.00400325
0.00418719
0.00437427
0.00456441
0.00475751
0.00495349
0.00515228
0.00535381
0.00555803
0.00576491
0.00597439
0.00618639
0.00640081
0.00661756
0.0068365
0.00705751
0.00728045
0.0075052
0.00773168
0.0079598
0.00818946
0.00842057
0.00865304
0.00888676
0.00912163
0.00935752
0.00959434
0.00983196
0.0100703
0.0103091
0.0105484
0.010788
0.0110277
0.0112674
0.0115072
0.0117468
0.0119863
0.0122255
0.0124644
0.012703
0.0129409
0.0131783
0.013415
0.0136509
0.0138859
0.0141199
0.0143528
0.0145844
0.0148146
0.0150433
0.0152703
0.0154956
0.015719
0.0159404
0.0161597
0.0163768
0.0165917
0.0168041
0.0170141
0.0172215
0.0174262
0.0176282
0.0178273
0.0180235
0.0182168
0.0184071
0.0185943
0.0187784
0.0189593
0.0191368
0.019311
0.0194817
0.0196488
0.0198121
0.0199715
0.0201271
0.0202785
0.0204258
0.0205689
0.0207078
0.0208423
0.0209725
0.0210983
0.0212196
0.0213365
0.0214489
0.0215566
0.0216597
0.0217581
0.0218516
0.0219403
0.0220241
0.0221029
0.0221766
0.0222452
0.0223088
0.0223672
0.0224204
0.0224685
0.0225115
0.0225493
0.022582
0.0226096
0.022632
0.0226494
0.0226616
0.0226688
0.0226711
0.0226684
0.0226609
0.0226488
0.0226298
0.0226017
3.44272e-05
4.83446e-06
-1.55974e-05
-2.89125e-05
-3.76561e-05
-4.1739e-05
-4.10391e-05
-3.55455e-05
-2.52664e-05
-1.01765e-05
9.79568e-06
3.46833e-05
6.45001e-05
9.92554e-05
0.00013893
0.000183501
0.000232955
0.000287259
0.000346372
0.000410276
0.000478956
0.00055239
0.000630562
0.000713454
0.000801035
0.000893273
0.000990136
0.00109158
0.00119755
0.00130798
0.0014228
0.00154194
0.00166536
0.00179301
0.00192487
0.00206088
0.00220102
0.00234522
0.00249344
0.0026456
0.00280165
0.00296149
0.00312503
0.00329219
0.00346291
0.00363709
0.00381465
0.00399552
0.00417963
0.00436687
0.00455717
0.00475045
0.00494662
0.00514563
0.00534738
0.00555184
0.00575894
0.00596862
0.0061808
0.00639539
0.00661231
0.00683144
0.00705264
0.0072758
0.00750082
0.00772759
0.007956
0.00818595
0.00841733
0.00865005
0.008884
0.00911908
0.00935518
0.00959219
0.00983002
0.0100686
0.0103076
0.0105471
0.0107869
0.0110269
0.011267
0.011507
0.0117469
0.0119866
0.0122261
0.0124652
0.0127039
0.0129421
0.0131797
0.0134167
0.0136529
0.0138882
0.0141225
0.0143556
0.0145874
0.0148178
0.0150467
0.0152739
0.0154993
0.0157229
0.0159445
0.016164
0.0163814
0.0165966
0.0168093
0.0170196
0.0172273
0.0174322
0.0176343
0.0178336
0.0180301
0.0182236
0.0184141
0.0186015
0.0187858
0.018967
0.0191448
0.0193192
0.0194901
0.0196573
0.0198207
0.0199803
0.0201359
0.0202875
0.0204349
0.0205782
0.0207172
0.0208519
0.0209823
0.0211082
0.0212297
0.0213468
0.0214592
0.0215671
0.0216703
0.0217688
0.0218624
0.0219512
0.0220351
0.0221139
0.0221877
0.0222565
0.0223201
0.0223785
0.0224318
0.02248
0.022523
0.022561
0.0225938
0.0226214
0.022644
0.0226614
0.0226736
0.0226808
0.0226828
0.0226798
0.0226718
0.022659
0.0226391
0.0226097
2.04349e-05
-9.83628e-06
-3.07944e-05
-4.4508e-05
-5.35587e-05
-5.78967e-05
-5.73742e-05
-5.19935e-05
-4.17649e-05
-2.66568e-05
-6.65027e-06
1.8286e-05
4.81809e-05
8.30205e-05
0.000122775
0.000167429
0.000216963
0.000271351
0.000330577
0.000394618
0.000463441
0.000537022
0.00061534
0.000698368
0.000786075
0.000878431
0.000975398
0.00107693
0.00118299
0.00129352
0.00140847
0.00152777
0.00165137
0.00177923
0.0019113
0.00204753
0.00218788
0.00233228
0.00248067
0.002633
0.00278919
0.00294919
0.00311291
0.00328028
0.0034512
0.0036256
0.00380338
0.00398449
0.00416882
0.0043563
0.00454686
0.00474041
0.0049369
0.00513622
0.00533832
0.00554311
0.00575054
0.00596051
0.00617295
0.0063878
0.00660496
0.00682434
0.00704583
0.00726931
0.00749469
0.00772185
0.00795066
0.008181
0.00841277
0.00864585
0.00888014
0.00911553
0.00935193
0.00958924
0.00982737
0.0100662
0.0103056
0.0105454
0.0107856
0.011026
0.0112664
0.0115068
0.0117471
0.0119872
0.012227
0.0124664
0.0127055
0.012944
0.013182
0.0134194
0.013656
0.0138916
0.0141263
0.0143597
0.0145919
0.0148226
0.0150517
0.0152792
0.0155049
0.0157288
0.0159507
0.0161706
0.0163884
0.0166039
0.016817
0.0170276
0.0172356
0.0174408
0.0176433
0.0178429
0.0180396
0.0182334
0.0184243
0.018612
0.0187967
0.0189781
0.0191563
0.019331
0.0195021
0.0196695
0.0198332
0.019993
0.0201488
0.0203006
0.0204482
0.0205917
0.0207309
0.0208658
0.0209964
0.0211226
0.0212443
0.0213615
0.0214742
0.0215822
0.0216856
0.0217843
0.0218781
0.021967
0.022051
0.0221299
0.0222038
0.0222726
0.0223362
0.0223947
0.0224482
0.0224965
0.0225397
0.0225777
0.0226107
0.0226384
0.0226611
0.0226785
0.0226907
0.0226977
0.0226996
0.0226962
0.0226878
0.0226744
0.0226538
0.0226236
1.06141e-06
-2.96764e-05
-5.10272e-05
-6.50875e-05
-7.44337e-05
-7.89854e-05
-7.86349e-05
-7.33853e-05
-6.32083e-05
-4.80988e-05
-2.80518e-05
-3.04873e-06
2.69118e-05
6.18149e-05
0.000101647
0.000146382
0.000195998
0.000250486
0.000309839
0.000374029
0.000443027
0.0005168
0.000595307
0.00067851
0.00076638
0.000858887
0.000955995
0.00105767
0.00116387
0.00127455
0.00138968
0.0015092
0.00163307
0.00176121
0.00189357
0.00203008
0.00217069
0.00231533
0.00246395
0.0026165
0.00277291
0.00293314
0.0030971
0.00326473
0.00343594
0.00361062
0.00378871
0.00397011
0.00415475
0.00434256
0.00453347
0.00472741
0.0049243
0.00512406
0.00532661
0.00553185
0.00573968
0.00595004
0.00616284
0.00637802
0.00659552
0.00681524
0.00703709
0.007261
0.00748684
0.00771448
0.00794378
0.00817462
0.00840687
0.00864042
0.00887515
0.00911096
0.00934777
0.00958549
0.00982402
0.0100632
0.010303
0.0105433
0.0107839
0.0110248
0.0112657
0.0115066
0.0117474
0.011988
0.0122283
0.0124682
0.0127077
0.0129467
0.0131852
0.013423
0.0136601
0.0138962
0.0141313
0.0143651
0.0145977
0.0148288
0.0150583
0.0152862
0.0155124
0.0157367
0.0159591
0.0161795
0.0163977
0.0166136
0.0168271
0.0170381
0.0172465
0.0174521
0.017655
0.017855
0.0180522
0.0182465
0.0184377
0.0186259
0.0188109
0.0189928
0.0191713
0.0193463
0.0195177
0.0196855
0.0198495
0.0200095
0.0201657
0.0203177
0.0204656
0.0206093
0.0207488
0.020884
0.0210148
0.0211412
0.0212632
0.0213807
0.0214936
0.021602
0.0217056
0.0218045
0.0218985
0.0219876
0.0220717
0.0221507
0.0222247
0.0222935
0.0223573
0.0224159
0.0224694
0.0225179
0.0225613
0.0225996
0.0226327
0.0226606
0.0226833
0.0227007
0.0227129
0.0227197
0.0227214
0.0227177
0.0227089
0.0226951
0.0226739
0.0226431
-2.37099e-05
-5.47481e-05
-7.63935e-05
-9.07599e-05
-0.000100364
-0.000105121
-0.000104921
-9.97609e-05
-8.96348e-05
-7.45248e-05
-5.44205e-05
-2.93437e-05
6.81819e-07
3.56482e-05
7.55427e-05
0.000120345
0.000170049
0.000224654
0.000284147
0.000348507
0.000417704
0.000491693
0.000570422
0.000653844
0.00074192
0.000834618
0.000931909
0.00103377
0.00114017
0.00125108
0.00136646
0.00148628
0.00161046
0.00173895
0.00187165
0.00200849
0.00214941
0.00229435
0.00244325
0.00259607
0.00275277
0.0029133
0.00307759
0.00324556
0.00341711
0.00359217
0.00377063
0.00395241
0.00413743
0.00432565
0.00451701
0.00471143
0.00490883
0.00510913
0.00531222
0.00551799
0.00572633
0.00593716
0.00615042
0.00636604
0.00658396
0.00680412
0.00702646
0.00725089
0.00747728
0.00770549
0.00793538
0.0081668
0.00839963
0.00863374
0.00886901
0.00910537
0.00934272
0.00958096
0.00982
0.0100597
0.0103
0.0105408
0.010782
0.0110234
0.0112649
0.0115064
0.0117478
0.011989
0.0122299
0.0124704
0.0127106
0.0129502
0.0131892
0.0134276
0.0136651
0.0139018
0.0141373
0.0143717
0.0146048
0.0148364
0.0150665
0.015295
0.0155217
0.0157466
0.0159695
0.0161904
0.0164091
0.0166255
0.0168395
0.017051
0.0172599
0.0174661
0.0176695
0.0178701
0.0180678
0.0182626
0.0184544
0.018643
0.0188285
0.0190108
0.0191897
0.0193651
0.0195369
0.0197051
0.0198695
0.02003
0.0201865
0.0203389
0.0204871
0.0206312
0.0207709
0.0209064
0.0210375
0.0211643
0.0212866
0.0214044
0.0215177
0.0216264
0.0217304
0.0218295
0.0219237
0.022013
0.0220972
0.0221764
0.0222504
0.0223194
0.0223833
0.0224421
0.0224958
0.0225445
0.0225881
0.0226265
0.0226598
0.0226878
0.0227105
0.0227279
0.02274
0.0227467
0.0227482
0.0227442
0.0227352
0.0227211
0.0226995
0.0226684
-5.38457e-05
-8.51057e-05
-0.000106975
-0.000121569
-0.00013141
-0.000136365
-0.000136279
-0.000131181
-0.000121076
-0.000105938
-8.57805e-05
-6.06382e-05
-3.05406e-05
4.48869e-06
4.44341e-05
8.9302e-05
0.000139104
0.000193837
0.000253493
0.000318052
0.000387473
0.000461702
0.000540682
0.000624359
0.000712683
0.000805618
0.000903143
0.00100524
0.00111191
0.00122311
0.00133882
0.00145899
0.00158355
0.00171242
0.00184551
0.00198273
0.00212401
0.00226929
0.00241853
0.0025717
0.00272877
0.00288969
0.00305439
0.00322278
0.00339477
0.00357027
0.00374918
0.00393141
0.0041169
0.00430562
0.0044975
0.00469247
0.00489047
0.00509139
0.00529511
0.00550149
0.00571042
0.00592183
0.00613564
0.0063518
0.00657027
0.00679101
0.00701395
0.00723901
0.00746604
0.00769491
0.00792545
0.00815754
0.00839104
0.00862581
0.00886176
0.00909879
0.00933681
0.0095757
0.00981536
0.0100557
0.0102966
0.010538
0.0107798
0.0110218
0.011264
0.0115062
0.0117483
0.0119903
0.0122319
0.0124732
0.012714
0.0129544
0.013194
0.013433
0.0136711
0.0139083
0.0141445
0.0143795
0.0146132
0.0148455
0.0150763
0.0153055
0.0155329
0.0157584
0.015982
0.0162034
0.0164227
0.0166397
0.0168543
0.0170663
0.0172758
0.0174827
0.0176868
0.0178881
0.0180864
0.0182819
0.0184742
0.0186634
0.0188495
0.0190322
0.0192116
0.0193875
0.0195598
0.0197285
0.0198933
0.0200543
0.0202112
0.020364
0.0205127
0.0206571
0.0207973
0.0209332
0.0210647
0.0211918
0.0213146
0.0214328
0.0215465
0.0216556
0.0217598
0.0218592
0.0219537
0.0220432
0.0221276
0.0222069
0.0222811
0.0223503
0.0224144
0.0224734
0.0225274
0.0225763
0.02262
0.0226586
0.0226919
0.02272
0.0227427
0.0227601
0.0227721
0.0227788
0.0227801
0.022776
0.0227667
0.0227524
0.0227306
0.0226992
-8.92979e-05
-0.000120752
-0.000142796
-0.000157578
-0.000167609
-0.000172719
-0.00017274
-0.000167684
-0.000157558
-0.000142379
-0.000122175
-9.69734e-05
-6.68132e-05
-3.1729e-05
8.27961e-06
5.32342e-05
0.00010315
0.000158035
0.000217887
0.000282677
0.000352351
0.00042685
0.000506109
0.000590067
0.000678673
0.000771892
0.000869706
0.000972107
0.00107909
0.00119065
0.00130675
0.00142732
0.00155231
0.00168161
0.00181512
0.00195275
0.00209444
0.00224014
0.00238979
0.0025434
0.00270093
0.00286233
0.00302752
0.00319643
0.00336895
0.00354496
0.00372438
0.00390713
0.00409317
0.00428246
0.00447493
0.00467055
0.00486921
0.00507082
0.00527523
0.0054823
0.00569192
0.005904
0.00611848
0.00633531
0.00655447
0.00677591
0.00699958
0.00722537
0.00745313
0.00768273
0.00791402
0.00814685
0.0083811
0.00861664
0.00885338
0.00909122
0.00933003
0.00956969
0.00981008
0.0100511
0.0102927
0.0105348
0.0107773
0.0110201
0.011263
0.0115061
0.011749
0.0119918
0.0122343
0.0124765
0.0127181
0.0129592
0.0131996
0.0134393
0.0136781
0.013916
0.0141528
0.0143886
0.0146231
0.0148562
0.0150878
0.0153177
0.0155459
0.0157722
0.0159964
0.0162186
0.0164385
0.0166561
0.0168714
0.0170842
0.0172944
0.017502
0.0177069
0.0179089
0.0181081
0.0183042
0.0184973
0.0186872
0.0188739
0.0190572
0.0192371
0.0194136
0.0195864
0.0197556
0.019921
0.0200824
0.0202399
0.0203932
0.0205424
0.0206873
0.020828
0.0209644
0.0210964
0.0212241
0.0213473
0.021466
0.0215801
0.0216894
0.021794
0.0218937
0.0219884
0.0220781
0.0221627
0.0222423
0.0223169
0.0223863
0.0224507
0.02251
0.0225642
0.0226133
0.0226572
0.0226959
0.0227293
0.0227574
0.0227801
0.0227975
0.0228094
0.022816
0.0228172
0.0228129
0.0228035
0.022789
0.022767
0.0227354
-0.000130021
-0.000161649
-0.000183873
-0.000198818
-0.000208978
-0.00021421
-0.000214316
-0.000209277
-0.000199128
-0.000183909
-0.000163654
-0.000138405
-0.0001082
-7.30528e-05
-3.2953e-05
1.2119e-05
6.21873e-05
0.000117269
0.000177354
0.000242403
0.000312361
0.000387158
0.000466721
0.000550984
0.0006399
0.00073344
0.00083159
0.000934349
0.00104172
0.00115368
0.00127021
0.00139125
0.0015167
0.00164646
0.00178044
0.00191854
0.00206071
0.00220688
0.00235704
0.00251118
0.00266926
0.00283123
0.00299702
0.00316652
0.00333963
0.00351623
0.00369624
0.0038796
0.00406626
0.00425619
0.00444934
0.00464566
0.00484507
0.00504742
0.00525259
0.00546043
0.00567083
0.00588369
0.00609896
0.00631659
0.00653657
0.00675886
0.00698336
0.00720997
0.00743855
0.00766896
0.00790106
0.00813471
0.00836979
0.0086062
0.00884385
0.0090826
0.00932231
0.00956285
0.0098041
0.010046
0.0102884
0.0105313
0.0107746
0.0110182
0.011262
0.011506
0.0117499
0.0119937
0.0122371
0.0124802
0.0127228
0.0129647
0.013206
0.0134464
0.0136861
0.0139247
0.0141624
0.0143991
0.0146344
0.0148684
0.0151009
0.0153318
0.0155608
0.0157879
0.0160129
0.0162358
0.0164565
0.016675
0.016891
0.0171046
0.0173156
0.0175241
0.0177299
0.0179328
0.0181328
0.0183297
0.0185236
0.0187143
0.0189017
0.0190857
0.0192663
0.0194434
0.0196168
0.0197865
0.0199525
0.0201144
0.0202724
0.0204264
0.0205762
0.0207217
0.0208631
0.0210001
0.0211327
0.0212609
0.0213846
0.0215038
0.0216182
0.0217279
0.0218328
0.0219327
0.0220277
0.0221177
0.0222027
0.0222827
0.0223576
0.0224274
0.0224921
0.0225516
0.0226061
0.0226554
0.0226995
0.0227383
0.0227718
0.0227999
0.0228227
0.0228401
0.022852
0.0228585
0.0228596
0.0228552
0.0228457
0.022831
0.0228089
0.0227771
-0.000175999
-0.000207799
-0.00023019
-0.000245278
-0.000255558
-0.000260868
-0.00026101
-0.000255988
-0.000245829
-0.000230571
-0.000210273
-0.000184987
-0.00015473
-0.000119496
-7.9275e-05
-3.40412e-05
1.62346e-05
7.15598e-05
0.000131912
0.000197249
0.000267511
0.000342623
0.000422508
0.000507101
0.000596358
0.000690256
0.000788789
0.00089196
0.000999768
0.0011122
0.00122922
0.00135076
0.00147671
0.00160699
0.00174149
0.00188012
0.00202281
0.00216955
0.00232031
0.00247506
0.00263378
0.0027964
0.00296285
0.00313301
0.00330678
0.00348405
0.00366474
0.00384879
0.00403615
0.00422681
0.00442073
0.00461784
0.00481806
0.00502123
0.00522723
0.00543593
0.0056472
0.00586095
0.00607712
0.00629569
0.00651662
0.00673985
0.00696528
0.0071928
0.00742228
0.00765357
0.00788654
0.00812108
0.00835709
0.00859448
0.00883313
0.00907289
0.0093136
0.00955513
0.00979735
0.0100402
0.0102835
0.0105274
0.0107716
0.0110162
0.011261
0.011506
0.011751
0.0119958
0.0122403
0.0124844
0.012728
0.0129709
0.0132131
0.0134545
0.0136951
0.0139347
0.0141734
0.014411
0.0146473
0.0148823
0.0151158
0.0153475
0.0155775
0.0158055
0.0160314
0.0162552
0.0164768
0.0166962
0.0169131
0.0171276
0.0173396
0.017549
0.0177556
0.0179595
0.0181604
0.0183583
0.0185531
0.0187447
0.0189329
0.0191178
0.0192991
0.0194768
0.0196509
0.0198212
0.0199877
0.0201503
0.0203089
0.0204635
0.020614
0.0207604
0.0209024
0.0210402
0.0211735
0.0213023
0.0214265
0.0215461
0.021661
0.021771
0.0218762
0.0219765
0.0220719
0.0221623
0.0222476
0.022328
0.0224032
0.0224734
0.0225385
0.0225984
0.0226531
0.0227026
0.0227469
0.0227858
0.0228195
0.0228477
0.0228706
0.022888
0.0228999
0.0229064
0.0229074
0.0229029
0.0228932
0.0228784
0.0228561
0.0228241
-0.000227267
-0.000259218
-0.000281747
-0.000296979
-0.000307362
-0.000312711
-0.000312868
-0.00030785
-0.000297679
-0.000282401
-0.000262076
-0.000236741
-0.000206404
-0.000171054
-0.000130671
-8.52233e-05
-3.46963e-05
2.09048e-05
8.15535e-05
0.000147201
0.000217781
0.000293217
0.00037344
0.000458389
0.000548024
0.000642326
0.000741296
0.000844937
0.000953248
0.00106621
0.00118377
0.00130585
0.00143237
0.00156321
0.00169827
0.00183748
0.00198079
0.00212816
0.00227958
0.00243502
0.00259444
0.00275779
0.00292497
0.00309586
0.00327037
0.00344839
0.00362985
0.00381468
0.00400286
0.00419435
0.00438913
0.00458712
0.00478821
0.00499228
0.0051992
0.00540883
0.00562106
0.0058358
0.00605299
0.0062726
0.00649458
0.00671886
0.00694531
0.00717383
0.00740429
0.00763654
0.00787047
0.008106
0.00834303
0.00858148
0.00882121
0.00906207
0.00930388
0.0095465
0.00978981
0.0100337
0.0102781
0.010523
0.0107684
0.0110141
0.01126
0.0115061
0.0117522
0.0119981
0.0122437
0.012489
0.0127337
0.0129777
0.013221
0.0134635
0.0137052
0.013946
0.0141857
0.0144243
0.0146617
0.0148977
0.0151322
0.0153649
0.0155959
0.0158249
0.0160519
0.0162768
0.0164994
0.0167197
0.0169377
0.0171532
0.0173661
0.0175765
0.0177842
0.0179891
0.018191
0.01839
0.0185858
0.0187784
0.0189676
0.0191533
0.0193354
0.0195139
0.0196886
0.0198596
0.0200268
0.02019
0.0203494
0.0205048
0.0206561
0.0208032
0.0209461
0.0210846
0.0212186
0.0213481
0.0214729
0.021593
0.0217083
0.0218188
0.0219244
0.0220251
0.0221209
0.0222118
0.0222976
0.0223783
0.022454
0.0225245
0.0225899
0.0226501
0.0227052
0.0227549
0.0227994
0.0228386
0.0228724
0.0229007
0.0229237
0.0229411
0.022953
0.0229594
0.0229604
0.0229559
0.0229461
0.0229312
0.0229088
0.0228766
-0.000283842
-0.000315939
-0.000338599
-0.000353934
-0.000364383
-0.000369768
-0.000369926
-0.000364888
-0.000354705
-0.00033942
-0.000319063
-0.000293658
-0.000263213
-0.00022771
-0.000187119
-0.000141421
-9.06166e-05
-3.47175e-05
2.62449e-05
9.22152e-05
0.000163124
0.000238902
0.000319485
0.000404822
0.000494878
0.00058964
0.000689104
0.000793276
0.00090215
0.00101569
0.00113385
0.00125653
0.00138365
0.0015151
0.00165079
0.00179065
0.00193464
0.00208272
0.00223486
0.00239105
0.00255124
0.00271537