/*--------------------------------*- C++ -*----------------------------------*\
  =========                 |
  \\      /  F ield         | OpenFOAM: The Open Source CFD Toolbox
   \\    /   O peration     | Website:  https://openfoam.org
    \\  /    A nd           | Version:  7
     \\/     M anipulation  |
\*---------------------------------------------------------------------------*/
FoamFile
{
    version     2.0;
    format      ascii;
    class       surfaceScalarField;
    location    "0.0125";
    object      phi;
}
// * * * * * * * * * * * * * * * * * * * * * * * * * * * * * * * * * * * * * //

dimensions      [0 3 -1 0 0 0 0];

internalField   nonuniform List<scalar> 
50880
(
1.45666e-11
-1.45128e-11
4.09243e-12
1.04732e-11
-3.13366e-11
3.54279e-11
-1.01348e-10
7.001e-11
-1.99429e-10
9.80809e-11
-3.16791e-10
1.17362e-10
-4.46642e-10
1.29852e-10
-5.84257e-10
1.37614e-10
-7.26357e-10
1.42101e-10
-8.70744e-10
1.44386e-10
-1.01603e-09
1.45281e-10
-1.16141e-09
1.45377e-10
-1.30638e-09
1.44977e-10
-1.45068e-09
1.443e-10
-1.59415e-09
1.43462e-10
-1.73671e-09
1.42564e-10
-1.87836e-09
1.41649e-10
-2.01906e-09
1.40696e-10
-2.15876e-09
1.39705e-10
-2.29744e-09
1.38677e-10
-2.43505e-09
1.37609e-10
-2.57156e-09
1.36514e-10
-2.70694e-09
1.35374e-10
-2.84111e-09
1.34172e-10
-2.97402e-09
1.32902e-10
-3.10558e-09
1.31569e-10
-3.23578e-09
1.30194e-10
-3.36456e-09
1.28782e-10
-3.49188e-09
1.27313e-10
-3.61766e-09
1.25785e-10
-3.74187e-09
1.24213e-10
-3.86446e-09
1.22592e-10
-3.98539e-09
1.20928e-10
-4.10462e-09
1.1923e-10
-4.2221e-09
1.1748e-10
-4.33777e-09
1.15666e-10
-4.45156e-09
1.13798e-10
-4.56345e-09
1.11887e-10
-4.67338e-09
1.0993e-10
-4.78132e-09
1.07935e-10
-4.88722e-09
1.05899e-10
-4.99103e-09
1.03808e-10
-5.09269e-09
1.01668e-10
-5.1922e-09
9.95032e-11
-5.28952e-09
9.73235e-11
-5.38463e-09
9.51092e-11
-5.47748e-09
9.28458e-11
-5.56801e-09
9.05359e-11
-5.6562e-09
8.81844e-11
-5.74199e-09
8.57926e-11
-5.82536e-09
8.33689e-11
-5.90628e-09
8.09211e-11
-5.98472e-09
7.84441e-11
-6.06066e-09
7.59301e-11
-6.13404e-09
7.33856e-11
-6.20486e-09
7.08218e-11
-6.2731e-09
6.82362e-11
-6.33872e-09
6.56164e-11
-6.40168e-09
6.29611e-11
-6.46196e-09
6.02787e-11
-6.51953e-09
5.75721e-11
-6.57437e-09
5.48381e-11
-6.62645e-09
5.20803e-11
-6.67576e-09
4.93093e-11
-6.72229e-09
4.65285e-11
-6.76602e-09
4.37293e-11
-6.80692e-09
4.0904e-11
-6.84497e-09
3.80534e-11
-6.88015e-09
3.51794e-11
-6.91243e-09
3.22796e-11
-6.94179e-09
2.93553e-11
-6.96821e-09
2.64181e-11
-6.99169e-09
2.34826e-11
-7.01224e-09
2.0553e-11
-7.02986e-09
1.76234e-11
-7.04455e-09
1.46882e-11
-7.0563e-09
1.17476e-11
-7.0651e-09
8.80063e-12
-7.07094e-09
5.84121e-12
-7.07381e-09
2.86559e-12
-7.07369e-09
-1.19117e-13
-7.07059e-09
-3.09963e-12
-7.06452e-09
-6.07037e-12
-7.05548e-09
-9.03306e-12
-7.04349e-09
-1.19916e-11
-7.02855e-09
-1.49469e-11
-7.01065e-09
-1.78959e-11
-6.98981e-09
-2.08374e-11
-6.96604e-09
-2.37755e-11
-6.93933e-09
-2.67098e-11
-6.9097e-09
-2.96331e-11
-6.87715e-09
-3.25433e-11
-6.8417e-09
-3.54476e-11
-6.80335e-09
-3.83502e-11
-6.76211e-09
-4.12488e-11
-6.71797e-09
-4.41392e-11
-6.67095e-09
-4.70157e-11
-6.62108e-09
-4.98721e-11
-6.56837e-09
-5.2708e-11
-6.51285e-09
-5.55288e-11
-6.45451e-09
-5.83354e-11
-6.39339e-09
-6.11184e-11
-6.32952e-09
-6.38713e-11
-6.26292e-09
-6.6599e-11
-6.19362e-09
-6.93059e-11
-6.12164e-09
-7.19822e-11
-6.04702e-09
-7.4618e-11
-5.9698e-09
-7.72203e-11
-5.89e-09
-7.9799e-11
-5.80765e-09
-8.23477e-11
-5.7228e-09
-8.48567e-11
-5.63546e-09
-8.73339e-11
-5.54567e-09
-8.97913e-11
-5.45345e-09
-9.22229e-11
-5.35883e-09
-9.46167e-11
-5.26185e-09
-9.69776e-11
-5.16254e-09
-9.93124e-11
-5.06093e-09
-1.01608e-10
-4.95709e-09
-1.03847e-10
-4.85105e-09
-1.06036e-10
-4.74286e-09
-1.0819e-10
-4.63256e-09
-1.10301e-10
-4.52021e-09
-1.12346e-10
-4.40589e-09
-1.14328e-10
-4.28962e-09
-1.16273e-10
-4.17143e-09
-1.18187e-10
-4.05138e-09
-1.20049e-10
-3.92953e-09
-1.21847e-10
-3.80593e-09
-1.23599e-10
-3.68062e-09
-1.25318e-10
-3.55363e-09
-1.26988e-10
-3.42504e-09
-1.28591e-10
-3.29491e-09
-1.30131e-10
-3.16328e-09
-1.31626e-10
-3.03021e-09
-1.33074e-10
-2.89575e-09
-1.34455e-10
-2.75998e-09
-1.35769e-10
-2.62295e-09
-1.37036e-10
-2.48468e-09
-1.3827e-10
-2.34522e-09
-1.39462e-10
-2.20462e-09
-1.40596e-10
-2.06294e-09
-1.41679e-10
-1.92021e-09
-1.42729e-10
-1.77646e-09
-1.43747e-10
-1.63175e-09
-1.44712e-10
-1.48615e-09
-1.45598e-10
-1.33978e-09
-1.46378e-10
-1.19278e-09
-1.46996e-10
-1.04546e-09
-1.47316e-10
-8.98356e-10
-1.47109e-10
-7.52326e-10
-1.4603e-10
-6.08752e-10
-1.43574e-10
-4.69751e-10
-1.39001e-10
-3.38444e-10
-1.31306e-10
-2.19198e-10
-1.19246e-10
-1.17724e-10
-1.01474e-10
-4.08411e-11
-7.68829e-11
4.56871e-12
-4.54097e-11
1.48535e-11
-1.02845e-11
1.48533e-11
-8.26916e-12
-6.24477e-12
-7.92517e-11
8.14581e-11
-2.19448e-10
1.75624e-10
-4.26266e-10
2.76829e-10
-6.89333e-10
3.61147e-10
-9.95323e-10
4.23351e-10
-1.33194e-09
4.66468e-10
-1.68913e-09
4.94805e-10
-2.05935e-09
5.12321e-10
-2.43719e-09
5.22224e-10
-2.81895e-09
5.27049e-10
-3.20218e-09
5.28602e-10
-3.58535e-09
5.28144e-10
-3.9675e-09
5.26446e-10
-4.34802e-09
5.23996e-10
-4.72658e-09
5.2112e-10
-5.1029e-09
5.1797e-10
-5.47682e-09
5.14618e-10
-5.84821e-09
5.11094e-10
-6.21692e-09
5.07392e-10
-6.58284e-09
5.03526e-10
-6.94582e-09
4.99496e-10
-7.30573e-09
4.95286e-10
-7.66244e-09
4.90885e-10
-8.01582e-09
4.86278e-10
-8.36572e-09
4.81465e-10
-8.71199e-09
4.76469e-10
-9.05449e-09
4.71284e-10
-9.39308e-09
4.65902e-10
-9.72763e-09
4.60335e-10
-1.0058e-08
4.54582e-10
-1.03841e-08
4.4864e-10
-1.07056e-08
4.42526e-10
-1.10227e-08
4.36244e-10
-1.1335e-08
4.29781e-10
-1.16424e-08
4.23138e-10
-1.1945e-08
4.16322e-10
-1.22424e-08
4.09331e-10
-1.25347e-08
4.02175e-10
-1.28216e-08
3.94868e-10
-1.31031e-08
3.87403e-10
-1.3379e-08
3.79769e-10
-1.36494e-08
3.7198e-10
-1.39139e-08
3.64057e-10
-1.41726e-08
3.56004e-10
-1.44253e-08
3.47809e-10
-1.46719e-08
3.3947e-10
-1.49124e-08
3.30991e-10
-1.51466e-08
3.22372e-10
-1.53744e-08
3.13619e-10
-1.55958e-08
3.04746e-10
-1.58106e-08
2.95762e-10
-1.60188e-08
2.86661e-10
-1.62203e-08
2.77439e-10
-1.64151e-08
2.68109e-10
-1.66029e-08
2.58682e-10
-1.67838e-08
2.49155e-10
-1.69577e-08
2.39523e-10
-1.71246e-08
2.29792e-10
-1.72843e-08
2.19971e-10
-1.74368e-08
2.1006e-10
-1.7582e-08
2.00059e-10
-1.77199e-08
1.89977e-10
-1.78504e-08
1.79826e-10
-1.79735e-08
1.69607e-10
-1.80891e-08
1.59317e-10
-1.81971e-08
1.48955e-10
-1.82976e-08
1.38526e-10
-1.83904e-08
1.28035e-10
-1.84756e-08
1.17479e-10
-1.85531e-08
1.06864e-10
-1.86229e-08
9.62027e-11
-1.8685e-08
8.55113e-11
-1.87392e-08
7.47933e-11
-1.87856e-08
6.40465e-11
-1.88242e-08
5.32724e-11
-1.88549e-08
4.24756e-11
-1.88778e-08
3.16579e-11
-1.88928e-08
2.0817e-11
-1.88999e-08
9.95381e-12
-1.88991e-08
-9.21314e-13
-1.88904e-08
-1.17943e-11
-1.88738e-08
-2.26582e-11
-1.88493e-08
-3.35129e-11
-1.88169e-08
-4.43563e-11
-1.87767e-08
-5.51833e-11
-1.87286e-08
-6.59893e-11
-1.86727e-08
-7.67729e-11
-1.86089e-08
-8.75346e-11
-1.85373e-08
-9.82717e-11
-1.8458e-08
-1.08975e-10
-1.83709e-08
-1.19638e-10
-1.82761e-08
-1.30265e-10
-1.81736e-08
-1.4086e-10
-1.80634e-08
-1.51418e-10
-1.79456e-08
-1.61929e-10
-1.78203e-08
-1.72389e-10
-1.76873e-08
-1.82793e-10
-1.75469e-08
-1.93133e-10
-1.7399e-08
-2.03408e-10
-1.72437e-08
-2.13617e-10
-1.70811e-08
-2.23751e-10
-1.69112e-08
-2.33798e-10
-1.6734e-08
-2.43757e-10
-1.65497e-08
-2.53632e-10
-1.63583e-08
-2.63413e-10
-1.61598e-08
-2.73084e-10
-1.59544e-08
-2.82646e-10
-1.57421e-08
-2.92106e-10
-1.5523e-08
-3.0146e-10
-1.52971e-08
-3.10693e-10
-1.50647e-08
-3.19803e-10
-1.48257e-08
-3.28795e-10
-1.45802e-08
-3.37668e-10
-1.43284e-08
-3.46409e-10
-1.40704e-08
-3.55009e-10
-1.38062e-08
-3.63468e-10
-1.35361e-08
-3.71782e-10
-1.326e-08
-3.79939e-10
-1.29781e-08
-3.87933e-10
-1.26905e-08
-3.95768e-10
-1.23973e-08
-4.03443e-10
-1.20988e-08
-4.10945e-10
-1.17948e-08
-4.18265e-10
-1.14857e-08
-4.25411e-10
-1.11715e-08
-4.32387e-10
-1.08523e-08
-4.39189e-10
-1.05284e-08
-4.45802e-10
-1.01998e-08
-4.52226e-10
-9.8666e-09
-4.58465e-10
-9.52907e-09
-4.64519e-10
-9.18729e-09
-4.7038e-10
-8.84138e-09
-4.76041e-10
-8.4915e-09
-4.815e-10
-8.13782e-09
-4.86763e-10
-7.78044e-09
-4.91829e-10
-7.41952e-09
-4.96695e-10
-7.05519e-09
-5.01366e-10
-6.68761e-09
-5.05848e-10
-6.31692e-09
-5.10147e-10
-5.94326e-09
-5.14261e-10
-5.56675e-09
-5.18188e-10
-5.18755e-09
-5.21927e-10
-4.80583e-09
-5.25463e-10
-4.42179e-09
-5.28753e-10
-4.03568e-09
-5.31708e-10
-3.6479e-09
-5.34163e-10
-3.25908e-09
-5.35816e-10
-2.87024e-09
-5.36155e-10
-2.48298e-09
-5.34368e-10
-2.09978e-09
-5.29227e-10
-1.7244e-09
-5.18958e-10
-1.36226e-09
-5.01142e-10
-1.02085e-09
-4.72714e-10
-7.09958e-10
-4.3014e-10
-4.41488e-10
-3.69944e-10
-2.28475e-10
-2.89896e-10
-8.26931e-11
-1.91191e-10
-1.02593e-11
-8.27195e-11
4.59552e-12
-5.41355e-11
4.78896e-11
-1.98821e-10
2.26138e-10
-4.39544e-10
4.16347e-10
-7.67748e-10
6.05033e-10
-1.16957e-09
7.62964e-10
-1.62926e-09
8.83048e-10
-2.1317e-09
9.68903e-10
-2.66402e-09
1.02712e-09
-3.21606e-09
1.06436e-09
-3.78029e-09
1.08645e-09
-4.3513e-09
1.09806e-09
-4.9254e-09
1.1027e-09
-5.50013e-09
1.10287e-09
-6.07389e-09
1.10021e-09
-6.64568e-09
1.09578e-09
-7.21481e-09
1.09025e-09
-7.78081e-09
1.08397e-09
-8.34335e-09
1.07716e-09
-8.90216e-09
1.0699e-09
-9.45701e-09
1.06224e-09
-1.00077e-08
1.0542e-09
-1.0554e-08
1.04578e-09
-1.10956e-08
1.03696e-09
-1.16325e-08
1.02773e-09
-1.21643e-08
1.01809e-09
-1.26909e-08
1.00805e-09
-1.3212e-08
9.97593e-10
-1.37275e-08
9.86736e-10
-1.4237e-08
9.75471e-10
-1.47405e-08
9.63806e-10
-1.52377e-08
9.51749e-10
-1.57283e-08
9.39308e-10
-1.62123e-08
9.26488e-10
-1.66893e-08
9.13297e-10
-1.71593e-08
8.99733e-10
-1.7622e-08
8.858e-10
-1.80771e-08
8.71508e-10
-1.85247e-08
8.56863e-10
-1.89644e-08
8.41876e-10
-1.93961e-08
8.26553e-10
-1.98196e-08
8.10892e-10
-2.02347e-08
7.94897e-10
-2.06413e-08
7.78585e-10
-2.10392e-08
7.61972e-10
-2.14283e-08
7.45063e-10
-2.18083e-08
7.27856e-10
-2.21792e-08
7.10354e-10
-2.25408e-08
6.92563e-10
-2.28929e-08
6.74488e-10
-2.32354e-08
6.56142e-10
-2.35682e-08
6.37539e-10
-2.38911e-08
6.18687e-10
-2.42041e-08
5.99589e-10
-2.45069e-08
5.80251e-10
-2.47994e-08
5.60685e-10
-2.50817e-08
5.40904e-10
-2.53534e-08
5.2091e-10
-2.56146e-08
5.00709e-10
-2.58651e-08
4.80311e-10
-2.61049e-08
4.59726e-10
-2.63338e-08
4.38956e-10
-2.65517e-08
4.18009e-10
-2.67587e-08
3.96897e-10
-2.69545e-08
3.75631e-10
-2.71391e-08
3.54217e-10
-2.73124e-08
3.32657e-10
-2.74744e-08
3.10959e-10
-2.7625e-08
2.89132e-10
-2.77642e-08
2.67181e-10
-2.78918e-08
2.45111e-10
-2.80079e-08
2.22929e-10
-2.81123e-08
2.00653e-10
-2.82051e-08
1.78297e-10
-2.82862e-08
1.55866e-10
-2.83555e-08
1.33368e-10
-2.8413e-08
1.1081e-10
-2.84588e-08
8.82036e-11
-2.84926e-08
6.5553e-11
-2.85147e-08
4.28619e-11
-2.85249e-08
2.01386e-11
-2.85232e-08
-2.60224e-12
-2.85096e-08
-2.53461e-11
-2.84842e-08
-4.80828e-11
-2.84469e-08
-7.08046e-11
-2.83978e-08
-9.35039e-11
-2.83368e-08
-1.16171e-10
-2.8264e-08
-1.38795e-10
-2.81794e-08
-1.61373e-10
-2.8083e-08
-1.839e-10
-2.79749e-08
-2.06367e-10
-2.78551e-08
-2.28763e-10
-2.77237e-08
-2.5108e-10
-2.75807e-08
-2.73316e-10
-2.7426e-08
-2.9547e-10
-2.72599e-08
-3.17533e-10
-2.70824e-08
-3.39496e-10
-2.68934e-08
-3.61349e-10
-2.66931e-08
-3.83083e-10
-2.64816e-08
-4.04688e-10
-2.62588e-08
-4.26156e-10
-2.60249e-08
-4.4748e-10
-2.57801e-08
-4.68645e-10
-2.55242e-08
-4.8964e-10
-2.52575e-08
-5.10461e-10
-2.498e-08
-5.311e-10
-2.46919e-08
-5.51543e-10
-2.43932e-08
-5.71775e-10
-2.40841e-08
-5.91794e-10
-2.37646e-08
-6.11596e-10
-2.34349e-08
-6.31166e-10
-2.30951e-08
-6.50489e-10
-2.27453e-08
-6.69562e-10
-2.23857e-08
-6.88378e-10
-2.20165e-08
-7.06922e-10
-2.16377e-08
-7.25183e-10
-2.12496e-08
-7.43156e-10
-2.08522e-08
-7.60832e-10
-2.04458e-08
-7.78194e-10
-2.00305e-08
-7.95231e-10
-1.96065e-08
-8.11945e-10
-1.91739e-08
-8.28336e-10
-1.8733e-08
-8.44384e-10
-1.82839e-08
-8.60071e-10
-1.78267e-08
-8.75398e-10
-1.73618e-08
-8.90374e-10
-1.68892e-08
-9.04986e-10
-1.64091e-08
-9.19213e-10
-1.59219e-08
-9.3305e-10
-1.54276e-08
-9.46506e-10
-1.49265e-08
-9.59579e-10
-1.44188e-08
-9.72248e-10
-1.39046e-08
-9.845e-10
-1.33843e-08
-9.96344e-10
-1.28581e-08
-1.00779e-09
-1.2326e-08
-1.01882e-09
-1.17884e-08
-1.02942e-09
-1.12455e-08
-1.03959e-09
-1.06975e-08
-1.04936e-09
-1.01446e-08
-1.05873e-09
-9.5871e-09
-1.06769e-09
-9.02513e-09
-1.07623e-09
-8.45898e-09
-1.08435e-09
-7.88887e-09
-1.09203e-09
-7.3151e-09
-1.09924e-09
-6.73801e-09
-1.10584e-09
-6.15811e-09
-1.11161e-09
-5.5761e-09
-1.11617e-09
-4.99304e-09
-1.11887e-09
-4.41058e-09
-1.11862e-09
-3.83122e-09
-1.11373e-09
-3.25872e-09
-1.10173e-09
-2.69851e-09
-1.07916e-09
-2.1582e-09
-1.04146e-09
-1.64793e-09
-9.82986e-10
-1.18056e-09
-8.9751e-10
-7.71325e-10
-7.79178e-10
-4.36475e-10
-6.24745e-10
-1.91139e-10
-4.36529e-10
-4.53322e-11
-2.28524e-10
-4.07379e-11
-7.97963e-11
1.27687e-10
-2.91934e-10
4.38272e-10
-6.2276e-10
7.47171e-10
-1.05642e-09
1.03869e-09
-1.57523e-09
1.28177e-09
-2.16111e-09
1.46893e-09
-2.79722e-09
1.60501e-09
-3.46905e-09
1.69895e-09
-4.16499e-09
1.76031e-09
-4.87623e-09
1.79769e-09
-5.59633e-09
1.81816e-09
-6.32077e-09
1.82714e-09
-7.04644e-09
1.82855e-09
-7.77129e-09
1.82506e-09
-8.49394e-09
1.81843e-09
-9.21344e-09
1.80975e-09
-9.92916e-09
1.79969e-09
-1.06406e-08
1.78861e-09
-1.13474e-08
1.77671e-09
-1.20492e-08
1.76407e-09
-1.27458e-08
1.75075e-09
-1.34368e-08
1.73677e-09
-1.41219e-08
1.72211e-09
-1.4801e-08
1.70678e-09
-1.54736e-08
1.69076e-09
-1.61397e-08
1.67405e-09
-1.67987e-08
1.65667e-09
-1.74506e-08
1.63862e-09
-1.8095e-08
1.61989e-09
-1.87317e-08
1.6005e-09
-1.93604e-08
1.58046e-09
-1.99809e-08
1.55976e-09
-2.05929e-08
1.53844e-09
-2.11961e-08
1.51649e-09
-2.17903e-08
1.49394e-09
-2.23752e-08
1.47077e-09
-2.29507e-08
1.447e-09
-2.35165e-08
1.42264e-09
-2.40723e-08
1.39772e-09
-2.4618e-08
1.37224e-09
-2.51533e-08
1.3462e-09
-2.5678e-08
1.31962e-09
-2.6192e-08
1.2925e-09
-2.66949e-08
1.26487e-09
-2.71865e-08
1.23674e-09
-2.76668e-08
1.20812e-09
-2.81355e-08
1.17901e-09
-2.85923e-08
1.14943e-09
-2.90372e-08
1.11938e-09
-2.947e-08
1.08889e-09
-2.98904e-08
1.05795e-09
-3.02983e-08
1.0266e-09
-3.06936e-08
9.94846e-10
-3.1076e-08
9.62698e-10
-3.14455e-08
9.30173e-10
-3.18019e-08
8.97284e-10
-3.2145e-08
8.64042e-10
-3.24748e-08
8.30463e-10
-3.2791e-08
7.96563e-10
-3.30937e-08
7.62353e-10
-3.33825e-08
7.27842e-10
-3.36576e-08
6.93044e-10
-3.39187e-08
6.57976e-10
-3.41657e-08
6.22653e-10
-3.43985e-08
5.87083e-10
-3.46172e-08
5.51276e-10
-3.48214e-08
5.15248e-10
-3.50113e-08
4.7901e-10
-3.51867e-08
4.4257e-10
-3.53475e-08
4.05939e-10
-3.54937e-08
3.69134e-10
-3.56253e-08
3.32174e-10
-3.5742e-08
2.95075e-10
-3.5844e-08
2.57846e-10
-3.59312e-08
2.20503e-10
-3.60034e-08
1.83062e-10
-3.60607e-08
1.45538e-10
-3.61031e-08
1.07941e-10
-3.61305e-08
7.02799e-11
-3.6143e-08
3.25723e-11
-3.61404e-08
-5.16157e-12
-3.61229e-08
-4.29031e-11
-3.60903e-08
-8.0638e-11
-3.60428e-08
-1.18351e-10
-3.59802e-08
-1.56027e-10
-3.59028e-08
-1.93649e-10
-3.58104e-08
-2.31206e-10
-3.5703e-08
-2.68684e-10
-3.55809e-08
-3.06073e-10
-3.54439e-08
-3.43359e-10
-3.52921e-08
-3.80526e-10
-3.51256e-08
-4.17561e-10
-3.49445e-08
-4.54462e-10
-3.47487e-08
-4.9122e-10
-3.45384e-08
-5.27821e-10
-3.43137e-08
-5.64246e-10
-3.40746e-08
-6.00486e-10
-3.38211e-08
-6.3653e-10
-3.35534e-08
-6.72358e-10
-3.32716e-08
-7.07953e-10
-3.29758e-08
-7.43308e-10
-3.26661e-08
-7.78403e-10
-3.23425e-08
-8.13218e-10
-3.20052e-08
-8.47742e-10
-3.16543e-08
-8.81966e-10
-3.129e-08
-9.1587e-10
-3.09124e-08
-9.49429e-10
-3.05215e-08
-9.82634e-10
-3.01176e-08
-1.01548e-09
-2.97009e-08
-1.04794e-09
-2.92713e-08
-1.08e-09
-2.88293e-08
-1.11163e-09
-2.83748e-08
-1.14284e-09
-2.79081e-08
-1.1736e-09
-2.74294e-08
-1.20388e-09
-2.69389e-08
-1.23369e-09
-2.64368e-08
-1.26299e-09
-2.59232e-08
-1.29179e-09
-2.53983e-08
-1.32006e-09
-2.48625e-08
-1.34779e-09
-2.43158e-08
-1.37497e-09
-2.37586e-08
-1.40159e-09
-2.31911e-08
-1.42764e-09
-2.26134e-08
-1.45308e-09
-2.20258e-08
-1.47793e-09
-2.14286e-08
-1.50218e-09
-2.0822e-08
-1.52581e-09
-2.02063e-08
-1.5488e-09
-1.95817e-08
-1.57114e-09
-1.89484e-08
-1.59283e-09
-1.83068e-08
-1.61386e-09
-1.76571e-08
-1.63422e-09
-1.69995e-08
-1.6539e-09
-1.63344e-08
-1.67288e-09
-1.56621e-08
-1.69117e-09
-1.49827e-08
-1.70877e-09
-1.42966e-08
-1.72567e-09
-1.36041e-08
-1.74187e-09
-1.29055e-08
-1.75737e-09
-1.2201e-08
-1.77218e-09
-1.1491e-08
-1.78627e-09
-1.07757e-08
-1.79964e-09
-1.00555e-08
-1.81222e-09
-9.33081e-09
-1.8239e-09
-8.60217e-09
-1.83448e-09
-7.87023e-09
-1.84355e-09
-7.13594e-09
-1.85046e-09
-6.40075e-09
-1.85406e-09
-5.66679e-09
-1.85258e-09
-4.93721e-09
-1.84331e-09
-4.21658e-09
-1.82236e-09
-3.51138e-09
-1.78436e-09
-2.83053e-09
-1.72232e-09
-2.18566e-09
-1.62785e-09
-1.59138e-09
-1.49179e-09
-1.0648e-09
-1.30577e-09
-6.24703e-10
-1.06484e-09
-2.89825e-10
-7.71407e-10
-7.68157e-11
-4.41533e-10
-1.17555e-10
-1.0078e-10
2.28468e-10
-3.66222e-10
7.03713e-10
-7.71209e-10
1.15216e-09
-1.29153e-09
1.55901e-09
-1.90516e-09
1.89541e-09
-2.59171e-09
2.15547e-09
-3.33291e-09
2.34621e-09
-4.11328e-09
2.47933e-09
-4.92041e-09
2.56744e-09
-5.74476e-09
2.62204e-09
-6.57932e-09
2.65271e-09
-7.41906e-09
2.66688e-09
-8.26048e-09
2.66997e-09
-9.10121e-09
2.66579e-09
-9.9396e-09
2.65682e-09
-1.07745e-08
2.64469e-09
-1.16052e-08
2.63037e-09
-1.2431e-08
2.61443e-09
-1.32515e-08
2.59719e-09
-1.40663e-08
2.57882e-09
-1.48749e-08
2.55939e-09
-1.56771e-08
2.53895e-09
-1.64725e-08
2.5175e-09
-1.72608e-08
2.49506e-09
-1.80416e-08
2.47161e-09
-1.88147e-08
2.44717e-09
-1.95798e-08
2.42172e-09
-2.03365e-08
2.39528e-09
-2.10844e-08
2.36787e-09
-2.18234e-08
2.33949e-09
-2.25531e-08
2.31014e-09
-2.32732e-08
2.27986e-09
-2.39834e-08
2.24864e-09
-2.46834e-08
2.21651e-09
-2.53729e-08
2.18348e-09
-2.60517e-08
2.14957e-09
-2.67195e-08
2.11478e-09
-2.7376e-08
2.07914e-09
-2.8021e-08
2.04266e-09
-2.86541e-08
2.00535e-09
-2.92751e-08
1.96724e-09
-2.98838e-08
1.92834e-09
-3.048e-08
1.88868e-09
-3.10634e-08
1.84825e-09
-3.16337e-08
1.80708e-09
-3.21908e-08
1.76519e-09
-3.27344e-08
1.72259e-09
-3.32643e-08
1.6793e-09
-3.37802e-08
1.63534e-09
-3.42821e-08
1.59073e-09
-3.47696e-08
1.54547e-09
-3.52426e-08
1.4996e-09
-3.57009e-08
1.45314e-09
-3.61443e-08
1.40611e-09
-3.65726e-08
1.35854e-09
-3.69858e-08
1.31042e-09
-3.73835e-08
1.2618e-09
-3.77658e-08
1.21269e-09
-3.81323e-08
1.16311e-09
-3.8483e-08
1.11308e-09
-3.88178e-08
1.06261e-09
-3.91365e-08
1.01173e-09
-3.9439e-08
9.60465e-10
-3.97252e-08
9.08822e-10
-3.99949e-08
8.5682e-10
-4.02481e-08
8.04481e-10
-4.04847e-08
7.51822e-10
-4.07045e-08
6.98857e-10
-4.09076e-08
6.45603e-10
-4.10937e-08
5.92077e-10
-4.12629e-08
5.38304e-10
-4.1415e-08
4.84307e-10
-4.155e-08
4.30103e-10
-4.16679e-08
3.75711e-10
-4.17685e-08
3.21154e-10
-4.18519e-08
2.66454e-10
-4.1918e-08
2.11631e-10
-4.19668e-08
1.56701e-10
-4.19982e-08
1.01682e-10
-4.20122e-08
4.66009e-11
-4.20089e-08
-8.51762e-12
-4.19881e-08
-6.36502e-11
-4.195e-08
-1.18776e-10
-4.18944e-08
-1.73871e-10
-4.18216e-08
-2.28911e-10
-4.17313e-08
-2.83875e-10
-4.16238e-08
-3.38745e-10
-4.1499e-08
-3.93502e-10
-4.13569e-08
-4.48126e-10
-4.11977e-08
-5.02596e-10
-4.10213e-08
-5.56893e-10
-4.08279e-08
-6.11001e-10
-4.06174e-08
-6.64908e-10
-4.03901e-08
-7.18602e-10
-4.01458e-08
-7.7206e-10
-3.98848e-08
-8.25259e-10
-3.96071e-08
-8.78181e-10
-3.93128e-08
-9.30813e-10
-3.90021e-08
-9.83129e-10
-3.86749e-08
-1.0351e-09
-3.83315e-08
-1.08672e-09
-3.79719e-08
-1.13796e-09
-3.75964e-08
-1.18879e-09
-3.72049e-08
-1.2392e-09
-3.67977e-08
-1.28916e-09
-3.63749e-08
-1.33866e-09
-3.59367e-08
-1.38766e-09
-3.54832e-08
-1.43615e-09
-3.50145e-08
-1.4841e-09
-3.4531e-08
-1.53149e-09
-3.40327e-08
-1.5783e-09
-3.35198e-08
-1.62449e-09
-3.29926e-08
-1.67004e-09
-3.24513e-08
-1.71495e-09
-3.1896e-08
-1.75918e-09
-3.1327e-08
-1.8027e-09
-3.07445e-08
-1.84549e-09
-3.01487e-08
-1.88755e-09
-2.954e-08
-1.92883e-09
-2.89184e-08
-1.96934e-09
-2.82843e-08
-2.00904e-09
-2.7638e-08
-2.04792e-09
-2.69797e-08
-2.08596e-09
-2.63096e-08
-2.12315e-09
-2.56281e-08
-2.15947e-09
-2.49354e-08
-2.1949e-09
-2.42318e-08
-2.22941e-09
-2.35175e-08
-2.26301e-09
-2.2793e-08
-2.29567e-09
-2.20585e-08
-2.32738e-09
-2.13142e-08
-2.35812e-09
-2.05606e-08
-2.38786e-09
-1.97979e-08
-2.41661e-09
-1.90264e-08
-2.44436e-09
-1.82464e-08
-2.4711e-09
-1.74584e-08
-2.4968e-09
-1.66626e-08
-2.52146e-09
-1.58594e-08
-2.54511e-09
-1.50491e-08
-2.56772e-09
-1.42319e-08
-2.58928e-09
-1.34085e-08
-2.60977e-09
-1.2579e-08
-2.62913e-09
-1.17439e-08
-2.64729e-09
-1.09037e-08
-2.66406e-09
-1.00591e-08
-2.67909e-09
-9.2109e-09
-2.69177e-09
-8.36026e-09
-2.7011e-09
-7.50886e-09
-2.70547e-09
-6.65913e-09
-2.70231e-09
-5.81462e-09
-2.68782e-09
-4.98043e-09
-2.65656e-09
-4.16363e-09
-2.60116e-09
-3.3738e-09
-2.51214e-09
-2.62342e-09
-2.37823e-09
-1.92813e-09
-2.18709e-09
-1.30647e-09
-1.92742e-09
-7.79566e-10
-1.59174e-09
-3.69978e-10
-1.18099e-09
-1.01425e-10
-7.10088e-10
-2.18979e-10
-1.16967e-10
3.45434e-10
-4.23898e-10
1.01064e-09
-8.86913e-10
1.61517e-09
-1.47543e-09
2.14752e-09
-2.16336e-09
2.58334e-09
-2.92803e-09
2.92015e-09
-3.74995e-09
3.16812e-09
-4.61293e-09
3.34231e-09
-5.50407e-09
3.45858e-09
-6.41349e-09
3.53146e-09
-7.33384e-09
3.57307e-09
-8.25987e-09
3.59291e-09
-9.18786e-09
3.59796e-09
-1.01152e-08
3.59314e-09
-1.10401e-08
3.58176e-09
-1.19614e-08
3.56595e-09
-1.28781e-08
3.54705e-09
-1.37895e-08
3.52583e-09
-1.4695e-08
3.50276e-09
-1.55943e-08
3.47808e-09
-1.64868e-08
3.45194e-09
-1.73723e-08
3.42438e-09
-1.82502e-08
3.39544e-09
-1.91203e-08
3.36513e-09
-1.99821e-08
3.33347e-09
-2.08354e-08
3.30045e-09
-2.16798e-08
3.26608e-09
-2.25149e-08
3.23038e-09
-2.33404e-08
3.19335e-09
-2.41559e-08
3.15502e-09
-2.49611e-08
3.11539e-09
-2.57558e-08
3.07449e-09
-2.65395e-08
3.03234e-09
-2.73119e-08
2.98895e-09
-2.80728e-08
2.94434e-09
-2.88218e-08
2.89855e-09
-2.95586e-08
2.85158e-09
-3.02829e-08
2.80345e-09
-3.09944e-08
2.7542e-09
-3.16929e-08
2.70383e-09
-3.2378e-08
2.65238e-09
-3.30496e-08
2.59986e-09
-3.37072e-08
2.54631e-09
-3.43507e-08
2.49174e-09
-3.49798e-08
2.43617e-09
-3.55942e-08
2.37962e-09
-3.61937e-08
2.32212e-09
-3.67781e-08
2.26369e-09
-3.73471e-08
2.20436e-09
-3.79006e-08
2.14415e-09
-3.84382e-08
2.08308e-09
-3.89598e-08
2.02118e-09
-3.94651e-08
1.95849e-09
-3.9954e-08
1.89503e-09
-4.04263e-08
1.83083e-09
-4.08818e-08
1.76592e-09
-4.13203e-08
1.70032e-09
-4.17417e-08
1.63406e-09
-4.21458e-08
1.56717e-09
-4.25324e-08
1.49968e-09
-4.29014e-08
1.4316e-09
-4.32526e-08
1.36297e-09
-4.3586e-08
1.29382e-09
-4.39013e-08
1.22417e-09
-4.41985e-08
1.15403e-09
-4.44775e-08
1.08345e-09
-4.47381e-08
1.01243e-09
-4.49802e-08
9.41009e-10
-4.52038e-08
8.692e-10
-4.54088e-08
7.97035e-10
-4.5595e-08
7.24542e-10
-4.57625e-08
6.51746e-10
-4.5911e-08
5.78673e-10
-4.60407e-08
5.05351e-10
-4.61513e-08
4.3181e-10
-4.6243e-08
3.58077e-10
-4.63155e-08
2.84176e-10
-4.63689e-08
2.10133e-10
-4.64032e-08
1.35975e-10
-4.64184e-08
6.17376e-11
-4.64143e-08
-1.25499e-11
-4.63911e-08
-8.68587e-11
-4.63487e-08
-1.61159e-10
-4.62872e-08
-2.35417e-10
-4.62065e-08
-3.09603e-10
-4.61067e-08
-3.8369e-10
-4.59878e-08
-4.57653e-10
-4.58498e-08
-5.31464e-10
-4.56929e-08
-6.05094e-10
-4.55169e-08
-6.78516e-10
-4.53221e-08
-7.51707e-10
-4.51085e-08
-8.24646e-10
-4.48761e-08
-8.97312e-10
-4.4625e-08
-9.69683e-10
-4.43553e-08
-1.04173e-09
-4.40671e-08
-1.11343e-09
-4.37606e-08
-1.18475e-09
-4.34357e-08
-1.25567e-09
-4.30927e-08
-1.32617e-09
-4.27316e-08
-1.3962e-09
-4.23526e-08
-1.46575e-09
-4.19557e-08
-1.53478e-09
-4.15413e-08
-1.60328e-09
-4.11093e-08
-1.67119e-09
-4.06599e-08
-1.7385e-09
-4.01934e-08
-1.80519e-09
-3.97099e-08
-1.8712e-09
-3.92095e-08
-1.93652e-09
-3.86925e-08
-2.00112e-09
-3.8159e-08
-2.06497e-09
-3.76093e-08
-2.12802e-09
-3.70435e-08
-2.19025e-09
-3.64619e-08
-2.25163e-09
-3.58647e-08
-2.31213e-09
-3.52522e-08
-2.37172e-09
-3.46245e-08
-2.43036e-09
-3.3982e-08
-2.48803e-09
-3.33249e-08
-2.5447e-09
-3.26533e-08
-2.60035e-09
-3.19677e-08
-2.65493e-09
-3.12683e-08
-2.70845e-09
-3.05554e-08
-2.76086e-09
-2.98292e-08
-2.81214e-09
-2.90901e-08
-2.86226e-09
-2.83384e-08
-2.91122e-09
-2.75743e-08
-2.95899e-09
-2.67982e-08
-3.00554e-09
-2.60103e-08
-3.05084e-09
-2.52111e-08
-3.09487e-09
-2.44009e-08
-3.13762e-09
-2.358e-08
-3.17907e-09
-2.27486e-08
-3.21918e-09
-2.19073e-08
-3.25795e-09
-2.10563e-08
-3.29535e-09
-2.0196e-08
-3.33138e-09
-1.93268e-08
-3.36602e-09
-1.8449e-08
-3.39927e-09
-1.7563e-08
-3.43111e-09
-1.66692e-08
-3.46153e-09
-1.5768e-08
-3.49051e-09
-1.48597e-08
-3.518e-09
-1.39449e-08
-3.54395e-09
-1.3024e-08
-3.56818e-09
-1.20977e-08
-3.59042e-09
-1.11665e-08
-3.61021e-09
-1.02316e-08
-3.62672e-09
-9.29411e-09
-3.63859e-09
-8.35593e-09
-3.64364e-09
-7.4197e-09
-3.63854e-09
-6.48918e-09
-3.61834e-09
-5.56968e-09
-3.57606e-09
-4.66858e-09
-3.50226e-09
-3.79579e-09
-3.38492e-09
-2.96436e-09
-3.20966e-09
-2.1906e-09
-2.96085e-09
-1.49435e-09
-2.62366e-09
-8.98875e-10
-2.18722e-09
-4.30597e-10
-1.64927e-09
-1.19266e-10
-1.02142e-09
-3.38244e-10
-1.28666e-10
4.741e-10
-4.66217e-10
1.34819e-09
-9.72816e-10
2.12177e-09
-1.613e-09
2.78771e-09
-2.3574e-09
3.32774e-09
-3.18124e-09
3.744e-09
-4.06388e-09
4.05076e-09
-4.98852e-09
4.26695e-09
-5.94194e-09
4.412e-09
-6.91407e-09
4.50358e-09
-7.89745e-09
4.55645e-09
-8.88669e-09
4.58215e-09
-9.87799e-09
4.58925e-09
-1.08687e-08
4.58381e-09
-1.18568e-08
4.56992e-09
-1.28411e-08
4.55028e-09
-1.38207e-08
4.52655e-09
-1.47946e-08
4.49976e-09
-1.57623e-08
4.47051e-09
-1.67234e-08
4.43913e-09
-1.76773e-08
4.40582e-09
-1.86236e-08
4.37067e-09
-1.95619e-08
4.33372e-09
-2.04917e-08
4.29501e-09
-2.14128e-08
4.25455e-09
-2.23247e-08
4.21236e-09
-2.32271e-08
4.16844e-09
-2.41195e-08
4.12282e-09
-2.50017e-08
4.0755e-09
-2.58732e-08
4.02651e-09
-2.67337e-08
3.97587e-09
-2.75828e-08
3.92361e-09
-2.84202e-08
3.86975e-09
-2.92456e-08
3.81431e-09
-3.00585e-08
3.75732e-09
-3.08588e-08
3.6988e-09
-3.1646e-08
3.63879e-09
-3.24199e-08
3.57731e-09
-3.31801e-08
3.51438e-09
-3.39263e-08
3.45004e-09
-3.46582e-08
3.38431e-09
-3.53756e-08
3.31723e-09
-3.60781e-08
3.24881e-09
-3.67654e-08
3.1791e-09
-3.74374e-08
3.10813e-09
-3.80937e-08
3.03591e-09
-3.8734e-08
2.96247e-09
-3.93582e-08
2.88785e-09
-3.99659e-08
2.81208e-09
-4.05569e-08
2.73519e-09
-4.11311e-08
2.65721e-09
-4.16881e-08
2.57819e-09
-4.22277e-08
2.49815e-09
-4.27498e-08
2.41713e-09
-4.32542e-08
2.33516e-09
-4.37405e-08
2.25229e-09
-4.42088e-08
2.16855e-09
-4.46587e-08
2.08397e-09
-4.50901e-08
1.99858e-09
-4.55028e-08
1.91242e-09
-4.58967e-08
1.82552e-09
-4.62717e-08
1.73793e-09
-4.66275e-08
1.64966e-09
-4.69641e-08
1.56075e-09
-4.72813e-08
1.47124e-09
-4.7579e-08
1.38116e-09
-4.78571e-08
1.29053e-09
-4.81155e-08
1.19938e-09
-4.83541e-08
1.10775e-09
-4.85727e-08
1.01567e-09
-4.87713e-08
9.23175e-10
-4.89499e-08
8.30297e-10
-4.91083e-08
7.37069e-10
-4.92464e-08
6.43528e-10
-4.93643e-08
5.4971e-10
-4.94619e-08
4.55649e-10
-4.95391e-08
3.61374e-10
-4.95959e-08
2.66921e-10
-4.96322e-08
1.72328e-10
-4.96481e-08
7.76334e-11
-4.96436e-08
-1.71239e-11
-4.96185e-08
-1.11908e-10
-4.9573e-08
-2.0668e-10
-4.9507e-08
-3.01401e-10
-4.94206e-08
-3.96032e-10
-4.93137e-08
-4.90539e-10
-4.91865e-08
-5.84892e-10
-4.90389e-08
-6.79051e-10
-4.8871e-08
-7.72979e-10
-4.86829e-08
-8.66643e-10
-4.84746e-08
-9.60018e-10
-4.82462e-08
-1.05307e-09
-4.79977e-08
-1.14577e-09
-4.77293e-08
-1.23809e-09
-4.7441e-08
-1.33e-09
-4.7133e-08
-1.42145e-09
-4.68053e-08
-1.51242e-09
-4.64581e-08
-1.60288e-09
-4.60915e-08
-1.69279e-09
-4.57056e-08
-1.7821e-09
-4.53005e-08
-1.8708e-09
-4.48765e-08
-1.95884e-09
-4.44336e-08
-2.04619e-09
-4.3972e-08
-2.13279e-09
-4.34918e-08
-2.21863e-09
-4.29934e-08
-2.30365e-09
-4.24768e-08
-2.38783e-09
-4.19421e-08
-2.47112e-09
-4.13898e-08
-2.55349e-09
-4.08199e-08
-2.6349e-09
-4.02326e-08
-2.71529e-09
-3.96282e-08
-2.79464e-09
-3.90069e-08
-2.87291e-09
-3.8369e-08
-2.95007e-09
-3.77146e-08
-3.02606e-09
-3.70441e-08
-3.10085e-09
-3.63578e-08
-3.17439e-09
-3.56558e-08
-3.24668e-09
-3.49385e-08
-3.31766e-09
-3.42061e-08
-3.38729e-09
-3.3459e-08
-3.45555e-09
-3.26975e-08
-3.52241e-09
-3.19218e-08
-3.58783e-09
-3.11322e-08
-3.6518e-09
-3.03292e-08
-3.71426e-09
-2.9513e-08
-3.77521e-09
-2.86839e-08
-3.8346e-09
-2.78423e-08
-3.89241e-09
-2.69886e-08
-3.9486e-09
-2.61231e-08
-4.00315e-09
-2.52461e-08
-4.05603e-09
-2.43581e-08
-4.10721e-09
-2.34594e-08
-4.15668e-09
-2.25503e-08
-4.20441e-09
-2.16313e-08
-4.25037e-09
-2.07028e-08
-4.29455e-09
-1.97651e-08
-4.33695e-09
-1.88187e-08
-4.37754e-09
-1.78639e-08
-4.41629e-09
-1.69012e-08
-4.45317e-09
-1.59311e-08
-4.48812e-09
-1.49541e-08
-4.52101e-09
-1.39706e-08
-4.55165e-09
-1.29813e-08
-4.57969e-09
-1.1987e-08
-4.60449e-09
-1.09888e-08
-4.62498e-09
-9.9879e-09
-4.63946e-09
-8.98633e-09
-4.64521e-09
-7.98677e-09
-4.6381e-09
-6.99306e-09
-4.61205e-09
-6.01063e-09
-4.55849e-09
-5.04701e-09
-4.46588e-09
-4.11231e-09
-4.31962e-09
-3.21987e-09
-4.1021e-09
-2.38664e-09
-3.79409e-09
-1.63369e-09
-3.37661e-09
-9.86213e-10
-2.8347e-09
-4.7397e-10
-2.16151e-09
-1.31467e-10
-1.36392e-09
-4.69711e-10
-1.36638e-10
6.10737e-10
-4.95828e-10
1.70739e-09
-1.03387e-09
2.65981e-09
-1.71197e-09
3.46581e-09
-2.49811e-09
4.11387e-09
-3.36575e-09
4.61164e-09
-4.29321e-09
4.97821e-09
-5.26311e-09
5.23685e-09
-6.26198e-09
5.41087e-09
-7.27963e-09
5.52123e-09
-8.30855e-09
5.58537e-09
-9.34332e-09
5.61693e-09
-1.03801e-08
5.62605e-09
-1.14162e-08
5.61991e-09
-1.24497e-08
5.60342e-09
-1.34792e-08
5.5798e-09
-1.45038e-08
5.55108e-09
-1.55225e-08
5.51851e-09
-1.65348e-08
5.48283e-09
-1.75402e-08
5.44448e-09
-1.8538e-08
5.40369e-09
-1.9528e-08
5.3606e-09
-2.05095e-08
5.31528e-09
-2.14823e-08
5.26778e-09
-2.24458e-08
5.21811e-09
-2.33998e-08
5.16631e-09
-2.43437e-08
5.11238e-09
-2.52773e-08
5.05637e-09
-2.62e-08
4.99827e-09
-2.71117e-08
4.93812e-09
-2.80117e-08
4.87595e-09
-2.88999e-08
4.81178e-09
-2.97758e-08
4.74565e-09
-3.06391e-08
4.67759e-09
-3.14894e-08
4.60763e-09
-3.23264e-08
4.53579e-09
-3.31497e-08
4.46212e-09
-3.3959e-08
4.38664e-09
-3.4754e-08
4.30939e-09
-3.55344e-08
4.23041e-09
-3.62998e-08
4.14973e-09
-3.705e-08
4.0674e-09
-3.77846e-08
3.98343e-09
-3.85034e-08
3.89787e-09