0.05 	0.0003125 	0.005 	0.00301084
0.05 	0.0009375 	0.005 	0.00301438
0.05 	0.0015625 	0.005 	0.00301709
0.05 	0.0021875 	0.005 	0.00301921
0.05 	0.0028125 	0.005 	0.00302098
0.05 	0.0034375 	0.005 	0.00302233
0.05 	0.0040625 	0.005 	0.00302321
0.05 	0.0046875 	0.005 	0.00302358
0.05 	0.0053125 	0.005 	0.00302336
0.05 	0.0059375 	0.005 	0.00302249
0.05 	0.0065625 	0.005 	0.0030209
0.05 	0.0071875 	0.005 	0.00301852
0.05 	0.0078125 	0.005 	0.00301527
0.05 	0.0084375 	0.005 	0.00301106
0.05 	0.0090625 	0.005 	0.00300581
0.05 	0.0096875 	0.005 	0.00299943
0.05 	0.0103125 	0.005 	0.00299183
0.05 	0.0109375 	0.005 	0.00298292
0.05 	0.0115625 	0.005 	0.0029726
0.05 	0.0121875 	0.005 	0.00296076
0.05 	0.0128125 	0.005 	0.0029473
0.05 	0.0134375 	0.005 	0.00293211
0.05 	0.0140625 	0.005 	0.00291507
0.05 	0.0146875 	0.005 	0.00289606
0.05 	0.0153125 	0.005 	0.00287495
0.05 	0.0159375 	0.005 	0.0028516
0.05 	0.0165625 	0.005 	0.00282587
0.05 	0.0171875 	0.005 	0.00279759
0.05 	0.0178125 	0.005 	0.0027666
0.05 	0.0184375 	0.005 	0.00273273
0.05 	0.0190625 	0.005 	0.00269576
0.05 	0.0196875 	0.005 	0.00265551
0.05 	0.0203125 	0.005 	0.00261174
0.05 	0.0209375 	0.005 	0.00256421
0.05 	0.0215625 	0.005 	0.00251266
0.05 	0.0221875 	0.005 	0.0024568
0.05 	0.0228125 	0.005 	0.00239634
0.05 	0.0234375 	0.005 	0.00233096
0.05 	0.0240625 	0.005 	0.00226029
0.05 	0.0246875 	0.005 	0.00218395
0.05 	0.0253125 	0.005 	0.00210154
0.05 	0.0259375 	0.005 	0.00201263
0.05 	0.0265625 	0.005 	0.00191672
0.05 	0.0271875 	0.005 	0.00181333
0.05 	0.0278125 	0.005 	0.0017019
0.05 	0.0284375 	0.005 	0.00158186
0.05 	0.0290625 	0.005 	0.00145259
0.05 	0.0296875 	0.005 	0.00131341
0.05 	0.0303125 	0.005 	0.00116365
0.05 	0.0309375 	0.005 	0.00100253
0.05 	0.0315625 	0.005 	0.000829282
0.05 	0.0321875 	0.005 	0.00064306
0.05 	0.0328125 	0.005 	0.000442988
0.05 	0.0334375 	0.005 	0.000228138
0.05 	0.0340625 	0.005 	-2.46111e-06
0.05 	0.0346875 	0.005 	-0.000249821
0.05 	0.0353125 	0.005 	-0.000514991
0.05 	0.0359375 	0.005 	-0.000799058
0.05 	0.0365625 	0.005 	-0.00110314
0.05 	0.0371875 	0.005 	-0.00142838
0.05 	0.0378125 	0.005 	-0.00177594
0.05 	0.0384375 	0.005 	-0.00214701
0.05 	0.0390625 	0.005 	-0.00254278
0.05 	0.0396875 	0.005 	-0.00296441
0.05 	0.0403125 	0.005 	-0.00341308
0.05 	0.0409375 	0.005 	-0.00388992
0.05 	0.0415625 	0.005 	-0.00439603
0.05 	0.0421875 	0.005 	-0.00493244
0.05 	0.0428125 	0.005 	-0.00550014
0.05 	0.0434375 	0.005 	-0.00610001
0.05 	0.0440625 	0.005 	-0.00673282
0.05 	0.0446875 	0.005 	-0.00739922
0.05 	0.0453125 	0.005 	-0.00809974
0.05 	0.0459375 	0.005 	-0.0088347
0.05 	0.0465625 	0.005 	-0.00960428
0.05 	0.0471875 	0.005 	-0.0104084
0.05 	0.0478125 	0.005 	-0.0112469
0.05 	0.0484375 	0.005 	-0.0121193
0.05 	0.0490625 	0.005 	-0.0130247
0.05 	0.0496875 	0.005 	-0.0139624
0.05 	0.0503125 	0.005 	-0.0149309
0.05 	0.0509375 	0.005 	-0.0159288
0.05 	0.0515625 	0.005 	-0.0169543
0.05 	0.0521875 	0.005 	-0.0180053
0.05 	0.0528125 	0.005 	-0.0190795
0.05 	0.0534375 	0.005 	-0.0201743
0.05 	0.0540625 	0.005 	-0.0212868
0.05 	0.0546875 	0.005 	-0.022414
0.05 	0.0553125 	0.005 	-0.0235526
0.05 	0.0559375 	0.005 	-0.024699
0.05 	0.0565625 	0.005 	-0.0258496
0.05 	0.0571875 	0.005 	-0.0270005
0.05 	0.0578125 	0.005 	-0.028148
0.05 	0.0584375 	0.005 	-0.0292879
0.05 	0.0590625 	0.005 	-0.0304164
0.05 	0.0596875 	0.005 	-0.0315292
0.05 	0.0603125 	0.005 	-0.0326226
0.05 	0.0609375 	0.005 	-0.0336924
0.05 	0.0615625 	0.005 	-0.034735
0.05 	0.0621875 	0.005 	-0.0357466
0.05 	0.0628125 	0.005 	-0.0367238
0.05 	0.0634375 	0.005 	-0.0376632
0.05 	0.0640625 	0.005 	-0.0385617
0.05 	0.0646875 	0.005 	-0.0394166
0.05 	0.0653125 	0.005 	-0.0402252
0.05 	0.0659375 	0.005 	-0.0409854
0.05 	0.0665625 	0.005 	-0.0416952
0.05 	0.0671875 	0.005 	-0.0423529
0.05 	0.0678125 	0.005 	-0.0429572
0.05 	0.0684375 	0.005 	-0.0435072
0.05 	0.0690625 	0.005 	-0.0440022
0.05 	0.0696875 	0.005 	-0.044442
0.05 	0.0703125 	0.005 	-0.0448265
0.05 	0.0709375 	0.005 	-0.0451559
0.05 	0.0715625 	0.005 	-0.0454311
0.05 	0.0721875 	0.005 	-0.0456527
0.05 	0.0728125 	0.005 	-0.0458221
0.05 	0.0734375 	0.005 	-0.0459406
0.05 	0.0740625 	0.005 	-0.0460099
0.05 	0.0746875 	0.005 	-0.0460318
0.05 	0.0753125 	0.005 	-0.0460085
0.05 	0.0759375 	0.005 	-0.0459421
0.05 	0.0765625 	0.005 	-0.045835
0.05 	0.0771875 	0.005 	-0.0456897
0.05 	0.0778125 	0.005 	-0.0455088
0.05 	0.0784375 	0.005 	-0.0452949
0.05 	0.0790625 	0.005 	-0.0450508
0.05 	0.0796875 	0.005 	-0.0447792
0.05 	0.0803125 	0.005 	-0.0444828
0.05 	0.0809375 	0.005 	-0.0441645
0.05 	0.0815625 	0.005 	-0.0438268
0.05 	0.0821875 	0.005 	-0.0434724
0.05 	0.0828125 	0.005 	-0.0431039
0.05 	0.0834375 	0.005 	-0.0427237
0.05 	0.0840625 	0.005 	-0.0423342
0.05 	0.0846875 	0.005 	-0.0419375
0.05 	0.0853125 	0.005 	-0.0415356
0.05 	0.0859375 	0.005 	-0.0411305
0.05 	0.0865625 	0.005 	-0.0407238
0.05 	0.0871875 	0.005 	-0.0403168
0.05 	0.0878125 	0.005 	-0.0399108
0.05 	0.0884375 	0.005 	-0.0395067
0.05 	0.0890625 	0.005 	-0.0391052
0.05 	0.0896875 	0.005 	-0.0387065
0.05 	0.0903125 	0.005 	-0.0383109
0.05 	0.0909375 	0.005 	-0.0379179
0.05 	0.0915625 	0.005 	-0.0375272
0.05 	0.0921875 	0.005 	-0.0371379
0.05 	0.0928125 	0.005 	-0.0367489
0.05 	0.0934375 	0.005 	-0.0363587
0.05 	0.0940625 	0.005 	-0.035966
0.05 	0.0946875 	0.005 	-0.0355688
0.05 	0.0953125 	0.005 	-0.0351652
0.05 	0.0959375 	0.005 	-0.0347532
0.05 	0.0965625 	0.005 	-0.0343303
0.05 	0.0971875 	0.005 	-0.0338941
0.05 	0.0978125 	0.005 	-0.0334454
0.05 	0.0984375 	0.005 	-0.0329849
0.05 	0.0990625 	0.005 	-0.0324697
0.05 	0.0996875 	0.005 	-0.0318575
