/*--------------------------------*- C++ -*----------------------------------*\
  =========                 |
  \\      /  F ield         | OpenFOAM: The Open Source CFD Toolbox
   \\    /   O peration     | Website:  https://openfoam.org
    \\  /    A nd           | Version:  7
     \\/     M anipulation  |
\*---------------------------------------------------------------------------*/
FoamFile
{
    version     2.0;
    format      ascii;
    class       volVectorField;
    location    "0.45";
    object      U;
}
// * * * * * * * * * * * * * * * * * * * * * * * * * * * * * * * * * * * * * //

dimensions      [0 1 -1 0 0 0 0];

internalField   nonuniform List<vector> 
25600
(
(9.60647e-07 -6.90668e-07 0)
(3.94721e-06 -1.8342e-06 0)
(8.7767e-06 -2.18936e-06 0)
(1.30571e-05 -1.84743e-06 0)
(1.5709e-05 -1.18579e-06 0)
(1.6047e-05 -3.65535e-07 0)
(1.3788e-05 5.1108e-07 0)
(8.81337e-06 1.38877e-06 0)
(1.13501e-06 2.2386e-06 0)
(-9.17733e-06 3.04732e-06 0)
(-2.20135e-05 3.80511e-06 0)
(-3.72332e-05 4.50746e-06 0)
(-5.4684e-05 5.15514e-06 0)
(-7.42116e-05 5.74998e-06 0)
(-9.56601e-05 6.29366e-06 0)
(-0.000118874 6.78813e-06 0)
(-0.000143702 7.23707e-06 0)
(-0.000170001 7.64178e-06 0)
(-0.000197633 8.00301e-06 0)
(-0.000226469 8.32466e-06 0)
(-0.000256384 8.61156e-06 0)
(-0.000287266 8.86687e-06 0)
(-0.000319006 9.09188e-06 0)
(-0.000351506 9.28744e-06 0)
(-0.000384671 9.45629e-06 0)
(-0.000418418 9.60234e-06 0)
(-0.000452665 9.72793e-06 0)
(-0.000487342 9.83362e-06 0)
(-0.000522379 9.91983e-06 0)
(-0.000557713 9.98821e-06 0)
(-0.000593288 1.00414e-05 0)
(-0.000629049 1.00818e-05 0)
(-0.000664948 1.01102e-05 0)
(-0.000700938 1.01265e-05 0)
(-0.000736976 1.01305e-05 0)
(-0.000773022 1.01232e-05 0)
(-0.000809038 1.01062e-05 0)
(-0.000844988 1.00809e-05 0)
(-0.000880837 1.00477e-05 0)
(-0.000916554 1.0006e-05 0)
(-0.000952106 9.95515e-06 0)
(-0.000987461 9.89538e-06 0)
(-0.00102259 9.82756e-06 0)
(-0.00105746 9.75241e-06 0)
(-0.00109204 9.66989e-06 0)
(-0.00112631 9.5793e-06 0)
(-0.00116022 9.47977e-06 0)
(-0.00119376 9.37094e-06 0)
(-0.00122688 9.25317e-06 0)
(-0.00125955 9.12689e-06 0)
(-0.00129175 8.99189e-06 0)
(-0.00132343 8.84729e-06 0)
(-0.00135456 8.69223e-06 0)
(-0.00138511 8.52633e-06 0)
(-0.00141503 8.34948e-06 0)
(-0.00144428 8.16161e-06 0)
(-0.00147283 7.96258e-06 0)
(-0.00150064 7.75199e-06 0)
(-0.00152765 7.52909e-06 0)
(-0.00155384 7.29312e-06 0)
(-0.00157914 7.04384e-06 0)
(-0.00160353 6.78136e-06 0)
(-0.00162694 6.50575e-06 0)
(-0.00164934 6.21683e-06 0)
(-0.00167067 5.91411e-06 0)
(-0.0016909 5.59705e-06 0)
(-0.00170996 5.26536e-06 0)
(-0.00172781 4.91918e-06 0)
(-0.0017444 4.55899e-06 0)
(-0.00175969 4.1852e-06 0)
(-0.00177362 3.79777e-06 0)
(-0.00178615 3.39642e-06 0)
(-0.00179723 2.981e-06 0)
(-0.00180681 2.5519e-06 0)
(-0.00181486 2.11004e-06 0)
(-0.00182133 1.6562e-06 0)
(-0.00182618 1.19096e-06 0)
(-0.00182937 7.14765e-07 0)
(-0.00183087 2.27954e-07 0)
(-0.00183064 -2.68762e-07 0)
(-0.00182865 -7.74269e-07 0)
(-0.00182488 -1.28744e-06 0)
(-0.0018193 -1.80714e-06 0)
(-0.0018119 -2.33226e-06 0)
(-0.00180265 -2.86182e-06 0)
(-0.00179155 -3.39467e-06 0)
(-0.00177859 -3.92936e-06 0)
(-0.00176376 -4.46447e-06 0)
(-0.00174708 -4.99843e-06 0)
(-0.00172854 -5.52957e-06 0)
(-0.00170816 -6.05636e-06 0)
(-0.00168597 -6.57733e-06 0)
(-0.00166197 -7.09091e-06 0)
(-0.00163621 -7.59549e-06 0)
(-0.00160872 -8.08938e-06 0)
(-0.00157954 -8.57066e-06 0)
(-0.00154871 -9.03745e-06 0)
(-0.00151629 -9.48823e-06 0)
(-0.00148234 -9.92147e-06 0)
(-0.00144692 -1.03355e-05 0)
(-0.00141011 -1.07286e-05 0)
(-0.00137197 -1.10991e-05 0)
(-0.00133258 -1.14454e-05 0)
(-0.00129204 -1.17661e-05 0)
(-0.00125043 -1.20599e-05 0)
(-0.00120784 -1.23256e-05 0)
(-0.00116438 -1.25617e-05 0)
(-0.00112015 -1.27671e-05 0)
(-0.00107525 -1.2941e-05 0)
(-0.0010298 -1.30824e-05 0)
(-0.000983902 -1.31904e-05 0)
(-0.000937676 -1.32645e-05 0)
(-0.000891238 -1.33042e-05 0)
(-0.000844707 -1.33091e-05 0)
(-0.000798201 -1.32789e-05 0)
(-0.000751841 -1.32134e-05 0)
(-0.000705746 -1.31129e-05 0)
(-0.000660037 -1.29774e-05 0)
(-0.000614831 -1.28074e-05 0)
(-0.000570247 -1.26034e-05 0)
(-0.000526399 -1.23659e-05 0)
(-0.000483402 -1.20956e-05 0)
(-0.000441366 -1.17935e-05 0)
(-0.000400398 -1.14605e-05 0)
(-0.000360602 -1.10979e-05 0)
(-0.000322077 -1.0707e-05 0)
(-0.000284919 -1.02891e-05 0)
(-0.000249218 -9.84566e-06 0)
(-0.00021506 -9.37822e-06 0)
(-0.000182523 -8.88844e-06 0)
(-0.000151682 -8.37814e-06 0)
(-0.000122604 -7.8492e-06 0)
(-9.53515e-05 -7.3035e-06 0)
(-6.99775e-05 -6.74297e-06 0)
(-4.65296e-05 -6.16966e-06 0)
(-2.5048e-05 -5.58573e-06 0)
(-5.56523e-06 -4.99337e-06 0)
(1.1894e-05 -4.39484e-06 0)
(2.73134e-05 -3.7925e-06 0)
(4.06856e-05 -3.18895e-06 0)
(5.20119e-05 -2.58675e-06 0)
(6.13035e-05 -1.98853e-06 0)
(6.85818e-05 -1.3972e-06 0)
(7.38795e-05 -8.16136e-07 0)
(7.72414e-05 -2.49074e-07 0)
(7.87259e-05 2.99995e-07 0)
(7.84066e-05 8.26626e-07 0)
(7.63745e-05 1.32547e-06 0)
(7.2741e-05 1.78979e-06 0)
(6.76414e-05 2.21132e-06 0)
(6.12404e-05 2.57978e-06 0)
(5.37382e-05 2.88189e-06 0)
(4.53796e-05 3.09988e-06 0)
(3.64661e-05 3.20928e-06 0)
(2.73727e-05 3.17596e-06 0)
(1.85698e-05 2.95312e-06 0)
(1.06406e-05 2.48135e-06 0)
(4.29013e-06 1.69376e-06 0)
(3.46737e-07 5.73632e-07 0)
(-4.56214e-07 -4.553e-07 0)
(2.20521e-06 -4.02488e-06 0)
(8.25249e-06 -7.85414e-06 0)
(1.59541e-05 -8.20464e-06 0)
(2.16696e-05 -5.91754e-06 0)
(2.30073e-05 -2.08255e-06 0)
(1.86065e-05 2.61851e-06 0)
(7.67262e-06 7.73142e-06 0)
(-1.01834e-05 1.2975e-05 0)
(-3.5079e-05 1.81681e-05 0)
(-6.6932e-05 2.31989e-05 0)
(-0.000105532 2.8e-05 0)
(-0.000150588 3.25316e-05 0)
(-0.000201752 3.67715e-05 0)
(-0.000258649 4.07098e-05 0)
(-0.000320891 4.43463e-05 0)
(-0.000388082 4.76879e-05 0)
(-0.000459832 5.07444e-05 0)
(-0.000535759 5.35257e-05 0)
(-0.000615497 5.6043e-05 0)
(-0.000698693 5.83109e-05 0)
(-0.000785013 6.03461e-05 0)
(-0.00087414 6.21643e-05 0)
(-0.000965776 6.37784e-05 0)
(-0.00105964 6.52012e-05 0)
(-0.00115548 6.64467e-05 0)
(-0.00125304 6.75292e-05 0)
(-0.0013521 6.84613e-05 0)
(-0.00145244 6.92535e-05 0)
(-0.00155388 6.99152e-05 0)
(-0.00165623 7.04561e-05 0)
(-0.00175932 7.08861e-05 0)
(-0.00186298 7.1214e-05 0)
(-0.00196709 7.14471e-05 0)
(-0.00207149 7.15913e-05 0)
(-0.00217606 7.16513e-05 0)
(-0.00228068 7.16323e-05 0)
(-0.00238523 7.15391e-05 0)
(-0.00248961 7.13761e-05 0)
(-0.00259371 7.11461e-05 0)
(-0.00269743 7.0851e-05 0)
(-0.00280068 7.0492e-05 0)
(-0.00290335 7.00705e-05 0)
(-0.00300536 6.95875e-05 0)
(-0.00310661 6.90438e-05 0)
(-0.00320701 6.84395e-05 0)
(-0.00330647 6.77739e-05 0)
(-0.0034049 6.70455e-05 0)
(-0.00350219 6.62529e-05 0)
(-0.00359827 6.5395e-05 0)
(-0.00369302 6.44711e-05 0)
(-0.00378635 6.34794e-05 0)
(-0.00387815 6.24176e-05 0)
(-0.00396832 6.12831e-05 0)
(-0.00405676 6.00737e-05 0)
(-0.00414335 5.87871e-05 0)
(-0.00422797 5.74214e-05 0)
(-0.00431051 5.59746e-05 0)
(-0.00439086 5.44448e-05 0)
(-0.00446888 5.28295e-05 0)
(-0.00454445 5.11262e-05 0)
(-0.00461744 4.93329e-05 0)
(-0.00468773 4.74481e-05 0)
(-0.00475517 4.54705e-05 0)
(-0.00481964 4.33991e-05 0)
(-0.00488101 4.12329e-05 0)
(-0.00493912 3.8971e-05 0)
(-0.00499385 3.66128e-05 0)
(-0.00504506 3.41581e-05 0)
(-0.0050926 3.16073e-05 0)
(-0.00513636 2.89617e-05 0)
(-0.00517618 2.62222e-05 0)
(-0.00521194 2.33905e-05 0)
(-0.00524351 2.04682e-05 0)
(-0.00527076 1.74577e-05 0)
(-0.00529357 1.43623e-05 0)
(-0.00531183 1.11857e-05 0)
(-0.00532542 7.93204e-06 0)
(-0.00533423 4.606e-06 0)
(-0.00533817 1.21234e-06 0)
(-0.00533715 -2.24364e-06 0)
(-0.00533109 -5.75566e-06 0)
(-0.00531991 -9.31694e-06 0)
(-0.00530355 -1.29202e-05 0)
(-0.00528196 -1.65578e-05 0)
(-0.0052551 -2.02215e-05 0)
(-0.00522293 -2.39028e-05 0)
(-0.00518545 -2.75925e-05 0)
(-0.00514266 -3.12812e-05 0)
(-0.00509455 -3.4959e-05 0)
(-0.00504116 -3.86157e-05 0)
(-0.00498253 -4.22405e-05 0)
(-0.0049187 -4.58229e-05 0)
(-0.00484977 -4.93518e-05 0)
(-0.0047758 -5.2816e-05 0)
(-0.0046969 -5.62045e-05 0)
(-0.0046132 -5.95057e-05 0)
(-0.00452482 -6.27081e-05 0)
(-0.00443191 -6.58004e-05 0)
(-0.00433465 -6.87714e-05 0)
(-0.00423321 -7.16102e-05 0)
(-0.00412779 -7.4306e-05 0)
(-0.00401861 -7.68483e-05 0)
(-0.00390589 -7.92268e-05 0)
(-0.00378986 -8.14319e-05 0)
(-0.0036708 -8.34544e-05 0)
(-0.00354896 -8.52856e-05 0)
(-0.00342462 -8.69175e-05 0)
(-0.00329807 -8.83427e-05 0)
(-0.00316961 -8.95545e-05 0)
(-0.00303955 -9.05469e-05 0)
(-0.00290821 -9.13148e-05 0)
(-0.0027759 -9.1854e-05 0)
(-0.00264296 -9.21609e-05 0)
(-0.00250972 -9.22332e-05 0)
(-0.00237651 -9.20691e-05 0)
(-0.00224368 -9.1668e-05 0)
(-0.00211155 -9.103e-05 0)
(-0.00198047 -9.01564e-05 0)
(-0.00185077 -8.90495e-05 0)
(-0.00172278 -8.77122e-05 0)
(-0.00159683 -8.61488e-05 0)
(-0.00147323 -8.43643e-05 0)
(-0.00135229 -8.23643e-05 0)
(-0.00123433 -8.01556e-05 0)
(-0.00111962 -7.77458e-05 0)
(-0.00100846 -7.51435e-05 0)
(-0.000901112 -7.23576e-05 0)
(-0.00079783 -6.93982e-05 0)
(-0.000698856 -6.62756e-05 0)
(-0.000604415 -6.30012e-05 0)
(-0.000514717 -5.9587e-05 0)
(-0.000429952 -5.60453e-05 0)
(-0.000350294 -5.23894e-05 0)
(-0.000275897 -4.86327e-05 0)
(-0.000206893 -4.47895e-05 0)
(-0.000143397 -4.08747e-05 0)
(-8.54993e-05 -3.69038e-05 0)
(-3.32676e-05 -3.28927e-05 0)
(1.32538e-05 -2.88585e-05 0)
(5.40461e-05 -2.48187e-05 0)
(8.91172e-05 -2.07921e-05 0)
(0.000118503 -1.67985e-05 0)
(0.00014227 -1.28594e-05 0)
(0.000160517 -8.99817e-06 0)
(0.000173379 -5.24068e-06 0)
(0.00018103 -1.61563e-06 0)
(0.000183688 1.84449e-06 0)
(0.00018162 5.10215e-06 0)
(0.000175151 8.11345e-06 0)
(0.000164673 1.0826e-05 0)
(0.000150652 1.31765e-05 0)
(0.000133649 1.50871e-05 0)
(0.000114332 1.64613e-05 0)
(9.3495e-05 1.71784e-05 0)
(7.20868e-05 1.70882e-05 0)
(5.12245e-05 1.60104e-05 0)
(3.21831e-05 1.37519e-05 0)
(1.63432e-05 1.01537e-05 0)
(5.26888e-06 5.28198e-06 0)
(5.68389e-07 3.45817e-07 0)
(2.35117e-06 -8.93897e-06 0)
(8.44644e-06 -1.57702e-05 0)
(1.49286e-05 -1.4648e-05 0)
(1.73298e-05 -8.00393e-06 0)
(1.28108e-05 2.24619e-06 0)
(-3.69775e-07 1.46744e-05 0)
(-2.33082e-05 2.82791e-05 0)
(-5.66196e-05 4.23579e-05 0)
(-0.000100531 5.6439e-05 0)
(-0.000154994 7.021e-05 0)
(-0.000219769 8.34617e-05 0)
(-0.000294476 9.6062e-05 0)
(-0.000378644 0.000107932 0)
(-0.000471745 0.000119027 0)
(-0.000573218 0.000129328 0)
(-0.000682485 0.00013884 0)
(-0.000798966 0.000147578 0)
(-0.000922089 0.000155564 0)
(-0.0010513 0.000162828 0)
(-0.00118605 0.000169402 0)
(-0.00132583 0.000175324 0)
(-0.00147015 0.000180632 0)
(-0.00161854 0.000185362 0)
(-0.00177056 0.00018955 0)
(-0.0019258 0.000193233 0)
(-0.00208387 0.000196446 0)
(-0.00224441 0.000199222 0)
(-0.00240708 0.000201592 0)
(-0.00257157 0.000203583 0)
(-0.00273757 0.000205223 0)
(-0.00290482 0.000206537 0)
(-0.00307305 0.000207548 0)
(-0.00324202 0.000208276 0)
(-0.00341152 0.000208739 0)
(-0.00358132 0.000208953 0)
(-0.00375122 0.000208931 0)
(-0.00392104 0.000208688 0)
(-0.00409059 0.000208232 0)
(-0.0042597 0.000207574 0)
(-0.0044282 0.000206718 0)
(-0.00459593 0.000205672 0)
(-0.00476272 0.000204438 0)
(-0.00492843 0.000203018 0)
(-0.0050929 0.000201416 0)
(-0.00525597 0.000199629 0)
(-0.00541749 0.000197659 0)
(-0.00557731 0.000195502 0)
(-0.00573526 0.000193155 0)
(-0.0058912 0.000190614 0)
(-0.00604495 0.000187877 0)
(-0.00619636 0.000184937 0)
(-0.00634525 0.000181791 0)
(-0.00649146 0.000178432 0)
(-0.0066348 0.000174854 0)
(-0.00677509 0.00017105 0)
(-0.00691216 0.000167016 0)
(-0.0070458 0.000162745 0)
(-0.00717583 0.000158231 0)
(-0.00730204 0.000153469 0)
(-0.00742424 0.000148454 0)
(-0.00754221 0.000143179 0)
(-0.00765575 0.000137642 0)
(-0.00776465 0.000131836 0)
(-0.00786868 0.000125761 0)
(-0.00796764 0.000119413 0)
(-0.0080613 0.000112791 0)
(-0.00814945 0.000105894 0)
(-0.00823186 9.87229e-05 0)
(-0.00830833 9.12779e-05 0)
(-0.00837862 8.35619e-05 0)
(-0.00844254 7.55789e-05 0)
(-0.00849988 6.73337e-05 0)
(-0.00855041 5.88326e-05 0)
(-0.00859396 5.00831e-05 0)
(-0.00863033 4.10938e-05 0)
(-0.00865933 3.18755e-05 0)
(-0.00868079 2.244e-05 0)
(-0.00869455 1.28008e-05 0)
(-0.00870045 2.97253e-06 0)
(-0.00869835 -7.02866e-06 0)
(-0.00868813 -1.71851e-05 0)
(-0.00866967 -2.74774e-05 0)
(-0.00864288 -3.78849e-05 0)
(-0.00860768 -4.83858e-05 0)
(-0.00856401 -5.89564e-05 0)
(-0.00851184 -6.9572e-05 0)
(-0.00845112 -8.02068e-05 0)
(-0.00838188 -9.08337e-05 0)
(-0.00830412 -0.000101424 0)
(-0.0082179 -0.00011195 0)
(-0.00812328 -0.000122381 0)
(-0.00802035 -0.000132686 0)
(-0.00790923 -0.000142834 0)
(-0.00779006 -0.000152794 0)
(-0.00766301 -0.000162533 0)
(-0.00752826 -0.000172019 0)
(-0.00738604 -0.00018122 0)
(-0.00723658 -0.000190105 0)
(-0.00708015 -0.00019864 0)
(-0.00691704 -0.000206796 0)
(-0.00674757 -0.000214543 0)
(-0.00657207 -0.000221849 0)
(-0.00639092 -0.000228687 0)
(-0.00620448 -0.000235029 0)
(-0.00601317 -0.00024085 0)
(-0.00581741 -0.000246125 0)
(-0.00561765 -0.000250832 0)
(-0.00541433 -0.000254948 0)
(-0.00520794 -0.000258457 0)
(-0.00499897 -0.00026134 0)
(-0.00478791 -0.000263584 0)
(-0.00457528 -0.000265176 0)
(-0.0043616 -0.000266106 0)
(-0.0041474 -0.000266368 0)
(-0.0039332 -0.000265957 0)
(-0.00371954 -0.00026487 0)
(-0.00350696 -0.000263109 0)
(-0.003296 -0.000260676 0)
(-0.00308717 -0.000257579 0)
(-0.002881 -0.000253824 0)
(-0.00267801 -0.000249425 0)
(-0.00247871 -0.000244394 0)
(-0.0022836 -0.000238749 0)
(-0.00209314 -0.000232509 0)
(-0.0019078 -0.000225694 0)
(-0.00172805 -0.000218328 0)
(-0.00155429 -0.000210438 0)
(-0.00138693 -0.000202051 0)
(-0.00122637 -0.000193198 0)
(-0.00107296 -0.00018391 0)
(-0.000927022 -0.000174222 0)
(-0.000788874 -0.000164169 0)
(-0.000658787 -0.000153789 0)
(-0.000537006 -0.000143122 0)
(-0.000423743 -0.000132207 0)
(-0.000319177 -0.000121088 0)
(-0.000223451 -0.000109811 0)
(-0.000136674 -9.84211e-05 0)
(-5.89119e-05 -8.69681e-05 0)
(9.80756e-06 -7.55035e-05 0)
(6.95005e-05 -6.40821e-05 0)
(0.000120228 -5.27623e-05 0)
(0.000162102 -4.16071e-05 0)
(0.000195285 -3.06844e-05 0)
(0.000219998 -2.00693e-05 0)
(0.000236524 -9.84479e-06 0)
(0.000245216 -1.04512e-07 0)
(0.000246505 9.04514e-06 0)
(0.000240909 1.74816e-05 0)
(0.000229045 2.50616e-05 0)
(0.000211642 3.16163e-05 0)
(0.00018956 3.69451e-05 0)
(0.000163807 4.08093e-05 0)
(0.000135553 4.29262e-05 0)
(0.000106154 4.29681e-05 0)
(7.71541e-05 4.0576e-05 0)
(5.02449e-05 3.54106e-05 0)
(2.71864e-05 2.72623e-05 0)
(1.00961e-05 1.63406e-05 0)
(1.67526e-06 4.26955e-06 0)
(1.95422e-06 -1.34706e-05 0)
(6.10188e-06 -2.16665e-05 0)
(8.26093e-06 -1.71038e-05 0)
(3.9592e-06 -3.71003e-06 0)
(-9.77302e-06 1.56435e-05 0)
(-3.48308e-05 3.87634e-05 0)
(-7.24713e-05 6.40161e-05 0)
(-0.000123423 9.0229e-05 0)
(-0.000187988 0.000116572 0)
(-0.000266151 0.000142462 0)
(-0.000357656 0.000167498 0)
(-0.000462072 0.000191417 0)
(-0.000578849 0.000214048 0)
(-0.000707351 0.000235287 0)
(-0.000846889 0.000255086 0)
(-0.000996743 0.000273433 0)
(-0.00115619 0.000290341 0)
(-0.0013245 0.000305843 0)
(-0.00150096 0.000319986 0)
(-0.00168487 0.000332828 0)
(-0.00187557 0.000344428 0)
(-0.00207241 0.000354853 0)
(-0.00227479 0.000364168 0)
(-0.00248211 0.000372441 0)
(-0.00269383 0.000379738 0)
(-0.00290944 0.000386121 0)
(-0.00312845 0.000391651 0)
(-0.0033504 0.000396385 0)
(-0.00357486 0.000400379 0)
(-0.00380144 0.000403682 0)
(-0.00402976 0.000406341 0)
(-0.00425946 0.000408399 0)
(-0.00449021 0.000409894 0)
(-0.00472171 0.000410861 0)
(-0.00495365 0.00041133 0)
(-0.00518577 0.00041133 0)
(-0.00541779 0.000410885 0)
(-0.00564945 0.000410013 0)
(-0.00588053 0.000408732 0)
(-0.00611078 0.000407054 0)
(-0.00633997 0.000404992 0)
(-0.00656789 0.000402552 0)
(-0.0067943 0.00039974 0)
(-0.00701901 0.000396559 0)
(-0.00724178 0.000393009 0)
(-0.00746241 0.000389089 0)
(-0.00768068 0.000384794 0)
(-0.00789638 0.000380121 0)
(-0.00810927 0.000375063 0)
(-0.00831914 0.000369611 0)
(-0.00852576 0.000363758 0)
(-0.0087289 0.000357493 0)
(-0.00892831 0.000350807 0)
(-0.00912377 0.000343688 0)
(-0.009315 0.000336126 0)
(-0.00950178 0.00032811 0)
(-0.00968382 0.000319627 0)
(-0.00986088 0.000310668 0)
(-0.0100327 0.000301222 0)
(-0.0101989 0.000291279 0)
(-0.0103594 0.000280831 0)
(-0.0105137 0.000269869 0)
(-0.0106617 0.000258387 0)
(-0.010803 0.000246378 0)
(-0.0109373 0.000233839 0)
(-0.0110643 0.000220767 0)
(-0.0111838 0.000207162 0)
(-0.0112955 0.000193025 0)
(-0.011399 0.000178359 0)
(-0.0114941 0.00016317 0)
(-0.0115804 0.000147465 0)
(-0.0116578 0.000131254 0)
(-0.011726 0.00011455 0)
(-0.0117846 9.73681e-05 0)
(-0.0118334 7.97266e-05 0)
(-0.0118722 6.16458e-05 0)
(-0.0119007 4.31491e-05 0)
(-0.0119188 2.42629e-05 0)
(-0.0119263 5.01606e-06 0)
(-0.0119228 -1.45593e-05 0)
(-0.0119084 -3.44288e-05 0)
(-0.0118828 -5.45546e-05 0)
(-0.0118459 -7.48967e-05 0)
(-0.0117976 -9.54123e-05 0)
(-0.0117379 -0.000116056 0)
(-0.0116667 -0.000136779 0)
(-0.0115839 -0.000157532 0)
(-0.0114896 -0.000178263 0)
(-0.0113839 -0.000198916 0)
(-0.0112667 -0.000219436 0)
(-0.0111381 -0.000239766 0)
(-0.0109984 -0.000259845 0)
(-0.0108476 -0.000279614 0)
(-0.010686 -0.000299012 0)
(-0.0105137 -0.000317977 0)
(-0.0103311 -0.000336447 0)
(-0.0101384 -0.000354361 0)
(-0.00993592 -0.000371656 0)
(-0.00972408 -0.000388273 0)
(-0.00950325 -0.000404151 0)
(-0.00927385 -0.000419232 0)
(-0.00903634 -0.000433459 0)
(-0.00879119 -0.000446777 0)
(-0.00853893 -0.000459135 0)
(-0.00828009 -0.000470481 0)
(-0.00801525 -0.00048077 0)
(-0.00774499 -0.000489958 0)
(-0.00746993 -0.000498005 0)
(-0.00719071 -0.000504874 0)
(-0.00690797 -0.000510534 0)
(-0.00662239 -0.000514957 0)
(-0.00633466 -0.000518119 0)
(-0.00604546 -0.000520001 0)
(-0.0057555 -0.00052059 0)
(-0.00546548 -0.000519878 0)
(-0.00517614 -0.000517859 0)
(-0.00488817 -0.000514535 0)
(-0.00460229 -0.000509913 0)
(-0.00431921 -0.000504004 0)
(-0.00403963 -0.000496824 0)
(-0.00376423 -0.000488396 0)
(-0.0034937 -0.000478746 0)
(-0.0032287 -0.000467906 0)
(-0.00296986 -0.000455913 0)
(-0.00271782 -0.000442806 0)
(-0.00247316 -0.000428632 0)
(-0.00223647 -0.000413442 0)
(-0.00200828 -0.000397288 0)
(-0.00178911 -0.00038023 0)
(-0.00157943 -0.000362328 0)
(-0.00137971 -0.00034365 0)
(-0.00119033 -0.000324264 0)
(-0.00101168 -0.000304244 0)
(-0.000844078 -0.000283666 0)
(-0.00068781 -0.000262609 0)
(-0.000543115 -0.000241159 0)
(-0.000410185 -0.000219403 0)
(-0.000289161 -0.000197431 0)
(-0.000180132 -0.000175342 0)
(-8.31316e-05 -0.000153235 0)
(1.86547e-06 -0.000131219 0)
(7.49457e-05 -0.000109409 0)
(0.000136262 -8.79277e-05 0)
(0.000186038 -6.6908e-05 0)
(0.000224574 -4.64959e-05 0)
(0.000252252 -2.68524e-05 0)
(0.000269547 -8.15683e-06 0)
(0.000277035 9.38835e-06 0)
(0.0002754 2.55529e-05 0)
(0.000265452 4.00726e-05 0)
(0.000248138 5.26418e-05 0)
(0.000224557 6.2907e-05 0)
(0.000195977 7.04591e-05 0)
(0.000163847 7.4831e-05 0)
(0.000129809 7.55035e-05 0)
(9.57001e-05 7.19346e-05 0)
(6.34989e-05 6.36334e-05 0)
(3.52606e-05 5.03006e-05 0)
(1.36402e-05 3.21223e-05 0)
(2.44393e-06 1.05673e-05 0)
(1.24794e-06 -1.61766e-05 0)
(2.20428e-06 -2.31161e-05 0)
(-2.08999e-06 -1.26215e-05 0)
(-1.55702e-05 1.0015e-05 0)
(-4.10163e-05 4.10051e-05 0)
(-8.03462e-05 7.73975e-05 0)
(-0.000134834 0.000116954 0)
(-0.000205231 0.000158015 0)
(-0.000291866 0.000199367 0)
(-0.000394728 0.000240131 0)
(-0.000513543 0.000279688 0)
(-0.000647844 0.000317608 0)
(-0.000797019 0.000353603 0)
(-0.000960353 0.000387497 0)
(-0.00113706 0.000419192 0)
(-0.00132632 0.000448649 0)
(-0.00152728 0.000475872 0)
(-0.0017391 0.000500898 0)
(-0.00196093 0.000523791 0)
(-0.00219195 0.000544629 0)
(-0.00243135 0.0005635 0)
(-0.00267838 0.000580499 0)
(-0.00293228 0.000595724 0)
(-0.00319236 0.000609278 0)
(-0.00345795 0.000621261 0)
(-0.00372841 0.000631769 0)
(-0.00400314 0.000640895 0)
(-0.00428159 0.000648729 0)
(-0.00456323 0.000655354 0)
(-0.00484755 0.000660851 0)
(-0.00513408 0.000665293 0)
(-0.00542238 0.000668747 0)
(-0.00571204 0.000671273 0)
(-0.00600266 0.000672926 0)
(-0.00629388 0.000673757 0)
(-0.00658532 0.000673808 0)
(-0.00687667 0.000673118 0)
(-0.00716759 0.00067172 0)
(-0.00745778 0.000669639 0)
(-0.00774693 0.000666897 0)
(-0.00803475 0.000663513 0)
(-0.00832095 0.000659499 0)
(-0.00860526 0.000654864 0)
(-0.0088874 0.000649614 0)
(-0.00916709 0.000643749 0)
(-0.00944406 0.000637267 0)
(-0.00971802 0.000630164 0)
(-0.00998871 0.000622432 0)
(-0.0102558 0.000614061 0)
(-0.0105191 0.000605041 0)
(-0.0107783 0.000595357 0)
(-0.011033 0.000584995 0)
(-0.011283 0.000573938 0)
(-0.0115279 0.00056217 0)
(-0.0117675 0.000549675 0)
(-0.0120015 0.000536435 0)
(-0.0122294 0.000522433 0)
(-0.012451 0.000507652 0)
(-0.012666 0.000492077 0)
(-0.0128739 0.000475692 0)
(-0.0130745 0.000458484 0)
(-0.0132674 0.000440441 0)
(-0.0134522 0.000421554 0)
(-0.0136286 0.000401813 0)
(-0.0137962 0.000381212 0)
(-0.0139546 0.00035975 0)
(-0.0141036 0.000337426 0)
(-0.0142427 0.000314242 0)
(-0.0143715 0.000290206 0)
(-0.0144898 0.000265326 0)
(-0.0145971 0.000239615 0)
(-0.0146932 0.000213092 0)
(-0.0147776 0.000185777 0)
(-0.0148501 0.000157695 0)
(-0.0149104 0.000128877 0)
(-0.0149582 9.93566e-05 0)
(-0.0149931 6.91719e-05 0)
(-0.015015 3.83661e-05 0)
(-0.0150236 6.98649e-06 0)
(-0.0150186 -2.49148e-05 0)
(-0.0149999 -5.7281e-05 0)
(-0.0149673 -9.00514e-05 0)
(-0.0149207 -0.000123161 0)
(-0.0148599 -0.000156539 0)
(-0.0147848 -0.000190114 0)
(-0.0146954 -0.000223807 0)
(-0.0145917 -0.000257537 0)
(-0.0144737 -0.00029122 0)
(-0.0143414 -0.000324768 0)
(-0.0141949 -0.000358091 0)
(-0.0140343 -0.000391095 0)
(-0.0138599 -0.000423686 0)
(-0.0136717 -0.000455767 0)
(-0.0134701 -0.00048724 0)
(-0.0132553 -0.000518006 0)
(-0.0130277 -0.000547965 0)
(-0.0127876 -0.000577019 0)
(-0.0125354 -0.000605069 0)
(-0.0122716 -0.000632017 0)
(-0.0119966 -0.000657769 0)
(-0.011711 -0.00068223 0)
(-0.0114154 -0.000705309 0)
(-0.0111103 -0.000726919 0)
(-0.0107964 -0.000746975 0)
(-0.0104743 -0.0007654 0)
(-0.0101447 -0.000782116 0)
(-0.00980846 -0.000797055 0)
(-0.00946621 -0.000810153 0)
(-0.00911877 -0.000821351 0)
(-0.00876694 -0.000830599 0)
(-0.00841155 -0.000837851 0)
(-0.00805343 -0.000843071 0)
(-0.00769344 -0.000846228 0)
(-0.00733245 -0.000847301 0)
(-0.00697132 -0.000846274 0)
(-0.00661094 -0.000843141 0)
(-0.00625217 -0.000837905 0)
(-0.00589591 -0.000830575 0)
(-0.00554301 -0.00082117 0)
(-0.00519434 -0.000809716 0)
(-0.00485074 -0.000796247 0)
(-0.00451305 -0.000780808 0)
(-0.00418209 -0.000763447 0)
(-0.00385864 -0.000744224 0)
(-0.00354346 -0.000723205 0)
(-0.0032373 -0.000700462 0)
(-0.00294086 -0.000676077 0)
(-0.00265481 -0.000650135 0)
(-0.00237978 -0.000622731 0)
(-0.00211636 -0.000593966 0)
(-0.00186511 -0.000563944 0)
(-0.00162653 -0.000532779 0)
(-0.00140107 -0.000500588 0)
(-0.00118913 -0.000467497 0)
(-0.00099107 -0.000433634 0)
(-0.000807179 -0.000399137 0)
(-0.000637692 -0.000364147 0)
(-0.000482782 -0.000328814 0)
(-0.000342556 -0.000293296 0)
(-0.000217054 -0.000257757 0)
(-0.000106241 -0.000222372 0)
(-1.00082e-05 -0.00018733 0)
(7.18361e-05 -0.000152829 0)
(0.00013957 -0.000119084 0)
(0.000193565 -8.6332e-05 0)
(0.000234293 -5.48289e-05 0)
(0.000262333 -2.48603e-05 0)
(0.000278385 3.25552e-06 0)
(0.000283276 2.91607e-05 0)
(0.000277975 5.24504e-05 0)
(0.000263603 7.26649e-05 0)
(0.000241448 8.92819e-05 0)
(0.000212976 0.000101712 0)
(0.000179842 0.000109297 0)
(0.000143897 0.000111325 0)
(0.000107194 0.000107067 0)
(7.19383e-05 9.58516e-05 0)
(4.04517e-05 7.7206e-05 0)
(1.58725e-05 5.10881e-05 0)
(2.89847e-06 1.84121e-05 0)
(4.11204e-07 -1.65559e-05 0)
(-2.57145e-06 -1.87467e-05 0)
(-1.47504e-05 6.323e-07 0)
(-3.913e-05 3.52274e-05 0)
(-7.81252e-05 8.04174e-05 0)
(-0.000133524 0.000132579 0)
(-0.000206516 0.000188906 0)
(-0.000297801 0.00024727 0)
(-0.000407671 0.000306077 0)
(-0.000536088 0.000364149 0)
(-0.000682748 0.00042063 0)
(-0.000847143 0.000474909 0)
(-0.00102861 0.000526569 0)
(-0.00122636 0.00057534 0)
(-0.00143954 0.000621065 0)
(-0.00166724 0.000663666 0)
(-0.00190852 0.000703132 0)
(-0.00216243 0.000739501 0)
(-0.00242803 0.000772845 0)
(-0.00270437 0.000803263 0)
(-0.00299056 0.000830869 0)
(-0.00328571 0.00085579 0)
(-0.00358897 0.000878158 0)
(-0.00389953 0.000898113 0)
(-0.00421663 0.00091579 0)
(-0.00453951 0.000931323 0)
(-0.00486749 0.000944843 0)
(-0.00519991 0.000956473 0)
(-0.00553614 0.000966334 0)
(-0.00587559 0.000974535 0)
(-0.0062177 0.000981182 0)
(-0.00656196 0.000986368 0)
(-0.00690786 0.000990181 0)
(-0.00725494 0.0009927 0)
(-0.00760274 0.000993995 0)
(-0.00795084 0.000994129 0)
(-0.00829883 0.000993156 0)
(-0.00864632 0.000991124 0)
(-0.00899294 0.00098807 0)
(-0.00933832 0.000984028 0)
(-0.00968211 0.000979022 0)
(-0.010024 0.000973073 0)
(-0.0103635 0.000966193 0)
(-0.0107005 0.00095839 0)
(-0.0110344 0.000949668 0)
(-0.0113651 0.000940023 0)
(-0.0116922 0.000929449 0)
(-0.0120153 0.000917937 0)
(-0.0123341 0.000905474 0)
(-0.0126483 0.000892043 0)
(-0.0129574 0.000877626 0)
(-0.0132612 0.000862202 0)
(-0.0135593 0.00084575 0)
(-0.0138513 0.000828245 0)
(-0.0141369 0.000809665 0)
(-0.0144156 0.000789986 0)
(-0.0146871 0.000769184 0)
(-0.014951 0.000747236 0)
(-0.0152069 0.00072412 0)
(-0.0154543 0.000699816 0)
(-0.0156929 0.000674304 0)
(-0.0159222 0.000647569 0)
(-0.0161418 0.000619598 0)
(-0.0163514 0.000590379 0)
(-0.0165504 0.000559906 0)
(-0.0167384 0.000528176 0)
(-0.0169151 0.000495189 0)
(-0.0170799 0.000460951 0)
(-0.0172325 0.000425473 0)
(-0.0173725 0.000388769 0)
(-0.0174995 0.00035086 0)
(-0.017613 0.000311772 0)
(-0.0177126 0.000271538 0)
(-0.0177981 0.000230195 0)
(-0.0178689 0.000187788 0)
(-0.0179249 0.000144367 0)
(-0.0179657 9.99896e-05 0)
(-0.0179909 5.47187e-05 0)
(-0.0180003 8.62441e-06 0)
(-0.0179936 -3.82169e-05 0)
(-0.0179706 -8.57223e-05 0)
(-0.0179312 -0.000133802 0)
(-0.0178751 -0.000182362 0)
(-0.0178022 -0.000231299 0)
(-0.0177125 -0.000280507 0)
(-0.0176058 -0.000329873 0)
(-0.0174821 -0.000379278 0)
(-0.0173416 -0.0004286 0)
(-0.0171841 -0.000477711 0)
(-0.0170099 -0.00052648 0)
(-0.0168191 -0.000574772 0)
(-0.0166118 -0.00062245 0)
(-0.0163884 -0.000669372 0)
(-0.0161491 -0.000715397 0)
(-0.0158943 -0.000760382 0)
(-0.0156243 -0.000804184 0)
(-0.0153396 -0.000846658 0)
(-0.0150406 -0.000887662 0)
(-0.0147279 -0.000927056 0)
(-0.0144021 -0.000964701 0)
(-0.0140637 -0.00100046 0)
(-0.0137135 -0.00103421 0)
(-0.0133521 -0.00106581 0)
(-0.0129802 -0.00109515 0)
(-0.0125988 -0.00112212 0)
(-0.0122085 -0.00114659 0)
(-0.0118102 -0.00116849 0)
(-0.0114049 -0.0011877 0)
(-0.0109934 -0.00120415 0)
(-0.0105767 -0.00121776 0)
(-0.0101558 -0.00122847 0)
(-0.00973155 -0.00123623 0)
(-0.00930504 -0.00124099 0)
(-0.00887728 -0.00124272 0)
(-0.00844928 -0.0012414 0)
(-0.00802207 -0.00123701 0)
(-0.00759667 -0.00122957 0)
(-0.00717411 -0.00121908 0)
(-0.0067554 -0.00120558 0)
(-0.00634156 -0.0011891 0)
(-0.00593358 -0.00116968 0)
(-0.00553243 -0.0011474 0)
(-0.00513907 -0.00112233 0)
(-0.00475442 -0.00109455 0)
(-0.00437937 -0.00106415 0)
(-0.0040148 -0.00103124 0)
(-0.00366153 -0.000995938 0)
(-0.00332034 -0.000958372 0)
(-0.00299198 -0.000918677 0)
(-0.00267714 -0.000876997 0)
(-0.00237647 -0.000833488 0)
(-0.00209055 -0.000788313 0)
(-0.00181992 -0.000741644 0)
(-0.00156505 -0.000693664 0)
(-0.00132636 -0.000644563 0)
(-0.00110419 -0.000594538 0)
(-0.000898805 -0.0005438 0)
(-0.000710416 -0.000492567 0)
(-0.000539145 -0.00044107 0)
(-0.000385035 -0.00038955 0)
(-0.000248046 -0.000338264 0)
(-0.000128048 -0.000287485 0)
(-2.48141e-05 -0.000237504 0)
(6.19812e-05 -0.000188634 0)
(0.000132771 -0.000141215 0)
(0.000188105 -9.56156e-05 0)
(0.000228652 -5.22436e-05 0)
(0.000255216 -1.15479e-05 0)
(0.000268743 2.59715e-05 0)
(0.000270329 5.97561e-05 0)
(0.000261236 8.91808e-05 0)
(0.000242899 0.000113547 0)
(0.000216935 0.000132078 0)
(0.000185155 0.000143924 0)
(0.00014957 0.000148174 0)
(0.000112402 0.000143895 0)
(7.60498e-05 0.000130199 0)
(4.30717e-05 0.000106351 0)
(1.69921e-05 7.19339e-05 0)
(3.11325e-06 2.7122e-05 0)
(-4.82557e-07 -1.42932e-05 0)
(-7.81584e-06 -7.69905e-06 0)
(-2.87605e-05 2.39114e-05 0)
(-6.52049e-05 7.33708e-05 0)
(-0.000119026 0.000135397 0)
(-0.000191791 0.000205787 0)
(-0.000284522 0.00028123 0)
(-0.000397794 0.000359168 0)
(-0.000531813 0.000437648 0)
(-0.000686476 0.000515201 0)
(-0.000861427 0.000590732 0)
(-0.0010561 0.000663451 0)
(-0.00126979 0.000732803 0)
(-0.00150164 0.000798413 0)
(-0.00175073 0.000860054 0)
(-0.00201608 0.000917605 0)
(-0.00229667 0.000971033 0)
(-0.00259147 0.00102037 0)
(-0.00289944 0.0010657 0)
(-0.00321956 0.00110712 0)
(-0.00355084 0.0011448 0)
(-0.00389229 0.00117887 0)
(-0.00424298 0.00120951 0)
(-0.004602 0.00123689 0)
(-0.00496848 0.00126119 0)
(-0.00534159 0.00128259 0)
(-0.00572056 0.00130124 0)
(-0.00610464 0.00131732 0)
(-0.0064931 0.00133098 0)
(-0.00688529 0.00134237 0)
(-0.00728057 0.00135162 0)
(-0.00767833 0.00135886 0)
(-0.00807801 0.0013642 0)
(-0.00847906 0.00136775 0)
(-0.00888095 0.00136961 0)
(-0.0092832 0.00136985 0)
(-0.00968534 0.00136855 0)
(-0.0100869 0.00136578 0)
(-0.0104875 0.00136159 0)
(-0.0108866 0.00135601 0)
(-0.0112838 0.00134909 0)
(-0.0116788 0.00134085 0)
(-0.0120711 0.00133132 0)
(-0.0124604 0.00132049 0)
(-0.0128462 0.00130838 0)
(-0.0132282 0.00129498 0)
(-0.013606 0.00128029 0)
(-0.0139791 0.00126429 0)
(-0.0143472 0.00124697 0)
(-0.0147098 0.00122831 0)
(-0.0150667 0.00120828 0)
(-0.0154172 0.00118685 0)
(-0.0157612 0.001164 0)
(-0.016098 0.0011397 0)
(-0.0164273 0.00111392 0)
(-0.0167486 0.00108662 0)
(-0.0170615 0.00105777 0)
(-0.0173655 0.00102735 0)
(-0.0176602 0.000995323 0)
(-0.0179451 0.000961668 0)
(-0.0182197 0.000926358 0)
(-0.0184835 0.000889375 0)
(-0.0187361 0.0008507 0)
(-0.018977 0.000810322 0)
(-0.0192057 0.000768232 0)
(-0.0194216 0.000724429 0)
(-0.0196244 0.000678914 0)
(-0.0198136 0.000631697 0)
(-0.0199886 0.000582793 0)
(-0.020149 0.000532224 0)
(-0.0202943 0.000480021 0)
(-0.0204241 0.00042622 0)
(-0.0205379 0.000370867 0)
(-0.0206354 0.000314015 0)
(-0.0207161 0.000255725 0)
(-0.0207796 0.000196067 0)
(-0.0208256 0.000135121 0)
(-0.0208538 7.29725e-05 0)
(-0.0208638 9.71913e-06 0)
(-0.0208553 -5.45345e-05 0)
(-0.0208281 -0.000119675 0)
(-0.020782 -0.00018558 0)