/*--------------------------------*- C++ -*----------------------------------*\
  =========                 |
  \\      /  F ield         | OpenFOAM: The Open Source CFD Toolbox
   \\    /   O peration     | Website:  https://openfoam.org
    \\  /    A nd           | Version:  7
     \\/     M anipulation  |
\*---------------------------------------------------------------------------*/
FoamFile
{
    version     2.0;
    format      ascii;
    class       volScalarField;
    location    "0.05";
    object      p;
}
// * * * * * * * * * * * * * * * * * * * * * * * * * * * * * * * * * * * * * //

dimensions      [0 2 -2 0 0 0 0];

internalField   nonuniform List<scalar> 
1600
(
1.54219e-07
-0.00129343
-0.00402718
-0.00752402
-0.0111439
-0.0144759
-0.0172175
-0.0191566
-0.0201545
-0.0201314
-0.0190544
-0.0169283
-0.0137893
-0.00969937
-0.00473994
0.000992427
0.00738576
0.0143129
0.0216352
0.0292068
0.0368785
0.0444982
0.0519122
0.0589665
0.0655101
0.0713993
0.0765024
0.0807054
0.0839161
0.0860696
0.0871327
0.087109
0.0860462
0.0840442
0.081267
0.0779561
0.0744469
0.0711947
0.0688023
0.0677892
0.000849208
-0.000429381
-0.00263184
-0.00533776
-0.00813349
-0.010702
-0.0127999
-0.0142456
-0.0149121
-0.0147215
-0.0136363
-0.0116512
-0.00879001
-0.00510114
-0.000651157
0.00447841
0.0101906
0.0163736
0.0229048
0.0296553
0.036493
0.0432835
0.0498909
0.0561792
0.0620157
0.0672749
0.0718438
0.0756262
0.0785471
0.080557
0.0816347
0.0817925
0.0810808
0.0795946
0.0774797
0.0749393
0.0722394
0.0697181
0.0677792
0.0667666
0.00295762
0.00126231
-0.000885929
-0.00327637
-0.00567603
-0.00783997
-0.00957227
-0.0107248
-0.0111896
-0.0108977
-0.00981399
-0.00793119
-0.00526689
-0.00186113
0.00222878
0.00693102
0.0121591
0.0178128
0.0237817
0.0299495
0.0361967
0.0424015
0.0484408
0.0541916
0.0595341
0.0643554
0.0685545
0.0720467
0.0747672
0.0766746
0.0777533
0.0780165
0.0775107
0.0763194
0.074567
0.0724199
0.0700883
0.0678235
0.0658568
0.0643758
0.00595471
0.00353051
0.0010878
-0.00132063
-0.00362653
-0.00564411
-0.0072165
-0.008227
-0.00859005
-0.00825061
-0.00718086
-0.00537527
-0.00284989
0.000358644
0.0041977
0.00860161
0.0134915
0.0187757
0.0243529
0.0301157
0.0359536
0.041754
0.0474028
0.0527864
0.0577936
0.0623199
0.0662717
0.0695704
0.0721562
0.0739905
0.0750577
0.0753677
0.0749581
0.0738978
0.0722879
0.070262
0.0679886
0.065657
0.0633406
0.0610886
0.00935859
0.00604931
0.0031348
0.000531554
-0.00184437
-0.00385666
-0.00538329
-0.00633815
-0.00665841
-0.0063043
-0.00525686
-0.00351496
-0.00109611
0.00196369
0.00561434
0.00979454
0.0144313
0.0194395
0.0247246
0.0301864
0.0357211
0.0412233
0.0465863
0.051703
0.056469
0.0607852
0.0645624
0.0677254
0.0702159
0.071995
0.0730443
0.0733676
0.0729927
0.0719722
0.0703839
0.0683305
0.0659484
0.0633814
0.0605594
0.0574099
0.0127742
0.00853024
0.0050463
0.00213082
-0.000431971
-0.00254392
-0.00411211
-0.00507859
-0.00540189
-0.00505698
-0.00403489
-0.00234091
3.78305e-06
0.00296216
0.00648518
0.0105142
0.01498
0.0198023
0.0248913
0.0301519
0.0354855
0.040792
0.0459697
0.0509167
0.0555322
0.0597203
0.0633939
0.0664783
0.0689144
0.0706601
0.0716918
0.0720056
0.0716185
0.0705682
0.0689111
0.0667224
0.0641128
0.0611946
0.0577769
0.0536878
0.0159247
0.0107413
0.00663479
0.00332898
0.000496471
-0.00179277
-0.0034687
-0.00449742
-0.00485667
-0.00453559
-0.00353576
-0.00187009
0.000435423
0.00334146
0.00679859
0.0107492
0.0151261
0.0198517
0.0248397
0.029998
0.0352318
0.0404442
0.045537
0.0504108
0.0549667
0.0591097
0.062752
0.0658176
0.0682441
0.0699843
0.0710074
0.0713001
0.0708682
0.0697357
0.0679412
0.0655376
0.0626159
0.0592673
0.0552
0.0501641
0.0186061
0.0124933
0.00773786
0.0039936
0.000837192
-0.00168145
-0.00350961
-0.00463346
-0.00504771
-0.00475493
-0.00376723
-0.00210565
0.000198251
0.00310191
0.0065544
0.0104976
0.014865
0.0195802
0.0245584
0.0297097
0.034941
0.0401575
0.0452624
0.0501571
0.0547425
0.0589224
0.0626068
0.0657158
0.0681817
0.0699508
0.0709835
0.0712566
0.0707638
0.0695159
0.0675368
0.0648629
0.0615717
0.0577409
0.0529924
0.0470128
0.0206616
0.0136284
0.00821024
0.00399842
0.000484131
-0.00229646
-0.00430351
-0.00554003
-0.00601578
-0.00574584
-0.00475261
-0.00306551
-0.00072216
0.00223112
0.00574095
0.00974758
0.0141836
0.0189725
0.0240301
0.0292672
0.0345914
0.0399083
0.045121
0.0501298
0.0548341
0.0591346
0.0629371
0.0661561
0.068717
0.0705572
0.0716278
0.0718947
0.0713399
0.0699613
0.0677696
0.0647886
0.0610886
0.0567403
0.0512879
0.0443637
0.0219615
0.01401
0.00791849
0.00322075
-0.000671815
-0.00373271
-0.00593144
-0.0072854
-0.00781811
-0.00755641
-0.00653269
-0.00478472
-0.00235645
0.000701468
0.00433244
0.00847406
0.0130569
0.0180036
0.0232294
0.0286447
0.0341569
0.0396706
0.0450875
0.0503055
0.0552206
0.0597289
0.0637306
0.0671329
0.0698523
0.0718158
0.0729635
0.0732501
0.0726456
0.0711359
0.0687195
0.0654098
0.0612742
0.0563814
0.0502035
0.0423223
0.0223891
0.0135112
0.00673485
0.00153853
-0.00274384
-0.00609265
-0.00848454
-0.00994998
-0.0105254
-0.0102488
-0.00916225
-0.00731197
-0.00474846
-0.00152718
0.00229138
0.00664139
0.0114507
0.01664
0.0221234
0.0278102
0.0336065
0.0394152
0.0451351
0.0506606
0.0558827
0.0606916
0.0649803
0.0686472
0.0715981
0.0737481
0.0750248
0.0753702
0.0747423
0.0731147
0.0704747
0.0668269
0.0622379
0.056778
0.0498493
0.0409836
0.0218305
0.0120065
0.00453082
-0.00117378
-0.00585114
-0.00948708
-0.0120643
-0.0136258
-0.0142205
-0.0138975
-0.0127084
-0.0107078
-0.00795336
-0.00450569
-0.000429692
0.00420471
0.00932202
0.0148405
0.0206725
0.0267258
0.0329045
0.0391089
0.045234
0.0511697
0.0568008
0.0620104
0.0666823
0.0707047
0.0739712
0.0763833
0.0778544
0.0783124
0.0777015
0.075983
0.0731332
0.069148
0.0640947
0.0580473
0.0503364
0.0404427
0.0201676
0.00936669
0.00117362
-0.0050475
-0.0101203
-0.0140357
-0.0167825
-0.0184161
-0.0189983
-0.0185889
-0.0172498
-0.0150443
-0.0120373
-0.00829528
-0.00388805
0.00110996
0.00661949
0.012556
0.01883
0.0253473
0.0320096
0.0387139
0.0453511
0.0518052
0.0579541
0.0636724
0.0688338
0.0733143
0.0769933
0.0797572
0.0815031
0.0821429
0.0816052
0.0798373
0.0768037
0.0724914
0.0669688
0.0603146
0.0517831
0.0408014
0.0172733
0.00545526
-0.00347758
-0.0102226
-0.0156876
-0.0198689
-0.022762
-0.0244357
-0.0249646
-0.0244206
-0.0228759
-0.0204033
-0.0170759
-0.0129662
-0.00814933
-0.00270461
0.0032847
0.00973127
0.0165434
0.0236251
0.0308756
0.0381884
0.0454495
0.0525368
0.0593202
0.0656647
0.071433
0.0764869
0.08069
0.0839112
0.0860291
0.086937
0.0865453
0.0847852
0.0816071
0.0769879
0.0709967
0.0637165
0.054319
0.0421736
0.0130063
0.000121746
-0.00957694
-0.0168523
-0.0227021
-0.0271298
-0.0301381
-0.0318104
-0.0322359
-0.0314993
-0.0296841
-0.0268741
-0.0231507
-0.0185936
-0.0132834
-0.0073043
-0.000743743
0.00630821
0.013758
0.0215079
0.0294549
0.037489
0.0454914
0.0533331
0.0608759
0.0679744
0.0744787
0.0802355
0.0850904
0.0888919
0.0914975
0.0927785
0.0926243
0.0909462
0.0876778
0.0827829
0.0763302
0.0684058
0.0580903
0.0446903
0.00720642
-0.00680258
-0.0172962
-0.0251067
-0.0313293
-0.0359761
-0.039059
-0.0406777
-0.0409379
-0.0399389
-0.0377778
-0.0345499
-0.0303464
-0.0252544
-0.0193607
-0.0127544
-0.00552688
0.0022294
0.0104195
0.0189445
0.0276996
0.0365719
0.0454378
0.054162
0.0625974
0.0705879
0.0779701
0.0845743
0.0902257
0.09475
0.0979797
0.0997605
0.0999562
0.098454
0.0951661
0.0900397
0.0831403
0.0745556
0.0632649
0.0485054
-0.000308034
-0.0155073
-0.0268271
-0.035175
-0.0417522
-0.0465815
-0.0496861
-0.0511854
-0.0512045
-0.04986
-0.0472644
-0.0435264
-0.0387484
-0.0330255
-0.026451
-0.019119
-0.0111243
-0.00256123
0.00647464
0.0158841
0.0255617
0.0353922
0.0452485
0.0549889
0.0644582
0.0734894
0.0819049
0.089517
0.0961289
0.10154
0.105553
0.107985
0.108668
0.107459
0.104243
0.0989447
0.091624
0.0823675
0.0700403
0.0538037
-0.00974193
-0.0262054
-0.0383848
-0.0472684
-0.0541732
-0.0591359
-0.0621946
-0.0634924
-0.0631776
-0.0613879
-0.058254
-0.0539003
-0.0484414
-0.0419821
-0.0346218
-0.0264597
-0.0175932
-0.0081177
0.00187169
0.0122769
0.022993
0.0339042
0.0448808
0.0557765
0.0664288
0.0766599
0.0862779
0.0950759
0.102833
0.109318
0.114303
0.117566
0.118902
0.118131
0.115103
0.109714
0.102013
0.09208
0.0786534
0.0608097
-0.0213277
-0.0391388
-0.0522126
-0.0616244
-0.0688181
-0.073849
-0.0767749
-0.0777683
-0.0770062
-0.0746517
-0.0708574
-0.0657661
-0.0595068
-0.0521941
-0.0439348
-0.034832
-0.0249852
-0.0144893
-0.00343734
0.00807535
0.0199464
0.0320618
0.044291
0.0564853
0.0684762
0.0800765
0.0910803
0.101261
0.110371
0.118146
0.12432
0.128628
0.130819
0.130666
0.127975
0.122603
0.114581
0.10398
0.089391
0.069798
-0.0353314
-0.0545855
-0.0685898
-0.0785132
-0.0859412
-0.0909537
-0.093635
-0.0941949
-0.0928457
-0.0897818
-0.0851827
-0.0792127
-0.072017
-0.0637218
-0.0544408
-0.0442805
-0.033341
-0.021715
-0.00949153
0.00323947
0.0163808
0.0298226
0.0434372
0.0570756
0.0705663
0.0837145
0.0963014
0.10808
0.118775
0.128087
0.135704
0.14131
0.1446
0.145288
0.143123
0.137913
0.129657
0.118411
0.102601
0.0811027
-0.0520606
-0.0728685
-0.0878403
-0.0982465
-0.105832
-0.110711
-0.113003
-0.112965
-0.110855
-0.106906
-0.10133
-0.0943161
-0.086029
-0.0766071
-0.0661711
-0.0548299
-0.042682
-0.0298157
-0.016313
-0.00225579
0.0122675
0.0271549
0.0422851
0.0575131
0.0726676
0.0875497
0.101929
0.115541
0.128079
0.139206
0.14856
0.155766
0.16045
0.162255
0.160857
0.155997
0.147632
0.13579
0.118701
0.095127
-0.0718733
-0.0943668
-0.110344
-0.121186
-0.128822
-0.133412
-0.135126
-0.134282
-0.131194
-0.126144
-0.119383
-0.111131
-0.101574
-0.0908636
-0.0791272
-0.0664744
-0.0529994
-0.0387831
-0.023897
-0.00841077
0.00759974
0.0240451
0.0408154
0.0577745
0.0747563
0.0915618
0.107954
0.123649
0.138315
0.151571
0.163
0.172159
0.178593
0.181857
0.181533
0.177272
0.168972
0.156612
0.138197
0.112355
-0.0951905
-0.11953
-0.136549
-0.147756
-0.155293
-0.159385
-0.160272
-0.158352
-0.154011
-0.147593
-0.139396
-0.129677
-0.118644
-0.106463
-0.0932678
-0.0791652
-0.0642425
-0.0485686
-0.0322004
-0.015191
0.00240195
0.020507
0.0390313
0.0578541
0.0768207
0.0957381
0.114367
0.132412
0.149513
0.165248
0.179139
0.190667
0.199279
0.204423
0.205561
0.202227
0.194228
0.181472
0.161694
0.13337
-0.122515
-0.148901
-0.166998
-0.178457
-0.185683
-0.188994
-0.188724
-0.185379
-0.179438
-0.171321
-0.161384
-0.149925
-0.137178
-0.123323
-0.108496
-0.0927988
-0.0763072
-0.0590731
-0.0411335
-0.0225188
-0.00326281
0.0165875
0.0369638
0.0577678
0.0788646
0.100075
0.121165
0.141833
0.161698
0.180297
0.197089
0.21147
0.222775
0.230318
0.233412
0.231433
0.22406
0.21109
0.189928
0.158877
-0.154458
-0.183147
-0.20235
-0.213891
-0.220505
-0.222644
-0.220778
-0.215553
-0.207571
-0.197344
-0.185299
-0.171779
-0.157046
-0.14129
-0.124646
-0.107206
-0.0890275
-0.0701398
-0.0505529
-0.0302683
-0.00928903
0.0123703
0.0346736
0.0575545
0.080907
0.104576
0.128344
0.151912
0.174885
0.196767
0.216955
0.234751
0.249366
0.259951
0.265627
0.265566
0.259261
0.246344
0.223808
0.189746
-0.191784
-0.223108
-0.243427
-0.25479
-0.260359
-0.260785
-0.256733
-0.249036
-0.238453
-0.22561
-0.211015
-0.19506
-0.178031
-0.160126
-0.141472
-0.122142
-0.102168
-0.0815487
-0.060259
-0.038264
-0.0155279
0.00797508
0.0322505
0.0572738
0.0829797
0.109249
0.135894
0.162632
0.18907
0.214685
0.238822
0.260685
0.279345
0.293764
0.302825
0.305424
0.300797
0.288326
0.264474
0.227064
-0.235475
-0.269866
-0.291276
-0.302054
-0.30595
-0.303912
-0.29688
-0.285941
-0.272048
-0.255969
-0.238299
-0.219479
-0.199814
-0.179497
-0.158638
-0.13728
-0.115419
-0.0930126
-0.0699926
-0.0462784
-0.0217867
0.00355765
0.0298119
0.0570046
0.0851238
0.114102
0.143795
0.173958
0.204216
0.234041
0.262735
0.289414
0.313
0.332233
0.345704
0.351952
0.34985
0.338408
0.313374
0.272209
-0.286833
-0.324861
-0.347252
-0.356807
-0.358107
-0.352553
-0.341474
-0.326291
-0.308204
-0.288139
-0.266782
-0.244614
-0.221946
-0.19895
-0.175701
-0.152199
-0.128388
-0.104173
-0.0794327
-0.0540311
-0.0278282
-0.000689933
0.0275028
0.0568435
0.0873873
0.119135
0.152008
0.18582
0.220241
0.254766
0.28868
0.321027
0.350579
0.375837
0.395037
0.40626
0.407872
0.39833
0.372383
0.326962
-0.347643
-0.390045
-0.413145
-0.420456
-0.417795
-0.407247
-0.390686
-0.369972
-0.346596
-0.321654
-0.295915
-0.269878
-0.243831
-0.217903
-0.192108
-0.166381
-0.1406
-0.114602
-0.0882003
-0.0611933
-0.0333757
-0.00454512
0.0254894
0.0568981
0.0898181
0.124336
0.160462
0.198098
0.236993
0.276704
0.316538
0.355504
0.392247
0.425018
0.451646
0.469632
0.47665
0.470329
0.44397
0.393675
-0.420446
-0.46815
-0.491347
-0.494767
-0.486108
-0.468488
-0.444531
-0.416645
-0.386652
-0.355809
-0.32493
-0.29449
-0.264711
-0.235639
-0.207196
-0.179225
-0.151515
-0.123821
-0.0958783
-0.0674096
-0.0381354
-0.00777709
0.0239371
0.057265
0.0924393
0.129652
0.169027
0.210588
0.254209
0.299557
0.346028
0.392652
0.438004
0.480107
0.516348
0.543524
0.558378
0.557316
0.531478
0.47558
-0.509014
-0.563095
-0.585097
-0.581928
-0.564219
-0.536612
-0.502731
-0.465632
-0.427464
-0.389588
-0.352792
-0.31745
-0.283655
-0.251312
-0.220208
-0.190063
-0.160552
-0.131332
-0.102045
-0.072332
-0.0418311
-0.0101817
0.0229753
0.0579938
0.0952148
0.134953
0.177473
0.222959
0.271458
0.322823
0.376617
0.431997
0.487563
0.541193
0.589846
0.629513
0.655729
0.663128
0.639561
0.577298
-0.619209
-0.680637
-0.698787
-0.684582
-0.653246
-0.611606
-0.564526
-0.515745
-0.467653
-0.421582
-0.378155
-0.337529
-0.29957
-0.263969
-0.230327
-0.198201
-0.167131
-0.136653
-0.106311
-0.0756551
-0.0442378
-0.011614
0.0226659
0.0590568
0.0980165
0.139998
0.185432
0.234701
0.288088
0.345711
0.407419
0.472638
0.540167
0.607909
0.672517
0.729152
0.771879
0.792849
0.77487
0.70577
-0.760619
-0.829429
-0.838331
-0.805737
-0.753955
-0.692755
-0.628365
-0.565065
-0.505233
-0.449912
-0.399337
-0.353271
-0.311224
-0.272588
-0.236716
-0.202964
-0.170711
-0.139364
-0.108359
-0.077153
-0.0452163
-0.0120201
0.0229734
0.0603196
0.100596
0.144405
0.192363
0.245087
0.303157
0.367056
0.437058
0.513063
0.594331
0.679106
0.764041
0.843648
0.910401
0.953165
0.947139
0.872006
-0.949883
-1.02269
-1.01142
-0.948329
-0.866118
-0.778048
-0.691449
-0.610634
-0.537436
-0.472158
-0.414308
-0.363023
-0.317304
-0.276143
-0.238585
-0.203755
-0.170855
-0.139157
-0.10799
-0.0767252
-0.0447546
-0.0114756
0.0237291
0.0615077
0.102553
0.147617
0.197512
0.25312
0.315374
0.385217
0.463517
0.5509
0.647468
0.752319
0.86273
0.973156
1.07478
1.15261
1.17091
1.09464
-1.21744
-1.28067
-1.22713
-1.11386
-0.9871
-0.863062
-0.748984
-0.648026
-0.560504
-0.485288
-0.420709
-0.364999
-0.316485
-0.273673
-0.235261
-0.200123
-0.167284
-0.13589
-0.105174
-0.074434
-0.0430015
-0.0102155
0.0246039
0.0621815
0.103311
0.148879
0.199893
0.257508
0.323042
0.397985
0.483959
0.582609
0.695364
0.822933
0.964304
1.11523
1.26692
1.40105
1.468
1.40704
-1.61919
-1.63294
-1.4941
-1.29997
-1.10987
-0.939648
-0.793499
-0.671098
-0.569694
-0.485793
-0.416028
-0.357451
-0.307593
-0.264426
-0.226296
-0.191843
-0.15994
-0.129627
-0.100072
-0.0705218
-0.0402729
-0.00863044
0.0251233
0.0617629
0.102154
0.147292
0.198349
0.256728
0.324135
0.402639
0.494735
0.603363
0.731819
0.883407
1.0605
1.26273
1.48458
1.7077
1.8694
1.86885
-2.25704
-2.11879
-1.81702
-1.49852
-1.22224
-0.996008
-0.815461
-0.672871
-0.560207
-0.47054
-0.398327
-0.33927
-0.290076
-0.24822
-0.21175
-0.179132
-0.149135
-0.120745
-0.0930989
-0.0654325
-0.0370367
-0.00721495
0.0247556
0.0596641
0.0984077
0.142042
0.191846
0.249413
0.316767
0.396515
0.492044
0.607754
0.749291
0.923662
1.13894
1.40287
1.71915
2.07717
2.4151
2.58566
-3.35937
-2.78683
-2.17681
-1.68062
-1.29809
-1.01194
-0.800939
-0.64447
-0.526722
-0.436538
-0.366088
-0.309842
-0.263863
-0.225301
-0.19205
-0.162512
-0.135441
-0.109833
-0.0848483
-0.0597553
-0.0338784
-0.00655559
0.0229029
0.0552571
0.0913824
0.132326
0.179386
0.234226
0.299039
0.376787
0.471554
0.589063
0.737418
0.928143
1.1776
1.50738
1.93951
2.48914
3.15557
3.79154
-5.52461
-3.66489
-2.43549
-1.71943
-1.24785
-0.928673
-0.712406
-0.562006
-0.453805
-0.373554
-0.312319
-0.26426
-0.225442
-0.193135
-0.165382
-0.140728
-0.118055
-0.0964752
-0.0752526
-0.053748
-0.0313743
-0.00755388
0.0183157
0.0469036
0.0789848
0.115494
0.157601
0.206831
0.26524
0.335688
0.422276
0.531089
0.671437
0.858135
1.11577
1.48357
2.015
2.80388
4.12143
6.08903
-9.21068
-4.52376
-2.31095
-1.42676
-0.965513
-0.690474
-0.520695
-0.409694
-0.332438
-0.276065
-0.233378
-0.199961
-0.172932
-0.150316
-0.130698
-0.113021
-0.0964701
-0.0803896
-0.0642351
-0.0475304
-0.0298349
-0.0107154
0.0102885
0.0336852
0.0600627
0.0901261
0.124754
0.165086
0.212654
0.269586
0.338962
0.425467
0.536672
0.685889
0.89878
1.22462
1.75361
2.73222
5.05979
9.86694
)
;

boundaryField
{
    movingWall
    {
        type            zeroGradient;
    }
    fixedWalls
    {
        type            zeroGradient;
    }
    frontAndBack
    {
        type            empty;
    }
}


// ************************************************************************* //
