/*--------------------------------*- C++ -*----------------------------------*\
  =========                 |
  \\      /  F ield         | OpenFOAM: The Open Source CFD Toolbox
   \\    /   O peration     | Website:  https://openfoam.org
    \\  /    A nd           | Version:  7
     \\/     M anipulation  |
\*---------------------------------------------------------------------------*/
FoamFile
{
    version     2.0;
    format      ascii;
    class       surfaceScalarField;
    location    "0.05";
    object      phi;
}
// * * * * * * * * * * * * * * * * * * * * * * * * * * * * * * * * * * * * * //

dimensions      [0 3 -1 0 0 0 0];

internalField   nonuniform List<scalar> 
3120
(
2.25213e-09
-2.2523e-09
3.60158e-09
-1.3493e-09
1.7992e-09
1.80236e-09
-3.54634e-09
5.3456e-09
-1.22346e-08
8.68819e-09
-2.37885e-08
1.15538e-08
-3.76255e-08
1.38371e-08
-5.31389e-08
1.55134e-08
-6.97349e-08
1.6596e-08
-8.68526e-08
1.71176e-08
-1.03973e-07
1.71205e-08
-1.20622e-07
1.66487e-08
-1.36371e-07
1.57487e-08
-1.5084e-07
1.44697e-08
-1.63699e-07
1.28594e-08
-1.74663e-07
1.09637e-08
-1.83492e-07
8.82894e-09
-1.89994e-07
6.50244e-09
-1.94027e-07
4.03274e-09
-1.95496e-07
1.46889e-09
-1.94357e-07
-1.13909e-09
-1.90617e-07
-3.73957e-09
-1.84338e-07
-6.27905e-09
-1.75637e-07
-8.70177e-09
-1.64687e-07
-1.09498e-08
-1.51723e-07
-1.29637e-08
-1.3704e-07
-1.46829e-08
-1.20993e-07
-1.60473e-08
-1.03994e-07
-1.69985e-08
-8.65128e-08
-1.74815e-08
-6.9067e-08
-1.74459e-08
-5.22188e-08
-1.68483e-08
-3.65633e-08
-1.56554e-08
-2.27146e-08
-1.38487e-08
-1.12816e-08
-1.14331e-08
-2.8247e-09
-8.45689e-09
2.22759e-09
-5.05224e-09
3.74599e-09
-1.51841e-09
2.27265e-09
1.47321e-09
2.2726e-09
1.27482e-09
-3.52716e-09
-1.44901e-09
1.37433e-09
-1.11216e-08
1.1475e-08
-2.86436e-08
2.28676e-08
-5.37569e-08
3.38017e-08
-8.55761e-08
4.33731e-08
-1.22875e-07
5.11356e-08
-1.64275e-07
5.69136e-08
-2.0836e-07
6.06816e-08
-2.53741e-07
6.24984e-08
-2.99094e-07
6.2474e-08
-3.43192e-07
6.07463e-08
-3.84913e-07
5.74697e-08
-4.23251e-07
5.28082e-08
-4.57321e-07
4.69296e-08
-4.86361e-07
4.00037e-08
-5.09735e-07
3.22025e-08
-5.26932e-07
2.37002e-08
-5.37574e-07
1.46743e-08
-5.41411e-07
5.30617e-09
-5.38332e-07
-4.21824e-09
-5.28365e-07
-1.3707e-08
-5.11682e-07
-2.29622e-08
-4.88604e-07
-3.17796e-08
-4.59604e-07
-3.99496e-08
-4.2531e-07
-4.72581e-08
-3.86502e-07
-5.34901e-08
-3.44116e-07
-5.8434e-08
-2.99228e-07
-6.18864e-08
-2.5305e-07
-6.36591e-08
-2.06909e-07
-6.3587e-08
-1.62219e-07
-6.15382e-08
-1.20447e-07
-5.74278e-08
-8.30564e-08
-5.1239e-08
-5.1432e-08
-4.30575e-08
-2.67562e-08
-3.31325e-08
-9.82177e-09
-2.19867e-08
-7.39345e-10
-1.0601e-08
1.51588e-09
-7.82099e-10
3.78857e-09
-1.64844e-09
-1.87885e-09
-1.12831e-08
1.10092e-08
-3.11865e-08
3.13781e-08
-6.20498e-08
5.37308e-08
-1.03427e-07
7.5179e-08
-1.54122e-07
9.40677e-08
-2.12476e-07
1.0949e-07
-2.76582e-07
1.2102e-07
-3.44434e-07
1.28533e-07
-4.14028e-07
1.32092e-07
-4.83428e-07
1.31874e-07
-5.50815e-07
1.28133e-07
-6.14513e-07
1.21168e-07
-6.73009e-07
1.11305e-07
-7.24968e-07
9.8888e-08
-7.69234e-07
8.42702e-08
-8.04844e-07
6.78124e-08
-8.31026e-07
4.9882e-08
-8.47205e-07
3.08538e-08
-8.5301e-07
1.11111e-08
-8.48276e-07
-8.95237e-09
-8.33052e-07
-2.89316e-08
-8.07604e-07
-4.84095e-08
-7.72427e-07
-6.69572e-08
-7.2824e-07
-8.41364e-08
-6.75995e-07
-9.95031e-08
-6.16871e-07
-1.12614e-07
-5.52269e-07
-1.23036e-07
-4.83799e-07
-1.30357e-07
-4.13257e-07
-1.34201e-07
-3.42595e-07
-1.34249e-07
-2.73876e-07
-1.30258e-07
-2.0921e-07
-1.22094e-07
-1.50673e-07
-1.09776e-07
-1.00188e-07
-9.35428e-08
-5.93667e-08
-7.39535e-08
-2.92938e-08
-5.20598e-08
-1.02437e-08
-2.96512e-08
-1.33388e-09
-9.69181e-09
2.45469e-09
-5.11057e-09
3.23177e-09
-2.26727e-08
2.85714e-08
-5.38402e-08
6.25458e-08
-9.86696e-08
9.85602e-08
-1.5629e-07
1.32799e-07
-2.25128e-07
1.62906e-07
-3.03134e-07
1.87496e-07
-3.87974e-07
2.0586e-07
-4.77185e-07
2.17744e-07
-5.68285e-07
2.23191e-07
-6.5886e-07
2.2245e-07
-7.46626e-07
2.15899e-07
-8.29465e-07
2.04007e-07
-9.05457e-07
1.87297e-07
-9.729e-07
1.66331e-07
-1.03032e-06
1.41692e-07
-1.07649e-06
1.1398e-07
-1.11042e-06
8.38086e-08
-1.13137e-06
5.18069e-08
-1.13887e-06
1.86171e-08
-1.13273e-06
-1.51008e-08
-1.11299e-06
-4.86684e-08
-1.08001e-06
-8.13882e-08
-1.03442e-06
-1.12545e-07
-9.77147e-07
-1.41411e-07
-9.094e-07
-1.6725e-07
-8.32681e-07
-1.89333e-07
-7.48767e-07
-2.0695e-07
-6.59692e-07
-2.19432e-07
-5.67717e-07
-2.26176e-07
-4.75287e-07
-2.26679e-07
-3.8497e-07
-2.20574e-07
-2.99381e-07
-2.07683e-07
-2.21073e-07
-1.88084e-07
-1.52411e-07
-1.62205e-07
-9.54018e-08
-1.30963e-07
-5.14952e-08
-9.59664e-08
-2.1366e-08
-5.97803e-08
-4.6983e-09
-2.63595e-08
-2.24375e-09
-8.53377e-09
1.17655e-08
-3.4277e-08
5.43147e-08
-7.70638e-08
1.05333e-07
-1.36097e-07
1.57593e-07
-2.09904e-07
2.06607e-07
-2.96442e-07
2.49444e-07
-3.93245e-07
2.84299e-07
-4.97581e-07
3.10197e-07
-6.0659e-07
3.26753e-07
-7.17395e-07
3.33996e-07
-8.27193e-07
3.32247e-07
-9.33321e-07
3.22027e-07
-1.03331e-06
3.03992e-07
-1.1249e-06
2.78893e-07
-1.20611e-06
2.47539e-07
-1.2752e-06
2.10782e-07
-1.33072e-06
1.69501e-07
-1.37152e-06
1.24601e-07
-1.39672e-06
7.70073e-08
-1.40577e-06
2.76679e-08
-1.39842e-06
-2.24435e-08
-1.37477e-06
-7.23269e-08
-1.3352e-06
-1.20955e-07
-1.28047e-06
-1.67278e-07
-1.21165e-06
-2.10225e-07
-1.13018e-06
-2.48723e-07
-1.03781e-06
-2.81707e-07
-9.36609e-07
-3.08146e-07
-8.28966e-07
-3.27074e-07
-7.17514e-07
-3.37628e-07
-6.051e-07
-3.39094e-07
-4.94709e-07
-3.30965e-07
-3.8938e-07
-3.13012e-07
-2.9209e-07
-2.85374e-07
-2.05621e-07
-2.48674e-07
-1.32406e-07
-2.04178e-07
-7.43631e-08
-1.54009e-07
-3.27451e-08
-1.01398e-07
-8.03968e-09
-5.10651e-08
-1.02835e-08
-1.17688e-08
2.35342e-08
-4.55654e-08
8.81114e-08
-9.99498e-08
1.59717e-07
-1.73182e-07
2.30825e-07
-2.63079e-07
2.96504e-07
-3.67041e-07
3.53405e-07
-4.82138e-07
3.99396e-07
-6.05229e-07
4.33288e-07
-7.33074e-07
4.54598e-07
-8.62442e-07
4.63364e-07
-9.90192e-07
4.59998e-07
-1.11335e-06
4.4518e-07
-1.22913e-06
4.19782e-07
-1.33504e-06
3.84803e-07
-1.42884e-06
3.41332e-07
-1.50857e-06
2.9052e-07
-1.57263e-06
2.33557e-07
-1.6197e-06
1.71672e-07
-1.64882e-06
1.06123e-07
-1.65935e-06
3.8201e-08
-1.65102e-06
-3.07707e-08
-1.62392e-06
-9.94323e-08
-1.57848e-06
-1.66389e-07
-1.51555e-06
-2.30213e-07
-1.43632e-06
-2.89457e-07
-1.34238e-06
-3.42663e-07
-1.23569e-06
-3.88394e-07
-1.11858e-06
-4.25257e-07
-9.93699e-07
-4.51953e-07
-8.64003e-07
-4.67324e-07
-7.32682e-07
-4.70416e-07
-6.03091e-07
-4.60556e-07
-4.7866e-07
-4.37442e-07
-3.6278e-07
-4.01255e-07
-2.5867e-07
-3.52784e-07
-1.69248e-07
-2.936e-07
-9.69928e-08
-2.26264e-07
-4.38488e-08
-1.54542e-07
-1.12004e-08
-8.37136e-08
-2.14839e-08
-1.47987e-08
3.83329e-08
-5.63965e-08
1.29709e-07
-1.22203e-07
2.25524e-07
-2.09526e-07
3.18148e-07
-3.15415e-07
4.02393e-07
-4.36648e-07
4.74638e-07
-5.69779e-07
5.32527e-07
-7.11229e-07
5.74737e-07
-8.57374e-07
6.00743e-07
-1.00464e-06
6.10629e-07
-1.14957e-06
6.04933e-07
-1.28892e-06
5.84527e-07
-1.41966e-06
5.50522e-07
-1.53905e-06
5.04197e-07
-1.64467e-06
4.46946e-07
-1.73439e-06
3.80245e-07
-1.80646e-06
3.05624e-07
-1.85945e-06
2.24663e-07
-1.89231e-06
1.38979e-07
-1.90434e-06
5.02328e-08
-1.89524e-06
-3.9874e-08
-1.86507e-06
-1.29593e-07
-1.81433e-06
-2.17131e-07
-1.74389e-06
-3.00655e-07
-1.65505e-06
-3.78301e-07
-1.54951e-06
-4.48199e-07
-1.4294e-06
-5.08498e-07
-1.29725e-06
-5.5741e-07
-1.15594e-06
-5.93261e-07
-1.00871e-06
-6.14561e-07
-8.59044e-07
-6.20078e-07
-7.10662e-07
-6.08938e-07
-5.67378e-07
-5.80727e-07
-4.33011e-07
-5.35622e-07
-3.11263e-07
-4.74532e-07
-2.05596e-07
-3.99267e-07
-1.19126e-07
-3.12735e-07
-5.45514e-08
-2.19116e-07
-1.41671e-08
-1.24098e-07
-3.56509e-08
-1.76641e-08
5.59971e-08
-6.68271e-08
1.78872e-07
-1.43872e-07
3.02569e-07
-2.4518e-07
4.19456e-07
-3.6701e-07
5.24222e-07
-5.0547e-07
6.13098e-07
-6.56555e-07
6.83613e-07
-8.16214e-07
7.34396e-07
-9.80419e-07
7.64948e-07
-1.14525e-06
7.7546e-07
-1.30696e-06
7.66643e-07
-1.46203e-06
7.396e-07
-1.60723e-06
6.95717e-07
-1.73961e-06
6.36582e-07
-1.85659e-06
5.63923e-07
-1.95591e-06
4.79566e-07
-2.03569e-06
3.85405e-07
-2.09442e-06
2.8339e-07
-2.13096e-06
1.75521e-07
-2.14457e-06
6.38446e-08
-2.13491e-06
-4.95377e-08
-2.10203e-06
-1.62469e-07
-2.04643e-06
-2.72736e-07
-1.96901e-06
-3.78074e-07
-1.87113e-06
-4.76179e-07
-1.7546e-06
-5.64734e-07
-1.62165e-06
-6.41441e-07
-1.47498e-06
-7.04079e-07
-1.31769e-06
-7.50558e-07
-1.15324e-06
-7.7901e-07
-9.85435e-07
-7.87881e-07
-8.18334e-07
-7.76038e-07
-6.56156e-07
-7.42905e-07
-5.03181e-07
-6.88597e-07
-3.6364e-07
-6.14072e-07
-2.416e-07
-5.21307e-07
-1.40869e-07
-4.13466e-07
-6.49382e-08
-2.95047e-07
-1.69888e-08
-1.72047e-07
-5.26398e-08
-2.04236e-08
7.64208e-08
-7.69979e-08
2.35446e-07
-1.6517e-07
3.90741e-07
-2.8043e-07
5.34716e-07
-4.18232e-07
6.62025e-07
-5.73987e-07
7.68852e-07
-7.43091e-07
8.52717e-07
-9.20985e-07
9.1229e-07
-1.10322e-06
9.47183e-07
-1.28552e-06
9.57759e-07
-1.46384e-06
9.44964e-07
-1.63442e-06
9.1018e-07
-1.79382e-06
8.55113e-07
-1.93893e-06
7.81694e-07
-2.06702e-06
6.92017e-07
-2.17574e-06
5.88279e-07
-2.26309e-06
4.7276e-07
-2.3275e-06
3.47798e-07
-2.36776e-06
2.15785e-07
-2.38309e-06
7.9172e-08
-2.3731e-06
-5.9531e-08
-2.33782e-06
-1.97745e-07
-2.27774e-06
-3.32821e-07
-2.19377e-06
-4.62044e-07
-2.0873e-06
-5.82648e-07
-1.96019e-06
-6.91841e-07
-1.81478e-06
-7.86848e-07
-1.6539e-06
-8.64967e-07
-1.4808e-06
-9.23652e-07
-1.29921e-06
-9.60601e-07
-1.11322e-06
-9.73876e-07
-9.27228e-07
-9.62026e-07
-7.45894e-07
-9.2424e-07
-5.73996e-07
-8.60494e-07
-4.16345e-07
-7.71723e-07
-2.77668e-07
-6.59984e-07
-1.62514e-07
-5.2862e-07
-7.51876e-08
-3.82374e-07
-1.97362e-08
-2.27499e-07
-7.23761e-08
-2.31391e-08
9.956e-08
-8.70759e-08
2.99383e-07
-1.86379e-07
4.90044e-07
-3.15666e-07
6.64004e-07
-4.69582e-07
8.1594e-07
-6.42809e-07
9.42079e-07
-8.30114e-07
1.04002e-06
-1.0264e-06
1.10858e-06
-1.22678e-06
1.14756e-06
-1.42659e-06
1.15758e-06
-1.62151e-06
1.13988e-06
-1.80753e-06
1.0962e-06
-1.98102e-06
1.02861e-06
-2.13874e-06
9.39413e-07
-2.27784e-06
8.3111e-07
-2.39585e-06
7.06297e-07
-2.49074e-06
5.6765e-07
-2.56086e-06
4.1791e-07
-2.60494e-06
2.59873e-07
-2.62216e-06
9.63934e-08
-2.61209e-06
-6.96007e-08
-2.57474e-06
-2.35104e-07
-2.51053e-06
-3.97023e-07
-2.4204e-06
-5.52183e-07
-2.30571e-06
-6.97334e-07
-2.16836e-06
-8.29186e-07
-2.01076e-06
-9.4445e-07
-1.83582e-06
-1.03991e-06
-1.64698e-06
-1.11249e-06
-1.44817e-06
-1.15942e-06
-1.24376e-06
-1.17828e-06
-1.03855e-06
-1.16724e-06
-8.37628e-07
-1.12516e-06
-6.46324e-07
-1.0518e-06
-4.70079e-07
-9.47969e-07
-3.14335e-07
-8.15728e-07
-1.8443e-07
-6.58525e-07
-8.55111e-08
-4.81293e-07
-2.24828e-08
-2.90527e-07
-9.48588e-08
-2.5868e-08
1.25428e-07
-9.72292e-08
3.70744e-07
-2.07794e-07
6.00609e-07
-3.51311e-07
8.07521e-07
-5.21596e-07
9.86225e-07
-7.12579e-07
1.13306e-06
-9.18363e-07
1.24581e-06
-1.13329e-06
1.3235e-06
-1.35199e-06
1.36626e-06
-1.56945e-06
1.37503e-06
-1.78103e-06
1.35146e-06
-1.98249e-06
1.29766e-06
-2.17004e-06
1.21615e-06
-2.3403e-06
1.10967e-06
-2.49033e-06
9.81141e-07
-2.61761e-06
8.33578e-07
-2.72004e-06
6.70079e-07
-2.79592e-06
4.93792e-07
-2.84397e-06
3.07918e-07
-2.86329e-06
1.15719e-07
-2.85343e-06
-7.9466e-08
-2.81433e-06
-2.74206e-07
-2.74639e-06
-4.64964e-07
-2.65047e-06
-6.48096e-07
-2.52795e-06
-8.19859e-07
-2.38069e-06
-9.7644e-07
-2.21114e-06
-1.114e-06
-2.02229e-06
-1.22876e-06
-1.81769e-06
-1.31708e-06
-1.6015e-06
-1.37561e-06
-1.37838e-06
-1.4014e-06
-1.15349e-06
-1.39213e-06
-9.32423e-07
-1.34623e-06
-7.21084e-07
-1.26314e-06
-5.25598e-07
-1.14345e-06
-3.52181e-07
-9.89144e-07
-2.07014e-07
-8.03692e-07
-9.61252e-08
-5.92182e-07
-2.52986e-08
-3.61354e-07
-1.20157e-07
-2.86596e-08
1.54087e-07
-1.07614e-07
4.49699e-07
-2.297e-07
7.22695e-07
-3.87773e-07
9.65595e-07
-5.74794e-07
1.17325e-06
-7.83906e-07
1.34217e-06
-1.00852e-06
1.47042e-06
-1.24238e-06
1.55736e-06
-1.47963e-06
1.60351e-06
-1.71487e-06
1.61027e-06
-1.94316e-06
1.57975e-06
-2.16006e-06
1.51456e-06
-2.36161e-06
1.4177e-06
-2.54433e-06
1.29239e-06
-2.70521e-06
1.14203e-06
-2.8417e-06
9.70068e-07
-2.95167e-06
7.80041e-07
-3.03338e-06
5.75506e-07
-3.08553e-06
3.60065e-07
-3.10719e-06
1.37378e-07
-3.09784e-06
-8.88154e-08
-3.05737e-06
-3.1467e-07
-2.98613e-06
-5.36212e-07
-2.88489e-06
-7.49331e-07
-2.75497e-06
-9.49782e-07
-2.5982e-06
-1.13321e-06
-2.417e-06
-1.2952e-06
-2.21441e-06
-1.43135e-06
-1.99409e-06
-1.5374e-06
-1.76038e-06
-1.60932e-06
-1.51821e-06
-1.64357e-06
-1.27316e-06
-1.63718e-06
-1.0313e-06
-1.58809e-06
-7.99182e-07
-1.49526e-06
-5.8366e-07
-1.35898e-06
-3.91789e-07
-1.18102e-06
-2.30658e-07
-9.64822e-07
-1.0724e-07
-7.156e-07
-2.82486e-08
-4.40345e-07
-1.48406e-07
-3.1557e-08
1.85644e-07
-1.18369e-07
5.36511e-07
-2.52353e-07
8.56678e-07
-4.25427e-07
1.13867e-06
-6.29648e-07
1.37747e-06
-8.57329e-07
1.56986e-06
-1.10115e-06
1.71424e-06
-1.35424e-06
1.81045e-06
-1.61024e-06
1.85951e-06
-1.86335e-06
1.86339e-06
-2.10835e-06
1.82475e-06
-2.34059e-06
1.7468e-06
-2.55598e-06
1.6331e-06
-2.75098e-06
1.4874e-06
-2.92255e-06
1.3136e-06
-3.06812e-06
1.11563e-06
-3.18554e-06
8.97467e-07
-3.27311e-06
6.63072e-07
-3.32948e-06
4.16439e-07
-3.35371e-06
1.61606e-07
-3.34522e-06
-9.73053e-08
-3.30384e-06
-3.56056e-07
-3.22979e-06
-6.10253e-07
-3.1238e-06
-8.5533e-07
-2.98704e-06
-1.08654e-06
-2.82127e-06
-1.29897e-06
-2.62887e-06
-1.4876e-06
-2.41286e-06
-1.64737e-06
-2.17697e-06
-1.77329e-06
-1.92568e-06
-1.86061e-06
-1.66421e-06
-1.90503e-06
-1.39851e-06
-1.90289e-06
-1.13519e-06
-1.8514e-06
-8.81461e-07
-1.74899e-06
-6.44983e-07
-1.59546e-06
-4.33715e-07
-1.39228e-06
-2.55739e-07
-1.1428e-06
-1.19055e-07
-8.52284e-07
-3.13935e-08
-5.28007e-07
-1.798e-07
-3.45993e-08
2.20244e-07
-1.29621e-07
6.31533e-07
-2.75984e-07
1.00304e-06
-4.64601e-07
1.32729e-06
-6.86561e-07
1.59943e-06
-9.33294e-07
1.81659e-06
-1.1967e-06
1.97765e-06
-1.46927e-06
2.08302e-06
-1.74412e-06
2.13437e-06
-2.01507e-06
2.13433e-06
-2.27662e-06
2.08629e-06
-2.52394e-06
1.99412e-06
-2.75286e-06
1.86202e-06
-2.9598e-06
1.69433e-06
-3.14171e-06
1.49552e-06
-3.29608e-06
1.26999e-06
-3.42078e-06
1.02217e-06
-3.51413e-06
7.56422e-07
-3.5748e-06
4.77109e-07
-3.60182e-06
1.88625e-07
-3.59456e-06
-1.04563e-07
-3.55276e-06
-3.97852e-07
-3.47656e-06
-6.8646e-07
-3.3665e-06
-9.65385e-07
-3.22365e-06
-1.22939e-06
-3.04963e-06
-1.473e-06
-2.84668e-06
-1.69055e-06
-2.61777e-06
-1.87627e-06
-2.36666e-06
-2.0244e-06
-2.09792e-06
-2.12935e-06
-1.81702e-06
-2.18594e-06
-1.53028e-06
-2.18963e-06
-1.24486e-06
-2.13682e-06
-9.68669e-07
-2.02518e-06
-7.10224e-07
-1.8539e-06
-4.78481e-07
-1.62403e-06
-2.82611e-07
-1.33867e-06
-1.3176e-07
-1.00314e-06
-3.47902e-08
-6.24977e-07
-2.1459e-07
-3.78206e-08
2.58064e-07
-1.41479e-07
7.35191e-07
-3.00795e-07
1.16236e-06
-5.05578e-07
1.53207e-06
-7.45867e-07
1.83972e-06
-1.01214e-06
2.08286e-06
-1.29547e-06
2.26098e-06
-1.58766e-06
2.37521e-06
-1.88132e-06
2.42802e-06
-2.16987e-06
2.42289e-06
-2.44758e-06
2.364e-06
-2.70947e-06
2.25602e-06
-2.95134e-06
2.10388e-06
-3.1696e-06
1.9126e-06
-3.3613e-06
1.68721e-06
-3.52396e-06
1.43266e-06
-3.65557e-06
1.15378e-06
-3.7545e-06
8.55349e-07
-3.81945e-06
5.42061e-07
-3.84945e-06
2.18623e-07
-3.84382e-06
-1.10192e-07
-3.80221e-06
-4.39465e-07
-3.7246e-06
-7.64067e-07
-3.61139e-06
-1.0786e-06
-3.46344e-06
-1.37734e-06
-3.28215e-06
-1.65428e-06
-3.06962e-06
-1.90308e-06
-2.82867e-06
-2.11723e-06
-2.56298e-06
-2.29009e-06
-2.2772e-06
-2.41513e-06
-1.97697e-06
-2.48617e-06
-1.66898e-06
-2.49762e-06
-1.36092e-06
-2.44488e-06
-1.06143e-06
-2.32467e-06
-7.79965e-07
-2.13537e-06
-5.26561e-07
-1.87743e-06
-3.11607e-07
-1.55362e-06
-1.45533e-07
-1.16921e-06
-3.84937e-08
-7.32017e-07
-2.53083e-07
-4.12516e-08
2.99316e-07
-1.54044e-07
8.47983e-07
-3.26967e-07
1.33528e-06
-5.48602e-07
1.7537e-06
-8.07829e-07
2.09894e-06
-1.09408e-06
2.36911e-06
-1.39756e-06
2.56446e-06
-1.70936e-06
2.68701e-06
-2.02155e-06
2.74021e-06
-2.32719e-06
2.72853e-06
-2.62035e-06
2.65715e-06
-2.89596e-06
2.53164e-06
-3.14984e-06
2.35775e-06
-3.37848e-06
2.14125e-06
-3.57906e-06
1.88779e-06
-3.74924e-06
1.60284e-06
-3.88715e-06
1.29169e-06
-3.99126e-06
9.59458e-07
-4.06035e-06
6.1115e-07
-4.09345e-06
2.51729e-07
-4.08986e-06
-1.13782e-07
-4.04911e-06
-4.80214e-07
-3.97103e-06
-8.42148e-07
-3.8558e-06
-1.19383e-06
-3.70402e-06
-1.52913e-06
-3.51684e-06
-1.84146e-06
-3.29607e-06
-2.12385e-06
-3.04431e-06
-2.36898e-06
-2.76512e-06
-2.56928e-06
-2.46309e-06
-2.71716e-06
-2.14398e-06
-2.80527e-06
-1.81479e-06
-2.82681e-06
-1.48374e-06
-2.77593e-06
-1.16023e-06
-2.64817e-06
-8.54699e-07
-2.4409e-06
-5.78385e-07
-2.15374e-06
-3.43036e-07
-1.78897e-06
-1.60547e-07
-1.3517e-06
-4.25582e-08
-8.50006e-07
-2.95642e-07
-4.49221e-08
3.44238e-07
-1.67412e-07
9.70473e-07
-3.54667e-07
1.52254e-06
-5.93882e-07
1.99292e-06
-8.72644e-07
2.37771e-06
-1.17925e-06
2.67572e-06
-1.50294e-06
2.88815e-06
-1.83407e-06
3.01814e-06
-2.16419e-06
3.07033e-06
-2.48604e-06
3.05038e-06
-2.79351e-06
2.96462e-06
-3.08155e-06
2.81968e-06
-3.34604e-06
2.62224e-06
-3.58367e-06
2.37889e-06
-3.79181e-06
2.09593e-06
-3.96836e-06
1.77938e-06
-4.11163e-06
1.43496e-06
-4.22028e-06
1.0681e-06
-4.29318e-06
6.84057e-07
-4.32944e-06
2.87983e-07
-4.32829e-06
-1.14927e-07
-4.28918e-06
-5.19328e-07
-4.21174e-06
-9.19591e-07
-4.09588e-06
-1.30969e-06
-3.9419e-06
-1.6831e-06
-3.7506e-06
-2.03276e-06
-3.52343e-06
-2.35103e-06
-3.26265e-06
-2.62976e-06
-2.97154e-06
-2.86039e-06
-2.65455e-06
-3.03415e-06
-2.31748e-06
-3.14235e-06
-1.96754e-06
-3.17675e-06
-1.61345e-06
-3.13002e-06
-1.26539e-06
-2.99624e-06
-9.34828e-07
-2.77146e-06
-6.34335e-07
-2.45424e-06
-3.77192e-07
-2.04611e-06
-1.76969e-07
-1.55192e-06
-4.70374e-08
-9.79937e-07
-3.42679e-07
-4.88649e-08
3.93103e-07
-1.81685e-07
1.10329e-06
-3.84062e-07
1.72491e-06
-6.41612e-07
2.25047e-06
-9.40462e-07
2.67656e-06
-1.26764e-06
3.0029e-06
-1.61137e-06
3.23187e-06
-1.96123e-06
3.368e-06
-2.30826e-06
3.41736e-06
-2.64493e-06
3.38705e-06
-2.96504e-06
3.28473e-06
-3.26363e-06
3.11826e-06
-3.53678e-06
2.89539e-06
-3.78146e-06
2.62356e-06
-3.99534e-06
2.30981e-06
-4.17663e-06
1.96068e-06
-4.32395e-06
1.58228e-06
-4.43617e-06
1.18032e-06
-4.51235e-06
7.60239e-07
-4.55166e-06
3.27296e-07
-4.55335e-06
-1.13242e-07
-4.51673e-06
-5.55952e-07
-4.44122e-06
-9.95094e-07
-4.32645e-06
-1.42446e-06
-4.17233e-06
-1.83723e-06
-3.97919e-06
-2.2259e-06
-3.74801e-06
-2.58221e-06
-3.4806e-06
-2.89717e-06
-3.17983e-06
-3.16116e-06
-2.84985e-06
-3.36413e-06
-2.49633e-06
-3.49586e-06
-2.12664e-06
-3.54645e-06
-1.7499e-06
-3.50676e-06
-1.37703e-06
-3.3691e-06
-1.02065e-06
-3.12784e-06
-6.94749e-07
-2.78014e-06
-4.14352e-07
-2.32651e-06
-1.94965e-07
-1.77131e-06
-5.19861e-08
-1.12292e-06
-3.94665e-07
-5.31182e-08
4.46221e-07
-1.96978e-07
1.24715e-06
-4.15336e-07
1.94327e-06
-6.91988e-07
2.52712e-06
-1.0114e-06
2.99597e-06
-1.35918e-06
3.35068e-06
-1.72245e-06
3.59514e-06
-2.09e-06
3.73555e-06
-2.45238e-06
3.77974e-06
-2.80185e-06
3.73652e-06
-3.13225e-06
3.61514e-06
-3.43883e-06
3.42484e-06
-3.71799e-06
3.17455e-06
-3.9671e-06
2.87268e-06
-4.18427e-06
2.52698e-06
-4.36815e-06
2.14455e-06
-4.51771e-06
1.73184e-06
-4.63217e-06
1.29478e-06
-4.7108e-06
8.38876e-07
-4.75292e-06
3.6941e-07
-4.75777e-06
-1.08393e-07
-4.72456e-06
-5.89156e-07
-4.65251e-06
-1.06715e-06
-4.54086e-06
-1.5361e-06
-4.38907e-06
-1.98902e-06
-4.19695e-06
-2.41802e-06
-3.96486e-06
-2.8143e-06
-3.69397e-06
-3.16805e-06
-3.38659e-06
-3.46855e-06
-3.04639e-06
-3.70433e-06
-2.67875e-06
-3.8635e-06
-2.29098e-06
-3.93421e-06
-1.89255e-06
-3.9052e-06
-1.49509e-06
-3.76656e-06
-1.11235e-06
-3.51059e-06
-7.59923e-07
-3.13256e-06
-4.54791e-07
-2.63164e-06
-2.14709e-07
-2.01139e-06
-5.7463e-08
-1.28016e-06
-4.52128e-07
-5.77306e-08
5.03951e-07
-2.13434e-07
1.40286e-06
-4.48712e-07
2.17855e-06
-7.45236e-07
2.82364e-06
-1.08556e-06
3.33629e-06
-1.45371e-06
3.71883e-06
-1.83559e-06
3.97702e-06
-2.2192e-06
4.11916e-06
-2.59467e-06
4.15521e-06
-2.95417e-06
4.09601e-06
-3.29169e-06
3.95266e-06
-3.60285e-06
3.73599e-06
-3.88453e-06
3.45624e-06
-4.13469e-06
3.12283e-06
-4.35199e-06
2.74428e-06
-4.53562e-06
2.32819e-06
-4.68509e-06
1.88131e-06
-4.79999e-06
1.40968e-06
-4.87993e-06
9.18811e-07
-4.92437e-06
4.13855e-07
-4.93264e-06
-1.00131e-07
-4.90383e-06
-6.17959e-07
-4.83692e-06
-1.13406e-06
-4.73078e-06
-1.64225e-06
-4.58433e-06
-2.13547e-06
-4.39671e-06
-2.60564e-06
-4.16756e-06
-3.04346e-06
-3.89724e-06
-3.43836e-06
-3.58727e-06
-3.77852e-06
-3.24061e-06
-4.05099e-06
-2.86212e-06
-4.24199e-06
-2.45888e-06
-4.33744e-06
-2.0405e-06
-4.32358e-06
-1.61923e-06
-4.18783e-06
-1.21e-06
-3.91982e-06
-8.30119e-07
-3.51245e-06
-4.98792e-07
-2.96297e-06
-2.36391e-07
-2.27379e-06
-6.35345e-08
-1.45302e-06
-5.15663e-07
-6.27669e-08
5.66718e-07
-2.31245e-07
1.57133e-06
-4.84481e-07
2.43179e-06
-8.0164e-07
3.1408e-06
-1.16306e-06
3.69771e-06
-1.55097e-06
4.10674e-06
-1.94999e-06
4.37604e-06
-2.34732e-06
4.5165e-06
-2.73277e-06
4.54066e-06
-3.09856e-06
4.4618e-06
-3.43904e-06
4.29314e-06
-3.75036e-06
4.04732e-06
-4.03013e-06
3.73601e-06
-4.27702e-06
3.36972e-06
-4.49045e-06
2.95771e-06
-4.67031e-06
2.50805e-06
-4.8167e-06
2.0277e-06
-4.92975e-06
1.52273e-06
-5.00943e-06
9.98497e-07
-5.05548e-06
4.599e-07
-5.06728e-06
-8.83282e-08
-5.04389e-06
-6.41354e-07
-4.98401e-06
-1.19394e-06
-4.8861e-06
-1.74015e-06
-4.74849e-06
-2.27308e-06
-4.56956e-06
-2.78456e-06
-4.34805e-06
-3.26497e-06
-4.08335e-06
-3.70307e-06
-3.77591e-06
-4.08596e-06
-3.42775e-06
-4.39915e-06
-3.0429e-06
-4.62684e-06
-2.62792e-06
-4.75242e-06
-2.19232e-06
-4.75918e-06
-1.74884e-06
-4.63131e-06
-1.31354e-06
-4.35512e-06
-9.05572e-07
-3.92041e-06
-5.4666e-07
-3.32188e-06
-2.60229e-07
-2.56022e-06
-7.02796e-08
-1.64297e-06
-5.85942e-07
-6.83162e-08
6.35034e-07
-2.50671e-07
1.75369e-06
-5.23037e-07
2.70415e-06
-8.61585e-07
3.47935e-06
-1.24405e-06
4.08017e-06
-1.65065e-06
4.51334e-06
-2.06462e-06
4.79001e-06
-2.47242e-06
4.9243e-06
-2.86367e-06
4.93191e-06
-3.23086e-06
4.82899e-06
-3.56894e-06
4.63122e-06
-3.87487e-06
4.35325e-06
-4.14716e-06
4.00831e-06
-4.38545e-06
3.60801e-06
-4.59009e-06
3.16234e-06
-4.7618e-06
2.67976e-06
-4.90146e-06
2.16736e-06
-5.00979e-06
1.63106e-06
-5.08724e-06
1.07595e-06
-5.13385e-06
5.06511e-07
-5.14916e-06
-7.30208e-08
-5.13217e-06
-6.58346e-07
-5.08135e-06
-1.24475e-06
-4.99473e-06
-1.82677e-06
-4.86999e-06
-2.39783e-06
-4.70465e-06
-2.94989e-06
-4.49642e-06
-3.47321e-06
-4.24347e-06
-3.95602e-06
-3.94498e-06
-4.38445e-06
-3.60166e-06
-4.74247e-06
-3.21637e-06
-5.01213e-06
-2.79479e-06
-5.17401e-06
-2.34599e-06
-5.20798e-06
-1.88295e-06
-5.09435e-06
-1.42275e-06
-4.81531e-06
-9.86499e-07
-4.35666e-06
-5.98744e-07
-3.70964e-06
-2.8649e-07
-2.87248e-06
-7.77975e-08
-1.85166e-06
-6.6374e-07
-7.45044e-08
7.09539e-07
-2.72074e-07
1.95126e-06
-5.64923e-07
2.997e-06
-9.25595e-07
3.84002e-06
-1.32875e-06
4.48333e-06
-1.75233e-06
4.93692e-06
-2.17814e-06
5.21581e-06
-2.592e-06
5.33816e-06
-2.98357e-06
5.32348e-06
-3.34589e-06
5.19131e-06
-3.67482e-06
4.96015e-06
-3.96844e-06
4.64687e-06
-4.22646e-06
4.26632e-06
-4.44969e-06
3.83124e-06
-4.63961e-06
3.35226e-06
-4.79797e-06
2.83813e-06
-4.9265e-06
2.29588e-06
-5.02664e-06
1.73121e-06
-5.09941e-06
1.14871e-06
-5.14521e-06
5.52311e-07
-5.16378e-06
-5.4453e-08
-5.15412e-06
-6.68007e-07
-5.1145e-06
-1.28437e-06
-5.0425e-06
-1.89877e-06
-4.93513e-06
-2.50519e-06
-4.789e-06
-3.09602e-06
-4.60062e-06
-3.66159e-06
-4.36678e-06
-4.18986e-06
-4.08506e-06
-4.66616e-06
-3.75453e-06
-5.073e-06
-3.37644e-06
-5.39022e-06
-2.9551e-06
-5.59535e-06
-2.49872e-06
-5.66436e-06
-2.02012e-06
-5.57295e-06
-1.53723e-06
-5.29821e-06
-1.0731e-06
-4.82079e-06
-6.55463e-07
-4.12728e-06
-3.15511e-07
-3.21243e-06
-8.6218e-08
-2.08095e-06
-7.49958e-07
-8.15111e-08
7.9105e-07
-2.95967e-07
2.16571e-06
-6.10898e-07
3.31193e-06
-9.94386e-07
4.22351e-06
-1.41745e-06
4.9064e-06
-1.85547e-06
5.37493e-06
-2.28879e-06
5.64914e-06
-2.70283e-06
5.7522e-06
-3.08763e-06
5.70828e-06
-3.43716e-06
5.54084e-06
-3.7486e-06
5.27159e-06
-4.02149e-06
4.91976e-06
-4.25707e-06
4.5019e-06
-4.45759e-06
4.03176e-06
-4.62585e-06
3.52052e-06
-4.76476e-06
2.97704e-06
-4.87704e-06
2.40816e-06
-4.96494e-06
1.81911e-06
-5.03009e-06
1.21386e-06
-5.07334e-06
5.95561e-07
-5.09468e-06
-3.31149e-08
-5.09316e-06
-6.69525e-07
-5.06689e-06
-1.31064e-06
-5.01305e-06
-1.95261e-06
-4.92797e-06
-2.59027e-06
-4.80731e-06
-3.21669e-06
-4.64629e-06
-3.82261e-06
-4.44011e-06
-4.39604e-06
-4.18453e-06
-4.92174e-06
-3.87652e-06
-5.38101e-06
-3.51525e-06
-5.75149e-06
-3.10308e-06
-6.00751e-06
-2.64674e-06
-6.1207e-06
-2.15836e-06
-6.06133e-06
-1.65631e-06
-5.80025e-06
-1.16558e-06
-5.31152e-06
-7.17344e-07
-4.57552e-06
-3.47737e-07
-3.58204e-06
-9.57155e-08
-2.33298e-06
-8.45674e-07
-8.95945e-08
8.80644e-07
-3.23073e-07
2.39919e-06
-6.62003e-07
3.65086e-06
-1.06891e-06
4.63042e-06
-1.51047e-06
5.34796e-06
-1.95922e-06
5.82368e-06
-2.39418e-06
6.0841e-06
-2.80069e-06
6.15871e-06
-3.16964e-06
6.07723e-06
-3.49651e-06
5.86771e-06
-3.78027e-06
5.55535e-06
-4.02238e-06
5.16188e-06
-4.22592e-06
4.70544e-06
-4.39486e-06
4.2007e-06
-4.53351e-06
3.65917e-06
-4.64607e-06
3.08959e-06
-4.73631e-06
2.4984e-06
-4.80736e-06
1.89016e-06
-4.86151e-06
1.26802e-06
-4.90012e-06
6.34166e-07
-4.92346e-06
-9.77206e-09
-4.93071e-06
-6.62273e-07
-4.91988e-06
-1.32147e-06
-4.88781e-06
-1.98468e-06
-4.83021e-06
-2.64787e-06
-4.74179e-06
-3.30511e-06
-4.61646e-06
-3.94794e-06
-4.44771e-06
-4.56479e-06
-4.22916e-06
-5.14029e-06
-3.95536e-06
-5.65481e-06
-3.62278e-06
-6.08407e-06
-3.23117e-06
-6.39912e-06
-2.78496e-06
-6.56691e-06
-2.29483e-06
-6.55147e-06
-1.77901e-06
-6.31607e-06
-1.26412e-06
-5.82641e-06
-7.85063e-07
-5.05457e-06
-3.83766e-07
-3.98333e-06
-1.06531e-07
-2.61021e-06
-9.52205e-07
-9.91293e-08
9.79774e-07
-3.54412e-07
2.65448e-06
-7.19662e-07
4.01611e-06
-1.1504e-06
5.06115e-06
-1.60811e-06
5.80567e-06
-2.06229e-06
6.27786e-06
-2.49091e-06
6.51273e-06
-2.87981e-06
6.54761e-06
-3.22147e-06
6.41889e-06
-3.51354e-06
6.15978e-06
-3.7574e-06
5.79922e-06
-3.95694e-06
5.36141e-06
-4.11743e-06
4.86593e-06
-4.24479e-06
4.32807e-06
-4.34499e-06
3.75937e-06
-4.42359e-06
3.16819e-06
-4.48547e-06
2.56028e-06
-4.53463e-06
1.93932e-06
-4.57407e-06
1.30745e-06
-4.60561e-06
6.65712e-07
-4.62991e-06
1.45237e-08
-4.6463e-06
-6.45877e-07
-4.6528e-06
-1.31497e-06
-4.64602e-06
-1.99147e-06
-4.62115e-06
-2.67274e-06
-4.57205e-06
-3.35421e-06
-4.49137e-06
-4.02863e-06
-4.37081e-06
-4.68534e-06
-4.20172e-06
-5.30938e-06
-3.9758e-06
-5.88073e-06
-3.6863e-06
-6.37357e-06
-3.32948e-06
-6.75594e-06
-2.90652e-06
-6.98987e-06
-2.42556e-06
-7.03242e-06
-1.90376e-06
-6.83787e-06
-1.36883e-06
-6.36134e-06
-8.59508e-07
-5.56389e-06
-4.24429e-07
-4.41841e-06
-1.19008e-07
-2.91563e-06
-1.07121e-06
-1.10664e-07
1.09044e-06
-3.91426e-07
2.93524e-06
-7.85786e-07
4.41047e-06
-1.24032e-06
5.51569e-06
-1.7104e-06
6.27575e-06
-2.16245e-06
6.72991e-06
-2.57398e-06
6.92425e-06
-2.93223e-06
6.90587e-06
-3.23227e-06
6.71892e-06
-3.47481e-06
6.40233e-06
-3.66442e-06
5.98882e-06
-3.80786e-06
5.50485e-06
-3.91298e-06
4.97105e-06
-3.98783e-06
4.40292e-06
-4.0401e-06
3.81164e-06
-4.07672e-06
3.2048e-06
-4.10363e-06
2.58719e-06
-4.12566e-06
1.96136e-06
-4.14643e-06
1.32822e-06
-4.16828e-06
6.8756e-07
-4.1922e-06
3.84513e-08
-4.21781e-06
-6.20274e-07
-4.24319e-06
-1.28959e-06
-4.2649e-06
-1.96976e-06
-4.2778e-06
-2.65984e-06
-4.27508e-06
-3.35693e-06
-4.24826e-06
-4.05545e-06
-4.18739e-06
-4.74621e-06
-4.08143e-06
-5.41534e-06
-3.91901e-06
-6.04315e-06
-3.68956e-06
-6.60303e-06
-3.385e-06
-7.0605e-06
-3.00205e-06
-7.37283e-06
-2.54488e-06
-7.48959e-06
-2.02818e-06
-7.35457e-06
-1.47972e-06
-6.90981e-06
-9.41837e-07
-6.10177e-06
-4.7089e-07
-4.88936e-06
-1.33641e-07
-3.25288e-06
-1.20485e-06
-1.25014e-07
1.21545e-06
-4.36151e-07
3.24637e-06
-8.62887e-07
4.83721e-06
-1.34032e-06
5.99313e-06
-1.81676e-06
6.75218e-06
-2.25587e-06
7.16902e-06
-2.6358e-06
7.30418e-06
-2.94663e-06
7.2167e-06
-3.18733e-06
6.95962e-06
-3.36283e-06
6.57782e-06
-3.48161e-06
6.1076e-06
-3.5539e-06
5.57714e-06
-3.59035e-06
5.0075e-06
-3.60122e-06
4.41379e-06
-3.59586e-06
3.80629e-06
-3.58246e-06
3.1914e-06
-3.56788e-06
2.57261e-06
-3.55762e-06
1.9511e-06
-3.55583e-06
1.32643e-06
-3.56527e-06
6.96997e-07
-3.58729e-06
6.04763e-08
-3.6218e-06
-5.85764e-07
-3.66714e-06
-1.24425e-06
-3.71995e-06
-1.91695e-06
-3.77505e-06
-2.60474e-06
-3.82526e-06
-3.30672e-06
-3.86129e-06
-4.01942e-06
-3.87177e-06
-4.73573e-06
-3.84346e-06
-5.44366e-06
-3.76177e-06
-6.12483e-06
-3.61192e-06
-6.75288e-06
-3.38061e-06
-7.2918e-06
-3.05869e-06
-7.69476e-06
-2.64458e-06
-7.9037e-06
-2.14845e-06
-7.8507e-06
-1.59637e-06
-7.46188e-06
-1.03353e-06
-6.66461e-06
-5.24809e-07
-5.39808e-06
-1.5118e-07
-3.62651e-06
-1.35603e-06
-1.43413e-07
1.35887e-06
-4.91469e-07
3.59443e-06
-9.5416e-07
5.2999e-06
-1.45187e-06
6.49083e-06
-1.92508e-06
7.2254e-06
-2.33579e-06
7.57973e-06
-2.66468e-06
7.63306e-06
-2.9067e-06
7.45872e-06
-3.0665e-06
7.11942e-06
-3.15451e-06
6.66583e-06
-3.18398e-06
6.13707e-06
-3.16897e-06
5.56212e-06
-3.12304e-06
4.96157e-06
-3.05855e-06
4.3493e-06
-2.98631e-06
3.73404e-06
-2.91544e-06
3.12054e-06
-2.85347e-06
2.51063e-06
-2.80631e-06
1.90394e-06
-2.77844e-06
1.29856e-06
-2.77291e-06
6.91469e-07
-2.79139e-06
7.89544e-08
-2.83411e-06
-5.43042e-07
-2.89979e-06
-1.17858e-06
-2.98542e-06
-1.83132e-06
-3.08608e-06
-2.50407e-06
-3.19466e-06
-3.19814e-06
-3.30155e-06
-3.91253e-06
-3.39445e-06
-4.64283e-06
-3.45831e-06
-5.3798e-06
-3.47558e-06
-6.10756e-06
-3.42707e-06
-6.80139e-06
-3.29354e-06
-7.42532e-06
-3.05855e-06
-7.92975e-06
-2.71253e-06
-8.24972e-06
-2.25833e-06
-8.3049e-06
-1.71756e-06
-8.00266e-06
-1.13637e-06
-7.2458e-06
-5.88557e-07
-5.94589e-06
-1.72775e-07
-4.04229e-06
-1.52881e-06
-1.67779e-07
1.52664e-06
-5.61453e-07
3.9881e-06
-1.06344e-06
5.80188e-06
-1.57547e-06
7.00287e-06
-2.03027e-06
7.68019e-06
-2.39044e-06
7.9399e-06
-2.64233e-06
7.88496e-06
-2.78864e-06
7.60503e-06
-2.84188e-06
7.17266e-06
-2.81934e-06
6.64329e-06
-2.73972e-06
6.05745e-06
-2.62104e-06
5.44345e-06
-2.4796e-06
4.82013e-06
-2.32946e-06
4.19916e-06
-2.1824e-06
3.58698e-06
-2.04805e-06