/*--------------------------------*- C++ -*----------------------------------*\
  =========                 |
  \\      /  F ield         | OpenFOAM: The Open Source CFD Toolbox
   \\    /   O peration     | Website:  https://openfoam.org
    \\  /    A nd           | Version:  7
     \\/     M anipulation  |
\*---------------------------------------------------------------------------*/
FoamFile
{
    version     2.0;
    format      ascii;
    class       volVectorField;
    location    "0.05";
    object      U;
}
// * * * * * * * * * * * * * * * * * * * * * * * * * * * * * * * * * * * * * //

dimensions      [0 1 -1 0 0 0 0];

internalField   nonuniform List<vector> 
1600
(
(5.11505e-05 -5.70001e-05 0)
(0.000137886 -5.33177e-05 0)
(0.000133499 -4.61505e-06 0)
(-5.41367e-06 4.93678e-05 0)
(-0.00028857 9.90423e-05 0)
(-0.000697768 0.000140501 0)
(-0.00121062 0.000172733 0)
(-0.00180289 0.000195951 0)
(-0.00245023 0.000210741 0)
(-0.00312938 0.000217855 0)
(-0.00381871 0.000218079 0)
(-0.00449826 0.000212092 0)
(-0.00514996 0.000200569 0)
(-0.00575767 0.000184226 0)
(-0.00630714 0.000163726 0)
(-0.00678602 0.000139645 0)
(-0.00718385 0.000112535 0)
(-0.00749204 8.29797e-05 0)
(-0.00770388 5.15918e-05 0)
(-0.00781457 1.89941e-05 0)
(-0.00782132 -1.41844e-05 0)
(-0.00772339 -4.73009e-05 0)
(-0.00752215 -7.96907e-05 0)
(-0.00722114 -0.000110655 0)
(-0.00682619 -0.000139453 0)
(-0.00634546 -0.000165313 0)
(-0.00578953 -0.000187434 0)
(-0.00517138 -0.000205007 0)
(-0.00450641 -0.000217233 0)
(-0.00381229 -0.000223336 0)
(-0.00310882 -0.000222577 0)
(-0.00241772 -0.000214264 0)
(-0.00176228 -0.00019777 0)
(-0.00116688 -0.000172571 0)
(-0.000656322 -0.000138367 0)
(-0.000254575 -9.53956e-05 0)
(1.72502e-05 -4.51793e-05 0)
(0.000145958 7.82477e-06 0)
(0.00014075 5.1773e-05 0)
(5.41586e-05 5.36844e-05 0)
(4.67407e-05 -0.000136646 0)
(5.20215e-05 -5.83635e-05 0)
(-0.000180889 0.000172907 0)
(-0.000721702 0.000436754 0)
(-0.00157969 0.000688223 0)
(-0.00272847 0.000906105 0)
(-0.00412331 0.00108114 0)
(-0.00571063 0.00121048 0)
(-0.00743378 0.00129455 0)
(-0.0092362 0.00133538 0)
(-0.0110632 0.00133588 0)
(-0.0128636 0.0012994 0)
(-0.0145902 0.0012295 0)
(-0.0162007 0.00112988 0)
(-0.0176569 0.00100425 0)
(-0.0189258 0.000856235 0)
(-0.0199796 0.000689502 0)
(-0.0207953 0.00050776 0)
(-0.0213552 0.000314793 0)
(-0.0216466 0.000114458 0)
(-0.0216621 -8.92961e-05 0)
(-0.0214002 -0.000292396 0)
(-0.0208647 -0.000490628 0)
(-0.0200656 -0.000679629 0)
(-0.0190187 -0.000854884 0)
(-0.017746 -0.00101176 0)
(-0.0162757 -0.00114558 0)
(-0.0146421 -0.00125167 0)
(-0.0128856 -0.00132553 0)
(-0.011052 -0.00136293 0)
(-0.00919239 -0.00136006 0)
(-0.0073619 -0.00131371 0)
(-0.00561859 -0.00122155 0)
(-0.00402171 -0.00108256 0)
(-0.00262915 -0.000897758 0)
(-0.00149371 -0.000671777 0)
(-0.000657339 -0.000415816 0)
(-0.000141003 -0.000153195 0)
(7.1222e-05 6.82827e-05 0)
(5.33444e-05 0.000140764 0)
(6.28247e-06 -0.000136135 0)
(-0.000166262 0.000176223 0)
(-0.000742929 0.000748961 0)
(-0.00175922 0.00139207 0)
(-0.0032124 0.0020114 0)
(-0.00506789 0.00255607 0)
(-0.00726648 0.00299978 0)
(-0.00973496 0.00333115 0)
(-0.0123938 0.00354757 0)
(-0.0151621 0.00365172 0)
(-0.0179604 0.00364934 0)
(-0.0207133 0.00354804 0)
(-0.0233506 0.00335653 0)
(-0.0258086 0.00308422 0)
(-0.0280299 0.00274082 0)
(-0.0299648 0.00233622 0)
(-0.0315708 0.00188044 0)
(-0.0328133 0.00138372 0)
(-0.0336652 0.000856437 0)
(-0.0341075 0.000309215 0)
(-0.0341295 -0.000247041 0)
(-0.0337288 -0.000801102 0)
(-0.0329115 -0.00134139 0)
(-0.0316931 -0.00185596 0)
(-0.0300976 -0.0023326 0)
(-0.0281585 -0.00275888 0)
(-0.0259185 -0.00312231 0)
(-0.0234292 -0.00341067 0)
(-0.020751 -0.00361225 0)
(-0.0179524 -0.00371629 0)
(-0.0151086 -0.00371344 0)
(-0.0123005 -0.00359643 0)
(-0.00961222 -0.00336087 0)
(-0.00712848 -0.00300653 0)
(-0.00493055 -0.0025393 0)
(-0.00309104 -0.00197456 0)
(-0.00166615 -0.00134296 0)
(-0.000684568 -0.00069944 0)
(-0.0001408 -0.000140302 0)
(1.21935e-05 0.000150551 0)
(-4.3676e-05 -2.12011e-06 0)
(-0.000424978 0.000714723 0)
(-0.00139046 0.00176615 0)
(-0.00291885 0.00290635 0)
(-0.00498051 0.00399854 0)
(-0.00752759 0.00496131 0)
(-0.0104863 0.00574851 0)
(-0.0137671 0.00633754 0)
(-0.0172726 0.00672089 0)
(-0.0209031 0.00690075 0)
(-0.0245599 0.00688561 0)
(-0.0281485 0.00668802 0)
(-0.0315805 0.00632309 0)
(-0.034775 0.00580753 0)
(-0.0376595 0.00515902 0)
(-0.0401701 0.0043959 0)
(-0.0422528 0.00353695 0)
(-0.0438631 0.00260132 0)
(-0.0449667 0.00160855 0)
(-0.0455393 0.000578665 0)
(-0.0455671 -0.000467816 0)
(-0.0450474 -0.00150976 0)
(-0.0439882 -0.00252542 0)
(-0.0424092 -0.00349248 0)
(-0.0403413 -0.00438815 0)
(-0.0378275 -0.00518941 0)
(-0.034922 -0.0058733 0)
(-0.0316906 -0.00641746 0)
(-0.0282096 -0.00680072 0)
(-0.0245653 -0.00700389 0)
(-0.0208524 -0.00701074 0)
(-0.0171718 -0.00680925 0)
(-0.013628 -0.00639319 0)
(-0.0103256 -0.00576441 0)
(-0.00736442 -0.00493605 0)
(-0.00483376 -0.00393751 0)
(-0.00280429 -0.00282209 0)
(-0.00131762 -0.00167775 0)
(-0.000393211 -0.000645315 0)
(-3.68283e-05 3.32371e-05 0)
(-9.17999e-05 0.000270491 0)
(-0.000685568 0.00158 0)
(-0.00205398 0.00324405 0)
(-0.00410849 0.00498315 0)
(-0.00678352 0.00662863 0)
(-0.0100126 0.00807326 0)
(-0.0137054 0.00925239 0)
(-0.0177561 0.0101319 0)
(-0.0220516 0.0106988 0)
(-0.0264762 0.0109545 0)
(-0.0309154 0.0109102 0)
(-0.0352594 0.0105836 0)
(-0.0394051 0.00999716 0)
(-0.0432578 0.00917601 0)
(-0.0467324 0.00814727 0)
(-0.0497541 0.00693931 0)
(-0.0522593 0.00558137 0)
(-0.0541956 0.00410344 0)
(-0.0555225 0.00253618 0)
(-0.0562115 0.000911012 0)
(-0.0562465 -0.000739816 0)
(-0.0556241 -0.00238316 0)
(-0.0543538 -0.00398497 0)
(-0.0524588 -0.00551036 0)
(-0.0499754 -0.00692384 0)
(-0.0469539 -0.00818965 0)
(-0.043458 -0.00927233 0)
(-0.0395646 -0.0101375 0)
(-0.0353629 -0.0107528 0)
(-0.0309538 -0.0110893 0)
(-0.0264475 -0.0111229 0)
(-0.0219614 -0.0108363 0)
(-0.017617 -0.0102216 0)
(-0.0135358 -0.00928311 0)
(-0.00983456 -0.0080421 0)
(-0.00661935 -0.00654257 0)
(-0.00397759 -0.00485977 0)
(-0.00196927 -0.00311088 0)
(-0.000648077 -0.0014717 0)
(-8.37496e-05 -0.000221425 0)
(-0.000135604 0.000677641 0)
(-0.000935148 0.00277241 0)
(-0.0027041 0.00518843 0)
(-0.00528514 0.00762896 0)
(-0.00857245 0.00990347 0)
(-0.0124767 0.011885 0)
(-0.0168883 0.0134936 0)
(-0.021684 0.0146854 0)
(-0.0267351 0.0154425 0)
(-0.0319112 0.015766 0)
(-0.037084 0.0156703 0)
(-0.0421307 0.0151791 0)
(-0.0469358 0.0143227 0)
(-0.0513934 0.0131358 0)
(-0.0554083 0.0116562 0)
(-0.0588966 0.00992362 0)
(-0.0617869 0.00797912 0)
(-0.0640207 0.00586506 0)
(-0.0655524 0.00362483 0)
(-0.0663499 0.00130287 0)
(-0.066395 -0.00105519 0)
(-0.0656837 -0.00340249 0)
(-0.0642265 -0.00569094 0)
(-0.062049 -0.00787132 0)
(-0.0591918 -0.00989366 0)
(-0.0557108 -0.0117077 0)
(-0.051677 -0.0132638 0)
(-0.0471763 -0.0145138 0)
(-0.0423086 -0.0154129 0)
(-0.0371866 -0.0159209 0)
(-0.0319336 -0.0160048 0)
(-0.0266815 -0.0156414 0)
(-0.021567 -0.0148204 0)
(-0.0167276 -0.0135484 0)
(-0.0122971 -0.0118541 0)
(-0.00839995 -0.00979482 0)
(-0.0051434 -0.00746516 0)
(-0.00261007 -0.00500632 0)
(-0.000892465 -0.00261999 0)
(-0.000126252 -0.000607309 0)
(-0.000175214 0.00121018 0)
(-0.00117113 0.0042824 0)
(-0.00333195 0.00759401 0)
(-0.00643408 0.0108412 0)
(-0.0103302 0.0138201 0)
(-0.0149052 0.0163899 0)
(-0.0200277 0.0184599 0)
(-0.0255554 0.0199789 0)
(-0.0313433 0.0209261 0)
(-0.0372466 0.0213036 0)
(-0.0431241 0.0211298 0)
(-0.048841 0.0204354 0)
(-0.0542714 0.0192599 0)
(-0.0592999 0.0176484 0)
(-0.0638227 0.0156504 0)
(-0.0677487 0.013318 0)
(-0.0710003 0.0107056 0)
(-0.0735138 0.00786894 0)
(-0.0752394 0.0048654 0)
(-0.0761422 0.0017537 0)
(-0.0762019 -0.00140587 0)
(-0.0754138 -0.00455138 0)
(-0.073789 -0.00761935 0)
(-0.0713545 -0.0105448 0)
(-0.0681538 -0.0132619 0)
(-0.0642471 -0.0157044 0)
(-0.0597112 -0.0178068 0)
(-0.0546392 -0.0195059 0)
(-0.0491395 -0.0207427 0)
(-0.043335 -0.0214645 0)
(-0.0373611 -0.0216282 0)
(-0.0313626 -0.0212032 0)
(-0.0254911 -0.0201757 0)
(-0.0199003 -0.0185533 0)
(-0.0147422 -0.0163706 0)
(-0.0101617 -0.0136959 0)
(-0.00628886 -0.0106395 0)
(-0.00323208 -0.00736149 0)
(-0.00112423 -0.00408222 0)
(-0.000164589 -0.00111575 0)
(-0.000211657 0.00186037 0)
(-0.00139575 0.00609924 0)
(-0.0039396 0.0104524 0)
(-0.00755695 0.0146146 0)
(-0.012059 0.0183747 0)
(-0.0173034 0.0215838 0)
(-0.0231346 0.0241445 0)
(-0.02939 0.0260018 0)
(-0.035907 0.0271346 0)
(-0.0425261 0.0275477 0)
(-0.0490932 0.0272656 0)
(-0.0554626 0.0263273 0)
(-0.0614987 0.0247823 0)
(-0.0670779 0.0226878 0)
(-0.0720893 0.0201057 0)
(-0.0764358 0.0171019 0)
(-0.0800347 0.0137448 0)
(-0.082818 0.0101045 0)
(-0.0847327 0.00625348 0)
(-0.0857412 0.00226554 0)
(-0.0858216 -0.00178337 0)
(-0.0849681 -0.00581532 0)
(-0.0831914 -0.00975036 0)
(-0.0805196 -0.0135067 0)
(-0.076998 -0.0170014 0)
(-0.0726896 -0.0201508 0)
(-0.0676756 -0.0228724 0)
(-0.0620546 -0.0250864 0)
(-0.0559425 -0.0267179 0)
(-0.0494713 -0.0277003 0)
(-0.042787 -0.0279783 0)
(-0.0360476 -0.0275124 0)
(-0.0294195 -0.0262835 0)
(-0.0230737 -0.0242981 0)
(-0.0171819 -0.0215942 0)
(-0.0119117 -0.0182483 0)
(-0.00741869 -0.0143826 0)
(-0.00383902 -0.0101717 0)
(-0.00134625 -0.0058498 0)
(-0.000199915 -0.00173957 0)
(-0.000246076 0.00262264 0)
(-0.00161298 0.00821479 0)
(-0.00453408 0.0137572 0)
(-0.00866364 0.0189458 0)
(-0.0137719 0.0235665 0)
(-0.0196879 0.027467 0)
(-0.0262309 0.0305471 0)
(-0.0332161 0.032752 0)
(-0.0404623 0.0340631 0)
(-0.0477946 0.0344906 0)
(-0.055046 0.0340671 0)
(-0.06206 0.0328418 0)
(-0.0686922 0.0308759 0)
(-0.0748115 0.0282396 0)
(-0.080301 0.0250089 0)
(-0.0850587 0.0212641 0)
(-0.0889978 0.0170884 0)
(-0.0920469 0.0125675 0)
(-0.0941502 0.00778898 0)
(-0.095268 0.00284283 0)
(-0.0953764 -0.00217884 0)
(-0.0944684 -0.00718141 0)
(-0.0925542 -0.0120678 0)
(-0.0896616 -0.0167384 0)
(-0.0858366 -0.0210923 0)
(-0.0811442 -0.0250273 0)
(-0.0756683 -0.0284425 0)
(-0.0695121 -0.0312397 0)
(-0.0627976 -0.0333268 0)
(-0.055665 -0.034621 0)
(-0.0482708 -0.0350529 0)
(-0.0407859 -0.0345717 0)
(-0.0333923 -0.0331504 0)
(-0.0262796 -0.0307916 0)
(-0.0196409 -0.0275341 0)
(-0.0136689 -0.0234593 0)
(-0.00854673 -0.018698 0)
(-0.00444016 -0.0134357 0)
(-0.00156337 -0.00791761 0)
(-0.000233558 -0.00247424 0)
(-0.000279556 0.00349394 0)
(-0.00182718 0.0106249 0)
(-0.00512433 0.017506 0)
(-0.0097676 0.0238354 0)
(-0.0154865 0.029399 0)
(-0.022081 0.0340444 0)
(-0.0293432 0.0376731 0)
(-0.0370652 0.0402337 0)
(-0.0450462 0.0417138 0)
(-0.0530949 0.0421321 0)
(-0.0610312 0.0415317 0)
(-0.0686881 0.0399741 0)
(-0.0759127 0.0375344 0)
(-0.0825674 0.0342972 0)
(-0.08853 0.0303536 0)
(-0.0936946 0.0257994 0)
(-0.0979712 0.0207335 0)
(-0.101286 0.0152574 0)
(-0.10358 0.00947487 0)
(-0.104812 0.00349192 0)
(-0.104958 -0.00258269 0)
(-0.104007 -0.00863728 0)
(-0.101969 -0.0145571 0)
(-0.0988706 -0.0202244 0)
(-0.0947578 -0.025519 0)
(-0.0896958 -0.0303196 0)
(-0.0837704 -0.0345051 0)
(-0.077088 -0.0379577 0)
(-0.0697757 -0.0405656 0)
(-0.0619811 -0.0422278 0)
(-0.053871 -0.0428582 0)
(-0.0456292 -0.0423919 0)
(-0.0374543 -0.0407907 0)
(-0.0295558 -0.0380502 0)
(-0.0221505 -0.0342065 0)
(-0.0154579 -0.0293426 0)
(-0.00969103 -0.023595 0)
(-0.00504693 -0.0171577 0)
(-0.00178089 -0.0102857 0)
(-0.000266756 -0.00331821 0)
(-0.00031306 0.0044737 0)
(-0.00204254 0.0133297 0)
(-0.00571952 0.0217015 0)
(-0.0108832 0.0292889 0)
(-0.0172223 0.03588 0)
(-0.0245061 0.0413254 0)
(-0.0324992 0.0455319 0)
(-0.0409687 0.0484554 0)
(-0.0496933 0.0500933 0)
(-0.0584649 0.0504763 0)
(-0.0670899 0.049661 0)
(-0.0753908 0.0477239 0)
(-0.0832068 0.0447557 0)
(-0.0903945 0.0408574 0)
(-0.0968275 0.0361367 0)
(-0.102397 0.0307058 0)
(-0.10701 0.0246799 0)
(-0.110591 0.0181767 0)
(-0.11308 0.0113162 0)
(-0.114434 0.00422072 0)
(-0.114626 -0.00298426 0)
(-0.113645 -0.01017 0)
(-0.111498 -0.0172039 0)
(-0.10821 -0.0239495 0)
(-0.103825 -0.0302671 0)
(-0.0984077 -0.0360149 0)
(-0.0920446 -0.0410508 0)
(-0.0848438 -0.045235 0)
(-0.0769364 -0.0484343 0)
(-0.0684768 -0.0505264 0)
(-0.0596414 -0.0514056 0)
(-0.0506276 -0.0509892 0)
(-0.041651 -0.0492245 0)
(-0.0329425 -0.0460963 0)
(-0.0247443 -0.041634 0)
(-0.0173056 -0.035919 0)
(-0.0108711 -0.0290905 0)
(-0.00567134 -0.0213493 0)
(-0.00200406 -0.0129599 0)
(-0.000300603 -0.00427286 0)
(-0.000347336 0.00556348 0)
(-0.0022628 0.0163339 0)
(-0.00632827 0.0263514 0)
(-0.0120245 0.0353169 0)
(-0.0189978 0.043022 0)
(-0.0269863 0.0493233 0)
(-0.0357249 0.0541362 0)
(-0.044955 0.0574282 0)
(-0.0544336 0.0592104 0)
(-0.0639352 0.0595291 0)
(-0.0732528 0.0584581 0)
(-0.0821986 0.0560916 0)
(-0.0906045 0.0525386 0)
(-0.0983222 0.0479183 0)
(-0.105222 0.0423563 0)
(-0.111193 0.0359821 0)
(-0.116141 0.028928 0)
(-0.11999 0.0213282 0)
(-0.122678 0.0133187 0)
(-0.124161 0.00503816 0)
(-0.124411 -0.00337174 0)
(-0.123413 -0.0117653 0)
(-0.121173 -0.0199922 0)
(-0.117713 -0.0278973 0)
(-0.113074 -0.0353209 0)
(-0.107319 -0.0420998 0)
(-0.100533 -0.0480693 0)
(-0.0928237 -0.0530662 0)
(-0.0843258 -0.0569331 0)
(-0.075199 -0.0595234 0)
(-0.065629 -0.0607082 0)
(-0.0558265 -0.0603831 0)
(-0.0460251 -0.0584765 0)
(-0.0364784 -0.0549577 0)
(-0.027456 -0.0498457 0)
(-0.0192389 -0.0432162 0)
(-0.0121066 -0.0352087 0)
(-0.0063252 -0.0260291 0)
(-0.00223781 -0.015952 0)
(-0.000336071 -0.00534227 0)
(-0.000383018 0.00676669 0)
(-0.00249127 0.0196463 0)
(-0.00695843 0.0314686 0)
(-0.0132041 0.041935 0)
(-0.0208303 0.0508419 0)
(-0.0295418 0.0580546 0)
(-0.0390428 0.0635011 0)
(-0.0490473 0.0671645 0)
(-0.0592899 0.069074 0)
(-0.0695272 0.0692959 0)
(-0.0795387 0.0679247 0)
(-0.089127 0.065076 0)
(-0.0981178 0.0608797 0)
(-0.106359 0.0554753 0)
(-0.113718 0.0490078 0)
(-0.120084 0.0416252 0)
(-0.125363 0.033477 0)
(-0.129478 0.024714 0)
(-0.132368 0.0154881 0)
(-0.133988 0.00595364 0)
(-0.134306 -0.00373206 0)
(-0.133308 -0.013407 0)
(-0.130995 -0.0229036 0)
(-0.127385 -0.0320482 0)
(-0.122515 -0.0406609 0)
(-0.116444 -0.0485566 0)
(-0.109254 -0.0555467 0)
(-0.101052 -0.0614424 0)
(-0.091973 -0.0660594 0)
(-0.0821812 -0.0692238 0)
(-0.0718703 -0.0707788 0)
(-0.0612642 -0.0705939 0)
(-0.0506147 -0.0685733 0)
(-0.0401993 -0.0646664 0)
(-0.0303171 -0.0588762 0)
(-0.0212836 -0.051269 0)
(-0.0134161 -0.0419814 0)
(-0.00701976 -0.0312232 0)
(-0.0024868 -0.0192796 0)
(-0.000374045 -0.00653306 0)
(-0.000420691 0.0080884 0)
(-0.0027309 0.0232793 0)
(-0.007617 0.0370705 0)
(-0.0144334 0.0491632 0)
(-0.0227348 0.0593601 0)
(-0.0321903 0.0675382 0)
(-0.0424711 0.0736422 0)
(-0.0532628 0.0776756 0)
(-0.0642766 0.0796907 0)
(-0.075251 0.0797783 0)
(-0.0859523 0.0780582 0)
(-0.0961746 0.0746709 0)
(-0.105738 0.0697704 0)
(-0.114488 0.0635188 0)
(-0.122293 0.056082 0)
(-0.129042 0.0476274 0)
(-0.134642 0.0383223 0)
(-0.139018 0.0283336 0)
(-0.14211 0.0178287 0)
(-0.143871 0.00697646 0)
(-0.144271 -0.00405087 0)
(-0.14329 -0.0150761 0)
(-0.140927 -0.0259154 0)
(-0.137194 -0.0363772 0)
(-0.132122 -0.0462616 0)
(-0.125766 -0.0553609 0)
(-0.1182 -0.0634616 0)
(-0.10953 -0.0703474 0)
(-0.099888 -0.0758043 0)
(-0.089441 -0.0796268 0)
(-0.0783895 -0.081626 0)
(-0.0669694 -0.0816396 0)
(-0.0554509 -0.0795421 0)
(-0.0441364 -0.0752564 0)
(-0.0333564 -0.0687644 0)
(-0.0234637 -0.0601181 0)
(-0.0148173 -0.0494473 0)
(-0.0077657 -0.0369643 0)
(-0.00275542 -0.0229655 0)
(-0.000415362 -0.00785418 0)
(-0.000460868 0.0095351 0)
(-0.00298431 0.0272486 0)
(-0.00831019 0.0431782 0)
(-0.0157223 0.0570249 0)
(-0.0247239 0.0685993 0)
(-0.0349454 0.0777938 0)
(-0.046023 0.0845743 0)
(-0.0576116 0.0889702 0)
(-0.0693986 0.0910624 0)
(-0.0811043 0.0909719 0)
(-0.0924829 0.0888485 0)
(-0.103321 0.0848619 0)
(-0.113435 0.0791935 0)
(-0.12267 0.0720304 0)
(-0.130896 0.0635614 0)
(-0.138005 0.053974 0)
(-0.143909 0.0434533 0)
(-0.148534 0.032182 0)
(-0.151823 0.0203418 0)
(-0.15373 0.00811512 0)
(-0.154223 -0.00431267 0)
(-0.15328 -0.0167507 0)
(-0.150893 -0.0290001 0)
(-0.147071 -0.0408526 0)
(-0.141836 -0.0520888 0)
(-0.135234 -0.0624786 0)
(-0.127334 -0.0717825 0)
(-0.118231 -0.0797548 0)
(-0.108057 -0.0861486 0)
(-0.0969769 -0.0907228 0)
(-0.0851953 -0.0932512 0)
(-0.0729591 -0.0935334 0)
(-0.0605564 -0.0914072 0)
(-0.0483149 -0.0867622 0)
(-0.0365985 -0.0795523 0)
(-0.0258008 -0.0698091 0)
(-0.0163267 -0.0576515 0)
(-0.00857312 -0.0432919 0)
(-0.00304791 -0.0270379 0)
(-0.000460837 -0.00931685 0)
(-0.000503994 0.0111146 0)
(-0.00325388 0.0315726 0)
(-0.00904363 0.0498164 0)
(-0.0170796 0.0655465 0)
(-0.0268082 0.0785837 0)
(-0.0378177 0.0888403 0)
(-0.0497059 0.096309 0)
(-0.0620958 0.101051 0)
(-0.0746498 0.103184 0)
(-0.0870709 0.102863 0)
(-0.0991017 0.100275 0)
(-0.110523 0.0956227 0)
(-0.121151 0.0891195 0)
(-0.130833 0.0809802 0)
(-0.139443 0.0714177 0)
(-0.146879 0.0606404 0)
(-0.153058 0.0488512 0)
(-0.157911 0.0362477 0)
(-0.161386 0.0230248 0)
(-0.163438 0.00937629 0)
(-0.164034 -0.00450118 0)
(-0.163151 -0.0184052 0)
(-0.160774 -0.032124 0)
(-0.156904 -0.0454341 0)
(-0.151555 -0.0580979 0)
(-0.144761 -0.0698632 0)
(-0.13658 -0.0804642 0)
(-0.1271 -0.0896237 0)
(-0.11644 -0.0970592 0)
(-0.104764 -0.102489 0)
(-0.092278 -0.105645 0)
(-0.0792362 -0.10628 0)
(-0.0659434 -0.104187 0)
(-0.052753 -0.0992158 0)
(-0.0400639 -0.0912824 0)
(-0.0283141 -0.0803911 0)
(-0.0179594 -0.0666444 0)
(-0.00945161 -0.0502511 0)
(-0.00336837 -0.0315296 0)
(-0.00051129 -0.0109345 0)
(-0.000550504 0.0128358 0)
(-0.00354194 0.0362727 0)
(-0.00982268 0.0570128 0)
(-0.0185132 0.0747564 0)
(-0.0289967 0.089338 0)
(-0.0408141 0.100695 0)
(-0.053522 0.108853 0)
(-0.0667092 0.113914 0)
(-0.0800128 0.116038 0)
(-0.0931189 0.115424 0)
(-0.105761 0.112301 0)
(-0.117717 0.106911 0)
(-0.128804 0.0995032 0)
(-0.138876 0.0903222 0)
(-0.147815 0.0796074 0)
(-0.155527 0.0675886 0)
(-0.161939 0.0544858 0)
(-0.166989 0.0405106 0)
(-0.17063 0.0258688 0)
(-0.172821 0.0107636 0)
(-0.17353 -0.0045999 0)
(-0.172729 -0.0200106 0)
(-0.1704 -0.0352465 0)
(-0.166534 -0.0500713 0)
(-0.161132 -0.0642312 0)
(-0.154215 -0.0774529 0)
(-0.145827 -0.089444 0)
(-0.136041 -0.0998949 0)
(-0.124965 -0.108484 0)
(-0.112752 -0.114886 0)
(-0.0996063 -0.11878 0)
(-0.0857867 -0.119869 0)
(-0.0716121 -0.117892 0)
(-0.0574607 -0.112643 0)
(-0.043768 -0.103996 0)
(-0.0310201 -0.0919152 0)
(-0.0197295 -0.0764805 0)
(-0.0104104 -0.0578922 0)
(-0.00372089 -0.0364782 0)
(-0.00056755 -0.0127225 0)
(-0.000600892 0.014709 0)
(-0.00385101 0.0413727 0)
(-0.0106529 0.0647977 0)
(-0.0200309 0.0846845 0)
(-0.0312969 0.100885 0)
(-0.0439389 0.113369 0)
(-0.057468 0.122205 0)
(-0.071437 0.127542 0)
(-0.0854574 0.129593 0)
(-0.0991997 0.128611 0)
(-0.112391 0.124872 0)
(-0.124809 0.118666 0)
(-0.136278 0.110279 0)
(-0.146661 0.0999908 0)
(-0.155853 0.0880688 0)
(-0.163772 0.0747639 0)
(-0.170356 0.0603128 0)
(-0.175557 0.0449391 0)
(-0.179334 0.0288572 0)
(-0.181651 0.0122765 0)
(-0.182478 -0.00459281 0)
(-0.181786 -0.0215343 0)
(-0.179548 -0.0383194 0)
(-0.175745 -0.0547025 0)
(-0.170366 -0.0704158 0)
(-0.163414 -0.0851672 0)
(-0.154914 -0.0986382 0)
(-0.14492 -0.110486 0)
(-0.133521 -0.120348 0)
(-0.120858 -0.127848 0)
(-0.107123 -0.132611 0)
(-0.0925771 -0.134275 0)
(-0.0775484 -0.132515 0)
(-0.0624386 -0.127062 0)
(-0.0477208 -0.117728 0)
(-0.0339325 -0.104432 0)
(-0.0216499 -0.0872172 0)
(-0.0114588 -0.0662704 0)
(-0.00410961 -0.0419257 0)
(-0.000630474 -0.0146987 0)
(-0.00065577 0.0167458 0)
(-0.00418401 0.0468994 0)
(-0.0115406 0.0732041 0)
(-0.0216412 0.0953614 0)
(-0.0337162 0.113247 0)
(-0.047194 0.12687 0)
(-0.0615354 0.136352 0)
(-0.0762552 0.141904 0)
(-0.0909395 0.1438 0)
(-0.105246 0.142357 0)
(-0.118898 0.13791 0)
(-0.131679 0.130798 0)
(-0.143424 0.121355 0)
(-0.154012 0.109896 0)
(-0.163353 0.0967174 0)
(-0.171386 0.0820917 0)
(-0.178063 0.0662707 0)
(-0.183351 0.0494879 0)
(-0.18722 0.0319632 0)
(-0.189642 0.0139084 0)
(-0.190588 -0.00446527 0)
(-0.190029 -0.0229406 0)
(-0.187931 -0.0412868 0)
(-0.184264 -0.0592529 0)
(-0.178999 -0.0765615 0)
(-0.17212 -0.092904 0)
(-0.163629 -0.107938 0)
(-0.153552 -0.121288 0)
(-0.141958 -0.132546 0)
(-0.128961 -0.141284 0)
(-0.114742 -0.147061 0)
(-0.0995503 -0.149445 0)
(-0.0837214 -0.148032 0)
(-0.0676766 -0.142473 0)
(-0.0519261 -0.132508 0)
(-0.0370627 -0.117989 0)
(-0.0237333 -0.0989139 0)
(-0.012606 -0.075445 0)
(-0.00453899 -0.0479185 0)
(-0.000701006 -0.0168829 0)
(-0.000715933 0.0189595 0)
(-0.00454467 0.0528829 0)
(-0.0124936 0.0822678 0)
(-0.0233539 0.106818 0)
(-0.0362625 0.126439 0)
(-0.0505795 0.141193 0)
(-0.0657105 0.151267 0)
(-0.08113 0.156946 0)
(-0.0964 0.158584 0)
(-0.111168 0.156568 0)
(-0.12516 0.151304 0)
(-0.138171 0.143191 0)
(-0.150053 0.132611 0)
(-0.160706 0.119919 0)
(-0.170065 0.105442 0)
(-0.17809 0.0894731 0)
(-0.184757 0.0722774 0)
(-0.190048 0.0540951 0)
(-0.193949 0.0351476 0)
(-0.196442 0.0156452 0)
(-0.197504 -0.00420531 0)
(-0.197103 -0.024191 0)
(-0.195199 -0.0440843 0)
(-0.191749 -0.0636343 0)
(-0.186707 -0.0825588 0)
(-0.180032 -0.100537 0)
(-0.171697 -0.117206 0)
(-0.161699 -0.132157 0)
(-0.150071 -0.144939 0)
(-0.1369 -0.155064 0)
(-0.122338 -0.162022 0)
(-0.106621 -0.165296 0)
(-0.0900804 -0.16439 0)
(-0.0731516 -0.15886 0)
(-0.0563809 -0.148349 0)
(-0.0404192 -0.132628 0)
(-0.025992 -0.11163 0)
(-0.0138622 -0.0854792 0)
(-0.00501405 -0.0545076 0)
(-0.000780254 -0.0192975 0)
(-0.000782446 0.0213655 0)
(-0.00493793 0.0593575 0)
(-0.013522 0.092028 0)
(-0.025182 0.119085 0)
(-0.0389457 0.140474 0)
(-0.054095 0.156323 0)
(-0.0699744 0.166903 0)
(-0.0860166 0.172593 0)
(-0.101762 0.173838 0)
(-0.116853 0.171116 0)
(-0.131025 0.164911 0)
(-0.144092 0.15569 0)
(-0.155932 0.143889 0)
(-0.166475 0.129908 0)
(-0.175684 0.1141 0)
(-0.183549 0.0967818 0)
(-0.190073 0.078227 0)
(-0.195261 0.0586793 0)
(-0.199117 0.0383571 0)
(-0.201635 0.0174632 0)
(-0.2028 -0.00380498 0)
(-0.202579 -0.0252454 0)
(-0.200927 -0.04664 0)
(-0.197788 -0.0677446 0)
(-0.193094 -0.0882779 0)
(-0.186778 -0.107913 0)
(-0.178779 -0.126271 0)
(-0.169056 -0.142913 0)
(-0.157601 -0.157344 0)
(-0.14446 -0.169017 0)
(-0.129748 -0.177341 0)
(-0.113672 -0.181704 0)
(-0.0965502 -0.181503 0)
(-0.0788251 -0.176176 0)
(-0.061074 -0.165248 0)
(-0.0440079 -0.148381 0)
(-0.0284387 -0.125422 0)
(-0.0152388 -0.0964397 0)
(-0.00554075 -0.0617496 0)
(-0.000869592 -0.0219677 0)
(-0.000856789 0.0239824 0)
(-0.0053706 0.0663634 0)
(-0.0146399 0.102529 0)
(-0.0271428 0.132193 0)
(-0.041779 0.155354 0)
(-0.0577397 0.172227 0)
(-0.0743022 0.183189 0)
(-0.0908572 0.188733 0)
(-0.106927 0.189419 0)
(-0.122159 0.185831 0)
(-0.136304 0.178542 0)
(-0.149206 0.168096 0)
(-0.160779 0.154991 0)
(-0.17099 0.139669 0)
(-0.179843 0.122515 0)
(-0.187361 0.10386 0)
(-0.193581 0.0839875 0)
(-0.198534 0.0631378 0)
(-0.202247 0.0415213 0)
(-0.20473 0.0193277 0)
(-0.205975 -0.00326202 0)
(-0.205954 -0.0260633 0)
(-0.204615 -0.0488752 0)
(-0.201888 -0.0714675 0)
(-0.197684 -0.0935681 0)
(-0.191907 -0.114851 0)
(-0.184457 -0.134927 0)
(-0.175247 -0.153333 0)
(-0.164219 -0.169533 0)
(-0.151366 -0.182917 0)
(-0.136753 -0.19281 0)
(-0.120543 -0.198495 0)
(-0.103026 -0.199239 0)
(-0.0846398 -0.194339 0)
(-0.0659849 -0.183175 0)
(-0.0478319 -0.165267 0)
(-0.0310874 -0.140345 0)
(-0.0167498 -0.108397 0)
(-0.00612657 -0.0697068 0)
(-0.000970805 -0.0249223 0)
(-0.000941062 0.0268329 0)
(-0.00585226 0.0739487 0)
(-0.0158665 0.11382 0)
(-0.0292603 0.146171 0)
(-0.0447802 0.171073 0)
(-0.0615126 0.188852 0)
(-0.0786616 0.200021 0)
(-0.0955772 0.205217 0)
(-0.111772 0.205138 0)
(-0.126904 0.20049 0)
(-0.140759 0.191956 0)
(-0.15322 0.180163 0)
(-0.16425 0.165671 0)
(-0.173863 0.148969 0)
(-0.182109 0.130469 0)
(-0.189057 0.110518 0)
(-0.194779 0.0893978 0)
(-0.19934 0.067344 0)
(-0.20279 0.0445518 0)
(-0.205161 0.0211907 0)
(-0.206454 -0.00258159 0)
(-0.206645 -0.0266058 0)
(-0.20568 -0.050706 0)
(-0.203475 -0.0746748 0)
(-0.199919 -0.098258 0)
(-0.194884 -0.12114 0)
(-0.188227 -0.14293 0)
(-0.179811 -0.163149 0)
(-0.169518 -0.181223 0)
(-0.157273 -0.196482 0)
(-0.143074 -0.208164 0)
(-0.127024 -0.215431 0)
(-0.109367 -0.217408 0)
(-0.0905144 -0.21322 0)
(-0.0710808 -0.202065 0)
(-0.0518913 -0.183284 0)
(-0.0339541 -0.156446 0)
(-0.0184122 -0.121424 0)
(-0.00678116 -0.078449 0)
(-0.00108628 -0.0281946 0)
(-0.0010383 0.0299455 0)
(-0.00639653 0.0821728 0)
(-0.0172292 0.125961 0)
(-0.0315674 0.161049 0)
(-0.0479735 0.187609 0)
(-0.0654122 0.206115 0)
(-0.0830093 0.217254 0)
(-0.100079 0.221842 0)
(-0.116135 0.220744 0)
(-0.130864 0.214815 0)
(-0.144099 0.204855 0)
(-0.155781 0.191584 0)
(-0.165933 0.175631 0)
(-0.174629 0.157525 0)
(-0.181975 0.137707 0)
(-0.18809 0.116527 0)
(-0.193089 0.0942676 0)
(-0.197073 0.0711475 0)
(-0.200121 0.0473408 0)
(-0.202285 0.0229902 0)
(-0.203581 -0.00177794 0)
(-0.203991 -0.0268373 0)
(-0.203459 -0.0520457 0)
(-0.201889 -0.077228 0)
(-0.19915 -0.102158 0)
(-0.195081 -0.126542 0)
(-0.189495 -0.149997 0)
(-0.182196 -0.172041 0)
(-0.172998 -0.19207 0)
(-0.161747 -0.209359 0)
(-0.148356 -0.223058 0)
(-0.132844 -0.232202 0)
(-0.115382 -0.23575 0)
(-0.0963363 -0.232628 0)
(-0.0763129 -0.221808 0)
(-0.0561822 -0.2024 0)
(-0.037058 -0.173761 0)
(-0.0202484 -0.135598 0)
(-0.00751749 -0.0880556 0)
(-0.00121925 -0.0318238 0)
(-0.00115298 0.0333576 0)
(-0.0070229 0.0911106 0)
(-0.0187659 0.13902 0)
(-0.0341089 0.176854 0)
(-0.0513899 0.204921 0)
(-0.0694332 0.223894 0)
(-0.0872843 0.234687 0)
(-0.104232 0.23834 0)
(-0.119808 0.235919 0)
(-0.13375 0.228451 0)
(-0.14596 0.216869 0)
(-0.156454 0.201992 0)
(-0.165331 0.184515 0)
(-0.172739 0.165008 0)
(-0.178848 0.143928 0)
(-0.183832 0.121628 0)
(-0.187853 0.0983778 0)
(-0.191051 0.0743741 0)
(-0.193537 0.0497619 0)
(-0.195384 0.0246492 0)
(-0.196625 -0.000875904 0)
(-0.197251 -0.0267284 0)
(-0.197204 -0.0528084 0)
(-0.196383 -0.0789827 0)
(-0.194637 -0.105065 0)
(-0.191773 -0.130793 0)
(-0.187561 -0.155811 0)
(-0.181744 -0.179642 0)
(-0.174057 -0.201669 0)
(-0.164257 -0.221122 0)
(-0.15215 -0.237065 0)
(-0.137648 -0.248404 0)
(-0.120819 -0.253916 0)
(-0.10195 -0.252292 0)
(-0.0816099 -0.242231 0)
(-0.0606949 -0.222546 0)
(-0.0404229 -0.192311 0)
(-0.0222883 -0.150999 0)
(-0.00835338 -0.098618 0)
(-0.00137425 -0.0358573 0)
(-0.00129171 0.0371185 0)
(-0.00775945 0.100859 0)
(-0.0205295 0.153082 0)
(-0.0369446 0.193607 0)
(-0.0550667 0.222937 0)
(-0.073561 0.242016 0)
(-0.0913959 0.25205 0)
(-0.107853 0.254361 0)
(-0.122512 0.250258 0)
(-0.13519 0.240961 0)
(-0.145881 0.227552 0)
(-0.154702 0.210949 0)
(-0.161846 0.191911 0)
(-0.167544 0.171038 0)
(-0.172037 0.148795 0)
(-0.175561 0.125529 0)
(-0.178326 0.101484 0)
(-0.180512 0.0768294 0)
(-0.18226 0.0516716 0)
(-0.183667 0.026077 0)
(-0.184783 8.81244e-05 0)
(-0.18561 -0.0262583 0)
(-0.186094 -0.0529131 0)
(-0.186128 -0.0797943 0)
(-0.185549 -0.106766 0)
(-0.184137 -0.133615 0)
(-0.181619 -0.160023 0)
(-0.177678 -0.18554 0)
(-0.17197 -0.209553 0)
(-0.164147 -0.231263 0)
(-0.153893 -0.249662 0)
(-0.140982 -0.26353 0)
(-0.125344 -0.271446 0)
(-0.107143 -0.27184 0)
(-0.0868676 -0.263077 0)
(-0.0654096 -0.243596 0)
(-0.0440778 -0.212092 0)
(-0.0245723 -0.16771 0)
(-0.00931399 -0.110244 0)
(-0.00155785 -0.0403536 0)
(-0.00146455 0.0412959 0)
(-0.00864689 0.111544 0)
(-0.0225937 0.168249 0)
(-0.0401521 0.21132 0)
(-0.059044 0.241542 0)
(-0.077759 0.26023 0)
(-0.0952033 0.268976 0)
(-0.110685 0.269449 0)
(-0.12387 0.263248 0)
(-0.134693 0.251812 0)
(-0.143278 0.236374 0)
(-0.149865 0.21795 0)
(-0.154757 0.19735 0)
(-0.158278 0.175194 0)
(-0.160747 0.15194 0)
(-0.162461 0.127913 0)
(-0.163678 0.103326 0)
(-0.164614 0.0783052 0)
(-0.165441 0.0529145 0)
(-0.166276 0.0271712 0)
(-0.167188 0.00106636 0)
(-0.16819 -0.0254178 0)
(-0.169236 -0.0522893 0)
(-0.170219 -0.0795261 0)
(-0.17097 -0.107054 0)
(-0.171249 -0.134721 0)
(-0.170749 -0.162266 0)
(-0.1691 -0.189285 0)
(-0.165875 -0.215195 0)
(-0.160618 -0.239194 0)
(-0.152875 -0.260223 0)
(-0.142256 -0.276948 0)
(-0.128506 -0.287751 0)
(-0.111614 -0.290769 0)
(-0.0919309 -0.283977 0)
(-0.0702884 -0.265346 0)
(-0.0480579 -0.233065 0)
(-0.0271562 -0.185817 0)
(-0.0104357 -0.123065 0)
(-0.00177985 -0.0453879 0)
(-0.00168702 0.0459838 0)
(-0.0097449 0.123336 0)
(-0.0250597 0.184644 0)
(-0.0438281 0.229979 0)
(-0.0633541 0.260548 0)
(-0.0819451 0.27818 0)
(-0.0984799 0.284969 0)
(-0.112347 0.283017 0)
(-0.123355 0.274255 0)
(-0.13161 0.26036 0)
(-0.137401 0.242715 0)
(-0.141118 0.222419 0)
(-0.143188 0.200316 0)
(-0.144037 0.177022 0)
(-0.14406 0.152974 0)
(-0.143611 0.128455 0)
(-0.142989 0.103635 0)
(-0.142445 0.0785898 0)
(-0.142169 0.0533313 0)
(-0.142302 0.0278233 0)
(-0.142924 0.00200111 0)
(-0.144063 -0.024211 0)
(-0.145684 -0.0508827 0)
(-0.147689 -0.0780584 0)
(-0.149907 -0.105734 0)
(-0.152094 -0.133833 0)
(-0.153921 -0.162168 0)
(-0.154972 -0.190408 0)
(-0.154754 -0.218027 0)
(-0.1527 -0.244253 0)
(-0.148211 -0.268015 0)
(-0.140704 -0.287891 0)
(-0.129698 -0.302081 0)
(-0.114942 -0.308412 0)
(-0.0965648 -0.304414 0)
(-0.0752598 -0.287479 0)
(-0.0524015 -0.255133 0)
(-0.0301166 -0.205402 0)
(-0.0117722 -0.137243 0)
(-0.00205561 -0.0510593 0)
(-0.00198386 0.0513159 0)
(-0.011142 0.136459 0)
(-0.0280657 0.202407 0)
(-0.0480854 0.249526 0)
(-0.0679989 0.279661 0)
(-0.0859493 0.295357 0)
(-0.100856 0.299365 0)
(-0.112272 0.294309 0)
(-0.12023 0.282496 0)
(-0.125066 0.265844 0)
(-0.127279 0.24587 0)
(-0.12743 0.223727 0)
(-0.126083 0.20026 0)
(-0.12376 0.176059 0)
(-0.120926 0.151509 0)
(-0.117982 0.126838 0)
(-0.115259 0.102157 0)
(-0.113024 0.0774831 0)
(-0.111487 0.0527701 0)
(-0.110795 0.0279254 0)
(-0.111044 0.00282782 0)
(-0.112273 -0.0226573 0)
(-0.114461 -0.0486625 0)
(-0.117526 -0.0753008 0)
(-0.12131 -0.102645 0)
(-0.125577 -0.130703 0)
(-0.129993 -0.159381 0)
(-0.134123 -0.188444 0)
(-0.137419 -0.217457 0)
(-0.139224 -0.245724 0)
(-0.138791 -0.272206 0)
(-0.135332 -0.295447 0)
(-0.128097 -0.3135 0)
(-0.116519 -0.323894 0)
(-0.100405 -0.323668 0)
(-0.0801886 -0.309517 0)
(-0.057142 -0.278105 0)
(-0.0335582 -0.226536 0)
(-0.0134046 -0.152983 0)
(-0.00240988 -0.0575042 0)
(-0.00239589 0.0574876 0)
(-0.0129719 0.151217 0)
(-0.0317966 0.221686 0)
(-0.053038 0.269809 0)
(-0.0729026 0.298408 0)