/*--------------------------------*- C++ -*----------------------------------*\
  =========                 |
  \\      /  F ield         | OpenFOAM: The Open Source CFD Toolbox
   \\    /   O peration     | Website:  https://openfoam.org
    \\  /    A nd           | Version:  7
     \\/     M anipulation  |
\*---------------------------------------------------------------------------*/
FoamFile
{
    version     2.0;
    format      ascii;
    class       surfaceScalarField;
    location    "0.0125";
    object      phi;
}
// * * * * * * * * * * * * * * * * * * * * * * * * * * * * * * * * * * * * * //

dimensions      [0 3 -1 0 0 0 0];

internalField   nonuniform List<scalar> 
50880
(
1.65094e-11
-1.6443e-11
5.32751e-11
-3.67682e-11
3.86972e-11
1.45806e-11
-2.48232e-12
4.11789e-11
-6.89625e-11
6.64811e-11
-1.55818e-10
8.68556e-11
-2.59067e-10
1.03248e-10
-3.7549e-10
1.16422e-10
-5.0235e-10
1.26858e-10
-6.37225e-10
1.34874e-10
-7.78044e-10
1.4082e-10
-9.23112e-10
1.45069e-10
-1.07109e-09
1.47976e-10
-1.22095e-09
1.49862e-10
-1.3719e-09
1.50952e-10
-1.52328e-09
1.51379e-10
-1.67456e-09
1.51282e-10
-1.82537e-09
1.50814e-10
-1.97548e-09
1.50106e-10
-2.12474e-09
1.49256e-10
-2.27304e-09
1.483e-10
-2.42027e-09
1.47233e-10
-2.56634e-09
1.46066e-10
-2.71115e-09
1.44818e-10
-2.85466e-09
1.43504e-10
-2.99679e-09
1.4213e-10
-3.13749e-09
1.40697e-10
-3.27668e-09
1.39199e-10
-3.41431e-09
1.37631e-10
-3.55031e-09
1.35995e-10
-3.68461e-09
1.34304e-10
-3.81718e-09
1.32562e-10
-3.94795e-09
1.3077e-10
-4.07687e-09
1.28923e-10
-4.20389e-09
1.27023e-10
-4.32897e-09
1.25076e-10
-4.45206e-09
1.23094e-10
-4.57314e-09
1.21082e-10
-4.69217e-09
1.1903e-10
-4.8091e-09
1.16929e-10
-4.92388e-09
1.1478e-10
-5.03647e-09
1.12589e-10
-5.14683e-09
1.10361e-10
-5.25493e-09
1.08097e-10
-5.36072e-09
1.05792e-10
-5.46415e-09
1.0343e-10
-5.56515e-09
1.01001e-10
-5.66365e-09
9.85084e-11
-5.75962e-09
9.59627e-11
-5.85298e-09
9.33662e-11
-5.94369e-09
9.07145e-11
-6.0317e-09
8.80029e-11
-6.11693e-09
8.52343e-11
-6.19936e-09
8.24223e-11
-6.27895e-09
7.95866e-11
-6.35569e-09
7.67426e-11
-6.42958e-09
7.38946e-11
-6.50062e-09
7.10379e-11
-6.56878e-09
6.81684e-11
-6.63407e-09
6.52876e-11
-6.69647e-09
6.23988e-11
-6.75597e-09
5.94991e-11
-6.81255e-09
5.65792e-11
-6.86619e-09
5.36319e-11
-6.91684e-09
5.06567e-11
-6.9645e-09
4.76592e-11
-7.00915e-09
4.46442e-11
-7.05076e-09
4.16118e-11
-7.08932e-09
3.85591e-11
-7.1248e-09
3.54843e-11
-7.15719e-09
3.2386e-11
-7.18645e-09
2.92633e-11
-7.21257e-09
2.6115e-11
-7.23551e-09
2.29386e-11
-7.25524e-09
1.97321e-11
-7.27173e-09
1.64945e-11
-7.28496e-09
1.32277e-11
-7.2949e-09
9.93838e-12
-7.30153e-09
6.63466e-12
-7.30486e-09
3.32383e-12
-7.30487e-09
1.16381e-14
-7.30157e-09
-3.29947e-12
-7.29496e-09
-6.60642e-12
-7.28506e-09
-9.90428e-12
-7.27187e-09
-1.31909e-11
-7.2554e-09
-1.64663e-11
-7.23567e-09
-1.97311e-11
-7.21268e-09
-2.29862e-11
-7.18646e-09
-2.62297e-11
-7.157e-09
-2.94555e-11
-7.12434e-09
-3.26581e-11
-7.08851e-09
-3.58316e-11
-7.04954e-09
-3.89726e-11
-7.00746e-09
-4.2084e-11
-6.96228e-09
-4.51734e-11
-6.91404e-09
-4.8248e-11
-6.86272e-09
-5.13128e-11
-6.80835e-09
-5.43718e-11
-6.75092e-09
-5.74268e-11
-6.69045e-09
-6.04789e-11
-6.62692e-09
-6.35301e-11
-6.56034e-09
-6.65799e-11
-6.49071e-09
-6.96231e-11
-6.41806e-09
-7.26526e-11
-6.3424e-09
-7.56612e-11
-6.26376e-09
-7.86405e-11
-6.18218e-09
-8.15843e-11
-6.09768e-09
-8.44917e-11
-6.01032e-09
-8.73627e-11
-5.92013e-09
-9.01942e-11
-5.82714e-09
-9.29845e-11
-5.73141e-09
-9.57353e-11
-5.63297e-09
-9.84444e-11
-5.53186e-09
-1.01104e-10
-5.42815e-09
-1.03708e-10
-5.3219e-09
-1.06255e-10
-5.21315e-09
-1.08747e-10
-5.10197e-09
-1.11179e-10
-4.98842e-09
-1.13552e-10
-4.87255e-09
-1.1587e-10
-4.75442e-09
-1.1814e-10
-4.63406e-09
-1.2036e-10
-4.51153e-09
-1.22531e-10
-4.38687e-09
-1.24658e-10
-4.26012e-09
-1.26744e-10
-4.13134e-09
-1.28789e-10
-4.00055e-09
-1.30787e-10
-3.86781e-09
-1.32735e-10
-3.73318e-09
-1.34633e-10
-3.5967e-09
-1.36476e-10
-3.45845e-09
-1.38257e-10
-3.31847e-09
-1.39974e-10
-3.17685e-09
-1.41628e-10
-3.03363e-09
-1.43215e-10
-2.8889e-09
-1.44734e-10
-2.74271e-09
-1.46183e-10
-2.59515e-09
-1.47564e-10
-2.44628e-09
-1.4887e-10
-2.29619e-09
-1.50087e-10
-2.145e-09
-1.51195e-10
-1.99282e-09
-1.52172e-10
-1.83984e-09
-1.52981e-10
-1.68628e-09
-1.53567e-10
-1.53242e-09
-1.53852e-10
-1.37869e-09
-1.53735e-10
-1.2256e-09
-1.53088e-10
-1.07385e-09
-1.51746e-10
-9.24354e-10
-1.49499e-10
-7.7827e-10
-1.46084e-10
-6.37072e-10
-1.41198e-10
-5.02575e-10
-1.34496e-10
-3.76978e-10
-1.25597e-10
-2.6288e-10
-1.14098e-10
-1.63268e-10
-9.96119e-11
-8.14325e-11
-8.18347e-11
-2.07317e-11
-6.07002e-11
1.5962e-11
-3.66932e-11
2.74456e-11
-1.14825e-11
1.69702e-11
1.04756e-11
1.69716e-11
-1.58313e-11
-6.14375e-13
-3.32446e-11
-1.93537e-11
-9.28183e-11
7.41501e-11
-2.1869e-10
1.67049e-10
-4.02328e-10
2.50118e-10
-6.36625e-10
3.21153e-10
-9.13869e-10
3.80492e-10
-1.22663e-09
4.29187e-10
-1.5681e-09
4.68331e-10
-1.93225e-09
4.99019e-10
-2.31384e-09
5.22409e-10
-2.70844e-09
5.39664e-10
-3.11235e-09
5.51893e-10
-3.52259e-09
5.60095e-10
-3.93674e-09
5.65106e-10
-4.35296e-09
5.67597e-10
-4.76981e-09
5.68127e-10
-5.18617e-09
5.67175e-10
-5.60121e-09
5.65149e-10
-6.01429e-09
5.62343e-10
-6.42493e-09
5.58941e-10
-6.83277e-09
5.55064e-10
-7.23749e-09
5.50793e-10
-7.63886e-09
5.46189e-10
-8.03666e-09
5.413e-10
-8.43068e-09
5.36154e-10
-8.82075e-09
5.30764e-10
-9.20668e-09
5.25137e-10
-9.58833e-09
5.19278e-10
-9.96553e-09
5.13196e-10
-1.03381e-08
5.06902e-10
-1.0706e-08
5.00401e-10
-1.10689e-08
4.93696e-10
-1.14268e-08
4.86795e-10
-1.17794e-08
4.79704e-10
-1.21268e-08
4.72434e-10
-1.24687e-08
4.64996e-10
-1.2805e-08
4.57395e-10
-1.31356e-08
4.49621e-10
-1.34604e-08
4.4167e-10
-1.37791e-08
4.33544e-10
-1.40918e-08
4.2525e-10
-1.43982e-08
4.16785e-10
-1.46982e-08
4.08148e-10
-1.49918e-08
3.99332e-10
-1.52787e-08
3.90323e-10
-1.55588e-08
3.81112e-10
-1.5832e-08
3.717e-10
-1.60981e-08
3.62099e-10
-1.63571e-08
3.52313e-10
-1.66087e-08
3.42343e-10
-1.68529e-08
3.32195e-10
-1.70895e-08
3.21881e-10
-1.73185e-08
3.11423e-10
-1.75398e-08
3.00851e-10
-1.77532e-08
2.90193e-10
-1.79588e-08
2.79465e-10
-1.81564e-08
2.68671e-10
-1.83461e-08
2.57809e-10
-1.85277e-08
2.4688e-10
-1.87012e-08
2.35884e-10
-1.88665e-08
2.24816e-10
-1.90236e-08
2.13667e-10
-1.91724e-08
2.02431e-10
-1.93128e-08
1.91106e-10
-1.94449e-08
1.797e-10
-1.95684e-08
1.68217e-10
-1.96835e-08
1.56661e-10
-1.979e-08
1.4503e-10
-1.98878e-08
1.33322e-10
-1.9977e-08
1.21536e-10
-2.00574e-08
1.0967e-10
-2.0129e-08
9.77197e-11
-2.01917e-08
8.56845e-11
-2.02455e-08
7.35644e-11
-2.02904e-08
6.13635e-11
-2.03263e-08
4.90902e-11
-2.03531e-08
3.67585e-11
-2.03708e-08
2.43855e-11
-2.03795e-08
1.19868e-11
-2.03791e-08
-4.22882e-13
-2.03695e-08
-1.28319e-11
-2.03509e-08
-2.52302e-11
-2.03232e-08
-3.76072e-11
-2.02865e-08
-4.99557e-11
-2.02406e-08
-6.22734e-11
-2.01858e-08
-7.45575e-11
-2.0122e-08
-8.68035e-11
-2.00492e-08
-9.9004e-11
-1.99675e-08
-1.11147e-10
-1.9877e-08
-1.23222e-10
-1.97776e-08
-1.35218e-10
-1.96694e-08
-1.47133e-10
-1.95525e-08
-1.58969e-10
-1.9427e-08
-1.70736e-10
-1.92928e-08
-1.82446e-10
-1.915e-08
-1.94107e-10
-1.89986e-08
-2.05728e-10
-1.88388e-08
-2.1731e-10
-1.86704e-08
-2.28855e-10
-1.84935e-08
-2.40362e-10
-1.83083e-08
-2.51825e-10
-1.81147e-08
-2.63234e-10
-1.79128e-08
-2.74573e-10
-1.77026e-08
-2.85826e-10
-1.74843e-08
-2.96973e-10
-1.72579e-08
-3.08001e-10
-1.70234e-08
-3.18902e-10
-1.67811e-08
-3.2967e-10
-1.6531e-08
-3.40297e-10
-1.62733e-08
-3.50774e-10
-1.60079e-08
-3.61097e-10
-1.57351e-08
-3.71259e-10
-1.54549e-08
-3.81247e-10
-1.51676e-08
-3.9105e-10
-1.48732e-08
-4.00662e-10
-1.45719e-08
-4.1008e-10
-1.42637e-08
-4.19302e-10
-1.3949e-08
-4.28327e-10
-1.36277e-08
-4.37159e-10
-1.33e-08
-4.458e-10
-1.29661e-08
-4.54255e-10
-1.26261e-08
-4.62526e-10
-1.22802e-08
-4.70614e-10
-1.19284e-08
-4.78521e-10
-1.15709e-08
-4.86243e-10
-1.12079e-08
-4.93772e-10
-1.08396e-08
-5.011e-10
-1.0466e-08
-5.08218e-10
-1.00874e-08
-5.15119e-10
-9.70382e-09
-5.21796e-10
-9.31555e-09
-5.28242e-10
-8.92273e-09
-5.34451e-10
-8.52552e-09
-5.40417e-10
-8.12413e-09
-5.46132e-10
-7.71872e-09
-5.51586e-10
-7.30953e-09
-5.56757e-10
-6.89679e-09
-5.6161e-10
-6.48079e-09
-5.66092e-10
-6.06186e-09
-5.70123e-10
-5.64044e-09
-5.73591e-10
-5.21708e-09
-5.7634e-10
-4.7925e-09
-5.78151e-10
-4.36762e-09
-5.78732e-10
-3.94365e-09
-5.77702e-10
-3.52216e-09
-5.74576e-10
-3.10516e-09
-5.68747e-10
-2.69519e-09
-5.59475e-10
-2.29539e-09
-5.45877e-10
-1.90966e-09
-5.26937e-10
-1.54262e-09
-5.01532e-10
-1.19974e-09
-4.68474e-10
-8.87238e-10
-4.26602e-10
-6.11919e-10
-3.7493e-10
-3.80832e-10
-3.12921e-10
-2.00551e-10
-2.40981e-10
-7.58726e-11
-1.6137e-10
-7.67623e-12
-7.96793e-11
1.0562e-11
-7.76047e-12
2.75298e-11
-7.06931e-12
6.45767e-12
-7.99168e-11
5.34937e-11
-2.18513e-10
2.12746e-10
-4.39819e-10
3.88354e-10
-7.41026e-10
5.51324e-10
-1.11429e-09
6.94418e-10
-1.55002e-09
8.16218e-10
-2.03831e-09
9.1747e-10
-2.5697e-09
9.99725e-10
-3.13559e-09
1.06492e-09
-3.72842e-09
1.11523e-09
-4.34166e-09
1.1529e-09
-4.96983e-09
1.18006e-09
-5.60839e-09
1.19866e-09
-6.25366e-09
1.21038e-09
-6.90271e-09
1.21665e-09
-7.55324e-09
1.21866e-09
-8.20346e-09
1.2174e-09
-8.85198e-09
1.21367e-09
-9.49771e-09
1.20808e-09
-1.01398e-08
1.20106e-09
-1.07777e-08
1.19291e-09
-1.14107e-08
1.18385e-09
-1.20386e-08
1.17403e-09
-1.26608e-08
1.16357e-09
-1.32772e-08
1.15254e-09
-1.38874e-08
1.14098e-09
-1.44912e-08
1.12891e-09
-1.50883e-08
1.11636e-09
-1.56784e-08
1.10334e-09
-1.62614e-08
1.08987e-09
-1.6837e-08
1.07595e-09
-1.74049e-08
1.0616e-09
-1.79649e-08
1.04682e-09
-1.85168e-08
1.03162e-09
-1.90604e-08
1.01602e-09
-1.95954e-08
1.00003e-09
-2.01217e-08
9.8366e-10
-2.0639e-08
9.669e-10
-2.1147e-08
9.49752e-10
-2.16457e-08
9.32219e-10
-2.21348e-08
9.14307e-10
-2.2614e-08
8.96016e-10
-2.30832e-08
8.77346e-10
-2.35422e-08
8.58287e-10
-2.39907e-08
8.3883e-10
-2.44285e-08
8.18974e-10
-2.48555e-08
7.98725e-10
-2.52715e-08
7.78095e-10
-2.56763e-08
7.57092e-10
-2.60697e-08
7.35728e-10
-2.64515e-08
7.14019e-10
-2.68216e-08
6.91986e-10
-2.71799e-08
6.69658e-10
-2.75261e-08
6.4707e-10
-2.78601e-08
6.24255e-10
-2.81819e-08
6.01232e-10
-2.84913e-08
5.78014e-10
-2.87881e-08
5.5461e-10
-2.90722e-08
5.31028e-10
-2.93436e-08
5.0727e-10
-2.96021e-08
4.83335e-10
-2.98477e-08
4.59219e-10
-3.00802e-08
4.34921e-10
-3.02995e-08
4.10445e-10
-3.05056e-08
3.85797e-10
-3.06984e-08
3.60985e-10
-3.08777e-08
3.36014e-10
-3.10436e-08
3.10885e-10
-3.11958e-08
2.85598e-10
-3.13345e-08
2.60155e-10
-3.14594e-08
2.34557e-10
-3.15704e-08
2.08806e-10
-3.16677e-08
1.82904e-10
-3.1751e-08
1.56858e-10
-3.18203e-08
1.30679e-10
-3.18756e-08
1.04382e-10
-3.19168e-08
7.79898e-11
-3.19439e-08
5.15262e-11
-3.1957e-08
2.5015e-11
-3.19559e-08
-1.52225e-12
-3.19406e-08
-2.80649e-11
-3.19113e-08
-5.45942e-11
-3.18678e-08
-8.10937e-11
-3.18102e-08
-1.07548e-10
-3.17385e-08
-1.33947e-10
-3.16528e-08
-1.6028e-10
-3.15531e-08
-1.86535e-10
-3.14394e-08
-2.12699e-10
-3.13118e-08
-2.38757e-10
-3.11703e-08
-2.64693e-10
-3.1015e-08
-2.90497e-10
-3.0846e-08
-3.16162e-10
-3.06633e-08
-3.4169e-10
-3.04669e-08
-3.67087e-10
-3.0257e-08
-3.92362e-10
-3.00336e-08
-4.17521e-10
-2.97967e-08
-4.4257e-10
-2.95465e-08
-4.67506e-10
-2.92831e-08
-4.92329e-10
-2.90064e-08
-5.17031e-10
-2.87166e-08
-5.416e-10
-2.84138e-08
-5.66018e-10
-2.80982e-08
-5.90265e-10
-2.77697e-08
-6.14316e-10
-2.74285e-08
-6.38145e-10
-2.70748e-08
-6.61729e-10
-2.67086e-08
-6.85051e-10
-2.63302e-08
-7.08093e-10
-2.59397e-08
-7.30838e-10
-2.55372e-08
-7.53269e-10
-2.51229e-08
-7.75371e-10
-2.4697e-08
-7.97129e-10
-2.42597e-08
-8.18527e-10
-2.38112e-08
-8.3955e-10
-2.33517e-08
-8.60188e-10
-2.28814e-08
-8.80434e-10
-2.24004e-08
-9.00281e-10
-2.1909e-08
-9.19727e-10
-2.14074e-08
-9.38774e-10
-2.08957e-08
-9.5742e-10
-2.03743e-08
-9.75662e-10
-1.98434e-08
-9.93499e-10
-1.9303e-08
-1.01093e-09
-1.87536e-08
-1.02795e-09
-1.81953e-08
-1.04454e-09
-1.76284e-08
-1.0607e-09
-1.70531e-08
-1.07641e-09
-1.64696e-08
-1.09166e-09
-1.58783e-08
-1.10645e-09
-1.52794e-08
-1.12075e-09
-1.46731e-08
-1.13456e-09
-1.40596e-08
-1.14786e-09
-1.34394e-08
-1.16065e-09
-1.28126e-08
-1.1729e-09
-1.21797e-08
-1.18456e-09
-1.15408e-08
-1.19559e-09
-1.08965e-08
-1.2059e-09
-1.02473e-08
-1.21535e-09
-9.59364e-09
-1.22377e-09
-8.93635e-09
-1.23088e-09
-8.27635e-09
-1.23634e-09
-7.61483e-09
-1.23968e-09
-6.9533e-09
-1.24025e-09
-6.29374e-09
-1.23727e-09
-5.63862e-09
-1.2297e-09
-4.99105e-09
-1.21631e-09
-4.35493e-09
-1.1956e-09
-3.735e-09
-1.16581e-09
-3.13697e-09
-1.12497e-09
-2.56757e-09
-1.07094e-09
-2.03451e-09
-1.00153e-09
-1.54642e-09
-9.14699e-10
-1.11247e-09
-8.0888e-10
-7.41883e-10
-6.83502e-10
-4.42993e-10
-5.39871e-10
-2.21764e-10
-3.826e-10
-7.97695e-11
-2.21675e-10
-1.14954e-11
-7.60354e-11
1.60336e-11
-3.02442e-11
3.66986e-11
-1.47633e-10
1.70883e-10
-3.59118e-10
4.2423e-10
-6.71994e-10
7.01231e-10
-1.08278e-09
9.62108e-10
-1.58248e-09
1.19412e-09
-2.15983e-09
1.39357e-09
-2.80305e-09
1.56069e-09
-3.50079e-09
1.69746e-09
-4.24261e-09
1.80674e-09
-5.01917e-09
1.8918e-09
-5.82234e-09
1.95608e-09
-6.64521e-09
2.00292e-09
-7.48199e-09
2.03544e-09
-8.32798e-09
2.05637e-09
-9.17938e-09
2.06806e-09
-1.00332e-08
2.07247e-09
-1.0887e-08
2.07121e-09
-1.17389e-08
2.06558e-09
-1.25874e-08
2.0566e-09
-1.34314e-08
2.04504e-09
-1.427e-08
2.03145e-09
-1.51023e-08
2.01622e-09
-1.59279e-08
1.99964e-09
-1.67463e-08
1.98191e-09
-1.75569e-08
1.96317e-09
-1.83594e-08
1.94351e-09
-1.91535e-08
1.92298e-09
-1.99388e-08
1.90162e-09
-2.07149e-08
1.87947e-09
-2.14816e-08
1.85655e-09
-2.22385e-08
1.83286e-09
-2.29853e-08
1.80843e-09
-2.37218e-08
1.78328e-09
-2.44476e-08
1.7574e-09
-2.51624e-08
1.73082e-09
-2.58659e-08
1.70356e-09
-2.65579e-08
1.67561e-09
-2.72379e-08
1.647e-09
-2.79059e-08
1.61771e-09
-2.85614e-08
1.58776e-09
-2.92043e-08
1.55715e-09
-2.98342e-08
1.52589e-09
-3.04508e-08
1.49397e-09
-3.10539e-08
1.4614e-09
-3.16432e-08
1.42817e-09
-3.22186e-08
1.3943e-09
-3.27796e-08
1.35979e-09
-3.33262e-08
1.32465e-09
-3.3858e-08
1.2889e-09
-3.43748e-08
1.25258e-09
-3.48765e-08
1.21569e-09
-3.53628e-08
1.17827e-09
-3.58335e-08
1.14036e-09
-3.62884e-08
1.10199e-09
-3.67274e-08
1.0632e-09
-3.71502e-08
1.02402e-09
-3.75566e-08
9.84463e-10
-3.79465e-08
9.44555e-10
-3.83198e-08
9.04309e-10
-3.86763e-08
8.63734e-10
-3.90158e-08
8.2284e-10
-3.93382e-08
7.81631e-10
-3.96434e-08
7.40113e-10
-3.99313e-08
6.98295e-10
-4.02016e-08
6.56189e-10
-4.04545e-08
6.13805e-10
-4.06896e-08
5.71153e-10
-4.0907e-08
5.28239e-10
-4.11064e-08
4.85068e-10
-4.12879e-08
4.41645e-10
-4.14513e-08
3.97978e-10
-4.15966e-08
3.54077e-10
-4.17237e-08
3.09953e-10
-4.18324e-08
2.6562e-10
-4.19228e-08
2.21097e-10
-4.19949e-08
1.76407e-10
-4.20485e-08
1.31581e-10
-4.20836e-08
8.66498e-11
-4.21002e-08
4.16452e-11
-4.20983e-08
-3.40261e-12
-4.20779e-08
-4.84648e-11
-4.2039e-08
-9.35129e-11
-4.19816e-08
-1.38522e-10
-4.19057e-08
-1.83469e-10
-4.18113e-08
-2.28331e-10
-4.16985e-08
-2.73088e-10
-4.15673e-08
-3.17722e-10
-4.14178e-08
-3.62212e-10
-4.125e-08
-4.0654e-10
-4.1064e-08
-4.50685e-10
-4.08599e-08
-4.94634e-10
-4.06377e-08
-5.38377e-10
-4.03974e-08
-5.8191e-10
-4.01393e-08
-6.25233e-10
-3.98633e-08
-6.68348e-10
-3.95696e-08
-7.11255e-10
-3.92582e-08
-7.53953e-10
-3.89293e-08
-7.96433e-10
-3.85829e-08
-8.38687e-10
-3.82192e-08
-8.807e-10
-3.78384e-08
-9.22454e-10
-3.74405e-08
-9.63923e-10
-3.70257e-08
-1.00508e-09
-3.65941e-08
-1.04589e-09
-3.61459e-08
-1.08632e-09
-3.56813e-08
-1.12635e-09
-3.52004e-08
-1.16593e-09
-3.47035e-08
-1.20504e-09
-3.41907e-08
-1.24365e-09
-3.36622e-08
-1.28174e-09
-3.31183e-08
-1.31927e-09
-3.25592e-08
-1.35624e-09
-3.19851e-08
-1.3926e-09
-3.13963e-08
-1.42834e-09
-3.07931e-08
-1.46345e-09
-3.01756e-08
-1.49791e-09
-2.95441e-08
-1.53171e-09
-2.8899e-08
-1.56485e-09
-2.82405e-08
-1.59732e-09
-2.75688e-08
-1.62911e-09
-2.68842e-08
-1.66021e-09
-2.61871e-08
-1.69061e-09
-2.54778e-08
-1.72031e-09
-2.47564e-08
-1.74928e-09
-2.40234e-08
-1.77752e-09
-2.32791e-08
-1.805e-09
-2.25238e-08
-1.83171e-09
-2.17579e-08
-1.85763e-09
-2.09816e-08
-1.88275e-09
-2.01953e-08
-1.90705e-09
-1.93993e-08
-1.93052e-09
-1.8594e-08
-1.95312e-09
-1.77799e-08
-1.97483e-09
-1.69572e-08
-1.99559e-09
-1.61264e-08
-2.01534e-09
-1.5288e-08
-2.03396e-09
-1.44427e-08
-2.05128e-09
-1.35909e-08
-2.06708e-09
-1.27337e-08
-2.08101e-09
-1.1872e-08
-2.09262e-09
-1.1007e-08
-2.1013e-09
-1.01404e-08
-2.10624e-09
-9.27432e-09
-2.10637e-09
-8.41122e-09
-2.10036e-09
-7.55438e-09
-2.08654e-09
-6.70781e-09
-2.06288e-09
-5.87643e-09
-2.02698e-09
-5.06618e-09
-1.97606e-09
-4.28411e-09
-1.90704e-09
-3.53841e-09
-1.81664e-09
-2.83834e-09
-1.7016e-09
-2.19408e-09
-1.55896e-09
-1.61634e-09
-1.38661e-09
-1.11579e-09
-1.18405e-09
-7.02105e-10
-9.53556e-10
-3.82758e-10
-7.01951e-10
-1.61496e-10
-4.42931e-10
-3.67341e-11
-2.008e-10
-2.0697e-11
-5.21794e-11
8.88775e-11
-2.21429e-10
3.40131e-10
-5.06083e-10
7.08882e-10
-9.07248e-10
1.10239e-09
-1.41965e-09
1.47451e-09
-2.0334e-09
1.80787e-09
-2.73624e-09
2.09641e-09
-3.51516e-09
2.3396e-09
-4.35744e-09
2.53974e-09
-5.2513e-09
2.70059e-09
-6.18611e-09
2.82662e-09
-7.1526e-09
2.92257e-09
-8.14278e-09
2.9931e-09
-9.14992e-09
3.04257e-09
-1.01684e-08
3.0749e-09
-1.11939e-08
3.09347e-09
-1.22225e-08
3.10114e-09
-1.32516e-08
3.10025e-09
-1.42787e-08
3.09269e-09
-1.5302e-08
3.07995e-09
-1.63201e-08
3.06316e-09
-1.73319e-08
3.0432e-09
-1.83364e-08
3.02068e-09
-1.93328e-08
2.99605e-09
-2.03205e-08
2.96963e-09
-2.12989e-08
2.94163e-09
-2.22677e-08
2.91222e-09
-2.32262e-08
2.88149e-09
-2.41741e-08
2.84951e-09
-2.51109e-08
2.81633e-09
-2.60364e-08
2.78198e-09
-2.695e-08
2.74649e-09
-2.78514e-08
2.70986e-09
-2.87403e-08
2.67214e-09
-2.96162e-08
2.63334e-09
-3.04789e-08
2.59348e-09
-3.13279e-08
2.55257e-09
-3.21629e-08
2.51062e-09
-3.29835e-08
2.46765e-09
-3.37895e-08
2.42367e-09
-3.45804e-08
2.37869e-09
-3.5356e-08
2.33271e-09
-3.61158e-08
2.28575e-09
-3.68597e-08
2.23781e-09
-3.75872e-08
2.18889e-09
-3.8298e-08
2.13902e-09
-3.89919e-08
2.0882e-09
-3.96686e-08
2.03645e-09
-4.03277e-08
1.98379e-09
-4.09691e-08
1.93025e-09
-4.15924e-08
1.87586e-09
-4.21973e-08
1.82066e-09
-4.27837e-08
1.76467e-09
-4.33513e-08
1.70794e-09
-4.38998e-08
1.65052e-09
-4.44291e-08
1.59245e-09
-4.49388e-08
1.53376e-09
-4.54288e-08
1.47448e-09
-4.58989e-08
1.41465e-09
-4.63489e-08
1.35428e-09
-4.67786e-08
1.2934e-09
-4.71877e-08
1.23202e-09
-4.75763e-08
1.17016e-09
-4.7944e-08
1.10784e-09
-4.82908e-08
1.04507e-09
-4.86165e-08
9.81869e-10
-4.89209e-08
9.18256e-10
-4.9204e-08
8.54246e-10
-4.94656e-08
7.8985e-10
-4.97056e-08
7.25083e-10
-4.99239e-08
6.59956e-10
-5.01204e-08
5.94487e-10
-5.02951e-08
5.28692e-10
-5.04477e-08
4.62592e-10
-5.05783e-08
3.96211e-10
-5.06868e-08
3.29577e-10
-5.07731e-08
2.62723e-10
-5.08372e-08
1.95688e-10
-5.08791e-08
1.2851e-10
-5.08986e-08
6.12286e-11
-5.08959e-08
-6.11466e-12
-5.08709e-08
-7.34816e-11
-5.08236e-08
-1.40835e-10
-5.0754e-08
-2.08138e-10
-5.06621e-08
-2.75357e-10
-5.05479e-08
-3.4246e-10
-5.04116e-08
-4.09417e-10
-5.02531e-08
-4.76199e-10
-5.00726e-08
-5.42781e-10
-4.987e-08
-6.09135e-10
-4.96454e-08
-6.75239e-10
-4.9399e-08
-7.41071e-10
-4.91307e-08
-8.06616e-10
-4.88408e-08
-8.71865e-10
-4.85292e-08
-9.36807e-10
-4.81961e-08
-1.00144e-09
-4.78416e-08
-1.06574e-09
-4.74659e-08
-1.12972e-09
-4.7069e-08
-1.19334e-09
-4.66511e-08
-1.2566e-09
-4.62123e-08
-1.31947e-09
-4.57528e-08
-1.38192e-09
-4.52728e-08
-1.44393e-09
-4.47724e-08
-1.50544e-09
-4.42519e-08
-1.56642e-09
-4.37114e-08
-1.62684e-09
-4.31511e-08
-1.68664e-09
-4.25713e-08
-1.74578e-09
-4.19721e-08
-1.80423e-09
-4.13538e-08
-1.86193e-09
-4.07167e-08
-1.91886e-09
-4.0061e-08
-1.97498e-09
-3.9387e-08
-2.03024e-09
-3.86949e-08
-2.08463e-09
-3.79852e-08
-2.13811e-09
-3.72579e-08
-2.19066e-09
-3.65136e-08
-2.24225e-09
-3.57524e-08
-2.29288e-09
-3.49748e-08
-2.34252e-09
-3.4181e-08
-2.39116e-09
-3.33713e-08
-2.43878e-09
-3.25461e-08
-2.48537e-09
-3.17058e-08
-2.53091e-09
-3.08507e-08
-2.57538e-09
-2.99813e-08
-2.61876e-09
-2.90977e-08
-2.66103e-09
-2.82006e-08
-2.70215e-09
-2.72902e-08
-2.74211e-09
-2.63669e-08
-2.78089e-09
-2.54312e-08
-2.81847e-09
-2.44835e-08
-2.85481e-09
-2.35241e-08
-2.88988e-09
-2.25536e-08
-2.92365e-09
-2.15723e-08
-2.95606e-09
-2.05809e-08
-2.98703e-09
-1.95798e-08
-3.01642e-09
-1.85697e-08
-3.04405e-09
-1.75513e-08
-3.06967e-09
-1.65255e-08
-3.0929e-09
-1.54933e-08
-3.11324e-09
-1.44559e-08
-3.12998e-09
-1.3415e-08
-3.14222e-09
-1.23725e-08
-3.14873e-09
-1.13309e-08
-3.14797e-09
-1.02933e-08
-3.13799e-09
-9.26344e-09
-3.11637e-09
-8.2461e-09
-3.08023e-09
-7.24694e-09
-3.02614e-09
-6.27275e-09
-2.95024e-09
-5.33154e-09
-2.84825e-09
-4.43248e-09
-2.71571e-09
-3.58588e-09
-2.5482e-09
-2.80298e-09
-2.34186e-09
-2.09558e-09
-2.09401e-09
-1.4755e-09
-1.80413e-09
-9.53826e-10
-1.47524e-09
-5.40018e-10
-1.11575e-09
-2.41049e-10
-7.419e-10
-6.07279e-11
-3.81121e-10
-8.14227e-11
-7.3088e-11
1.61966e-10
-2.92093e-10
5.59136e-10
-6.46575e-10
1.06336e-09
-1.13092e-09
1.58674e-09
-1.73696e-09
2.08054e-09
-2.45344e-09
2.52435e-09
-3.26727e-09
2.91024e-09
-4.16464e-09
3.23698e-09
-5.13198e-09
3.50709e-09
-6.15658e-09
3.72519e-09
-7.22694e-09
3.89697e-09
-8.3329e-09
4.02853e-09
-9.46572e-09
4.12593e-09
-1.0618e-08
4.19485e-09
-1.17835e-08
4.24043e-09
-1.29572e-08
4.26716e-09
-1.4135e-08
4.27888e-09
-1.53134e-08
4.27873e-09
-1.649e-08
4.26926e-09
-1.76626e-08
4.2525e-09
-1.88294e-08
4.23e-09
-1.99891e-08
4.20294e-09
-2.11407e-08
4.17223e-09
-2.22831e-08
4.1385e-09
-2.34157e-08
4.1022e-09
-2.45378e-08
4.06367e-09
-2.56487e-08
4.02312e-09
-2.67479e-08
3.98071e-09
-2.78349e-08
3.93655e-09
-2.89093e-08
3.89071e-09
-2.99705e-08
3.84324e-09
-3.10182e-08
3.79417e-09
-3.20519e-08
3.74355e-09
-3.30712e-08
3.69139e-09
-3.40756e-08
3.63773e-09
-3.50647e-08
3.58259e-09
-3.60381e-08
3.52599e-09
-3.69954e-08
3.46794e-09
-3.79362e-08
3.40848e-09
-3.88602e-08
3.3476e-09
-3.97668e-08
3.28534e-09
-4.06558e-08
3.2217e-09
-4.15268e-08
3.1567e-09
-4.23793e-08
3.09035e-09
-4.32131e-08
3.02267e-09
-4.40278e-08
2.95369e-09
-4.4823e-08
2.88341e-09
-4.55984e-08
2.81187e-09
-4.63537e-08
2.73911e-09
-4.70886e-08
2.66515e-09
-4.78028e-08
2.59003e-09
-4.84959e-08
2.51381e-09
-4.91678e-08
2.43651e-09
-4.9818e-08
2.3582e-09
-5.04464e-08
2.27893e-09
-5.10527e-08
2.19874e-09
-5.16366e-08
2.11767e-09
-5.21979e-08
2.03577e-09
-5.27364e-08
1.95308e-09
-5.32517e-08
1.86964e-09
-5.37438e-08
1.78546e-09
-5.42124e-08
1.70059e-09
-5.46572e-08
1.61505e-09
-5.50783e-08
1.52886e-09
-5.54753e-08
1.44206e-09
-5.5848e-08
1.35466e-09
-5.61965e-08
1.26669e-09
-5.65204e-08
1.17818e-09
-5.68197e-08
1.08915e-09
-5.70942e-08
9.99615e-10
-5.73439e-08
9.09605e-10
-5.75685e-08
8.19144e-10
-5.77681e-08
7.28259e-10
-5.79425e-08
6.36979e-10
-5.80916e-08
5.45338e-10
-5.82154e-08
4.53375e-10
-5.83138e-08
3.61134e-10
-5.83868e-08
2.68661e-10
-5.84343e-08
1.76006e-10
-5.84563e-08
8.3217e-11
-5.84527e-08
-9.65567e-12
-5.84237e-08
-1.02562e-10
-5.8369e-08
-1.95454e-10
-5.82889e-08
-2.88284e-10
-5.81833e-08
-3.81005e-10
-5.80521e-08
-4.73576e-10
-5.78956e-08
-5.65957e-10
-5.77137e-08
-6.58109e-10
-5.75065e-08
-7.49999e-10
-5.7274e-08
-8.41591e-10
-5.70164e-08
-9.32855e-10
-5.67337e-08
-1.02376e-09
-5.6426e-08
-1.11429e-09
-5.60935e-08
-1.20442e-09
-5.57362e-08
-1.29413e-09
-5.53542e-08
-1.3834e-09
-5.49477e-08
-1.47223e-09
-5.45169e-08
-1.56057e-09
-5.40618e-08
-1.64841e-09
-5.35827e-08
-1.73573e-09
-5.30797e-08
-1.82247e-09
-5.2553e-08
-1.90862e-09
-5.20028e-08
-1.99412e-09
-5.14293e-08
-2.07893e-09
-5.08327e-08
-2.163e-09
-5.02133e-08
-2.24628e-09
-4.95712e-08
-2.3287e-09
-4.89068e-08
-2.41022e-09
-4.82202e-08
-2.49078e-09
-4.75118e-08
-2.57033e-09
-4.67818e-08
-2.64882e-09
-4.60306e-08
-2.7262e-09
-4.52585e-08
-2.80242e-09
-4.44656e-08
-2.87744e-09
-4.36525e-08
-2.95122e-09
-4.28195e-08
-3.02374e-09
-4.19667e-08
-3.09496e-09
-4.10948e-08
-3.16484e-09
-4.02039e-08
-3.23338e-09
-3.92945e-08
-3.30054e-09
-3.8367e-08
-3.3663e-09
-3.74218e-08
-3.43063e-09
-3.64592e-08
-3.4935e-09
-3.54797e-08
-3.55489e-09
-3.44837e-08
-3.61476e-09
-3.34716e-08
-3.67308e-09
-3.24439e-08
-3.72983e-09
-3.14011e-08
-3.78497e-09
-3.03435e-08
-3.83846e-09
-2.92717e-08
-3.89029e-09
-2.81861e-08
-3.9404e-09
-2.70872e-08
-3.98875e-09
-2.59756e-08
-4.03527e-09
-2.48518e-08
-4.07988e-09
-2.37164e-08
-4.12244e-09
-2.257e-08
-4.16277e-09
-2.14135e-08
-4.2006e-09
-2.02476e-08
-4.23556e-09
-1.90734e-08
-4.26711e-09
-1.78921e-08
-4.29455e-09
-1.67051e-08
-4.31692e-09
-1.55144e-08
-4.33295e-09
-1.43221e-08
-4.341e-09
-1.31311e-08
-4.33897e-09
-1.19449e-08
-4.32424e-09
-1.07676e-08
-4.29363e-09
-9.60456e-09
-4.24329e-09
-8.46193e-09
-4.16877e-09
-7.34713e-09
-4.06504e-09
-6.26878e-09
-3.9266e-09
-5.23676e-09
-3.74773e-09
-4.2621e-09
-3.52286e-09
-3.35682e-09
-3.24714e-09
-2.53361e-09
-2.91722e-09
-1.80542e-09
-2.53233e-09
-1.18488e-09
-2.09577e-09
-6.83847e-10
-1.61679e-09
-3.12992e-10
-1.11276e-09
-8.18402e-11
-6.12268e-10
-1.63266e-10
-9.16517e-11
2.53616e-10
-3.55324e-10
8.22807e-10
-7.73207e-10
1.48125e-09
-1.33334e-09
2.14687e-09
-2.02408e-09
2.77128e-09
-2.83234e-09
3.3326e-09
-3.74396e-09
3.82186e-09
-4.74445e-09
4.23747e-09
-5.81963e-09
4.58227e-09
-6.95621e-09
4.86177e-09
-8.14208e-09
5.08284e-09
-9.36652e-09
5.25296e-09
-1.06202e-08
5.37963e-09
-1.18953e-08
5.4699e-09
-1.3185e-08
5.5302e-09
-1.44841e-08
5.56617e-09
-1.57878e-08
5.58261e-09
-1.70926e-08
5.58354e-09
-1.83956e-08
5.57222e-09
-1.96943e-08
5.55125e-09
-2.0987e-08
5.52265e-09
-2.2272e-08
5.48795e-09
-2.35481e-08
5.44833e-09
-2.48142e-08
5.40464e-09
-2.60695e-08
5.3575e-09
-2.73132e-08
5.30735e-09
-2.85446e-08
5.25451e-09
-2.97631e-08
5.19919e-09
-3.0968e-08
5.14153e-09
-3.2159e-08
5.08165e-09
-3.33354e-08
5.01962e-09
-3.44967e-08
4.9555e-09
-3.56425e-08
4.88933e-09
-3.67722e-08
4.82114e-09
-3.78855e-08
4.75097e-09
-3.89817e-08
4.67886e-09
-4.00606e-08
4.60482e-09
-4.11215e-08
4.5289e-09
-4.21642e-08
4.45111e-09
-4.3188e-08
4.37147e-09
-4.41927e-08
4.29001e-09
-4.51778e-08
4.20676e-09
-4.61428e-08
4.12173e-09
-4.70874e-08
4.03495e-09
-4.80112e-08
3.94644e-09
-4.89137e-08
3.85624e-09
-4.97947e-08
3.76438e-09
-5.06537e-08
3.67088e-09
-5.14904e-08
3.57581e-09
-5.23044e-08
3.4792e-09
-5.30955e-08
3.3811e-09
-5.38633e-08
3.28155e-09
-5.46074e-08
3.18063e-09
-5.53276e-08
3.07839e-09
-5.60235e-08
2.97488e-09
-5.66949e-08
2.87016e-09
-5.73415e-08
2.76428e-09
-5.79631e-08
2.65731e-09
-5.85593e-08
2.54928e-09
-5.91299e-08
2.44025e-09
-5.96747e-08
2.33026e-09
-6.01935e-08
2.21935e-09
-6.0686e-08
2.10755e-09
-6.1152e-08
1.9949e-09
-6.15914e-08
1.88145e-09
-6.2004e-08
1.76723e-09
-6.23895e-08
1.65227e-09
-6.2748e-08
1.5366e-09
-6.30791e-08
1.42026e-09
-6.33827e-08
1.30328e-09
-6.36588e-08
1.1857e-09
-6.39072e-08
1.06754e-09
-6.41278e-08
9.48861e-10
-6.43205e-08
8.29688e-10
-6.44853e-08
7.10068e-10
-6.46219e-08
5.90053e-10
-6.47305e-08
4.69697e-10
-6.48109e-08
3.49056e-10
-6.48631e-08
2.28189e-10
-6.4887e-08
1.07156e-10
-6.48827e-08
-1.39826e-11
-6.48501e-08
-1.35165e-10
-6.47892e-08
-2.56332e-10
-6.47001e-08
-3.77424e-10
-6.45827e-08
-4.98383e-10
-6.44371e-08
-6.19154e-10
-6.42634e-08
-7.3969e-10
-6.40615e-08
-8.5994e-10
-6.38317e-08
-9.79861e-10
-6.35739e-08
-1.09941e-09
-6.32882e-08
-1.21854e-09
-6.29747e-08
-1.33722e-09
-6.26336e-08
-1.45542e-09
-6.22649e-08
-1.57311e-09
-6.18688e-08
-1.69025e-09
-6.14453e-08
-1.80682e-09
-6.09948e-08
-1.92279e-09
-6.05172e-08
-2.03812e-09
-6.00129e-08
-2.15278e-09
-5.94819e-08
-2.26672e-09
-5.89244e-08
-2.3799e-09
-5.83408e-08
-2.49228e-09
-5.77311e-08
-2.60379e-09
-5.70957e-08
-2.71439e-09
-5.64347e-08
-2.824e-09
-5.57484e-08
-2.93257e-09
-5.50371e-08
-3.04002e-09
-5.4301e-08
-3.14629e-09
-5.35405e-08
-3.25132e-09
-5.27558e-08
-3.35504e-09
-5.19472e-08
-3.45738e-09
-5.11151e-08
-3.55828e-09
-5.02598e-08
-3.65769e-09
-4.93817e-08
-3.75556e-09
-4.84811e-08
-3.85182e-09
-4.75584e-08
-3.94644e-09
-4.6614e-08
-4.03938e-09
-4.56482e-08
-4.1306e-09
-4.46616e-08
-4.22006e-09
-4.36544e-08
-4.30772e-09
-4.26271e-08
-4.39356e-09
-4.15802e-08
-4.47752e-09
-4.05141e-08
-4.55959e-09
-3.94293e-08
-4.6397e-09
-3.83263e-08
-4.71783e-09
-3.72054e-08
-4.79394e-09
-3.60673e-08
-4.86798e-09
-3.49123e-08
-4.93991e-09
-3.37411e-08
-5.0097e-09
-3.25541e-08
-5.07729e-09
-3.13518e-08
-5.14263e-09
-3.01349e-08
-5.20564e-09
-2.8904e-08
-5.26624e-09
-2.76595e-08
-5.3243e-09
-2.64024e-08
-5.37963e-09
-2.51332e-08
-5.43197e-09
-2.38528e-08
-5.48097e-09
-2.25622e-08
-5.52612e-09
-2.12626e-08
-5.56672e-09
-1.99553e-08
-5.60184e-09
-1.8642e-08
-5.63023e-09
-1.73247e-08
-5.65026e-09
-1.60059e-08
-5.65982e-09
-1.46886e-08
-5.65624e-09
-1.33767e-08
-5.63622e-09
-1.20746e-08
-5.59573e-09
-1.07879e-08
-5.52999e-09
-9.52317e-09
-5.43346e-09
-8.28831e-09
-5.29991e-09
-7.09234e-09
-5.12257e-09
-5.94562e-09
-4.89445e-09
-4.85972e-09
-4.60876e-09
-3.84731e-09
-4.25955e-09
-2.92192e-09
-3.84261e-09
-2.09765e-09
-3.3566e-09
-1.38884e-09
-2.80458e-09
-8.0989e-10
-2.19574e-09
-3.75194e-10
-1.54746e-09
-9.96246e-11
-8.87836e-10
-2.62892e-10
-1.07393e-10
3.61009e-10
-4.09557e-10
1.12497e-09
-8.82905e-10
1.95459e-09
-1.51006e-09
2.77403e-09
-2.27584e-09
3.53706e-09
-3.165e-09
4.22177e-09
-4.16214e-09
4.81899e-09
-5.25197e-09
5.32729e-09
-6.4198e-09
5.7501e-09
-7.65189e-09
6.09386e-09
-8.93577e-09
6.36672e-09
-1.02603e-08
6.57752e-09
-1.16159e-08
6.73519e-09
-1.29942e-08
6.84822e-09
-1.43883e-08
6.92431e-09
-1.57924e-08
6.97029e-09
-1.72018e-08
6.99198e-09
-1.86126e-08
6.99428e-09
-2.00215e-08
6.98118e-09
-2.14261e-08
6.95587e-09
-2.28243e-08
6.92085e-09
-2.42144e-08
6.87806e-09
-2.55951e-08
6.82896e-09
-2.69651e-08
6.77462e-09
-2.83234e-08
6.71585e-09
-2.96693e-08
6.65321e-09
-3.10019e-08
6.58712e-09
-3.23205e-08
6.51785e-09
-3.36246e-08
6.44561e-09
-3.49135e-08
6.37054e-09
-3.61866e-08
6.29275e-09
-3.74435e-08
6.21231e-09
-3.86834e-08
6.12929e-09
-3.9906e-08
6.04372e-09
-4.11107e-08
5.95567e-09
-4.2297e-08
5.86515e-09
-4.34644e-08
5.77222e-09
-4.46124e-08
5.67691e-09
-4.57405e-08
5.57924e-09
-4.68483e-08
5.47927e-09
-4.79353e-08
5.377e-09
-4.9001e-08
5.27248e-09
-5.00451e-08
5.16574e-09
-5.10669e-08
5.05682e-09
-5.20662e-08
4.94574e-09