/*--------------------------------*- C++ -*----------------------------------*\
  =========                 |
  \\      /  F ield         | OpenFOAM: The Open Source CFD Toolbox
   \\    /   O peration     | Website:  https://openfoam.org
    \\  /    A nd           | Version:  7
     \\/     M anipulation  |
\*---------------------------------------------------------------------------*/
FoamFile
{
    version     2.0;
    format      ascii;
    class       volScalarField;
    location    "0.1";
    object      p;
}
// * * * * * * * * * * * * * * * * * * * * * * * * * * * * * * * * * * * * * //

dimensions      [0 2 -2 0 0 0 0];

internalField   nonuniform List<scalar> 
1600
(
-1.1506e-07
-0.00117528
-0.00386762
-0.00748573
-0.0113672
-0.0150237
-0.0181024
-0.020354
-0.0216136
-0.0217828
-0.0208167
-0.0187131
-0.0155054
-0.0112559
-0.00605085
3.02267e-06
0.00678205
0.0141484
0.0219521
0.0300343
0.0382288
0.0463651
0.054271
0.0617756
0.068713
0.0749266
0.0802732
0.0846278
0.0878896
0.0899876
0.0908869
0.0905953
0.0891716
0.086735
0.083476
0.0796701
0.075693
0.0720475
0.0693941
0.0682896
0.00117303
8.23132e-07
-0.00218223
-0.0049882
-0.00798003
-0.0107974
-0.0131593
-0.0148555
-0.0157376
-0.0157108
-0.0147261
-0.0127721
-0.0098694
-0.00606576
-0.00143165
0.00394315
0.00995235
0.0164763
0.0233838
0.030535
0.0377838
0.04498
0.0519722
0.0586107
0.0647514
0.0702588
0.0750107
0.0789022
0.0818512
0.0838027
0.0847347
0.0846635
0.0836495
0.0818038
0.0792949
0.0763538
0.0732792
0.0704427
0.0682866
0.0671876
0.00388088
0.00218016
-3.22167e-05
-0.00255047
-0.00513469
-0.00751824
-0.00948045
-0.0108516
-0.0115074
-0.0113654
-0.01038
-0.00853841
-0.00585592
-0.00237196
0.00185308
0.00674092
0.0121978
0.0181173
0.0243822
0.0308671
0.0374405
0.0439672
0.050311
0.0563375
0.0619173
0.0669298
0.0712664
0.0748349
0.077564
0.0794076
0.0803489
0.0804049
0.0796306
0.0781235
0.0760259
0.0735264
0.0708626
0.0683129
0.0661329
0.0645322
0.00759472
0.00502167
0.00241967
-0.000168287
-0.00268093
-0.00492058
-0.00671501
-0.00793398
-0.00848007
-0.00828746
-0.00731983
-0.00556806
-0.00304699
0.000207415
0.00414056
0.00868157
0.0137455
0.0192356
0.025045
0.0310587
0.0371563
0.0432135
0.049105
0.0547069
0.0599002
0.0645733
0.0686261
0.0719735
0.0745497
0.0763114
0.0772415
0.0773526
0.07669
0.0753343
0.0734011
0.0710405
0.0684429
0.0658208
0.0632607
0.0608185
0.0117273
0.0081382
0.00497486
0.00213713
-0.00047826
-0.00272882
-0.00448303
-0.00564735
-0.00615132
-0.00594712
-0.00501022
-0.00333778
-0.000946821
0.00212757
0.00583415
0.0101072
0.0148683
0.0200284
0.0254887
0.0311428
0.036879
0.0425815
0.0481336
0.0534193
0.0583266
0.0627506
0.0665963
0.0697825
0.0722452
0.0739408
0.0748488
0.0749746
0.0743519
0.0730435
0.0711392
0.0687545
0.0660412
0.063161
0.0600443
0.0566122
0.0158581
0.0112098
0.00739288
0.00418854
0.00134946
-0.00102426
-0.00283423
-0.00401877
-0.00453263
-0.00434606
-0.00344705
-0.0018406
0.000452198
0.00339515
0.00693835
0.0110194
0.0155644
0.0204899
0.0257034
0.031105
0.0365894
0.0420475
0.0473685
0.0524419
0.0571605
0.0614228
0.0651365
0.0682213
0.0706121
0.0722624
0.0731459
0.0732594
0.0726235
0.0712838
0.0693066
0.066778
0.0638203
0.0605578
0.0567854
0.0523132
0.0196826
0.013979
0.00946175
0.0058151
0.00266813
9.01735e-05
-0.00184621
-0.00310665
-0.00366814
-0.00351807
-0.00265689
-0.00109831
0.00113123
0.00399301
0.00743684
0.0114018
0.0158171
0.0206028
0.0256707
0.0309256
0.0362668
0.0415897
0.0467871
0.0517518
0.0563789
0.0605681
0.064227
0.0672734
0.0696392
0.0712724
0.0721392
0.0722262
0.0715412
0.0701131
0.067988
0.0652277
0.0619337
0.0582049
0.0537212
0.0482036
0.0229716
0.0162352
0.0109989
0.00686625
0.00335884
0.000524018
-0.00158491
-0.00295672
-0.00358796
-0.00348158
-0.00265004
-0.00111603
0.00108788
0.00391943
0.00732703
0.0112499
0.0156186
0.0203552
0.0253744
0.0305839
0.0358859
0.0411781
0.0463556
0.0513122
0.055943
0.0601469
0.0638289
0.0669032
0.0692961
0.0709484
0.0718175
0.0718788
0.0711271
0.0695761
0.0672543
0.0642044
0.0605135
0.0562652
0.0510409
0.0444884
0.0255459
0.0178016
0.011842
0.00720027
0.0033025
0.000180234
-0.00212771
-0.00362926
-0.00433813
-0.00427135
-0.00345288
-0.00191433
0.000305358
0.00315969
0.00659469
0.0105486
0.0149521
0.0197281
0.0247927
0.030055
0.0354188
0.0407826
0.0460418
0.0510895
0.0558192
0.0601268
0.063913
0.0670862
0.0695655
0.0712827
0.0721848
0.0722355
0.0714166
0.0697279
0.0671824
0.0638078
0.0596821
0.0548808
0.0488985
0.0413207
0.0272574
0.0185245
0.0118429
0.00668162
0.00237862
-0.00104566
-0.00356341
-0.0051988
-0.00598074
-0.00593914
-0.00510886
-0.00353018
-0.00124862
0.00168465
0.00521252
0.0092714
0.0137909
0.0186941
0.0238971
0.0293095
0.0348351
0.0403723
0.0458149
0.0510541
0.05598
0.0604839
0.0644604
0.0678104
0.0704437
0.0722819
0.0732602
0.0733297
0.0724591
0.0706348
0.0678565
0.064139
0.059556
0.0541795
0.047425
0.038822
0.0279749
0.018264
0.0108622
0.00517802
0.000465475
-0.00326334
-0.0059891
-0.00775036
-0.00858974
-0.00854925
-0.00767407
-0.00601294
-0.0036181
-0.00054585
0.00314301
0.00738237
0.0121003
0.0172188
0.0226534
0.0283134
0.0341014
0.0399143
0.0456437
0.0511773
0.0564005
0.0611984
0.065458
0.0690708
0.0719359
0.0739626
0.0750733
0.0752053
0.0743137
0.0723716
0.0693661
0.0653013
0.060249
0.0542817
0.0467389
0.0370973
0.0275734
0.0168855
0.00876383
0.00255735
-0.00256172
-0.00658813
-0.00950973
-0.0113783
-0.0122496
-0.0121769
-0.0112155
-0.00942258
-0.00685741
-0.00358168
0.000339649
0.00483749
0.00983781
0.0152611
0.0210218
0.0270278
0.0331801
0.0393733
0.0454957
0.0514305
0.0570573
0.0622536
0.0668972
0.0708685
0.0740542
0.0763497
0.0776627
0.0779157
0.0770488
0.0750214
0.0718079
0.0674027
0.0618771
0.0553068
0.0469556
0.0362468
0.0259276
0.0142542
0.00540995
-0.0013157
-0.00683278
-0.0111422
-0.0142385
-0.0161865
-0.0170544
-0.0169071
-0.0158098
-0.0138287
-0.01103
-0.00748133
-0.00325206
0.00158543
0.00695469
0.0127744
0.0189574
0.0254097
0.0320305
0.0387113
0.0453367
0.0517845
0.0579275
0.0636344
0.0687722
0.0732089
0.0768166
0.0794754
0.081076
0.0815241
0.0807433
0.0786778
0.0752885
0.07056
0.0645642
0.0573807
0.048195
0.0363758
0.0229064
0.0102297
0.000657209
-0.0065829
-0.0124849
-0.017056
-0.0202976
-0.0222877
-0.0231075
-0.0228339
-0.0215426
-0.0193089
-0.016207
-0.0123103
-0.00769305
-0.00243099
0.00339679
0.00970698
0.0164106
0.0234121
0.0306082
0.0378876
0.0451304
0.0522088
0.0589877
0.0653263
0.0710793
0.0761007
0.0802465
0.0833785
0.0853687
0.0861031
0.0854866
0.0834458
0.0799268
0.0749029
0.0684463
0.0606408
0.0505888
0.0376013
0.0183684
0.00466264
-0.00564708
-0.0133957
-0.0196653
-0.0244701
-0.027819
-0.0298041
-0.0305211
-0.0300594
-0.0285066
-0.0259479
-0.0224655
-0.0181395
-0.0130488
-0.007273
-0.000893707
0.00600386
0.0133293
0.0209853
0.0288667
0.0368591
0.0448387
0.0526713
0.060214
0.067315
0.0738162
0.0795556
0.084371
0.0881039
0.0906041
0.0917353
0.09138
0.0894443
0.0858566
0.0805768
0.0736762
0.0652419
0.0542864
0.0400586
0.0121593
-0.0026099
-0.0136688
-0.0219186
-0.0285336
-0.0335365
-0.036945
-0.0388674
-0.0394154
-0.0386929
-0.0368006
-0.0338346
-0.0298861
-0.0250421
-0.0193868
-0.0130034
-0.00597592
0.00160894
0.00965969
0.0180782
0.0267577
0.0355816
0.0444219
0.0531389
0.061581
0.0695857
0.0769807
0.0835866
0.0892208
0.0937015
0.0968533
0.0985132
0.0985374
0.0968076
0.09323
0.0877475
0.0804283
0.0713615
0.0594606
0.0439074
0.00410722
-0.0117678
-0.0235909
-0.0323323
-0.0392645
-0.0444207
-0.0478297
-0.0496189
-0.0499184
-0.0488494
-0.0465272
-0.0430604
-0.0385502
-0.0330914
-0.0267737
-0.0196837
-0.0119074
-0.00353233
0.00534981
0.0146409
0.0242338
0.0340105
0.04384
0.0535772
0.0630629
0.0721231
0.0805709
0.0882081
0.0948294
0.100227
0.104195
0.10654
0.107088
0.105688
0.10222
0.0966053
0.0889045
0.0792064
0.0663148
0.0493379
-0.00597957
-0.0230124
-0.0356175
-0.0448376
-0.052051
-0.057304
-0.0606402
-0.0622097
-0.0621652
-0.0606478
-0.0577902
-0.0537155
-0.0485367
-0.0423568
-0.0352713
-0.02737
-0.0187402
-0.00946934
0.000352138
0.0106275
0.0212507
0.0321037
0.0430541
0.0539529
0.0646336
0.0749118
0.0845851
0.0934356
0.101233
0.10774
0.112717
0.115933
0.117176
0.11626
0.113027
0.107371
0.0993404
0.0890198
0.0750897
0.0565779
-0.0183171
-0.036571
-0.0499788
-0.0596598
-0.0671076
-0.0723859
-0.0755576
-0.076801
-0.0762961
-0.0742082
-0.0706913
-0.0658857
-0.0599174
-0.0528991
-0.0449319
-0.0361085
-0.0265166
-0.0162418
-0.0053719
0.00599971
0.0177703
0.0298241
0.0420291
0.0542346
0.0662685
0.0779366
0.0890218
0.0992855
0.10847
0.116305
0.122513
0.12682
0.128967
0.12872
0.125881
0.120301
0.112012
0.101089
0.0860716
0.0658999
-0.0331507
-0.052703
-0.0669371
-0.0770541
-0.0846751
-0.0898867
-0.092778
-0.0935625
-0.0924542
-0.0896488
-0.0853259
-0.0796464
-0.0727516
-0.0647644
-0.055792
-0.0459292
-0.0352623
-0.023874
-0.0118466
0.000732162
0.0137657
0.0271434
0.0407368
0.0543958
0.0679457
0.0811841
0.0938801
0.105774
0.116581
0.125993
0.133689
0.139344
0.142643
0.143296
0.141045
0.135695
0.127246
0.115754
0.0996021
0.0776304
-0.0507619
-0.0717086
-0.0867961
-0.0973138
-0.105026
-0.110051
-0.112513
-0.112671
-0.110783
-0.107081
-0.101777
-0.0950565
-0.0870783
-0.0779768
-0.0678647
-0.056838
-0.0449802
-0.0323679
-0.0190758
-0.00518202
0.00922605
0.0240469
0.0391594
0.054418
0.0696484
0.0846433
0.0991603
0.11292
0.125607
0.136876
0.146355
0.15366
0.158409
0.160242
0.158828
0.153903
0.145426
0.133422
0.11609
0.0921617
-0.0714777
-0.09394
-0.109912
-0.120779
-0.128472
-0.133152
-0.134993
-0.134311
-0.131421
-0.126604
-0.120108
-0.11215
-0.102908
-0.092529
-0.0811309
-0.0688089
-0.0556413
-0.0416956
-0.0270349
-0.0117242
0.0041631
0.0205391
0.0372948
0.0542941
0.0713678
0.0883083
0.104865
0.12074
0.135591
0.149029
0.160629
0.169938
0.176496
0.179851
0.179583
0.175337
0.16701
0.15458
0.136028
0.109966
-0.0956851
-0.119818
-0.136708
-0.14785
-0.155371
-0.159494
-0.160461
-0.158666
-0.154497
-0.148293
-0.140353
-0.130925
-0.120211
-0.108372
-0.0955288
-0.0817736
-0.0671759
-0.0517902
-0.0356636
-0.018843
-0.00138249
0.0166492
0.0351612
0.0540327
0.0731061
0.0921789
0.110998
0.129252
0.146572
0.162527
0.176633
0.188361
0.197153
0.202453
0.203719
0.20048
0.192543
0.179813
0.160013
0.131614
-0.12385
-0.149854
-0.167698
-0.179004
-0.18614
-0.189419
-0.189178
-0.185919
-0.180118
-0.172194
-0.162502
-0.15133
-0.138907
-0.125403
-0.110943
-0.0956109
-0.0794636
-0.0625373
-0.0448575
-0.0264471
-0.00733471
0.0124367
0.0328013
0.0536614
0.0748782
0.0962628
0.117566
0.138471
0.158587
0.177442
0.19449
0.209117
0.220656
0.228416
0.231708
0.229904
0.222681
0.209836
0.188774
0.157802
-0.156548
-0.184686
-0.203516
-0.214818
-0.221268
-0.223311
-0.22142
-0.216237
-0.208361
-0.198303
-0.186488
-0.173251
-0.158845
-0.143452
-0.127191
-0.110136
-0.092324
-0.0737666
-0.0544609
-0.0343989
-0.0135767
0.00799604
0.0302867
0.0532293
0.0767138
0.100574
0.124577
0.148407
0.171661
0.193832
0.214314
0.232399
0.247295
0.258153
0.264092
0.264281
0.258214
0.245521
0.223211
0.189387
-0.194507
-0.225122
-0.244959
-0.256
-0.261332
-0.261599
-0.257465
-0.249763
-0.239248
-0.226548
-0.212167
-0.19649
-0.179794
-0.162264
-0.144012
-0.125091
-0.105508
-0.0852448
-0.064261
-0.0425101
-0.0199476
0.00345886
0.0277187
0.0528078
0.0786557
0.105132
0.132031
0.159056
0.185801
0.211737
0.2362
0.258388
0.277372
0.292112
0.301491
0.30441
0.300102
0.287953
0.264449
0.227437
-0.238673
-0.272221
-0.29305
-0.303431
-0.307019
-0.304757
-0.297585
-0.28659
-0.272727
-0.256762
-0.23929
-0.220744
-0.201418
-0.181492
-0.161057
-0.140133
-0.118693
-0.0966719
-0.0739861
-0.0505407
-0.0262419
-0.00100647
0.0252271
0.0524875
0.0807569
0.109955
0.139921
0.170392
0.200982
0.231153
0.260202
0.287236
0.311177
0.330768
0.344603
0.351229
0.34952
0.338488
0.31392
0.273307
-0.290318
-0.327393
-0.349123
-0.358213
-0.359139
-0.353298
-0.342018
-0.326728
-0.308628
-0.288649
-0.267475
-0.245579
-0.223259
-0.200673
-0.177874
-0.154836
-0.131478
-0.107682
-0.0833075
-0.0582027
-0.0322148
-0.00520068
0.0229637
0.0523715
0.0830713
0.11505
0.148211
0.182351
0.217125
0.252019
0.286309
0.319032
0.348961
0.374602
0.394199
0.405844
0.40791
0.398854
0.373477
0.328753
-0.351199
-0.392573
-0.41495
-0.42174
-0.418644
-0.407745
-0.390924
-0.37005
-0.34662
-0.321738
-0.296169
-0.270406
-0.244722
-0.219226
-0.193911
-0.168683
-0.143391
-0.11785
-0.0918495
-0.0651708
-0.0375938
-0.00890572
0.0210896
0.0525616
0.08564
0.120397
0.156824
0.194804
0.234072
0.27417
0.314398
0.353755
0.390888
0.424055
0.451098
0.469535
0.477049
0.471273
0.445575
0.396107
-0.423841
-0.470479
-0.492915
-0.495768
-0.486619
-0.468586
-0.444311
-0.416214
-0.386131
-0.355325
-0.32461
-0.294451
-0.265054
-0.236444
-0.208516
-0.181083
-0.153904
-0.126709
-0.0992066
-0.0711018
-0.0420978
-0.0119046
0.0197551
0.0531381
0.0884692
0.125925
0.165611
0.207531
0.25154
0.297295
0.344174
0.391202
0.43695
0.479454
0.516115
0.543753
0.559125
0.558648
0.533543
0.478582
-0.512008
-0.565026
-0.586254
-0.582483
-0.564235
-0.536159
-0.501906
-0.464551
-0.426261
-0.388408
-0.351776
-0.316731
-0.283344
-0.251498
-0.220949
-0.191385
-0.162451
-0.133774
-0.104971
-0.0756614
-0.045465
-0.0140087
0.0190728
0.0541321
0.091502
0.131482
0.174319
0.220174
0.269079
0.320866
0.375085
0.430879
0.486847
0.540876
0.589944
0.630067
0.656803
0.664805
0.642019
0.580778
-0.621568
-0.681982
-0.699368
-0.684538
-0.65262
-0.610461
-0.562962
-0.513889
-0.465654
-0.4196
-0.376347
-0.33604
-0.298521
-0.263456
-0.230413
-0.198914
-0.168468
-0.138581
-0.10877
-0.0785604
-0.0474875
-0.0150913
0.0190843
0.0554933
0.0945857
0.1368
0.18255
0.232195
0.285999
0.344061
0.40621
0.471857
0.539796
0.607935
0.672946
0.730017
0.773247
0.794815
0.777637
0.709609
-0.762135
-0.830022
-0.838192
-0.80496
-0.752563
-0.690803
-0.625958
-0.56234
-0.502355
-0.447056
-0.396672
-0.350953
-0.309383
-0.271324
-0.236095
-0.203018
-0.171436
-0.14073
-0.110305
-0.0795956
-0.0480499
-0.0151245
0.019726
0.0570568
0.0974388
0.14146
0.189722
0.242822
0.301318
0.36567
0.436132
0.512583
0.594274
0.679449
0.764776
0.844796
0.91202
0.955353
0.950115
0.876063
-0.950392
-1.02241
-1.01045
-0.946721
-0.86387
-0.775212
-0.688132
-0.606988
-0.533638
-0.468394
-0.410759
-0.359852
-0.314647
-0.274103
-0.237232
-0.203122
-0.170943
-0.139937
-0.109405
-0.0786913
-0.0471668
-0.0142124
0.0207982
0.0585145
0.0996244
0.144867
0.195044
0.251016
0.313695
0.384002
0.462779
0.550632
0.647646
0.752912
0.863714
0.974534
1.07659
1.15494
1.17399
1.09877
-1.21684
-1.27943
-1.22528
-1.11137
-0.983957
-0.859314
-0.744745
-0.643455
-0.555788
-0.480622
-0.416282
-0.360979
-0.313011
-0.270853
-0.233168
-0.198795
-0.166727
-0.136079
-0.106057
-0.0759315
-0.0450109
-0.0126159
0.0219444
0.0593977
0.100534
0.146233
0.197489
0.25544
0.321387
0.396794
0.48326
0.582405
0.695639
0.823654
0.965434
1.11675
1.26884
1.40344
1.47106
1.41106
-1.61747
-1.63075
-1.49137
-1.29661
-1.10585
-0.93502
-0.788375
-0.665644
-0.564101
-0.480263
-0.410752
-0.352602
-0.303316
-0.260834
-0.223467
-0.189823
-0.158742
-0.129235
-0.10044
-0.071579
-0.0419202
-0.0107493
0.0226646
0.0591016
0.099426
0.144627
0.195868
0.25454
0.322329
0.401285
0.49388
0.603028
0.732
0.884078
1.06162
1.26426
1.48651
1.71005
1.87232
1.87261
-2.25431
-2.11574
-1.8135
-1.49439
-1.21744
-0.990591
-0.809541
-0.666614
-0.553806
-0.464199
-0.392242
-0.33362
-0.285013
-0.243866
-0.208194
-0.17643
-0.147312
-0.119796
-0.0929884
-0.0660966
-0.038383
-0.00912796
0.0224073
0.0570193
0.0956059
0.139219
0.189133
0.246931
0.314622
0.394796
0.490819
0.607065
0.749154
0.924066
1.13986
1.40425
1.72095
2.07937
2.41779
2.589
-3.35583
-2.7831
-2.17266
-1.67586
-1.29265
-1.00586
-0.794327
-0.63749
-0.519569
-0.42942
-0.35921
-0.303394
-0.258011
-0.220181
-0.187766
-0.159135
-0.13301
-0.108357
-0.0843048
-0.0600879
-0.0350003
-0.00835397
0.0205593
0.0525089
0.0883729
0.129198
0.17628
0.231277
0.296372
0.37451
0.469753
0.587802
0.736736
0.928054
1.17809
1.50841
1.94103
2.49109
3.15793
3.79438
-5.52061
-3.66077
-2.43094
-1.71422
-1.2419
-0.921988
-0.705099
-0.554246
-0.445799
-0.365527
-0.304498
-0.256858
-0.21865
-0.187114
-0.160258
-0.136594
-0.11497
-0.0944633
-0.0743021
-0.0538108
-0.0323669
-0.00936442
0.015821
0.04387
0.0755632
0.111838
0.153867
0.203173
0.261802
0.332595
0.419637
0.528991
0.669947
0.857289
1.11558
1.48402
2.01605
2.80543
4.12342
6.09138
-9.20658
-4.51952
-2.30623
-1.42126
-0.959086
-0.683131
-0.512548
-0.400936
-0.323309
-0.266828
-0.224302
-0.191299
-0.164914
-0.143139
-0.124522
-0.107968
-0.0926207
-0.0777859
-0.0628768
-0.0473751
-0.0308008
-0.0126854
0.00745423
0.0301424
0.0559771
0.0856707
0.120107
0.160426
0.208148
0.265384
0.335198
0.422255
0.534105
0.684036
0.897681
1.22428
1.75403
2.73332
5.06144
9.86893
)
;

boundaryField
{
    movingWall
    {
        type            zeroGradient;
    }
    fixedWalls
    {
        type            zeroGradient;
    }
    frontAndBack
    {
        type            empty;
    }
}


// ************************************************************************* //
