/*--------------------------------*- C++ -*----------------------------------*\
  =========                 |
  \\      /  F ield         | OpenFOAM: The Open Source CFD Toolbox
   \\    /   O peration     | Website:  https://openfoam.org
    \\  /    A nd           | Version:  7
     \\/     M anipulation  |
\*---------------------------------------------------------------------------*/
FoamFile
{
    version     2.0;
    format      ascii;
    class       surfaceScalarField;
    location    "0.1";
    object      phi;
}
// * * * * * * * * * * * * * * * * * * * * * * * * * * * * * * * * * * * * * //

dimensions      [0 3 -1 0 0 0 0];

internalField   nonuniform List<scalar> 
3120
(
2.51049e-09
-2.51037e-09
4.04048e-09
-1.53029e-09
2.20294e-09
1.83753e-09
-3.54666e-09
5.74963e-09
-1.30181e-08
9.47142e-09
-2.57089e-08
1.26909e-08
-4.09884e-08
1.52794e-08
-5.81894e-08
1.72012e-08
-7.66536e-08
1.84643e-08
-9.57533e-08
1.90996e-08
-1.14902e-07
1.91491e-08
-1.33563e-07
1.86602e-08
-1.51246e-07
1.76836e-08
-1.67518e-07
1.62713e-08
-1.81993e-07
1.4476e-08
-1.94344e-07
1.23504e-08
-2.04292e-07
9.94828e-09
-2.11616e-07
7.32364e-09
-2.16148e-07
4.53186e-09
-2.17777e-07
1.62993e-09
-2.16454e-07
-1.32344e-09
-2.12187e-07
-4.26735e-09
-2.05048e-07
-7.13829e-09
-1.95178e-07
-9.87069e-09
-1.8278e-07
-1.23973e-08
-1.68131e-07
-1.46494e-08
-1.51573e-07
-1.65583e-08
-1.33516e-07
-1.80564e-08
-1.14438e-07
-1.90789e-08
-9.48725e-08
-1.95653e-08
-7.54107e-08
-1.94618e-08
-5.66868e-08
-1.87238e-08
-3.93673e-08
-1.73196e-08
-2.4132e-08
-1.52354e-08
-1.16459e-08
-1.24862e-08
-2.50924e-09
-9.13662e-09
2.83716e-09
-5.34646e-09
4.2966e-09
-1.45952e-09
2.53023e-09
1.76632e-09
2.5302e-09
1.60062e-09
-4.11094e-09
-1.15829e-09
1.22879e-09
-1.15839e-08
1.22631e-08
-3.071e-08
2.48758e-08
-5.83312e-08
3.70926e-08
-9.35137e-08
4.78733e-08
-1.34925e-07
5.66912e-08
-1.81048e-07
6.33235e-08
-2.30304e-07
6.77199e-08
-2.81134e-07
6.99299e-08
-3.32046e-07
7.00614e-08
-3.81644e-07
6.8258e-08
-4.28645e-07
6.46848e-08
-4.71893e-07
5.95197e-08
-5.10366e-07
5.29488e-08
-5.43179e-07
4.51635e-08
-5.69591e-07
3.636e-08
-5.89006e-07
2.67393e-08
-6.00982e-07
1.65073e-08
-6.05228e-07
5.87618e-09
-6.01617e-07
-4.93495e-09
-5.90184e-07
-1.56999e-08
-5.71137e-07
-2.61849e-08
-5.44858e-07
-3.61497e-08
-5.11907e-07
-4.53492e-08
-4.7302e-07
-5.35363e-08
-4.29112e-07
-6.04659e-08
-3.81269e-07
-6.58995e-08
-3.30736e-07
-6.96124e-08
-2.78901e-07
-7.14002e-08
-2.27274e-07
-7.1089e-08
-1.77451e-07
-6.85461e-08
-1.31074e-07
-6.36968e-08
-8.97627e-08
-5.65469e-08
-5.5028e-08
-4.72209e-08
-2.81352e-08
-3.60295e-08
-9.89036e-09
-2.35914e-08
-3.18803e-10
-1.10311e-08
1.8235e-09
-3.76018e-10
4.35379e-09
-1.63967e-09
-2.47118e-09
-1.19519e-08
1.15409e-08
-3.36464e-08
3.39575e-08
-6.75654e-08
5.8795e-08
-1.13295e-07
8.2822e-08
-1.69562e-07
1.0414e-07
-2.34556e-07
1.21686e-07
-3.06171e-07
1.34938e-07
-3.82166e-07
1.43716e-07
-4.60292e-07
1.48055e-07
-5.38359e-07
1.48129e-07
-6.14297e-07
1.44196e-07
-6.86188e-07
1.36576e-07
-7.52291e-07
1.25623e-07
-8.1106e-07
1.11718e-07
-8.61154e-07
9.52575e-08
-9.01448e-07
7.66539e-08
-9.31039e-07
5.63309e-08
-9.49257e-07
3.47254e-08
-9.55668e-07
1.22872e-08
-9.50084e-07
-1.05191e-08
-9.32569e-07
-3.32148e-08
-9.03447e-07
-5.5307e-08
-8.63306e-07
-7.62913e-08
-8.12999e-07
-9.56559e-08
-7.53648e-07
-1.12887e-07
-6.86634e-07
-1.2748e-07
-6.13588e-07
-1.38946e-07
-5.36369e-07
-1.46831e-07
-4.5704e-07
-1.5073e-07
-3.77822e-07
-1.50306e-07
-3.01046e-07
-1.45323e-07
-2.29072e-07
-1.3567e-07
-1.642e-07
-1.2142e-07
-1.08529e-07
-1.02891e-07
-6.37877e-08
-8.07712e-08
-3.1085e-08
-5.62939e-08
-1.06056e-08
-3.15106e-08
-1.23752e-09
-9.74404e-09
3.11642e-09
-5.4894e-09
3.01824e-09
-2.46385e-08
3.06901e-08
-5.88899e-08
6.82087e-08
-1.08412e-07
1.08317e-07
-1.72321e-07
1.46731e-07
-2.4893e-07
1.80749e-07
-3.35994e-07
2.08751e-07
-4.30931e-07
2.29875e-07
-5.3099e-07
2.43774e-07
-6.33381e-07
2.50446e-07
-7.35372e-07
2.5012e-07
-8.34363e-07
2.43187e-07
-9.27929e-07
2.30141e-07
-1.01386e-06
2.11554e-07
-1.09019e-06
1.88044e-07
-1.1552e-06
1.60267e-07
-1.20745e-06
1.2891e-07
-1.2458e-06
9.46811e-08
-1.26939e-06
5.83128e-08
-1.27766e-06
2.05612e-08
-1.27039e-06
-1.77942e-08
-1.24765e-06
-5.59507e-08
-1.20988e-06
-9.30842e-08
-1.15781e-06
-1.28354e-07
-1.09256e-06
-1.60909e-07
-1.01555e-06
-1.899e-07
-9.28531e-07
-2.14496e-07
-8.3358e-07
-2.33897e-07
-7.33044e-07
-2.47367e-07
-6.29517e-07
-2.54257e-07
-5.25783e-07
-2.54041e-07
-4.24741e-07
-2.46364e-07
-3.29318e-07
-2.31093e-07
-2.42343e-07
-2.08394e-07
-1.66403e-07
-1.78831e-07
-1.03654e-07
-1.4352e-07
-5.56037e-08
-1.04344e-07
-2.28674e-08
-6.4247e-08
-4.94044e-09
-2.76708e-08
-1.82394e-09
-9.33848e-09
1.23567e-08
-3.76601e-08
5.90117e-08
-8.49292e-08
1.15478e-07
-1.50368e-07
1.73756e-07
-2.32425e-07
2.28788e-07
-3.28889e-07
2.77213e-07
-4.37055e-07
3.16916e-07
-5.53896e-07
3.46717e-07
-6.7622e-07
3.66098e-07
-8.00794e-07
3.75019e-07
-9.24445e-07
3.73772e-07
-1.04415e-06
3.62887e-07
-1.15707e-06
3.43061e-07
-1.26062e-06
3.15106e-07
-1.35249e-06
2.79918e-07
-1.43068e-06
2.38456e-07
-1.49349e-06
1.91722e-07
-1.53957e-06
1.40761e-07
-1.56791e-06
8.66543e-08
-1.57787e-06
3.05177e-08
-1.56917e-06
-2.64984e-08
-1.54191e-06
-8.32103e-08
-1.49659e-06
-1.38405e-07
-1.43409e-06
-1.90847e-07
-1.35571e-06
-2.3929e-07
-1.26312e-06
-2.82494e-07
-1.15837e-06
-3.19243e-07
-1.04388e-06
-3.48383e-07
-9.22401e-07
-3.68849e-07
-7.96945e-07
-3.79713e-07
-6.70752e-07
-3.80234e-07
-5.47192e-07
-3.69924e-07
-4.29665e-07
-3.48621e-07
-3.21468e-07
-3.16591e-07
-2.25649e-07
-2.7465e-07
-1.44834e-07
-2.24335e-07
-8.1043e-08
-1.68135e-07
-3.55274e-08
-1.09763e-07
-8.66341e-09
-5.45347e-08
-1.04874e-08
-1.29859e-08
2.53426e-08
-5.03514e-08
9.63771e-08
-1.10619e-07
1.75745e-07
-1.91955e-07
2.55092e-07
-2.92013e-07
3.28847e-07
-4.07964e-07
3.93163e-07
-5.36587e-07
4.45539e-07
-6.74404e-07
4.84533e-07
-8.17803e-07
5.09497e-07
-9.63154e-07
5.20371e-07
-1.10691e-06
5.17531e-07
-1.24569e-06
5.01667e-07
-1.37633e-06
4.73699e-07
-1.49594e-06
4.34712e-07
-1.60193e-06
3.85908e-07
-1.69205e-06
3.28581e-07
-1.76442e-06
2.6409e-07
-1.81751e-06
1.93855e-07
-1.85021e-06
1.19345e-07
-1.86177e-06
4.20786e-08
-1.85189e-06
-3.63792e-08
-1.82068e-06
-1.1442e-07
-1.76869e-06
-1.90395e-07
-1.6969e-06
-2.62631e-07
-1.60675e-06
-3.29438e-07
-1.50011e-06
-3.89137e-07
-1.37927e-06
-4.4009e-07
-1.24691e-06
-4.80738e-07
-1.10611e-06
-5.09651e-07
-9.60236e-07
-5.25586e-07
-8.12915e-07
-5.27555e-07
-6.67927e-07
-5.14912e-07
-5.29103e-07
-4.87445e-07
-4.00195e-07
-4.45499e-07
-2.84736e-07
-3.9011e-07
-1.8588e-07
-3.2319e-07
-1.06269e-07
-2.47747e-07
-4.79192e-08
-1.68113e-07
-1.22008e-08
-9.02531e-08
-2.26882e-08
-1.63937e-08
4.17363e-08
-6.24938e-08
1.42477e-07
-1.35513e-07
2.48765e-07
-2.32547e-07
3.52126e-07
-3.50393e-07
4.46693e-07
-4.85529e-07
5.28299e-07
-6.34169e-07
5.9418e-07
-7.92353e-07
6.42717e-07
-9.56048e-07
6.73191e-07
-1.12125e-06
6.85573e-07
-1.28407e-06
6.80353e-07
-1.44082e-06
6.58415e-07
-1.58805e-06
6.20931e-07
-1.72262e-06
5.69285e-07
-1.84173e-06
5.05018e-07
-1.94294e-06
4.29786e-07
-2.02418e-06
3.45337e-07
-2.08382e-06
2.53494e-07
-2.12063e-06
1.56148e-07
-2.1338e-06
5.52518e-08
-2.12299e-06
-4.71838e-08
-2.08832e-06
-1.49091e-07
-2.03037e-06
-2.48354e-07
-1.95018e-06
-3.4282e-07
-1.84929e-06
-4.30323e-07
-1.72972e-06
-5.08707e-07
-1.59394e-06
-5.75869e-07
-1.44487e-06
-6.29807e-07
-1.28584e-06
-6.68684e-07
-1.12052e-06
-6.90902e-07
-9.52889e-07
-6.95189e-07
-7.87103e-07
-6.80698e-07
-6.2742e-07
-6.47128e-07
-4.78062e-07
-5.94857e-07
-3.43085e-07
-5.25087e-07
-2.26243e-07
-4.40032e-07
-1.30877e-07
-3.43113e-07
-5.98401e-08
-2.39149e-07
-1.55165e-08
-1.34577e-07
-3.82046e-08
-1.95922e-08
6.13285e-08
-7.40971e-08
1.96982e-07
-1.59558e-07
3.34226e-07
-2.72033e-07
4.64601e-07
-4.07438e-07
5.82097e-07
-5.61515e-07
6.82376e-07
-7.29866e-07
7.62531e-07
-9.08018e-07
8.20869e-07
-1.0915e-06
8.56678e-07
-1.27595e-06
8.70017e-07
-1.45714e-06
8.61546e-07
-1.63111e-06
8.32384e-07
-1.79417e-06
7.8399e-07
-1.94297e-06
7.18083e-07
-2.07452e-06
6.36567e-07
-2.18622e-06
5.41491e-07
-2.2759e-06
4.35016e-07
-2.3418e-06
3.19394e-07
-2.38261e-06
1.96958e-07
-2.39747e-06
7.01162e-08
-2.38601e-06
-5.8649e-08
-2.34831e-06
-1.86788e-07
-2.28498e-06
-3.11691e-07
-2.19709e-06
-4.30704e-07
-2.08627e-06
-5.41148e-07
-1.95461e-06
-6.4036e-07
-1.80475e-06
-7.25734e-07
-1.63977e-06
-7.94787e-07
-1.46322e-06
-8.45229e-07
-1.27906e-06
-8.75061e-07
-1.09158e-06
-8.82672e-07
-9.05314e-07
-8.66965e-07
-7.24952e-07
-8.27491e-07
-5.55216e-07
-7.64592e-07
-4.00735e-07
-6.79568e-07
-2.65923e-07
-5.74844e-07
-1.54879e-07
-4.54157e-07
-7.13294e-08
-3.22699e-07
-1.86484e-08
-1.87258e-07
-5.68528e-08
-2.26345e-08
8.39629e-08
-8.527e-08
2.59618e-07
-1.82896e-07
4.31853e-07
-3.10577e-07
5.92281e-07
-4.63342e-07
7.34862e-07
-6.36174e-07
8.55207e-07
-8.24027e-07
9.50384e-07
-1.02189e-06
1.01873e-06
-1.22484e-06
1.05963e-06
-1.42812e-06
1.0733e-06
-1.62722e-06
1.06065e-06
-1.8179e-06
1.02306e-06
-1.99626e-06
9.6235e-07
-2.15877e-06
8.80591e-07
-2.30229e-06
7.80089e-07
-2.42411e-06
6.6331e-07
-2.52194e-06
5.32848e-07
-2.59395e-06
3.91401e-07
-2.63875e-06
2.41761e-07
-2.65544e-06
8.68084e-08
-2.6436e-06
-7.04927e-08
-2.60329e-06
-2.27096e-07
-2.5351e-06
-3.79881e-07
-2.44014e-06
-5.25669e-07
-2.32003e-06
-6.61251e-07
-2.17697e-06
-7.83422e-07
-2.01367e-06
-8.8904e-07
-1.83336e-06
-9.75096e-07
-1.63979e-06
-1.0388e-06
-1.43715e-06
-1.0777e-06
-1.23005e-06
-1.08977e-06
-1.02341e-06
-1.07361e-06
-8.2236e-07
-1.02854e-06
-6.32167e-07
-9.54785e-07
-4.5808e-07
-8.53656e-07
-3.05223e-07
-7.27701e-07
-1.78503e-07
-5.80878e-07
-8.2538e-08
-4.18663e-07
-2.16612e-08
-2.48134e-07
-7.85141e-08
-2.55769e-08
1.0954e-07
-9.61557e-08
3.30196e-07
-2.05752e-07
5.41449e-07
-3.4847e-07
7.34999e-07
-5.1846e-07
9.04853e-07
-7.09923e-07
1.04667e-06
-9.17143e-07
1.1576e-06
-1.13454e-06
1.23613e-06
-1.35673e-06
1.28181e-06
-1.57857e-06
1.29514e-06
-1.79524e-06
1.27731e-06
-2.00225e-06
1.23008e-06
-2.19552e-06
1.15562e-06
-2.37135e-06
1.05643e-06
-2.5265e-06
9.3524e-07
-2.65816e-06
7.94965e-07
-2.76396e-06
6.38647e-07
-2.842e-06
4.69443e-07
-2.89085e-06
2.90612e-07
-2.90955e-06
1.05511e-07
-2.89764e-06
-8.24074e-08
-2.85514e-06
-2.69594e-07
-2.78261e-06
-4.52411e-07
-2.68114e-06
-6.27142e-07
-2.55236e-06
-7.90027e-07
-2.39849e-06
-9.37295e-07
-2.22229e-06
-1.06523e-06
-2.02713e-06
-1.17026e-06
-1.81689e-06
-1.24904e-06
-1.59602e-06
-1.29857e-06
-1.3694e-06
-1.31639e-06
-1.14235e-06
-1.30066e-06
-9.20479e-07
-1.25041e-06
-7.09624e-07
-1.16564e-06
-5.15701e-07
-1.04758e-06
-3.44601e-07
-8.98801e-07
-2.02077e-07
-7.23403e-07
-9.36603e-08
-5.2708e-07
-2.46261e-08
-3.17169e-07
-1.0314e-07
-2.84716e-08
1.38012e-07
-1.06902e-07
4.08626e-07
-2.28373e-07
6.6292e-07
-3.86052e-07
8.92678e-07
-5.73205e-07
1.09201e-06
-7.83237e-07
1.2567e-06
-1.00974e-06
1.38411e-06
-1.24655e-06
1.47293e-06
-1.48779e-06
1.52306e-06
-1.72795e-06
1.5353e-06
-1.96189e-06
1.51126e-06
-2.18491e-06
1.45309e-06
-2.39274e-06
1.36344e-06
-2.58156e-06
1.24525e-06
-2.74804e-06
1.10172e-06
-2.8893e-06
9.36222e-07
-3.00292e-06
7.52269e-07
-3.08696e-06
5.53485e-07
-3.13995e-06
3.43598e-07
-3.16087e-06
1.26439e-07
-3.14923e-06
-9.40551e-08
-3.10499e-06
-3.13835e-07
-3.02865e-06
-5.28745e-07
-2.92127e-06
-7.34528e-07
-2.78444e-06
-9.26858e-07
-2.62035e-06
-1.10138e-06
-2.43182e-06
-1.25376e-06
-2.22226e-06
-1.37982e-06
-1.9957e-06
-1.4756e-06
-1.75678e-06
-1.5375e-06
-1.51068e-06
-1.56248e-06
-1.26312e-06
-1.54823e-06
-1.0202e-06
-1.49332e-06
-7.88373e-07
-1.39747e-06
-5.74263e-07
-1.26169e-06
-3.84578e-07
-1.08849e-06
-2.25965e-07
-8.82015e-07
-1.04902e-07
-6.48143e-07
-2.76123e-08
-3.94459e-07
-1.30752e-07
-3.13649e-08
1.69377e-07
-1.17647e-07
4.94908e-07
-2.51003e-07
7.96276e-07
-4.2366e-07
1.06534e-06
-6.27989e-07
1.29634e-06
-8.56581e-07
1.48529e-06
-1.10231e-06
1.62984e-06
-1.35842e-06
1.72904e-06
-1.61853e-06
1.78317e-06
-1.87675e-06
1.79352e-06
-2.12765e-06
1.76215e-06
-2.3663e-06
1.69175e-06
-2.5883e-06
1.58544e-06
-2.78974e-06
1.44669e-06
-2.96721e-06
1.27919e-06
-3.11781e-06
1.08682e-06
-3.23909e-06
8.7355e-07
-3.32909e-06
6.43485e-07
-3.38631e-06
4.00812e-07
-3.40969e-06
1.49826e-07
-3.39868e-06
-1.05065e-07
-3.3532e-06
-3.59325e-07
-3.27365e-06
-6.08288e-07
-3.16102e-06
-8.47161e-07
-3.01683e-06
-1.07105e-06
-2.84322e-06
-1.27498e-06
-2.64298e-06
-1.454e-06
-2.41956e-06
-1.60325e-06
-2.17707e-06
-1.71808e-06
-1.92033e-06
-1.79423e-06
-1.65482e-06
-1.82799e-06
-1.38664e-06
-1.81642e-06
-1.1224e-06
-1.75755e-06
-8.69204e-07
-1.65067e-06
-6.3444e-07
-1.49645e-06
-4.25685e-07
-1.29724e-06
-2.50536e-07
-1.05716e-06
-1.16466e-07
-7.82213e-07
-3.06844e-08
-4.80241e-07
-1.61437e-07
-3.42969e-08
2.03674e-07
-1.28515e-07
5.89126e-07
-2.73865e-07
9.41626e-07
-4.61608e-07
1.25308e-06
-6.83195e-07
1.51792e-06
-9.30372e-07
1.73247e-06
-1.19528e-06
1.89475e-06
-1.47054e-06
2.00429e-06
-1.74928e-06
2.06191e-06
-2.02522e-06
2.06946e-06
-2.29265e-06
2.02959e-06
-2.54647e-06
1.94557e-06
-2.78215e-06
1.82111e-06
-2.99571e-06
1.66025e-06
-3.18374e-06
1.46723e-06
-3.34333e-06
1.2464e-06
-3.47203e-06
1.00226e-06
-3.5679e-06
7.39351e-07
-3.62941e-06
4.62322e-07
-3.65549e-06
1.75909e-07
-3.64552e-06
-1.15033e-07
-3.59934e-06
-4.05506e-07
-3.51727e-06
-6.90355e-07
-3.40017e-06
-9.64263e-07
-3.24946e-06
-1.22176e-06
-3.06717e-06
-1.45727e-06
-2.85601e-06
-1.66516e-06
-2.6194e-06
-1.83986e-06
-2.36153e-06
-1.97596e-06
-2.08734e-06
-2.06842e-06
-1.80256e-06
-2.11276e-06
-1.51369e-06
-2.10529e-06
-1.22787e-06
-2.04337e-06
-9.52864e-07
-1.92567e-06
-6.96885e-07
-1.75243e-06
-4.68438e-07
-1.52569e-06
-2.76145e-07
-1.24946e-06
-1.28544e-07
-9.29813e-07
-3.39024e-08
-5.74882e-07
-1.95339e-07
-3.73024e-08
2.40976e-07
-1.3962e-07
6.91444e-07
-2.97162e-07
1.09917e-06
-5.0018e-07
1.4561e-06
-7.39156e-07
1.7569e-06
-1.00496e-06
1.99828e-06
-1.28897e-06
2.17876e-06
-1.58316e-06
2.29848e-06
-1.88017e-06
2.35893e-06
-2.17335e-06
2.36264e-06
-2.45673e-06
2.31297e-06
-2.72505e-06
2.21389e-06
-2.97371e-06
2.06977e-06
-3.19873e-06
1.88527e-06
-3.3967e-06
1.6652e-06
-3.56476e-06
1.41446e-06
-3.70053e-06
1.13802e-06
-3.80207e-06
8.40894e-07
-3.86789e-06
5.28139e-07
-3.89689e-06
2.04909e-07
-3.8884e-06
-1.23528e-07
-3.84215e-06
-4.51749e-07
-3.75836e-06
-7.74143e-07
-3.63773e-06
-1.08489e-06
-3.48151e-06
-1.37798e-06
-3.29159e-06
-1.6472e-06
-3.07053e-06
-1.88622e-06
-2.82168e-06
-2.08871e-06
-2.54919e-06
-2.24845e-06
-2.25811e-06
-2.3595e-06
-1.95439e-06
-2.41648e-06
-1.64488e-06
-2.41481e-06
-1.33727e-06
-2.35098e-06
-1.04002e-06
-2.22293e-06
-7.62195e-07
-2.03025e-06
-5.13321e-07
-1.77456e-06
-3.03126e-07
-1.45965e-06
-1.41317e-07
-1.09162e-06
-3.73222e-08
-6.78877e-07
-2.32661e-07
-4.0413e-08
2.81389e-07
-1.51061e-07
8.02092e-07
-3.21077e-07
1.26918e-06
-5.39625e-07
1.67464e-06
-7.96159e-07
2.01343e-06
-1.08062e-06
2.28273e-06
-1.38358e-06
2.48172e-06
-1.69636e-06
2.61127e-06
-2.01112e-06
2.67369e-06
-2.32084e-06
2.67235e-06
-2.61933e-06
2.61146e-06
-2.90124e-06
2.49579e-06
-3.16192e-06
2.33046e-06
-3.39745e-06
2.1208e-06
-3.6045e-06
1.87225e-06
-3.7803e-06
1.59027e-06
-3.92258e-06
1.2803e-06
-4.02946e-06
9.47781e-07
-4.0995e-06
5.98178e-07
-4.1316e-06
2.37008e-07
-4.12503e-06
-1.30099e-07
-4.07943e-06
-4.97345e-07
-3.99487e-06
-8.58712e-07
-3.87184e-06
-1.20792e-06
-3.71139e-06
-1.53843e-06
-3.51517e-06
-1.84341e-06
-3.28555e-06
-2.11584e-06
-3.0257e-06
-2.34857e-06
-2.73969e-06
-2.53445e-06
-2.43259e-06
-2.6666e-06
-2.1105e-06
-2.73857e-06
-1.78061e-06
-2.7447e-06
-1.45112e-06
-2.68047e-06
-1.13122e-06
-2.54283e-06
-8.30908e-07
-2.33057e-06
-5.60781e-07
-2.04469e-06
-3.31795e-07
-1.68864e-06
-1.54956e-07
-1.26846e-06
-4.09966e-08
-7.92836e-07
-2.73658e-07
-4.36586e-08
3.25048e-07
-1.62936e-07
9.21369e-07
-3.45781e-07
1.45203e-06
-5.80171e-07
1.90903e-06
-8.54443e-07
2.28771e-06
-1.15754e-06
2.58583e-06
-1.4792e-06
2.80337e-06
-1.81007e-06
2.94214e-06
-2.14181e-06
3.00543e-06
-2.46708e-06
2.99762e-06
-2.77953e-06
2.92391e-06
-3.07373e-06
2.78999e-06
-3.34512e-06
2.60184e-06
-3.58986e-06
2.36554e-06
-3.80479e-06
2.08718e-06
-3.98731e-06
1.77279e-06
-4.13528e-06
1.42827e-06
-4.24698e-06
1.05948e-06
-4.32102e-06
6.7222e-07
-4.35633e-06
2.72322e-07
-4.35214e-06
-1.34287e-07
-4.30799e-06
-5.41501e-07
-4.22374e-06
-9.42961e-07
-4.09968e-06
-1.33199e-06
-3.93656e-06
-1.70154e-06
-3.73575e-06
-2.04423e-06
-3.4993e-06
-2.35229e-06
-3.23012e-06
-2.61774e-06
-2.93211e-06
-2.83247e-06
-2.61024e-06
-2.98847e-06
-2.27071e-06
-3.07809e-06
-1.92097e-06
-3.09444e-06
-1.56974e-06
-3.0317e-06
-1.22692e-06
-2.88564e-06
-9.03486e-07
-2.654e-06
-6.11227e-07
-2.33695e-06
-3.62452e-07
-1.93741e-06
-1.69629e-07
-1.46128e-06
-4.49772e-08
-9.17488e-07
-3.18635e-07
-4.70701e-08
3.72118e-07
-1.75344e-07
1.04964e-06
-3.71445e-07
1.64813e-06
-6.22036e-07
2.15962e-06
-9.14222e-07
2.57989e-06
-1.23586e-06
2.90747e-06
-1.5758e-06
3.14331e-06
-1.924e-06
3.29034e-06
-2.27164e-06
3.35307e-06
-2.6111e-06
3.33708e-06
-2.93592e-06
3.24873e-06
-3.24071e-06
3.09478e-06
-3.52102e-06
2.88215e-06
-3.77324e-06
2.61776e-06
-3.99444e-06
2.30838e-06
-4.18226e-06
1.96061e-06
-4.3348e-06
1.58081e-06
-4.45052e-06
1.1752e-06
-4.52816e-06
7.49861e-07
-4.5667e-06
3.10866e-07
-4.56535e-06
-1.35645e-07
-4.5235e-06
-5.83344e-07
-4.44085e-06
-1.02562e-06
-4.31738e-06
-1.45546e-06
-4.15351e-06
-1.86541e-06
-3.95021e-06
-2.24753e-06
-3.70914e-06
-2.59336e-06
-3.43282e-06
-2.89406e-06
-3.12484e-06
-3.14045e-06
-2.78999e-06
-3.32332e-06
-2.43442e-06
-3.43366e-06
-2.06578e-06
-3.46308e-06
-1.69323e-06
-3.40426e-06
-1.32741e-06
-3.25146e-06
-9.80316e-07
-3.0011e-06
-6.65032e-07
-2.65223e-06
-3.95382e-07
-2.20706e-06
-1.85498e-07
-1.67117e-06
-4.93163e-08
-1.05367e-06
-3.67951e-07
-5.06822e-08
4.228e-07
-1.88394e-07
1.18736e-06
-3.98258e-07
1.85799e-06
-6.65447e-07
2.42681e-06
-9.75693e-07
2.89014e-06
-1.31566e-06
3.24744e-06
-1.67325e-06
3.50089e-06
-2.03771e-06
3.6548e-06
-2.39976e-06
3.71513e-06
-2.75158e-06
3.6889e-06
-3.08666e-06
3.58382e-06
-3.39975e-06
3.40787e-06
-3.68666e-06
3.16905e-06
-3.94406e-06
2.87517e-06
-4.1694e-06
2.53372e-06
-4.36066e-06
2.15186e-06
-4.51625e-06
1.7364e-06
-4.63489e-06
1.29383e-06
-4.71549e-06
8.3047e-07
-4.75715e-06
3.5252e-07
-4.75903e-06
-1.3376e-07
-4.72045e-06
-6.2193e-07
-4.64084e-06
-1.10522e-06
-4.51988e-06
-1.57642e-06
-4.35756e-06
-2.02773e-06
-4.15437e-06
-2.45072e-06
-3.91145e-06
-2.83629e-06
-3.63081e-06
-3.1747e-06
-3.31555e-06
-3.45571e-06
-2.97013e-06
-3.66874e-06
-2.60053e-06
-3.80326e-06
-2.21445e-06
-3.84915e-06
-1.82144e-06
-3.79727e-06
-1.43283e-06
-3.64006e-06
-1.0617e-06
-3.37223e-06
-7.22538e-07
-2.9914e-06
-4.30868e-07
-2.49873e-06
-2.02731e-07
-1.89931e-06
-5.40687e-08
-1.20233e-06
-4.2202e-07
-5.45372e-08
4.77337e-07
-2.02218e-07
1.33504e-06
-4.26439e-07
2.08221e-06
-7.10664e-07
2.71104e-06
-1.03906e-06
3.21854e-06
-1.39699e-06
3.60537e-06
-1.77129e-06
3.87519e-06
-2.15053e-06
4.03404e-06
-2.525e-06
4.0896e-06
-2.88674e-06
4.05064e-06
-3.22934e-06
3.92641e-06
-3.54778e-06
3.72632e-06
-3.83827e-06
3.45954e-06
-4.09794e-06
3.13484e-06
-4.32469e-06
2.76047e-06
-4.51697e-06
2.34415e-06
-4.67361e-06
1.89304e-06
-4.79367e-06
1.4139e-06
-4.87633e-06
9.13126e-07
-4.92079e-06
3.96983e-07
-4.92626e-06
-1.28287e-07
-4.89193e-06
-6.56261e-07
-4.817e-06
-1.18016e-06
-4.70077e-06
-1.69266e-06
-4.54274e-06
-2.18576e-06
-4.34281e-06
-2.65065e-06
-4.10146e-06
-3.07764e-06
-3.82002e-06
-3.45613e-06
-3.50097e-06
-3.77476e-06
-3.14819e-06
-4.02152e-06
-2.76732e-06
-4.18414e-06
-2.36597e-06
-4.25051e-06
-1.95391e-06
-4.20933e-06
-1.54316e-06
-4.05081e-06
-1.14787e-06
-3.76752e-06
-7.84063e-07
-3.3552e-06
-4.69195e-07
-2.8136e-06
-2.21508e-07
-2.14699e-06
-5.92944e-08
-1.36455e-06
-4.81314e-07
-5.86901e-08
5.36027e-07
-2.16987e-07
1.49333e-06
-4.56268e-07
2.3215e-06
-7.58006e-07
3.01278e-06
-1.10458e-06
3.56511e-06
-1.47986e-06
3.98064e-06
-1.86958e-06
4.26492e-06
-2.26159e-06
4.42605e-06
-2.64585e-06
4.47386e-06
-3.01435e-06
4.41913e-06
-3.36092e-06
4.27298e-06
-3.68097e-06
4.04637e-06
-3.97123e-06
3.7498e-06
-4.22946e-06
3.39307e-06
-4.45419e-06
2.9852e-06
-4.64445e-06
2.53441e-06
-4.79961e-06
2.0482e-06
-4.91915e-06
1.53344e-06
-5.0026e-06
9.96569e-07
-5.04934e-06
4.43729e-07
-5.05865e-06
-1.18981e-07
-5.0296e-06
-6.85306e-07
-4.96115e-06
-1.24861e-06
-4.85218e-06
-1.80163e-06
-4.70163e-06
-2.3363e-06
-4.50871e-06
-2.84358e-06
-4.27308e-06
-3.31326e-06
-3.99523e-06
-3.73398e-06
-3.67677e-06
-4.09323e-06
-3.3208e-06
-4.37748e-06
-2.93237e-06
-4.57257e-06
-2.51876e-06
-4.66411e-06
-2.08983e-06
-4.63826e-06
-1.65814e-06
-4.48251e-06
-1.23893e-06
-4.18672e-06
-8.49906e-07
-3.74423e-06
-5.10669e-07
-3.15284e-06
-2.42029e-07
-2.41563e-06
-6.50627e-08
-1.54151e-06
-5.46377e-07
-6.32152e-08
5.99242e-07
-2.32925e-07
1.66304e-06
-4.88111e-07
2.57668e-06
-8.07887e-07
3.33255e-06
-1.17254e-06
3.92977e-06
-1.56427e-06
4.37237e-06
-1.96764e-06
4.66828e-06
-2.36976e-06
4.82818e-06
-2.76037e-06
4.86447e-06
-3.13158e-06
4.79034e-06
-3.47764e-06
4.61904e-06
-3.79459e-06
4.36332e-06
-4.07991e-06
4.03511e-06
-4.33214e-06
3.6453e-06
-4.5506e-06
3.20366e-06
-4.73508e-06
2.71889e-06
-4.8856e-06
2.19871e-06
-5.00219e-06
1.65003e-06
-5.08476e-06
1.07914e-06
-5.13299e-06
4.9196e-07
-5.14623e-06
-1.05739e-07
-5.1235e-06
-7.08041e-07
-5.06348e-06
-1.30863e-06
-4.96461e-06
-1.9005e-06
-4.82521e-06
-2.4757e-06
-4.64368e-06
-3.02511e-06
-4.41873e-06
-3.5382e-06
-4.1498e-06
-4.00292e-06
-3.83738e-06
-4.40565e-06
-3.48353e-06
-4.73133e-06
-3.09239e-06
-4.96371e-06
-2.67064e-06
-5.08586e-06
-2.22795e-06
-5.08095e-06
-1.77728e-06
-4.93318e-06
-1.33493e-06
-4.62907e-06
-9.2036e-07
-4.1588e-06
-5.55626e-07
-3.51757e-06
-2.64527e-07
-2.70673e-06
-7.14572e-08
-1.73458e-06
-6.17835e-07
-6.8214e-08
6.67456e-07
-2.50341e-07
1.84517e-06
-5.22462e-07
2.8488e-06
-8.60855e-07
3.67095e-06
-1.24335e-06
4.31227e-06
-1.65025e-06
4.77927e-06
-2.06482e-06
5.08286e-06
-2.47358e-06
5.23693e-06
-2.86612e-06
5.25701e-06
-3.23491e-06
5.15914e-06
-3.57487e-06
4.959e-06
-3.88291e-06
4.67136e-06
-4.15749e-06
4.30969e-06
-4.39817e-06
3.88598e-06
-4.60525e-06
3.41074e-06
-4.77942e-06
2.89305e-06
-4.92146e-06
2.34076e-06
-5.03209e-06
1.76065e-06
-5.1117e-06
1.15876e-06
-5.1603e-06
5.40561e-07
-5.17739e-06
-8.86442e-08
-5.16195e-06
-7.23481e-07
-5.11242e-06
-1.35816e-06
-5.02678e-06
-1.98614e-06
-4.90266e-06
-2.59982e-06
-4.73756e-06
-3.19021e-06
-4.52911e-06
-3.74665e-06
-4.27546e-06
-4.25657e-06
-3.97574e-06
-4.70537e-06
-3.63064e-06
-5.07643e-06
-3.24302e-06
-5.35133e-06
-2.81858e-06
-5.5103e-06
-2.36647e-06
-5.53306e-06
-1.89978e-06
-5.39987e-06
-1.43576e-06
-5.0931e-06
-9.95715e-07
-4.59885e-06
-6.04459e-07
-3.90883e-06
-2.89287e-07
-3.0219e-06
-7.85823e-08
-1.94529e-06
-6.96417e-07
-7.38284e-08
7.41285e-07
-2.69656e-07
2.041e-06
-5.59985e-07
3.13913e-06
-9.17632e-07
4.02859e-06
-1.31751e-06
4.71214e-06
-1.73774e-06
5.1995e-06
-2.16029e-06
5.50541e-06
-2.57111e-06
5.64776e-06
-2.95995e-06
5.64585e-06
-3.31991e-06
5.51909e-06
-3.64687e-06
5.28596e-06
-3.93892e-06
4.96342e-06
-4.1958e-06
4.56657e-06
-4.41831e-06
4.1085e-06
-4.60793e-06
3.60036e-06
-4.76641e-06
3.05153e-06
-4.89546e-06
2.46981e-06
-4.99653e-06
1.86173e-06
-5.07061e-06
1.23284e-06
-5.11812e-06
5.88065e-07
-5.13875e-06
-6.80086e-08
-5.13149e-06
-7.30742e-07
-5.09456e-06
-1.39509e-06
-5.02549e-06
-2.05522e-06
-4.9212e-06
-2.70411e-06
-4.77822e-06
-3.3332e-06
-4.59294e-06
-3.93192e-06
-4.36206e-06
-4.48745e-06
-4.08305e-06
-4.98438e-06
-3.75484e-06
-5.40464e-06
-3.37859e-06
-5.72758e-06
-2.95855e-06
-5.93035e-06
-2.50288e-06
-5.98872e-06
-2.02442e-06
-5.87833e-06
-1.54116e-06
-5.57636e-06
-1.07628e-06
-5.06373e-06
-6.57643e-07
-4.32746e-06
-3.16673e-07
-3.36287e-06
-8.65733e-08
-2.17539e-06
-7.8299e-07
-8.02567e-08
8.21541e-07
-2.91449e-07
2.25219e-06
-6.01578e-07
3.44926e-06
-9.79167e-07
4.40618e-06
-1.39562e-06
5.12859e-06
-1.82663e-06
5.6305e-06
-2.25282e-06
5.9316e-06
-2.65981e-06
6.05475e-06
-3.03781e-06
6.02385e-06
-3.38095e-06
5.86222e-06
-3.68648e-06
5.5915e-06
-3.95407e-06
5.231e-06
-4.18499e-06
4.79749e-06
-4.38158e-06
4.30509e-06
-4.54668e-06
3.76547e-06
-4.68327e-06
3.18812e-06
-4.79409e-06
2.58063e-06
-4.88144e-06
1.94908e-06
-4.94697e-06
1.29837e-06
-4.99155e-06
6.3264e-07
-5.01515e-06
-4.44099e-08
-5.0168e-06
-7.29087e-07
-4.99457e-06
-1.41732e-06
-4.94555e-06
-2.10423e-06
-4.86598e-06
-2.78369e-06
-4.75137e-06
-3.4478e-06
-4.5968e-06
-4.08649e-06
-4.39729e-06
-4.68695e-06
-4.1484e-06
-5.23328e-06
-3.84691e-06
-5.70614e-06
-3.49177e-06
-6.08271e-06
-3.08519e-06
-6.33692e-06
-2.63374e-06
-6.44017e-06
-2.14946e-06
-6.36261e-06
-1.65067e-06
-6.07515e-06
-1.16236e-06
-5.55204e-06
-7.15775e-07
-4.77405e-06
-3.4716e-07
-3.73149e-06
-9.56123e-08
-2.42693e-06
-8.78602e-07
-8.77786e-08
9.0932e-07
-3.1652e-07
2.48093e-06
-6.48442e-07
3.78118e-06
-1.04667e-06
4.80441e-06
-1.47839e-06
5.56031e-06
-1.91658e-06
6.06869e-06
-2.34062e-06
6.35564e-06
-2.73615e-06
6.45028e-06
-3.09432e-06
6.38202e-06
-3.41081e-06
6.17871e-06
-3.68478e-06
5.86546e-06
-3.91783e-06
5.46406e-06
-4.1132e-06
4.99285e-06
-4.27497e-06
4.46686e-06
-4.40757e-06
3.89807e-06
-4.5153e-06
3.29585e-06
-4.60203e-06
2.66736e-06
-4.67098e-06
2.01802e-06
-4.72448e-06
1.35188e-06
-4.76393e-06
6.72087e-07
-4.78962e-06
-1.87179e-08
-4.80071e-06
-7.17999e-07
-4.79515e-06
-1.42288e-06
-4.76969e-06
-2.12969e-06
-4.71993e-06
-2.83345e-06
-4.64038e-06
-3.52735e-06
-4.52477e-06
-4.20211e-06
-4.36633e-06
-4.84539e-06
-4.15843e-06
-5.44118e-06
-3.89531e-06
-5.96925e-06
-3.57318e-06
-6.40484e-06
-3.19148e-06
-6.71863e-06
-2.75438e-06
-6.87726e-06
-2.27237e-06
-6.84463e-06
-1.7635e-06
-6.58401e-06
-1.25429e-06
-6.06124e-06
-7.79614e-07
-5.24873e-06
-3.81384e-07
-4.12972e-06
-1.0595e-07
-2.70237e-06
-9.84552e-07
-9.67919e-08
1.00611e-06
-3.45973e-07
2.73011e-06
-7.02169e-07
4.13738e-06
-1.12164e-06
5.22388e-06
-1.5665e-06
6.00518e-06
-2.0068e-06
6.50899e-06
-2.42094e-06
6.76979e-06
-2.79515e-06
6.82449e-06
-3.12222e-06
6.7091e-06
-3.4001e-06
6.45659e-06
-3.63042e-06
6.09578e-06
-3.81726e-06
5.65091e-06
-3.96613e-06
5.14172e-06
-4.08314e-06
4.58386e-06
-4.17441e-06
3.98934e-06
-4.24568e-06
3.36712e-06
-4.30197e-06
2.72366e-06
-4.34742e-06
2.06346e-06
-4.38509e-06
1.38955e-06
-4.4169e-06
7.03899e-07
-4.44352e-06
7.89978e-09
-4.46428e-06
-6.97235e-07
-4.47714e-06
-1.41002e-06
-4.47861e-06
-2.12823e-06
-4.46373e-06
-2.84833e-06
-4.42615e-06
-3.56492e-06
-4.35827e-06
-4.26999e-06
-4.25151e-06
-4.95215e-06
-4.09685e-06
-5.59583e-06
-3.88566e-06
-6.18045e-06
-3.61077e-06
-6.67973e-06
-3.26808e-06
-7.06132e-06
-2.85839e-06
-7.28695e-06
-2.38952e-06
-7.3135e-06
-1.87835e-06
-7.09518e-06
-1.35237e-06
-6.58723e-06
-8.50145e-07
-5.75095e-06
-4.2022e-07
-4.55964e-06
-1.17939e-07
-3.00465e-06
-1.10249e-06
-1.0787e-07
1.11398e-06
-3.81336e-07
3.00358e-06
-7.64849e-07
4.52089e-06
-1.20584e-06
5.66487e-06
-1.66041e-06
6.45975e-06
-2.0956e-06
6.94417e-06
-2.48943e-06
7.16362e-06
-2.82961e-06
7.16467e-06
-3.11157e-06
6.99106e-06
-3.33639e-06
6.68141e-06
-3.50893e-06
6.26831e-06
-3.63625e-06
5.77823e-06
-3.72647e-06
5.23195e-06
-3.78791e-06
4.6453e-06
-3.82847e-06
4.0299e-06
-3.85531e-06
3.39396e-06
-3.87457e-06
2.74292e-06
-3.89126e-06
2.08015e-06
-3.90911e-06
1.4074e-06
-3.93056e-06
7.2535e-07
-3.95666e-06
3.40031e-08
-3.98701e-06
-6.66884e-07
-4.01966e-06
-1.37737e-06
-4.05104e-06
-2.09685e-06
-4.07584e-06
-2.82353e-06
-4.08703e-06
-3.55374e-06
-4.07583e-06
-4.28119e-06
-4.03194e-06
-4.99603e-06
-3.94394e-06
-5.68383e-06
-3.8e-06
-6.32439e-06
-3.58909e-06
-6.89065e-06
-3.30266e-06
-7.34775e-06
-2.93693e-06
-7.65268e-06
-2.49566e-06
-7.75477e-06
-1.99312e-06
-7.59772e-06
-1.45675e-06
-7.1236e-06
-9.28634e-07
-6.27907e-06
-4.64884e-07
-5.02339e-06
-1.32092e-07
-3.33744e-06
-1.23458e-06
-1.21852e-07
1.23583e-06
-4.24732e-07
3.30646e-06
-8.39167e-07
4.93532e-06
-1.30119e-06
6.1269e-06
-1.7599e-06
6.91846e-06
-2.17965e-06
7.36392e-06
-2.53914e-06
7.52311e-06
-2.82897e-06
7.45449e-06
-3.04852e-06
7.21061e-06
-3.20314e-06
6.83603e-06
-3.30169e-06
6.36686e-06
-3.35473e-06
5.83127e-06
-3.37327e-06
5.25048e-06
-3.36787e-06
4.6399e-06
-3.34819e-06
4.01023e-06
-3.32269e-06
3.36846e-06
-3.29847e-06
2.71871e-06
-3.28127e-06
2.06294e-06
-3.27538e-06
1.40151e-06
-3.28369e-06
7.33663e-07
-3.30763e-06
5.7944e-08
-3.34711e-06
-6.27409e-07
-3.4004e-06
-1.32407e-06
-3.46405e-06
-2.0332e-06
-3.53268e-06
-2.7549e-06
-3.59884e-06
-3.48757e-06
-3.65294e-06
-4.22709e-06
-3.68321e-06
-4.96576e-06
-3.67596e-06
-5.69109e-06
-3.61611e-06
-6.38424e-06
-3.48833e-06
-7.01843e-06
-3.27877e-06
-7.55731e-06
-2.97769e-06
-7.95375e-06
-2.58299e-06
-8.14947e-06
-2.1043e-06
-8.0764e-06
-1.56727e-06
-7.66063e-06
-1.01668e-06
-6.82966e-06
-5.17091e-07
-5.52298e-06
-1.49172e-07
-3.70536e-06
-1.38376e-06
-1.39997e-07
1.37583e-06
-4.79126e-07
3.64559e-06
-9.28484e-07
5.38468e-06
-1.40942e-06
6.60784e-06
-1.86326e-06
7.3723e-06
-2.25267e-06
7.75333e-06
-2.55895e-06
7.82939e-06
-2.77759e-06
7.67312e-06
-2.9137e-06
7.34672e-06
-2.97817e-06
6.9005e-06
-2.98468e-06
6.37337e-06
-2.94769e-06
5.79428e-06
-2.88117e-06
5.18396e-06
-2.79786e-06
4.55659e-06
-2.70892e-06
3.92129e-06
-2.62383e-06
3.28336e-06
-2.55037e-06
2.64525e-06
-2.49475e-06
2.00732e-06
-2.46163e-06
1.36839e-06
-2.45421e-06
7.26247e-07
-2.47425e-06
7.79818e-08
-2.522e-06
-5.79664e-07
-2.5961e-06
-1.24997e-06
-2.69345e-06
-1.93586e-06
-2.80892e-06
-2.63944e-06
-2.9351e-06
-3.36139e-06
-3.06206e-06
-4.10013e-06
-3.17706e-06
-4.85076e-06
-3.26458e-06
-5.60357e-06
-3.30651e-06
-6.3423e-06
-3.28308e-06
-7.04187e-06
-3.17441e-06
-7.66598e-06
-2.9634e-06
-8.16477e-06
-2.63985e-06
-8.47302e-06
-2.206e-06
-8.51025e-06
-1.6829e-06
-8.18373e-06
-1.11621e-06
-7.39636e-06
-5.79273e-07
-6.05992e-06
-1.70345e-07
-4.11429e-06
-1.5541e-06
-1.64243e-07
1.54007e-06
-5.48664e-07
4.03001e-06
-1.03678e-06
5.87279e-06
-1.53127e-06
7.10233e-06
-1.96567e-06
7.8067e-06
-2.30329e-06
8.09095e-06
-2.53107e-06
8.05717e-06
-2.65226e-06
7.79432e-06
-2.67988e-06
7.37434e-06
-2.63171e-06
6.85233e-06
-2.52692e-06
6.26858e-06
-2.38401e-06
5.65138e-06
-2.21974e-06
5.01968e-06
-2.0486e-06
4.38545e-06
-1.88279e-06