0.05 	0.0003125 	0.005 	0.00778447
0.05 	0.0009375 	0.005 	0.00778462
0.05 	0.0015625 	0.005 	0.00778457
0.05 	0.0021875 	0.005 	0.00778434
0.05 	0.0028125 	0.005 	0.00778397
0.05 	0.0034375 	0.005 	0.00778348
0.05 	0.0040625 	0.005 	0.00778289
0.05 	0.0046875 	0.005 	0.00778223
0.05 	0.0053125 	0.005 	0.00778152
0.05 	0.0059375 	0.005 	0.00778075
0.05 	0.0065625 	0.005 	0.00777995
0.05 	0.0071875 	0.005 	0.00777912
0.05 	0.0078125 	0.005 	0.00777827
0.05 	0.0084375 	0.005 	0.00777739
0.05 	0.0090625 	0.005 	0.00777647
0.05 	0.0096875 	0.005 	0.00777552
0.05 	0.0103125 	0.005 	0.00777449
0.05 	0.0109375 	0.005 	0.00777338
0.05 	0.0115625 	0.005 	0.00777214
0.05 	0.0121875 	0.005 	0.00777077
0.05 	0.0128125 	0.005 	0.00776925
0.05 	0.0134375 	0.005 	0.00776759
0.05 	0.0140625 	0.005 	0.00776579
0.05 	0.0146875 	0.005 	0.00776387
0.05 	0.0153125 	0.005 	0.00776181
0.05 	0.0159375 	0.005 	0.00775962
0.05 	0.0165625 	0.005 	0.00775728
0.05 	0.0171875 	0.005 	0.00775476
0.05 	0.0178125 	0.005 	0.00775207
0.05 	0.0184375 	0.005 	0.00774919
0.05 	0.0190625 	0.005 	0.00774615
0.05 	0.0196875 	0.005 	0.00774294
0.05 	0.0203125 	0.005 	0.00773959
0.05 	0.0209375 	0.005 	0.00773606
0.05 	0.0215625 	0.005 	0.00773235
0.05 	0.0221875 	0.005 	0.00772842
0.05 	0.0228125 	0.005 	0.00772425
0.05 	0.0234375 	0.005 	0.00771985
0.05 	0.0240625 	0.005 	0.00771525
0.05 	0.0246875 	0.005 	0.00771049
0.05 	0.0253125 	0.005 	0.00770559
0.05 	0.0259375 	0.005 	0.00770057
0.05 	0.0265625 	0.005 	0.00769539
0.05 	0.0271875 	0.005 	0.00769003
0.05 	0.0278125 	0.005 	0.00768446
0.05 	0.0284375 	0.005 	0.00767869
0.05 	0.0290625 	0.005 	0.00767273
0.05 	0.0296875 	0.005 	0.00766659
0.05 	0.0303125 	0.005 	0.00766025
0.05 	0.0309375 	0.005 	0.00765369
0.05 	0.0315625 	0.005 	0.00764685
0.05 	0.0321875 	0.005 	0.00763969
0.05 	0.0328125 	0.005 	0.00763221
0.05 	0.0334375 	0.005 	0.00762443
0.05 	0.0340625 	0.005 	0.00761638
0.05 	0.0346875 	0.005 	0.00760807
0.05 	0.0353125 	0.005 	0.00759948
0.05 	0.0359375 	0.005 	0.00759058
0.05 	0.0365625 	0.005 	0.00758133
0.05 	0.0371875 	0.005 	0.00757176
0.05 	0.0378125 	0.005 	0.00756186
0.05 	0.0384375 	0.005 	0.00755164
0.05 	0.0390625 	0.005 	0.00754106
0.05 	0.0396875 	0.005 	0.00753008
0.05 	0.0403125 	0.005 	0.00751865
0.05 	0.0409375 	0.005 	0.00750677
0.05 	0.0415625 	0.005 	0.00749447
0.05 	0.0421875 	0.005 	0.00748173
0.05 	0.0428125 	0.005 	0.00746856
0.05 	0.0434375 	0.005 	0.0074549
0.05 	0.0440625 	0.005 	0.00744075
0.05 	0.0446875 	0.005 	0.00742613
0.05 	0.0453125 	0.005 	0.00741107
0.05 	0.0459375 	0.005 	0.00739554
0.05 	0.0465625 	0.005 	0.00737951
0.05 	0.0471875 	0.005 	0.00736291
0.05 	0.0478125 	0.005 	0.00734572
0.05 	0.0484375 	0.005 	0.00732797
0.05 	0.0490625 	0.005 	0.00730963
0.05 	0.0496875 	0.005 	0.00729067
0.05 	0.0503125 	0.005 	0.00727103
0.05 	0.0509375 	0.005 	0.00725069
0.05 	0.0515625 	0.005 	0.0072297
0.05 	0.0521875 	0.005 	0.00720808
0.05 	0.0528125 	0.005 	0.00718578
0.05 	0.0534375 	0.005 	0.00716275
0.05 	0.0540625 	0.005 	0.00713896
0.05 	0.0546875 	0.005 	0.00711444
0.05 	0.0553125 	0.005 	0.00708919
0.05 	0.0559375 	0.005 	0.00706315
0.05 	0.0565625 	0.005 	0.00703624
0.05 	0.0571875 	0.005 	0.00700845
0.05 	0.0578125 	0.005 	0.00697981
0.05 	0.0584375 	0.005 	0.00695032
0.05 	0.0590625 	0.005 	0.00691991
0.05 	0.0596875 	0.005 	0.00688855
0.05 	0.0603125 	0.005 	0.00685629
0.05 	0.0609375 	0.005 	0.00682315
0.05 	0.0615625 	0.005 	0.00678909
0.05 	0.0621875 	0.005 	0.00675404
0.05 	0.0628125 	0.005 	0.00671801
0.05 	0.0634375 	0.005 	0.00668102
0.05 	0.0640625 	0.005 	0.00664305
0.05 	0.0646875 	0.005 	0.00660402
0.05 	0.0653125 	0.005 	0.00656391
0.05 	0.0659375 	0.005 	0.00652277
0.05 	0.0665625 	0.005 	0.00648062
0.05 	0.0671875 	0.005 	0.0064374
0.05 	0.0678125 	0.005 	0.00639313
0.05 	0.0684375 	0.005 	0.00634784
0.05 	0.0690625 	0.005 	0.00630154
0.05 	0.0696875 	0.005 	0.00625422
0.05 	0.0703125 	0.005 	0.00620586
0.05 	0.0709375 	0.005 	0.00615648
0.05 	0.0715625 	0.005 	0.00610609
0.05 	0.0721875 	0.005 	0.00605466
0.05 	0.0728125 	0.005 	0.00600223
0.05 	0.0734375 	0.005 	0.00594882
0.05 	0.0740625 	0.005 	0.00589444
0.05 	0.0746875 	0.005 	0.00583915
0.05 	0.0753125 	0.005 	0.00578297
0.05 	0.0759375 	0.005 	0.00572595
0.05 	0.0765625 	0.005 	0.00566813
0.05 	0.0771875 	0.005 	0.00560955
0.05 	0.0778125 	0.005 	0.00555024
0.05 	0.0784375 	0.005 	0.00549026
0.05 	0.0790625 	0.005 	0.00542964
0.05 	0.0796875 	0.005 	0.00536843
0.05 	0.0803125 	0.005 	0.00530669
0.05 	0.0809375 	0.005 	0.00524448
0.05 	0.0815625 	0.005 	0.00518189
0.05 	0.0821875 	0.005 	0.00511897
0.05 	0.0828125 	0.005 	0.00505583
0.05 	0.0834375 	0.005 	0.00499254
0.05 	0.0840625 	0.005 	0.00492919
0.05 	0.0846875 	0.005 	0.00486588
0.05 	0.0853125 	0.005 	0.00480269
0.05 	0.0859375 	0.005 	0.00473972
0.05 	0.0865625 	0.005 	0.00467706
0.05 	0.0871875 	0.005 	0.00461482
0.05 	0.0878125 	0.005 	0.0045531
0.05 	0.0884375 	0.005 	0.00449201
0.05 	0.0890625 	0.005 	0.00443166
0.05 	0.0896875 	0.005 	0.00437215
0.05 	0.0903125 	0.005 	0.0043136
0.05 	0.0909375 	0.005 	0.00425614
0.05 	0.0915625 	0.005 	0.00419988
0.05 	0.0921875 	0.005 	0.00414501
0.05 	0.0928125 	0.005 	0.00409173
0.05 	0.0934375 	0.005 	0.00404037
0.05 	0.0940625 	0.005 	0.00399142
0.05 	0.0946875 	0.005 	0.0039456
0.05 	0.0953125 	0.005 	0.00390397
0.05 	0.0959375 	0.005 	0.00386794
0.05 	0.0965625 	0.005 	0.00383916
0.05 	0.0971875 	0.005 	0.00381921
0.05 	0.0978125 	0.005 	0.00380892
0.05 	0.0984375 	0.005 	0.00380784
0.05 	0.0990625 	0.005 	0.00381518
0.05 	0.0996875 	0.005 	0.00382982
