0.05 	0.0003125 	0.005 	-0.00119442 	1.0218e-06 	0
0.05 	0.0009375 	0.005 	-0.00344496 	6.67614e-06 	0
0.05 	0.0015625 	0.005 	-0.00556141 	1.87049e-05 	0
0.05 	0.0021875 	0.005 	-0.00754835 	3.56967e-05 	0
0.05 	0.0028125 	0.005 	-0.00941033 	5.68191e-05 	0
0.05 	0.0034375 	0.005 	-0.011152 	8.15531e-05 	0
0.05 	0.0040625 	0.005 	-0.0127783 	0.00010941 	0
0.05 	0.0046875 	0.005 	-0.0142942 	0.000139945 	0
0.05 	0.0053125 	0.005 	-0.0157048 	0.000172773 	0
0.05 	0.0059375 	0.005 	-0.0170157 	0.000207566 	0
0.05 	0.0065625 	0.005 	-0.0182321 	0.000244041 	0
0.05 	0.0071875 	0.005 	-0.0193598 	0.000281967 	0
0.05 	0.0078125 	0.005 	-0.0204043 	0.00032115 	0
0.05 	0.0084375 	0.005 	-0.0213714 	0.00036144 	0
0.05 	0.0090625 	0.005 	-0.0222666 	0.000402719 	0
0.05 	0.0096875 	0.005 	-0.0230956 	0.000444904 	0
0.05 	0.0103125 	0.005 	-0.023864 	0.000487941 	0
0.05 	0.0109375 	0.005 	-0.0245772 	0.000531801 	0
0.05 	0.0115625 	0.005 	-0.0252405 	0.000576483 	0
0.05 	0.0121875 	0.005 	-0.0258591 	0.000622004 	0
0.05 	0.0128125 	0.005 	-0.026438 	0.000668402 	0
0.05 	0.0134375 	0.005 	-0.0269818 	0.000715731 	0
0.05 	0.0140625 	0.005 	-0.0274952 	0.00076406 	0
0.05 	0.0146875 	0.005 	-0.0279823 	0.000813474 	0
0.05 	0.0153125 	0.005 	-0.0284474 	0.000864065 	0
0.05 	0.0159375 	0.005 	-0.0288941 	0.00091594 	0
0.05 	0.0165625 	0.005 	-0.029326 	0.000969211 	0
0.05 	0.0171875 	0.005 	-0.0297463 	0.001024 	0
0.05 	0.0178125 	0.005 	-0.0301582 	0.00108044 	0
0.05 	0.0184375 	0.005 	-0.0305645 	0.00113866 	0
0.05 	0.0190625 	0.005 	-0.0309675 	0.00119879 	0
0.05 	0.0196875 	0.005 	-0.0313698 	0.001261 	0
0.05 	0.0203125 	0.005 	-0.0317734 	0.00132541 	0
0.05 	0.0209375 	0.005 	-0.0321802 	0.0013922 	0
0.05 	0.0215625 	0.005 	-0.0325919 	0.0014615 	0
0.05 	0.0221875 	0.005 	-0.0330102 	0.0015335 	0
0.05 	0.0228125 	0.005 	-0.0334363 	0.00160834 	0
0.05 	0.0234375 	0.005 	-0.0338715 	0.00168621 	0
0.05 	0.0240625 	0.005 	-0.0343169 	0.00176726 	0
0.05 	0.0246875 	0.005 	-0.0347734 	0.00185169 	0
0.05 	0.0253125 	0.005 	-0.0352421 	0.00193967 	0
0.05 	0.0259375 	0.005 	-0.0357235 	0.00203139 	0
0.05 	0.0265625 	0.005 	-0.0362185 	0.00212704 	0
0.05 	0.0271875 	0.005 	-0.0367275 	0.00222682 	0
0.05 	0.0278125 	0.005 	-0.0372512 	0.00233093 	0
0.05 	0.0284375 	0.005 	-0.03779 	0.00243959 	0
0.05 	0.0290625 	0.005 	-0.0383443 	0.00255301 	0
0.05 	0.0296875 	0.005 	-0.0389146 	0.0026714 	0
0.05 	0.0303125 	0.005 	-0.0395011 	0.00279501 	0
0.05 	0.0309375 	0.005 	-0.0401042 	0.00292407 	0
0.05 	0.0315625 	0.005 	-0.0407242 	0.00305883 	0
0.05 	0.0321875 	0.005 	-0.0413612 	0.00319953 	0
0.05 	0.0328125 	0.005 	-0.0420156 	0.00334645 	0
0.05 	0.0334375 	0.005 	-0.0426875 	0.00349985 	0
0.05 	0.0340625 	0.005 	-0.0433771 	0.00366001 	0
0.05 	0.0346875 	0.005 	-0.0440846 	0.00382723 	0
0.05 	0.0353125 	0.005 	-0.0448101 	0.00400179 	0
0.05 	0.0359375 	0.005 	-0.0455538 	0.00418402 	0
0.05 	0.0365625 	0.005 	-0.0463158 	0.00437421 	0
0.05 	0.0371875 	0.005 	-0.0470962 	0.00457271 	0
0.05 	0.0378125 	0.005 	-0.0478951 	0.00477985 	0
0.05 	0.0384375 	0.005 	-0.0487126 	0.00499597 	0
0.05 	0.0390625 	0.005 	-0.0495487 	0.00522143 	0
0.05 	0.0396875 	0.005 	-0.0504036 	0.0054566 	0
0.05 	0.0403125 	0.005 	-0.0512772 	0.00570184 	0
0.05 	0.0409375 	0.005 	-0.0521696 	0.00595755 	0
0.05 	0.0415625 	0.005 	-0.0530807 	0.0062241 	0
0.05 	0.0421875 	0.005 	-0.0540105 	0.00650191 	0
0.05 	0.0428125 	0.005 	-0.0549591 	0.00679137 	0
0.05 	0.0434375 	0.005 	-0.0559263 	0.0070929 	0
0.05 	0.0440625 	0.005 	-0.056912 	0.00740693 	0
0.05 	0.0446875 	0.005 	-0.0579161 	0.00773386 	0
0.05 	0.0453125 	0.005 	-0.0589385 	0.00807413 	0
0.05 	0.0459375 	0.005 	-0.059979 	0.00842818 	0
0.05 	0.0465625 	0.005 	-0.0610374 	0.00879642 	0
0.05 	0.0471875 	0.005 	-0.0621134 	0.0091793 	0
0.05 	0.0478125 	0.005 	-0.0632069 	0.00957725 	0
0.05 	0.0484375 	0.005 	-0.0643174 	0.00999069 	0
0.05 	0.0490625 	0.005 	-0.0654447 	0.01042 	0
0.05 	0.0496875 	0.005 	-0.0665884 	0.0108657 	0
0.05 	0.0503125 	0.005 	-0.067748 	0.0113281 	0
0.05 	0.0509375 	0.005 	-0.068923 	0.0118076 	0
0.05 	0.0515625 	0.005 	-0.070113 	0.0123047 	0
0.05 	0.0521875 	0.005 	-0.0713174 	0.0128195 	0
0.05 	0.0528125 	0.005 	-0.0725355 	0.0133526 	0
0.05 	0.0534375 	0.005 	-0.0737667 	0.0139041 	0
0.05 	0.0540625 	0.005 	-0.0750103 	0.0144744 	0
0.05 	0.0546875 	0.005 	-0.0762655 	0.0150637 	0
0.05 	0.0553125 	0.005 	-0.0775314 	0.0156722 	0
0.05 	0.0559375 	0.005 	-0.0788071 	0.0163001 	0
0.05 	0.0565625 	0.005 	-0.0800917 	0.0169475 	0
0.05 	0.0571875 	0.005 	-0.0813842 	0.0176143 	0
0.05 	0.0578125 	0.005 	-0.0826833 	0.0183007 	0
0.05 	0.0584375 	0.005 	-0.083988 	0.0190066 	0
0.05 	0.0590625 	0.005 	-0.0852968 	0.0197317 	0
0.05 	0.0596875 	0.005 	-0.0866085 	0.0204759 	0
0.05 	0.0603125 	0.005 	-0.0879216 	0.0212388 	0
0.05 	0.0609375 	0.005 	-0.0892344 	0.0220201 	0
0.05 	0.0615625 	0.005 	-0.0905451 	0.0228192 	0
0.05 	0.0621875 	0.005 	-0.091852 	0.0236355 	0
0.05 	0.0628125 	0.005 	-0.0931529 	0.0244683 	0
0.05 	0.0634375 	0.005 	-0.0944454 	0.0253166 	0
0.05 	0.0640625 	0.005 	-0.0957272 	0.0261795 	0
0.05 	0.0646875 	0.005 	-0.0969954 	0.0270557 	0
0.05 	0.0653125 	0.005 	-0.0982469 	0.027944 	0
0.05 	0.0659375 	0.005 	-0.0994781 	0.0288429 	0
0.05 	0.0665625 	0.005 	-0.100685 	0.0297506 	0
0.05 	0.0671875 	0.005 	-0.101863 	0.0306654 	0
0.05 	0.0678125 	0.005 	-0.103007 	0.031585 	0
0.05 	0.0684375 	0.005 	-0.104112 	0.0325074 	0
0.05 	0.0690625 	0.005 	-0.10517 	0.0334298 	0
0.05 	0.0696875 	0.005 	-0.106173 	0.0343497 	0
0.05 	0.0703125 	0.005 	-0.107113 	0.0352639 	0
0.05 	0.0709375 	0.005 	-0.107979 	0.0361692 	0
0.05 	0.0715625 	0.005 	-0.10876 	0.0370622 	0
0.05 	0.0721875 	0.005 	-0.10944 	0.0379389 	0
0.05 	0.0728125 	0.005 	-0.110005 	0.0387953 	0
0.05 	0.0734375 	0.005 	-0.110436 	0.039627 	0
0.05 	0.0740625 	0.005 	-0.110712 	0.0404293 	0
0.05 	0.0746875 	0.005 	-0.110809 	0.0411972 	0
0.05 	0.0753125 	0.005 	-0.110698 	0.0419254 	0
0.05 	0.0759375 	0.005 	-0.110348 	0.0426082 	0
0.05 	0.0765625 	0.005 	-0.109724 	0.0432397 	0
0.05 	0.0771875 	0.005 	-0.108784 	0.0438138 	0
0.05 	0.0778125 	0.005 	-0.107482 	0.0443238 	0
0.05 	0.0784375 	0.005 	-0.105767 	0.0447629 	0
0.05 	0.0790625 	0.005 	-0.103581 	0.0451242 	0
0.05 	0.0796875 	0.005 	-0.100858 	0.0454002 	0
0.05 	0.0803125 	0.005 	-0.0975276 	0.0455835 	0
0.05 	0.0809375 	0.005 	-0.0935095 	0.0456665 	0
0.05 	0.0815625 	0.005 	-0.0887163 	0.0456413 	0
0.05 	0.0821875 	0.005 	-0.0830523 	0.0455002 	0
0.05 	0.0828125 	0.005 	-0.0764132 	0.0452354 	0
0.05 	0.0834375 	0.005 	-0.0686858 	0.0448394 	0
0.05 	0.0840625 	0.005 	-0.0597481 	0.0443047 	0
0.05 	0.0846875 	0.005 	-0.0494693 	0.0436244 	0
0.05 	0.0853125 	0.005 	-0.0377099 	0.0427923 	0
0.05 	0.0859375 	0.005 	-0.0243221 	0.0418026 	0
0.05 	0.0865625 	0.005 	-0.00915055 	0.040651 	0
0.05 	0.0871875 	0.005 	0.00796747 	0.0393341 	0
0.05 	0.0878125 	0.005 	0.0272006 	0.0378504 	0
0.05 	0.0884375 	0.005 	0.0487222 	0.0362003 	0
0.05 	0.0890625 	0.005 	0.0727088 	0.0343866 	0
0.05 	0.0896875 	0.005 	0.0993383 	0.0324149 	0
0.05 	0.0903125 	0.005 	0.128787 	0.030294 	0
0.05 	0.0909375 	0.005 	0.161226 	0.0280368 	0
0.05 	0.0915625 	0.005 	0.196819 	0.0256601 	0
0.05 	0.0921875 	0.005 	0.235715 	0.0231856 	0
0.05 	0.0928125 	0.005 	0.278045 	0.0206398 	0
0.05 	0.0934375 	0.005 	0.323913 	0.0180548 	0
0.05 	0.0940625 	0.005 	0.373389 	0.0154678 	0
0.05 	0.0946875 	0.005 	0.426501 	0.0129211 	0
0.05 	0.0953125 	0.005 	0.48322 	0.0104619 	0
0.05 	0.0959375 	0.005 	0.543454 	0.00814075 	0
0.05 	0.0965625 	0.005 	0.607034 	0.00601097 	0
0.05 	0.0971875 	0.005 	0.673703 	0.00412653 	0
0.05 	0.0978125 	0.005 	0.743107 	0.00253866 	0
0.05 	0.0984375 	0.005 	0.81479 	0.0012919 	0
0.05 	0.0990625 	0.005 	0.888189 	0.000439731 	0
0.05 	0.0996875 	0.005 	0.962636 	6.03061e-05 	0
