/*--------------------------------*- C++ -*----------------------------------*\
  =========                 |
  \\      /  F ield         | OpenFOAM: The Open Source CFD Toolbox
   \\    /   O peration     | Website:  https://openfoam.org
    \\  /    A nd           | Version:  7
     \\/     M anipulation  |
\*---------------------------------------------------------------------------*/
FoamFile
{
    version     2.0;
    format      ascii;
    class       volScalarField;
    location    "0.2";
    object      p;
}
// * * * * * * * * * * * * * * * * * * * * * * * * * * * * * * * * * * * * * //

dimensions      [0 2 -2 0 0 0 0];

internalField   nonuniform List<scalar> 
25600
(
7.31537e-09
5.09564e-06
7.91606e-07
-1.54766e-05
-4.23907e-05
-7.83398e-05
-0.000121833
-0.000171432
-0.00022578
-0.000283618
-0.000343854
-0.00040549
-0.000467648
-0.00052954
-0.000590462
-0.000649814
-0.000707071
-0.000761763
-0.000813495
-0.00086191
-0.000906687
-0.000947561
-0.000984313
-0.00101674
-0.00104467
-0.00106798
-0.00108653
-0.00110021
-0.00110895
-0.0011127
-0.00111139
-0.001105
-0.00109349
-0.00107685
-0.00105509
-0.0010282
-0.000996203
-0.000959109
-0.000916938
-0.00086972
-0.000817493
-0.000760293
-0.000698158
-0.000631135
-0.000559275
-0.000482621
-0.000401218
-0.000315118
-0.000224384
-0.00012907
-2.92269e-05
7.50817e-05
0.000183783
0.000296809
0.000414101
0.000535594
0.000661213
0.000790877
0.000924508
0.00106202
0.00120333
0.00134833
0.00149692
0.00164902
0.00180454
0.00196336
0.00212537
0.00229044
0.00245847
0.00262933
0.00280287
0.00297895
0.00315744
0.0033382
0.00352106
0.00370586
0.00389243
0.00408061
0.0042702
0.00446104
0.00465292
0.00484564
0.00503901
0.00523281
0.00542685
0.00562091
0.00581474
0.00600812
0.00620083
0.00639262
0.00658325
0.00677247
0.00696004
0.00714572
0.00732926
0.00751042
0.00768894
0.00786456
0.00803703
0.0082061
0.00837154
0.00853309
0.00869051
0.00884357
0.00899203
0.00913568
0.00927429
0.00940765
0.00953555
0.00965779
0.00977419
0.00988458
0.00998881
0.0100867
0.0101782
0.0102631
0.0103413
0.0104128
0.0104774
0.0105352
0.010586
0.0106299
0.0106669
0.010697
0.0107202
0.0107366
0.0107463
0.0107494
0.0107459
0.010736
0.0107199
0.0106978
0.0106699
0.0106364
0.0105976
0.0105537
0.0105051
0.0104521
0.0103951
0.0103344
0.0102706
0.0102041
0.0101353
0.0100649
0.00999338
0.00992139
0.00984961
0.00977876
0.00970962
0.00964304
0.00957994
0.00952132
0.00946823
0.00942177
0.00938311
0.00935334
0.00933341
0.00932383
0.00932437
0.00933163
-5.16646e-06
-9.71906e-07
-6.18496e-06
-2.14546e-05
-4.53644e-05
-7.68703e-05
-0.000114988
-0.000158635
-0.00020668
-0.000258077
-0.000311831
-0.000367059
-0.000422957
-0.000478784
-0.000533893
-0.000587704
-0.000639688
-0.000689405
-0.000736457
-0.000780486
-0.000821182
-0.000858279
-0.000891535
-0.00092075
-0.000945757
-0.000966402
-0.000982554
-0.000994108
-0.00100097
-0.00100307
-0.00100034
-0.000992742
-0.000980241
-0.000962809
-0.000940437
-0.000913127
-0.000880882
-0.000843714
-0.00080164
-0.000754682
-0.000702869
-0.00064623
-0.000584796
-0.000518611
-0.000447719
-0.000372158
-0.000291969
-0.00020721
-0.000117937
-2.41996e-05
7.39525e-05
0.000176456
0.000283244
0.000394256
0.000509435
0.000628708
0.000751998
0.00087923
0.00101033
0.00114523
0.00128381
0.00142598
0.00157166
0.00172075
0.00187316
0.00202878
0.00218749
0.00234918
0.00251375
0.00268105
0.00285095
0.00302331
0.00319799
0.00337485
0.00355375
0.00373451
0.00391697
0.00410096
0.00428631
0.00447283
0.00466035
0.00484865
0.00503754
0.00522684
0.00541634
0.00560581
0.00579503
0.00598378
0.00617185
0.006359
0.00654499
0.00672957
0.00691252
0.0070936
0.00727259
0.00744923
0.00762329
0.0077945
0.00796264
0.00812746
0.00828873
0.00844622
0.00859969
0.00874891
0.00889367
0.00903376
0.00916896
0.00929908
0.00942389
0.00954323
0.00965692
0.0097648
0.00986674
0.00996257
0.0100522
0.0101354
0.0102123
0.0102826
0.0103464
0.0104036
0.0104541
0.0104979
0.0105352
0.0105658
0.0105898
0.0106073
0.0106184
0.0106231
0.0106216
0.0106141
0.0106006
0.0105814
0.0105567
0.0105267
0.0104916
0.0104518
0.0104075
0.0103592
0.0103071
0.0102516
0.0101931
0.0101322
0.0100693
0.0100049
0.00993957
0.00987391
0.00980856
0.00974418
0.00968152
0.00962135
0.00956449
0.00951182
0.00946424
0.00942267
0.009388
0.00936106
0.00934241
0.00933237
0.00933145
0.00933869
-2.00489e-06
2.41622e-06
-2.96051e-06
-1.75275e-05
-3.9574e-05
-6.82801e-05
-0.000102887
-0.000142474
-0.000186118
-0.000232883
-0.000281897
-0.000332354
-0.000383503
-0.000434686
-0.000485291
-0.000534754
-0.000582588
-0.000628352
-0.000671651
-0.00071215
-0.000749546
-0.000783561
-0.00081396
-0.000840542
-0.000863126
-0.00088156
-0.000895714
-0.000905477
-0.000910748
-0.000911446
-0.000907506
-0.000898878
-0.00088552
-0.000867399
-0.000844499
-0.000816815
-0.000784347
-0.000747099
-0.000705085
-0.000658327
-0.000606845
-0.000550661
-0.000489807
-0.000424323
-0.000354242
-0.000279596
-0.00020043
-0.0001168
-2.87573e-05
6.36532e-05
0.000160376
0.000261348
0.000366514
0.000475821
0.000589206
0.000706594
0.000827908
0.00095308
0.00108204
0.0012147
0.00135097
0.00149075
0.00163396
0.0017805
0.00193028
0.00208319
0.00223912
0.00239796
0.0025596
0.0027239
0.00289072
0.00305994
0.00323142
0.00340502
0.00358058
0.00375794
0.00393695
0.00411745
0.00429924
0.00448217
0.00466602
0.00485063
0.0050358
0.00522134
0.00540705
0.00559271
0.0057781
0.00596302
0.00614724
0.00633054
0.00651267
0.00669342
0.00687254
0.00704983
0.00722506
0.00739798
0.00756835
0.00773593
0.0079005
0.00806182
0.00821967
0.00837381
0.00852403
0.0086701
0.00881183
0.008949
0.0090814
0.00920885
0.00933113
0.00944809
0.00955956
0.0096654
0.00976545
0.00985958
0.00994767
0.0100296
0.0101053
0.0101747
0.0102378
0.0102945
0.0103447
0.0103885
0.0104259
0.0104569
0.0104816
0.0105
0.0105122
0.0105183
0.0105184
0.0105127
0.0105013
0.0104845
0.0104623
0.0104351
0.0104031
0.0103665
0.0103258
0.0102811
0.0102329
0.0101815
0.0101273
0.0100709
0.0100125
0.00995286
0.00989236
0.0098316
0.00977119
0.00971175
0.00965398
0.00959858
0.00954631
0.00949794
0.00945424
0.00941603
0.00938406
0.00935901
0.00934136
0.00933142
0.00933047
0.0093391
1.16014e-05
1.52509e-05
9.35762e-06
-5.00042e-06
-2.613e-05
-5.32596e-05
-8.56882e-05
-0.000122614
-0.000163202
-0.000206642
-0.000252167
-0.000299021
-0.000346531
-0.000394081
-0.000441096
-0.000487066
-0.000531525
-0.000574038
-0.000614237
-0.000651793
-0.000686405
-0.000717813
-0.000745785
-0.000770114
-0.000790618
-0.000807145
-0.000819564
-0.000827757
-0.000831625
-0.000831084
-0.000826063
-0.000816507
-0.000802374
-0.000783627
-0.000760245
-0.000732218
-0.000699539
-0.000662208
-0.000620239
-0.000573645
-0.000522439
-0.000466645
-0.000406297
-0.000341424
-0.000272052
-0.000198214
-0.000119959
-3.73331e-05
4.96208e-05
0.000140854
0.000236305
0.000335916
0.000439639
0.000547423
0.000659202
0.000774903
0.000894456
0.0010178
0.00114485
0.00127551
0.00140971
0.00154735
0.00168836
0.00183264
0.00198008
0.00213058
0.00228404
0.00244035
0.00259939
0.00276102
0.00292513
0.00309157
0.00326022
0.00343094
0.00360356
0.00377793
0.00395391
0.00413132
0.00431
0.00448976
0.00467042
0.00485179
0.00503371
0.00521597
0.00539837
0.0055807
0.00576276
0.00594434
0.00612523
0.00630518
0.00648397
0.00666139
0.00683721
0.00701123
0.0071832
0.0073529
0.00752009
0.00768454
0.00784603
0.00800434
0.00815925
0.00831051
0.00845794
0.0086013
0.00874042
0.00887508
0.00900509
0.00913025
0.00925037
0.00936529
0.00947486
0.00957894
0.00967738
0.00977005
0.00985683
0.00993764
0.0100124
0.010081
0.0101435
0.0101997
0.0102497
0.0102935
0.010331
0.0103624
0.0103876
0.0104067
0.0104198
0.0104271
0.0104285
0.0104244
0.0104147
0.0103998
0.0103798
0.0103549
0.0103254
0.0102916
0.0102537
0.0102121
0.0101671
0.010119
0.0100684
0.0100156
0.00996095
0.00990508
0.00984845
0.00979158
0.00973506
0.00967947
0.00962546
0.00957368
0.00952481
0.00947955
0.00943859
0.00940264
0.00937239
0.0093485
0.00933141
0.00932154
0.00932053
0.0093296
3.54912e-05
3.67189e-05
2.9375e-05
1.44795e-05
-6.50665e-06
-3.28508e-05
-6.39136e-05
-9.89618e-05
-0.000137259
-0.000178102
-0.000220792
-0.00026467
-0.000309118
-0.000353554
-0.000397459
-0.000440361
-0.000481812
-0.000521418
-0.000558822
-0.0005937
-0.000625767
-0.000654774
-0.000680493
-0.00070272
-0.00072128
-0.00073602
-0.000746802
-0.000753511
-0.000756047
-0.000754324
-0.00074827
-0.000737822
-0.000722937
-0.00070358
-0.000679727
-0.00065136
-0.000618468
-0.000581052
-0.000539121
-0.000492678
-0.000441733
-0.000386314
-0.000326449
-0.000262155
-0.000193459
-0.000120399
-4.3022e-05
3.86366e-05
0.000124537
0.000214626
0.000308844
0.000407142
0.000509473
0.000615782
0.000726001
0.000840063
0.000957908
0.00107947
0.00120467
0.0013334
0.0014656
0.00160118
0.00174006
0.00188213
0.00202731
0.00217548
0.00232656
0.00248043
0.00263697
0.00279604
0.00295752
0.0031213
0.00328723
0.00345517
0.00362497
0.00379649
0.00396956
0.00414404
0.00431973
0.00449647
0.00467408
0.00485238
0.0050312
0.00521034
0.00538959
0.00556877
0.00574767
0.00592609
0.00610381
0.00628059
0.00645623
0.00663051
0.00680322
0.00697414
0.00714305
0.00730972
0.00747392
0.00763542
0.00779403
0.00794951
0.00810165
0.00825022
0.00839502
0.00853585
0.00867253
0.00880484
0.0089326
0.00905561
0.0091737
0.00928672
0.00939452
0.00949695
0.00959388
0.00968518
0.00977075
0.0098505
0.00992435
0.00999224
0.0100541
0.0101099
0.0101597
0.0102034
0.010241
0.0102727
0.0102984
0.0103182
0.0103321
0.0103404
0.0103431
0.0103403
0.0103323
0.0103191
0.010301
0.0102783
0.010251
0.0102196
0.0101844
0.0101455
0.0101034
0.0100584
0.0100109
0.0099613
0.00991001
0.0098575
0.00980425
0.00975078
0.00969761
0.00964532
0.00959448
0.0095457
0.0094996
0.0094568
0.00941795
0.00938366
0.00935455
0.00933125
0.00931422
0.00930395
0.00930208
0.00930993
6.88651e-05
6.62429e-05
5.64716e-05
4.02526e-05
1.86565e-05
-7.65529e-06
-3.80772e-05
-7.19687e-05
-0.00010869
-0.000147597
-0.000188086
-0.000229575
-0.000271494
-0.000313327
-0.000354593
-0.000394841
-0.00043367
-0.000470711
-0.000505625
-0.000538105
-0.000567881
-0.000594709
-0.000618367
-0.000638661
-0.000655425
-0.000668503
-0.00067776
-0.00068308
-0.000684364
-0.000681527
-0.000674494
-0.000663201
-0.000647602
-0.000627664
-0.000603357
-0.000574658
-0.000541559
-0.000504059
-0.000462156
-0.000415849
-0.000365154
-0.000310095
-0.000250687
-0.000186944
-0.000118897
-4.65847e-05
2.99559e-05
0.000110692
0.000195579
0.000284561
0.00037759
0.000474626
0.000575618
0.000680504
0.00078922
0.000901709
0.00101791
0.00113776
0.00126116
0.00138804
0.00151831
0.00165191
0.00178874
0.0019287
0.0020717
0.00221765
0.00236645
0.00251798
0.00267211
0.00282873
0.00298772
0.00314895
0.00331228
0.00347758
0.0036447
0.00381349
0.00398381
0.0041555
0.00432836
0.00450223
0.00467695
0.00485235
0.00502825
0.00520444
0.00538073
0.00555694
0.00573287
0.00590831
0.00608305
0.00625687
0.00642955
0.00660089
0.00677068
0.00693871
0.00710476
0.0072686
0.00743001
0.00758877
0.00774469
0.00789754
0.00804709
0.00819316
0.00833552
0.00847401
0.00860841
0.00873854
0.00886421
0.00898523
0.00910144
0.00921269
0.00931884
0.00941975
0.00951528
0.00960531
0.00968975
0.00976851
0.00984152
0.00990871
0.00997004
0.0100255
0.010075
0.0101186
0.0101564
0.0101883
0.0102144
0.0102347
0.0102495
0.0102587
0.0102624
0.0102609
0.0102543
0.0102427
0.0102263
0.0102055
0.0101803
0.0101511
0.0101181
0.0100817
0.0100422
0.00999985
0.0099551
0.00990832
0.00985992
0.00981033
0.00976001
0.00970943
0.00965911
0.00960956
0.00956133
0.00951497
0.00947104
0.00943011
0.00939276
0.00935955
0.00933104
0.00930779
0.00929027
0.00927899
0.0092754
0.0092806
0.000110388
0.000102827
8.97975e-05
7.15676e-05
4.867e-05
2.17216e-05
-8.72226e-06
-4.21269e-05
-7.79061e-05
-0.00011551
-0.000154406
-0.000194061
-0.000233982
-0.000273704
-0.000312781
-0.000350802
-0.000387397
-0.000422222
-0.00045496
-0.00048533
-0.000513075
-0.000537956
-0.000559763
-0.000578314
-0.000593442
-0.000605
-0.000612856
-0.000616895
-0.00061702
-0.000613144
-0.000605195
-0.000593111
-0.000576845
-0.00055636
-0.000531622
-0.000502612
-0.00046932
-0.000431736
-0.000389854
-0.000343677
-0.00029322
-0.000238497
-0.000179517
-0.000116298
-4.88721e-05
2.27283e-05
9.84748e-05
0.000178331
0.000262248
0.000350174
0.000442073
0.000537902
0.000637608
0.00074113
0.000848412
0.000959402
0.00107404
0.00119224
0.00131393
0.00143903
0.00156748
0.00169918
0.00183406
0.001972
0.00211294
0.00225677
0.0024034
0.0025527
0.00270456
0.00285885
0.00301547
0.00317429
0.00333517
0.00349798
0.00366256
0.0038288
0.00399653
0.00416558
0.00433578
0.00450697
0.004679
0.00485168
0.00502483
0.00519826
0.00537179
0.00554523
0.0057184
0.00589107
0.00606305
0.0062341
0.00640404
0.00657266
0.00673976
0.00690511
0.00706851
0.00722973
0.00738857
0.00754481
0.00769825
0.00784867
0.00799586
0.00813961
0.00827974
0.00841607
0.00854839
0.00867651
0.00880025
0.00891945
0.00903393
0.00914357
0.00924821
0.00934771
0.00944195
0.00953083
0.00961423
0.00969208
0.00976432
0.00983087
0.00989169
0.00994674
0.00999604
0.0100396
0.0100774
0.0101095
0.010136
0.0101568
0.0101722
0.0101822
0.0101869
0.0101865
0.0101811
0.0101709
0.0101561
0.0101369
0.0101135
0.0100862
0.0100552
0.010021
0.00998366
0.00994365
0.00990128
0.00985693
0.00981099
0.00976387
0.009716
0.00966783
0.00961983
0.0095725
0.00952633
0.00948182
0.0094395
0.00939986
0.00936343
0.00933074
0.00930229
0.00927858
0.00926005
0.00924718
0.0092411
0.00924254
0.000158585
0.000145319
0.000128408
0.000107579
8.28131e-05
5.46504e-05
2.35894e-05
-9.87909e-06
-4.52829e-05
-8.21392e-05
-0.000119964
-0.000158299
-0.000196705
-0.000234757
-0.000272061
-0.000308246
-0.000342968
-0.000375907
-0.000406774
-0.000435309
-0.000461265
-0.000484422
-0.000504583
-0.000521571
-0.000535224
-0.000545402
-0.000551981
-0.000554848
-0.000553907
-0.000549074
-0.000540277
-0.000527458
-0.00051057
-0.000489573
-0.000464434
-0.000435135
-0.000401662
-0.000363999
-0.000322138
-0.000276088
-0.000225857
-0.000171449
-0.000112873
-5.01536e-05
1.66803e-05
8.76062e-05
0.000162595
0.000241606
0.000324593
0.000411515
0.000502337
0.000597014
0.000695487
0.000797705
0.000903621
0.00101318
0.00112631
0.00124295
0.00136301
0.00148642
0.00161312
0.00174302
0.00187603
0.00201207
0.00215104
0.00229287
0.00243743
0.00258462
0.00273432
0.00288642
0.0030408
0.00319734
0.0033559
0.00351636
0.00367857
0.0038424
0.00400768
0.00417427
0.00434198
0.00451067
0.00468017
0.00485031
0.0050209
0.00519177
0.00536273
0.0055336
0.00570419
0.0058743
0.00604371
0.00621221
0.00637961
0.00654572
0.00671033
0.00687322
0.00703418
0.007193
0.00734947
0.0075034
0.00765456
0.00780275
0.00794777
0.00808941
0.0082275
0.00836185
0.00849226
0.00861855
0.00874053
0.00885806
0.00897097
0.00907913
0.00918239
0.00928061
0.00937368
0.00946149
0.00954394
0.00962097
0.00969249
0.00975844
0.00981878
0.00987349
0.00992257
0.00996603
0.0100039
0.0100362
0.0100629
0.0100842
0.0101001
0.0101108
0.0101163
0.0101169
0.0101125
0.0101035
0.01009
0.0100723
0.0100504
0.0100248
0.0099956
0.00996315
0.00992774
0.00988969
0.00984934
0.00980704
0.00976316
0.0097181
0.00967225
0.00962603
0.00957989
0.00953427
0.00948966
0.0094465
0.00940526
0.00936641
0.00933041
0.00929773
0.00926883
0.00924417
0.00922414
0.00920918
0.00919998
0.00919688
0.000212079
0.000192626
0.000171343
0.000147466
0.000120365
9.04978e-05
5.83445e-05
2.43059e-05
-1.12153e-05
-4.7793e-05
-8.5016e-05
-0.000122484
-0.000159803
-0.000196594
-0.000232508
-0.000267212
-0.000300389
-0.000331751
-0.000361035
-0.000387991
-0.000412393
-0.000434041
-0.000452749
-0.000468347
-0.000480681
-0.00048962
-0.000495043
-0.000496844
-0.000494932
-0.000489222
-0.000479647
-0.000466154
-0.000448692
-0.000427222
-0.000401715
-0.000372151
-0.000338509
-0.000300771
-0.000258937
-0.000213012
-0.000162993
-0.000108883
-5.06967e-05
1.15434e-05
7.78164e-05
0.000148102
0.000222367
0.000300566
0.000382665
0.00046863
0.000558423
0.000651994
0.000749291
0.000850269
0.000954883
0.00106308
0.00117478
0.00128991
0.00140842
0.00153023
0.00165527
0.00178345
0.00191469
0.00204891
0.00218603
0.00232594
0.00246855
0.00261374
0.0027614
0.00291143
0.0030637
0.00321809
0.00337447
0.00353272
0.0036927
0.00385426
0.00401727
0.00418154
0.00434693
0.00451328
0.00468043
0.0048482
0.00501641
0.0051849
0.00535348
0.00552197
0.00569019
0.00585792
0.00602495
0.0061911
0.00635617
0.00651997
0.00668229
0.00684291
0.00700163
0.00715826
0.00731257
0.00746438
0.00761346
0.00775962
0.00790266
0.00804238
0.0081786
0.00831115
0.00843982
0.00856444
0.00868483
0.00880085
0.00891233
0.00901915
0.00912114
0.0092182
0.0093102
0.00939704
0.00947864
0.0095549
0.00962577
0.00969117
0.00975107
0.00980546
0.00985432
0.00989768
0.00993554
0.00996794
0.00999493
0.0100166
0.010033
0.0100442
0.0100504
0.0100518
0.0100484
0.0100404
0.010028
0.0100115
0.00999095
0.00996671
0.00993901
0.0099081
0.00987429
0.00983788
0.00979921
0.00975861
0.00971643
0.00967303
0.00962878
0.00958409
0.00953937
0.00949503
0.00945152
0.00940925
0.00936864
0.00933012
0.00929409
0.00926098
0.00923119
0.00920513
0.00918317
0.0091657
0.00915291
0.00914472
0.000269639
0.000243693
0.000217721
0.000190438
0.000160611
0.000128657
9.49983e-05
5.99647e-05
2.391e-05
-1.28111e-05
-4.9848e-05
-8.68481e-05
-0.000123462
-0.000159363
-0.000194239
-0.000227785
-0.000259724
-0.000289798
-0.00031776
-0.000343381
-0.000366459
-0.000386804
-0.000404242
-0.000418616
-0.000429783
-0.000437618
-0.000442007
-0.000442848
-0.000440055
-0.000433551
-0.000423273
-0.000409165
-0.000391178
-0.000369279
-0.00034344
-0.000313632
-0.000279835
-0.000242037
-0.000200238
-0.000154432
-0.000104613
-5.07907e-05
7.01838e-06
6.88014e-05
0.000134542
0.000204215
0.000277783
0.000355207
0.000436461
0.000521514
0.000610322
0.000702835
0.000799012
0.000898812
0.00100219
0.00110908
0.00121941
0.00133312
0.00145016
0.00157044
0.0016939
0.00182045
0.00195001
0.00208252
0.00221788
0.00235599
0.00249675
0.00264005
0.00278579
0.00293387
0.00308415
0.00323651
0.00339085
0.00354702
0.00370492
0.00386437
0.00402524
0.00418736
0.00435058
0.00451476
0.00467973
0.0048453
0.00501131
0.00517759
0.00534398
0.00551028
0.0056763
0.00584183
0.00600669
0.00617069
0.00633362
0.00649531
0.00665553
0.00681408
0.00697077
0.00712539
0.00727774
0.00742762
0.00757482
0.00771913
0.00786037
0.00799836
0.0081329
0.00826382
0.00839092
0.00851402
0.00863298
0.00874763
0.00885783
0.00896343
0.00906429
0.00916029
0.00925133
0.0093373
0.00941811
0.00949369
0.00956395
0.00962885
0.00968835
0.00974242
0.00979108
0.00983433
0.00987218
0.00990466
0.00993182
0.00995374
0.00997051
0.00998224
0.00998904
0.00999105
0.00998841
0.00998128
0.00996985
0.00995433
0.00993492
0.00991185
0.00988537
0.00985573
0.00982323
0.00978817
0.00975086
0.00971163
0.00967079
0.00962868
0.00958566
0.00954211
0.00949841
0.00945495
0.00941213
0.00937033
0.00932993
0.00929132
0.00925486
0.00922093
0.00918988
0.00916205
0.0091378
0.00911746
0.00910075
0.00908712
0.000330123
0.000297566
0.000266692
0.00023573
0.000202888
0.00016852
0.000133012
9.66418e-05
5.96906e-05
2.24568e-05
-1.47534e-05
-5.16322e-05
-8.78889e-05
-0.000123234
-0.000157384
-0.000190076
-0.000221065
-0.000250113
-0.000276997
-0.000301516
-0.000323481
-0.000342716
-0.000359061
-0.000372373
-0.00038252
-0.000389382
-0.000392854
-0.000392841
-0.000389261
-0.000382046
-0.000371134
-0.00035647
-0.000338012
-0.00031573
-0.000289592
-0.000259566
-0.000225635
-0.000187795
-0.000146034
-0.000100344
-5.07209e-05
2.82151e-06
6.02705e-05
0.000121619
0.000186851
0.000255932
0.00032883
0.000405518
0.000485971
0.000570151
0.000658014
0.000749521
0.000844636
0.000943317
0.00104551
0.00115116
0.00126019
0.00137256
0.0014882
0.00160703
0.00172899
0.00185399
0.00198198
0.00211286
0.00224656
0.00238297
0.00252198
0.00266351
0.00280745
0.00295369
0.0031021
0.00325258
0.003405
0.00355925
0.00371519
0.00387267
0.00403155
0.00419167
0.0043529
0.00451507
0.00467801
0.00484155
0.00500553
0.00516979
0.00533415
0.00549844
0.00566244
0.00582598
0.00598885
0.00615088
0.00631187
0.00647163
0.00662994
0.00678662
0.00694146
0.00709428
0.00724485
0.00739299
0.00753848
0.00768114
0.00782077
0.0079572
0.00809023
0.00821968
0.00834537
0.00846713
0.0085848
0.00869823
0.00880728
0.00891179
0.00901164
0.0091067
0.00919687
0.00928206
0.00936217
0.00943713
0.00950685
0.00957128
0.0096304
0.00968419
0.00973265
0.00977578
0.00981359
0.00984611
0.0098734
0.00989554
0.00991261
0.00992473
0.00993199
0.00993454
0.00993251
0.00992608
0.00991542
0.00990073
0.00988221
0.00986008
0.00983458
0.00980597
0.00977451
0.00974052
0.00970427
0.00966609
0.00962627
0.00958511
0.00954297
0.00950019
0.00945714
0.00941419
0.0093717
0.00933
0.00928944
0.00925037
0.00921313
0.00917803
0.00914539
0.00911548
0.00908865
0.00906519
0.00904431
0.00902505
0.000392558
0.000353348
0.000317457
0.000282649
0.000246555
0.000209508
0.000171881
0.000133876
9.57201e-05
5.76634e-05
1.99717e-05
-1.7103e-05
-5.33083e-05
-8.83871e-05
-0.000122098
-0.000154214
-0.000184509
-0.000212774
-0.000238813
-0.000262444
-0.000283493
-0.000301802
-0.000317224
-0.000329628
-0.000338893
-0.000344909
-0.000347578
-0.000346813
-0.00034254
-0.000334696
-0.00032322
-0.000308064
-0.000289192
-0.00026657
-0.000240165
-0.000209948
-0.000175909
-0.00013804
-9.63225e-05
-5.0748e-05
-1.32267e-06
5.19448e-05
0.000109051
0.000169986
0.000234724
0.000303236
0.000375496
0.000451483
0.000531169
0.000614514
0.00070148
0.000792032
0.00088614
0.000983758
0.00108483
0.0011893
0.0012971
0.0014082
0.00152251
0.00163997
0.00176051
0.00188406
0.00201056
0.00213992
0.00227205
0.00240685
0.00254423
0.0026841
0.00282635
0.00297086
0.00311753
0.00326624
0.00341688
0.00356934
0.00372346
0.00387911
0.00403615
0.00419443
0.00435381
0.00451413
0.0046752
0.00483688
0.004999
0.00516142
0.00532394
0.00548638
0.00564855
0.00581026
0.00597133
0.00613158
0.00629081
0.00644883
0.00660543
0.00676041
0.0069136
0.0070648
0.00721378
0.00736036
0.00750434
0.00764552
0.00778372
0.00791875
0.00805044
0.0081786
0.00830304
0.0084236
0.00854013
0.00865249
0.00876051
0.00886406
0.008963
0.00905723
0.00914664
0.00923114
0.00931063
0.00938502
0.00945425
0.00951827
0.00957704
0.00963057
0.00967883
0.00972183
0.00975958
0.00979212
0.00981949
0.00984178
0.00985909
0.0098715
0.00987912
0.00988208
0.00988053
0.00987464
0.00986458
0.00985054
0.00983272
0.00981132
0.00978658
0.00975875
0.00972809
0.00969489
0.00965944
0.009622
0.00958288
0.00954237
0.00950078
0.00945846
0.00941573
0.00937295
0.00933044
0.0092885
0.00924746
0.00920761
0.00916926
0.0091327
0.00909819
0.00906595
0.00903631
0.00900953
0.00898436
0.00895939
0.000456074
0.000410237
0.000369291
0.000330513
0.000291004
0.000251088
0.00021111
0.000171222
0.000131605
9.24651e-05
5.40146e-05
1.647e-05
-1.99479e-05
-5.50257e-05
-8.85583e-05
-0.000120341
-0.000150178
-0.000177885
-0.000203291
-0.000226231
-0.000246549
-0.000264103
-0.000278762
-0.000290405
-0.000298922
-0.000304212
-0.000306188
-0.000304773
-0.000299898
-0.000291503
-0.000279534
-0.00026395
-0.000244719
-0.000221799
-0.000195161
-0.000164788
-0.000130667
-9.27789e-05
-5.11108e-05
-5.66091e-06
4.35668e-05
9.65698e-05
0.000153345
0.000213877
0.000278139
0.000346104
0.000417758
0.000493078
0.00057203
0.000654576
0.000740689
0.00083034
0.000923494
0.0010201
0.0011201
0.00122346
0.00133011
0.00144
0.00155306
0.00166922
0.00178843
0.00191061
0.00203571
0.00216363
0.00229428
0.00242758
0.00256344
0.00270176
0.00284243
0.00298534
0.00313038
0.00327745
0.00342645
0.00357724
0.00372968
0.00388364
0.00403899
0.00419558
0.00435327
0.00451188
0.00467125
0.00483123
0.00499167
0.0051524
0.00531324
0.00547401
0.00563452
0.00579459
0.00595405
0.0061127
0.00627035
0.00642681
0.00658187
0.00673536
0.00688708
0.00703683
0.00718441
0.00732961
0.00747224
0.00761212
0.00774906
0.00788288
0.00801339
0.0081404
0.00826375
0.00838327
0.00849881
0.00861022
0.00871735
0.00882006
0.00891821
0.00901172
0.00910046
0.00918435
0.00926329
0.00933719
0.00940598
0.00946963
0.0095281
0.00958137
0.00962944
0.00967231
0.00970998
0.0097425
0.00976992
0.00979232
0.00980978
0.0098224
0.00983027
0.00983354
0.00983234
0.00982685
0.00981723
0.00980367
0.00978635
0.00976548
0.00974129
0.00971402
0.00968393
0.00965128
0.00961634
0.00957939
0.00954068
0.00950052
0.00945919
0.00941702
0.00937432
0.0093314
0.00928856
0.00924608
0.00920425
0.00916334
0.00912363
0.00908535
0.00904874
0.00901397
0.00898134
0.00895113
0.00892158
0.00889091
0.000519909
0.000467529
0.000421508
0.000378693
0.000335668
0.00029273
0.000250219
0.000208254
0.000166963
0.00012651
8.7067e-05
4.88218e-05
1.19529e-05
-2.33632e-05
-5.69446e-05
-8.86146e-05
-0.000118208
-0.000145564
-0.00017053
-0.00019296
-0.000212719
-0.00022968
-0.000243723
-0.000254743
-0.000262639
-0.00026732
-0.000268711
-0.000266743
-0.000261351
-0.000252482
-0.000240093
-0.000224145
-0.000204601
-0.000181426
-0.000154598
-0.000124101
-8.99178e-05
-5.20265e-05
-1.04203e-05
3.48963e-05
8.39265e-05
0.000136675
0.000193128
0.000253264
0.000317065
0.000384512
0.000455588
0.000530266
0.000608514
0.000690304
0.000775611
0.000864408
0.000956654
0.0010523
0.0011513
0.0012536
0.00135916
0.00146791
0.00157979
0.00169473
0.00181269
0.00193359
0.00205737
0.00218395
0.00231322
0.00244513
0.00257956
0.00271644
0.00285563
0.00299705
0.00314059
0.00328616
0.00343363
0.00358288
0.00373378
0.0038862
0.00404
0.00419505
0.00435119
0.00450824
0.00466607
0.00482452
0.00498343
0.00514265
0.00530198
0.00546125
0.00562028
0.00577889
0.00593691
0.00609413
0.00625038
0.00640546
0.00655917
0.00671134
0.00686177
0.00701026
0.0071566
0.0073006
0.00744207
0.00758082
0.00771668
0.00784944
0.00797892
0.00810495
0.00822736
0.00834598
0.00846067
0.00857128
0.00867764
0.00877962
0.00887711
0.00896999
0.00905817
0.00914153
0.00921999
0.00929346
0.00936187
0.0094252
0.00948339
0.00953644
0.00958433
0.00962706
0.00966464
0.00969711
0.00972454
0.00974699
0.00976454
0.00977728
0.00978532
0.00978878
0.00978781
0.00978258
0.00977325
0.00976001
0.00974302
0.0097225
0.00969866
0.00967174
0.00964199
0.00960965
0.00957499
0.00953825
0.00949971
0.00945962
0.00941829
0.009376
0.00933305
0.00928971
0.00924627
0.00920297
0.00916009
0.00911787
0.00907655
0.00903635
0.00899744
0.00895998
0.00892426
0.00889052
0.00885658
0.00882026
0.000583387
0.000524566
0.000473499
0.000426621
0.000380004
0.000333933
0.000288761
0.000244558
0.000201414
0.000159455
0.000118828
7.96765e-05
4.21459e-05
6.38797e-06
-2.7443e-05
-5.92017e-05
-8.8747e-05
-0.000115938
-0.00014064
-0.00016273
-0.000182089
-0.000198603
-0.000212171
-0.000222695
-0.000230089
-0.000234274
-0.000235183
-0.000232752
-0.000226927
-0.000217663
-0.000204924
-0.000188669
-0.000168861
-0.000145477
-0.000118501
-8.79087e-05
-5.36795e-05
-1.58049e-05
2.57193e-05
7.08984e-05
0.000119736
0.00017223
0.000228362
0.000288114
0.000351473
0.000418423
0.000488944
0.000563007
0.000640586
0.000721658
0.000806204
0.000894192
0.000985576
0.00108031
0.00117836
0.00127968
0.00138421
0.00149188
0.00160265
0.00171645
0.00183324
0.00195294
0.00207549
0.00220081
0.00232881
0.00245941
0.00259253
0.00272806
0.0028659
0.00300594
0.00314811
0.00329229
0.00343836
0.00358621
0.00373569
0.00388671
0.00403911
0.00419276
0.00434749
0.00450315
0.00465959
0.00481666
0.00497422
0.00513208
0.00529006
0.005448
0.00560572
0.00576305
0.0059198
0.00607578
0.0062308
0.00638467
0.00653722
0.00668824
0.00683755
0.00698495
0.00713023
0.0072732
0.00741368
0.00755148
0.00768641
0.00781828
0.0079469
0.00807211
0.00819372
0.0083116
0.00842558
0.0085355
0.00864122
0.0087426
0.00883952
0.00893189
0.00901959
0.00910252
0.00918057
0.00925367
0.00932177
0.00938481
0.00944277
0.00949561
0.00954333
0.00958591
0.00962339
0.0096558
0.0096832
0.00970565
0.00972323
0.00973602
0.00974412
0.00974768
0.00974683
0.00974174
0.00973257
0.00971949
0.00970267
0.00968232
0.00965865
0.00963188
0.00960225
0.00957
0.00953538
0.00949864
0.00946001
0.00941976
0.00937817
0.00933551
0.00929205
0.00924804
0.00920374
0.00915939
0.00911522
0.00907148
0.00902836
0.00898605
0.0089447
0.00890443
0.00886552
0.00882822
0.00878991
0.00874804
0.00064588
0.000580753
0.000524709
0.00047376
0.000423503
0.000374237
0.000326301
0.000279733
0.000234591
0.000190975
0.000148991
0.000108754
7.03851e-05
3.40081e-05
-2.54267e-07
-3.22803e-05
-6.19485e-05
-8.91401e-05
-0.000113742
-0.000135646
-0.00015475
-0.000170958
-0.000184178
-0.000194327
-0.000201331
-0.000205126
-0.000205648
-0.000202842
-0.000196666
-0.000187085
-0.000174057
-0.000157547
-0.00013753
-0.000113986
-8.68956e-05
-5.62351e-05
-2.19877e-05
1.58491e-05
5.72797e-05
0.000102315
0.000150958
0.000203196
0.00025901
0.00031839
0.000381325
0.000447798
0.000517784
0.000591257
0.0006682
0.000748596
0.000832422
0.000919639
0.00101021
0.00110409
0.00120125
0.00130164
0.00140519
0.00151185
0.00162158
0.00173432
0.00185002
0.0019686
0.00209001
0.00221416
0.00234098
0.00247038
0.00260228
0.00273657
0.00287316
0.00301195
0.00315286
0.00329577
0.00344056
0.00358713
0.00373535
0.0038851
0.00403624
0.00418863
0.0043421
0.00449651
0.00465172
0.00480758
0.00496393
0.00512059
0.0052774
0.00543417
0.00559075
0.00574697
0.00590262
0.00605752
0.00621149
0.00636434
0.00651588
0.00666594
0.00681431
0.00696079
0.00710518
0.0072473
0.00738696
0.00752397
0.00765814
0.00778927
0.00791719
0.00804172
0.0081627
0.00827997
0.00839337
0.00850274
0.00860794
0.00870883
0.00880531
0.00889727
0.00898458
0.00906715
0.00914487
0.00921768
0.00928551
0.00934833
0.00940608
0.00945874
0.00950629
0.00954874
0.0095861
0.00961843
0.00964576
0.00966817
0.00968571
0.00969848
0.00970658
0.00971014
0.00970931
0.00970425
0.0096951
0.00968204
0.00966524
0.00964489
0.0096212
0.0095944
0.0095647
0.00953233
0.00949755
0.00946057
0.00942164
0.00938101
0.00933893
0.00929566
0.00925145
0.00920654
0.00916116
0.00911554
0.00906989
0.00902443
0.00897935
0.00893479
0.00889087
0.00884769
0.00880554
0.00876467
0.00872204
0.00867477
0.000706831
0.000635563
0.000574611
0.00051961
0.00046571
0.000413198
0.000362422
0.000313395
0.000266146
0.000220741
0.000177257
0.000135787
9.64263e-05
5.927e-05
2.4416e-05
-8.03266e-06
-3.79765e-05