/*--------------------------------*- C++ -*----------------------------------*\
  =========                 |
  \\      /  F ield         | OpenFOAM: The Open Source CFD Toolbox
   \\    /   O peration     | Website:  https://openfoam.org
    \\  /    A nd           | Version:  7
     \\/     M anipulation  |
\*---------------------------------------------------------------------------*/
FoamFile
{
    version     2.0;
    format      ascii;
    class       surfaceScalarField;
    location    "0.2";
    object      phi;
}
// * * * * * * * * * * * * * * * * * * * * * * * * * * * * * * * * * * * * * //

dimensions      [0 3 -1 0 0 0 0];

internalField   nonuniform List<scalar> 
50880
(
7.41559e-12
-7.42473e-12
3.04925e-11
-2.30745e-11
5.99908e-11
-2.94971e-11
8.72542e-11
-2.7263e-11
1.07411e-10
-2.01587e-11
1.17781e-10
-1.03759e-11
1.16852e-10
9.32503e-13
1.03821e-10
1.30328e-11
7.83463e-11
2.54716e-11
4.04099e-11
3.79385e-11
-9.82305e-12
5.02322e-11
-7.20262e-11
6.2204e-11
-1.45794e-10
7.37637e-11
-2.30628e-10
8.48362e-11
-3.26001e-10
9.53745e-11
-4.3136e-10
1.05358e-10
-5.46129e-10
1.14769e-10
-6.69732e-10
1.23602e-10
-8.01593e-10
1.31861e-10
-9.41137e-10
1.39547e-10
-1.08781e-09
1.4667e-10
-1.24106e-09
1.53245e-10
-1.40034e-09
1.59285e-10
-1.56516e-09
1.64809e-10
-1.73499e-09
1.69833e-10
-1.90936e-09
1.74372e-10
-2.08781e-09
1.78446e-10
-2.26988e-09
1.82074e-10
-2.45515e-09
1.85269e-10
-2.6432e-09
1.88054e-10
-2.83365e-09
1.90447e-10
-3.0261e-09
1.92459e-10
-3.22021e-09
1.94108e-10
-3.41563e-09
1.95414e-10
-3.61202e-09
1.96394e-10
-3.80907e-09
1.97053e-10
-4.00648e-09
1.97408e-10
-4.20396e-09
1.97477e-10
-4.40122e-09
1.97266e-10
-4.59801e-09
1.96786e-10
-4.79407e-09
1.96053e-10
-4.98914e-09
1.95078e-10
-5.18301e-09
1.93862e-10
-5.37542e-09
1.92415e-10
-5.56617e-09
1.90748e-10
-5.75504e-09
1.88869e-10
-5.94183e-09
1.86782e-10
-6.12632e-09
1.84491e-10
-6.30832e-09
1.82005e-10
-6.48765e-09
1.79326e-10
-6.6641e-09
1.76457e-10
-6.83751e-09
1.73401e-10
-7.00767e-09
1.70166e-10
-7.17443e-09
1.66755e-10
-7.3376e-09
1.63168e-10
-7.497e-09
1.59405e-10
-7.65246e-09
1.55467e-10
-7.80382e-09
1.51359e-10
-7.9509e-09
1.47082e-10
-8.09354e-09
1.42636e-10
-8.23156e-09
1.38024e-10
-8.36481e-09
1.33247e-10
-8.49312e-09
1.28309e-10
-8.61634e-09
1.23208e-10
-8.73428e-09
1.17945e-10
-8.8468e-09
1.12521e-10
-8.95374e-09
1.06939e-10
-9.05494e-09
1.01202e-10
-9.15025e-09
9.53094e-11
-9.23951e-09
8.92618e-11
-9.32257e-09
8.30632e-11
-9.39929e-09
7.67191e-11
-9.46953e-09
7.02322e-11
-9.53313e-09
6.3604e-11
-9.58997e-09
5.68369e-11
-9.63991e-09
4.99365e-11
-9.68282e-09
4.29102e-11
-9.71858e-09
3.57628e-11
-9.74707e-09
2.84974e-11
-9.76819e-09
2.11186e-11
-9.78182e-09
1.36345e-11
-9.78787e-09
6.05524e-12
-9.78626e-09
-1.61104e-12
-9.77691e-09
-9.35838e-12
-9.75973e-09
-1.71774e-11
-9.73468e-09
-2.50567e-11
-9.70169e-09
-3.29858e-11
-9.66074e-09
-4.09541e-11
-9.61178e-09
-4.89505e-11
-9.55482e-09
-5.69644e-11
-9.48983e-09
-6.49828e-11
-9.41684e-09
-7.29907e-11
-9.33587e-09
-8.09729e-11
-9.24696e-09
-8.89154e-11
-9.15015e-09
-9.68043e-11
-9.04553e-09
-1.04625e-10
-8.93316e-09
-1.12362e-10
-8.81317e-09
-1.19997e-10
-8.68565e-09
-1.27515e-10
-8.55075e-09
-1.34898e-10
-8.40863e-09
-1.42128e-10
-8.25944e-09
-1.49188e-10
-8.10338e-09
-1.56059e-10
-7.94066e-09
-1.62725e-10
-7.77149e-09
-1.69167e-10
-7.59612e-09
-1.75368e-10
-7.41481e-09
-1.81312e-10
-7.22783e-09
-1.86979e-10
-7.03548e-09
-1.9235e-10
-6.83808e-09
-1.97405e-10
-6.63595e-09
-2.02127e-10
-6.42944e-09
-2.06503e-10
-6.21892e-09
-2.10518e-10
-6.00477e-09
-2.14155e-10
-5.78738e-09
-2.17395e-10
-5.56715e-09
-2.20223e-10
-5.34453e-09
-2.22626e-10
-5.11994e-09
-2.2459e-10
-4.89383e-09
-2.26104e-10
-4.66668e-09
-2.27154e-10
-4.43894e-09
-2.27731e-10
-4.21112e-09
-2.27824e-10
-3.9837e-09
-2.27422e-10
-3.75718e-09
-2.26519e-10
-3.53207e-09
-2.25106e-10
-3.3089e-09
-2.23176e-10
-3.08817e-09
-2.20724e-10
-2.87043e-09
-2.17745e-10
-2.65619e-09
-2.14235e-10
-2.446e-09
-2.10195e-10
-2.24038e-09
-2.05622e-10
-2.03986e-09
-2.00519e-10
-1.84497e-09
-1.94887e-10
-1.65624e-09
-1.88729e-10
-1.4742e-09
-1.82047e-10
-1.29934e-09
-1.7485e-10
-1.1322e-09
-1.67146e-10
-9.73251e-10
-1.58945e-10
-8.22991e-10
-1.50259e-10
-6.81888e-10
-1.41101e-10
-5.504e-10
-1.31488e-10
-4.28962e-10
-1.21438e-10
-3.17987e-10
-1.10976e-10
-2.17856e-10
-1.00129e-10
-1.28922e-10
-8.89328e-11
-5.14932e-11
-7.74285e-11
1.41734e-11
-6.56669e-11
6.78854e-11
-5.37121e-11
1.09533e-10
-4.16473e-11
1.39115e-10
-2.95816e-11
1.56774e-10
-1.76591e-11
1.62846e-10
-6.07196e-12
1.5793e-10
4.91655e-12
1.42994e-10
1.49366e-11
1.19534e-10
2.34595e-11
8.98096e-11
2.97234e-11
5.71736e-11
3.26354e-11
2.6577e-11
3.05963e-11
5.13462e-12
2.14421e-11
5.13511e-12
2.15807e-11
-2.9003e-11
6.58718e-11
-6.73757e-11
1.16899e-10
-8.05246e-11
1.60753e-10
-7.11148e-11
1.8731e-10
-4.67125e-11
1.89734e-10
-1.27991e-11
1.63638e-10
2.70325e-11
1.06332e-10
7.03367e-11
1.63861e-11
1.15418e-10
-1.06765e-10
1.61088e-10
-2.63023e-10
2.06495e-10
-4.51852e-10
2.51032e-10
-6.72368e-10
2.9428e-10
-9.2346e-10
3.35924e-10
-1.20384e-09
3.75759e-10
-1.51212e-09
4.13639e-10
-1.84683e-09
4.49474e-10
-2.20645e-09
4.83221e-10
-2.58944e-09
5.14859e-10
-2.99429e-09
5.44389e-10
-3.41945e-09
5.71836e-10
-3.86343e-09
5.97227e-10
-4.32475e-09
6.20607e-10
-4.80197e-09
6.42033e-10
-5.29369e-09
6.61556e-10
-5.79855e-09
6.79235e-10
-6.31525e-09
6.95138e-10
-6.84249e-09
7.09323e-10
-7.37908e-09
7.21853e-10
-7.92384e-09
7.32799e-10
-8.47561e-09
7.42222e-10
-9.03333e-09
7.50177e-10
-9.59596e-09
7.5673e-10
-1.01625e-08
7.6194e-10
-1.0732e-08
7.65859e-10
-1.13034e-08
7.68539e-10
-1.18761e-08
7.70038e-10
-1.2449e-08
7.70398e-10
-1.30214e-08
7.6966e-10
-1.35925e-08
7.67873e-10
-1.41615e-08
7.65081e-10
-1.47277e-08
7.61318e-10
-1.52905e-08
7.56617e-10
-1.58491e-08
7.51012e-10
-1.64029e-08
7.44532e-10
-1.69512e-08
7.37204e-10
-1.74935e-08
7.29051e-10
-1.80291e-08
7.20098e-10
-1.85575e-08
7.10366e-10
-1.9078e-08
6.99874e-10
-1.95902e-08
6.88635e-10
-2.00935e-08
6.76664e-10
-2.05873e-08
6.63976e-10
-2.10711e-08
6.50585e-10
-2.15444e-08
6.36499e-10
-2.20068e-08
6.21727e-10
-2.24576e-08
6.06276e-10
-2.28964e-08
5.90156e-10
-2.33227e-08
5.73374e-10
-2.3736e-08
5.55934e-10
-2.41358e-08
5.37841e-10
-2.45216e-08
5.19104e-10
-2.4893e-08
4.99728e-10
-2.52495e-08
4.79719e-10
-2.55907e-08
4.59078e-10
-2.5916e-08
4.37815e-10
-2.6225e-08
4.1594e-10
-2.65172e-08
3.9346e-10
-2.67923e-08
3.70381e-10
-2.70498e-08
3.4671e-10
-2.72892e-08
3.22458e-10
-2.75101e-08
2.97639e-10
-2.77121e-08
2.72266e-10
-2.78949e-08
2.46351e-10
-2.80579e-08
2.19907e-10
-2.82009e-08
1.92955e-10
-2.83235e-08
1.65513e-10
-2.84254e-08
1.37604e-10
-2.85061e-08
1.09248e-10
-2.85655e-08
8.04703e-11
-2.86032e-08
5.13002e-11
-2.86189e-08
2.17666e-11
-2.86124e-08
-8.10019e-12
-2.85835e-08
-3.82686e-11
-2.85319e-08
-6.87031e-11
-2.84576e-08
-9.9363e-11
-2.83604e-08
-1.30206e-10
-2.82402e-08
-1.61191e-10
-2.80969e-08
-1.92273e-10
-2.79304e-08
-2.23406e-10
-2.77409e-08
-2.54541e-10
-2.75282e-08
-2.85625e-10
-2.72926e-08
-3.16604e-10
-2.70341e-08
-3.47423e-10
-2.67529e-08
-3.78024e-10
-2.64491e-08
-4.08348e-10
-2.61232e-08
-4.38333e-10
-2.57753e-08
-4.67916e-10
-2.54057e-08
-4.97032e-10
-2.5015e-08
-5.25617e-10
-2.46035e-08
-5.53605e-10
-2.41718e-08
-5.80928e-10
-2.37203e-08
-6.07517e-10
-2.32498e-08
-6.33304e-10
-2.27607e-08
-6.58219e-10
-2.22539e-08
-6.82195e-10
-2.173e-08
-7.05162e-10
-2.119e-08
-7.27053e-10
-2.06345e-08
-7.47797e-10
-2.00646e-08
-7.67327e-10
-1.94811e-08
-7.85576e-10
-1.88852e-08
-8.02482e-10
-1.82777e-08
-8.17982e-10
-1.76598e-08
-8.32015e-10
-1.70327e-08
-8.4452e-10
-1.63975e-08
-8.55439e-10
-1.57554e-08
-8.64718e-10
-1.51077e-08
-8.72304e-10
-1.44556e-08
-8.78152e-10
-1.38006e-08
-8.82214e-10
-1.31439e-08
-8.84446e-10
-1.24869e-08
-8.84811e-10
-1.1831e-08
-8.83274e-10
-1.11777e-08
-8.79802e-10
-1.05285e-08
-8.74366e-10
-9.88472e-09
-8.66944e-10
-9.24792e-09
-8.57514e-10
-8.61961e-09
-8.46063e-10
-8.00127e-09
-8.32579e-10
-7.39441e-09
-8.17056e-10
-6.80053e-09
-7.99496e-10
-6.22115e-09
-7.79902e-10
-5.65775e-09
-7.58285e-10
-5.11182e-09
-7.34659e-10
-4.58482e-09
-7.09048e-10
-4.07819e-09
-6.81479e-10
-3.59335e-09
-6.51986e-10
-3.13168e-09
-6.20614e-10
-2.69452e-09
-5.87413e-10
-2.28318e-09
-5.52445e-10
-1.89888e-09
-5.15783e-10
-1.54281e-09
-4.77511e-10
-1.21605e-09
-4.37733e-10
-9.19607e-10
-3.96573e-10
-6.54364e-10
-3.54177e-10
-4.21068e-10
-3.10725e-10
-2.20297e-10
-2.66438e-10
-5.24176e-11
-2.2159e-10
8.24658e-11
-1.76528e-10
1.84579e-10
-1.31695e-10
2.54576e-10
-8.7657e-11
2.93659e-10
-4.51555e-11
3.03743e-10
-5.16822e-12
2.87683e-10
3.09967e-11
2.49561e-10
6.15811e-11
1.95054e-10
8.42323e-11
1.31827e-10
9.58632e-11
6.98765e-11
9.2547e-11
2.14204e-11
6.98991e-11
2.65563e-11
2.63712e-11
-5.53731e-11
7.5218e-11
-1.16225e-10
1.2585e-10
-1.3116e-10
1.61867e-10
-1.07129e-10
1.70599e-10
-5.54499e-11
1.42838e-10
1.49611e-11
7.21982e-11
9.76692e-11
-4.54808e-11
1.88023e-10
-2.12677e-10
2.82607e-10
-4.30542e-10
3.7895e-10
-6.99263e-10
4.75211e-10
-1.01829e-09
5.70056e-10
-1.38651e-09
6.62504e-10
-1.80242e-09
7.51836e-10
-2.26422e-09
8.37556e-10
-2.76988e-09
9.19304e-10
-3.31725e-09
9.96841e-10
-3.90406e-09
1.07003e-09
-4.52799e-09
1.13879e-09
-5.1867e-09
1.2031e-09
-5.87784e-09
1.26298e-09
-6.5991e-09
1.31848e-09
-7.34816e-09
1.36967e-09
-8.12278e-09
1.41666e-09
-8.92076e-09
1.45954e-09
-9.73996e-09
1.49843e-09
-1.05783e-08
1.53347e-09
-1.14337e-08
1.56477e-09
-1.23043e-08
1.59246e-09
-1.31882e-08
1.61669e-09
-1.40836e-08
1.63758e-09
-1.49887e-08
1.65525e-09
-1.59018e-08
1.66985e-09
-1.68213e-08
1.68148e-09
-1.77457e-08
1.69027e-09
-1.86735e-08
1.69632e-09
-1.96032e-08
1.69975e-09
-2.05335e-08
1.70067e-09
-2.1463e-08
1.69916e-09
-2.23904e-08
1.69532e-09
-2.33146e-08
1.68924e-09
-2.42343e-08
1.681e-09
-2.51483e-08
1.67068e-09
-2.60557e-08
1.65834e-09
-2.69552e-08
1.64405e-09
-2.78459e-08
1.62787e-09
-2.87267e-08
1.60986e-09
-2.95966e-08
1.59006e-09
-3.04548e-08
1.56853e-09
-3.13002e-08
1.54529e-09
-3.2132e-08
1.5204e-09
-3.29492e-08
1.49388e-09
-3.3751e-08
1.46576e-09
-3.45365e-08
1.43608e-09
-3.53048e-08
1.40485e-09
-3.60552e-08
1.3721e-09
-3.67868e-08
1.33784e-09
-3.74987e-08
1.3021e-09
-3.81902e-08
1.26488e-09
-3.88605e-08
1.22622e-09
-3.95088e-08
1.18611e-09
-4.01343e-08
1.14458e-09
-4.07362e-08
1.10164e-09
-4.13138e-08
1.0573e-09
-4.18663e-08
1.01157e-09
-4.23929e-08
9.6448e-10
-4.2893e-08
9.16036e-10
-4.33658e-08
8.66259e-10
-4.38106e-08
8.15166e-10
-4.42267e-08
7.62779e-10
-4.46133e-08
7.09123e-10
-4.49699e-08
6.54225e-10
-4.52958e-08
5.98114e-10
-4.55902e-08
5.40819e-10
-4.58527e-08
4.82378e-10
-4.60826e-08
4.22831e-10
-4.62793e-08
3.6222e-10
-4.64423e-08
3.0059e-10
-4.6571e-08
2.37993e-10
-4.6665e-08
1.74484e-10
-4.67239e-08
1.10127e-10
-4.67471e-08
4.49862e-11
-4.67343e-08
-2.08701e-11
-4.66852e-08
-8.73682e-11
-4.65995e-08
-1.5443e-10
-4.64769e-08
-2.2197e-10
-4.63172e-08
-2.89898e-10
-4.61203e-08
-3.5812e-10
-4.5886e-08
-4.26539e-10
-4.56143e-08
-4.9505e-10
-4.53053e-08
-5.63545e-10
-4.49591e-08
-6.3191e-10
-4.45756e-08
-7.00026e-10
-4.41553e-08
-7.67772e-10
-4.36983e-08
-8.35023e-10
-4.3205e-08
-9.01649e-10
-4.26758e-08
-9.67516e-10
-4.21112e-08
-1.03249e-09
-4.15118e-08
-1.09642e-09
-4.08783e-08
-1.15917e-09
-4.02113e-08
-1.22059e-09
-3.95117e-08
-1.28055e-09
-3.87803e-08
-1.33888e-09
-3.80182e-08
-1.39544e-09
-3.72263e-08
-1.45009e-09
-3.64058e-08
-1.50266e-09
-3.5558e-08
-1.55302e-09
-3.4684e-08
-1.601e-09
-3.37854e-08
-1.64647e-09
-3.28634e-08
-1.68927e-09
-3.19198e-08
-1.72926e-09
-3.09559e-08
-1.7663e-09
-2.99736e-08
-1.80027e-09
-2.89747e-08
-1.83101e-09
-2.79608e-08
-1.85841e-09
-2.69339e-08
-1.88233e-09
-2.58959e-08
-1.90266e-09
-2.48489e-08
-1.91929e-09
-2.3795e-08
-1.93212e-09
-2.27362e-08
-1.94103e-09
-2.16747e-08
-1.94595e-09
-2.06127e-08
-1.94678e-09
-1.95525e-08
-1.94346e-09
-1.84964e-08
-1.9359e-09
-1.74467e-08
-1.92406e-09
-1.64058e-08
-1.90788e-09
-1.5376e-08
-1.88733e-09
-1.43597e-08
-1.86236e-09
-1.33593e-08
-1.83297e-09
-1.23772e-08
-1.79914e-09
-1.14158e-08
-1.76087e-09
-1.04775e-08
-1.71818e-09
-9.56471e-09
-1.6711e-09
-8.6797e-09
-1.61967e-09
-7.82482e-09
-1.56393e-09
-7.00234e-09
-1.50396e-09
-6.21449e-09
-1.43984e-09
-5.46343e-09
-1.37167e-09
-4.75127e-09
-1.29957e-09
-4.08001e-09
-1.2237e-09
-3.45157e-09
-1.14422e-09
-2.86774e-09
-1.06134e-09
-2.33017e-09
-9.75301e-10
-1.84035e-09
-8.86389e-10
-1.39958e-09
-7.94952e-10
-1.0089e-09
-7.01409e-10
-6.69066e-10
-6.06267e-10
-3.80502e-10
-5.10152e-10
-1.43187e-10
-4.13842e-10
4.3431e-11
-3.18312e-10
1.80566e-10
-2.24792e-10
2.70259e-10
-1.34847e-10
3.15582e-10
-5.0491e-11
3.20899e-10
2.56794e-11
2.92169e-10
9.03102e-11
2.37296e-10
1.39105e-10
1.66471e-10
1.66688e-10
9.24188e-11
1.666e-10
3.0505e-11
1.31814e-10
5.70619e-11
2.4954e-11
-8.03252e-11
6.64368e-11
-1.57707e-10
1.01381e-10
-1.66103e-10
1.12197e-10
-1.17941e-10
8.51291e-11
-2.83798e-11
9.81537e-12
9.0277e-11
-1.21231e-10
2.28719e-10
-3.13115e-10
3.79907e-10
-5.69024e-10
5.3852e-10
-8.90618e-10
7.00543e-10
-1.27836e-09
8.62945e-10
-1.73175e-09
1.02345e-09
-2.2496e-09
1.18035e-09
-2.83015e-09
1.33239e-09
-3.47124e-09
1.47864e-09
-4.17037e-09
1.61844e-09
-4.92486e-09
1.75133e-09
-5.73184e-09
1.87701e-09
-6.58836e-09
1.99531e-09
-7.4914e-09
2.10614e-09
-8.43792e-09
2.2095e-09
-9.4249e-09
2.30545e-09
-1.04493e-08
2.39409e-09
-1.15082e-08
2.47554e-09
-1.25987e-08
2.54999e-09
-1.37178e-08
2.6176e-09
-1.48629e-08
2.67858e-09
-1.60313e-08
2.73313e-09
-1.72203e-08
2.78146e-09
-1.84274e-08
2.8238e-09
-1.96502e-08
2.86034e-09
-2.08862e-08
2.89132e-09
-2.21333e-08
2.91693e-09
-2.33892e-08
2.93739e-09
-2.46519e-08
2.95289e-09
-2.59192e-08
2.96362e-09
-2.71892e-08
2.96976e-09
-2.846e-08
2.9715e-09
-2.97298e-08
2.96899e-09
-3.09969e-08
2.96241e-09
-3.22596e-08
2.95188e-09
-3.35161e-08
2.93757e-09
-3.4765e-08
2.91958e-09
-3.60048e-08
2.89806e-09
-3.72338e-08
2.8731e-09
-3.84508e-08
2.84482e-09
-3.96542e-08
2.81331e-09
-4.08428e-08
2.77866e-09
-4.20152e-08
2.74094e-09
-4.31702e-08
2.70024e-09
-4.43064e-08
2.65661e-09
-4.54226e-08
2.61012e-09
-4.65177e-08
2.56083e-09
-4.75904e-08
2.50877e-09
-4.86395e-08
2.454e-09
-4.9664e-08
2.39656e-09
-5.06626e-08
2.33648e-09
-5.16343e-08
2.27379e-09
-5.25779e-08
2.20852e-09
-5.34924e-08
2.14071e-09
-5.43767e-08
2.07038e-09
-5.52297e-08
1.99756e-09
-5.60503e-08
1.92228e-09
-5.68376e-08
1.84455e-09
-5.75904e-08
1.76441e-09
-5.83078e-08
1.68188e-09
-5.89888e-08
1.59701e-09
-5.96323e-08
1.50981e-09
-6.02375e-08
1.42033e-09
-6.08033e-08
1.32861e-09
-6.13289e-08
1.23468e-09
-6.18133e-08
1.1386e-09
-6.22556e-08
1.04042e-09
-6.26549e-08
9.40192e-10
-6.30106e-08
8.37985e-10
-6.33216e-08
7.33871e-10
-6.35873e-08
6.27924e-10
-6.38069e-08
5.20225e-10
-6.39798e-08
4.10866e-10
-6.41053e-08
2.99945e-10
-6.41827e-08
1.87568e-10
-6.42116e-08
7.38509e-11
-6.41914e-08
-4.10861e-11
-6.41216e-08
-1.57113e-10
-6.40019e-08
-2.74092e-10
-6.3832e-08
-3.91874e-10
-6.36116e-08
-5.10304e-10
-6.33405e-08
-6.29218e-10
-6.30186e-08
-7.48445e-10
-6.26459e-08
-8.67805e-10
-6.22223e-08
-9.87109e-10
-6.17481e-08
-1.10616e-09
-6.12233e-08
-1.22475e-09
-6.06484e-08
-1.34267e-09
-6.00238e-08
-1.4597e-09
-5.93498e-08
-1.57562e-09
-5.86271e-08
-1.6902e-09
-5.78564e-08
-1.80319e-09
-5.70385e-08
-1.91436e-09
-5.61742e-08
-2.02345e-09
-5.52645e-08
-2.13022e-09
-5.43107e-08
-2.23442e-09
-5.33138e-08
-2.33578e-09
-5.22752e-08
-2.43406e-09
-5.11963e-08
-2.52898e-09
-5.00786e-08
-2.62029e-09
-4.89239e-08
-2.70774e-09
-4.77339e-08
-2.79106e-09
-4.65103e-08
-2.87e-09
-4.52553e-08
-2.94431e-09
-4.39708e-08
-3.01374e-09
-4.2659e-08
-3.07805e-09
-4.13223e-08
-3.137e-09
-3.99629e-08
-3.19037e-09
-3.85834e-08
-3.23793e-09
-3.71863e-08
-3.27947e-09
-3.57742e-08
-3.31478e-09
-3.43498e-08
-3.34367e-09
-3.29159e-08
-3.36597e-09
-3.14755e-08
-3.38149e-09
-3.00313e-08
-3.39009e-09
-2.85865e-08
-3.39161e-09
-2.7144e-08
-3.38594e-09
-2.5707e-08
-3.37295e-09
-2.42785e-08
-3.35255e-09
-2.28617e-08
-3.32464e-09
-2.14599e-08
-3.28918e-09
-2.00762e-08
-3.24609e-09
-1.87138e-08
-3.19537e-09
-1.73759e-08
-3.13699e-09
-1.60658e-08
-3.07096e-09
-1.47867e-08
-2.99732e-09
-1.35416e-08
-2.91612e-09
-1.23339e-08
-2.82744e-09
-1.11664e-08
-2.73136e-09
-1.00424e-08
-2.62803e-09
-8.96459e-09
-2.51761e-09
-7.93599e-09
-2.40027e-09
-6.95931e-09
-2.27625e-09
-6.03718e-09
-2.14583e-09
-5.1721e-09
-2.00931e-09
-4.36638e-09
-1.86707e-09
-3.62213e-09
-1.71955e-09
-2.94122e-09
-1.56729e-09
-2.32526e-09
-1.41091e-09
-1.7755e-09
-1.25117e-09
-1.29281e-09
-1.08896e-09
-8.77575e-10
-9.25387e-10
-5.29608e-10
-7.61809e-10
-2.4803e-10
-5.99891e-10
-3.11174e-11
-4.41703e-10
1.23869e-10
-2.89832e-10
2.20902e-10
-1.47523e-10
2.65434e-10
-1.8853e-11
2.6468e-10
9.1065e-11
2.2792e-10
1.75866e-10
1.66831e-10
2.27777e-10
9.58167e-11
2.37615e-10
3.25206e-11
1.9511e-10
8.95825e-11
1.91087e-11
-9.94353e-11
4.40349e-11
-1.8263e-10
5.1535e-11
-1.73609e-10
2.39175e-11
-9.03207e-11
-5.27718e-11
4.83084e-11
-1.89249e-10
2.26753e-10
-3.93447e-10
4.32915e-10
-6.7093e-10
6.57394e-10
-1.0253e-09
8.92895e-10
-1.45853e-09
1.13377e-09
-1.97127e-09
1.37568e-09
-2.56309e-09
1.61527e-09
-3.23275e-09
1.85001e-09
-3.97831e-09
2.07795e-09
-4.79734e-09
2.29767e-09
-5.68701e-09
2.50811e-09
-6.64421e-09
2.70853e-09
-7.66559e-09
2.89839e-09
-8.74767e-09
3.0774e-09
-9.88689e-09
3.24536e-09
-1.10796e-08
3.40223e-09
-1.23222e-08
3.54805e-09
-1.36111e-08
3.68293e-09
-1.49426e-08
3.80704e-09
-1.63132e-08
3.92061e-09
-1.77194e-08
4.02386e-09
-1.9158e-08
4.11709e-09
-2.06254e-08
4.20058e-09
-2.21186e-08
4.27464e-09
-2.36344e-08
4.33958e-09
-2.51697e-08
4.3957e-09
-2.67217e-08
4.44332e-09
-2.82876e-08
4.48275e-09
-2.98645e-08
4.51429e-09
-3.14498e-08
4.53823e-09
-3.3041e-08
4.55486e-09
-3.46357e-08
4.56444e-09
-3.62315e-08
4.56725e-09
-3.7826e-08
4.56353e-09
-3.94171e-08
4.55351e-09
-4.10027e-08
4.53743e-09
-4.25806e-08
4.5155e-09
-4.41489e-08
4.48791e-09
-4.57057e-08
4.45484e-09
-4.72491e-08
4.41648e-09
-4.87772e-08
4.37297e-09
-5.02884e-08
4.32446e-09
-5.17808e-08
4.2711e-09
-5.32529e-08
4.21299e-09
-5.47029e-08
4.15027e-09
-5.61293e-08
4.08302e-09
-5.75305e-08
4.01135e-09
-5.89051e-08
3.93534e-09
-6.02513e-08
3.85507e-09
-6.15679e-08
3.7706e-09
-6.28534e-08
3.682e-09
-6.41063e-08
3.58933e-09
-6.53251e-08
3.49265e-09
-6.65086e-08
3.392e-09
-6.76553e-08
3.28742e-09
-6.87639e-08
3.17897e-09
-6.9833e-08
3.06669e-09
-7.08614e-08
2.95062e-09
-7.18476e-08
2.83081e-09
-7.27905e-08
2.70729e-09
-7.36888e-08
2.58012e-09
-7.45411e-08
2.44935e-09
-7.53463e-08
2.31503e-09
-7.61032e-08
2.17721e-09
-7.68105e-08
2.03596e-09
-7.74672e-08
1.89136e-09
-7.80721e-08
1.74347e-09
-7.86241e-08
1.59238e-09
-7.91221e-08
1.43818e-09
-7.9565e-08
1.28097e-09
-7.9952e-08
1.12086e-09
-8.02821e-08
9.57976e-10
-8.05543e-08
7.92434e-10
-8.07678e-08
6.24381e-10
-8.09218e-08
4.5397e-10
-8.10156e-08
2.81366e-10
-8.10485e-08
1.06741e-10
-8.10199e-08
-6.97152e-11
-8.09292e-08
-2.47802e-10
-8.0776e-08
-4.27308e-10
-8.05599e-08
-6.08004e-10
-8.02805e-08
-7.89653e-10
-7.99377e-08
-9.72005e-10
-7.95314e-08
-1.15479e-09
-7.90614e-08
-1.33775e-09
-7.8528e-08
-1.52057e-09
-7.79312e-08
-1.70297e-09
-7.72713e-08
-1.88463e-09
-7.65487e-08
-2.06523e-09
-7.5764e-08
-2.24443e-09
-7.49177e-08
-2.4219e-09
-7.40106e-08
-2.59727e-09
-7.30436e-08
-2.77019e-09
-7.20177e-08
-2.94028e-09
-7.0934e-08
-3.10718e-09
-6.97937e-08
-3.2705e-09
-6.85983e-08
-3.42986e-09
-6.73492e-08
-3.58486e-09
-6.60481e-08
-3.73511e-09
-6.46969e-08
-3.88023e-09
-6.32974e-08
-4.01981e-09
-6.18517e-08
-4.15346e-09
-6.03619e-08
-4.2808e-09
-5.88305e-08
-4.40143e-09
-5.72598e-08
-4.51498e-09
-5.56525e-08
-4.62107e-09
-5.40112e-08
-4.71933e-09
-5.23388e-08
-4.80941e-09
-5.06382e-08
-4.89096e-09
-4.89125e-08
-4.96364e-09
-4.71648e-08
-5.02713e-09
-4.53985e-08
-5.08112e-09
-4.36168e-08
-5.12532e-09
-4.18233e-08
-5.15946e-09
-4.00216e-08
-5.18328e-09
-3.82151e-08
-5.19655e-09
-3.64077e-08
-5.19904e-09
-3.46031e-08
-5.19056e-09
-3.28051e-08
-5.17094e-09
-3.10176e-08
-5.14004e-09
-2.92445e-08
-5.09773e-09
-2.74897e-08
-5.04392e-09
-2.57573e-08
-4.97854e-09
-2.40511e-08
-4.90155e-09
-2.23751e-08
-4.81294e-09
-2.07334e-08
-4.71273e-09
-1.91297e-08
-4.60097e-09
-1.75681e-08
-4.47777e-09
-1.60523e-08
-4.34324e-09
-1.45861e-08
-4.19755e-09
-1.31732e-08
-4.04091e-09
-1.18172e-08
-3.87358e-09
-1.05216e-08
-3.69587e-09
-9.28975e-09
-3.50815e-09
-8.12474e-09
-3.31084e-09
-7.02958e-09
-3.10446e-09
-6.00704e-09
-2.8896e-09
-5.05961e-09
-2.66698e-09
-4.18948e-09
-2.43743e-09
-3.39847e-09
-2.20192e-09
-2.68801e-09
-1.96163e-09
-2.05899e-09
-1.71797e-09
-1.51178e-09
-1.4726e-09
-1.046e-09
-1.22759e-09
-6.60495e-10
-9.85394e-10
-3.53137e-10
-7.4906e-10
-1.20656e-10
-5.22312e-10
4.15582e-11
-3.09738e-10
1.39684e-10
-1.16979e-10
1.81714e-10
4.90357e-11
1.77733e-10
1.79846e-10
1.40253e-10
2.65256e-10
8.46179e-11
2.93251e-10
2.97038e-11
2.50025e-10
1.19286e-10
1.02412e-11
-1.09682e-10
1.19055e-11
-1.84292e-10
-1.68807e-11
-1.44825e-10
-9.30157e-11
-1.4183e-11
-2.29966e-10
1.8526e-10
-4.38237e-10
4.3502e-10
-7.25719e-10
7.20398e-10
-1.09807e-09
1.02974e-09
-1.559e-09
1.35382e-09
-2.11059e-09
1.68537e-09
-2.75357e-09
2.01866e-09
-3.48752e-09
2.34923e-09
-4.31113e-09
2.67361e-09
-5.22232e-09
2.98915e-09
-6.21845e-09
3.29381e-09
-7.29641e-09
3.58608e-09
-8.45275e-09
3.86486e-09
-9.68373e-09
4.12937e-09
-1.09854e-08
4.3791e-09
-1.23538e-08
4.61376e-09
-1.37848e-08
4.8332e-09
-1.52742e-08
5.03743e-09
-1.68178e-08
5.22656e-09
-1.84116e-08
5.40079e-09
-2.00513e-08
5.56037e-09
-2.17331e-08
5.70563e-09
-2.34529e-08
5.83691e-09
-2.52069e-08
5.95459e-09
-2.69913e-08
6.05907e-09
-2.88025e-08
6.15076e-09
-3.06369e-08
6.23008e-09
-3.2491e-08
6.29745e-09
-3.43615e-08
6.35328e-09
-3.62452e-08
6.39798e-09
-3.8139e-08
6.43196e-09
-4.00397e-08
6.45561e-09
-4.19446e-08
6.46929e-09
-4.38507e-08
6.47337e-09
-4.57554e-08
6.46819e-09
-4.76559e-08
6.45408e-09
-4.95498e-08
6.43136e-09
-5.14347e-08
6.40032e-09
-5.3308e-08
6.36122e-09
-5.51675e-08
6.31435e-09
-5.70109e-08
6.25992e-09
-5.88361e-08
6.19817e-09
-6.0641e-08
6.1293e-09
-6.24234e-08
6.05351e-09
-6.41814e-08
5.97097e-09
-6.59129e-08
5.88183e-09
-6.76162e-08
5.78626e-09
-6.92892e-08
5.68439e-09
-7.09302e-08
5.57633e-09
-7.25373e-08
5.4622e-09
-7.41088e-08
5.34211e-09
-7.5643e-08
5.21614e-09
-7.7138e-08
5.08438e-09
-7.85923e-08
4.94691e-09
-8.00041e-08
4.8038e-09
-8.13718e-08
4.65513e-09
-8.26938e-08
4.50097e-09
-8.39684e-08
4.34137e-09
-8.51942e-08
4.17641e-09
-8.63695e-08
4.00614e-09
-8.74929e-08
3.83064e-09
-8.85627e-08
3.64997e-09
-8.95776e-08
3.46422e-09
-9.0536e-08
3.27345e-09
-9.14366e-08
3.07776e-09
-9.22779e-08
2.87724e-09
-9.30585e-08
2.67199e-09
-9.37772e-08
2.46213e-09
-9.44325e-08
2.24776e-09
-9.50234e-08
2.02903e-09
-9.55485e-08
1.80608e-09
-9.60067e-08
1.57906e-09
-9.63968e-08
1.34815e-09
-9.67179e-08
1.11354e-09
-9.6969e-08
8.75416e-10
-9.7149e-08
6.34009e-10
-9.72572e-08
3.89548e-10
-9.72927e-08
1.42282e-10
-9.72549e-08
-1.07523e-10
-9.71432e-08
-3.5958e-10
-9.69569e-08
-6.1359e-10
-9.66957e-08
-8.6923e-10
-9.63591e-08
-1.12616e-09
-9.59471e-08
-1.38404e-09
-9.54594e-08
-1.64248e-09
-9.48961e-08
-1.90109e-09
-9.42572e-08
-2.15948e-09
-9.35429e-08
-2.41721e-09
-9.27537e-08
-2.67385e-09
-9.189e-08
-2.92894e-09
-9.09524e-08
-3.18202e-09
-8.99417e-08
-3.4326e-09
-8.88588e-08
-3.68018e-09
-8.77047e-08
-3.92425e-09
-8.64807e-08
-4.16431e-09
-8.51881e-08
-4.39982e-09
-8.38283e-08
-4.63024e-09
-8.24031e-08
-4.85505e-09
-8.09143e-08
-5.07368e-09
-7.93638e-08
-5.28559e-09
-7.77538e-08
-5.49023e-09
-7.60866e-08
-5.68704e-09
-7.43646e-08
-5.87549e-09
-7.25904e-08
-6.05501e-09
-7.07667e-08
-6.22507e-09
-6.88966e-08
-6.38514e-09
-6.69829e-08
-6.53469e-09
-6.50291e-08
-6.67321e-09
-6.30383e-08
-6.8002e-09
-6.10141e-08
-6.91517e-09
-5.89601e-08
-7.01766e-09
-5.688e-08
-7.10721e-09
-5.47777e-08
-7.18339e-09
-5.26572e-08
-7.24581e-09
-5.05226e-08
-7.29407e-09
-4.83781e-08
-7.32782e-09
-4.62279e-08
-7.34673e-09
-4.40764e-08
-7.35051e-09
-4.19281e-08
-7.33888e-09
-3.97874e-08
-7.31162e-09
-3.76589e-08
-7.26851e-09
-3.55473e-08
-7.2094e-09
-3.3457e-08
-7.13415e-09
-3.13929e-08
-7.04269e-09
-2.93595e-08
-6.93496e-09
-2.73615e-08
-6.81095e-09
-2.54035e-08
-6.67072e-09
-2.34901e-08
-6.51435e-09
-2.16259e-08
-6.34198e-09
-1.98153e-08
-6.15381e-09
-1.80628e-08
-5.95008e-09
-1.63726e-08
-5.73112e-09
-1.47489e-08
-5.4973e-09
-1.31957e-08
-5.24907e-09
-1.17168e-08
-4.98699e-09
-1.0316e-08
-4.71168e-09
-8.99652e-09
-4.4239e-09
-7.76161e-09
-4.12452e-09
-6.61404e-09
-3.81456e-09
-5.55626e-09
-3.49521e-09
-4.59028e-09
-3.16789e-09
-3.71765e-09
-2.83427e-09
-2.9393e-09
-2.49631e-09
-2.25554e-09
-2.15637e-09
-1.66587e-09
-1.81725e-09
-1.16892e-09
-1.48234e-09
-7.62264e-10
-1.15572e-09
-4.42274e-10
-8.42302e-10
-2.03938e-10
-5.48072e-10
-4.06599e-11
-2.80256e-10
5.59662e-11
-4.75913e-11
9.64053e-11
1.39406e-10
9.3498e-11
2.68163e-10
6.28815e-11
3.23867e-10
2.36626e-11
2.89245e-10
1.42949e-10
-4.91591e-13
-1.09188e-10
-2.67216e-11
-1.58057e-10
-9.82e-11
-7.33512e-11
-2.30344e-10
1.17962e-10
-4.35625e-10
3.90541e-10
-7.23885e-10
7.23283e-10
-1.10261e-09
1.09913e-09
-1.57722e-09
1.50434e-09
-2.15128e-09
1.92789e-09
-2.82682e-09
2.3609e-09
-3.60448e-09
2.79632e-09
-4.48378e-09
3.22853e-09
-5.46329e-09
3.65313e-09
-6.54081e-09
4.06666e-09
-7.71348e-09
4.46648e-09
-8.97796e-09
4.85055e-09
-1.03305e-08
5.21739e-09
-1.1767e-08
5.5659e-09
-1.32833e-08
5.89535e-09
-1.48748e-08
6.20528e-09
-1.6537e-08
6.49545e-09
-1.82654e-08
6.76581e-09
-2.00553e-08
7.01644e-09
-2.19021e-08
7.24755e-09
-2.38011e-08
7.45945e-09
-2.5748e-08
7.65249e-09
-2.77382e-08
7.82711e-09
-2.97674e-08
7.98377e-09
-3.18313e-08
8.12296e-09
-3.39257e-08
8.24522e-09
-3.60467e-08
8.35106e-09
-3.81903e-08
8.44101e-09
-4.03526e-08
8.51562e-09
-4.253e-08
8.57539e-09
-4.47189e-08
8.62086e-09
-4.69158e-08
8.65252e-09
-4.91174e-08
8.67085e-09
-5.13204e-08
8.67634e-09
-5.35216e-08
8.66943e-09
-5.57181e-08
8.65055e-09
-5.79068e-08
8.62011e-09
-6.0085e-08
8.57849e-09
-6.22498e-08
8.52605e-09
-6.43987e-08
8.46315e-09
-6.65288e-08
8.3901e-09
-6.86379e-08
8.30719e-09
-7.07233e-08
8.21471e-09
-7.27827e-08
8.1129e-09
-7.48137e-08
8.002e-09
-7.68141e-08
7.88224e-09
-7.87816e-08
7.75381e-09
-8.07141e-08
7.61688e-09
-8.26094e-08
7.47164e-09
-8.44655e-08
7.31823e-09
-8.62801e-08
7.15679e-09
-8.80515e-08
6.98745e-09
-8.97774e-08
6.81033e-09
-9.1456e-08
6.62554e-09
-9.30854e-08
6.43319e-09
-9.46637e-08
6.23337e-09
-9.61889e-08
6.02618e-09
-9.76592e-08
5.8117e-09
-9.90728e-08
5.59004e-09
-1.00428e-07
5.36129e-09
-1.01723e-07
5.12553e-09
-1.02956e-07
4.88287e-09
-1.04125e-07
4.63342e-09
-1.05229e-07
4.37728e-09
-1.06266e-07
4.11457e-09
-1.07234e-07
3.84542e-09
-1.08132e-07
3.56998e-09
-1.08958e-07
3.28839e-09
-1.09711e-07
3.00082e-09
-1.1039e-07
2.70746e-09
-1.10992e-07
2.40849e-09
-1.11517e-07
2.10414e-09
-1.11964e-07
1.79464e-09
-1.1233e-07
1.48023e-09
-1.12616e-07
1.1612e-09
-1.1282e-07
8.37821e-10
-1.12941e-07
5.10424e-10
-1.12978e-07
1.7934e-10
-1.1293e-07
-1.55074e-10
-1.12797e-07
-4.92435e-10
-1.12579e-07
-8.32337e-10
-1.12273e-07
-1.17435e-09
-1.11882e-07
-1.51803e-09
-1.11403e-07
-1.8629e-09
-1.10837e-07
-2.20847e-09
-1.10184e-07
-2.5542e-09
-1.09444e-07
-2.89956e-09
-1.08617e-07
-3.24398e-09
-1.07704e-07
-3.58688e-09
-1.06705e-07
-3.92766e-09
-1.05621e-07
-4.26569e-09
-1.04454e-07
-4.60032e-09
-1.03203e-07
-4.9309e-09
-1.0187e-07
-5.25676e-09
-1.00458e-07
-5.5772e-09
-9.89658e-08
-5.89153e-09
-9.7397e-08
-6.19904e-09
-9.57531e-08
-6.499e-09
-9.40361e-08
-6.7907e-09
-9.22483e-08
-7.0734e-09
-9.03921e-08
-7.34638e-09
-8.84703e-08
-7.6089e-09
-8.64855e-08
-7.86023e-09
-8.44409e-08
-8.09965e-09
-8.23395e-08
-8.32645e-09
-8.01847e-08
-8.53992e-09
-7.798e-08
-8.73936e-09
-7.57292e-08
-8.9241e-09
-7.34359e-08
-9.09347e-09
-7.11042e-08
-9.24683e-09
-6.87383e-08
-9.38357e-09
-6.63424e-08
-9.50309e-09
-6.3921e-08
-9.60482e-09
-6.14786e-08
-9.68824e-09
-5.90198e-08
-9.75282e-09
-5.65495e-08
-9.79812e-09
-5.40726e-08
-9.82369e-09
-5.15939e-08
-9.82915e-09
-4.91187e-08
-9.81414e-09
-4.66519e-08
-9.77836e-09
-4.41989e-08
-9.72155e-09
-4.17648e-08
-9.64351e-09
-3.93549e-08
-9.54406e-09
-3.69745e-08
-9.42311e-09
-3.46288e-08
-9.2806e-09
-3.23232e-08
-9.11654e-09
-3.00629e-08
-8.93101e-09
-2.78532e-08
-8.72413e-09
-2.5699e-08
-8.49611e-09
-2.36056e-08
-8.24723e-09
-2.15779e-08
-7.97784e-09
-1.96206e-08
-7.68837e-09
-1.77385e-08
-7.37938e-09
-1.59361e-08
-7.05148e-09
-1.42177e-08
-6.70542e-09
-1.25873e-08
-6.3421e-09
-1.10487e-08
-5.96252e-09
-9.60532e-09
-5.56788e-09
-8.2603e-09
-5.15958e-09
-7.01628e-09
-4.73922e-09
-5.87546e-09
-4.30872e-09
-4.83946e-09
-3.87027e-09
-3.90927e-09
-3.4265e-09
-3.08516e-09
-2.98047e-09
-2.36658e-09
-2.53584e-09
-1.752e-09
-2.09692e-09
-1.23883e-09
-1.66889e-09
-8.23242e-10
-1.25789e-09
-5.0003e-10
-8.71282e-10
-2.62421e-10
-5.17864e-10
-1.01891e-10
-2.08122e-10
-7.94213e-12
4.54574e-11
3.21726e-11
2.28048e-10
3.38227e-11
3.22217e-10
1.55291e-11
3.07539e-10
1.58478e-10
-1.23032e-11
-9.68842e-11
-6.94388e-11
-1.00923e-10
-1.88035e-10
4.52541e-11
-3.81585e-10
3.11509e-10
-6.61151e-10
6.70109e-10
-1.03558e-09
1.09771e-09
-1.51165e-09
1.5752e-09
-2.09427e-09
2.08697e-09
-2.78669e-09
2.6203e-09
-3.59065e-09
3.16486e-09
-4.50661e-09
3.71228e-09
-5.53393e-09
4.25585e-09
-6.67101e-09
4.7902e-09
-7.91545e-09
5.31111e-09
-9.26421e-09
5.81524e-09
-1.07137e-08
6.30005e-09
-1.22599e-08
6.76361e-09
-1.38985e-08
7.2045e-09
-1.56249e-08
7.62173e-09
-1.74343e-08
8.01464e-09
-1.93217e-08
8.38288e-09
-2.12822e-08
8.72631e-09
-2.33107e-08
9.04499e-09
-2.54023e-08
9.3391e-09
-2.75518e-08
9.60899e-09
-2.97544e-08
9.85506e-09
-3.20051e-08
1.00778e-08
-3.42992e-08
1.02778e-08
-3.66319e-08
1.04556e-08
-3.89985e-08
1.06119e-08
-4.13948e-08
1.07473e-08
-4.38161e-08
1.08624e-08
-4.62584e-08
1.09579e-08
-4.87175e-08
1.10345e-08
-5.11893e-08
1.10927e-08
-5.367e-08
1.11332e-08
-5.61559e-08
1.11567e-08
-5.86432e-08
1.11637e-08
-6.11284e-08
1.11547e-08
-6.36082e-08
1.11303e-08
-6.60792e-08
1.10911e-08
-6.85381e-08
1.10374e-08
-7.09819e-08
1.09698e-08
-7.34075e-08
1.08888e-08
-7.58119e-08
1.07946e-08
-7.81924e-08
1.06877e-08
-8.05461e-08
1.05684e-08
-8.28704e-08
1.04371e-08
-8.51625e-08