/*--------------------------------*- C++ -*----------------------------------*\
  =========                 |
  \\      /  F ield         | OpenFOAM: The Open Source CFD Toolbox
   \\    /   O peration     | Website:  https://openfoam.org
    \\  /    A nd           | Version:  7
     \\/     M anipulation  |
\*---------------------------------------------------------------------------*/
FoamFile
{
    version     2.0;
    format      ascii;
    class       volVectorField;
    location    "0.025";
    object      U;
}
// * * * * * * * * * * * * * * * * * * * * * * * * * * * * * * * * * * * * * //

dimensions      [0 1 -1 0 0 0 0];

internalField   nonuniform List<vector> 
25600
(
(5.66574e-07 -1.2273e-06 0)
(4.23693e-06 -4.24866e-06 0)
(1.1678e-05 -5.40717e-06 0)
(1.87519e-05 -4.09216e-06 0)
(2.26478e-05 -2.17526e-06 0)
(2.24496e-05 -4.14808e-07 0)
(1.85564e-05 1.02552e-06 0)
(1.14468e-05 2.20997e-06 0)
(1.4935e-06 3.15704e-06 0)
(-1.09465e-05 3.96263e-06 0)
(-2.55668e-05 4.62257e-06 0)
(-4.21221e-05 5.18585e-06 0)
(-6.0371e-05 5.68156e-06 0)
(-8.01387e-05 6.10457e-06 0)
(-0.000101218 6.46053e-06 0)
(-0.000123438 6.7659e-06 0)
(-0.000146669 7.01761e-06 0)
(-0.000170751 7.24052e-06 0)
(-0.000195551 7.42417e-06 0)
(-0.000220972 7.56474e-06 0)
(-0.000246879 7.68021e-06 0)
(-0.000273179 7.76916e-06 0)
(-0.000299804 7.83285e-06 0)
(-0.000326652 7.88276e-06 0)
(-0.000353649 7.91188e-06 0)
(-0.000380744 7.9127e-06 0)
(-0.000407857 7.90034e-06 0)
(-0.000434929 7.87901e-06 0)
(-0.000461933 7.83818e-06 0)
(-0.000488813 7.78871e-06 0)
(-0.000515519 7.73989e-06 0)
(-0.00054204 7.67983e-06 0)
(-0.000568335 7.60559e-06 0)
(-0.000594359 7.52374e-06 0)
(-0.000620102 7.42729e-06 0)
(-0.000645538 7.31161e-06 0)
(-0.00067063 7.19282e-06 0)
(-0.000695368 7.08119e-06 0)
(-0.000719742 6.96715e-06 0)
(-0.000743726 6.84812e-06 0)
(-0.000767303 6.73247e-06 0)
(-0.000790467 6.61771e-06 0)
(-0.000813207 6.49703e-06 0)
(-0.000835506 6.37355e-06 0)
(-0.000857356 6.24823e-06 0)
(-0.000878747 6.11107e-06 0)
(-0.000899667 5.95924e-06 0)
(-0.000920105 5.80517e-06 0)
(-0.000940051 5.66043e-06 0)
(-0.000959502 5.52565e-06 0)
(-0.000978452 5.39229e-06 0)
(-0.00099689 5.25187e-06 0)
(-0.0010148 5.10121e-06 0)
(-0.00103219 4.94009e-06 0)
(-0.00104903 4.77415e-06 0)
(-0.00106534 4.61234e-06 0)
(-0.00108108 4.45916e-06 0)
(-0.00109627 4.30999e-06 0)
(-0.0011109 4.15291e-06 0)
(-0.00112495 3.98356e-06 0)
(-0.00113842 3.80755e-06 0)
(-0.0011513 3.63008e-06 0)
(-0.00116358 3.45521e-06 0)
(-0.00117526 3.28316e-06 0)
(-0.00118634 3.11101e-06 0)
(-0.00119679 2.93772e-06 0)
(-0.00120664 2.75939e-06 0)
(-0.00121585 2.57407e-06 0)
(-0.00122444 2.38801e-06 0)
(-0.00123239 2.2046e-06 0)
(-0.0012397 2.02252e-06 0)
(-0.00124638 1.8401e-06 0)
(-0.0012524 1.65362e-06 0)
(-0.00125777 1.46431e-06 0)
(-0.00126249 1.27719e-06 0)
(-0.00126655 1.09001e-06 0)
(-0.00126996 8.99876e-07 0)
(-0.0012727 7.09748e-07 0)
(-0.00127478 5.20208e-07 0)
(-0.00127619 3.30331e-07 0)
(-0.00127693 1.41091e-07 0)
(-0.00127701 -4.96821e-08 0)
(-0.00127642 -2.43189e-07 0)
(-0.00127515 -4.35319e-07 0)
(-0.00127321 -6.25926e-07 0)
(-0.0012706 -8.19447e-07 0)
(-0.0012673 -1.01517e-06 0)
(-0.00126334 -1.21024e-06 0)
(-0.00125869 -1.40567e-06 0)
(-0.00125336 -1.60175e-06 0)
(-0.00124736 -1.79749e-06 0)
(-0.00124068 -1.99442e-06 0)
(-0.00123332 -2.19226e-06 0)
(-0.0012253 -2.38691e-06 0)
(-0.0012166 -2.57796e-06 0)
(-0.00120724 -2.76983e-06 0)
(-0.00119722 -2.96354e-06 0)
(-0.00118653 -3.15605e-06 0)
(-0.00117519 -3.34604e-06 0)
(-0.0011632 -3.53394e-06 0)
(-0.00115057 -3.71934e-06 0)
(-0.0011373 -3.90264e-06 0)
(-0.0011234 -4.08515e-06 0)
(-0.00110887 -4.26601e-06 0)
(-0.00109372 -4.44328e-06 0)
(-0.00107796 -4.61765e-06 0)
(-0.00106159 -4.79062e-06 0)
(-0.00104463 -4.96086e-06 0)
(-0.00102707 -5.12681e-06 0)
(-0.00100894 -5.29015e-06 0)
(-0.000990232 -5.4531e-06 0)
(-0.000970954 -5.61547e-06 0)
(-0.000951116 -5.77663e-06 0)
(-0.000930726 -5.93668e-06 0)
(-0.00090979 -6.09424e-06 0)
(-0.000888323 -6.24682e-06 0)
(-0.000866336 -6.39447e-06 0)
(-0.000843844 -6.5398e-06 0)
(-0.000820855 -6.68364e-06 0)
(-0.000797381 -6.82385e-06 0)
(-0.000773436 -6.95898e-06 0)
(-0.000749037 -7.0898e-06 0)
(-0.000724203 -7.21633e-06 0)
(-0.000698954 -7.33631e-06 0)
(-0.000673316 -7.44776e-06 0)
(-0.000647314 -7.55097e-06 0)
(-0.000620977 -7.64646e-06 0)
(-0.000594333 -7.73309e-06 0)
(-0.000567412 -7.80977e-06 0)
(-0.000540248 -7.87697e-06 0)
(-0.000512878 -7.93462e-06 0)
(-0.000485342 -7.9799e-06 0)
(-0.000457686 -8.00959e-06 0)
(-0.000429959 -8.02355e-06 0)
(-0.000402217 -8.02344e-06 0)
(-0.000374519 -8.00814e-06 0)
(-0.000346929 -7.97302e-06 0)
(-0.00031952 -7.914e-06 0)
(-0.000292373 -7.82969e-06 0)
(-0.000265577 -7.7189e-06 0)
(-0.00023923 -7.57793e-06 0)
(-0.000213438 -7.40171e-06 0)
(-0.000188319 -7.18684e-06 0)
(-0.000163998 -6.93227e-06 0)
(-0.000140611 -6.63624e-06 0)
(-0.0001183 -6.29488e-06 0)
(-9.72175e-05 -5.90403e-06 0)
(-7.75238e-05 -5.46039e-06 0)
(-5.93881e-05 -4.96146e-06 0)
(-4.29852e-05 -4.40383e-06 0)
(-2.8495e-05 -3.78235e-06 0)
(-1.60994e-05 -3.09387e-06 0)
(-5.9751e-06 -2.33965e-06 0)
(1.71817e-06 -1.52529e-06 0)
(6.85903e-06 -6.64106e-07 0)
(9.39923e-06 2.13719e-07 0)
(9.41561e-06 1.03982e-06 0)
(7.2342e-06 1.6681e-06 0)
(3.79479e-06 1.80211e-06 0)
(9.75476e-07 9.72417e-07 0)
(-8.74143e-07 -2.82822e-06 0)
(2.28673e-06 -9.22609e-06 0)
(8.29922e-06 -1.23178e-05 0)
(1.36684e-05 -8.65116e-06 0)
(1.41849e-05 -2.17341e-06 0)
(7.58414e-06 4.65743e-06 0)
(-6.47469e-06 1.10646e-05 0)
(-2.78856e-05 1.68354e-05 0)
(-5.61828e-05 2.1992e-05 0)
(-9.0846e-05 2.65685e-05 0)
(-0.000131377 3.06172e-05 0)
(-0.000177186 3.42283e-05 0)
(-0.000227788 3.74078e-05 0)
(-0.000282651 4.0228e-05 0)
(-0.000341298 4.27038e-05 0)
(-0.000403307 4.48441e-05 0)
(-0.000468231 4.6701e-05 0)
(-0.000535693 4.8296e-05 0)
(-0.000605348 4.96322e-05 0)
(-0.000676817 5.07496e-05 0)
(-0.000749819 5.16613e-05 0)
(-0.000824075 5.23743e-05 0)
(-0.000899299 5.2926e-05 0)
(-0.000975275 5.33303e-05 0)
(-0.00105179 5.35774e-05 0)
(-0.00112862 5.36976e-05 0)
(-0.0012056 5.37063e-05 0)
(-0.00128257 5.36027e-05 0)
(-0.00135938 5.34076e-05 0)
(-0.0014359 5.31377e-05 0)
(-0.00151201 5.27896e-05 0)
(-0.00158761 5.23714e-05 0)
(-0.00166259 5.18994e-05 0)
(-0.00173688 5.13702e-05 0)
(-0.00181038 5.07809e-05 0)
(-0.00188302 5.01413e-05 0)
(-0.00195475 4.94599e-05 0)
(-0.00202549 4.87402e-05 0)
(-0.00209521 4.79869e-05 0)
(-0.00216384 4.72057e-05 0)
(-0.00223135 4.63995e-05 0)
(-0.00229768 4.55661e-05 0)
(-0.0023628 4.4707e-05 0)
(-0.00242668 4.38297e-05 0)
(-0.00248928 4.29351e-05 0)
(-0.00255057 4.20157e-05 0)
(-0.00261051 4.10675e-05 0)
(-0.00266908 4.00981e-05 0)
(-0.00272626 3.91146e-05 0)
(-0.00278201 3.81179e-05 0)
(-0.00283631 3.71105e-05 0)
(-0.00288914 3.60905e-05 0)
(-0.00294047 3.5052e-05 0)
(-0.00299027 3.39892e-05 0)
(-0.00303852 3.29036e-05 0)
(-0.00308521 3.1807e-05 0)
(-0.00313031 3.07042e-05 0)
(-0.0031738 2.95911e-05 0)
(-0.00321566 2.84625e-05 0)
(-0.00325586 2.73147e-05 0)
(-0.00329439 2.61508e-05 0)
(-0.00333123 2.4972e-05 0)
(-0.00336636 2.37773e-05 0)
(-0.00339976 2.2573e-05 0)
(-0.00343142 2.13629e-05 0)
(-0.00346131 2.01434e-05 0)
(-0.00348943 1.89118e-05 0)
(-0.00351575 1.76649e-05 0)
(-0.00354027 1.64057e-05 0)
(-0.00356296 1.51413e-05 0)
(-0.00358383 1.38701e-05 0)
(-0.00360284 1.25892e-05 0)
(-0.00362 1.13016e-05 0)
(-0.00363529 1.00077e-05 0)
(-0.0036487 8.70729e-06 0)
(-0.00366023 7.40109e-06 0)
(-0.00366987 6.08749e-06 0)
(-0.0036776 4.76841e-06 0)
(-0.00368342 3.44884e-06 0)
(-0.00368733 2.12728e-06 0)
(-0.00368932 7.99599e-07 0)
(-0.00368939 -5.33125e-07 0)
(-0.00368752 -1.86858e-06 0)
(-0.00368373 -3.2063e-06 0)
(-0.00367799 -4.54558e-06 0)
(-0.00367032 -5.88669e-06 0)
(-0.00366071 -7.23079e-06 0)
(-0.00364916 -8.57635e-06 0)
(-0.00363568 -9.9208e-06 0)
(-0.00362026 -1.12649e-05 0)
(-0.0036029 -1.26102e-05 0)
(-0.00358361 -1.39539e-05 0)
(-0.00356241 -1.52906e-05 0)
(-0.00353928 -1.66193e-05 0)
(-0.00351423 -1.79426e-05 0)
(-0.00348728 -1.92614e-05 0)
(-0.00345845 -2.05741e-05 0)
(-0.00342772 -2.18796e-05 0)
(-0.00339512 -2.31759e-05 0)
(-0.00336067 -2.44598e-05 0)
(-0.00332438 -2.57308e-05 0)
(-0.00328625 -2.69916e-05 0)
(-0.00324632 -2.82429e-05 0)
(-0.00320459 -2.94812e-05 0)
(-0.00316109 -3.07047e-05 0)
(-0.00311581 -3.19153e-05 0)
(-0.0030688 -3.31125e-05 0)
(-0.00302008 -3.42919e-05 0)
(-0.00296966 -3.54525e-05 0)
(-0.00291756 -3.65986e-05 0)
(-0.00286381 -3.77336e-05 0)
(-0.00280844 -3.88556e-05 0)
(-0.00275146 -3.99616e-05 0)
(-0.0026929 -4.10497e-05 0)
(-0.0026328 -4.21171e-05 0)
(-0.00257119 -4.31596e-05 0)
(-0.00250809 -4.41769e-05 0)
(-0.00244353 -4.51715e-05 0)
(-0.00237757 -4.61432e-05 0)
(-0.00231025 -4.70871e-05 0)
(-0.0022416 -4.79983e-05 0)
(-0.00217167 -4.8875e-05 0)
(-0.00210052 -4.97141e-05 0)
(-0.00202822 -5.05094e-05 0)
(-0.00195482 -5.12546e-05 0)
(-0.0018804 -5.19467e-05 0)
(-0.00180502 -5.2584e-05 0)
(-0.00172877 -5.31626e-05 0)
(-0.00165176 -5.36767e-05 0)
(-0.00157406 -5.41204e-05 0)
(-0.00149579 -5.44867e-05 0)
(-0.00141707 -5.47663e-05 0)
(-0.00133803 -5.49496e-05 0)
(-0.00125883 -5.50284e-05 0)
(-0.00117961 -5.49951e-05 0)
(-0.00110055 -5.48387e-05 0)
(-0.00102185 -5.45446e-05 0)
(-0.000943721 -5.40969e-05 0)
(-0.000866373 -5.34807e-05 0)
(-0.000790065 -5.26808e-05 0)
(-0.000715075 -5.16792e-05 0)
(-0.000641701 -5.04566e-05 0)
(-0.000570258 -4.89943e-05 0)
(-0.000501086 -4.72754e-05 0)
(-0.000434552 -4.52836e-05 0)
(-0.000371047 -4.30022e-05 0)
(-0.000310979 -4.04148e-05 0)
(-0.000254771 -3.75068e-05 0)
(-0.00020286 -3.42648e-05 0)
(-0.000155694 -3.06784e-05 0)
(-0.000113719 -2.6744e-05 0)
(-7.73612e-05 -2.24708e-05 0)
(-4.70063e-05 -1.78884e-05 0)
(-2.29693e-05 -1.30569e-05 0)
(-5.4378e-06 -8.08725e-06 0)
(5.60947e-06 -3.18115e-06 0)
(1.05098e-05 1.3059e-06 0)
(1.00947e-05 4.75958e-06 0)
(6.1561e-06 6.1363e-06 0)
(1.80966e-06 3.7954e-06 0)
(-2.25355e-06 -1.85683e-06 0)
(-3.31184e-06 -1.06188e-05 0)
(-4.7994e-06 -1.49677e-05 0)
(-8.30011e-06 -7.78003e-06 0)
(-1.7566e-05 5.29692e-06 0)
(-3.54119e-05 2.03061e-05 0)
(-6.27917e-05 3.53911e-05 0)
(-0.000100016 4.97804e-05 0)
(-0.00014698 6.31878e-05 0)
(-0.000203284 7.54468e-05 0)
(-0.000268273 8.6627e-05 0)
(-0.000341345 9.66759e-05 0)
(-0.00042178 0.000105714 0)
(-0.000508867 0.00011377 0)
(-0.000601955 0.000120886 0)
(-0.000700339 0.000127144 0)
(-0.000803404 0.000132596 0)
(-0.000910573 0.000137275 0)
(-0.00102125 0.000141273 0)
(-0.00113493 0.000144623 0)
(-0.00125114 0.000147366 0)
(-0.0013694 0.00014958 0)
(-0.0014893 0.000151297 0)
(-0.00161049 0.000152549 0)
(-0.00173259 0.000153398 0)
(-0.00185528 0.000153865 0)
(-0.0019783 0.000153983 0)
(-0.00210136 0.000153802 0)
(-0.00222423 0.000153346 0)
(-0.0023467 0.000152634 0)
(-0.00246856 0.000151699 0)
(-0.00258964 0.000150564 0)
(-0.00270979 0.000149241 0)
(-0.00282886 0.000147756 0)
(-0.0029467 0.000146122 0)
(-0.00306323 0.000144347 0)
(-0.0031783 0.000142446 0)
(-0.00329183 0.000140432 0)
(-0.00340374 0.000138312 0)
(-0.00351394 0.000136096 0)
(-0.00362234 0.000133795 0)
(-0.00372888 0.000131412 0)
(-0.0038335 0.00012895 0)
(-0.00393612 0.000126423 0)
(-0.00403671 0.000123836 0)
(-0.0041352 0.000121188 0)
(-0.00423154 0.000118478 0)
(-0.00432567 0.000115711 0)
(-0.00441756 0.000112887 0)
(-0.00450716 0.000110008 0)
(-0.00459443 0.000107081 0)
(-0.00467933 0.00010411 0)
(-0.0047618 0.000101094 0)
(-0.00484183 9.80294e-05 0)
(-0.00491937 9.49145e-05 0)
(-0.00499437 9.17548e-05 0)
(-0.00506681 8.85561e-05 0)
(-0.00513665 8.53159e-05 0)
(-0.00520387 8.20332e-05 0)
(-0.00526842 7.87125e-05 0)
(-0.00533028 7.53536e-05 0)
(-0.00538941 7.19553e-05 0)
(-0.00544579 6.85172e-05 0)
(-0.00549939 6.50409e-05 0)
(-0.00555018 6.1535e-05 0)
(-0.00559813 5.80012e-05 0)
(-0.00564322 5.44347e-05 0)
(-0.00568543 5.08376e-05 0)
(-0.00572473 4.72117e-05 0)
(-0.00576109 4.35581e-05 0)
(-0.00579451 3.9881e-05 0)
(-0.00582495 3.61796e-05 0)
(-0.00585241 3.24546e-05 0)
(-0.00587686 2.87133e-05 0)
(-0.00589829 2.49548e-05 0)
(-0.00591668 2.11747e-05 0)
(-0.00593202 1.7378e-05 0)
(-0.00594431 1.3569e-05 0)
(-0.00595352 9.74796e-06 0)
(-0.00595964 5.91817e-06 0)
(-0.00596268 2.07873e-06 0)
(-0.00596261 -1.77456e-06 0)
(-0.00595944 -5.63641e-06 0)
(-0.00595317 -9.50068e-06 0)
(-0.00594377 -1.33708e-05 0)
(-0.00593127 -1.72471e-05 0)
(-0.00591565 -2.11232e-05 0)
(-0.00589692 -2.49983e-05 0)
(-0.00587507 -2.88741e-05 0)
(-0.00585012 -3.27466e-05 0)
(-0.00582207 -3.66122e-05 0)
(-0.00579092 -4.04709e-05 0)
(-0.00575668 -4.43173e-05 0)
(-0.00571937 -4.81445e-05 0)
(-0.00567899 -5.19542e-05 0)
(-0.00563556 -5.57503e-05 0)
(-0.00558909 -5.95284e-05 0)
(-0.00553961 -6.32819e-05 0)
(-0.00548713 -6.70091e-05 0)
(-0.00543166 -7.07084e-05 0)
(-0.00537323 -7.4377e-05 0)
(-0.00531188 -7.80142e-05 0)
(-0.00524761 -8.16203e-05 0)
(-0.00518045 -8.51924e-05 0)
(-0.00511043 -8.87271e-05 0)
(-0.00503759 -9.22237e-05 0)
(-0.00496195 -9.56803e-05 0)
(-0.00488355 -9.90927e-05 0)
(-0.00480242 -0.000102459 0)
(-0.00471859 -0.000105781 0)
(-0.0046321 -0.000109059 0)
(-0.00454299 -0.000112292 0)
(-0.00445133 -0.000115474 0)
(-0.00435713 -0.0001186 0)
(-0.00426046 -0.000121663 0)
(-0.00416136 -0.000124659 0)
(-0.00405989 -0.000127584 0)
(-0.00395611 -0.000130439 0)
(-0.00385008 -0.000133218 0)
(-0.00374188 -0.000135912 0)
(-0.00363157 -0.000138512 0)
(-0.00351923 -0.000141011 0)
(-0.00340497 -0.000143398 0)
(-0.00328886 -0.000145661 0)
(-0.00317102 -0.000147786 0)
(-0.00305154 -0.000149762 0)
(-0.00293056 -0.000151579 0)
(-0.0028082 -0.000153223 0)
(-0.00268463 -0.000154677 0)
(-0.00255999 -0.000155925 0)
(-0.00243447 -0.000156945 0)
(-0.00230826 -0.000157714 0)
(-0.00218157 -0.000158204 0)
(-0.00205464 -0.000158391 0)
(-0.00192772 -0.000158248 0)
(-0.0018011 -0.000157741 0)
(-0.00167509 -0.000156834 0)
(-0.00155002 -0.000155487 0)
(-0.00142624 -0.000153659 0)
(-0.00130417 -0.000151308 0)
(-0.00118422 -0.000148387 0)
(-0.00106687 -0.000144849 0)
(-0.000952602 -0.000140647 0)
(-0.000841944 -0.000135733 0)
(-0.000735458 -0.000130065 0)
(-0.000633738 -0.000123599 0)
(-0.0005374 -0.000116297 0)
(-0.000447082 -0.000108128 0)
(-0.000363432 -9.90678e-05 0)
(-0.000287101 -8.91093e-05 0)
(-0.000218723 -7.82677e-05 0)
(-0.000158887 -6.65965e-05 0)
(-0.000108108 -5.42054e-05 0)
(-6.67716e-05 -4.12892e-05 0)
(-3.50708e-05 -2.81729e-05 0)
(-1.29023e-05 -1.53848e-05 0)
(2.46931e-07 -3.76506e-06 0)
(5.47049e-06 5.38768e-06 0)
(4.82048e-06 1.00953e-05 0)
(1.68523e-06 7.25267e-06 0)
(-2.0935e-06 1.03787e-06 0)
(-6.16134e-06 -6.02555e-06 0)
(-1.50261e-05 -8.43918e-06 0)
(-2.90589e-05 3.91318e-06 0)
(-5.0793e-05 2.50089e-05 0)
(-8.26012e-05 4.98324e-05 0)
(-0.000125695 7.56739e-05 0)
(-0.00018061 0.000101085 0)
(-0.000247401 0.000125248 0)
(-0.000325687 0.00014787 0)
(-0.000414972 0.000168696 0)
(-0.00051451 0.000187716 0)
(-0.000623494 0.000204926 0)
(-0.00074115 0.00022036 0)
(-0.000866602 0.000234113 0)
(-0.000999045 0.000246265 0)
(-0.0011377 0.000256874 0)
(-0.00128178 0.000266074 0)
(-0.00143058 0.000273941 0)
(-0.00158343 0.000280555 0)
(-0.00173967 0.000286047 0)
(-0.00189872 0.000290482 0)
(-0.00206004 0.000293939 0)
(-0.00222311 0.000296526 0)
(-0.00238747 0.000298301 0)
(-0.0025527 0.000299328 0)
(-0.00271841 0.000299695 0)
(-0.00288423 0.000299458 0)
(-0.00304986 0.000298668 0)
(-0.00321499 0.000297391 0)
(-0.00337935 0.000295665 0)
(-0.00354271 0.000293526 0)
(-0.00370485 0.000291022 0)
(-0.00386555 0.000288188 0)
(-0.00402466 0.000285051 0)
(-0.00418201 0.000281643 0)
(-0.00433743 0.000277989 0)
(-0.00449081 0.000274104 0)
(-0.00464201 0.000270012 0)
(-0.00479091 0.000265733 0)
(-0.00493742 0.000261278 0)
(-0.00508143 0.000256659 0)
(-0.00522285 0.000251887 0)
(-0.00536158 0.000246972 0)
(-0.00549757 0.000241924 0)
(-0.00563072 0.00023675 0)
(-0.00576098 0.000231463 0)
(-0.00588827 0.000226066 0)
(-0.00601252 0.000220557 0)
(-0.00613368 0.000214938 0)
(-0.00625167 0.000209215 0)
(-0.00636645 0.000203398 0)
(-0.00647795 0.000197487 0)
(-0.00658615 0.000191484 0)
(-0.00669097 0.000185393 0)
(-0.00679236 0.000179217 0)
(-0.00689027 0.000172956 0)
(-0.00698467 0.000166609 0)
(-0.0070755 0.000160178 0)
(-0.00716272 0.000153674 0)
(-0.00724629 0.000147099 0)
(-0.00732617 0.000140448 0)
(-0.00740233 0.000133725 0)
(-0.00747471 0.000126932 0)
(-0.00754328 0.000120074 0)
(-0.00760801 0.000113155 0)
(-0.00766887 0.000106176 0)
(-0.00772583 9.91375e-05 0)
(-0.00777884 9.20479e-05 0)
(-0.00782789 8.49057e-05 0)
(-0.00787294 7.77111e-05 0)
(-0.00791397 7.04713e-05 0)
(-0.00795096 6.31901e-05 0)
(-0.00798387 5.58701e-05 0)
(-0.0080127 4.85151e-05 0)
(-0.00803741 4.11241e-05 0)
(-0.00805801 3.36988e-05 0)
(-0.00807446 2.62491e-05 0)
(-0.00808674 1.87779e-05 0)
(-0.00809486 1.12823e-05 0)
(-0.0080988 3.76664e-06 0)
(-0.00809854 -3.76414e-06 0)
(-0.00809409 -1.13101e-05 0)
(-0.00808543 -1.88676e-05 0)
(-0.00807256 -2.64314e-05 0)
(-0.00805549 -3.40012e-05 0)
(-0.00803421 -4.15738e-05 0)
(-0.00800871 -4.91411e-05 0)
(-0.00797901 -5.6701e-05 0)
(-0.00794512 -6.42553e-05 0)
(-0.00790703 -7.17983e-05 0)
(-0.00786477 -7.93201e-05 0)
(-0.00781834 -8.68162e-05 0)
(-0.00776775 -9.42854e-05 0)
(-0.00771302 -0.000101724 0)
(-0.00765417 -0.000109127 0)
(-0.00759123 -0.000116494 0)
(-0.00752421 -0.000123817 0)
(-0.00745313 -0.00013109 0)
(-0.00737803 -0.00013831 0)
(-0.00729894 -0.000145475 0)
(-0.00721587 -0.000152581 0)
(-0.00712887 -0.000159624 0)
(-0.00703798 -0.0001666 0)
(-0.00694322 -0.000173507 0)
(-0.00684464 -0.000180342 0)
(-0.00674228 -0.000187098 0)
(-0.00663619 -0.000193771 0)
(-0.00652641 -0.000200356 0)
(-0.00641299 -0.000206851 0)
(-0.00629598 -0.000213254 0)
(-0.00617545 -0.000219561 0)
(-0.00605146 -0.000225763 0)
(-0.00592405 -0.000231851 0)
(-0.00579331 -0.000237815 0)
(-0.00565931 -0.00024365 0)
(-0.00552213 -0.000249348 0)
(-0.00538183 -0.0002549 0)
(-0.00523851 -0.000260294 0)
(-0.00509227 -0.000265519 0)
(-0.00494322 -0.000270559 0)
(-0.00479145 -0.000275399 0)
(-0.00463709 -0.000280016 0)
(-0.00448027 -0.000284392 0)
(-0.00432113 -0.000288504 0)
(-0.00415982 -0.000292328 0)
(-0.00399649 -0.000295838 0)
(-0.00383135 -0.000299006 0)
(-0.0036646 -0.000301804 0)
(-0.00349645 -0.000304193 0)
(-0.00332714 -0.000306133 0)
(-0.00315693 -0.000307577 0)
(-0.00298612 -0.000308479 0)
(-0.00281502 -0.000308787 0)
(-0.00264398 -0.000308444 0)
(-0.00247337 -0.000307388 0)
(-0.00230362 -0.00030555 0)
(-0.00213516 -0.000302859 0)
(-0.00196848 -0.000299241 0)
(-0.00180411 -0.000294614 0)
(-0.00164261 -0.000288895 0)
(-0.00148459 -0.000282 0)
(-0.0013307 -0.000273844 0)
(-0.00118161 -0.000264343 0)
(-0.00103804 -0.000253417 0)
(-0.000900773 -0.000240995 0)
(-0.000770579 -0.000227012 0)
(-0.000648263 -0.000211423 0)
(-0.000534633 -0.000194201 0)
(-0.000430491 -0.000175352 0)
(-0.000336608 -0.000154933 0)
(-0.000253686 -0.000133074 0)
(-0.000182318 -0.000110004 0)
(-0.000122936 -8.61039e-05 0)
(-7.57362e-05 -6.19731e-05 0)
(-4.05889e-05 -3.85276e-05 0)
(-1.69186e-05 -1.71395e-05 0)
(-3.56296e-06 1.92419e-07 0)
(1.43515e-06 1.05755e-05 0)
(1.08195e-06 9.49279e-06 0)
(-1.74203e-06 4.96114e-06 0)
(-8.25013e-06 3.89431e-06 0)
(-2.42453e-05 7.57439e-06 0)
(-4.91129e-05 2.78144e-05 0)
(-8.41659e-05 5.89043e-05 0)
(-0.000131264 9.52355e-05 0)
(-0.000191352 0.0001335 0)
(-0.000264992 0.000171634 0)
(-0.000352203 0.000208488 0)
(-0.000452739 0.000243306 0)
(-0.00056602 0.000275727 0)
(-0.000691308 0.000305579 0)
(-0.000827793 0.000332746 0)
(-0.000974523 0.000357279 0)
(-0.00113059 0.000379241 0)
(-0.00129508 0.000398699 0)
(-0.00146704 0.000415804 0)
(-0.0016456 0.000430674 0)
(-0.00182992 0.000443425 0)
(-0.00201918 0.000454226 0)
(-0.00221262 0.000463205 0)
(-0.00240955 0.00047049 0)
(-0.00260928 0.000476226 0)
(-0.00281121 0.000480542 0)
(-0.00301478 0.000483541 0)
(-0.00321945 0.00048535 0)
(-0.00342476 0.000486075 0)
(-0.00363026 0.000485807 0)
(-0.00383556 0.000484648 0)
(-0.00404029 0.000482682 0)
(-0.00424412 0.000479981 0)
(-0.00444674 0.000476615 0)
(-0.00464788 0.000472646 0)
(-0.0048473 0.000468126 0)
(-0.00504475 0.000463106 0)
(-0.00524005 0.000457638 0)
(-0.005433 0.000451759 0)
(-0.00562343 0.000445502 0)
(-0.00581117 0.000438903 0)
(-0.00599608 0.000431989 0)
(-0.00617804 0.000424782 0)
(-0.00635691 0.000417307 0)
(-0.00653257 0.000409585 0)
(-0.00670493 0.000401624 0)
(-0.00687386 0.000393436 0)
(-0.00703929 0.000385036 0)
(-0.00720111 0.000376439 0)
(-0.00735925 0.000367655 0)
(-0.00751362 0.000358692 0)
(-0.00766414 0.000349557 0)
(-0.00781073 0.000340254 0)
(-0.00795332 0.000330787 0)
(-0.00809185 0.000321159 0)
(-0.00822624 0.000311378 0)
(-0.00835644 0.000301455 0)
(-0.00848237 0.000291394 0)
(-0.00860399 0.000281194 0)
(-0.00872122 0.000270858 0)
(-0.00883402 0.00026039 0)
(-0.00894232 0.000249795 0)
(-0.00904607 0.000239078 0)
(-0.00914524 0.000228242 0)
(-0.00923976 0.000217292 0)
(-0.00932959 0.000206237 0)
(-0.00941468 0.000195074 0)
(-0.009495 0.000183807 0)
(-0.00957049 0.000172442 0)
(-0.00964112 0.000160985 0)
(-0.00970685 0.000149441 0)
(-0.00976765 0.000137814 0)
(-0.00982348 0.000126106 0)
(-0.00987431 0.000114322 0)
(-0.0099201 0.000102473 0)
(-0.00996084 9.05601e-05 0)
(-0.00999649 7.85847e-05 0)
(-0.010027 6.65552e-05 0)
(-0.0100525 5.44766e-05 0)
(-0.0100727 4.23527e-05 0)
(-0.0100878 3.01906e-05 0)
(-0.0100977 1.79934e-05 0)
(-0.0101024 5.76244e-06 0)
(-0.0101019 -6.49348e-06 0)
(-0.0100962 -1.87667e-05 0)
(-0.0100853 -3.10576e-05 0)
(-0.0100691 -4.33629e-05 0)
(-0.0100477 -5.56723e-05 0)
(-0.0100211 -6.79787e-05 0)
(-0.00998928 -8.02798e-05 0)
(-0.00995222 -9.25703e-05 0)
(-0.00990994 -0.000104843 0)
(-0.00986247 -0.000117093 0)
(-0.0098098 -0.000129313 0)
(-0.00975196 -0.000141493 0)
(-0.00968897 -0.000153627 0)
(-0.00962084 -0.000165712 0)
(-0.00954759 -0.000177742 0)
(-0.00946926 -0.000189708 0)
(-0.00938586 -0.000201603 0)
(-0.00929744 -0.000213422 0)
(-0.00920401 -0.000225158 0)
(-0.00910563 -0.000236804 0)
(-0.00900232 -0.000248355 0)
(-0.00889413 -0.000259805 0)
(-0.0087811 -0.000271147 0)
(-0.00866328 -0.000282376 0)
(-0.00854072 -0.000293487 0)
(-0.00841347 -0.000304473 0)
(-0.00828159 -0.000315322 0)
(-0.00814513 -0.000326027 0)
(-0.00800416 -0.000336585 0)
(-0.00785875 -0.000346988 0)
(-0.00770897 -0.000357227 0)
(-0.0075549 -0.000367289 0)
(-0.0073966 -0.000377163 0)
(-0.00723418 -0.000386838 0)
(-0.00706772 -0.000396298 0)
(-0.00689733 -0.000405531 0)
(-0.00672309 -0.000414522 0)
(-0.00654512 -0.000423253 0)
(-0.00636355 -0.0004317 0)
(-0.0061785 -0.000439841 0)
(-0.00599011 -0.000447651 0)
(-0.00579853 -0.000455102 0)
(-0.00560392 -0.000462157 0)
(-0.00540646 -0.000468782 0)
(-0.00520634 -0.000474937 0)
(-0.00500376 -0.000480583 0)
(-0.00479897 -0.000485672 0)
(-0.0045922 -0.000490152 0)
(-0.00438375 -0.000493962 0)
(-0.00417389 -0.000497039 0)
(-0.00396296 -0.000499309 0)
(-0.00375133 -0.000500696 0)
(-0.00353937 -0.000501115 0)
(-0.00332753 -0.000500475 0)
(-0.00311625 -0.00049868 0)
(-0.00290606 -0.000495623 0)
(-0.0026975 -0.000491191 0)
(-0.00249115 -0.000485267 0)
(-0.00228767 -0.000477729 0)
(-0.00208772 -0.000468451 0)
(-0.00189204 -0.000457302 0)
(-0.00170141 -0.000444154 0)
(-0.00151662 -0.000428884 0)
(-0.00133856 -0.000411375 0)
(-0.0011681 -0.000391524 0)
(-0.00100618 -0.000369244 0)
(-0.000853713 -0.000344477 0)
(-0.000711642 -0.000317204 0)
(-0.000580879 -0.000287461 0)
(-0.000462293 -0.000255362 0)
(-0.000356667 -0.000221133 0)
(-0.000264658 -0.00018515 0)
(-0.000186744 -0.000148009 0)
(-0.000123155 -0.000110602 0)
(-7.37887e-05 -7.42356e-05 0)
(-3.81111e-05 -4.07857e-05 0)
(-1.50416e-05 -1.28825e-05 0)
(-2.97214e-06 5.79609e-06 0)
(2.80444e-07 9.57665e-06 0)
(-1.6706e-06 9.6274e-06 0)
(-1.08581e-05 1.85294e-05 0)
(-3.38844e-05 3.24141e-05 0)
(-6.95654e-05 6.38441e-05 0)
(-0.000118159 0.000107287 0)
(-0.000180901 0.000157074 0)
(-0.000258467 0.000209435 0)
(-0.000351163 0.000261975 0)
(-0.000458999 0.000313064 0)
(-0.000581625 0.000361704 0)
(-0.000718455 0.00040732 0)
(-0.000868767 0.000449511 0)
(-0.00103164 0.000488163 0)
(-0.0012061 0.000523215 0)
(-0.00139118 0.000554691 0)
(-0.00158583 0.000582722 0)
(-0.00178905 0.000607431 0)
(-0.00199987 0.000628968 0)
(-0.00221732 0.000647529 0)
(-0.00244049 0.000663289 0)
(-0.00266853 0.000676427 0)
(-0.00290063 0.000687147 0)
(-0.00313602 0.000695626 0)
(-0.00337401 0.000702032 0)
(-0.00361394 0.000706548 0)
(-0.00385519 0.000709327 0)
(-0.00409723 0.000710518 0)
(-0.00433952 0.000710269 0)
(-0.00458161 0.000708704 0)
(-0.00482307 0.000705946 0)
(-0.00506349 0.00070211 0)
(-0.00530254 0.000697295 0)
(-0.00553988 0.000691589 0)
(-0.00577522 0.000685075 0)
(-0.00600828 0.000677825 0)
(-0.00623882 0.000669905 0)
(-0.00646662 0.000661373 0)
(-0.00669146 0.000652285 0)
(-0.00691315 0.000642685 0)
(-0.00713153 0.000632612 0)
(-0.00734642 0.000622102 0)
(-0.00755767 0.000611189 0)
(-0.00776516 0.000599904 0)
(-0.00796875 0.000588267 0)
(-0.00816831 0.000576299 0)
(-0.00836373 0.000564019 0)
(-0.00855489 0.000551439 0)
(-0.0087417 0.000538573 0)
(-0.00892405 0.000525436 0)
(-0.00910186 0.000512046 0)
(-0.00927502 0.000498411 0)
(-0.00944346 0.000484533 0)
(-0.0096071 0.00047042 0)
(-0.00976584 0.000456083 0)
(-0.00991961 0.000441529 0)
(-0.0100683 0.000426765 0)
(-0.010212 0.000411797 0)
(-0.0103504 0.000396634 0)
(-0.0104836 0.000381284 0)
(-0.0106115 0.000365747 0)
(-0.010734 0.000350027 0)
(-0.010851 0.000334133 0)
(-0.0109626 0.000318073 0)
(-0.0110686 0.000301856 0)
(-0.011169 0.000285486 0)
(-0.0112638 0.000268964 0)
(-0.0113528 0.0002523 0)
(-0.0114361 0.000235504 0)
(-0.0115136 0.000218578 0)
(-0.0115853 0.000201529 0)
(-0.0116511 0.000184366 0)
(-0.011711 0.000167096 0)
(-0.0117649 0.000149725 0)
(-0.0118129 0.000132263 0)
(-0.0118548 0.000114711 0)
(-0.0118908 9.70777e-05 0)
(-0.0119206 7.93759e-05 0)
(-0.0119443 6.16106e-05 0)
(-0.011962 4.3784e-05 0)
(-0.0119735 2.5906e-05 0)
(-0.0119789 7.98672e-06 0)
(-0.0119781 -9.96941e-06 0)
(-0.0119712 -2.79553e-05 0)
(-0.0119581 -4.59615e-05 0)
(-0.0119388 -6.39825e-05 0)
(-0.0119134 -8.20108e-05 0)
(-0.0118817 -0.000100034 0)
(-0.0118439 -0.000118045 0)
(-0.0118 -0.000136039 0)
(-0.0117498 -0.000154008 0)
(-0.0116936 -0.000171939 0)
(-0.0116312 -0.000189823 0)
(-0.0115627 -0.000207651 0)
(-0.0114881 -0.000225414 0)
(-0.0114075 -0.000243104 0)
(-0.0113208 -0.000260711 0)
(-0.0112281 -0.000278225 0)
(-0.0111295 -0.000295636 0)
(-0.0110249 -0.000312936 0)
(-0.0109144 -0.000330117 0)
(-0.010798 -0.000347168 0)
(-0.0106759 -0.000364079 0)
(-0.0105479 -0.000380842 0)
(-0.0104143 -0.000397449 0)
(-0.010275 -0.000413891 0)
(-0.0101302 -0.000430157 0)
(-0.00997975 -0.000446235 0)
(-0.00982388 -0.000462114 0)
(-0.00966262 -0.000477784 0)
(-0.00949604 -0.000493234 0)
(-0.00932422 -0.000508451 0)
(-0.00914726 -0.000523422 0)
(-0.00896524 -0.000538131 0)
(-0.00877825 -0.000552561 0)
(-0.0085864 -0.000566694 0)
(-0.0083898 -0.000580511 0)
(-0.00818857 -0.000593992 0)
(-0.00798282 -0.000607112 0)
(-0.0077727 -0.000619842 0)
(-0.00755833 -0.000632151 0)
(-0.00733989 -0.000644008 0)
(-0.00711753 -0.000655376 0)
(-0.00689144 -0.000666211 0)
(-0.0066618 -0.000676465 0)
(-0.00642882 -0.000686087 0)
(-0.00619274 -0.000695021 0)
(-0.0059538 -0.000703205 0)
(-0.00571228 -0.00071057 0)
(-0.00546848 -0.000717037 0)
(-0.00522271 -0.000722521 0)
(-0.00497534 -0.000726926 0)
(-0.00472674 -0.000730149 0)
(-0.00447735 -0.000732079 0)
(-0.00422761 -0.000732595 0)
(-0.00397804 -0.000731567 0)
(-0.00372916 -0.000728855 0)
(-0.00348158 -0.000724309 0)
(-0.00323593 -0.000717771 0)
(-0.00299288 -0.000709078 0)
(-0.00275318 -0.000698058 0)
(-0.00251761 -0.000684536 0)
(-0.002287 -0.000668334 0)
(-0.00206223 -0.000649278 0)
(-0.00184423 -0.000627202 0)
(-0.00163396 -0.000601953 0)
(-0.00143244 -0.000573396 0)
(-0.00124068 -0.000541426 0)
(-0.00105972 -0.00050598 0)
(-0.000890585 -0.000467053 0)
(-0.000734283 -0.000424721 0)
(-0.000591758 -0.000379167 0)
(-0.000463865 -0.000330728 0)
(-0.000351323 -0.000279941 0)
(-0.000254667 -0.00022762 0)
(-0.000174193 -0.000174943 0)
(-0.000109889 -0.000123578 0)
(-6.135e-05 -7.58513e-05 0)
(-2.76901e-05 -3.49179e-05 0)
(-7.80818e-06 -5.07029e-06 0)
(-5.81514e-07 7.17717e-06 0)
(-1.89372e-06 1.56035e-05 0)
(-1.40447e-05 3.82249e-05 0)
(-4.41588e-05 6.61697e-05 0)
(-9.04469e-05 0.000111951 0)
(-0.000152415 0.0001703 0)
(-0.000230761 0.000235529 0)
(-0.000325714 0.000303732 0)
(-0.000437401 0.000372153 0)
(-0.000565639 0.000438912 0)
(-0.000709967 0.000502775 0)
(-0.000869784 0.000562857 0)
(-0.00104426 0.00061872 0)
(-0.00123245 0.000670076 0)
(-0.00143338 0.000716804 0)
(-0.00164593 0.000758936 0)
(-0.00186905 0.00079656 0)
(-0.00210166 0.000829809 0)
(-0.00234267 0.000858891 0)
(-0.00259108 0.000884022 0)
(-0.00284588 0.000905408 0)
(-0.00310612 0.000923306 0)
(-0.00337092 0.000937953 0)
(-0.00363944 0.000949576 0)
(-0.00391089 0.000958412 0)
(-0.00418455 0.000964685 0)
(-0.00445973 0.0009686 0)
(-0.0047358 0.000970361 0)
(-0.00501221 0.000970159 0)
(-0.0052884 0.000968162 0)
(-0.0055639 0.000964534 0)
(-0.00583826 0.000959422 0)
(-0.00611108 0.000952962 0)
(-0.00638198 0.000945277 0)
(-0.00665062 0.000936481 0)
(-0.0069167 0.000926671 0)
(-0.00717993 0.000915934 0)
(-0.00744005 0.000904354 0)
(-0.00769681 0.000892003 0)
(-0.00795 0.000878942 0)
(-0.00819942 0.000865228 0)
(-0.00844488 0.000850909 0)
(-0.0086862 0.000836028 0)
(-0.00892322 0.000820622 0)
(-0.00915579 0.000804726 0)
(-0.00938377 0.000788372 0)
(-0.00960702 0.000771588 0)
(-0.00982542 0.000754391 0)
(-0.0100388 0.000736797 0)
(-0.0102472 0.000718828 0)
(-0.0104503 0.000700502 0)
(-0.0106481 0.000681831 0)
(-0.0108405 0.000662828 0)
(-0.0110275 0.000643505 0)
(-0.0112088 0.000623876 0)
(-0.0113845 0.000603948 0)
(-0.0115543 0.000583727 0)
(-0.0117184 0.000563226 0)
(-0.0118765 0.000542456 0)
(-0.0120286 0.000521428 0)
(-0.0121746 0.000500146 0)
(-0.0123145 0.000478616 0)
(-0.0124481 0.000456851 0)
(-0.0125755 0.000434859 0)
(-0.0126965 0.000412647 0)
(-0.0128111 0.000390226 0)
(-0.0129192 0.000367603 0)
(-0.0130208 0.000344787 0)
(-0.0131159 0.000321788 0)
(-0.0132043 0.000298615 0)
(-0.013286 0.000275273 0)
(-0.013361 0.000251776 0)