/*--------------------------------*- C++ -*----------------------------------*\
  =========                 |
  \\      /  F ield         | OpenFOAM: The Open Source CFD Toolbox
   \\    /   O peration     | Website:  https://openfoam.org
    \\  /    A nd           | Version:  7
     \\/     M anipulation  |
\*---------------------------------------------------------------------------*/
FoamFile
{
    version     2.0;
    format      ascii;
    class       volScalarField;
    location    "0.1125";
    object      p;
}
// * * * * * * * * * * * * * * * * * * * * * * * * * * * * * * * * * * * * * //

dimensions      [0 2 -2 0 0 0 0];

internalField   nonuniform List<scalar> 
25600
(
1.42745e-08
-2.38215e-05
-8.04409e-05
-0.000155476
-0.000241281
-0.000339953
-0.000450771
-0.000572135
-0.00070212
-0.000838797
-0.000980274
-0.00112474
-0.00127058
-0.00141631
-0.00156053
-0.00170207
-0.00183986
-0.0019729
-0.00210029
-0.00222128
-0.00233521
-0.00244151
-0.00253962
-0.00262904
-0.00270927
-0.00277995
-0.00284079
-0.00289158
-0.00293213
-0.00296221
-0.00298163
-0.00299022
-0.00298787
-0.00297452
-0.00295013
-0.00291466
-0.00286811
-0.00281048
-0.00274179
-0.00266211
-0.00257147
-0.00246999
-0.00235777
-0.00223493
-0.00210154
-0.00195774
-0.00180368
-0.00163951
-0.0014654
-0.0012815
-0.00108798
-0.00088502
-0.000672824
-0.00045159
-0.000221504
1.72323e-05
0.000264398
0.000519761
0.000783086
0.00105414
0.00133271
0.00161855
0.00191141
0.00221101
0.00251709
0.0028294
0.00314767
0.00347161
0.00380091
0.00413527
0.00447441
0.00481805
0.00516585
0.00551749
0.00587263
0.00623091
0.00659198
0.00695551
0.00732116
0.00768859
0.0080574
0.00842719
0.00879753
0.00916805
0.00953839
0.00990817
0.010277
0.0106443
0.0110098
0.011373
0.0117335
0.0120908
0.0124446
0.0127945
0.0131398
0.0134803
0.0138155
0.0141449
0.0144682
0.0147849
0.0150946
0.0153968
0.0156912
0.0159773
0.0162548
0.0165232
0.0167822
0.0170315
0.0172707
0.0174994
0.0177173
0.0179242
0.0181197
0.0183036
0.0184756
0.0186356
0.0187833
0.0189186
0.0190413
0.0191512
0.0192482
0.0193322
0.0194033
0.0194615
0.0195067
0.0195391
0.0195587
0.0195656
0.01956
0.0195421
0.0195122
0.0194706
0.0194176
0.0193536
0.0192791
0.0191945
0.0191004
0.0189973
0.018886
0.0187671
0.0186415
0.01851
0.0183736
0.0182334
0.0180904
0.0179458
0.017801
0.0176574
0.0175166
0.0173803
0.0172506
0.0171293
0.0170189
0.0169217
0.0168402
0.0167769
0.0167338
0.0167123
0.0167122
0.0167265
-4.82193e-05
-6.98883e-05
-0.000117563
-0.000182286
-0.000259043
-0.000347417
-0.000446613
-0.00055535
-0.000672096
-0.000795239
-0.000923088
-0.00105405
-0.00118665
-0.00131947
-0.00145124
-0.00158081
-0.00170715
-0.00182931
-0.00194644
-0.00205774
-0.00216253
-0.00226022
-0.00235031
-0.00243231
-0.00250578
-0.00257031
-0.00262558
-0.00267132
-0.00270732
-0.00273338
-0.00274928
-0.00275487
-0.00275001
-0.00273462
-0.00270863
-0.00267201
-0.00262472
-0.00256678
-0.00249818
-0.00241896
-0.00232915
-0.00222887
-0.00211821
-0.00199723
-0.00186606
-0.00172478
-0.00157355
-0.0014125
-0.0012418
-0.00106159
-0.000872009
-0.00067326
-0.000465541
-0.000249017
-2.38578e-05
0.000209723
0.000451497
0.000701246
0.000958752
0.00122379
0.00149615
0.00177559
0.00206186
0.00235469
0.00265382
0.00295902
0.00327004
0.00358657
0.0039083
0.00423494
0.00456621
0.00490186
0.00524155
0.00558496
0.00593175
0.00628157
0.00663409
0.00698898
0.00734591
0.00770455
0.0080645
0.00842535
0.0087867
0.0091482
0.0095095
0.00987023
0.01023
0.0105882
0.0109446
0.0112988
0.0116502
0.0119987
0.0123436
0.0126846
0.0130212
0.0133531
0.0136798
0.0140008
0.0143159
0.0146245
0.0149263
0.0152209
0.0155078
0.0157867
0.0160572
0.0163189
0.0165714
0.0168146
0.0170479
0.0172711
0.0174839
0.017686
0.017877
0.0180569
0.0182253
0.0183821
0.0185271
0.0186601
0.0187809
0.0188895
0.0189856
0.0190694
0.0191407
0.0191996
0.0192461
0.0192803
0.0193023
0.0193123
0.0193102
0.0192965
0.0192713
0.019235
0.0191879
0.0191305
0.0190631
0.0189862
0.0189004
0.0188062
0.0187043
0.0185954
0.0184804
0.01836
0.0182352
0.0181069
0.0179763
0.0178445
0.0177128
0.0175824
0.017455
0.017332
0.0172152
0.0171065
0.0170078
0.016921
0.0168482
0.0167912
0.0167513
0.0167294
0.0167265
0.0167408
-9.56745e-05
-0.000104812
-0.000139206
-0.000193637
-0.000261838
-0.000341803
-0.00043218
-0.000531545
-0.000638476
-0.000751467
-0.000869036
-0.000989711
-0.00111209
-0.00123489
-0.0013569
-0.00147701
-0.00159424
-0.00170769
-0.00181655
-0.00192004
-0.00201746
-0.0021082
-0.00219175
-0.00226766
-0.00233551
-0.00239493
-0.00244556
-0.00248711
-0.00251932
-0.002542
-0.00255494
-0.00255798
-0.00255098
-0.00253384
-0.00250647
-0.00246884
-0.0024209
-0.00236265
-0.00229407
-0.00221518
-0.00212604
-0.00202673
-0.00191734
-0.00179792
-0.00166856
-0.00152938
-0.00138052
-0.00122209
-0.00105424
-0.000877106
-0.000690842
-0.00049564
-0.000291683
-7.91243e-05
0.000141872
0.000371097
0.000608324
0.000853337
0.00110593
0.00136588
0.00163299
0.00190703
0.00218774
0.00247486
0.00276814
0.00306735
0.00337223
0.0036825
0.00399783
0.00431796
0.00464263
0.00497156
0.00530443
0.00564091
0.00598066
0.00632336
0.00666869
0.00701633
0.00736596
0.00771722
0.00806972
0.00842307
0.00877689
0.00913085
0.00948459
0.00983773
0.0101899
0.0105406
0.0108894
0.011236
0.0115799
0.0119209
0.0122584
0.0125921
0.0129214
0.0132461
0.0135657
0.0138798
0.014188
0.01449
0.0147853
0.0150735
0.0153542
0.0156271
0.0158918
0.0161479
0.0163952
0.0166332
0.0168618
0.0170804
0.017289
0.0174871
0.0176745
0.017851
0.0180165
0.0181706
0.0183134
0.0184445
0.0185639
0.0186714
0.0187668
0.0188503
0.0189218
0.0189813
0.019029
0.0190647
0.0190887
0.0191011
0.0191019
0.0190916
0.0190703
0.0190383
0.018996
0.0189439
0.0188823
0.0188117
0.0187326
0.0186456
0.0185513
0.0184504
0.0183437
0.0182321
0.0181165
0.0179977
0.0178768
0.017755
0.0176333
0.0175131
0.0173956
0.0172826
0.0171754
0.0170757
0.0169852
0.0169056
0.0168386
0.0167858
0.0167481
0.0167266
0.0167237
0.0167407
-0.00011653
-0.000117153
-0.000143089
-0.000189712
-0.000250978
-0.00032428
-0.000407914
-0.000500273
-0.000599816
-0.000705137
-0.000814827
-0.000927491
-0.00104183
-0.00115665
-0.00127081
-0.00138327
-0.00149305
-0.00159929
-0.00170124
-0.00179817
-0.0018894
-0.00197431
-0.00205237
-0.00212311
-0.00218615
-0.00224113
-0.00228772
-0.00232561
-0.00235453
-0.00237425
-0.00238459
-0.00238537
-0.00237645
-0.00235774
-0.00232913
-0.00229057
-0.00224202
-0.00218345
-0.00211484
-0.00203621
-0.00194763
-0.00184916
-0.00174085
-0.00162276
-0.00149499
-0.00135765
-0.00121085
-0.00105471
-0.000889374
-0.000714953
-0.000531614
-0.000339544
-0.00013891
7.01511e-05
0.000287472
0.000512834
0.000746017
0.000986826
0.00123507
0.00149053
0.001753
0.00202224
0.00229801
0.00258006
0.00286817
0.00316209
0.00346156
0.00376627
0.00407594
0.00439031
0.00470915
0.00503215
0.00535901
0.00568937
0.00602291
0.00635934
0.00669835
0.00703962
0.00738282
0.00772759
0.00807354
0.0084203
0.00876752
0.00911486
0.00946197
0.00980847
0.010154
0.010498
0.0108402
0.0111802
0.0115176
0.011852
0.0121831
0.0125103
0.0128334
0.0131518
0.0134652
0.0137733
0.0140756
0.0143718
0.0146614
0.0149441
0.0152195
0.0154871
0.0157468
0.0159981
0.0162408
0.0164745
0.0166989
0.0169136
0.0171185
0.0173132
0.0174975
0.0176712
0.0178341
0.017986
0.0181268
0.0182564
0.0183744
0.018481
0.0185759
0.0186591
0.0187308
0.0187909
0.0188394
0.0188765
0.0189022
0.0189166
0.01892
0.0189125
0.0188944
0.0188661
0.018828
0.0187803
0.0187236
0.0186582
0.0185847
0.0185036
0.0184156
0.0183214
0.0182217
0.0181173
0.0180091
0.017898
0.0177849
0.017671
0.0175572
0.0174449
0.0173352
0.0172296
0.0171295
0.0170363
0.0169516
0.0168768
0.0168135
0.0167631
0.0167266
0.0167051
0.0167019
0.0167194
-0.000104877
-0.000105624
-0.000128899
-0.000171333
-0.000227931
-0.000296319
-0.000374716
-0.000461457
-0.000555023
-0.000654002
-0.000757071
-0.000862933
-0.000970361
-0.00107823
-0.00118549
-0.00129115
-0.0013943
-0.00149411
-0.0015898
-0.00168071
-0.00176621
-0.00184573
-0.00191872
-0.00198471
-0.00204329
-0.00209413
-0.00213691
-0.00217133
-0.00219712
-0.00221405
-0.0022219
-0.00222052
-0.00220977
-0.00218952
-0.0021597
-0.00212024
-0.00207108
-0.00201217
-0.00194351
-0.00186512
-0.00177705
-0.00167935
-0.00157206
-0.00145524
-0.00132897
-0.00119338
-0.00104856
-0.000894609
-0.000731658
-0.000559847
-0.000379334
-0.00019028
7.16909e-06
0.000212874
0.000426652
0.000648286
0.000877571
0.00111433
0.00135839
0.00160953
0.00186752
0.00213213
0.00240315
0.00268033
0.00296346
0.00325228
0.00354654
0.00384592
0.00415015
0.004459
0.00477222
0.00508954
0.00541062
0.0057351
0.0060627
0.00639312
0.00672608
0.00706125
0.0073983
0.00773684
0.00807653
0.008417
0.00875792
0.00909894
0.00943972
0.00977988
0.010119
0.0104567
0.0107926
0.0111263
0.0114574
0.0117857
0.0121106
0.0124318
0.0127488
0.0130613
0.0133689
0.0136712
0.013968
0.0142587
0.0145429
0.0148204
0.0150907
0.0153534
0.0156084
0.0158552
0.0160935
0.0163231
0.0165436
0.0167546
0.016956
0.0171475
0.0173289
0.0174999
0.0176604
0.0178103
0.0179493
0.0180773
0.0181942
0.0182998
0.0183942
0.0184773
0.0185491
0.0186097
0.0186591
0.0186974
0.0187246
0.0187409
0.0187466
0.0187417
0.0187267
0.0187018
0.0186674
0.0186238
0.0185715
0.018511
0.0184426
0.0183669
0.0182847
0.0181964
0.0181029
0.018005
0.0179034
0.0177991
0.0176929
0.0175859
0.017479
0.0173734
0.0172703
0.0171708
0.0170764
0.0169884
0.016908
0.0168367
0.0167759
0.0167267
0.0166903
0.0166677
0.0166623
0.0166767
-6.69393e-05
-7.25246e-05
-9.71032e-05
-0.000138423
-0.000192842
-0.000258281
-0.000333084
-0.000415688
-0.000504636
-0.000598579
-0.000696255
-0.000796465
-0.000898078
-0.00100002
-0.0011013
-0.00120102
-0.00129833
-0.00139244
-0.00148259
-0.00156812
-0.00164845
-0.00172303
-0.00179135
-0.00185296
-0.00190745
-0.00195448
-0.00199373
-0.00202491
-0.00204777
-0.00206206
-0.00206758
-0.00206415
-0.00205165
-0.00202995
-0.00199897
-0.00195863
-0.00190887
-0.00184962
-0.00178089
-0.00170271
-0.00161512
-0.00151814
-0.0014118
-0.00129616
-0.00117133
-0.0010374
-0.000894446
-0.000742567
-0.000581897
-0.000412581
-0.000234763
-4.85829e-05
0.000145825
0.000348314
0.000558699
0.000776768
0.00100233
0.00123522
0.00147527
0.00172226
0.00197597
0.00223616
0.00250264
0.00277518
0.00305354
0.00333749
0.00362675
0.00392104
0.00422009
0.00452368
0.00483157
0.00514345
0.005459
0.00577789
0.00609983
0.00642455
0.00675176
0.00708113
0.00741231
0.00774495
0.00807869
0.00841319
0.00874813
0.00908317
0.00941794
0.00975209
0.0100852
0.0104169
0.0107468
0.0110746
0.0113998
0.0117222
0.0120413
0.0123568
0.0126681
0.012975
0.0132772
0.0135741
0.0138656
0.0141511
0.0144303
0.0147029
0.0149684
0.0152266
0.0154771
0.0157197
0.015954
0.0161797
0.0163965
0.0166041
0.0168023
0.0169908
0.0171694
0.0173379
0.0174962
0.0176441
0.0177814
0.0179081
0.0180238
0.0181286
0.0182225
0.0183054
0.0183773
0.0184384
0.0184886
0.0185279
0.0185566
0.0185747
0.0185824
0.01858
0.0185677
0.0185459
0.0185149
0.018475
0.0184268
0.0183705
0.0183067
0.0182359
0.0181588
0.0180759
0.0179879
0.0178957
0.0177999
0.0177015
0.0176013
0.0175001
0.017399
0.0172991
0.0172013
0.0171068
0.0170169
0.0169327
0.0168554
0.0167863
0.0167267
0.0166775
0.01664
0.016615
0.0166057
0.0166141
-7.12429e-06
-2.06316e-05
-4.93068e-05
-9.19755e-05
-0.000146387
-0.000210771
-0.000283632
-0.000363566
-0.000449263
-0.000539448
-0.000632937
-0.00072864
-0.000825506
-0.000922534
-0.0010188
-0.00111346
-0.00120571
-0.00129483
-0.00138012
-0.00146093
-0.00153669
-0.00160687
-0.00167098
-0.00172861
-0.00177939
-0.00182295
-0.00185897
-0.00188718
-0.00190732
-0.00191916
-0.00192251
-0.00191718
-0.00190304
-0.00187998
-0.00184791
-0.00180673
-0.00175636
-0.00169678
-0.001628
-0.00155002
-0.00146285
-0.00136652
-0.00126106
-0.00114655
-0.00102307
-0.000890694
-0.000749498
-0.000599575
-0.000441067
-0.000274114
-9.88392e-05
8.46301e-05
0.000276158
0.000475593
0.000682751
0.000897435
0.00111947
0.00134871
0.00158496
0.00182801
0.00207764
0.00233364
0.00259583
0.00286397
0.00313784
0.00341716
0.00370168
0.00399114
0.0042853
0.00458393
0.00488677
0.00519352
0.00550385
0.00581746
0.00613406
0.0064534
0.0067752
0.0070991
0.00742476
0.00775182
0.00807997
0.00840887
0.00873819
0.0090676
0.00939674
0.00972525
0.0100527
0.0103788
0.0107031
0.0110253
0.011345
0.011662
0.0119757
0.0122857
0.0125918
0.0128935
0.0131905
0.0134825
0.013769
0.0140497
0.0143243
0.0145923
0.0148534
0.0151073
0.0153537
0.0155924
0.015823
0.0160451
0.0162585
0.0164629
0.0166581
0.0168438
0.0170199
0.0171861
0.0173424
0.0174885
0.0176242
0.0177495
0.0178642
0.0179683
0.0180617
0.0181444
0.0182165
0.0182779
0.0183288
0.0183691
0.0183991
0.0184187
0.0184283
0.018428
0.0184182
0.0183992
0.0183712
0.0183347
0.01829
0.0182375
0.0181778
0.0181113
0.0180386
0.0179603
0.0178772
0.0177898
0.0176991
0.0176057
0.0175105
0.0174142
0.0173179
0.0172224
0.0171289
0.0170382
0.0169515
0.01687
0.0167946
0.0167265
0.0166668
0.0166166
0.0165767
0.0165483
0.0165334
0.0165334
7.0726e-05
4.71803e-05
1.23939e-05
-3.35588e-05
-8.97375e-05
-0.00015471
-0.000227119
-0.000305754
-0.00038944
-0.000477033
-0.000567466
-0.000659712
-0.000752802
-0.000845849
-0.000937995
-0.00102843
-0.0011164
-0.00120122
-0.00128227
-0.00135895
-0.00143069
-0.00149697
-0.00155735
-0.00161143
-0.00165885
-0.00169926
-0.00173234
-0.00175784
-0.0017755
-0.00178508
-0.00178641
-0.00177931
-0.00176366
-0.00173933
-0.00170623
-0.00166425
-0.00161333
-0.00155344
-0.00148459
-0.00140678
-0.00132001
-0.00122428
-0.00111966
-0.0010062
-0.000883983
-0.000753067
-0.000613519
-0.000465446
-0.000308991
-0.000144274
2.86042e-05
0.000209519
0.000398324
0.000594861
0.000798957
0.00101044
0.00122914
0.00145492
0.00168757
0.00192689
0.00217266
0.00242471
0.00268284
0.00294683
0.00321642
0.00349137
0.00377142
0.00405633
0.00434587
0.00463981
0.00493789
0.00523979
0.0055452
0.00585383
0.00616541
0.0064797
0.0067964
0.00711516
0.00743562
0.00775745
0.00808034
0.00840398
0.00872804
0.00905218
0.00937604
0.00969925
0.0100214
0.0103423
0.0106613
0.0109783
0.0112929
0.0116048
0.0119134
0.0122185
0.0125196
0.0128165
0.0131087
0.013396
0.013678
0.0139543
0.0142245
0.0144883
0.0147453
0.0149953
0.0152379
0.015473
0.0157001
0.0159189
0.0161292
0.0163306
0.0165231
0.0167062
0.01688
0.0170441
0.0171985
0.0173429
0.0174772
0.0176013
0.0177151
0.0178184
0.0179114
0.0179939
0.0180661
0.0181278
0.0181793
0.0182205
0.0182516
0.0182726
0.0182838
0.0182855
0.0182779
0.0182613
0.018236
0.0182023
0.0181608
0.0181117
0.0180555
0.0179927
0.0179239
0.0178496
0.0177705
0.0176874
0.0176009
0.0175117
0.0174206
0.0173283
0.0172358
0.0171438
0.0170534
0.0169655
0.016881
0.016801
0.0167264
0.0166583
0.0165976
0.0165451
0.0165019
0.0164688
0.0164471
0.0164371
0.0001632
0.000128205
8.58389e-05
3.51653e-05
-2.42403e-05
-9.1164e-05
-0.000164429
-0.00024297
-0.000325769
-0.000411848
-0.000500234
-0.000589983
-0.000680215
-0.000770126
-0.00085894
-0.000945906
-0.00103032
-0.00111154
-0.00118897
-0.00126206
-0.00133027
-0.00139313
-0.00145023
-0.00150116
-0.00154557
-0.00158314
-0.00161358
-0.00163662
-0.00165201
-0.00165954
-0.00165902
-0.0016503
-0.00163325
-0.00160775
-0.00157368
-0.00153096
-0.00147952
-0.00141936
-0.00135045
-0.00127279
-0.00118637
-0.00109122
-0.000987383
-0.000874921
-0.000753884
-0.00062433
-0.000486335
-0.000340016
-0.000185502
-2.289e-05
0.000147731
0.000326231
0.000512456
0.00070625
0.000907455
0.00111591
0.00133147
0.00155397
0.00178322
0.00201901
0.00226114
0.00250945
0.00276376
0.00302381
0.00328937
0.00356018
0.00383602
0.00411665
0.00440184
0.00469137
0.00498495
0.00528229
0.00558306
0.00588701
0.00619388
0.00650343
0.00681535
0.00712926
0.00744484
0.00776176
0.00807974
0.00839845
0.00871759
0.0090368
0.00935572
0.00967399
0.00999125
0.0103071
0.0106214
0.0109335
0.0112434
0.0115504
0.0118544
0.0121548
0.0124514
0.0127438
0.0130316
0.0133146
0.0135924
0.0138645
0.0141307
0.0143906
0.0146438
0.0148902
0.0151294
0.0153611
0.015585
0.0158008
0.0160082
0.0162069
0.0163968
0.0165777
0.0167493
0.0169115
0.0170641
0.017207
0.01734
0.017463
0.0175758
0.0176786
0.0177711
0.0178534
0.0179256
0.0179877
0.0180397
0.0180816
0.0181136
0.0181359
0.0181486
0.018152
0.0181462
0.0181318
0.0181088
0.0180777
0.0180389
0.0179927
0.0179395
0.0178799
0.0178144
0.0177435
0.0176679
0.0175883
0.0175052
0.0174194
0.0173316
0.0172425
0.0171529
0.0170635
0.0169754
0.0168892
0.016806
0.0167265
0.0166518
0.0165827
0.0165199
0.0164644
0.0164169
0.0163783
0.0163487
0.0163277
0.000267229
0.000219914
0.000169008
0.000112493
4.87285e-05
-2.12733e-05
-9.64747e-05
-0.000175978
-0.000258924
-0.000344442
-0.000431681
-0.000519814
-0.000608049
-0.00069562
-0.000781836
-0.000866026
-0.000947534
-0.00102577
-0.00110018
-0.00117021
-0.00123539
-0.00129529
-0.00134952
-0.00139768
-0.00143943
-0.00147447
-0.00150254
-0.00152336
-0.00153671
-0.00154237
-0.00154018
-0.00153
-0.00151168
-0.00148509
-0.00145013
-0.00140672
-0.00135483
-0.00129441
-0.00122545
-0.00114793
-0.00106184
-0.000967231
-0.000864143
-0.000752612
-0.00063268
-0.000504409
-0.000367887
-0.000223225
-7.05348e-05
9.01027e-05
0.000258598
0.000434815
0.000618597
0.000809801
0.00100828
0.0012139
0.00142649
0.00164589
0.00187192
0.00210438
0.00234309
0.00258789
0.00283859
0.00309494
0.00335669
0.00362361
0.00389548
0.00417209
0.0044532
0.00473857
0.00502792
0.00532096
0.00561739
0.00591695
0.00621942
0.00652453
0.00683195
0.00714133
0.00745234
0.00776467
0.00807806
0.0083922
0.00870675
0.00902135
0.00933567
0.00964933
0.00996201
0.0102734
0.0105831
0.0108908
0.0111962
0.0114989
0.0117985
0.0120946
0.0123869
0.0126752
0.012959
0.013238
0.0135119
0.0137802
0.0140427
0.014299
0.0145488
0.0147918
0.0150278
0.0152565
0.0154775
0.0156905
0.0158952
0.0160915
0.0162791
0.0164578
0.0166275
0.0167879
0.016939
0.0170805
0.0172123
0.0173342
0.0174463
0.0175484
0.0176405
0.0177227
0.0177949
0.0178572
0.0179096
0.0179521
0.017985
0.0180084
0.0180223
0.0180271
0.0180231
0.0180104
0.0179895
0.0179606
0.0179241
0.0178803
0.0178297
0.0177728
0.01771
0.017642
0.0175693
0.0174925
0.0174122
0.0173291
0.0172438
0.0171571
0.0170695
0.016982
0.0168952
0.01681
0.0167271
0.0166474
0.0165716
0.0165006
0.0164351
0.0163757
0.0163231
0.0162783
0.0162401
0.0162073
0.000380183
0.000320083
0.00025996
0.000196805
0.000127797
5.38112e-05
-2.42243e-05
-0.000105603
-0.000189584
-0.000275397
-0.000362307
-0.000449616
-0.00053661
-0.000622584
-0.0007069
-0.000788959
-0.000868176
-0.000944002
-0.0010159
-0.00108339
-0.00114602
-0.00120341
-0.00125515
-0.00130089
-0.00134032
-0.00137315
-0.00139912
-0.00141797
-0.00142948
-0.00143348
-0.00142979
-0.00141828
-0.00139881
-0.00137123
-0.00133546
-0.00129145
-0.00123914
-0.0011785
-0.00110949
-0.0010321
-0.000946344
-0.000852256
-0.000749868
-0.000639202
-0.000520304
-0.00039325
-0.000258125
-0.000115027
3.5955e-05
0.000194742
0.000361236
0.000535297
0.000716775
0.000905539
0.00110147
0.00130441
0.00151421
0.0017307
0.00195369
0.00218302
0.00241852
0.00266002
0.00290733
0.00316019
0.00341836
0.00368162
0.00394977
0.00422261
0.0044999
0.00478137
0.00506675
0.00535576
0.00564812
0.0059436
0.00624196
0.00654291
0.00684613
0.00715127
0.00745801
0.00776608
0.00807521
0.00838509
0.00869537
0.00900571
0.00931574
0.00962515
0.00993359
0.0102407
0.0105463
0.0108499
0.0111512
0.0114498
0.0117454
0.0120376
0.0123261
0.0126105
0.0128906
0.013166
0.0134363
0.0137012
0.0139602
0.0142132
0.0144599
0.0146999
0.014933
0.0151589
0.0153772
0.0155877
0.01579
0.0159841
0.0161696
0.0163464
0.0165143
0.0166732
0.0168228
0.016963
0.0170937
0.0172147
0.017326
0.0174276
0.0175193
0.0176013
0.0176735
0.017736
0.0177887
0.0178318
0.0178654
0.0178897
0.0179047
0.0179108
0.0179081
0.017897
0.0178778
0.0178507
0.0178162
0.0177745
0.017726
0.0176713
0.0176108
0.017545
0.0174746
0.0174
0.0173219
0.0172408
0.0171574
0.0170723
0.0169861
0.0168996
0.0168134
0.0167283
0.016645
0.0165643
0.0164868
0.0164132
0.0163441
0.0162802
0.016222
0.0161703
0.0161231
0.0160781
0.000499862
0.000426704
0.000356933
0.00028659
0.000211662
0.000132958
5.13223e-05
-3.26814e-05
-0.000118446
-0.000205319
-0.00029266
-0.000379846
-0.000466262
-0.000551301
-0.000634357
-0.000714896
-0.000792399
-0.000866335
-0.000936224
-0.00100164
-0.00106218
-0.00111745
-0.00116708
-0.00121075
-0.00124818
-0.00127909
-0.00130322
-0.00132033
-0.00133023
-0.00133276
-0.00132775
-0.00131506
-0.00129453
-0.00126607
-0.00122959
-0.00118505
-0.00113238
-0.00107154
-0.00100249
-0.000925245
-0.000839814
-0.000746224
-0.000644491
-0.000534634
-0.000416714
-0.000290815
-0.00015701
-1.53757e-05
0.000134007
0.000291057
0.000455667
0.000627696
0.000807006
0.000993486
0.00118702
0.00138746
0.00159463
0.00180837
0.00202853
0.00225493
0.00248742
0.00272584
0.00296996
0.00321954
0.00347434
0.00373418
0.00399887
0.00426819
0.00454189
0.00481971
0.00510138
0.00538662
0.0056752
0.00596688
0.0062614
0.00655848
0.00685778
0.00715897
0.00746175
0.00776588
0.00807106
0.008377
0.00868333
0.00898972
0.00929581
0.00960128
0.00990583
0.0102091
0.0105109
0.0108107
0.0111082
0.0114031
0.011695
0.0119836
0.0122686
0.0125496
0.0128263
0.0130983
0.0133654
0.0136271
0.0138831
0.0141332
0.014377
0.0146143
0.0148448
0.0150681
0.015284
0.0154922
0.0156924
0.0158844
0.0160681
0.0162431
0.0164095
0.0165669
0.0167153
0.0168543
0.016984
0.0171042
0.0172148
0.0173158
0.0174073
0.0174891
0.0175613
0.0176238
0.0176768
0.0177204
0.0177546
0.0177796
0.0177955
0.0178026
0.0178012
0.0177914
0.0177736
0.017748
0.0177151
0.017675
0.0176283
0.0175754
0.0175166
0.0174526
0.0173839
0.017311
0.0172345
0.0171548
0.0170726
0.0169885
0.016903
0.0168168
0.0167306
0.0166449
0.0165606
0.0164781
0.0163982
0.0163214
0.0162482
0.0161791
0.0161148
0.0160559
0.0159993
0.0159419
0.000624316
0.000537995
0.000458339
0.000380409
0.000299071
0.000215064
0.000129206
4.19501e-05
-4.62443e-05
-0.000134841
-0.000223267
-0.000310972
-0.00039743
-0.000482107
-0.000564483
-0.000644062
-0.000720355
-0.000792893
-0.000861257
-0.000925058
-0.000983909
-0.00103744
-0.00108531
-0.00112725
-0.00116299
-0.00119225
-0.00121479
-0.0012304
-0.00123891
-0.00124016
-0.00123398
-0.00122023
-0.00119878
-0.00116955
-0.00113246
-0.00108746
-0.00103447
-0.000973452
-0.000904395
-0.000827307
-0.000742199
-0.00064908
-0.00054796
-0.00043887
-0.000321884
-0.000197078
-6.45099e-05
7.57587e-05
0.000223648
0.000379065
0.000541901
0.000712021
0.000889305
0.00107366
0.00126496
0.00146304
0.00166775
0.00187892
0.00209643
0.0023201
0.00254979
0.00278532
0.00302645
0.00327295
0.00352462
0.00378128
0.00404274
0.00430879
0.00457914
0.00485354
0.00513174
0.0054135
0.00569857
0.00598672
0.00627768
0.00657115
0.00686681
0.00716434
0.00746348
0.00776396
0.00806551
0.00836782
0.00867052
0.00897327
0.00927573
0.00957762
0.00987861
0.0101784
0.0104766
0.010773
0.0110671
0.0113586
0.0116472
0.0119326
0.0122143
0.0124922
0.0127658
0.0130349
0.013299
0.0135579
0.0138111
0.0140585
0.0142998
0.0145346
0.0147628
0.0149839
0.0151976
0.0154037
0.015602
0.0157922
0.0159742
0.0161478
0.0163128
0.0164689
0.0166161
0.0167542
0.0168829
0.0170024
0.0171124
0.017213
0.0173041
0.0173857
0.0174578
0.0175205
0.0175737
0.0176176
0.0176523
0.0176779
0.0176945
0.0177025
0.017702
0.0176933
0.0176766
0.0176523
0.0176206
0.0175819
0.0175365
0.0174849
0.0174275
0.0173648
0.0172974
0.0172256
0.01715
0.0170712
0.0169897
0.0169059
0.0168205
0.0167341
0.0166471
0.0165604
0.0164743
0.0163895
0.0163066
0.0162261
0.0161483
0.0160737
0.0160028
0.0159364
0.0158702
0.0158004
0.00075182
0.000652407
0.000562702
0.000476913
0.000388815
0.000299079
0.000208501
0.000117444
2.62677e-05
-6.45988e-05
-0.000154672
-0.000243468
-0.000330525
-0.000415386
-0.000497597
-0.0005767
-0.000652253
-0.00072386
-0.000791148
-0.000853739
-0.000911268
-0.000963411
-0.00100988
-0.00105042
-0.00108475
-0.00111261
-0.0011338
-0.00114814
-0.00115547
-0.00115562
-0.00114842
-0.00113376
-0.00111152
-0.00108163
-0.00104402
-0.000998611
-0.000945349
-0.000884202
-0.000815169
-0.000738255
-0.000653459
-0.000560782
-0.000460244
-0.000351891
-0.000235794
-0.000112016
1.94017e-05
0.000158399
0.000304888
0.000458772
0.000619943
0.000788283
0.000963687
0.00114606
0.00133527
0.00153116
0.00173356
0.00194235
0.00215739
0.00237854
0.00260561
0.00283843
0.00307678
0.00332043
0.00356919
0.0038229
0.00408137
0.00434436
0.00461159
0.00488282
0.00515781
0.00543635
0.00571819
0.00600307
0.00629073
0.00658086
0.00687316
0.00716733
0.00746312
0.00776026
0.00805848
0.00835745
0.00865682
0.00895625
0.00925542
0.00955404
0.0098518
0.0101484
0.0104435
0.0107367
0.0110277
0.0113162
0.0116018
0.0118842
0.0121631
0.0124382
0.0127091
0.0129755
0.013237
0.0134933
0.0137441
0.0139891
0.0142281
0.0144608
0.0146869
0.0149059
0.0151178
0.0153221
0.0155187
0.0157073
0.0158879
0.0160601
0.0162239
0.0163789
0.0165251
0.0166622
0.0167902
0.016909
0.0170185
0.0171187
0.0172095
0.0172909
0.017363
0.0174257
0.0174791
0.0175232
0.0175583
0.0175843
0.0176016
0.0176102
0.0176105
0.0176026
0.0175868
0.0175634
0.0175326
0.0174949
0.0174505
0.0173998
0.0173434
0.0172816
0.0172149
0.0171438
0.0170688
0.0169903
0.0169088
0.0168249
0.0167391
0.0166518
0.0165636
0.0164752
0.0163869
0.0162993
0.0162129
0.0161281
0.0160453
0.0159648
0.0158872
0.015813
0.0157372
0.0156549
0.000880892
0.0007685
0.000668711
0.000574887
0.000479762
0.000383984
0.000288295
0.000192982
9.83559e-05
4.74984e-06
-8.74526e-05
-0.000177827
-0.000265976
-0.000351513
-0.000434017
-0.000513082
-0.000588345
-0.000659457
-0.000726061
-0.000787803
-0.000844366
-0.000895477
-0.000940871
-0.000980284
-0.00101346
-0.00104018
-0.00106027
-0.00107357
-0.00107991
-0.00107912
-0.00107105
-0.00105561
-0.00103272
-0.00100228
-0.000964221
-0.000918472
-0.000864993
-0.000803766
-0.000734791
-0.00065806
-0.00057356
-0.000481306
-0.000381332
-0.000273688
-0.000158432
-3.56083e-05
9.47432e-05
0.000232556
0.000377734
0.000530179
0.0006898
0.000856494
0.00103016
0.00121069
0.00139796
0.0015918
0.00179206
0.00199865
0.00221142
0.00243022
0.00265487
0.00288518
0.00312094
0.00336195
0.00360803
0.00385902
0.00411472
0.00437488
0.00463922
0.00490752
0.00517956
0.00545514
0.005734
0.00601588
0.00630049
0.00658755
0.00687678
0.00716788
0.00746062
0.00775472
0.0080499
0.00834584
0.00864218
0.0089386
0.00923479
0.00953046
0.00982533
0.0101191
0.0104113
0.0107017
0.01099
0.0112757
0.0115587
0.0118385
0.0121148
0.0123874
0.0126559
0.0129199
0.0131791
0.0134331
0.0136818
0.0139248
0.0141618
0.0143926
0.0146168
0.0148342
0.0150443
0.0152471
0.0154422
0.0156295
0.0158088
0.0159799
0.0161426
0.0162966
0.0164419
0.0165783
0.0167056
0.0168238
0.0169328
0.0170326
0.0171232
0.0172045
0.0172765
0.0173392
0.0173926
0.017437
0.0174723
0.0174987
0.0175164
0.0175255
0.0175263
0.0175191
0.0175039
0.0174812
0.0174511
0.017414
0.0173702
0.0173202
0.0172643
0.017203
0.0171366
0.0170657
0.0169908
0.0169121
0.0168303
0.0167458
0.016659
0.0165704
0.0164805
0.0163898
0.0162988
0.016208
0.0161177
0.0160283
0.0159402
0.0158535
0.0157688
0.0156868
0.0156013
0.0155069
0.00101014
0.000884987
0.00077517
0.000673205
0.000570862
0.000468792
0.000367706
0.000267792
0.000169313
7.25539e-05
-2.21849e-05
-0.000114572
-0.000204249
-0.000290868
-0.000374071
-0.000453523
-0.00052891
-0.000599905
-0.000666174
-0.000727412
-0.000783356
-0.00083376
-0.000878363
-0.000916909
-0.000949186
-0.000975021
-0.000994255
-0.00100671
-0.00101222
-0.00101064
-0.00100187
-0.00098581
-0.000962378
-0.000931484
-0.000893049
-0.000847027
-0.000793396
-0.000732139
-0.000663244
-0.000586694
-0.000502486
-0.000410647
-0.000311222
-0.000204253
-8.97796e-05
3.21595e-05
0.000161521
0.000298228
0.000442181
0.000593292
0.000751483
0.000916663
0.00108873
0.00126755
0.00145301
0.00164496
0.00184326
0.00204782
0.00225851
0.00247515
0.00269756
0.00292554
0.00315892
0.0033975
0.00364113
0.00388963
0.00414277
0.00440031
0.004662
0.00492761
0.00519697
0.00546984
0.00574598
0.0060251
0.00630694
0.0065912
0.00687764
0.00716597
0.00745593
0.00774728
0.00803972
0.00833292
0.00862654
0.00892026
0.00921378
0.00950684
0.00979912
0.0100903
0.01038
0.0106679
0.0109537
0.0112371
0.0115177
0.0117952
0.0120694
0.0123398
0.0126061
0.012868
0.0131252
0.0133773
0.0136242
0.0138654
0.0141007
0.0143298
0.0145525
0.0147683
0.0149771
0.0151785
0.0153723
0.0155585
0.0157367
0.0159068
0.0160686
0.0162219
0.0163664
0.0165021
0.0166288
0.0167466
0.0168552
0.0169547
0.017045
0.0171261
0.017198
0.0172607
0.0173142
0.0173587
0.0173942
0.0174208
0.0174388
0.0174483
0.0174495
0.0174426
0.0174279
0.0174055
0.0173758
0.0173391
0.0172956
0.0172459
0.0171902
0.0171289
0.0170626
0.0169915
0.0169162
0.0168369
0.0167543
0.0166687
0.0165805
0.0164901
0.0163981
0.0163048
0.0162107
0.0161162
0.0160216
0.0159274
0.0158336
0.0157405
0.0156486
0.0155587
0.0154637
0.0153572
0.00113834
0.00100069
0.000880946
0.000770831
0.000661148
0.000552585
0.000445876
0.000341105
0.000238459
0.000138195
4.05482e-05
-5.42164e-05
-0.000145787
-0.000233854
-0.00031814
-0.000398365
-0.000474231
-0.000545436
-0.000611697
-0.000672767
-0.000728413
-0.000778393
-0.000822456
-0.00086039
-0.000892032
-0.000917227
-0.000935802
-0.000947588
-0.000952437
-0.000950241
-0.000940915
-0.000924365
-0.000900499
-0.000869232
-0.000830503
-0.000784287
-0.000730565
-0.000669314
-0.000600514
-0.000524151
-0.000440238
-0.000348813
-0.000249917
-0.000143577
-2.98265e-05
9.12943e-05
0.000219733
0.000355409
0.000498227
0.000648113
0.000804998
0.000968789
0.00113937
0.00131663
0.00150043
0.00169064
0.00188716
0.00208987
0.00229865
0.0025133
0.00273364
0.00295949
0.0031907
0.00342708
0.00366847
0.00391468
0.00416548
0.00442063
0.0046799
0.00494309
0.00521
0.00548043
0.00575409
0.00603071
0.00631003
0.00659178
0.0068757
0.00716154
0.00744904
0.00773793
0.00802791
0.00831867
0.00860986
0.00890118
0.00919235
0.0094831
0.00977311
0.010062
0.0103495
0.0106353
0.0109189
0.0112002
0.0114788
0.0117544
0.0120266
0.0122951
0.0125596
0.0128197
0.0130752
0.0133257
0.013571
0.0138107
0.0140446
0.0142723
0.0144936
0.0147082
0.0149158
0.0151161
0.0153089
0.0154941
0.0156714
0.0158408
0.0160018
0.0161544
0.0162983
0.0164335
0.0165597
0.0166771
0.0167854
0.0168846
0.0169747
0.0170557
0.0171275