/*--------------------------------*- C++ -*----------------------------------*\
  =========                 |
  \\      /  F ield         | OpenFOAM: The Open Source CFD Toolbox
   \\    /   O peration     | Website:  https://openfoam.org
    \\  /    A nd           | Version:  7
     \\/     M anipulation  |
\*---------------------------------------------------------------------------*/
FoamFile
{
    version     2.0;
    format      ascii;
    class       volVectorField;
    location    "0.1125";
    object      U;
}
// * * * * * * * * * * * * * * * * * * * * * * * * * * * * * * * * * * * * * //

dimensions      [0 1 -1 0 0 0 0];

internalField   nonuniform List<vector> 
25600
(
(-2.37734e-07 -9.9365e-07 0)
(2.84675e-06 -2.32945e-06 0)
(7.38654e-06 -2.32453e-06 0)
(1.28458e-05 -2.2215e-06 0)
(1.72265e-05 -1.86715e-06 0)
(2.04118e-05 -1.36352e-06 0)
(2.20055e-05 -7.78347e-07 0)
(2.17827e-05 -1.54137e-07 0)
(1.96217e-05 4.88233e-07 0)
(1.54595e-05 1.12639e-06 0)
(9.28444e-06 1.75442e-06 0)
(1.11832e-06 2.36621e-06 0)
(-9.00743e-06 2.95433e-06 0)
(-2.10291e-05 3.51813e-06 0)
(-3.48783e-05 4.05641e-06 0)
(-5.0486e-05 4.56646e-06 0)
(-6.77644e-05 5.04838e-06 0)
(-8.66288e-05 5.5023e-06 0)
(-0.000106995 5.92694e-06 0)
(-0.000128771 6.32475e-06 0)
(-0.000151868 6.69906e-06 0)
(-0.000176202 7.04878e-06 0)
(-0.000201683 7.37133e-06 0)
(-0.000228224 7.66545e-06 0)
(-0.00025574 7.93198e-06 0)
(-0.00028415 8.17335e-06 0)
(-0.000313371 8.39202e-06 0)
(-0.000343326 8.59e-06 0)
(-0.000373937 8.76704e-06 0)
(-0.000405129 8.92224e-06 0)
(-0.000436831 9.05618e-06 0)
(-0.000468971 9.16961e-06 0)
(-0.000501482 9.26377e-06 0)
(-0.000534298 9.33969e-06 0)
(-0.000567354 9.39762e-06 0)
(-0.00060059 9.43857e-06 0)
(-0.000633946 9.46291e-06 0)
(-0.000667364 9.47077e-06 0)
(-0.00070079 9.4636e-06 0)
(-0.000734171 9.44232e-06 0)
(-0.000767454 9.40668e-06 0)
(-0.000800591 9.35728e-06 0)
(-0.000833534 9.29479e-06 0)
(-0.000866236 9.21916e-06 0)
(-0.000898652 9.13106e-06 0)
(-0.00093074 9.0314e-06 0)
(-0.000962458 8.92006e-06 0)
(-0.000993764 8.7973e-06 0)
(-0.00102462 8.66431e-06 0)
(-0.00105499 8.52146e-06 0)
(-0.00108484 8.36829e-06 0)
(-0.00111412 8.2051e-06 0)
(-0.00114282 8.03268e-06 0)
(-0.00117088 7.85132e-06 0)
(-0.00119829 7.66112e-06 0)
(-0.00122501 7.46237e-06 0)
(-0.00125101 7.25515e-06 0)
(-0.00127626 7.03939e-06 0)
(-0.00130073 6.81559e-06 0)
(-0.00132439 6.58463e-06 0)
(-0.00134722 6.34662e-06 0)
(-0.0013692 6.10113e-06 0)
(-0.00139029 5.84826e-06 0)
(-0.00141047 5.58866e-06 0)
(-0.00142971 5.32274e-06 0)
(-0.001448 5.05033e-06 0)
(-0.00146531 4.77133e-06 0)
(-0.00148162 4.48625e-06 0)
(-0.00149691 4.19562e-06 0)
(-0.00151116 3.89939e-06 0)
(-0.00152434 3.59746e-06 0)
(-0.00153645 3.29007e-06 0)
(-0.00154745 2.97783e-06 0)
(-0.00155734 2.66095e-06 0)
(-0.0015661 2.33931e-06 0)
(-0.00157371 2.01302e-06 0)
(-0.00158016 1.68269e-06 0)
(-0.00158544 1.349e-06 0)
(-0.00158952 1.0123e-06 0)
(-0.00159241 6.72396e-07 0)
(-0.00159409 3.29159e-07 0)
(-0.00159455 -1.6979e-08 0)
(-0.00159379 -3.65314e-07 0)
(-0.00159179 -7.15201e-07 0)
(-0.00158856 -1.06626e-06 0)
(-0.00158408 -1.41844e-06 0)
(-0.00157835 -1.77159e-06 0)
(-0.00157139 -2.12525e-06 0)
(-0.00156317 -2.47882e-06 0)
(-0.00155371 -2.83167e-06 0)
(-0.00154301 -3.18334e-06 0)
(-0.00153108 -3.53349e-06 0)
(-0.00151791 -3.88174e-06 0)
(-0.00150353 -4.22747e-06 0)
(-0.00148794 -4.57005e-06 0)
(-0.00147115 -4.90886e-06 0)
(-0.00145319 -5.24329e-06 0)
(-0.00143406 -5.5728e-06 0)
(-0.00141378 -5.89686e-06 0)
(-0.00139238 -6.21484e-06 0)
(-0.00136987 -6.52609e-06 0)
(-0.00134629 -6.82999e-06 0)
(-0.00132167 -7.12583e-06 0)
(-0.00129602 -7.41287e-06 0)
(-0.00126939 -7.69042e-06 0)
(-0.0012418 -7.9578e-06 0)
(-0.00121331 -8.21431e-06 0)
(-0.00118393 -8.45935e-06 0)
(-0.00115372 -8.69233e-06 0)
(-0.00112273 -8.91254e-06 0)
(-0.00109099 -9.11928e-06 0)
(-0.00105855 -9.31191e-06 0)
(-0.00102548 -9.48969e-06 0)
(-0.000991808 -9.65181e-06 0)
(-0.000957606 -9.79753e-06 0)
(-0.000922926 -9.92633e-06 0)
(-0.000887831 -1.00377e-05 0)
(-0.000852381 -1.01311e-05 0)
(-0.000816641 -1.02058e-05 0)
(-0.000780677 -1.02611e-05 0)
(-0.000744558 -1.02962e-05 0)
(-0.000708355 -1.03104e-05 0)
(-0.00067214 -1.03033e-05 0)
(-0.000635987 -1.02745e-05 0)
(-0.000599973 -1.02238e-05 0)
(-0.000564172 -1.01506e-05 0)
(-0.000528665 -1.00546e-05 0)
(-0.000493531 -9.93535e-06 0)
(-0.000458851 -9.79241e-06 0)
(-0.000424706 -9.62559e-06 0)
(-0.000391179 -9.43473e-06 0)
(-0.000358353 -9.21952e-06 0)
(-0.000326313 -8.97966e-06 0)
(-0.000295144 -8.71494e-06 0)
(-0.00026493 -8.42517e-06 0)
(-0.000235756 -8.11008e-06 0)
(-0.000207707 -7.76957e-06 0)
(-0.000180869 -7.40385e-06 0)
(-0.000155325 -7.01323e-06 0)
(-0.000131159 -6.59768e-06 0)
(-0.000108453 -6.15705e-06 0)
(-8.72854e-05 -5.69172e-06 0)
(-6.77351e-05 -5.20252e-06 0)
(-4.98763e-05 -4.69018e-06 0)
(-3.37796e-05 -4.1552e-06 0)
(-1.95105e-05 -3.59852e-06 0)
(-7.12826e-06 -3.02205e-06 0)
(3.31689e-06 -2.42837e-06 0)
(1.17858e-05 -1.82052e-06 0)
(1.82543e-05 -1.20263e-06 0)
(2.27181e-05 -5.80918e-07 0)
(2.51998e-05 3.55028e-08 0)
(2.57579e-05 6.33355e-07 0)
(2.45016e-05 1.19271e-06 0)
(2.16138e-05 1.68206e-06 0)
(1.73836e-05 2.05096e-06 0)
(1.22492e-05 2.22007e-06 0)
(6.8752e-06 2.06357e-06 0)
(2.37045e-06 1.40501e-06 0)
(2.56349e-07 2.57639e-07 0)
(6.65869e-07 -2.46374e-06 0)
(5.98835e-06 -7.92095e-06 0)
(1.52354e-05 -9.1884e-06 0)
(2.4677e-05 -8.73737e-06 0)
(3.21876e-05 -6.89324e-06 0)
(3.65867e-05 -4.16335e-06 0)
(3.69362e-05 -8.5685e-07 0)
(3.26145e-05 2.79667e-06 0)
(2.32131e-05 6.63849e-06 0)
(8.51005e-06 1.05647e-05 0)
(-1.15899e-05 1.44968e-05 0)
(-3.71029e-05 1.83777e-05 0)
(-6.79547e-05 2.21712e-05 0)
(-0.000104031 2.58482e-05 0)
(-0.00014518 2.93853e-05 0)
(-0.000191211 3.27714e-05 0)
(-0.000241923 3.59966e-05 0)
(-0.000297097 3.90516e-05 0)
(-0.000356498 4.19341e-05 0)
(-0.000419895 4.46419e-05 0)
(-0.000487048 4.7177e-05 0)
(-0.000557714 4.95414e-05 0)
(-0.000631654 5.17352e-05 0)
(-0.000708629 5.376e-05 0)
(-0.000788401 5.56173e-05 0)
(-0.000870739 5.73108e-05 0)
(-0.000955416 5.88457e-05 0)
(-0.00104221 6.0227e-05 0)
(-0.0011309 6.14595e-05 0)
(-0.00122127 6.25461e-05 0)
(-0.00131312 6.34906e-05 0)
(-0.00140625 6.42973e-05 0)
(-0.00150046 6.49701e-05 0)
(-0.00159557 6.55144e-05 0)
(-0.00169138 6.59347e-05 0)
(-0.00178773 6.62345e-05 0)
(-0.00188443 6.64182e-05 0)
(-0.00198133 6.64904e-05 0)
(-0.00207826 6.64545e-05 0)
(-0.00217507 6.63144e-05 0)
(-0.00227161 6.60742e-05 0)
(-0.00236774 6.57368e-05 0)
(-0.00246331 6.53053e-05 0)
(-0.00255819 6.47832e-05 0)
(-0.00265226 6.41737e-05 0)
(-0.00274537 6.34792e-05 0)
(-0.00283741 6.27022e-05 0)
(-0.00292827 6.18466e-05 0)
(-0.00301783 6.09155e-05 0)
(-0.00310597 5.99107e-05 0)
(-0.0031926 5.88337e-05 0)
(-0.0032776 5.76872e-05 0)
(-0.00336089 5.64742e-05 0)
(-0.00344235 5.5196e-05 0)
(-0.00352189 5.38541e-05 0)
(-0.00359944 5.24507e-05 0)
(-0.00367488 5.09876e-05 0)
(-0.00374815 4.94665e-05 0)
(-0.00381915 4.78893e-05 0)
(-0.0038878 4.62582e-05 0)
(-0.00395403 4.45743e-05 0)
(-0.00401776 4.28386e-05 0)
(-0.00407891 4.10525e-05 0)
(-0.00413742 3.92182e-05 0)
(-0.00419321 3.73372e-05 0)
(-0.00424621 3.54108e-05 0)
(-0.00429636 3.34399e-05 0)
(-0.0043436 3.14264e-05 0)
(-0.00438786 2.93718e-05 0)
(-0.00442909 2.72775e-05 0)
(-0.00446723 2.5145e-05 0)
(-0.00450222 2.2976e-05 0)
(-0.00453402 2.07722e-05 0)
(-0.00456257 1.85351e-05 0)
(-0.00458783 1.62661e-05 0)
(-0.00460975 1.39673e-05 0)
(-0.0046283 1.16415e-05 0)
(-0.00464343 9.29066e-06 0)
(-0.00465511 6.91658e-06 0)
(-0.00466331 4.52075e-06 0)
(-0.004668 2.10514e-06 0)
(-0.00466915 -3.27506e-07 0)
(-0.00466674 -2.77428e-06 0)
(-0.00466076 -5.23259e-06 0)
(-0.00465118 -7.69998e-06 0)
(-0.004638 -1.0174e-05 0)
(-0.00462121 -1.26521e-05 0)
(-0.00460081 -1.51309e-05 0)
(-0.00457681 -1.76071e-05 0)
(-0.0045492 -2.00776e-05 0)
(-0.004518 -2.2539e-05 0)
(-0.00448323 -2.49883e-05 0)
(-0.0044449 -2.74218e-05 0)
(-0.00440305 -2.98356e-05 0)
(-0.00435771 -3.22256e-05 0)
(-0.00430892 -3.4588e-05 0)
(-0.00425671 -3.69189e-05 0)
(-0.00420115 -3.92143e-05 0)
(-0.00414228 -4.147e-05 0)
(-0.00408017 -4.36817e-05 0)
(-0.00401488 -4.58452e-05 0)
(-0.0039465 -4.79559e-05 0)
(-0.00387509 -5.00091e-05 0)
(-0.00380076 -5.20002e-05 0)
(-0.00372358 -5.39245e-05 0)
(-0.00364367 -5.57776e-05 0)
(-0.00356113 -5.75548e-05 0)
(-0.00347607 -5.92515e-05 0)
(-0.00338862 -6.08631e-05 0)
(-0.0032989 -6.23848e-05 0)
(-0.00320704 -6.38122e-05 0)
(-0.0031132 -6.51404e-05 0)
(-0.00301751 -6.63647e-05 0)
(-0.00292013 -6.74806e-05 0)
(-0.00282121 -6.84834e-05 0)
(-0.00272094 -6.9369e-05 0)
(-0.00261947 -7.01332e-05 0)
(-0.00251699 -7.0772e-05 0)
(-0.00241369 -7.12809e-05 0)
(-0.00230975 -7.16557e-05 0)
(-0.00220537 -7.18922e-05 0)
(-0.00210075 -7.19865e-05 0)
(-0.00199611 -7.19355e-05 0)
(-0.00189164 -7.17362e-05 0)
(-0.00178757 -7.13857e-05 0)
(-0.00168411 -7.08812e-05 0)
(-0.0015815 -7.02199e-05 0)
(-0.00147996 -6.93993e-05 0)
(-0.00137971 -6.84172e-05 0)
(-0.001281 -6.7272e-05 0)
(-0.00118405 -6.59622e-05 0)
(-0.0010891 -6.44864e-05 0)
(-0.000996398 -6.28435e-05 0)
(-0.000906176 -6.10327e-05 0)
(-0.000818675 -5.90536e-05 0)
(-0.000734135 -5.69061e-05 0)
(-0.000652794 -5.45907e-05 0)
(-0.000574889 -5.21084e-05 0)
(-0.000500651 -4.94614e-05 0)
(-0.000430311 -4.6652e-05 0)
(-0.000364091 -4.36833e-05 0)
(-0.000302209 -4.05599e-05 0)
(-0.000244874 -3.72877e-05 0)
(-0.00019228 -3.38745e-05 0)
(-0.000144611 -3.03292e-05 0)
(-0.00010203 -2.66638e-05 0)
(-6.46801e-05 -2.28941e-05 0)
(-3.26729e-05 -1.90412e-05 0)
(-6.08471e-06 -1.51321e-05 0)
(1.50553e-05 -1.12021e-05 0)
(3.07782e-05 -7.29802e-06 0)
(4.11934e-05 -3.48321e-06 0)
(4.65129e-05 1.55627e-07 0)
(4.70838e-05 3.4984e-06 0)
(4.34328e-05 6.37553e-06 0)
(3.63236e-05 8.5471e-06 0)
(2.68092e-05 9.6792e-06 0)
(1.63027e-05 9.3168e-06 0)
(6.89577e-06 6.91407e-06 0)
(1.39381e-06 2.36673e-06 0)
(1.75797e-06 -6.7997e-06 0)
(8.43332e-06 -1.62156e-05 0)
(1.84085e-05 -1.92452e-05 0)
(2.80158e-05 -1.75951e-05 0)
(3.44756e-05 -1.26332e-05 0)
(3.60652e-05 -5.36555e-06 0)
(3.15173e-05 3.4573e-06 0)
(1.9886e-05 1.32914e-05 0)
(5.57532e-07 2.37337e-05 0)
(-2.68546e-05 3.44912e-05 0)
(-6.25524e-05 4.53397e-05 0)
(-0.00010658 5.61214e-05 0)
(-0.000158886 6.67161e-05 0)
(-0.000219326 7.70284e-05 0)
(-0.000287683 8.69982e-05 0)
(-0.000363706 9.65748e-05 0)
(-0.000447096 0.000105722 0)
(-0.000537525 0.00011442 0)
(-0.000634652 0.000122648 0)
(-0.000738119 0.000130396 0)
(-0.000847558 0.000137662 0)
(-0.000962599 0.000144447 0)
(-0.00108287 0.000150751 0)
(-0.001208 0.000156582 0)
(-0.00133761 0.000161944 0)
(-0.00147134 0.000166844 0)
(-0.00160884 0.000171293 0)
(-0.00174974 0.000175301 0)
(-0.0018937 0.000178878 0)
(-0.00204038 0.000182037 0)
(-0.00218945 0.000184788 0)
(-0.0023406 0.000187143 0)
(-0.0024935 0.000189113 0)
(-0.00264785 0.000190711 0)
(-0.00280336 0.000191949 0)
(-0.00295974 0.000192838 0)
(-0.00311672 0.00019339 0)
(-0.00327402 0.000193616 0)
(-0.00343138 0.000193528 0)
(-0.00358856 0.000193136 0)
(-0.00374531 0.000192449 0)
(-0.00390139 0.000191478 0)
(-0.00405658 0.000190234 0)
(-0.00421066 0.000188724 0)
(-0.00436341 0.000186957 0)
(-0.00451463 0.000184943 0)
(-0.00466412 0.000182688 0)
(-0.00481169 0.000180202 0)
(-0.00495714 0.000177492 0)
(-0.00510031 0.000174565 0)
(-0.005241 0.000171428 0)
(-0.00537906 0.000168087 0)
(-0.00551432 0.000164548 0)
(-0.00564663 0.000160819 0)
(-0.00577581 0.000156904 0)
(-0.00590174 0.000152808 0)
(-0.00602425 0.000148538 0)
(-0.00614322 0.000144097 0)
(-0.0062585 0.000139492 0)
(-0.00636996 0.000134728 0)
(-0.00647747 0.000129809 0)
(-0.00658091 0.000124739 0)
(-0.00668015 0.000119523 0)
(-0.00677509 0.000114165 0)
(-0.0068656 0.000108669 0)
(-0.00695157 0.000103042 0)
(-0.0070329 9.72853e-05 0)
(-0.00710949 9.14047e-05 0)
(-0.00718124 8.54044e-05 0)
(-0.00724805 7.92888e-05 0)
(-0.00730982 7.30627e-05 0)
(-0.00736648 6.67308e-05 0)
(-0.00741795 6.0298e-05 0)
(-0.00746413 5.37691e-05 0)
(-0.00750496 4.71495e-05 0)
(-0.00754036 4.04449e-05 0)
(-0.00757027 3.36615e-05 0)
(-0.00759463 2.68051e-05 0)
(-0.00761339 1.98814e-05 0)
(-0.00762648 1.28964e-05 0)
(-0.00763387 5.85656e-06 0)
(-0.00763552 -1.23101e-06 0)
(-0.00763139 -8.35873e-06 0)
(-0.00762144 -1.55191e-05 0)
(-0.00760567 -2.27046e-05 0)
(-0.00758405 -2.99074e-05 0)
(-0.00755658 -3.71192e-05 0)
(-0.00752325 -4.4331e-05 0)
(-0.00748408 -5.15337e-05 0)
(-0.00743906 -5.87178e-05 0)
(-0.00738822 -6.5874e-05 0)
(-0.0073316 -7.2992e-05 0)
(-0.00726922 -8.00615e-05 0)
(-0.00720114 -8.70716e-05 0)
(-0.00712741 -9.40112e-05 0)
(-0.00704809 -0.000100869 0)
(-0.00696325 -0.000107633 0)
(-0.00687297 -0.000114293 0)
(-0.00677735 -0.000120834 0)
(-0.0066765 -0.000127247 0)
(-0.00657051 -0.000133517 0)
(-0.00645951 -0.000139632 0)
(-0.00634364 -0.00014558 0)
(-0.00622304 -0.000151346 0)
(-0.00609785 -0.000156917 0)
(-0.00596825 -0.00016228 0)
(-0.00583441 -0.000167423 0)
(-0.00569651 -0.000172331 0)
(-0.00555474 -0.000176991 0)
(-0.00540933 -0.000181389 0)
(-0.00526047 -0.000185513 0)
(-0.00510841 -0.000189349 0)
(-0.00495338 -0.000192884 0)
(-0.00479562 -0.000196105 0)
(-0.0046354 -0.000198998 0)
(-0.00447299 -0.000201551 0)
(-0.00430866 -0.000203753 0)
(-0.00414271 -0.000205591 0)
(-0.00397543 -0.000207054 0)
(-0.00380713 -0.00020813 0)
(-0.00363812 -0.000208807 0)
(-0.00346874 -0.000209076 0)
(-0.0032993 -0.000208926 0)
(-0.00313016 -0.000208349 0)
(-0.00296165 -0.000207337 0)
(-0.00279413 -0.00020588 0)
(-0.00262796 -0.000203973 0)
(-0.00246351 -0.000201608 0)
(-0.00230113 -0.00019878 0)
(-0.0021412 -0.000195483 0)
(-0.00198411 -0.000191714 0)
(-0.00183021 -0.00018747 0)
(-0.00167991 -0.000182747 0)
(-0.00153357 -0.000177545 0)
(-0.00139158 -0.000171863 0)
(-0.00125432 -0.000165704 0)
(-0.00112216 -0.000159069 0)
(-0.000995464 -0.000151965 0)
(-0.000874609 -0.000144397 0)
(-0.000759947 -0.000136375 0)
(-0.000651825 -0.000127912 0)
(-0.000550575 -0.000119022 0)
(-0.000456514 -0.000109726 0)
(-0.000369937 -0.00010005 0)
(-0.000291115 -9.00239e-05 0)
(-0.000220285 -7.96889e-05 0)
(-0.000157646 -6.90954e-05 0)
(-0.000103346 -5.83082e-05 0)
(-5.74747e-05 -4.74102e-05 0)
(-2.00428e-05 -3.65074e-05 0)
(9.03302e-06 -2.57372e-05 0)
(2.99577e-05 -1.52791e-05 0)
(4.30889e-05 -5.36927e-06 0)
(4.89764e-05 3.67899e-06 0)
(4.8413e-05 1.14486e-05 0)
(4.24928e-05 1.73884e-05 0)
(3.26494e-05 2.07851e-05 0)
(2.0702e-05 2.07522e-05 0)
(9.27081e-06 1.63076e-05 0)
(2.04215e-06 6.84782e-06 0)
(1.93059e-06 -1.13193e-05 0)
(8.42976e-06 -2.51138e-05 0)
(1.72654e-05 -2.87247e-05 0)
(2.44057e-05 -2.4616e-05 0)
(2.68694e-05 -1.49125e-05 0)
(2.27047e-05 -1.19304e-06 0)
(1.0409e-05 1.534e-05 0)
(-1.11106e-05 3.37676e-05 0)
(-4.2638e-05 5.33935e-05 0)
(-8.46707e-05 7.36793e-05 0)
(-0.000137479 9.42212e-05 0)
(-0.000201167 0.000114707 0)
(-0.000275692 0.0001349 0)
(-0.000360894 0.000154623 0)
(-0.000456533 0.000173739 0)
(-0.000562295 0.000192146 0)
(-0.000677814 0.000209771 0)
(-0.000802687 0.000226561 0)
(-0.000936478 0.000242477 0)
(-0.00107873 0.000257496 0)
(-0.00122896 0.000271603 0)
(-0.0013867 0.00028479 0)
(-0.00155145 0.000297061 0)
(-0.00172273 0.000308423 0)
(-0.00190005 0.000318884 0)
(-0.00208293 0.000328458 0)
(-0.00227088 0.000337159 0)
(-0.00246344 0.000345006 0)
(-0.00266015 0.000352018 0)
(-0.00286054 0.000358215 0)
(-0.00306417 0.000363619 0)
(-0.00327062 0.00036825 0)
(-0.00347946 0.000372132 0)
(-0.00369028 0.000375286 0)
(-0.00390268 0.000377733 0)
(-0.00411627 0.000379497 0)
(-0.00433067 0.0003806 0)
(-0.00454553 0.000381062 0)
(-0.00476048 0.000380905 0)
(-0.00497518 0.00038015 0)
(-0.0051893 0.000378815 0)
(-0.00540253 0.000376919 0)
(-0.00561454 0.000374482 0)
(-0.00582503 0.000371523 0)
(-0.00603372 0.000368056 0)
(-0.00624032 0.000364099 0)
(-0.00644456 0.000359669 0)
(-0.00664618 0.00035478 0)
(-0.00684491 0.000349448 0)
(-0.00704051 0.000343687 0)
(-0.00723274 0.000337509 0)
(-0.00742137 0.000330928 0)
(-0.00760617 0.000323957 0)
(-0.00778692 0.000316607 0)
(-0.0079634 0.00030889 0)
(-0.00813542 0.000300816 0)
(-0.00830278 0.000292396 0)
(-0.00846528 0.00028364 0)
(-0.00862272 0.00027456 0)
(-0.00877494 0.000265164 0)
(-0.00892176 0.000255461 0)
(-0.00906299 0.000245461 0)
(-0.00919848 0.000235173 0)
(-0.00932807 0.000224605 0)
(-0.0094516 0.000213766 0)
(-0.00956892 0.000202666 0)
(-0.00967989 0.000191313 0)
(-0.00978436 0.000179715 0)
(-0.0098822 0.000167882 0)
(-0.00997328 0.000155824 0)
(-0.0100575 0.000143548 0)
(-0.0101347 0.000131066 0)
(-0.0102048 0.000118386 0)
(-0.0102676 0.000105518 0)
(-0.0103231 9.24729e-05 0)
(-0.0103713 7.92627e-05 0)
(-0.0104119 6.58985e-05 0)
(-0.0104449 5.23917e-05 0)
(-0.0104702 3.8754e-05 0)
(-0.0104878 2.49977e-05 0)
(-0.0104977 1.11361e-05 0)
(-0.0104996 -2.81673e-06 0)
(-0.0104937 -1.68466e-05 0)
(-0.0104799 -3.09387e-05 0)
(-0.0104581 -4.5078e-05 0)
(-0.0104283 -5.92485e-05 0)
(-0.0103905 -7.34337e-05 0)
(-0.0103447 -8.76162e-05 0)
(-0.010291 -0.000101778 0)
(-0.0102293 -0.000115901 0)
(-0.0101596 -0.000129965 0)
(-0.0100821 -0.000143952 0)
(-0.00999672 -0.000157841 0)
(-0.00990357 -0.000171609 0)
(-0.00980272 -0.000185237 0)
(-0.00969427 -0.000198701 0)
(-0.0095783 -0.00021198 0)
(-0.00945494 -0.000225049 0)
(-0.0093243 -0.000237885 0)
(-0.00918654 -0.000250464 0)
(-0.0090418 -0.000262762 0)
(-0.00889025 -0.000274754 0)
(-0.00873207 -0.000286413 0)
(-0.00856746 -0.000297715 0)
(-0.00839662 -0.000308634 0)
(-0.00821978 -0.000319143 0)
(-0.00803718 -0.000329217 0)
(-0.00784908 -0.00033883 0)
(-0.00765572 -0.000347955 0)
(-0.00745741 -0.000356566 0)
(-0.00725444 -0.000364638 0)
(-0.00704711 -0.000372145 0)
(-0.00683575 -0.00037906 0)
(-0.00662069 -0.000385359 0)
(-0.0064023 -0.000391016 0)
(-0.00618094 -0.000396008 0)
(-0.00595698 -0.000400312 0)
(-0.00573081 -0.000403903 0)
(-0.00550285 -0.000406759 0)
(-0.0052735 -0.000408858 0)
(-0.0050432 -0.00041018 0)
(-0.00481237 -0.000410704 0)
(-0.00458148 -0.000410412 0)
(-0.00435097 -0.000409286 0)
(-0.00412133 -0.00040731 0)
(-0.00389301 -0.000404469 0)
(-0.00366651 -0.000400749 0)
(-0.00344231 -0.000396137 0)
(-0.00322092 -0.000390624 0)
(-0.00300283 -0.000384199 0)
(-0.00278854 -0.000376856 0)
(-0.00257857 -0.00036859 0)
(-0.00237342 -0.000359396 0)
(-0.0021736 -0.000349275 0)
(-0.00197962 -0.000338226 0)
(-0.00179198 -0.000326257 0)
(-0.00161118 -0.000313373 0)
(-0.00143771 -0.000299587 0)
(-0.00127206 -0.000284914 0)
(-0.00111468 -0.000269377 0)
(-0.000966025 -0.000253002 0)
(-0.000826536 -0.000235823 0)
(-0.000696616 -0.000217883 0)
(-0.000576641 -0.000199238 0)
(-0.00046695 -0.000179953 0)
(-0.000367835 -0.000160112 0)
(-0.000279536 -0.00013982 0)
(-0.000202221 -0.000119207 0)
(-0.000135979 -9.84366e-05 0)
(-8.07959e-05 -7.77176e-05 0)
(-3.6534e-05 -5.73131e-05 0)
(-2.90391e-06 -3.75592e-05 0)
(2.057e-05 -1.88864e-05 0)
(3.45894e-05 -1.84849e-06 0)
(4.01306e-05 1.28445e-05 0)
(3.84976e-05 2.42895e-05 0)
(3.13513e-05 3.13597e-05 0)
(2.07509e-05 3.2699e-05 0)
(9.63158e-06 2.67905e-05 0)
(2.19518e-06 1.21856e-05 0)
(1.73907e-06 -1.5821e-05 0)
(6.93135e-06 -3.25829e-05 0)
(1.2767e-05 -3.52491e-05 0)
(1.52649e-05 -2.71056e-05 0)
(1.14137e-05 -1.09527e-05 0)
(-8.71526e-07 1.1054e-05 0)
(-2.31714e-05 3.72614e-05 0)
(-5.67032e-05 6.63687e-05 0)
(-0.000102318 9.73587e-05 0)
(-0.000160589 0.000129441 0)
(-0.000231847 0.000161992 0)
(-0.00031622 0.000194528 0)
(-0.000413681 0.000226676 0)
(-0.000524069 0.000258145 0)
(-0.000647116 0.000288711 0)
(-0.000782471 0.000318204 0)
(-0.000929713 0.000346495 0)
(-0.00108837 0.000373489 0)
(-0.00125794 0.000399122 0)
(-0.00143788 0.000423346 0)
(-0.00162763 0.000446131 0)
(-0.00182661 0.000467462 0)
(-0.00203423 0.000487334 0)
(-0.0022499 0.000505751 0)
(-0.00247303 0.000522725 0)
(-0.00270304 0.000538275 0)
(-0.00293933 0.000552423 0)
(-0.00318134 0.000565194 0)
(-0.00342849 0.000576616 0)
(-0.00368023 0.00058672 0)
(-0.003936 0.000595538 0)
(-0.00419528 0.000603104 0)
(-0.00445753 0.000609451 0)
(-0.00472225 0.000614614 0)
(-0.00498895 0.000618628 0)
(-0.00525714 0.000621527 0)
(-0.00552635 0.000623346 0)
(-0.00579612 0.000624118 0)
(-0.00606601 0.000623878 0)
(-0.0063356 0.000622657 0)
(-0.00660446 0.000620487 0)
(-0.00687219 0.000617399 0)
(-0.0071384 0.000613423 0)
(-0.00740272 0.000608588 0)
(-0.00766477 0.000602921 0)
(-0.00792421 0.000596449 0)
(-0.00818068 0.000589199 0)
(-0.00843385 0.000581196 0)
(-0.0086834 0.000572464 0)
(-0.00892902 0.000563024 0)
(-0.0091704 0.000552901 0)
(-0.00940726 0.000542114 0)
(-0.00963929 0.000530685 0)
(-0.00986624 0.000518633 0)
(-0.0100878 0.000505976 0)
(-0.0103038 0.000492733 0)
(-0.0105139 0.000478922 0)
(-0.0107179 0.000464559 0)
(-0.0109155 0.000449661 0)
(-0.0111066 0.000434244 0)
(-0.0112908 0.000418324 0)
(-0.0114681 0.000401915 0)
(-0.0116381 0.000385034 0)
(-0.0118007 0.000367694 0)
(-0.0119556 0.00034991 0)
(-0.0121028 0.000331698 0)
(-0.0122419 0.000313071 0)
(-0.0123729 0.000294044 0)
(-0.0124955 0.000274633 0)
(-0.0126096 0.000254853 0)
(-0.0127151 0.000234719 0)
(-0.0128118 0.000214247 0)
(-0.0128995 0.000193453 0)
(-0.0129782 0.000172354 0)
(-0.0130476 0.000150968 0)
(-0.0131077 0.000129313 0)
(-0.0131584 0.000107408 0)
(-0.0131995 8.52709e-05 0)
(-0.0132311 6.29225e-05 0)
(-0.0132529 4.03834e-05 0)
(-0.0132649 1.76752e-05 0)
(-0.013267 -5.17939e-06 0)
(-0.0132593 -2.81571e-05 0)
(-0.0132416 -5.12334e-05 0)
(-0.0132139 -7.43831e-05 0)
(-0.0131762 -9.75802e-05 0)
(-0.0131285 -0.000120797 0)
(-0.0130707 -0.000144006 0)
(-0.013003 -0.000167178 0)
(-0.0129253 -0.000190281 0)
(-0.0128376 -0.000213286 0)
(-0.0127401 -0.000236158 0)
(-0.0126327 -0.000258866 0)
(-0.0125156 -0.000281375 0)
(-0.0123888 -0.000303649 0)
(-0.0122526 -0.000325652 0)
(-0.0121069 -0.000347348 0)
(-0.011952 -0.000368698 0)
(-0.011788 -0.000389664 0)
(-0.011615 -0.000410207 0)
(-0.0114333 -0.000430287 0)
(-0.0112432 -0.000449863 0)
(-0.0110447 -0.000468894 0)
(-0.0108382 -0.000487339 0)
(-0.0106239 -0.000505155 0)
(-0.0104021 -0.0005223 0)
(-0.0101731 -0.000538733 0)
(-0.00993728 -0.00055441 0)
(-0.00969487 -0.00056929 0)
(-0.00944627 -0.00058333 0)
(-0.00919185 -0.000596488 0)
(-0.00893199 -0.000608723 0)
(-0.0086671 -0.000619992 0)
(-0.0083976 -0.000630255 0)
(-0.00812394 -0.000639472 0)
(-0.00784657 -0.000647604 0)
(-0.00756595 -0.000654613 0)
(-0.00728259 -0.000660462 0)
(-0.00699697 -0.000665113 0)
(-0.00670963 -0.000668533 0)
(-0.00642109 -0.000670688 0)
(-0.00613189 -0.000671546 0)
(-0.0058426 -0.000671078 0)
(-0.00555377 -0.000669254 0)
(-0.005266 -0.00066605 0)
(-0.00497988 -0.000661442 0)
(-0.00469599 -0.000655407 0)
(-0.00441496 -0.000647927 0)
(-0.00413738 -0.000638985 0)
(-0.00386389 -0.000628567 0)
(-0.0035951 -0.000616664 0)
(-0.00333164 -0.000603267 0)
(-0.00307413 -0.000588374 0)
(-0.0028232 -0.000571985 0)
(-0.00257947 -0.000554104 0)
(-0.00234355 -0.000534741 0)
(-0.00211606 -0.000513914 0)
(-0.00189759 -0.000491643 0)
(-0.00168872 -0.000467958 0)
(-0.00149001 -0.000442898 0)
(-0.00130202 -0.000416511 0)
(-0.00112525 -0.000388858 0)
(-0.000960193 -0.000360015 0)
(-0.000807284 -0.000330074 0)
(-0.000666919 -0.00029915 0)
(-0.000539435 -0.000267385 0)
(-0.000425098 -0.000234952 0)
(-0.00032409 -0.000202066 0)
(-0.000236494 -0.000168995 0)
(-0.000162271 -0.000136069 0)
(-0.00010124 -0.000103703 0)
(-5.30434e-05 -7.24149e-05 0)
(-1.71213e-05 -4.28535e-05 0)
(7.3305e-06 -1.58336e-05 0)
(2.14033e-05 7.62698e-06 0)
(2.65228e-05 2.62652e-05 0)
(2.44754e-05 3.85345e-05 0)
(1.74564e-05 4.25898e-05 0)
(8.53342e-06 3.63103e-05 0)
(2.03012e-06 1.729e-05 0)
(1.34104e-06 -1.91816e-05 0)
(4.41115e-06 -3.71182e-05 0)
(5.85125e-06 -3.70792e-05 0)
(1.9943e-06 -2.31227e-05 0)
(-1.00234e-05 1.26195e-06 0)
(-3.22948e-05 3.34041e-05 0)
(-6.64466e-05 7.11801e-05 0)
(-0.00011371 0.000112919 0)
(-0.000174981 0.000157284 0)
(-0.000250863 0.000203211 0)
(-0.000341711 0.000249857 0)
(-0.000447676 0.000296549 0)
(-0.000568731 0.000342757 0)
(-0.000704708 0.000388066 0)
(-0.000855321 0.000432148 0)
(-0.00102019 0.000474754 0)
(-0.00119884 0.000515688 0)
(-0.00139077 0.000554804 0)
(-0.00159538 0.000591995 0)
(-0.00181209 0.000627187 0)
(-0.00204024 0.000660329 0)
(-0.00227919 0.000691392 0)
(-0.00252825 0.000720363 0)
(-0.00278676 0.00074724 0)
(-0.00305402 0.000772035 0)
(-0.00332936 0.000794769 0)
(-0.0036121 0.000815471 0)
(-0.00390156 0.000834173 0)
(-0.00419709 0.000850913 0)
(-0.00449802 0.000865733 0)
(-0.00480372 0.000878676 0)
(-0.00511356 0.000889789 0)
(-0.00542692 0.000899119 0)
(-0.0057432 0.000906715 0)
(-0.00606182 0.000912625 0)
(-0.00638219 0.0009169 0)
(-0.00670378 0.000919587 0)
(-0.00702602 0.000920735 0)
(-0.00734841 0.000920392 0)
(-0.00767042 0.000918603 0)
(-0.00799157 0.000915416 0)
(-0.00831137 0.000910874 0)
(-0.00862935 0.000905022 0)
(-0.00894507 0.0008979 0)
(-0.00925808 0.000889549 0)
(-0.00956796 0.000880009 0)
(-0.0098743 0.000869318 0)
(-0.0101767 0.000857512 0)
(-0.0104748 0.000844627 0)
(-0.0107681 0.000830696 0)
(-0.0110564 0.000815752 0)
(-0.0113393 0.000799826 0)
(-0.0116165 0.000782949 0)
(-0.0118875 0.00076515 0)
(-0.0121521 0.000746455 0)
(-0.01241 0.000726893 0)
(-0.0126609 0.000706489 0)
(-0.0129045 0.00068527 0)
(-0.0131404 0.000663259 0)
(-0.0133685 0.00064048 0)
(-0.0135885 0.000616956 0)
(-0.0138 0.000592711 0)
(-0.0140029 0.000567766 0)
(-0.014197 0.000542145 0)
(-0.0143818 0.000515869 0)
(-0.0145574 0.00048896 0)
(-0.0147234 0.00046144 0)
(-0.0148796 0.000433332 0)
(-0.0150258 0.000404657 0)
(-0.0151618 0.000375439 0)
(-0.0152875 0.000345701 0)
(-0.0154027 0.000315466 0)
(-0.0155072 0.000284759 0)
(-0.0156008 0.000253605 0)
(-0.0156834 0.000222031 0)
(-0.0157548 0.000190062 0)
(-0.015815 0.000157727 0)
(-0.0158638 0.000125054 0)
(-0.0159011 9.20725e-05 0)
(-0.0159268 5.88143e-05 0)
(-0.0159408 2.5311e-05 0)
(-0.015943 -8.40388e-06 0)
(-0.0159334 -4.22955e-05 0)
(-0.0159119 -7.63281e-05 0)
(-0.0158785 -0.000110464 0)
(-0.0158332 -0.000144665 0)
(-0.0157759 -0.000178891 0)
(-0.0157066 -0.000213099 0)
(-0.0156254 -0.000247246 0)
(-0.0155323 -0.000281289 0)
(-0.0154274 -0.00031518 0)
(-0.0153107 -0.000348872 0)
(-0.0151823 -0.000382316 0)
(-0.0150423 -0.000415461 0)
(-0.0148908 -0.000448256 0)
(-0.0147279 -0.000480648 0)
(-0.0145539 -0.000512582 0)
(-0.0143688 -0.000544003 0)
(-0.0141729 -0.000574854 0)
(-0.0139664 -0.000605077 0)
(-0.0137496 -0.000634615 0)
(-0.0135225 -0.000663408 0)
(-0.0132857 -0.000691395 0)
(-0.0130392 -0.000718516 0)
(-0.0127836 -0.000744709 0)
(-0.012519 -0.000769912 0)
(-0.0122458 -0.000794065 0)
(-0.0119645 -0.000817105 0)
(-0.0116754 -0.000838969 0)
(-0.0113789 -0.000859598 0)
(-0.0110755 -0.000878928 0)
(-0.0107657 -0.000896899 0)
(-0.0104499 -0.000913451 0)
(-0.0101286 -0.000928525 0)
(-0.00980231 -0.000942062 0)
(-0.00947165 -0.000954005 0)
(-0.00913713 -0.000964299 0)
(-0.00879934 -0.00097289 0)
(-0.00845887 -0.000979725 0)
(-0.00811634 -0.000984754 0)
(-0.00777238 -0.000987929 0)
(-0.00742762 -0.000989204 0)
(-0.00708272 -0.000988536 0)
(-0.00673837 -0.000985886 0)
(-0.00639524 -0.000981214 0)
(-0.00605404 -0.000974489 0)
(-0.00571546 -0.000965679 0)
(-0.00538022 -0.000954757 0)
(-0.00504904 -0.000941702 0)
(-0.00472265 -0.000926493 0)
(-0.00440178 -0.000909119 0)
(-0.00408717 -0.000889571 0)
(-0.00377953 -0.000867845 0)
(-0.00347962 -0.000843946 0)
(-0.00318814 -0.000817883 0)
(-0.00290582 -0.000789675 0)
(-0.00263336 -0.000759348 0)
(-0.00237145 -0.000726939 0)
(-0.00212077 -0.000692497 0)
(-0.00188197 -0.000656082 0)
(-0.00165565 -0.00061777 0)
(-0.00144243 -0.000577658 0)
(-0.00124283 -0.00053586 0)
(-0.00105737 -0.00049252 0)
(-0.000886467 -0.000447809 0)
(-0.000730507 -0.000401941 0)
(-0.000589775 -0.000355172 0)
(-0.000464462 -0.000307816 0)
(-0.000354648 -0.00026026 0)
(-0.000260274 -0.000212975 0)
(-0.000181128 -0.000166543 0)
(-0.000116809 -0.000121677 0)
(-6.67039e-05 -7.92575e-05 0)
(-2.99488e-05 -4.03681e-05 0)
(-5.39281e-06 -6.33637e-06 0)
(8.44415e-06 2.12168e-05 0)
(1.33987e-05 4.03303e-05 0)
(1.17168e-05 4.86686e-05 0)
(6.43595e-06 4.34996e-05 0)
(1.67291e-06 2.15169e-05 0)
(8.2131e-07 -2.10212e-05 0)
(1.24277e-06 -3.77467e-05 0)
(-2.73847e-06 -3.28642e-05 0)
(-1.42287e-05 -1.1149e-05 0)
(-3.58314e-05 2.33696e-05 0)
(-6.95716e-05 6.74916e-05 0)
(-0.000117032 0.000118686 0)
(-0.000179427 0.000174909 0)
(-0.000257639 0.000234512 0)
(-0.000352269 0.000296168 0)
(-0.000463678 0.000358798 0)
(-0.000592012 0.000421539 0)
(-0.000737239 0.000483698 0)
(-0.000899178 0.000544721 0)
(-0.00107752 0.000604171 0)
(-0.00127185 0.000661703 0)
(-0.00148168 0.000717051 0)
(-0.00170643 0.000770009 0)
(-0.00194548 0.000820421 0)
(-0.00219816 0.000868176 0)
(-0.00246377 0.000913198 0)
(-0.00274158 0.000955437 0)
(-0.00303084 0.000994867 0)
(-0.00333081 0.00103148 0)
(-0.00364071 0.00106529 0)
(-0.00395977 0.00109631 0)
(-0.00428725 0.00112458 0)
(-0.00462238 0.00115014 0)
(-0.0049644 0.00117303 0)
(-0.00531259 0.00119331 0)
(-0.00566621 0.00121103 0)
(-0.00602455 0.00122626 0)
(-0.0063869 0.00123905 0)
(-0.00675259 0.00124946 0)
(-0.00712093 0.00125757 0)
(-0.00749128 0.00126344 0)
(-0.007863 0.00126713 0)
(-0.00823547 0.0012687 0)
(-0.00860808 0.00126823 0)
(-0.00898025 0.00126577 0)
(-0.00935141 0.00126138 0)
(-0.009721 0.00125513 0)
(-0.0100885 0.00124707 0)
(-0.0104534 0.00123727 0)
(-0.0108151 0.00122577 0)
(-0.0111732 0.00121262 0)
(-0.0115272 0.00119789 0)
(-0.0118766 0.00118162 0)
(-0.0122211 0.00116386 0)
(-0.0125601 0.00114465 0)
(-0.0128932 0.00112405 0)
(-0.0132201 0.00110209 0)
(-0.0135403 0.00107881 0)
(-0.0138535 0.00105426 0)
(-0.0141592 0.00102847 0)
(-0.0144572 0.00100148 0)
(-0.014747 0.000973332 0)
(-0.0150283 0.000944055 0)
(-0.0153009 0.000913684 0)
(-0.0155643 0.000882253 0)
(-0.0158183 0.000849794 0)
(-0.0160626 0.00081634 0)
(-0.0162969 0.000781921 0)
(-0.0165209 0.000746569 0)
(-0.0167343 0.000710314 0)
(-0.016937 0.000673187 0)
(-0.0171285 0.000635219 0)
(-0.0173087 0.000596441 0)
(-0.0174774 0.000556884 0)
(-0.0176343 0.000516581 0)
(-0.0177792 0.000475564 0)
(-0.017912 0.000433865 0)
(-0.0180324 0.000391518 0)
(-0.0181402 0.00034856 0)
(-0.0182353 0.000305025 0)
(-0.0183175 0.000260952 0)
(-0.0183867 0.000216378 0)
(-0.0184427 0.000171343 0)