0.05 	0.0003125 	0.005 	0.00291805
0.05 	0.0009375 	0.005 	0.00291901
0.05 	0.0015625 	0.005 	0.0029196
0.05 	0.0021875 	0.005 	0.00291988
0.05 	0.0028125 	0.005 	0.0029199
0.05 	0.0034375 	0.005 	0.00291961
0.05 	0.0040625 	0.005 	0.00291896
0.05 	0.0046875 	0.005 	0.00291787
0.05 	0.0053125 	0.005 	0.00291627
0.05 	0.0059375 	0.005 	0.00291409
0.05 	0.0065625 	0.005 	0.00291123
0.05 	0.0071875 	0.005 	0.0029076
0.05 	0.0078125 	0.005 	0.00290311
0.05 	0.0084375 	0.005 	0.00289765
0.05 	0.0090625 	0.005 	0.00289112
0.05 	0.0096875 	0.005 	0.0028834
0.05 	0.0103125 	0.005 	0.0028744
0.05 	0.0109375 	0.005 	0.00286399
0.05 	0.0115625 	0.005 	0.00285204
0.05 	0.0121875 	0.005 	0.00283843
0.05 	0.0128125 	0.005 	0.00282302
0.05 	0.0134375 	0.005 	0.00280568
0.05 	0.0140625 	0.005 	0.00278626
0.05 	0.0146875 	0.005 	0.00276459
0.05 	0.0153125 	0.005 	0.00274052
0.05 	0.0159375 	0.005 	0.00271387
0.05 	0.0165625 	0.005 	0.00268444
0.05 	0.0171875 	0.005 	0.00265203
0.05 	0.0178125 	0.005 	0.00261642
0.05 	0.0184375 	0.005 	0.00257737
0.05 	0.0190625 	0.005 	0.00253462
0.05 	0.0196875 	0.005 	0.0024879
0.05 	0.0203125 	0.005 	0.00243691
0.05 	0.0209375 	0.005 	0.00238134
0.05 	0.0215625 	0.005 	0.00232084
0.05 	0.0221875 	0.005 	0.00225505
0.05 	0.0228125 	0.005 	0.00218355
0.05 	0.0234375 	0.005 	0.00210592
0.05 	0.0240625 	0.005 	0.00202168
0.05 	0.0246875 	0.005 	0.00193033
0.05 	0.0253125 	0.005 	0.00183134
0.05 	0.0259375 	0.005 	0.00172411
0.05 	0.0265625 	0.005 	0.00160801
0.05 	0.0271875 	0.005 	0.00148238
0.05 	0.0278125 	0.005 	0.00134648
0.05 	0.0284375 	0.005 	0.00119953
0.05 	0.0290625 	0.005 	0.00104072
0.05 	0.0296875 	0.005 	0.000869164
0.05 	0.0303125 	0.005 	0.000683929
0.05 	0.0309375 	0.005 	0.000484035
0.05 	0.0315625 	0.005 	0.000268448
0.05 	0.0321875 	0.005 	3.60775e-05
0.05 	0.0328125 	0.005 	-0.000214218
0.05 	0.0334375 	0.005 	-0.00048363
0.05 	0.0340625 	0.005 	-0.000773396
0.05 	0.0346875 	0.005 	-0.0010848
0.05 	0.0353125 	0.005 	-0.00141915
0.05 	0.0359375 	0.005 	-0.00177779
0.05 	0.0365625 	0.005 	-0.00216209
0.05 	0.0371875 	0.005 	-0.00257344
0.05 	0.0378125 	0.005 	-0.00301321
0.05 	0.0384375 	0.005 	-0.00348278
0.05 	0.0390625 	0.005 	-0.00398349
0.05 	0.0396875 	0.005 	-0.00451664
0.05 	0.0403125 	0.005 	-0.00508348
0.05 	0.0409375 	0.005 	-0.00568518
0.05 	0.0415625 	0.005 	-0.00632282
0.05 	0.0421875 	0.005 	-0.00699735
0.05 	0.0428125 	0.005 	-0.00770959
0.05 	0.0434375 	0.005 	-0.00846022
0.05 	0.0440625 	0.005 	-0.00924974
0.05 	0.0446875 	0.005 	-0.0100784
0.05 	0.0453125 	0.005 	-0.0109464
0.05 	0.0459375 	0.005 	-0.0118534
0.05 	0.0465625 	0.005 	-0.0127991
0.05 	0.0471875 	0.005 	-0.0137827
0.05 	0.0478125 	0.005 	-0.0148033
0.05 	0.0484375 	0.005 	-0.0158595
0.05 	0.0490625 	0.005 	-0.0169499
0.05 	0.0496875 	0.005 	-0.0180724
0.05 	0.0503125 	0.005 	-0.019225
0.05 	0.0509375 	0.005 	-0.020405
0.05 	0.0515625 	0.005 	-0.0216097
0.05 	0.0521875 	0.005 	-0.0228359
0.05 	0.0528125 	0.005 	-0.0240804
0.05 	0.0534375 	0.005 	-0.0253395
0.05 	0.0540625 	0.005 	-0.0266094
0.05 	0.0546875 	0.005 	-0.0278861
0.05 	0.0553125 	0.005 	-0.0291654
0.05 	0.0559375 	0.005 	-0.0304431
0.05 	0.0565625 	0.005 	-0.0317146
0.05 	0.0571875 	0.005 	-0.0329757
0.05 	0.0578125 	0.005 	-0.0342218
0.05 	0.0584375 	0.005 	-0.0354485
0.05 	0.0590625 	0.005 	-0.0366514
0.05 	0.0596875 	0.005 	-0.0378263
0.05 	0.0603125 	0.005 	-0.038969
0.05 	0.0609375 	0.005 	-0.0400756
0.05 	0.0615625 	0.005 	-0.0411424
0.05 	0.0621875 	0.005 	-0.0421659
0.05 	0.0628125 	0.005 	-0.0431428
0.05 	0.0634375 	0.005 	-0.0440702
0.05 	0.0640625 	0.005 	-0.0449454
0.05 	0.0646875 	0.005 	-0.0457662
0.05 	0.0653125 	0.005 	-0.0465304
0.05 	0.0659375 	0.005 	-0.0472366
0.05 	0.0665625 	0.005 	-0.0478834
0.05 	0.0671875 	0.005 	-0.0484698
0.05 	0.0678125 	0.005 	-0.0489952
0.05 	0.0684375 	0.005 	-0.0494596
0.05 	0.0690625 	0.005 	-0.0498628
0.05 	0.0696875 	0.005 	-0.0502054
0.05 	0.0703125 	0.005 	-0.0504881
0.05 	0.0709375 	0.005 	-0.0507119
0.05 	0.0715625 	0.005 	-0.0508781
0.05 	0.0721875 	0.005 	-0.0509883
0.05 	0.0728125 	0.005 	-0.0510443
0.05 	0.0734375 	0.005 	-0.0510482
0.05 	0.0740625 	0.005 	-0.0510021
0.05 	0.0746875 	0.005 	-0.0509084
0.05 	0.0753125 	0.005 	-0.0507698
0.05 	0.0759375 	0.005 	-0.0505888
0.05 	0.0765625 	0.005 	-0.0503683
0.05 	0.0771875 	0.005 	-0.0501112
0.05 	0.0778125 	0.005 	-0.0498202
0.05 	0.0784375 	0.005 	-0.0494985
0.05 	0.0790625 	0.005 	-0.0491489
0.05 	0.0796875 	0.005 	-0.0487745
0.05 	0.0803125 	0.005 	-0.048378
0.05 	0.0809375 	0.005 	-0.0479625
0.05 	0.0815625 	0.005 	-0.0475306
0.05 	0.0821875 	0.005 	-0.0470851
0.05 	0.0828125 	0.005 	-0.0466285
0.05 	0.0834375 	0.005 	-0.0461633
0.05 	0.0840625 	0.005 	-0.0456918
0.05 	0.0846875 	0.005 	-0.0452161
0.05 	0.0853125 	0.005 	-0.0447382
0.05 	0.0859375 	0.005 	-0.0442599
0.05 	0.0865625 	0.005 	-0.0437826
0.05 	0.0871875 	0.005 	-0.0433078
0.05 	0.0878125 	0.005 	-0.0428365
0.05 	0.0884375 	0.005 	-0.0423695
0.05 	0.0890625 	0.005 	-0.0419075
0.05 	0.0896875 	0.005 	-0.0414506
0.05 	0.0903125 	0.005 	-0.040999
0.05 	0.0909375 	0.005 	-0.0405524
0.05 	0.0915625 	0.005 	-0.0401102
0.05 	0.0921875 	0.005 	-0.0396716
0.05 	0.0928125 	0.005 	-0.0392357
0.05 	0.0934375 	0.005 	-0.0388011
0.05 	0.0940625 	0.005 	-0.0383663
0.05 	0.0946875 	0.005 	-0.0379299
0.05 	0.0953125 	0.005 	-0.0374899
0.05 	0.0959375 	0.005 	-0.0370446
0.05 	0.0965625 	0.005 	-0.0365919
0.05 	0.0971875 	0.005 	-0.0361297
0.05 	0.0978125 	0.005 	-0.0356592
0.05 	0.0984375 	0.005 	-0.0351817
0.05 	0.0990625 	0.005 	-0.0346546
0.05 	0.0996875 	0.005 	-0.0340352
