/*--------------------------------*- C++ -*----------------------------------*\
  =========                 |
  \\      /  F ield         | OpenFOAM: The Open Source CFD Toolbox
   \\    /   O peration     | Website:  https://openfoam.org
    \\  /    A nd           | Version:  7
     \\/     M anipulation  |
\*---------------------------------------------------------------------------*/
FoamFile
{
    version     2.0;
    format      ascii;
    class       volScalarField;
    location    "0.325";
    object      p;
}
// * * * * * * * * * * * * * * * * * * * * * * * * * * * * * * * * * * * * * //

dimensions      [0 2 -2 0 0 0 0];

internalField   nonuniform List<scalar> 
25600
(
-3.46211e-08
1.99245e-05
2.19049e-05
-3.44238e-06
-5.69891e-05
-0.000137436
-0.000242263
-0.000368362
-0.00051251
-0.000671609
-0.000842758
-0.00102328
-0.00121074
-0.00140292
-0.0015978
-0.00179353
-0.00198847
-0.00218116
-0.00237024
-0.00255451
-0.00273289
-0.00290439
-0.00306815
-0.0032234
-0.00336945
-0.00350567
-0.00363154
-0.00374656
-0.00385033
-0.00394248
-0.00402269
-0.0040907
-0.00414628
-0.00418923
-0.0042194
-0.00423666
-0.00424092
-0.0042321
-0.00421018
-0.00417512
-0.00412692
-0.0040656
-0.0039912
-0.00390378
-0.00380339
-0.00369014
-0.00356411
-0.00342541
-0.00327417
-0.00311051
-0.0029346
-0.0027466
-0.00254667
-0.002335
-0.00211179
-0.00187723
-0.00163155
-0.00137499
-0.0011078
-0.000830226
-0.000542536
-0.000245019
6.20299e-05
0.000378292
0.000703442
0.00103714
0.00137904
0.00172877
0.00208596
0.00245019
0.00282107
0.00319816
0.00358103
0.00396923
0.00436227
0.00475969
0.00516098
0.00556562
0.0059731
0.00638287
0.00679438
0.00720706
0.00762034
0.00803363
0.00844633
0.00885784
0.00926754
0.00967482
0.010079
0.0104796
0.0108758
0.011267
0.0116527
0.0120321
0.0124046
0.0127696
0.0131265
0.0134746
0.0138133
0.0141421
0.0144603
0.0147674
0.0150628
0.015346
0.0156165
0.0158737
0.0161172
0.0163466
0.0165614
0.0167613
0.0169459
0.0171149
0.017268
0.017405
0.0175256
0.0176297
0.0177172
0.017788
0.0178421
0.0178794
0.0179
0.0179041
0.0178918
0.0178633
0.0178189
0.0177589
0.0176836
0.0175936
0.0174892
0.017371
0.0172397
0.0170958
0.0169401
0.0167734
0.0165964
0.0164103
0.0162158
0.016014
0.0158061
0.0155932
0.0153767
0.0151578
0.014938
0.0147188
0.0145018
0.0142887
0.0140813
0.0138814
0.0136912
0.0135127
0.0133482
0.0132
0.0130704
0.0129619
0.0128767
0.0128167
0.0127827
0.0127741
0.0127875
0.0128114
-2.01436e-05
3.71618e-08
-1.88519e-06
-2.85782e-05
-7.88012e-05
-0.000151812
-0.000246015
-0.000359118
-0.000488586
-0.000631901
-0.000786588
-0.000950314
-0.00112089
-0.0012963
-0.00147469
-0.00165434
-0.00183371
-0.00201136
-0.00218602
-0.00235652
-0.0025218
-0.00268091
-0.002833
-0.00297728
-0.00311307
-0.00323977
-0.00335681
-0.00346372
-0.00356006
-0.00364547
-0.00371962
-0.00378223
-0.00383304
-0.00387186
-0.00389852
-0.00391288
-0.00391483
-0.00390429
-0.00388121
-0.00384554
-0.00379728
-0.00373642
-0.003663
-0.00357705
-0.00347862
-0.00336781
-0.00324469
-0.00310937
-0.00296197
-0.0028026
-0.0026314
-0.00244853
-0.00225415
-0.00204844
-0.00183159
-0.00160379
-0.00136526
-0.00111622
-0.000856915
-0.000587591
-0.00030851
-1.99481e-05
0.000277809
0.000584451
0.000899656
0.0012231
0.00155443
0.00189331
0.00223936
0.00259218
0.00295139
0.00331657
0.00368728
0.0040631
0.00444356
0.00482819
0.00521652
0.00560804
0.00600224
0.0063986
0.0067966
0.00719568
0.00759528
0.00799484
0.00839378
0.00879152
0.00918747
0.00958102
0.00997158
0.0103585
0.0107413
0.0111192
0.0114917
0.0118581
0.0122178
0.0125703
0.0129149
0.0132511
0.0135782
0.0138957
0.014203
0.0144996
0.0147849
0.0150585
0.0153198
0.0155684
0.0158038
0.0160257
0.0162335
0.0164271
0.016606
0.0167699
0.0169186
0.0170519
0.0171695
0.0172714
0.0173574
0.0174274
0.0174814
0.0175195
0.0175416
0.0175481
0.0175389
0.0175143
0.0174746
0.0174201
0.0173511
0.0172681
0.0171716
0.017062
0.01694
0.0168063
0.0166614
0.0165062
0.0163415
0.0161682
0.0159872
0.0157995
0.0156063
0.0154085
0.0152076
0.0150047
0.0148011
0.0145985
0.0143981
0.0142017
0.0140109
0.0138275
0.0136533
0.0134901
0.01334
0.013205
0.0130869
0.0129878
0.0129091
0.0128523
0.0128175
0.0128041
0.0128114
0.0128354
-2.2138e-05
2.23686e-06
4.06358e-07
-2.60815e-05
-7.38412e-05
-0.000141946
-0.000229071
-0.000333283
-0.000452463
-0.000584445
-0.000727088
-0.000878314
-0.00103615
-0.00119875
-0.00136441
-0.00153152
-0.00169863
-0.00186439
-0.00202756
-0.00218702
-0.00234176
-0.00249084
-0.00263343
-0.00276876
-0.00289615
-0.00301501
-0.00312478
-0.00322497
-0.00331516
-0.00339497
-0.00346406
-0.00352216
-0.00356898
-0.00360434
-0.00362805
-0.00363996
-0.00363996
-0.00362795
-0.00360388
-0.00356769
-0.00351936
-0.00345888
-0.00338628
-0.00330157
-0.00320481
-0.00309607
-0.00297542
-0.00284296
-0.00269881
-0.00254308
-0.00237589
-0.00219738
-0.00200772
-0.00180708
-0.00159563
-0.00137358
-0.00114112
-0.000898482
-0.000645882
-0.000383569
-0.000111798
0.000169156
0.000459018
0.000757491
0.00106426
0.001379
0.00170138
0.00203106
0.00236767
0.00271084
0.00306017
0.00341527
0.00377571
0.00414107
0.00451091
0.00488477
0.00526216
0.00564262
0.00602565
0.00641075
0.00679738
0.00718503
0.00757315
0.00796118
0.00834858
0.00873478
0.00911921
0.00950128
0.00988042
0.010256
0.0106275
0.0109943
0.0113558
0.0117114
0.0120605
0.0124025
0.012737
0.0130632
0.0133806
0.0136887
0.0139869
0.0142748
0.0145517
0.0148173
0.0150711
0.0153125
0.0155413
0.0157569
0.015959
0.0161473
0.0163215
0.0164812
0.0166263
0.0167565
0.0168716
0.0169716
0.0170563
0.0171256
0.0171796
0.0172183
0.0172417
0.01725
0.0172433
0.0172219
0.017186
0.0171359
0.0170721
0.0169948
0.0169047
0.0168021
0.0166877
0.0165621
0.016426
0.0162802
0.0161254
0.0159624
0.0157923
0.0156159
0.0154343
0.0152487
0.0150601
0.0148698
0.0146792
0.0144895
0.0143022
0.0141187
0.0139408
0.0137699
0.0136077
0.013456
0.0133166
0.0131911
0.0130812
0.0129886
0.0129147
0.0128603
0.012826
0.0128114
0.0128188
0.0128488
3.528e-06
2.93729e-05
2.74154e-05
8.72557e-07
-4.56347e-05
-0.000110887
-0.00019355
-0.000291851
-0.000403884
-0.00052774
-0.000661503
-0.000803304
-0.000951364
-0.00110398
-0.00125957
-0.00141666
-0.00157386
-0.00172991
-0.00188363
-0.00203395
-0.0021799
-0.00232056
-0.00245513
-0.00258288
-0.00270313
-0.00281528
-0.0029188
-0.0030132
-0.00309807
-0.00317302
-0.00323772
-0.00329188
-0.00333522
-0.00336755
-0.00338867
-0.00339843
-0.00339672
-0.00338342
-0.00335847
-0.00332182
-0.00327343
-0.00321329
-0.00314141
-0.00305781
-0.00296253
-0.00285564
-0.0027372
-0.0026073
-0.00246605
-0.00231356
-0.00214995
-0.00197535
-0.00178991
-0.00159379
-0.00138718
-0.00117026
-0.000943239
-0.000706315
-0.000459712
-0.000203667
6.15709e-05
0.000335736
0.000618553
0.000909732
0.00120897
0.00151596
0.00183037
0.00215186
0.00248007
0.00281466
0.00315522
0.00350137
0.0038527
0.00420879
0.00456921
0.00493352
0.00530126
0.00567194
0.0060451
0.00642025
0.00679686
0.00717444
0.00755244
0.00793034
0.00830759
0.00868366
0.00905797
0.00942997
0.0097991
0.0101648
0.0105264
0.0108835
0.0112353
0.0115815
0.0119213
0.0122543
0.0125798
0.0128973
0.0132063
0.0135062
0.0137966
0.0140769
0.0143466
0.0146052
0.0148524
0.0150877
0.0153106
0.0155208
0.0157179
0.0159017
0.0160717
0.0162278
0.0163698
0.0164973
0.0166103
0.0167086
0.0167921
0.0168609
0.0169148
0.0169539
0.0169783
0.0169882
0.0169837
0.0169649
0.0169322
0.0168859
0.0168264
0.016754
0.0166692
0.0165725
0.0164645
0.0163458
0.0162171
0.016079
0.0159325
0.0157782
0.015617
0.01545
0.0152781
0.0151024
0.014924
0.0147441
0.0145639
0.0143847
0.0142079
0.0140348
0.013867
0.0137059
0.013553
0.0134101
0.0132785
0.01316
0.0130561
0.0129681
0.0128973
0.0128448
0.0128112
0.0127967
0.0128054
0.0128404
5.75859e-05
8.01408e-05
7.56672e-05
4.77036e-05
1.07608e-06
-6.28264e-05
-0.000142649
-0.000236747
-0.000343389
-0.000460854
-0.000587425
-0.000721429
-0.000861241
-0.00100531
-0.00115219
-0.00130048
-0.00144892
-0.00159631
-0.00174154
-0.00188359
-0.00202153
-0.00215449
-0.00228169
-0.00240243
-0.00251606
-0.00262198
-0.00271967
-0.00280866
-0.00288852
-0.0029589
-0.00301945
-0.00306988
-0.00310993
-0.00313938
-0.00315805
-0.00316577
-0.00316242
-0.0031479
-0.00312213
-0.00308504
-0.00303661
-0.0029768
-0.00290563
-0.00282311
-0.00272928
-0.00262418
-0.00250789
-0.00238048
-0.00224206
-0.00209272
-0.00193258
-0.00176177
-0.00158044
-0.00138873
-0.00118683
-0.000974905
-0.000753157
-0.000521787
-0.000281011
-3.1054e-05
0.00022784
0.000495412
0.000771394
0.0010555
0.00134744
0.00164691
0.00195359
0.00226716
0.00258726
0.00291353
0.00324562
0.00358313
0.00392566
0.00427282
0.00462417
0.00497928
0.00533771
0.00569899
0.00606267
0.00642825
0.00679525
0.00716316
0.00753147
0.00789966
0.0082672
0.00863356
0.0089982
0.00936057
0.00972014
0.0100763
0.0104286
0.0107764
0.0111191
0.0114562
0.0117872
0.0121115
0.0124286
0.0127379
0.0130389
0.0133311
0.0136139
0.013887
0.0141498
0.0144019
0.0146429
0.0148723
0.0150897
0.0152948
0.0154872
0.0156666
0.0158328
0.0159855
0.0161244
0.0162494
0.0163603
0.016457
0.0165395
0.0166076
0.0166614
0.016701
0.0167263
0.0167376
0.016735
0.0167187
0.016689
0.0166461
0.0165906
0.0165226
0.0164427
0.0163515
0.0162493
0.0161369
0.0160149
0.015884
0.015745
0.0155986
0.0154456
0.0152871
0.015124
0.0149573
0.0147881
0.0146174
0.0144465
0.0142766
0.014109
0.013945
0.0137859
0.0136332
0.0134882
0.0133525
0.0132275
0.0131146
0.0130152
0.0129307
0.0128622
0.0128108
0.0127773
0.0127623
0.0127709
0.0128069
0.000138677
0.000153806
0.000144313
0.000113261
6.49697e-05
8.8756e-07
-7.76736e-05
-0.000169172
-0.000272051
-0.000384747
-0.00050572
-0.000633454
-0.000766481
-0.000903393
-0.00104285
-0.00118358
-0.00132438
-0.00146415
-0.00160185
-0.00173652
-0.00186727
-0.00199327
-0.00211379
-0.00222813
-0.00233568
-0.00243586
-0.00252817
-0.00261215
-0.00268738
-0.0027535
-0.00281018
-0.00285713
-0.00289409
-0.00292084
-0.0029372
-0.00294301
-0.00293813
-0.00292246
-0.00289592
-0.00285845
-0.00280999
-0.00275053
-0.00268006
-0.00259859
-0.00250616
-0.0024028
-0.0022886
-0.00216361
-0.00202792
-0.00188163
-0.00172486
-0.00155772
-0.00138035
-0.00119291
-0.00099556
-0.000788469
-0.000571825
-0.00034582
-0.000110671
0.000133404
0.000386172
0.000647377
0.000916764
0.00119405
0.00147896
0.00177119
0.00207044
0.00237637
0.00268867
0.00300696
0.0033309
0.00366011
0.00399421
0.00433279
0.00467546
0.00502176
0.00537129
0.00572359
0.0060782
0.00643466
0.00679248
0.00715117
0.00751024
0.00786919
0.00822749
0.00858463
0.00894009
0.00929332
0.00964381
0.00999101
0.0103344
0.0106734
0.0110074
0.0113361
0.0116587
0.0119748
0.0122839
0.0125854
0.0128789
0.0131638
0.0134396
0.0137059
0.0139623
0.0142082
0.0144433
0.0146671
0.0148794
0.0150796
0.0152676
0.015443
0.0156056
0.015755
0.0158911
0.0160137
0.0161227
0.0162179
0.0162993
0.0163668
0.0164205
0.0164604
0.0164865
0.0164991
0.0164982
0.0164841
0.0164571
0.0164174
0.0163654
0.0163015
0.0162261
0.0161397
0.0160429
0.0159362
0.0158203
0.0156959
0.0155636
0.0154243
0.0152787
0.0151278
0.0149725
0.0148138
0.0146527
0.0144902
0.0143275
0.0141657
0.0140061
0.0138498
0.0136982
0.0135525
0.0134141
0.0132843
0.0131644
0.0130559
0.0129598
0.0128775
0.0128102
0.0127589
0.0127246
0.012708
0.0127143
0.0127475
0.00024433
0.000248822
0.000232096
0.000196317
0.000144832
7.90373e-05
2.17642e-07
-9.02288e-05
-0.000190891
-0.000300364
-0.000417259
-0.000540207
-0.000667875
-0.000798981
-0.000932304
-0.00106668
-0.00120099
-0.00133421
-0.00146537
-0.00159356
-0.00171796
-0.00183778
-0.00195231
-0.00206091
-0.00216297
-0.00225795
-0.00234537
-0.00242476
-0.00249575
-0.00255796
-0.00261108
-0.00265481
-0.00268892
-0.00271318
-0.00272741
-0.00273145
-0.00272517
-0.00270845
-0.00268122
-0.0026434
-0.00259495
-0.00253584
-0.00246606
-0.00238563
-0.00229455
-0.00219289
-0.00208069
-0.00195803
-0.00182498
-0.00168163
-0.00152809
-0.00136448
-0.00119093
-0.00100758
-0.000814602
-0.00061215
-0.000400405
-0.000179552
5.01997e-05
0.000288637
0.000535534
0.00079064
0.00105371
0.00132447
0.00160265
0.00188796
0.0021801
0.00247875
0.00278359
0.00309428
0.00341046
0.00373177
0.00405784
0.00438827
0.00472267
0.00506061
0.00540169
0.00574547
0.00609149
0.00643931
0.00678845
0.00713843
0.00748878
0.007839
0.00818859
0.00853704
0.00888384
0.00922849
0.00957045
0.00990919
0.0102442
0.010575
0.0109009
0.0112216
0.0115364
0.0118449
0.0121465
0.0124408
0.0127272
0.0130052
0.0132745
0.0135345
0.0137848
0.014025
0.0142546
0.0144733
0.0146807
0.0148765
0.0150604
0.015232
0.0153911
0.0155375
0.015671
0.0157913
0.0158985
0.0159922
0.0160726
0.0161396
0.0161931
0.0162332
0.0162601
0.0162737
0.0162744
0.0162623
0.0162376
0.0162007
0.016152
0.0160917
0.0160203
0.0159383
0.0158462
0.0157447
0.0156342
0.0155155
0.0153892
0.0152562
0.0151171
0.0149729
0.0148245
0.0146728
0.0145187
0.0143632
0.0142076
0.0140527
0.0138998
0.01375
0.0136045
0.0134646
0.0133314
0.0132061
0.0130901
0.0129846
0.0128906
0.0128094
0.0127422
0.0126899
0.0126536
0.0126341
0.0126362
0.0126634
0.000371596
0.000363051
0.000337248
0.000295227
0.000239117
0.000170215
8.97307e-05
-1.06674e-06
-0.000100917
-0.000208559
-0.000322742
-0.000442242
-0.000565847
-0.000692394
-0.000820768
-0.000949903
-0.00107878
-0.00120644
-0.00133198
-0.00145457
-0.00157341
-0.00168779
-0.00179702
-0.00190049
-0.00199764
-0.00208794
-0.00217093
-0.00224618
-0.0023133
-0.00237194
-0.00242181
-0.0024626
-0.0024941
-0.00251607
-0.00252835
-0.00253077
-0.00252321
-0.00250554
-0.00247769
-0.00243959
-0.00239118
-0.00233244
-0.00226335
-0.00218392
-0.00209418
-0.00199416
-0.0018839
-0.00176348
-0.00163297
-0.00149245
-0.00134203
-0.00118182
-0.00101193
-0.000832529
-0.000643746
-0.000445745
-0.000238704
-2.27963e-05
0.000201781
0.000434812
0.000676082
0.000925349
0.00118237
0.00144689
0.00171864
0.00199733
0.00228269
0.00257439
0.00287212
0.00317555
0.00348434
0.00379813
0.00411656
0.00443925
0.0047658
0.00509581
0.00542889
0.00576459
0.00610248
0.00644213
0.00678306
0.00712482
0.00746694
0.00780893
0.00815031
0.00849059
0.00882926
0.00916582
0.00949977
0.0098306
0.0101578
0.0104808
0.0107992
0.0111124
0.0114199
0.0117212
0.0120159
0.0123034
0.0125832
0.0128549
0.0131181
0.0133722
0.0136169
0.0138517
0.0140763
0.0142902
0.0144931
0.0146847
0.0148647
0.0150329
0.0151888
0.0153324
0.0154634
0.0155816
0.015687
0.0157795
0.0158589
0.0159252
0.0159786
0.0160189
0.0160463
0.0160609
0.0160629
0.0160526
0.01603
0.0159956
0.0159497
0.0158926
0.0158248
0.0157467
0.0156588
0.0155617
0.015456
0.0153424
0.0152214
0.0150939
0.0149605
0.0148222
0.0146797
0.014534
0.0143859
0.0142365
0.0140868
0.0139377
0.0137904
0.0136459
0.0135054
0.0133699
0.0132407
0.0131188
0.0130054
0.0129017
0.0128087
0.0127275
0.0126591
0.0126048
0.0125652
0.0125415
0.0125376
0.0125561
0.00051749
0.000494175
0.000457808
0.000408247
0.000346235
0.00027296
0.000189563
9.71556e-05
-3.14445e-06
-0.000110204
-0.000222913
-0.000340165
-0.00046088
-0.000584
-0.00070851
-0.00083344
-0.000957857
-0.00108088
-0.00120167
-0.00131945
-0.0014335
-0.00154313
-0.00164771
-0.00174666
-0.00183944
-0.00192556
-0.00200458
-0.00207609
-0.00213972
-0.00219514
-0.00224205
-0.00228017
-0.00230929
-0.00232919
-0.0023397
-0.00234065
-0.00233192
-0.00231342
-0.00228503
-0.0022467
-0.00219838
-0.00214003
-0.00207164
-0.00199321
-0.00190477
-0.00180634
-0.00169798
-0.00157973
-0.00145167
-0.00131388
-0.00116646
-0.00100951
-0.000843163
-0.000667543
-0.000482797
-0.000289073
-8.65428e-05
0.00012462
0.000344231
0.000572083
0.00080796
0.00105164
0.00130287
0.00156142
0.00182702
0.00209941
0.00237828
0.00266335
0.00295431
0.00325083
0.00355258
0.00385923
0.00417039
0.00448572
0.00480483
0.00512733
0.00545282
0.00578088
0.00611108
0.006443
0.00677619
0.0071102
0.00744457
0.00777882
0.00811248
0.00844507
0.0087761
0.00910509
0.00943153
0.00975493
0.0100748
0.0103906
0.0107019
0.0110081
0.0113088
0.0116035
0.0118917
0.0121728
0.0124466
0.0127124
0.0129698
0.0132185
0.013458
0.0136878
0.0139077
0.0141172
0.0143159
0.0145037
0.0146801
0.014845
0.014998
0.0151389
0.0152676
0.0153839
0.0154877
0.0155789
0.0156574
0.0157231
0.0157762
0.0158167
0.0158445
0.01586
0.0158632
0.0158543
0.0158336
0.0158014
0.0157579
0.0157037
0.015639
0.0155643
0.0154801
0.015387
0.0152855
0.0151762
0.0150599
0.0149371
0.0148087
0.0146754
0.014538
0.0143974
0.0142544
0.01411
0.0139652
0.0138209
0.0136781
0.0135378
0.0134011
0.013269
0.0131426
0.013023
0.0129111
0.0128081
0.0127149
0.0126326
0.0125622
0.0125046
0.0124607
0.0124315
0.0124201
0.012428
0.000679141
0.000639833
0.000591775
0.00053359
0.000464577
0.000385826
0.000298402
0.000203265
0.000101396
-6.20646e-06
-0.00011855
-0.000234649
-0.00035354
-0.000474264
-0.000595905
-0.00071758
-0.00083844
-0.000957681
-0.00107454
-0.00118828
-0.00129824
-0.00140378
-0.00150433
-0.00159932
-0.00168827
-0.0017707
-0.00184619
-0.00191437
-0.00197487
-0.00202739
-0.00207164
-0.00210736
-0.00213434
-0.00215237
-0.00216128
-0.00216093
-0.00215118
-0.00213193
-0.0021031
-0.00206461
-0.00201642
-0.00195849
-0.00189081
-0.00181337
-0.00172621
-0.00162934
-0.0015228
-0.00140666
-0.00128097
-0.00114582
-0.00100129
-0.00084749
-0.000684539
-0.00051256
-0.00033169
-0.000142076
5.6125e-05
0.000262743
0.000477594
0.000700483
0.0009312
0.00116952
0.00141523
0.00166808
0.00192781
0.00219417
0.00246687
0.00274563
0.00303014
0.00332008
0.00361515
0.003915
0.00421928
0.00452764
0.0048397
0.00515508
0.00547339
0.00579423
0.00611719
0.00644183
0.00676772
0.00709443
0.0074215
0.00774847
0.00807489
0.00840027
0.00872415
0.00904605
0.00936547
0.00968194
0.00999496
0.010304
0.0106087
0.0109085
0.0112028
0.0114913
0.0117735
0.0120488
0.0123169
0.0125772
0.0128294
0.013073
0.0133076
0.0135329
0.0137484
0.0139538
0.0141487
0.0143329
0.014506
0.0146679
0.0148182
0.0149567
0.0150832
0.0151977
0.0153
0.0153899
0.0154675
0.0155327
0.0155855
0.015626
0.0156543
0.0156704
0.0156746
0.015667
0.0156479
0.0156176
0.0155763
0.0155245
0.0154625
0.0153907
0.0153098
0.0152201
0.0151222
0.0150167
0.0149043
0.0147856
0.0146614
0.0145323
0.0143992
0.0142629
0.0141241
0.0139839
0.013843
0.0137025
0.0135632
0.0134261
0.0132922
0.0131624
0.0130378
0.0129193
0.0128079
0.0127046
0.0126103
0.0125259
0.0124523
0.0123905
0.0123413
0.0123056
0.0122853
0.0122812
0.000853876
0.000797751
0.00073715
0.00066947
0.000592547
0.000507365
0.000414943
0.000316096
0.000211659
0.000102516
-1.04578e-05
-0.00012639
-0.000244415
-0.000363684
-0.000483367
-0.000602663
-0.000720805
-0.000837062
-0.000950732
-0.00106115
-0.0011677
-0.00126979
-0.00136688
-0.00145846
-0.00154407
-0.00162328
-0.00169567
-0.00176091
-0.00181864
-0.00186859
-0.00191047
-0.00194406
-0.00196912
-0.00198549
-0.00199299
-0.00199148
-0.00198084
-0.00196097
-0.00193178
-0.0018932
-0.00184519
-0.00178771
-0.00172075
-0.00164431
-0.00155841
-0.00146306
-0.00135831
-0.0012442
-0.00112081
-0.000988202
-0.000846465
-0.0006957
-0.000536017
-0.000367539
-0.000190392
-4.71913e-06
0.000189329
0.000391591
0.000601883
0.000820021
0.00104581
0.00127902
0.00151944
0.00176685
0.00202099
0.00228161
0.00254843
0.00282117
0.00309955
0.00338326
0.00367198
0.00396539
0.00426315
0.00456491
0.0048703
0.00517896
0.00549051
0.00580454
0.00612065
0.00643844
0.00675748
0.00707734
0.00739756
0.00771772
0.00803735
0.00835599
0.00867319
0.00898846
0.00930134
0.00961135
0.00991801
0.0102208
0.0105194
0.0108131
0.0111016
0.0113843
0.0116609
0.0119308
0.0121936
0.0124489
0.0126963
0.0129352
0.0131654
0.0133864
0.0135979
0.0137995
0.0139909
0.0141719
0.014342
0.014501
0.0146488
0.0147851
0.0149097
0.0150225
0.0151233
0.0152121
0.0152888
0.0153535
0.015406
0.0154465
0.015475
0.0154917
0.0154967
0.0154902
0.0154725
0.0154438
0.0154043
0.0153546
0.0152949
0.0152257
0.0151475
0.0150607
0.0149659
0.0148636
0.0147545
0.0146393
0.0145185
0.014393
0.0142634
0.0141305
0.0139952
0.0138582
0.0137204
0.0135827
0.013446
0.0133112
0.0131791
0.0130507
0.0129269
0.0128086
0.0126967
0.0125921
0.0124957
0.0124083
0.0123308
0.0122638
0.0122084
0.0121652
0.0121351
0.0121178
0.00103924
0.000965769
0.000892009
0.000814158
0.000728569
0.000636159
0.0005379
0.000434478
0.000326606
0.000215036
0.000100541
-1.61024e-05
-0.000134134
-0.000252796
-0.000371348
-0.000489071
-0.000605268
-0.00071928
-0.000830468
-0.000938229
-0.00104199
-0.00114122
-0.00123541
-0.0013241
-0.00140686
-0.00148328
-0.00155299
-0.00161566
-0.00167097
-0.00171866
-0.00175846
-0.00179016
-0.00181355
-0.00182846
-0.00183473
-0.00183222
-0.00182082
-0.00180044
-0.00177098
-0.00173239
-0.00168461
-0.00162762
-0.0015614
-0.00148596
-0.0014013
-0.00130744
-0.00120443
-0.00109231
-0.000971141
-0.000840991
-0.000701948
-0.000554108
-0.000397571
-0.000232456
-5.88835e-05
0.000123011
0.000313078
0.000511166
0.0007171
0.000930694
0.00115176
0.0013801
0.00161549
0.00185771
0.00210652
0.00236168
0.00262291
0.00288994
0.0031625
0.00344029
0.00372301
0.00401032
0.00430191
0.00459743
0.00489653
0.00519886
0.00550402
0.00581165
0.00612134
0.0064327
0.00674531
0.00705874
0.00737256
0.00768634
0.00799964
0.008312
0.00862296
0.00893207
0.00923887
0.00954287
0.00984363
0.0101407
0.0104335
0.0107217
0.0110047
0.0112822
0.0115536
0.0118186
0.0120766
0.0123272
0.0125701
0.0128048
0.0130309
0.013248
0.0134558
0.013654
0.0138422
0.0140201
0.0141874
0.0143439
0.0144894
0.0146236
0.0147464
0.0148577
0.0149572
0.015045
0.0151209
0.015185
0.0152372
0.0152776
0.0153063
0.0153234
0.0153291
0.0153235
0.0153069
0.0152795
0.0152417
0.0151937
0.015136
0.0150689
0.014993
0.0149086
0.0148163
0.0147167
0.0146104
0.0144979
0.01438
0.0142573
0.0141305
0.0140003
0.0138676
0.0137331
0.0135976
0.0134619
0.0133269
0.0131934
0.0130623
0.0129343
0.0128105
0.0126915
0.0125782
0.0124715
0.0123722
0.0122809
0.0121985
0.0121257
0.0120632
0.0120119
0.0119712
0.01194
0.001233
0.00114187
0.00105452
0.000965964
0.000871112
0.000770815
0.000666011
0.000557271
0.000445192
0.00033042
0.000213625
9.54786e-05
-2.33396e-05
-0.000142164
-0.000260337
-0.000377218
-0.00049218
-0.000604624
-0.000713979
-0.0008197
-0.000921265
-0.00101818
-0.00111001
-0.00119629
-0.00127665
-0.00135071
-0.00141813
-0.00147859
-0.00153182
-0.00157755
-0.00161555
-0.00164562
-0.00166756
-0.00168121
-0.00168643
-0.00168308
-0.00167106
-0.00165027
-0.00162064
-0.0015821
-0.00153461
-0.00147815
-0.0014127
-0.00133826
-0.00125483
-0.00116245
-0.00106114
-0.000950945
-0.000831931
-0.000704164
-0.000567721
-0.000422699
-0.00026919
-0.000107305
6.28341e-05
0.000241105
0.000427362
0.000621454
0.000823217
0.00103247
0.00124904
0.00147272
0.00170332
0.0019406
0.00218435
0.00243431
0.00269023
0.00295186
0.00321891
0.00349109
0.00376812
0.00404968
0.00433544
0.00462509
0.00491827
0.00521463
0.0055138
0.00581542
0.00611909
0.00642442
0.00673101
0.00703844
0.00734629
0.00765413
0.00796153
0.00826804
0.00857321
0.00887661
0.00917777
0.00947623
0.00977153
0.0100632
0.0103508
0.0106338
0.0109119
0.0111845
0.0114512
0.0117116
0.0119652
0.0122116
0.0124504
0.0126812
0.0129036
0.0131172
0.0133217
0.0135167
0.013702
0.0138771
0.014042
0.0141962
0.0143396
0.0144719
0.0145931
0.0147029
0.0148012
0.014888
0.0149631
0.0150267
0.0150786
0.0151189
0.0151477
0.0151652
0.0151714
0.0151665
0.0151508
0.0151246
0.015088
0.0150414
0.0149853
0.01492
0.0148459
0.0147635
0.0146733
0.0145758
0.0144717
0.0143615
0.0142457
0.0141252
0.0140005
0.0138723
0.0137415
0.0136087
0.0134747
0.0133402
0.0132061
0.0130732
0.0129422
0.0128139
0.0126891
0.0125686
0.0124532
0.0123436
0.0122405
0.0121447
0.0120567
0.0119773
0.0119071
0.0118469
0.0117951
0.0117495
0.00143311
0.00132417
0.00122296
0.0011233
0.0010187
0.000909982
0.000798047
0.000683358
0.000566407
0.000447748
0.000327955
0.000207611
8.73081e-05
-3.23715e-05
-0.000150848
-0.000267552
-0.000381925
-0.000493428
-0.000601551
-0.000705803
-0.00080572
-0.000900852
-0.000990789
-0.00107514
-0.00115353
-0.00122563
-0.00129113
-0.00134974
-0.0014012
-0.00144527
-0.00148174
-0.00151042
-0.00153113
-0.00154372
-0.00154805
-0.00154402
-0.0015315
-0.00151043
-0.00148071
-0.00144231
-0.00139517
-0.00133928
-0.00127462
-0.00120119
-0.00111899
-0.00102805
-0.000928407
-0.000820097
-0.000703179
-0.000577718
-0.000443788
-0.00030148
-0.000150886
7.89247e-06
0.000174742
0.000349539
0.000532147
0.000722419
0.000920196
0.00112531
0.00133759
0.00155684
0.00178287
0.00201547
0.0022544
0.00249943
0.00275033
0.00300682
0.00326866
0.00353555
0.00380721
0.00408334
0.00436363
0.00464775
0.00493536
0.00522612
0.00551968
0.00581567
0.00611371
0.00641342
0.0067144
0.00701623
0.00731852
0.00762084
0.00792277
0.00822386
0.00852369
0.0088218
0.00911776
0.0094111
0.00970138
0.00998814
0.0102709
0.0105493
0.0108228
0.011091
0.0113534
0.0116096
0.0118592
0.0121017
0.0123368
0.0125641
0.0127831
0.0129935
0.013195
0.0133872
0.0135698
0.0137425
0.0139051
0.0140572
0.0141987
0.0143294
0.0144491
0.0145576
0.0146548
0.0147407
0.0148151
0.0148782
0.0149298
0.01497
0.0149988
0.0150165
0.0150231
0.0150188
0.0150038
0.0149784
0.0149429
0.0148975
0.0148426
0.0147787
0.0147061
0.0146252
0.0145366
0.0144408
0.0143383
0.0142298
0.0141157
0.0139967
0.0138735
0.0137467
0.013617
0.0134852
0.013352
0.013218
0.0130841
0.0129509
0.0128192
0.0126898
0.0125634
0.0124407
0.0123223
0.0122091
0.0121016
0.0120005
0.0119064
0.0118197
0.0117413
0.0116719
0.0116085
0.0115481
0.0016377
0.00151094
0.00139569
0.00128466
0.00116995
0.00105236
0.000932803
0.000811633
0.000689246
0.000566108
0.000442708
0.000319544
0.00019713
7.59748e-05
-4.34183e-05
-0.000160545
-0.000274915
-0.000386052
-0.000493499
-0.000596814
-0.000695588
-0.000789418
-0.000877928
-0.000960766
-0.0010376
-0.00110813
-0.00117206
-0.00122914
-0.00127914
-0.00132184
-0.00135703
-0.00138456
-0.00140425
-0.00141597
-0.0014196
-0.00141502
-0.00140215
-0.0013809
-0.0013512
-0.001313
-0.00126628
-0.001211
-0.00114715
-0.00107474
-0.00099377
-0.000904262
-0.000806251
-0.000699779
-0.000584897
-0.000461671
-0.000330172
-0.000190483
-4.26914e-05
0.000113105
0.000276798
0.000448267
0.000627381
0.000814005
0.00100798
0.00120915
0.00141734
0.00163238
0.00185407
0.00208221
0.00231658
0.00255694
0.00280308
0.00305473
0.00331164
0.00357355
0.00384015
0.00411118
0.00438631
0.00466524
0.00494764
0.00523316
0.00552147
0.00581221
0.006105
0.00639948
0.00669524
0.00699189
0.00728902
0.00758624
0.00788311
0.0081792
0.0084741
0.00876736
0.00905854
0.0093472
0.00963288
0.00991515
0.0101935
0.0104676
0.010737
0.0110011
0.0112597
0.0115121
0.0117581
0.0119972
0.0122289
0.012453
0.012669
0.0128766
0.0130754
0.0132651
0.0134453
0.0136158
0.0137763
0.0139266
0.0140665
0.0141957
0.014314
0.0144214
0.0145176
0.0146027
0.0146765
0.014739
0.0147903
0.0148303
0.0148592
0.014877
0.0148839
0.01488
0.0148656
0.0148409
0.0148061
0.0147616
0.0147077
0.0146448
0.0145733
0.0144936
0.0144061
0.0143115
0.0142102
0.0141028
0.0139898
0.0138718
0.0137494
0.0136234
0.0134943
0.0133628
0.0132297
0.0130955
0.0129611
0.012827
0.0126939
0.0125627
0.0124339
0.0123083
0.0121864
0.0120689
0.0119564
0.0118494
0.0117485
0.0116542
0.0115671
0.011488
0.0114128
0.0113374
0.00184509
0.00170056
0.00157121
0.00144861
0.0013235
0.00119671
0.00106913
0.000941032
0.000812727
0.000684599
0.000557063
0.000430537
0.000305459
0.000182271
6.14102e-05
-5.66867e-05
-0.000171591
-0.000282882
-0.000390158
-0.00049303
-0.000591132
-0.000684105
-0.000771613
-0.000853348
-0.000929009
-0.00099832
-0.00106103
-0.0011169
-0.00116573
-0.00120732
-0.00124148
-0.00126808
-0.00128697
-0.00129801
-0.00130109
-0.00129612
-0.00128302
-0.0012617
-0.0012321
-0.0011942
-0.00114794
-0.00109332
-0.00103032
-0.000958938
-0.000879194
-0.000791103
-0.000694696
-0.000590018
-0.00047712
-0.000356062
-0.000226913
-8.97482e-05
5.5348e-05
0.000208278
0.000368943
0.000537229
0.000713003
0.000896136
0.00108648
0.00128389
0.00148821
0.00169924
0.00191681
0.00214073
0.00237077
0.00260673
0.00284836
0.00309545
0.00334772
0.00360493
0.00386679
0.00413302
0.00440333
0.00467741
0.00495492
0.00523556
0.00551898
0.00580483
0.00609275
0.00638237
0.0066733
0.00696515
0.00725754
0.00755005
0.00784227
0.00813378
0.00842416
0.00871298
0.0089998
0.00928419
0.00956569
0.00984388
0.0101183
0.0103886
0.0106542
0.0109147
0.0111697
0.0114188
0.0116615
0.0118975
0.0121263
0.0123476
0.0125609
0.0127659
0.0129624
0.0131498
0.013328
0.0134966
0.0136553
0.013804
0.0139424
0.0140703
0.0141874
0.0142938
0.0143892
0.0144735
0.0145468
0.0146089
0.0146598
0.0146997
0.0147285
0.0147464
0.0147534
0.0147498
0.0147358
0.0147115
0.0146773
0.0146334
0.0145802
0.014518
0.0144473
0.0143683
0.0142817
0.0141878
0.0140872
0.0139804
0.013868
0.0137505
0.0136285
0.0135026
0.0133735
0.0132417
0.013108
0.012973
0.0128374
0.0127017
0.0125667
0.012433
0.0123013
0.0121721
0.012046
0.0119236
0.0118055
0.0116922
0.0115842
0.0114817
0.0113855
0.0112965
0.0112092
0.0111187
0.00205372
0.00189155
0.0017481
0.00161381
0.00147812
0.00134184
0.00120591
0.00107052
0.000935893
0.00080234
0.000670205
0.000539837
0.000411608
0.000285895
0.000163074
4.35181e-05
-7.24028e-05
-0.000184323
-0.000291894
-0.000394772
-0.000492635
-0.000585167
-0.000672074
-0.000753082
-0.000827922
-0.000896355
-0.000958157
-0.00101312
-0.00106105
-0.00110179
-0.00113518
-0.00116107
-0.00117933
-0.00118987
-0.00119258
-0.00118736
-0.00117414
-0.00115286
-0.00112347
-0.00108592
-0.0010402
-0.000986275
-0.000924149
-0.000853821
-0.000775303
-0.000688614
-0.000593788
-0.000490868
-0.000379903
-0.000260946
-0.000134067
6.59224e-07
0.00014316
0.000293343
0.000451105
0.000616338
0.00078892
0.000968727
0.00115562
0.00134945
0.00155007
0.00175731
0.00197098
0.00219089
0.00241685
0.00264864
0.00288604
0.00312882
0.00337674
0.00362953
0.00388695
0.0041487
0.0044145
0.00468404
0.00495702
0.00523311
0.00551199
0.00579331
0.00607672
0.00636185
0.00664833
0.00693578
0.0072238
0.007512
0.00779997
0.00808729
0.00837356
0.00865835
0.00894122
0.00922175
0.00949948
0.00977401
0.0100449
0.0103117
0.0105739
0.0108312
0.0110831
0.0113292
0.0115691
0.0118023
0.0120286
0.0122473
0.0124583
0.0126612
0.0128555
0.0130411
0.0132174
0.0133844
0.0135416
0.0136889
0.013826
0.0139528
0.014069
0.0141744
0.0142691
0.0143528
0.0144255
0.0144873
0.0145379
0.0145776
0.0146063
0.0146242
0.0146314