/*--------------------------------*- C++ -*----------------------------------*\
  =========                 |
  \\      /  F ield         | OpenFOAM: The Open Source CFD Toolbox
   \\    /   O peration     | Website:  https://openfoam.org
    \\  /    A nd           | Version:  7
     \\/     M anipulation  |
\*---------------------------------------------------------------------------*/
FoamFile
{
    version     2.0;
    format      ascii;
    class       volScalarField;
    location    "0.0875";
    object      p;
}
// * * * * * * * * * * * * * * * * * * * * * * * * * * * * * * * * * * * * * //

dimensions      [0 2 -2 0 0 0 0];

internalField   nonuniform List<scalar> 
25600
(
1.72643e-09
-5.18875e-07
-3.67164e-06
-9.18341e-06
-1.6225e-05
-2.39846e-05
-3.18394e-05
-3.9313e-05
-4.60646e-05
-5.18565e-05
-5.65255e-05
-5.99732e-05
-6.21465e-05
-6.30064e-05
-6.25159e-05
-6.06576e-05
-5.74484e-05
-5.29255e-05
-4.7119e-05
-4.00418e-05
-3.17021e-05
-2.21187e-05
-1.13207e-05
6.63781e-07
1.38155e-05
2.81254e-05
4.35881e-05
6.0193e-05
7.79226e-05
9.67595e-05
0.000116694
0.000137723
0.000159845
0.000183051
0.000207328
0.000232665
0.000259054
0.000286491
0.000314973
0.00034449
0.000375031
0.000406583
0.000439139
0.000472694
0.000507239
0.000542763
0.000579253
0.000616698
0.000655086
0.000694409
0.000734654
0.000775809
0.00081786
0.000860792
0.000904592
0.000949247
0.000994742
0.00104106
0.00108819
0.00113611
0.0011848
0.00123425
0.00128444
0.00133534
0.00138695
0.00143924
0.00149218
0.00154576
0.00159996
0.00165475
0.00171011
0.00176601
0.00182244
0.00187935
0.00193674
0.00199457
0.00205282
0.00211146
0.00217046
0.00222978
0.00228941
0.00234932
0.00240946
0.00246982
0.00253036
0.00259105
0.00265185
0.00271274
0.00277368
0.00283465
0.00289559
0.00295649
0.00301731
0.00307801
0.00313855
0.00319891
0.00325905
0.00331893
0.00337852
0.00343777
0.00349666
0.00355514
0.00361318
0.00367074
0.00372779
0.00378428
0.00384017
0.00389544
0.00395004
0.00400392
0.00405707
0.00410942
0.00416096
0.00421163
0.00426141
0.00431024
0.00435811
0.00440496
0.00445077
0.00449549
0.0045391
0.00458155
0.00462281
0.00466285
0.00470164
0.00473914
0.00477532
0.00481015
0.00484361
0.00487565
0.00490625
0.00493538
0.00496301
0.00498911
0.00501366
0.00503662
0.00505797
0.00507767
0.00509569
0.005112
0.00512658
0.00513939
0.00515039
0.00515958
0.00516691
0.00517238
0.00517599
0.00517772
0.00517762
0.00517573
0.00517213
0.00516695
0.00516037
0.00515266
0.00514416
0.00513537
0.00512692
0.00511968
0.00511475
0.00511303
2.04606e-06
1.4501e-06
-1.24428e-06
-5.7073e-06
-1.13036e-05
-1.74942e-05
-2.38223e-05
-2.99005e-05
-3.54276e-05
-4.01755e-05
-4.39692e-05
-4.66866e-05
-4.82566e-05
-4.86371e-05
-4.77913e-05
-4.56867e-05
-4.231e-05
-3.76722e-05
-3.17947e-05
-2.46922e-05
-1.63718e-05
-6.84075e-06
3.88706e-06
1.57921e-05
2.88548e-05
4.30608e-05
5.84034e-05
7.48777e-05
9.2474e-05
0.000111178
0.000130976
0.00015186
0.000173827
0.000196872
0.000220986
0.000246159
0.00027238
0.000299642
0.000327941
0.000357269
0.000387618
0.000418976
0.000451334
0.000484683
0.000519016
0.000554323
0.000590592
0.000627812
0.000665972
0.00070506
0.000745065
0.000785974
0.000827775
0.000870454
0.000913996
0.000958388
0.00100362
0.00104966
0.00109651
0.00114415
0.00119256
0.00124172
0.00129161
0.00134222
0.00139352
0.0014455
0.00149814
0.00155141
0.00160528
0.00165975
0.00171478
0.00177036
0.00182645
0.00188303
0.00194008
0.00199757
0.00205547
0.00211376
0.0021724
0.00223138
0.00229065
0.00235019
0.00240997
0.00246996
0.00253014
0.00259045
0.00265089
0.00271141
0.00277197
0.00283256
0.00289313
0.00295365
0.00301409
0.00307441
0.00313458
0.00319456
0.00325432
0.00331382
0.00337303
0.00343191
0.00349041
0.00354852
0.00360619
0.00366337
0.00372005
0.00377617
0.00383169
0.00388659
0.00394083
0.00399435
0.00404714
0.00409914
0.00415032
0.00420065
0.00425008
0.00429858
0.00434611
0.00439263
0.00443811
0.00448252
0.00452581
0.00456795
0.00460891
0.00464866
0.00468716
0.00472438
0.00476028
0.00479485
0.00482804
0.00485983
0.00489019
0.00491909
0.0049465
0.0049724
0.00499675
0.00501953
0.00504071
0.00506027
0.00507817
0.0050944
0.00510893
0.00512173
0.00513278
0.00514208
0.00514961
0.00515537
0.00515936
0.00516162
0.00516218
0.00516112
0.00515852
0.00515454
0.00514935
0.00514322
0.00513646
0.00512949
0.00512282
0.00511708
0.00511304
0.00511132
7.33115e-06
5.79431e-06
2.81057e-06
-1.3557e-06
-6.30912e-06
-1.16671e-05
-1.70921e-05
-2.22811e-05
-2.69824e-05
-3.09976e-05
-3.41639e-05
-3.63498e-05
-3.74669e-05
-3.74682e-05
-3.63246e-05
-3.40051e-05
-3.04809e-05
-2.57406e-05
-1.97919e-05
-1.26499e-05
-4.32508e-06
5.17869e-06
1.58579e-05
2.77035e-05
4.07e-05
5.48306e-05
7.00842e-05
8.64565e-05
0.000103944
0.000122537
0.000142223
0.000162991
0.000184834
0.000207747
0.000231725
0.00025676
0.000282842
0.000309962
0.000338111
0.000367284
0.000397474
0.000428672
0.000460867
0.000494049
0.000528209
0.000563338
0.000599427
0.000636464
0.000674437
0.000713335
0.000753146
0.000793857
0.000835457
0.000877931
0.000921266
0.000965447
0.00101046
0.00105629
0.00110292
0.00115033
0.00119851
0.00124744
0.0012971
0.00134747
0.00139854
0.00145028
0.00150266
0.00155568
0.00160931
0.00166352
0.0017183
0.00177362
0.00182944
0.00188576
0.00194254
0.00199976
0.00205739
0.0021154
0.00217377
0.00223247
0.00229146
0.00235072
0.00241022
0.00246992
0.00252981
0.00258984
0.00264998
0.00271021
0.00277049
0.00283079
0.00289106
0.00295129
0.00301144
0.00307147
0.00313135
0.00319104
0.0032505
0.00330971
0.00336863
0.00342722
0.00348544
0.00354326
0.00360064
0.00365754
0.00371392
0.00376976
0.00382501
0.00387962
0.00393358
0.00398683
0.00403934
0.00409107
0.00414198
0.00419203
0.0042412
0.00428944
0.00433671
0.00438298
0.00442821
0.00447237
0.00451542
0.00455732
0.00459805
0.00463758
0.00467585
0.00471286
0.00474856
0.00478292
0.00481592
0.00484753
0.00487771
0.00490644
0.00493369
0.00495943
0.00498365
0.0050063
0.00502738
0.00504684
0.00506468
0.00508086
0.00509537
0.00510819
0.00511932
0.00512873
0.00513643
0.00514243
0.00514675
0.00514941
0.00515048
0.00515003
0.00514816
0.00514501
0.00514076
0.00513564
0.00512993
0.00512399
0.00511821
0.00511307
0.00510903
0.00510643
1.47365e-05
1.17426e-05
8.06075e-06
3.73691e-06
-1.07805e-06
-6.09332e-06
-1.10497e-05
-1.57129e-05
-1.98754e-05
-2.33729e-05
-2.60742e-05
-2.78628e-05
-2.86427e-05
-2.83519e-05
-2.69587e-05
-2.44419e-05
-2.07773e-05
-1.59435e-05
-9.93239e-06
-2.74986e-06
5.594e-06
1.50922e-05
2.57417e-05
3.75393e-05
5.0478e-05
6.45461e-05
7.9731e-05
9.60238e-05
0.00011342
0.000131914
0.000151499
0.000172166
0.000193903
0.000216704
0.000240563
0.000265476
0.000291434
0.000318428
0.000346448
0.000375488
0.000405539
0.000436595
0.000468647
0.000501684
0.000535695
0.000570672
0.000606605
0.000643483
0.000681296
0.000720031
0.000759676
0.000800219
0.000841648
0.000883948
0.000927107
0.000971111
0.00101594
0.00106159
0.00110803
0.00115526
0.00120325
0.00125199
0.00130145
0.00135163
0.00140249
0.00145403
0.00150621
0.00155902
0.00161244
0.00166645
0.00172101
0.00177611
0.00183172
0.00188782
0.00194438
0.00200138
0.00205878
0.00211657
0.00217471
0.00223318
0.00229194
0.00235097
0.00241024
0.00246971
0.00252936
0.00258916
0.00264907
0.00270906
0.0027691
0.00282916
0.00288921
0.0029492
0.00300912
0.00306891
0.00312855
0.00318801
0.00324725
0.00330623
0.00336491
0.00342327
0.00348126
0.00353885
0.003596
0.00365267
0.00370883
0.00376444
0.00381946
0.00387386
0.00392759
0.00398062
0.0040329
0.00408441
0.00413511
0.00418495
0.00423391
0.00428193
0.004329
0.00437506
0.00442009
0.00446405
0.00450691
0.00454863
0.00458917
0.00462851
0.00466662
0.00470346
0.00473899
0.0047732
0.00480605
0.00483751
0.00486756
0.00489616
0.0049233
0.00494894
0.00497305
0.00499563
0.00501663
0.00503604
0.00505384
0.00507001
0.00508453
0.0050974
0.00510859
0.00511812
0.00512598
0.00513219
0.00513678
0.00513977
0.00514124
0.00514124
0.00513989
0.00513732
0.00513369
0.00512919
0.00512407
0.00511861
0.00511312
0.00510798
0.00510334
0.00509925
2.32103e-05
1.8571e-05
1.40075e-05
9.3159e-06
4.40559e-06
-5.05191e-07
-5.21623e-06
-9.55529e-06
-1.33553e-05
-1.64743e-05
-1.88058e-05
-2.02619e-05
-2.07609e-05
-2.0233e-05
-1.86338e-05
-1.59408e-05
-1.21382e-05
-7.2087e-06
-1.13826e-06
6.07872e-06
1.44402e-05
2.39404e-05
3.45731e-05
4.63337e-05
5.92193e-05
7.32258e-05
8.83453e-05
0.000104567
0.000121883
0.000140287
0.000159775
0.000180342
0.000201978
0.000224675
0.000248424
0.000273221
0.000299059
0.000325932
0.00035383
0.000382744
0.000412666
0.000443588
0.000475504
0.000508403
0.000542275
0.00057711
0.000612897
0.000649628
0.000687291
0.000725875
0.000765367
0.000805754
0.000847025
0.000889166
0.000932164
0.000976005
0.00102067
0.00106615
0.00111243
0.00115948
0.0012073
0.00125586
0.00130515
0.00135515
0.00140583
0.00145719
0.00150919
0.00156182
0.00161505
0.00166886
0.00172324
0.00177814
0.00183356
0.00188947
0.00194583
0.00200263
0.00205983
0.00211742
0.00217536
0.00223362
0.00229218
0.002351
0.00241006
0.00246933
0.00252878
0.00258837
0.00264807
0.00270786
0.0027677
0.00282755
0.00288739
0.00294719
0.0030069
0.00306649
0.00312593
0.00318519
0.00324422
0.003303
0.00336149
0.00341965
0.00347745
0.00353484
0.00359179
0.00364827
0.00370424
0.00375965
0.00381448
0.00386868
0.00392222
0.00397505
0.00402715
0.00407847
0.00412898
0.00417863
0.0042274
0.00427525
0.00432213
0.00436802
0.00441288
0.00445667
0.00449936
0.00454091
0.0045813
0.00462049
0.00465845
0.00469514
0.00473054
0.00476462
0.00479735
0.00482869
0.00485863
0.00488713
0.00491418
0.00493973
0.00496378
0.00498629
0.00500724
0.00502662
0.0050444
0.00506058
0.00507512
0.00508804
0.00509932
0.00510896
0.00511697
0.00512338
0.00512819
0.00513147
0.00513326
0.00513364
0.00513269
0.00513055
0.00512735
0.00512325
0.00511847
0.0051132
0.0051077
0.00510225
0.00509672
0.00509086
3.21389e-05
2.58068e-05
2.02505e-05
1.5045e-05
9.87352e-06
4.89481e-06
2.65952e-07
-3.89753e-06
-7.4757e-06
-1.0348e-05
-1.24172e-05
-1.36133e-05
-1.38778e-05
-1.31532e-05
-1.139e-05
-8.55626e-06
-4.63458e-06
3.86571e-07
6.5178e-06
1.37681e-05
2.21427e-05
3.16418e-05
4.22613e-05
5.39947e-05
6.6838e-05
8.07889e-05
9.58443e-05
0.000111997
0.00012924
0.000147564
0.000166964
0.000187437
0.000208975
0.000231572
0.000255219
0.00027991
0.000305637
0.000332396
0.000360177
0.000388973
0.000418775
0.000449575
0.000481365
0.000514135
0.000547877
0.00058258
0.000618235
0.00065483
0.000692356
0.000730802
0.000770154
0.0008104
0.000851529
0.000893526
0.000936379
0.000980072
0.00102459
0.00106992
0.00111605
0.00116295
0.00121061
0.00125902
0.00130815
0.00135799
0.00140852
0.00145971
0.00151155
0.00156402
0.00161709
0.00167074
0.00172494
0.00177968
0.00183493
0.00189066
0.00194685
0.00200348
0.00206051
0.00211792
0.00217568
0.00223377
0.00229215
0.0023508
0.00240969
0.00246878
0.00252805
0.00258747
0.002647
0.00270661
0.00276627
0.00282596
0.00288563
0.00294525
0.00300479
0.00306421
0.00312349
0.00318258
0.00324145
0.00330006
0.00335839
0.00341638
0.00347401
0.00353125
0.00358804
0.00364435
0.00370016
0.00375541
0.00381008
0.00386412
0.0039175
0.00397017
0.00402211
0.00407327
0.00412362
0.00417312
0.00422174
0.00426943
0.00431616
0.00436191
0.00440662
0.00445027
0.00449282
0.00453424
0.0045745
0.00461356
0.0046514
0.00468798
0.00472327
0.00475725
0.00478988
0.00482114
0.00485099
0.00487942
0.00490639
0.00493189
0.00495588
0.00497835
0.00499928
0.00501864
0.00503643
0.00505262
0.0050672
0.00508018
0.00509154
0.00510128
0.00510943
0.005116
0.00512102
0.00512452
0.00512657
0.00512723
0.00512658
0.00512474
0.00512181
0.00511794
0.00511328
0.00510799
0.00510228
0.00509633
0.00508977
0.00508212
4.09799e-05
3.30269e-05
2.64521e-05
2.06464e-05
1.50987e-05
9.92006e-06
5.23863e-06
1.13138e-06
-2.32796e-06
-5.05298e-06
-6.95817e-06
-7.97734e-06
-8.06414e-06
-7.17903e-06
-5.28198e-06
-2.33815e-06
1.67539e-06
6.77139e-06
1.29582e-05
2.0243e-05
2.86314e-05
3.81271e-05
4.87306e-05
6.0439e-05
7.32476e-05
8.71524e-05
0.00010215
0.000118238
0.00013541
0.00015366
0.000172982
0.000193369
0.000214817
0.000237319
0.000260871
0.000285464
0.00031109
0.000337744
0.000365417
0.000394103
0.000423794
0.000454482
0.000486157
0.000518811
0.000552434
0.000587018
0.000622552
0.000659026
0.00069643
0.000734751
0.000773978
0.000814099
0.000855101
0.000896971
0.000939696
0.00098326
0.00102765
0.00107285
0.00111884
0.00116561
0.00121314
0.00126142
0.00131042
0.00136012
0.00141051
0.00146157
0.00151327
0.0015656
0.00161852
0.00167203
0.00172609
0.00178069
0.00183579
0.00189138
0.00194743
0.00200391
0.00206079
0.00211806
0.00217568
0.00223362
0.00229185
0.00235036
0.0024091
0.00246804
0.00252717
0.00258644
0.00264583
0.0027053
0.00276483
0.00282437
0.0028839
0.00294339
0.00300279
0.00306209
0.00312123
0.00318019
0.00323893
0.00329742
0.00335561
0.00341348
0.00347099
0.00352809
0.00358476
0.00364095
0.00369663
0.00375175
0.00380629
0.00386021
0.00391346
0.00396601
0.00401782
0.00406886
0.00411909
0.00416846
0.00421695
0.00426453
0.00431114
0.00435677
0.00440137
0.00444491
0.00448735
0.00452867
0.00456883
0.0046078
0.00464555
0.00468204
0.00471726
0.00475116
0.00478372
0.00481491
0.00484471
0.00487308
0.00490001
0.00492547
0.00494944
0.00497189
0.00499281
0.00501217
0.00502997
0.00504618
0.00506081
0.00507384
0.00508528
0.00509512
0.00510339
0.0051101
0.00511528
0.00511896
0.0051212
0.00512206
0.00512161
0.00511995
0.00511716
0.00511337
0.00510869
0.00510323
0.00509715
0.00509059
0.00508298
0.00507361
4.9299e-05
3.98653e-05
3.23083e-05
2.58724e-05
1.98921e-05
1.44344e-05
9.60101e-06
5.44933e-06
2.02487e-06
-6.2227e-07
-2.4315e-06
-3.34334e-06
-3.3133e-06
-2.31032e-06
-3.06506e-07
2.72576e-06
6.80954e-06
1.19608e-05
1.81901e-05
2.5504e-05
3.39065e-05
4.34001e-05
5.39874e-05
6.56696e-05
7.84447e-05
9.23085e-05
0.000107256
0.000123285
0.000140391
0.000158571
0.00017782
0.000198131
0.000219496
0.000241913
0.000265375
0.000289876
0.00031541
0.000341969
0.000369544
0.00039813
0.00042772
0.000458305
0.000489876
0.000522425
0.000555942
0.000590419
0.000625845
0.000662212
0.000699506
0.000737718
0.000776836
0.000816846
0.000857738
0.000899498
0.000942111
0.000985565
0.00102984
0.00107493
0.00112081
0.00116747
0.00121489
0.00126305
0.00131193
0.00136153
0.0014118
0.00146274
0.00151433
0.00156654
0.00161935
0.00167274
0.00172669
0.00178116
0.00183615
0.00189162
0.00194755
0.00200391
0.00206067
0.00211782
0.00217532
0.00223314
0.00229126
0.00234965
0.00240827
0.00246711
0.00252612
0.00258528
0.00264456
0.00270393
0.00276335
0.00282279
0.00288222
0.0029416
0.00300091
0.0030601
0.00311915
0.00317802
0.00323666
0.00329506
0.00335316
0.00341093
0.00346835
0.00352536
0.00358193
0.00363803
0.00369362
0.00374866
0.0038031
0.00385693
0.00391008
0.00396254
0.00401426
0.00406521
0.00411534
0.00416463
0.00421304
0.00426052
0.00430705
0.00435259
0.00439711
0.00444057
0.00448294
0.00452419
0.00456428
0.00460319
0.00464087
0.00467731
0.00471247
0.00474633
0.00477884
0.00481
0.00483976
0.00486811
0.00489501
0.00492046
0.00494441
0.00496686
0.00498778
0.00500716
0.00502498
0.00504123
0.0050559
0.00506899
0.0050805
0.00509043
0.00509879
0.00510561
0.00511092
0.00511473
0.00511711
0.0051181
0.00511777
0.0051162
0.00511346
0.00510963
0.00510482
0.00509909
0.00509257
0.00508537
0.00507673
0.0050658
5.67873e-05
4.6038e-05
3.75685e-05
3.05057e-05
2.40703e-05
1.82985e-05
1.32586e-05
8.98894e-06
5.52464e-06
2.89522e-06
1.13369e-06
2.81503e-07
3.78903e-07
1.45601e-06
3.53456e-06
6.63374e-06
1.07717e-05
1.59639e-05
2.22223e-05
2.9555e-05
3.79661e-05
4.74575e-05
5.8031e-05
6.96883e-05
8.24299e-05
9.62536e-05
0.000111155
0.000127132
0.000144179
0.000162295
0.000181475
0.000201713
0.000223005
0.000245344
0.000268725
0.000293143
0.000318591
0.000345063
0.00037255
0.000401047
0.000430545
0.000461038
0.000492517
0.000524972
0.000558396
0.000592778
0.000628111
0.000664382
0.000701583
0.0007397
0.000778723
0.000818639
0.000859437
0.000901102
0.000943622
0.000986982
0.00103117
0.00107616
0.00112195
0.00116851
0.00121584
0.00126391
0.0013127
0.0013622
0.00141238
0.00146323
0.00151472
0.00156684
0.00161956
0.00167286
0.00172671
0.00178109
0.00183599
0.00189136
0.0019472
0.00200347
0.00206014
0.0021172
0.00217461
0.00223234
0.00229038
0.00234868
0.00240722
0.00246597
0.0025249
0.00258399
0.00264319
0.00270248
0.00276183
0.0028212
0.00288056
0.00293988
0.00299912
0.00305825
0.00311724
0.00317604
0.00323463
0.00329296
0.00335101
0.00340873
0.00346608
0.00352304
0.00357955
0.0036356
0.00369112
0.0037461
0.00380049
0.00385426
0.00390736
0.00395976
0.00401142
0.00406231
0.00411238
0.00416162
0.00420996
0.0042574
0.00430387
0.00434937
0.00439384
0.00443725
0.00447958
0.00452079
0.00456084
0.00459971
0.00463737
0.00467378
0.00470891
0.00474274
0.00477524
0.00480638
0.00483613
0.00486447
0.00489138
0.00491682
0.00494078
0.00496324
0.00498418
0.00500358
0.00502143
0.00503772
0.00505243
0.00506558
0.00507715
0.00508715
0.0050956
0.00510251
0.0051079
0.00511181
0.00511427
0.00511534
0.00511507
0.00511351
0.00511073
0.00510681
0.00510179
0.00509574
0.00508875
0.0050809
0.00507132
0.00505902
6.32218e-05
5.13277e-05
4.2038e-05
3.43755e-05
2.74773e-05
2.13742e-05
1.61052e-05
1.16787e-05
8.12e-06
5.45308e-06
3.69498e-06
2.86722e-06
2.99814e-06
4.11448e-06
6.23589e-06
9.37743e-06
1.35528e-05
1.87744e-05
2.50524e-05
3.23945e-05
4.08065e-05
5.02916e-05
6.08514e-05
7.24862e-05
8.51963e-05
9.8981e-05
0.000113839
0.000129767
0.000146762
0.00016482
0.000183937
0.000204109
0.000225332
0.000247601
0.000270911
0.000295254
0.000320625
0.000347018
0.000374427
0.000402844
0.000432262
0.000462674
0.000494071
0.000526445
0.000559787
0.000594089
0.00062934
0.000665531
0.000702651
0.000740689
0.000779632
0.00081947
0.00086019
0.000901778
0.000944222
0.000987506
0.00103161
0.00107653
0.00112225
0.00116874
0.00121599
0.00126399
0.00131271
0.00136214
0.00141225
0.00146303
0.00151445
0.0015665
0.00161914
0.00167237
0.00172616
0.00178047
0.0018353
0.00189061
0.00194638
0.00200258
0.00205919
0.00211618
0.00217353
0.00223121
0.00228918
0.00234743
0.00240592
0.00246462
0.0025235
0.00258254
0.0026417
0.00270095
0.00276026
0.00281959
0.00287892
0.0029382
0.00299742
0.00305652
0.00311548
0.00317426
0.00323282
0.00329113
0.00334915
0.00340685
0.00346418
0.00352111
0.0035776
0.00363362
0.00368913
0.00374408
0.00379845
0.00385219
0.00390526
0.00395764
0.00400928
0.00406014
0.0041102
0.00415941
0.00420773
0.00425514
0.0043016
0.00434708
0.00439153
0.00443494
0.00447725
0.00451845
0.0045585
0.00459737
0.00463502
0.00467143
0.00470657
0.0047404
0.00477291
0.00480406
0.00483382
0.00486217
0.00488909
0.00491455
0.00493853
0.00496102
0.00498198
0.00500141
0.0050193
0.00503562
0.00505039
0.00506358
0.00507521
0.00508527
0.00509378
0.00510075
0.00510621
0.00511017
0.00511269
0.00511379
0.00511352
0.00511192
0.00510906
0.00510498
0.00509973
0.00509332
0.00508586
0.0050774
0.00506698
0.00505348
6.84389e-05
5.55616e-05
4.55534e-05
3.73439e-05
2.99948e-05
2.35488e-05
1.80368e-05
1.34378e-05
9.75653e-06
7.01162e-06
5.21628e-06
4.38044e-06
4.51868e-06
5.64925e-06
7.78863e-06
1.095e-05
1.51449e-05
2.03828e-05
2.66713e-05
3.40163e-05
4.24236e-05
5.18976e-05
6.24408e-05
7.40531e-05
8.6734e-05
0.000100483
0.000115299
0.000131182
0.000148128
0.000166134
0.000185195
0.000205308
0.00022647
0.000248676
0.00027192
0.000296197
0.000321501
0.000347825
0.000375164
0.000403512
0.000432861
0.000463203
0.000494531
0.000526835
0.000560109
0.000594343
0.000629527
0.000665652
0.000702706
0.000740678
0.000779558
0.000819334
0.000859992
0.00090152
0.000943904
0.00098713
0.00103118
0.00107605
0.0011217
0.00116814
0.00121534
0.00126329
0.00131196
0.00136133
0.00141139
0.00146212
0.0015135
0.00156549
0.0016181
0.00167128
0.00172502
0.00177929
0.00183407
0.00188934
0.00194507
0.00200123
0.00205781
0.00211477
0.00217208
0.00222973
0.00228768
0.0023459
0.00240436
0.00246305
0.00252191
0.00258094
0.00264009
0.00269933
0.00275863
0.00281796
0.00287729
0.00293658
0.00299579
0.0030549
0.00311387
0.00317265
0.00323123
0.00328955
0.00334758
0.00340528
0.00346263
0.00351957
0.00357607
0.0036321
0.00368762
0.00374258
0.00379696
0.00385071
0.00390379
0.00395618
0.00400783
0.0040587
0.00410877
0.00415799
0.00420633
0.00425376
0.00430024
0.00434573
0.0043902
0.00443362
0.00447596
0.00451719
0.00455726
0.00459615
0.00463383
0.00467027
0.00470543
0.0047393
0.00477183
0.00480301
0.0048328
0.00486119
0.00488814
0.00491363
0.00493765
0.00496017
0.00498117
0.00500064
0.00501856
0.00503493
0.00504974
0.00506298
0.00507465
0.00508476
0.00509332
0.00510034
0.00510583
0.00510983
0.00511236
0.00511346
0.00511315
0.00511149
0.00510851
0.00510425
0.00509873
0.00509197
0.00508405
0.00507503
0.00506386
0.00504936
7.23341e-05
5.86125e-05
4.79776e-05
3.92866e-05
3.15238e-05
2.47378e-05
1.89708e-05
1.41883e-05
1.03722e-05
7.52801e-06
5.66625e-06
4.79308e-06
4.91404e-06
6.03835e-06
8.17739e-06
1.13418e-05
1.55404e-05
2.0781e-05
2.70697e-05
3.44113e-05
4.28102e-05
5.227e-05
6.27934e-05
7.43815e-05
8.70339e-05
0.00010075
0.000115529
0.00013137
0.000148271
0.000166229
0.00018524
0.000205302
0.000226409
0.000248559
0.000271746
0.000295965
0.00032121
0.000347476
0.000374757
0.000403046
0.000432336
0.00046262
0.00049389
0.000526138
0.000559356
0.000593535
0.000628666
0.000664739
0.000701741
0.000739664
0.000778496
0.000818225
0.000858839
0.000900323
0.000942665
0.00098585
0.00102986
0.00107469
0.00112031
0.00116672
0.00121388
0.00126179
0.00131043
0.00135978
0.00140981
0.00146051
0.00151186
0.00156383
0.00161641
0.00166957
0.00172328
0.00177754
0.0018323
0.00188755
0.00194327
0.00199942
0.00205599
0.00211294
0.00217026
0.0022279
0.00228585
0.00234408
0.00240255
0.00246125
0.00252013
0.00257918
0.00263835
0.00269761
0.00275694
0.00281631
0.00287567
0.00293499
0.00299424
0.00305339
0.0031124
0.00317123
0.00322984
0.0032882
0.00334628
0.00340403
0.00346142
0.00351841
0.00357495
0.00363103
0.00368659
0.0037416
0.00379602
0.00384981
0.00390294
0.00395537
0.00400707
0.00405799
0.0041081
0.00415737
0.00420576
0.00425324
0.00429976
0.00434531
0.00438984
0.00443331
0.00447571
0.00451698
0.00455711
0.00459606
0.00463379
0.00467029
0.00470551
0.00473942
0.00477201
0.00480324
0.00483308
0.00486152
0.00488851
0.00491405
0.00493812
0.00496068
0.00498172
0.00500124
0.00501921
0.00503562
0.00505047
0.00506375
0.00507547
0.00508562
0.00509421
0.00510126
0.00510678
0.00511079
0.00511331
0.00511438
0.00511402
0.00511226
0.00510913
0.00510467
0.00509888
0.00509178
0.00508344
0.00507392
0.00506211
0.00504676
7.48471e-05
6.04012e-05
4.92137e-05
4.00976e-05
3.19699e-05
2.48685e-05
1.88448e-05
1.38678e-05
9.90777e-06
6.95454e-06
5.0103e-06
4.07856e-06
4.16094e-06
5.26069e-06
7.3841e-06
1.05381e-05
1.47285e-05
1.99606e-05
2.62399e-05
3.3571e-05
4.1957e-05
5.14003e-05
6.19025e-05
7.34652e-05
8.60892e-05
9.97744e-05
0.00011452
0.000130323
0.000147184
0.000165099
0.000184066
0.000204081
0.000225143
0.000247244
0.000270382
0.000294551
0.000319747
0.000345964
0.000373197
0.000401437
0.00043068
0.000460917
0.000492142
0.000524347
0.000557523
0.000591661
0.000626753
0.000662787
0.000699753
0.000737642
0.000776442
0.00081614
0.000856725
0.000898183
0.0009405
0.000983662
0.00102765
0.00107246
0.00111807
0.00116445
0.00121161
0.0012595
0.00130813
0.00135746
0.00140749
0.00145818
0.00150953
0.0015615
0.00161407
0.00166723
0.00172095
0.00177521
0.00182998
0.00188524
0.00194097
0.00199714
0.00205373
0.00211071
0.00216804
0.00222572
0.0022837
0.00234197
0.00240048
0.00245922
0.00251815
0.00257725
0.00263647
0.0026958
0.00275519
0.00281462
0.00287404
0.00293344
0.00299276
0.00305198
0.00311106
0.00316996
0.00322866
0.0032871
0.00334525
0.00340308
0.00346054
0.00351761
0.00357423
0.00363038
0.00368602
0.00374111
0.00379561
0.00384948
0.00390269
0.0039552
0.00400698
0.00405798
0.00410818
0.00415753
0.00420601
0.00425357
0.00430019
0.00434582
0.00439043
0.004434
0.00447648
0.00451784
0.00455805
0.00459708
0.0046349
0.00467148
0.00470677
0.00474077
0.00477343
0.00480473
0.00483464
0.00486314
0.0048902
0.0049158
0.00493992
0.00496254
0.00498364
0.00500321
0.00502122
0.00503769
0.00505258
0.00506591
0.00507766
0.00508785
0.00509647
0.00510353
0.00510906
0.00511307
0.00511557
0.00511658
0.00511614
0.00511427
0.00511099
0.00510633
0.00510028
0.00509286
0.00508413
0.00507417
0.0050618
0.00504576
7.59293e-05
6.08764e-05
4.92051e-05
3.97044e-05
3.12517e-05
2.38695e-05
1.76035e-05
1.24286e-05
8.31616e-06
5.24652e-06
3.21094e-06
2.20778e-06
2.23656e-06
3.29723e-06
5.39171e-06
8.52329e-06
1.26952e-05
1.79107e-05
2.41736e-05
3.14877e-05
3.98558e-05
4.92795e-05
5.97596e-05
7.12972e-05
8.38937e-05
9.75493e-05
0.000112263
0.000128033
0.000144858
0.000162736
0.000181664
0.000201641
0.000222662
0.000244724
0.000267821
0.00029195
0.000317106
0.000343284
0.000370478
0.000398682
0.000427889
0.000458092
0.000489284
0.000521458
0.000554605
0.000588716
0.000623781
0.000659792
0.000696738
0.000734608
0.000773391
0.000813075
0.000853648
0.000895096
0.000937405
0.000980561
0.00102455
0.00106936
0.00111496
0.00116135
0.00120851
0.00125641
0.00130505
0.00135439
0.00140443
0.00145514
0.0015065
0.00155849
0.00161108
0.00166427
0.00171801
0.0017723
0.00182711
0.00188241
0.00193818
0.00199439
0.00205102
0.00210805
0.00216544
0.00222318
0.00228122
0.00233955
0.00239814
0.00245696
0.00251597
0.00257515
0.00263446
0.00269388
0.00275337
0.00281289
0.00287242
0.00293191
0.00299134
0.00305066
0.00310985
0.00316886
0.00322766
0.00328621
0.00334447
0.00340241
0.00345999
0.00351716
0.0035739
0.00363017
0.00368592
0.00374112
0.00379573
0.00384972
0.00390304
0.00395567
0.00400757
0.00405869
0.00410901
0.00415848
0.00420708
0.00425476
0.0043015
0.00434725
0.00439199
0.00443567
0.00447827
0.00451975
0.00456008
0.00459922
0.00463715
0.00467383
0.00470923
0.00474333
0.00477608
0.00480747
0.00483747
0.00486606
0.0048932
0.00491887
0.00494306
0.00496575
0.00498691
0.00500653
0.00502461
0.00504112
0.00505606
0.00506943
0.00508122
0.00509144
0.00510008
0.00510717
0.00511269
0.00511668
0.00511914
0.0051201
0.00511958
0.00511759
0.00511415
0.00510929
0.005103
0.00509528
0.0050862
0.00507584
0.00506301
0.00504639
7.55347e-05
5.99913e-05
4.79119e-05
3.80644e-05
2.93126e-05
2.16774e-05
1.51921e-05
9.82775e-06
5.55971e-06
2.36706e-06
2.33608e-07
-8.48623e-07
-8.82841e-07
1.28471e-07
2.18354e-06
5.28253e-06
9.42703e-06
1.4619e-05
2.08603e-05
2.81529e-05
3.64988e-05
4.58997e-05
5.63564e-05
6.78698e-05
8.04405e-05
9.40685e-05
0.000108753
0.000124493
0.000141287
0.000159134
0.00017803
0.000197974
0.000218963
0.000240992
0.000264057
0.000288155
0.000313281
0.000339431
0.000366597
0.000394775
0.000423957
0.000454138
0.00048531
0.000517466
0.000550597
0.000584695
0.000619749
0.000655752
0.000692691
0.000730558
0.000769341
0.000809027
0.000849604
0.000891058
0.000933377
0.000976545
0.00102055
0.00106537
0.001111
0.00115741
0.00120459
0.00125252
0.00130118
0.00135055
0.00140062
0.00145137
0.00150277
0.0015548
0.00160744
0.00166067
0.00171447
0.00176881
0.00182367
0.00187903
0.00193487
0.00199116
0.00204786
0.00210497
0.00216245
0.00222027
0.00227841
0.00233684
0.00239554
0.00245446
0.00251358
0.00257288
0.00263231
0.00269185
0.00275146
0.00281112
0.00287078
0.0029304
0.00298997
0.00304943
0.00310876
0.00316791
0.00322685
0.00328554
0.00334394
0.00340203
0.00345975
0.00351707
0.00357395
0.00363036
0.00368626
0.00374161
0.00379637
0.00385051
0.00390399
0.00395677
0.00400882
0.0040601
0.00411057
0.0041602
0.00420896
0.0042568
0.00430369
0.0043496
0.0043945
0.00443833
0.00448108
0.00452271
0.00456318
0.00460247
0.00464053
0.00467734
0.00471287
0.00474709
0.00477996
0.00481146
0.00484157
0.00487025
0.00489748
0.00492325
0.00494752
0.00497029
0.00499153
0.00501122
0.00502936
0.00504593
0.00506092
0.00507434
0.00508617
0.00509642
0.00510508
0.00511217
0.00511769
0.00512166
0.00512408
0.00512498
0.00512436
0.00512225
0.00511866
0.0051136
0.00510708
0.00509908
0.0050897
0.005079
0.00506577
0.00504867
7.36375e-05
5.77032e-05
4.52918e-05
3.51444e-05
2.61174e-05
1.82474e-05
1.15625e-05
6.02327e-06
1.60359e-06
-1.71503e-06
-3.95082e-06
-5.11688e-06
-5.22029e-06
-4.26589e-06
-2.25789e-06
8.01333e-07
4.91169e-06
1.0074e-05
1.62888e-05
2.35564e-05
3.18774e-05
4.12535e-05
5.16861e-05
6.31756e-05
7.57221e-05
8.9325e-05
0.000103984
0.000119698
0.000136466
0.000154286
0.000173157
0.000193076
0.000214039
0.000236043
0.000259085
0.000283162
0.000308268
0.000334399
0.000361548
0.000389711
0.000418881
0.000449052
0.000480217
0.000512368
0.000545497
0.000579595
0.000614653
0.000650661
0.00068761
0.000725489
0.000764287
0.000803991
0.000844589
0.000886066
0.000928411
0.000971608
0.00101564
0.0010605
0.00110616
0.00115261
0.00119983
0.00124781
0.00129652
0.00134594
0.00139607
0.00144687
0.00149833
0.00155042
0.00160313
0.00165643
0.0017103
0.00176473
0.00181967
0.00187513
0.00193106
0.00198744
0.00204425
0.00210147
0.00215906
0.002217
0.00227527
0.00233383
0.00239266
0.00245172
0.00251099
0.00257043
0.00263001
0.00268971
0.00274948
0.00280929
0.00286912
0.00292891
0.00298864
0.00304828
0.00310777
0.0031671
0.00322621
0.00328507
0.00334366
0.00340191
0.00345981
0.00351731
0.00357437
0.00363097
0.00368705
0.00374258
0.00379753
0.00385186
0.00390553
0.0039585
0.00401074
0.00406221
0.00411288
0.00416271
0.00421165
0.00425969
0.00430678
0.00435288
0.00439795
0.00444198
0.00448491
0.00452671
0.00456736
0.00460681
0.00464504
0.004682
0.00471768
0.00475204
0.00478505
0.00481668
0.00484691
0.00487571
0.00490306
0.00492893
0.0049533
0.00497616
0.00499748
0.00501726
0.00503547
0.00505211
0.00506716
0.00508063
0.0050925
0.00510278
0.00511147
0.00511857
0.00512408
0.00512802
0.0051304
0.00513123
0.00513052
0.00512829
0.00512455
0.00511931
0.00511257
0.00510433
0.00509468
0.00508368
0.00507011
0.00505262
7.0245e-05
5.39884e-05
4.13047e-05
3.0908e-05
2.16387e-05
1.35504e-05
6.67905e-06
9.7791e-07
-3.58512e-06
-7.02791e-06
-9.36763e-06
-1.06202e-05
-1.0797e-05
-9.90509e-06
-7.94975e-06
-4.935e-06
-8.63231e-07
4.26473e-06
1.04486e-05
1.76879e-05
2.59826e-05
3.53336e-05
4.57419e-05
5.7208e-05
6.97316e-05
8.33119e-05
9.79484e-05
0.000113641
0.000130388
0.000148188
0.000167039
0.000186939