/*--------------------------------*- C++ -*----------------------------------*\
  =========                 |
  \\      /  F ield         | OpenFOAM: The Open Source CFD Toolbox
   \\    /   O peration     | Website:  https://openfoam.org
    \\  /    A nd           | Version:  7
     \\/     M anipulation  |
\*---------------------------------------------------------------------------*/
FoamFile
{
    version     2.0;
    format      ascii;
    class       volVectorField;
    location    "0.0875";
    object      U;
}
// * * * * * * * * * * * * * * * * * * * * * * * * * * * * * * * * * * * * * //

dimensions      [0 1 -1 0 0 0 0];

internalField   nonuniform List<vector> 
25600
(
(1.36812e-06 -1.10948e-06 0)
(3.80487e-06 -1.41633e-06 0)
(5.48563e-06 -8.66881e-07 0)
(4.5864e-06 1.2668e-07 0)
(7.03223e-07 1.19545e-06 0)
(-6.21345e-06 2.19737e-06 0)
(-1.59018e-05 3.06909e-06 0)
(-2.80318e-05 3.79917e-06 0)
(-4.22589e-05 4.40028e-06 0)
(-5.82467e-05 4.88863e-06 0)
(-7.56813e-05 5.27957e-06 0)
(-9.42836e-05 5.5877e-06 0)
(-0.000113809 5.82458e-06 0)
(-0.000134046 5.99884e-06 0)
(-0.000154813 6.11942e-06 0)
(-0.00017596 6.19742e-06 0)
(-0.000197365 6.24428e-06 0)
(-0.00021893 6.26835e-06 0)
(-0.000240574 6.27363e-06 0)
(-0.000262233 6.26255e-06 0)
(-0.000283859 6.23863e-06 0)
(-0.000305414 6.20623e-06 0)
(-0.000326869 6.16883e-06 0)
(-0.000348201 6.12817e-06 0)
(-0.000369395 6.08427e-06 0)
(-0.000390436 6.03661e-06 0)
(-0.000411313 5.98568e-06 0)
(-0.000432017 5.93318e-06 0)
(-0.000452543 5.88052e-06 0)
(-0.000472883 5.82752e-06 0)
(-0.000493031 5.77291e-06 0)
(-0.00051298 5.71587e-06 0)
(-0.000532725 5.65666e-06 0)
(-0.000552259 5.59606e-06 0)
(-0.000571577 5.53451e-06 0)
(-0.000590672 5.47174e-06 0)
(-0.000609538 5.40706e-06 0)
(-0.000628168 5.34001e-06 0)
(-0.000646555 5.27073e-06 0)
(-0.000664693 5.19968e-06 0)
(-0.000682575 5.12709e-06 0)
(-0.000700194 5.05273e-06 0)
(-0.000717542 4.97617e-06 0)
(-0.000734614 4.89722e-06 0)
(-0.000751401 4.81608e-06 0)
(-0.000767897 4.73307e-06 0)
(-0.000784094 4.64834e-06 0)
(-0.000799986 4.56168e-06 0)
(-0.000815566 4.47283e-06 0)
(-0.000830826 4.38168e-06 0)
(-0.00084576 4.28841e-06 0)
(-0.00086036 4.19323e-06 0)
(-0.00087462 4.09618e-06 0)
(-0.000888532 3.99715e-06 0)
(-0.00090209 3.89602e-06 0)
(-0.000915288 3.79278e-06 0)
(-0.000928118 3.68753e-06 0)
(-0.000940573 3.58036e-06 0)
(-0.000952648 3.47127e-06 0)
(-0.000964335 3.36024e-06 0)
(-0.000975627 3.24724e-06 0)
(-0.00098652 3.13232e-06 0)
(-0.000997005 3.01555e-06 0)
(-0.00100708 2.89691e-06 0)
(-0.00101673 2.7764e-06 0)
(-0.00102596 2.65403e-06 0)
(-0.00103475 2.52984e-06 0)
(-0.00104311 2.4039e-06 0)
(-0.00105103 2.27621e-06 0)
(-0.0010585 2.14681e-06 0)
(-0.00106551 2.01569e-06 0)
(-0.00107206 1.8829e-06 0)
(-0.00107815 1.74848e-06 0)
(-0.00108376 1.61249e-06 0)
(-0.0010889 1.47494e-06 0)
(-0.00109356 1.33585e-06 0)
(-0.00109774 1.19525e-06 0)
(-0.00110142 1.05324e-06 0)
(-0.00110461 9.09872e-07 0)
(-0.0011073 7.65158e-07 0)
(-0.00110949 6.19099e-07 0)
(-0.00111117 4.71743e-07 0)
(-0.00111234 3.23203e-07 0)
(-0.001113 1.73595e-07 0)
(-0.00111313 2.29558e-08 0)
(-0.00111275 -1.28721e-07 0)
(-0.00111184 -2.81409e-07 0)
(-0.0011104 -4.35027e-07 0)
(-0.00110844 -5.89455e-07 0)
(-0.00110594 -7.44594e-07 0)
(-0.00110291 -9.00402e-07 0)
(-0.00109934 -1.05686e-06 0)
(-0.00109524 -1.2139e-06 0)
(-0.00109059 -1.3714e-06 0)
(-0.00108541 -1.52926e-06 0)
(-0.00107968 -1.68736e-06 0)
(-0.00107342 -1.84566e-06 0)
(-0.00106661 -2.00409e-06 0)
(-0.00105926 -2.16256e-06 0)
(-0.00105137 -2.32096e-06 0)
(-0.00104294 -2.47918e-06 0)
(-0.00103397 -2.63712e-06 0)
(-0.00102446 -2.79472e-06 0)
(-0.00101441 -2.9519e-06 0)
(-0.00100383 -3.10853e-06 0)
(-0.000992722 -3.26448e-06 0)
(-0.000981081 -3.41965e-06 0)
(-0.000968914 -3.57394e-06 0)
(-0.000956224 -3.72725e-06 0)
(-0.000943015 -3.87946e-06 0)
(-0.000929291 -4.03045e-06 0)
(-0.000915057 -4.18008e-06 0)
(-0.000900317 -4.32829e-06 0)
(-0.000885077 -4.47496e-06 0)
(-0.000869342 -4.62e-06 0)
(-0.000853119 -4.76327e-06 0)
(-0.000836413 -4.90465e-06 0)
(-0.000819232 -5.04407e-06 0)
(-0.000801582 -5.18142e-06 0)
(-0.000783471 -5.31659e-06 0)
(-0.000764907 -5.44947e-06 0)
(-0.000745897 -5.57995e-06 0)
(-0.000726451 -5.70795e-06 0)
(-0.000706576 -5.83342e-06 0)
(-0.000686282 -5.95628e-06 0)
(-0.000665578 -6.07648e-06 0)
(-0.000644473 -6.19392e-06 0)
(-0.000622977 -6.30854e-06 0)
(-0.000601101 -6.42028e-06 0)
(-0.000578854 -6.5291e-06 0)
(-0.000556248 -6.63489e-06 0)
(-0.000533295 -6.73751e-06 0)
(-0.000510005 -6.8367e-06 0)
(-0.000486393 -6.93218e-06 0)
(-0.000462475 -7.02351e-06 0)
(-0.000438265 -7.1101e-06 0)
(-0.000413786 -7.19109e-06 0)
(-0.000389059 -7.26529e-06 0)
(-0.000364115 -7.33113e-06 0)
(-0.000338988 -7.38661e-06 0)
(-0.00031372 -7.42912e-06 0)
(-0.000288365 -7.45529e-06 0)
(-0.000262989 -7.4609e-06 0)
(-0.000237674 -7.44079e-06 0)
(-0.000212517 -7.38878e-06 0)
(-0.00018764 -7.29751e-06 0)
(-0.000163188 -7.15833e-06 0)
(-0.000139334 -6.96134e-06 0)
(-0.000116282 -6.69529e-06 0)
(-9.42715e-05 -6.34746e-06 0)
(-7.35763e-05 -5.90362e-06 0)
(-5.45084e-05 -5.34843e-06 0)
(-3.74156e-05 -4.66594e-06 0)
(-2.26765e-05 -3.84088e-06 0)
(-1.06868e-05 -2.86197e-06 0)
(-1.82893e-06 -1.73193e-06 0)
(3.5697e-06 -4.90815e-07 0)
(5.38903e-06 7.46755e-07 0)
(4.1133e-06 1.64578e-06 0)
(1.40822e-06 1.40885e-06 0)
(1.76109e-06 -3.86493e-06 0)
(3.99976e-06 -3.62667e-06 0)
(2.56455e-06 8.24786e-08 0)
(-4.89629e-06 5.40314e-06 0)
(-1.94146e-05 1.11172e-05 0)
(-4.11204e-05 1.66291e-05 0)
(-6.96223e-05 2.16409e-05 0)
(-0.00010429 2.603e-05 0)
(-0.000144388 2.9777e-05 0)
(-0.000189145 3.29108e-05 0)
(-0.000237815 3.548e-05 0)
(-0.000289702 3.75432e-05 0)
(-0.00034418 3.9164e-05 0)
(-0.000400695 4.0404e-05 0)
(-0.000458769 4.13204e-05 0)
(-0.000517994 4.19664e-05 0)
(-0.000578032 4.23914e-05 0)
(-0.0006386 4.26398e-05 0)
(-0.00069947 4.27476e-05 0)
(-0.000760455 4.2743e-05 0)
(-0.000821409 4.26498e-05 0)
(-0.000882216 4.24882e-05 0)
(-0.000942784 4.22745e-05 0)
(-0.00100304 4.20211e-05 0)
(-0.00106293 4.17369e-05 0)
(-0.00112241 4.14279e-05 0)
(-0.00118144 4.10982e-05 0)
(-0.00123999 4.07512e-05 0)
(-0.00129804 4.03899e-05 0)
(-0.00135556 4.0016e-05 0)
(-0.00141254 3.963e-05 0)
(-0.00146894 3.92315e-05 0)
(-0.00152476 3.88203e-05 0)
(-0.00157998 3.83965e-05 0)
(-0.00163457 3.79603e-05 0)
(-0.00168852 3.75119e-05 0)
(-0.00174181 3.70508e-05 0)
(-0.00179442 3.65763e-05 0)
(-0.00184632 3.60881e-05 0)
(-0.00189751 3.55861e-05 0)
(-0.00194796 3.50706e-05 0)
(-0.00199765 3.45415e-05 0)
(-0.00204656 3.39986e-05 0)
(-0.00209467 3.34417e-05 0)
(-0.00214197 3.28705e-05 0)
(-0.00218842 3.22853e-05 0)
(-0.00223401 3.16864e-05 0)
(-0.00227873 3.10739e-05 0)
(-0.00232255 3.04474e-05 0)
(-0.00236545 2.9807e-05 0)
(-0.00240741 2.91526e-05 0)
(-0.00244842 2.84845e-05 0)
(-0.00248845 2.78028e-05 0)
(-0.00252748 2.71077e-05 0)
(-0.0025655 2.63992e-05 0)
(-0.00260248 2.56772e-05 0)
(-0.00263842 2.49419e-05 0)
(-0.00267328 2.41935e-05 0)
(-0.00270705 2.34322e-05 0)
(-0.00273972 2.26582e-05 0)
(-0.00277126 2.18714e-05 0)
(-0.00280166 2.1072e-05 0)
(-0.0028309 2.02602e-05 0)
(-0.00285896 1.94362e-05 0)
(-0.00288583 1.86002e-05 0)
(-0.00291149 1.77523e-05 0)
(-0.00293592 1.68926e-05 0)
(-0.00295911 1.60215e-05 0)
(-0.00298104 1.51391e-05 0)
(-0.00300169 1.42456e-05 0)
(-0.00302106 1.33414e-05 0)
(-0.00303912 1.24265e-05 0)
(-0.00305587 1.15012e-05 0)
(-0.00307128 1.05659e-05 0)
(-0.00308535 9.62076e-06 0)
(-0.00309806 8.66609e-06 0)
(-0.00310939 7.70213e-06 0)
(-0.00311935 6.72919e-06 0)
(-0.0031279 5.74761e-06 0)
(-0.00313505 4.75773e-06 0)
(-0.00314078 3.75987e-06 0)
(-0.00314508 2.75436e-06 0)
(-0.00314794 1.7416e-06 0)
(-0.00314936 7.22032e-07 0)
(-0.00314932 -3.03933e-07 0)
(-0.00314781 -1.33594e-06 0)
(-0.00314482 -2.37364e-06 0)
(-0.00314036 -3.41661e-06 0)
(-0.00313441 -4.46438e-06 0)
(-0.00312697 -5.51643e-06 0)
(-0.00311803 -6.57226e-06 0)
(-0.00310759 -7.63142e-06 0)
(-0.00309564 -8.69344e-06 0)
(-0.00308219 -9.75779e-06 0)
(-0.00306722 -1.08239e-05 0)
(-0.00305074 -1.18911e-05 0)
(-0.00303275 -1.29589e-05 0)
(-0.00301324 -1.40266e-05 0)
(-0.00299222 -1.50939e-05 0)
(-0.00296969 -1.616e-05 0)
(-0.00294565 -1.72243e-05 0)
(-0.00292011 -1.82861e-05 0)
(-0.00289307 -1.93449e-05 0)
(-0.00286453 -2.04e-05 0)
(-0.00283451 -2.14507e-05 0)
(-0.002803 -2.24964e-05 0)
(-0.00277002 -2.35362e-05 0)
(-0.00273558 -2.45695e-05 0)
(-0.00269968 -2.55956e-05 0)
(-0.00266234 -2.66137e-05 0)
(-0.00262357 -2.76233e-05 0)
(-0.00258338 -2.86234e-05 0)
(-0.00254179 -2.96135e-05 0)
(-0.00249881 -3.05928e-05 0)
(-0.00245445 -3.15606e-05 0)
(-0.00240874 -3.25162e-05 0)
(-0.0023617 -3.34589e-05 0)
(-0.00231333 -3.43881e-05 0)
(-0.00226367 -3.5303e-05 0)
(-0.00221272 -3.62029e-05 0)
(-0.00216053 -3.70872e-05 0)
(-0.0021071 -3.79553e-05 0)
(-0.00205245 -3.88066e-05 0)
(-0.00199663 -3.96404e-05 0)
(-0.00193964 -4.04564e-05 0)
(-0.00188152 -4.12539e-05 0)
(-0.00182229 -4.20324e-05 0)
(-0.00176198 -4.27913e-05 0)
(-0.00170063 -4.35298e-05 0)
(-0.00163825 -4.42471e-05 0)
(-0.00157488 -4.49421e-05 0)
(-0.00151056 -4.56134e-05 0)
(-0.00144533 -4.62589e-05 0)
(-0.00137921 -4.68759e-05 0)
(-0.00131227 -4.74606e-05 0)
(-0.00124454 -4.80081e-05 0)
(-0.0011761 -4.85118e-05 0)
(-0.00110701 -4.89629e-05 0)
(-0.00103737 -4.93502e-05 0)
(-0.000967264 -4.96592e-05 0)
(-0.000896835 -4.98718e-05 0)
(-0.000826237 -4.99656e-05 0)
(-0.00075566 -4.99134e-05 0)
(-0.000685336 -4.96823e-05 0)
(-0.000615546 -4.92339e-05 0)
(-0.000546624 -4.85234e-05 0)
(-0.000478971 -4.74998e-05 0)
(-0.000413053 -4.61063e-05 0)
(-0.000349417 -4.42809e-05 0)
(-0.000288683 -4.19572e-05 0)
(-0.000231556 -3.90673e-05 0)
(-0.000178811 -3.55454e-05 0)
(-0.000131287 -3.13345e-05 0)
(-8.98533e-05 -2.63989e-05 0)
(-5.53649e-05 -2.07464e-05 0)
(-2.8575e-05 -1.4474e-05 0)
(-9.9988e-06 -7.85649e-06 0)
(3.35556e-07 -1.48534e-06 0)
(3.3822e-06 3.38471e-06 0)
(1.64291e-06 4.10955e-06 0)
(9.50793e-07 -5.5737e-06 0)
(6.53947e-09 -2.36944e-06 0)
(-7.83115e-06 7.91996e-06 0)
(-2.47566e-05 2.14386e-05 0)
(-5.17607e-05 3.59317e-05 0)
(-8.89988e-05 5.0092e-05 0)
(-0.000136019 6.31904e-05 0)
(-0.000192026 7.48689e-05 0)
(-0.000256047 8.5002e-05 0)
(-0.000327037 9.35971e-05 0)
(-0.000403953 0.000100736 0)
(-0.000485804 0.000106543 0)
(-0.000571678 0.000111163 0)
(-0.00066076 0.00011475 0)
(-0.000752331 0.00011745 0)
(-0.000845771 0.0001194 0)
(-0.000940557 0.000120728 0)
(-0.00103625 0.000121545 0)
(-0.00113249 0.000121951 0)
(-0.00122898 0.000122027 0)
(-0.00132548 0.00012184 0)
(-0.0014218 0.000121447 0)
(-0.00151778 0.000120891 0)
(-0.00161331 0.000120209 0)
(-0.00170828 0.000119426 0)
(-0.00180262 0.000118564 0)
(-0.00189627 0.000117636 0)
(-0.00198916 0.000116652 0)
(-0.00208126 0.000115621 0)
(-0.00217252 0.000114547 0)
(-0.00226291 0.000113433 0)
(-0.00235239 0.000112281 0)
(-0.00244094 0.000111091 0)
(-0.00252851 0.000109863 0)
(-0.00261508 0.000108598 0)
(-0.00270062 0.000107295 0)
(-0.0027851 0.000105955 0)
(-0.00286848 0.000104576 0)
(-0.00295073 0.000103158 0)
(-0.00303182 0.0001017 0)
(-0.00311172 0.000100203 0)
(-0.0031904 9.86657e-05 0)
(-0.00326783 9.70892e-05 0)
(-0.00334397 9.54729e-05 0)
(-0.0034188 9.38164e-05 0)
(-0.00349228 9.212e-05 0)
(-0.00356438 9.03839e-05 0)
(-0.00363506 8.86083e-05 0)
(-0.00370431 8.67934e-05 0)
(-0.00377208 8.49392e-05 0)
(-0.00383834 8.30458e-05 0)
(-0.00390308 8.11133e-05 0)
(-0.00396624 7.91423e-05 0)
(-0.00402781 7.71331e-05 0)
(-0.00408776 7.50861e-05 0)
(-0.00414605 7.30014e-05 0)
(-0.00420266 7.08795e-05 0)
(-0.00425756 6.87207e-05 0)
(-0.00431072 6.65254e-05 0)
(-0.00436211 6.42943e-05 0)
(-0.0044117 6.20276e-05 0)
(-0.00445946 5.97258e-05 0)
(-0.00450538 5.73892e-05 0)
(-0.00454942 5.50185e-05 0)
(-0.00459156 5.26142e-05 0)
(-0.00463176 5.01769e-05 0)
(-0.00467002 4.77072e-05 0)
(-0.00470629 4.52055e-05 0)
(-0.00474056 4.26726e-05 0)
(-0.0047728 4.0109e-05 0)
(-0.004803 3.75155e-05 0)
(-0.00483112 3.48928e-05 0)
(-0.00485715 3.22416e-05 0)
(-0.00488106 2.95627e-05 0)
(-0.00490284 2.68568e-05 0)
(-0.00492246 2.41247e-05 0)
(-0.00493991 2.13673e-05 0)
(-0.00495516 1.85854e-05 0)
(-0.0049682 1.57801e-05 0)
(-0.00497901 1.29521e-05 0)
(-0.00498757 1.01026e-05 0)
(-0.00499387 7.23262e-06 0)
(-0.0049979 4.34311e-06 0)
(-0.00499964 1.4352e-06 0)
(-0.00499907 -1.48994e-06 0)
(-0.00499619 -4.43114e-06 0)
(-0.00499098 -7.38723e-06 0)
(-0.00498344 -1.0357e-05 0)
(-0.00497355 -1.33393e-05 0)
(-0.0049613 -1.63328e-05 0)
(-0.0049467 -1.93359e-05 0)
(-0.00492972 -2.23474e-05 0)
(-0.00491038 -2.53656e-05 0)
(-0.00488866 -2.83893e-05 0)
(-0.00486455 -3.14168e-05 0)
(-0.00483807 -3.44466e-05 0)
(-0.00480921 -3.7477e-05 0)
(-0.00477797 -4.05065e-05 0)
(-0.00474435 -4.35333e-05 0)
(-0.00470835 -4.65558e-05 0)
(-0.00466999 -4.95724e-05 0)
(-0.00462926 -5.25812e-05 0)
(-0.00458618 -5.55804e-05 0)
(-0.00454075 -5.85682e-05 0)
(-0.00449299 -6.15426e-05 0)
(-0.0044429 -6.45017e-05 0)
(-0.00439051 -6.74437e-05 0)
(-0.00433581 -7.03665e-05 0)
(-0.00427884 -7.32682e-05 0)
(-0.00421961 -7.61468e-05 0)
(-0.00415814 -7.90003e-05 0)
(-0.00409444 -8.18267e-05 0)
(-0.00402855 -8.46241e-05 0)
(-0.00396048 -8.73905e-05 0)
(-0.00389027 -9.01239e-05 0)
(-0.00381793 -9.28222e-05 0)
(-0.0037435 -9.54836e-05 0)
(-0.00366701 -9.81061e-05 0)
(-0.00358849 -0.000100688 0)
(-0.00350797 -0.000103227 0)
(-0.00342548 -0.000105721 0)
(-0.00334107 -0.000108169 0)
(-0.00325477 -0.000110569 0)
(-0.00316661 -0.00011292 0)
(-0.00307665 -0.000115219 0)
(-0.00298491 -0.000117465 0)
(-0.00289145 -0.000119656 0)
(-0.00279631 -0.00012179 0)
(-0.00269953 -0.000123865 0)
(-0.00260116 -0.000125878 0)
(-0.00250126 -0.000127825 0)
(-0.00239988 -0.000129701 0)
(-0.00229708 -0.0001315 0)
(-0.00219294 -0.000133213 0)
(-0.00208751 -0.000134829 0)
(-0.0019809 -0.000136333 0)
(-0.0018732 -0.000137704 0)
(-0.00176453 -0.000138918 0)
(-0.00165503 -0.000139941 0)
(-0.00154488 -0.000140731 0)
(-0.00143428 -0.000141238 0)
(-0.00132349 -0.000141399 0)
(-0.00121281 -0.000141137 0)
(-0.0011026 -0.000140364 0)
(-0.000993304 -0.000138975 0)
(-0.000885441 -0.000136851 0)
(-0.000779621 -0.000133859 0)
(-0.000676554 -0.000129851 0)
(-0.000577053 -0.000124671 0)
(-0.00048204 -0.000118158 0)
(-0.000392536 -0.000110156 0)
(-0.000309651 -0.000100525 0)
(-0.000234554 -8.9162e-05 0)
(-0.00016843 -7.60396e-05 0)
(-0.000112405 -6.12583e-05 0)
(-6.74282e-05 -4.51467e-05 0)
(-3.41013e-05 -2.84255e-05 0)
(-1.24122e-05 -1.24524e-05 0)
(-1.46649e-06 3.44241e-07 0)
(7.47778e-07 5.38455e-06 0)
(-1.03553e-07 -4.81131e-06 0)
(-5.39783e-06 4.9962e-06 0)
(-2.14468e-05 2.48221e-05 0)
(-4.94378e-05 4.93817e-05 0)
(-8.99769e-05 7.54332e-05 0)
(-0.000143115 0.000100952 0)
(-0.000208308 0.00012473 0)
(-0.000284629 0.000146122 0)
(-0.000370945 0.000164852 0)
(-0.000466028 0.00018088 0)
(-0.000568633 0.000194308 0)
(-0.000677558 0.000205327 0)
(-0.000791686 0.000214172 0)
(-0.000910003 0.000221102 0)
(-0.00103161 0.000226376 0)
(-0.00115572 0.00023024 0)
(-0.00128165 0.000232919 0)
(-0.00140885 0.000234619 0)
(-0.00153682 0.000235519 0)
(-0.00166519 0.000235772 0)
(-0.00179363 0.000235508 0)
(-0.00192187 0.00023483 0)
(-0.00204972 0.000233826 0)
(-0.00217699 0.000232561 0)
(-0.00230355 0.000231089 0)
(-0.00242929 0.00022945 0)
(-0.00255412 0.000227674 0)
(-0.00267796 0.000225783 0)
(-0.00280074 0.00022379 0)
(-0.00292241 0.000221707 0)
(-0.00304291 0.000219541 0)
(-0.0031622 0.000217296 0)
(-0.00328022 0.000214975 0)
(-0.00339693 0.000212579 0)
(-0.0035123 0.000210107 0)
(-0.00362627 0.00020756 0)
(-0.00373881 0.000204938 0)
(-0.00384986 0.00020224 0)
(-0.0039594 0.000199466 0)
(-0.00406737 0.000196615 0)
(-0.00417373 0.000193687 0)
(-0.00427845 0.000190682 0)
(-0.00438147 0.0001876 0)
(-0.00448276 0.00018444 0)
(-0.00458227 0.000181204 0)
(-0.00467997 0.00017789 0)
(-0.00477581 0.000174499 0)
(-0.00486974 0.000171032 0)
(-0.00496173 0.00016749 0)
(-0.00505174 0.000163871 0)
(-0.00513972 0.000160177 0)
(-0.00522564 0.000156409 0)
(-0.00530945 0.000152567 0)
(-0.00539112 0.000148651 0)
(-0.0054706 0.000144662 0)
(-0.00554786 0.000140602 0)
(-0.00562286 0.000136471 0)
(-0.00569557 0.000132269 0)
(-0.00576593 0.000127997 0)
(-0.00583392 0.000123657 0)
(-0.00589951 0.00011925 0)
(-0.00596265 0.000114775 0)
(-0.00602331 0.000110234 0)
(-0.00608145 0.000105629 0)
(-0.00613705 0.00010096 0)
(-0.00619006 9.62279e-05 0)
(-0.00624047 9.14345e-05 0)
(-0.00628822 8.65809e-05 0)
(-0.0063333 8.16683e-05 0)
(-0.00637567 7.66979e-05 0)
(-0.0064153 7.1671e-05 0)
(-0.00645216 6.6589e-05 0)
(-0.00648623 6.14535e-05 0)
(-0.00651748 5.62659e-05 0)
(-0.00654588 5.10278e-05 0)
(-0.0065714 4.57406e-05 0)
(-0.00659403 4.04062e-05 0)
(-0.00661373 3.50262e-05 0)
(-0.00663049 2.96024e-05 0)
(-0.00664428 2.41366e-05 0)
(-0.00665508 1.86308e-05 0)
(-0.00666287 1.30871e-05 0)
(-0.00666764 7.50743e-06 0)
(-0.00666936 1.89389e-06 0)
(-0.00666803 -3.75136e-06 0)
(-0.00666362 -9.42603e-06 0)
(-0.00665611 -1.51278e-05 0)
(-0.00664551 -2.08543e-05 0)
(-0.0066318 -2.66031e-05 0)
(-0.00661496 -3.23717e-05 0)
(-0.00659499 -3.81575e-05 0)
(-0.00657189 -4.39577e-05 0)
(-0.00654564 -4.97695e-05 0)
(-0.00651624 -5.55901e-05 0)
(-0.0064837 -6.14166e-05 0)
(-0.006448 -6.7246e-05 0)
(-0.00640915 -7.30754e-05 0)
(-0.00636715 -7.89014e-05 0)
(-0.00632201 -8.47211e-05 0)
(-0.00627373 -9.05311e-05 0)
(-0.00622232 -9.63282e-05 0)
(-0.00616778 -0.000102109 0)
(-0.00611014 -0.00010787 0)
(-0.00604939 -0.000113608 0)
(-0.00598557 -0.000119319 0)
(-0.00591867 -0.000124999 0)
(-0.00584873 -0.000130646 0)
(-0.00577576 -0.000136254 0)
(-0.00569978 -0.000141821 0)
(-0.00562082 -0.000147343 0)
(-0.00553891 -0.000152816 0)
(-0.00545406 -0.000158235 0)
(-0.00536633 -0.000163599 0)
(-0.00527572 -0.000168902 0)
(-0.00518229 -0.00017414 0)
(-0.00508606 -0.000179311 0)
(-0.00498708 -0.00018441 0)
(-0.00488538 -0.000189434 0)
(-0.00478101 -0.000194379 0)
(-0.004674 -0.000199242 0)
(-0.00456442 -0.000204018 0)
(-0.0044523 -0.000208705 0)
(-0.00433769 -0.000213299 0)
(-0.00422065 -0.000217796 0)
(-0.00410123 -0.000222195 0)
(-0.00397948 -0.00022649 0)
(-0.00385546 -0.000230678 0)
(-0.00372924 -0.000234755 0)
(-0.00360087 -0.000238717 0)
(-0.00347043 -0.000242555 0)
(-0.00333798 -0.000246264 0)
(-0.0032036 -0.000249832 0)
(-0.00306737 -0.000253247 0)
(-0.00292938 -0.000256491 0)
(-0.00278975 -0.00025954 0)
(-0.00264858 -0.000262365 0)
(-0.00250602 -0.000264925 0)
(-0.00236223 -0.000267171 0)
(-0.0022174 -0.000269039 0)
(-0.00207177 -0.00027045 0)
(-0.00192562 -0.000271305 0)
(-0.00177928 -0.000271486 0)
(-0.00163315 -0.00027085 0)
(-0.00148772 -0.000269232 0)
(-0.00134356 -0.000266439 0)
(-0.00120133 -0.000262254 0)
(-0.00106182 -0.000256436 0)
(-0.000925928 -0.000248725 0)
(-0.000794673 -0.000238848 0)
(-0.000669198 -0.000226531 0)
(-0.000550756 -0.000211518 0)
(-0.00044069 -0.000193593 0)
(-0.000340396 -0.000172623 0)
(-0.000251263 -0.000148619 0)
(-0.000174597 -0.00012182 0)
(-0.000111498 -9.28445e-05 0)
(-6.26836e-05 -6.29062e-05 0)
(-2.82565e-05 -3.41146e-05 0)
(-7.78238e-06 -9.94251e-06 0)
(-4.7884e-07 3.58261e-06 0)
(-1.19536e-06 -8.74573e-07 0)
(-1.11724e-05 1.9546e-05 0)
(-3.60803e-05 5.18834e-05 0)
(-7.57253e-05 8.99463e-05 0)
(-0.000130115 0.000129738 0)
(-0.000199062 0.00016862 0)
(-0.000281856 0.000204951 0)
(-0.000377427 0.0002378 0)
(-0.000484509 0.000266732 0)
(-0.000601735 0.000291644 0)
(-0.000727721 0.000312651 0)
(-0.000861118 0.000330004 0)
(-0.00100066 0.000344032 0)
(-0.00114518 0.000355104 0)
(-0.00129365 0.000363599 0)
(-0.00144516 0.000369885 0)
(-0.0015989 0.000374303 0)
(-0.0017542 0.000377164 0)
(-0.00191051 0.000378742 0)
(-0.00206733 0.000379276 0)
(-0.00222429 0.000378964 0)
(-0.00238106 0.000377976 0)
(-0.00253737 0.000376445 0)
(-0.00269303 0.000374479 0)
(-0.00284784 0.000372164 0)
(-0.00300167 0.000369564 0)
(-0.0031544 0.00036673 0)
(-0.00330592 0.000363697 0)
(-0.00345616 0.000360491 0)
(-0.00360504 0.000357132 0)
(-0.00375248 0.00035363 0)
(-0.00389842 0.000349995 0)
(-0.00404281 0.000346231 0)
(-0.00418559 0.000342342 0)
(-0.0043267 0.000338329 0)
(-0.00446608 0.000334191 0)
(-0.00460369 0.000329931 0)
(-0.00473947 0.000325546 0)
(-0.00487337 0.000321037 0)
(-0.00500533 0.000316404 0)
(-0.0051353 0.000311646 0)
(-0.00526324 0.000306763 0)
(-0.00538908 0.000301755 0)
(-0.00551278 0.000296623 0)
(-0.00563428 0.000291366 0)
(-0.00575353 0.000285986 0)
(-0.00587049 0.000280482 0)
(-0.00598509 0.000274856 0)
(-0.0060973 0.000269108 0)
(-0.00620706 0.000263238 0)
(-0.00631432 0.000257248 0)
(-0.00641903 0.000251138 0)
(-0.00652114 0.000244911 0)
(-0.00662062 0.000238566 0)
(-0.00671739 0.000232105 0)
(-0.00681143 0.00022553 0)
(-0.00690269 0.000218841 0)
(-0.00699112 0.00021204 0)
(-0.00707667 0.000205128 0)
(-0.0071593 0.000198107 0)
(-0.00723897 0.000190978 0)
(-0.00731563 0.000183743 0)
(-0.00738924 0.000176404 0)
(-0.00745977 0.000168962 0)
(-0.00752716 0.000161419 0)
(-0.00759139 0.000153777 0)
(-0.0076524 0.000146038 0)
(-0.00771017 0.000138204 0)
(-0.00776466 0.000130276 0)
(-0.00781582 0.000122258 0)
(-0.00786363 0.000114151 0)
(-0.00790805 0.000105957 0)
(-0.00794905 9.76788e-05 0)
(-0.00798659 8.93191e-05 0)
(-0.00802065 8.08803e-05 0)
(-0.00805118 7.23648e-05 0)
(-0.00807817 6.37755e-05 0)
(-0.00810159 5.51152e-05 0)
(-0.00812141 4.63867e-05 0)
(-0.0081376 3.7593e-05 0)
(-0.00815014 2.87372e-05 0)
(-0.00815901 1.98226e-05 0)
(-0.00816418 1.08526e-05 0)
(-0.00816564 1.8304e-06 0)
(-0.00816337 -7.24043e-06 0)
(-0.00815735 -1.63563e-05 0)
(-0.00814756 -2.55135e-05 0)
(-0.00813399 -3.47082e-05 0)
(-0.00811663 -4.39364e-05 0)
(-0.00809547 -5.3194e-05 0)
(-0.00807049 -6.24769e-05 0)
(-0.0080417 -7.17809e-05 0)
(-0.00800907 -8.11014e-05 0)
(-0.00797262 -9.04339e-05 0)
(-0.00793234 -9.97737e-05 0)
(-0.00788823 -0.000109116 0)
(-0.00784029 -0.000118457 0)
(-0.00778852 -0.00012779 0)
(-0.00773293 -0.000137111 0)
(-0.00767353 -0.000146415 0)
(-0.00761033 -0.000155696 0)
(-0.00754334 -0.000164949 0)
(-0.00747257 -0.000174169 0)
(-0.00739804 -0.00018335 0)
(-0.00731977 -0.000192486 0)
(-0.00723779 -0.000201572 0)
(-0.0071521 -0.000210602 0)
(-0.00706275 -0.00021957 0)
(-0.00696975 -0.00022847 0)
(-0.00687314 -0.000237296 0)
(-0.00677294 -0.000246042 0)
(-0.00666921 -0.000254703 0)
(-0.00656196 -0.000263272 0)
(-0.00645124 -0.000271744 0)
(-0.0063371 -0.000280112 0)
(-0.00621958 -0.00028837 0)
(-0.00609872 -0.000296513 0)
(-0.00597458 -0.000304534 0)
(-0.0058472 -0.000312428 0)
(-0.00571664 -0.00032019 0)
(-0.00558296 -0.000327813 0)
(-0.00544621 -0.000335291 0)
(-0.00530646 -0.000342621 0)
(-0.00516377 -0.000349795 0)
(-0.0050182 -0.000356809 0)
(-0.00486982 -0.000363656 0)
(-0.0047187 -0.00037033 0)
(-0.00456493 -0.000376824 0)
(-0.00440857 -0.000383128 0)
(-0.00424971 -0.000389233 0)
(-0.00408843 -0.000395125 0)
(-0.00392484 -0.000400786 0)
(-0.00375903 -0.000406194 0)
(-0.00359113 -0.00041132 0)
(-0.00342126 -0.000416124 0)
(-0.00324957 -0.000420559 0)
(-0.00307623 -0.000424558 0)
(-0.00290146 -0.000428042 0)
(-0.00272548 -0.000430908 0)
(-0.00254859 -0.000433029 0)
(-0.00237113 -0.00043425 0)
(-0.0021935 -0.000434386 0)
(-0.00201619 -0.000433215 0)
(-0.00183977 -0.00043048 0)
(-0.00166493 -0.000425886 0)
(-0.00149245 -0.000419103 0)
(-0.00132325 -0.000409767 0)
(-0.00115838 -0.000397492 0)
(-0.000999002 -0.000381877 0)
(-0.000846428 -0.00036253 0)
(-0.000702074 -0.000339092 0)
(-0.000567446 -0.00031128 0)
(-0.000444098 -0.00027894 0)
(-0.00033357 -0.000242137 0)
(-0.000237312 -0.000201264 0)
(-0.000156584 -0.000157222 0)
(-9.22843e-05 -0.000111665 0)
(-4.47727e-05 -6.73117e-05 0)
(-1.43115e-05 -2.83894e-05 0)
(-1.70187e-06 -1.75924e-06 0)
(-2.21033e-06 6.10806e-06 0)
(-1.67623e-05 4.1366e-05 0)
(-5.04582e-05 8.93066e-05 0)
(-0.000101641 0.000143267 0)
(-0.000169607 0.000198762 0)
(-0.000253841 0.000252706 0)
(-0.000353401 0.000303107 0)
(-0.000467047 0.000348791 0)
(-0.000593376 0.000389179 0)
(-0.000730906 0.000424107 0)
(-0.000878138 0.000453701 0)
(-0.00103362 0.000478273 0)
(-0.00119597 0.000498247 0)
(-0.00136394 0.000514106 0)
(-0.00153636 0.000526354 0)
(-0.00171225 0.000535486 0)
(-0.0018907 0.000541969 0)
(-0.00207098 0.00054623 0)
(-0.00225243 0.000548649 0)
(-0.00243452 0.000549555 0)
(-0.0026168 0.000549231 0)
(-0.00279889 0.000547912 0)
(-0.00298048 0.000545791 0)
(-0.00316134 0.000543022 0)
(-0.00334124 0.00053973 0)
(-0.00352002 0.000536007 0)
(-0.00369754 0.000531928 0)
(-0.00387366 0.000527546 0)
(-0.0040483 0.000522901 0)
(-0.00422134 0.000518021 0)
(-0.00439272 0.000512926 0)
(-0.00456235 0.000507629 0)
(-0.00473015 0.000502139 0)
(-0.00489607 0.000496461 0)
(-0.00506003 0.000490598 0)
(-0.00522198 0.000484552 0)
(-0.00538183 0.000478324 0)
(-0.00553954 0.000471914 0)
(-0.00569504 0.000465322 0)
(-0.00584827 0.000458548 0)
(-0.00599917 0.000451593 0)
(-0.00614767 0.000444456 0)
(-0.00629371 0.000437137 0)
(-0.00643724 0.000429638 0)
(-0.00657819 0.000421958 0)
(-0.00671651 0.000414098 0)
(-0.00685213 0.00040606 0)
(-0.006985 0.000397845 0)
(-0.00711505 0.000389453 0)
(-0.00724224 0.000380886 0)
(-0.0073665 0.000372146 0)
(-0.00748777 0.000363233 0)
(-0.00760601 0.000354151 0)
(-0.00772115 0.000344899 0)
(-0.00783314 0.000335481 0)
(-0.00794193 0.000325898 0)
(-0.00804747 0.000316151 0)
(-0.00814969 0.000306244 0)
(-0.00824856 0.000296178 0)
(-0.00834401 0.000285956 0)
(-0.00843601 0.000275579 0)
(-0.00852449 0.00026505 0)
(-0.00860942 0.000254372 0)
(-0.00869075 0.000243548 0)
(-0.00876842 0.000232579 0)
(-0.0088424 0.000221468 0)
(-0.00891264 0.00021022 0)
(-0.0089791 0.000198835 0)
(-0.00904173 0.000187319 0)
(-0.00910049 0.000175672 0)
(-0.00915535 0.0001639 0)
(-0.00920626 0.000152005 0)
(-0.00925319 0.000139991 0)
(-0.00929611 0.000127861 0)
(-0.00933496 0.000115619 0)
(-0.00936973 0.000103269 0)
(-0.00940038 9.08146e-05 0)
(-0.00942688 7.82604e-05 0)
(-0.0094492 6.56104e-05 0)
(-0.00946731 5.2869e-05 0)
(-0.00948118 4.00406e-05 0)
(-0.0094908 2.713e-05 0)
(-0.00949612 1.41419e-05 0)
(-0.00949714 1.08122e-06 0)
(-0.00949384 -1.20468e-05 0)
(-0.00948619 -2.52372e-05 0)
(-0.00947417 -3.84844e-05 0)
(-0.00945778 -5.17829e-05 0)
(-0.009437 -6.5127e-05 0)
(-0.00941181 -7.85108e-05 0)
(-0.00938221 -9.19283e-05 0)
(-0.0093482 -0.000105373 0)
(-0.00930976 -0.00011884 0)
(-0.00926689 -0.000132321 0)
(-0.00921959 -0.00014581 0)
(-0.00916787 -0.0001593 0)
(-0.00911172 -0.000172784 0)
(-0.00905115 -0.000186256 0)
(-0.00898617 -0.000199708 0)
(-0.00891679 -0.000213132 0)
(-0.00884302 -0.000226521 0)
(-0.00876487 -0.000239868 0)
(-0.00868237 -0.000253164 0)
(-0.00859553 -0.000266402 0)
(-0.00850437 -0.000279573 0)
(-0.00840893 -0.00029267 0)
(-0.00830923 -0.000305684 0)
(-0.00820529 -0.000318607 0)
(-0.00809715 -0.00033143 0)
(-0.00798486 -0.000344146 0)
(-0.00786843 -0.000356744 0)
(-0.00774793 -0.000369218 0)
(-0.00762338 -0.000381558 0)
(-0.00749484 -0.000393755 0)
(-0.00736235 -0.000405802 0)
(-0.00722597 -0.00041769 0)
(-0.00708576 -0.00042941 0)
(-0.00694176 -0.000440954 0)
(-0.00679404 -0.000452313 0)
(-0.00664266 -0.00046348 0)
(-0.00648769 -0.000474446 0)
(-0.0063292 -0.000485203 0)
(-0.00616725 -0.000495743 0)
(-0.00600192 -0.000506059 0)
(-0.00583329 -0.00051614 0)
(-0.00566143 -0.00052598 0)
(-0.00548643 -0.000535567 0)
(-0.00530838 -0.00054489 0)
(-0.00512736 -0.000553936 0)
(-0.00494348 -0.00056269 0)
(-0.00475684 -0.000571129 0)
(-0.00456755 -0.000579229 0)
(-0.00437574 -0.000586955 0)
(-0.00418154 -0.000594264 0)
(-0.0039851 -0.000601099 0)
(-0.00378661 -0.000607386 0)
(-0.00358626 -0.000613033 0)
(-0.0033843 -0.000617922 0)
(-0.00318101 -0.000621907 0)
(-0.00297671 -0.000624806 0)
(-0.0027718 -0.0006264 0)
(-0.00256676 -0.000626427 0)
(-0.00236213 -0.000624577 0)
(-0.00215856 -0.000620491 0)
(-0.00195682 -0.000613762 0)
(-0.00175778 -0.000603936 0)
(-0.00156248 -0.000590519 0)
(-0.00137205 -0.000572988 0)
(-0.00118779 -0.000550811 0)
(-0.00101112 -0.000523474 0)
(-0.000843571 -0.000490516 0)
(-0.000686772 -0.000451586 0)
(-0.000542396 -0.000406516 0)
(-0.000412109 -0.000355418 0)
(-0.000297506 -0.000298825 0)
(-0.000200031 -0.000237872 0)
(-0.000120832 -0.000174553 0)
(-6.06222e-05 -0.000112013 0)
(-2.04689e-05 -5.49341e-05 0)
(-2.80752e-06 -1.05035e-05 0)
(-3.09643e-06 1.58945e-05 0)
(-2.18816e-05 7.01108e-05 0)
(-6.38683e-05 0.00013671 0)
(-0.000126005 0.000208893 0)
(-0.00020685 0.000281914 0)
(-0.000305511 0.00035241 0)
(-0.000420773 0.000418143 0)
(-0.000551196 0.000477763 0)
(-0.000695231 0.000530582 0)
(-0.000851281 0.000576397 0)
(-0.00101775 0.000615351 0)
(-0.0011931 0.00064782 0)
(-0.00137587 0.000674326 0)
(-0.00156473 0.000695471 0)
(-0.00175845 0.000711887 0)
(-0.00195594 0.000724202 0)
(-0.00215628 0.000733011 0)
(-0.00235863 0.000738865 0)
(-0.00256229 0.000742254 0)
(-0.00276668 0.000743609 0)
(-0.0029713 0.000743299 0)
(-0.00317573 0.000741632 0)
(-0.00337963 0.000738866 0)
(-0.00358272 0.000735206 0)
(-0.00378476 0.000730818 0)
(-0.00398556 0.00072583 0)
(-0.00418495 0.000720342 0)
(-0.00438278 0.000714427 0)
(-0.00457894 0.00070814 0)
(-0.00477331 0.000701523 0)
(-0.0049658 0.000694604 0)
(-0.00515632 0.000687401 0)
(-0.00534478 0.000679928 0)
(-0.00553111 0.000672194 0)
(-0.00571522 0.000664205 0)
(-0.00589704 0.000655963 0)
(-0.00607651 0.00064747 0)
(-0.00625354 0.000638729 0)
(-0.00642807 0.000629739 0)
(-0.00660002 0.000620501 0)
(-0.00676933 0.000611015 0)
(-0.00693592 0.000601282 0)
(-0.00709974 0.000591304 0)
(-0.0072607 0.00058108 0)
(-0.00741875 0.000570612 0)
(-0.00757381 0.000559901 0)
(-0.00772582 0.000548948 0)
(-0.00787471 0.000537756 0)
(-0.00802042 0.000526326 0)
(-0.00816288 0.00051466 0)
(-0.00830204 0.00050276 0)
(-0.00843782 0.000490628 0)
(-0.00857016 0.000478267 0)
(-0.00869901 0.000465679 0)
(-0.0088243 0.000452867 0)
(-0.00894597 0.000439834 0)
(-0.00906397 0.000426581 0)
(-0.00917823 0.000413113 0)
(-0.0092887 0.000399432 0)
(-0.00939533 0.000385541 0)
(-0.00949805 0.000371444 0)
(-0.00959681 0.000357143 0)
(-0.00969156 0.000342643 0)
(-0.00978226 0.000327947 0)
(-0.00986884 0.000313059 0)
(-0.00995125 0.000297982 0)
(-0.0100295 0.000282721 0)
(-0.0101034 0.000267279 0)
(-0.0101731 0.00025166 0)
(-0.0102383 0.00023587 0)