/*--------------------------------*- C++ -*----------------------------------*\
  =========                 |
  \\      /  F ield         | OpenFOAM: The Open Source CFD Toolbox
   \\    /   O peration     | Website:  https://openfoam.org
    \\  /    A nd           | Version:  7
     \\/     M anipulation  |
\*---------------------------------------------------------------------------*/
FoamFile
{
    version     2.0;
    format      ascii;
    class       volScalarField;
    location    "0.4625";
    object      p;
}
// * * * * * * * * * * * * * * * * * * * * * * * * * * * * * * * * * * * * * //

dimensions      [0 2 -2 0 0 0 0];

internalField   nonuniform List<scalar> 
25600
(
-3.20676e-09
-6.44207e-07
-4.84894e-06
-1.21721e-05
-2.17067e-05
-3.27148e-05
-4.45621e-05
-5.67027e-05
-6.87044e-05
-8.02233e-05
-9.09815e-05
-0.000100757
-0.000109379
-0.000116719
-0.000122688
-0.00012722
-0.000130263
-0.00013178
-0.000131746
-0.000130159
-0.000127027
-0.00012236
-0.000116166
-0.000108457
-9.92508e-05
-8.85707e-05
-7.64405e-05
-6.28822e-05
-4.79154e-05
-3.15593e-05
-1.38326e-05
5.24514e-06
2.56546e-05
4.73789e-05
7.04036e-05
9.47156e-05
0.000120302
0.000147151
0.000175253
0.0002046
0.000235183
0.000266994
0.000300024
0.000334268
0.000369722
0.000406384
0.000444246
0.000483299
0.000523535
0.00056495
0.000607539
0.000651295
0.000696208
0.000742266
0.000789455
0.000837764
0.000887179
0.000937686
0.000989265
0.0010419
0.00109555
0.00115021
0.00120585
0.00126243
0.00131992
0.0013783
0.0014375
0.00149751
0.00155826
0.00161971
0.00168181
0.00174451
0.00180774
0.00187144
0.00193556
0.00200001
0.00206474
0.00212965
0.00219469
0.00225975
0.00232477
0.00238964
0.00245429
0.00251862
0.00258254
0.00264595
0.00270876
0.00277086
0.00283215
0.00289255
0.00295194
0.00301022
0.0030673
0.00312308
0.00317746
0.00323034
0.00328164
0.00333126
0.00337912
0.00342514
0.00346923
0.00351132
0.00355134
0.00358923
0.00362493
0.00365839
0.00368956
0.00371841
0.00374489
0.003769
0.0037907
0.00381
0.00382687
0.00384134
0.00385342
0.00386312
0.00387047
0.00387551
0.00387828
0.00387882
0.00387721
0.0038735
0.00386776
0.00386006
0.00385051
0.00383917
0.00382616
0.00381156
0.00379549
0.00377805
0.00375936
0.00373954
0.00371871
0.003697
0.00367454
0.00365146
0.00362788
0.00360396
0.00357982
0.00355561
0.00353148
0.00350756
0.00348401
0.00346097
0.00343859
0.00341703
0.00339645
0.00337702
0.00335888
0.00334223
0.00332721
0.00331402
0.00330281
0.00329376
0.00328699
0.0032826
0.00328057
0.0032807
0.00328249
0.003285
2.34324e-07
-3.83744e-07
-4.00191e-06
-1.01146e-05
-1.80123e-05
-2.7159e-05
-3.70668e-05
-4.7289e-05
-5.74465e-05
-6.72288e-05
-7.63822e-05
-8.46971e-05
-9.20016e-05
-9.81607e-05
-0.000103074
-0.000106668
-0.000108889
-0.000109693
-0.000109048
-0.000106938
-0.000103359
-9.83112e-05
-9.18027e-05
-8.3841e-05
-7.44374e-05
-6.36063e-05
-5.13635e-05
-3.77261e-05
-2.27134e-05
-6.34391e-06
1.13674e-05
3.04067e-05
5.07585e-05
7.24068e-05
9.5337e-05
0.000119536
0.000144994
0.000171698
0.000199641
0.000228816
0.000259213
0.000290824
0.000323639
0.000357652
0.000392861
0.000429261
0.000466845
0.000505605
0.000545531
0.000586615
0.000628853
0.000672237
0.000716758
0.000762404
0.000809158
0.000857008
0.000905938
0.000955934
0.00100698
0.00105904
0.00111211
0.00116615
0.00122114
0.00127704
0.00133383
0.00139146
0.00144991
0.00150911
0.00156903
0.00162963
0.00169084
0.00175261
0.0018149
0.00187763
0.00194074
0.00200417
0.00206783
0.00213167
0.0021956
0.00225954
0.00232341
0.00238712
0.00245059
0.00251373
0.00257645
0.00263865
0.00270024
0.00276112
0.0028212
0.00288038
0.00293856
0.00299564
0.00305154
0.00310614
0.00315937
0.00321113
0.00326133
0.00330988
0.0033567
0.00340172
0.00344485
0.00348602
0.00352518
0.00356225
0.00359719
0.00362994
0.00366046
0.00368872
0.00371468
0.00373832
0.00375963
0.0037786
0.00379523
0.00380951
0.00382148
0.00383114
0.00383852
0.00384367
0.00384662
0.00384742
0.00384613
0.00384282
0.00383755
0.0038304
0.00382145
0.00381079
0.00379851
0.00378471
0.0037695
0.00375299
0.00373528
0.00371649
0.00369675
0.00367617
0.00365489
0.00363302
0.00361071
0.00358808
0.00356527
0.00354241
0.00351965
0.00349712
0.00347497
0.00345333
0.00343235
0.00341218
0.00339296
0.00337485
0.00335798
0.00334252
0.0033286
0.00331637
0.00330596
0.0032975
0.00329106
0.0032867
0.00328434
0.00328383
0.003285
0.0032875
3.87875e-06
2.79278e-06
-7.629e-07
-6.33962e-06
-1.33737e-05
-2.1438e-05
-3.01355e-05
-3.9098e-05
-4.79968e-05
-5.65534e-05
-6.45388e-05
-7.17611e-05
-7.80598e-05
-8.33026e-05
-8.7385e-05
-9.02288e-05
-9.17767e-05
-9.19855e-05
-9.08227e-05
-8.8265e-05
-8.42973e-05
-7.89145e-05
-7.21205e-05
-6.39231e-05
-5.433e-05
-4.33493e-05
-3.09904e-05
-1.72668e-05
-2.19624e-06
1.42039e-05
3.19207e-05
5.09435e-05
7.12596e-05
9.28547e-05
0.000115715
0.000139829
0.000165185
0.000191774
0.000219588
0.00024862
0.000278862
0.000310305
0.00034294
0.00037676
0.000411762
0.00044794
0.000485288
0.000523798
0.000563461
0.000604267
0.000646209
0.00068928
0.000733471
0.000778768
0.000825157
0.000872623
0.00092115
0.00097072
0.00102132
0.00107292
0.00112549
0.00117903
0.00123348
0.00128883
0.00134504
0.00140207
0.00145989
0.00151845
0.0015777
0.0016376
0.00169809
0.00175913
0.00182065
0.0018826
0.0019449
0.00200751
0.00207033
0.0021333
0.00219635
0.0022594
0.00232236
0.00238515
0.00244769
0.00250989
0.00257166
0.0026329
0.00269353
0.00275345
0.00281257
0.00287079
0.00292802
0.00298416
0.00303912
0.00309281
0.00314513
0.003196
0.00324533
0.00329304
0.00333904
0.00338327
0.00342564
0.00346609
0.00350456
0.00354098
0.0035753
0.00360748
0.00363748
0.00366526
0.00369078
0.00371404
0.00373502
0.00375371
0.00377011
0.00378422
0.00379606
0.00380566
0.00381304
0.00381823
0.00382128
0.00382225
0.00382117
0.00381813
0.00381318
0.00380641
0.0037979
0.00378772
0.00377598
0.00376277
0.0037482
0.00373237
0.00371539
0.00369738
0.00367845
0.00365872
0.00363833
0.00361739
0.00359603
0.00357439
0.00355259
0.00353077
0.00350906
0.00348759
0.0034665
0.00344593
0.00342602
0.0034069
0.00338871
0.00337158
0.00335566
0.00334107
0.00332795
0.00331642
0.00330659
0.00329856
0.00329238
0.0032881
0.00328567
0.00328499
0.00328616
0.00328929
1.07225e-05
8.50248e-06
4.47421e-06
-1.08455e-06
-7.80498e-06
-1.53254e-05
-2.33139e-05
-3.14675e-05
-3.95085e-05
-4.71927e-05
-5.43121e-05
-6.0694e-05
-6.61944e-05
-7.06935e-05
-7.40917e-05
-7.63075e-05
-7.72801e-05
-7.69686e-05
-7.53424e-05
-7.23763e-05
-6.80514e-05
-6.23578e-05
-5.5295e-05
-4.68677e-05
-3.70822e-05
-2.59448e-05
-1.34625e-05
3.55024e-07
1.54937e-05
3.19382e-05
4.96771e-05
6.87012e-05
8.89986e-05
0.000110556
0.000133361
0.000157405
0.000182678
0.000209171
0.000236875
0.000265782
0.000295886
0.000327178
0.00035965
0.000393297
0.000428114
0.000464093
0.000501229
0.000539512
0.000578935
0.00061949
0.000661167
0.000703958
0.000747852
0.000792837
0.0008389
0.000886024
0.000934192
0.000983387
0.00103359
0.00108478
0.00113693
0.00119001
0.00124401
0.00129887
0.00135458
0.00141109
0.00146837
0.00152637
0.00158504
0.00164435
0.00170423
0.00176464
0.00182551
0.00188679
0.00194842
0.00201033
0.00207244
0.00213469
0.002197
0.0022593
0.0023215
0.00238353
0.00244529
0.0025067
0.00256768
0.00262813
0.00268796
0.00274709
0.00280541
0.00286284
0.00291928
0.00297464
0.00302882
0.00308175
0.00313332
0.00318345
0.00323207
0.00327907
0.0033244
0.00336796
0.0034097
0.00344954
0.00348743
0.0035233
0.0035571
0.00358879
0.00361834
0.0036457
0.00367085
0.00369377
0.00371444
0.00373287
0.00374905
0.00376298
0.00377469
0.0037842
0.00379153
0.00379672
0.00379981
0.00380086
0.00379992
0.00379705
0.00379233
0.00378582
0.00377761
0.00376779
0.00375645
0.00374368
0.00372958
0.00371427
0.00369785
0.00368043
0.00366213
0.00364308
0.00362338
0.00360317
0.00358257
0.00356171
0.00354071
0.00351971
0.00349884
0.00347821
0.00345798
0.00343826
0.00341918
0.00340089
0.0033835
0.00336715
0.00335196
0.00333805
0.00332554
0.00331454
0.00330514
0.00329743
0.00329148
0.00328732
0.00328493
0.00328427
0.00328566
0.00328944
1.99496e-05
1.60835e-05
1.11948e-05
5.31738e-06
-1.41301e-06
-8.70123e-06
-1.6268e-05
-2.38669e-05
-3.12723e-05
-3.82778e-05
-4.47002e-05
-5.0384e-05
-5.5201e-05
-5.90458e-05
-6.18285e-05
-6.34727e-05
-6.39188e-05
-6.31236e-05
-6.10561e-05
-5.76932e-05
-5.30165e-05
-4.70149e-05
-3.96848e-05
-3.1026e-05
-2.10413e-05
-9.73655e-06
2.88096e-06
1.68029e-05
3.20188e-05
4.85173e-05
6.62894e-05
8.5326e-05
0.000105615
0.000127144
0.000149904
0.000173886
0.000199083
0.000225485
0.000253085
0.000281875
0.000311847
0.000342994
0.000375309
0.000408786
0.000443421
0.000479208
0.000516137
0.000554201
0.00059339
0.000633698
0.000675117
0.000717636
0.000761245
0.00080593
0.000851676
0.000898469
0.000946293
0.000995128
0.00104496
0.00109575
0.0011475
0.00120016
0.00125371
0.00130812
0.00136336
0.00141938
0.00147615
0.00153363
0.00159177
0.00165052
0.00170984
0.00176966
0.00182994
0.00189061
0.00195161
0.00201288
0.00207434
0.00213593
0.00219757
0.00225919
0.0023207
0.00238203
0.00244308
0.00250379
0.00256405
0.00262378
0.0026829
0.0027413
0.00279891
0.00285562
0.00291135
0.002966
0.00301949
0.00307173
0.00312262
0.00317209
0.00322005
0.00326642
0.00331113
0.0033541
0.00339526
0.00343454
0.0034719
0.00350726
0.00354058
0.00357182
0.00360094
0.00362791
0.0036527
0.00367529
0.00369567
0.00371383
0.00372978
0.00374352
0.00375508
0.00376447
0.00377172
0.00377686
0.00377995
0.00378104
0.00378017
0.00377742
0.00377285
0.00376653
0.00375856
0.00374901
0.00373797
0.00372555
0.00371185
0.00369696
0.003681
0.00366408
0.00364631
0.00362782
0.00360872
0.00358913
0.00356918
0.00354899
0.00352869
0.00350839
0.00348824
0.00346835
0.00344885
0.00342986
0.00341152
0.00339394
0.00337725
0.00336156
0.00334699
0.00333365
0.00332165
0.00331109
0.00330205
0.00329461
0.00328885
0.00328479
0.00328246
0.00328184
0.00328337
0.0032875
3.07877e-05
2.49989e-05
1.89815e-05
1.25264e-05
5.52728e-06
-1.78334e-06
-9.1725e-06
-1.64425e-05
-2.34113e-05
-2.99114e-05
-3.57901e-05
-4.09122e-05
-4.51634e-05
-4.84493e-05
-5.06906e-05
-5.18219e-05
-5.17901e-05
-5.05525e-05
-4.80762e-05
-4.43379e-05
-3.9322e-05
-3.30195e-05
-2.54258e-05
-1.65371e-05
-6.35267e-06
5.12276e-06
1.78819e-05
3.19168e-05
4.72188e-05
6.378e-05
8.1593e-05
0.00010065
0.000120939
0.000142449
0.000165172
0.000189101
0.000214229
0.000240548
0.00026805
0.000296728
0.000326575
0.000357585
0.000389749
0.000423063
0.000457523
0.000493122
0.000529853
0.000567706
0.00060667
0.00064674
0.000687908
0.000730166
0.000773501
0.0008179
0.000863346
0.000909824
0.000957319
0.00100581
0.00105529
0.00110571
0.00115708
0.00120934
0.00126248
0.00131647
0.00137127
0.00142684
0.00148314
0.00154014
0.00159779
0.00165603
0.00171483
0.00177412
0.00183386
0.00189397
0.00195441
0.0020151
0.00207598
0.00213698
0.00219801
0.00225902
0.00231991
0.00238061
0.00244104
0.00250111
0.00256074
0.00261984
0.00267831
0.00273608
0.00279305
0.00284913
0.00290423
0.00295826
0.00301113
0.00306276
0.00311305
0.00316193
0.00320931
0.00325512
0.00329927
0.0033417
0.00338234
0.00342113
0.003458
0.0034929
0.00352578
0.00355661
0.00358533
0.00361193
0.00363637
0.00365865
0.00367874
0.00369664
0.00371235
0.00372589
0.00373727
0.00374652
0.00375366
0.00375872
0.00376177
0.00376284
0.00376199
0.00375929
0.0037548
0.00374861
0.00374079
0.00373143
0.00372062
0.00370846
0.00369505
0.0036805
0.0036649
0.00364838
0.00363104
0.00361301
0.00359439
0.00357532
0.00355591
0.00353628
0.00351655
0.00349686
0.00347731
0.00345804
0.00343916
0.0034208
0.00340307
0.00338609
0.00336997
0.00335484
0.00334079
0.00332792
0.00331634
0.00330614
0.00329739
0.00329016
0.00328453
0.00328055
0.00327823
0.0032776
0.00327913
0.0032833
4.25908e-05
3.47466e-05
2.74352e-05
2.02101e-05
1.27378e-05
5.20014e-06
-2.21442e-06
-9.35119e-06
-1.60647e-05
-2.22197e-05
-2.76944e-05
-3.23794e-05
-3.61757e-05
-3.89984e-05
-4.07787e-05
-4.14621e-05
-4.10034e-05
-3.93643e-05
-3.65133e-05
-3.24282e-05
-2.70948e-05
-2.05052e-05
-1.26547e-05
-3.53924e-06
6.8427e-06
1.84876e-05
3.13894e-05
4.55414e-05
6.09366e-05
7.75679e-05
9.54288e-05
0.000114512
0.000134808
0.000156307
0.000179001
0.000202885
0.000227952
0.000254195
0.000281606
0.000310178
0.000339908
0.000370787
0.000402809
0.000435969
0.000470261
0.000505681
0.00054222
0.00057987
0.000618621
0.000658466
0.000699396
0.000741404
0.000784479
0.000828605
0.000873768
0.00091995
0.000967137
0.00101531
0.00106445
0.00111454
0.00116555
0.00121745
0.00127021
0.0013238
0.0013782
0.00143336
0.00148924
0.0015458
0.001603
0.00166079
0.00171912
0.00177794
0.00183719
0.00189681
0.00195674
0.00201693
0.00207729
0.00213776
0.00219826
0.00225873
0.00231908
0.00237924
0.00243912
0.00249864
0.00255771
0.00261626
0.00267418
0.0027314
0.00278781
0.00284334
0.0028979
0.00295139
0.00300372
0.00305482
0.00310459
0.00315296
0.00319984
0.00324515
0.00328882
0.00333078
0.00337096
0.00340931
0.00344575
0.00348023
0.00351272
0.00354317
0.00357153
0.00359779
0.00362191
0.00364387
0.00366368
0.00368132
0.0036968
0.00371012
0.00372131
0.00373039
0.00373738
0.00374233
0.00374528
0.00374629
0.0037454
0.00374269
0.00373823
0.00373209
0.00372435
0.0037151
0.00370444
0.00369245
0.00367924
0.00366492
0.00364959
0.00363336
0.00361635
0.00359867
0.00358044
0.00356177
0.00354278
0.0035236
0.00350435
0.00348513
0.00346608
0.00344731
0.00342894
0.00341109
0.00339386
0.00337737
0.00336173
0.00334704
0.00333341
0.00332092
0.00330967
0.00329974
0.0032912
0.00328413
0.00327858
0.00327462
0.00327226
0.00327155
0.00327293
0.00327689
5.47957e-05
4.48682e-05
3.61751e-05
2.8051e-05
1.99557e-05
1.20347e-05
4.439e-06
-2.71897e-06
-9.3267e-06
-1.52765e-05
-2.04724e-05
-2.48281e-05
-2.82638e-05
-3.07086e-05
-3.21044e-05
-3.24045e-05
-3.15702e-05
-2.95696e-05
-2.63767e-05
-2.19729e-05
-1.63456e-05
-9.48636e-06
-1.39033e-06
7.94552e-06
1.85215e-05
3.03335e-05
4.33769e-05
5.76473e-05
7.31388e-05
8.98449e-05
0.000107759
0.000126875
0.000147184
0.000168676
0.000191347
0.000215193
0.000240207
0.00026638
0.000293707
0.000322182
0.0003518
0.000382555
0.000414442
0.000447455
0.000481589
0.000516838
0.000553195
0.000590651
0.000629198
0.000668828
0.000709533
0.000751306
0.000794134
0.000838003
0.000882898
0.000928804
0.000975703
0.00102358
0.00107241
0.00112218
0.00117286
0.00122443
0.00127684
0.00133008
0.00138411
0.00143889
0.00149439
0.00155056
0.00160736
0.00166475
0.00172266
0.00178106
0.00183988
0.00189907
0.00195856
0.00201829
0.0020782
0.00213822
0.00219826
0.00225827
0.00231815
0.00237784
0.00243725
0.0024963
0.0025549
0.00261297
0.00267043
0.00272717
0.00278312
0.00283818
0.00289227
0.0029453
0.00299718
0.00304783
0.00309715
0.00314508
0.00319152
0.00323641
0.00327967
0.00332122
0.003361
0.00339895
0.00343502
0.00346914
0.00350127
0.00353137
0.0035594
0.00358534
0.00360915
0.00363083
0.00365036
0.00366774
0.00368298
0.00369608
0.00370705
0.00371594
0.00372276
0.00372756
0.00373038
0.00373127
0.0037303
0.00372752
0.00372302
0.00371686
0.00370913
0.00369992
0.00368931
0.00367742
0.00366433
0.00365015
0.003635
0.00361897
0.00360218
0.00358475
0.0035668
0.00354843
0.00352977
0.00351093
0.00349203
0.00347319
0.00345453
0.00343616
0.00341819
0.00340073
0.0033839
0.0033678
0.00335253
0.0033382
0.00332488
0.00331268
0.00330168
0.00329195
0.00328356
0.00327657
0.00327105
0.00326705
0.00326459
0.00326372
0.00326484
0.00326838
6.6948e-05
5.49595e-05
4.4851e-05
3.57521e-05
2.69296e-05
1.85077e-05
1.06113e-05
3.31323e-06
-3.30692e-06
-9.16755e-06
-1.41931e-05
-1.83156e-05
-2.14745e-05
-2.36163e-05
-2.46949e-05
-2.46708e-05
-2.35114e-05
-2.11907e-05
-1.76897e-05
-1.29949e-05
-7.09612e-06
1.4647e-08
8.34205e-06
1.78881e-05
2.86513e-05
4.06266e-05
5.38098e-05
6.81983e-05
8.37872e-05
0.00010057
0.000118541
0.000137693
0.000158019
0.000179511
0.000202165
0.000225978
0.000250943
0.000277054
0.000304303
0.000332686
0.0003622
0.000392838
0.000424597
0.00045747
0.000491454
0.000526541
0.000562725
0.000599996
0.000638349
0.000677776
0.00071827
0.000759821
0.000802417
0.000846045
0.00089069
0.000936336
0.000982968
0.00103057
0.00107912
0.0011286
0.00117898
0.00123023
0.00128234
0.00133525
0.00138895
0.0014434
0.00149855
0.00155438
0.00161082
0.00166785
0.0017254
0.00178343
0.00184188
0.00190069
0.0019598
0.00201915
0.00207867
0.0021383
0.00219796
0.00225757
0.00231706
0.00237635
0.00243537
0.00249402
0.00255223
0.00260991
0.00266696
0.00272332
0.00277887
0.00283355
0.00288725
0.0029399
0.0029914
0.00304167
0.00309062
0.00313818
0.00318426
0.00322879
0.00327169
0.0033129
0.00335234
0.00338995
0.00342568
0.00345948
0.0034913
0.00352109
0.00354882
0.00357446
0.00359799
0.00361939
0.00363865
0.00365577
0.00367076
0.00368362
0.00369437
0.00370304
0.00370966
0.00371427
0.00371692
0.00371766
0.00371655
0.00371365
0.00370905
0.00370281
0.00369502
0.00368577
0.00367516
0.00366327
0.00365022
0.0036361
0.00362103
0.00360511
0.00358846
0.00357119
0.00355341
0.00353524
0.0035168
0.00349821
0.00347957
0.00346101
0.00344263
0.00342455
0.00340688
0.00338973
0.0033732
0.00335739
0.0033424
0.00332833
0.00331525
0.00330326
0.00329243
0.00328283
0.00327452
0.00326756
0.00326201
0.00325791
0.0032553
0.00325419
0.00325496
0.00325794
7.86699e-05
6.46728e-05
5.31473e-05
4.30356e-05
3.34225e-05
2.4416e-05
1.61256e-05
8.59345e-06
1.8672e-06
-3.99623e-06
-8.94002e-06
-1.29133e-05
-1.58725e-05
-1.77793e-05
-1.85997e-05
-1.83036e-05
-1.68654e-05
-1.42659e-05
-1.04921e-05
-5.53483e-06
6.13299e-07
7.95793e-06
1.65019e-05
2.62455e-05
3.71859e-05
4.93179e-05
6.2638e-05
7.71434e-05
9.28294e-05
0.000109689
0.000127718
0.000146909
0.000167255
0.00018875
0.000211392
0.000235178
0.0002601
0.000286152
0.000313329
0.000341627
0.000371043
0.000401573
0.00043321
0.000465951
0.000499791
0.000534725
0.000570745
0.000607844
0.000646013
0.000685249
0.000725542
0.000766886
0.000809266
0.000852669
0.000897081
0.000942487
0.000988872
0.00103622
0.00108451
0.00113372
0.00118383
0.00123481
0.00128663
0.00133926
0.00139267
0.00144682
0.00150167
0.00155719
0.00161333
0.00167004
0.00172728
0.001785
0.00184313
0.00190162
0.00196041
0.00201944
0.00207864
0.00213794
0.00219727
0.00225656
0.00231573
0.0023747
0.0024334
0.00249173
0.00254962
0.00260698
0.00266372
0.00271976
0.002775
0.00282937
0.00288276
0.0029351
0.0029863
0.00303626
0.00308492
0.00313217
0.00317796
0.00322219
0.0032648
0.00330571
0.00334487
0.00338219
0.00341764
0.00345116
0.00348269
0.0035122
0.00353966
0.00356503
0.00358829
0.00360942
0.00362842
0.00364529
0.00366002
0.00367263
0.00368314
0.00369157
0.00369797
0.00370236
0.0037048
0.00370534
0.00370404
0.00370098
0.00369621
0.00368984
0.00368192
0.00367257
0.00366187
0.00364992
0.00363683
0.00362269
0.00360761
0.00359172
0.00357511
0.00355791
0.00354022
0.00352216
0.00350385
0.0034854
0.00346692
0.00344854
0.00343035
0.00341247
0.00339501
0.00337807
0.00336175
0.00334615
0.00333136
0.00331746
0.00330455
0.00329269
0.00328196
0.00327242
0.00326414
0.00325715
0.00325152
0.00324728
0.00324445
0.00324307
0.00324341
0.00324576
8.96446e-05
7.37089e-05
6.07842e-05
4.96455e-05
3.92085e-05
2.95651e-05
2.08128e-05
1.29709e-05
6.06355e-06
1.25047e-07
-4.80824e-06
-8.70296e-06
-1.15298e-05
-1.32628e-05
-1.38786e-05
-1.33572e-05
-1.16824e-05
-8.84265e-06
-4.83009e-06
3.61173e-07
6.73567e-06
1.42958e-05
2.30408e-05
3.29683e-05
4.40749e-05
5.63558e-05
6.98074e-05
8.44268e-05
0.000100208
0.000117144
0.00013523
0.00015446
0.000174829
0.000196332
0.000218966
0.000242728
0.000267611
0.00029361
0.00032072
0.000348938
0.000378263
0.00040869
0.000440215
0.000472831
0.000506536
0.000541324
0.00057719
0.000614126
0.000652125
0.000691181
0.000731288
0.000772437
0.000814616
0.000857811
0.000902009
0.000947195
0.000993355
0.00104047
0.00108853
0.0011375
0.00118737
0.0012381
0.00128967
0.00134205
0.0013952
0.00144909
0.00150368
0.00155894
0.00161482
0.00167127
0.00172825
0.00178569
0.00184356
0.00190179
0.00196032
0.00201909
0.00207803
0.00213707
0.00219615
0.00225519
0.0023141
0.00237283
0.00243127
0.00248936
0.002547
0.00260412
0.00266062
0.00271642
0.00277142
0.00282555
0.00287871
0.00293082
0.00298178
0.00303151
0.00307993
0.00312696
0.00317251
0.00321651
0.00325889
0.00329957
0.00333848
0.00337557
0.00341078
0.00344405
0.00347534
0.00350461
0.00353182
0.00355693
0.00357994
0.00360082
0.00361956
0.00363617
0.00365064
0.00366299
0.00367325
0.00368142
0.00368756
0.00369171
0.0036939
0.00369421
0.00369268
0.00368939
0.00368442
0.00367785
0.00366975
0.00366023
0.00364938
0.00363729
0.00362408
0.00360984
0.00359469
0.00357873
0.00356208
0.00354486
0.00352717
0.00350913
0.00349086
0.00347246
0.00345406
0.00343576
0.00341767
0.00339991
0.00338257
0.00336575
0.00334956
0.00333408
0.0033194
0.00330561
0.00329279
0.003281
0.00327031
0.00326078
0.00325247
0.00324541
0.00323964
0.00323522
0.00323214
0.00323043
0.00323031
0.00323198
9.95982e-05
8.18074e-05
6.75179e-05
5.53525e-05
4.40757e-05
3.37655e-05
2.45065e-05
1.63004e-05
9.15334e-06
3.0806e-06
-1.90129e-06
-5.77544e-06
-8.52567e-06
-1.0137e-05
-1.05962e-05
-9.89319e-06
-8.0216e-06
-4.97693e-06
-7.56345e-07
4.64223e-06
1.122e-05
1.89756e-05
2.79046e-05
3.80022e-05
4.92641e-05
6.16855e-05
7.52622e-05
8.99905e-05
0.000105864
0.000122874
0.000141016
0.000160286
0.000180679
0.000202192
0.00022482
0.000248561
0.00027341
0.000299359
0.000326407
0.000354551
0.000383791
0.000414123
0.000445541
0.000478041
0.000511619
0.00054627
0.000581991
0.000618775
0.000656615
0.000695505
0.000735439
0.000776408
0.000818401
0.000861406
0.000905408
0.000950394
0.000996351
0.00104326
0.00109111
0.00113987
0.00118952
0.00124004
0.00129139
0.00134355
0.00139648
0.00145015
0.00150453
0.00155957
0.00161523
0.00167146
0.00172823
0.00178546
0.00184312
0.00190114
0.00195947
0.00201804
0.00207678
0.00213563
0.00219452
0.00225337
0.0023121
0.00237065
0.00242891
0.00248683
0.0025443
0.00260125
0.00265758
0.00271321
0.00276806
0.00282202
0.00287502
0.00292697
0.00297777
0.00302734
0.00307559
0.00312245
0.00316783
0.00321166
0.00325386
0.00329436
0.00333309
0.00336999
0.003405
0.00343807
0.00346915
0.0034982
0.00352518
0.00355007
0.00357284
0.00359347
0.00361196
0.00362831
0.00364252
0.0036546
0.00366458
0.00367248
0.00367835
0.00368221
0.00368413
0.00368416
0.00368236
0.0036788
0.00367357
0.00366674
0.00365841
0.00364865
0.00363758
0.00362529
0.00361189
0.00359748
0.00358217
0.00356607
0.0035493
0.00353197
0.0035142
0.0034961
0.00347778
0.00345935
0.00344094
0.00342264
0.00340457
0.00338683
0.00336953
0.00335275
0.00333661
0.00332118
0.00330655
0.00329279
0.00328
0.00326821
0.00325751
0.00324794
0.00323954
0.00323237
0.00322644
0.0032218
0.00321845
0.00321639
0.00321579
0.00321677
0.000108291
8.87382e-05
7.31316e-05
5.99529e-05
4.78312e-05
3.68367e-05
2.70445e-05
1.84387e-05
1.10088e-05
4.75382e-06
-3.25649e-07
-4.22694e-06
-6.94606e-06
-8.47916e-06
-8.82374e-06
-7.97947e-06
-5.94791e-06
-2.73074e-06
1.66992e-06
7.25139e-06
1.40103e-05
2.19408e-05
3.10359e-05
4.12892e-05
5.26954e-05
6.52484e-05
7.89428e-05
9.37735e-05
0.000109733
0.000126814
0.000145011
0.00016432
0.00018474
0.000206263
0.000228888
0.00025261
0.000277426
0.000303331
0.000330322
0.000358398
0.000387559
0.000417802
0.00044912
0.00048151
0.00051497
0.000549494
0.000585081
0.000621723
0.000659415
0.000698152
0.000737927
0.000778732
0.000820556
0.000863387
0.000907212
0.000952019
0.000997795
0.00104452
0.00109219
0.00114076
0.00119023
0.00124056
0.00129173
0.0013437
0.00139645
0.00144994
0.00150414
0.00155901
0.0016145
0.00167057
0.00172716
0.00178424
0.00184175
0.00189962
0.0019578
0.00201623
0.00207484
0.00213356
0.00219232
0.00225105
0.00230967
0.0023681
0.00242626
0.00248407
0.00254144
0.00259829
0.00265453
0.00271008
0.00276483
0.0028187
0.00287161
0.00292346
0.00297417
0.00302364
0.0030718
0.00311856
0.00316383
0.00320754
0.00324962
0.00328999
0.00332859
0.00336534
0.0034002
0.0034331
0.003464
0.00349287
0.00351965
0.00354433
0.00356687
0.00358727
0.00360552
0.00362161
0.00363554
0.00364735
0.00365704
0.00366465
0.00367021
0.00367376
0.00367537
0.00367509
0.00367297
0.00366911
0.00366357
0.00365643
0.0036478
0.00363775
0.0036264
0.00361384
0.00360018
0.00358552
0.00356998
0.00355367
0.00353671
0.0035192
0.00350126
0.00348301
0.00346456
0.00344602
0.00342751
0.00340914
0.003391
0.00337321
0.00335587
0.00333907
0.0033229
0.00330745
0.00329279
0.00327902
0.00326618
0.00325435
0.00324358
0.00323392
0.00322541
0.00321809
0.00321197
0.00320709
0.00320344
0.00320103
0.00319996
0.00320027
0.000115515
9.42937e-05
7.74257e-05
6.32592e-05
5.02986e-05
3.86138e-05
2.82737e-05
1.9245e-05
1.15013e-05
5.02766e-06
-1.87851e-07
-4.15472e-06
-6.88047e-06
-8.37265e-06
-8.6394e-06
-7.68904e-06
-5.53002e-06
-2.1696e-06
2.38506e-06
8.12578e-06
1.50439e-05
2.31296e-05
3.23738e-05
4.27689e-05
5.43078e-05
6.69829e-05
8.07866e-05
9.57126e-05
0.000111753
0.0001289
0.000147149
0.000166498
0.000186943
0.000208478
0.0002311
0.000254806
0.000279593
0.000305456
0.000332394
0.000360408
0.000389496
0.000419655
0.000450881
0.000483169
0.000516518
0.000550925
0.000586388
0.0006229
0.000660457
0.000699054
0.000738683
0.000779339
0.00082101
0.000863686
0.000907355
0.000952004
0.000997621
0.00104419
0.0010917
0.00114012
0.00118943
0.0012396
0.00129061
0.00134244
0.00139504
0.00144839
0.00150246
0.00155719
0.00161256
0.00166851
0.001725
0.00178197
0.00183937
0.00189715
0.00195524
0.00201359
0.00207212
0.00213078
0.00218948
0.00224816
0.00230673
0.00236512
0.00242324
0.00248102
0.00253836
0.00259519
0.0026514
0.00270692
0.00276166
0.00281551
0.0028684
0.00292023
0.00297091
0.00302036
0.00306848
0.00311519
0.00316042
0.00320408
0.00324609
0.00328638
0.00332489
0.00336154
0.00339628
0.00342906
0.00345982
0.00348852
0.00351513
0.00353961
0.00356195
0.00358212
0.00360012
0.00361595
0.00362962
0.00364113
0.00365052
0.00365781
0.00366305
0.00366627
0.00366753
0.0036669
0.00366443
0.00366021
0.00365431
0.00364683
0.00363784
0.00362745
0.00361575
0.00360286
0.00358887
0.0035739
0.00355807
0.00354147
0.00352423
0.00350646
0.00348829
0.00346981
0.00345116
0.00343243
0.00341375
0.00339522
0.00337695
0.00335903
0.00334158
0.00332467
0.00330841
0.00329287
0.00327814
0.00326428
0.00325135
0.00323943
0.00322855
0.00321876
0.0032101
0.0032026
0.00319627
0.00319113
0.00318719
0.00318443
0.0031829
0.00318258
0.000121094
9.82911e-05
8.02178e-05
6.50966e-05
5.13151e-05
3.89447e-05
2.80499e-05
1.8583e-05
1.05039e-05
3.78581e-06
-1.59408e-06
-5.65662e-06
-8.42069e-06
-9.90452e-06
-1.01254e-05
-9.09907e-06
-6.84035e-06
-3.36238e-06
1.322e-06
7.19892e-06
1.42551e-05
2.24776e-05
3.18549e-05
4.2378e-05
5.40378e-05
6.68244e-05
8.07285e-05
9.57421e-05
0.000111857
0.000129066
0.000147365
0.000166752
0.000187221
0.000208767
0.000231386
0.000255077
0.000279837
0.000305663
0.000332554
0.00036051
0.00038953
0.000419613
0.000450752
0.000482945
0.000516192
0.000550492
0.000585841
0.000622235
0.00065967
0.000698139
0.000737638
0.00077816
0.000819696
0.000862236
0.000905767
0.00095028
0.000995761
0.0010422
0.00108957
0.00113786
0.00118704
0.0012371
0.00128799
0.0013397
0.0013922
0.00144545
0.00149942
0.00155407
0.00160936
0.00166523
0.00172165
0.00177857
0.00183592
0.00189366
0.00195173
0.00201005
0.00206858
0.00212723
0.00218593
0.00224462
0.00230321
0.00236163
0.00241978
0.0024776
0.00253498
0.00259186
0.00264812
0.00270369
0.00275848
0.00281238
0.00286532
0.00291719
0.00296792
0.0030174
0.00306555
0.00311228
0.00315752
0.00320118
0.00324318
0.00328344
0.00332191
0.0033585
0.00339317
0.00342585
0.00345649
0.00348506
0.00351151
0.00353582
0.00355796
0.00357792
0.00359568
0.00361125
0.00362464
0.00363586
0.00364493
0.00365189
0.00365677
0.00365963
0.00366052
0.00365951
0.00365665
0.00365203
0.00364573
0.00363784
0.00362844
0.00361765
0.00360556
0.00359227
0.00357789
0.00356255
0.00354634
0.00352938
0.0035118
0.00349371
0.00347522
0.00345645
0.00343751
0.00341852
0.0033996
0.00338084
0.00336236
0.00334425
0.00332662
0.00330955
0.00329313
0.00327745
0.00326257
0.00324857
0.00323551
0.00322345
0.00321242
0.00320247
0.00319363
0.00318593
0.00317938
0.00317399
0.00316975
0.00316665
0.00316469
0.00316381
0.000124874
0.000100571
8.13462e-05
6.5307e-05
5.07295e-05
3.76845e-05
2.62352e-05
1.63225e-05
7.89477e-06
9.14989e-07
-4.65005e-06
-8.83219e-06
-1.16609e-05
-1.31637e-05
-1.33656e-05
-1.22888e-05
-9.95441e-06
-6.38194e-06
-1.59057e-06
4.40077e-06
1.15753e-05
1.99176e-05
2.94134e-05
4.00511e-05
5.18195e-05
6.47066e-05
7.87014e-05
9.37946e-05
0.000109978
0.000127245
0.000145591
0.000165012
0.000185504
0.00020706
0.000229677
0.000253355
0.000278091
0.000303882
0.000330729
0.000358632
0.00038759
0.000417601
0.000448661
0.000480767
0.000513922
0.000548124
0.000583371
0.000619658
0.000656982
0.000695338
0.000734722
0.000775126
0.000816545
0.000858966
0.000902381
0.000946779
0.000992148
0.00103847
0.00108574
0.00113393
0.00118302
0.00123298
0.00128379
0.00133542
0.00138785
0.00144104
0.00149496
0.00154957
0.00160482
0.00166067
0.00171708
0.00177399
0.00183135
0.00188911
0.0019472
0.00200556
0.00206414
0.00212284
0.00218162
0.00224038
0.00229906
0.00235757
0.00241583
0.00247375
0.00253124
0.00258823
0.00264461
0.0027003
0.00275521
0.00280923
0.00286229
0.00291428
0.00296511
0.00301469
0.00306293
0.00310975
0.00315505
0.00319876
0.0032408
0.00328109
0.00331956
0.00335614
0.00339076
0.00342338
0.00345395
0.00348241
0.00350873
0.00353288
0.00355483
0.00357458
0.00359211
0.00360742
0.00362052
0.00363143
0.00364017
0.00364678
0.00365129
0.00365376
0.00365425
0.00365281
0.00364953
0.00364447
0.00363772
0.00362938
0.00361953
0.00360828
0.00359573
0.00358198
0.00356716
0.00355137
0.00353473
0.00351735
0.00349936
0.00348087
0.00346199
0.00344286
0.00342357
0.00340425
0.00338502
0.00336596
0.0033472
0.00332884
0.00331096
0.00329367
0.00327703
0.00326115
0.00324608
0.0032319
0.00321866
0.00320641
0.0031952
0.00318507
0.00317603
0.00316812
0.00316134
0.00315569
0.00315117
0.00314776
0.00314541
0.00314402
0.000126714
0.000100989
8.06682e-05
6.3748e-05
4.84005e-05
3.46963e-05
2.26987e-05
1.23396e-05
3.5575e-06
-3.69475e-06
-9.46056e-06
-1.37817e-05
-1.66965e-05
-1.824e-05
-1.84444e-05
-1.73386e-05
-1.49498e-05
-1.13043e-05
-6.42693e-06
-3.40726e-07
6.93461e-06
1.53809e-05
2.4981e-05