/*--------------------------------*- C++ -*----------------------------------*\
  =========                 |
  \\      /  F ield         | OpenFOAM: The Open Source CFD Toolbox
   \\    /   O peration     | Website:  https://openfoam.org
    \\  /    A nd           | Version:  7
     \\/     M anipulation  |
\*---------------------------------------------------------------------------*/
FoamFile
{
    version     2.0;
    format      ascii;
    class       surfaceScalarField;
    location    "0.0625";
    object      phi;
}
// * * * * * * * * * * * * * * * * * * * * * * * * * * * * * * * * * * * * * //

dimensions      [0 3 -1 0 0 0 0];

internalField   nonuniform List<scalar> 
50880
(
1.56851e-11
-1.56797e-11
2.6918e-11
-1.12332e-11
2.05588e-11
6.35839e-12
-7.95699e-12
2.85154e-11
-5.82528e-11
5.02951e-11
-1.28144e-10
6.98898e-11
-2.14717e-10
8.65716e-11
-3.14977e-10
1.00258e-10
-4.26171e-10
1.11192e-10
-5.4589e-10
1.19717e-10
-6.72072e-10
1.26181e-10
-8.02998e-10
1.30925e-10
-9.37269e-10
1.34271e-10
-1.07377e-09
1.36497e-10
-1.21161e-09
1.37844e-10
-1.35012e-09
1.38514e-10
-1.4888e-09
1.38681e-10
-1.62729e-09
1.38482e-10
-1.7653e-09
1.38016e-10
-1.90265e-09
1.37352e-10
-2.0392e-09
1.36543e-10
-2.17483e-09
1.35631e-10
-2.30948e-09
1.34648e-10
-2.44309e-09
1.33611e-10
-2.57561e-09
1.32528e-10
-2.70701e-09
1.31399e-10
-2.83724e-09
1.30227e-10
-2.96626e-09
1.29017e-10
-3.09403e-09
1.27771e-10
-3.22052e-09
1.26488e-10
-3.34568e-09
1.25165e-10
-3.46948e-09
1.23798e-10
-3.59187e-09
1.22385e-10
-3.7128e-09
1.20929e-10
-3.83222e-09
1.1943e-10
-3.95011e-09
1.17888e-10
-4.06641e-09
1.16301e-10
-4.18108e-09
1.14667e-10
-4.29406e-09
1.12986e-10
-4.40532e-09
1.11259e-10
-4.51481e-09
1.09488e-10
-4.62248e-09
1.07674e-10
-4.7283e-09
1.05816e-10
-4.83221e-09
1.03912e-10
-4.93417e-09
1.01963e-10
-5.03414e-09
9.99699e-11
-5.13208e-09
9.7935e-11
-5.22793e-09
9.58584e-11
-5.32167e-09
9.37396e-11
-5.41325e-09
9.15783e-11
-5.50262e-09
8.93755e-11
-5.58975e-09
8.7132e-11
-5.6746e-09
8.4849e-11
-5.75713e-09
8.25269e-11
-5.83729e-09
8.01659e-11
-5.91506e-09
7.77664e-11
-5.99039e-09
7.53291e-11
-6.06325e-09
7.28552e-11
-6.13359e-09
7.03455e-11
-6.20139e-09
6.78004e-11
-6.26661e-09
6.52205e-11
-6.32922e-09
6.26063e-11
-6.38917e-09
5.99586e-11
-6.44645e-09
5.72781e-11
-6.50102e-09
5.45655e-11
-6.55284e-09
5.18219e-11
-6.60189e-09
4.90484e-11
-6.64814e-09
4.62458e-11
-6.69155e-09
4.34151e-11
-6.73211e-09
4.05568e-11
-6.76978e-09
3.76714e-11
-6.80454e-09
3.47599e-11
-6.83636e-09
3.18233e-11
-6.86522e-09
2.88629e-11
-6.8911e-09
2.58797e-11
-6.91398e-09
2.28746e-11
-6.93383e-09
1.98484e-11
-6.95063e-09
1.68021e-11
-6.96437e-09
1.37368e-11
-6.97502e-09
1.06537e-11
-6.98258e-09
7.55428e-12
-6.98702e-09
4.43957e-12
-6.98833e-09
1.31069e-12
-6.9865e-09
-1.83117e-12
-6.98151e-09
-4.9849e-12
-6.97336e-09
-8.1493e-12
-6.96204e-09
-1.13231e-11
-6.94753e-09
-1.45049e-11
-6.92984e-09
-1.76935e-11
-6.90895e-09
-2.08875e-11
-6.88487e-09
-2.40854e-11
-6.85758e-09
-2.7286e-11
-6.8271e-09
-3.04873e-11
-6.79341e-09
-3.3688e-11
-6.75652e-09
-3.68868e-11
-6.71644e-09
-4.0082e-11
-6.67317e-09
-4.32721e-11
-6.62671e-09
-4.64555e-11
-6.57708e-09
-4.96307e-11
-6.52429e-09
-5.27959e-11
-6.46834e-09
-5.59496e-11
-6.40925e-09
-5.909e-11
-6.34703e-09
-6.22155e-11
-6.28171e-09
-6.53243e-11
-6.21329e-09
-6.84149e-11
-6.14181e-09
-7.14853e-11
-6.06727e-09
-7.45336e-11
-5.98972e-09
-7.75579e-11
-5.90916e-09
-8.05566e-11
-5.82563e-09
-8.35277e-11
-5.73916e-09
-8.64695e-11
-5.64978e-09
-8.93801e-11
-5.55752e-09
-9.22578e-11
-5.46242e-09
-9.51007e-11
-5.36452e-09
-9.79069e-11
-5.26384e-09
-1.00675e-10
-5.16044e-09
-1.03402e-10
-5.05435e-09
-1.06087e-10
-4.94562e-09
-1.08729e-10
-4.8343e-09
-1.11324e-10
-4.72043e-09
-1.13872e-10
-4.60406e-09
-1.1637e-10
-4.48524e-09
-1.18818e-10
-4.36402e-09
-1.21214e-10
-4.24047e-09
-1.23557e-10
-4.11462e-09
-1.25844e-10
-3.98655e-09
-1.28076e-10
-3.8563e-09
-1.30251e-10
-3.72393e-09
-1.32368e-10
-3.5895e-09
-1.34427e-10
-3.45307e-09
-1.36427e-10
-3.31471e-09
-1.38368e-10
-3.17446e-09
-1.40248e-10
-3.03239e-09
-1.42068e-10
-2.88856e-09
-1.43825e-10
-2.74305e-09
-1.45516e-10
-2.59591e-09
-1.47135e-10
-2.44724e-09
-1.48673e-10
-2.29712e-09
-1.50116e-10
-2.14568e-09
-1.51442e-10
-1.99306e-09
-1.52619e-10
-1.83946e-09
-1.53603e-10
-1.68513e-09
-1.54331e-10
-1.53041e-09
-1.5472e-10
-1.37575e-09
-1.54661e-10
-1.22173e-09
-1.54014e-10
-1.06913e-09
-1.52604e-10
-9.1891e-10
-1.50218e-10
-7.72308e-10
-1.466e-10
-6.30851e-10
-1.41456e-10
-4.96397e-10
-1.34453e-10
-3.71168e-10
-1.25228e-10
-2.57762e-10
-1.13406e-10
-1.59131e-10
-9.86307e-11
-7.84905e-11
-8.06405e-11
-1.90748e-11
-5.94157e-11
1.64443e-11
-3.55193e-11
2.71843e-11
-1.07397e-11
1.65937e-11
1.05915e-11
1.65941e-11
1.28937e-11
-2.85738e-11
2.47715e-12
-8.14071e-13
-5.06418e-11
5.94768e-11
-1.54038e-10
1.31911e-10
-3.08037e-10
2.04293e-10
-5.08988e-10
2.70839e-10
-7.51315e-10
3.28895e-10
-1.02874e-09
3.77683e-10
-1.33505e-09
4.17493e-10
-1.66445e-09
4.49121e-10
-2.01183e-09
4.73564e-10
-2.37279e-09
4.9188e-10
-2.74363e-09
5.05105e-10
-3.12132e-09
5.14194e-10
-3.50346e-09
5.19987e-10
-3.88815e-09
5.23201e-10
-4.27391e-09
5.24438e-10
-4.65961e-09
5.24186e-10
-5.04442e-09
5.22824e-10
-5.42771e-09
5.20637e-10
-5.809e-09
5.17839e-10
-6.18796e-09
5.14589e-10
-6.56431e-09
5.10999e-10
-6.93785e-09
5.07144e-10
-7.30839e-09
5.03072e-10
-7.6758e-09
4.98807e-10
-8.03994e-09
4.94368e-10
-8.40069e-09
4.89764e-10
-8.75792e-09
4.85001e-10
-9.11151e-09
4.80079e-10
-9.46134e-09
4.74995e-10
-9.80729e-09
4.69746e-10
-1.01492e-08
4.64327e-10
-1.0487e-08
4.58738e-10
-1.08206e-08
4.52979e-10
-1.11497e-08
4.47049e-10
-1.14744e-08
4.40947e-10
-1.17944e-08
4.34672e-10
-1.21096e-08
4.28222e-10
-1.242e-08
4.21599e-10
-1.27253e-08
4.14805e-10
-1.30255e-08
4.07842e-10
-1.33203e-08
4.00711e-10
-1.36098e-08
3.93412e-10
-1.38938e-08
3.85945e-10
-1.41722e-08
3.78314e-10
-1.44448e-08
3.70521e-10
-1.47115e-08
3.62568e-10
-1.49722e-08
3.54456e-10
-1.52268e-08
3.46186e-10
-1.54752e-08
3.37761e-10
-1.57172e-08
3.29184e-10
-1.59528e-08
3.20457e-10
-1.61819e-08
3.11583e-10
-1.64043e-08
3.02565e-10
-1.66199e-08
2.93403e-10
-1.68287e-08
2.84102e-10
-1.70305e-08
2.74662e-10
-1.72252e-08
2.65088e-10
-1.74128e-08
2.55381e-10
-1.75931e-08
2.45545e-10
-1.77661e-08
2.35582e-10
-1.79317e-08
2.25496e-10
-1.80897e-08
2.15288e-10
-1.82401e-08
2.04964e-10
-1.83828e-08
1.94525e-10
-1.85177e-08
1.83974e-10
-1.86448e-08
1.73316e-10
-1.87639e-08
1.62553e-10
-1.8875e-08
1.51689e-10
-1.89781e-08
1.40727e-10
-1.9073e-08
1.2967e-10
-1.91597e-08
1.18522e-10
-1.92381e-08
1.07287e-10
-1.93082e-08
9.59684e-11
-1.93699e-08
8.457e-11
-1.94232e-08
7.30959e-11
-1.94679e-08
6.15501e-11
-1.95041e-08
4.99369e-11
-1.95317e-08
3.82603e-11
-1.95507e-08
2.65248e-11
-1.9561e-08
1.47349e-11
-1.95626e-08
2.89498e-12
-1.95554e-08
-8.99062e-12
-1.95395e-08
-2.09173e-11
-1.95147e-08
-3.28806e-11
-1.94812e-08
-4.48757e-11
-1.94388e-08
-5.68976e-11
-1.93876e-08
-6.89414e-11
-1.93274e-08
-8.10017e-11
-1.92585e-08
-9.30731e-11
-1.91806e-08
-1.0515e-10
-1.90939e-08
-1.17228e-10
-1.89982e-08
-1.293e-10
-1.88938e-08
-1.41361e-10
-1.87804e-08
-1.53405e-10
-1.86583e-08
-1.65427e-10
-1.85273e-08
-1.77421e-10
-1.83876e-08
-1.89381e-10
-1.82391e-08
-2.013e-10
-1.80818e-08
-2.13173e-10
-1.79159e-08
-2.24994e-10
-1.77414e-08
-2.36756e-10
-1.75583e-08
-2.48451e-10
-1.73666e-08
-2.60075e-10
-1.71665e-08
-2.71619e-10
-1.69579e-08
-2.83079e-10
-1.67411e-08
-2.94446e-10
-1.65159e-08
-3.05714e-10
-1.62825e-08
-3.16877e-10
-1.60411e-08
-3.27928e-10
-1.57916e-08
-3.38859e-10
-1.55342e-08
-3.49665e-10
-1.5269e-08
-3.60338e-10
-1.4996e-08
-3.70872e-10
-1.47154e-08
-3.81258e-10
-1.44273e-08
-3.91492e-10
-1.41318e-08
-4.01566e-10
-1.38291e-08
-4.11473e-10
-1.35192e-08
-4.21207e-10
-1.32023e-08
-4.30762e-10
-1.28786e-08
-4.40131e-10
-1.25481e-08
-4.4931e-10
-1.2211e-08
-4.58292e-10
-1.18675e-08
-4.67072e-10
-1.15177e-08
-4.75645e-10
-1.11617e-08
-4.84008e-10
-1.07998e-08
-4.92155e-10
-1.04321e-08
-5.00083e-10
-1.00588e-08
-5.07789e-10
-9.67992e-09
-5.1527e-10
-9.29577e-09
-5.22522e-10
-8.90648e-09
-5.2954e-10
-8.51223e-09
-5.36317e-10
-8.11321e-09
-5.42843e-10
-7.70963e-09
-5.49099e-10
-7.3017e-09
-5.55058e-10
-6.8897e-09
-5.60678e-10
-6.47391e-09
-5.65897e-10
-6.05473e-09
-5.70624e-10
-5.63262e-09
-5.74728e-10
-5.2082e-09
-5.78032e-10
-4.78223e-09
-5.80296e-10
-4.35575e-09
-5.81204e-10
-3.93006e-09
-5.80348e-10
-3.50686e-09
-5.77214e-10
-3.08829e-09
-5.71175e-10
-2.67703e-09
-5.61476e-10
-2.27639e-09
-5.47239e-10
-1.89038e-09
-5.27467e-10
-1.52376e-09
-5.01077e-10
-1.18204e-09
-4.66945e-10
-8.71453e-10
-4.23995e-10
-5.98731e-10
-3.71353e-10
-3.70751e-10
-3.08621e-10
-1.93791e-10
-2.36375e-10
-7.22468e-11
-1.57064e-10
-6.5117e-12
-7.64736e-11
1.06474e-11
-6.5669e-12
2.72426e-11
-6.49933e-12
-2.20753e-11
-5.90493e-11
5.17357e-11
-1.76402e-10
1.76828e-10
-3.64863e-10
3.2037e-10
-6.24384e-10
4.63812e-10
-9.50399e-10
5.96851e-10
-1.33582e-09
7.14318e-10
-1.77246e-09
8.14317e-10
-2.25191e-09
8.96936e-10
-2.76615e-09
9.63363e-10
-3.30792e-09
1.01533e-09
-3.87082e-09
1.05479e-09
-4.44943e-09
1.08371e-09
-5.03921e-09
1.10397e-09
-5.63645e-09
1.11723e-09
-6.23821e-09
1.12496e-09
-6.84217e-09
1.12839e-09
-7.4465e-09
1.12852e-09
-8.04984e-09
1.12616e-09
-8.65111e-09
1.12191e-09
-9.24953e-09
1.11626e-09
-9.84448e-09
1.10954e-09
-1.04355e-08
1.102e-09
-1.10222e-08
1.09383e-09
-1.16042e-08
1.08512e-09
-1.21814e-08
1.07596e-09
-1.27534e-08
1.06639e-09
-1.33201e-08
1.05644e-09
-1.38812e-08
1.04612e-09
-1.44366e-08
1.03544e-09
-1.4986e-08
1.02439e-09
-1.55292e-08
1.01298e-09
-1.60661e-08
1.00119e-09
-1.65964e-08
9.89038e-10
-1.71199e-08
9.76511e-10
-1.76364e-08
9.63611e-10
-1.81458e-08
9.50336e-10
-1.86478e-08
9.36686e-10
-1.91423e-08
9.22661e-10
-1.96289e-08
9.08263e-10
-2.01076e-08
8.93497e-10
-2.05782e-08
8.78365e-10
-2.10403e-08
8.62869e-10
-2.14939e-08
8.47011e-10
-2.19388e-08
8.30795e-10
-2.23747e-08
8.14227e-10
-2.28015e-08
7.97309e-10
-2.32189e-08
7.80047e-10
-2.36269e-08
7.62445e-10
-2.40253e-08
7.44506e-10
-2.44137e-08
7.26236e-10
-2.47922e-08
7.07639e-10
-2.51604e-08
6.88722e-10
-2.55183e-08
6.69491e-10
-2.58657e-08
6.4995e-10
-2.62024e-08
6.30105e-10
-2.65283e-08
6.09961e-10
-2.68432e-08
5.89524e-10
-2.71469e-08
5.688e-10
-2.74393e-08
5.47795e-10
-2.77203e-08
5.26515e-10
-2.79896e-08
5.04966e-10
-2.82473e-08
4.83155e-10
-2.84931e-08
4.61089e-10
-2.87269e-08
4.38773e-10
-2.89486e-08
4.16217e-10
-2.91581e-08
3.93425e-10
-2.93551e-08
3.70406e-10
-2.95398e-08
3.47166e-10
-2.97118e-08
3.23713e-10
-2.98711e-08
3.00054e-10
-3.00176e-08
2.76196e-10
-3.01513e-08
2.52149e-10
-3.02719e-08
2.27918e-10
-3.03794e-08
2.03514e-10
-3.04738e-08
1.78943e-10
-3.05549e-08
1.54215e-10
-3.06227e-08
1.29339e-10
-3.06771e-08
1.04323e-10
-3.0718e-08
7.91769e-11
-3.07454e-08
5.39093e-11
-3.07592e-08
2.85298e-11
-3.07594e-08
3.04819e-12
-3.07458e-08
-2.25262e-11
-3.07186e-08
-4.81833e-11
-3.06775e-08
-7.39131e-11
-3.06227e-08
-9.97055e-11
-3.0554e-08
-1.2555e-10
-3.04715e-08
-1.51435e-10
-3.03752e-08
-1.7735e-10
-3.0265e-08
-2.03284e-10
-3.01409e-08
-2.29225e-10
-3.0003e-08
-2.55161e-10
-2.98512e-08
-2.81081e-10
-2.96856e-08
-3.06972e-10
-2.95062e-08
-3.32823e-10
-2.9313e-08
-3.58621e-10
-2.9106e-08
-3.84353e-10
-2.88854e-08
-4.10007e-10
-2.86512e-08
-4.35571e-10
-2.84033e-08
-4.6103e-10
-2.81419e-08
-4.86372e-10
-2.78671e-08
-5.11583e-10
-2.75789e-08
-5.36649e-10
-2.72774e-08
-5.61557e-10
-2.69627e-08
-5.86291e-10
-2.6635e-08
-6.10839e-10
-2.62942e-08
-6.35186e-10
-2.59406e-08
-6.59318e-10
-2.55743e-08
-6.83221e-10
-2.51953e-08
-7.06881e-10
-2.48039e-08
-7.30282e-10
-2.44002e-08
-7.53411e-10
-2.39842e-08
-7.76253e-10
-2.35563e-08
-7.98794e-10
-2.31166e-08
-8.21018e-10
-2.26651e-08
-8.42913e-10
-2.22022e-08
-8.64463e-10
-2.17281e-08
-8.85655e-10
-2.12428e-08
-9.06475e-10
-2.07467e-08
-9.2691e-10
-2.02398e-08
-9.46947e-10
-1.97226e-08
-9.66573e-10
-1.91951e-08
-9.85778e-10
-1.86576e-08
-1.00455e-09
-1.81104e-08
-1.02287e-09
-1.75536e-08
-1.04075e-09
-1.69876e-08
-1.05816e-09
-1.64126e-08
-1.07509e-09
-1.58289e-08
-1.09155e-09
-1.52366e-08
-1.10751e-09
-1.46362e-08
-1.12298e-09
-1.40278e-08
-1.13793e-09
-1.34118e-08
-1.15234e-09
-1.27884e-08
-1.1662e-09
-1.21581e-08
-1.17944e-09
-1.15211e-08
-1.19201e-09
-1.0878e-08
-1.2038e-09
-1.02292e-08
-1.21467e-09
-9.57544e-09
-1.22441e-09
-8.91743e-09
-1.23274e-09
-8.25621e-09
-1.23926e-09
-7.59305e-09
-1.24345e-09
-6.92961e-09
-1.24465e-09
-6.26796e-09
-1.24199e-09
-5.61076e-09
-1.23441e-09
-4.96131e-09
-1.22062e-09
-4.32369e-09
-1.19909e-09
-3.70286e-09
-1.16807e-09
-3.10471e-09
-1.12561e-09
-2.53614e-09
-1.06965e-09
-2.00499e-09
-9.98101e-10
-1.51987e-09
-9.09109e-10
-1.0899e-09
-8.01327e-10
-7.24059e-10
-6.74463e-10
-4.3029e-10
-5.30145e-10
-2.14032e-10
-3.73321e-10
-7.61935e-11
-2.14311e-10
-1.06204e-11
-7.21384e-11
1.66229e-11
-2.87422e-11
6.6662e-12
-1.32092e-10
1.55085e-10
-3.20799e-10
3.65534e-10
-5.98222e-10
5.97791e-10
-9.62374e-10
8.27963e-10
-1.40737e-09
1.04185e-09
-1.92493e-09
1.23188e-09
-2.50556e-09
1.39494e-09
-3.13943e-09
1.53081e-09
-3.81706e-09
1.641e-09
-4.52971e-09
1.72798e-09
-5.26959e-09
1.79467e-09
-6.02999e-09
1.84411e-09
-6.80522e-09
1.8792e-09
-7.59061e-09
1.90262e-09
-8.38234e-09
1.9167e-09
-9.17739e-09
1.92343e-09
-9.97334e-09
1.92448e-09
-1.07684e-08
1.92117e-09
-1.1561e-08
1.91454e-09
-1.23501e-08
1.90538e-09
-1.31349e-08
1.89429e-09
-1.39146e-08
1.88171e-09
-1.46887e-08
1.86794e-09
-1.54567e-08
1.8532e-09
-1.62184e-08
1.83762e-09
-1.69733e-08
1.82129e-09
-1.77211e-08
1.80426e-09
-1.84616e-08
1.78657e-09
-1.91943e-08
1.76823e-09
-1.99192e-08
1.74925e-09
-2.06359e-08
1.72963e-09
-2.1344e-08
1.70937e-09
-2.20435e-08
1.68847e-09
-2.27339e-08
1.66692e-09
-2.3415e-08
1.64473e-09
-2.40866e-08
1.6219e-09
-2.47483e-08
1.59843e-09
-2.53999e-08
1.57431e-09
-2.60412e-08
1.54956e-09
-2.66719e-08
1.52418e-09
-2.72917e-08
1.49817e-09
-2.79004e-08
1.47154e-09
-2.84977e-08
1.44429e-09
-2.90833e-08
1.41644e-09
-2.96571e-08
1.38798e-09
-3.02187e-08
1.35893e-09
-3.07679e-08
1.3293e-09
-3.13046e-08
1.29908e-09
-3.18284e-08
1.2683e-09
-3.23391e-08
1.23696e-09
-3.28365e-08
1.20506e-09
-3.33204e-08
1.17262e-09
-3.37905e-08
1.13964e-09
-3.42467e-08
1.10614e-09
-3.46888e-08
1.07213e-09
-3.51164e-08
1.03761e-09
-3.55295e-08
1.0026e-09
-3.59278e-08
9.67099e-10
-3.63111e-08
9.31127e-10
-3.66793e-08
8.94693e-10
-3.70321e-08
8.57806e-10
-3.73695e-08
8.20478e-10
-3.76911e-08
7.82721e-10
-3.79969e-08
7.44546e-10
-3.82866e-08
7.05966e-10
-3.85602e-08
6.66991e-10
-3.88174e-08
6.27636e-10
-3.90582e-08
5.87911e-10
-3.92823e-08
5.4783e-10
-3.94896e-08
5.07405e-10
-3.96801e-08
4.66649e-10
-3.98535e-08
4.25577e-10
-4.00098e-08
3.84201e-10
-4.01488e-08
3.42537e-10
-4.02705e-08
3.00598e-10
-4.03746e-08
2.58398e-10
-4.04613e-08
2.15954e-10
-4.05302e-08
1.7328e-10
-4.05814e-08
1.30391e-10
-4.06148e-08
8.7304e-11
-4.06303e-08
4.40342e-11
-4.06279e-08
5.98211e-13
-4.06074e-08
-4.29876e-11
-4.05689e-08
-8.67062e-11
-4.05123e-08
-1.3054e-10
-4.04375e-08
-1.74473e-10
-4.03446e-08
-2.18485e-10
-4.02334e-08
-2.62559e-10
-4.01041e-08
-3.06677e-10
-3.99566e-08
-3.50818e-10
-3.97909e-08
-3.94963e-10
-3.96069e-08
-4.39093e-10
-3.94048e-08
-4.83188e-10
-3.91846e-08
-5.27227e-10
-3.89462e-08
-5.71191e-10
-3.86898e-08
-6.15057e-10
-3.84153e-08
-6.58806e-10
-3.81229e-08
-7.02415e-10
-3.78126e-08
-7.45862e-10
-3.74845e-08
-7.89126e-10
-3.71387e-08
-8.32184e-10
-3.67753e-08
-8.75013e-10
-3.63943e-08
-9.1759e-10
-3.5996e-08
-9.59892e-10
-3.55804e-08
-1.0019e-09
-3.51476e-08
-1.04358e-09
-3.46979e-08
-1.08491e-09
-3.42314e-08
-1.12588e-09
-3.37481e-08
-1.16645e-09
-3.32484e-08
-1.2066e-09
-3.27324e-08
-1.24631e-09
-3.22002e-08
-1.28556e-09
-3.16522e-08
-1.32431e-09
-3.10884e-08
-1.36255e-09
-3.05092e-08
-1.40025e-09
-2.99147e-08
-1.43739e-09
-2.93052e-08
-1.47394e-09
-2.8681e-08
-1.50988e-09
-2.80423e-08
-1.54518e-09
-2.73894e-08
-1.57983e-09
-2.67225e-08
-1.6138e-09
-2.6042e-08
-1.64708e-09
-2.53482e-08
-1.67963e-09
-2.46413e-08
-1.71145e-09
-2.39216e-08
-1.74251e-09
-2.31896e-08
-1.77279e-09
-2.24454e-08
-1.80229e-09
-2.16896e-08
-1.83097e-09
-2.09223e-08
-1.85883e-09
-2.01439e-08
-1.88585e-09
-1.93549e-08
-1.91201e-09
-1.85556e-08
-1.93726e-09
-1.77463e-08
-1.96159e-09
-1.69276e-08
-1.98492e-09
-1.60999e-08
-2.00718e-09
-1.52636e-08
-2.02823e-09
-1.44195e-08
-2.0479e-09
-1.35683e-08
-2.06592e-09
-1.27108e-08
-2.08193e-09
-1.18481e-08
-2.09544e-09
-1.09815e-08
-2.10578e-09
-1.01129e-08
-2.11206e-09
-9.24442e-09
-2.11317e-09
-8.37874e-09
-2.10767e-09
-7.51932e-09
-2.09383e-09
-6.67041e-09
-2.06954e-09
-5.83715e-09
-2.03235e-09
-5.02575e-09
-1.97947e-09
-4.24348e-09
-1.90788e-09
-3.49873e-09
-1.81439e-09
-2.80092e-09
-1.69592e-09
-2.16024e-09
-1.54979e-09
-1.58732e-09
-1.37424e-09
-1.09256e-09
-1.16923e-09
-6.85203e-10
-9.37502e-10
-3.72114e-10
-6.8641e-10
-1.56269e-10
-4.30155e-10
-3.52355e-11
-1.93171e-10
-1.86123e-11
-5.06711e-11
5.73366e-11
-2.0515e-10
3.09561e-10
-4.65532e-10
6.25914e-10
-8.30417e-10
9.62673e-10
-1.29494e-09
1.29249e-09
-1.85139e-09
1.59829e-09
-2.49014e-09
1.87063e-09
-3.20062e-09
2.10541e-09
-3.97197e-09
2.30217e-09
-4.79373e-09
2.46275e-09
-5.65614e-09
2.59039e-09
-6.55047e-09
2.689e-09
-7.46909e-09
2.76273e-09
-8.40549e-09
2.8156e-09
-9.35424e-09
2.85137e-09
-1.03109e-08
2.87334e-09
-1.12718e-08
2.88438e-09
-1.22342e-08
2.88686e-09
-1.31958e-08
2.88271e-09
-1.41547e-08
2.87347e-09
-1.51096e-08
2.86032e-09
-1.60595e-08
2.84415e-09
-1.70034e-08
2.82561e-09
-1.79406e-08
2.80519e-09
-1.88706e-08
2.7832e-09
-1.97929e-08
2.75988e-09
-2.0707e-08
2.73536e-09
-2.16125e-08
2.70975e-09
-2.2509e-08
2.6831e-09
-2.33962e-08
2.65545e-09
-2.42738e-08
2.6268e-09
-2.51413e-08
2.59717e-09
-2.59985e-08
2.56657e-09
-2.6845e-08
2.53498e-09
-2.76805e-08
2.50243e-09
-2.85047e-08
2.46889e-09
-2.93172e-08
2.43439e-09
-3.01177e-08
2.39892e-09
-3.09058e-08
2.36248e-09
-3.16814e-08
2.32509e-09
-3.24439e-08
2.28675e-09
-3.31933e-08
2.24747e-09
-3.3929e-08
2.20726e-09
-3.46508e-08
2.16613e-09
-3.53585e-08
2.12408e-09
-3.60516e-08
2.08113e-09
-3.673e-08
2.0373e-09
-3.73933e-08
1.99259e-09
-3.80412e-08
1.94701e-09
-3.86735e-08
1.90058e-09
-3.92898e-08
1.85332e-09
-3.989e-08
1.80522e-09
-4.04737e-08
1.75632e-09
-4.10407e-08
1.70663e-09
-4.15907e-08
1.65615e-09
-4.21235e-08
1.60491e-09
-4.26388e-08
1.55291e-09
-4.31363e-08
1.50018e-09
-4.3616e-08
1.44673e-09
-4.40774e-08
1.39258e-09
-4.45205e-08
1.33774e-09
-4.49449e-08
1.28222e-09
-4.53505e-08
1.22606e-09
-4.5737e-08
1.16926e-09
-4.61043e-08
1.11184e-09
-4.64522e-08
1.05383e-09
-4.67804e-08
9.95226e-10
-4.70888e-08
9.36063e-10
-4.73773e-08
8.76357e-10
-4.76456e-08
8.16125e-10
-4.78936e-08
7.55388e-10
-4.81211e-08
6.94166e-10
-4.8328e-08
6.32479e-10
-4.85141e-08
5.70347e-10
-4.86794e-08
5.07793e-10
-4.88236e-08
4.44838e-10
-4.89467e-08
3.81504e-10
-4.90486e-08
3.17812e-10
-4.91291e-08
2.53786e-10
-4.91881e-08
1.8945e-10
-4.92257e-08
1.24827e-10
-4.92416e-08
5.994e-11
-4.92358e-08
-5.18503e-12
-4.92083e-08
-7.05237e-11
-4.91589e-08
-1.36051e-10
-4.90877e-08
-2.0174e-10
-4.89946e-08
-2.67566e-10
-4.88796e-08
-3.335e-10
-4.87427e-08
-3.99517e-10
-4.85837e-08
-4.65588e-10
-4.84029e-08
-5.31684e-10
-4.82001e-08
-5.97777e-10
-4.79753e-08
-6.63837e-10
-4.77287e-08
-7.29835e-10
-4.74602e-08
-7.9574e-10
-4.71698e-08
-8.61523e-10
-4.68577e-08
-9.27151e-10
-4.65239e-08
-9.92593e-10
-4.61685e-08
-1.05782e-09
-4.57916e-08
-1.12279e-09
-4.53933e-08
-1.18748e-09
-4.49736e-08
-1.25186e-09
-4.45327e-08
-1.31589e-09
-4.40708e-08
-1.37953e-09
-4.35879e-08
-1.44275e-09
-4.30843e-08
-1.50552e-09
-4.25601e-08
-1.5678e-09
-4.20154e-08
-1.62956e-09
-4.14505e-08
-1.69076e-09
-4.08656e-08
-1.75136e-09
-4.02609e-08
-1.81133e-09
-3.96366e-08
-1.87064e-09
-3.89929e-08
-1.92924e-09
-3.83301e-08
-1.98711e-09
-3.76484e-08
-2.0442e-09
-3.69482e-08
-2.10049e-09
-3.62297e-08
-2.15592e-09
-3.54931e-08
-2.21048e-09
-3.47389e-08
-2.26413e-09
-3.39672e-08
-2.31682e-09
-3.31785e-08
-2.36853e-09
-3.23731e-08
-2.41923e-09
-3.15513e-08
-2.46888e-09
-3.07135e-08
-2.51745e-09
-2.986e-08
-2.56492e-09
-2.89913e-08
-2.61125e-09
-2.81076e-08
-2.65642e-09
-2.72095e-08
-2.7004e-09
-2.62973e-08
-2.74317e-09
-2.53715e-08
-2.78469e-09
-2.44324e-08
-2.82494e-09
-2.34805e-08
-2.86387e-09
-2.25163e-08
-2.90144e-09
-2.15403e-08
-2.93758e-09
-2.05531e-08
-2.97219e-09
-1.95551e-08
-3.00514e-09
-1.85471e-08
-3.03622e-09
-1.75299e-08
-3.06514e-09
-1.65043e-08
-3.09152e-09
-1.54714e-08
-3.11478e-09
-1.44327e-08
-3.1342e-09
-1.33897e-08
-3.14876e-09
-1.23446e-08
-3.15717e-09
-1.13e-08
-3.15778e-09
-1.02591e-08
-3.14852e-09
-9.22607e-09
-3.12687e-09
-8.20578e-09
-3.08983e-09
-7.2042e-09
-3.03392e-09
-6.22842e-09
-2.95526e-09
-5.28669e-09
-2.84961e-09
-4.38842e-09
-2.71266e-09
-3.54409e-09
-2.54025e-09
-2.76496e-09
-2.32891e-09
-2.06276e-09
-2.07645e-09
-1.44902e-09
-1.78297e-09
-9.3436e-10
-1.45216e-09
-5.27598e-10
-1.09317e-09
-2.3483e-10
-7.22923e-10
-5.88873e-11
-3.69113e-10
-7.74995e-11
-7.04965e-11
1.27832e-10
-2.72665e-10
5.11728e-10
-6.00583e-10
9.5383e-10
-1.04761e-09
1.4097e-09
-1.60548e-09
1.85035e-09
-2.26425e-09
2.25707e-09
-3.01284e-09
2.61922e-09
-3.83955e-09
2.93212e-09
-4.73269e-09
3.19531e-09
-5.68101e-09
3.41107e-09
-6.67408e-09
3.58346e-09
-7.7025e-09
3.71742e-09
-8.75801e-09
3.81824e-09
-9.83353e-09
3.89112e-09
-1.09231e-08
3.94092e-09
-1.20218e-08
3.97201e-09
-1.31255e-08
3.98813e-09
-1.42311e-08
3.99246e-09
-1.5336e-08
3.98759e-09
-1.64381e-08
3.97557e-09
-1.75358e-08
3.95803e-09
-1.86278e-08
3.93618e-09
-1.97132e-08
3.91093e-09
-2.07909e-08
3.88295e-09
-2.18604e-08
3.8527e-09
-2.29211e-08
3.82051e-09
-2.39723e-08
3.7866e-09
-2.50136e-08
3.7511e-09
-2.60447e-08
3.71412e-09
-2.70649e-08
3.67569e-09
-2.8074e-08
3.63587e-09
-2.90714e-08
3.59466e-09
-3.0057e-08
3.55207e-09
-3.10301e-08
3.50812e-09
-3.19905e-08
3.4628e-09
-3.29377e-08
3.41613e-09
-3.38714e-08
3.3681e-09
-3.47912e-08
3.31874e-09
-3.56968e-08
3.26803e-09
-3.65877e-08
3.216e-09
-3.74636e-08
3.16266e-09
-3.83241e-08
3.10801e-09
-3.91689e-08
3.05208e-09
-3.99977e-08
2.99487e-09
-4.081e-08
2.9364e-09
-4.16055e-08
2.87668e-09
-4.2384e-08
2.81575e-09
-4.3145e-08
2.7536e-09
-4.38882e-08
2.69026e-09
-4.46134e-08
2.62575e-09
-4.53202e-08
2.56008e-09
-4.60082e-08
2.49328e-09
-4.66773e-08
2.42537e-09
-4.7327e-08
2.35636e-09
-4.79571e-08
2.28627e-09
-4.85674e-08
2.21514e-09
-4.91574e-08
2.14297e-09
-4.9727e-08
2.0698e-09
-5.0276e-08
1.99564e-09
-5.08039e-08
1.92052e-09
-5.13106e-08
1.84445e-09
-5.17959e-08
1.76747e-09
-5.22594e-08
1.68959e-09
-5.2701e-08
1.61085e-09
-5.31204e-08
1.53126e-09
-5.35174e-08
1.45086e-09
-5.38919e-08
1.36966e-09
-5.42435e-08
1.28769e-09
-5.45721e-08
1.20499e-09
-5.48776e-08
1.12157e-09
-5.51596e-08
1.03746e-09
-5.54182e-08
9.52694e-10
-5.5653e-08
8.67299e-10
-5.58639e-08
7.81303e-10
-5.60509e-08
6.94735e-10
-5.62137e-08
6.07626e-10
-5.63522e-08
5.20006e-10
-5.64663e-08
4.31905e-10
-5.65558e-08
3.43356e-10
-5.66208e-08
2.5439e-10
-5.6661e-08
1.65041e-10
-5.66764e-08
7.53415e-11
-5.66669e-08
-1.46745e-11
-5.66325e-08
-1.04972e-10
-5.6573e-08
-1.95517e-10
-5.64885e-08
-2.86273e-10
-5.63788e-08
-3.77204e-10
-5.6244e-08
-4.68273e-10
-5.60841e-08
-5.59441e-10
-5.5899e-08
-6.50672e-10
-5.56888e-08
-7.41926e-10
-5.54534e-08
-8.33162e-10
-5.51929e-08
-9.24343e-10
-5.49073e-08
-1.01542e-09
-5.45967e-08
-1.10637e-09
-5.42611e-08
-1.19713e-09
-5.39006e-08
-1.28767e-09
-5.35152e-08
-1.37794e-09
-5.31051e-08
-1.4679e-09
-5.26704e-08
-1.5575e-09
-5.22112e-08
-1.6467e-09
-5.17276e-08
-1.73546e-09
-5.12198e-08
-1.82373e-09
-5.06878e-08
-1.91145e-09
-5.0132e-08
-1.99859e-09
-4.95524e-08
-2.0851e-09
-4.89493e-08
-2.17092e-09
-4.83228e-08
-2.25602e-09
-4.76733e-08
-2.34033e-09
-4.70008e-08
-2.42382e-09
-4.63057e-08
-2.50644e-09
-4.55882e-08
-2.58813e-09
-4.48486e-08
-2.66884e-09
-4.40872e-08
-2.74854e-09
-4.33042e-08
-2.82716e-09
-4.25e-08
-2.90466e-09
-4.1675e-08
-2.981e-09
-4.08293e-08
-3.05611e-09
-3.99635e-08
-3.12996e-09
-3.90778e-08
-3.20251e-09
-3.81727e-08
-3.27369e-09
-3.72484e-08
-3.34347e-09
-3.63055e-08
-3.41181e-09
-3.53443e-08
-3.47866e-09
-3.43652e-08
-3.54398e-09
-3.33687e-08
-3.60773e-09
-3.23553e-08
-3.66987e-09
-3.13253e-08
-3.73036e-09
-3.02793e-08
-3.78917e-09
-2.92178e-08
-3.84625e-09
-2.81412e-08
-3.90155e-09
-2.705e-08
-3.95502e-09
-2.59449e-08
-4.00657e-09
-2.48264e-08
-4.05611e-09
-2.36951e-08
-4.10349e-09
-2.25517e-08
-4.14851e-09
-2.1397e-08
-4.19088e-09
-2.0232e-08
-4.23019e-09
-1.90576e-08
-4.26589e-09
-1.78752e-08
-4.29719e-09
-1.66863e-08
-4.32306e-09
-1.54929e-08
-4.34215e-09
-1.42974e-08
-4.3527e-09
-1.31027e-08
-4.35247e-09
-1.19125e-08
-4.33869e-09
-1.07314e-08
-4.30803e-09
-9.56469e-09
-4.25652e-09
-8.419e-09
-4.17961e-09
-7.30203e-09
-4.07223e-09
-6.22268e-09
-3.92896e-09
-5.19108e-09
-3.74426e-09
-4.21844e-09
-3.5129e-09
-3.31683e-09
-3.23052e-09
-2.49886e-09
-2.89442e-09
-1.77719e-09
-2.50463e-09
-1.164e-09
-2.06535e-09
-6.70432e-10
-1.58674e-09
-3.06217e-10
-1.08714e-09
-7.9822e-11
-5.95508e-10
-1.57322e-10
-8.74937e-11
2.15324e-10
-3.32062e-10
7.56293e-10
-7.20908e-10
1.34267e-09
-1.24241e-09
1.9312e-09
-1.88475e-09
2.49269e-09
-2.63563e-09
3.00795e-09
-3.48233e-09
3.46591e-09
-4.41202e-09
3.86182e-09
-5.41219e-09
4.19548e-09
-6.47096e-09
4.46984e-09
-7.57735e-09
4.68985e-09
-8.7215e-09
4.86156e-09
-9.8947e-09
4.99144e-09
-1.10895e-08
5.0859e-09
-1.22995e-08
5.15095e-09
-1.35195e-08
5.19201e-09
-1.47452e-08
5.21379e-09
-1.5973e-08
5.22027e-09
-1.72001e-08
5.21472e-09
-1.84243e-08
5.19977e-09
-1.96438e-08
5.17749e-09
-2.0857e-08
5.14946e-09
-2.2063e-08
5.11686e-09
-2.32606e-08
5.08057e-09
-2.44491e-08
5.04119e-09
-2.56278e-08
4.99918e-09
-2.6796e-08
4.95482e-09
-2.79532e-08
4.90833e-09
-2.90989e-08
4.85982e-09
-3.02326e-08
4.80939e-09
-3.13538e-08
4.75708e-09
-3.24621e-08
4.70292e-09
-3.3557e-08
4.64695e-09
-3.4638e-08
4.58916e-09
-3.57048e-08
4.52958e-09
-3.67569e-08
4.46821e-09
-3.77938e-08
4.40507e-09
-3.88153e-08
4.34016e-09
-3.98207e-08
4.27349e-09
-4.08098e-08
4.2051e-09
-4.17821e-08
4.13498e-09
-4.27373e-08
4.06315e-09
-4.36748e-08
3.98964e-09
-4.45944e-08
3.91447e-09
-4.54957e-08
3.83765e-09
-4.63782e-08
3.75921e-09
-4.72416e-08
3.67917e-09
-4.80856e-08
3.59755e-09
-4.89097e-08
3.51438e-09
-4.97136e-08
3.42968e-09
-5.0497e-08
3.34348e-09
-5.12595e-08
3.2558e-09
-5.20009e-08
3.16667e-09
-5.27206e-08
3.07613e-09
-5.34185e-08
2.98418e-09
-5.40943e-08
2.89087e-09
-5.47475e-08
2.79622e-09
-5.5378e-08
2.70026e-09
-5.59853e-08
2.60302e-09
-5.65694e-08
2.50453e-09
-5.71297e-08
2.40483e-09
-5.76662e-08
2.30394e-09
-5.81785e-08
2.20189e-09
-5.86664e-08
2.09872e-09
-5.91296e-08
1.99446e-09
-5.95679e-08
1.88914e-09
-5.9981e-08
1.7828e-09
-6.03688e-08
1.67547e-09
-6.0731e-08
1.56718e-09
-6.10674e-08
1.45798e-09
-6.13778e-08
1.34789e-09
-6.16621e-08
1.23696e-09
-6.192e-08
1.12522e-09
-6.21514e-08
1.01271e-09
-6.23561e-08
8.99467e-10
-6.2534e-08
7.85532e-10
-6.2685e-08
6.70944e-10
-6.28088e-08
5.55744e-10
-6.29054e-08
4.39974e-10
-6.29747e-08
3.23674e-10
-6.30166e-08
2.06889e-10
-6.30309e-08
8.96618e-11
-6.30176e-08
-2.79636e-11
-6.29766e-08
-1.45942e-10
-6.29079e-08
-2.64227e-10
-6.28114e-08
-3.82773e-10
-6.26871e-08
-5.01532e-10
-6.25349e-08
-6.20456e-10
-6.23549e-08
-7.39495e-10
-6.21469e-08
-8.58601e-10
-6.19111e-08
-9.77722e-10
-6.16475e-08
-1.09681e-09
-6.1356e-08
-1.21581e-09
-6.10368e-08
-1.33466e-09
-6.06898e-08
-1.45332e-09
-6.03152e-08
-1.57173e-09
-5.99131e-08
-1.68984e-09
-5.94834e-08
-1.80758e-09
-5.90264e-08
-1.92491e-09
-5.85421e-08
-2.04176e-09
-5.80308e-08
-2.15808e-09
-5.74924e-08
-2.2738e-09
-5.69273e-08
-2.38887e-09
-5.63355e-08
-2.50322e-09
-5.57173e-08
-2.61681e-09
-5.50729e-08
-2.72955e-09
-5.44024e-08
-2.8414e-09
-5.37061e-08
-2.95229e-09
-5.29843e-08
-3.06215e-09
-5.22372e-08
-3.17093e-09
-5.14651e-08
-3.27856e-09
-5.06682e-08
-3.38498e-09
-4.98469e-08
-3.49012e-09
-4.90015e-08
-3.59393e-09
-4.81324e-08
-3.69633e-09
-4.72398e-08
-3.79726e-09
-4.63241e-08
-3.89667e-09
-4.53857e-08
-3.99448e-09
-4.4425e-08
-4.09065e-09
-4.34425e-08
-4.1851e-09
-4.24384e-08
-4.27778e-09
-4.14132e-08
-4.36863e-09
-4.03674e-08
-4.45759e-09
-3.93015e-08
-4.5446e-09
-3.82158e-08
-4.62962e-09
-3.7111e-08
-4.71259e-09
-3.59874e-08
-4.79345e-09
-3.48456e-08
-4.87215e-09
-3.36861e-08
-4.94864e-09
-3.25095e-08
-5.02286e-09
-3.13163e-08
-5.09474e-09
-3.01071e-08
-5.1642e-09
-2.88826e-08
-5.23113e-09
-2.76433e-08
-5.29538e-09
-2.639e-08
-5.35676e-09
-2.51236e-08
-5.415e-09
-2.38448e-08
-5.46969e-09
-2.25547e-08
-5.5203e-09
-2.12544e-08
-5.56609e-09
-1.99456e-08
-5.60605e-09
-1.86298e-08
-5.63885e-09
-1.73092e-08
-5.66272e-09
-1.59865e-08
-5.67542e-09
-1.46649e-08
-5.67411e-09
-1.33483e-08
-5.65529e-09
-1.20416e-08
-5.61475e-09
-1.07505e-08
-5.54755e-09
-9.48211e-09
-5.44802e-09
-8.24445e-09
-5.3099e-09
-7.04691e-09
-5.1265e-09
-5.90012e-09
-4.89105e-09
-4.81584e-09
-4.59718e-09
-3.80681e-09
-4.23955e-09
-2.88649e-09
-3.81474e-09
-2.0687e-09
-3.32242e-09
-1.36732e-09
-2.76673e-09
-7.95983e-10
-2.15808e-09
-3.68143e-10
-1.51498e-09
-9.7523e-11
-8.66128e-10
-2.54845e-10
-1.01624e-10
3.16945e-10
-3.82619e-10
1.03729e-09
-8.24675e-10
1.78473e-09
-1.41178e-09
2.5183e-09
-2.12878e-09
3.2097e-09
-2.961e-09
3.84017e-09
-3.89403e-09
4.39895e-09
-4.91391e-09
4.88169e-09
-6.00727e-09
5.28885e-09
-7.16166e-09
5.62423e-09
-8.36565e-09
5.89384e-09
-9.609e-09
6.10491e-09
-1.08827e-08
6.26516e-09
-1.2179e-08
6.38223e-09
-1.34914e-08
6.46331e-09
-1.48143e-08
6.5149e-09
-1.61432e-08
6.54267e-09
-1.74744e-08
6.55145e-09
-1.88049e-08
6.54521e-09
-2.01322e-08
6.52717e-09
-2.14546e-08
6.49984e-09
-2.27703e-08
6.4652e-09
-2.40782e-08
6.4247e-09
-2.5377e-08
6.37944e-09
-2.66661e-08
6.33021e-09
-2.79444e-08
6.27756e-09
-2.92115e-08
6.22188e-09
-3.04666e-08
6.16344e-09
-3.17092e-08
6.10241e-09
-3.29387e-08
6.0389e-09
-3.41547e-08
5.973e-09
-3.53565e-08
5.90474e-09
-3.65437e-08
5.83417e-09
-3.77158e-08
5.76131e-09
-3.88724e-08
5.68617e-09
-4.0013e-08
5.60877e-09
-4.11371e-08
5.52914e-09
-4.22442e-08
5.44728e-09
-4.33339e-08
5.36321e-09
-4.44058e-08
5.27696e-09
-4.54593e-08
5.18855e-09
-4.64942e-08
5.098e-09
-4.75099e-08
5.00534e-09
-4.8506e-08
4.91058e-09
-4.94821e-08