/*--------------------------------*- C++ -*----------------------------------*\
  =========                 |
  \\      /  F ield         | OpenFOAM: The Open Source CFD Toolbox
   \\    /   O peration     | Website:  https://openfoam.org
    \\  /    A nd           | Version:  7
     \\/     M anipulation  |
\*---------------------------------------------------------------------------*/
FoamFile
{
    version     2.0;
    format      ascii;
    class       volVectorField;
    location    "0.0625";
    object      U;
}
// * * * * * * * * * * * * * * * * * * * * * * * * * * * * * * * * * * * * * //

dimensions      [0 1 -1 0 0 0 0];

internalField   nonuniform List<vector> 
25600
(
(1.60952e-06 -1.27613e-06 0)
(3.9167e-06 -1.28668e-06 0)
(4.53333e-06 -4.2244e-07 0)
(1.74418e-06 8.31326e-07 0)
(-4.57406e-06 2.06829e-06 0)
(-1.42737e-05 3.16174e-06 0)
(-2.68869e-05 4.05839e-06 0)
(-4.19249e-05 4.76107e-06 0)
(-5.89277e-05 5.29999e-06 0)
(-7.7481e-05 5.70718e-06 0)
(-9.72225e-05 6.00875e-06 0)
(-0.000117849 6.22587e-06 0)
(-0.000139113 6.37449e-06 0)
(-0.000160812 6.46663e-06 0)
(-0.000182788 6.51373e-06 0)
(-0.000204918 6.52845e-06 0)
(-0.00022711 6.52245e-06 0)
(-0.000249297 6.50307e-06 0)
(-0.000271427 6.47325e-06 0)
(-0.000293463 6.43455e-06 0)
(-0.000315379 6.38954e-06 0)
(-0.000337157 6.34164e-06 0)
(-0.000358782 6.29336e-06 0)
(-0.000380246 6.24486e-06 0)
(-0.000401539 6.1944e-06 0)
(-0.000422655 6.1406e-06 0)
(-0.000443586 6.08416e-06 0)
(-0.000464327 6.02694e-06 0)
(-0.000484872 5.96992e-06 0)
(-0.000505215 5.91232e-06 0)
(-0.000525349 5.85249e-06 0)
(-0.000545267 5.78957e-06 0)
(-0.000564963 5.72401e-06 0)
(-0.00058443 5.65688e-06 0)
(-0.00060366 5.58869e-06 0)
(-0.000622648 5.51898e-06 0)
(-0.000641385 5.44683e-06 0)
(-0.000659863 5.37175e-06 0)
(-0.000678077 5.29415e-06 0)
(-0.000696018 5.21477e-06 0)
(-0.000713679 5.13397e-06 0)
(-0.000731054 5.05138e-06 0)
(-0.000748135 4.96639e-06 0)
(-0.000764915 4.87876e-06 0)
(-0.000781386 4.78881e-06 0)
(-0.000797543 4.69705e-06 0)
(-0.000813377 4.6037e-06 0)
(-0.000828882 4.50853e-06 0)
(-0.000844051 4.41118e-06 0)
(-0.000858878 4.31152e-06 0)
(-0.000873356 4.20976e-06 0)
(-0.000887478 4.10618e-06 0)
(-0.000901238 4.0009e-06 0)
(-0.000914629 3.89382e-06 0)
(-0.000927646 3.7848e-06 0)
(-0.000940282 3.67382e-06 0)
(-0.000952531 3.56099e-06 0)
(-0.000964387 3.44645e-06 0)
(-0.000975844 3.33024e-06 0)
(-0.000986897 3.21232e-06 0)
(-0.00099754 3.09269e-06 0)
(-0.00100777 2.97137e-06 0)
(-0.00101757 2.84842e-06 0)
(-0.00102695 2.72386e-06 0)
(-0.0010359 2.59773e-06 0)
(-0.00104441 2.47008e-06 0)
(-0.00105249 2.34098e-06 0)
(-0.00106011 2.21047e-06 0)
(-0.00106728 2.07857e-06 0)
(-0.001074 1.94529e-06 0)
(-0.00108026 1.81063e-06 0)
(-0.00108606 1.67465e-06 0)
(-0.00109139 1.53745e-06 0)
(-0.00109624 1.39909e-06 0)
(-0.00110062 1.2596e-06 0)
(-0.00110452 1.11898e-06 0)
(-0.00110794 9.77254e-07 0)
(-0.00111087 8.34485e-07 0)
(-0.00111332 6.90752e-07 0)
(-0.00111527 5.46131e-07 0)
(-0.00111673 4.00676e-07 0)
(-0.00111769 2.54416e-07 0)
(-0.00111815 1.07389e-07 0)
(-0.00111811 -4.0341e-08 0)
(-0.00111756 -1.8871e-07 0)
(-0.00111651 -3.37643e-07 0)
(-0.00111495 -4.87077e-07 0)
(-0.00111289 -6.3697e-07 0)
(-0.00111031 -7.87279e-07 0)
(-0.00110723 -9.37946e-07 0)
(-0.00110363 -1.0889e-06 0)
(-0.00109952 -1.24005e-06 0)
(-0.0010949 -1.39128e-06 0)
(-0.00108976 -1.54253e-06 0)
(-0.00108412 -1.69377e-06 0)
(-0.00107796 -1.84494e-06 0)
(-0.00107129 -1.99594e-06 0)
(-0.00106411 -2.14669e-06 0)
(-0.00105642 -2.29711e-06 0)
(-0.00104823 -2.44711e-06 0)
(-0.00103953 -2.59662e-06 0)
(-0.00103033 -2.74559e-06 0)
(-0.00102062 -2.89392e-06 0)
(-0.00101042 -3.04153e-06 0)
(-0.000999717 -3.18832e-06 0)
(-0.000988524 -3.33419e-06 0)
(-0.000976842 -3.47905e-06 0)
(-0.000964674 -3.62282e-06 0)
(-0.000952024 -3.76542e-06 0)
(-0.000938896 -3.90678e-06 0)
(-0.000925295 -4.04678e-06 0)
(-0.000911226 -4.18535e-06 0)
(-0.000896693 -4.32236e-06 0)
(-0.000881703 -4.45775e-06 0)
(-0.000866261 -4.59143e-06 0)
(-0.000850373 -4.72333e-06 0)
(-0.000834045 -4.85335e-06 0)
(-0.000817284 -4.98138e-06 0)
(-0.000800097 -5.10734e-06 0)
(-0.000782491 -5.23112e-06 0)
(-0.000764474 -5.35266e-06 0)
(-0.000746053 -5.47188e-06 0)
(-0.000727236 -5.58872e-06 0)
(-0.000708031 -5.70309e-06 0)
(-0.000688447 -5.81494e-06 0)
(-0.000668493 -5.92422e-06 0)
(-0.000648177 -6.03086e-06 0)
(-0.000627509 -6.13484e-06 0)
(-0.000606497 -6.23612e-06 0)
(-0.000585151 -6.33469e-06 0)
(-0.00056348 -6.43055e-06 0)
(-0.000541494 -6.5237e-06 0)
(-0.000519203 -6.6142e-06 0)
(-0.000496615 -6.70206e-06 0)
(-0.000473741 -6.78729e-06 0)
(-0.000450591 -6.86985e-06 0)
(-0.000427176 -6.94962e-06 0)
(-0.000403508 -7.0263e-06 0)
(-0.0003796 -7.09931e-06 0)
(-0.00035547 -7.16776e-06 0)
(-0.000331138 -7.23045e-06 0)
(-0.000306631 -7.2856e-06 0)
(-0.000281985 -7.33045e-06 0)
(-0.000257245 -7.36106e-06 0)
(-0.000232475 -7.37214e-06 0)
(-0.000207755 -7.35678e-06 0)
(-0.000183192 -7.30597e-06 0)
(-0.000158925 -7.20825e-06 0)
(-0.000135128 -7.04988e-06 0)
(-0.000112021 -6.81475e-06 0)
(-8.98741e-05 -6.48381e-06 0)
(-6.90134e-05 -6.03468e-06 0)
(-4.98256e-05 -5.44209e-06 0)
(-3.27578e-05 -4.67893e-06 0)
(-1.83103e-05 -3.71937e-06 0)
(-7.01295e-06 -2.54784e-06 0)
(6.25667e-07 -1.18308e-06 0)
(4.24969e-06 2.71181e-07 0)
(4.07479e-06 1.49301e-06 0)
(1.5567e-06 1.55551e-06 0)
(1.73406e-06 -3.99435e-06 0)
(2.71623e-06 -2.26637e-06 0)
(-2.04234e-06 3.01413e-06 0)
(-1.44493e-05 9.59701e-06 0)
(-3.50943e-05 1.61514e-05 0)
(-6.3672e-05 2.2116e-05 0)
(-9.9363e-05 2.72507e-05 0)
(-0.000141177 3.15029e-05 0)
(-0.000188102 3.49237e-05 0)
(-0.000239166 3.76064e-05 0)
(-0.000293492 3.96539e-05 0)
(-0.000350315 4.11682e-05 0)
(-0.000408988 4.22455e-05 0)
(-0.000468976 4.29713e-05 0)
(-0.000529847 4.34188e-05 0)
(-0.000591258 4.36508e-05 0)
(-0.000652943 4.37209e-05 0)
(-0.000714699 4.36724e-05 0)
(-0.00077637 4.35367e-05 0)
(-0.000837839 4.33364e-05 0)
(-0.000899021 4.30883e-05 0)
(-0.000959854 4.28059e-05 0)
(-0.00102029 4.2499e-05 0)
(-0.00108029 4.21739e-05 0)
(-0.00113982 4.18333e-05 0)
(-0.00119886 4.14777e-05 0)
(-0.00125739 4.11081e-05 0)
(-0.00131539 4.07256e-05 0)
(-0.00137283 4.03313e-05 0)
(-0.0014297 3.99251e-05 0)
(-0.00148598 3.95063e-05 0)
(-0.00154165 3.90736e-05 0)
(-0.00159668 3.86265e-05 0)
(-0.00165107 3.81653e-05 0)
(-0.00170478 3.76904e-05 0)
(-0.0017578 3.7202e-05 0)
(-0.00181011 3.66994e-05 0)
(-0.00186169 3.61821e-05 0)
(-0.00191251 3.56499e-05 0)
(-0.00196256 3.51033e-05 0)
(-0.00201182 3.45428e-05 0)
(-0.00206026 3.39685e-05 0)
(-0.00210787 3.33802e-05 0)
(-0.00215463 3.27777e-05 0)
(-0.00220051 3.2161e-05 0)
(-0.0022455 3.15305e-05 0)
(-0.00228958 3.08867e-05 0)
(-0.00233273 3.02297e-05 0)
(-0.00237493 2.95594e-05 0)
(-0.00241616 2.88758e-05 0)
(-0.0024564 2.8179e-05 0)
(-0.00249564 2.74695e-05 0)
(-0.00253386 2.67474e-05 0)
(-0.00257104 2.60131e-05 0)
(-0.00260716 2.52667e-05 0)
(-0.0026422 2.45081e-05 0)
(-0.00267616 2.37377e-05 0)
(-0.00270901 2.29557e-05 0)
(-0.00274074 2.21624e-05 0)
(-0.00277133 2.13579e-05 0)
(-0.00280076 2.05425e-05 0)
(-0.00282903 1.97164e-05 0)
(-0.00285612 1.88797e-05 0)
(-0.002882 1.80329e-05 0)
(-0.00290668 1.7176e-05 0)
(-0.00293013 1.63094e-05 0)
(-0.00295234 1.54334e-05 0)
(-0.00297331 1.45482e-05 0)
(-0.00299301 1.36542e-05 0)
(-0.00301143 1.27515e-05 0)
(-0.00302857 1.18404e-05 0)
(-0.00304441 1.09212e-05 0)
(-0.00305894 9.99413e-06 0)
(-0.00307215 9.05961e-06 0)
(-0.00308404 8.11795e-06 0)
(-0.00309458 7.16944e-06 0)
(-0.00310378 6.21438e-06 0)
(-0.00311162 5.2531e-06 0)
(-0.0031181 4.28595e-06 0)
(-0.0031232 3.3133e-06 0)
(-0.00312693 2.33554e-06 0)
(-0.00312928 1.35303e-06 0)
(-0.00313023 3.66138e-07 0)
(-0.00312978 -6.24786e-07 0)
(-0.00312794 -1.61937e-06 0)
(-0.00312468 -2.61723e-06 0)
(-0.00312002 -3.61795e-06 0)
(-0.00311395 -4.62113e-06 0)
(-0.00310646 -5.62636e-06 0)
(-0.00309755 -6.6332e-06 0)
(-0.00308722 -7.6412e-06 0)
(-0.00307547 -8.6499e-06 0)
(-0.0030623 -9.65881e-06 0)
(-0.00304771 -1.06674e-05 0)
(-0.00303171 -1.16753e-05 0)
(-0.00301428 -1.2682e-05 0)
(-0.00299544 -1.36871e-05 0)
(-0.00297519 -1.46899e-05 0)
(-0.00295354 -1.56901e-05 0)
(-0.00293047 -1.66871e-05 0)
(-0.00290601 -1.76804e-05 0)
(-0.00288016 -1.86694e-05 0)
(-0.00285292 -1.96537e-05 0)
(-0.00282431 -2.06326e-05 0)
(-0.00279432 -2.16057e-05 0)
(-0.00276298 -2.25723e-05 0)
(-0.00273028 -2.35319e-05 0)
(-0.00269624 -2.44838e-05 0)
(-0.00266088 -2.54276e-05 0)
(-0.00262419 -2.63627e-05 0)
(-0.00258621 -2.72886e-05 0)
(-0.00254693 -2.82045e-05 0)
(-0.00250637 -2.911e-05 0)
(-0.00246456 -3.00044e-05 0)
(-0.0024215 -3.08873e-05 0)
(-0.00237721 -3.17579e-05 0)
(-0.00233171 -3.26158e-05 0)
(-0.00228502 -3.34603e-05 0)
(-0.00223716 -3.42909e-05 0)
(-0.00218814 -3.51071e-05 0)
(-0.00213799 -3.59083e-05 0)
(-0.00208674 -3.66939e-05 0)
(-0.00203439 -3.74637e-05 0)
(-0.00198098 -3.82169e-05 0)
(-0.00192653 -3.89534e-05 0)
(-0.00187106 -3.96725e-05 0)
(-0.00181459 -4.03741e-05 0)
(-0.00175716 -4.10577e-05 0)
(-0.00169878 -4.17232e-05 0)
(-0.00163949 -4.23702e-05 0)
(-0.00157931 -4.29986e-05 0)
(-0.00151826 -4.36082e-05 0)
(-0.00145638 -4.41988e-05 0)
(-0.00139369 -4.47699e-05 0)
(-0.00133022 -4.53208e-05 0)
(-0.001266 -4.58505e-05 0)
(-0.00120107 -4.63568e-05 0)
(-0.00113546 -4.68369e-05 0)
(-0.00106923 -4.72858e-05 0)
(-0.00100241 -4.76964e-05 0)
(-0.00093509 -4.80583e-05 0)
(-0.00086734 -4.83571e-05 0)
(-0.000799273 -4.85731e-05 0)
(-0.000731032 -4.86798e-05 0)
(-0.0006628 -4.86427e-05 0)
(-0.000594815 -4.84178e-05 0)
(-0.00052738 -4.79507e-05 0)
(-0.000460877 -4.71751e-05 0)
(-0.000395785 -4.60123e-05 0)
(-0.000332684 -4.43721e-05 0)
(-0.000272277 -4.21541e-05 0)
(-0.000215385 -3.92505e-05 0)
(-0.000162954 -3.55528e-05 0)
(-0.00011603 -3.09639e-05 0)
(-7.57246e-05 -2.54219e-05 0)
(-4.31265e-05 -1.89483e-05 0)
(-1.91559e-05 -1.17446e-05 0)
(-4.28879e-06 -4.36476e-06 0)
(1.92461e-06 1.91506e-06 0)
(1.49653e-06 4.07964e-06 0)
(5.20757e-07 -4.65431e-06 0)
(-2.91682e-06 2.25859e-06 0)
(-1.60993e-05 1.62065e-05 0)
(-4.04959e-05 3.26357e-05 0)
(-7.64332e-05 4.91018e-05 0)
(-0.000123512 6.43262e-05 0)
(-0.000180736 7.76945e-05 0)
(-0.000246829 8.90001e-05 0)
(-0.000320436 9.82775e-05 0)
(-0.000400229 0.000105685 0)
(-0.000484977 0.000111437 0)
(-0.000573581 0.00011577 0)
(-0.000665097 0.000118918 0)
(-0.000758729 0.000121099 0)
(-0.000853821 0.000122505 0)
(-0.000949845 0.000123303 0)
(-0.00104638 0.00012363 0)
(-0.00114311 0.000123602 0)
(-0.00123977 0.000123306 0)
(-0.00133617 0.000122811 0)
(-0.00143218 0.000122168 0)
(-0.00152767 0.000121414 0)
(-0.00162256 0.000120575 0)
(-0.00171679 0.000119671 0)
(-0.0018103 0.000118713 0)
(-0.00190305 0.000117709 0)
(-0.00199499 0.000116662 0)
(-0.0020861 0.000115575 0)
(-0.00217633 0.000114448 0)
(-0.00226565 0.000113284 0)
(-0.00235404 0.000112081 0)
(-0.00244146 0.000110839 0)
(-0.00252788 0.000109556 0)
(-0.00261326 0.000108234 0)
(-0.00269757 0.00010687 0)
(-0.00278079 0.000105466 0)
(-0.00286287 0.000104022 0)
(-0.00294379 0.000102537 0)
(-0.00302351 0.000101011 0)
(-0.00310201 9.94434e-05 0)
(-0.00317925 9.78357e-05 0)
(-0.00325519 9.61881e-05 0)
(-0.00332981 9.45008e-05 0)
(-0.00340308 9.27741e-05 0)
(-0.00347497 9.10079e-05 0)
(-0.00354543 8.92029e-05 0)
(-0.00361446 8.73596e-05 0)
(-0.00368201 8.54786e-05 0)
(-0.00374805 8.35602e-05 0)
(-0.00381256 8.16049e-05 0)
(-0.00387551 7.96131e-05 0)
(-0.00393687 7.75853e-05 0)
(-0.00399662 7.55223e-05 0)
(-0.00405472 7.34247e-05 0)
(-0.00411115 7.12931e-05 0)
(-0.00416588 6.91279e-05 0)
(-0.00421889 6.69298e-05 0)
(-0.00427015 6.46993e-05 0)
(-0.00431965 6.24371e-05 0)
(-0.00436734 6.01439e-05 0)
(-0.00441322 5.78203e-05 0)
(-0.00445725 5.5467e-05 0)
(-0.00449942 5.30847e-05 0)
(-0.0045397 5.06741e-05 0)
(-0.00457808 4.8236e-05 0)
(-0.00461452 4.57711e-05 0)
(-0.00464902 4.32801e-05 0)
(-0.00468155 4.07639e-05 0)
(-0.00471209 3.82232e-05 0)
(-0.00474062 3.56588e-05 0)
(-0.00476713 3.30715e-05 0)
(-0.00479161 3.0462e-05 0)
(-0.00481402 2.78314e-05 0)
(-0.00483437 2.51803e-05 0)
(-0.00485262 2.25098e-05 0)
(-0.00486878 1.98207e-05 0)
(-0.00488282 1.7114e-05 0)
(-0.00489474 1.43906e-05 0)
(-0.00490452 1.16516e-05 0)
(-0.00491214 8.89782e-06 0)
(-0.00491761 6.13039e-06 0)
(-0.00492091 3.35034e-06 0)
(-0.00492202 5.58702e-07 0)
(-0.00492096 -2.24347e-06 0)
(-0.00491769 -5.05512e-06 0)
(-0.00491223 -7.87515e-06 0)
(-0.00490456 -1.07024e-05 0)
(-0.00489468 -1.35358e-05 0)
(-0.00488259 -1.63741e-05 0)
(-0.00486829 -1.9216e-05 0)
(-0.00485176 -2.20604e-05 0)
(-0.00483302 -2.49059e-05 0)
(-0.00481206 -2.77512e-05 0)
(-0.00478888 -3.05951e-05 0)
(-0.00476349 -3.34362e-05 0)
(-0.00473589 -3.62732e-05 0)
(-0.00470608 -3.91047e-05 0)
(-0.00467406 -4.19294e-05 0)
(-0.00463986 -4.47459e-05 0)
(-0.00460346 -4.75527e-05 0)
(-0.00456489 -5.03484e-05 0)
(-0.00452415 -5.31316e-05 0)
(-0.00448125 -5.59006e-05 0)
(-0.0044362 -5.8654e-05 0)
(-0.00438903 -6.13902e-05 0)
(-0.00433973 -6.41078e-05 0)
(-0.00428833 -6.68051e-05 0)
(-0.00423485 -6.94805e-05 0)
(-0.00417929 -7.21326e-05 0)
(-0.00412169 -7.47597e-05 0)
(-0.00406206 -7.73603e-05 0)
(-0.00400043 -7.99327e-05 0)
(-0.00393681 -8.24754e-05 0)
(-0.00387123 -8.49868e-05 0)
(-0.00380372 -8.74652e-05 0)
(-0.00373429 -8.9909e-05 0)
(-0.00366299 -9.23167e-05 0)
(-0.00358984 -9.46867e-05 0)
(-0.00351487 -9.70174e-05 0)
(-0.0034381 -9.93074e-05 0)
(-0.00335958 -0.000101555 0)
(-0.00327933 -0.000103759 0)
(-0.0031974 -0.000105919 0)
(-0.00311381 -0.000108031 0)
(-0.0030286 -0.000110097 0)
(-0.00294182 -0.000112113 0)
(-0.00285349 -0.00011408 0)
(-0.00276366 -0.000115996 0)
(-0.00267237 -0.000117861 0)
(-0.00257966 -0.000119673 0)
(-0.00248557 -0.000121432 0)
(-0.00239014 -0.000123136 0)
(-0.00229342 -0.000124785 0)
(-0.00219546 -0.000126376 0)
(-0.0020963 -0.000127907 0)
(-0.00199599 -0.000129374 0)
(-0.00189459 -0.000130769 0)
(-0.00179216 -0.000132082 0)
(-0.00168879 -0.000133297 0)
(-0.00158455 -0.000134394 0)
(-0.00147958 -0.00013534 0)
(-0.00137399 -0.000136094 0)
(-0.00126799 -0.000136598 0)
(-0.00116178 -0.000136777 0)
(-0.00105569 -0.000136537 0)
(-0.000950062 -0.000135758 0)
(-0.000845385 -0.000134294 0)
(-0.000742244 -0.00013197 0)
(-0.000641356 -0.000128585 0)
(-0.000543587 -0.000123913 0)
(-0.000449962 -0.000117708 0)
(-0.000361663 -0.000109721 0)
(-0.000280014 -9.97195e-05 0)
(-0.000206451 -8.75252e-05 0)
(-0.000142451 -7.3077e-05 0)
(-8.94165e-05 -5.65412e-05 0)
(-4.84763e-05 -3.85003e-05 0)
(-2.01882e-05 -2.02458e-05 0)
(-4.33426e-06 -4.29576e-06 0)
(2.77754e-07 4.26299e-06 0)
(-8.08732e-07 -2.02641e-06 0)
(-9.5982e-06 1.45818e-05 0)
(-3.26486e-05 4.05753e-05 0)
(-7.00314e-05 6.99612e-05 0)
(-0.000121529 9.92662e-05 0)
(-0.000186541 0.000126502 0)
(-0.000263907 0.000150638 0)
(-0.00035215 0.000171273 0)
(-0.000449693 0.000188394 0)
(-0.000554974 0.000202215 0)
(-0.000666523 0.00021307 0)
(-0.000783011 0.000221348 0)
(-0.000903276 0.000227444 0)
(-0.00102633 0.000231739 0)
(-0.00115135 0.000234577 0)
(-0.00127765 0.000236255 0)
(-0.0014047 0.000237026 0)
(-0.00153206 0.000237099 0)
(-0.0016594 0.000236641 0)
(-0.00178646 0.000235782 0)
(-0.00191304 0.00023462 0)
(-0.00203898 0.000233229 0)
(-0.00216416 0.00023166 0)
(-0.00228849 0.00022995 0)
(-0.00241188 0.000228126 0)
(-0.00253427 0.000226203 0)
(-0.00265561 0.000224193 0)
(-0.00277584 0.0002221 0)
(-0.00289491 0.000219926 0)
(-0.00301278 0.000217675 0)
(-0.0031294 0.000215347 0)
(-0.00324474 0.000212941 0)
(-0.00335873 0.000210457 0)
(-0.00347135 0.000207895 0)
(-0.00358255 0.000205254 0)
(-0.00369228 0.000202534 0)
(-0.00380051 0.000199735 0)
(-0.00390718 0.000196857 0)
(-0.00401227 0.000193901 0)
(-0.00411571 0.000190867 0)
(-0.00421748 0.000187754 0)
(-0.00431753 0.000184564 0)
(-0.00441582 0.000181298 0)
(-0.0045123 0.000177957 0)
(-0.00460695 0.00017454 0)
(-0.00469971 0.000171049 0)
(-0.00479055 0.000167485 0)
(-0.00487943 0.000163848 0)
(-0.00496631 0.00016014 0)
(-0.00505115 0.000156361 0)
(-0.00513392 0.000152514 0)
(-0.00521458 0.000148597 0)
(-0.00529309 0.000144614 0)
(-0.00536943 0.000140564 0)
(-0.00544354 0.00013645 0)
(-0.00551541 0.000132272 0)
(-0.00558499 0.000128031 0)
(-0.00565225 0.00012373 0)
(-0.00571717 0.000119368 0)
(-0.00577971 0.000114947 0)
(-0.00583984 0.000110469 0)
(-0.00589753 0.000105934 0)
(-0.00595275 0.000101345 0)
(-0.00600547 9.67025e-05 0)
(-0.00605567 9.2008e-05 0)
(-0.00610332 8.72631e-05 0)
(-0.00614839 8.24692e-05 0)
(-0.00619086 7.76277e-05 0)
(-0.0062307 7.27403e-05 0)
(-0.0062679 6.78084e-05 0)
(-0.00630242 6.28336e-05 0)
(-0.00633425 5.78176e-05 0)
(-0.00636336 5.27619e-05 0)
(-0.00638975 4.76683e-05 0)
(-0.00641337 4.25384e-05 0)
(-0.00643423 3.73742e-05 0)
(-0.0064523 3.21773e-05 0)
(-0.00646757 2.69496e-05 0)
(-0.00648002 2.1693e-05 0)
(-0.00648964 1.64093e-05 0)
(-0.00649641 1.11006e-05 0)
(-0.00650032 5.76877e-06 0)
(-0.00650137 4.15873e-07 0)
(-0.00649954 -4.95606e-06 0)
(-0.00649482 -1.0345e-05 0)
(-0.00648721 -1.57488e-05 0)
(-0.0064767 -2.11652e-05 0)
(-0.00646329 -2.65922e-05 0)
(-0.00644696 -3.20274e-05 0)
(-0.00642773 -3.74684e-05 0)
(-0.00640558 -4.2913e-05 0)
(-0.00638052 -4.83587e-05 0)
(-0.00635254 -5.3803e-05 0)
(-0.00632166 -5.92435e-05 0)
(-0.00628787 -6.46777e-05 0)
(-0.00625118 -7.0103e-05 0)
(-0.00621159 -7.55169e-05 0)
(-0.00616912 -8.09168e-05 0)
(-0.00612377 -8.62999e-05 0)
(-0.00607555 -9.16636e-05 0)
(-0.00602447 -9.70051e-05 0)
(-0.00597056 -0.000102322 0)
(-0.00591381 -0.00010761 0)
(-0.00585426 -0.000112869 0)
(-0.00579191 -0.000118093 0)
(-0.00572679 -0.000123281 0)
(-0.00565892 -0.00012843 0)
(-0.00558831 -0.000133536 0)
(-0.00551501 -0.000138597 0)
(-0.00543902 -0.00014361 0)
(-0.00536037 -0.000148571 0)
(-0.0052791 -0.000153478 0)
(-0.00519524 -0.000158328 0)
(-0.00510882 -0.000163117 0)
(-0.00501986 -0.000167843 0)
(-0.00492841 -0.000172502 0)
(-0.00483451 -0.000177093 0)
(-0.00473818 -0.000181611 0)
(-0.00463948 -0.000186053 0)
(-0.00453843 -0.000190418 0)
(-0.00443509 -0.000194702 0)
(-0.0043295 -0.000198902 0)
(-0.0042217 -0.000203016 0)
(-0.00411174 -0.000207042 0)
(-0.00399966 -0.000210976 0)
(-0.00388553 -0.000214817 0)
(-0.00376938 -0.000218563 0)
(-0.00365127 -0.000222211 0)
(-0.00353126 -0.00022576 0)
(-0.00340939 -0.000229208 0)
(-0.00328573 -0.000232553 0)
(-0.00316032 -0.000235791 0)
(-0.00303324 -0.000238921 0)
(-0.00290453 -0.000241938 0)
(-0.00277428 -0.000244834 0)
(-0.00264254 -0.000247601 0)
(-0.0025094 -0.000250223 0)
(-0.00237495 -0.000252678 0)
(-0.00223929 -0.000254936 0)
(-0.00210255 -0.000256952 0)
(-0.00196489 -0.000258665 0)
(-0.00182649 -0.000259994 0)
(-0.0016876 -0.000260829 0)
(-0.00154853 -0.00026103 0)
(-0.00140968 -0.000260417 0)
(-0.00127152 -0.00025877 0)
(-0.00113467 -0.000255823 0)
(-0.000999873 -0.000251262 0)
(-0.000868035 -0.00024473 0)
(-0.000740233 -0.000235832 0)
(-0.000617721 -0.000224152 0)
(-0.000501928 -0.000209279 0)
(-0.000394436 -0.000190851 0)
(-0.000296929 -0.000168619 0)
(-0.000211121 -0.000142554 0)
(-0.000138632 -0.000113014 0)
(-8.07818e-05 -8.09989e-05 0)
(-3.83287e-05 -4.85112e-05 0)
(-1.16646e-05 -1.91172e-05 0)
(-1.16593e-06 6.68031e-07 0)
(-2.07845e-06 4.37124e-06 0)
(-1.62279e-05 3.52678e-05 0)
(-4.92784e-05 7.65772e-05 0)
(-9.95991e-05 0.000121482 0)
(-0.000166226 0.000165799 0)
(-0.000248243 0.000206973 0)
(-0.000344267 0.000243616 0)
(-0.000452638 0.000275142 0)
(-0.000571611 0.000301489 0)
(-0.000699462 0.000322925 0)
(-0.000834563 0.000339904 0)
(-0.000975427 0.00035297 0)
(-0.00112074 0.000362693 0)
(-0.00126938 0.000369628 0)
(-0.00142038 0.000374284 0)
(-0.00157298 0.000377114 0)
(-0.00172651 0.000378501 0)
(-0.00188048 0.000378765 0)
(-0.00203447 0.000378163 0)
(-0.00218817 0.0003769 0)
(-0.00234133 0.000375133 0)
(-0.00249375 0.000372979 0)
(-0.00264528 0.000370524 0)
(-0.0027958 0.000367827 0)
(-0.0029452 0.000364933 0)
(-0.0030934 0.000361868 0)
(-0.00324032 0.000358653 0)
(-0.0033859 0.000355298 0)
(-0.00353008 0.00035181 0)
(-0.00367279 0.000348192 0)
(-0.00381399 0.000344447 0)
(-0.00395361 0.000340574 0)
(-0.0040916 0.000336574 0)
(-0.00422791 0.000332448 0)
(-0.00436249 0.000328194 0)
(-0.00449527 0.000323813 0)
(-0.00462622 0.000319304 0)
(-0.00475527 0.000314669 0)
(-0.00488238 0.000309908 0)
(-0.00500749 0.000305022 0)
(-0.00513055 0.000300012 0)
(-0.00525151 0.000294878 0)
(-0.00537032 0.000289622 0)
(-0.00548694 0.000284244 0)
(-0.00560131 0.000278747 0)
(-0.00571339 0.000273132 0)
(-0.00582312 0.0002674 0)
(-0.00593046 0.000261553 0)
(-0.00603537 0.000255592 0)
(-0.0061378 0.000249519 0)
(-0.0062377 0.000243336 0)
(-0.00633503 0.000237044 0)
(-0.00642975 0.000230646 0)
(-0.00652182 0.000224143 0)
(-0.00661119 0.000217537 0)
(-0.00669782 0.00021083 0)
(-0.00678168 0.000204024 0)
(-0.00686272 0.000197121 0)
(-0.0069409 0.000190123 0)
(-0.0070162 0.000183032 0)
(-0.00708857 0.000175851 0)
(-0.00715797 0.000168581 0)
(-0.00722438 0.000161224 0)
(-0.00728776 0.000153784 0)
(-0.00734807 0.000146262 0)
(-0.00740529 0.00013866 0)
(-0.00745939 0.000130981 0)
(-0.00751033 0.000123228 0)
(-0.00755809 0.000115403 0)
(-0.00760263 0.000107508 0)
(-0.00764394 9.95465e-05 0)
(-0.00768199 9.15201e-05 0)
(-0.00771675 8.3432e-05 0)
(-0.00774819 7.52849e-05 0)
(-0.00777631 6.70815e-05 0)
(-0.00780108 5.88246e-05 0)
(-0.00782247 5.05171e-05 0)
(-0.00784047 4.2162e-05 0)
(-0.00785506 3.37623e-05 0)
(-0.00786623 2.53209e-05 0)
(-0.00787396 1.68411e-05 0)
(-0.00787824 8.32599e-06 0)
(-0.00787905 -2.21267e-07 0)
(-0.00787639 -8.79736e-06 0)
(-0.00787024 -1.7399e-05 0)
(-0.0078606 -2.60227e-05 0)
(-0.00784746 -3.46651e-05 0)
(-0.00783081 -4.33227e-05 0)
(-0.00781065 -5.19918e-05 0)
(-0.00778698 -6.06688e-05 0)
(-0.0077598 -6.93499e-05 0)
(-0.00772911 -7.80313e-05 0)
(-0.0076949 -8.67091e-05 0)
(-0.00765719 -9.53795e-05 0)
(-0.00761597 -0.000104038 0)
(-0.00757126 -0.000112682 0)
(-0.00752307 -0.000121306 0)
(-0.00747139 -0.000129906 0)
(-0.00741625 -0.000138478 0)
(-0.00735766 -0.000147018 0)
(-0.00729564 -0.000155522 0)
(-0.00723019 -0.000163984 0)
(-0.00716134 -0.000172401 0)
(-0.00708911 -0.000180768 0)
(-0.00701352 -0.000189081 0)
(-0.0069346 -0.000197335 0)
(-0.00685236 -0.000205525 0)
(-0.00676684 -0.000213646 0)
(-0.00667808 -0.000221695 0)
(-0.00658608 -0.000229665 0)
(-0.0064909 -0.000237554 0)
(-0.00639257 -0.000245355 0)
(-0.00629112 -0.000253064 0)
(-0.00618659 -0.000260676 0)
(-0.00607903 -0.000268187 0)
(-0.00596846 -0.000275592 0)
(-0.00585495 -0.000282886 0)
(-0.00573853 -0.000290065 0)
(-0.00561926 -0.000297123 0)
(-0.00549717 -0.000304057 0)
(-0.00537233 -0.000310862 0)
(-0.00524479 -0.000317534 0)
(-0.0051146 -0.000324069 0)
(-0.00498181 -0.000330462 0)
(-0.00484649 -0.000336709 0)
(-0.0047087 -0.000342808 0)
(-0.00456849 -0.000348755 0)
(-0.00442594 -0.000354545 0)
(-0.0042811 -0.000360177 0)
(-0.00413404 -0.000365645 0)
(-0.00398482 -0.000370947 0)
(-0.00383353 -0.000376079 0)
(-0.00368023 -0.000381032 0)
(-0.00352499 -0.000385801 0)
(-0.00336791 -0.000390372 0)
(-0.00320907 -0.000394728 0)
(-0.00304856 -0.000398843 0)
(-0.00288651 -0.000402681 0)
(-0.00272304 -0.00040619 0)
(-0.00255832 -0.000409298 0)
(-0.00239253 -0.000411907 0)
(-0.00222592 -0.000413885 0)
(-0.00205878 -0.00041506 0)
(-0.00189149 -0.000415213 0)
(-0.0017245 -0.000414066 0)
(-0.00155842 -0.000411281 0)
(-0.00139394 -0.000406453 0)
(-0.00123193 -0.000399111 0)
(-0.00107344 -0.000388723 0)
(-0.000919686 -0.000374712 0)
(-0.000772092 -0.000356478 0)
(-0.000632251 -0.000333445 0)
(-0.000501916 -0.000305121 0)
(-0.000382943 -0.000271196 0)
(-0.000277221 -0.000231677 0)
(-0.000186567 -0.000187097 0)
(-0.000112535 -0.000138804 0)
(-5.62044e-05 -8.93421e-05 0)
(-1.87948e-05 -4.29693e-05 0)
(-2.51436e-06 -6.90773e-06 0)
(-3.18574e-06 1.41572e-05 0)
(-2.228e-05 6.39744e-05 0)
(-6.47393e-05 0.00012386 0)
(-0.000127256 0.000186691 0)
(-0.000208038 0.000247895 0)
(-0.00030578 0.000304562 0)
(-0.000418827 0.000355049 0)
(-0.000545323 0.000398638 0)
(-0.000683372 0.000435239 0)
(-0.000831121 0.000465182 0)
(-0.000986828 0.000489045 0)
(-0.0011489 0.000507535 0)
(-0.00131592 0.000521405 0)
(-0.00148666 0.000531391 0)
(-0.00166008 0.000538178 0)
(-0.00183531 0.000542381 0)
(-0.00201165 0.000544528 0)
(-0.00218851 0.000545059 0)
(-0.00236544 0.000544334 0)
(-0.00254207 0.00054264 0)
(-0.00271812 0.000540199 0)
(-0.00289334 0.000537179 0)
(-0.00306757 0.000533704 0)
(-0.00324064 0.000529865 0)
(-0.00341245 0.000525724 0)
(-0.00358288 0.000521325 0)
(-0.00375185 0.000516695 0)
(-0.00391928 0.000511855 0)
(-0.00408508 0.000506815 0)
(-0.0042492 0.000501583 0)
(-0.00441156 0.000496161 0)
(-0.0045721 0.000490553 0)
(-0.00473076 0.000484758 0)
(-0.00488746 0.000478778 0)
(-0.00504216 0.000472613 0)
(-0.00519478 0.000466263 0)
(-0.00534527 0.00045973 0)
(-0.00549357 0.000453014 0)
(-0.00563962 0.000446115 0)
(-0.00578335 0.000439036 0)
(-0.00592471 0.000431777 0)
(-0.00606364 0.000424341 0)
(-0.00620008 0.000416729 0)
(-0.00633398 0.000408942 0)
(-0.00646527 0.000400984 0)
(-0.00659392 0.000392856 0)
(-0.00671985 0.00038456 0)
(-0.00684302 0.000376099 0)
(-0.00696337 0.000367475 0)
(-0.00708086 0.00035869 0)
(-0.00719543 0.000349747 0)
(-0.00730702 0.000340649 0)
(-0.0074156 0.000331399 0)
(-0.00752112 0.000321998 0)
(-0.00762352 0.000312451 0)
(-0.00772276 0.000302759 0)
(-0.00781879 0.000292926 0)
(-0.00791158 0.000282955 0)
(-0.00800107 0.000272848 0)
(-0.00808723 0.000262609 0)
(-0.00817001 0.000252241 0)
(-0.00824938 0.000241747 0)
(-0.00832529 0.00023113 0)
(-0.00839771 0.000220394 0)
(-0.0084666 0.000209542 0)
(-0.00853192 0.000198577 0)
(-0.00859365 0.000187503 0)
(-0.00865174 0.000176324 0)
(-0.00870617 0.000165042 0)
(-0.0087569 0.000153662 0)
(-0.00880391 0.000142188 0)
(-0.00884716 0.000130622 0)
(-0.00888664 0.00011897 0)
(-0.00892231 0.000107234 0)
(-0.00895414 9.542e-05 0)
(-0.00898213 8.35306e-05 0)
(-0.00900624 7.15705e-05 0)
(-0.00902645 5.95437e-05 0)
(-0.00904274 4.74547e-05 0)
(-0.00905511 3.53078e-05 0)
(-0.00906353 2.31076e-05 0)
(-0.00906798 1.08585e-05 0)
(-0.00906845 -1.43477e-06 0)
(-0.00906494 -1.37676e-05 0)
(-0.00905743 -2.61351e-05 0)
(-0.00904591 -3.85325e-05 0)
(-0.00903038 -5.09547e-05 0)
(-0.00901083 -6.33967e-05 0)
(-0.00898725 -7.58534e-05 0)
(-0.00895965 -8.83195e-05 0)
(-0.00892803 -0.00010079 0)
(-0.00889237 -0.000113258 0)
(-0.0088527 -0.00012572 0)
(-0.00880901 -0.00013817 0)
(-0.00876131 -0.000150601 0)
(-0.00870961 -0.000163009 0)
(-0.00865392 -0.000175386 0)
(-0.00859425 -0.000187728 0)
(-0.00853061 -0.000200028 0)
(-0.00846302 -0.000212281 0)
(-0.0083915 -0.000224479 0)
(-0.00831607 -0.000236617 0)
(-0.00823675 -0.000248688 0)
(-0.00815356 -0.000260687 0)
(-0.00806653 -0.000272606 0)
(-0.00797569 -0.000284439 0)
(-0.00788107 -0.000296179 0)
(-0.00778269 -0.000307821 0)
(-0.0076806 -0.000319356 0)
(-0.00757483 -0.000330779 0)
(-0.00746541 -0.000342082 0)
(-0.00735239 -0.00035326 0)
(-0.00723582 -0.000364305 0)
(-0.00711572 -0.00037521 0)
(-0.00699216 -0.000385969 0)
(-0.00686517 -0.000396576 0)
(-0.00673482 -0.000407023 0)
(-0.00660115 -0.000417303 0)
(-0.00646422 -0.000427412 0)
(-0.00632408 -0.000437341 0)
(-0.0061808 -0.000447084 0)
(-0.00603443 -0.000456636 0)
(-0.00588504 -0.000465991 0)
(-0.0057327 -0.000475143 0)
(-0.00557746 -0.000484085 0)
(-0.0054194 -0.000492814 0)
(-0.00525859 -0.000501323 0)
(-0.0050951 -0.000509607 0)
(-0.004929 -0.000517662 0)
(-0.00476038 -0.000525481 0)
(-0.0045893 -0.000533058 0)
(-0.00441586 -0.000540387 0)
(-0.00424014 -0.000547456 0)
(-0.00406222 -0.000554253 0)
(-0.00388221 -0.000560759 0)
(-0.0037002 -0.000566946 0)
(-0.00351633 -0.000572777 0)
(-0.00333071 -0.000578195 0)
(-0.00314351 -0.000583126 0)
(-0.00295491 -0.000587464 0)
(-0.00276514 -0.000591067 0)
(-0.00257448 -0.000593748 0)
(-0.00238326 -0.000595265 0)
(-0.00219191 -0.000595306 0)
(-0.00200096 -0.000593489 0)
(-0.00181106 -0.000589345 0)
(-0.00162299 -0.000582319 0)
(-0.00143772 -0.000571772 0)
(-0.00125638 -0.000556986 0)
(-0.0010803 -0.000537193 0)
(-0.000910995 -0.000511606 0)
(-0.000750191 -0.000479475 0)
(-0.000599757 -0.000440178 0)
(-0.000461682 -0.000393331 0)
(-0.000338012 -0.000338954 0)
(-0.000230769 -0.000277699 0)
(-0.000141788 -0.000211146 0)
(-7.25535e-05 -0.000142164 0)
(-2.51824e-05 -7.53585e-05 0)
(-3.66616e-06 -1.80976e-05 0)
(-4.09194e-06 2.68867e-05 0)
(-2.75243e-05 9.99282e-05 0)
(-7.84296e-05 0.000181489 0)
(-0.000151995 0.000264509 0)
(-0.000245611 0.000344289 0)
(-0.000357557 0.000417756 0)
(-0.000485875 0.000483141 0)
(-0.000628498 0.000539671 0)
(-0.000783378 0.000587277 0)
(-0.000948551 0.00062637 0)
(-0.00112218 0.000657664 0)
(-0.00130259 0.000682037 0)
(-0.0014883 0.000700428 0)
(-0.00167801 0.000713765 0)
(-0.00187063 0.000722914 0)
(-0.00206522 0.000728657 0)
(-0.00226103 0.000731671 0)
(-0.00245743 0.000732527 0)
(-0.00265392 0.000731692 0)
(-0.00285011 0.000729543 0)
(-0.00304567 0.00072637 0)
(-0.00324034 0.000722398 0)
(-0.00343392 0.000717794 0)
(-0.00362623 0.000712679 0)
(-0.00381715 0.000707141 0)
(-0.00400655 0.000701241 0)
(-0.00419433 0.000695018 0)
(-0.00438038 0.000688499 0)
(-0.00456464 0.000681703 0)
(-0.00474701 0.000674641 0)
(-0.00492742 0.000667318 0)
(-0.0051058 0.00065974 0)
(-0.00528207 0.000651907 0)
(-0.00545616 0.000643822 0)
(-0.005628 0.000635485 0)
(-0.00579753 0.0006269 0)
(-0.00596467 0.000618065 0)
(-0.00612935 0.000608984 0)
(-0.00629152 0.000599657 0)
(-0.0064511 0.000590087 0)
(-0.00660803 0.000580275 0)
(-0.00676224 0.000570224 0)
(-0.00691368 0.000559937 0)
(-0.00706226 0.000549416 0)
(-0.00720795 0.000538664 0)
(-0.00735066 0.000527685 0)
(-0.00749036 0.00051648 0)
(-0.00762696 0.000505054 0)
(-0.00776042 0.000493409 0)
(-0.00789068 0.00048155 0)
(-0.00801768 0.00046948 0)
(-0.00814136 0.000457201 0)
(-0.00826168 0.000444719 0)
(-0.00837858 0.000432037 0)
(-0.00849201 0.000419158 0)
(-0.00860191 0.000406086 0)
(-0.00870824 0.000392826 0)
(-0.00881095 0.000379382 0)
(-0.00890999 0.000365757 0)
(-0.00900531 0.000351956 0)
(-0.00909688 0.000337984 0)
(-0.00918463 0.000323844 0)
(-0.00926854 0.000309541 0)
(-0.00934857 0.000295079 0)
(-0.00942466 0.000280463 0)
(-0.00949679 0.000265698 0)
(-0.00956491 0.000250788 0)
(-0.00962899 0.000235739 0)