/*--------------------------------*- C++ -*----------------------------------*\
  =========                 |
  \\      /  F ield         | OpenFOAM: The Open Source CFD Toolbox
   \\    /   O peration     | Website:  https://openfoam.org
    \\  /    A nd           | Version:  7
     \\/     M anipulation  |
\*---------------------------------------------------------------------------*/
FoamFile
{
    version     2.0;
    format      ascii;
    class       surfaceScalarField;
    location    "0.0375";
    object      phi;
}
// * * * * * * * * * * * * * * * * * * * * * * * * * * * * * * * * * * * * * //

dimensions      [0 3 -1 0 0 0 0];

internalField   nonuniform List<scalar> 
50880
(
-1.96e-11
1.95714e-11
-6.20262e-12
-1.34063e-11
9.01023e-11
-9.63044e-11
2.34397e-10
-1.44293e-10
4.00455e-10
-1.66064e-10
5.69767e-10
-1.69314e-10
7.29596e-10
-1.59829e-10
8.69583e-10
-1.3999e-10
9.83512e-10
-1.13929e-10
1.06528e-09
-8.17731e-11
1.11097e-09
-4.56815e-11
1.11807e-09
-7.10557e-12
1.08656e-09
3.15109e-11
1.0167e-09
6.98536e-11
9.09524e-10
1.07181e-10
7.68e-10
1.41523e-10
5.95788e-10
1.72209e-10
3.96071e-10
1.9972e-10
1.72811e-10
2.23257e-10
-6.9828e-11
2.42638e-10
-3.27181e-10
2.57349e-10
-5.95511e-10
2.68328e-10
-8.73001e-10
2.77485e-10
-1.1571e-09
2.84106e-10
-1.44716e-09
2.90061e-10
-1.74008e-09
2.92913e-10
-2.03622e-09
2.96142e-10
-2.33327e-09
2.97052e-10
-2.6321e-09
2.9883e-10
-2.92999e-09
2.97888e-10
-3.22729e-09
2.97291e-10
-3.52229e-09
2.94996e-10
-3.81476e-09
2.92473e-10
-4.10448e-09
2.89716e-10
-4.39094e-09
2.86469e-10
-4.67245e-09
2.81508e-10
-4.94809e-09
2.75642e-10
-5.21726e-09
2.69171e-10
-5.47863e-09
2.61371e-10
-5.73159e-09
2.52962e-10
-5.97615e-09
2.44562e-10
-6.2118e-09
2.35662e-10
-6.43827e-09
2.26463e-10
-6.65614e-09
2.17868e-10
-6.86632e-09
2.10182e-10
-7.06993e-09
2.03605e-10
-7.26877e-09
1.98841e-10
-7.46426e-09
1.95484e-10
-7.65673e-09
1.92473e-10
-7.84639e-09
1.89655e-10
-8.03329e-09
1.86887e-10
-8.21712e-09
1.83837e-10
-8.39735e-09
1.80222e-10
-8.57337e-09
1.76024e-10
-8.74485e-09
1.71489e-10
-8.91127e-09
1.66416e-10
-9.07222e-09
1.60948e-10
-9.22793e-09
1.55704e-10
-9.37889e-09
1.5096e-10
-9.52571e-09
1.46818e-10
-9.66879e-09
1.43085e-10
-9.80853e-09
1.39741e-10
-9.9455e-09
1.36966e-10
-1.00799e-08
1.34381e-10
-1.02114e-08
1.31512e-10
-1.03396e-08
1.28202e-10
-1.0464e-08
1.24386e-10
-1.05841e-08
1.20115e-10
-1.06996e-08
1.15506e-10
-1.08102e-08
1.10641e-10
-1.09158e-08
1.05607e-10
-1.10164e-08
1.00507e-10
-1.11116e-08
9.52697e-11
-1.12011e-08
8.94459e-11
-1.12837e-08
8.25914e-11
-1.13583e-08
7.46358e-11
-1.14238e-08
6.55114e-11
-1.1479e-08
5.51777e-11
-1.15229e-08
4.39061e-11
-1.15551e-08
3.22138e-11
-1.15757e-08
2.05936e-11
-1.15853e-08
9.58147e-12
-1.15847e-08
-5.72044e-13
-1.15747e-08
-1.00608e-11
-1.15556e-08
-1.90798e-11
-1.15278e-08
-2.78179e-11
-1.1491e-08
-3.6743e-11
-1.14448e-08
-4.61758e-11
-1.13889e-08
-5.59816e-11
-1.13228e-08
-6.60579e-11
-1.12464e-08
-7.63999e-11
-1.11598e-08
-8.66199e-11
-1.10635e-08
-9.62716e-11
-1.0958e-08
-1.05513e-10
-1.08433e-08
-1.14722e-10
-1.07194e-08
-1.23888e-10
-1.05864e-08
-1.33013e-10
-1.04439e-08
-1.42513e-10
-1.02912e-08
-1.52637e-10
-1.01282e-08
-1.63046e-10
-9.95481e-09
-1.73377e-10
-9.77116e-09
-1.83652e-10
-9.57732e-09
-1.93848e-10
-9.3737e-09
-2.0362e-10
-9.16101e-09
-2.12687e-10
-8.93996e-09
-2.21051e-10
-8.71123e-09
-2.28722e-10
-8.47561e-09
-2.35616e-10
-8.23382e-09
-2.41794e-10
-7.98638e-09
-2.47445e-10
-7.73382e-09
-2.52558e-10
-7.47691e-09
-2.56915e-10
-7.21648e-09
-2.60432e-10
-6.95326e-09
-2.63216e-10
-6.68798e-09
-2.65276e-10
-6.42158e-09
-2.66408e-10
-6.15513e-09
-2.66446e-10
-5.88969e-09
-2.65444e-10
-5.62609e-09
-2.63595e-10
-5.36495e-09
-2.61143e-10
-5.10653e-09
-2.58422e-10
-4.85072e-09
-2.55804e-10
-4.59726e-09
-2.5346e-10
-4.346e-09
-2.51262e-10
-4.09699e-09
-2.49006e-10
-3.85036e-09
-2.46633e-10
-3.60625e-09
-2.44107e-10
-3.36505e-09
-2.41202e-10
-3.12745e-09
-2.37594e-10
-2.8943e-09
-2.33157e-10
-2.66624e-09
-2.28061e-10
-2.44366e-09
-2.22576e-10
-2.22681e-09
-2.16849e-10
-2.01587e-09
-2.10942e-10
-1.81092e-09
-2.04945e-10
-1.61202e-09
-1.989e-10
-1.41931e-09
-1.92714e-10
-1.23311e-09
-1.862e-10
-1.05395e-09
-1.79161e-10
-8.82455e-10
-1.71494e-10
-7.19356e-10
-1.63101e-10
-5.65727e-10
-1.53629e-10
-4.23048e-10
-1.42678e-10
-2.9289e-10
-1.30157e-10
-1.76655e-10
-1.16235e-10
-7.53461e-11
-1.01309e-10
1.03444e-11
-8.56911e-11
7.96822e-11
-6.93382e-11
1.32056e-10
-5.23738e-11
1.67226e-10
-3.51711e-11
1.85533e-10
-1.83073e-11
1.88292e-10
-2.75903e-12
1.77612e-10
1.06816e-11
1.5624e-10
2.13733e-11
1.27323e-10
2.89188e-11
9.38775e-11
3.34466e-11
5.92284e-11
3.46514e-11
2.79289e-11
3.13007e-11
5.86539e-12
2.20633e-11
5.86685e-12
-4.81805e-11
6.77526e-11
-5.22349e-11
-9.34026e-12
5.74683e-11
-2.06011e-10
2.47244e-10
-3.34064e-10
4.6995e-10
-3.88766e-10
6.94804e-10
-3.94164e-10
8.98821e-10
-3.63851e-10
1.06618e-09
-3.07342e-10
1.18332e-09
-2.31074e-10
1.24255e-09
-1.41008e-10
1.23793e-09
-4.10645e-11
1.16613e-09
6.46972e-11
1.02482e-09
1.72824e-10
8.15261e-10
2.79411e-10
5.3968e-10
3.82759e-10
2.01202e-10
4.80008e-10
-1.96574e-10
5.69984e-10
-6.47595e-10
6.5074e-10
-1.14705e-09
7.22719e-10
-1.68851e-09
7.84094e-10
-2.26769e-09
8.36533e-10
-2.87952e-09
8.80165e-10
-3.51934e-09
9.17309e-10
-4.18312e-09
9.47881e-10
-4.86746e-09
9.74407e-10
-5.57002e-09
9.95469e-10
-6.28763e-09
1.01375e-09
-7.01864e-09
1.02807e-09
-7.75954e-09
1.03974e-09
-8.50934e-09
1.04769e-09
-9.26605e-09
1.054e-09
-1.00272e-08
1.05617e-09
-1.0791e-08
1.05624e-09
-1.15557e-08
1.05441e-09
-1.2319e-08
1.04983e-09
-1.30795e-08
1.04195e-09
-1.38351e-08
1.03122e-09
-1.45836e-08
1.0177e-09
-1.53238e-08
1.00159e-09
-1.60545e-08
9.83672e-10
-1.6774e-08
9.63999e-10
-1.7481e-08
9.42694e-10
-1.81754e-08
9.20843e-10
-1.8857e-08
8.9949e-10
-1.95261e-08
8.79272e-10
-2.01833e-08
8.60786e-10
-2.08291e-08
8.44703e-10
-2.14642e-08
8.30591e-10
-2.20888e-08
8.17045e-10
-2.27027e-08
8.03578e-10
-2.33057e-08
7.89866e-10
-2.3897e-08
7.75148e-10
-2.44758e-08
7.59041e-10
-2.50413e-08
7.4144e-10
-2.55922e-08
7.22484e-10
-2.61281e-08
7.02269e-10
-2.66482e-08
6.81026e-10
-2.71521e-08
6.59606e-10
-2.76398e-08
6.38648e-10
-2.81113e-08
6.18374e-10
-2.8567e-08
5.98788e-10
-2.90071e-08
5.79795e-10
-2.94314e-08
5.61327e-10
-2.984e-08
5.42901e-10
-3.02322e-08
5.23749e-10
-3.06074e-08
5.03437e-10
-3.0965e-08
4.81913e-10
-3.13041e-08
4.59218e-10
-3.16239e-08
4.35388e-10
-3.1924e-08
4.10661e-10
-3.22037e-08
3.85339e-10
-3.24626e-08
3.59372e-10
-3.26998e-08
3.32463e-10
-3.29144e-08
3.04137e-10
-3.31056e-08
2.73709e-10
-3.32717e-08
2.40734e-10
-3.34113e-08
2.05162e-10
-3.35233e-08
1.67112e-10
-3.36065e-08
1.27097e-10
-3.36604e-08
8.61577e-11
-3.36852e-08
4.53496e-11
-3.36811e-08
5.47644e-12
-3.36487e-08
-3.29513e-11
-3.35887e-08
-6.99851e-11
-3.35017e-08
-1.06153e-10
-3.33875e-08
-1.41978e-10
-3.32463e-08
-1.77919e-10
-3.30781e-08
-2.14453e-10
-3.28823e-08
-2.51742e-10
-3.26589e-08
-2.89442e-10
-3.24083e-08
-3.27074e-10
-3.21306e-08
-3.64302e-10
-3.1826e-08
-4.00849e-10
-3.1495e-08
-4.36545e-10
-3.11381e-08
-4.7154e-10
-3.07558e-08
-5.06231e-10
-3.03478e-08
-5.40986e-10
-2.99143e-08
-5.76009e-10
-2.94556e-08
-6.11354e-10
-2.89718e-08
-6.46888e-10
-2.84629e-08
-6.8227e-10
-2.79295e-08
-7.1707e-10
-2.73724e-08
-7.50882e-10
-2.67927e-08
-7.83323e-10
-2.61914e-08
-8.14012e-10
-2.55698e-08
-8.42646e-10
-2.49294e-08
-8.69113e-10
-2.42715e-08
-8.93518e-10
-2.35973e-08
-9.1601e-10
-2.29081e-08
-9.36589e-10
-2.22056e-08
-9.55076e-10
-2.14913e-08
-9.71282e-10
-2.07666e-08
-9.8513e-10
-2.00332e-08
-9.96579e-10
-1.9293e-08
-1.00549e-09
-1.85477e-08
-1.01167e-09
-1.77992e-08
-1.01498e-09
-1.70492e-08
-1.01547e-09
-1.62993e-08
-1.01342e-09
-1.55511e-08
-1.00935e-09
-1.48056e-08
-1.00391e-09
-1.40638e-08
-9.97638e-10
-1.33265e-08
-9.90767e-10
-1.25946e-08
-9.83201e-10
-1.18688e-08
-9.74753e-10
-1.11502e-08
-9.65246e-10
-1.04399e-08
-9.54393e-10
-9.73937e-09
-9.4173e-10
-9.05015e-09
-9.2682e-10
-8.3738e-09
-9.09507e-10
-7.71187e-09
-8.89989e-10
-7.06578e-09
-8.68657e-10
-6.43678e-09
-8.45853e-10
-5.82596e-09
-8.21763e-10
-5.23444e-09
-7.96458e-10
-4.66346e-09
-7.69888e-10
-4.1143e-09
-7.41878e-10
-3.58827e-09
-7.12228e-10
-3.08674e-09
-6.80694e-10
-2.61126e-09
-6.46972e-10
-2.16367e-09
-6.10696e-10
-1.74602e-09
-5.71279e-10
-1.36053e-09
-5.28164e-10
-1.00942e-09
-4.81269e-10
-6.94779e-10
-4.30881e-10
-4.18465e-10
-3.77622e-10
-1.81926e-10
-3.22229e-10
1.38677e-11
-2.65132e-10
1.6845e-10
-2.06955e-10
2.81979e-10
-1.48699e-10
3.55366e-10
-9.16928e-11
3.90591e-10
-3.79829e-11
3.90951e-10
1.0324e-11
3.61014e-10
5.13123e-11
3.06704e-10
8.32313e-11
2.35399e-10
1.04754e-10
1.56202e-10
1.1385e-10
8.06788e-11
1.06827e-10
2.36317e-11
7.91116e-11
2.9499e-11
-9.27441e-11
1.60498e-10
-1.5341e-10
5.13246e-11
-1.02416e-10
-2.57002e-10
2.1466e-11
-4.57943e-10
1.73499e-10
-5.408e-10
3.20797e-10
-5.41453e-10
4.37814e-10
-4.80864e-10
5.07625e-10
-3.7715e-10
5.18728e-10
-2.42175e-10
4.63327e-10
-8.56086e-11
3.35106e-10
8.7155e-11
1.32053e-10
2.67748e-10
-1.46651e-10
4.51526e-10
-5.01994e-10
6.34757e-10
-9.32095e-10
8.12859e-10
-1.43471e-09
9.82614e-10
-2.00633e-09
1.14161e-09
-2.64384e-09
1.28825e-09
-3.34322e-09
1.42209e-09
-4.10099e-09
1.54187e-09
-4.91217e-09
1.64771e-09
-5.77337e-09
1.74136e-09
-6.67927e-09
1.82321e-09
-7.62779e-09
1.8964e-09
-8.61258e-09
1.9592e-09
-9.63277e-09
2.01566e-09
-1.06816e-08
2.06259e-09
-1.1759e-08
2.10543e-09
-1.28592e-08
2.14001e-09
-1.39816e-08
2.17007e-09
-1.51204e-08
2.19282e-09
-1.62754e-08
2.2111e-09
-1.74428e-08
2.2237e-09
-1.86196e-08
2.23117e-09
-1.98032e-08
2.23346e-09
-2.09912e-08
2.22997e-09
-2.21811e-08
2.22105e-09
-2.33704e-08
2.207e-09
-2.4557e-08
2.18823e-09
-2.57387e-08
2.16538e-09
-2.69137e-08
2.13894e-09
-2.80803e-08
2.10932e-09
-2.9237e-08
2.07751e-09
-3.0382e-08
2.04454e-09
-3.15141e-08
2.01136e-09
-3.26323e-08
1.97899e-09
-3.37353e-08
1.94768e-09
-3.48216e-08
1.9169e-09
-3.58904e-08
1.88586e-09
-3.69408e-08
1.85393e-09
-3.79716e-08
1.82068e-09
-3.89816e-08
1.78513e-09
-3.99695e-08
1.74693e-09
-4.09344e-08
1.70633e-09
-4.18749e-08
1.66306e-09
-4.279e-08
1.61732e-09
-4.36787e-08
1.56971e-09
-4.45399e-08
1.52088e-09
-4.53729e-08
1.47164e-09
-4.61767e-08
1.42217e-09
-4.69505e-08
1.37252e-09
-4.76936e-08
1.32292e-09
-4.84053e-08
1.27305e-09
-4.90847e-08
1.22228e-09
-4.9731e-08
1.1701e-09
-5.03436e-08
1.11603e-09
-5.09216e-08
1.05988e-09
-5.14641e-08
1.00169e-09
-5.19703e-08
9.41574e-10
-5.24393e-08
8.79726e-10
-5.28704e-08
8.16368e-10
-5.32625e-08
7.51513e-10
-5.36149e-08
6.84844e-10
-5.39265e-08
6.15802e-10
-5.41967e-08
5.43864e-10
-5.44247e-08
4.68704e-10
-5.46097e-08
3.90195e-10
-5.47512e-08
3.08597e-10
-5.48487e-08
2.24662e-10
-5.4902e-08
1.39426e-10
-5.49107e-08
5.4056e-11
-5.48748e-08
-3.04138e-11
-5.47943e-08
-1.1352e-10
-5.46689e-08
-1.95309e-10
-5.44991e-08
-2.75991e-10
-5.4285e-08
-3.56032e-10
-5.40268e-08
-4.36131e-10
-5.37246e-08
-5.16641e-10
-5.3379e-08
-5.97391e-10
-5.29903e-08
-6.78162e-10
-5.25586e-08
-7.58733e-10
-5.20844e-08
-8.38555e-10
-5.15682e-08
-9.17073e-10
-5.10104e-08
-9.94272e-10
-5.04115e-08
-1.07043e-09
-4.97721e-08
-1.14566e-09
-4.9093e-08
-1.22008e-09
-4.8375e-08
-1.29404e-09
-4.76187e-08
-1.36768e-09
-4.68249e-08
-1.4406e-09
-4.5995e-08
-1.51227e-09
-4.51297e-08
-1.58228e-09
-4.42304e-08
-1.65023e-09
-4.32982e-08
-1.71548e-09
-4.23348e-08
-1.77744e-09
-4.13416e-08
-1.83579e-09
-4.03203e-08
-1.89043e-09
-3.92725e-08
-1.94132e-09
-3.82001e-08
-1.98842e-09
-3.71051e-08
-2.03166e-09
-3.59893e-08
-2.07087e-09
-3.48548e-08
-2.10579e-09
-3.37037e-08
-2.13622e-09
-3.25382e-08
-2.16205e-09
-3.13605e-08
-2.18315e-09
-3.01729e-08
-2.19931e-09
-2.89775e-08
-2.21041e-09
-2.77764e-08
-2.21651e-09
-2.6572e-08
-2.2179e-09
-2.53662e-08
-2.2151e-09
-2.41614e-08
-2.20876e-09
-2.29596e-08
-2.19941e-09
-2.17631e-08
-2.18728e-09
-2.05739e-08
-2.17232e-09
-1.93944e-08
-2.15433e-09
-1.82266e-08
-2.13305e-09
-1.70728e-08
-2.10816e-09
-1.59354e-08
-2.07916e-09
-1.48166e-08
-2.0456e-09
-1.37188e-08
-2.00732e-09
-1.26443e-08
-1.96446e-09
-1.15956e-08
-1.9174e-09
-1.0575e-08
-1.86645e-09
-9.58491e-09
-1.8118e-09
-8.62784e-09
-1.75352e-09
-7.70615e-09
-1.69158e-09
-6.82224e-09
-1.62579e-09
-5.97849e-09
-1.55598e-09
-5.17729e-09
-1.4819e-09
-4.42105e-09
-1.40322e-09
-3.71218e-09
-1.31956e-09
-3.05306e-09
-1.2304e-09
-2.44592e-09
-1.13531e-09
-1.89286e-09
-1.03433e-09
-1.39581e-09
-9.2793e-10
-9.56467e-10
-8.16963e-10
-5.7621e-10
-7.02487e-10
-2.55892e-10
-5.85451e-10
4.2712e-12
-4.67118e-10
2.04752e-10
-3.49179e-10
3.46951e-10
-2.33892e-10
4.33224e-10
-1.24255e-10
4.67068e-10
-2.35167e-11
4.5349e-10
6.48929e-11
3.99456e-10
1.37268e-10
3.14837e-10
1.89375e-10
2.132e-10
2.15488e-10
1.11991e-10
2.08039e-10
3.35295e-11
1.57573e-10
6.30293e-11
-1.17927e-10
2.78423e-10
-2.2983e-10
1.63225e-10
-2.36945e-10
-2.49882e-10
-1.80281e-10
-5.14616e-10
-1.04521e-10
-6.1656e-10
-4.53322e-11
-6.0065e-10
-2.42469e-11
-5.0195e-10
-5.90725e-11
-3.42323e-10
-1.62383e-10
-1.38868e-10
-3.41414e-10
9.34243e-11
-6.00105e-10
3.45847e-10
-9.42815e-10
6.10462e-10
-1.37014e-09
8.7885e-10
-1.882e-09
1.14662e-09
-2.47705e-09
1.40792e-09
-3.15442e-09
1.65997e-09
-3.91199e-09
1.89919e-09
-4.74744e-09
2.12369e-09
-5.65663e-09
2.33129e-09
-6.63769e-09
2.52293e-09
-7.68627e-09
2.69629e-09
-8.79958e-09
2.85467e-09
-9.97354e-09
2.99716e-09
-1.12029e-08
3.12581e-09
-1.2485e-08
3.24121e-09
-1.38143e-08
3.34505e-09
-1.51885e-08
3.4367e-09
-1.66017e-08
3.51864e-09
-1.80507e-08
3.58908e-09
-1.95318e-08
3.6511e-09
-2.10417e-08
3.70271e-09
-2.2576e-08
3.74543e-09
-2.4131e-08
3.77872e-09
-2.57038e-08
3.80395e-09
-2.72909e-08
3.82054e-09
-2.88891e-08
3.82817e-09
-3.04954e-08
3.82736e-09
-3.21067e-08
3.81829e-09
-3.37201e-08
3.8016e-09
-3.53325e-08
3.77784e-09
-3.69412e-08
3.74765e-09
-3.85439e-08
3.71194e-09
-4.0138e-08
3.67166e-09
-4.17212e-08
3.62775e-09
-4.32909e-08
3.58105e-09
-4.48443e-08
3.53238e-09
-4.63786e-08
3.48202e-09
-4.78916e-08
3.42982e-09
-4.93812e-08
3.37546e-09
-5.08454e-08
3.31817e-09
-5.22822e-08
3.2575e-09
-5.36901e-08
3.193e-09
-5.50673e-08
3.12417e-09
-5.64122e-08
3.05119e-09
-5.77232e-08
2.97403e-09
-5.89986e-08
2.89278e-09
-6.02372e-08
2.80829e-09
-6.14374e-08
2.72105e-09
-6.25973e-08
2.63156e-09
-6.37156e-08
2.54043e-09
-6.47907e-08
2.44768e-09
-6.58212e-08
2.35337e-09
-6.68056e-08
2.25744e-09
-6.77426e-08
2.15932e-09
-6.86311e-08
2.0586e-09
-6.94701e-08
1.95504e-09
-7.02587e-08
1.84843e-09
-7.09957e-08
1.73874e-09
-7.16802e-08
1.62604e-09
-7.23111e-08
1.51058e-09
-7.28873e-08
1.39262e-09
-7.34079e-08
1.27209e-09
-7.38718e-08
1.14875e-09
-7.42783e-08
1.02229e-09
-7.46267e-08
8.92305e-10
-7.49166e-08
7.5861e-10
-7.51477e-08
6.21273e-10
-7.53197e-08
4.80581e-10
-7.54324e-08
3.37337e-10
-7.54856e-08
1.92682e-10
-7.54792e-08
4.75827e-11
-7.54124e-08
-9.71355e-11
-7.52852e-08
-2.4076e-10
-7.50974e-08
-3.83115e-10
-7.48489e-08
-5.245e-10
-7.45398e-08
-6.65166e-10
-7.41706e-08
-8.05303e-10
-7.3742e-08
-9.45239e-10
-7.32543e-08
-1.08509e-09
-7.2708e-08
-1.22444e-09
-7.2104e-08
-1.36272e-09
-7.14429e-08
-1.49963e-09
-7.07251e-08
-1.63493e-09
-6.99511e-08
-1.7683e-09
-6.91219e-08
-1.89958e-09
-6.82387e-08
-2.02891e-09
-6.73022e-08
-2.15658e-09
-6.63136e-08
-2.28259e-09
-6.52746e-08
-2.40671e-09
-6.41866e-08
-2.5286e-09
-6.3051e-08
-2.64786e-09
-6.18693e-08
-2.76396e-09
-6.06433e-08
-2.87625e-09
-5.93747e-08
-2.98406e-09
-5.80653e-08
-3.08687e-09
-5.67168e-08
-3.18427e-09
-5.53313e-08
-3.27592e-09
-5.3911e-08
-3.36162e-09
-5.24582e-08
-3.44127e-09
-5.09751e-08
-3.51473e-09
-4.94643e-08
-3.58171e-09
-4.79282e-08
-3.64186e-09
-4.63695e-08
-3.69491e-09
-4.47909e-08
-3.7407e-09
-4.31949e-08
-3.77908e-09
-4.15844e-08
-3.80983e-09
-3.9962e-08
-3.83281e-09
-3.83305e-08
-3.84802e-09
-3.66926e-08
-3.85575e-09
-3.50513e-08
-3.85641e-09
-3.34096e-08
-3.8505e-09
-3.17706e-08
-3.83836e-09
-3.01378e-08
-3.82016e-09
-2.85142e-08
-3.79586e-09
-2.69032e-08
-3.76532e-09
-2.5308e-08
-3.72828e-09
-2.37318e-08
-3.68435e-09
-2.21779e-08
-3.6331e-09
-2.06493e-08
-3.57414e-09
-1.91493e-08
-3.50732e-09
-1.76811e-08
-3.4327e-09
-1.6248e-08
-3.35051e-09
-1.48534e-08
-3.26103e-09
-1.35008e-08
-3.16441e-09
-1.21936e-08
-3.06075e-09
-1.09351e-08
-2.95001e-09
-9.72885e-09
-2.83208e-09
-8.57799e-09
-2.70684e-09
-7.48571e-09
-2.57418e-09
-6.45509e-09
-2.43383e-09
-5.48911e-09
-2.28555e-09
-4.59047e-09
-2.12904e-09
-3.76161e-09
-1.96417e-09
-3.00464e-09
-1.7913e-09
-2.32142e-09
-1.61116e-09
-1.71356e-09
-1.42481e-09
-1.18234e-09
-1.23371e-09
-7.28441e-10
-1.03935e-09
-3.51858e-10
-8.43702e-10
-5.17558e-11
-6.49281e-10
1.73582e-10
-4.59228e-10
3.26913e-10
-2.77584e-10
4.12309e-10
-1.08912e-10
4.35546e-10
4.16567e-11
4.04752e-10
1.68064e-10
3.31277e-10
2.62853e-10
2.30719e-10
3.16046e-10
1.23902e-10
3.14858e-10
3.76263e-11
2.4385e-10
1.00656e-10
-1.33701e-10
4.12127e-10
-2.79246e-10
3.08774e-10
-3.35098e-10
-1.9403e-10
-3.40435e-10
-5.09274e-10
-3.38172e-10
-6.18823e-10
-3.61202e-10
-5.77615e-10
-4.34165e-10
-4.28989e-10
-5.7424e-10
-2.02248e-10
-7.90951e-10
7.78472e-11
-1.09462e-09
3.97089e-10
-1.48872e-09
7.39948e-10
-1.97578e-09
1.09752e-09
-2.55803e-09
1.4611e-09
-3.23514e-09
1.82374e-09
-4.0077e-09
2.18047e-09
-4.87343e-09
2.52571e-09
-5.83044e-09
2.8562e-09
-6.87674e-09
3.16998e-09
-8.01052e-09
3.46507e-09
-9.22765e-09
3.74006e-09
-1.05269e-08
3.99553e-09
-1.19023e-08
4.23009e-09
-1.33513e-08
4.44612e-09
-1.48685e-08
4.64309e-09
-1.64514e-08
4.82412e-09
-1.80928e-08
4.98645e-09
-1.9791e-08
5.13488e-09
-2.15385e-08
5.2661e-09
-2.33334e-08
5.38405e-09
-2.51689e-08
5.48657e-09
-2.7042e-08
5.57578e-09
-2.89479e-08
5.65133e-09
-3.08827e-08
5.71355e-09
-3.28415e-08
5.7627e-09
-3.48202e-08
5.79927e-09
-3.68154e-08
5.82343e-09
-3.88233e-08
5.83521e-09
-4.08402e-08
5.83517e-09
-4.28626e-08
5.82403e-09
-4.48868e-08
5.80209e-09
-4.69093e-08
5.77008e-09
-4.89266e-08
5.72927e-09
-5.09354e-08
5.68043e-09
-5.29321e-08
5.62446e-09
-5.49134e-08
5.56237e-09
-5.68759e-08
5.49489e-09
-5.88161e-08
5.42221e-09
-6.07304e-08
5.34417e-09
-6.26159e-08
5.26094e-09
-6.447e-08
5.17226e-09
-6.62899e-08
5.07742e-09
-6.80733e-08
4.97634e-09
-6.98179e-08
4.8688e-09
-7.15215e-08
4.75482e-09
-7.31822e-08
4.63468e-09
-7.47978e-08
4.50841e-09
-7.63662e-08
4.37672e-09
-7.78856e-08
4.2404e-09
-7.93537e-08
4.09962e-09
-8.07681e-08
3.95493e-09
-8.21272e-08
3.80676e-09
-8.3429e-08
3.65509e-09
-8.46714e-08
3.49984e-09
-8.58527e-08
3.34071e-09
-8.69716e-08
3.17749e-09
-8.80267e-08
3.0101e-09
-8.90166e-08
2.83837e-09
-8.99402e-08
2.66231e-09
-9.07962e-08
2.48206e-09
-9.15835e-08
2.29785e-09
-9.23008e-08
2.1099e-09
-9.29469e-08
1.91825e-09
-9.35209e-08
1.72276e-09
-9.4022e-08
1.52335e-09
-9.44496e-08
1.31994e-09
-9.48034e-08
1.11238e-09
-9.5083e-08
9.00844e-10
-9.52883e-08
6.859e-10
-9.54192e-08
4.68267e-10
-9.54754e-08
2.48855e-10
-9.54566e-08
2.87486e-11
-9.53625e-08
-1.9119e-10
-9.51927e-08
-4.10526e-10
-9.49469e-08
-6.2896e-10
-9.46252e-08
-8.46221e-10
-9.4228e-08
-1.06239e-09
-9.37554e-08
-1.27784e-09
-9.32081e-08
-1.49259e-09
-9.25869e-08
-1.70626e-09
-9.18928e-08
-1.91854e-09
-9.11263e-08
-2.1292e-09
-9.02881e-08
-2.33781e-09
-8.93793e-08
-2.54376e-09
-8.84009e-08
-2.74674e-09
-8.73537e-08
-2.94673e-09
-8.6239e-08
-3.14364e-09
-8.50583e-08
-3.33728e-09
-8.38134e-08
-3.5275e-09
-8.25059e-08
-3.71415e-09
-8.11377e-08
-3.89681e-09
-7.97107e-08
-4.07483e-09
-7.82271e-08
-4.24758e-09
-7.66889e-08
-4.41449e-09
-7.5098e-08
-4.57491e-09
-7.34568e-08
-4.72813e-09
-7.17675e-08
-4.87354e-09
-7.00327e-08
-5.01074e-09
-6.82548e-08
-5.1395e-09
-6.64365e-08
-5.25956e-09
-6.45807e-08
-5.37055e-09
-6.26904e-08
-5.47204e-09
-6.07686e-08
-5.56368e-09
-5.88183e-08
-5.64518e-09
-5.68427e-08
-5.71631e-09
-5.4845e-08
-5.77678e-09
-5.28285e-08
-5.8263e-09
-5.07966e-08
-5.8647e-09
-4.87526e-08
-5.892e-09
-4.67e-08
-5.90835e-09
-4.46424e-08
-5.91399e-09
-4.25838e-08
-5.9092e-09
-4.05279e-08
-5.89421e-09
-3.8479e-08
-5.86907e-09
-3.64412e-08
-5.83371e-09
-3.44186e-08
-5.78793e-09
-3.24153e-08
-5.7315e-09
-3.04356e-08
-5.66409e-09
-2.84834e-08
-5.58532e-09
-2.65627e-08
-5.49482e-09
-2.46776e-08
-5.39242e-09
-2.28322e-08
-5.27813e-09
-2.10306e-08
-5.15212e-09
-1.9277e-08
-5.01459e-09
-1.75757e-08
-4.86567e-09
-1.59311e-08
-4.70542e-09
-1.43472e-08
-4.53389e-09
-1.28282e-08
-4.35106e-09
-1.13781e-08
-4.15693e-09
-1.00008e-08
-3.95154e-09
-8.69975e-09
-3.73484e-09
-7.47855e-09
-3.50674e-09
-6.34024e-09
-3.26735e-09
-5.28755e-09
-3.01686e-09
-4.32283e-09
-2.75601e-09
-3.44805e-09
-2.48594e-09
-2.66483e-09
-2.20803e-09
-1.97434e-09
-1.92419e-09
-1.37711e-09
-1.63659e-09
-8.72952e-10
-1.34786e-09
-4.60786e-10
-1.06145e-09
-1.38542e-10
-7.81471e-10
9.69789e-11
-5.13105e-10
2.50468e-10
-2.62399e-10
3.28487e-10
-3.63609e-11
3.4002e-10
1.56531e-10
2.97397e-10
3.05477e-10
2.17145e-10
3.96298e-10
1.21413e-10
4.10591e-10
3.84206e-11
3.26844e-10
1.39077e-10
-1.41809e-10
5.53931e-10
-3.13174e-10
4.80143e-10
-4.12572e-10
-9.46255e-11
-4.74552e-10
-4.47298e-10
-5.44951e-10
-5.4842e-10
-6.53239e-10
-4.69327e-10
-8.22646e-10
-2.59574e-10
-1.06896e-09
4.40614e-11
-1.40483e-09
4.13716e-10
-1.83659e-09
8.28845e-10
-2.37023e-09
1.27359e-09
-3.00894e-09
1.73623e-09
-3.75401e-09
2.20616e-09
-4.6054e-09
2.67513e-09
-5.56259e-09
3.13765e-09
-6.62469e-09
3.58782e-09
-7.79104e-09
4.02254e-09
-9.05819e-09
4.43713e-09
-1.04245e-08
4.83136e-09
-1.18865e-08
5.2021e-09
-1.34407e-08
5.54973e-09
-1.50841e-08
5.87342e-09
-1.68121e-08
6.17415e-09
-1.86206e-08
6.45162e-09
-2.05031e-08
6.70658e-09
-2.24571e-08
6.94049e-09
-2.44757e-08
7.15345e-09
-2.65548e-08
7.34525e-09
-2.86888e-08
7.51803e-09
-3.08725e-08
7.67025e-09
-3.31013e-08
7.8046e-09
-3.53697e-08
7.91968e-09
-3.7673e-08
8.0169e-09
-4.00066e-08
8.09628e-09
-4.23654e-08
8.15811e-09
-4.47449e-08
8.20285e-09
-4.71404e-08
8.23077e-09
-4.95478e-08
8.24252e-09
-5.19626e-08
8.23886e-09
-5.43808e-08
8.22033e-09
-5.67984e-08
8.18765e-09
-5.92109e-08
8.1418e-09
-6.16141e-08
8.08358e-09
-6.40037e-08
8.01411e-09
-6.63758e-08
7.93445e-09
-6.87259e-08
7.84496e-09
-7.10498e-08
7.74614e-09
-7.33439e-08
7.63828e-09
-7.56044e-08
7.52138e-09
-7.78275e-08
7.39542e-09
-8.00102e-08
7.26007e-09
-8.21493e-08
7.11547e-09
-8.42423e-08
6.96175e-09
-8.62861e-08
6.79865e-09
-8.8278e-08
6.62662e-09
-9.02158e-08
6.44622e-09
-9.20969e-08
6.2578e-09
-9.39186e-08
6.06202e-09
-9.56782e-08
5.85931e-09
-9.73734e-08
5.65014e-09
-9.90017e-08
5.43502e-09
-1.00561e-07
5.21407e-09
-1.02048e-07
4.98725e-09
-1.03462e-07
4.75454e-09
-1.048e-07
4.51596e-09
-1.06062e-07
4.27147e-09
-1.07244e-07
4.02102e-09
-1.08347e-07
3.76475e-09
-1.09368e-07
3.50294e-09
-1.10306e-07
3.23584e-09
-1.11159e-07
2.96359e-09
-1.11928e-07
2.68642e-09
-1.12609e-07
2.40441e-09
-1.13203e-07
2.11756e-09
-1.13709e-07
1.826e-09
-1.14127e-07
1.53001e-09
-1.14456e-07
1.22973e-09
-1.14696e-07
9.25642e-10
-1.14846e-07
6.18774e-10
-1.14907e-07
3.10098e-10
-1.14879e-07
2.2762e-13
-1.1476e-07
-3.1003e-10
-1.14551e-07
-6.19728e-10
-1.14251e-07
-9.28445e-10
-1.13861e-07
-1.23618e-09
-1.13381e-07
-1.54276e-09
-1.12811e-07
-1.84787e-09
-1.12152e-07
-2.1514e-09
-1.11405e-07
-2.45324e-09
-1.10571e-07
-2.75295e-09
-1.0965e-07
-3.04989e-09
-1.08644e-07
-3.34357e-09
-1.07555e-07
-3.63365e-09
-1.06382e-07
-3.91976e-09
-1.05127e-07
-4.20139e-09
-1.03792e-07
-4.47818e-09
-1.0238e-07
-4.75003e-09
-1.0089e-07
-5.01672e-09
-9.93268e-08
-5.27768e-09
-9.76914e-08
-5.53222e-09
-9.59865e-08
-5.77978e-09
-9.42142e-08
-6.01987e-09
-9.23769e-08
-6.25173e-09
-9.04774e-08
-6.47444e-09
-8.85183e-08
-6.68719e-09
-8.65024e-08
-6.88946e-09
-8.44324e-08
-7.08081e-09
-8.23112e-08
-7.26069e-09
-8.01421e-08
-7.42858e-09
-7.79286e-08
-7.58407e-09
-7.56739e-08
-7.72672e-09
-7.33816e-08
-7.85604e-09
-7.10552e-08
-7.97159e-09
-6.86985e-08
-8.07301e-09
-6.63152e-08
-8.16001e-09
-6.39093e-08
-8.23226e-09
-6.14845e-08
-8.28945e-09
-5.90451e-08
-8.33144e-09
-5.65951e-08
-8.35828e-09
-5.4139e-08
-8.37009e-09
-5.16813e-08
-8.36696e-09
-4.92266e-08
-8.34893e-09
-4.67797e-08
-8.31591e-09
-4.43456e-08
-8.26779e-09
-4.19292e-08
-8.20437e-09
-3.95353e-08
-8.12538e-09
-3.71689e-08
-8.03052e-09
-3.48348e-08
-7.91942e-09
-3.25378e-08
-7.79176e-09
-3.02829e-08
-7.64737e-09
-2.80748e-08
-7.48623e-09
-2.59185e-08
-7.30845e-09
-2.38189e-08
-7.11418e-09
-2.1781e-08
-6.90355e-09
-1.98098e-08
-6.67662e-09
-1.79102e-08
-6.43352e-09
-1.60868e-08
-6.17439e-09
-1.43444e-08
-5.89937e-09
-1.26872e-08
-5.60871e-09
-1.11195e-08
-5.30257e-09
-9.64508e-09
-4.98115e-09
-8.26748e-09
-4.64496e-09
-6.98968e-09
-4.29467e-09
-5.81428e-09
-3.93141e-09
-4.74345e-09
-3.55677e-09
-3.77891e-09
-3.17258e-09
-2.92185e-09
-2.78126e-09
-2.1727e-09
-2.38573e-09
-1.53109e-09
-1.98947e-09
-9.95657e-10
-1.59688e-09
-5.63987e-10
-1.21314e-09
-2.32532e-10
-8.44559e-10
3.81511e-12
-4.98744e-10
1.52111e-10
-1.84657e-10
2.2193e-10
8.67114e-11
2.25939e-10
3.0147e-10
1.80738e-10
4.415e-10
1.08223e-10
4.83107e-10
3.64758e-11
3.98594e-10
1.75553e-10
-1.44146e-10
6.98079e-10
-3.34424e-10
6.70419e-10
-4.73262e-10
4.4217e-11
-5.9471e-10
-3.25853e-10
-7.3874e-10
-4.04391e-10
-9.34692e-10
-2.73372e-10
-1.20452e-09
1.02586e-11
-1.56308e-09
4.02621e-10
-2.02257e-09
8.73209e-10
-2.58961e-09
1.3959e-09
-3.27043e-09
1.95441e-09
-4.06589e-09
2.53169e-09
-4.9793e-09
3.11958e-09
-6.01142e-09
3.70724e-09
-7.16089e-09
4.28712e-09
-8.42753e-09
4.85447e-09
-9.8083e-09
5.40331e-09
-1.13022e-08
5.93106e-09
-1.29055e-08
6.43465e-09
-1.46161e-08
6.91263e-09
-1.64298e-08
7.36347e-09
-1.83433e-08
7.78691e-09
-2.03506e-08
8.18145e-09
-2.24486e-08
8.5496e-09
-2.46311e-08
8.88915e-09
-2.68937e-08
9.20305e-09
-2.92292e-08
9.48896e-09
-3.16341e-08
9.75021e-09
-3.4101e-08
9.98485e-09
-3.66257e-08
1.0195e-08
-3.92014e-08
1.03802e-08
-4.1823e-08
1.05414e-08
-4.44849e-08
1.06788e-08
-4.71816e-08
1.0793e-08
-4.99079e-08
1.08844e-08
-5.26584e-08
1.09533e-08
-5.5428e-08
1.10004e-08
-5.82116e-08
1.10261e-08
-6.10041e-08
1.10313e-08
-6.38006e-08
1.10168e-08
-6.65964e-08
1.09834e-08
-6.93866e-08
1.0932e-08
-7.21664e-08
1.08634e-08
-7.49309e-08
1.07786e-08
-7.76751e-08
1.06787e-08
-8.03943e-08
1.05641e-08
-8.30838e-08
1.04356e-08
-8.57391e-08
1.02936e-08
-8.83559e-08
1.01381e-08
-9.09299e-08
9.96945e-09
-9.34576e-08
9.78779e-09
-9.59353e-08
9.59311e-09
-9.83593e-08
9.38574e-09
-1.00727e-07
9.16592e-09
-1.03034e-07
8.93395e-09
-1.05278e-07
8.69049e-09
-1.07456e-07
8.43605e-09
-1.09565e-07
8.17113e-09
-1.11603e-07
7.8964e-09
-1.13565e-07
7.61238e-09
-1.15449e-07
7.31945e-09
-1.17253e-07
7.01798e-09
-1.18974e-07
6.70817e-09
-1.2061e-07
6.39013e-09
-1.22158e-07
6.06403e-09
-1.23616e-07
5.73001e-09
-1.24983e-07
5.38821e-09
-1.26258e-07
5.03883e-09
-1.27437e-07
4.68222e-09
-1.2852e-07
4.31885e-09
-1.29505e-07
3.94896e-09
-1.30391e-07
3.57266e-09
-1.31177e-07
3.19036e-09
-1.31862e-07
2.80249e-09
-1.32445e-07
2.40911e-09
-1.32926e-07
2.01044e-09
-1.33303e-07
1.60722e-09
-1.33578e-07
1.20017e-09
-1.33749e-07
7.89911e-10
-1.33816e-07
3.77284e-10
-1.33779e-07
-3.66247e-11
-1.33638e-07
-4.50945e-10
-1.33393e-07
-8.65136e-10
-1.33043e-07
-1.27863e-09
-1.32588e-07
-1.69076e-09
-1.3203e-07
-2.10117e-09
-1.31368e-07
-2.5098e-09
-1.30603e-07
-2.91631e-09
-1.29736e-07
-3.31997e-09
-1.28769e-07
-3.72023e-09
-1.27702e-07
-4.11678e-09
-1.26537e-07
-4.5091e-09
-1.25274e-07
-4.89637e-09
-1.23916e-07
-5.27791e-09
-1.22464e-07
-5.65341e-09
-1.20919e-07
-6.02251e-09
-1.19285e-07
-6.38462e-09
-1.17562e-07
-6.73911e-09
-1.15755e-07
-7.08542e-09
-1.13864e-07
-7.42294e-09
-1.11893e-07
-7.75095e-09
-1.09844e-07
-8.06862e-09
-1.07721e-07
-8.37509e-09
-1.05526e-07
-8.66952e-09
-1.03262e-07
-8.95106e-09
-1.00932e-07
-9.21896e-09
-9.85406e-08
-9.47252e-09
-9.60901e-08
-9.71114e-09
-9.35844e-08
-9.93425e-09
-9.10273e-08
-1.01412e-08
-8.84226e-08
-1.03314e-08
-8.57745e-08
-1.05042e-08
-8.3087e-08
-1.06591e-08
-8.03643e-08
-1.07957e-08
-7.76108e-08
-1.09136e-08
-7.48309e-08
-1.10122e-08
-7.20292e-08
-1.10911e-08
-6.92104e-08
-1.11502e-08
-6.63793e-08
-1.11894e-08
-6.35408e-08
-1.12086e-08
-6.07002e-08
-1.12075e-08
-5.7863e-08
-1.11862e-08
-5.50345e-08
-1.11444e-08
-5.22202e-08
-1.10821e-08
-4.94257e-08
-1.09988e-08
-4.66567e-08
-1.08944e-08
-4.39187e-08
-1.07685e-08
-4.12174e-08
-1.06207e-08
-3.85584e-08
-1.04508e-08
-3.59471e-08
-1.02586e-08
-3.33892e-08
-1.00441e-08
-3.08903e-08
-9.80735e-09
-2.8456e-08
-9.54849e-09
-2.60919e-08
-9.26764e-09
-2.38037e-08
-8.96491e-09
-2.15967e-08
-8.64052e-09
-1.94762e-08
-8.29484e-09
-1.74474e-08
-7.9282e-09
-1.55151e-08
-7.541e-09
-1.36839e-08
-7.13371e-09
-1.19582e-08
-6.70686e-09
-1.03418e-08
-6.26139e-09
-8.83795e-09
-5.79851e-09
-7.44957e-09
-5.31979e-09
-6.17903e-09
-4.82732e-09
-5.02812e-09
-4.32348e-09
-3.99808e-09
-3.8113e-09
-3.08932e-09
-3.29449e-09
-2.3014e-09
-2.7774e-09
-1.63282e-09
-2.26546e-09
-1.08092e-09
-1.76503e-09
-6.41818e-10
-1.28366e-09
-3.10065e-10
-8.30497e-10
-7.83858e-11
-4.16335e-10
6.28787e-11
-5.45524e-11
1.26197e-10
2.38153e-10
1.27623e-10
4.40074e-10
8.75874e-11
5.23145e-10
3.27102e-11
4.53474e-10
2.08264e-10
-1.41295e-10
8.39369e-10
-3.46434e-10
8.75557e-10
-5.23283e-10
2.2107e-10
-7.04421e-10
-1.44711e-10
-9.24961e-10
-1.83851e-10
-1.21366e-09
1.53156e-11
-1.58971e-09
3.86315e-10
-2.06681e-09
8.79717e-10
-2.65569e-09
1.46208e-09
-3.364e-09
2.1042e-09
-4.19597e-09
2.78639e-09
-5.1568e-09
3.49252e-09
-6.24546e-09
4.20825e-09
-7.46339e-09
4.92517e-09
-8.81032e-09
5.63405e-09
-1.02848e-08
6.32896e-09
-1.1885e-08
7.00345e-09
-1.36089e-08
7.65501e-09
-1.54532e-08
8.27894e-09
-1.74145e-08
8.87391e-09
-1.94885e-08
9.43756e-09
-2.16709e-08
9.96928e-09
-2.39585e-08
1.04691e-08
-2.63439e-08
1.09349e-08
-2.88233e-08
1.13686e-08
-3.13896e-08
1.17693e-08
-3.40383e-08
1.21377e-08
-3.67627e-08
1.24745e-08
-3.95562e-08
1.27784e-08
-4.24134e-08
1.30522e-08
-4.53275e-08
1.32944e-08
-4.8293e-08
1.35069e-08
-5.13034e-08
1.36892e-08
-5.43525e-08
1.38421e-08
-5.74345e-08
1.39664e-08
-6.05436e-08
1.40624e-08
-6.3674e-08
1.41309e-08
-6.68201e-08
1.41722e-08
-6.99761e-08
1.41873e-08
-7.31365e-08
1.41772e-08
-7.62957e-08
1.41427e-08
-7.94482e-08
1.40845e-08
-8.25887e-08
1.40039e-08
-8.57119e-08
1.39018e-08
-8.88122e-08
1.3779e-08
-9.18843e-08
1.36362e-08
-9.49229e-08
1.34743e-08
-9.79231e-08