/*--------------------------------*- C++ -*----------------------------------*\
  =========                 |
  \\      /  F ield         | OpenFOAM: The Open Source CFD Toolbox
   \\    /   O peration     | Website:  https://openfoam.org
    \\  /    A nd           | Version:  7
     \\/     M anipulation  |
\*---------------------------------------------------------------------------*/
FoamFile
{
    version     2.0;
    format      ascii;
    class       volVectorField;
    location    "0.0375";
    object      U;
}
// * * * * * * * * * * * * * * * * * * * * * * * * * * * * * * * * * * * * * //

dimensions      [0 1 -1 0 0 0 0];

internalField   nonuniform List<vector> 
25600
(
(-2.39636e-06 2.05659e-06 0)
(-4.0456e-06 -2.21876e-06 0)
(5.05606e-06 -1.03928e-05 0)
(2.45567e-05 -1.50605e-05 0)
(5.03934e-05 -1.75719e-05 0)
(7.76369e-05 -1.82346e-05 0)
(0.00010441 -1.80015e-05 0)
(0.000128847 -1.67153e-05 0)
(0.000149187 -1.4531e-05 0)
(0.000165139 -1.19308e-05 0)
(0.000175518 -8.79361e-06 0)
(0.000179596 -5.17102e-06 0)
(0.000177846 -1.77e-06 0)
(0.000169671 1.86232e-06 0)
(0.000155359 5.2812e-06 0)
(0.000135452 8.50249e-06 0)
(0.00011018 1.13894e-05 0)
(8.02755e-05 1.39168e-05 0)
(4.63034e-05 1.6048e-05 0)
(8.86538e-06 1.76364e-05 0)
(-3.12082e-05 1.86661e-05 0)
(-7.33248e-05 1.95096e-05 0)
(-0.000117146 1.9952e-05 0)
(-0.000162232 2.03537e-05 0)
(-0.000208079 2.04998e-05 0)
(-0.000254922 2.04362e-05 0)
(-0.000301969 2.02208e-05 0)
(-0.000349449 2.01988e-05 0)
(-0.000397223 1.98758e-05 0)
(-0.000444952 1.95497e-05 0)
(-0.000492603 1.91962e-05 0)
(-0.000539965 1.85572e-05 0)
(-0.000587114 1.78375e-05 0)
(-0.000633605 1.72908e-05 0)
(-0.000679857 1.66281e-05 0)
(-0.00072537 1.56254e-05 0)
(-0.000769828 1.45834e-05 0)
(-0.000813438 1.35617e-05 0)
(-0.000855985 1.24977e-05 0)
(-0.000897107 1.1586e-05 0)
(-0.000936904 1.08504e-05 0)
(-0.000975417 1.00062e-05 0)
(-0.00101238 8.96622e-06 0)
(-0.00104782 7.93624e-06 0)
(-0.00108202 7.00252e-06 0)
(-0.0011151 6.24595e-06 0)
(-0.00114729 5.84313e-06 0)
(-0.00117882 5.71254e-06 0)
(-0.00120983 5.62839e-06 0)
(-0.0012404 5.49259e-06 0)
(-0.0012705 5.36801e-06 0)
(-0.00130014 5.30043e-06 0)
(-0.00132929 5.20311e-06 0)
(-0.00135783 5.07598e-06 0)
(-0.00138566 4.9443e-06 0)
(-0.00141267 4.78288e-06 0)
(-0.00143887 4.64059e-06 0)
(-0.00146423 4.51268e-06 0)
(-0.00148874 4.44601e-06 0)
(-0.00151254 4.49366e-06 0)
(-0.0015357 4.56034e-06 0)
(-0.0015583 4.66981e-06 0)
(-0.00158045 4.88152e-06 0)
(-0.00160215 5.12942e-06 0)
(-0.00162341 5.37695e-06 0)
(-0.00164422 5.57519e-06 0)
(-0.00166444 5.69322e-06 0)
(-0.00168402 5.78877e-06 0)
(-0.00170287 5.87309e-06 0)
(-0.00172097 5.93612e-06 0)
(-0.0017383 5.99609e-06 0)
(-0.00175481 6.03214e-06 0)
(-0.00177047 6.02944e-06 0)
(-0.00178527 5.97472e-06 0)
(-0.00179907 5.81037e-06 0)
(-0.00181169 5.52625e-06 0)
(-0.00182295 5.15471e-06 0)
(-0.00183265 4.67505e-06 0)
(-0.00184058 4.08016e-06 0)
(-0.00184668 3.42545e-06 0)
(-0.0018509 2.76631e-06 0)
(-0.00185329 2.15492e-06 0)
(-0.00185398 1.64323e-06 0)
(-0.00185312 1.21927e-06 0)
(-0.00185079 8.25955e-07 0)
(-0.00184705 4.34512e-07 0)
(-0.0018419 2.90693e-08 0)
(-0.00183526 -4.18325e-07 0)
(-0.00182707 -9.14348e-07 0)
(-0.00181732 -1.446e-06 0)
(-0.00180593 -2.00534e-06 0)
(-0.00179288 -2.56777e-06 0)
(-0.00177824 -3.09457e-06 0)
(-0.0017621 -3.58701e-06 0)
(-0.00174449 -4.08146e-06 0)
(-0.00172539 -4.59049e-06 0)
(-0.00170484 -5.1103e-06 0)
(-0.0016828 -5.66622e-06 0)
(-0.00165919 -6.28726e-06 0)
(-0.00163394 -6.95803e-06 0)
(-0.00160704 -7.64267e-06 0)
(-0.00157847 -8.32715e-06 0)
(-0.00154825 -9.0049e-06 0)
(-0.00151642 -9.65293e-06 0)
(-0.00148308 -1.02492e-05 0)
(-0.00144837 -1.07882e-05 0)
(-0.00141237 -1.1268e-05 0)
(-0.00137521 -1.16857e-05 0)
(-0.00133699 -1.20513e-05 0)
(-0.00129783 -1.23788e-05 0)
(-0.00125781 -1.2662e-05 0)
(-0.00121703 -1.28822e-05 0)
(-0.0011756 -1.30355e-05 0)
(-0.00113367 -1.31315e-05 0)
(-0.00109135 -1.31668e-05 0)
(-0.00104878 -1.31237e-05 0)
(-0.00100613 -1.29941e-05 0)
(-0.00096355 -1.2785e-05 0)
(-0.000921209 -1.2506e-05 0)
(-0.000879215 -1.21724e-05 0)
(-0.00083763 -1.18263e-05 0)
(-0.000796474 -1.15285e-05 0)
(-0.000755732 -1.1313e-05 0)
(-0.00071537 -1.11593e-05 0)
(-0.000675359 -1.10269e-05 0)
(-0.000635693 -1.09006e-05 0)
(-0.000596406 -1.07817e-05 0)
(-0.000557558 -1.06547e-05 0)
(-0.000519239 -1.04911e-05 0)
(-0.000481563 -1.02851e-05 0)
(-0.000444646 -1.00629e-05 0)
(-0.000408577 -9.85025e-06 0)
(-0.000373417 -9.64855e-06 0)
(-0.000339193 -9.45507e-06 0)
(-0.000305912 -9.28261e-06 0)
(-0.000273584 -9.14469e-06 0)
(-0.000242241 -9.0367e-06 0)
(-0.000211919 -8.92709e-06 0)
(-0.000182674 -8.77201e-06 0)
(-0.000154598 -8.5634e-06 0)
(-0.000127791 -8.30977e-06 0)
(-0.00010241 -7.97287e-06 0)
(-7.86672e-05 -7.50612e-06 0)
(-5.6783e-05 -6.88382e-06 0)
(-3.70113e-05 -6.10863e-06 0)
(-1.95648e-05 -5.25501e-06 0)
(-4.57261e-06 -4.36593e-06 0)
(7.83044e-06 -3.42219e-06 0)
(1.75615e-05 -2.43325e-06 0)
(2.45631e-05 -1.3998e-06 0)
(2.88033e-05 -3.8759e-07 0)
(3.04419e-05 4.96373e-07 0)
(2.97369e-05 1.20571e-06 0)
(2.70757e-05 1.67234e-06 0)
(2.29687e-05 1.90539e-06 0)
(1.78662e-05 1.95382e-06 0)
(1.22522e-05 1.7917e-06 0)
(6.7627e-06 1.39331e-06 0)
(2.30018e-06 7.73726e-07 0)
(2.74167e-07 2.0438e-08 0)
(-6.50717e-06 5.85594e-06 0)
(-1.12188e-05 -2.87213e-06 0)
(-3.2361e-06 -2.53027e-05 0)
(2.22725e-05 -3.92102e-05 0)
(5.68122e-05 -4.56771e-05 0)
(9.37103e-05 -4.67873e-05 0)
(0.000128478 -4.39714e-05 0)
(0.000158844 -3.83462e-05 0)
(0.000182203 -3.08062e-05 0)
(0.000196289 -2.1307e-05 0)
(0.000200888 -1.10747e-05 0)
(0.000194987 -1.58115e-08 0)
(0.000177849 1.13081e-05 0)
(0.000149812 2.22733e-05 0)
(0.000110829 3.3172e-05 0)
(6.16057e-05 4.31725e-05 0)
(2.62203e-06 5.2171e-05 0)
(-6.55673e-05 6.03735e-05 0)
(-0.000141928 6.72359e-05 0)
(-0.000225328 7.30343e-05 0)
(-0.000315008 7.77124e-05 0)
(-0.000410516 8.12015e-05 0)
(-0.000510846 8.42608e-05 0)
(-0.000615286 8.64989e-05 0)
(-0.000723371 8.85069e-05 0)
(-0.0008343 8.95459e-05 0)
(-0.000948004 9.09586e-05 0)
(-0.00106404 9.12386e-05 0)
(-0.00118184 9.20957e-05 0)
(-0.00130109 9.20768e-05 0)
(-0.00142177 9.21271e-05 0)
(-0.00154332 9.1672e-05 0)
(-0.00166529 9.1238e-05 0)
(-0.00178778 9.04884e-05 0)
(-0.00191014 8.95138e-05 0)
(-0.00203203 8.82986e-05 0)
(-0.00215342 8.67e-05 0)
(-0.00227382 8.4755e-05 0)
(-0.0023929 8.26016e-05 0)
(-0.0025106 8.03548e-05 0)
(-0.00262668 7.80114e-05 0)
(-0.00274087 7.55913e-05 0)
(-0.00285303 7.31591e-05 0)
(-0.00296309 7.07578e-05 0)
(-0.00307111 6.85132e-05 0)
(-0.00317722 6.65643e-05 0)
(-0.00328145 6.50659e-05 0)
(-0.0033839 6.39355e-05 0)
(-0.00348469 6.29274e-05 0)
(-0.00358382 6.19915e-05 0)
(-0.00368116 6.10283e-05 0)
(-0.00377665 5.99688e-05 0)
(-0.00387031 5.87799e-05 0)
(-0.00396193 5.74139e-05 0)
(-0.00405127 5.59545e-05 0)
(-0.00413822 5.43465e-05 0)
(-0.00422271 5.26137e-05 0)
(-0.0043047 5.09566e-05 0)
(-0.00438404 4.93867e-05 0)
(-0.00446072 4.79517e-05 0)
(-0.0045349 4.6661e-05 0)
(-0.00460658 4.54392e-05 0)
(-0.00467572 4.43465e-05 0)
(-0.00474235 4.33168e-05 0)
(-0.00480641 4.21975e-05 0)
(-0.00486785 4.09701e-05 0)
(-0.00492653 3.96008e-05 0)
(-0.00498226 3.80809e-05 0)
(-0.00503499 3.6473e-05 0)
(-0.00508462 3.47858e-05 0)
(-0.00513103 3.30383e-05 0)
(-0.00517417 3.12691e-05 0)
(-0.0052139 2.942e-05 0)
(-0.00525005 2.7387e-05 0)
(-0.00528256 2.50982e-05 0)
(-0.00531123 2.24984e-05 0)
(-0.00533572 1.95682e-05 0)
(-0.00535586 1.63401e-05 0)
(-0.00537152 1.28775e-05 0)
(-0.0053825 9.28342e-06 0)
(-0.00538878 5.7094e-06 0)
(-0.00539043 2.28814e-06 0)
(-0.00538748 -9.34149e-07 0)
(-0.00538007 -3.9786e-06 0)
(-0.00536834 -6.89095e-06 0)
(-0.00535227 -9.74908e-06 0)
(-0.00533181 -1.26529e-05 0)
(-0.00530703 -1.5657e-05 0)
(-0.00527792 -1.87526e-05 0)
(-0.00524437 -2.19193e-05 0)
(-0.00520642 -2.51258e-05 0)
(-0.00516417 -2.82942e-05 0)
(-0.00511762 -3.13522e-05 0)
(-0.00506674 -3.43106e-05 0)
(-0.00501167 -3.72245e-05 0)
(-0.00495256 -4.01223e-05 0)
(-0.00488933 -4.30306e-05 0)
(-0.00482195 -4.60116e-05 0)
(-0.00475055 -4.91042e-05 0)
(-0.00467518 -5.22676e-05 0)
(-0.00459578 -5.54322e-05 0)
(-0.00451233 -5.85604e-05 0)
(-0.00442502 -6.16223e-05 0)
(-0.00433405 -6.45599e-05 0)
(-0.00423953 -6.7314e-05 0)
(-0.00414163 -6.98598e-05 0)
(-0.00404064 -7.21969e-05 0)
(-0.00393676 -7.43309e-05 0)
(-0.00383014 -7.6275e-05 0)
(-0.00372099 -7.80427e-05 0)
(-0.0036096 -7.96254e-05 0)
(-0.00349622 -8.09953e-05 0)
(-0.00338103 -8.21331e-05 0)
(-0.00326427 -8.30356e-05 0)
(-0.0031463 -8.36945e-05 0)
(-0.00302742 -8.40868e-05 0)
(-0.00290787 -8.41915e-05 0)
(-0.00278793 -8.40089e-05 0)
(-0.00266787 -8.35702e-05 0)
(-0.00254798 -8.29426e-05 0)
(-0.00242843 -8.22213e-05 0)
(-0.00230938 -8.14936e-05 0)
(-0.002191 -8.0796e-05 0)
(-0.00207345 -8.01112e-05 0)
(-0.00195683 -7.94069e-05 0)
(-0.00184122 -7.86586e-05 0)
(-0.00172682 -7.78276e-05 0)
(-0.00161389 -7.68465e-05 0)
(-0.00150268 -7.56555e-05 0)
(-0.0013934 -7.42437e-05 0)
(-0.00128628 -7.2648e-05 0)
(-0.00118156 -7.09184e-05 0)
(-0.0010795 -6.9089e-05 0)
(-0.000980279 -6.71788e-05 0)
(-0.000884046 -6.52108e-05 0)
(-0.000790987 -6.31987e-05 0)
(-0.000701319 -6.1118e-05 0)
(-0.000615254 -5.89225e-05 0)
(-0.000532996 -5.65706e-05 0)
(-0.000454769 -5.40239e-05 0)
(-0.000380846 -5.12417e-05 0)
(-0.000311556 -4.81466e-05 0)
(-0.000247237 -4.46381e-05 0)
(-0.00018822 -4.06926e-05 0)
(-0.000134861 -3.63594e-05 0)
(-8.75056e-05 -3.17184e-05 0)
(-4.6433e-05 -2.68679e-05 0)
(-1.18447e-05 -2.18278e-05 0)
(1.61688e-05 -1.66297e-05 0)
(3.7595e-05 -1.14005e-05 0)
(5.24931e-05 -6.27919e-06 0)
(6.10943e-05 -1.51766e-06 0)
(6.38117e-05 2.64475e-06 0)
(6.12691e-05 6.05625e-06 0)
(5.43217e-05 8.5623e-06 0)
(4.39844e-05 1.0124e-05 0)
(3.14539e-05 1.05983e-05 0)
(1.84611e-05 9.63436e-06 0)
(7.30258e-06 6.95439e-06 0)
(1.26288e-06 2.26983e-06 0)
(-1.14742e-05 1.75897e-05 0)
(-2.3328e-05 1.39348e-06 0)
(-2.39765e-05 -3.90597e-05 0)
(-8.35969e-06 -6.59217e-05 0)
(1.53301e-05 -7.69886e-05 0)
(4.03056e-05 -7.79397e-05 0)
(6.23634e-05 -7.11758e-05 0)
(7.76483e-05 -5.87315e-05 0)
(8.45537e-05 -4.22076e-05 0)
(8.14434e-05 -2.30186e-05 0)
(6.66196e-05 -1.30812e-06 0)
(4.02841e-05 2.11013e-05 0)
(1.76048e-06 4.41259e-05 0)
(-4.89844e-05 6.70083e-05 0)
(-0.000111811 8.90395e-05 0)
(-0.000186691 0.000109992 0)
(-0.000272544 0.000129607 0)
(-0.000369489 0.000147108 0)
(-0.000476727 0.000163204 0)
(-0.000593269 0.000177027 0)
(-0.000719087 0.00018903 0)
(-0.000852864 0.000199298 0)
(-0.000994389 0.000208248 0)
(-0.001143 0.000215747 0)
(-0.00129789 0.000222288 0)
(-0.00145829 0.000227958 0)
(-0.00162406 0.000232388 0)
(-0.00179424 0.000236539 0)
(-0.00196833 0.000239614 0)
(-0.00214656 0.000242152 0)
(-0.00232747 0.000244022 0)
(-0.00251104 0.000245243 0)
(-0.00269698 0.000245769 0)
(-0.00288472 0.000245917 0)
(-0.00307363 0.000245512 0)
(-0.00326346 0.000244299 0)
(-0.00345375 0.000242525 0)
(-0.00364418 0.0002402 0)
(-0.00383438 0.000237145 0)
(-0.00402383 0.000233556 0)
(-0.00421237 0.000229645 0)
(-0.00439982 0.000225408 0)
(-0.00458578 0.000221024 0)
(-0.00476999 0.000216721 0)
(-0.00495225 0.00021254 0)
(-0.00513234 0.000208551 0)
(-0.00531005 0.000204873 0)
(-0.00548522 0.00020148 0)
(-0.00565771 0.000198164 0)
(-0.00582731 0.000194825 0)
(-0.00599383 0.000191422 0)
(-0.00615707 0.000187766 0)
(-0.00631694 0.000183811 0)
(-0.00647326 0.00017956 0)
(-0.00662571 0.000174979 0)
(-0.0067742 0.000170151 0)
(-0.00691857 0.000165083 0)
(-0.00705861 0.000159905 0)
(-0.0071942 0.000154816 0)
(-0.00732516 0.000149779 0)
(-0.00745138 0.000144814 0)
(-0.00757281 0.000139948 0)
(-0.0076892 0.000135095 0)
(-0.00780048 0.000130219 0)
(-0.00790658 0.000125198 0)
(-0.00800733 0.00011991 0)
(-0.00810263 0.000114389 0)
(-0.00819228 0.000108624 0)
(-0.00827617 0.000102588 0)
(-0.00835425 9.63661e-05 0)
(-0.00842633 8.99816e-05 0)
(-0.0084922 8.34169e-05 0)
(-0.0085518 7.66735e-05 0)
(-0.00860497 6.96308e-05 0)
(-0.00865154 6.21378e-05 0)
(-0.00869142 5.417e-05 0)
(-0.00872448 4.57173e-05 0)
(-0.00875058 3.6779e-05 0)
(-0.00876972 2.74916e-05 0)
(-0.00878183 1.8046e-05 0)
(-0.00878679 8.59359e-06 0)
(-0.0087846 -7.05886e-07 0)
(-0.00877531 -9.74541e-06 0)
(-0.00875885 -1.85584e-05 0)
(-0.00873524 -2.72279e-05 0)
(-0.00870454 -3.58127e-05 0)
(-0.00866675 -4.44e-05 0)
(-0.00862185 -5.308e-05 0)
(-0.00856998 -6.18608e-05 0)
(-0.00851123 -7.06907e-05 0)
(-0.0084456 -7.95104e-05 0)
(-0.00837311 -8.82421e-05 0)
(-0.00829387 -9.68154e-05 0)
(-0.00820796 -0.000105224 0)
(-0.00811542 -0.000113505 0)
(-0.00801631 -0.000121691 0)
(-0.00791077 -0.000129833 0)
(-0.00779895 -0.000137996 0)
(-0.00768097 -0.000146198 0)
(-0.00755696 -0.000154378 0)
(-0.00742702 -0.000162465 0)
(-0.00729133 -0.000170403 0)
(-0.0071501 -0.000178115 0)
(-0.00700352 -0.000185502 0)
(-0.00685182 -0.000192497 0)
(-0.00669525 -0.000199073 0)
(-0.00653404 -0.000205205 0)
(-0.00636846 -0.000210876 0)
(-0.00619876 -0.000216095 0)
(-0.00602528 -0.000220883 0)
(-0.00584835 -0.000225217 0)
(-0.00566826 -0.000229042 0)
(-0.00548531 -0.000232326 0)
(-0.00529985 -0.000235065 0)
(-0.0051123 -0.00023725 0)
(-0.00492303 -0.000238846 0)
(-0.00473233 -0.000239821 0)
(-0.00454054 -0.000240191 0)
(-0.004348 -0.000240012 0)
(-0.00415508 -0.000239371 0)
(-0.00396213 -0.000238366 0)
(-0.00376949 -0.000237087 0)
(-0.00357753 -0.00023558 0)
(-0.00338663 -0.000233845 0)
(-0.00319707 -0.000231854 0)
(-0.00300917 -0.000229566 0)
(-0.00282331 -0.000226923 0)
(-0.00263992 -0.000223846 0)
(-0.00245937 -0.000220265 0)
(-0.00228198 -0.000216154 0)
(-0.0021081 -0.000211536 0)
(-0.00193811 -0.000206465 0)
(-0.00177245 -0.000200994 0)
(-0.00161151 -0.000195165 0)
(-0.00145567 -0.000189006 0)
(-0.00130528 -0.00018251 0)
(-0.00116073 -0.00017564 0)
(-0.00102241 -0.000168357 0)
(-0.00089071 -0.000160616 0)
(-0.000766024 -0.000152367 0)
(-0.000648728 -0.000143547 0)
(-0.000539211 -0.000134046 0)
(-0.000437835 -0.000123775 0)
(-0.00034493 -0.00011273 0)
(-0.000260838 -0.000100974 0)
(-0.000185861 -8.86389e-05 0)
(-0.000120247 -7.58483e-05 0)
(-6.41952e-05 -6.26989e-05 0)
(-1.77768e-05 -4.93418e-05 0)
(1.90296e-05 -3.59853e-05 0)
(4.63649e-05 -2.29363e-05 0)
(6.45448e-05 -1.05964e-05 0)
(7.40071e-05 6.14151e-07 0)
(7.54232e-05 1.02706e-05 0)
(6.97436e-05 1.79885e-05 0)
(5.82581e-05 2.33641e-05 0)
(4.26444e-05 2.58357e-05 0)
(2.54104e-05 2.45152e-05 0)
(1.0247e-05 1.83284e-05 0)
(1.65621e-06 7.17424e-06 0)
(-1.41557e-05 3.40195e-05 0)
(-3.10072e-05 1.52792e-05 0)
(-4.08093e-05 -4.28471e-05 0)
(-3.50704e-05 -8.06108e-05 0)
(-2.23559e-05 -9.59152e-05 0)
(-1.07838e-05 -9.50523e-05 0)
(-3.6884e-06 -8.26399e-05 0)
(-4.13934e-06 -6.20721e-05 0)
(-1.48408e-05 -3.53564e-05 0)
(-3.72115e-05 -4.57874e-06 0)
(-7.20483e-05 2.89924e-05 0)
(-0.000120227 6.43742e-05 0)
(-0.000181695 0.000100117 0)
(-0.000256893 0.000135907 0)
(-0.000345628 0.000170668 0)
(-0.000447217 0.000204056 0)
(-0.00056221 0.000235452 0)
(-0.000689745 0.000264781 0)
(-0.000829407 0.000291662 0)
(-0.000980923 0.000316093 0)
(-0.00114324 0.000337946 0)
(-0.00131631 0.00035779 0)
(-0.00149951 0.000374883 0)
(-0.00169202 0.000390752 0)
(-0.00189298 0.00040429 0)
(-0.00210218 0.000416798 0)
(-0.00231856 0.000427232 0)
(-0.0025416 0.000437007 0)
(-0.0027709 0.000444728 0)
(-0.00300522 0.000451757 0)
(-0.00324476 0.000457301 0)
(-0.00348861 0.000461808 0)
(-0.00373575 0.000465099 0)
(-0.00398611 0.000467361 0)
(-0.00423915 0.00046852 0)
(-0.00449405 0.000468592 0)
(-0.00475043 0.000467639 0)
(-0.00500802 0.000465643 0)
(-0.00526618 0.000462714 0)
(-0.00552427 0.000458871 0)
(-0.00578203 0.000454126 0)
(-0.00603907 0.000448687 0)
(-0.00629487 0.000442822 0)
(-0.00654915 0.000436677 0)
(-0.00680158 0.000430367 0)
(-0.00705161 0.000424013 0)
(-0.00729866 0.000417609 0)
(-0.00754249 0.000411106 0)
(-0.00778284 0.000404442 0)
(-0.00801923 0.000397528 0)
(-0.00825135 0.000390309 0)
(-0.00847896 0.000382614 0)
(-0.00870182 0.000374361 0)
(-0.00891969 0.000365643 0)
(-0.00913218 0.000356399 0)
(-0.00933914 0.000346644 0)
(-0.0095404 0.000336515 0)
(-0.00973556 0.000326062 0)
(-0.0099244 0.000315434 0)
(-0.0101067 0.000304698 0)
(-0.0102823 0.000293812 0)
(-0.0104508 0.000282856 0)
(-0.010612 0.000271779 0)
(-0.0107657 0.000260432 0)
(-0.0109118 0.000248795 0)
(-0.0110501 0.000236799 0)
(-0.0111803 0.00022439 0)
(-0.0113024 0.00021162 0)
(-0.0114162 0.000198456 0)
(-0.0115215 0.000184891 0)
(-0.0116181 0.000171033 0)
(-0.0117059 0.000156862 0)
(-0.0117847 0.000142292 0)
(-0.0118543 0.000127301 0)
(-0.0119148 0.000111818 0)
(-0.0119658 9.57473e-05 0)
(-0.0120075 7.91065e-05 0)
(-0.0120397 6.19602e-05 0)
(-0.0120625 4.4395e-05 0)
(-0.0120758 2.65997e-05 0)
(-0.0120796 8.79174e-06 0)
(-0.0120737 -8.90169e-06 0)
(-0.0120582 -2.64215e-05 0)
(-0.012033 -4.37395e-05 0)
(-0.0119982 -6.08795e-05 0)
(-0.0119536 -7.79098e-05 0)
(-0.0118992 -9.49068e-05 0)
(-0.0118354 -0.000111928 0)
(-0.011762 -0.000128974 0)
(-0.0116793 -0.000145987 0)
(-0.0115872 -0.000162899 0)
(-0.011486 -0.000179658 0)
(-0.0113757 -0.000196202 0)
(-0.0112563 -0.000212485 0)
(-0.011128 -0.00022852 0)
(-0.010991 -0.000244354 0)
(-0.0108454 -0.000260018 0)
(-0.0106913 -0.000275514 0)
(-0.010529 -0.000290845 0)
(-0.0103588 -0.000305983 0)
(-0.0101809 -0.000320841 0)
(-0.00999539 -0.000335308 0)
(-0.00980268 -0.000349303 0)
(-0.00960307 -0.000362763 0)
(-0.00939679 -0.000375597 0)
(-0.00918408 -0.000387712 0)
(-0.00896527 -0.000399064 0)
(-0.00874073 -0.000409661 0)
(-0.0085108 -0.000419507 0)
(-0.00827582 -0.000428564 0)
(-0.00803622 -0.00043678 0)
(-0.00779238 -0.000444122 0)
(-0.00754467 -0.00045057 0)
(-0.00729354 -0.000456095 0)
(-0.00703946 -0.000460655 0)
(-0.00678288 -0.000464221 0)
(-0.00652418 -0.000466783 0)
(-0.00626376 -0.000468356 0)
(-0.00600207 -0.00046898 0)
(-0.00573961 -0.000468731 0)
(-0.00547682 -0.000467705 0)
(-0.00521422 -0.00046598 0)
(-0.00495234 -0.000463585 0)
(-0.00469172 -0.000460507 0)
(-0.00443285 -0.000456717 0)
(-0.0041762 -0.000452179 0)
(-0.00392233 -0.000446845 0)
(-0.0036718 -0.000440647 0)
(-0.00342512 -0.000433515 0)
(-0.00318273 -0.000425407 0)
(-0.00294512 -0.000416327 0)
(-0.00271283 -0.000406328 0)
(-0.00248646 -0.000395474 0)
(-0.00226658 -0.000383807 0)
(-0.00205369 -0.000371334 0)
(-0.00184831 -0.000358034 0)
(-0.00165098 -0.000343877 0)
(-0.00146227 -0.000328845 0)
(-0.00128269 -0.000312909 0)
(-0.00111275 -0.000296017 0)
(-0.000952911 -0.000278107 0)
(-0.00080364 -0.000259107 0)
(-0.000665363 -0.00023898 0)
(-0.00053842 -0.000217767 0)
(-0.00042313 -0.000195549 0)
(-0.000319781 -0.000172462 0)
(-0.000228598 -0.000148691 0)
(-0.000149782 -0.000124439 0)
(-8.33862e-05 -9.9984e-05 0)
(-2.93156e-05 -7.56623e-05 0)
(1.26301e-05 -5.18848e-05 0)
(4.282e-05 -2.9196e-05 0)
(6.17453e-05 -8.2205e-06 0)
(7.01616e-05 1.03373e-05 0)
(6.92041e-05 2.5683e-05 0)
(6.04192e-05 3.6927e-05 0)
(4.57603e-05 4.28732e-05 0)
(2.79589e-05 4.19582e-05 0)
(1.14658e-05 3.21041e-05 0)
(1.87938e-06 1.30625e-05 0)
(-1.58389e-05 5.48415e-05 0)
(-3.59632e-05 3.66533e-05 0)
(-5.18638e-05 -3.72685e-05 0)
(-5.53272e-05 -8.39338e-05 0)
(-5.36478e-05 -0.000101491 0)
(-5.41665e-05 -9.73275e-05 0)
(-6.11374e-05 -7.79243e-05 0)
(-7.78469e-05 -4.74434e-05 0)
(-0.000105962 -9.16472e-06 0)
(-0.000147279 3.43604e-05 0)
(-0.000202981 8.15677e-05 0)
(-0.000273451 0.000130943 0)
(-0.000359024 0.000181033 0)
(-0.00045969 0.000230875 0)
(-0.000575707 0.000279879 0)
(-0.000706998 0.000327079 0)
(-0.000852651 0.00037208 0)
(-0.001013 0.0004148 0)
(-0.00118764 0.000454319 0)
(-0.00137577 0.000491394 0)
(-0.00157717 0.000525155 0)
(-0.0017914 0.000556 0)
(-0.00201741 0.00058444 0)
(-0.00225489 0.000609872 0)
(-0.00250317 0.000633206 0)
(-0.00276123 0.000653947 0)
(-0.0030286 0.000672934 0)
(-0.0033044 0.000689377 0)
(-0.00358792 0.00070424 0)
(-0.00387856 0.000717079 0)
(-0.00417551 0.000727849 0)
(-0.00447789 0.000737086 0)
(-0.0047854 0.000744561 0)
(-0.00509708 0.000750228 0)
(-0.00541224 0.000754241 0)
(-0.00573029 0.000756585 0)
(-0.00605065 0.000757232 0)
(-0.00637277 0.000756315 0)
(-0.00669607 0.000754039 0)
(-0.00701993 0.000750409 0)
(-0.00734382 0.000745446 0)
(-0.00766713 0.000739322 0)
(-0.0079893 0.000732185 0)
(-0.00830989 0.000724182 0)
(-0.00862832 0.000715522 0)
(-0.008944 0.000706385 0)
(-0.00925635 0.00069673 0)
(-0.00956484 0.000686473 0)
(-0.00986897 0.00067566 0)
(-0.0101682 0.000664215 0)
(-0.0104622 0.000652027 0)
(-0.0107506 0.000639065 0)
(-0.0110329 0.000625246 0)
(-0.0113088 0.000610621 0)
(-0.011578 0.000595201 0)
(-0.0118402 0.000578949 0)
(-0.0120951 0.000562058 0)
(-0.0123422 0.000544613 0)
(-0.0125812 0.000526606 0)
(-0.0128119 0.000508185 0)
(-0.0130339 0.000489374 0)
(-0.0132468 0.000470163 0)
(-0.0134504 0.000450596 0)
(-0.0136444 0.00043054 0)
(-0.0138285 0.000409924 0)
(-0.0140024 0.000388798 0)
(-0.0141661 0.000367092 0)
(-0.0143192 0.000344774 0)
(-0.0144616 0.000321926 0)
(-0.0145932 0.000298555 0)
(-0.0147136 0.000274655 0)
(-0.0148227 0.000250274 0)
(-0.0149204 0.00022537 0)
(-0.0150064 0.000199865 0)
(-0.0150807 0.000173771 0)
(-0.0151432 0.000147097 0)
(-0.0151939 0.000119804 0)
(-0.0152326 9.19432e-05 0)
(-0.0152596 6.36767e-05 0)
(-0.0152746 3.51637e-05 0)
(-0.0152775 6.54236e-06 0)
(-0.0152685 -2.20382e-05 0)
(-0.0152475 -5.04722e-05 0)
(-0.0152142 -7.87328e-05 0)
(-0.0151688 -0.00010683 0)
(-0.0151113 -0.000134786 0)
(-0.0150417 -0.000162642 0)
(-0.01496 -0.000190426 0)
(-0.0148665 -0.000218122 0)
(-0.0147613 -0.000245682 0)
(-0.0146444 -0.000273036 0)
(-0.014516 -0.000300104 0)
(-0.0143762 -0.000326834 0)
(-0.0142252 -0.000353205 0)
(-0.0140631 -0.000379194 0)
(-0.0138901 -0.000404772 0)
(-0.0137064 -0.000429957 0)
(-0.0135122 -0.000454776 0)
(-0.013308 -0.000479189 0)
(-0.0130939 -0.000503097 0)
(-0.0128702 -0.000526414 0)
(-0.0126372 -0.00054909 0)
(-0.0123954 -0.000571037 0)
(-0.012145 -0.00059212 0)
(-0.0118863 -0.000612224 0)
(-0.0116198 -0.000631288 0)
(-0.0113458 -0.000649273 0)
(-0.0110647 -0.000666127 0)
(-0.0107769 -0.000681803 0)
(-0.0104828 -0.000696271 0)
(-0.010183 -0.000709488 0)
(-0.00987794 -0.000721397 0)
(-0.00956803 -0.000731942 0)
(-0.00925379 -0.000741091 0)
(-0.00893579 -0.000748818 0)
(-0.00861457 -0.000755092 0)
(-0.00829061 -0.000759881 0)
(-0.0079644 -0.000763179 0)
(-0.0076365 -0.000765015 0)
(-0.00730752 -0.000765452 0)
(-0.00697806 -0.000764565 0)
(-0.00664873 -0.000762407 0)
(-0.00632018 -0.000758991 0)
(-0.00599308 -0.000754297 0)
(-0.00566809 -0.000748289 0)
(-0.00534584 -0.000740932 0)
(-0.00502703 -0.000732187 0)
(-0.00471234 -0.000721991 0)
(-0.00440238 -0.000710272 0)
(-0.00409776 -0.000696987 0)
(-0.00379912 -0.000682146 0)
(-0.00350714 -0.000665794 0)
(-0.00322256 -0.000647983 0)
(-0.00294605 -0.000628733 0)
(-0.00267824 -0.000608043 0)
(-0.00241978 -0.00058591 0)
(-0.00217136 -0.000562325 0)
(-0.00193367 -0.000537277 0)
(-0.00170732 -0.000510759 0)
(-0.00149292 -0.000482735 0)
(-0.00129102 -0.000453181 0)
(-0.00110214 -0.000422092 0)
(-0.000926781 -0.000389477 0)
(-0.000765315 -0.000355413 0)
(-0.000618074 -0.000320031 0)
(-0.000485362 -0.000283507 0)
(-0.000367406 -0.000246113 0)
(-0.000264391 -0.000208161 0)
(-0.000176344 -0.000170026 0)
(-0.000103117 -0.000132181 0)
(-4.44587e-05 -9.51818e-05 0)
(4.58617e-08 -5.97471e-05 0)
(3.0971e-05 -2.67157e-05 0)
(4.91619e-05 2.92984e-06 0)
(5.59053e-05 2.7998e-05 0)
(5.29173e-05 4.70142e-05 0)
(4.23787e-05 5.8067e-05 0)
(2.70869e-05 5.87099e-05 0)
(1.15847e-05 4.59832e-05 0)
(2.08038e-06 1.92438e-05 0)
(-1.63749e-05 7.7013e-05 0)
(-3.87422e-05 6.2389e-05 0)
(-6.02911e-05 -2.46424e-05 0)
(-7.1667e-05 -7.87548e-05 0)
(-8.02876e-05 -9.60898e-05 0)
(-9.35771e-05 -8.69071e-05 0)
(-0.000115266 -5.88973e-05 0)
(-0.000147835 -1.6739e-05 0)
(-0.000194237 3.46538e-05 0)
(-0.000255493 9.31052e-05 0)
(-0.000332301 0.000155497 0)
(-0.000426109 0.000220575 0)
(-0.000536848 0.000286864 0)
(-0.000664534 0.000352989 0)
(-0.000809384 0.000417891 0)
(-0.000970899 0.000481058 0)
(-0.00114911 0.000541844 0)
(-0.00134401 0.000599398 0)
(-0.00155468 0.00065425 0)
(-0.00178107 0.000705235 0)
(-0.00202273 0.000753134 0)
(-0.00227837 0.000797338 0)
(-0.0025484 0.000838307 0)
(-0.00283161 0.000875733 0)
(-0.00312694 0.00091041 0)
(-0.0034341 0.000941574 0)
(-0.00375212 0.000970169 0)
(-0.00408017 0.000995606 0)
(-0.00441727 0.00101858 0)
(-0.00476297 0.00103858 0)
(-0.00511626 0.00105634 0)
(-0.00547619 0.00107122 0)
(-0.00584209 0.00108369 0)
(-0.00621324 0.00109389 0)
(-0.00658886 0.00110167 0)
(-0.00696812 0.00110705 0)
(-0.00735028 0.00111009 0)
(-0.00773468 0.00111091 0)
(-0.0081206 0.0011096 0)
(-0.00850739 0.00110628 0)
(-0.00889443 0.00110114 0)
(-0.00928102 0.0010943 0)
(-0.00966642 0.00108581 0)
(-0.01005 0.00107584 0)
(-0.0104311 0.00106458 0)
(-0.0108091 0.00105213 0)
(-0.0111832 0.00103855 0)
(-0.0115528 0.00102386 0)
(-0.0119173 0.00100806 0)
(-0.0122761 0.000991117 0)
(-0.0126287 0.000972924 0)
(-0.0129745 0.000953544 0)
(-0.0133132 0.000932956 0)
(-0.0136442 0.000911093 0)
(-0.0139672 0.000888056 0)
(-0.0142817 0.000863869 0)
(-0.0145873 0.000838618 0)
(-0.0148837 0.000812472 0)
(-0.0151703 0.000785407 0)
(-0.0154468 0.000757494 0)
(-0.0157128 0.000728885 0)
(-0.0159678 0.000699529 0)
(-0.0162116 0.000669406 0)
(-0.0164438 0.000638557 0)
(-0.016664 0.000606912 0)
(-0.0168721 0.000574451 0)
(-0.0170676 0.000541219 0)
(-0.0172505 0.000507167 0)
(-0.0174204 0.000472303 0)
(-0.0175772 0.000436746 0)
(-0.0177206 0.000400516 0)
(-0.0178504 0.000363556 0)
(-0.0179664 0.000325901 0)
(-0.0180686 0.000287582 0)
(-0.0181566 0.00024855 0)
(-0.0182305 0.000208814 0)
(-0.0182902 0.00016845 0)
(-0.0183357 0.000127529 0)
(-0.0183669 8.61534e-05 0)
(-0.0183839 4.44829e-05 0)
(-0.0183865 2.675e-06 0)
(-0.0183747 -3.91504e-05 0)
(-0.0183485 -8.09008e-05 0)
(-0.0183078 -0.000122511 0)
(-0.0182527 -0.000163941 0)
(-0.018183 -0.000205177 0)
(-0.0180989 -0.000246243 0)
(-0.0180006 -0.000287152 0)
(-0.0178881 -0.000327848 0)
(-0.0177615 -0.000368243 0)
(-0.0176211 -0.000408284 0)
(-0.0174669 -0.000447929 0)
(-0.0172993 -0.000487098 0)
(-0.0171182 -0.000525701 0)
(-0.0169239 -0.0005637 0)
(-0.0167167 -0.000601097 0)
(-0.0164968 -0.000637874 0)
(-0.0162646 -0.000673969 0)
(-0.0160203 -0.000709306 0)
(-0.0157643 -0.000743823 0)
(-0.015497 -0.000777445 0)
(-0.0152187 -0.000810066 0)
(-0.0149298 -0.000841562 0)
(-0.0146308 -0.00087182 0)
(-0.014322 -0.000900741 0)
(-0.0140039 -0.000928229 0)
(-0.0136769 -0.000954191 0)
(-0.0133415 -0.00097856 0)
(-0.0129981 -0.0010013 0)
(-0.0126474 -0.00102235 0)
(-0.0122898 -0.00104164 0)
(-0.0119259 -0.00105909 0)
(-0.0115562 -0.00107463 0)
(-0.0111814 -0.00108823 0)
(-0.0108021 -0.00109986 0)
(-0.0104188 -0.00110947 0)
(-0.0100322 -0.001117 0)
(-0.00964291 -0.00112245 0)
(-0.00925155 -0.00112583 0)
(-0.00885888 -0.00112718 0)
(-0.0084656 -0.00112653 0)
(-0.00807241 -0.00112389 0)
(-0.00768008 -0.00111927 0)
(-0.00728941 -0.00111264 0)
(-0.00690117 -0.001104 0)
(-0.00651615 -0.00109328 0)
(-0.00613513 -0.00108046 0)
(-0.00575892 -0.00106544 0)
(-0.00538827 -0.00104819 0)
(-0.00502391 -0.00102867 0)
(-0.00466663 -0.0010069 0)
(-0.00431724 -0.000982887 0)
(-0.00397659 -0.000956672 0)
(-0.00364544 -0.000928262 0)
(-0.00332455 -0.000897667 0)
(-0.00301467 -0.000864902 0)
(-0.00271662 -0.000829976 0)
(-0.00243117 -0.000792895 0)
(-0.00215903 -0.000753679 0)
(-0.00190089 -0.000712336 0)
(-0.00165738 -0.000668886 0)
(-0.00142909 -0.00062338 0)
(-0.00121656 -0.000575879 0)
(-0.00102022 -0.000526517 0)
(-0.00084043 -0.000475501 0)
(-0.000677524 -0.00042309 0)
(-0.000531749 -0.000369643 0)
(-0.000403261 -0.000315564 0)
(-0.000292069 -0.00026133 0)
(-0.000197984 -0.000207557 0)
(-0.000120722 -0.000154995 0)
(-5.98211e-05 -0.000104571 0)
(-1.46219e-05 -5.73709e-05 0)
(1.58083e-05 -1.46507e-05 0)
(3.28192e-05 2.20489e-05 0)
(3.82008e-05 5.07117e-05 0)
(3.42098e-05 6.87146e-05 0)
(2.363e-05 7.26455e-05 0)
(1.0841e-05 5.86048e-05 0)
(2.2287e-06 2.52784e-05 0)
(-1.64478e-05 0.000100089 0)
(-3.98048e-05 9.11944e-05 0)
(-6.60499e-05 -5.45226e-06 0)
(-8.54697e-05 -6.41457e-05 0)
(-0.000104829 -7.90513e-05 0)
(-0.000131206 -6.30129e-05 0)
(-0.000167586 -2.3767e-05 0)
(-0.000217606 3.12562e-05 0)
(-0.00028269 9.80099e-05 0)
(-0.000364479 0.0001726 0)
(-0.000464432 0.00025234 0)
(-0.00058218 0.000335063 0)
(-0.000718856 0.000419179 0)
(-0.000874574 0.000503161 0)
(-0.00104917 0.000586311 0)
(-0.00124254 0.000667151 0)
(-0.00145444 0.000745288 0)
(-0.00168431 0.000820259 0)
(-0.0019323 0.000891606 0)
(-0.00219758 0.000959007 0)
(-0.0024795 0.00102246 0)
(-0.00277804 0.00108186 0)
(-0.00309188 0.0011369 0)
(-0.00342034 0.00118841 0)
(-0.00376312 0.00123544 0)
(-0.00411893 0.00127907 0)
(-0.00448697 0.00131859 0)
(-0.00486644 0.00135458 0)
(-0.00525637 0.00138687 0)
(-0.00565591 0.00141554 0)
(-0.00606418 0.00144094 0)
(-0.00648034 0.00146286 0)
(-0.00690312 0.00148139 0)
(-0.00733196 0.00149666 0)
(-0.00776607 0.00150879 0)
(-0.00820446 0.00151782 0)
(-0.00864627 0.00152378 0)
(-0.00909073 0.00152676 0)
(-0.00953703 0.00152683 0)
(-0.00998432 0.00152413 0)
(-0.0104318 0.00151882 0)
(-0.0108789 0.00151109 0)
(-0.0113247 0.00150103 0)
(-0.0117685 0.0014888 0)
(-0.0122094 0.00147456 0)
(-0.0126466 0.00145836 0)
(-0.0130796 0.00144031 0)
(-0.0135073 0.00142049 0)
(-0.0139292 0.0013989 0)
(-0.0143447 0.00137555 0)
(-0.014753 0.00135042 0)
(-0.0151535 0.00132351 0)
(-0.0155457 0.00129494 0)
(-0.0159292 0.00126461 0)
(-0.0163033 0.00123259 0)
(-0.0166675 0.00119903 0)
(-0.0170214 0.00116396 0)
(-0.0173645 0.00112746 0)
(-0.0176964 0.00108967 0)
(-0.0180165 0.00105061 0)
(-0.0183243 0.00101037 0)
(-0.0186195 0.000969038 0)
(-0.0189016 0.00092653 0)
(-0.0191702 0.000882884 0)
(-0.0194249 0.000838204 0)
(-0.0196655 0.000792417 0)
(-0.0198916 0.000745497 0)
(-0.020103 0.000697555 0)
(-0.0202994 0.000648609 0)
(-0.0204804 0.000598654 0)
(-0.0206459 0.000547787 0)
(-0.0207957 0.00049606 0)
(-0.0209296 0.000443447 0)
(-0.0210473 0.000389982 0)
(-0.0211487 0.00033574 0)
(-0.0212338 0.000280739 0)
(-0.0213025 0.000224999 0)
(-0.0213546 0.000168642 0)
(-0.0213903 0.000111838 0)
(-0.0214094 5.47167e-05 0)
(-0.0214118 -2.62214e-06 0)
(-0.0213976 -6.00434e-05 0)