/*--------------------------------*- C++ -*----------------------------------*\
  =========                 |
  \\      /  F ield         | OpenFOAM: The Open Source CFD Toolbox
   \\    /   O peration     | Website:  https://openfoam.org
    \\  /    A nd           | Version:  7
     \\/     M anipulation  |
\*---------------------------------------------------------------------------*/
FoamFile
{
    version     2.0;
    format      ascii;
    class       volScalarField;
    location    "0.5";
    object      p;
}
// * * * * * * * * * * * * * * * * * * * * * * * * * * * * * * * * * * * * * //

dimensions      [0 2 -2 0 0 0 0];

internalField   nonuniform List<scalar> 
25600
(
-8.77034e-08
2.13686e-05
2.41231e-05
-2.04266e-06
-5.80917e-05
-0.000142626
-0.000252983
-0.0003859
-0.000538016
-0.000706082
-0.000887056
-0.00107813
-0.00127674
-0.00148055
-0.00168742
-0.00189544
-0.00210285
-0.0023081
-0.00250976
-0.00270655
-0.00289735
-0.00308111
-0.00325692
-0.00342397
-0.00358153
-0.00372897
-0.0038657
-0.00399123
-0.00410511
-0.00420696
-0.00429647
-0.00437335
-0.00443735
-0.00448827
-0.00452595
-0.00455023
-0.00456102
-0.00455824
-0.00454184
-0.00451182
-0.00446817
-0.00441092
-0.00434011
-0.00425577
-0.00415798
-0.00404683
-0.00392243
-0.00378487
-0.0036343
-0.00347084
-0.00329466
-0.00310592
-0.00290482
-0.00269154
-0.00246626
-0.0022292
-0.00198059
-0.00172069
-0.00144974
-0.001168
-0.000875758
-0.000573296
-0.000260922
6.10346e-05
0.000392238
0.000732341
0.00108098
0.00143779
0.00180235
0.00217427
0.0025531
0.00293839
0.00332969
0.00372651
0.00412839
0.0045348
0.00494523
0.00535914
0.00577598
0.00619518
0.00661616
0.00703832
0.00746106
0.00788375
0.00830579
0.00872654
0.00914536
0.00956159
0.00997457
0.0103836
0.0107881
0.0111874
0.0115808
0.0119675
0.0123471
0.0127187
0.0130818
0.0134357
0.0137797
0.0141133
0.0144359
0.0147468
0.0150454
0.0153313
0.0156038
0.0158625
0.0161069
0.0163366
0.0165511
0.0167499
0.0169329
0.0170996
0.0172497
0.0173831
0.0174994
0.0175987
0.0176806
0.0177452
0.0177924
0.0178223
0.0178349
0.0178304
0.0178089
0.0177708
0.0177161
0.0176454
0.017559
0.0174574
0.0173411
0.0172107
0.0170668
0.0169102
0.0167416
0.0165618
0.0163717
0.0161723
0.0159646
0.0157498
0.015529
0.0153034
0.0150744
0.0148433
0.0146118
0.0143813
0.0141535
0.0139301
0.0137132
0.0135046
0.0133064
0.0131207
0.01295
0.0127966
0.0126629
0.0125513
0.0124642
0.0124033
0.0123695
0.0123619
0.0123767
0.012402
-2.13904e-05
1.32021e-07
-1.49645e-06
-2.92946e-05
-8.19791e-05
-0.000158779
-0.000258015
-0.000377299
-0.000514004
-0.000665472
-0.000829126
-0.00100252
-0.00118335
-0.0013695
-0.001559
-0.00175006
-0.00194103
-0.00213042
-0.00231688
-0.00249915
-0.00267613
-0.00284681
-0.00301029
-0.00316576
-0.00331251
-0.00344989
-0.00357732
-0.00369429
-0.00380035
-0.00389511
-0.00397823
-0.00404943
-0.00410843
-0.00415503
-0.00418902
-0.00421026
-0.00421864
-0.00421405
-0.00419646
-0.00416581
-0.00412212
-0.00406537
-0.00399561
-0.00391286
-0.00381718
-0.00370865
-0.00358735
-0.0034534
-0.00330689
-0.00314798
-0.00297681
-0.00279353
-0.00259831
-0.00239134
-0.00217281
-0.00194291
-0.00170188
-0.00144994
-0.00118734
-0.000914351
-0.000631223
-0.000338242
-3.57008e-05
0.000276079
0.00059677
0.00092603
0.00126351
0.00160883
0.00196162
0.00232147
0.00268797
0.00306067
0.00343913
0.00382289
0.00421148
0.0046044
0.00500116
0.00540123
0.00580408
0.00620916
0.0066159
0.00702374
0.00743208
0.00784033
0.0082479
0.00865418
0.00905855
0.00946037
0.00985902
0.0102539
0.0106442
0.0110295
0.0114091
0.0117823
0.0121485
0.0125071
0.0128573
0.0131988
0.0135307
0.0138525
0.0141637
0.0144637
0.0147519
0.0150278
0.0152909
0.0155408
0.0157769
0.0159988
0.0162062
0.0163986
0.0165757
0.0167373
0.0168831
0.0170127
0.0171262
0.0172233
0.0173038
0.0173678
0.0174153
0.0174462
0.0174606
0.0174587
0.0174408
0.0174069
0.0173574
0.0172927
0.0172131
0.0171191
0.0170112
0.01689
0.0167561
0.0166103
0.0164531
0.0162856
0.0161084
0.0159226
0.0157292
0.0155292
0.0153237
0.015114
0.0149013
0.014687
0.0144724
0.0142592
0.0140487
0.0138428
0.0136431
0.0134515
0.0132698
0.0131
0.0129441
0.0128041
0.0126821
0.01258
0.0124994
0.0124414
0.0124065
0.0123936
0.0124019
0.0124272
-2.3832e-05
2.05647e-06
3.98805e-07
-2.73084e-05
-7.74657e-05
-0.000149137
-0.00024095
-0.000350909
-0.000476799
-0.000616352
-0.000767325
-0.000927551
-0.00109497
-0.00126763
-0.00144372
-0.00162156
-0.00179961
-0.00197644
-0.00215077
-0.0023214
-0.00248726
-0.00264735
-0.0028008
-0.00294683
-0.00308472
-0.00321383
-0.00333358
-0.00344347
-0.00354304
-0.0036319
-0.0037097
-0.00377615
-0.00383097
-0.00387393
-0.00390483
-0.0039235
-0.00392983
-0.00392372
-0.0039051
-0.00387393
-0.00383018
-0.00377386
-0.00370498
-0.00362357
-0.00352968
-0.00342337
-0.00330471
-0.00317381
-0.00303077
-0.00287572
-0.00270881
-0.00253017
-0.00233996
-0.00213837
-0.00192558
-0.00170178
-0.00146719
-0.00122203
-0.000966545
-0.000700987
-0.000425608
-0.000140687
0.00015349
0.000456616
0.000768372
0.00108843
0.00141644
0.00175203
0.00209484
0.00244447
0.00280052
0.00316256
0.00353017
0.00390288
0.00428025
0.00466179
0.00504702
0.00543543
0.0058265
0.00621969
0.00661446
0.00701026
0.0074065
0.00780264
0.00819808
0.00859223
0.0089845
0.00937427
0.00976092
0.0101438
0.0105224
0.0108961
0.0112641
0.011626
0.0119811
0.0123287
0.0126684
0.0129994
0.0133213
0.0136334
0.0139351
0.0142261
0.0145056
0.0147733
0.0150285
0.015271
0.0155002
0.0157157
0.0159172
0.0161043
0.0162766
0.016434
0.0165761
0.0167027
0.0168137
0.016909
0.0169884
0.0170519
0.0170995
0.0171312
0.0171471
0.0171474
0.0171322
0.0171019
0.0170566
0.0169967
0.0169226
0.0168348
0.0167338
0.01662
0.0164943
0.0163571
0.0162093
0.0160516
0.0158849
0.0157101
0.0155281
0.0153399
0.0151468
0.0149497
0.01475
0.0145489
0.0143478
0.0141481
0.0139512
0.0137588
0.0135724
0.0133938
0.0132246
0.0130666
0.0129216
0.0127915
0.0126778
0.0125823
0.0125064
0.0124509
0.0124162
0.0124019
0.0124103
0.012442
2.56904e-06
3.01074e-05
2.83087e-05
5.5381e-07
-4.82816e-05
-0.000116945
-0.000204067
-0.000307808
-0.000426189
-0.000557196
-0.00069883
-0.000849142
-0.00100625
-0.00116839
-0.00133387
-0.00150114
-0.00166874
-0.00183533
-0.00199969
-0.00216067
-0.00231723
-0.00246844
-0.00261344
-0.00275146
-0.00288181
-0.00300385
-0.00311701
-0.0032208
-0.00331475
-0.00339849
-0.00347167
-0.00353397
-0.00358513
-0.00362491
-0.00365309
-0.00366951
-0.00367404
-0.00366658
-0.00364706
-0.00361542
-0.00357164
-0.00351569
-0.00344761
-0.00336739
-0.00327509
-0.00317077
-0.00305447
-0.0029263
-0.00278637
-0.00263478
-0.00247168
-0.0022972
-0.00211148
-0.00191471
-0.00170705
-0.00148871
-0.00125989
-0.0010208
-0.000771682
-0.00051277
-0.000244318
3.34041e-05
0.000320113
0.000615509
0.000919286
0.00123112
0.00155068
0.0018776
0.00221152
0.00255206
0.00289882
0.00325139
0.00360936
0.00397228
0.0043397
0.00471116
0.00508619
0.00546428
0.00584494
0.00622764
0.00661185
0.00699702
0.00738262
0.00776809
0.00815286
0.00853636
0.008918
0.00929718
0.00967332
0.0100458
0.0104141
0.0107775
0.0111355
0.0114875
0.0118329
0.012171
0.0125014
0.0128234
0.0131365
0.0134401
0.0137336
0.0140167
0.0142887
0.0145492
0.0147977
0.0150338
0.015257
0.015467
0.0156634
0.0158458
0.016014
0.0161676
0.0163066
0.0164306
0.0165395
0.0166331
0.0167115
0.0167745
0.0168221
0.0168545
0.0168717
0.0168737
0.016861
0.0168336
0.0167918
0.016736
0.0166666
0.016584
0.0164887
0.0163813
0.0162623
0.0161325
0.0159925
0.0158431
0.0156851
0.0155194
0.015347
0.0151687
0.0149857
0.0147992
0.0146101
0.0144199
0.0142297
0.0140409
0.0138549
0.0136733
0.0134974
0.0133289
0.0131693
0.0130203
0.0128835
0.0127606
0.0126529
0.0125621
0.0124893
0.0124357
0.0124017
0.0123875
0.0123975
0.0124346
5.87781e-05
8.30386e-05
7.86763e-05
4.94742e-05
5.41945e-07
-6.66841e-05
-0.000150816
-0.000250131
-0.000362837
-0.000487127
-0.000621206
-0.000763314
-0.000911746
-0.00106487
-0.00122115
-0.00137915
-0.00153751
-0.00169496
-0.00185035
-0.00200259
-0.00215069
-0.00229376
-0.00243099
-0.00256162
-0.00268497
-0.00280043
-0.00290744
-0.00300551
-0.0030942
-0.00317313
-0.00324194
-0.00330033
-0.00334802
-0.00338477
-0.00341037
-0.00342465
-0.00342747
-0.00341873
-0.00339835
-0.00336628
-0.00332248
-0.00326692
-0.00319962
-0.00312057
-0.00302983
-0.00292743
-0.00281344
-0.00268795
-0.00255103
-0.00240282
-0.00224342
-0.00207298
-0.00189164
-0.00169956
-0.0014969
-0.00128387
-0.00106066
-0.000827485
-0.000584558
-0.000332113
-7.03958e-05
0.000200329
0.000479785
0.000767682
0.00106372
0.00136758
0.00167894
0.00199746
0.00232277
0.00265451
0.00299229
0.00333572
0.00368437
0.00403783
0.00439567
0.00475741
0.00512261
0.00549077
0.00586141
0.00623403
0.00660809
0.00698308
0.00735846
0.00773371
0.00810826
0.00848156
0.00885302
0.0092221
0.00958819
0.00995074
0.0103092
0.0106629
0.0110113
0.0113539
0.01169
0.0120191
0.0123406
0.012654
0.0129588
0.0132543
0.0135401
0.0138157
0.0140806
0.0143343
0.0145764
0.0148064
0.015024
0.0152287
0.0154202
0.0155983
0.0157625
0.0159127
0.0160486
0.0161701
0.016277
0.0163691
0.0164465
0.016509
0.0165567
0.0165896
0.0166079
0.0166116
0.016601
0.0165763
0.0165378
0.0164857
0.0164206
0.0163428
0.0162528
0.0161512
0.0160385
0.0159154
0.0157825
0.0156407
0.0154907
0.0153333
0.0151695
0.0150003
0.0148265
0.0146494
0.0144699
0.0142893
0.0141089
0.0139298
0.0137535
0.0135812
0.0134145
0.0132547
0.0131033
0.0129618
0.0128317
0.0127145
0.0126116
0.0125242
0.0124538
0.0124013
0.0123674
0.0123528
0.0123627
0.0124013
0.000143556
0.00016019
0.000150659
0.000118275
6.76361e-05
2.3567e-07
-8.25585e-05
-0.000179142
-0.000287884
-0.00040716
-0.00053535
-0.000670867
-0.000812159
-0.000957738
-0.00110619
-0.0012562
-0.0014065
-0.00155592
-0.00170335
-0.00184778
-0.00198829
-0.00212401
-0.00225416
-0.00237804
-0.00249498
-0.00260438
-0.00270571
-0.00279849
-0.00288229
-0.00295673
-0.00302147
-0.0030762
-0.00312064
-0.00315455
-0.00317773
-0.00319
-0.00319123
-0.0031813
-0.00316014
-0.00312768
-0.00308387
-0.00302871
-0.00296218
-0.00288429
-0.00279507
-0.00269455
-0.0025828
-0.00245989
-0.00232592
-0.00218097
-0.00202517
-0.00185864
-0.00168153
-0.00149399
-0.00129619
-0.0010883
-0.000870518
-0.000643053
-0.000406113
-0.00015992
9.52851e-05
0.000359245
0.000631696
0.000912353
0.00120092
0.0014971
0.00180057
0.00211099
0.00242801
0.00275129
0.00308044
0.00341508
0.0037548
0.00409919
0.00444783
0.00480027
0.00515605
0.00551472
0.00587578
0.00623875
0.00660313
0.00696841
0.00733405
0.00769956
0.00806438
0.00842797
0.00878978
0.00914924
0.00950581
0.00985891
0.010208
0.0105525
0.0108919
0.0112255
0.0115529
0.0118735
0.0121867
0.012492
0.0127889
0.0130768
0.0133553
0.0136239
0.0138821
0.0141294
0.0143654
0.0145897
0.014802
0.0150018
0.0151888
0.0153627
0.0155232
0.0156701
0.0158032
0.0159223
0.0160272
0.0161179
0.0161943
0.0162563
0.016304
0.0163374
0.0163566
0.0163618
0.0163532
0.016331
0.0162954
0.0162468
0.0161855
0.0161121
0.0160269
0.0159305
0.0158235
0.0157065
0.0155801
0.0154452
0.0153024
0.0151525
0.0149965
0.0148353
0.0146697
0.014501
0.01433
0.014158
0.0139861
0.0138156
0.0136475
0.0134833
0.0133243
0.0131718
0.0130272
0.0128919
0.0127671
0.0126543
0.0125548
0.0124698
0.0124006
0.0123482
0.0123135
0.0122973
0.0123051
0.0123411
0.000254416
0.000260027
0.000242989
0.000205684
0.000151714
8.25379e-05
-5.22733e-07
-9.60008e-05
-0.000202416
-0.000318303
-0.000442198
-0.000572671
-0.000708316
-0.000847781
-0.000989773
-0.00113307
-0.00127651
-0.001419
-0.00155951
-0.0016971
-0.00183089
-0.00196007
-0.00208391
-0.00220172
-0.00231286
-0.00241676
-0.00251292
-0.00260087
-0.00268019
-0.00275052
-0.00281151
-0.00286287
-0.00290431
-0.0029356
-0.00295654
-0.00296696
-0.00296672
-0.00295571
-0.00293384
-0.00290105
-0.00285728
-0.00280253
-0.00273676
-0.00266
-0.00257225
-0.00247356
-0.00236398
-0.00224357
-0.00211242
-0.00197063
-0.00181829
-0.00165554
-0.0014825
-0.00129932
-0.00110618
-0.000903239
-0.000690682
-0.000468704
-0.000237512
2.68007e-06
0.000251637
0.00050911
0.000774842
0.00104856
0.00132998
0.00161881
0.00191472
0.0022174
0.00252652
0.00284172
0.00316264
0.0034889
0.00382011
0.00415587
0.00449576
0.00483936
0.00518621
0.00553586
0.00588784
0.00624168
0.00659688
0.00695296
0.00730941
0.00766571
0.00802135
0.00837579
0.0087285
0.00907891
0.00942651
0.00977074
0.0101111
0.0104469
0.0107778
0.0111031
0.0114223
0.0117349
0.0120403
0.012338
0.0126276
0.0129084
0.0131801
0.0134421
0.013694
0.0139354
0.0141658
0.0143848
0.0145921
0.0147873
0.01497
0.0151401
0.0152971
0.015441
0.0155714
0.0156883
0.0157914
0.0158807
0.0159561
0.0160176
0.0160653
0.0160991
0.0161192
0.0161257
0.0161188
0.0160987
0.0160657
0.0160202
0.0159624
0.0158929
0.0158121
0.0157204
0.0156185
0.0155069
0.0153863
0.0152574
0.015121
0.0149778
0.0148287
0.0146745
0.0145162
0.0143548
0.0141912
0.0140266
0.0138621
0.0136987
0.0135378
0.0133803
0.0132277
0.0130812
0.012942
0.0128114
0.0126906
0.0125809
0.0124836
0.0123997
0.0123306
0.0122772
0.0122404
0.0122214
0.012225
0.012255
0.000388312
0.000380329
0.000353813
0.000309989
0.000251175
0.000178738
9.39325e-05
-1.92015e-06
-0.00010749
-0.000221456
-0.000342497
-0.000469327
-0.000600682
-0.000735337
-0.00087211
-0.00100988
-0.00114756
-0.00128417
-0.00141874
-0.00155039
-0.00167831
-0.00180174
-0.00191997
-0.00203236
-0.00213831
-0.00223726
-0.00232874
-0.00241231
-0.00248757
-0.00255414
-0.00261171
-0.00265997
-0.00269866
-0.00272755
-0.00274645
-0.00275518
-0.0027536
-0.00274161
-0.00271912
-0.00268606
-0.00264238
-0.00258805
-0.00252306
-0.0024474
-0.0023611
-0.00226418
-0.0021567
-0.00203871
-0.00191029
-0.00177153
-0.00162254
-0.00146342
-0.0012943
-0.00111534
-0.000926676
-0.00072849
-0.000520955
-0.000304252
-7.858e-05
0.00015585
0.000398813
0.00065007
0.000909368
0.00117644
0.00145102
0.00173281
0.0020215
0.0023168
0.00261836
0.00292586
0.00323893
0.00355722
0.00388033
0.00420789
0.00453947
0.00487465
0.00521302
0.00555412
0.0058975
0.00624269
0.00658923
0.00693662
0.00728438
0.007632
0.00797899
0.00832481
0.00866894
0.00901085
0.00935003
0.00968593
0.010018
0.0103458
0.0106687
0.0109862
0.0112977
0.0116028
0.011901
0.0121916
0.0124743
0.0127485
0.0130139
0.0132698
0.0135159
0.0137517
0.0139768
0.0141909
0.0143936
0.0145845
0.0147633
0.0149298
0.0150836
0.0152246
0.0153526
0.0154674
0.0155688
0.0156568
0.0157313
0.0157923
0.0158399
0.015874
0.0158948
0.0159024
0.015897
0.0158789
0.0158482
0.0158054
0.0157508
0.0156847
0.0156077
0.0155202
0.0154228
0.015316
0.0152005
0.015077
0.0149462
0.0148088
0.0146657
0.0145177
0.0143657
0.0142106
0.0140534
0.0138952
0.0137368
0.0135796
0.0134244
0.0132725
0.0131251
0.0129832
0.0128481
0.012721
0.012603
0.0124952
0.0123988
0.012315
0.0122447
0.0121892
0.0121492
0.0121259
0.0121234
0.0121447
0.000542099
0.000518653
0.000481082
0.00042935
0.000364342
0.000287306
0.000199427
0.000101876
-4.17219e-06
-0.00011753
-0.000237018
-0.000361475
-0.000489773
-0.000620804
-0.000753495
-0.000886817
-0.00101978
-0.00115147
-0.00128101
-0.00140758
-0.00153043
-0.00164883
-0.00176214
-0.00186974
-0.00197106
-0.0020656
-0.00215289
-0.00223252
-0.00230409
-0.00236727
-0.00242172
-0.00246717
-0.00250337
-0.00253008
-0.00254712
-0.00255432
-0.00255155
-0.0025387
-0.00251567
-0.00248241
-0.00243886
-0.00238499
-0.00232077
-0.00224621
-0.00216133
-0.00206614
-0.00196069
-0.00184505
-0.00171928
-0.00158346
-0.00143768
-0.00128207
-0.00111673
-0.000941821
-0.000757481
-0.000563871
-0.000361159
-0.000149523
7.08447e-05
0.000299744
0.000536959
0.000782255
0.00103539
0.0012961
0.00156414
0.0018392
0.002121
0.00240924
0.00270361
0.00300376
0.00330936
0.00362005
0.00393546
0.00425521
0.00457889
0.0049061
0.00523642
0.00556942
0.00590466
0.00624169
0.00658003
0.00691922
0.00725878
0.00759823
0.00793706
0.00827477
0.00861085
0.00894479
0.00927606
0.00960415
0.00992854
0.0102487
0.0105642
0.0108744
0.0111788
0.0114769
0.0117683
0.0120523
0.0123286
0.0125967
0.0128561
0.0131064
0.0133471
0.0135777
0.013798
0.0140076
0.0142059
0.0143929
0.0145681
0.0147312
0.014882
0.0150204
0.0151461
0.0152589
0.0153587
0.0154455
0.0155191
0.0155796
0.015627
0.0156613
0.0156827
0.0156913
0.0156873
0.0156708
0.0156422
0.0156017
0.0155498
0.0154868
0.0154132
0.0153294
0.0152359
0.0151334
0.0150224
0.0149035
0.0147776
0.0146453
0.0145074
0.0143646
0.014218
0.0140683
0.0139166
0.0137636
0.0136105
0.0134582
0.0133078
0.0131603
0.0130169
0.0128785
0.0127464
0.0126215
0.0125051
0.0123981
0.0123016
0.0122166
0.0121442
0.0120854
0.0120411
0.0120122
0.012002
0.0120126
0.000712768
0.000672532
0.000622685
0.000561893
0.000489522
0.000406714
0.000314583
0.000214152
0.000106447
-7.47615e-06
-0.000126578
-0.000249815
-0.000376179
-0.000504671
-0.000634323
-0.000764199
-0.000893399
-0.00102108
-0.00114644
-0.00126873
-0.00138726
-0.00150134
-0.00161037
-0.00171378
-0.00181104
-0.00190166
-0.00198523
-0.00206134
-0.00212962
-0.00218974
-0.00224139
-0.00228432
-0.00231826
-0.00234301
-0.00235838
-0.00236423
-0.0023604
-0.0023468
-0.00232334
-0.00228995
-0.00224658
-0.00219319
-0.00212977
-0.00205631
-0.00197281
-0.00187932
-0.00177586
-0.00166249
-0.00153928
-0.0014063
-0.00126364
-0.00111141
-0.000949723
-0.000778717
-0.000598533
-0.000409327
-0.000211255
-4.4838e-06
0.000210798
0.000434394
0.000666095
0.000905681
0.00115292
0.00140755
0.00166932
0.00193796
0.00221319
0.00249471
0.0027822
0.00307536
0.00337385
0.00367732
0.00398541
0.00429775
0.00461394
0.00493359
0.0052563
0.00558165
0.0059092
0.0062385
0.00656912
0.00690059
0.00723244
0.00756419
0.00789537
0.00822547
0.008554
0.00888045
0.00920433
0.00952512
0.00984231
0.0101554
0.0104639
0.0107673
0.0110651
0.0113567
0.0116418
0.0119197
0.0121901
0.0124525
0.0127064
0.0129514
0.0131871
0.013413
0.0136288
0.0138341
0.0140286
0.0142118
0.0143836
0.0145437
0.0146918
0.0148277
0.0149512
0.0150622
0.0151605
0.0152461
0.0153189
0.0153789
0.0154261
0.0154606
0.0154825
0.0154919
0.015489
0.0154739
0.0154471
0.0154087
0.0153592
0.0152989
0.0152282
0.0151475
0.0150575
0.0149586
0.0148515
0.0147367
0.014615
0.014487
0.0143535
0.0142153
0.0140732
0.013928
0.0137807
0.0136321
0.0134832
0.0133348
0.0131881
0.013044
0.0129035
0.0127676
0.0126373
0.0125137
0.0123978
0.0122905
0.0121928
0.0121057
0.0120302
0.011967
0.0119172
0.0118816
0.0118624
0.0118607
0.000897505
0.000839571
0.000776524
0.000705734
0.000625022
0.000535433
0.00043803
0.000333684
0.000223277
0.000107734
-1.20258e-05
-0.00013508
-0.000260525
-0.000387466
-0.000515031
-0.000642378
-0.000768698
-0.000893213
-0.0010152
-0.00113397
-0.00124887
-0.00135929
-0.00146466
-0.00156445
-0.00165817
-0.00174538
-0.00182567
-0.00189867
-0.00196404
-0.00202144
-0.00207061
-0.00211127
-0.00214321
-0.00216622
-0.00218012
-0.00218477
-0.00218003
-0.00216581
-0.002142
-0.00210856
-0.00206542
-0.00201256
-0.00194995
-0.00187758
-0.00179546
-0.00170363
-0.00160211
-0.00149096
-0.00137023
-0.00124
-0.00110036
-0.000951393
-0.000793224
-0.000625985
-0.000449806
-0.000264831
-7.12129e-05
0.000130885
0.000341281
0.000559794
0.000786221
0.00102034
0.00126193
0.00151075
0.00176655
0.00202907
0.00229802
0.00257313
0.00285409
0.0031406
0.00343234
0.00372895
0.0040301
0.00433541
0.00464451
0.00495701
0.00527253
0.00559064
0.00591094
0.00623298
0.00655633
0.00688053
0.00720513
0.00752967
0.00785367
0.00817665
0.00849811
0.00881758
0.00913455
0.00944853
0.00975902
0.0100655
0.0103676
0.0106647
0.0109563
0.0112419
0.0115211
0.0117934
0.0120584
0.0123155
0.0125643
0.0128045
0.0130355
0.0132571
0.0134687
0.0136701
0.0138609
0.0140408
0.0142095
0.0143668
0.0145123
0.0146459
0.0147675
0.0148768
0.0149737
0.0150582
0.0151302
0.0151897
0.0152367
0.0152713
0.0152935
0.0153036
0.0153016
0.0152879
0.0152625
0.015226
0.0151785
0.0151204
0.0150522
0.0149743
0.0148872
0.0147915
0.0146876
0.0145763
0.0144581
0.0143337
0.0142039
0.0140695
0.0139311
0.0137896
0.0136459
0.0135007
0.0133551
0.0132098
0.0130658
0.0129241
0.0127855
0.012651
0.0125217
0.0123983
0.0122819
0.0121733
0.0120735
0.0119833
0.0119036
0.0118353
0.011779
0.0117358
0.0117066
0.0116913
0.00109371
0.00101748
0.000940563
0.000859032
0.000769179
0.000671969
0.000568416
0.000459248
0.00034522
0.000227125
0.000105772
-1.80287e-05
-0.000143469
-0.000269752
-0.000396102
-0.000521765
-0.000646014
-0.000768147
-0.000887502
-0.00100345
-0.00111539
-0.00122277
-0.00132505
-0.00142177
-0.00151246
-0.00159672
-0.00167418
-0.00174447
-0.00180728
-0.0018623
-0.00190927
-0.00194795
-0.00197813
-0.00199961
-0.00201223
-0.00201585
-0.00201034
-0.0019956
-0.00197156
-0.00193814
-0.0018953
-0.001843
-0.00178122
-0.00170996
-0.00162921
-0.00153901
-0.00143939
-0.0013304
-0.00121209
-0.00108453
-0.000947799
-0.000801991
-0.000647221
-0.000483608
-0.000311278
-0.000130372
5.89647e-05
0.000256578
0.000462296
0.000675938
0.00089731
0.0011262
0.0013624
0.00160567
0.00185577
0.00211245
0.00237543
0.00264445
0.0029192
0.00319939
0.00348471
0.00377483
0.00406939
0.00436806
0.00467045
0.00497621
0.00528494
0.00559624
0.00590971
0.00622492
0.00654144
0.00685883
0.00717664
0.00749442
0.00781171
0.00812804
0.00844292
0.00875587
0.00906642
0.00937407
0.00967834
0.00997876
0.0102748
0.010566
0.0108519
0.011132
0.0114059
0.011673
0.0119329
0.0121851
0.0124294
0.0126651
0.0128919
0.0131094
0.0133173
0.0135151
0.0137026
0.0138794
0.0140452
0.0141999
0.0143431
0.0144747
0.0145944
0.0147022
0.0147978
0.0148812
0.0149525
0.0150115
0.0150582
0.0150929
0.0151154
0.015126
0.0151248
0.0151121
0.015088
0.0150529
0.0150072
0.014951
0.0148849
0.0148093
0.0147247
0.0146316
0.0145305
0.014422
0.0143068
0.0141854
0.0140587
0.0139272
0.0137918
0.0136532
0.0135122
0.0133697
0.0132264
0.0130833
0.0129412
0.0128009
0.0126633
0.0125294
0.0124
0.012276
0.0121582
0.0120474
0.0119446
0.0118504
0.0117658
0.0116913
0.0116279
0.0115762
0.0115361
0.0115066
0.00129899
0.00120411
0.00111286
0.00102003
0.000920389
0.000814857
0.000704411
0.000589643
0.000471183
0.000349715
0.00022594
0.000100567
-2.56916e-05
-0.000152128
-0.000278056
-0.000402806
-0.000525729
-0.000646194
-0.000763597
-0.00087737
-0.00098697
-0.00109189
-0.00119164
-0.0012858
-0.00137395
-0.00145572
-0.00153074
-0.00159871
-0.0016593
-0.00171226
-0.00175733
-0.00179429
-0.00182295
-0.00184312
-0.00185465
-0.0018574
-0.00185126
-0.00183613
-0.00181195
-0.00177864
-0.00173616
-0.00168447
-0.00162355
-0.0015534
-0.00147401
-0.00138543
-0.00128768
-0.00118079
-0.00106483
-0.00093986
-0.000805953
-0.000663199
-0.000511704
-0.000351584
-0.000182962
-5.9651e-06
0.000179264
0.000372577
0.000573809
0.000782786
0.000999323
0.00122322
0.00145427
0.00169225
0.00193692
0.00218803
0.00244534
0.00270856
0.00297742
0.00325162
0.00353086
0.00381482
0.00410317
0.00439555
0.00469163
0.00499102
0.00529337
0.00559827
0.00590532
0.00621412
0.00652425
0.00683526
0.00714672
0.0074582
0.00776923
0.00807937
0.00838812
0.00869503
0.00899963
0.00930142
0.00959994
0.00989471
0.0101853
0.0104711
0.0107517
0.0110267
0.0112956
0.0115579
0.0118132
0.0120611
0.012301
0.0125327
0.0127556
0.0129695
0.0131739
0.0133685
0.013553
0.013727
0.0138903
0.0140426
0.0141837
0.0143134
0.0144314
0.0145377
0.0146322
0.0147147
0.0147852
0.0148437
0.0148902
0.0149248
0.0149476
0.0149586
0.014958
0.0149461
0.0149231
0.0148893
0.0148449
0.0147904
0.014726
0.0146523
0.0145698
0.0144788
0.0143799
0.0142737
0.0141608
0.0140419
0.0139175
0.0137884
0.0136552
0.0135188
0.0133798
0.0132391
0.0130975
0.0129557
0.0128145
0.0126748
0.0125375
0.0124032
0.0122729
0.0121474
0.0120273
0.0119136
0.011807
0.0117081
0.0116177
0.0115364
0.0114651
0.0114044
0.0113528
0.0113083
0.00151117
0.00139748
0.00129158
0.00118703
0.00107711
0.00096268
0.000844711
0.000723676
0.000600086
0.000474525
0.000347601
0.000219928
9.21191e-05
-3.5201e-05
-0.00016143
-0.000285975
-0.000408256
-0.000527711
-0.000643792
-0.000755992
-0.000863818
-0.000966821
-0.00106456
-0.00115665
-0.00124272
-0.00132241
-0.0013954
-0.0014614
-0.00152013
-0.00157134
-0.00161479
-0.00165029
-0.00167766
-0.00169672
-0.00170734
-0.00170938
-0.00170276
-0.00168737
-0.00166314
-0.00163002
-0.00158796
-0.00153692
-0.0014769
-0.00140787
-0.00132985
-0.00124287
-0.00114695
-0.00104213
-0.000928462
-0.000806004
-0.00067483
-0.000535028
-0.000386697
-0.000229944
-6.48834e-05
0.000108359
0.000289644
0.000478834
0.000675768
0.000880283
0.0010922
0.00131133
0.00153747
0.0017704
0.0020099
0.00225573
0.00250764
0.00276536
0.00302863
0.00329716
0.00357065
0.00384879
0.00413127
0.00441774
0.00470786
0.00500127
0.00529762
0.00559652
0.00589757
0.00620037
0.00650451
0.00680957
0.00711512
0.00742073
0.00772596
0.00803034
0.00833343
0.00863476
0.00893385
0.00923023
0.00952345
0.00981303
0.0100985
0.0103794
0.0106553
0.0109256
0.01119
0.0114479
0.011699
0.0119428
0.0121789
0.0124069
0.0126264
0.0128369
0.0130382
0.0132299
0.0134116
0.0135831
0.0137441
0.0138943
0.0140335
0.0141615
0.014278
0.0143831
0.0144764
0.0145581
0.0146279
0.0146859
0.0147322
0.0147667
0.0147896
0.0148009
0.0148009
0.0147897
0.0147675
0.0147346
0.0146914
0.0146381
0.0145752
0.014503
0.0144221
0.0143328
0.0142356
0.0141313
0.0140202
0.0139031
0.0137804
0.013653
0.0135215
0.0133865
0.0132488
0.0131092
0.0129684
0.0128272
0.0126862
0.0125464
0.0124084
0.012273
0.0121411
0.0120132
0.0118902
0.0117728
0.0116616
0.0115573
0.0114605
0.0113718
0.011292
0.0112217
0.0111582
0.0110984
0.00172829
0.00159574
0.00147501
0.00135845
0.00123786
0.00111407
0.000988054
0.000860182
0.000730864
0.000600589
0.000469879
0.000339256
0.000209244
8.03843e-05
-4.67958e-05
-0.000171772
-0.000294032
-0.000413074
-0.000528412
-0.000639592
-0.000746186
-0.000847777
-0.000943994
-0.00103447
-0.00111888
-0.00119689
-0.00126823
-0.00133262
-0.0013898
-0.00143955
-0.00148166
-0.00151596
-0.00154225
-0.00156041
-0.0015703
-0.00157181
-0.00156483
-0.00154929
-0.00152513
-0.00149228
-0.0014507
-0.00140037
-0.00134127
-0.00127339
-0.00119674
-0.00111134
-0.00101723
-0.000914431
-0.000802999
-0.000682986
-0.000554467
-0.000417522
-0.00027224
-0.000118729
4.29042e-05
0.000212537
0.000390039
0.000575279
0.000768104
0.000968353
0.00117586
0.00139044
0.00161189
0.00184002
0.00207461
0.00231542
0.00256221
0.00281472
0.0030727
0.00333586
0.00360392
0.00387659
0.00415353
0.00443444
0.00471897
0.00500677
0.0052975
0.00559078
0.00588622
0.00618342
0.006482
0.00678152
0.00708158
0.00738175
0.0076816
0.00798068
0.00827854
0.00857471
0.00886875
0.00916017
0.00944853
0.00973337
0.0100142
0.0102906
0.0105621
0.0108282
0.0110885
0.0113425
0.0115898
0.01183
0.0120626
0.0122873
0.0125036
0.0127112
0.0129097
0.0130988
0.0132781
0.0134473
0.0136063
0.0137546
0.0138921
0.0140185
0.0141337
0.0142376
0.01433
0.0144109
0.0144801
0.0145377
0.0145837
0.0146181
0.014641
0.0146526
0.0146529
0.0146422
0.0146207
0.0145886
0.0145462
0.014494
0.0144321
0.0143611
0.0142814
0.0141934
0.0140976
0.0139945
0.0138847
0.0137688
0.0136474
0.0135211
0.0133905
0.0132564
0.0131194
0.0129802
0.0128395
0.0126981
0.0125567
0.0124159
0.0122766
0.0121394
0.012005
0.0118742
0.0117475
0.0116257
0.0115093
0.011399
0.0112953
0.0111986
0.0111098
0.0110295
0.0109538
0.0108785
0.00194856
0.0017972
0.00166155
0.00153278
0.00140122
0.0012677
0.00113322
0.00099804
0.000862487
0.000726965
0.000591909
0.000457761
0.000324963
0.000193978
6.52647e-05
-6.07127e-05
-0.000183511
-0.000302687
-0.000417812
-0.000528487
-0.000634339
-0.000734999
-0.000830138
-0.000919434
-0.00100258
-0.00107931
-0.00114934
-0.00121245
-0.00126839
-0.00131698
-0.00135801
-0.00139133
-0.00141678
-0.00143424
-0.00144357
-0.00144469
-0.00143751
-0.00142194
-0.00139793
-0.00136543
-0.00132441
-0.00127484
-0.00121669
-0.00114998
-0.0010747
-0.000990882
-0.000898548
-0.000797736
-0.000688489
-0.00057086
-0.000444916
-0.000310733
-0.000168398
-1.80095e-05
0.000140325
0.000306492
0.000480368
0.000661824
0.000850718
0.00104689
0.00125019
0.00146043
0.00167744
0.00190101
0.00213093
0.00236697
0.00260891
0.00285649
0.00310946
0.00336756
0.00363051
0.00389801
0.00416976
0.00444545
0.00472474
0.0050073
0.00529278
0.00558082
0.00587103
0.00616304
0.00645645
0.00675084
0.00704582
0.00734097
0.00763587
0.00793007
0.00822312
0.00851457
0.00880398
0.00909088
0.00937482
0.00965535
0.00993201
0.0102043
0.0104719
0.0107342
0.0109908
0.0112412
0.0114852
0.0117221
0.0119516
0.0121734
0.0123869
0.0125919
0.0127879
0.0129747
0.0131519
0.0133191
0.0134762
0.0136229
0.0137589
0.013884
0.0139981
0.0141009
0.0141925
0.0142726
0.0143413
0.0143985
0.0144442
0.0144786
0.0145015
0.0145132
0.0145138
0.0145035
0.0144824
0.0144509
0.0144092
0.0143576
0.0142966
0.0142264
0.0141475
0.0140604
0.0139655
0.0138633
0.0137543
0.0136392
0.0135184
0.0133926
0.0132625
0.0131286
0.0129916
0.0128522
0.012711
0.0125688
0.0124262
0.0122838
0.0121425
0.0120028
0.0118654
0.0117309
0.0115999
0.0114731
0.011351
0.0112342
0.011123
0.0110179
0.0109197
0.0108291
0.0107409
0.01065
0.00217032
0.00200029
0.00184971
0.00170858
0.00156584
0.00142232
0.00127903
0.00113616
0.000993951
0.000852721
0.000712832
0.00057465
0.00043855
0.00030492
0.000174155
4.66611e-05
-7.71783e-05
-0.000196983
-0.000312379
-0.000423024
-0.000528587
-0.000628759
-0.00072324
-0.00081175
-0.000894022
-0.000969807
-0.00103888
-0.00110102
-0.00115601
-0.0012037
-0.00124391
-0.00127649
-0.0013013
-0.00131824
-0.00132721
-0.00132809
-0.00132083
-0.00130535
-0.0012816
-0.00124954
-0.00120914
-0.00116037
-0.00110322
-0.00103769
-0.000963794
-0.000881545
-0.000790973
-0.000692111
-0.000585002
-0.000469695
-0.000346252
-0.000214742
-7.52531e-05
7.21236e-05
0.000227284
0.000390123
0.000560524
0.00073836
0.000923493
0.00111578
0.00131507
0.00152118
0.00173396
0.00195319
0.00217869
0.00241022
0.00264757
0.0028905
0.00313876
0.00339209
0.00365022
0.00391288
0.00417976
0.00445057
0.00472497
0.00500263
0.00528322
0.00556639
0.00585176
0.00613895
0.00642758
0.00671725
0.00700755
0.00729809
0.00758845
0.00787818
0.00816685
0.008454
0.00873921
0.00902201
0.00930195
0.0095786
0.00985149
0.0101202
0.0103842
0.0106431
0.0108964
0.0111438
0.0113847
0.0116187
0.0118456
0.0120647
0.0122758
0.0124785
0.0126724
0.0128572
0.0130325
0.0131981
0.0133536
0.0134988
0.0136335
0.0137575
0.0138706
0.0139726
0.0140635
0.014143
0.0142112
0.014268
0.0143135