/*--------------------------------*- C++ -*----------------------------------*\
  =========                 |
  \\      /  F ield         | OpenFOAM: The Open Source CFD Toolbox
   \\    /   O peration     | Website:  https://openfoam.org
    \\  /    A nd           | Version:  7
     \\/     M anipulation  |
\*---------------------------------------------------------------------------*/
FoamFile
{
    version     2.0;
    format      ascii;
    class       volScalarField;
    location    "0.4";
    object      p;
}
// * * * * * * * * * * * * * * * * * * * * * * * * * * * * * * * * * * * * * //

dimensions      [0 2 -2 0 0 0 0];

internalField   nonuniform List<scalar> 
25600
(
-2.76319e-09
-8.58258e-07
-7.74516e-06
-1.99511e-05
-3.625e-05
-5.59188e-05
-7.81332e-05
-0.000102107
-0.00012714
-0.000152626
-0.00017804
-0.000202942
-0.000226966
-0.000249807
-0.000271201
-0.000290925
-0.000308796
-0.000324673
-0.000338443
-0.000350013
-0.00035931
-0.000366276
-0.000370868
-0.000373062
-0.000372845
-0.000370204
-0.000365136
-0.000357639
-0.00034772
-0.000335396
-0.000320684
-0.000303602
-0.000284164
-0.000262387
-0.000238289
-0.000211891
-0.000183211
-0.000152267
-0.000119075
-8.36528e-05
-4.60168e-05
-6.18391e-06
3.58312e-05
8.0016e-05
0.000126358
0.000174844
0.000225459
0.000278189
0.000333022
0.000389945
0.000448944
0.000510008
0.000573127
0.000638285
0.000705462
0.000774636
0.000845787
0.000918894
0.000993932
0.00107087
0.00114969
0.00123034
0.00131279
0.001397
0.00148292
0.00157052
0.00165972
0.00175046
0.0018427
0.00193636
0.00203135
0.00212761
0.00222505
0.00232356
0.00242307
0.00252346
0.00262462
0.00272646
0.00282883
0.00293163
0.00303472
0.00313796
0.00324122
0.00334436
0.00344723
0.00354968
0.00365156
0.00375271
0.00385296
0.00395217
0.00405016
0.00414679
0.00424188
0.00433527
0.00442679
0.00451628
0.00460359
0.00468855
0.00477102
0.00485085
0.00492789
0.00500199
0.00507304
0.00514089
0.00520544
0.00526657
0.00532418
0.00537819
0.00542851
0.00547507
0.00551781
0.00555669
0.00559166
0.0056227
0.00564981
0.00567298
0.00569223
0.0057076
0.00571912
0.00572685
0.00573086
0.00573123
0.00572805
0.00572143
0.00571149
0.00569835
0.00568215
0.00566306
0.00564123
0.00561683
0.00559004
0.00556107
0.00553011
0.00549736
0.00546305
0.00542739
0.00539061
0.00535294
0.00531463
0.00527593
0.00523708
0.00519833
0.00515996
0.00512224
0.00508543
0.00504982
0.00501569
0.00498333
0.00495305
0.00492514
0.00489992
0.00487768
0.00485874
0.00484338
0.00483184
0.00482429
0.00482072
0.00482081
0.00482377
0.00482786
-2.92032e-06
-3.59657e-06
-9.62236e-06
-2.01574e-05
-3.41939e-05
-5.11176e-05
-7.02978e-05
-9.10961e-05
-0.000112929
-0.000135266
-0.000157641
-0.000179642
-0.00020092
-0.000221181
-0.000240171
-0.000257676
-0.000273509
-0.000287519
-0.000299584
-0.000309607
-0.00031751
-0.000323225
-0.000326701
-0.000327902
-0.000326805
-0.000323396
-0.000317665
-0.000309604
-0.000299213
-0.000286499
-0.000271472
-0.000254145
-0.000234529
-0.000212637
-0.000188487
-0.000162092
-0.00013347
-0.000102633
-6.95977e-05
-3.43779e-05
3.01234e-06
4.25566e-05
8.42399e-05
0.000128051
0.000173977
0.000222003
0.000272115
0.000324302
0.000378552
0.000434851
0.000493182
0.000553533
0.000615888
0.000680234
0.000746551
0.000814821
0.00088502
0.000957122
0.0010311
0.00110693
0.00118457
0.001264
0.00134517
0.00142805
0.00151258
0.00159871
0.0016864
0.00177557
0.00186618
0.00195814
0.00205139
0.00214585
0.00224141
0.00233801
0.00243554
0.0025339
0.00263299
0.0027327
0.0028329
0.00293349
0.00303432
0.00313527
0.00323621
0.003337
0.0034375
0.00353756
0.00363703
0.00373576
0.00383361
0.0039304
0.00402599
0.00412023
0.00421295
0.004304
0.00439321
0.00448045
0.00456554
0.00464835
0.00472872
0.00480652
0.00488161
0.00495385
0.00502311
0.00508928
0.00515224
0.0052119
0.00526815
0.00532092
0.00537012
0.00541569
0.00545757
0.00549572
0.00553011
0.00556072
0.00558753
0.00561056
0.00562981
0.00564533
0.00565716
0.00566534
0.00566996
0.00567108
0.00566879
0.00566321
0.00565445
0.00564263
0.00562789
0.00561038
0.00559025
0.00556768
0.00554284
0.00551591
0.00548709
0.00545659
0.0054246
0.00539134
0.00535704
0.00532191
0.00528619
0.00525011
0.00521391
0.00517785
0.00514216
0.00510711
0.00507295
0.00503995
0.00500836
0.00497846
0.00495052
0.0049248
0.00490157
0.00488109
0.00486361
0.00484934
0.00483844
0.00483099
0.00482692
0.00482597
0.00482787
0.00483196
-1.41637e-06
-1.77587e-06
-7.10439e-06
-1.65873e-05
-2.92084e-05
-4.43905e-05
-6.15783e-05
-8.02271e-05
-9.98211e-05
-0.000119899
-0.000140043
-0.000159879
-0.000179077
-0.000197352
-0.000214467
-0.000230216
-0.00024442
-0.000256924
-0.000267601
-0.000276351
-0.000283094
-0.000287762
-0.000290297
-0.000290656
-0.000288807
-0.000284734
-0.000278422
-0.000269861
-0.000259049
-0.000245984
-0.00023067
-0.000213116
-0.000193331
-0.000171324
-0.000147112
-0.000120706
-9.2117e-05
-6.13579e-05
-2.84432e-05
6.61386e-06
4.38004e-05
8.31024e-05
0.000124508
0.000168005
0.00021358
0.000261216
0.000310899
0.00036262
0.000416368
0.00047213
0.000529889
0.000589628
0.000651332
0.000714984
0.00078057
0.000848067
0.000917453
0.000988699
0.00106178
0.00113666
0.00121331
0.0012917
0.0013718
0.00145355
0.00153691
0.00162183
0.00170824
0.0017961
0.00188534
0.0019759
0.0020677
0.00216065
0.00225468
0.00234968
0.00244558
0.00254227
0.00263965
0.00273761
0.00283604
0.00293481
0.00303379
0.00313287
0.00323192
0.0033308
0.00342936
0.00352748
0.003625
0.00372178
0.00381766
0.0039125
0.00400615
0.00409846
0.00418927
0.00427843
0.00436579
0.0044512
0.00453451
0.00461557
0.00469426
0.00477042
0.00484394
0.00491467
0.00498249
0.0050473
0.00510898
0.00516745
0.00522259
0.00527435
0.00532263
0.00536739
0.00540857
0.00544612
0.00548002
0.00551025
0.0055368
0.00555968
0.00557891
0.00559452
0.00560655
0.00561507
0.00562012
0.00562181
0.0056202
0.00561542
0.00560756
0.00559675
0.00558313
0.00556684
0.00554804
0.00552688
0.00550355
0.00547821
0.00545107
0.00542231
0.00539214
0.00536076
0.00532839
0.00529524
0.00526154
0.00522751
0.00519339
0.0051594
0.0051258
0.00509282
0.00506071
0.00502971
0.00500007
0.00497204
0.00494586
0.00492178
0.00490003
0.00488085
0.00486443
0.00485095
0.00484054
0.00483328
0.00482911
0.00482786
0.00482977
0.00483493
5.95544e-06
4.88934e-06
-5.45297e-07
-9.65642e-06
-2.15757e-05
-3.57564e-05
-5.17018e-05
-6.89225e-05
-8.69644e-05
-0.000105412
-0.000123895
-0.000142077
-0.000159654
-0.00017636
-0.000191966
-0.000206277
-0.000219125
-0.000230361
-0.00023986
-0.00024752
-0.000253257
-0.000257003
-0.000258703
-0.00025831
-0.00025579
-0.000251116
-0.000244272
-0.000235248
-0.000224037
-0.000210637
-0.000195048
-0.000177273
-0.000157318
-0.000135193
-0.00011091
-8.44802e-05
-5.59088e-05
-2.52082e-05
7.60774e-06
4.25268e-05
7.95369e-05
0.000118625
0.000159782
0.000202997
0.000248256
0.000295541
0.00034484
0.000396141
0.000449435
0.000504709
0.000561946
0.000621129
0.000682242
0.00074527
0.000810196
0.000876996
0.000945645
0.00101612
0.00108839
0.00116243
0.0012382
0.00131567
0.0013948
0.00147555
0.00155787
0.00164171
0.001727
0.00181371
0.00190175
0.00199108
0.0020816
0.00217324
0.00226592
0.00235954
0.00245402
0.00254926
0.00264516
0.00274162
0.0028385
0.00293571
0.00303311
0.00313059
0.00322801
0.00332525
0.00342217
0.00351863
0.00361449
0.0037096
0.00380382
0.00389701
0.00398901
0.00407969
0.00416888
0.00425645
0.00434224
0.0044261
0.00450791
0.00458751
0.00466477
0.00473955
0.00481174
0.00488119
0.0049478
0.00501146
0.00507205
0.0051295
0.00518371
0.00523459
0.0052821
0.00532615
0.00536671
0.00540374
0.0054372
0.00546708
0.00549338
0.00551611
0.00553528
0.00555093
0.0055631
0.00557184
0.00557723
0.00557934
0.00557826
0.00557409
0.00556694
0.00555694
0.00554421
0.00552889
0.00551114
0.00549112
0.005469
0.00544494
0.00541915
0.0053918
0.0053631
0.00533324
0.00530243
0.00527088
0.00523882
0.00520645
0.005174
0.0051417
0.00510977
0.00507846
0.00504798
0.00501857
0.00499047
0.00496391
0.0049391
0.00491629
0.00489567
0.00487745
0.00486182
0.00484895
0.00483894
0.0048319
0.0048278
0.00482659
0.00482885
0.00483506
1.8615e-05
1.56969e-05
9.37007e-06
4.6598e-08
-1.1683e-05
-2.53404e-05
-4.04822e-05
-5.66885e-05
-7.35607e-05
-9.07308e-05
-0.000107866
-0.000124665
-0.000140861
-0.000156207
-0.00017049
-0.000183523
-0.000195146
-0.000205224
-0.000213637
-0.000220284
-0.000225079
-0.000227955
-0.000228856
-0.000227739
-0.000224567
-0.00021931
-0.000211947
-0.000202466
-0.00019086
-0.000177123
-0.000161253
-0.000143251
-0.000123121
-0.00010087
-7.65092e-05
-5.00439e-05
-2.14811e-05
9.1688e-06
4.18938e-05
7.66833e-05
0.000113527
0.000152413
0.000193331
0.000236269
0.000281216
0.000328157
0.000377079
0.00042797
0.000480821
0.000535617
0.00059234
0.000650975
0.00071151
0.000773928
0.00083821
0.000904328
0.00097226
0.00104198
0.00111347
0.00118668
0.0012616
0.00133818
0.00141638
0.00149617
0.00157748
0.00166028
0.00174451
0.00183011
0.00191701
0.00200515
0.00209446
0.00218486
0.00227626
0.00236857
0.00246171
0.00255559
0.00265009
0.00274512
0.00284057
0.00293631
0.00303223
0.00312821
0.00322412
0.00331983
0.00341522
0.00351014
0.00360446
0.00369803
0.00379071
0.00388237
0.00397285
0.00406202
0.00414972
0.00423582
0.00432016
0.00440261
0.00448303
0.00456128
0.00463722
0.00471074
0.00478169
0.00484997
0.00491546
0.00497805
0.00503764
0.00509414
0.00514747
0.00519755
0.00524432
0.00528771
0.00532769
0.00536421
0.00539724
0.00542678
0.00545282
0.00547538
0.00549446
0.00551011
0.00552237
0.00553129
0.00553695
0.00553941
0.00553876
0.00553511
0.00552857
0.00551925
0.00550729
0.00549281
0.00547598
0.00545695
0.00543589
0.00541296
0.00538835
0.00536224
0.00533483
0.00530631
0.00527688
0.00524675
0.00521613
0.00518522
0.00515425
0.00512343
0.00509298
0.00506312
0.00503407
0.00500606
0.00497929
0.00495399
0.00493036
0.00490861
0.00488894
0.00487153
0.00485656
0.00484417
0.00483449
0.00482762
0.0048236
0.00482243
0.00482488
0.00483163
3.54112e-05
2.99376e-05
2.21444e-05
1.21213e-05
1.24208e-07
-1.34368e-05
-2.81772e-05
-4.37399e-05
-5.97888e-05
-7.60043e-05
-9.20881e-05
-0.000107773
-0.000122819
-0.00013701
-0.000150151
-0.000162066
-0.000172606
-0.000181643
-0.000189068
-0.000194786
-0.000198711
-0.000200778
-0.000200932
-0.000199129
-0.000195331
-0.000189512
-0.000181648
-0.000171725
-0.000159732
-0.000145662
-0.000129512
-0.000111281
-9.09745e-05
-6.85949e-05
-4.41488e-05
-1.76413e-05
1.0921e-05
4.15281e-05
7.41689e-05
0.000108835
0.00014552
0.000184214
0.000224902
0.000267575
0.00031222
0.000358825
0.000407378
0.00045787
0.000510289
0.000564619
0.000620842
0.000678945
0.000738917
0.000800742
0.000864396
0.000929855
0.000997093
0.00106609
0.00113681
0.00120924
0.00128333
0.00135906
0.00143637
0.00151523
0.0015956
0.00167741
0.00176061
0.00184516
0.00193098
0.00201801
0.00210618
0.0021954
0.0022856
0.00237668
0.00246857
0.00256116
0.00265437
0.00274808
0.00284218
0.00293656
0.00303111
0.0031257
0.00322021
0.00331452
0.0034085
0.00350201
0.00359491
0.00368707
0.00377835
0.0038686
0.00395769
0.00404548
0.00413183
0.00421658
0.00429961
0.00438077
0.00445992
0.00453694
0.00461169
0.00468405
0.00475389
0.00482109
0.00488555
0.00494717
0.00500584
0.00506147
0.00511399
0.00516333
0.00520941
0.00525218
0.00529161
0.00532764
0.00536027
0.00538947
0.00541525
0.00543761
0.00545659
0.0054722
0.0054845
0.00549355
0.00549939
0.00550213
0.00550183
0.00549861
0.00549256
0.00548381
0.00547249
0.00545873
0.00544268
0.00542449
0.00540433
0.00538237
0.00535878
0.00533374
0.00530745
0.00528009
0.00525185
0.00522295
0.00519357
0.00516393
0.00513423
0.00510469
0.00507552
0.00504691
0.00501909
0.00499226
0.00496663
0.00494239
0.00491974
0.00489888
0.00487998
0.00486323
0.00484876
0.00483674
0.00482729
0.00482051
0.00481648
0.00481525
0.00481764
0.00482438
5.53575e-05
4.69005e-05
3.72363e-05
2.61272e-05
1.34839e-05
-3.55866e-07
-1.50551e-05
-3.03171e-05
-4.58615e-05
-6.14163e-05
-7.67262e-05
-9.15528e-05
-0.000105682
-0.000118921
-0.000131098
-0.000142056
-0.000151656
-0.00015978
-0.000166324
-0.0001712
-0.000174333
-0.000175657
-0.000175121
-0.000172678
-0.000168295
-0.000161942
-0.0001536
-0.000143252
-0.000130887
-0.000116495
-0.00010007
-8.16156e-05
-6.11324e-05
-3.86223e-05
-1.40888e-05
1.24643e-05
4.10312e-05
7.16022e-05
0.000104167
0.000138719
0.000175254
0.000213761
0.000254229
0.000296645
0.000341001
0.000387283
0.000435481
0.000485585
0.000537584
0.000591463
0.000647205
0.000704796
0.000764225
0.000825476
0.000888525
0.000953348
0.00101992
0.00108822
0.00115822
0.0012299
0.0013032
0.00137811
0.00145458
0.00153257
0.00161203
0.00169291
0.00177516
0.00185871
0.00194352
0.00202951
0.00211661
0.00220474
0.00229382
0.00238376
0.00247449
0.0025659
0.00265791
0.0027504
0.00284327
0.00293641
0.0030297
0.00312302
0.00321626
0.00330929
0.00340199
0.00349421
0.00358584
0.00367672
0.00376673
0.00385572
0.00394357
0.00403012
0.00411524
0.0041988
0.00428064
0.00436064
0.00443866
0.00451457
0.00458825
0.00465957
0.0047284
0.00479464
0.00485818
0.00491891
0.00497675
0.0050316
0.00508338
0.00513204
0.00517749
0.00521969
0.0052586
0.00529418
0.00532641
0.00535528
0.0053808
0.00540296
0.0054218
0.00543734
0.00544964
0.00545874
0.00546472
0.00546764
0.00546761
0.00546471
0.00545906
0.00545077
0.00543997
0.00542679
0.00541137
0.00539388
0.00537447
0.00535331
0.00533057
0.00530642
0.00528106
0.00525467
0.00522744
0.00519957
0.00517125
0.00514267
0.00511406
0.00508559
0.00505748
0.00502993
0.00500313
0.00497728
0.00495258
0.0049292
0.00490735
0.00488719
0.0048689
0.00485263
0.00483854
0.00482675
0.00481741
0.00481062
0.00480646
0.00480502
0.00480708
0.00481335
7.75743e-05
6.5892e-05
5.40805e-05
4.15978e-05
2.80068e-05
1.3588e-05
-1.3701e-06
-1.66264e-05
-3.19441e-05
-4.70975e-05
-6.18726e-05
-7.60654e-05
-8.94862e-05
-0.000101963
-0.000113345
-0.000123494
-0.000132287
-0.000139615
-0.000145383
-0.00014951
-0.000151926
-0.000152574
-0.000151402
-0.000148368
-0.000143439
-0.000136588
-0.000127794
-0.000117043
-0.000104321
-8.96182e-05
-7.29305e-05
-5.42583e-05
-3.36014e-05
-1.09605e-05
1.36614e-05
4.02614e-05
6.88345e-05
9.93724e-05
0.000131867
0.000166314
0.000202707
0.000241035
0.000281288
0.000323457
0.000367533
0.000413504
0.000461359
0.000511089
0.000562682
0.000616123
0.0006714
0.000728498
0.000787405
0.000848103
0.00091057
0.000974783
0.00104072
0.00110836
0.00117767
0.00124862
0.00132118
0.00139532
0.00147099
0.00154815
0.00162676
0.00170676
0.00178811
0.00187074
0.0019546
0.00203962
0.00212572
0.00221283
0.00230088
0.00238977
0.00247942
0.00256975
0.00266066
0.00275204
0.00284378
0.00293578
0.00302793
0.0031201
0.00321219
0.00330407
0.00339561
0.00348668
0.00357716
0.00366689
0.00375576
0.00384363
0.00393036
0.0040158
0.00409984
0.00418232
0.00426312
0.00434209
0.0044191
0.00449403
0.00456675
0.00463714
0.00470508
0.00477046
0.00483317
0.00489312
0.0049502
0.00500434
0.00505546
0.00510349
0.00514837
0.00519005
0.00522847
0.00526363
0.00529548
0.00532403
0.00534927
0.00537122
0.0053899
0.00540534
0.00541759
0.0054267
0.00543274
0.00543579
0.00543594
0.00543327
0.00542791
0.00541997
0.00540956
0.00539683
0.00538192
0.00536499
0.00534618
0.00532566
0.00530361
0.00528019
0.0052556
0.00523001
0.0052036
0.00517657
0.00514912
0.00512142
0.00509369
0.00506611
0.00503887
0.00501217
0.0049862
0.00496115
0.00493719
0.00491451
0.00489327
0.00487365
0.0048558
0.00483987
0.00482601
0.00481433
0.00480498
0.00479806
0.00479364
0.00479183
0.00479334
0.00479877
0.000101295
8.62661e-05
7.2141e-05
5.80728e-05
4.33032e-05
2.80661e-05
1.26074e-05
-2.88241e-06
-1.8212e-05
-3.31925e-05
-4.7644e-05
-6.13983e-05
-7.42935e-05
-8.61788e-05
-9.69204e-05
-0.0001064
-0.00011451
-0.000121153
-0.000126242
-0.000129707
-0.000131485
-0.000131521
-0.00012977
-0.000126192
-0.000120759
-0.000113444
-0.000104228
-9.30963e-05
-8.00353e-05
-6.50376e-05
-4.80996e-05
-2.92194e-05
-8.39494e-06
1.43739e-05
3.90835e-05
6.57303e-05
9.43102e-05
0.000124817
0.000157245
0.000191591
0.000227848
0.000266004
0.000306051
0.000347981
0.000391786
0.000437456
0.00048498
0.000534347
0.000585547
0.000638567
0.000693395
0.000750017
0.00080842
0.000868588
0.000930497
0.000994126
0.00105945
0.00112645
0.00119511
0.00126538
0.00133723
0.00141064
0.00148555
0.00156193
0.00163974
0.00171892
0.00179943
0.0018812
0.00196417
0.00204829
0.00213347
0.00221964
0.00230673
0.00239465
0.00248333
0.00257266
0.00266256
0.00275293
0.00284365
0.00293462
0.00302573
0.00311687
0.00320792
0.00329877
0.00338927
0.00347932
0.00356877
0.00365749
0.00374535
0.00383221
0.00391795
0.00400242
0.0040855
0.00416704
0.0042469
0.00432497
0.00440109
0.00447516
0.00454704
0.00461661
0.00468376
0.00474838
0.00481036
0.0048696
0.00492602
0.00497953
0.00503005
0.00507752
0.00512187
0.00516306
0.00520105
0.0052358
0.00526729
0.00529552
0.00532049
0.00534222
0.00536071
0.00537602
0.00538817
0.00539724
0.00540329
0.00540639
0.00540664
0.00540413
0.00539896
0.00539126
0.00538114
0.00536874
0.00535421
0.00533769
0.00531934
0.00529933
0.00527781
0.00525497
0.00523097
0.00520601
0.00518026
0.00515391
0.00512714
0.00510015
0.00507312
0.00504624
0.0050197
0.00499367
0.00496835
0.00494391
0.00492053
0.00489836
0.00487758
0.00485834
0.00484079
0.00482506
0.00481129
0.00479961
0.00479012
0.00478294
0.00477815
0.00477582
0.00477658
0.0047809
0.000125852
0.000107448
9.09121e-05
7.51181e-05
5.89961e-05
4.27504e-05
2.65987e-05
1.0679e-05
-4.85932e-06
-1.98607e-05
-3.41765e-05
-4.76655e-05
-6.01954e-05
-7.16401e-05
-8.18838e-05
-9.08233e-05
-9.83652e-05
-0.000104426
-0.000108931
-0.000111818
-0.00011303
-0.000112519
-0.000110244
-0.000106173
-0.000100277
-9.25353e-05
-8.29283e-05
-7.14403e-05
-5.80617e-05
-4.27867e-05
-2.56117e-05
-6.534e-06
1.44495e-05
3.73395e-05
6.21324e-05
8.88244e-05
0.000117411
0.000147889
0.000180254
0.000214501
0.000250624
0.000288615
0.000328463
0.000370161
0.000413704
0.000459083
0.000506285
0.000555302
0.000606124
0.000658738
0.000713134
0.000769297
0.000827216
0.000886874
0.00094825
0.00101132
0.00107607
0.00114246
0.00121049
0.00128011
0.0013513
0.00142401
0.00149821
0.00157387
0.00165092
0.00172934
0.00180906
0.00189002
0.00197218
0.00205546
0.00213979
0.0022251
0.00231132
0.00239835
0.00248613
0.00257456
0.00266355
0.002753
0.00284281
0.00293285
0.00302304
0.00311325
0.00320338
0.0032933
0.0033829
0.00347203
0.00356058
0.0036484
0.00373538
0.00382137
0.00390624
0.00398986
0.0040721
0.00415282
0.00423188
0.00430915
0.00438451
0.00445782
0.00452897
0.00459783
0.00466429
0.00472825
0.00478959
0.00484822
0.00490405
0.00495699
0.00500698
0.00505395
0.00509783
0.00513858
0.00517615
0.00521052
0.00524168
0.0052696
0.0052943
0.00531578
0.00533408
0.00534922
0.00536125
0.00537023
0.00537623
0.00537932
0.00537959
0.00537714
0.00537208
0.00536451
0.00535458
0.0053424
0.00532812
0.00531189
0.00529387
0.00527422
0.00525309
0.00523067
0.00520712
0.00518263
0.00515737
0.00513153
0.00510528
0.00507882
0.00505233
0.00502598
0.00499996
0.00497444
0.00494961
0.00492562
0.00490264
0.00488084
0.00486036
0.00484135
0.00482396
0.0048083
0.00479451
0.0047827
0.00477296
0.00476541
0.00476012
0.00475716
0.00475702
0.00476005
0.000150679
0.000128917
0.00010993
9.23215e-05
7.47265e-05
5.73284e-05
4.03261e-05
2.38174e-05
7.91009e-06
-7.27442e-06
-2.16132e-05
-3.49908e-05
-4.72997e-05
-5.84379e-05
-6.83096e-05
-7.68259e-05
-8.39065e-05
-8.94822e-05
-9.34919e-05
-9.58795e-05
-9.6596e-05
-9.56006e-05
-9.28593e-05
-8.83426e-05
-8.20277e-05
-7.38952e-05
-6.39271e-05
-5.21111e-05
-3.84394e-05
-2.29067e-05
-5.50941e-06
1.37542e-05
3.48872e-05
5.78902e-05
8.27594e-05
0.000109491
0.000138084
0.000168534
0.000200836
0.000234986
0.00027098
0.000308808
0.000348462
0.000389937
0.000433227
0.000478324
0.000525215
0.000573892
0.000624348
0.000676572
0.000730552
0.000786276
0.00084373
0.0009029
0.000963765
0.0010263
0.00109049
0.00115632
0.00122375
0.00129276
0.00136332
0.00143538
0.00150891
0.00158388
0.00166024
0.00173794
0.00181693
0.00189716
0.00197856
0.00206107
0.00214462
0.00222915
0.00231456
0.0024008
0.00248776
0.00257538
0.00266356
0.00275218
0.00284116
0.00293039
0.00301975
0.00310915
0.00319847
0.00328759
0.00337638
0.00346472
0.00355248
0.00363953
0.00372574
0.00381098
0.00389511
0.003978
0.00405953
0.00413954
0.00421791
0.00429451
0.00436921
0.00444188
0.00451241
0.00458066
0.00464653
0.00470992
0.00477071
0.00482881
0.00488413
0.00493659
0.00498611
0.00503263
0.00507608
0.00511643
0.00515363
0.00518765
0.00521848
0.00524611
0.00527053
0.00529177
0.00530985
0.00532479
0.00533666
0.00534551
0.0053514
0.00535442
0.00535465
0.00535218
0.00534714
0.00533962
0.00532977
0.0053177
0.00530356
0.0052875
0.00526968
0.00525025
0.00522937
0.00520723
0.00518398
0.00515981
0.00513489
0.0051094
0.00508352
0.00505743
0.0050313
0.00500533
0.00497967
0.0049545
0.00492999
0.00490629
0.00488357
0.00486198
0.00484167
0.00482276
0.0048054
0.00478969
0.00477576
0.00476371
0.00475363
0.00474561
0.00473973
0.00473603
0.00473488
0.0047365
0.000175288
0.000150222
0.000128771
0.000109297
9.01526e-05
7.14989e-05
5.35237e-05
3.62951e-05
1.98859e-05
4.38682e-06
-1.01082e-05
-2.35066e-05
-3.57223e-05
-4.66746e-05
-5.62857e-05
-6.44825e-05
-7.12003e-05
-7.6383e-05
-7.9979e-05
-8.19412e-05
-8.22295e-05
-8.08105e-05
-7.76566e-05
-7.27438e-05
-6.60521e-05
-5.75645e-05
-4.7267e-05
-3.51515e-05
-2.1212e-05
-5.44284e-06
1.21592e-05
3.15951e-05
5.2867e-05
7.59737e-05
0.000100911
0.000127678
0.000156272
0.000186692
0.000218932
0.000252987
0.000288852
0.000326521
0.000365986
0.000407244
0.000450289
0.000495112
0.000541702
0.000590052
0.000640156
0.000692004
0.000745584
0.000800885
0.000857895
0.000916598
0.000976976
0.00103901
0.00110267
0.00116795
0.00123483
0.00130326
0.00137322
0.00144467
0.00151759
0.00159192
0.00166762
0.00174466
0.00182298
0.00190253
0.00198323
0.00206504
0.00214789
0.0022317
0.00231639
0.00240191
0.00248815
0.00257504
0.00266249
0.00275039
0.00283864
0.00292715
0.0030158
0.00310449
0.0031931
0.00328152
0.00336963
0.00345729
0.00354439
0.00363078
0.00371634
0.00380094
0.00388445
0.00396673
0.00404765
0.00412708
0.00420488
0.00428092
0.00435507
0.00442721
0.00449721
0.00456496
0.00463034
0.00469325
0.00475357
0.00481122
0.00486611
0.00491815
0.00496727
0.0050134
0.00505648
0.00509647
0.00513333
0.00516703
0.00519755
0.00522488
0.00524904
0.00527002
0.00528787
0.0053026
0.00531427
0.00532294
0.00532868
0.00533157
0.00533168
0.00532913
0.00532402
0.00531647
0.00530659
0.00529453
0.00528042
0.00526442
0.00524667
0.00522734
0.00520658
0.00518458
0.00516149
0.00513749
0.00511276
0.00508748
0.00506181
0.00503594
0.00501003
0.00498427
0.00495882
0.00493385
0.00490951
0.00488596
0.00486336
0.00484185
0.00482157
0.00480264
0.00478518
0.00476932
0.00475515
0.00474276
0.00473224
0.00472367
0.00471711
0.00471261
0.00471039
0.00471053
0.00019925
0.000170955
0.000147059
0.000125692
0.000104948
8.49704e-05
6.59339e-05
4.78817e-05
3.08621e-05
1.49379e-05
1.75996e-07
-1.33547e-05
-2.55877e-05
-3.64595e-05
-4.59089e-05
-5.38811e-05
-6.03261e-05
-6.51979e-05
-6.8455e-05
-7.00614e-05
-6.99856e-05
-6.82012e-05
-6.46877e-05
-5.94258e-05
-5.23982e-05
-4.3592e-05
-3.29985e-05
-2.06125e-05
-6.42988e-06
9.55417e-06
2.73422e-05
4.69348e-05
6.83319e-05
9.15312e-05
0.000116529
0.000143324
0.000171916
0.000202302
0.000234477
0.000268436
0.000304175
0.000341688
0.000380969
0.000422015
0.000464822
0.000509379
0.000555677
0.00060371
0.000653476
0.000704962
0.000758159
0.000813055
0.00086964
0.000927897
0.00098781
0.00104936
0.00111253
0.0011773
0.00124364
0.00131154
0.00138094
0.00145182
0.00152415
0.00159789
0.001673
0.00174943
0.00182714
0.00190606
0.00198613
0.00206731
0.00214951
0.00223268
0.00231673
0.0024016
0.00248721
0.00257346
0.00266027
0.00274753
0.00283516
0.00292304
0.00301108
0.00309916
0.00318718
0.00327501
0.00336254
0.00344964
0.00353618
0.00362202
0.00370705
0.00379113
0.00387413
0.00395592
0.00403636
0.00411531
0.00419265
0.00426824
0.00434195
0.00441366
0.00448325
0.00455059
0.00461557
0.00467809
0.00473804
0.00479532
0.00484985
0.00490154
0.00495031
0.00499611
0.00503887
0.00507854
0.00511509
0.00514849
0.00517873
0.00520579
0.00522967
0.0052504
0.00526799
0.00528249
0.00529394
0.00530239
0.00530793
0.00531063
0.00531057
0.00530787
0.00530261
0.00529493
0.00528495
0.00527279
0.00525861
0.00524255
0.00522476
0.00520541
0.00518465
0.00516265
0.00513959
0.00511563
0.00509095
0.00506572
0.00504012
0.00501432
0.00498849
0.0049628
0.00493742
0.0049125
0.00488819
0.00486466
0.00484205
0.00482049
0.00480011
0.00478104
0.00476339
0.00474726
0.00473275
0.00471995
0.00470891
0.00469973
0.00469243
0.00468707
0.00468374
0.0046824
0.000222183
0.000190754
0.000164452
0.000141186
0.000118811
9.74633e-05
7.73047e-05
5.83535e-05
4.06369e-05
2.41954e-05
9.0729e-06
-4.68429e-06
-1.70272e-05
-2.79085e-05
-3.72853e-05
-4.51189e-05
-5.13711e-05
-5.60061e-05
-5.89941e-05
-6.03094e-05
-5.99295e-05
-5.78357e-05
-5.40125e-05
-4.84453e-05
-4.11219e-05
-3.2035e-05
-2.11793e-05
-8.55188e-06
5.84918e-06
2.20267e-05
3.9982e-05
5.97139e-05
8.12204e-05
0.0001045
0.000129548
0.000156365
0.000184949
0.000215298
0.000247404
0.000281266
0.000316879
0.000354237
0.000393338
0.000434179
0.000476752
0.00052105
0.000567065
0.000614795
0.000664233
0.000715373
0.000768202
0.000822711
0.000878888
0.000936722
0.000996194
0.00105729
0.00111999
0.00118428
0.00125013
0.00131751
0.0013864
0.00145675
0.00152854
0.00160174
0.0016763
0.00175217
0.00182932
0.00190767
0.00198718
0.00206778
0.00214941
0.00223201
0.0023155
0.0023998
0.00248485
0.00257054
0.0026568
0.00274353
0.00283062
0.00291798
0.0030055
0.00309308
0.0031806
0.00326796
0.00335502
0.00344166
0.00352775
0.00361316
0.00369777
0.00378144
0.00386405
0.00394545
0.00402551
0.00410411
0.00418109
0.00425634
0.00432972
0.0044011
0.00447037
0.0045374
0.00460208
0.0046643
0.00472395
0.00478095
0.00483519
0.0048866
0.0049351
0.00498061
0.0050231
0.0050625
0.00509878
0.00513191
0.00516188
0.00518867
0.00521229
0.00523276
0.00525009
0.00526433
0.00527552
0.00528373
0.00528902
0.00529148
0.0052912
0.00528826
0.0052828
0.00527491
0.00526472
0.00525238
0.00523803
0.0052218
0.00520387
0.00518437
0.00516349
0.00514138
0.00511821
0.00509416
0.0050694
0.00504409
0.00501842
0.00499256
0.00496666
0.00494091
0.00491545
0.00489045
0.00486605
0.00484241
0.00481965
0.00479792
0.00477734
0.00475802
0.00474008
0.0047236
0.00470867
0.00469536
0.00468375
0.00467389
0.00466582
0.00465958
0.00465512
0.00465231
0.000243751
0.00020929
0.000180635
0.000155484
0.000131466
0.000108716
8.73933e-05
6.74897e-05
4.90096e-05
3.19766e-05
1.64155e-05
2.35392e-06
-1.01768e-05
-2.11471e-05
-3.053e-05
-3.82993e-05
-4.44287e-05
-4.88948e-05
-5.16782e-05
-5.27628e-05
-5.21355e-05
-4.97839e-05
-4.56973e-05
-3.98669e-05
-3.22875e-05
-2.29569e-05
-1.1872e-05
9.67609e-07
1.55618e-05
3.19111e-05
5.0014e-05
6.98668e-05
9.14669e-05
0.000114813
0.000139902
0.000166732
0.000195302
0.000225607
0.000257642
0.000291403
0.000326889
0.000364097
0.000403021
0.000443658
0.000486003
0.00053005
0.000575792
0.000623227
0.000672352
0.000723158
0.000775635
0.000829773
0.000885562
0.000942992
0.00100205
0.00106271
0.00112497
0.00118881
0.00125419
0.00132111
0.00138951
0.00145938
0.00153067
0.00160337
0.00167743
0.0017528
0.00182943
0.00190728
0.00198628
0.00206637
0.00214751
0.0022296
0.0023126
0.00239642
0.00248098
0.00256621
0.002652
0.00273827
0.00282492
0.00291185
0.00299896
0.00308614
0.00317327
0.00326025
0.00334695
0.00343324
0.00351899
0.00360408
0.00368838
0.00377176
0.00385408
0.0039352
0.004015
0.00409334
0.00417009
0.0042451
0.00431824
0.0043894
0.00445845
0.00452526
0.00458973
0.00465174
0.00471119
0.00476797
0.004822
0.0048732
0.00492147
0.00496677
0.00500903
0.0050482
0.00508424
0.00511713
0.00514685
0.00517339
0.00519676
0.00521696
0.00523402
0.00524799
0.0052589
0.00526683
0.00527184
0.00527401
0.00527344
0.00527022
0.00526446
0.00525629
0.00524583
0.00523321
0.00521858
0.0052021
0.0051839
0.00516416
0.00514303
0.00512069
0.0050973
0.00507303
0.00504805
0.00502254
0.00499668
0.00497061
0.00494452
0.00491857
0.00489291
0.0048677
0.00484309
0.00481921
0.0047962
0.00477419
0.0047533
0.00473363
0.0047153
0.00469838
0.00468296
0.0046691
0.00465685
0.00464628
0.0046374
0.00463026
0.0046247
0.00462045
0.000263658
0.000226264
0.000195317
0.00016831
0.000142654
0.000118488
9.59712e-05
7.50753e-05
5.57833e-05
3.81013e-05
2.20392e-05
7.60896e-06
-5.17705e-06
-1.63055e-05
-2.57615e-05
-3.35305e-05
-3.96e-05
-4.39583e-05
-4.65959e-05
-4.75062e-05
-4.66835e-05
-4.41212e-05
-3.98148e-05
-3.37629e-05
-2.59662e-05
-1.64265e-05
-5.14414e-06
7.87914e-06
2.2641e-05
3.91389e-05
5.73681e-05
7.73229e-05
9.90014e-05
0.000122402
0.00014752
0.000174354
0.000202901
0.000233156
0.000265114
0.000298773
0.000334132
0.000371189
0.000409937
0.000450374
0.000492496
0.000536299
0.000581777
0.000628928
0.00067775
0.000728236
0.000780375
0.000834159
0.00088958
0.000946628
0.00100529
0.00106555
0.0011274
0.00119081
0.00125577
0.00132224
0.0013902
0.00145961
0.00153046
0.0016027
0.00167631
0.00175123
0.00182741
0.0019048
0.00198335
0.002063
0.0021437
0.00222537
0.00230794
0.00239135
0.00247552
0.00256035
0.00264577
0.00273168
0.00281798
0.00290457
0.00299136
0.00307823
0.00316508
0.00325178
0.00333822
0.00342427
0.00350979
0.00359467
0.00367877
0.00376195
0.00384409
0.00392506
0.0040047
0.00408289
0.0041595
0.00423437
0.00430739
0.00437843
0.00444735
0.00451404
0.00457838
0.00464027
0.00469959
0.00475625
0.00481014
0.00486118
0.00490931
0.00495444
0.00499652
0.0050355
0.00507135
0.00510403
0.00513352
0.00515982
0.00518294
0.00520287
0.00521966
0.00523334
0.00524395
0.00525156
0.00525625
0.00525809
0.00525718
0.00525361
0.0052475
0.00523897
0.00522815
0.00521518
0.00520019
0.00518334
0.00516479
0.00514469
0.00512321
0.00510052
0.00507679
0.00505218
0.00502687
0.00500104
0.00497484
0.00494846
0.00492205
0.00489577
0.00486979
0.00484425
0.0048193
0.00479507
0.0047717
0.0047493
0.00472801
0.00470791
0.0046891
0.00467167
0.00465568
0.00464121
0.0046283
0.00461698
0.00460728
0.00459925
0.00459261
0.00458699
0.000281643
0.000241413
0.000208234
0.000179408
0.000152133
0.00012655
0.000102822
8.09048e-05
6.07652e-05
4.2392e-05