/*--------------------------------*- C++ -*----------------------------------*\
  =========                 |
  \\      /  F ield         | OpenFOAM: The Open Source CFD Toolbox
   \\    /   O peration     | Website:  https://openfoam.org
    \\  /    A nd           | Version:  7
     \\/     M anipulation  |
\*---------------------------------------------------------------------------*/
FoamFile
{
    version     2.0;
    format      ascii;
    class       surfaceScalarField;
    location    "0.4";
    object      phi;
}
// * * * * * * * * * * * * * * * * * * * * * * * * * * * * * * * * * * * * * //

dimensions      [0 3 -1 0 0 0 0];

internalField   nonuniform List<scalar> 
50880
(
1.15463e-11
-1.15428e-11
3.7733e-11
-2.61871e-11
6.42063e-11
-2.64775e-11
8.28719e-11
-1.86679e-11
8.89947e-11
-6.12223e-12
8.02495e-11
8.74661e-12
5.56622e-11
2.45868e-11
1.50708e-11
4.05915e-11
-4.12073e-11
5.62785e-11
-1.12566e-10
7.13554e-11
-1.98226e-10
8.56589e-11
-2.97318e-10
9.90889e-11
-4.08924e-10
1.1161e-10
-5.3213e-10
1.23207e-10
-6.66018e-10
1.33888e-10
-8.09694e-10
1.43676e-10
-9.62299e-10
1.52603e-10
-1.12301e-09
1.60713e-10
-1.29106e-09
1.68049e-10
-1.46571e-09
1.74653e-10
-1.64628e-09
1.80571e-10
-1.83213e-09
1.85844e-10
-2.02265e-09
1.90519e-10
-2.21728e-09
1.94639e-10
-2.41552e-09
1.98239e-10
-2.61689e-09
2.01363e-10
-2.82093e-09
2.04045e-10
-3.02725e-09
2.06315e-10
-3.23545e-09
2.08205e-10
-3.44519e-09
2.09744e-10
-3.65615e-09
2.10958e-10
-3.86802e-09
2.11872e-10
-4.08053e-09
2.1251e-10
-4.29341e-09
2.12886e-10
-4.50643e-09
2.13019e-10
-4.71936e-09
2.12924e-10
-4.93197e-09
2.12615e-10
-5.14408e-09
2.12103e-10
-5.35548e-09
2.114e-10
-5.56599e-09
2.10511e-10
-5.77543e-09
2.0944e-10
-5.98362e-09
2.08195e-10
-6.19041e-09
2.06781e-10
-6.3956e-09
2.05198e-10
-6.59905e-09
2.03445e-10
-6.80057e-09
2.01524e-10
-7e-09
1.99433e-10
-7.19717e-09
1.97171e-10
-7.3919e-09
1.94734e-10
-7.58403e-09
1.92121e-10
-7.77335e-09
1.89326e-10
-7.9597e-09
1.86344e-10
-8.14287e-09
1.83169e-10
-8.32267e-09
1.79798e-10
-8.49889e-09
1.76226e-10
-8.67133e-09
1.72445e-10
-8.83978e-09
1.6845e-10
-9.00401e-09
1.64235e-10
-9.1638e-09
1.59791e-10
-9.31892e-09
1.55114e-10
-9.46912e-09
1.50201e-10
-9.61417e-09
1.45048e-10
-9.75381e-09
1.39648e-10
-9.88781e-09
1.33995e-10
-1.00159e-08
1.28085e-10
-1.01378e-08
1.21918e-10
-1.02533e-08
1.15491e-10
-1.03621e-08
1.08803e-10
-1.0464e-08
1.01851e-10
-1.05586e-08
9.46356e-11
-1.06458e-08
8.71588e-11
-1.07252e-08
7.94233e-11
-1.07966e-08
7.14331e-11
-1.08598e-08
6.3193e-11
-1.09145e-08
5.47076e-11
-1.09605e-08
4.59836e-11
-1.09975e-08
3.70294e-11
-1.10254e-08
2.78549e-11
-1.10439e-08
1.84722e-11
-1.10527e-08
8.89403e-12
-1.10519e-08
-8.66018e-13
-1.10411e-08
-1.07917e-11
-1.10202e-08
-2.08669e-11
-1.09891e-08
-3.10746e-11
-1.09478e-08
-4.13946e-11
-1.08959e-08
-5.18058e-11
-1.08337e-08
-6.22857e-11
-1.07609e-08
-7.28106e-11
-1.06775e-08
-8.33562e-11
-1.05836e-08
-9.38971e-11
-1.04792e-08
-1.04406e-10
-1.03643e-08
-1.14854e-10
-1.02391e-08
-1.25213e-10
-1.01037e-08
-1.35454e-10
-9.95812e-09
-1.45549e-10
-9.80266e-09
-1.55466e-10
-9.63748e-09
-1.65175e-10
-9.46284e-09
-1.74641e-10
-9.27901e-09
-1.83834e-10
-9.08628e-09
-1.92726e-10
-8.885e-09
-2.01285e-10
-8.67552e-09
-2.09481e-10
-8.45823e-09
-2.17284e-10
-8.23357e-09
-2.24662e-10
-8.00198e-09
-2.31589e-10
-7.76394e-09
-2.38038e-10
-7.51996e-09
-2.43984e-10
-7.27055e-09
-2.49404e-10
-7.01628e-09
-2.54273e-10
-6.75771e-09
-2.5857e-10
-6.49544e-09
-2.62276e-10
-6.23006e-09
-2.65372e-10
-5.96222e-09
-2.67845e-10
-5.69254e-09
-2.6968e-10
-5.42167e-09
-2.70867e-10
-5.15028e-09
-2.71396e-10
-4.87901e-09
-2.71262e-10
-4.60855e-09
-2.70461e-10
-4.33956e-09
-2.68993e-10
-4.0727e-09
-2.66857e-10
-3.80865e-09
-2.64057e-10
-3.54805e-09
-2.60599e-10
-3.29156e-09
-2.56491e-10
-3.03981e-09
-2.51745e-10
-2.79343e-09
-2.46375e-10
-2.55304e-09
-2.40395e-10
-2.31921e-09
-2.33823e-10
-2.09254e-09
-2.26679e-10
-1.87355e-09
-2.18983e-10
-1.66279e-09
-2.10761e-10
-1.46075e-09
-2.02039e-10
-1.26791e-09
-1.92843e-10
-1.08471e-09
-1.83203e-10
-9.11558e-10
-1.73148e-10
-7.48845e-10
-1.62713e-10
-5.96915e-10
-1.5193e-10
-4.56079e-10
-1.40837e-10
-3.2661e-10
-1.2947e-10
-2.08742e-10
-1.17868e-10
-1.02668e-10
-1.06074e-10
-8.53468e-12
-9.41329e-11
7.35574e-11
-8.20925e-11
1.43561e-10
-7.00044e-11
2.01486e-10
-5.79258e-11
2.47407e-10
-4.59207e-11
2.81468e-10
-3.40614e-11
3.03898e-10
-2.24306e-11
3.15024e-10
-1.11261e-11
3.15289e-10
-2.651e-13
3.05279e-10
1.00089e-11
2.85762e-10
1.95169e-11
2.57731e-10
2.80306e-11
2.22478e-10
3.52528e-11
1.81689e-10
4.07885e-11
1.37583e-10
4.41054e-11
9.30882e-11
4.4494e-11
5.20421e-11
4.10463e-11
1.94009e-11
3.26416e-11
1.13793e-12
1.82622e-11
1.13756e-12
2.50167e-11
-3.65599e-11
6.69505e-11
-6.81079e-11
1.03516e-10
-6.30396e-11
1.19113e-10
-3.4263e-11
1.0379e-10
9.20077e-12
5.15054e-11
6.10307e-11
-4.09036e-11
1.16992e-10
-1.74626e-10
1.74315e-10
-3.4953e-10
2.31183e-10
-5.64598e-10
2.86431e-10
-8.18249e-10
3.39308e-10
-1.10852e-09
3.89365e-10
-1.43326e-09
4.36343e-10
-1.79018e-09
4.80123e-10
-2.17696e-09
5.20674e-10
-2.59131e-09
5.58026e-10
-3.03098e-09
5.92265e-10
-3.49377e-09
6.23505e-10
-3.9776e-09
6.51877e-10
-4.48047e-09
6.77525e-10
-5.0005e-09
7.00597e-10
-5.5359e-09
7.21246e-10
-6.085e-09
7.39625e-10
-6.64624e-09
7.55878e-10
-7.21815e-09
7.70148e-10
-7.79936e-09
7.82576e-10
-8.38861e-09
7.93288e-10
-8.98471e-09
8.02404e-10
-9.58655e-09
8.10044e-10
-1.01931e-08
8.16309e-10
-1.08035e-08
8.21297e-10
-1.14167e-08
8.25101e-10
-1.2032e-08
8.27799e-10
-1.26485e-08
8.29463e-10
-1.32657e-08
8.30158e-10
-1.38827e-08
8.29943e-10
-1.4499e-08
8.28867e-10
-1.51138e-08
8.26976e-10
-1.57267e-08
8.24306e-10
-1.63371e-08
8.20889e-10
-1.69444e-08
8.16748e-10
-1.75481e-08
8.11903e-10
-1.81477e-08
8.06367e-10
-1.87427e-08
8.00148e-10
-1.93325e-08
7.93254e-10
-1.99166e-08
7.85687e-10
-2.04946e-08
7.77441e-10
-2.1066e-08
7.68511e-10
-2.16301e-08
7.58888e-10
-2.21866e-08
7.48559e-10
-2.27348e-08
7.37508e-10
-2.32741e-08
7.2572e-10
-2.38041e-08
7.13177e-10
-2.43242e-08
6.99861e-10
-2.48337e-08
6.85749e-10
-2.53321e-08
6.70823e-10
-2.58187e-08
6.55061e-10
-2.62929e-08
6.38443e-10
-2.67541e-08
6.20943e-10
-2.72015e-08
6.02544e-10
-2.76345e-08
5.83227e-10
-2.80524e-08
5.62974e-10
-2.84546e-08
5.41768e-10
-2.88402e-08
5.19593e-10
-2.92085e-08
4.96435e-10
-2.95589e-08
4.72287e-10
-2.98905e-08
4.47142e-10
-3.02027e-08
4.20994e-10
-3.04947e-08
3.93844e-10
-3.07658e-08
3.65691e-10
-3.10152e-08
3.36543e-10
-3.12421e-08
3.06409e-10
-3.1446e-08
2.75304e-10
-3.16261e-08
2.43247e-10
-3.17816e-08
2.10262e-10
-3.1912e-08
1.76377e-10
-3.20166e-08
1.41626e-10
-3.20948e-08
1.06047e-10
-3.2146e-08
6.96823e-11
-3.21697e-08
3.25828e-11
-3.21654e-08
-5.19768e-12
-3.21326e-08
-4.35995e-11
-3.20709e-08
-8.25576e-11
-3.19799e-08
-1.22004e-10
-3.18595e-08
-1.61863e-10
-3.17092e-08
-2.02053e-10
-3.1529e-08
-2.42488e-10
-3.13188e-08
-2.8308e-10
-3.10784e-08
-3.23734e-10
-3.08079e-08
-3.64353e-10
-3.05075e-08
-4.04834e-10
-3.01773e-08
-4.4507e-10
-2.98175e-08
-4.84952e-10
-2.94286e-08
-5.24368e-10
-2.9011e-08
-5.63205e-10
-2.85651e-08
-6.01348e-10
-2.80916e-08
-6.38681e-10
-2.75911e-08
-6.75085e-10
-2.70645e-08
-7.10441e-10
-2.65126e-08
-7.44631e-10
-2.59364e-08
-7.77539e-10
-2.53368e-08
-8.09051e-10
-2.4715e-08
-8.39055e-10
-2.40722e-08
-8.67441e-10
-2.34097e-08
-8.94102e-10
-2.27288e-08
-9.18935e-10
-2.2031e-08
-9.41843e-10
-2.13176e-08
-9.62736e-10
-2.05904e-08
-9.81528e-10
-1.98508e-08
-9.98137e-10
-1.91006e-08
-1.01249e-09
-1.83415e-08
-1.02452e-09
-1.75751e-08
-1.03417e-09
-1.68034e-08
-1.04139e-09
-1.60281e-08
-1.04614e-09
-1.52511e-08
-1.04839e-09
-1.44743e-08
-1.0481e-09
-1.36995e-08
-1.04527e-09
-1.29286e-08
-1.03989e-09
-1.21635e-08
-1.03197e-09
-1.1406e-08
-1.02151e-09
-1.06581e-08
-1.00854e-09
-9.92149e-09
-9.93093e-10
-9.19803e-09
-9.75208e-10
-8.48947e-09
-9.54934e-10
-7.79754e-09
-9.3233e-10
-7.1239e-09
-9.07463e-10
-6.47017e-09
-8.80407e-10
-5.8379e-09
-8.51245e-10
-5.22859e-09
-8.20069e-10
-4.64366e-09
-7.86976e-10
-4.08443e-09
-7.5207e-10
-3.55217e-09
-7.15463e-10
-3.04805e-09
-6.77273e-10
-2.57313e-09
-6.37628e-10
-2.1284e-09
-5.9666e-10
-1.71473e-09
-5.54508e-10
-1.33288e-09
-5.1132e-10
-9.83494e-10
-4.67252e-10
-6.67098e-10
-4.2247e-10
-3.84079e-10
-3.77152e-10
-1.34681e-10
-3.31489e-10
8.10046e-11
-2.8569e-10
2.63062e-10
-2.39984e-10
4.11764e-10
-1.94623e-10
5.276e-10
-1.49898e-10
6.11306e-10
-1.06138e-10
6.63907e-10
-6.37276e-11
6.86766e-10
-2.31227e-11
6.81647e-10
1.51277e-11
6.50808e-10
5.03549e-11
5.97107e-10
8.17304e-11
5.24141e-10
1.08219e-10
4.36414e-10
1.28515e-10
3.3954e-10
1.40978e-10
2.40435e-10
1.43598e-10
1.4742e-10
1.34061e-10
7.00558e-11
1.10005e-10
1.82125e-11
7.01052e-11
1.93497e-11
2.64126e-11
-6.29767e-11
6.24579e-11
-1.04152e-10
8.2386e-11
-8.2966e-11
6.7888e-11
-1.97651e-11
6.36563e-12
7.07249e-11
-1.10318e-10
1.77712e-10
-2.86846e-10
2.9352e-10
-5.25337e-10
4.12799e-10
-8.26036e-10
5.31883e-10
-1.18788e-09
6.48273e-10
-1.60887e-09
7.60308e-10
-2.08642e-09
8.66912e-10
-2.6175e-09
9.67427e-10
-3.19888e-09
1.0615e-09
-3.82718e-09
1.14897e-09
-4.49899e-09
1.22985e-09
-5.21097e-09
1.30424e-09
-5.95979e-09
1.37233e-09
-6.74228e-09
1.43436e-09
-7.55536e-09
1.49061e-09
-8.39611e-09
1.54135e-09
-9.26175e-09
1.58689e-09
-1.01497e-08
1.62753e-09
-1.10574e-08
1.66358e-09
-1.19825e-08
1.69533e-09
-1.2923e-08
1.72305e-09
-1.38768e-08
1.74702e-09
-1.48418e-08
1.7675e-09
-1.58165e-08
1.78472e-09
-1.67991e-08
1.7989e-09
-1.77881e-08
1.81026e-09
-1.8782e-08
1.81899e-09
-1.97794e-08
1.82524e-09
-2.07791e-08
1.8292e-09
-2.178e-08
1.83098e-09
-2.27807e-08
1.83073e-09
-2.37804e-08
1.82854e-09
-2.4778e-08
1.82451e-09
-2.57724e-08
1.81873e-09
-2.67628e-08
1.81126e-09
-2.77482e-08
1.80216e-09
-2.87277e-08
1.79147e-09
-2.97006e-08
1.77922e-09
-3.06659e-08
1.76544e-09
-3.16228e-08
1.75013e-09
-3.25704e-08
1.7333e-09
-3.35079e-08
1.71494e-09
-3.44344e-08
1.69505e-09
-3.53491e-08
1.67361e-09
-3.62512e-08
1.65059e-09
-3.71396e-08
1.62596e-09
-3.80136e-08
1.59969e-09
-3.88722e-08
1.57175e-09
-3.97144e-08
1.54208e-09
-4.05393e-08
1.51066e-09
-4.13459e-08
1.47743e-09
-4.21332e-08
1.44236e-09
-4.29002e-08
1.4054e-09
-4.36457e-08
1.3665e-09
-4.43688e-08
1.32563e-09
-4.50683e-08
1.28274e-09
-4.57431e-08
1.2378e-09
-4.63921e-08
1.19077e-09
-4.70142e-08
1.14163e-09
-4.76081e-08
1.09035e-09
-4.81727e-08
1.0369e-09
-4.87068e-08
9.81283e-10
-4.92093e-08
9.23481e-10
-4.9679e-08
8.63499e-10
-5.01146e-08
8.01343e-10
-5.05151e-08
7.37029e-10
-5.08793e-08
6.7058e-10
-5.1206e-08
6.02031e-10
-5.14942e-08
5.31423e-10
-5.17427e-08
4.58811e-10
-5.19506e-08
3.84259e-10
-5.21168e-08
3.07841e-10
-5.22404e-08
2.29642e-10
-5.23205e-08
1.4976e-10
-5.23562e-08
6.83004e-11
-5.23468e-08
-1.46151e-11
-5.22916e-08
-9.88568e-11
-5.21898e-08
-1.84283e-10
-5.20411e-08
-2.70742e-10
-5.18449e-08
-3.58069e-10
-5.16009e-08
-4.4609e-10
-5.13087e-08
-5.34617e-10
-5.09684e-08
-6.23455e-10
-5.05797e-08
-7.124e-10
-5.01428e-08
-8.01239e-10
-4.96579e-08
-8.89749e-10
-4.91253e-08
-9.77702e-10
-4.85453e-08
-1.06486e-09
-4.79187e-08
-1.15099e-09
-4.72461e-08
-1.23583e-09
-4.65283e-08
-1.31914e-09
-4.57663e-08
-1.40067e-09
-4.49612e-08
-1.48016e-09
-4.41143e-08
-1.55735e-09
-4.3227e-08
-1.632e-09
-4.23006e-08
-1.70386e-09
-4.1337e-08
-1.77266e-09
-4.03379e-08
-1.83818e-09
-3.93052e-08
-1.90018e-09
-3.82408e-08
-1.95843e-09
-3.71471e-08
-2.0127e-09
-3.60261e-08
-2.06279e-09
-3.48804e-08
-2.1085e-09
-3.37122e-08
-2.14964e-09
-3.25243e-08
-2.18605e-09
-3.13193e-08
-2.21755e-09
-3.00998e-08
-2.24402e-09
-2.88686e-08
-2.26532e-09
-2.76287e-08
-2.28135e-09
-2.63828e-08
-2.29202e-09
-2.51339e-08
-2.29725e-09
-2.3885e-08
-2.29699e-09
-2.26391e-08
-2.29121e-09
-2.13991e-08
-2.2799e-09
-2.0168e-08
-2.26307e-09
-1.89488e-08
-2.24074e-09
-1.77443e-08
-2.21296e-09
-1.65576e-08
-2.1798e-09
-1.53915e-08
-2.14134e-09
-1.42487e-08
-2.09769e-09
-1.31321e-08
-2.04898e-09
-1.20442e-08
-1.99536e-09
-1.09876e-08
-1.93697e-09
-9.96486e-09
-1.87401e-09
-8.97826e-09
-1.80667e-09
-8.03009e-09
-1.73515e-09
-7.12246e-09
-1.6597e-09
-6.25737e-09
-1.58055e-09
-5.43668e-09
-1.49797e-09
-4.66208e-09
-1.41222e-09
-3.93514e-09
-1.32361e-09
-3.25721e-09
-1.23243e-09
-2.6295e-09
-1.13903e-09
-2.05302e-09
-1.04374e-09
-1.52856e-09
-9.46926e-10
-1.05672e-09
-8.48995e-10
-6.3784e-10
-7.50371e-10
-2.72015e-10
-6.51516e-10
4.09424e-11
-5.5294e-10
3.01531e-10
-4.55212e-10
5.106e-10
-3.58968e-10
6.69397e-10
-2.64936e-10
7.79624e-10
-1.73954e-10
8.4351e-10
-8.70075e-11
8.63901e-10
-5.26313e-12
8.44368e-10
6.9886e-11
7.89347e-10
1.36751e-10
7.04283e-10
1.93283e-10
5.95806e-10
2.36991e-10
4.71901e-10
2.64881e-10
3.42037e-10
2.73462e-10
2.17183e-10
2.58914e-10
1.09614e-10
2.17574e-10
3.24428e-11
1.47276e-10
5.17921e-11
1.87195e-11
-8.16969e-11
3.41382e-11
-1.1957e-10
1.95162e-11
-6.83453e-11
-4.40566e-11
4.38065e-11
-1.69998e-10
1.96664e-10
-3.67284e-10
3.75e-10
-6.41336e-10
5.6757e-10
-9.94802e-10
7.66268e-10
-1.42822e-09
9.65298e-10
-1.94054e-09
1.16059e-09
-2.52955e-09
1.34932e-09
-3.19223e-09
1.52959e-09
-3.92499e-09
1.70019e-09
-4.7239e-09
1.8604e-09
-5.58478e-09
2.00985e-09
-6.5034e-09
2.14846e-09
-7.4755e-09
2.27633e-09
-8.49686e-09
2.3937e-09
-9.56339e-09
2.50089e-09
-1.06711e-08
2.59833e-09
-1.18162e-08
2.68646e-09
-1.29951e-08
2.76575e-09
-1.42043e-08
2.83669e-09
-1.54404e-08
2.89975e-09
-1.67005e-08
2.95542e-09
-1.79816e-08
3.00416e-09
-1.9281e-08
3.04641e-09
-2.05961e-08
3.0826e-09
-2.19245e-08
3.11312e-09
-2.3264e-08
3.13836e-09
-2.46124e-08
3.15866e-09
-2.59677e-08
3.17433e-09
-2.73281e-08
3.18568e-09
-2.86919e-08
3.19296e-09
-3.00573e-08
3.19642e-09
-3.14229e-08
3.19627e-09
-3.2787e-08
3.1927e-09
-3.41484e-08
3.18586e-09
-3.55056e-08
3.17591e-09
-3.68572e-08
3.16296e-09
-3.82022e-08
3.1471e-09
-3.95391e-08
3.12841e-09
-4.08669e-08
3.10695e-09
-4.21842e-08
3.08276e-09
-4.34899e-08
3.05587e-09
-4.47829e-08
3.02627e-09
-4.60619e-08
2.99397e-09
-4.73258e-08
2.95895e-09
-4.85734e-08
2.92119e-09
-4.98034e-08
2.88063e-09
-5.10147e-08
2.83724e-09
-5.2206e-08
2.79097e-09
-5.3376e-08
2.74174e-09
-5.45234e-08
2.6895e-09
-5.56469e-08
2.63418e-09
-5.67452e-08
2.57571e-09
-5.78169e-08
2.51401e-09
-5.88605e-08
2.44902e-09
-5.98746e-08
2.38065e-09
-6.08579e-08
2.30885e-09
-6.18087e-08
2.23354e-09
-6.27255e-08
2.15468e-09
-6.3607e-08
2.07219e-09
-6.44514e-08
1.98604e-09
-6.52572e-08
1.89619e-09
-6.60229e-08
1.8026e-09
-6.67469e-08
1.70526e-09
-6.74276e-08
1.60416e-09
-6.80634e-08
1.4993e-09
-6.86527e-08
1.39069e-09
-6.91941e-08
1.27837e-09
-6.96859e-08
1.16239e-09
-7.01266e-08
1.0428e-09
-7.05149e-08
9.19684e-10
-7.08492e-08
7.93135e-10
-7.11282e-08
6.63268e-10
-7.13506e-08
5.30212e-10
-7.15151e-08
3.94118e-10
-7.16205e-08
2.55155e-10
-7.16657e-08
1.1351e-10
-7.16497e-08
-3.06088e-11
-7.15716e-08
-1.76974e-10
-7.14305e-08
-3.2534e-10
-7.12258e-08
-4.75442e-10
-7.09569e-08
-6.26996e-10
-7.06233e-08
-7.79701e-10
-7.02247e-08
-9.33235e-10
-6.97608e-08
-1.08726e-09
-6.92318e-08
-1.24143e-09
-6.86377e-08
-1.39537e-09
-6.79787e-08
-1.5487e-09
-6.72554e-08
-1.70103e-09
-6.64683e-08
-1.85195e-09
-6.56182e-08
-2.00105e-09
-6.47062e-08
-2.14791e-09
-6.37332e-08
-2.29209e-09
-6.27007e-08
-2.43317e-09
-6.16102e-08
-2.5707e-09
-6.04633e-08
-2.70426e-09
-5.92619e-08
-2.83341e-09
-5.8008e-08
-2.95772e-09
-5.67039e-08
-3.07676e-09
-5.5352e-08
-3.19013e-09
-5.39547e-08
-3.29742e-09
-5.25149e-08
-3.39823e-09
-5.10354e-08
-3.4922e-09
-4.95193e-08
-3.57896e-09
-4.79696e-08
-3.65817e-09
-4.63897e-08
-3.72952e-09
-4.4783e-08
-3.79271e-09
-4.31531e-08
-3.84747e-09
-4.15036e-08
-3.89355e-09
-3.98382e-08
-3.93076e-09
-3.81606e-08
-3.95888e-09
-3.64749e-08
-3.97779e-09
-3.47848e-08
-3.98734e-09
-3.30943e-08
-3.98745e-09
-3.14074e-08
-3.97807e-09
-2.97282e-08
-3.95917e-09
-2.80605e-08
-3.93076e-09
-2.64083e-08
-3.8929e-09
-2.47756e-08
-3.84565e-09
-2.31663e-08
-3.78915e-09
-2.15841e-08
-3.72352e-09
-2.00328e-08
-3.64897e-09
-1.85161e-08
-3.5657e-09
-1.70375e-08
-3.47395e-09
-1.56005e-08
-3.37402e-09
-1.42083e-08
-3.26619e-09
-1.28641e-08
-3.15082e-09
-1.1571e-08
-3.02827e-09
-1.03318e-08
-2.89894e-09
-9.14909e-09
-2.76324e-09
-8.02543e-09
-2.62162e-09
-6.96308e-09
-2.47458e-09
-5.96408e-09
-2.32261e-09
-5.03026e-09
-2.16625e-09
-4.16321e-09
-2.00608e-09
-3.36425e-09
-1.8427e-09
-2.63442e-09
-1.67676e-09
-1.97447e-09
-1.50895e-09
-1.38482e-09
-1.34002e-09
-8.65541e-10
-1.17079e-09
-4.1633e-10
-1.00215e-09
-3.64548e-11
-8.35088e-10
2.75285e-10
-6.70708e-10
5.20616e-10
-5.10265e-10
7.01857e-10
-3.55195e-10
8.22009e-10
-2.0716e-10
8.84843e-10
-6.80987e-11
8.95029e-10
5.97014e-11
8.5825e-10
1.73531e-10
7.81357e-10
2.70175e-10
6.72514e-10
3.45831e-10
5.41333e-10
3.96062e-10
3.98967e-10
4.15828e-10
2.58177e-10
3.99704e-10
1.33345e-10
3.42407e-10
4.0666e-11
2.39954e-10
9.24576e-11
6.38756e-12
-8.80834e-11
-9.14242e-12
-1.04041e-10
-7.11797e-11
-6.30675e-12
-1.97699e-10
1.70324e-10
-4.0171e-10
4.00673e-10
-6.92113e-10
6.65398e-10
-1.07441e-09
9.49871e-10
-1.55138e-09
1.24323e-09
-2.1236e-09
1.53753e-09
-2.79e-09
1.82698e-09
-3.54818e-09
2.1075e-09
-4.39482e-09
2.37623e-09
-5.32592e-09
2.63129e-09
-6.337e-09
2.87148e-09
-7.42332e-09
3.09617e-09
-8.57996e-09
3.3051e-09
-9.80195e-09
3.49833e-09
-1.10844e-08
3.67611e-09
-1.24223e-08
3.83888e-09
-1.38112e-08
3.98716e-09
-1.52463e-08
4.12157e-09
-1.67233e-08
4.24276e-09
-1.8238e-08
4.35142e-09
-1.97865e-08
4.44822e-09
-2.13649e-08
4.53385e-09
-2.29697e-08
4.60898e-09
-2.45976e-08
4.67426e-09
-2.62453e-08
4.73031e-09
-2.79099e-08
4.77771e-09
-2.95885e-08
4.81701e-09
-3.12786e-08
4.84872e-09
-3.29776e-08
4.87333e-09
-3.46832e-08
4.89126e-09
-3.63931e-08
4.90291e-09
-3.81054e-08
4.90864e-09
-3.98179e-08
4.90877e-09
-4.15288e-08
4.90359e-09
-4.32362e-08
4.89333e-09
-4.49385e-08
4.87821e-09
-4.6634e-08
4.85841e-09
-4.8321e-08
4.83407e-09
-4.99979e-08
4.80533e-09
-5.16632e-08
4.77225e-09
-5.33153e-08
4.73492e-09
-5.49528e-08
4.69336e-09
-5.65741e-08
4.64759e-09
-5.81778e-08
4.59762e-09
-5.97622e-08
4.54342e-09
-6.1326e-08
4.48495e-09
-6.28675e-08
4.42215e-09
-6.43852e-08
4.35496e-09
-6.58776e-08
4.28331e-09
-6.73429e-08
4.2071e-09
-6.87797e-08
4.12624e-09
-7.01861e-08
4.04063e-09
-7.15606e-08
3.95017e-09
-7.29013e-08
3.85476e-09
-7.42066e-08
3.75429e-09
-7.54746e-08
3.64865e-09
-7.67035e-08
3.53775e-09
-7.78914e-08
3.4215e-09
-7.90366e-08
3.2998e-09
-8.01369e-08
3.17258e-09
-8.11907e-08
3.03978e-09
-8.21958e-08
2.90134e-09
-8.31504e-08
2.75721e-09
-8.40526e-08
2.60739e-09
-8.49003e-08
2.45184e-09
-8.56916e-08
2.2906e-09
-8.64245e-08
2.12368e-09
-8.70973e-08
1.95114e-09
-8.7708e-08
1.77305e-09
-8.82547e-08
1.58952e-09
-8.87357e-08
1.40066e-09
-8.91491e-08
1.20662e-09
-8.94935e-08
1.00758e-09
-8.9767e-08
8.03745e-10
-8.99682e-08
5.95341e-10
-9.00957e-08
3.8263e-10
-9.01481e-08
1.65902e-10
-9.01242e-08
-5.45272e-11
-9.00228e-08
-2.7831e-10
-8.98431e-08
-5.0507e-10
-8.95841e-08
-7.34405e-10
-8.92452e-08
-9.6588e-10
-8.88259e-08
-1.19904e-09
-8.83258e-08
-1.43339e-09
-8.77446e-08
-1.66843e-09
-8.70824e-08
-1.90361e-09
-8.63394e-08
-2.13839e-09
-8.55159e-08
-2.37219e-09
-8.46125e-08
-2.6044e-09
-8.36301e-08
-2.83442e-09
-8.25695e-08
-3.06162e-09
-8.1432e-08
-3.28537e-09
-8.02191e-08
-3.505e-09
-7.89324e-08
-3.71988e-09
-7.75738e-08
-3.92935e-09
-7.61453e-08
-4.13274e-09
-7.46493e-08
-4.32941e-09
-7.30883e-08
-4.51871e-09
-7.1465e-08
-4.7e-09
-6.97825e-08
-4.87266e-09
-6.80438e-08
-5.03607e-09
-6.62524e-08
-5.18966e-09
-6.44118e-08
-5.33285e-09
-6.25256e-08
-5.4651e-09
-6.05979e-08
-5.58591e-09
-5.86326e-08
-5.69479e-09
-5.6634e-08
-5.7913e-09
-5.46064e-08
-5.87504e-09
-5.25544e-08
-5.94563e-09
-5.04824e-08
-6.00276e-09
-4.83951e-08
-6.04615e-09
-4.62973e-08
-6.07556e-09
-4.41939e-08
-6.0908e-09
-4.20896e-08
-6.09175e-09
-3.99893e-08
-6.07832e-09
-3.7898e-08
-6.05046e-09
-3.58206e-08
-6.00821e-09
-3.37618e-08
-5.95163e-09
-3.17266e-08
-5.88084e-09
-2.97198e-08
-5.79601e-09
-2.77459e-08
-5.69737e-09
-2.58097e-08
-5.58519e-09
-2.39156e-08
-5.4598e-09
-2.2068e-08
-5.32156e-09
-2.02711e-08
-5.17091e-09
-1.8529e-08
-5.0083e-09
-1.68456e-08
-4.83425e-09
-1.52245e-08
-4.64931e-09
-1.36694e-08
-4.45409e-09
-1.21834e-08
-4.24922e-09
-1.07696e-08
-4.03541e-09
-9.4308e-09
-3.81338e-09
-8.1695e-09
-3.5839e-09
-6.98794e-09
-3.34781e-09
-5.88804e-09
-3.10598e-09
-4.87139e-09
-2.85934e-09
-3.93925e-09
-2.6089e-09
-3.09249e-09
-2.3557e-09
-2.3316e-09
-2.10092e-09
-1.6566e-09
-1.84579e-09
-1.06707e-09
-1.59168e-09
-5.6206e-10
-1.3401e-09
-1.40042e-10
-1.09272e-09
2.01136e-10
-8.51444e-10
4.64337e-10
-6.18397e-10
6.53214e-10
-3.96037e-10
7.72309e-10
-1.87193e-10
8.27159e-10
4.85182e-12
8.24417e-10
1.76273e-10
7.71977e-10
3.22612e-10
6.791e-10
4.38707e-10
5.56527e-10
5.18635e-10
4.16597e-10
5.55758e-10
2.7339e-10
5.42909e-10
1.42975e-10
4.72822e-10
4.40202e-11
3.38908e-10
1.36477e-10
-8.48299e-12
-7.95996e-11
-6.13764e-11
-5.11481e-11
-1.79536e-10
1.11849e-10
-3.78786e-10
3.69577e-10
-6.70809e-10
6.92693e-10
-1.0637e-09
1.05829e-09
-1.56253e-09
1.44869e-09
-2.16977e-09
1.85048e-09
-2.88584e-09
2.2536e-09
-3.70945e-09
2.6506e-09
-4.63802e-09
3.03607e-09
-5.66793e-09
3.40614e-09
-6.79482e-09
3.75819e-09
-8.01383e-09
4.09049e-09
-9.31972e-09
4.40206e-09
-1.07071e-08
4.69243e-09
-1.21703e-08
4.96157e-09
-1.37039e-08
5.20973e-09
-1.53024e-08
5.43741e-09
-1.69605e-08
5.64525e-09
-1.8673e-08
5.83401e-09
-2.04347e-08
6.00454e-09
-2.22411e-08
6.15772e-09
-2.40873e-08
6.29446e-09
-2.59691e-08
6.41565e-09
-2.78823e-08
6.52218e-09
-2.9823e-08
6.61493e-09
-3.17874e-08
6.69472e-09
-3.3772e-08
6.76235e-09
-3.57736e-08
6.81857e-09
-3.77889e-08
6.86406e-09
-3.98151e-08
6.89948e-09
-4.18492e-08
6.92543e-09
-4.38888e-08
6.94245e-09
-4.59312e-08
6.95103e-09
-4.7974e-08
6.95162e-09
-5.0015e-08
6.94461e-09
-5.2052e-08
6.93033e-09
-5.40829e-08
6.90909e-09
-5.61057e-08
6.88113e-09
-5.81183e-08
6.84667e-09
-6.01188e-08
6.80586e-09
-6.21054e-08
6.75885e-09
-6.40762e-08
6.70571e-09
-6.60293e-08
6.64651e-09
-6.7963e-08
6.58128e-09
-6.98754e-08
6.51001e-09
-7.17647e-08
6.43269e-09
-7.3629e-08
6.34925e-09
-7.54665e-08
6.25964e-09
-7.72753e-08
6.16376e-09
-7.90535e-08
6.06151e-09
-8.07991e-08
5.95277e-09
-8.25103e-08
5.83743e-09
-8.4185e-08
5.71534e-09
-8.58212e-08
5.58637e-09
-8.74168e-08
5.45038e-09
-8.89698e-08
5.30723e-09
-9.04779e-08
5.15678e-09
-9.19391e-08
4.9989e-09
-9.3351e-08
4.83347e-09
-9.47116e-08
4.66037e-09
-9.60185e-08
4.4795e-09
-9.72695e-08
4.29078e-09
-9.84623e-08
4.09413e-09
-9.95946e-08
3.88951e-09
-1.00664e-07
3.67688e-09
-1.01669e-07
3.45625e-09
-1.02606e-07
3.22764e-09
-1.03473e-07
2.99109e-09
-1.04269e-07
2.74669e-09
-1.0499e-07
2.49454e-09
-1.05635e-07
2.23479e-09
-1.06202e-07
1.96763e-09
-1.06689e-07
1.69325e-09
-1.07093e-07
1.41192e-09
-1.07413e-07
1.12392e-09
-1.07648e-07
8.29588e-10
-1.07794e-07
5.29286e-10
-1.07852e-07
2.23426e-10
-1.07819e-07
-8.75431e-11
-1.07694e-07
-4.03134e-10
-1.07476e-07
-7.22817e-10
-1.07165e-07
-1.04602e-09
-1.06758e-07
-1.37214e-09
-1.06257e-07
-1.70053e-09
-1.0566e-07
-2.03051e-09
-1.04967e-07
-2.36137e-09
-1.04178e-07
-2.69235e-09
-1.03294e-07
-3.02267e-09
-1.02314e-07
-3.35153e-09
-1.01241e-07
-3.67811e-09
-1.00074e-07
-4.00153e-09
-9.88143e-08
-4.32093e-09
-9.74643e-08
-4.63541e-09
-9.60252e-08
-4.94409e-09
-9.4499e-08
-5.24604e-09
-9.2888e-08
-5.54035e-09
-9.11947e-08
-5.82612e-09
-8.94217e-08
-6.10242e-09
-8.7572e-08
-6.36837e-09
-8.56489e-08
-6.62307e-09
-8.36559e-08
-6.86566e-09
-8.15967e-08
-7.09529e-09
-7.94752e-08
-7.31114e-09
-7.72957e-08
-7.51242e-09
-7.50624e-08
-7.6984e-09
-7.27799e-08
-7.86835e-09
-7.04531e-08
-8.02161e-09
-6.80868e-08
-8.15757e-09
-6.56862e-08
-8.27566e-09
-6.32564e-08
-8.37538e-09
-6.08029e-08
-8.45626e-09
-5.83312e-08
-8.51793e-09
-5.58466e-08
-8.56006e-09
-5.33551e-08
-8.5824e-09
-5.08621e-08
-8.58474e-09
-4.83734e-08
-8.56699e-09
-4.58948e-08
-8.52908e-09
-4.34319e-08
-8.47104e-09
-4.09906e-08
-8.39297e-09
-3.85764e-08
-8.29504e-09
-3.61949e-08
-8.17748e-09
-3.38517e-08
-8.04061e-09
-3.15521e-08
-7.88481e-09
-2.93013e-08
-7.71053e-09
-2.71046e-08
-7.51829e-09
-2.49668e-08
-7.30868e-09
-2.28928e-08
-7.08236e-09
-2.0887e-08
-6.84003e-09
-1.89538e-08
-6.58248e-09
-1.70974e-08
-6.31056e-09
-1.53214e-08
-6.02517e-09
-1.36296e-08
-5.72727e-09
-1.2025e-08
-5.41791e-09
-1.05108e-08
-5.09817e-09
-9.08933e-09
-4.76923e-09
-7.76299e-09
-4.43232e-09
-6.53357e-09
-4.08876e-09
-5.4025e-09
-3.73997e-09
-4.37076e-09
-3.38744e-09
-3.43888e-09
-3.03281e-09
-2.60684e-09
-2.67782e-09
-1.87411e-09
-2.32441e-09
-1.23953e-09
-1.97468e-09
-7.01298e-10
-1.63096e-09
-2.56884e-10
-1.29586e-09
9.70299e-11
-9.72311e-10
3.64636e-10
-6.63643e-10
5.5109e-10
-3.73646e-10
6.62607e-10
-1.06667e-10
7.06573e-10
1.32305e-10
6.91646e-10
3.37538e-10
6.27871e-10
5.02482e-10
5.26791e-10
6.19714e-10
4.01592e-10
6.80955e-10
2.67325e-10
6.77176e-10
1.41279e-10
5.98866e-10
4.37498e-11
4.36437e-10
1.80227e-10
-2.45754e-11
-5.50254e-11
-1.18561e-10
4.28348e-11
-2.98359e-10
2.91645e-10
-5.7688e-10
6.48094e-10
-9.63812e-10
1.07963e-09
-1.46592e-09
1.5604e-09
-2.08735e-09
2.07012e-09
-2.82997e-09
2.5931e-09
-3.69375e-09
3.11738e-09
-4.67705e-09
3.6339e-09
-5.77697e-09
4.13598e-09
-6.98958e-09
4.61875e-09
-8.31021e-09
5.07881e-09
-9.73361e-09
5.51389e-09
-1.12542e-08
5.9226e-09
-1.2866e-08
6.30424e-09
-1.4563e-08
6.65864e-09
-1.63393e-08
6.98604e-09
-1.81889e-08
7.28697e-09
-2.01058e-08
7.56218e-09
-2.20844e-08
7.81258e-09
-2.4119e-08
8.03918e-09
-2.62044e-08
8.24308e-09
-2.83354e-08
8.42541e-09
-3.0507e-08
8.58728e-09
-3.27146e-08
8.72982e-09
-3.49538e-08
8.85414e-09
-3.72204e-08
8.96128e-09
-3.95103e-08
9.05226e-09
-4.18198e-08
9.12803e-09
-4.41452e-08
9.18951e-09
-4.64832e-08
9.23751e-09
-4.88306e-08
9.27282e-09
-5.11843e-08
9.29614e-09
-5.35414e-08
9.30811e-09
-5.58991e-08
9.30931e-09
-5.82547e-08
9.30025e-09
-6.06058e-08
9.28138e-09
-6.29498e-08
9.25309e-09
-6.52844e-08
9.2157e-09
-6.76072e-08
9.1695e-09
-6.9916e-08
9.1147e-09
-7.22087e-08
9.05148e-09
-7.44829e-08
8.97996e-09
-7.67366e-08
8.90023e-09
-7.89677e-08
8.81232e-09
-8.11739e-08
8.71625e-09
-8.33532e-08
8.61198e-09
-8.55034e-08
8.49945e-09
-8.76224e-08
8.37858e-09
-8.97079e-08
8.24926e-09
-9.17577e-08
8.11135e-09
-9.37697e-08
7.96472e-09
-9.57414e-08
7.80921e-09
-9.76707e-08
7.64464e-09
-9.95552e-08
7.47084e-09
-1.01392e-07
7.28764e-09
-1.0318e-07
7.09486e-09
-1.04916e-07
6.89232e-09
-1.06597e-07
6.67986e-09
-1.0822e-07
6.45733e-09
-1.09785e-07
6.22457e-09
-1.11287e-07
5.98147e-09
-1.12724e-07
5.72792e-09
-1.14094e-07
5.46384e-09
-1.15393e-07
5.18917e-09
-1.1662e-07
4.90389e-09
-1.17772e-07
4.60799e-09
-1.18846e-07
4.30151e-09
-1.19839e-07
3.98453e-09
-1.2075e-07
3.65717e-09
-1.21575e-07
3.31957e-09
-1.22312e-07
2.97194e-09
-1.22959e-07
2.61452e-09
-1.23513e-07
2.24761e-09
-1.23973e-07
1.87154e-09
-1.24336e-07
1.48671e-09
-1.246e-07
1.09356e-09
-1.24763e-07
6.92578e-10
-1.24824e-07
2.84318e-10
-1.24781e-07
-1.30622e-10
-1.24632e-07
-5.51588e-10
-1.24377e-07
-9.77877e-10
-1.24014e-07
-1.40873e-09
-1.23543e-07
-1.84334e-09
-1.22963e-07
-2.28085e-09
-1.22273e-07
-2.72037e-09
-1.21473e-07
-3.16093e-09
-1.20564e-07
-3.60155e-09
-1.19546e-07
-4.04119e-09
-1.18418e-07
-4.4788e-09
-1.17183e-07
-4.91327e-09
-1.15841e-07
-5.34347e-09
-1.14394e-07
-5.76824e-09
-1.12843e-07
-6.18642e-09
-1.1119e-07
-6.59681e-09
-1.09438e-07
-6.99822e-09
-1.07589e-07
-7.38944e-09
-1.05646e-07
-7.76927e-09
-1.03612e-07
-8.13652e-09
-1.0149e-07
-8.48998e-09
-9.92848e-08
-8.82851e-09
-9.69995e-08
-9.15096e-09
-9.46385e-08
-9.45621e-09
-9.22065e-08
-9.74319e-09
-8.9708e-08
-1.00109e-08
-8.71482e-08
-1.02583e-08
-8.45321e-08
-1.04844e-08
-8.18652e-08
-1.06885e-08
-7.91532e-08
-1.08696e-08
-7.64017e-08
-1.10272e-08
-7.36167e-08
-1.11603e-08
-7.08043e-08
-1.12686e-08
-6.79708e-08
-1.13515e-08
-6.51224e-08
-1.14085e-08
-6.22654e-08
-1.14393e-08
-5.94065e-08
-1.14437e-08
-5.6552e-08
-1.14215e-08
-5.37084e-08
-1.13727e-08
-5.08823e-08
-1.12972e-08
-4.808e-08
-1.11952e-08
-4.53081e-08
-1.1067e-08
-4.25728e-08
-1.09127e-08
-3.98805e-08
-1.0733e-08
-3.72371e-08
-1.05282e-08
-3.46487e-08
-1.0299e-08
-3.2121e-08
-1.0046e-08
-2.96597e-08
-9.76997e-09
-2.72702e-08
-9.47187e-09
-2.49576e-08
-9.15261e-09
-2.27269e-08
-8.81322e-09
-2.05826e-08
-8.45483e-09
-1.85291e-08
-8.07863e-09
-1.65705e-08
-7.68592e-09
-1.47103e-08
-7.27807e-09
-1.2952e-08
-6.85654e-09
-1.12983e-08
-6.4229e-09
-9.75182e-09
-5.97879e-09
-8.3146e-09
-5.52598e-09
-6.98824e-09
-5.06634e-09
-5.77379e-09
-4.60189e-09
-4.67181e-09
-4.13478e-09
-3.68227e-09
-3.66736e-09
-2.80452e-09
-3.20217e-09
-2.03722e-09
-2.74198e-09
-1.37833e-09
-2.28985e-09
-8.25016e-10
-1.84917e-09
-3.73578e-10
-1.42375e-09
-1.93955e-11
-1.01783e-09
2.43168e-10
-6.3621e-10
4.20847e-10
-2.84347e-10
5.21568e-10
3.15825e-11
5.54542e-10
3.04563e-10
5.30368e-10
5.26655e-10
4.61148e-10
6.88932e-10
3.60655e-10
7.81447e-10
2.44582e-10
7.93249e-10
1.30959e-10
7.12488e-10
4.08763e-11
5.26519e-10
2.21103e-10
-4.11158e-11
-1.39108e-11
-1.78084e-10
1.79806e-10
-4.22684e-10
5.36238e-10
-7.84496e-10
1.00991e-09
-1.27081e-09
1.56594e-09
-1.88663e-09
2.17622e-09
-2.63484e-09
2.81833e-09
-3.5164e-09
3.47466e-09
-4.53059e-09
4.13157e-09
-5.67526e-09
4.77858e-09
-6.94708e-09
5.4078e-09
-8.34174e-09
6.01342e-09
-9.85422e-09
6.59129e-09
-1.14789e-08
7.13858e-09
-1.32098e-08
7.6535e-09
-1.50407e-08
8.1351e-09
-1.69651e-08
8.58307e-09
-1.89766e-08
8.99758e-09
-2.10688e-08
9.37919e-09
-2.32354e-08
9.72874e-09
-2.54701e-08
1.00473e-08
-2.7767e-08
1.0336e-08
-3.01201e-08
1.05962e-08
-3.2524e-08
1.08293e-08
-3.49732e-08
1.10365e-08
-3.74626e-08
1.12192e-08
-3.99873e-08
1.13789e-08
-4.25427e-08
1.15166e-08
-4.51243e-08
1.16338e-08
-4.77278e-08
1.17316e-08
-5.03494e-08
1.18111e-08
-5.29852e-08
1.18733e-08
-5.56315e-08
1.19192e-08
-5.8285e-08
1.19496e-08
-6.09424e-08
1.19655e-08
-6.36005e-08
1.19674e-08
-6.62563e-08
1.19561e-08
-6.89069e-08
1.1932e-08
-7.15496e-08
1.18957e-08
-7.41815e-08
1.18477e-08
-7.68002e-08
1.17882e-08
-7.9403e-08
1.17175e-08
-8.19874e-08
1.16359e-08
-8.45509e-08
1.15435e-08
-8.70911e-08
1.14404e-08
-8.96054e-08
1.13267e-08
-9.20916e-08
1.12024e-08
-9.45471e-08
1.10675e-08
-9.69695e-08
1.09219e-08
-9.93564e-08
1.07654e-08
-1.01705e-07
1.05981e-08