0.05 	0.0003125 	0.005 	0.0323195
0.05 	0.0009375 	0.005 	0.0323627
0.05 	0.0015625 	0.005 	0.0323972
0.05 	0.0021875 	0.005 	0.0324257
0.05 	0.0028125 	0.005 	0.0324513
0.05 	0.0034375 	0.005 	0.032474
0.05 	0.0040625 	0.005 	0.0324934
0.05 	0.0046875 	0.005 	0.0325097
0.05 	0.0053125 	0.005 	0.0325227
0.05 	0.0059375 	0.005 	0.0325326
0.05 	0.0065625 	0.005 	0.0325393
0.05 	0.0071875 	0.005 	0.0325429
0.05 	0.0078125 	0.005 	0.032543
0.05 	0.0084375 	0.005 	0.0325395
0.05 	0.0090625 	0.005 	0.0325321
0.05 	0.0096875 	0.005 	0.0325205
0.05 	0.0103125 	0.005 	0.0325044
0.05 	0.0109375 	0.005 	0.0324835
0.05 	0.0115625 	0.005 	0.0324576
0.05 	0.0121875 	0.005 	0.0324264
0.05 	0.0128125 	0.005 	0.0323896
0.05 	0.0134375 	0.005 	0.0323468
0.05 	0.0140625 	0.005 	0.0322975
0.05 	0.0146875 	0.005 	0.0322414
0.05 	0.0153125 	0.005 	0.0321782
0.05 	0.0159375 	0.005 	0.0321078
0.05 	0.0165625 	0.005 	0.0320299
0.05 	0.0171875 	0.005 	0.0319444
0.05 	0.0178125 	0.005 	0.0318509
0.05 	0.0184375 	0.005 	0.0317492
0.05 	0.0190625 	0.005 	0.0316388
0.05 	0.0196875 	0.005 	0.0315193
0.05 	0.0203125 	0.005 	0.0313903
0.05 	0.0209375 	0.005 	0.0312512
0.05 	0.0215625 	0.005 	0.0311013
0.05 	0.0221875 	0.005 	0.0309401
0.05 	0.0228125 	0.005 	0.0307667
0.05 	0.0234375 	0.005 	0.0305807
0.05 	0.0240625 	0.005 	0.0303814
0.05 	0.0246875 	0.005 	0.0301683
0.05 	0.0253125 	0.005 	0.0299408
0.05 	0.0259375 	0.005 	0.0296984
0.05 	0.0265625 	0.005 	0.0294406
0.05 	0.0271875 	0.005 	0.0291671
0.05 	0.0278125 	0.005 	0.0288774
0.05 	0.0284375 	0.005 	0.0285708
0.05 	0.0290625 	0.005 	0.0282467
0.05 	0.0296875 	0.005 	0.0279041
0.05 	0.0303125 	0.005 	0.0275424
0.05 	0.0309375 	0.005 	0.0271606
0.05 	0.0315625 	0.005 	0.0267578
0.05 	0.0321875 	0.005 	0.0263331
0.05 	0.0328125 	0.005 	0.0258855
0.05 	0.0334375 	0.005 	0.0254142
0.05 	0.0340625 	0.005 	0.0249182
0.05 	0.0346875 	0.005 	0.0243966
0.05 	0.0353125 	0.005 	0.0238489
0.05 	0.0359375 	0.005 	0.0232744
0.05 	0.0365625 	0.005 	0.0226726
0.05 	0.0371875 	0.005 	0.0220427
0.05 	0.0378125 	0.005 	0.0213842
0.05 	0.0384375 	0.005 	0.0206962
0.05 	0.0390625 	0.005 	0.0199778
0.05 	0.0396875 	0.005 	0.0192281
0.05 	0.0403125 	0.005 	0.0184463
0.05 	0.0409375 	0.005 	0.0176314
0.05 	0.0415625 	0.005 	0.0167829
0.05 	0.0421875 	0.005 	0.0159001
0.05 	0.0428125 	0.005 	0.0149822
0.05 	0.0434375 	0.005 	0.0140287
0.05 	0.0440625 	0.005 	0.013039
0.05 	0.0446875 	0.005 	0.0120124
0.05 	0.0453125 	0.005 	0.0109485
0.05 	0.0459375 	0.005 	0.00984708
0.05 	0.0465625 	0.005 	0.00870795
0.05 	0.0471875 	0.005 	0.00753092
0.05 	0.0478125 	0.005 	0.00631582
0.05 	0.0484375 	0.005 	0.00506245
0.05 	0.0490625 	0.005 	0.00377059
0.05 	0.0496875 	0.005 	0.00244003
0.05 	0.0503125 	0.005 	0.00107064
0.05 	0.0509375 	0.005 	-0.000337535
0.05 	0.0515625 	0.005 	-0.00178418
0.05 	0.0521875 	0.005 	-0.00326865
0.05 	0.0528125 	0.005 	-0.00478997
0.05 	0.0534375 	0.005 	-0.00634696
0.05 	0.0540625 	0.005 	-0.00793849
0.05 	0.0546875 	0.005 	-0.00956349
0.05 	0.0553125 	0.005 	-0.0112209
0.05 	0.0559375 	0.005 	-0.0129094
0.05 	0.0565625 	0.005 	-0.0146278
0.05 	0.0571875 	0.005 	-0.0163745
0.05 	0.0578125 	0.005 	-0.0181478
0.05 	0.0584375 	0.005 	-0.0199455
0.05 	0.0590625 	0.005 	-0.0217655
0.05 	0.0596875 	0.005 	-0.0236051
0.05 	0.0603125 	0.005 	-0.0254617
0.05 	0.0609375 	0.005 	-0.0273325
0.05 	0.0615625 	0.005 	-0.0292145
0.05 	0.0621875 	0.005 	-0.0311043
0.05 	0.0628125 	0.005 	-0.0329984
0.05 	0.0634375 	0.005 	-0.0348932
0.05 	0.0640625 	0.005 	-0.0367846
0.05 	0.0646875 	0.005 	-0.0386687
0.05 	0.0653125 	0.005 	-0.0405413
0.05 	0.0659375 	0.005 	-0.0423984
0.05 	0.0665625 	0.005 	-0.0442355
0.05 	0.0671875 	0.005 	-0.0460482
0.05 	0.0678125 	0.005 	-0.0478316
0.05 	0.0684375 	0.005 	-0.0495808
0.05 	0.0690625 	0.005 	-0.0512904
0.05 	0.0696875 	0.005 	-0.052955
0.05 	0.0703125 	0.005 	-0.0545695
0.05 	0.0709375 	0.005 	-0.0561287
0.05 	0.0715625 	0.005 	-0.0576276
0.05 	0.0721875 	0.005 	-0.0590615
0.05 	0.0728125 	0.005 	-0.0604254
0.05 	0.0734375 	0.005 	-0.0617148
0.05 	0.0740625 	0.005 	-0.0629248
0.05 	0.0746875 	0.005 	-0.0640509
0.05 	0.0753125 	0.005 	-0.0650885
0.05 	0.0759375 	0.005 	-0.0660336
0.05 	0.0765625 	0.005 	-0.0668824
0.05 	0.0771875 	0.005 	-0.0676315
0.05 	0.0778125 	0.005 	-0.0682779
0.05 	0.0784375 	0.005 	-0.068819
0.05 	0.0790625 	0.005 	-0.069253
0.05 	0.0796875 	0.005 	-0.0695781
0.05 	0.0803125 	0.005 	-0.0697933
0.05 	0.0809375 	0.005 	-0.069898
0.05 	0.0815625 	0.005 	-0.0698923
0.05 	0.0821875 	0.005 	-0.069777
0.05 	0.0828125 	0.005 	-0.0695533
0.05 	0.0834375 	0.005 	-0.0692235
0.05 	0.0840625 	0.005 	-0.0687903
0.05 	0.0846875 	0.005 	-0.0682572
0.05 	0.0853125 	0.005 	-0.0676282
0.05 	0.0859375 	0.005 	-0.0669082
0.05 	0.0865625 	0.005 	-0.0661026
0.05 	0.0871875 	0.005 	-0.0652175
0.05 	0.0878125 	0.005 	-0.0642596
0.05 	0.0884375 	0.005 	-0.063236
0.05 	0.0890625 	0.005 	-0.0621547
0.05 	0.0896875 	0.005 	-0.061024
0.05 	0.0903125 	0.005 	-0.0598528
0.05 	0.0909375 	0.005 	-0.0586501
0.05 	0.0915625 	0.005 	-0.0574253
0.05 	0.0921875 	0.005 	-0.056188
0.05 	0.0928125 	0.005 	-0.0549475
0.05 	0.0934375 	0.005 	-0.0537133
0.05 	0.0940625 	0.005 	-0.0524946
0.05 	0.0946875 	0.005 	-0.0513006
0.05 	0.0953125 	0.005 	-0.0501401
0.05 	0.0959375 	0.005 	-0.0490212
0.05 	0.0965625 	0.005 	-0.0479516
0.05 	0.0971875 	0.005 	-0.0469379
0.05 	0.0978125 	0.005 	-0.04599
0.05 	0.0984375 	0.005 	-0.0451171
0.05 	0.0990625 	0.005 	-0.0442727
0.05 	0.0996875 	0.005 	-0.0434089
