0.05 	0.0003125 	0.005 	-0.00215645 	3.57551e-07 	0
0.05 	0.0009375 	0.005 	-0.00634028 	2.43537e-06 	0
0.05 	0.0015625 	0.005 	-0.0104031 	6.99672e-06 	0
0.05 	0.0021875 	0.005 	-0.0143522 	1.3642e-05 	0
0.05 	0.0028125 	0.005 	-0.0181945 	2.21608e-05 	0
0.05 	0.0034375 	0.005 	-0.0219361 	3.24453e-05 	0
0.05 	0.0040625 	0.005 	-0.0255831 	4.43908e-05 	0
0.05 	0.0046875 	0.005 	-0.0291413 	5.79002e-05 	0
0.05 	0.0053125 	0.005 	-0.0326162 	7.28892e-05 	0
0.05 	0.0059375 	0.005 	-0.0360129 	8.9287e-05 	0
0.05 	0.0065625 	0.005 	-0.0393364 	0.000107034 	0
0.05 	0.0071875 	0.005 	-0.0425915 	0.000126083 	0
0.05 	0.0078125 	0.005 	-0.0457826 	0.000146397 	0
0.05 	0.0084375 	0.005 	-0.0489142 	0.000167951 	0
0.05 	0.0090625 	0.005 	-0.0519901 	0.00019073 	0
0.05 	0.0096875 	0.005 	-0.0550144 	0.000214729 	0
0.05 	0.0103125 	0.005 	-0.0579908 	0.000239953 	0
0.05 	0.0109375 	0.005 	-0.0609226 	0.000266418 	0
0.05 	0.0115625 	0.005 	-0.0638134 	0.000294146 	0
0.05 	0.0121875 	0.005 	-0.0666662 	0.00032317 	0
0.05 	0.0128125 	0.005 	-0.069484 	0.000353533 	0
0.05 	0.0134375 	0.005 	-0.0722696 	0.000385281 	0
0.05 	0.0140625 	0.005 	-0.0750258 	0.000418475 	0
0.05 	0.0146875 	0.005 	-0.0777551 	0.00045318 	0
0.05 	0.0153125 	0.005 	-0.0804598 	0.00048947 	0
0.05 	0.0159375 	0.005 	-0.0831421 	0.000527428 	0
0.05 	0.0165625 	0.005 	-0.0858043 	0.000567143 	0
0.05 	0.0171875 	0.005 	-0.0884481 	0.000608709 	0
0.05 	0.0178125 	0.005 	-0.0910755 	0.00065223 	0
0.05 	0.0184375 	0.005 	-0.0936882 	0.000697817 	0
0.05 	0.0190625 	0.005 	-0.0962876 	0.000745587 	0
0.05 	0.0196875 	0.005 	-0.0988753 	0.000795663 	0
0.05 	0.0203125 	0.005 	-0.101452 	0.000848175 	0
0.05 	0.0209375 	0.005 	-0.10402 	0.00090326 	0
0.05 	0.0215625 	0.005 	-0.10658 	0.000961058 	0
0.05 	0.0221875 	0.005 	-0.109133 	0.00102172 	0
0.05 	0.0228125 	0.005 	-0.111678 	0.00108539 	0
0.05 	0.0234375 	0.005 	-0.114219 	0.00115224 	0
0.05 	0.0240625 	0.005 	-0.116753 	0.00122243 	0
0.05 	0.0246875 	0.005 	-0.119284 	0.00129613 	0
0.05 	0.0253125 	0.005 	-0.121809 	0.0013735 	0
0.05 	0.0259375 	0.005 	-0.12433 	0.00145473 	0
0.05 	0.0265625 	0.005 	-0.126847 	0.00154 	0
0.05 	0.0271875 	0.005 	-0.12936 	0.00162949 	0
0.05 	0.0278125 	0.005 	-0.131868 	0.00172339 	0
0.05 	0.0284375 	0.005 	-0.134372 	0.00182188 	0
0.05 	0.0290625 	0.005 	-0.13687 	0.00192518 	0
0.05 	0.0296875 	0.005 	-0.139362 	0.00203345 	0
0.05 	0.0303125 	0.005 	-0.141848 	0.00214691 	0
0.05 	0.0309375 	0.005 	-0.144326 	0.00226575 	0
0.05 	0.0315625 	0.005 	-0.146796 	0.00239017 	0
0.05 	0.0321875 	0.005 	-0.149256 	0.00252035 	0
0.05 	0.0328125 	0.005 	-0.151705 	0.0026565 	0
0.05 	0.0334375 	0.005 	-0.154142 	0.00279881 	0
0.05 	0.0340625 	0.005 	-0.156565 	0.00294746 	0
0.05 	0.0346875 	0.005 	-0.158972 	0.00310265 	0
0.05 	0.0353125 	0.005 	-0.161361 	0.00326455 	0
0.05 	0.0359375 	0.005 	-0.163731 	0.00343335 	0
0.05 	0.0365625 	0.005 	-0.166078 	0.00360921 	0
0.05 	0.0371875 	0.005 	-0.168401 	0.00379229 	0
0.05 	0.0378125 	0.005 	-0.170698 	0.00398275 	0
0.05 	0.0384375 	0.005 	-0.172964 	0.00418073 	0
0.05 	0.0390625 	0.005 	-0.175197 	0.00438637 	0
0.05 	0.0396875 	0.005 	-0.177395 	0.00459979 	0
0.05 	0.0403125 	0.005 	-0.179553 	0.00482108 	0
0.05 	0.0409375 	0.005 	-0.181669 	0.00505036 	0
0.05 	0.0415625 	0.005 	-0.183738 	0.00528769 	0
0.05 	0.0421875 	0.005 	-0.185757 	0.00553313 	0
0.05 	0.0428125 	0.005 	-0.18772 	0.00578672 	0
0.05 	0.0434375 	0.005 	-0.189625 	0.00604847 	0
0.05 	0.0440625 	0.005 	-0.191467 	0.00631839 	0
0.05 	0.0446875 	0.005 	-0.19324 	0.00659644 	0
0.05 	0.0453125 	0.005 	-0.194939 	0.00688257 	0
0.05 	0.0459375 	0.005 	-0.19656 	0.0071767 	0
0.05 	0.0465625 	0.005 	-0.198097 	0.0074787 	0
0.05 	0.0471875 	0.005 	-0.199544 	0.00778844 	0
0.05 	0.0478125 	0.005 	-0.200894 	0.00810574 	0
0.05 	0.0484375 	0.005 	-0.202143 	0.00843038 	0
0.05 	0.0490625 	0.005 	-0.203283 	0.00876212 	0
0.05 	0.0496875 	0.005 	-0.204308 	0.00910066 	0
0.05 	0.0503125 	0.005 	-0.20521 	0.00944567 	0
0.05 	0.0509375 	0.005 	-0.205982 	0.00979678 	0
0.05 	0.0515625 	0.005 	-0.206617 	0.0101536 	0
0.05 	0.0521875 	0.005 	-0.207108 	0.0105156 	0
0.05 	0.0528125 	0.005 	-0.207445 	0.0108823 	0
0.05 	0.0534375 	0.005 	-0.20762 	0.0112531 	0
0.05 	0.0540625 	0.005 	-0.207626 	0.0116275 	0
0.05 	0.0546875 	0.005 	-0.207452 	0.0120048 	0
0.05 	0.0553125 	0.005 	-0.207091 	0.0123842 	0
0.05 	0.0559375 	0.005 	-0.206531 	0.012765 	0
0.05 	0.0565625 	0.005 	-0.205764 	0.0131463 	0
0.05 	0.0571875 	0.005 	-0.20478 	0.0135273 	0
0.05 	0.0578125 	0.005 	-0.203567 	0.0139071 	0
0.05 	0.0584375 	0.005 	-0.202117 	0.0142846 	0
0.05 	0.0590625 	0.005 	-0.200417 	0.0146588 	0
0.05 	0.0596875 	0.005 	-0.198456 	0.0150286 	0
0.05 	0.0603125 	0.005 	-0.196224 	0.0153928 	0
0.05 	0.0609375 	0.005 	-0.193709 	0.0157503 	0
0.05 	0.0615625 	0.005 	-0.190898 	0.0160998 	0
0.05 	0.0621875 	0.005 	-0.187779 	0.0164399 	0
0.05 	0.0628125 	0.005 	-0.18434 	0.0167694 	0
0.05 	0.0634375 	0.005 	-0.180569 	0.0170868 	0
0.05 	0.0640625 	0.005 	-0.176453 	0.0173908 	0
0.05 	0.0646875 	0.005 	-0.171978 	0.0176799 	0
0.05 	0.0653125 	0.005 	-0.167131 	0.0179525 	0
0.05 	0.0659375 	0.005 	-0.161899 	0.0182072 	0
0.05 	0.0665625 	0.005 	-0.156268 	0.0184425 	0
0.05 	0.0671875 	0.005 	-0.150225 	0.0186569 	0
0.05 	0.0678125 	0.005 	-0.143755 	0.0188488 	0
0.05 	0.0684375 	0.005 	-0.136845 	0.0190167 	0
0.05 	0.0690625 	0.005 	-0.129481 	0.0191591 	0
0.05 	0.0696875 	0.005 	-0.121648 	0.0192746 	0
0.05 	0.0703125 	0.005 	-0.113333 	0.0193617 	0
0.05 	0.0709375 	0.005 	-0.104521 	0.0194191 	0
0.05 	0.0715625 	0.005 	-0.0951979 	0.0194455 	0
0.05 	0.0721875 	0.005 	-0.0853505 	0.0194397 	0
0.05 	0.0728125 	0.005 	-0.0749643 	0.0194004 	0
0.05 	0.0734375 	0.005 	-0.0640258 	0.0193268 	0
0.05 	0.0740625 	0.005 	-0.0525213 	0.0192177 	0
0.05 	0.0746875 	0.005 	-0.0404375 	0.0190726 	0
0.05 	0.0753125 	0.005 	-0.0277613 	0.0188908 	0
0.05 	0.0759375 	0.005 	-0.01448 	0.0186717 	0
0.05 	0.0765625 	0.005 	-0.000581239 	0.0184151 	0
0.05 	0.0771875 	0.005 	0.013947 	0.0181209 	0
0.05 	0.0778125 	0.005 	0.0291161 	0.0177892 	0
0.05 	0.0784375 	0.005 	0.0449371 	0.0174203 	0
0.05 	0.0790625 	0.005 	0.0614202 	0.0170147 	0
0.05 	0.0796875 	0.005 	0.0785752 	0.0165734 	0
0.05 	0.0803125 	0.005 	0.096411 	0.0160973 	0
0.05 	0.0809375 	0.005 	0.114936 	0.0155877 	0
0.05 	0.0815625 	0.005 	0.134157 	0.0150462 	0
0.05 	0.0821875 	0.005 	0.154081 	0.0144748 	0
0.05 	0.0828125 	0.005 	0.174713 	0.0138754 	0
0.05 	0.0834375 	0.005 	0.196057 	0.0132507 	0
0.05 	0.0840625 	0.005 	0.218117 	0.0126031 	0
0.05 	0.0846875 	0.005 	0.240895 	0.0119358 	0
0.05 	0.0853125 	0.005 	0.264392 	0.0112519 	0
0.05 	0.0859375 	0.005 	0.288606 	0.0105549 	0
0.05 	0.0865625 	0.005 	0.313536 	0.00984859 	0
0.05 	0.0871875 	0.005 	0.339179 	0.00913677 	0
0.05 	0.0878125 	0.005 	0.36553 	0.00842359 	0
0.05 	0.0884375 	0.005 	0.392581 	0.00771332 	0
0.05 	0.0890625 	0.005 	0.420326 	0.00701034 	0
0.05 	0.0896875 	0.005 	0.448753 	0.00631912 	0
0.05 	0.0903125 	0.005 	0.477852 	0.00564417 	0
0.05 	0.0909375 	0.005 	0.507609 	0.00499 	0
0.05 	0.0915625 	0.005 	0.538009 	0.00436106 	0
0.05 	0.0921875 	0.005 	0.569035 	0.00376167 	0
0.05 	0.0928125 	0.005 	0.600668 	0.003196 	0
0.05 	0.0934375 	0.005 	0.632887 	0.00266796 	0
0.05 	0.0940625 	0.005 	0.665671 	0.00218114 	0
0.05 	0.0946875 	0.005 	0.698996 	0.00173878 	0
0.05 	0.0953125 	0.005 	0.732834 	0.00134363 	0
0.05 	0.0959375 	0.005 	0.767159 	0.000997913 	0
0.05 	0.0965625 	0.005 	0.801941 	0.000703261 	0
0.05 	0.0971875 	0.005 	0.83715 	0.000460615 	0
0.05 	0.0978125 	0.005 	0.872753 	0.000270042 	0
0.05 	0.0984375 	0.005 	0.908717 	0.00013052 	0
0.05 	0.0990625 	0.005 	0.945008 	4.15835e-05 	0
0.05 	0.0996875 	0.005 	0.981587 	4.92474e-06 	0
