/*--------------------------------*- C++ -*----------------------------------*\
  =========                 |
  \\      /  F ield         | OpenFOAM: The Open Source CFD Toolbox
   \\    /   O peration     | Website:  https://openfoam.org
    \\  /    A nd           | Version:  7
     \\/     M anipulation  |
\*---------------------------------------------------------------------------*/
FoamFile
{
    version     2.0;
    format      ascii;
    class       volVectorField;
    location    "0.225";
    object      U;
}
// * * * * * * * * * * * * * * * * * * * * * * * * * * * * * * * * * * * * * //

dimensions      [0 1 -1 0 0 0 0];

internalField   nonuniform List<vector> 
25600
(
(9.16531e-07 -8.60466e-07 0)
(3.15671e-06 -1.37399e-06 0)
(5.42962e-06 -1.10268e-06 0)
(6.1884e-06 -4.49171e-07 0)
(4.80461e-06 3.278e-07 0)
(1.08447e-06 1.11192e-06 0)
(-4.956e-06 1.85777e-06 0)
(-1.32049e-05 2.5448e-06 0)
(-2.35066e-05 3.16568e-06 0)
(-3.56876e-05 3.71945e-06 0)
(-4.95676e-05 4.20743e-06 0)
(-6.49685e-05 4.63444e-06 0)
(-8.17212e-05 5.00826e-06 0)
(-9.96668e-05 5.33534e-06 0)
(-0.000118655 5.61801e-06 0)
(-0.000138548 5.85792e-06 0)
(-0.000159217 6.05885e-06 0)
(-0.000180547 6.22598e-06 0)
(-0.000202435 6.36432e-06 0)
(-0.000224785 6.47815e-06 0)
(-0.000247514 6.5701e-06 0)
(-0.000270546 6.64121e-06 0)
(-0.000293814 6.69274e-06 0)
(-0.000317259 6.72719e-06 0)
(-0.000340829 6.74838e-06 0)
(-0.000364479 6.76024e-06 0)
(-0.000388171 6.76451e-06 0)
(-0.000411871 6.75987e-06 0)
(-0.000435548 6.74476e-06 0)
(-0.000459175 6.72107e-06 0)
(-0.000482731 6.69354e-06 0)
(-0.000506199 6.66534e-06 0)
(-0.000529563 6.63531e-06 0)
(-0.000552807 6.59999e-06 0)
(-0.000575917 6.558e-06 0)
(-0.000598883 6.51206e-06 0)
(-0.000621695 6.46626e-06 0)
(-0.000644346 6.42186e-06 0)
(-0.000666826 6.37624e-06 0)
(-0.000689127 6.32613e-06 0)
(-0.00071124 6.27126e-06 0)
(-0.000733157 6.21433e-06 0)
(-0.000754873 6.15783e-06 0)
(-0.00077638 6.10142e-06 0)
(-0.000797669 6.04263e-06 0)
(-0.000818733 5.97965e-06 0)
(-0.000839563 5.91303e-06 0)
(-0.00086015 5.8446e-06 0)
(-0.000880486 5.77525e-06 0)
(-0.000900563 5.70408e-06 0)
(-0.00092037 5.62956e-06 0)
(-0.000939897 5.5511e-06 0)
(-0.000959135 5.46931e-06 0)
(-0.000978073 5.38502e-06 0)
(-0.000996701 5.29832e-06 0)
(-0.00101501 5.20853e-06 0)
(-0.00103298 5.11497e-06 0)
(-0.0010506 5.01749e-06 0)
(-0.00106787 4.91636e-06 0)
(-0.00108477 4.81183e-06 0)
(-0.00110129 4.70385e-06 0)
(-0.00111741 4.59209e-06 0)
(-0.00113313 4.4762e-06 0)
(-0.00114842 4.35599e-06 0)
(-0.00116327 4.23155e-06 0)
(-0.00117768 4.10325e-06 0)
(-0.00119162 3.97128e-06 0)
(-0.00120508 3.83527e-06 0)
(-0.00121805 3.69443e-06 0)
(-0.00123052 3.54837e-06 0)
(-0.00124246 3.3977e-06 0)
(-0.00125386 3.24345e-06 0)
(-0.00126471 3.08587e-06 0)
(-0.001275 2.92391e-06 0)
(-0.0012847 2.75625e-06 0)
(-0.0012938 2.58285e-06 0)
(-0.0013023 2.40514e-06 0)
(-0.00131016 2.22445e-06 0)
(-0.00131739 2.04048e-06 0)
(-0.00132395 1.85163e-06 0)
(-0.00132985 1.65684e-06 0)
(-0.00133506 1.4568e-06 0)
(-0.00133957 1.25319e-06 0)
(-0.00134337 1.04691e-06 0)
(-0.00134643 8.37179e-07 0)
(-0.00134876 6.22624e-07 0)
(-0.00135034 4.02924e-07 0)
(-0.00135114 1.79186e-07 0)
(-0.00135117 -4.72758e-08 0)
(-0.00135041 -2.76217e-07 0)
(-0.00134885 -5.08408e-07 0)
(-0.00134647 -7.44507e-07 0)
(-0.00134327 -9.84196e-07 0)
(-0.00133924 -1.22648e-06 0)
(-0.00133438 -1.47068e-06 0)
(-0.00132866 -1.71686e-06 0)
(-0.00132209 -1.96537e-06 0)
(-0.00131466 -2.21611e-06 0)
(-0.00130636 -2.46846e-06 0)
(-0.00129719 -2.72185e-06 0)
(-0.00128715 -2.97611e-06 0)
(-0.00127623 -3.23128e-06 0)
(-0.00126443 -3.4871e-06 0)
(-0.00125175 -3.74296e-06 0)
(-0.00123819 -3.99832e-06 0)
(-0.00122375 -4.25298e-06 0)
(-0.00120844 -4.50696e-06 0)
(-0.00119226 -4.76e-06 0)
(-0.00117521 -5.01152e-06 0)
(-0.00115731 -5.26089e-06 0)
(-0.00113855 -5.50774e-06 0)
(-0.00111894 -5.75188e-06 0)
(-0.00109851 -5.993e-06 0)
(-0.00107725 -6.23062e-06 0)
(-0.00105519 -6.46426e-06 0)
(-0.00103233 -6.69354e-06 0)
(-0.00100869 -6.918e-06 0)
(-0.00098429 -7.13698e-06 0)
(-0.000959152 -7.34979e-06 0)
(-0.000933295 -7.55597e-06 0)
(-0.000906744 -7.75527e-06 0)
(-0.000879522 -7.94726e-06 0)
(-0.000851659 -8.13104e-06 0)
(-0.000823184 -8.30555e-06 0)
(-0.00079413 -8.46992e-06 0)
(-0.000764532 -8.62361e-06 0)
(-0.00073443 -8.76609e-06 0)
(-0.000703864 -8.89641e-06 0)
(-0.000672881 -9.0132e-06 0)
(-0.000641528 -9.11503e-06 0)
(-0.000609859 -9.20073e-06 0)
(-0.000577932 -9.26928e-06 0)
(-0.000545808 -9.31948e-06 0)
(-0.000513554 -9.34975e-06 0)
(-0.000481244 -9.35824e-06 0)
(-0.000448955 -9.34307e-06 0)
(-0.000416771 -9.30242e-06 0)
(-0.000384784 -9.23438e-06 0)
(-0.00035309 -9.13684e-06 0)
(-0.000321795 -9.00749e-06 0)
(-0.000291012 -8.84394e-06 0)
(-0.000260861 -8.64363e-06 0)
(-0.00023147 -8.40372e-06 0)
(-0.000202977 -8.12108e-06 0)
(-0.00017553 -7.79255e-06 0)
(-0.000149283 -7.41496e-06 0)
(-0.000124402 -6.98502e-06 0)
(-0.000101061 -6.49905e-06 0)
(-7.94438e-05 -5.9529e-06 0)
(-5.97421e-05 -5.34219e-06 0)
(-4.21542e-05 -4.66291e-06 0)
(-2.68825e-05 -3.91172e-06 0)
(-1.41275e-05 -3.08647e-06 0)
(-4.07667e-06 -2.18844e-06 0)
(3.10635e-06 -1.22847e-06 0)
(7.32518e-06 -2.2894e-07 0)
(8.61139e-06 7.44273e-07 0)
(7.22743e-06 1.53496e-06 0)
(4.07003e-06 1.84411e-06 0)
(1.11119e-06 1.11092e-06 0)
(1.4509e-06 -3.16852e-06 0)
(4.33707e-06 -4.25239e-06 0)
(5.77976e-06 -2.28802e-06 0)
(3.36858e-06 1.27572e-06 0)
(-4.18392e-06 5.52618e-06 0)
(-1.73974e-05 9.96346e-06 0)
(-3.63724e-05 1.4316e-05 0)
(-6.09743e-05 1.84394e-05 0)
(-9.09185e-05 2.2263e-05 0)
(-0.000125839 2.57573e-05 0)
(-0.000165326 2.89138e-05 0)
(-0.000208957 3.17364e-05 0)
(-0.000256314 3.42396e-05 0)
(-0.000306991 3.64441e-05 0)
(-0.000360597 3.83707e-05 0)
(-0.000416769 4.00384e-05 0)
(-0.000475165 4.14674e-05 0)
(-0.000535473 4.2679e-05 0)
(-0.000597407 4.36948e-05 0)
(-0.000660704 4.4535e-05 0)
(-0.00072513 4.52185e-05 0)
(-0.00079047 4.57619e-05 0)
(-0.000856536 4.61801e-05 0)
(-0.000923156 4.64872e-05 0)
(-0.000990182 4.66969e-05 0)
(-0.00105748 4.68229e-05 0)
(-0.00112494 4.68773e-05 0)
(-0.00119246 4.68693e-05 0)
(-0.00125994 4.68049e-05 0)
(-0.00132731 4.66904e-05 0)
(-0.00139451 4.65337e-05 0)
(-0.00146147 4.63431e-05 0)
(-0.00152814 4.61239e-05 0)
(-0.00159449 4.58779e-05 0)
(-0.00166046 4.56058e-05 0)
(-0.00172602 4.531e-05 0)
(-0.00179114 4.49948e-05 0)
(-0.00185579 4.46641e-05 0)
(-0.00191995 4.43184e-05 0)
(-0.00198359 4.39564e-05 0)
(-0.00204668 4.35767e-05 0)
(-0.00210921 4.31803e-05 0)
(-0.00217114 4.27695e-05 0)
(-0.00223245 4.2345e-05 0)
(-0.00229313 4.19056e-05 0)
(-0.00235314 4.14491e-05 0)
(-0.00241246 4.09746e-05 0)
(-0.00247108 4.04826e-05 0)
(-0.00252895 3.99736e-05 0)
(-0.00258606 3.94472e-05 0)
(-0.00264238 3.89018e-05 0)
(-0.00269788 3.8336e-05 0)
(-0.00275253 3.77491e-05 0)
(-0.0028063 3.71412e-05 0)
(-0.00285916 3.65121e-05 0)
(-0.00291108 3.58611e-05 0)
(-0.00296203 3.51871e-05 0)
(-0.00301197 3.4489e-05 0)
(-0.00306087 3.37666e-05 0)
(-0.0031087 3.30194e-05 0)
(-0.00315541 3.22471e-05 0)
(-0.00320098 3.1449e-05 0)
(-0.00324536 3.06247e-05 0)
(-0.00328852 2.97733e-05 0)
(-0.00333042 2.88944e-05 0)
(-0.00337102 2.79878e-05 0)
(-0.00341029 2.70535e-05 0)
(-0.00344817 2.60912e-05 0)
(-0.00348464 2.51002e-05 0)
(-0.00351965 2.40797e-05 0)
(-0.00355316 2.30295e-05 0)
(-0.00358513 2.19502e-05 0)
(-0.00361552 2.08423e-05 0)
(-0.00364428 1.97054e-05 0)
(-0.00367138 1.85386e-05 0)
(-0.00369678 1.73414e-05 0)
(-0.00372042 1.61141e-05 0)
(-0.00374228 1.48581e-05 0)
(-0.00376231 1.35739e-05 0)
(-0.00378048 1.22613e-05 0)
(-0.00379673 1.09195e-05 0)
(-0.00381103 9.54847e-06 0)
(-0.00382335 8.14963e-06 0)
(-0.00383364 6.72448e-06 0)
(-0.00384187 5.27373e-06 0)
(-0.003848 3.79717e-06 0)
(-0.00385199 2.29474e-06 0)
(-0.00385382 7.67481e-07 0)
(-0.00385344 -7.82842e-07 0)
(-0.00385083 -2.35469e-06 0)
(-0.00384596 -3.9473e-06 0)
(-0.0038388 -5.5602e-06 0)
(-0.00382932 -7.19244e-06 0)
(-0.00381749 -8.84235e-06 0)
(-0.0038033 -1.0508e-05 0)
(-0.00378673 -1.2188e-05 0)
(-0.00376774 -1.3881e-05 0)
(-0.00374634 -1.55857e-05 0)
(-0.0037225 -1.73003e-05 0)
(-0.0036962 -1.90227e-05 0)
(-0.00366746 -2.0751e-05 0)
(-0.00363624 -2.24834e-05 0)
(-0.00360256 -2.42182e-05 0)
(-0.00356641 -2.59531e-05 0)
(-0.00352779 -2.76858e-05 0)
(-0.00348671 -2.94141e-05 0)
(-0.00344317 -3.1136e-05 0)
(-0.00339719 -3.28492e-05 0)
(-0.00334879 -3.45513e-05 0)
(-0.00329797 -3.62398e-05 0)
(-0.00324476 -3.7912e-05 0)
(-0.00318919 -3.95652e-05 0)
(-0.00313128 -4.1197e-05 0)
(-0.00307107 -4.28044e-05 0)
(-0.0030086 -4.43843e-05 0)
(-0.0029439 -4.59339e-05 0)
(-0.00287703 -4.74499e-05 0)
(-0.00280803 -4.89288e-05 0)
(-0.00273696 -5.0367e-05 0)
(-0.00266387 -5.17607e-05 0)
(-0.00258885 -5.31058e-05 0)
(-0.00251195 -5.43986e-05 0)
(-0.00243326 -5.56342e-05 0)
(-0.00235286 -5.68077e-05 0)
(-0.00227084 -5.79135e-05 0)
(-0.00218732 -5.89458e-05 0)
(-0.00210238 -5.98989e-05 0)
(-0.00201617 -6.07663e-05 0)
(-0.00192879 -6.15406e-05 0)
(-0.0018404 -6.22139e-05 0)
(-0.00175113 -6.27779e-05 0)
(-0.00166116 -6.32237e-05 0)
(-0.00157066 -6.35419e-05 0)
(-0.00147982 -6.37224e-05 0)
(-0.00138884 -6.37541e-05 0)
(-0.00129795 -6.36252e-05 0)
(-0.00120737 -6.33234e-05 0)
(-0.00111738 -6.28355e-05 0)
(-0.00102823 -6.21479e-05 0)
(-0.000940227 -6.12458e-05 0)
(-0.000853679 -6.0114e-05 0)
(-0.000768922 -5.87368e-05 0)
(-0.000686311 -5.70974e-05 0)
(-0.000606225 -5.51789e-05 0)
(-0.000529063 -5.29637e-05 0)
(-0.000455246 -5.04342e-05 0)
(-0.000385216 -4.75731e-05 0)
(-0.000319435 -4.43638e-05 0)
(-0.00025838 -4.07908e-05 0)
(-0.000202538 -3.68416e-05 0)
(-0.000152402 -3.25091e-05 0)
(-0.000108451 -2.77955e-05 0)
(-7.11357e-05 -2.27194e-05 0)
(-4.08445e-05 -1.73285e-05 0)
(-1.78511e-05 -1.17234e-05 0)
(-2.23046e-06 -6.08828e-06 0)
(6.25167e-06 -7.77856e-07 0)
(8.34804e-06 3.56302e-06 0)
(5.80428e-06 5.81453e-06 0)
(1.83905e-06 4.06196e-06 0)
(1.12858e-06 -5.45531e-06 0)
(2.32084e-06 -5.7378e-06 0)
(-1.1526e-07 1.45733e-07 0)
(-8.66703e-06 9.42697e-06 0)
(-2.47718e-05 2.03854e-05 0)
(-4.9114e-05 3.19493e-05 0)
(-8.18967e-05 4.34517e-05 0)
(-0.000122997 5.44993e-05 0)
(-0.000172076 6.48708e-05 0)
(-0.000228662 7.44515e-05 0)
(-0.000292204 8.31908e-05 0)
(-0.000362112 9.10776e-05 0)
(-0.000437785 9.81288e-05 0)
(-0.000518633 0.000104379 0)
(-0.000604083 0.000109874 0)
(-0.000693586 0.000114662 0)
(-0.00078663 0.000118795 0)
(-0.000882735 0.000122326 0)
(-0.000981457 0.000125307 0)
(-0.00108239 0.000127789 0)
(-0.00118517 0.000129823 0)
(-0.00128946 0.000131456 0)
(-0.00139495 0.00013273 0)
(-0.00150138 0.000133685 0)
(-0.00160851 0.000134357 0)
(-0.00171612 0.000134782 0)
(-0.00182402 0.00013499 0)
(-0.00193205 0.000135009 0)
(-0.00204006 0.000134864 0)
(-0.00214793 0.000134574 0)
(-0.00225553 0.000134157 0)
(-0.00236277 0.000133631 0)
(-0.00246957 0.00013301 0)
(-0.00257585 0.000132306 0)
(-0.00268154 0.000131528 0)
(-0.00278658 0.000130681 0)
(-0.00289091 0.000129773 0)
(-0.00299448 0.000128809 0)
(-0.00309725 0.000127794 0)
(-0.00319918 0.00012673 0)
(-0.00330022 0.000125618 0)
(-0.00340032 0.000124458 0)
(-0.00349946 0.000123251 0)
(-0.00359759 0.000121998 0)
(-0.00369467 0.000120698 0)
(-0.00379067 0.000119351 0)
(-0.00388554 0.000117954 0)
(-0.00397925 0.000116506 0)
(-0.00407174 0.000115006 0)
(-0.00416298 0.000113453 0)
(-0.00425293 0.000111845 0)
(-0.00434153 0.00011018 0)
(-0.00442875 0.000108455 0)
(-0.00451453 0.00010667 0)
(-0.00459883 0.000104823 0)
(-0.00468159 0.000102911 0)
(-0.00476276 0.000100935 0)
(-0.0048423 9.88907e-05 0)
(-0.00492014 9.67775e-05 0)
(-0.00499624 9.45937e-05 0)
(-0.00507053 9.23379e-05 0)
(-0.00514296 9.00089e-05 0)
(-0.00521347 8.76054e-05 0)
(-0.005282 8.5126e-05 0)
(-0.00534849 8.25692e-05 0)
(-0.00541289 7.9934e-05 0)
(-0.00547512 7.72196e-05 0)
(-0.00553513 7.44254e-05 0)
(-0.00559285 7.15508e-05 0)
(-0.00564823 6.85945e-05 0)
(-0.00570119 6.55558e-05 0)
(-0.00575167 6.24343e-05 0)
(-0.00579961 5.92302e-05 0)
(-0.00584495 5.59439e-05 0)
(-0.00588761 5.25749e-05 0)
(-0.00592754 4.91227e-05 0)
(-0.00596467 4.55873e-05 0)
(-0.00599894 4.19696e-05 0)
(-0.00603028 3.8271e-05 0)
(-0.00605863 3.44922e-05 0)
(-0.00608393 3.06337e-05 0)
(-0.00610612 2.66963e-05 0)
(-0.00612514 2.26812e-05 0)
(-0.00614093 1.85906e-05 0)
(-0.00615343 1.44268e-05 0)
(-0.00616258 1.01915e-05 0)
(-0.00616834 5.88643e-06 0)
(-0.00617064 1.5137e-06 0)
(-0.00616945 -2.92377e-06 0)
(-0.0061647 -7.42272e-06 0)
(-0.00615636 -1.198e-05 0)
(-0.00614437 -1.65925e-05 0)
(-0.00612871 -2.12572e-05 0)
(-0.00610933 -2.59703e-05 0)
(-0.00608619 -3.07276e-05 0)
(-0.00605927 -3.55247e-05 0)
(-0.00602854 -4.03575e-05 0)
(-0.00599397 -4.52215e-05 0)
(-0.00595553 -5.0112e-05 0)
(-0.00591322 -5.50236e-05 0)
(-0.00586702 -5.99511e-05 0)
(-0.00581691 -6.48892e-05 0)
(-0.00576291 -6.98324e-05 0)
(-0.00570499 -7.47749e-05 0)
(-0.00564317 -7.97106e-05 0)
(-0.00557746 -8.46333e-05 0)
(-0.00550787 -8.95366e-05 0)
(-0.00543441 -9.44141e-05 0)
(-0.00535712 -9.92592e-05 0)
(-0.00527602 -0.000104065 0)
(-0.00519115 -0.000108823 0)
(-0.00510254 -0.000113527 0)
(-0.00501025 -0.00011817 0)
(-0.00491432 -0.000122742 0)
(-0.00481482 -0.000127235 0)
(-0.00471181 -0.000131641 0)
(-0.00460536 -0.000135951 0)
(-0.00449556 -0.000140155 0)
(-0.0043825 -0.000144241 0)
(-0.00426626 -0.000148201 0)
(-0.00414696 -0.000152022 0)
(-0.00402472 -0.000155691 0)
(-0.00389965 -0.000159196 0)
(-0.0037719 -0.000162523 0)
(-0.00364161 -0.000165656 0)
(-0.00350894 -0.000168579 0)
(-0.00337406 -0.000171274 0)
(-0.00323718 -0.000173723 0)
(-0.00309848 -0.000175904 0)
(-0.00295819 -0.000177796 0)
(-0.00281655 -0.000179375 0)
(-0.00267382 -0.000180616 0)
(-0.00253028 -0.000181491 0)
(-0.00238622 -0.000181972 0)
(-0.00224197 -0.000182028 0)
(-0.00209788 -0.000181626 0)
(-0.00195432 -0.000180731 0)
(-0.0018117 -0.000179308 0)
(-0.00167045 -0.000177317 0)
(-0.00153102 -0.000174719 0)
(-0.0013939 -0.000171472 0)
(-0.00125962 -0.000167534 0)
(-0.00112872 -0.000162861 0)
(-0.0010018 -0.000157409 0)
(-0.000879467 -0.000151134 0)
(-0.000762359 -0.000143992 0)
(-0.000651149 -0.000135944 0)
(-0.000546527 -0.000126952 0)
(-0.0004492 -0.00011699 0)
(-0.000359879 -0.00010604 0)
(-0.000279264 -9.41077e-05 0)
(-0.000208025 -8.12287e-05 0)
(-0.000146765 -6.7491e-05 0)
(-9.59727e-05 -5.30646e-05 0)
(-5.59548e-05 -3.82513e-05 0)
(-2.67322e-05 -2.35634e-05 0)
(-7.90868e-06 -9.85478e-06 0)
(1.52486e-06 1.50681e-06 0)
(3.55735e-06 8.35849e-06 0)
(1.52616e-06 7.20506e-06 0)
(4.62447e-07 -6.25652e-06 0)
(-1.26056e-06 -3.34913e-06 0)
(-9.43606e-06 8.69407e-06 0)
(-2.60186e-05 2.59737e-05 0)
(-5.22995e-05 4.60072e-05 0)
(-8.89828e-05 6.71286e-05 0)
(-0.000136288 8.8246e-05 0)
(-0.000194083 0.000108669 0)
(-0.000261992 0.000127976 0)
(-0.000339474 0.000145929 0)
(-0.000425888 0.000162407 0)
(-0.000520529 0.000177365 0)
(-0.000622668 0.000190811 0)
(-0.000731573 0.00020279 0)
(-0.00084653 0.000213369 0)
(-0.00096685 0.000222629 0)
(-0.00109188 0.00023066 0)
(-0.001221 0.000237553 0)
(-0.00135365 0.000243401 0)
(-0.00148928 0.000248298 0)
(-0.00162742 0.000252331 0)
(-0.00176763 0.000255588 0)
(-0.0019095 0.000258149 0)
(-0.00205268 0.000260091 0)
(-0.00219684 0.000261482 0)
(-0.00234169 0.000262385 0)
(-0.00248697 0.000262858 0)
(-0.00263247 0.000262955 0)
(-0.00277797 0.000262724 0)
(-0.00292331 0.000262205 0)
(-0.00306832 0.000261433 0)
(-0.00321286 0.000260438 0)
(-0.00335682 0.000259248 0)
(-0.00350009 0.000257887 0)
(-0.00364256 0.000256374 0)
(-0.00378416 0.000254724 0)
(-0.0039248 0.000252948 0)
(-0.00406441 0.000251057 0)
(-0.00420293 0.000249058 0)
(-0.00434029 0.000246958 0)
(-0.00447643 0.000244762 0)
(-0.0046113 0.00024247 0)
(-0.00474484 0.000240083 0)
(-0.00487699 0.000237602 0)
(-0.00500771 0.000235026 0)
(-0.00513692 0.000232356 0)
(-0.00526459 0.000229588 0)
(-0.00539066 0.00022672 0)
(-0.00551506 0.000223749 0)
(-0.00563773 0.000220673 0)
(-0.00575863 0.000217488 0)
(-0.00587768 0.000214193 0)
(-0.00599482 0.000210783 0)
(-0.00611 0.000207255 0)
(-0.00622314 0.000203606 0)
(-0.00633417 0.000199832 0)
(-0.00644304 0.000195932 0)
(-0.00654966 0.000191901 0)
(-0.00665396 0.000187737 0)
(-0.00675588 0.000183438 0)
(-0.00685534 0.000178999 0)
(-0.00695225 0.000174419 0)
(-0.00704655 0.000169695 0)
(-0.00713816 0.000164826 0)
(-0.00722699 0.000159808 0)
(-0.00731297 0.000154641 0)
(-0.00739601 0.000149321 0)
(-0.00747604 0.000143847 0)
(-0.00755296 0.000138219 0)
(-0.0076267 0.000132435 0)
(-0.00769718 0.000126494 0)
(-0.0077643 0.000120395 0)
(-0.00782798 0.000114138 0)
(-0.00788814 0.000107722 0)
(-0.0079447 0.000101148 0)
(-0.00799756 9.4417e-05 0)
(-0.00804665 8.75281e-05 0)
(-0.00809188 8.04822e-05 0)
(-0.00813318 7.32807e-05 0)
(-0.00817044 6.5926e-05 0)
(-0.00820361 5.84202e-05 0)
(-0.00823259 5.07655e-05 0)
(-0.00825731 4.29638e-05 0)
(-0.00827769 3.50182e-05 0)
(-0.00829366 2.69324e-05 0)
(-0.00830514 1.87109e-05 0)
(-0.00831206 1.03579e-05 0)
(-0.00831436 1.87755e-06 0)
(-0.00831197 -6.72526e-06 0)
(-0.00830483 -1.5445e-05 0)
(-0.00829287 -2.42753e-05 0)
(-0.00827605 -3.32098e-05 0)
(-0.0082543 -4.2242e-05 0)
(-0.00822759 -5.13648e-05 0)
(-0.00819586 -6.05709e-05 0)
(-0.00815907 -6.9852e-05 0)
(-0.00811719 -7.91996e-05 0)
(-0.00807019 -8.86048e-05 0)
(-0.00801804 -9.80588e-05 0)
(-0.00796071 -0.000107552 0)
(-0.0078982 -0.000117074 0)
(-0.00783049 -0.000126614 0)
(-0.00775757 -0.000136163 0)
(-0.00767945 -0.000145708 0)
(-0.00759612 -0.000155239 0)
(-0.00750762 -0.000164743 0)
(-0.00741394 -0.000174208 0)
(-0.00731513 -0.000183622 0)
(-0.00721121 -0.000192972 0)
(-0.00710222 -0.000202244 0)
(-0.00698822 -0.000211425 0)
(-0.00686924 -0.0002205 0)
(-0.00674537 -0.000229453 0)
(-0.00661666 -0.00023827 0)
(-0.00648321 -0.000246935 0)
(-0.00634509 -0.000255429 0)
(-0.00620241 -0.000263736 0)
(-0.00605528 -0.000271836 0)
(-0.00590381 -0.000279711 0)
(-0.00574813 -0.000287338 0)
(-0.00558839 -0.000294696 0)
(-0.00542474 -0.000301759 0)
(-0.00525735 -0.000308504 0)
(-0.00508641 -0.000314902 0)
(-0.0049121 -0.000320925 0)
(-0.00473465 -0.000326539 0)
(-0.00455429 -0.000331711 0)
(-0.00437127 -0.000336404 0)
(-0.00418587 -0.00034058 0)
(-0.00399838 -0.000344194 0)
(-0.00380911 -0.000347203 0)
(-0.00361842 -0.000349556 0)
(-0.00342668 -0.000351202 0)
(-0.00323428 -0.000352086 0)
(-0.00304166 -0.000352149 0)
(-0.00284927 -0.000351328 0)
(-0.00265762 -0.000349557 0)
(-0.00246724 -0.000346769 0)
(-0.0022787 -0.000342892 0)
(-0.00209259 -0.00033785 0)
(-0.00190957 -0.000331568 0)
(-0.00173031 -0.000323966 0)
(-0.00155553 -0.000314967 0)
(-0.00138599 -0.000304491 0)
(-0.00122249 -0.000292461 0)
(-0.00106584 -0.000278806 0)
(-0.000916908 -0.000263458 0)
(-0.000776554 -0.000246366 0)
(-0.000645662 -0.000227492 0)
(-0.000525111 -0.00020683 0)
(-0.00041575 -0.000184415 0)
(-0.000318375 -0.000160347 0)
(-0.000233688 -0.000134823 0)
(-0.000162238 -0.000108187 0)
(-0.000104351 -8.10042e-05 0)
(-6.00308e-05 -5.41752e-05 0)
(-2.88282e-05 -2.91016e-05 0)
(-9.67725e-06 -7.89721e-06 0)
(-7.30922e-07 6.30282e-06 0)
(7.38936e-07 8.58218e-06 0)
(-3.21725e-07 -4.86898e-06 0)
(-5.54844e-06 4.23115e-06 0)
(-2.05076e-05 2.48564e-05 0)
(-4.6269e-05 5.22859e-05 0)
(-8.37587e-05 8.34093e-05 0)
(-0.000133577 0.000116048 0)
(-0.000195878 0.00014871 0)
(-0.000270479 0.000180409 0)
(-0.000356955 0.000210511 0)
(-0.000454707 0.00023863 0)
(-0.000563022 0.000264555 0)
(-0.000681114 0.000288194 0)
(-0.000808161 0.000309538 0)
(-0.000943327 0.000328631 0)
(-0.00108579 0.000345559 0)
(-0.00123475 0.000360434 0)
(-0.00138943 0.000373381 0)
(-0.00154912 0.000384537 0)
(-0.00171313 0.00039404 0)
(-0.00188084 0.000402031 0)
(-0.00205166 0.000408645 0)
(-0.00222504 0.000414011 0)
(-0.00240052 0.000418257 0)
(-0.00257765 0.0004215 0)
(-0.00275603 0.000423849 0)
(-0.0029353 0.000425407 0)
(-0.00311515 0.000426261 0)
(-0.00329529 0.000426496 0)
(-0.00347548 0.000426186 0)
(-0.00365548 0.000425399 0)
(-0.0038351 0.000424193 0)
(-0.00401416 0.000422617 0)
(-0.00419251 0.000420713 0)
(-0.00437001 0.000418519 0)
(-0.00454653 0.000416067 0)
(-0.00472196 0.000413384 0)
(-0.0048962 0.000410491 0)
(-0.00506916 0.000407402 0)
(-0.00524074 0.00040413 0)
(-0.00541087 0.000400686 0)
(-0.00557947 0.000397078 0)
(-0.00574646 0.000393311 0)
(-0.00591178 0.000389386 0)
(-0.00607535 0.000385304 0)
(-0.0062371 0.000381065 0)
(-0.00639697 0.000376667 0)
(-0.00655488 0.000372108 0)
(-0.00671076 0.000367386 0)
(-0.00686454 0.000362495 0)
(-0.00701614 0.000357433 0)
(-0.0071655 0.000352193 0)
(-0.00731253 0.000346772 0)
(-0.00745716 0.000341166 0)
(-0.0075993 0.000335369 0)
(-0.00773889 0.000329376 0)
(-0.00787582 0.000323182 0)
(-0.00801003 0.000316783 0)
(-0.00814141 0.000310174 0)
(-0.00826989 0.000303351 0)
(-0.00839538 0.000296309 0)
(-0.00851777 0.000289044 0)
(-0.00863699 0.000281553 0)
(-0.00875293 0.00027383 0)
(-0.0088655 0.000265874 0)
(-0.00897461 0.00025768 0)
(-0.00908015 0.000249246 0)
(-0.00918203 0.000240569 0)
(-0.00928014 0.000231647 0)
(-0.00937439 0.000222477 0)
(-0.00946467 0.000213057 0)
(-0.00955089 0.000203388 0)
(-0.00963294 0.000193467 0)
(-0.00971072 0.000183293 0)
(-0.00978412 0.000172867 0)
(-0.00985305 0.000162188 0)
(-0.0099174 0.000151258 0)
(-0.00997707 0.000140078 0)
(-0.010032 0.000128649 0)
(-0.010082 0.000116974 0)
(-0.010127 0.000105054 0)
(-0.010167 9.28935e-05 0)
(-0.0102018 8.04967e-05 0)
(-0.0102313 6.78679e-05 0)
(-0.0102554 5.50116e-05 0)
(-0.0102742 4.19332e-05 0)
(-0.0102874 2.86391e-05 0)
(-0.0102949 1.51365e-05 0)
(-0.0102968 1.43321e-06 0)
(-0.0102929 -1.24628e-05 0)
(-0.0102831 -2.65431e-05 0)
(-0.0102675 -4.07982e-05 0)
(-0.0102458 -5.52177e-05 0)
(-0.0102181 -6.97907e-05 0)
(-0.0101842 -8.45057e-05 0)
(-0.0101442 -9.93507e-05 0)
(-0.010098 -0.000114313 0)
(-0.0100456 -0.000129379 0)
(-0.00998685 -0.000144535 0)
(-0.00992179 -0.000159766 0)
(-0.00985038 -0.000175056 0)
(-0.00977261 -0.00019039 0)
(-0.00968846 -0.000205751 0)
(-0.00959794 -0.000221122 0)
(-0.00950104 -0.000236485 0)
(-0.00939777 -0.000251822 0)
(-0.00928815 -0.000267114 0)
(-0.0091722 -0.000282342 0)
(-0.00904997 -0.000297485 0)
(-0.00892148 -0.000312522 0)
(-0.00878679 -0.000327432 0)
(-0.00864596 -0.000342193 0)
(-0.00849906 -0.000356781 0)
(-0.00834617 -0.000371172 0)
(-0.00818737 -0.000385342 0)
(-0.00802277 -0.000399265 0)
(-0.00785247 -0.000412912 0)
(-0.00767659 -0.000426255 0)
(-0.00749528 -0.000439264 0)
(-0.00730868 -0.000451907 0)
(-0.00711694 -0.000464151 0)
(-0.00692025 -0.000475958 0)
(-0.00671879 -0.00048729 0)
(-0.00651277 -0.000498106 0)
(-0.00630243 -0.000508361 0)
(-0.00608799 -0.000518009 0)
(-0.00586973 -0.000526997 0)
(-0.00564794 -0.000535271 0)
(-0.00542292 -0.000542772 0)
(-0.00519501 -0.000549436 0)
(-0.00496458 -0.000555196 0)
(-0.00473201 -0.000559978 0)
(-0.00449772 -0.000563704 0)
(-0.00426218 -0.000566292 0)
(-0.00402587 -0.000567653 0)
(-0.00378931 -0.000567694 0)
(-0.00355307 -0.000566317 0)
(-0.00331776 -0.000563417 0)
(-0.00308401 -0.000558888 0)
(-0.00285252 -0.000552617 0)
(-0.00262402 -0.000544488 0)
(-0.00239927 -0.000534383 0)
(-0.00217911 -0.000522184 0)
(-0.00196438 -0.000507771 0)
(-0.00175599 -0.000491026 0)
(-0.00155488 -0.000471838 0)
(-0.00136202 -0.000450104 0)
(-0.0011784 -0.000425737 0)
(-0.00100505 -0.000398669 0)
(-0.00084297 -0.000368868 0)
(-0.000693167 -0.000336348 0)
(-0.000556599 -0.000301194 0)
(-0.000434154 -0.000263593 0)
(-0.000326604 -0.000223876 0)
(-0.00023455 -0.00018259 0)
(-0.000158358 -0.000140585 0)
(-9.80678e-05 -9.91513e-05 0)
(-5.32856e-05 -6.02064e-05 0)
(-2.30447e-05 -2.65177e-05 0)
(-5.91603e-06 -2.01934e-06 0)
(-2.15532e-07 7.33122e-06 0)
(-1.11537e-06 -1.12716e-06 0)
(-1.00591e-05 1.75499e-05 0)
(-3.2289e-05 4.93849e-05 0)
(-6.78113e-05 8.91625e-05 0)
(-0.000117059 0.000133315 0)
(-0.000180433 0.000179257 0)
(-0.00025795 0.000225154 0)
(-0.000349328 0.000269753 0)
(-0.000454069 0.000312216 0)
(-0.000571512 0.000352011 0)
(-0.000700877 0.000388826 0)
(-0.000841311 0.000422511 0)
(-0.000991918 0.000453029 0)
(-0.00115178 0.000480424 0)
(-0.00132 0.000504794 0)
(-0.00149568 0.000526278 0)
(-0.00167797 0.00054504 0)
(-0.00186605 0.000561259 0)
(-0.00205916 0.000575121 0)
(-0.00225657 0.000586818 0)
(-0.00245763 0.000596536 0)
(-0.00266172 0.000604458 0)
(-0.00286828 0.000610755 0)
(-0.0030768 0.000615594 0)
(-0.00328682 0.00061913 0)
(-0.00349792 0.000621505 0)
(-0.00370973 0.00062285 0)
(-0.00392192 0.000623283 0)
(-0.00413417 0.000622909 0)
(-0.00434623 0.000621823 0)
(-0.00455787 0.000620112 0)
(-0.00476886 0.000617848 0)
(-0.00497902 0.000615095 0)
(-0.00518818 0.000611905 0)
(-0.00539619 0.000608324 0)
(-0.00560291 0.000604391 0)
(-0.00580822 0.000600139 0)
(-0.006012 0.000595592 0)
(-0.00621414 0.000590769 0)
(-0.00641455 0.000585686 0)
(-0.00661313 0.000580353 0)
(-0.00680979 0.000574778 0)
(-0.00700444 0.000568968 0)
(-0.007197 0.000562923 0)
(-0.00738737 0.000556644 0)
(-0.00757549 0.000550128 0)
(-0.00776125 0.000543373 0)
(-0.00794458 0.000536375 0)
(-0.00812539 0.00052913 0)
(-0.0083036 0.000521632 0)
(-0.00847911 0.000513874 0)
(-0.00865183 0.000505851 0)
(-0.00882168 0.000497556 0)
(-0.00898855 0.000488982 0)
(-0.00915236 0.000480122 0)
(-0.009313 0.000470971 0)
(-0.00947038 0.000461521 0)
(-0.0096244 0.000451766 0)
(-0.00977495 0.0004417 0)
(-0.00992192 0.000431317 0)
(-0.0100652 0.000420611 0)
(-0.0102047 0.000409577 0)
(-0.0103403 0.000398209 0)
(-0.0104719 0.000386503 0)
(-0.0105994 0.000374453 0)
(-0.0107227 0.000362057 0)
(-0.0108416 0.000349311 0)
(-0.010956 0.00033621 0)
(-0.0110659 0.000322753 0)
(-0.0111711 0.000308936 0)
(-0.0112714 0.000294759 0)
(-0.0113669 0.00028022 0)
(-0.0114572 0.000265319 0)
(-0.0115424 0.000250054 0)
(-0.0116224 0.000234427 0)
(-0.0116969 0.000218438 0)
(-0.0117659 0.00020209 0)
(-0.0118293 0.000185386 0)
(-0.0118869 0.000168329 0)
(-0.0119387 0.000150922 0)
(-0.0119845 0.00013317 0)
(-0.0120242 0.000115079 0)
(-0.0120578 9.66556e-05 0)
(-0.012085 7.79079e-05 0)
(-0.0121059 5.88434e-05 0)
(-0.0121202 3.9471e-05 0)
(-0.012128 1.98007e-05 0)
(-0.0121291 -1.56101e-07 0)
(-0.0121234 -2.03875e-05 0)
(-0.0121108 -4.08807e-05 0)
(-0.0120913 -6.16222e-05 0)
(-0.0120648 -8.25973e-05 0)
(-0.0120313 -0.00010379 0)
(-0.0119906 -0.000125184 0)
(-0.0119426 -0.000146762 0)
(-0.0118875 -0.000168505 0)
(-0.011825 -0.000190394 0)
(-0.0117551 -0.000212408 0)
(-0.0116779 -0.000234526 0)
(-0.0115933 -0.000256727 0)
(-0.0115013 -0.000278986 0)
(-0.0114018 -0.000301281 0)
(-0.0112949 -0.000323586 0)
(-0.0111805 -0.000345876 0)
(-0.0110587 -0.000368125 0)
(-0.0109295 -0.000390305 0)
(-0.010793 -0.000412388 0)
(-0.0106491 -0.000434344 0)
(-0.0104979 -0.000456144 0)
(-0.0103395 -0.000477757 0)
(-0.010174 -0.00049915 0)
(-0.0100014 -0.00052029 0)
(-0.00982184 -0.000541142 0)
(-0.0096354 -0.00056167 0)
(-0.00944221 -0.000581835 0)
(-0.0092424 -0.000601598 0)
(-0.00903611 -0.000620918 0)
(-0.0088235 -0.000639751 0)
(-0.00860474 -0.000658049 0)
(-0.00838002 -0.000675764 0)
(-0.00814956 -0.000692843 0)
(-0.00791356 -0.00070923 0)
(-0.00767228 -0.000724864 0)
(-0.00742598 -0.000739682 0)
(-0.00717495 -0.000753614 0)
(-0.0069195 -0.000766587 0)
(-0.00665996 -0.00077852 0)
(-0.00639669 -0.000789328 0)
(-0.00613009 -0.00079892 0)
(-0.00586059 -0.000807197 0)
(-0.00558863 -0.000814055 0)
(-0.0053147 -0.000819381 0)
(-0.00503935 -0.000823056 0)
(-0.00476313 -0.000824953 0)
(-0.00448665 -0.000824941 0)
(-0.00421057 -0.000822877 0)
(-0.00393559 -0.000818617 0)
(-0.00366244 -0.000812006 0)
(-0.00339191 -0.000802888 0)
(-0.00312485 -0.0007911 0)
(-0.00286214 -0.00077648 0)
(-0.00260471 -0.000758863 0)
(-0.00235355 -0.000738087 0)
(-0.00210966 -0.000713994 0)
(-0.00187411 -0.000686437 0)
(-0.00164799 -0.000655286 0)
(-0.0014324 -0.000620433 0)
(-0.00122848 -0.000581806 0)
(-0.00103734 -0.000539383 0)
(-0.000860078 -0.000493211 0)
(-0.000697733 -0.000443438 0)
(-0.000551269 -0.000390353 0)
(-0.000421522 -0.000334435 0)
(-0.000309156 -0.000276439 0)
(-0.000214606 -0.000217492 0)
(-0.00013801 -0.000159243 0)
(-7.91185e-05 -0.000104054 0)
(-3.71802e-05 -5.52183e-05 0)
(-1.13425e-05 -1.72583e-05 0)
(-1.18062e-06 3.23328e-06 0)
(-1.87693e-06 4.97836e-06 0)
(-1.45316e-05 3.6771e-05 0)
(-4.41411e-05 8.25736e-05 0)
(-8.95961e-05 0.000136942 0)
(-0.000150772 0.000196023 0)
(-0.000227808 0.000256942 0)
(-0.000320523 0.000317601 0)
(-0.000428493 0.000376519 0)
(-0.000551121 0.000432684 0)
(-0.000687667 0.000485428 0)
(-0.000837285 0.000534345 0)
(-0.000999055 0.000579223 0)
(-0.00117202 0.000619994 0)
(-0.0013552 0.000656694 0)
(-0.00154761 0.000689434 0)
(-0.00174831 0.000718377 0)
(-0.00195637 0.000743725 0)
(-0.00217089 0.000765699 0)
(-0.00239104 0.000784535 0)
(-0.00261603 0.000800475 0)
(-0.00284514 0.000813762 0)
(-0.00307767 0.000824631 0)
(-0.00331301 0.000833309 0)
(-0.00355059 0.00084001 0)
(-0.00378988 0.000844938 0)
(-0.00403042 0.000848282 0)
(-0.00427179 0.000850217 0)
(-0.0045136 0.0008509 0)
(-0.00475551 0.000850474 0)
(-0.00499721 0.000849063 0)
(-0.00523844 0.000846783 0)
(-0.00547895 0.000843733 0)
(-0.00571852 0.000840001 0)
(-0.00595695 0.000835658 0)
(-0.00619406 0.000830768 0)
(-0.0064297 0.000825382 0)
(-0.00666371 0.000819544 0)
(-0.00689596 0.000813291 0)
(-0.00712633 0.00080665 0)
(-0.00735469 0.000799643 0)
(-0.00758094 0.000792286 0)
(-0.00780497 0.000784589 0)
(-0.00802667 0.00077656 0)
(-0.00824595 0.000768205 0)
(-0.0084627 0.000759524 0)
(-0.00867683 0.000750514 0)
(-0.00888823 0.000741174 0)
(-0.00909682 0.000731499 0)
(-0.00930248 0.000721482 0)
(-0.00950513 0.000711118 0)
(-0.00970465 0.000700398 0)
(-0.00990095 0.000689315 0)
(-0.0100939 0.00067786 0)
(-0.0102835 0.000666025 0)
(-0.0104694 0.000653801 0)
(-0.0106518 0.00064118 0)
(-0.0108303 0.000628153 0)
(-0.011005 0.000614712 0)
(-0.0111757 0.000600849 0)
(-0.0113422 0.000586557 0)
(-0.0115046 0.000571827 0)
(-0.0116625 0.000556653 0)
(-0.011816 0.000541028 0)
(-0.0119649 0.000524946 0)
(-0.012109 0.000508401 0)
(-0.0122483 0.000491387 0)
(-0.0123826 0.000473901 0)
(-0.0125118 0.000455938 0)
(-0.0126357 0.000437495 0)
(-0.0127543 0.000418568 0)
(-0.0128673 0.000399155 0)
(-0.0129747 0.000379255 0)
(-0.0130764 0.000358868 0)
(-0.0131721 0.000337994 0)