/*--------------------------------*- C++ -*----------------------------------*\
  =========                 |
  \\      /  F ield         | OpenFOAM: The Open Source CFD Toolbox
   \\    /   O peration     | Website:  https://openfoam.org
    \\  /    A nd           | Version:  7
     \\/     M anipulation  |
\*---------------------------------------------------------------------------*/
FoamFile
{
    version     2.0;
    format      ascii;
    class       volScalarField;
    location    "0.3";
    object      p;
}
// * * * * * * * * * * * * * * * * * * * * * * * * * * * * * * * * * * * * * //

dimensions      [0 2 -2 0 0 0 0];

internalField   nonuniform List<scalar> 
1600
(
6.17886e-06
-0.00118047
-0.00390993
-0.00758294
-0.0115268
-0.0152461
-0.0183831
-0.0206854
-0.0219856
-0.0221839
-0.0212347
-0.0191361
-0.0159215
-0.0116538
-0.00642037
-0.000328858
0.00649578
0.0139142
0.021775
0.0299174
0.0381731
0.0463697
0.0543327
0.0618892
0.0688716
0.0751215
0.0804942
0.0848638
0.0881288
0.0902176
0.0910953
0.0907706
0.0893038
0.086816
0.0835005
0.0796364
0.0756037
0.0719109
0.0692257
0.0681098
0.00119879
8.47214e-06
-0.00220753
-0.00505809
-0.00809995
-0.0109679
-0.0133776
-0.0151158
-0.0160324
-0.0160316
-0.0150632
-0.0131158
-0.0102102
-0.0063945
-0.00173991
0.00366296
0.00970695
0.0162711
0.0232231
0.0304215
0.0377184
0.0449619
0.0519988
0.0586778
0.0648532
0.0703881
0.0751592
0.0790609
0.0820102
0.083952
0.0848645
0.0847647
0.0837142
0.0818261
0.079271
0.076283
0.0731639
0.0702896
0.068107
0.0669965
0.00394281
0.00221567
-3.07682e-05
-0.00258955
-0.00521764
-0.00764527
-0.00964889
-0.0110569
-0.0117436
-0.0116254
-0.0106562
-0.00882282
-0.00614061
-0.00264933
0.00159013
0.00649881
0.0119823
0.0179331
0.024233
0.0307553
0.0373669
0.0439312
0.0503106
0.056369
0.061976
0.0670095
0.0713601
0.074935
0.0776624
0.0794958
0.0804187
0.0804487
0.0796422
0.0780981
0.0759603
0.0734198
0.0707168
0.068133
0.0659267
0.0643094
0.00770546
0.00509483
0.00245426
-0.000174159
-0.00272864
-0.00500937
-0.00684215
-0.00809527
-0.00867035
-0.00850061
-0.00754939
-0.00580731
-0.00328919
-3.12648e-05
0.0039115
0.00846775
0.0135519
0.0190664
0.0249034
0.0309469
0.0370751
0.0431625
0.0490824
0.0547098
0.0599243
0.0646134
0.0686764
0.0720275
0.0746003
0.0763512
0.0772633
0.0773499
0.0766574
0.0752676
0.0732972
0.0708981
0.0682628
0.0656063
0.063016
0.060548
0.0118929
0.00825403
0.00504595
0.00216594
-0.000491143
-0.00278145
-0.00457243
-0.00576947
-0.00630142
-0.00611993
-0.00520006
-0.00353883
-0.00115335
0.00192112
0.00563302
0.00991631
0.0146921
0.0198704
0.0253518
0.0310291
0.0367892
0.0425156
0.0480899
0.0533954
0.0583191
0.0627549
0.0666075
0.0697949
0.0722527
0.0739369
0.074827
0.0749293
0.0742781
0.0729371
0.0709971
0.0685747
0.0658235
0.0629069
0.0597543
0.0562851
0.0160793
0.0113691
0.00750085
0.00425146
0.00136956
-0.00104392
-0.00289
-0.00410673
-0.00464834
-0.00448476
-0.00360368
-0.0020101
0.000274772
0.00321464
0.00675936
0.0108462
0.0154009
0.0203393
0.0255682
0.0309871
0.0364898
0.0419661
0.0473042
0.0523927
0.0571235
0.0613942
0.065112
0.0681959
0.0705806
0.0722188
0.0730847
0.073175
0.0725114
0.0711397
0.0691272
0.0665608
0.0635639
0.060262
0.0564472
0.0519265
0.0199552
0.0141788
0.00960386
0.00590914
0.00271772
9.91576e-05
-0.00187354
-0.00316616
-0.00375563
-0.00362912
-0.002787
-0.001243
0.000976313
0.00383213
0.00727407
0.0112409
0.0156615
0.0204553
0.0255337
0.030801
0.0361556
0.0414921
0.0467023
0.0516783
0.0563143
0.0605091
0.0641698
0.0672139
0.0695724
0.0711931
0.0720422
0.0721064
0.071394
0.0699343
0.0677736
0.0649746
0.0616395
0.0578678
0.0533354
0.0477587
0.0232878
0.0164694
0.0111699
0.00698632
0.0034328
0.000556431
-0.00158943
-0.00299379
-0.00365344
-0.00357135
-0.0027601
-0.00124239
0.000949147
0.00377216
0.00717478
0.011096
0.015466
0.0202066
0.0252321
0.0304498
0.0357611
0.0410632
0.04625
0.0512148
0.0558518
0.0600592
0.0637414
0.0668122
0.0691972
0.0708368
0.0716881
0.0717268
0.070948
0.0693654
0.0670078
0.0639179
0.0601838
0.0558893
0.0506105
0.0439902
0.025895
0.0180617
0.0120346
0.00733968
0.00339436
0.000229738
-0.00211561
-0.00365012
-0.00438794
-0.00434631
-0.00354936
-0.00202868
0.000176671
0.00302007
0.00644725
0.0103963
0.0147976
0.019574
0.0246412
0.0299082
0.035278
0.0406485
0.0459143
0.0509678
0.0557018
0.0600114
0.0637967
0.0669657
0.0694367
0.0711411
0.0720257
0.0720542
0.0712086
0.0694884
0.0669068
0.063491
0.0593202
0.0544698
0.0484285
0.0407762
0.0276264
0.0188
0.0120482
0.0068322
0.00248091
-0.000986118
-0.00354147
-0.00521012
-0.00602151
-0.00600588
-0.00519822
-0.00363884
-0.00137342
0.00154667
0.00506407
0.00911507
0.0136294
0.0185298
0.0237324
0.0291465
0.0346754
0.0402167
0.0456638
0.0509071
0.055836
0.0603409
0.0643159
0.0676614
0.0702865
0.0721122
0.0730735
0.0731214
0.0722247
0.0703693
0.0675546
0.0637954
0.0591658
0.0537384
0.0469219
0.0382398
0.028349
0.0185429
0.01107
0.00533076
0.000569965
-0.00320137
-0.00596457
-0.00775914
-0.00862833
-0.00861443
-0.00776277
-0.00612222
-0.00374524
-0.000688275
0.00298769
0.00721653
0.0119265
0.0170395
0.0224712
0.0281304
0.0339194
0.0397346
0.0454669
0.0510035
0.0562289
0.0610275
0.0652855
0.0688939
0.0717512
0.0737662
0.0748608
0.0749723
0.0740554
0.0720828
0.0690412
0.0649347
0.0598354
0.0538163
0.0462101
0.0364869
0.0279373
0.0171551
0.00896327
0.00270278
-0.00246357
-0.00653168
-0.00949014
-0.0113918
-0.0122928
-0.0122471
-0.0113099
-0.0095388
-0.00699307
-0.00373456
0.000171713
0.00465676
0.00964677
0.0150624
0.0208179
0.0268211
0.0329727
0.0391667
0.045291
0.0512282
0.0568569
0.0620539
0.0666962
0.0706638
0.0738426
0.0761277
0.0774262
0.0776601
0.0767693
0.0747124
0.0714638
0.0670176
0.0614457
0.0548239
0.0464092
0.0356186
0.0262659
0.0145016
0.00559013
-0.00118723
-0.0067497
-0.0110993
-0.0142314
-0.0162117
-0.0171091
-0.0169888
-0.0159164
-0.013958
-0.0111801
-0.00765033
-0.00343797
0.00138477
0.00674174
0.0125518
0.0187277
0.0251756
0.0317943
0.038475
0.0451017
0.0515517
0.0576967
0.0634048
0.0685422
0.0729763
0.0765788
0.0792288
0.0808167
0.0812476
0.0804447
0.0783515
0.0749289
0.0701611
0.0641206
0.056887
0.0476394
0.0357401
0.0232039
0.0104426
0.000807391
-0.00648099
-0.0124256
-0.0170347
-0.0203103
-0.0223314
-0.02318
-0.0229333
-0.0216672
-0.0194571
-0.016377
-0.0125006
-0.00790173
-0.00265607
0.0031577
0.00945653
0.0161516
0.0231474
0.0303405
0.0376191
0.0448629
0.0519435
0.058725
0.0650656
0.0708195
0.0758401
0.0799824
0.0831079
0.0850876
0.0858073
0.085171
0.083105
0.0795552
0.0744945
0.0679959
0.060143
0.050032
0.0369682
0.0186109
0.00482899
-0.00553719
-0.0133295
-0.0196379
-0.0244776
-0.0278581
-0.0298727
-0.0306174
-0.0301822
-0.0286547
-0.0261199
-0.0226602
-0.0183553
-0.0132843
-0.00752633
-0.00116249
0.00572234
0.0130379
0.0206872
0.0285648
0.0365561
0.0445366
0.0523718
0.0599178
0.0670221
0.0735258
0.0792664
0.0840807
0.0878095
0.090302
0.0914212
0.0910491
0.0890915
0.0854763
0.0801632
0.0732241
0.0647462
0.0537362
0.0394376
0.0123336
-0.00250098
-0.0136087
-0.0218965
-0.0285456
-0.0335795
-0.0370167
-0.0389665
-0.0395409
-0.0388442
-0.0369768
-0.0340347
-0.0301092
-0.0252872
-0.0196526
-0.0132881
-0.00627724
0.00129374
0.00933372
0.0177447
0.0264198
0.0352422
0.0440836
0.0528036
0.0612501
0.0692597
0.0766591
0.0832685
0.0889042
0.0933837
0.0965308
0.098182
0.098193
0.0964451
0.0928441
0.0873327
0.0799796
0.0708741
0.0589245
0.0433077
0.00420198
-0.0117259
-0.0235886
-0.0323613
-0.0393221
-0.0445049
-0.0479393
-0.0497534
-0.0500776
-0.049033
-0.0467349
-0.0432918
-0.0388049
-0.0333685
-0.0270722
-0.020002
-0.0122433
-0.00388302
0.00498752
0.0142704
0.0238585
0.0336336
0.0434643
0.0532054
0.0626967
0.0717635
0.080218
0.0878612
0.0944868
0.0998859
0.103853
0.106194
0.106732
0.105318
0.101832
0.0961933
0.0884641
0.0787332
0.0657997
0.0487679
-0.0059736
-0.023045
-0.0356795
-0.0449233
-0.0521592
-0.0574339
-0.0607918
-0.0623832
-0.0623611
-0.0608664
-0.0580319
-0.0539805
-0.0488248
-0.0426676
-0.035604
-0.0277232
-0.0191118
-0.00985643
-4.72521e-05
0.0102193
0.0208373
0.0316887
0.0426408
0.0535443
0.0642321
0.0745187
0.084201
0.0930602
0.100865
0.107377
0.112356
0.115572
0.116811
0.115885
0.11264
0.106965
0.0989128
0.0885662
0.0746021
0.0560451
-0.0184066
-0.0366835
-0.0501094
-0.0598061
-0.0672698
-0.0725645
-0.0757535
-0.0770154
-0.0765302
-0.0744631
-0.070968
-0.0661849
-0.0602395
-0.053244
-0.045299
-0.0364966
-0.0269236
-0.016665
-0.0058081
0.00555423
0.0173194
0.0293716
0.0415789
0.05379
0.0658324
0.0775109
0.0886074
0.0988823
0.108077
0.115921
0.122136
0.126447
0.128593
0.128344
0.125496
0.119905
0.111602
0.10066
0.0856169
0.0654107
-0.0333395
-0.0528984
-0.0671388
-0.0772631
-0.0848929
-0.0901151
-0.093019
-0.093818
-0.0927265
-0.0899397
-0.0856371
-0.0799791
-0.0731067
-0.0651422
-0.0561921
-0.0463507
-0.0357034
-0.0243319
-0.0123181
0.000250982
0.0132789
0.0266552
0.0402514
0.0539171
0.0674768
0.0807274
0.093437
0.105345
0.116166
0.12559
0.133296
0.138959
0.142264
0.142919
0.140667
0.135312
0.126856
0.115353
0.0991849
0.0771905
-0.0510507
-0.0719871
-0.087069
-0.0975852
-0.105299
-0.110329
-0.112798
-0.112967
-0.111092
-0.107406
-0.102121
-0.0954203
-0.0874638
-0.0783846
-0.0682951
-0.0572901
-0.0454523
-0.0328575
-0.0195795
-0.00569587
0.00870643
0.0235261
0.0386419
0.0539082
0.0691498
0.0841587
0.0986914
0.112468
0.125172
0.136456
0.145949
0.153267
0.158027
0.159868
0.158459
0.153536
0.145059
0.133053
0.115714
0.0917753
-0.0718639
-0.094299
-0.110253
-0.12111
-0.128797
-0.133475
-0.135318
-0.134643
-0.131763
-0.126959
-0.12048
-0.112541
-0.103319
-0.0929625
-0.081587
-0.0692872
-0.0561401
-0.0422125
-0.0275665
-0.0122664
0.00361507
0.0199901
0.0367497
0.0537575
0.0708437
0.0877997
0.104374
0.120268
0.135138
0.148596
0.160214
0.16954
0.176113
0.179482
0.179225
0.174988
0.166669
0.154244
0.135697
0.109636
-0.0961626
-0.120252
-0.137113
-0.148236
-0.155743
-0.159858
-0.160821
-0.159029
-0.154866
-0.148673
-0.140747
-0.131336
-0.120643
-0.108825
-0.0960049
-0.0822722
-0.0676957
-0.0523288
-0.0362175
-0.0194079
-0.00195341
0.0160774
0.0345937
0.0534746
0.0725616
0.0916516
0.11049
0.128766
0.146107
0.162085
0.176213
0.187961
0.196773
0.202091
0.203374
0.200152
0.19223
0.179514
0.159728
0.131343
-0.12441
-0.150355
-0.168158
-0.179437
-0.186552
-0.189817
-0.189568
-0.186305
-0.180508
-0.172591
-0.162911
-0.151755
-0.139351
-0.125869
-0.111432
-0.0961228
-0.0799975
-0.0630908
-0.0454271
-0.0270281
-0.00792206
0.0118485
0.0322178
0.0530879
0.0743194
0.0957225
0.117047
0.137976
0.158115
0.176995
0.194068
0.208719
0.220282
0.228066
0.23138
0.229598
0.222398
0.209574
0.188537
0.157591
-0.157177
-0.185242
-0.204022
-0.21529
-0.221712
-0.223735
-0.22183
-0.216639
-0.208762
-0.198709
-0.186903
-0.173681
-0.159293
-0.143921
-0.127684
-0.110653
-0.0928642
-0.0743274
-0.0550386
-0.0349888
-0.0141734
0.00739845
0.0296941
0.0526473
0.0761473
0.100027
0.124053
0.147909
0.171188
0.193387
0.213896
0.232009
0.246932
0.257817
0.263783
0.264
0.257961
0.245298
0.223021
0.189236
-0.19519
-0.225721
-0.245499
-0.256499
-0.261798
-0.262038
-0.257885
-0.250171
-0.23965
-0.226952
-0.212578
-0.196914
-0.180236
-0.162729
-0.144501
-0.125604
-0.106046
-0.0858045
-0.0648388
-0.043101
-0.0205459
0.00285932
0.0271242
0.0522243
0.0780887
0.104586
0.13151
0.158561
0.185334
0.211299
0.235791
0.25801
0.277023
0.291793
0.301203
0.304154
0.299881
0.287768
0.264306
0.227345
-0.239393
-0.272847
-0.293611
-0.303945
-0.307494
-0.305201
-0.298004
-0.286992
-0.273119
-0.257153
-0.239686
-0.221152
-0.201844
-0.18194
-0.161531
-0.140634
-0.119219
-0.097222
-0.0745557
-0.0511247
-0.0268341
-0.00160046
0.0246381
0.05191
0.0801966
0.109417
0.139409
0.169908
0.200527
0.23073
0.25981
0.286875
0.310846
0.33047
0.344339
0.351001
0.349331
0.338342
0.313823
0.273272
-0.291055
-0.328031
-0.34969
-0.358729
-0.359611
-0.353733
-0.342424
-0.327112
-0.308999
-0.289015
-0.267844
-0.24596
-0.223658
-0.201096
-0.178324
-0.155314
-0.131984
-0.108214
-0.083861
-0.0587721
-0.0327937
-0.005782
0.0223872
0.0518067
0.0825245
0.114526
0.147715
0.181884
0.21669
0.251616
0.285938
0.318693
0.348654
0.374328
0.39396
0.405644
0.407752
0.398744
0.373424
0.328769
-0.351933
-0.393204
-0.415509
-0.422243
-0.419099
-0.408158
-0.391303
-0.370403
-0.346957
-0.322067
-0.296501
-0.270749
-0.245084
-0.219614
-0.194328
-0.169131
-0.14387
-0.118357
-0.0923797
-0.0657188
-0.0381528
-0.00946809
0.0205316
0.0520155
0.0851124
0.119893
0.156349
0.19436
0.23366
0.273792
0.314054
0.353443
0.390609
0.423809
0.450887
0.469364
0.476922
0.471197
0.445561
0.396171
-0.42455
-0.471087
-0.493449
-0.496244
-0.487043
-0.468964
-0.44465
-0.416525
-0.386422
-0.355607
-0.324893
-0.294746
-0.265371
-0.236788
-0.208892
-0.181492
-0.154348
-0.127183
-0.0997073
-0.0716226
-0.0426314
-0.0124429
0.0192205
0.0526151
0.0879649
0.125445
0.165161
0.207113
0.251157
0.296946
0.343859
0.39092
0.436702
0.479238
0.515934
0.543611
0.559028
0.558603
0.533563
0.478687
-0.512672
-0.565593
-0.586748
-0.582918
-0.564615
-0.53649
-0.502194
-0.464807
-0.426495
-0.388632
-0.352002
-0.31697
-0.283607
-0.251791
-0.221277
-0.19175
-0.162854
-0.134211
-0.105437
-0.0761504
-0.045969
-0.0145191
0.0185648
0.053635
0.0910233
0.131028
0.173895
0.219784
0.268724
0.320547
0.374801
0.430629
0.48663
0.540691
0.589793
0.629953
0.656733
0.664787
0.642067
0.580914
-0.622167
-0.682492
-0.699808
-0.684919
-0.652944
-0.610733
-0.563189
-0.514081
-0.465822
-0.419759
-0.376509
-0.336217
-0.298724
-0.263693
-0.230688
-0.199231
-0.168825
-0.138976
-0.109198
-0.0790143
-0.0479591
-0.0155718
0.0186043
0.0550227
0.0941326
0.136372
0.182151
0.23183
0.285671
0.343771
0.405956
0.471638
0.539609
0.60778
0.672823
0.72993
0.773201
0.794818
0.777707
0.709767
-0.762654
-0.830462
-0.838566
-0.805276
-0.752821
-0.691007
-0.626114
-0.562461
-0.502453
-0.447144
-0.396766
-0.351064
-0.309524
-0.271502
-0.236315
-0.203282
-0.171746
-0.141081
-0.110693
-0.0800127
-0.0484881
-0.0155746
0.0192734
0.0566112
0.0970088
0.141054
0.189345
0.242479
0.301012
0.365403
0.435903
0.51239
0.594115
0.679321
0.76468
0.844732
0.911994
0.955373
0.950199
0.876234
-0.95082
-1.02277
-1.01076
-0.946966
-0.864057
-0.775343
-0.688215
-0.607034
-0.533662
-0.46841
-0.410783
-0.359897
-0.314723
-0.27422
-0.237395
-0.203334
-0.171204
-0.140243
-0.109752
-0.0790714
-0.0475722
-0.0146339
0.0203704
0.0580902
0.0992128
0.144477
0.194681
0.250687
0.313403
0.383749
0.462566
0.550457
0.647506
0.752805
0.863638
0.974488
1.07658
1.15497
1.17408
1.09894
-1.21717
-1.27971
-1.2255
-1.11154
-0.98407
-0.85937
-0.744753
-0.643428
-0.55574
-0.480569
-0.416238
-0.360957
-0.313025
-0.27091
-0.233274
-0.198953
-0.166938
-0.13634
-0.106363
-0.076276
-0.0453858
-0.013012
0.021537
0.0589891
0.100134
0.14585
0.197131
0.255114
0.321097
0.396544
0.48305
0.582236
0.695507
0.823557
0.965369
1.11671
1.26884
1.40348
1.47114
1.41122
-1.61771
-1.63095
-1.49152
-1.29672
-1.10589
-0.935007
-0.788314
-0.665548
-0.563986
-0.480142
-0.410642
-0.352517
-0.303267
-0.260831
-0.223517
-0.189929
-0.158904
-0.129452
-0.100708
-0.0718906
-0.0422684
-0.011125
0.0222714
0.058701
0.099028
0.144241
0.195503
0.254203
0.322027
0.401022
0.493658
0.602849
0.731862
0.883978
1.06155
1.26422
1.4865
1.71008
1.87239
1.87274
-2.25446
-2.11587
-1.81359
-1.49442
-1.21742
-0.990516
-0.809418
-0.666456
-0.553628
-0.464016
-0.39207
-0.333473
-0.284904
-0.243805
-0.208188
-0.176484
-0.147427
-0.119971
-0.0932202
-0.0663795
-0.0387097
-0.00948954
0.0220207
0.056618
0.0952002
0.138819
0.188748
0.24657
0.314293
0.394505
0.490568
0.606858
0.748991
0.923945
1.13978
1.40421
1.72094
2.07939
2.41784
2.5891
-3.35592
-2.78318
-2.1727
-1.67585
-1.29258
-1.00573
-0.794152
-0.637277
-0.519334
-0.429178
-0.358977
-0.303186
-0.257842
-0.220062
-0.187704
-0.159137
-0.133079
-0.108493
-0.0845047
-0.060347
-0.0353116
-0.00870889
0.0201707
0.0520972
0.0879489
0.128773
0.175864
0.23088
0.296003
0.374175
0.469458
0.587552
0.736532
0.927896
1.17797
1.50834
1.94099
2.49108
3.15796
3.79444
-5.52066
-3.66081
-2.43095
-1.71418
-1.24179
-0.921817
-0.704871
-0.553974
-0.445498
-0.365215
-0.304193
-0.256577
-0.218408
-0.186925
-0.160132
-0.136539
-0.11499
-0.0945594
-0.0744726
-0.0540513
-0.0326707
-0.00972299
0.015418
0.0434337
0.0751054
0.11137
0.153402
0.202721
0.261372
0.332198
0.419279
0.528678
0.669682
0.857075
1.11541
1.48391
2.01598
2.8054
4.12342
6.0914
-9.20662
-4.51956
-2.30623
-1.42119
-0.958944
-0.682911
-0.512258
-0.400588
-0.322922
-0.266423
-0.223899
-0.19092
-0.164578
-0.142862
-0.124316
-0.107843
-0.0925834
-0.0778385
-0.0630184
-0.0476018
-0.0311059
-0.0130597
0.00702173
0.0296641
0.055466
0.0851403
0.119571
0.159897
0.207637
0.264903
0.334756
0.42186
0.533762
0.683749
0.897451
1.22411
1.75391
2.73325
5.06142
9.86893
)
;

boundaryField
{
    movingWall
    {
        type            zeroGradient;
    }
    fixedWalls
    {
        type            zeroGradient;
    }
    frontAndBack
    {
        type            empty;
    }
}


// ************************************************************************* //
