/*--------------------------------*- C++ -*----------------------------------*\
  =========                 |
  \\      /  F ield         | OpenFOAM: The Open Source CFD Toolbox
   \\    /   O peration     | Website:  https://openfoam.org
    \\  /    A nd           | Version:  7
     \\/     M anipulation  |
\*---------------------------------------------------------------------------*/
FoamFile
{
    version     2.0;
    format      ascii;
    class       volScalarField;
    location    "0.4125";
    object      p;
}
// * * * * * * * * * * * * * * * * * * * * * * * * * * * * * * * * * * * * * //

dimensions      [0 2 -2 0 0 0 0];

internalField   nonuniform List<scalar> 
25600
(
-1.39094e-09
-5.91909e-07
-4.44076e-06
-1.11604e-05
-1.9879e-05
-2.98937e-05
-4.05933e-05
-5.14606e-05
-6.20958e-05
-7.21788e-05
-8.14534e-05
-8.97179e-05
-9.68177e-05
-0.000102635
-0.000107082
-0.000110097
-0.000111632
-0.000111653
-0.000110138
-0.000107083
-0.00010249
-9.63649e-05
-8.87158e-05
-7.95519e-05
-6.88872e-05
-5.67406e-05
-4.31335e-05
-2.80855e-05
-1.16134e-05
6.26751e-06
2.55412e-05
4.61895e-05
6.81931e-05
9.15355e-05
0.000116204
0.000142187
0.000169472
0.000198047
0.000227899
0.00025902
0.000291402
0.000325032
0.000359902
0.000396005
0.000433336
0.000471891
0.000511658
0.000552626
0.000594786
0.000638135
0.000682666
0.00072837
0.000775235
0.000823246
0.00087239
0.000922656
0.000974032
0.0010265
0.00108004
0.00113464
0.00119028
0.00124692
0.00130455
0.00136313
0.00142265
0.00148306
0.00154434
0.00160645
0.00166934
0.00173297
0.00179731
0.00186229
0.00192789
0.00199403
0.00206067
0.00212775
0.0021952
0.00226296
0.00233097
0.00239915
0.00246744
0.00253576
0.00260403
0.00267217
0.0027401
0.00280775
0.00287502
0.00294184
0.0030081
0.00307372
0.00313862
0.0032027
0.00326588
0.00332806
0.00338915
0.00344906
0.00350771
0.00356501
0.00362088
0.00367523
0.00372798
0.00377906
0.00382839
0.00387591
0.00392153
0.00396521
0.00400688
0.0040465
0.00408401
0.00411937
0.00415254
0.0041835
0.00421222
0.00423868
0.00426287
0.00428477
0.0043044
0.00432175
0.00433685
0.00434971
0.00436035
0.00436881
0.00437513
0.00437935
0.00438152
0.0043817
0.00437995
0.00437635
0.00437097
0.00436388
0.00435516
0.00434492
0.00433325
0.00432025
0.00430602
0.00429068
0.00427432
0.00425708
0.00423909
0.00422045
0.00420132
0.00418181
0.00416208
0.00414226
0.00412252
0.004103
0.00408388
0.00406534
0.00404754
0.0040307
0.00401499
0.00400066
0.00398792
0.00397702
0.00396817
0.00396161
0.00395746
0.00395577
0.00395633
0.00395836
5.3263e-07
-5.47983e-08
-3.36035e-06
-8.92657e-06
-1.6111e-05
-2.43754e-05
-3.32578e-05
-4.23376e-05
-5.12612e-05
-5.97398e-05
-6.75348e-05
-7.44521e-05
-8.03361e-05
-8.50632e-05
-8.85381e-05
-9.06915e-05
-9.14711e-05
-9.08355e-05
-8.87555e-05
-8.52147e-05
-8.02058e-05
-7.37289e-05
-6.57883e-05
-5.63894e-05
-4.55398e-05
-3.3251e-05
-1.95371e-05
-4.41361e-06
1.21029e-05
2.99974e-05
4.92578e-05
6.98714e-05
9.18224e-05
0.000115095
0.000139677
0.000165557
0.000192723
0.000221165
0.000250871
0.000281834
0.000314044
0.000347493
0.000382169
0.000418064
0.000455172
0.00049349
0.000533008
0.000573716
0.000615603
0.00065866
0.000702882
0.000748259
0.000794782
0.000842435
0.000891203
0.000941073
0.000992032
0.00104406
0.00109715
0.00115127
0.0012064
0.00126252
0.0013196
0.00137761
0.00143653
0.00149632
0.00155695
0.00161839
0.00168059
0.0017435
0.00180709
0.0018713
0.0019361
0.00200142
0.00206721
0.00213342
0.00219998
0.00226683
0.0023339
0.00240113
0.00246844
0.00253576
0.00260302
0.00267014
0.00273703
0.00280363
0.00286984
0.00293558
0.00300077
0.00306531
0.00312913
0.00319212
0.00325422
0.00331533
0.00337535
0.00343421
0.00349182
0.0035481
0.00360296
0.00365633
0.00370812
0.00375827
0.0038067
0.00385334
0.00389814
0.00394102
0.00398194
0.00402085
0.0040577
0.00409244
0.00412505
0.0041555
0.00418376
0.00420982
0.00423366
0.00425528
0.00427469
0.00429188
0.00430688
0.0043197
0.00433037
0.00433892
0.0043454
0.00434985
0.00435231
0.00435285
0.00435153
0.00434841
0.00434358
0.00433711
0.00432908
0.00431958
0.00430871
0.00429658
0.00428327
0.00426891
0.0042536
0.00423746
0.00422061
0.00420317
0.00418528
0.00416706
0.00414866
0.00413021
0.00411187
0.00409377
0.00407609
0.00405898
0.00404262
0.00402718
0.00401284
0.00399978
0.00398821
0.0039783
0.00397024
0.00396417
0.00396017
0.00395822
0.00395836
0.00396039
4.30314e-06
3.18143e-06
-1.251e-07
-5.21952e-06
-1.15985e-05
-1.88529e-05
-2.66084e-05
-3.45164e-05
-4.22719e-05
-4.96171e-05
-5.63357e-05
-6.22476e-05
-6.7205e-05
-7.10872e-05
-7.37965e-05
-7.52588e-05
-7.54205e-05
-7.42391e-05
-7.16819e-05
-6.77266e-05
-6.23587e-05
-5.55718e-05
-4.73672e-05
-3.77495e-05
-2.67234e-05
-1.42951e-05
-4.72727e-07
1.47322e-05
3.13045e-05
4.92293e-05
6.84958e-05
8.90946e-05
0.000111014
0.000134239
0.000158758
0.00018456
0.000211634
0.000239972
0.000269561
0.000300394
0.000332464
0.00036576
0.000400275
0.000435998
0.000472921
0.000511041
0.000550348
0.000590836
0.000632492
0.000675306
0.000719269
0.000764374
0.000810609
0.000857962
0.000906416
0.000955957
0.00100657
0.00105824
0.00111095
0.00116467
0.00121939
0.00127508
0.00133171
0.00138926
0.00144769
0.00150698
0.00156708
0.00162798
0.00168961
0.00175194
0.00181493
0.00187853
0.00194268
0.00200735
0.00207246
0.00213798
0.00220383
0.00226995
0.00233628
0.00240274
0.00246928
0.00253582
0.00260228
0.00266858
0.00273466
0.00280042
0.00286579
0.00293069
0.00299503
0.00305873
0.00312169
0.00318384
0.00324508
0.00330534
0.00336453
0.00342257
0.00347936
0.00353483
0.0035889
0.00364149
0.00369253
0.00374194
0.00378966
0.00383561
0.00387975
0.003922
0.00396232
0.00400065
0.00403697
0.00407122
0.00410337
0.0041334
0.00416128
0.004187
0.00421055
0.00423192
0.00425112
0.00426816
0.00428305
0.00429581
0.00430647
0.00431507
0.00432163
0.00432622
0.00432888
0.00432966
0.00432862
0.00432585
0.00432141
0.00431539
0.00430785
0.0042989
0.00428863
0.00427714
0.00426453
0.0042509
0.00423638
0.00422106
0.00420508
0.00418855
0.00417161
0.00415437
0.00413698
0.00411957
0.00410228
0.00408526
0.00406865
0.00405262
0.00403731
0.0040229
0.00400954
0.0039974
0.00398664
0.00397742
0.00396989
0.00396417
0.00396032
0.00395836
0.00395851
0.00396096
1.09656e-05
8.6787e-06
4.88147e-06
-2.28555e-07
-6.32946e-06
-1.30857e-05
-2.01875e-05
-2.73486e-05
-3.43101e-05
-4.08471e-05
-4.67673e-05
-5.19072e-05
-5.6132e-05
-5.93305e-05
-6.14096e-05
-6.22939e-05
-6.19274e-05
-6.02687e-05
-5.7286e-05
-5.2955e-05
-4.72582e-05
-4.01849e-05
-3.1732e-05
-2.19008e-05
-1.06957e-05
1.87767e-06
1.58141e-05
3.11068e-05
4.77443e-05
6.57131e-05
8.50022e-05
0.000105603
0.000127506
0.000150698
0.00017517
0.00020091
0.00022791
0.00025616
0.00028565
0.000316372
0.000348318
0.00038148
0.000415849
0.000451419
0.00048818
0.000526124
0.000565244
0.000605532
0.000646979
0.000689575
0.00073331
0.000778173
0.000824153
0.000871238
0.000919413
0.000968664
0.00101897
0.00107033
0.0011227
0.00117608
0.00123044
0.00128575
0.00134199
0.00139914
0.00145715
0.00151601
0.00157566
0.00163609
0.00169724
0.00175908
0.00182156
0.00188463
0.00194824
0.00201235
0.0020769
0.00214183
0.00220708
0.00227259
0.0023383
0.00240413
0.00247002
0.0025359
0.00260169
0.00266733
0.00273272
0.0027978
0.00286247
0.00292667
0.00299031
0.0030533
0.00311556
0.00317701
0.00323756
0.00329712
0.00335561
0.00341296
0.00346907
0.00352388
0.00357729
0.00362924
0.00367965
0.00372845
0.00377557
0.00382095
0.00386453
0.00390625
0.00394606
0.00398392
0.00401977
0.0040536
0.00408535
0.00411501
0.00414256
0.00416797
0.00419125
0.0042124
0.0042314
0.00424828
0.00426304
0.00427572
0.00428633
0.00429492
0.00430152
0.00430618
0.00430895
0.00430988
0.00430905
0.00430652
0.00430236
0.00429665
0.00428949
0.00428095
0.00427113
0.00426012
0.00424804
0.00423499
0.00422107
0.0042064
0.0041911
0.00417529
0.00415909
0.00414263
0.00412603
0.00410943
0.00409298
0.00407679
0.00406103
0.00404582
0.00403132
0.00401768
0.00400505
0.00399358
0.00398341
0.00397468
0.00396751
0.00396203
0.0039583
0.00395637
0.00395658
0.00395931
1.96654e-05
1.58112e-05
1.11695e-05
5.73727e-06
-3.88896e-07
-6.93753e-06
-1.36534e-05
-2.03065e-05
-2.66834e-05
-3.25938e-05
-3.78707e-05
-4.2369e-05
-4.59673e-05
-4.85658e-05
-5.00804e-05
-5.04406e-05
-4.95904e-05
-4.74875e-05
-4.41002e-05
-3.94054e-05
-3.3386e-05
-2.60298e-05
-1.73303e-05
-7.2848e-06
4.10509e-06
1.68337e-05
3.08955e-05
4.62854e-05
6.29959e-05
8.10173e-05
0.00010034
0.000120954
0.000142851
0.00016602
0.000190452
0.000216139
0.000243072
0.000271242
0.000300639
0.000331257
0.000363087
0.000396121
0.000430351
0.000465771
0.000502373
0.000540149
0.00057909
0.000619187
0.000660432
0.000702815
0.000746328
0.000790959
0.000836695
0.000883525
0.000931433
0.000980404
0.00103042
0.00108147
0.00113353
0.00118659
0.0012406
0.00129556
0.00135144
0.00140821
0.00146583
0.00152428
0.00158352
0.00164351
0.00170422
0.0017656
0.0018276
0.00189019
0.00195331
0.00201691
0.00208093
0.00214533
0.00221004
0.00227499
0.00234013
0.00240539
0.0024707
0.00253598
0.00260117
0.0026662
0.00273097
0.00279543
0.00285949
0.00292306
0.00298606
0.00304842
0.00311005
0.00317086
0.00323078
0.00328971
0.00334759
0.00340432
0.00345982
0.00351402
0.00356684
0.00361821
0.00366805
0.0037163
0.00376288
0.00380773
0.00385081
0.00389204
0.00393139
0.0039688
0.00400423
0.00403765
0.00406903
0.00409834
0.00412556
0.00415069
0.0041737
0.0041946
0.0042134
0.0042301
0.00424472
0.00425728
0.00426782
0.00427636
0.00428295
0.00428763
0.00429046
0.0042915
0.0042908
0.00428844
0.00428449
0.00427903
0.00427215
0.00426394
0.00425448
0.00424389
0.00423224
0.00421967
0.00420626
0.00419214
0.00417742
0.00416222
0.00414665
0.00413085
0.00411494
0.00409904
0.00408329
0.00406782
0.00405277
0.00403826
0.00402444
0.00401145
0.00399941
0.00398848
0.00397876
0.0039704
0.0039635
0.00395817
0.00395449
0.00395251
0.00395264
0.00395527
2.97143e-05
2.40427e-05
1.83311e-05
1.23458e-05
5.9572e-06
-6.19602e-07
-7.17401e-06
-1.35262e-05
-1.95047e-05
-2.49521e-05
-2.97291e-05
-3.3711e-05
-3.67897e-05
-3.88764e-05
-3.98967e-05
-3.97883e-05
-3.85001e-05
-3.59912e-05
-3.22296e-05
-2.71919e-05
-2.08621e-05
-1.32294e-05
-4.28696e-06
5.97012e-06
1.75438e-05
3.04305e-05
4.46245e-05
6.01204e-05
7.69121e-05
9.49928e-05
0.000114355
0.000134991
0.000156891
0.000180046
0.000204448
0.00023009
0.000256964
0.00028506
0.000314371
0.000344891
0.000376613
0.000409528
0.000443627
0.000478904
0.000515352
0.000552967
0.000591737
0.000631653
0.000672705
0.000714885
0.000758185
0.000802594
0.000848099
0.000894686
0.000942342
0.000991051
0.0010408
0.00109156
0.00114333
0.00119607
0.00124977
0.00130441
0.00135995
0.00141636
0.00147362
0.0015317
0.00159055
0.00165015
0.00171045
0.00177141
0.00183299
0.00189514
0.00195781
0.00202095
0.0020845
0.00214842
0.00221264
0.0022771
0.00234173
0.00240647
0.00247126
0.00253602
0.00260068
0.00266516
0.00272939
0.0027933
0.0028568
0.00291982
0.00298227
0.00304407
0.00310514
0.00316539
0.00322476
0.00328314
0.00334046
0.00339665
0.00345161
0.00350528
0.00355758
0.00360843
0.00365777
0.00370551
0.00375161
0.003796
0.00383861
0.00387941
0.00391833
0.00395533
0.00399037
0.00402342
0.00405445
0.00408343
0.00411034
0.00413518
0.00415792
0.00417859
0.00419717
0.00421368
0.00422813
0.00424056
0.00425098
0.00425944
0.00426598
0.00427064
0.00427348
0.00427455
0.00427393
0.00427168
0.00426787
0.00426259
0.00425592
0.00424794
0.00423877
0.00422848
0.00421719
0.00420499
0.004192
0.00417833
0.00416408
0.00414938
0.00413434
0.00411909
0.00410374
0.00408843
0.00407327
0.00405839
0.00404392
0.00402999
0.00401672
0.00400425
0.00399268
0.00398216
0.00397279
0.00396468
0.00395795
0.00395268
0.00394895
0.00394684
0.0039467
0.00394892
4.05061e-05
3.29116e-05
2.59892e-05
1.92827e-05
1.24466e-05
5.65187e-06
-9.28495e-07
-7.15823e-06
-1.2904e-05
-1.80378e-05
-2.24459e-05
-2.60269e-05
-2.86885e-05
-3.03519e-05
-3.09521e-05
-3.04353e-05
-2.87571e-05
-2.5881e-05
-2.17775e-05
-1.64238e-05
-9.80373e-06
-1.90719e-06
7.27152e-06
1.77368e-05
2.94914e-05
4.25341e-05
5.68614e-05
7.2468e-05
8.93477e-05
0.000107494
0.000126903
0.000147566
0.000169477
0.000192625
0.000217004
0.000242609
0.000269431
0.000297463
0.000326696
0.000357125
0.000388745
0.000421548
0.000455525
0.000490669
0.000526973
0.000564433
0.000603041
0.000642785
0.000683657
0.000725646
0.000768745
0.000812945
0.000858232
0.000904592
0.000952012
0.00100048
0.00104997
0.00110047
0.00115196
0.00120442
0.00125784
0.00131217
0.0013674
0.00142349
0.00148043
0.00153816
0.00159667
0.00165592
0.00171585
0.00177644
0.00183763
0.00189939
0.00196166
0.0020244
0.00208754
0.00215103
0.00221482
0.00227885
0.00234304
0.00240734
0.00247167
0.00253597
0.00260016
0.00266418
0.00272794
0.00279138
0.0028544
0.00291694
0.00297891
0.00304023
0.00310082
0.0031606
0.00321948
0.00327739
0.00333424
0.00338995
0.00344445
0.00349766
0.0035495
0.00359991
0.0036488
0.00369612
0.00374179
0.00378576
0.00382797
0.00386837
0.00390691
0.00394354
0.00397823
0.00401094
0.00404164
0.00407031
0.00409692
0.00412148
0.00414397
0.00416439
0.00418274
0.00419905
0.00421332
0.00422558
0.00423587
0.00424421
0.00425065
0.00425525
0.00425804
0.0042591
0.00425849
0.00425627
0.00425254
0.00424736
0.00424081
0.004233
0.00422402
0.00421396
0.00420292
0.00419101
0.00417833
0.004165
0.00415112
0.00413682
0.0041222
0.00410738
0.00409249
0.00407763
0.00406294
0.00404854
0.00403453
0.00402105
0.00400821
0.00399613
0.00398492
0.00397469
0.00396555
0.0039576
0.00395093
0.00394563
0.00394177
0.00393941
0.00393887
0.00394044
5.1519e-05
4.19905e-05
3.37868e-05
2.62487e-05
1.88345e-05
1.16806e-05
4.92913e-06
-1.32076e-06
-6.96981e-06
-1.19175e-05
-1.60722e-05
-1.93529e-05
-2.16859e-05
-2.30051e-05
-2.32548e-05
-2.23888e-05
-2.03689e-05
-1.71638e-05
-1.27492e-05
-7.1053e-06
-2.16949e-07
7.92634e-06
1.73301e-05
2.79975e-05
3.993e-05
5.31266e-05
6.75854e-05
8.33032e-05
0.000100274
0.000118492
0.000137952
0.000158648
0.000180574
0.000203722
0.000228085
0.000253659
0.000280436
0.000308411
0.000337574
0.000367921
0.000399446
0.000432144
0.000466006
0.000501025
0.000537196
0.000574512
0.000612965
0.000652547
0.000693248
0.000735059
0.000777971
0.000821974
0.000867058
0.000913207
0.000960407
0.00100864
0.0010579
0.00110816
0.0011594
0.00121161
0.00126475
0.00131881
0.00137376
0.00142957
0.00148621
0.00154364
0.00160184
0.00166077
0.00172038
0.00178064
0.0018415
0.00190291
0.00196484
0.00202722
0.00209
0.00215313
0.00221655
0.0022802
0.00234401
0.00240793
0.00247187
0.00253578
0.00259958
0.0026632
0.00272657
0.0027896
0.00285222
0.00291436
0.00297592
0.00303684
0.00309703
0.0031564
0.00321488
0.00327238
0.00332884
0.00338415
0.00343826
0.00349107
0.00354253
0.00359255
0.00364106
0.00368801
0.00373331
0.00377692
0.00381878
0.00385883
0.00389703
0.00393333
0.0039677
0.00400009
0.00403049
0.00405886
0.0040852
0.00410948
0.00413171
0.00415189
0.00417001
0.0041861
0.00420016
0.00421224
0.00422235
0.00423054
0.00423685
0.00424133
0.00424404
0.00424502
0.00424436
0.00424213
0.00423839
0.00423324
0.00422675
0.00421903
0.00421015
0.00420023
0.00418936
0.00417764
0.00416518
0.00415209
0.00413849
0.00412448
0.00411017
0.00409568
0.00408113
0.00406663
0.0040523
0.00403825
0.0040246
0.00401146
0.00399893
0.00398714
0.00397617
0.00396614
0.00395713
0.00394924
0.00394255
0.00393713
0.00393305
0.00393036
0.0039293
0.00393006
6.23369e-05
5.09094e-05
4.14001e-05
3.2966e-05
2.48856e-05
1.72703e-05
1.0239e-05
3.85833e-06
-1.80258e-06
-6.66893e-06
-1.0669e-05
-1.37389e-05
-1.58217e-05
-1.68661e-05
-1.68268e-05
-1.56659e-05
-1.33514e-05
-9.85698e-06
-5.16275e-06
7.46309e-07
7.88231e-06
1.62547e-05
2.58692e-05
3.67287e-05
4.88333e-05
6.21809e-05
7.67694e-05
9.25973e-05
0.00010966
0.000127951
0.000147466
0.000168199
0.000190146
0.000213298
0.000237651
0.0002632
0.000289939
0.000317862
0.000346962
0.000377234
0.000408672
0.000441272
0.000475026
0.000509929
0.000545975
0.000583157
0.000621467
0.000660897
0.000701438
0.000743082
0.00078582
0.000829642
0.000874536
0.00092049
0.000967488
0.00101551
0.00106455
0.00111459
0.00116561
0.00121758
0.00127049
0.0013243
0.001379
0.00143455
0.00149093
0.00154809
0.00160602
0.00166467
0.001724
0.00178397
0.00184454
0.00190566
0.00196729
0.00202936
0.00209184
0.00215466
0.00221777
0.0022811
0.0023446
0.0024082
0.00247182
0.0025354
0.00259888
0.00266217
0.00272521
0.00278792
0.00285021
0.00291201
0.00297325
0.00303383
0.00309369
0.00315273
0.00321088
0.00326806
0.00332418
0.00337917
0.00343295
0.00348544
0.00353657
0.00358627
0.00363447
0.00368109
0.00372609
0.00376939
0.00381094
0.00385069
0.00388858
0.00392459
0.00395866
0.00399077
0.00402089
0.00404898
0.00407505
0.00409907
0.00412104
0.00414097
0.00415885
0.0041747
0.00418855
0.00420041
0.00421033
0.00421833
0.00422447
0.00422879
0.00423135
0.00423222
0.00423145
0.00422913
0.00422534
0.00422014
0.00421364
0.00420593
0.00419708
0.00418722
0.00417643
0.00416481
0.00415249
0.00413956
0.00412612
0.00411231
0.00409822
0.00408396
0.00406965
0.00405541
0.00404133
0.00402754
0.00401413
0.00400123
0.00398892
0.00397731
0.00396649
0.00395657
0.00394761
0.00393969
0.0039329
0.00392729
0.00392292
0.00391983
0.00391817
0.00391803
7.26138e-05
5.9351e-05
4.85435e-05
3.91814e-05
3.03801e-05
2.22321e-05
1.48392e-05
8.24189e-06
2.48342e-06
-2.38531e-06
-6.31198e-06
-9.24819e-06
-1.11514e-05
-1.19835e-05
-1.17106e-05
-1.03034e-05
-7.73734e-06
-3.9916e-06
9.4957e-07
7.09737e-06
1.44603e-05
2.30449e-05
3.28557e-05
4.3895e-05
5.61628e-05
6.96558e-05
8.43711e-05
0.000100307
0.000117461
0.000135825
0.000155397
0.000176171
0.000198141
0.000221302
0.000245649
0.000271179
0.000297885
0.000325762
0.000354804
0.000385008
0.000416368
0.000448878
0.000482533
0.000517328
0.000553256
0.000590313
0.000628491
0.00066778
0.000708173
0.000749662
0.000792239
0.000835894
0.000880615
0.000926389
0.000973202
0.00102104
0.00106988
0.00111972
0.00117053
0.0012223
0.00127499
0.00132859
0.00138306
0.00143839
0.00149453
0.00155147
0.00160916
0.00166758
0.00172667
0.00178639
0.00184672
0.00190759
0.00196897
0.00203079
0.00209302
0.00215559
0.00221844
0.00228152
0.00234476
0.00240809
0.00247146
0.00253479
0.00259801
0.00266104
0.00272382
0.00278627
0.0028483
0.00290985
0.00297082
0.00303115
0.00309075
0.00314953
0.00320742
0.00326434
0.0033202
0.00337493
0.00342845
0.00348068
0.00353155
0.00358099
0.00362893
0.0036753
0.00372003
0.00376307
0.00380435
0.00384384
0.00388148
0.00391722
0.00395103
0.00398288
0.00401273
0.00404057
0.00406638
0.00409014
0.00411185
0.00413152
0.00414916
0.00416476
0.00417837
0.00419
0.00419968
0.00420747
0.00421339
0.00421752
0.00421989
0.00422058
0.00421967
0.00421721
0.00421329
0.00420799
0.0042014
0.00419362
0.00418474
0.00417485
0.00416406
0.00415247
0.00414019
0.00412733
0.00411398
0.00410027
0.0040863
0.00407218
0.00405802
0.00404393
0.00403002
0.00401638
0.00400313
0.00399037
0.00397819
0.00396668
0.00395593
0.00394602
0.00393703
0.00392903
0.00392207
0.00391621
0.00391149
0.00390796
0.00390566
0.00390457
8.20584e-05
6.70413e-05
5.49636e-05
4.46648e-05
3.51134e-05
2.63877e-05
1.85749e-05
1.16949e-05
5.77051e-06
8.32303e-07
-3.08642e-06
-5.95287e-06
-7.73722e-06
-8.41314e-06
-7.95673e-06
-6.34744e-06
-3.56872e-06
3.93439e-07
5.55022e-06
1.19096e-05
1.94775e-05
2.82571e-05
3.82499e-05
4.94569e-05
6.18771e-05
7.55076e-05
9.03449e-05
0.000106387
0.000123629
0.000142066
0.000161695
0.00018251
0.000204507
0.00022768
0.000252026
0.000277541
0.00030422
0.000332057
0.000361047
0.000391188
0.000422476
0.000454905
0.00048847
0.000523164
0.000558985
0.000595926
0.000633981
0.000673141
0.000713398
0.000754745
0.000797175
0.000840677
0.00088524
0.000930852
0.000977498
0.00102516
0.00107383
0.00112349
0.00117412
0.0012257
0.00127821
0.00133162
0.0013859
0.00144103
0.00149699
0.00155373
0.00161122
0.00166943
0.00172833
0.00178786
0.00184798
0.00190865
0.00196983
0.00203146
0.00209348
0.00215585
0.00221851
0.00228139
0.00234443
0.00240757
0.00247075
0.00253388
0.00259691
0.00265975
0.00272234
0.0027846
0.00284644
0.0029078
0.00296859
0.00302873
0.00308814
0.00314673
0.00320443
0.00326116
0.00331683
0.00337137
0.00342469
0.00347673
0.0035274
0.00357664
0.00362437
0.00367053
0.00371505
0.00375788
0.00379895
0.00383821
0.00387562
0.00391114
0.00394472
0.00397632
0.00400593
0.00403352
0.00405908
0.00408259
0.00410405
0.00412346
0.00414083
0.00415618
0.00416953
0.0041809
0.00419033
0.00419786
0.00420354
0.00420742
0.00420957
0.00421004
0.00420891
0.00420625
0.00420215
0.00419669
0.00418996
0.00418204
0.00417304
0.00416306
0.0041522
0.00414056
0.00412824
0.00411536
0.00410201
0.00408832
0.00407438
0.00406031
0.00404621
0.00403219
0.00401834
0.00400478
0.0039916
0.00397889
0.00396676
0.00395527
0.00394451
0.00393455
0.00392547
0.00391732
0.00391014
0.00390399
0.00389889
0.00389488
0.00389192
0.00388989
9.04255e-05
7.37428e-05
6.04367e-05
4.92088e-05
3.88953e-05
2.95664e-05
2.12967e-05
1.40867e-05
7.9434e-06
2.88147e-06
-1.08292e-06
-3.93209e-06
-5.64827e-06
-6.21588e-06
-5.62065e-06
-3.8502e-06
-8.9527e-07
3.2514e-06
8.59549e-06
1.51412e-05
2.28918e-05
3.18477e-05
4.20074e-05
5.33695e-05
6.59319e-05
7.96911e-05
9.46438e-05
0.000110787
0.000128115
0.000146624
0.000166308
0.000187166
0.00020919
0.000232378
0.000256725
0.000282229
0.000308885
0.000336688
0.000365633
0.000395717
0.00042694
0.000459295
0.000492777
0.000527381
0.000563103
0.000599938
0.000637881
0.000676923
0.000717058
0.000758276
0.000800572
0.000843937
0.000888359
0.000933825
0.000980322
0.00102784
0.00107635
0.00112586
0.00117633
0.00122775
0.0012801
0.00133335
0.00138747
0.00144244
0.00149823
0.00155481
0.00161215
0.0016702
0.00172894
0.00178831
0.00184828
0.0019088
0.00196982
0.0020313
0.00209318
0.00215541
0.00221792
0.00228067
0.00234358
0.00240658
0.00246963
0.00253263
0.00259553
0.00265825
0.00272072
0.00278285
0.00284458
0.00290582
0.00296649
0.00302651
0.0030858
0.00314427
0.00320185
0.00325846
0.003314
0.00336841
0.00342161
0.00347351
0.00352404
0.00357314
0.00362072
0.00366672
0.00371109
0.00375374
0.00379464
0.00383372
0.00387094
0.00390626
0.00393963
0.00397102
0.0040004
0.00402776
0.00405307
0.00407633
0.00409754
0.00411668
0.00413378
0.00414886
0.00416192
0.00417301
0.00418216
0.00418941
0.00419481
0.00419841
0.00420028
0.00420049
0.0041991
0.00419619
0.00419185
0.00418617
0.00417922
0.00417111
0.00416193
0.00415178
0.00414077
0.00412899
0.00411656
0.00410358
0.00409016
0.0040764
0.00406242
0.00404831
0.00403419
0.00402015
0.0040063
0.00399273
0.00397953
0.00396681
0.00395464
0.0039431
0.00393227
0.00392221
0.00391298
0.00390462
0.00389719
0.00389071
0.00388521
0.00388072
0.0038771
0.00387417
9.75074e-05
7.92499e-05
6.4766e-05
5.26288e-05
4.15536e-05
3.1608e-05
2.2859e-05
1.52885e-05
8.88832e-06
3.65999e-06
-3.93991e-07
-3.26921e-06
-4.95936e-06
-5.45893e-06
-4.76322e-06
-2.86797e-06
2.29485e-07
4.53068e-06
1.00359e-05
1.67448e-05
2.46569e-05
3.37702e-05
4.40807e-05
5.55848e-05
6.82788e-05
8.21582e-05
9.72189e-05
0.000113457
0.000130868
0.000149445
0.000169184
0.000190083
0.000212137
0.000235341
0.000259692
0.000285188
0.000311825
0.000339597
0.000368502
0.000398538
0.000429701
0.00046199
0.000495397
0.000529919
0.000565552
0.000602292
0.000640134
0.00067907
0.000719094
0.000760198
0.000802375
0.000845618
0.000889915
0.000935254
0.000981621
0.001029
0.00107739
0.00112676
0.0011771
0.00122839
0.0012806
0.00133372
0.00138771
0.00144256
0.00149822
0.00155468
0.00161189
0.00166982
0.00172844
0.0017877
0.00184757
0.00190798
0.0019689
0.00203029
0.00209207
0.00215421
0.00221664
0.0022793
0.00234214
0.00240507
0.00246805
0.00253099
0.00259383
0.00265649
0.0027189
0.00278098
0.00284266
0.00290384
0.00296446
0.00302443
0.00308367
0.0031421
0.00319962
0.00325617
0.00331166
0.003366
0.00341913
0.00347096
0.00352141
0.00357042
0.00361791
0.00366381
0.00370805
0.00375059
0.00379135
0.00383029
0.00386735
0.00390249
0.00393568
0.00396687
0.00399605
0.00402319
0.00404827
0.00407128
0.00409222
0.0041111
0.00412792
0.0041427
0.00415547
0.00416626
0.00417509
0.00418203
0.00418711
0.0041904
0.00419195
0.00419185
0.00419015
0.00418694
0.00418231
0.00417634
0.00416912
0.00416074
0.00415132
0.00414094
0.0041297
0.00411773
0.00410511
0.00409196
0.00407838
0.00406448
0.00405037
0.00403615
0.00402192
0.00400779
0.00399385
0.0039802
0.00396693
0.00395411
0.00394185
0.0039302
0.00391924
0.00390902
0.00389959
0.003891
0.00388328
0.00387646
0.00387055
0.00386557
0.00386133
0.00385754
0.000103124
8.33814e-05
6.77744e-05
5.47573e-05
4.29321e-05
3.23668e-05
2.31255e-05
1.5175e-05
8.49183e-06
3.06567e-06
-1.11205e-06
-4.04831e-06
-5.74769e-06
-6.21374e-06
-5.45054e-06
-3.46196e-06
-2.51801e-07
4.17627e-06
9.81802e-06
1.66683e-05
2.47225e-05
3.39752e-05
4.44203e-05
5.60528e-05
6.88673e-05
8.28577e-05
9.80187e-05
0.000114346
0.000131833
0.000150475
0.000170267
0.000191207
0.00021329
0.000236512
0.000260869
0.00028636
0.000312981
0.000340728
0.000369598
0.00039959
0.000430703
0.000462931
0.000496272
0.000530721
0.000566274
0.00060293
0.000640682
0.000679524
0.00071945
0.000760453
0.000802527
0.000845663
0.000889852
0.000935082
0.00098134
0.00102861
0.00107689
0.00112615
0.00117638
0.00122756
0.00127968
0.00133269
0.00138658
0.00144133
0.0014969
0.00155327
0.0016104
0.00166826
0.0017268
0.00178599
0.00184579
0.00190615
0.00196702
0.00202836
0.0020901
0.00215221
0.00221461
0.00227725
0.00234007
0.002403
0.00246596
0.00252891
0.00259175
0.00265442
0.00271684
0.00277893
0.00284062
0.00290183
0.00296246
0.00302245
0.00308171
0.00314015
0.00319769
0.00325424
0.00330974
0.00336408
0.0034172
0.00346901
0.00351945
0.00356842
0.00361586
0.00366171
0.00370589
0.00374834
0.00378901
0.00382783
0.00386477
0.00389977
0.0039328
0.00396382
0.0039928
0.00401973
0.00404458
0.00406734
0.00408803
0.00410663
0.00412316
0.00413763
0.00415009
0.00416054
0.00416904
0.00417563
0.00418037
0.0041833
0.0041845
0.00418403
0.00418198
0.00417842
0.00417344
0.00416712
0.00415957
0.00415088
0.00414114
0.00413046
0.00411894
0.00410669
0.00409381
0.00408042
0.00406661
0.0040525
0.00403818
0.00402378
0.00400938
0.00399508
0.00398099
0.00396719
0.00395377
0.00394081
0.00392839
0.00391657
0.00390543
0.00389501
0.00388535
0.0038765
0.00386848
0.0038613
0.00385498
0.00384953
0.0038447
0.00384013
0.000107123
8.59787e-05
6.93028e-05
5.54403e-05
4.28862e-05
3.17081e-05
2.19698e-05
1.36272e-05
6.64347e-06
9.97092e-07
-3.32995e-06
-6.35469e-06
-8.09184e-06
-8.55371e-06
-7.75181e-06
-5.69708e-06
-2.39982e-06
2.13083e-06
7.88613e-06
1.48567e-05
2.30339e-05
3.24091e-05
4.29739e-05
5.47215e-05
6.76451e-05
8.17368e-05
9.69901e-05
0.000113399
0.000130958
0.00014966
0.000169503
0.000190482
0.000212594
0.000235834
0.000260199
0.000285687
0.000312296
0.000340022
0.000368862
0.000398817
0.000429884
0.000462061
0.000495343
0.000529727
0.000565211
0.000601792
0.000639467
0.000678227
0.000718069
0.000758985
0.00080097
0.000844017
0.000888115
0.000933254
0.000979422
0.00102661
0.00107479
0.00112397
0.00117412
0.00122522
0.00127726
0.0013302
0.00138403
0.00143871
0.00149423
0.00155054
0.00160763
0.00166545
0.00172396
0.00178313
0.00184291
0.00190326
0.00196413
0.00202547
0.00208723
0.00214935
0.00221178
0.00227446
0.00233732
0.0024003
0.00246332
0.00252633
0.00258924
0.00265198
0.00271447
0.00277665
0.00283842
0.00289971
0.00296044
0.00302051
0.00307985
0.00313837
0.00319599
0.00325262
0.00330818
0.00336259
0.00341576
0.00346762
0.00351808
0.00356708
0.00361453
0.00366037
0.00370452
0.00374694
0.00378755
0.0038263
0.00386314
0.00389803
0.00393092
0.00396178
0.00399058
0.0040173
0.00404193
0.00406445
0.00408487
0.00410318
0.00411941
0.00413357
0.00414568
0.00415579
0.00416393
0.00417014
0.00417449
0.00417703
0.00417783
0.00417696
0.00417451
0.00417055
0.00416517
0.00415846
0.00415051
0.00414144
0.00413132
0.00412028
0.00410841
0.00409582
0.00408261
0.00406891
0.0040548
0.00404041
0.00402582
0.00401116
0.00399652
0.003982
0.00396768
0.00395367
0.00394004
0.00392688
0.00391426
0.00390223
0.00389087
0.00388021
0.00387029
0.00386116
0.00385282
0.00384528
0.00383857
0.00383268
0.00382731
0.00382204
0.000109371
8.69044e-05
6.92124e-05
5.45393e-05
4.12818e-05
2.95051e-05
1.92726e-05
1.05326e-05
3.23783e-06
-2.64379e-06
-7.13936e-06
-1.02742e-05
-1.2072e-05
-1.25536e-05
-1.17373e-05
-9.64018e-06
-6.27837e-06
-1.66651e-06
4.18179e-06
1.12531e-05
1.95353e-05
2.90172e-05
3.96877e-05
5.15377e-05
6.45587e-05
7.87415e-05
9.40784e-05
0.000110563
0.000128187
0.000146946
0.000166836
0.000187853
0.000209993
0.00023325
0.000257624
0.000283111
0.000309711
0.00033742
0.000366236
0.000396158
0.000427187
0.000459319
0.000492551
0.00052688
0.000562304
0.000598822
0.00063643
0.000675122
0.000714892
0.000755736
0.000797648
0.000840622
0.000884648
0.000929715
0.000975814
0.00102293
0.00107105
0.00112017
0.00117026
0.00122131
0.0012733
0.0013262
0.00137999
0.00143465
0.00149014
0.00154644
0.00160352
0.00166135
0.00171987
0.00177906
0.00183887
0.00189926
0.00196017
0.00202157
0.0020834
0.0021456
0.00220812
0.00227089
0.00233385
0.00239694
0.00246008
0.00252321
0.00258625
0.00264913
0.00271177
0.00277409
0.00283601
0.00289745
0.00295833
0.00301856
0.00307805
0.00313672
0.00319448
0.00325125
0.00330694
0.00336147
0.00341476
0.00346672
0.00351727
0.00356634
0.00361385
0.00365973
0.00370391
0.00374632
0.00378691
0.00382562
0.00386239
0.00389719
0.00392996
0.00396068
0.00398932
0.00401585
0.00404025
0.00406253
0.00408268
0.0041007
0.00411661
0.00413043
0.00414219
0.00415192
0.00415967
0.00416548
0.0041694
0.00417152
0.00417188
0.00417057
0.00416766
0.00416325
0.00415742
0.00415026
0.00414187
0.00413235
0.0041218
0.00411033
0.00409805
0.00408505
0.00407145
0.00405737
0.0040429
0.00402815
0.00401324
0.00399826
0.00398331
0.0039685
0.00395391
0.00393963
0.00392574
0.00391233
0.00389945
0.00388717
0.00387555
0.00386463
0.00385444
0.003845
0.00383635
0.00382846
0.00382137
0.00381508
0.00380922
0.00380333
0.000109744
8.60354e-05
6.73805e-05
5.19314e-05
3.79966e-05
2.56393e-05
1.49212e-05
5.78434e-06
-1.82623e-06
-7.95218e-06
-1.26298e-05
-1.58915e-05
-1.77685e-05
-1.82889e-05
-1.74781e-05
-1.53587e-05
-1.19523e-05
-7.27847e-06
-1.35574e-06
5.79858e-06
1.41694e-05
2.37429e-05
3.45055e-05
4.64458e-05
5.95532e-05