/*--------------------------------*- C++ -*----------------------------------*\
  =========                 |
  \\      /  F ield         | OpenFOAM: The Open Source CFD Toolbox
   \\    /   O peration     | Website:  https://openfoam.org
    \\  /    A nd           | Version:  7
     \\/     M anipulation  |
\*---------------------------------------------------------------------------*/
FoamFile
{
    version     2.0;
    format      ascii;
    class       surfaceScalarField;
    location    "0.4125";
    object      phi;
}
// * * * * * * * * * * * * * * * * * * * * * * * * * * * * * * * * * * * * * //

dimensions      [0 3 -1 0 0 0 0];

internalField   nonuniform List<scalar> 
50880
(
1.50964e-11
-1.50941e-11
3.81974e-11
-2.30977e-11
5.33794e-11
-1.5182e-11
5.27666e-11
6.12283e-13
3.33268e-11
1.94391e-11
-5.75817e-12
3.90854e-11
-6.39917e-11
5.8234e-11
-1.40293e-10
7.63018e-11
-2.33281e-10
9.29888e-11
-3.41463e-10
1.08184e-10
-4.63337e-10
1.21875e-10
-5.97455e-10
1.34117e-10
-7.42447e-10
1.44992e-10
-8.97035e-10
1.54588e-10
-1.06004e-09
1.63008e-10
-1.23039e-09
1.70353e-10
-1.40711e-09
1.76713e-10
-1.58929e-09
1.8218e-10
-1.77613e-09
1.86846e-10
-1.96693e-09
1.90796e-10
-2.16103e-09
1.94105e-10
-2.35787e-09
1.96842e-10
-2.55694e-09
1.99069e-10
-2.75778e-09
2.00839e-10
-2.95998e-09
2.02203e-10
-3.1632e-09
2.03214e-10
-3.36711e-09
2.03915e-10
-3.57145e-09
2.04339e-10
-3.77597e-09
2.04517e-10
-3.98045e-09
2.04476e-10
-4.18468e-09
2.04239e-10
-4.38851e-09
2.03827e-10
-4.59178e-09
2.03264e-10
-4.79434e-09
2.02566e-10
-4.99608e-09
2.01739e-10
-5.19687e-09
2.0079e-10
-5.3966e-09
1.9973e-10
-5.59517e-09
1.98567e-10
-5.79248e-09
1.97307e-10
-5.98842e-09
1.95948e-10
-6.18291e-09
1.9449e-10
-6.37585e-09
1.92936e-10
-6.56714e-09
1.91286e-10
-6.75667e-09
1.89536e-10
-6.94435e-09
1.87681e-10
-7.13007e-09
1.85716e-10
-7.31371e-09
1.83638e-10
-7.49515e-09
1.81446e-10
-7.67429e-09
1.79134e-10
-7.85098e-09
1.76694e-10
-8.0251e-09
1.74116e-10
-8.19649e-09
1.71396e-10
-8.36502e-09
1.68528e-10
-8.53053e-09
1.65509e-10
-8.69286e-09
1.62331e-10
-8.85185e-09
1.58985e-10
-9.00731e-09
1.55465e-10
-9.15908e-09
1.51765e-10
-9.30696e-09
1.47879e-10
-9.45076e-09
1.43801e-10
-9.59028e-09
1.39524e-10
-9.72533e-09
1.35045e-10
-9.85569e-09
1.30361e-10
-9.98116e-09
1.25466e-10
-1.01015e-08
1.20353e-10
-1.02165e-08
1.15017e-10
-1.0326e-08
1.09457e-10
-1.04297e-08
1.03675e-10
-1.05273e-08
9.76687e-11
-1.06188e-08
9.14362e-11
-1.07037e-08
8.49734e-11
-1.0782e-08
7.82805e-11
-1.08534e-08
7.13624e-11
-1.09176e-08
6.42242e-11
-1.09745e-08
5.68683e-11
-1.10238e-08
4.92959e-11
-1.10653e-08
4.15106e-11
-1.10988e-08
3.35205e-11
-1.11241e-08
2.53356e-11
-1.11411e-08
1.6964e-11
-1.11495e-08
8.414e-12
-1.11492e-08
-3.03988e-13
-1.114e-08
-9.17664e-12
-1.11218e-08
-1.81904e-11
-1.10945e-08
-2.7332e-11
-1.10579e-08
-3.65883e-11
-1.1012e-08
-4.59422e-11
-1.09566e-08
-5.53732e-11
-1.08917e-08
-6.48612e-11
-1.08174e-08
-7.43877e-11
-1.07334e-08
-8.39354e-11
-1.06399e-08
-9.34839e-11
-1.05369e-08
-1.03008e-10
-1.04244e-08
-1.12483e-10
-1.03026e-08
-1.21883e-10
-1.01714e-08
-1.31187e-10
-1.0031e-08
-1.40371e-10
-9.8816e-09
-1.49411e-10
-9.72332e-09
-1.58278e-10
-9.55638e-09
-1.66946e-10
-9.38099e-09
-1.7539e-10
-9.1974e-09
-1.83585e-10
-9.0059e-09
-1.91505e-10
-8.80677e-09
-1.99124e-10
-8.60036e-09
-2.06416e-10
-8.38699e-09
-2.1336e-10
-8.16706e-09
-2.19934e-10
-7.94095e-09
-2.26112e-10
-7.70908e-09
-2.3187e-10
-7.47189e-09
-2.37186e-10
-7.22985e-09
-2.42044e-10
-6.98342e-09
-2.46429e-10
-6.7331e-09
-2.50323e-10
-6.47939e-09
-2.53704e-10
-6.22283e-09
-2.56557e-10
-5.96396e-09
-2.58872e-10
-5.70332e-09
-2.6064e-10
-5.44147e-09
-2.61851e-10
-5.17898e-09
-2.62494e-10
-4.91642e-09
-2.62561e-10
-4.65437e-09
-2.62046e-10
-4.39342e-09
-2.60949e-10
-4.13415e-09
-2.59266e-10
-3.87716e-09
-2.56995e-10
-3.62303e-09
-2.54135e-10
-3.37234e-09
-2.50691e-10
-3.12567e-09
-2.46667e-10
-2.8836e-09
-2.42067e-10
-2.64671e-09
-2.36891e-10
-2.41557e-09
-2.31146e-10
-2.19073e-09
-2.24841e-10
-1.97274e-09
-2.17988e-10
-1.76214e-09
-2.10598e-10
-1.55946e-09
-2.02678e-10
-1.36523e-09
-1.94236e-10
-1.17994e-09
-1.85284e-10
-1.00411e-09
-1.75839e-10
-8.38189e-10
-1.65917e-10
-6.82657e-10
-1.55533e-10
-5.37954e-10
-1.44703e-10
-4.04508e-10
-1.33447e-10
-2.8272e-10
-1.21788e-10
-1.72965e-10
-1.09754e-10
-7.55891e-11
-9.73765e-11
9.10321e-12
-8.46919e-11
8.08618e-11
-7.17578e-11
1.39484e-10
-5.86221e-11
1.84853e-10
-4.53698e-11
2.16948e-10
-3.20963e-11
2.35876e-10
-1.89285e-11
2.41917e-10
-6.04166e-12
2.35591e-10
6.32384e-12
2.17747e-10
1.78406e-11
1.89686e-10
2.80586e-11
1.53347e-10
3.6336e-11
1.11598e-10
4.17476e-11
6.86052e-11
4.29926e-11
3.03526e-11
3.82522e-11
5.11386e-12
2.52391e-11
5.11523e-12
2.31061e-11
-3.81972e-11
4.71961e-11
-4.71892e-11
4.75245e-11
-1.5508e-11
1.00147e-11
3.81238e-11
-7.28699e-11
1.02325e-10
-2.04007e-10
1.70223e-10
-3.83434e-10
2.37663e-10
-6.09424e-10
3.02291e-10
-8.79265e-10
3.6283e-10
-1.18972e-09
4.18644e-10
-1.53734e-09
4.69495e-10
-1.91862e-09
5.15399e-10
-2.33015e-09
5.56519e-10
-2.76866e-09
5.93095e-10
-3.23107e-09
6.25418e-10
-3.71452e-09
6.53805e-10
-4.21637e-09
6.78568e-10
-4.73421e-09
7.00018e-10
-5.26582e-09
7.1846e-10
-5.80922e-09
7.34187e-10
-6.36258e-09
7.47466e-10
-6.92428e-09
7.58544e-10
-7.49286e-09
7.67649e-10
-8.06701e-09
7.74992e-10
-8.64557e-09
7.80762e-10
-9.22749e-09
7.85134e-10
-9.81184e-09
7.88262e-10
-1.03978e-08
7.90285e-10
-1.09846e-08
7.91323e-10
-1.15716e-08
7.91481e-10
-1.21582e-08
7.90853e-10
-1.27439e-08
7.89519e-10
-1.33282e-08
7.87553e-10
-1.39106e-08
7.85013e-10
-1.44908e-08
7.81946e-10
-1.50684e-08
7.78388e-10
-1.56431e-08
7.74372e-10
-1.62144e-08
7.69926e-10
-1.67822e-08
7.65065e-10
-1.73461e-08
7.59801e-10
-1.79057e-08
7.54138e-10
-1.84608e-08
7.48078e-10
-1.90112e-08
7.4162e-10
-1.95564e-08
7.34756e-10
-2.00962e-08
7.27474e-10
-2.06302e-08
7.19761e-10
-2.11582e-08
7.11602e-10
-2.16797e-08
7.02983e-10
-2.21945e-08
6.93883e-10
-2.27021e-08
6.84278e-10
-2.32021e-08
6.74146e-10
-2.36942e-08
6.63464e-10
-2.41779e-08
6.52212e-10
-2.46527e-08
6.40366e-10
-2.51183e-08
6.27901e-10
-2.55741e-08
6.14792e-10
-2.60196e-08
6.01014e-10
-2.64544e-08
5.86545e-10
-2.68779e-08
5.71365e-10
-2.72896e-08
5.55451e-10
-2.76888e-08
5.38783e-10
-2.80751e-08
5.2134e-10
-2.84479e-08
5.03106e-10
-2.88065e-08
4.84065e-10
-2.91503e-08
4.64202e-10
-2.94788e-08
4.43503e-10
-2.97913e-08
4.21958e-10
-3.00872e-08
3.99561e-10
-3.03658e-08
3.76308e-10
-3.06266e-08
3.52195e-10
-3.08688e-08
3.27222e-10
-3.10919e-08
3.01389e-10
-3.12953e-08
2.74704e-10
-3.14782e-08
2.47181e-10
-3.16402e-08
2.18832e-10
-3.17806e-08
1.89673e-10
-3.18988e-08
1.59723e-10
-3.19943e-08
1.29006e-10
-3.20665e-08
9.75528e-11
-3.21149e-08
6.53979e-11
-3.21391e-08
3.25774e-11
-3.21385e-08
-8.65767e-13
-3.21128e-08
-3.48914e-11
-3.20616e-08
-6.94444e-11
-3.19844e-08
-1.04473e-10
-3.18811e-08
-1.39919e-10
-3.17513e-08
-1.75721e-10
-3.15949e-08
-2.11809e-10
-3.14116e-08
-2.48113e-10
-3.12015e-08
-2.84559e-10
-3.09643e-08
-3.21073e-10
-3.07002e-08
-3.57572e-10
-3.04093e-08
-3.93973e-10
-3.00916e-08
-4.30185e-10
-2.97473e-08
-4.66119e-10
-2.93768e-08
-5.01685e-10
-2.89804e-08
-5.3679e-10
-2.85585e-08
-5.7134e-10
-2.81115e-08
-6.05238e-10
-2.76401e-08
-6.38386e-10
-2.71448e-08
-6.70687e-10
-2.66263e-08
-7.02045e-10
-2.60855e-08
-7.32366e-10
-2.5523e-08
-7.61554e-10
-2.49399e-08
-7.89516e-10
-2.43371e-08
-8.16161e-10
-2.37157e-08
-8.41401e-10
-2.30766e-08
-8.6515e-10
-2.24212e-08
-8.87324e-10
-2.17505e-08
-9.07843e-10
-2.10659e-08
-9.26635e-10
-2.03687e-08
-9.43632e-10
-1.96603e-08
-9.58768e-10
-1.8942e-08
-9.7198e-10
-1.82153e-08
-9.83209e-10
-1.74818e-08
-9.92405e-10
-1.67429e-08
-9.99528e-10
-1.60002e-08
-1.00454e-09
-1.52553e-08
-1.00741e-09
-1.45098e-08
-1.0081e-09
-1.37652e-08
-1.00659e-09
-1.30233e-08
-1.00287e-09
-1.22857e-08
-9.96921e-10
-1.15539e-08
-9.88743e-10
-1.08297e-08
-9.78332e-10
-1.01147e-08
-9.65695e-10
-9.41053e-09
-9.50841e-10
-8.71882e-09
-9.33783e-10
-8.04117e-09
-9.14539e-10
-7.37919e-09
-8.93128e-10
-6.73445e-09
-8.69581e-10
-6.1085e-09
-8.4393e-10
-5.50289e-09
-8.16212e-10
-4.91911e-09
-7.86463e-10
-4.35862e-09
-7.54724e-10
-3.82287e-09
-7.21042e-10
-3.31324e-09
-6.85472e-10
-2.83108e-09
-6.48074e-10
-2.3777e-09
-6.08913e-10
-1.95435e-09
-5.68061e-10
-1.56219e-09
-5.25602e-10
-1.20234e-09
-4.81636e-10
-8.7582e-10
-4.36278e-10
-5.8353e-10
-3.89665e-10
-3.26256e-10
-3.41965e-10
-1.04629e-10
-2.93385e-10
8.09221e-11
-2.44176e-10
2.30212e-10
-1.94662e-10
3.43362e-10
-1.45247e-10
4.20894e-10
-9.64626e-11
4.63838e-10
-4.89896e-11
4.73887e-10
-3.73012e-12
4.53597e-10
3.81256e-11
4.06657e-10
7.49949e-11
3.38222e-10
1.04768e-10
2.55316e-10
1.24652e-10
1.67248e-10
1.31061e-10
8.58648e-11
1.19636e-10
2.51575e-11
8.59478e-11
3.02741e-11
1.53316e-11
-5.35293e-11
1.56889e-11
-4.75474e-11
-2.52547e-11
2.54357e-11
-1.23526e-10
1.36395e-10
-2.88331e-10
2.67131e-10
-5.2374e-10
4.05635e-10
-8.30288e-10
5.44212e-10
-1.20613e-09
6.78135e-10
-1.64792e-09
8.04616e-10
-2.1514e-09
9.22124e-10
-2.71185e-09
1.02995e-09
-3.32436e-09
1.12791e-09
-3.98403e-09
1.21619e-09
-4.68608e-09
1.29515e-09
-5.42596e-09
1.3653e-09
-6.19936e-09
1.42721e-09
-7.00229e-09
1.48149e-09
-7.83102e-09
1.52875e-09
-8.68216e-09
1.5696e-09
-9.55258e-09
1.60461e-09
-1.04394e-08
1.63433e-09
-1.13402e-08
1.65928e-09
-1.22525e-08
1.67994e-09
-1.31742e-08
1.69673e-09
-1.41035e-08
1.71006e-09
-1.50387e-08
1.72031e-09
-1.59782e-08
1.72779e-09
-1.69207e-08
1.73281e-09
-1.7865e-08
1.73561e-09
-1.881e-08
1.73644e-09
-1.97546e-08
1.73549e-09
-2.0698e-08
1.73294e-09
-2.16394e-08
1.72895e-09
-2.25781e-08
1.72365e-09
-2.35133e-08
1.71713e-09
-2.44444e-08
1.7095e-09
-2.53708e-08
1.70081e-09
-2.6292e-08
1.69113e-09
-2.72074e-08
1.6805e-09
-2.81166e-08
1.66894e-09
-2.90189e-08
1.65647e-09
-2.99139e-08
1.6431e-09
-3.08011e-08
1.62882e-09
-3.168e-08
1.61362e-09
-3.255e-08
1.59748e-09
-3.34106e-08
1.58038e-09
-3.42613e-08
1.56228e-09
-3.51015e-08
1.54315e-09
-3.59305e-08
1.52294e-09
-3.67479e-08
1.50162e-09
-3.75529e-08
1.47914e-09
-3.83449e-08
1.45545e-09
-3.91231e-08
1.4305e-09
-3.9887e-08
1.40424e-09
-4.06358e-08
1.37663e-09
-4.13686e-08
1.34761e-09
-4.20847e-08
1.31713e-09
-4.27833e-08
1.28515e-09
-4.34635e-08
1.25161e-09
-4.41246e-08
1.21647e-09
-4.47655e-08
1.1797e-09
-4.53854e-08
1.14125e-09
-4.59834e-08
1.10108e-09
-4.65584e-08
1.05915e-09
-4.71097e-08
1.01545e-09
-4.76361e-08
9.69942e-10
-4.81368e-08
9.22607e-10
-4.86107e-08
8.73432e-10
-4.90568e-08
8.22405e-10
-4.94741e-08
7.69522e-10
-4.98616e-08
7.14784e-10
-5.02185e-08
6.582e-10
-5.05435e-08
5.99785e-10
-5.08359e-08
5.39563e-10
-5.10946e-08
4.77565e-10
-5.13188e-08
4.13826e-10
-5.15075e-08
3.48393e-10
-5.16598e-08
2.81321e-10
-5.17749e-08
2.12671e-10
-5.1852e-08
1.42518e-10
-5.18904e-08
7.09411e-11
-5.18893e-08
-1.96308e-12
-5.18481e-08
-7.61103e-11
-5.17661e-08
-1.51379e-10
-5.1643e-08
-2.27658e-10
-5.14781e-08
-3.04823e-10
-5.1271e-08
-3.82736e-10
-5.10216e-08
-4.61252e-10
-5.07295e-08
-5.40221e-10
-5.03946e-08
-6.19484e-10
-5.00168e-08
-6.98876e-10
-4.95961e-08
-7.78221e-10
-4.91327e-08
-8.5734e-10
-4.86269e-08
-9.36042e-10
-4.80789e-08
-1.01414e-09
-4.74891e-08
-1.09143e-09
-4.68582e-08
-1.16772e-09
-4.61867e-08
-1.2428e-09
-4.54755e-08
-1.31647e-09
-4.47254e-08
-1.38852e-09
-4.39373e-08
-1.45875e-09
-4.31124e-08
-1.52694e-09
-4.22519e-08
-1.59289e-09
-4.1357e-08
-1.65641e-09
-4.04293e-08
-1.71728e-09
-3.94701e-08
-1.77532e-09
-3.84812e-08
-1.83033e-09
-3.74642e-08
-1.88214e-09
-3.64209e-08
-1.93056e-09
-3.53534e-08
-1.97542e-09
-3.42634e-08
-2.01656e-09
-3.31532e-08
-2.05384e-09
-3.20249e-08
-2.08711e-09
-3.08806e-08
-2.11624e-09
-2.97227e-08
-2.14111e-09
-2.85535e-08
-2.1616e-09
-2.73754e-08
-2.17763e-09
-2.61909e-08
-2.1891e-09
-2.50023e-08
-2.19595e-09
-2.38123e-08
-2.19811e-09
-2.26234e-08
-2.19552e-09
-2.14381e-08
-2.18815e-09
-2.02591e-08
-2.17597e-09
-1.90888e-08
-2.15898e-09
-1.793e-08
-2.13715e-09
-1.67852e-08
-2.1105e-09
-1.5657e-08
-2.07906e-09
-1.45479e-08
-2.04283e-09
-1.34606e-08
-2.00187e-09
-1.23975e-08
-1.95621e-09
-1.13612e-08
-1.90591e-09
-1.03541e-08
-1.85105e-09
-9.3786e-09
-1.79168e-09
-8.43716e-09
-1.72791e-09
-7.53207e-09
-1.65982e-09
-6.6656e-09
-1.58751e-09
-5.83997e-09
-1.51111e-09
-5.0573e-09
-1.43074e-09
-4.31965e-09
-1.34656e-09
-3.62897e-09
-1.25874e-09
-2.9871e-09
-1.16747e-09
-2.39575e-09
-1.07299e-09
-1.85648e-09
-9.75547e-10
-1.37066e-09
-8.75479e-10
-9.39458e-10
-7.73171e-10
-5.63746e-10
-6.69098e-10
-2.44084e-10
-5.6384e-10
1.93762e-11
-4.58123e-10
2.26991e-10
-3.52863e-10
3.79738e-10
-2.49213e-10
4.79393e-10
-1.48649e-10
5.2872e-10
-5.30602e-11
5.31719e-10
3.51232e-11
4.93931e-10
1.12782e-10
4.22781e-10
1.75916e-10
3.27955e-10
2.19477e-10
2.21726e-10
2.3729e-10
1.19141e-10
2.22222e-10
3.79757e-11
1.67115e-10
6.82497e-11
-4.7399e-13
-5.30536e-11
-3.81624e-11
-9.85935e-12
-1.3687e-10
1.24145e-10
-3.11716e-10
3.11242e-10
-5.71647e-10
5.27061e-10
-9.2083e-10
7.54818e-10
-1.35983e-09
9.83218e-10
-1.88665e-09
1.20495e-09
-2.49752e-09
1.41549e-09
-3.18755e-09
1.61215e-09
-3.95118e-09
1.79357e-09
-4.78251e-09
1.95925e-09
-5.67557e-09
2.10925e-09
-6.62445e-09
2.24403e-09
-7.62346e-09
2.36431e-09
-8.66716e-09
2.47091e-09
-9.75045e-09
2.56478e-09
-1.08686e-08
2.64685e-09
-1.2017e-08
2.71809e-09
-1.31918e-08
2.77941e-09
-1.43892e-08
2.83172e-09
-1.56058e-08
2.87584e-09
-1.68384e-08
2.91257e-09
-1.80843e-08
2.94264e-09
-1.9341e-08
2.9667e-09
-2.0606e-08
2.98538e-09
-2.18775e-08
2.99922e-09
-2.31534e-08
3.00873e-09
-2.44321e-08
3.01434e-09
-2.57121e-08
3.01645e-09
-2.69921e-08
3.01542e-09
-2.82706e-08
3.01153e-09
-2.95468e-08
3.00506e-09
-3.08193e-08
2.99623e-09
-3.20874e-08
2.98522e-09
-3.33501e-08
2.9722e-09
-3.46066e-08
2.95728e-09
-3.5856e-08
2.94057e-09
-3.70977e-08
2.92214e-09
-3.83308e-08
2.90205e-09
-3.95546e-08
2.88032e-09
-4.07685e-08
2.85696e-09
-4.19717e-08
2.83199e-09
-4.31634e-08
2.80537e-09
-4.4343e-08
2.77708e-09
-4.55097e-08
2.74708e-09
-4.66628e-08
2.71532e-09
-4.78014e-08
2.68174e-09
-4.89247e-08
2.64628e-09
-5.00319e-08
2.60886e-09
-5.11222e-08
2.56941e-09
-5.21946e-08
2.52785e-09
-5.32482e-08
2.48409e-09
-5.4282e-08
2.43807e-09
-5.52951e-08
2.38969e-09
-5.62863e-08
2.33887e-09
-5.72547e-08
2.28553e-09
-5.81992e-08
2.22958e-09
-5.91185e-08
2.17095e-09
-6.00116e-08
2.10957e-09
-6.08773e-08
2.04536e-09
-6.17143e-08
1.97826e-09
-6.25214e-08
1.9082e-09
-6.32974e-08
1.83513e-09
-6.40409e-08
1.75901e-09
-6.47508e-08
1.67979e-09
-6.54256e-08
1.59743e-09
-6.60641e-08
1.51192e-09
-6.66649e-08
1.42324e-09
-6.72268e-08
1.33139e-09
-6.77484e-08
1.23636e-09
-6.82284e-08
1.13818e-09
-6.86654e-08
1.03687e-09
-6.90584e-08
9.32476e-10
-6.94058e-08
8.25053e-10
-6.97067e-08
7.14666e-10
-6.99597e-08
6.01395e-10
-7.01637e-08
4.85336e-10
-7.03176e-08
3.66598e-10
-7.04204e-08
2.45306e-10
-7.04711e-08
1.21599e-10
-7.04687e-08
-4.36453e-12
-7.04124e-08
-1.32421e-10
-7.03014e-08
-2.62377e-10
-7.0135e-08
-3.94036e-10
-6.99126e-08
-5.27182e-10
-6.96338e-08
-6.61584e-10
-6.9298e-08
-7.96996e-10
-6.89051e-08
-9.33157e-10
-6.84548e-08
-1.06979e-09
-6.7947e-08
-1.20663e-09
-6.73819e-08
-1.34336e-09
-6.67596e-08
-1.47967e-09
-6.60804e-08
-1.61526e-09
-6.53447e-08
-1.74979e-09
-6.45532e-08
-1.88293e-09
-6.37066e-08
-2.01433e-09
-6.28057e-08
-2.14366e-09
-6.18517e-08
-2.27055e-09
-6.08455e-08
-2.39467e-09
-5.97886e-08
-2.51566e-09
-5.86824e-08
-2.63317e-09
-5.75284e-08
-2.74684e-09
-5.63285e-08
-2.85634e-09
-5.50845e-08
-2.96132e-09
-5.37983e-08
-3.06145e-09
-5.24722e-08
-3.15641e-09
-5.11085e-08
-3.2459e-09
-4.97094e-08
-3.32959e-09
-4.82776e-08
-3.40721e-09
-4.68157e-08
-3.47849e-09
-4.53264e-08
-3.54316e-09
-4.38125e-08
-3.60098e-09
-4.22771e-08
-3.65173e-09
-4.0723e-08
-3.69519e-09
-3.91534e-08
-3.73119e-09
-3.75715e-08
-3.75955e-09
-3.59805e-08
-3.78012e-09
-3.43836e-08
-3.79278e-09
-3.27843e-08
-3.79741e-09
-3.11859e-08
-3.79392e-09
-2.95918e-08
-3.78226e-09
-2.80054e-08
-3.76236e-09
-2.64302e-08
-3.73419e-09
-2.48696e-08
-3.69775e-09
-2.33271e-08
-3.65304e-09
-2.18061e-08
-3.60009e-09
-2.031e-08
-3.53894e-09
-1.88422e-08
-3.46965e-09
-1.74061e-08
-3.39229e-09
-1.6005e-08
-3.30697e-09
-1.46423e-08
-3.21379e-09
-1.33211e-08
-3.11287e-09
-1.20446e-08
-3.00438e-09
-1.0816e-08
-2.88846e-09
-9.63821e-09
-2.7653e-09
-8.5142e-09
-2.63512e-09
-7.44679e-09
-2.49815e-09
-6.43871e-09
-2.35465e-09
-5.49251e-09
-2.20494e-09
-4.61062e-09
-2.04936e-09
-3.79526e-09
-1.88834e-09
-3.04845e-09
-1.72236e-09
-2.37192e-09
-1.55201e-09
-1.76712e-09
-1.37797e-09
-1.23512e-09
-1.2011e-09
-7.76536e-10
-1.02243e-09
-3.9142e-10
-8.4324e-10
-7.91759e-11
-6.65108e-10
1.61617e-10
-4.90008e-10
3.33374e-10
-3.20408e-10
4.3972e-10
-1.59408e-10
4.85746e-10
-1.0906e-11
4.78309e-10
1.20218e-10
4.26331e-10
2.27892e-10
3.41138e-10
3.04669e-10
2.36782e-10
3.41645e-10
1.30358e-10
3.28647e-10
4.25326e-11
2.54941e-10
1.10781e-10
-1.94754e-11
-3.35775e-11
-1.03338e-10
7.40036e-11
-2.69895e-10
2.90702e-10
-5.31443e-10
5.72792e-10
-8.95369e-10
8.90989e-10
-1.36498e-09
1.22443e-09
-1.94033e-09
1.55857e-09
-2.61901e-09
1.88363e-09
-3.39683e-09
2.19331e-09
-4.26838e-09
2.48371e-09
-5.22749e-09
2.75269e-09
-6.26756e-09
2.99931e-09
-7.38181e-09
3.2235e-09
-8.56351e-09
3.42573e-09
-9.80608e-09
3.60688e-09
-1.11032e-08
3.76803e-09
-1.24489e-08
3.91045e-09
-1.38375e-08
4.03544e-09
-1.52637e-08
4.14433e-09
-1.67227e-08
4.23843e-09
-1.821e-08
4.31901e-09
-1.97214e-08
4.38728e-09
-2.12533e-08
4.44439e-09
-2.2802e-08
4.49138e-09
-2.43645e-08
4.52924e-09
-2.5938e-08
4.55886e-09
-2.75199e-08
4.58108e-09
-2.91078e-08
4.59661e-09
-3.06996e-08
4.60614e-09
-3.22933e-08
4.61024e-09
-3.38874e-08
4.60944e-09
-3.548e-08
4.6042e-09
-3.70699e-08
4.59491e-09
-3.86556e-08
4.58191e-09
-4.02359e-08
4.5655e-09
-4.18096e-08
4.54591e-09
-4.33756e-08
4.52333e-09
-4.4933e-08
4.49792e-09
-4.64806e-08
4.4698e-09
-4.80176e-08
4.43906e-09
-4.95431e-08
4.40573e-09
-5.1056e-08
4.36986e-09
-5.25554e-08
4.33144e-09
-5.40405e-08
4.29045e-09
-5.55103e-08
4.24686e-09
-5.69638e-08
4.2006e-09
-5.84001e-08
4.1516e-09
-5.98181e-08
4.09979e-09
-6.12169e-08
4.04507e-09
-6.25954e-08
3.98733e-09
-6.39524e-08
3.92647e-09
-6.5287e-08
3.86237e-09
-6.65978e-08
3.79492e-09
-6.78837e-08
3.72398e-09
-6.91435e-08
3.64944e-09
-7.03758e-08
3.57119e-09
-7.15793e-08
3.48908e-09
-7.27528e-08
3.40302e-09
-7.38947e-08
3.31288e-09
-7.50037e-08
3.21855e-09
-7.60783e-08
3.11994e-09
-7.71169e-08
3.01693e-09
-7.81182e-08
2.90946e-09
-7.90805e-08
2.79742e-09
-8.00022e-08
2.68077e-09
-8.08819e-08
2.55942e-09
-8.17178e-08
2.43335e-09
-8.25084e-08
2.30251e-09
-8.3252e-08
2.1669e-09
-8.39472e-08
2.02649e-09
-8.45921e-08
1.88131e-09
-8.51853e-08
1.73138e-09
-8.57252e-08
1.57675e-09
-8.62102e-08
1.41748e-09
-8.66388e-08
1.25365e-09
-8.70095e-08
1.08538e-09
-8.73209e-08
9.12787e-10
-8.75716e-08
7.36012e-10
-8.77602e-08
5.55226e-10
-8.78855e-08
3.7062e-10
-8.79463e-08
1.82406e-10
-8.79415e-08
-9.17927e-12
-8.787e-08
-2.03881e-10
-8.7731e-08
-4.01414e-10
-8.75236e-08
-6.01475e-10
-8.7247e-08
-8.03737e-10
-8.69007e-08
-1.00785e-09
-8.64843e-08
-1.21345e-09
-8.59973e-08
-1.42014e-09
-8.54396e-08
-1.62752e-09
-8.48111e-08
-1.83514e-09
-8.41118e-08
-2.04258e-09
-8.33422e-08
-2.24935e-09
-8.25024e-08
-2.455e-09
-8.15932e-08
-2.65901e-09
-8.06152e-08
-2.86091e-09
-7.95694e-08
-3.06016e-09
-7.84568e-08
-3.25625e-09
-7.72787e-08
-3.44867e-09
-7.60365e-08
-3.63688e-09
-7.47318e-08
-3.82035e-09
-7.33664e-08
-3.99856e-09
-7.19422e-08
-4.17099e-09
-7.04615e-08
-4.33712e-09
-6.89263e-08
-4.49644e-09
-6.73393e-08
-4.64845e-09
-6.57031e-08
-4.79267e-09
-6.40203e-08
-4.92864e-09
-6.2294e-08
-5.05589e-09
-6.05273e-08
-5.174e-09
-5.87232e-08
-5.28256e-09
-5.68852e-08
-5.38117e-09
-5.50167e-08
-5.46947e-09
-5.31213e-08
-5.54712e-09
-5.12027e-08
-5.61381e-09
-4.92646e-08
-5.66926e-09
-4.73109e-08
-5.71321e-09
-4.53456e-08
-5.74543e-09
-4.33727e-08
-5.76572e-09
-4.13962e-08
-5.77392e-09
-3.94202e-08
-5.76989e-09
-3.74489e-08
-5.75352e-09
-3.54866e-08
-5.72474e-09
-3.35373e-08
-5.68349e-09
-3.16053e-08
-5.62975e-09
-2.96948e-08
-5.56353e-09
-2.781e-08
-5.48486e-09
-2.59551e-08
-5.39381e-09
-2.41343e-08
-5.29046e-09
-2.23517e-08
-5.17492e-09
-2.06113e-08
-5.04734e-09
-1.89172e-08
-4.90788e-09
-1.72733e-08
-4.75673e-09
-1.56836e-08
-4.59412e-09
-1.41518e-08
-4.42029e-09
-1.26815e-08
-4.23554e-09
-1.12765e-08
-4.04019e-09
-9.94e-09
-3.83461e-09
-8.67543e-09
-3.61922e-09
-7.48586e-09
-3.39451e-09
-6.3742e-09
-3.16103e-09
-5.3431e-09
-2.91944e-09
-4.39495e-09
-2.67051e-09
-3.53181e-09
-2.41515e-09
-2.75531e-09
-2.15446e-09
-2.06667e-09
-1.88975e-09
-1.4665e-09
-1.6226e-09
-9.54773e-10
-1.35497e-09
-5.30658e-10
-1.08922e-09
-1.92365e-10
-8.28302e-10
6.30319e-11
-5.75805e-10
2.39808e-10
-3.36184e-10
3.43827e-10
-1.14926e-10
3.82811e-10
8.12322e-11
3.66624e-10
2.44079e-10
3.07571e-10
3.63721e-10
2.20755e-10
4.28461e-10
1.24523e-10
4.24878e-10
4.12913e-11
3.38173e-10
1.52071e-10
-3.9621e-11
6.0433e-12
-1.73297e-10
2.07681e-10
-4.12964e-10
5.30369e-10
-7.66949e-10
9.26777e-10
-1.2401e-09
1.36414e-09
-1.83412e-09
1.81844e-09
-2.54802e-09
2.27247e-09
-3.37869e-09
2.7143e-09
-4.32137e-09
3.13598e-09
-5.37012e-09
3.53246e-09
-6.51824e-09
3.90081e-09
-7.75856e-09
4.23963e-09
-9.08369e-09
4.54864e-09
-1.04863e-08
4.8283e-09
-1.1959e-08
5.07961e-09
-1.34949e-08
5.30393e-09
-1.50872e-08
5.5028e-09
-1.67297e-08
5.6779e-09
-1.84163e-08
5.83095e-09
-2.01416e-08
5.96367e-09
-2.19003e-08
6.07772e-09
-2.36877e-08
6.17471e-09
-2.54995e-08
6.25617e-09
-2.73316e-08
6.32351e-09
-2.91805e-08
6.37807e-09
-3.10426e-08
6.42105e-09
-3.29151e-08
6.45358e-09
-3.47952e-08
6.47666e-09
-3.66802e-08
6.4912e-09
-3.8568e-08
6.49802e-09
-4.04564e-08
6.49784e-09
-4.23435e-08
6.49129e-09
-4.42275e-08
6.47892e-09
-4.61068e-08
6.46122e-09
-4.79799e-08
6.43857e-09
-4.98453e-08
6.41133e-09
-5.17018e-08
6.37977e-09
-5.35479e-08
6.34411e-09
-5.53827e-08
6.30452e-09
-5.72047e-08
6.26112e-09
-5.9013e-08
6.21399e-09
-6.08063e-08
6.16318e-09
-6.25835e-08
6.10869e-09
-6.43436e-08
6.0505e-09
-6.60853e-08
5.98857e-09
-6.78076e-08
5.92283e-09
-6.95091e-08
5.85317e-09
-7.11888e-08
5.77949e-09
-7.28454e-08
5.70167e-09
-7.44777e-08
5.61956e-09
-7.60842e-08
5.53302e-09
-7.76637e-08
5.4419e-09
-7.92149e-08
5.34604e-09
-8.07361e-08
5.24526e-09
-8.22261e-08
5.13941e-09
-8.36833e-08
5.02832e-09
-8.5106e-08
4.91183e-09
-8.64928e-08
4.78977e-09
-8.78419e-08
4.66199e-09
-8.91517e-08
4.52835e-09
-9.04204e-08
4.3887e-09
-9.16464e-08
4.24291e-09
-9.28278e-08
4.09086e-09
-9.39628e-08
3.93244e-09
-9.50496e-08
3.76758e-09
-9.60864e-08
3.59617e-09
-9.70712e-08
3.41818e-09
-9.80022e-08
3.23354e-09
-9.88776e-08
3.04225e-09
-9.96954e-08
2.84429e-09
-1.00454e-07
2.6397e-09
-1.01151e-07
2.4285e-09
-1.01785e-07
2.21078e-09
-1.02354e-07
1.98662e-09
-1.02857e-07
1.75615e-09
-1.03291e-07
1.51952e-09
-1.03655e-07
1.27689e-09
-1.03947e-07
1.02849e-09
-1.04167e-07
7.74539e-10
-1.04311e-07
5.15314e-10
-1.0438e-07
2.51111e-10
-1.04371e-07
-1.77372e-11
-1.04284e-07
-2.90872e-10
-1.04118e-07
-5.67898e-10
-1.03871e-07
-8.4839e-10
-1.03543e-07
-1.13189e-09
-1.03133e-07
-1.41792e-09
-1.0264e-07
-1.70595e-09
-1.02065e-07
-1.99545e-09
-1.01407e-07
-2.28585e-09
-1.00665e-07
-2.57654e-09
-9.9841e-08
-2.86691e-09
-9.8934e-08
-3.15632e-09
-9.79449e-08
-3.4441e-09
-9.68744e-08
-3.72957e-09
-9.57232e-08
-4.01204e-09
-9.44926e-08
-4.29079e-09
-9.31837e-08
-4.56512e-09
-9.17981e-08
-4.83429e-09
-9.03374e-08
-5.09758e-09
-8.88035e-08
-5.35425e-09
-8.71985e-08
-5.60358e-09
-8.55246e-08
-5.84484e-09
-8.37844e-08
-6.07733e-09
-8.19805e-08
-6.30033e-09
-8.01158e-08
-6.51316e-09
-7.81933e-08
-6.71515e-09
-7.62163e-08
-6.90565e-09
-7.41882e-08
-7.08403e-09
-7.21125e-08
-7.24971e-09
-6.99929e-08
-7.40209e-09
-6.78334e-08
-7.54065e-09
-6.5638e-08
-7.66488e-09
-6.34108e-08
-7.77432e-09
-6.11561e-08
-7.86851e-09
-5.88783e-08
-7.94707e-09
-5.65819e-08
-8.00965e-09
-5.42714e-08
-8.05592e-09
-5.19515e-08
-8.08561e-09
-4.96269e-08
-8.09848e-09
-4.73025e-08
-8.09434e-09
-4.49829e-08
-8.07304e-09
-4.26732e-08
-8.03446e-09
-4.03782e-08
-7.97852e-09
-3.81027e-08
-7.9052e-09
-3.58518e-08
-7.8145e-09
-3.36302e-08
-7.70647e-09
-3.14428e-08
-7.58118e-09
-2.92945e-08
-7.43875e-09
-2.71901e-08
-7.27935e-09
-2.51343e-08
-7.10316e-09
-2.31317e-08
-6.91041e-09
-2.11871e-08
-6.70139e-09
-1.93048e-08
-6.47639e-09
-1.74893e-08
-6.23579e-09
-1.57449e-08
-5.97998e-09
-1.40756e-08
-5.70944e-09
-1.24855e-08
-5.42471e-09
-1.09784e-08
-5.12637e-09
-9.55774e-09
-4.81515e-09
-8.22692e-09
-4.49185e-09
-6.98895e-09
-4.15741e-09
-5.84652e-09
-3.81294e-09
-4.80192e-09
-3.45976e-09
-3.85697e-09
-3.09941e-09
-3.01295e-09
-2.73377e-09
-2.27049e-09
-2.36506e-09
-1.62947e-09
-1.99599e-09
-1.08886e-09
-1.62983e-09
-6.46593e-10
-1.27057e-09
-2.99367e-10
-9.23031e-10
-4.24566e-11
-5.93095e-10
1.3051e-10
-2.87894e-10
2.27788e-10
-1.60459e-11
2.59768e-10
2.12097e-10
2.39273e-10
3.84215e-10
1.81907e-10
4.85825e-10
1.06561e-10
5.00223e-10
3.62394e-11
4.08492e-10
1.88309e-10
-5.96438e-11
6.56872e-11
-2.44128e-10
3.92166e-10
-5.58871e-10
8.45111e-10
-1.00772e-09
1.37563e-09
-1.5924e-09
1.94883e-09
-2.31248e-09
2.53852e-09
-3.1655e-09
3.12549e-09
-4.14732e-09
3.69613e-09
-5.25243e-09
4.24109e-09
-6.47427e-09
4.7543e-09
-7.8056e-09
5.23214e-09
-9.23873e-09
5.67276e-09
-1.07658e-08
6.07567e-09
-1.23788e-08
6.44132e-09
-1.407e-08
6.77083e-09
-1.58318e-08
7.06576e-09
-1.7657e-08
7.32797e-09
-1.95386e-08
7.55951e-09
-2.14702e-08
7.76249e-09
-2.34455e-08
7.93902e-09
-2.5459e-08
8.09121e-09
-2.75053e-08
8.22106e-09
-2.95797e-08
8.3305e-09
-3.16775e-08
8.42134e-09
-3.37947e-08
8.49526e-09
-3.59275e-08
8.55384e-09
-3.80724e-08
8.59851e-09
-4.02263e-08
8.63057e-09
-4.23863e-08
8.65119e-09
-4.45497e-08
8.66144e-09
-4.67142e-08
8.66227e-09
-4.88774e-08
8.65449e-09
-5.10373e-08
8.63883e-09
-5.3192e-08
8.61593e-09
-5.53397e-08
8.58631e-09
-5.74788e-08
8.55042e-09
-5.96077e-08
8.50864e-09
-6.17249e-08
8.46126e-09
-6.38288e-08
8.40851e-09
-6.59183e-08
8.35056e-09
-6.79918e-08
8.28752e-09
-7.00481e-08
8.21947e-09
-7.20858e-08
8.14641e-09
-7.41036e-08
8.06832e-09
-7.61002e-08
7.98516e-09
-7.80742e-08
7.89683e-09
-8.00243e-08
7.80321e-09
-8.1949e-08
7.70418e-09
-8.38469e-08
7.59957e-09
-8.57165e-08
7.48921e-09
-8.75564e-08
7.3729e-09
-8.93649e-08
7.25046e-09
-9.11406e-08
7.12168e-09
-9.28817e-08
6.98634e-09
-9.45865e-08
6.84424e-09
-9.62533e-08
6.69516e-09
-9.78804e-08
6.53889e-09
-9.94658e-08
6.37523e-09
-1.01008e-07
6.20398e-09
-1.02504e-07
6.02494e-09
-1.03954e-07
5.83795e-09
-1.05354e-07
5.64283e-09
-1.06702e-07
5.43943e-09
-1.07997e-07
5.22761e-09
-1.09237e-07
5.00726e-09
-1.10419e-07
4.77829e-09
-1.11542e-07
4.54062e-09
-1.12602e-07
4.29419e-09
-1.13599e-07
4.03899e-09
-1.1453e-07
3.77502e-09
-1.15392e-07
3.50231e-09
-1.16185e-07
3.22092e-09
-1.16905e-07
2.93095e-09
-1.17551e-07
2.63253e-09
-1.1812e-07
2.32582e-09
-1.18612e-07
2.01102e-09
-1.19023e-07
1.68838e-09
-1.19353e-07
1.35816e-09
-1.19599e-07
1.02069e-09
-1.1976e-07
6.76325e-10
-1.19835e-07
3.25458e-10
-1.19821e-07
-3.14678e-11
-1.19718e-07
-3.93975e-10
-1.19524e-07
-7.61541e-10
-1.19239e-07
-1.13361e-09
-1.18861e-07
-1.50956e-09
-1.1839e-07
-1.88878e-09
-1.17826e-07
-2.27056e-09
-1.17167e-07
-2.6542e-09
-1.16414e-07
-3.03895e-09
-1.15566e-07
-3.42402e-09
-1.14625e-07
-3.8086e-09
-1.13589e-07
-4.19183e-09
-1.12461e-07
-4.57285e-09
-1.11239e-07
-4.95077e-09
-1.09927e-07
-5.32467e-09
-1.08524e-07
-5.69363e-09
-1.07032e-07
-6.05669e-09
-1.05454e-07
-6.41292e-09
-1.0379e-07
-6.76135e-09
-1.02043e-07
-7.10104e-09
-1.00216e-07
-7.43101e-09
-9.83101e-08
-7.75033e-09
-9.63294e-08
-8.05807e-09
-9.42765e-08
-8.35329e-09
-9.21545e-08
-8.6351e-09
-8.9967e-08
-8.90263e-09
-8.77177e-08
-9.15502e-09
-8.54102e-08
-9.39145e-09
-8.30488e-08
-9.61114e-09
-8.06376e-08
-9.81334e-09
-7.81809e-08
-9.99735e-09
-7.56833e-08
-1.01625e-08
-7.31494e-08
-1.03082e-08
-7.05842e-08
-1.04338e-08
-6.79924e-08
-1.05388e-08
-6.53792e-08
-1.06228e-08
-6.27498e-08
-1.06854e-08
-6.01093e-08
-1.07261e-08
-5.74631e-08
-1.07447e-08
-5.48165e-08
-1.07409e-08
-5.21751e-08
-1.07145e-08
-4.95442e-08
-1.06654e-08
-4.69293e-08
-1.05934e-08
-4.4336e-08
-1.04985e-08
-4.17698e-08
-1.03807e-08
-3.92362e-08
-1.02401e-08
-3.67407e-08
-1.00767e-08
-3.42886e-08
-9.8908e-09
-3.18855e-08
-9.68251e-09
-2.95365e-08
-9.4521e-09
-2.72471e-08
-9.19988e-09
-2.50222e-08
-8.92622e-09
-2.28671e-08
-8.63154e-09
-2.07865e-08
-8.31632e-09
-1.87854e-08
-7.98112e-09
-1.68683e-08
-7.62657e-09
-1.50396e-08
-7.25338e-09
-1.33036e-08
-6.8624e-09
-1.16642e-08
-6.45457e-09
-1.0125e-08
-6.03099e-09
-8.6895e-09
-5.59295e-09
-7.36049e-09
-5.14195e-09
-6.14051e-09
-4.67974e-09
-5.03151e-09
-4.20842e-09
-4.03482e-09
-3.73046e-09
-3.15107e-09
-3.2488e-09
-2.38007e-09
-2.76699e-09
-1.72065e-09
-2.28925e-09
-1.17055e-09
-1.82068e-09
-7.26203e-10
-1.36738e-09
-3.82616e-10
-9.36684e-10
-1.33124e-10
-5.37386e-10
3.07949e-11
-1.79966e-10
1.19759e-10
1.23132e-10
1.4674e-10
3.57234e-10
1.274e-10
5.05164e-10
8.05463e-11
5.47074e-10
2.88201e-11
4.60216e-10
2.17128e-10
-7.9005e-11
1.44693e-10
-3.13642e-10
6.26803e-10
-7.03217e-10
1.23469e-09
-1.24698e-09
1.91939e-09
-1.94326e-09
2.6451e-09
-2.78913e-09
3.38439e-09
-3.78035e-09
4.11672e-09
-4.91149e-09
4.82726e-09
-6.17606e-09
5.50566e-09
-7.56679e-09
6.14504e-09
-9.07584e-09
6.74118e-09
-1.0695e-08
7.29191e-09
-1.24159e-08
7.79654e-09
-1.42301e-08
8.25553e-09
-1.61294e-08
8.67012e-09
-1.81057e-08
9.0421e-09
-2.01514e-08
9.37365e-09
-2.2259e-08
9.66713e-09
-2.44216e-08
9.92508e-09
-2.66326e-08
1.015e-08
-2.88858e-08
1.03445e-08
-3.11756e-08
1.05108e-08
-3.34966e-08
1.06515e-08
-3.5844e-08
1.07687e-08
-3.82131e-08
1.08644e-08
-4.05999e-08
1.09406e-08
-4.30005e-08
1.09991e-08
-4.54114e-08
1.10415e-08
-4.78294e-08
1.10692e-08
-5.02514e-08
1.10835e-08
-5.26749e-08
1.10857e-08
-5.50972e-08
1.10768e-08
-5.7516e-08
1.10576e-08
-5.99291e-08
1.10291e-08
-6.23346e-08
1.09918e-08
-6.47305e-08
1.09463e-08
-6.7115e-08
1.08931e-08
-6.94864e-08
1.08327e-08
-7.18431e-08
1.07652e-08
-7.41833e-08
1.06909e-08
-7.65057e-08
1.06099e-08
-7.88087e-08
1.05224e-08
-8.10906e-08
1.04284e-08
-8.33501e-08
1.03278e-08
-8.55856e-08
1.02206e-08
-8.77955e-08
1.01068e-08
-8.99783e-08
9.98603e-09