/*--------------------------------*- C++ -*----------------------------------*\
  =========                 |
  \\      /  F ield         | OpenFOAM: The Open Source CFD Toolbox
   \\    /   O peration     | Website:  https://openfoam.org
    \\  /    A nd           | Version:  7
     \\/     M anipulation  |
\*---------------------------------------------------------------------------*/
FoamFile
{
    version     2.0;
    format      ascii;
    class       volVectorField;
    location    "0.4125";
    object      U;
}
// * * * * * * * * * * * * * * * * * * * * * * * * * * * * * * * * * * * * * //

dimensions      [0 1 -1 0 0 0 0];

internalField   nonuniform List<vector> 
25600
(
(1.20216e-06 -1.21e-06 0)
(4.38638e-06 -1.97971e-06 0)
(7.71642e-06 -1.61821e-06 0)
(9.09385e-06 -7.48419e-07 0)
(7.57174e-06 3.02996e-07 0)
(2.90497e-06 1.36843e-06 0)
(-4.89961e-06 2.37846e-06 0)
(-1.57019e-05 3.30913e-06 0)
(-2.92928e-05 4.15085e-06 0)
(-4.54376e-05 4.90153e-06 0)
(-6.38931e-05 5.56457e-06 0)
(-8.44226e-05 6.14761e-06 0)
(-0.0001068 6.65814e-06 0)
(-0.000130811 7.10306e-06 0)
(-0.00015626 7.48949e-06 0)
(-0.000182968 7.8225e-06 0)
(-0.000210768 8.1061e-06 0)
(-0.000239511 8.34544e-06 0)
(-0.000269062 8.54653e-06 0)
(-0.0002993 8.71523e-06 0)
(-0.000330116 8.85547e-06 0)
(-0.000361412 8.96949e-06 0)
(-0.000393104 9.05951e-06 0)
(-0.000425113 9.12803e-06 0)
(-0.000457371 9.17815e-06 0)
(-0.000489817 9.21357e-06 0)
(-0.0005224 9.23689e-06 0)
(-0.000555071 9.24891e-06 0)
(-0.000587789 9.24984e-06 0)
(-0.000620517 9.24051e-06 0)
(-0.000653221 9.22257e-06 0)
(-0.000685872 9.19806e-06 0)
(-0.000718446 9.16853e-06 0)
(-0.000750918 9.13418e-06 0)
(-0.000783268 9.09434e-06 0)
(-0.000815474 9.04889e-06 0)
(-0.00084752 8.99866e-06 0)
(-0.000879388 8.94467e-06 0)
(-0.000911063 8.88719e-06 0)
(-0.000942527 8.82597e-06 0)
(-0.000973766 8.76085e-06 0)
(-0.00100476 8.692e-06 0)
(-0.00103551 8.61921e-06 0)
(-0.00106598 8.54179e-06 0)
(-0.00109616 8.45932e-06 0)
(-0.00112603 8.3722e-06 0)
(-0.00115559 8.28106e-06 0)
(-0.0011848 8.18572e-06 0)
(-0.00121365 8.08506e-06 0)
(-0.00124212 7.97786e-06 0)
(-0.00127019 7.86383e-06 0)
(-0.00129784 7.74349e-06 0)
(-0.00132504 7.61723e-06 0)
(-0.00135177 7.48467e-06 0)
(-0.001378 7.34487e-06 0)
(-0.00140371 7.19705e-06 0)
(-0.00142887 7.04096e-06 0)
(-0.00145346 6.87652e-06 0)
(-0.00147744 6.7035e-06 0)
(-0.00150078 6.52163e-06 0)
(-0.00152345 6.33081e-06 0)
(-0.00154543 6.131e-06 0)
(-0.00156667 5.92186e-06 0)
(-0.00158714 5.70257e-06 0)
(-0.00160682 5.4724e-06 0)
(-0.00162566 5.2314e-06 0)
(-0.00164362 4.98037e-06 0)
(-0.00166068 4.71987e-06 0)
(-0.0016768 4.44936e-06 0)
(-0.00169193 4.16762e-06 0)
(-0.00170606 3.87395e-06 0)
(-0.00171912 3.56897e-06 0)
(-0.0017311 3.25395e-06 0)
(-0.00174196 2.92942e-06 0)
(-0.00175166 2.59486e-06 0)
(-0.00176016 2.24957e-06 0)
(-0.00176743 1.89357e-06 0)
(-0.00177344 1.52766e-06 0)
(-0.00177816 1.15261e-06 0)
(-0.00178155 7.68707e-07 0)
(-0.00178358 3.76312e-07 0)
(-0.00178424 -2.38324e-08 0)
(-0.00178349 -4.31174e-07 0)
(-0.0017813 -8.45348e-07 0)
(-0.00177766 -1.26637e-06 0)
(-0.00177255 -1.69364e-06 0)
(-0.00176595 -2.12552e-06 0)
(-0.00175785 -2.56024e-06 0)
(-0.00174824 -2.99702e-06 0)
(-0.0017371 -3.43605e-06 0)
(-0.00172443 -3.87727e-06 0)
(-0.00171024 -4.31941e-06 0)
(-0.00169452 -4.76021e-06 0)
(-0.00167727 -5.19781e-06 0)
(-0.00165852 -5.63145e-06 0)
(-0.00163827 -6.06089e-06 0)
(-0.00161654 -6.48542e-06 0)
(-0.00159335 -6.90351e-06 0)
(-0.00156873 -7.31336e-06 0)
(-0.00154271 -7.71362e-06 0)
(-0.00151531 -8.10324e-06 0)
(-0.00148658 -8.48097e-06 0)
(-0.00145656 -8.84539e-06 0)
(-0.0014253 -9.1954e-06 0)
(-0.00139285 -9.53043e-06 0)
(-0.00135925 -9.84974e-06 0)
(-0.00132457 -1.01517e-05 0)
(-0.00128887 -1.04341e-05 0)
(-0.00125222 -1.06954e-05 0)
(-0.00121468 -1.09355e-05 0)
(-0.00117632 -1.1155e-05 0)
(-0.00113722 -1.13533e-05 0)
(-0.00109746 -1.15285e-05 0)
(-0.00105712 -1.16784e-05 0)
(-0.00101628 -1.18022e-05 0)
(-0.000975026 -1.19005e-05 0)
(-0.000933444 -1.19737e-05 0)
(-0.000891623 -1.20214e-05 0)
(-0.000849653 -1.20424e-05 0)
(-0.000807627 -1.20359e-05 0)
(-0.000765637 -1.20021e-05 0)
(-0.000723774 -1.19408e-05 0)
(-0.000682134 -1.18518e-05 0)
(-0.000640811 -1.17348e-05 0)
(-0.000599898 -1.15907e-05 0)
(-0.00055949 -1.14203e-05 0)
(-0.000519679 -1.12237e-05 0)
(-0.000480558 -1.1e-05 0)
(-0.000442219 -1.07483e-05 0)
(-0.000404755 -1.04696e-05 0)
(-0.000368255 -1.01655e-05 0)
(-0.000332807 -9.83762e-06 0)
(-0.000298499 -9.48565e-06 0)
(-0.000265417 -9.10875e-06 0)
(-0.000233644 -8.7068e-06 0)
(-0.000203264 -8.28097e-06 0)
(-0.000174355 -7.83291e-06 0)
(-0.000146997 -7.36353e-06 0)
(-0.000121263 -6.87295e-06 0)
(-9.72277e-05 -6.36132e-06 0)
(-7.49601e-05 -5.82938e-06 0)
(-5.45265e-05 -5.27817e-06 0)
(-3.59895e-05 -4.70867e-06 0)
(-1.94069e-05 -4.12184e-06 0)
(-4.83043e-06 -3.51927e-06 0)
(7.69354e-06 -2.90387e-06 0)
(1.81285e-05 -2.27692e-06 0)
(2.64496e-05 -1.6412e-06 0)
(3.26438e-05 -9.99484e-07 0)
(3.67161e-05 -3.5701e-07 0)
(3.8696e-05 2.77387e-07 0)
(3.86454e-05 8.91241e-07 0)
(3.66703e-05 1.4687e-06 0)
(3.29366e-05 1.98759e-06 0)
(2.76963e-05 2.41204e-06 0)
(2.13265e-05 2.68292e-06 0)
(1.43771e-05 2.70852e-06 0)
(7.63766e-06 2.35005e-06 0)
(2.31668e-06 1.43544e-06 0)
(9.82495e-08 9.99784e-08 0)
(1.97408e-06 -4.38527e-06 0)
(6.18407e-06 -6.18524e-06 0)
(8.74284e-06 -3.66254e-06 0)
(6.21724e-06 1.0702e-06 0)
(-3.21433e-06 6.78813e-06 0)
(-2.02844e-05 1.27882e-05 0)
(-4.51602e-05 1.86861e-05 0)
(-7.76752e-05 2.42838e-05 0)
(-0.000117454 2.94805e-05 0)
(-0.000164005 3.42329e-05 0)
(-0.000216783 3.85304e-05 0)
(-0.000275227 4.23839e-05 0)
(-0.00033878 4.58153e-05 0)
(-0.000406904 4.88506e-05 0)
(-0.000479093 5.15193e-05 0)
(-0.000554869 5.38518e-05 0)
(-0.000633792 5.58761e-05 0)
(-0.000715458 5.76198e-05 0)
(-0.000799496 5.91109e-05 0)
(-0.000885571 6.03754e-05 0)
(-0.000973378 6.14375e-05 0)
(-0.00106264 6.23185e-05 0)
(-0.00115312 6.30373e-05 0)
(-0.00124459 6.36111e-05 0)
(-0.00133685 6.40559e-05 0)
(-0.00142973 6.43876e-05 0)
(-0.00152306 6.46197e-05 0)
(-0.00161672 6.47636e-05 0)
(-0.00171057 6.48287e-05 0)
(-0.0018045 6.48232e-05 0)
(-0.00189841 6.47547e-05 0)
(-0.00199221 6.46305e-05 0)
(-0.00208583 6.44571e-05 0)
(-0.00217919 6.42393e-05 0)
(-0.00227221 6.39803e-05 0)
(-0.00236485 6.36825e-05 0)
(-0.00245705 6.33487e-05 0)
(-0.00254874 6.29815e-05 0)
(-0.00263988 6.25822e-05 0)
(-0.00273042 6.21512e-05 0)
(-0.00282031 6.16888e-05 0)
(-0.00290951 6.11954e-05 0)
(-0.00299796 6.06709e-05 0)
(-0.00308562 6.01143e-05 0)
(-0.00317243 5.95238e-05 0)
(-0.00325835 5.88982e-05 0)
(-0.00334332 5.82371e-05 0)
(-0.0034273 5.75394e-05 0)
(-0.00351022 5.68034e-05 0)
(-0.00359202 5.60263e-05 0)
(-0.00367264 5.52056e-05 0)
(-0.00375203 5.43398e-05 0)
(-0.0038301 5.34274e-05 0)
(-0.00390681 5.24669e-05 0)
(-0.00398206 5.14558e-05 0)
(-0.00405579 5.03918e-05 0)
(-0.00412792 4.92726e-05 0)
(-0.00419836 4.80964e-05 0)
(-0.00426705 4.68614e-05 0)
(-0.00433388 4.55657e-05 0)
(-0.00439877 4.42075e-05 0)
(-0.00446164 4.27855e-05 0)
(-0.00452239 4.12984e-05 0)
(-0.00458092 3.97445e-05 0)
(-0.00463714 3.8122e-05 0)
(-0.00469095 3.64295e-05 0)
(-0.00474225 3.46666e-05 0)
(-0.00479095 3.28332e-05 0)
(-0.00483694 3.09293e-05 0)
(-0.00488011 2.89539e-05 0)
(-0.00492038 2.69062e-05 0)
(-0.00495763 2.47862e-05 0)
(-0.00499177 2.25952e-05 0)
(-0.0050227 2.03346e-05 0)
(-0.00505032 1.80054e-05 0)
(-0.00507453 1.56085e-05 0)
(-0.00509524 1.31449e-05 0)
(-0.00511235 1.06169e-05 0)
(-0.00512579 8.02726e-06 0)
(-0.00513546 5.3788e-06 0)
(-0.00514129 2.67439e-06 0)
(-0.00514319 -8.24279e-08 0)
(-0.00514111 -2.88785e-06 0)
(-0.00513496 -5.73756e-06 0)
(-0.00512471 -8.62755e-06 0)
(-0.00511028 -1.15534e-05 0)
(-0.00509164 -1.45097e-05 0)
(-0.00506875 -1.74902e-05 0)
(-0.00504158 -2.04884e-05 0)
(-0.00501011 -2.34987e-05 0)
(-0.00497432 -2.65154e-05 0)
(-0.00493422 -2.95321e-05 0)
(-0.00488981 -3.25412e-05 0)
(-0.00484111 -3.55346e-05 0)
(-0.00478815 -3.85045e-05 0)
(-0.00473096 -4.1444e-05 0)
(-0.00466959 -4.43456e-05 0)
(-0.00460411 -4.72015e-05 0)
(-0.00453457 -5.00031e-05 0)
(-0.00446108 -5.27422e-05 0)
(-0.00438372 -5.54108e-05 0)
(-0.00430259 -5.80009e-05 0)
(-0.00421781 -6.05043e-05 0)
(-0.00412951 -6.29128e-05 0)
(-0.00403783 -6.52189e-05 0)
(-0.00394292 -6.74155e-05 0)
(-0.00384494 -6.94953e-05 0)
(-0.00374405 -7.14506e-05 0)
(-0.00364045 -7.32736e-05 0)
(-0.00353431 -7.49578e-05 0)
(-0.00342584 -7.64979e-05 0)
(-0.00331524 -7.78888e-05 0)
(-0.00320274 -7.9125e-05 0)
(-0.00308854 -8.02003e-05 0)
(-0.00297289 -8.11094e-05 0)
(-0.00285602 -8.18486e-05 0)
(-0.00273816 -8.24151e-05 0)
(-0.00261957 -8.28062e-05 0)
(-0.0025005 -8.30187e-05 0)
(-0.0023812 -8.30497e-05 0)
(-0.00226193 -8.28977e-05 0)
(-0.00214295 -8.25616e-05 0)
(-0.00202452 -8.20406e-05 0)
(-0.00190691 -8.13338e-05 0)
(-0.00179037 -8.04415e-05 0)
(-0.00167517 -7.93648e-05 0)
(-0.00156157 -7.8105e-05 0)
(-0.00144983 -7.66631e-05 0)
(-0.00134022 -7.50395e-05 0)
(-0.00123299 -7.3236e-05 0)
(-0.00112839 -7.12556e-05 0)
(-0.00102667 -6.9102e-05 0)
(-0.000928088 -6.67784e-05 0)
(-0.000832877 -6.42872e-05 0)
(-0.000741279 -6.16311e-05 0)
(-0.000653524 -5.8814e-05 0)
(-0.000569839 -5.58408e-05 0)
(-0.000490444 -5.27167e-05 0)
(-0.000415551 -4.94467e-05 0)
(-0.000345364 -4.60361e-05 0)
(-0.000280078 -4.24912e-05 0)
(-0.000219876 -3.88199e-05 0)
(-0.000164929 -3.50308e-05 0)
(-0.000115391 -3.11345e-05 0)
(-7.1398e-05 -2.71435e-05 0)
(-3.30658e-05 -2.30748e-05 0)
(-4.79865e-07 -1.8947e-05 0)
(2.63086e-05 -1.47859e-05 0)
(4.72909e-05 -1.06231e-05 0)
(6.25145e-05 -6.50033e-06 0)
(7.20984e-05 -2.47408e-06 0)
(7.62546e-05 1.37896e-06 0)
(7.53149e-05 4.95532e-06 0)
(6.97672e-05 8.11438e-06 0)
(6.03058e-05 1.06612e-05 0)
(4.78938e-05 1.23245e-05 0)
(3.3811e-05 1.27368e-05 0)
(1.96973e-05 1.14219e-05 0)
(7.85676e-06 7.87628e-06 0)
(1.42552e-06 2.31439e-06 0)
(1.63215e-06 -7.73223e-06 0)
(3.69347e-06 -8.74798e-06 0)
(1.1764e-06 -1.15496e-06 0)
(-9.44873e-06 1.12037e-05 0)
(-3.02398e-05 2.59524e-05 0)
(-6.21742e-05 4.15903e-05 0)
(-0.000105559 5.71875e-05 0)
(-0.000160251 7.2196e-05 0)
(-0.00022581 8.63063e-05 0)
(-0.000301607 9.9358e-05 0)
(-0.00038691 0.000111284 0)
(-0.000480939 0.000122077 0)
(-0.000582904 0.000131767 0)
(-0.000692024 0.000140404 0)
(-0.000807551 0.000148051 0)
(-0.000928777 0.00015478 0)
(-0.00105504 0.000160661 0)
(-0.00118571 0.000165765 0)
(-0.00132023 0.000170161 0)
(-0.00145807 0.000173916 0)
(-0.00159876 0.000177093 0)
(-0.00174186 0.00017975 0)
(-0.00188699 0.00018194 0)
(-0.0020338 0.000183712 0)
(-0.00218195 0.000185109 0)
(-0.00233117 0.000186173 0)
(-0.0024812 0.000186941 0)
(-0.00263182 0.000187444 0)
(-0.00278281 0.000187712 0)
(-0.00293399 0.000187769 0)
(-0.0030852 0.000187638 0)
(-0.00323628 0.000187337 0)
(-0.00338709 0.000186883 0)
(-0.00353752 0.000186291 0)
(-0.00368746 0.000185571 0)
(-0.00383678 0.000184734 0)
(-0.00398541 0.000183787 0)
(-0.00413324 0.000182735 0)
(-0.0042802 0.000181584 0)
(-0.00442618 0.000180334 0)
(-0.00457112 0.000178989 0)
(-0.00471493 0.000177549 0)
(-0.00485753 0.000176013 0)
(-0.00499884 0.000174379 0)
(-0.00513877 0.000172646 0)
(-0.00527724 0.000170809 0)
(-0.00541416 0.000168866 0)
(-0.00554945 0.000166812 0)
(-0.00568302 0.000164644 0)
(-0.00581475 0.000162357 0)
(-0.00594457 0.000159944 0)
(-0.00607235 0.0001574 0)
(-0.006198 0.000154721 0)
(-0.0063214 0.0001519 0)
(-0.00644244 0.000148933 0)
(-0.006561 0.000145814 0)
(-0.00667694 0.000142536 0)
(-0.00679015 0.000139095 0)
(-0.00690049 0.000135485 0)
(-0.00700783 0.000131701 0)
(-0.00711202 0.000127739 0)
(-0.00721292 0.000123595 0)
(-0.00731039 0.000119263 0)
(-0.00740427 0.00011474 0)
(-0.00749442 0.000110024 0)
(-0.00758067 0.00010511 0)
(-0.00766288 9.99969e-05 0)
(-0.00774088 9.46822e-05 0)
(-0.00781451 8.91655e-05 0)
(-0.00788363 8.34463e-05 0)
(-0.00794806 7.75244e-05 0)
(-0.00800765 7.14e-05 0)
(-0.00806224 6.50749e-05 0)
(-0.00811167 5.85518e-05 0)
(-0.0081558 5.18341e-05 0)
(-0.00819447 4.49257e-05 0)
(-0.00822753 3.78315e-05 0)
(-0.00825484 3.05571e-05 0)
(-0.00827627 2.31096e-05 0)
(-0.00829168 1.54967e-05 0)
(-0.00830094 7.72713e-06 0)
(-0.00830395 -1.89427e-07 0)
(-0.00830059 -8.2416e-06 0)
(-0.00829076 -1.64178e-05 0)
(-0.00827437 -2.47054e-05 0)
(-0.00825134 -3.30909e-05 0)
(-0.0082216 -4.15599e-05 0)
(-0.0081851 -5.00963e-05 0)
(-0.00814178 -5.8683e-05 0)
(-0.00809162 -6.73026e-05 0)
(-0.0080346 -7.59371e-05 0)
(-0.00797073 -8.45677e-05 0)
(-0.0079 -9.31748e-05 0)
(-0.00782245 -0.000101737 0)
(-0.00773812 -0.000110234 0)
(-0.00764708 -0.000118644 0)
(-0.00754941 -0.000126944 0)
(-0.00744519 -0.000135113 0)
(-0.00733454 -0.000143129 0)
(-0.00721759 -0.000150967 0)
(-0.0070945 -0.000158606 0)
(-0.00696541 -0.000166023 0)
(-0.00683053 -0.000173195 0)
(-0.00669005 -0.0001801 0)
(-0.00654418 -0.000186716 0)
(-0.00639316 -0.000193021 0)
(-0.00623725 -0.000198996 0)
(-0.00607671 -0.00020462 0)
(-0.00591182 -0.000209873 0)
(-0.00574287 -0.000214736 0)
(-0.00557019 -0.000219191 0)
(-0.0053941 -0.000223224 0)
(-0.00521493 -0.000226818 0)
(-0.00503303 -0.000229959 0)
(-0.00484877 -0.000232633 0)
(-0.00466251 -0.000234828 0)
(-0.00447463 -0.000236534 0)
(-0.00428552 -0.000237743 0)
(-0.00409557 -0.000238445 0)
(-0.00390519 -0.000238634 0)
(-0.00371477 -0.000238305 0)
(-0.00352473 -0.000237453 0)
(-0.00333548 -0.000236077 0)
(-0.00314744 -0.000234174 0)
(-0.00296101 -0.000231743 0)
(-0.00277662 -0.000228786 0)
(-0.00259467 -0.000225306 0)
(-0.00241559 -0.000221306 0)
(-0.00223978 -0.000216789 0)
(-0.00206765 -0.00021176 0)
(-0.00189959 -0.000206226 0)
(-0.00173602 -0.000200194 0)
(-0.00157732 -0.000193673 0)
(-0.00142387 -0.000186672 0)
(-0.00127606 -0.0001792 0)
(-0.00113425 -0.00017127 0)
(-0.000998792 -0.000162892 0)
(-0.000870045 -0.000154082 0)
(-0.00074834 -0.000144856 0)
(-0.000633998 -0.000135232 0)
(-0.000527323 -0.000125228 0)
(-0.000428601 -0.000114871 0)
(-0.000338093 -0.000104187 0)
(-0.000256036 -9.32106e-05 0)
(-0.000182633 -8.19815e-05 0)
(-0.000118051 -7.055e-05 0)
(-6.24077e-05 -5.89777e-05 0)
(-1.57613e-05 -4.73427e-05 0)
(2.18992e-05 -3.5743e-05 0)
(5.06744e-05 -2.43038e-05 0)
(7.07779e-05 -1.31871e-05 0)
(8.2564e-05 -2.60443e-06 0)
(8.65639e-05 7.16687e-06 0)
(8.35284e-05 1.57637e-05 0)
(7.44818e-05 2.27118e-05 0)
(6.07836e-05 2.7398e-05 0)
(4.41569e-05 2.90555e-05 0)
(2.67033e-05 2.67838e-05 0)
(1.13515e-05 1.9697e-05 0)
(2.32276e-06 7.60696e-06 0)
(7.72129e-07 -9.13219e-06 0)
(-1.04331e-06 -6.22597e-06 0)
(-1.12466e-05 9.48002e-06 0)
(-3.2675e-05 3.25605e-05 0)
(-6.72038e-05 5.95619e-05 0)
(-0.000115845 8.81606e-05 0)
(-0.000178933 0.000116828 0)
(-0.000256315 0.000144602 0)
(-0.000347501 0.0001709 0)
(-0.00045178 0.000195395 0)
(-0.000568299 0.000217926 0)
(-0.00069613 0.000238441 0)
(-0.000834316 0.000256964 0)
(-0.000981901 0.000273564 0)
(-0.00113795 0.000288338 0)
(-0.00130158 0.000301399 0)
(-0.00147193 0.00031287 0)
(-0.00164823 0.000322876 0)
(-0.00182972 0.000331538 0)
(-0.00201574 0.000338975 0)
(-0.00220565 0.000345301 0)
(-0.0023989 0.000350621 0)
(-0.00259495 0.000355035 0)
(-0.00279334 0.000358634 0)
(-0.00299364 0.000361502 0)
(-0.00319546 0.000363714 0)
(-0.00339846 0.00036534 0)
(-0.00360232 0.00036644 0)
(-0.00380676 0.00036707 0)
(-0.00401152 0.000367279 0)
(-0.00421636 0.000367109 0)
(-0.00442109 0.000366598 0)
(-0.00462551 0.000365776 0)
(-0.00482945 0.000364673 0)
(-0.00503274 0.00036331 0)
(-0.00523523 0.000361707 0)
(-0.0054368 0.000359878 0)
(-0.00563731 0.000357836 0)
(-0.00583662 0.00035559 0)
(-0.00603463 0.000353145 0)
(-0.00623122 0.000350505 0)
(-0.00642626 0.000347671 0)
(-0.00661965 0.000344642 0)
(-0.00681128 0.000341418 0)
(-0.00700101 0.000337993 0)
(-0.00718875 0.000334362 0)
(-0.00737436 0.000330518 0)
(-0.00755772 0.000326455 0)
(-0.00773871 0.000322164 0)
(-0.00791719 0.000317637 0)
(-0.00809302 0.000312864 0)
(-0.00826607 0.000307834 0)
(-0.00843619 0.000302538 0)
(-0.00860322 0.000296965 0)
(-0.00876702 0.000291106 0)
(-0.0089274 0.000284949 0)
(-0.00908422 0.000278484 0)
(-0.00923729 0.000271701 0)
(-0.00938644 0.000264591 0)
(-0.00953148 0.000257144 0)
(-0.00967223 0.000249351 0)
(-0.00980849 0.000241203 0)
(-0.00994007 0.000232694 0)
(-0.0100668 0.000223816 0)
(-0.0101884 0.000214564 0)
(-0.0103047 0.000204931 0)
(-0.0104155 0.000194915 0)
(-0.0105207 0.00018451 0)
(-0.0106198 0.000173715 0)
(-0.0107129 0.000162531 0)
(-0.0107996 0.000150957 0)
(-0.0108798 0.000138995 0)
(-0.0109532 0.000126649 0)
(-0.0110197 0.000113923 0)
(-0.011079 0.000100823 0)
(-0.0111309 8.73579e-05 0)
(-0.0111752 7.35376e-05 0)
(-0.0112118 5.93733e-05 0)
(-0.0112405 4.48785e-05 0)
(-0.0112611 3.00684e-05 0)
(-0.0112734 1.49601e-05 0)
(-0.0112773 -4.27888e-07 0)
(-0.0112726 -1.60744e-05 0)
(-0.0112593 -3.19567e-05 0)
(-0.0112371 -4.80498e-05 0)
(-0.011206 -6.43272e-05 0)
(-0.011166 -8.07609e-05 0)
(-0.0111168 -9.73211e-05 0)
(-0.0110585 -0.000113976 0)
(-0.0109911 -0.000130691 0)
(-0.0109144 -0.000147432 0)
(-0.0108286 -0.000164161 0)
(-0.0107336 -0.000180842 0)
(-0.0106294 -0.000197435 0)
(-0.0105162 -0.000213899 0)
(-0.010394 -0.000230194 0)
(-0.010263 -0.000246277 0)
(-0.0101231 -0.000262106 0)
(-0.00997468 -0.000277638 0)
(-0.00981782 -0.000292829 0)
(-0.00965272 -0.000307635 0)
(-0.00947961 -0.000322014 0)
(-0.00929873 -0.000335922 0)
(-0.00911034 -0.000349318 0)
(-0.00891475 -0.000362159 0)
(-0.00871225 -0.000374403 0)
(-0.00850319 -0.000386011 0)
(-0.00828791 -0.000396945 0)
(-0.00806679 -0.000407169 0)
(-0.00784022 -0.000416645 0)
(-0.00760862 -0.000425341 0)
(-0.00737241 -0.000433223 0)
(-0.00713204 -0.000440263 0)
(-0.00688797 -0.000446433 0)
(-0.00664069 -0.000451708 0)
(-0.00639067 -0.000456064 0)
(-0.00613842 -0.000459481 0)
(-0.00588446 -0.00046194 0)
(-0.0056293 -0.000463426 0)
(-0.00537348 -0.000463927 0)
(-0.00511752 -0.000463429 0)
(-0.00486199 -0.000461926 0)
(-0.00460741 -0.000459412 0)
(-0.00435435 -0.000455884 0)
(-0.00410335 -0.00045134 0)
(-0.00385496 -0.00044578 0)
(-0.00360974 -0.000439209 0)
(-0.00336823 -0.000431632 0)
(-0.00313099 -0.000423058 0)
(-0.00289854 -0.000413495 0)
(-0.00267144 -0.000402955 0)
(-0.00245021 -0.000391451 0)
(-0.00223537 -0.000378999 0)
(-0.00202743 -0.000365618 0)
(-0.0018269 -0.000351327 0)
(-0.00163427 -0.000336148 0)
(-0.00145001 -0.000320107 0)
(-0.00127458 -0.000303231 0)
(-0.00110844 -0.000285553 0)
(-0.000951996 -0.000267109 0)
(-0.000805657 -0.000247942 0)
(-0.000669792 -0.000228101 0)
(-0.000544744 -0.000207644 0)
(-0.000430812 -0.00018664 0)
(-0.000328256 -0.000165172 0)
(-0.000237278 -0.000143342 0)
(-0.000158018 -0.000121274 0)
(-9.05315e-05 -9.91247e-05 0)
(-3.47819e-05 -7.70872e-05 0)
(9.38676e-06 -5.54059e-05 0)
(4.22731e-05 -3.43885e-05 0)
(6.43505e-05 -1.44264e-05 0)
(7.63055e-05 3.98147e-06 0)
(7.90821e-05 2.02e-05 0)
(7.39319e-05 3.34283e-05 0)
(6.24672e-05 4.26707e-05 0)
(4.66791e-05 4.67272e-05 0)
(2.89516e-05 4.4225e-05 0)
(1.26253e-05 3.37582e-05 0)
(2.66183e-06 1.42828e-05 0)
(-2.82553e-07 -7.62929e-06 0)
(-6.83068e-06 3.27196e-06 0)
(-2.62377e-05 3.04057e-05 0)
(-6.01658e-05 6.7165e-05 0)
(-0.00011 0.0001092 0)
(-0.000176618 0.000153463 0)
(-0.000260266 0.000197868 0)
(-0.000360722 0.000241037 0)
(-0.000477434 0.000282099 0)
(-0.000609615 0.00032053 0)
(-0.000756322 0.000356051 0)
(-0.000916522 0.000388548 0)
(-0.00108914 0.000418025 0)
(-0.00127308 0.000444559 0)
(-0.00146727 0.000468274 0)
(-0.00167069 0.000489329 0)
(-0.00188235 0.000507895 0)
(-0.0021013 0.000524155 0)
(-0.00232669 0.000538291 0)
(-0.0025577 0.00055048 0)
(-0.00279357 0.000560895 0)
(-0.00303363 0.000569697 0)
(-0.00327723 0.000577038 0)
(-0.00352381 0.000583061 0)
(-0.00377283 0.000587896 0)
(-0.00402382 0.000591662 0)
(-0.00427635 0.000594468 0)
(-0.00453001 0.00059641 0)
(-0.00478447 0.000597577 0)
(-0.00503939 0.000598045 0)
(-0.00529448 0.000597884 0)
(-0.00554948 0.000597153 0)
(-0.00580413 0.000595904 0)
(-0.00605823 0.000594182 0)
(-0.00631155 0.000592022 0)
(-0.00656392 0.000589458 0)
(-0.00681514 0.000586513 0)
(-0.00706505 0.000583208 0)
(-0.00731349 0.000579557 0)
(-0.00756031 0.000575572 0)
(-0.00780534 0.000571258 0)
(-0.00804844 0.000566619 0)
(-0.00828946 0.000561654 0)
(-0.00852826 0.00055636 0)
(-0.00876469 0.000550733 0)
(-0.00899859 0.000544763 0)
(-0.00922981 0.000538443 0)
(-0.0094582 0.00053176 0)
(-0.00968359 0.000524701 0)
(-0.00990581 0.000517253 0)
(-0.0101247 0.000509401 0)
(-0.0103401 0.000501131 0)
(-0.0105517 0.000492426 0)
(-0.0107595 0.00048327 0)
(-0.0109632 0.000473646 0)
(-0.0111627 0.00046354 0)
(-0.0113576 0.000452934 0)
(-0.0115478 0.000441813 0)
(-0.0117331 0.000430161 0)
(-0.0119132 0.000417964 0)
(-0.012088 0.000405209 0)
(-0.0122571 0.000391883 0)
(-0.0124203 0.000377972 0)
(-0.0125775 0.000363468 0)
(-0.0127283 0.000348359 0)
(-0.0128724 0.000332639 0)
(-0.0130097 0.000316302 0)
(-0.0131399 0.000299342 0)
(-0.0132627 0.000281757 0)
(-0.0133779 0.000263545 0)
(-0.0134852 0.000244709 0)
(-0.0135843 0.000225251 0)
(-0.013675 0.000205178 0)
(-0.013757 0.000184498 0)
(-0.0138302 0.000163221 0)
(-0.0138942 0.00014136 0)
(-0.0139488 0.000118932 0)
(-0.0139938 9.59557e-05 0)
(-0.014029 7.24527e-05 0)
(-0.0140542 4.84478e-05 0)
(-0.0140691 2.39689e-05 0)
(-0.0140737 -9.53366e-07 0)
(-0.0140676 -2.62859e-05 0)
(-0.0140508 -5.19919e-05 0)
(-0.0140231 -7.80317e-05 0)
(-0.0139844 -0.000104362 0)
(-0.0139346 -0.000130938 0)
(-0.0138736 -0.00015771 0)
(-0.0138013 -0.000184629 0)
(-0.0137178 -0.00021164 0)
(-0.0136229 -0.000238688 0)
(-0.0135166 -0.000265712 0)
(-0.0133991 -0.000292654 0)
(-0.0132703 -0.00031945 0)
(-0.0131304 -0.000346036 0)
(-0.0129794 -0.000372346 0)
(-0.0128174 -0.000398314 0)
(-0.0126447 -0.000423871 0)
(-0.0124614 -0.000448948 0)
(-0.0122677 -0.000473477 0)
(-0.0120639 -0.000497387 0)
(-0.0118502 -0.00052061 0)
(-0.011627 -0.000543078 0)
(-0.0113945 -0.000564722 0)
(-0.0111531 -0.000585477 0)
(-0.0109033 -0.000605277 0)
(-0.0106453 -0.000624057 0)
(-0.0103797 -0.000641757 0)
(-0.0101068 -0.000658317 0)
(-0.00982725 -0.000673681 0)
(-0.00954146 -0.000687794 0)
(-0.00924995 -0.000700607 0)
(-0.0089533 -0.00071207 0)
(-0.00865204 -0.000722139 0)
(-0.00834677 -0.000730773 0)
(-0.00803808 -0.000737937 0)
(-0.00772659 -0.000743596 0)
(-0.00741292 -0.00074772 0)
(-0.0070977 -0.000750284 0)
(-0.00678158 -0.000751266 0)
(-0.00646521 -0.000750649 0)
(-0.00614927 -0.000748418 0)
(-0.00583441 -0.000744563 0)
(-0.00552131 -0.000739079 0)
(-0.00521064 -0.000731963 0)
(-0.00490307 -0.000723216 0)
(-0.00459928 -0.000712842 0)
(-0.00429994 -0.00070085 0)
(-0.00400572 -0.000687251 0)
(-0.00371728 -0.000672061 0)
(-0.00343528 -0.000655298 0)
(-0.00316037 -0.000636984 0)
(-0.00289318 -0.000617143 0)
(-0.00263434 -0.000595805 0)
(-0.00238446 -0.000573002 0)
(-0.00214415 -0.00054877 0)
(-0.00191399 -0.000523153 0)
(-0.00169453 -0.000496196 0)
(-0.00148632 -0.000467954 0)
(-0.00128987 -0.000438489 0)
(-0.00110566 -0.000407872 0)
(-0.000934135 -0.000376186 0)
(-0.000775707 -0.000343529 0)
(-0.000630729 -0.000310019 0)
(-0.000499501 -0.000275795 0)
(-0.000382252 -0.000241028 0)
(-0.000279134 -0.000205922 0)
(-0.000190198 -0.000170731 0)
(-0.000115383 -0.000135768 0)
(-5.44822e-05 -0.00010142 0)
(-7.12769e-06 -6.8169e-05 0)
(2.72474e-05 -3.66154e-05 0)
(4.94433e-05 -7.50525e-06 0)
(6.05358e-05 1.82349e-05 0)
(6.19221e-05 3.94629e-05 0)
(5.5369e-05 5.47916e-05 0)
(4.30279e-05 6.25745e-05 0)
(2.74597e-05 6.09283e-05 0)
(1.2233e-05 4.7816e-05 0)
(2.62505e-06 2.11477e-05 0)
(-1.36714e-06 -2.92924e-06 0)
(-1.29939e-05 2.05892e-05 0)
(-4.23708e-05 6.27683e-05 0)
(-8.97279e-05 0.000116252 0)
(-0.000155779 0.000176019 0)
(-0.000241134 0.000238437 0)
(-0.000345853 0.000300943 0)
(-0.00046958 0.000361785 0)
(-0.000611662 0.00041981 0)
(-0.00077123 0.000474301 0)
(-0.000947257 0.000524849 0)
(-0.00113862 0.000571268 0)
(-0.00134415 0.00061353 0)
(-0.00156266 0.000651711 0)
(-0.00179297 0.000685963 0)
(-0.00203393 0.00071648 0)
(-0.00228445 0.000743488 0)
(-0.00254348 0.000767225 0)
(-0.00281003 0.000787935 0)
(-0.00308319 0.000805859 0)
(-0.00336211 0.000821234 0)
(-0.00364598 0.000834282 0)
(-0.00393408 0.000845215 0)
(-0.00422575 0.00085423 0)
(-0.00452037 0.000861511 0)
(-0.00481738 0.000867227 0)
(-0.00511627 0.000871531 0)
(-0.00541658 0.000874562 0)
(-0.00571788 0.000876444 0)
(-0.0060198 0.000877289 0)
(-0.00632197 0.000877194 0)
(-0.00662408 0.000876248 0)
(-0.00692584 0.000874526 0)
(-0.00722697 0.00087209 0)
(-0.00752721 0.000868997 0)
(-0.00782635 0.000865292 0)
(-0.00812415 0.000861012 0)
(-0.00842041 0.000856187 0)
(-0.00871493 0.000850839 0)
(-0.00900752 0.000844985 0)
(-0.00929799 0.000838635 0)
(-0.00958616 0.000831795 0)
(-0.00987185 0.000824465 0)
(-0.0101549 0.000816642 0)
(-0.0104351 0.000808318 0)
(-0.0107122 0.000799483 0)
(-0.0109862 0.000790126 0)
(-0.0112567 0.000780229 0)
(-0.0115237 0.000769776 0)
(-0.0117868 0.000758748 0)
(-0.012046 0.000747123 0)
(-0.0123009 0.00073488 0)
(-0.0125515 0.000721999 0)
(-0.0127973 0.000708455 0)
(-0.0130383 0.000694226 0)
(-0.0132741 0.000679289 0)
(-0.0135045 0.000663622 0)
(-0.0137294 0.000647201 0)
(-0.0139483 0.000630007 0)
(-0.0141611 0.000612018 0)
(-0.0143674 0.000593215 0)
(-0.0145671 0.00057358 0)
(-0.0147597 0.000553096 0)
(-0.0149451 0.000531749 0)
(-0.015123 0.000509526 0)
(-0.0152929 0.000486414 0)
(-0.0154547 0.000462407 0)
(-0.0156081 0.000437499 0)
(-0.0157526 0.000411685 0)
(-0.0158882 0.000384965 0)
(-0.0160143 0.000357342 0)
(-0.0161309 0.00032882 0)
(-0.0162374 0.00029941 0)
(-0.0163337 0.000269123 0)
(-0.0164195 0.000237976 0)
(-0.0164945 0.000205989 0)
(-0.0165585 0.000173184 0)
(-0.0166111 0.000139591 0)
(-0.0166521 0.000105242 0)
(-0.0166812 7.01707e-05 0)
(-0.0166984 3.44197e-05 0)
(-0.0167032 -1.96663e-06 0)
(-0.0166956 -3.89392e-05 0)
(-0.0166754 -7.6445e-05 0)
(-0.0166423 -0.000114427 0)
(-0.0165964 -0.000152822 0)
(-0.0165373 -0.000191565 0)
(-0.0164651 -0.000230585 0)
(-0.0163797 -0.000269809 0)
(-0.016281 -0.000309158 0)
(-0.0161691 -0.000348553 0)
(-0.0160438 -0.000387908 0)
(-0.0159053 -0.000427137 0)
(-0.0157536 -0.000466147 0)
(-0.0155888 -0.000504848 0)
(-0.015411 -0.000543143 0)
(-0.0152204 -0.000580938 0)
(-0.0150172 -0.000618133 0)
(-0.0148016 -0.000654629 0)
(-0.0145738 -0.000690329 0)
(-0.0143341 -0.000725131 0)
(-0.0140829 -0.000758936 0)
(-0.0138205 -0.000791645 0)
(-0.0135473 -0.000823162 0)
(-0.0132637 -0.00085339 0)
(-0.0129701 -0.000882236 0)
(-0.012667 -0.000909608 0)
(-0.0123549 -0.000935418 0)
(-0.0120343 -0.000959579 0)
(-0.0117059 -0.00098201 0)
(-0.0113701 -0.00100263 0)
(-0.0110276 -0.00102138 0)
(-0.0106791 -0.00103817 0)
(-0.0103251 -0.00105295 0)
(-0.00996637 -0.00106566 0)
(-0.00960359 -0.00107624 0)
(-0.00923747 -0.00108464 0)
(-0.00886873 -0.00109083 0)
(-0.00849811 -0.00109476 0)
(-0.00812637 -0.0010964 0)
(-0.00775426 -0.00109573 0)
(-0.00738255 -0.00109273 0)
(-0.00701201 -0.00108737 0)
(-0.00664344 -0.00107965 0)
(-0.00627761 -0.00106957 0)
(-0.0059153 -0.00105713 0)
(-0.0055573 -0.00104233 0)
(-0.00520439 -0.00102519 0)
(-0.00485734 -0.00100571 0)
(-0.00451694 -0.000983931 0)
(-0.00418393 -0.000959867 0)
(-0.00385908 -0.000933554 0)
(-0.00354312 -0.000905027 0)
(-0.00323679 -0.00087433 0)
(-0.00294079 -0.000841508 0)
(-0.00265583 -0.000806619 0)
(-0.00238258 -0.000769724 0)
(-0.00212167 -0.000730895 0)
(-0.00187375 -0.000690211 0)
(-0.00163938 -0.000647767 0)
(-0.00141914 -0.000603671 0)
(-0.00121352 -0.000558049 0)
(-0.00102299 -0.000511048 0)
(-0.000847945 -0.000462844 0)
(-0.000688718 -0.000413646 0)
(-0.000545562 -0.000363706 0)
(-0.000418632 -0.000313327 0)
(-0.000307975 -0.000262876 0)
(-0.000213504 -0.000212803 0)
(-0.00013498 -0.000163657 0)
(-7.19781e-05 -0.000116111 0)
(-2.38656e-05 -7.09894e-05 0)
(1.02361e-05 -2.93006e-05 0)
(3.14863e-05 7.7279e-06 0)
(4.13676e-05 3.86102e-05 0)
(4.17301e-05 6.15674e-05 0)
(3.48087e-05 7.45026e-05 0)
(2.3257e-05 7.50021e-05 0)
(1.07011e-05 6.03588e-05 0)
(2.35975e-06 2.74561e-05 0)
(-2.41658e-06 5.0169e-06 0)
(-1.91711e-05 4.60336e-05 0)
(-5.87716e-05 0.000107089 0)
(-0.000119933 0.000180434 0)
(-0.000202604 0.000260603 0)
(-0.000307032 0.000343542 0)
(-0.000433014 0.000426307 0)
(-0.000579998 0.000506839 0)
(-0.000747195 0.00058374 0)
(-0.000933626 0.000656113 0)
(-0.00113818 0.000723429 0)
(-0.00135965 0.000785428 0)
(-0.00159678 0.000842043 0)
(-0.00184829 0.000893349 0)
(-0.00211294 0.000939517 0)
(-0.00238948 0.000980779 0)
(-0.00267672 0.00101741 0)
(-0.00297353 0.00104971 0)
(-0.00327883 0.00107797 0)
(-0.00359162 0.00110252 0)
(-0.00391095 0.00112364 0)
(-0.00423594 0.00114163 0)
(-0.00456578 0.00115677 0)
(-0.00489972 0.0011693 0)
(-0.00523708 0.00117948 0)
(-0.00557722 0.00118752 0)
(-0.00591957 0.00119362 0)
(-0.0062636 0.00119798 0)
(-0.00660882 0.00120075 0)
(-0.0069548 0.00120209 0)
(-0.00730112 0.00120213 0)
(-0.00764741 0.00120098 0)
(-0.00799334 0.00119874 0)
(-0.00833859 0.00119551 0)
(-0.00868285 0.00119136 0)
(-0.00902586 0.00118635 0)
(-0.00936736 0.00118053 0)
(-0.0097071 0.00117394 0)
(-0.0100448 0.00116662 0)
(-0.0103804 0.00115859 0)
(-0.0107135 0.00114986 0)
(-0.0110439 0.00114044 0)
(-0.0113715 0.00113033 0)
(-0.011696 0.00111954 0)
(-0.0120172 0.00110804 0)
(-0.0123349 0.00109584 0)
(-0.0126489 0.0010829 0)
(-0.0129589 0.00106922 0)
(-0.0132648 0.00105477 0)
(-0.0135662 0.00103953 0)
(-0.0138631 0.00102346 0)
(-0.014155 0.00100654 0)
(-0.0144418 0.000988748 0)
(-0.0147232 0.000970043 0)
(-0.0149989 0.0009504 0)
(-0.0152687 0.000929788 0)
(-0.0155323 0.000908178 0)
(-0.0157894 0.000885539 0)
(-0.0160397 0.000861845 0)
(-0.0162828 0.000837067 0)
(-0.0165186 0.000811181 0)
(-0.0167466 0.000784163 0)
(-0.0169665 0.000755991 0)
(-0.0171781 0.000726647 0)
(-0.017381 0.000696113 0)
(-0.0175748 0.000664375 0)
(-0.0177593 0.000631422 0)
(-0.017934 0.000597247 0)
(-0.0180987 0.000561848 0)
(-0.018253 0.000525222 0)
(-0.0183965 0.000487375 0)
(-0.018529 0.000448315 0)
(-0.0186501 0.000408055 0)
(-0.0187595 0.000366612 0)
(-0.0188568 0.000324008 0)
(-0.0189417 0.000280273 0)
(-0.0190141 0.000235438 0)
(-0.0190734 0.000189542 0)
(-0.0191196 0.000142629 0)
(-0.0191522 9.47477e-05 0)
(-0.0191711 4.59541e-05 0)