/*--------------------------------*- C++ -*----------------------------------*\
  =========                 |
  \\      /  F ield         | OpenFOAM: The Open Source CFD Toolbox
   \\    /   O peration     | Website:  https://openfoam.org
    \\  /    A nd           | Version:  7
     \\/     M anipulation  |
\*---------------------------------------------------------------------------*/
FoamFile
{
    version     2.0;
    format      ascii;
    class       volScalarField;
    location    "0.3625";
    object      p;
}
// * * * * * * * * * * * * * * * * * * * * * * * * * * * * * * * * * * * * * //

dimensions      [0 2 -2 0 0 0 0];

internalField   nonuniform List<scalar> 
25600
(
-1.53077e-09
7.64249e-06
5.52942e-06
-9.89797e-06
-3.8174e-05
-7.81126e-05
-0.00012822
-0.000186881
-0.000252524
-0.000323667
-0.000398964
-0.000477197
-0.0005573
-0.000638265
-0.000719248
-0.000799481
-0.000878283
-0.000955059
-0.00102928
-0.00110046
-0.00116822
-0.00123218
-0.00129204
-0.00134754
-0.00139844
-0.00144454
-0.00148566
-0.00152167
-0.00155243
-0.00157785
-0.00159785
-0.00161236
-0.00162131
-0.00162468
-0.00162242
-0.00161453
-0.00160098
-0.00158177
-0.00155691
-0.0015264
-0.00149025
-0.00144848
-0.00140111
-0.00134815
-0.00128964
-0.0012256
-0.00115606
-0.00108107
-0.00100065
-0.000914845
-0.000823706
-0.000727275
-0.000625599
-0.000518731
-0.000406732
-0.00028966
-0.000167579
-4.05628e-05
9.13078e-05
0.00022795
0.000369279
0.000515197
0.0006656
0.000820374
0.000979399
0.00114255
0.0013097
0.00148069
0.00165538
0.00183359
0.00201516
0.00219991
0.00238763
0.00257813
0.0027712
0.00296662
0.00316414
0.00336353
0.00356452
0.00376685
0.00397026
0.00417445
0.00437914
0.00458402
0.00478878
0.00499311
0.00519669
0.00539918
0.00560025
0.00579955
0.00599675
0.0061915
0.00638345
0.00657226
0.00675758
0.00693905
0.00711634
0.00728911
0.00745702
0.00761974
0.00777696
0.00792837
0.00807366
0.00821255
0.00834475
0.00847001
0.00858807
0.00869871
0.00880172
0.0088969
0.00898408
0.00906312
0.00913388
0.00919627
0.00925021
0.00929563
0.00933252
0.00936086
0.00938069
0.00939206
0.00939506
0.00938979
0.00937639
0.00935504
0.00932593
0.00928928
0.00924537
0.00919447
0.00913689
0.00907297
0.00900308
0.00892761
0.008847
0.00876168
0.00867213
0.00857887
0.00848241
0.00838332
0.00828218
0.00817961
0.00807624
0.00797274
0.00786979
0.00776813
0.00766849
0.00757165
0.00747843
0.00738966
0.0073062
0.00722895
0.00715882
0.00709675
0.00704363
0.00700036
0.00696767
0.0069461
0.0069357
0.00693567
0.00694391
0.00695523
-7.69037e-06
-2.80326e-07
-3.72055e-06
-1.88567e-05
-4.46042e-05
-8.02136e-05
-0.000124683
-0.000176804
-0.000235313
-0.000298985
-0.000366659
-0.000437253
-0.000509788
-0.000583366
-0.000657181
-0.000730511
-0.000802705
-0.000873182
-0.000941429
-0.00100699
-0.00106945
-0.00112845
-0.0011837
-0.00123491
-0.00128185
-0.0013243
-0.0013621
-0.00139507
-0.0014231
-0.00144606
-0.00146388
-0.00147646
-0.00148376
-0.00148571
-0.00148229
-0.00147345
-0.00145919
-0.00143949
-0.00141435
-0.00138376
-0.00134773
-0.00130627
-0.00125939
-0.00120712
-0.00114947
-0.00108648
-0.00101817
-0.000944567
-0.000865712
-0.000781646
-0.000692409
-0.000598044
-0.000498601
-0.000394133
-0.000284698
-0.000170353
-5.11628e-05
7.28002e-05
0.000201457
0.000334726
0.000472519
0.000614741
0.000761285
0.000912042
0.00106689
0.00122572
0.00138838
0.00155474
0.00172464
0.00189792
0.00207441
0.00225395
0.00243632
0.00262134
0.0028088
0.0029985
0.00319018
0.00338363
0.00357858
0.00377478
0.00397197
0.00416988
0.00436822
0.0045667
0.00476503
0.00496289
0.00515998
0.00535598
0.00555057
0.00574341
0.00593419
0.00612257
0.00630822
0.00649081
0.00667
0.00684546
0.00701687
0.00718389
0.00734622
0.00750353
0.00765554
0.00780194
0.00794245
0.00807679
0.0082047
0.00832593
0.00844024
0.00854743
0.00864729
0.00873964
0.00882433
0.00890121
0.00897018
0.00903113
0.00908399
0.00912872
0.00916529
0.0091937
0.00921399
0.00922622
0.00923046
0.00922683
0.00921546
0.00919653
0.00917022
0.00913677
0.00909642
0.00904945
0.00899615
0.00893687
0.00887194
0.00880177
0.00872675
0.00864733
0.00856395
0.0084771
0.00838729
0.00829506
0.00820097
0.0081056
0.00800956
0.00791348
0.00781802
0.00772384
0.00763166
0.0075422
0.0074562
0.00737444
0.00729768
0.00722673
0.00716238
0.00710541
0.00705656
0.00701649
0.00698573
0.00696458
0.00695289
0.00694999
0.00695522
0.00696654
-5.94519e-06
2.63203e-06
-8.40278e-07
-1.55316e-05
-3.96488e-05
-7.24938e-05
-0.000113262
-0.000160944
-0.000214473
-0.0002728
-0.000334901
-0.000399814
-0.000466645
-0.000534571
-0.000602844
-0.000670782
-0.000737768
-0.000803244
-0.000866715
-0.000927735
-0.000985907
-0.00104088
-0.00109235
-0.00114003
-0.0011837
-0.00122313
-0.00125815
-0.00128859
-0.00131432
-0.00133522
-0.00135119
-0.00136216
-0.00136804
-0.00136879
-0.00136436
-0.00135472
-0.00133984
-0.00131971
-0.00129431
-0.00126365
-0.00122771
-0.00118651
-0.00114006
-0.00108837
-0.00103146
-0.000969363
-0.000902094
-0.000829685
-0.000752173
-0.000669596
-0.000581991
-0.000489399
-0.000391872
-0.000289461
-0.000182222
-7.02123e-05
4.65033e-05
0.000167851
0.000293757
0.00042414
0.000558914
0.000697979
0.000841233
0.000988567
0.00113987
0.00129501
0.00145387
0.00161629
0.00178214
0.00195125
0.00212346
0.00229858
0.00247644
0.00265684
0.00283959
0.00302447
0.00321126
0.00339972
0.00358961
0.00378069
0.00397269
0.00416535
0.00435839
0.00455154
0.00474451
0.004937
0.0051287
0.00531932
0.00550852
0.00569602
0.00588148
0.0060646
0.00624504
0.00642249
0.00659663
0.00676713
0.00693369
0.00709599
0.00725372
0.00740658
0.0075543
0.00769659
0.00783317
0.00796377
0.00808815
0.00820607
0.00831731
0.00842166
0.00851894
0.00860896
0.0086916
0.00876671
0.00883418
0.00889394
0.00894591
0.00899005
0.00902633
0.00905477
0.00907541
0.0090883
0.00909353
0.00909119
0.00908144
0.00906444
0.00904038
0.00900947
0.00897198
0.00892815
0.00887829
0.00882271
0.00876176
0.00869582
0.00862528
0.00855056
0.0084721
0.00839037
0.00830586
0.00821908
0.00813059
0.00804093
0.00795068
0.00786045
0.00777085
0.00768253
0.00759616
0.00751241
0.00743197
0.00735555
0.00728387
0.00721763
0.00715755
0.0071043
0.00705852
0.00702077
0.00699147
0.00697089
0.00695892
0.0069552
0.00696046
0.0069748
8.71324e-06
1.70891e-05
1.32198e-05
-1.43353e-06
-2.47721e-05
-5.60606e-05
-9.45418e-05
-0.000139301
-0.000189401
-0.000243904
-0.000301906
-0.000362538
-0.000424989
-0.000488498
-0.000552379
-0.000615988
-0.000678744
-0.000740122
-0.000799641
-0.000856875
-0.000911442
-0.000963003
-0.00101125
-0.00105592
-0.00109677
-0.00113359
-0.00116619
-0.00119442
-0.00121813
-0.00123721
-0.00125156
-0.00126108
-0.00126571
-0.00126539
-0.00126006
-0.00124969
-0.00123426
-0.00121374
-0.00118811
-0.00115737
-0.00112152
-0.00108055
-0.00103447
-0.000983307
-0.000927068
-0.000865775
-0.000799448
-0.000728117
-0.000651819
-0.000570587
-0.000484456
-0.000393471
-0.00029768
-0.00019713
-9.18758e-05
1.80248e-05
0.000132505
0.000251495
0.000374922
0.000502707
0.000634762
0.000770989
0.000911289
0.00105556
0.00120368
0.00135553
0.00151098
0.0016699
0.00183213
0.00199752
0.00216592
0.00233713
0.00251099
0.00268731
0.00286589
0.00304653
0.00322899
0.00341306
0.0035985
0.00378507
0.00397252
0.00416058
0.00434899
0.00453748
0.00472578
0.00491358
0.0051006
0.00528652
0.00547106
0.00565392
0.00583478
0.00601333
0.00618927
0.00636228
0.00653205
0.00669827
0.00686065
0.00701887
0.00717264
0.00732168
0.00746572
0.00760446
0.00773766
0.00786506
0.00798641
0.00810148
0.00821008
0.00831199
0.00840704
0.00849507
0.00857593
0.00864951
0.00871569
0.00877441
0.00882559
0.00886919
0.00890521
0.00893365
0.00895455
0.00896797
0.00897399
0.00897272
0.0089643
0.00894889
0.00892668
0.00889789
0.00886275
0.00882153
0.00877452
0.00872201
0.00866436
0.00860193
0.0085351
0.00846428
0.00838988
0.00831238
0.00823224
0.00814996
0.00806606
0.00798107
0.00789556
0.00781008
0.00772524
0.00764164
0.00755992
0.00748071
0.00740466
0.00733243
0.00726467
0.00720203
0.00714516
0.00709467
0.00705114
0.00701508
0.00698689
0.00696688
0.00695509
0.00695144
0.00695763
0.0069749
3.61899e-05
4.22168e-05
3.67925e-05
2.14114e-05
-1.93935e-06
-3.24976e-05
-6.95436e-05
-0.000112256
-0.000159787
-0.000211303
-0.000265997
-0.000323091
-0.000381848
-0.000441578
-0.000501642
-0.000561447
-0.000620451
-0.000678155
-0.000734107
-0.0007879
-0.000839168
-0.000887584
-0.000932851
-0.000974712
-0.00101293
-0.00104729
-0.00107762
-0.00110375
-0.00112555
-0.0011429
-0.00115569
-0.00116384
-0.00116726
-0.0011659
-0.00115971
-0.00114864
-0.00113267
-0.00111177
-0.00108592
-0.00105512
-0.00101934
-0.000978603
-0.000932899
-0.000882248
-0.000826663
-0.000766159
-0.000700758
-0.000630489
-0.000555383
-0.00047547
-0.000390788
-0.00030138
-0.00020729
-0.000108566
-5.25782e-06
0.000102574
0.000214864
0.000331546
0.00045255
0.000577795
0.000707193
0.000840651
0.000978072
0.00111935
0.00126438
0.00141303
0.00156518
0.00172069
0.00187943
0.00204123
0.00220594
0.00237338
0.00254338
0.00271577
0.00289034
0.0030669
0.00324521
0.00342508
0.00360626
0.00378852
0.00397162
0.00415529
0.00433929
0.00452335
0.0047072
0.00489055
0.00507311
0.0052546
0.00543472
0.00561318
0.00578969
0.00596393
0.00613561
0.00630444
0.0064701
0.00663229
0.00679073
0.00694512
0.00709517
0.00724062
0.00738119
0.00751662
0.00764665
0.00777103
0.00788954
0.00800195
0.00810806
0.00820768
0.00830064
0.00838679
0.00846599
0.00853811
0.00860308
0.0086608
0.00871122
0.00875431
0.00879004
0.00881845
0.00883956
0.00885344
0.00886016
0.00885984
0.00885261
0.00883864
0.0088181
0.00879122
0.00875822
0.00871936
0.00867492
0.0086252
0.00857054
0.00851129
0.00844781
0.00838051
0.00830979
0.0082361
0.0081599
0.00808166
0.00800189
0.00792109
0.00783979
0.00775855
0.00767792
0.0075985
0.00752086
0.00744562
0.00737337
0.00730473
0.0072403
0.00718069
0.00712648
0.00707824
0.00703651
0.00700176
0.00697442
0.00695483
0.00694313
0.00693948
0.0069461
0.00696478
7.55706e-05
7.74234e-05
6.92841e-05
5.23218e-05
2.81546e-05
-2.47578e-06
-3.88967e-05
-8.03597e-05
-0.000126114
-0.000175418
-0.000227546
-0.000281804
-0.000337528
-0.000394091
-0.000450905
-0.000507428
-0.000563152
-0.000617614
-0.00067039
-0.000721096
-0.000769384
-0.00081494
-0.000857483
-0.000896759
-0.000932537
-0.000964621
-0.00099283
-0.00101701
-0.00103701
-0.00105273
-0.00106405
-0.00107089
-0.00107317
-0.00107083
-0.00106382
-0.00105209
-0.00103561
-0.00101435
-0.00098829
-0.000957422
-0.000921731
-0.000881215
-0.00083588
-0.000785737
-0.000730792
-0.00067106
-0.000606566
-0.000537336
-0.000463395
-0.000384772
-0.000301506
-0.000213638
-0.000121209
-2.42632e-05
7.71462e-05
0.00018296
0.000293117
0.000407556
0.000526203
0.000648979
0.000775799
0.000906572
0.00104121
0.0011796
0.00132163
0.00146719
0.00161616
0.00176839
0.00192376
0.00208211
0.00224327
0.0024071
0.00257341
0.00274203
0.00291278
0.00308544
0.0032598
0.00343567
0.0036128
0.00379097
0.00396993
0.00414945
0.00432928
0.00450915
0.0046888
0.00486795
0.00504631
0.00522362
0.00539959
0.00557393
0.00574634
0.00591655
0.00608425
0.00624915
0.00641097
0.0065694
0.00672416
0.00687497
0.00702156
0.00716366
0.00730101
0.00743334
0.00756042
0.007682
0.00779786
0.00790779
0.00801159
0.00810908
0.00820009
0.00828448
0.00836212
0.00843289
0.0084967
0.00855349
0.00860318
0.00864576
0.00868121
0.00870955
0.00873083
0.00874509
0.00875242
0.00875292
0.00874675
0.00873405
0.008715
0.00868982
0.00865873
0.00862198
0.00857984
0.00853261
0.00848062
0.0084242
0.00836372
0.00829956
0.00823212
0.00816182
0.00808912
0.00801447
0.00793834
0.00786124
0.00778366
0.00770612
0.00762918
0.00755337
0.00747927
0.00740742
0.0073384
0.00727278
0.00721112
0.00715398
0.0071019
0.00705542
0.00701504
0.00698121
0.00695436
0.00693488
0.00692299
0.00691898
0.00692525
0.00694373
0.000125468
0.000121771
0.000109915
9.05726e-05
6.48283e-05
3.33595e-05
-3.18897e-06
-4.41558e-05
-8.88797e-05
-0.000136697
-0.000186965
-0.000239063
-0.000292392
-0.000346387
-0.000400514
-0.000454274
-0.000507199
-0.000558858
-0.000608862
-0.000656846
-0.000702486
-0.000745485
-0.000785574
-0.000822508
-0.00085607
-0.000886067
-0.000912326
-0.000934694
-0.000953038
-0.000967237
-0.000977192
-0.000982815
-0.00098403
-0.000980771
-0.000972988
-0.000960636
-0.00094368
-0.00092209
-0.000895845
-0.000864928
-0.000829325
-0.000789037
-0.000744067
-0.000694418
-0.000640097
-0.000581122
-0.000517513
-0.000449291
-0.000376481
-0.000299114
-0.000217225
-0.000130852
-4.00315e-05
5.519e-05
0.000154759
0.000258621
0.000366717
0.000478987
0.000595359
0.000715753
0.000840089
0.000968279
0.00110023
0.00123584
0.00137501
0.00151761
0.00166353
0.00181263
0.00196478
0.00211983
0.00227763
0.00243801
0.00260082
0.00276587
0.00293299
0.00310196
0.00327259
0.00344468
0.003618
0.00379231
0.0039674
0.00414302
0.00431893
0.00449488
0.0046706
0.00484582
0.00502027
0.00519368
0.00536578
0.00553628
0.0057049
0.00587136
0.00603537
0.00619664
0.0063549
0.00650985
0.00666122
0.00680873
0.00695212
0.00709113
0.00722551
0.00735499
0.00747935
0.00759834
0.00771177
0.00781941
0.00792109
0.00801661
0.00810583
0.00818859
0.00826479
0.0083343
0.00839704
0.00845294
0.00850195
0.00854404
0.00857919
0.00860745
0.00862883
0.0086434
0.00865124
0.00865246
0.00864719
0.00863559
0.00861785
0.00859415
0.00856472
0.00852982
0.0084897
0.00844465
0.008395
0.00834108
0.00828322
0.00822181
0.00815723
0.0080899
0.00802024
0.0079487
0.00787575
0.00780183
0.00772745
0.0076531
0.00757929
0.00750655
0.00743541
0.0073664
0.00730004
0.00723687
0.00717742
0.0071222
0.00707174
0.00702653
0.00698703
0.0069537
0.00692695
0.0069072
0.00689472
0.00688986
0.00689496
0.00691185
0.000184332
0.000174083
0.000157703
0.000135289
0.00010728
7.43049e-05
3.69559e-05
-4.18647e-06
-4.85371e-05
-9.55185e-05
-0.000144557
-0.000195103
-0.000246617
-0.000298593
-0.000350546
-0.000402022
-0.000452592
-0.000501866
-0.000549476
-0.000595087
-0.000638398
-0.000679128
-0.000717021
-0.000751851
-0.00078341
-0.000811511
-0.00083599
-0.000856703
-0.000873518
-0.000886321
-0.000895012
-0.000899508
-0.000899732
-0.000895622
-0.000887125
-0.000874198
-0.000856804
-0.000834913
-0.000808502
-0.00077755
-0.000742047
-0.000701992
-0.000657383
-0.00060822
-0.000554515
-0.000496281
-0.000433535
-0.000366297
-0.000294589
-0.000218444
-0.000137893
-5.29696e-05
3.62895e-05
0.000129839
0.000227625
0.000329598
0.000435703
0.000545878
0.000660053
0.00077815
0.000900094
0.0010258
0.00115518
0.00128812
0.00142453
0.0015643
0.0017073
0.00185341
0.0020025
0.00215441
0.002309
0.00246611
0.00262559
0.00278727
0.00295094
0.00311643
0.00328355
0.00345207
0.00362179
0.00379249
0.00396393
0.0041359
0.00430815
0.00448042
0.00465247
0.00482404
0.00499485
0.00516464
0.00533314
0.00550008
0.00566519
0.00582817
0.00598877
0.00614669
0.00630166
0.0064534
0.00660164
0.00674612
0.00688657
0.00702274
0.00715438
0.00728125
0.00740311
0.00751974
0.00763093
0.00773648
0.0078362
0.00792992
0.00801748
0.00809876
0.00817362
0.00824197
0.00830371
0.00835878
0.00840714
0.00844875
0.00848361
0.00851175
0.00853319
0.008548
0.00855626
0.00855807
0.00855358
0.00854293
0.0085263
0.00850388
0.0084759
0.00844259
0.00840422
0.00836107
0.00831345
0.00826168
0.00820609
0.00814706
0.00808495
0.00802017
0.00795314
0.00788427
0.00781402
0.00774282
0.00767115
0.00759949
0.00752831
0.00745812
0.00738942
0.0073227
0.00725848
0.00719724
0.00713948
0.00708569
0.00703636
0.00699194
0.00695288
0.00691961
0.00689255
0.00687211
0.00685859
0.00685236
0.00685552
0.00686967
0.000250644
0.000233158
0.00021163
0.000185557
0.000154709
0.000119644
8.0907e-05
3.90058e-05
-5.5592e-06
-5.22769e-05
-0.000100649
-0.000150184
-0.000200407
-0.000250862
-0.00030111
-0.000350742
-0.000399375
-0.000446645
-0.000492218
-0.000535788
-0.00057707
-0.000615804
-0.000651755
-0.000684709
-0.000714469
-0.00074086
-0.000763728
-0.000782933
-0.000798352
-0.000809876
-0.000817409
-0.000820869
-0.000820182
-0.00081529
-0.00080614
-0.000792687
-0.000774897
-0.000752738
-0.000726184
-0.000695217
-0.000659829
-0.000620014
-0.000575766
-0.000527087
-0.000473989
-0.000416483
-0.000354582
-0.000288304
-0.000217673
-0.000142719
-6.34685e-05
2.00478e-05
0.000107791
0.000199716
0.000295776
0.000395922
0.000500102
0.000608252
0.000720306
0.000836191
0.000955832
0.00107915
0.00120605
0.00133644
0.00147021
0.00160727
0.00174748
0.00189074
0.00203689
0.00218582
0.00233736
0.00249137
0.0026477
0.00280617
0.0029666
0.0031288
0.00329259
0.00345777
0.00362411
0.00379141
0.00395944
0.00412799
0.00429682
0.00446567
0.0046343
0.00480246
0.00496988
0.00513631
0.00530149
0.00546514
0.00562699
0.00578677
0.00594422
0.00609906
0.006251
0.00639979
0.00654516
0.00668686
0.00682461
0.00695819
0.00708733
0.00721181
0.00733139
0.00744586
0.00755501
0.00765864
0.00775657
0.00784864
0.00793469
0.0080146
0.00808824
0.00815551
0.00821633
0.00827063
0.00831837
0.00835952
0.00839408
0.00842208
0.00844354
0.00845852
0.00846711
0.00846942
0.00846557
0.00845572
0.00844003
0.0084187
0.00839194
0.00836
0.00832312
0.00828159
0.00823571
0.00818578
0.00813213
0.00807513
0.00801512
0.00795251
0.00788769
0.00782108
0.0077531
0.00768418
0.00761476
0.00754531
0.00747628
0.00740816
0.00734141
0.0072765
0.00721392
0.00715412
0.00709757
0.00704474
0.00699607
0.00695201
0.00691296
0.00687934
0.00685155
0.00683
0.00681498
0.00680687
0.00680744
0.00681794
0.000323006
0.000297821
0.000270684
0.000240492
0.000206317
0.000168663
0.000128038
8.48627e-05
3.95726e-05
-7.3936e-06
-5.55981e-05
-0.00010461
-0.000154013
-0.000203396
-0.000252371
-0.00030057
-0.000347645
-0.000393269
-0.000437141
-0.000478978
-0.000518518
-0.000555521
-0.00058977
-0.000621066
-0.000649227
-0.00067409
-0.000695511
-0.000713357
-0.000727513
-0.000737876
-0.000744355
-0.000746872
-0.00074536
-0.000739756
-0.000730013
-0.000716088
-0.000697946
-0.000675553
-0.000648885
-0.000617927
-0.00058267
-0.000543102
-0.000499219
-0.000451026
-0.00039853
-0.00034174
-0.000280666
-0.00021533
-0.000145753
-7.19584e-05
6.02784e-06
8.81753e-05
0.000174445
0.000264796
0.000359184
0.000457564
0.000559882
0.000666077
0.000776085
0.00088984
0.00100727
0.00112828
0.00125281
0.00138075
0.001512
0.00164646
0.00178402
0.00192455
0.00206792
0.002214
0.00236265
0.00251372
0.00266706
0.0028225
0.00297987
0.00313898
0.00329965
0.00346168
0.00362485
0.00378897
0.00395382
0.00411918
0.00428482
0.00445048
0.00461594
0.00478094
0.00494523
0.00510856
0.00527066
0.00543127
0.00559013
0.00574697
0.00590153
0.00605354
0.00620271
0.00634881
0.00649156
0.00663071
0.00676602
0.00689722
0.00702409
0.0071464
0.0072639
0.0073764
0.0074837
0.00758559
0.0076819
0.00777247
0.00785715
0.00793581
0.00800833
0.00807461
0.00813458
0.00818817
0.00823533
0.00827604
0.00831031
0.00833814
0.00835958
0.00837468
0.00838352
0.00838621
0.00838289
0.00837369
0.00835879
0.00833837
0.00831263
0.00828183
0.00824621
0.00820604
0.00816161
0.00811322
0.0080612
0.00800588
0.00794763
0.00788682
0.00782384
0.00775908
0.00769296
0.00762589
0.0075583
0.00749062
0.00742329
0.00735678
0.00729152
0.00722796
0.00716655
0.00710774
0.00705196
0.00699964
0.00695121
0.00690708
0.00686763
0.00683326
0.00680435
0.00678127
0.00676433
0.00675388
0.0067513
0.00675747
0.00040013
0.000366962
0.000333891
0.000299218
0.000261322
0.000220664
0.000177717
0.00013283
8.63653e-05
3.87035e-05
-9.77706e-06
-5.87037e-05
-0.000107705
-0.000156425
-0.000204519
-0.000251658
-0.00029753
-0.000341842
-0.000384324
-0.000424717
-0.000462784
-0.000498307
-0.000531085
-0.000560935
-0.000587691
-0.000611204
-0.000631337
-0.00064797
-0.000660995
-0.000670315
-0.000675846
-0.000677515
-0.000675257
-0.000669016
-0.000658745
-0.000644403
-0.000625954
-0.000603365
-0.000576616
-0.000545694
-0.000510583
-0.000471274
-0.000427765
-0.000380059
-0.00032816
-0.000272076
-0.000211818
-0.000147406
-7.88584e-05
-6.19419e-06
7.05607e-05
0.000151375
0.000236213
0.000325039
0.000417809
0.000514479
0.000614997
0.000719305
0.000827343
0.000939045
0.00105434
0.00117316
0.0012954
0.00142099
0.00154983
0.00168182
0.00181684
0.00195477
0.00209549
0.00223888
0.00238479
0.00253308
0.0026836
0.00283619
0.00299067
0.00314688
0.00330461
0.00346369
0.0036239
0.00378506
0.00394694
0.00410933
0.004272
0.00443472
0.00459724
0.00475932
0.00492072
0.00508119
0.00524046
0.00539829
0.00555441
0.00570856
0.00586048
0.00600991
0.00615657
0.00630021
0.00644058
0.00657743
0.00671051
0.00683958
0.0069644
0.00708473
0.00720037
0.0073111
0.00741673
0.00751705
0.0076119
0.00770111
0.00778455
0.00786208
0.00793359
0.00799898
0.00805817
0.0081111
0.00815772
0.00819801
0.00823198
0.00825964
0.00828102
0.00829618
0.0083052
0.00830819
0.00830528
0.00829661
0.00828233
0.00826265
0.00823775
0.00820788
0.00817328
0.00813422
0.00809098
0.00804385
0.00799315
0.00793921
0.00788238
0.00782302
0.00776151
0.00769824
0.00763359
0.00756797
0.00750179
0.00743547
0.00736942
0.00730409
0.00723989
0.00717724
0.00711658
0.00705833
0.00700289
0.00695067
0.00690207
0.00685747
0.00681724
0.00678174
0.00675133
0.00672635
0.00670711
0.00669393
0.00668775
0.00668907
0.000480862
0.000439551
0.000400322
0.000360895
0.000318966
0.000274961
0.000229329
0.000182351
0.000134328
8.55797e-05
3.64294e-05
-1.27946e-05
-6.17739e-05
-0.000110199
-0.000157766
-0.000204185
-0.00024918
-0.00029249
-0.00033387
-0.00037309
-0.000409939
-0.000444216
-0.000475741
-0.000504348
-0.000529886
-0.000552218
-0.000571221
-0.000586783
-0.000598806
-0.0006072
-0.000611888
-0.000612804
-0.000609885
-0.000603081
-0.000592347
-0.000577643
-0.000558933
-0.000536189
-0.000509395
-0.000478535
-0.00044359
-0.000404555
-0.00036143
-0.000314215
-0.000262911
-0.000207527
-0.000148075
-8.45706e-05
-1.70299e-05
5.45296e-05
0.000130083
0.0002096
0.000293048
0.000380393
0.000471596
0.000566613
0.00066539
0.000767878
0.000874018
0.000983747
0.001097
0.0012137
0.00133376
0.00145711
0.00158364
0.00171327
0.00184587
0.00198134
0.00211955
0.00226038
0.00240369
0.00254936
0.00269722
0.00284712
0.00299889
0.00315237
0.00330736
0.00346368
0.00362114
0.00377953
0.00393866
0.0040983
0.00425823
0.00441822
0.00457803
0.00473744
0.00489619
0.00505403
0.00521072
0.00536601
0.00551963
0.00567134
0.00582086
0.00596795
0.00611233
0.00625376
0.00639199
0.00652677
0.00665785
0.00678499
0.00690797
0.00702655
0.00714052
0.00724967
0.0073538
0.00745272
0.00754627
0.00763427
0.0077166
0.00779312
0.00786373
0.00792831
0.00798679
0.00803911
0.00808524
0.00812514
0.00815882
0.00818628
0.00820758
0.00822275
0.00823189
0.00823509
0.00823249
0.00822421
0.00821043
0.00819131
0.00816708
0.00813794
0.00810416
0.00806597
0.00802366
0.00797752
0.00792786
0.007875
0.00781927
0.00776104
0.00770066
0.00763851
0.00757497
0.00751043
0.00744527
0.00737991
0.00731475
0.00725019
0.00718664
0.00712451
0.00706419
0.00700609
0.0069506
0.00689809
0.00684894
0.00680351
0.00676213
0.00672515
0.0066929
0.00666569
0.0066438
0.00662755
0.00661742
0.00661353
0.00056416
0.000514632
0.0004691
0.000424719
0.000378517
0.000330886
0.000282268
0.000232882
0.000182968
0.000132794
8.26376e-05
3.27743e-05
-1.6522e-05
-6.49815e-05
-0.000112341
-0.000158349
-0.000202765
-0.000245355
-0.000285902
-0.000324204
-0.00036007
-0.000393324
-0.000423803
-0.000451359
-0.000475857
-0.000497172
-0.000515196
-0.000529826
-0.000540972
-0.000548557
-0.000552507
-0.000552762
-0.000549266
-0.000541975
-0.000530844
-0.000515832
-0.000496912
-0.00047406
-0.000447256
-0.000416482
-0.000381727
-0.000342986
-0.000300257
-0.000253537
-0.000202829
-0.000148141
-8.9487e-05
-2.68761e-05
3.9679e-05
0.000110158
0.000184538
0.00026279
0.000344887
0.000430798
0.000520482
0.000613896
0.000710994
0.000811726
0.000916039
0.00102387
0.00113515
0.00124982
0.0013678
0.001489
0.00161334
0.00174072
0.00187102
0.00200414
0.00213997
0.00227839
0.00241925
0.00256244
0.0027078
0.00285518
0.00300442
0.00315534
0.00330777
0.00346153
0.00361642
0.00377225
0.00392883
0.00408593
0.00424333
0.00440081
0.00455815
0.0047151
0.00487143
0.00502689
0.00518123
0.00533421
0.00548558
0.00563508
0.00578244
0.00592742
0.00606977
0.00620922
0.00634553
0.00647846
0.00660777
0.0067332
0.00685455
0.00697157
0.00708406
0.00719181
0.00729463
0.00739232
0.00748471
0.00757165
0.007653
0.00772863
0.00779843
0.00786229
0.00792014
0.00797193
0.0080176
0.00805713
0.00809053
0.0081178
0.00813898
0.00815412
0.00816331
0.00816665
0.00816426
0.00815627
0.00814284
0.00812415
0.00810041
0.00807183
0.00803864
0.00800112
0.00795951
0.0079141
0.00786521
0.00781313
0.00775822
0.0077008
0.00764123
0.00757987
0.00751709
0.00745326
0.00738877
0.007324
0.00725934
0.00719518
0.0071319
0.0070699
0.00700955
0.00695123
0.00689532
0.00684216
0.00679211
0.00674549
0.00670264
0.00666386
0.00662946
0.0065997
0.00657489
0.00655529
0.00654095
0.00653157
0.000649076
0.000591327
0.000539412
0.000489935
0.00043927
0.000387799
0.000335948
0.000283886
0.000231799
0.000179912
0.000128451
7.76484e-05
2.77379e-05
-2.10499e-05
-6.8491e-05
-0.000114369
-0.000158474
-0.000200602
-0.000240564
-0.000278181
-0.000313287
-0.000345725
-0.000375354
-0.000402042
-0.000425669
-0.000446126
-0.000463315
-0.000477146
-0.00048754
-0.000494426
-0.000497741
-0.000497429
-0.000493443
-0.000485737
-0.000474272
-0.000459013
-0.000439935
-0.000417018
-0.00039024
-0.000359584
-0.000325046
-0.000286619
-0.000244297
-0.000198079
-0.000147972
-9.39814e-05
-3.61158e-05
2.56168e-05
9.12023e-05
0.000160621
0.000233853
0.000310875
0.000391659
0.000476176
0.000564386
0.000656251
0.000751726
0.000850766
0.000953319
0.00105933
0.00116872
0.00128145
0.00139743
0.00151659
0.00163883
0.00176406
0.00189218
0.00202308
0.00215666
0.00229279
0.00243135
0.00257221
0.00271522
0.00286024
0.00300711
0.00315565
0.0033057
0.00345707
0.00360959
0.00376306
0.00391729
0.00407205
0.00422714
0.00438233
0.00453741
0.00469213
0.00484626
0.00499955
0.00515178
0.00530269
0.00545203
0.00559955
0.00574499
0.0058881
0.00602863
0.00616633
0.00630095
0.00643225
0.00655999
0.00668393
0.00680385
0.00691951
0.00703072
0.00713725
0.00723892
0.00733554
0.00742693
0.00751295
0.00759346
0.00766832
0.00773741
0.00780065
0.00785794
0.00790925
0.00795451
0.00799371
0.00802684
0.00805391
0.00807495
0.00809004
0.00809923
0.00810264
0.00810037
0.00809256
0.00807937
0.00806096
0.00803755
0.00800935
0.00797658
0.0079395
0.00789836
0.00785346
0.00780508
0.00775353
0.00769915
0.00764224
0.00758317
0.00752228
0.00745993
0.00739649
0.00733232
0.00726779
0.00720328
0.00713916
0.0070758
0.00701357
0.00695283
0.00689395
0.00683726
0.00678311
0.00673183
0.00668372
0.00663909
0.00659822
0.00656138
0.00652882
0.00650082
0.00647766
0.0064589
0.00644387
0.000734752
0.000668828
0.000610497
0.000555827
0.000500567
0.000445083
0.0003898
0.000334841
0.000280348
0.000226497
0.000173475
0.000121473
7.06853e-05
2.13054e-05
-2.64774e-05
-7.24761e-05
-0.000116512
-0.000158415
-0.000198018
-0.000235166
-0.000269716
-0.000301534
-0.000330496
-0.000356488
-0.000379406
-0.000399155
-0.000415649
-0.000428811
-0.000438571
-0.000444868
-0.000447647
-0.00044686
-0.000442466
-0.000434419
-0.000422686
-0.00040724
-0.00038806
-0.00036512
-0.000338404
-0.000307903
-0.000273609
-0.000235514
-0.000193615
-0.000147912
-9.84109e-05
-4.5116e-05
1.19671e-05
7.28303e-05
0.000137461
0.00020584
0.00027795
0.000353771
0.000433277
0.000516439
0.000603222
0.000693587
0.000787495
0.000884903
0.000985762
0.00109001
0.00119761
0.00130847
0.00142255
0.00153975
0.00166
0.00178319
0.00190924
0.00203804
0.00216949
0.00230347
0.00243986
0.00257853
0.00271935
0.00286216
0.00300682
0.00315315
0.00330099
0.00345017
0.0036005
0.00375179
0.00390386
0.00405649
0.00420947
0.00436258
0.0045156
0.00466831
0.00482046
0.00497182
0.00512216
0.00527122
0.00541876
0.00556452
0.00570826
0.00584972
0.00598866
0.00612483
0.00625798
0.00638787
0.00651426
0.00663691
0.0067556
0.0068701
0.00698021
0.00708571
0.0071864
0.00728211
0.00737266
0.0074579
0.00753768
0.00761189
0.00768039
0.00774309
0.00779991
0.0078508
0.0078957
0.0079346
0.00796748
0.00799435
0.00801526
0.00803025
0.00803941
0.00804282
0.00804059
0.00803287
0.0080198
0.00800155
0.00797833
0.00795034
0.00791781
0.00788098
0.00784011
0.00779548
0.00774738
0.00769611
0.00764198
0.00758532
0.00752646
0.00746574
0.00740351
0.00734014
0.00727596
0.00721135
0.00714666
0.00708224
0.00701846
0.00695567
0.00689421
0.00683442
0.00677665
0.0067212
0.00666838
0.00661848
0.00657179
0.00652856
0.00648903
0.00645344
0.00642206
0.00639514
0.00637183
0.00635103
0.00082041
0.000746388
0.000681646
0.00062173
0.000561777
0.000502151
0.00044328
0.000385246
0.000328147
0.00027212
0.000217316
0.000163888
0.000111993
6.17893e-05
1.34364e-05
-3.29093e-05
-7.71002e-05
-0.00011899
-0.000158439
-0.000195318
-0.000229502
-0.000260881
-0.000289347
-0.000314805
-0.000337166
-0.000356349
-0.000372281
-0.000384899
-0.000394141
-0.000399955
-0.000402297
-0.000401127
-0.000396401
-0.000388087
-0.000376154
-0.000360582
-0.000341348
-0.000318432
-0.000291821
-0.000261509
-0.000227487
-0.000189747
-0.000148288
-0.000103113
-5.42258e-05
-1.62746e-06
5.46777e-05
0.00011468
0.000178367
0.000245724
0.000316736
0.000391385
0.000469646
0.000551491
0.000636887
0.000725801
0.000818196
0.000914031
0.00101326
0.00111583
0.00122168
0.00133077
0.00144303
0.00155837
0.00167672
0.00179798
0.00192206
0.00204888
0.00217833
0.00231028
0.00244464
0.00258126
0.00272003
0.00286079
0.00300339
0.00314767
0.00329347
0.00344063
0.00358895
0.00373826
0.00388836
0.00403905
0.00419012
0.00434136
0.00449254
0.00464344
0.00479383
0.00494347
0.00509213
0.00523956
0.00538552
0.00552975
0.00567201
0.00581205
0.00594962
0.00608448
0.00621637
0.00634506
0.0064703
0.00659186
0.00670952
0.00682306
0.00693225
0.00703689
0.00713678
0.00723174
0.0073216
0.0074062
0.0074854
0.00755906
0.00762708
0.00768934
0.00774577
0.00779631
0.00784092
0.00787955
0.00791221
0.0079389
0.00795966
0.00797454
0.00798361
0.00798697
0.00798472
0.00797699
0.00796394
0.00794574
0.00792257
0.00789465
0.00786219
0.00782543
0.00778463
0.00774006
0.00769202
0.00764078
0.00758666
0.00752998
0.00747105
0.00741023
0.00734784
0.00728423
0.00721975
0.00715474
0.00708955
0.00702452
0.00696
0.00689633
0.00683383
0.00677284
0.00671367
0.00665663