/*--------------------------------*- C++ -*----------------------------------*\
  =========                 |
  \\      /  F ield         | OpenFOAM: The Open Source CFD Toolbox
   \\    /   O peration     | Website:  https://openfoam.org
    \\  /    A nd           | Version:  7
     \\/     M anipulation  |
\*---------------------------------------------------------------------------*/
FoamFile
{
    version     2.0;
    format      ascii;
    class       volVectorField;
    location    "0.3625";
    object      U;
}
// * * * * * * * * * * * * * * * * * * * * * * * * * * * * * * * * * * * * * //

dimensions      [0 1 -1 0 0 0 0];

internalField   nonuniform List<vector> 
25600
(
(3.95287e-07 -3.95665e-07 0)
(3.04427e-06 -1.76266e-06 0)
(8.39838e-06 -2.4731e-06 0)
(1.45225e-05 -2.54581e-06 0)
(2.00902e-05 -2.23989e-06 0)
(2.43409e-05 -1.71866e-06 0)
(2.6808e-05 -1.07811e-06 0)
(2.72031e-05 -3.73943e-07 0)
(2.53601e-05 3.56007e-07 0)
(2.11981e-05 1.09218e-06 0)
(1.46946e-05 1.81867e-06 0)
(5.86696e-06 2.52709e-06 0)
(-5.2389e-06 3.21084e-06 0)
(-1.85586e-05 3.86653e-06 0)
(-3.4009e-05 4.4918e-06 0)
(-5.15003e-05 5.08505e-06 0)
(-7.09376e-05 5.64509e-06 0)
(-9.22187e-05 6.17223e-06 0)
(-0.000115241 6.66633e-06 0)
(-0.000139902 7.12734e-06 0)
(-0.000166097 7.55655e-06 0)
(-0.000193723 7.95498e-06 0)
(-0.000222682 8.32306e-06 0)
(-0.000252874 8.66194e-06 0)
(-0.000284204 8.97288e-06 0)
(-0.000316579 9.25651e-06 0)
(-0.000349908 9.51395e-06 0)
(-0.000384106 9.74689e-06 0)
(-0.000419088 9.95636e-06 0)
(-0.000454774 1.01429e-05 0)
(-0.000491086 1.03076e-05 0)
(-0.000527949 1.04515e-05 0)
(-0.000565291 1.05751e-05 0)
(-0.000603044 1.06792e-05 0)
(-0.00064114 1.07649e-05 0)
(-0.000679515 1.08332e-05 0)
(-0.000718109 1.08842e-05 0)
(-0.00075686 1.09188e-05 0)
(-0.000795712 1.0938e-05 0)
(-0.000834609 1.09423e-05 0)
(-0.000873497 1.09319e-05 0)
(-0.000912324 1.09071e-05 0)
(-0.000951037 1.08684e-05 0)
(-0.000989588 1.0816e-05 0)
(-0.00102793 1.07501e-05 0)
(-0.00106601 1.06712e-05 0)
(-0.00110378 1.05796e-05 0)
(-0.00114121 1.04755e-05 0)
(-0.00117823 1.03587e-05 0)
(-0.00121481 1.02294e-05 0)
(-0.0012509 1.0088e-05 0)
(-0.00128646 9.9344e-06 0)
(-0.00132144 9.76854e-06 0)
(-0.0013558 9.59029e-06 0)
(-0.0013895 9.3997e-06 0)
(-0.00142248 9.1969e-06 0)
(-0.00145471 8.98188e-06 0)
(-0.00148614 8.75454e-06 0)
(-0.00151673 8.51477e-06 0)
(-0.00154643 8.26263e-06 0)
(-0.00157521 7.99805e-06 0)
(-0.00160301 7.72096e-06 0)
(-0.00162979 7.4314e-06 0)
(-0.00165551 7.12948e-06 0)
(-0.00168012 6.8153e-06 0)
(-0.00170358 6.48879e-06 0)
(-0.00172586 6.1499e-06 0)
(-0.00174689 5.79885e-06 0)
(-0.00176665 5.43586e-06 0)
(-0.0017851 5.06116e-06 0)
(-0.00180218 4.67486e-06 0)
(-0.00181787 4.27686e-06 0)
(-0.00183211 3.86754e-06 0)
(-0.00184489 3.44754e-06 0)
(-0.00185615 3.01722e-06 0)
(-0.00186587 2.57697e-06 0)
(-0.001874 2.12722e-06 0)
(-0.00188053 1.66836e-06 0)
(-0.00188541 1.20105e-06 0)
(-0.00188863 7.25972e-07 0)
(-0.00189015 2.43601e-07 0)
(-0.00188996 -2.45382e-07 0)
(-0.00188804 -7.40092e-07 0)
(-0.00188436 -1.23961e-06 0)
(-0.00187891 -1.74302e-06 0)
(-0.00187169 -2.24954e-06 0)
(-0.00186268 -2.75831e-06 0)
(-0.00185188 -3.26819e-06 0)
(-0.00183929 -3.77809e-06 0)
(-0.00182491 -4.28695e-06 0)
(-0.00180875 -4.79355e-06 0)
(-0.00179082 -5.29676e-06 0)
(-0.00177113 -5.79561e-06 0)
(-0.00174971 -6.2888e-06 0)
(-0.00172658 -6.77486e-06 0)
(-0.00170176 -7.25253e-06 0)
(-0.00167529 -7.72052e-06 0)
(-0.0016472 -8.17744e-06 0)
(-0.00161754 -8.62209e-06 0)
(-0.00158635 -9.05328e-06 0)
(-0.00155368 -9.4696e-06 0)
(-0.00151959 -9.86965e-06 0)
(-0.00148413 -1.02522e-05 0)
(-0.00144737 -1.0616e-05 0)
(-0.00140938 -1.09597e-05 0)
(-0.00137023 -1.12821e-05 0)
(-0.00133 -1.15821e-05 0)
(-0.00128876 -1.18585e-05 0)
(-0.0012466 -1.21101e-05 0)
(-0.00120361 -1.2336e-05 0)
(-0.00115988 -1.25352e-05 0)
(-0.0011155 -1.27067e-05 0)
(-0.00107057 -1.28499e-05 0)
(-0.00102519 -1.29639e-05 0)
(-0.000979461 -1.3048e-05 0)
(-0.000933489 -1.31016e-05 0)
(-0.00088738 -1.31242e-05 0)
(-0.000841241 -1.31152e-05 0)
(-0.000795182 -1.30744e-05 0)
(-0.000749313 -1.30015e-05 0)
(-0.000703744 -1.28965e-05 0)
(-0.000658587 -1.27593e-05 0)
(-0.000613952 -1.25898e-05 0)
(-0.00056995 -1.23882e-05 0)
(-0.000526691 -1.2155e-05 0)
(-0.000484282 -1.18904e-05 0)
(-0.00044283 -1.15951e-05 0)
(-0.000402441 -1.12695e-05 0)
(-0.000363217 -1.09144e-05 0)
(-0.000325258 -1.05305e-05 0)
(-0.000288661 -1.01184e-05 0)
(-0.00025352 -9.67919e-06 0)
(-0.000219925 -9.21406e-06 0)
(-0.000187962 -8.72428e-06 0)
(-0.000157712 -8.21106e-06 0)
(-0.000129252 -7.67574e-06 0)
(-0.000102653 -7.11982e-06 0)
(-7.79811e-05 -6.5449e-06 0)
(-5.52949e-05 -5.95274e-06 0)
(-3.46467e-05 -5.34531e-06 0)
(-1.60812e-05 -4.72483e-06 0)
(3.64869e-07 -4.09365e-06 0)
(1.46639e-05 -3.45426e-06 0)
(2.67984e-05 -2.80931e-06 0)
(3.67623e-05 -2.16213e-06 0)
(4.45622e-05 -1.51642e-06 0)
(5.02191e-05 -8.76657e-07 0)
(5.37719e-05 -2.48087e-07 0)
(5.52796e-05 3.62848e-07 0)
(5.48262e-05 9.48114e-07 0)
(5.25258e-05 1.4974e-06 0)
(4.85308e-05 1.99695e-06 0)
(4.30421e-05 2.42785e-06 0)
(3.63243e-05 2.7634e-06 0)
(2.87271e-05 2.96526e-06 0)
(2.07142e-05 2.97834e-06 0)
(1.28953e-05 2.72612e-06 0)
(6.06574e-06 2.10624e-06 0)
(1.30433e-06 1.02917e-06 0)
(-2.0128e-07 -2.01127e-07 0)
(1.70221e-06 -3.02606e-06 0)
(8.20066e-06 -8.27307e-06 0)
(1.8908e-05 -1.07435e-05 0)
(3.0378e-05 -1.06767e-05 0)
(4.01077e-05 -8.85567e-06 0)
(4.64604e-05 -5.8783e-06 0)
(4.82821e-05 -2.15677e-06 0)
(4.4775e-05 2.01987e-06 0)
(3.54306e-05 6.45345e-06 0)
(1.99561e-05 1.10038e-05 0)
(-1.78502e-06 1.5572e-05 0)
(-2.98067e-05 2.00897e-05 0)
(-6.40426e-05 2.45036e-05 0)
(-0.000104357 2.87817e-05 0)
(-0.000150566 3.28983e-05 0)
(-0.000202458 3.68344e-05 0)
(-0.000259788 4.05803e-05 0)
(-0.000322302 4.41287e-05 0)
(-0.000389731 4.74747e-05 0)
(-0.000461801 5.06186e-05 0)
(-0.000538233 5.35608e-05 0)
(-0.000618753 5.63033e-05 0)
(-0.000703085 5.88506e-05 0)
(-0.000790957 6.12069e-05 0)
(-0.000882106 6.33767e-05 0)
(-0.00097627 6.53659e-05 0)
(-0.0010732 6.718e-05 0)
(-0.00117265 6.88252e-05 0)
(-0.00127437 7.03076e-05 0)
(-0.00137815 7.16326e-05 0)
(-0.00148376 7.28063e-05 0)
(-0.00159098 7.38344e-05 0)
(-0.0016996 7.47221e-05 0)
(-0.00180943 7.54746e-05 0)
(-0.00192028 7.60974e-05 0)
(-0.00203195 7.65947e-05 0)
(-0.00214426 7.69708e-05 0)
(-0.00225705 7.72301e-05 0)
(-0.00237014 7.73768e-05 0)
(-0.00248337 7.7414e-05 0)
(-0.00259658 7.73448e-05 0)
(-0.00270961 7.71726e-05 0)
(-0.00282232 7.68994e-05 0)
(-0.00293455 7.65275e-05 0)
(-0.00304617 7.60588e-05 0)
(-0.00315703 7.54955e-05 0)
(-0.00326698 7.4839e-05 0)
(-0.00337591 7.40904e-05 0)
(-0.00348366 7.32509e-05 0)
(-0.0035901 7.23215e-05 0)
(-0.00369511 7.13028e-05 0)
(-0.00379855 7.01953e-05 0)
(-0.00390029 6.89994e-05 0)
(-0.0040002 6.77153e-05 0)
(-0.00409815 6.63431e-05 0)
(-0.00419401 6.4883e-05 0)
(-0.00428765 6.3335e-05 0)
(-0.00437894 6.16994e-05 0)
(-0.00446776 5.9976e-05 0)
(-0.00455397 5.81649e-05 0)
(-0.00463745 5.62662e-05 0)
(-0.00471806 5.42797e-05 0)
(-0.00479569 5.2206e-05 0)
(-0.00487021 5.00456e-05 0)
(-0.00494148 4.7799e-05 0)
(-0.00500939 4.54666e-05 0)
(-0.0050738 4.30489e-05 0)
(-0.00513461 4.0547e-05 0)
(-0.00519169 3.79625e-05 0)
(-0.00524491 3.52968e-05 0)
(-0.00529417 3.25514e-05 0)
(-0.00533934 2.9728e-05 0)
(-0.00538033 2.68288e-05 0)
(-0.00541702 2.38564e-05 0)
(-0.00544931 2.08137e-05 0)
(-0.0054771 1.77034e-05 0)
(-0.00550031 1.45293e-05 0)
(-0.00551883 1.12949e-05 0)
(-0.00553259 8.00455e-06 0)
(-0.00554151 4.66261e-06 0)
(-0.00554553 1.2735e-06 0)
(-0.00554457 -2.15783e-06 0)
(-0.00553859 -5.62575e-06 0)
(-0.00552754 -9.12455e-06 0)
(-0.00551138 -1.26481e-05 0)
(-0.00549008 -1.619e-05 0)
(-0.00546363 -1.97436e-05 0)
(-0.005432 -2.33019e-05 0)
(-0.00539521 -2.68574e-05 0)
(-0.00535326 -3.04028e-05 0)
(-0.00530618 -3.39303e-05 0)
(-0.005254 -3.74318e-05 0)
(-0.00519677 -4.08991e-05 0)
(-0.00513454 -4.43239e-05 0)
(-0.00506739 -4.76975e-05 0)
(-0.00499539 -5.10109e-05 0)
(-0.00491864 -5.42554e-05 0)
(-0.00483725 -5.7422e-05 0)
(-0.00475134 -6.05018e-05 0)
(-0.00466104 -6.34859e-05 0)
(-0.0045665 -6.63657e-05 0)
(-0.00446787 -6.91322e-05 0)
(-0.00436534 -7.17765e-05 0)
(-0.00425907 -7.42903e-05 0)
(-0.00414926 -7.6665e-05 0)
(-0.00403613 -7.88922e-05 0)
(-0.00391989 -8.09641e-05 0)
(-0.00380078 -8.28731e-05 0)
(-0.00367902 -8.46118e-05 0)
(-0.00355488 -8.61734e-05 0)
(-0.00342861 -8.75513e-05 0)
(-0.00330048 -8.87396e-05 0)
(-0.00317077 -8.97326e-05 0)
(-0.00303977 -9.05254e-05 0)
(-0.00290776 -9.11134e-05 0)
(-0.00277504 -9.14925e-05 0)
(-0.00264192 -9.16591e-05 0)
(-0.0025087 -9.16105e-05 0)
(-0.0023757 -9.13446e-05 0)
(-0.00224322 -9.08598e-05 0)
(-0.00211159 -9.01555e-05 0)
(-0.00198111 -8.92314e-05 0)
(-0.0018521 -8.80882e-05 0)
(-0.00172488 -8.6727e-05 0)
(-0.00159976 -8.51499e-05 0)
(-0.00147704 -8.33597e-05 0)
(-0.00135703 -8.136e-05 0)
(-0.00124002 -7.91549e-05 0)
(-0.0011263 -7.6749e-05 0)
(-0.00101617 -7.41479e-05 0)
(-0.000909883 -7.1358e-05 0)
(-0.000807716 -6.83862e-05 0)
(-0.000709918 -6.52403e-05 0)
(-0.000616731 -6.19291e-05 0)
(-0.000528383 -5.84619e-05 0)
(-0.000445088 -5.48491e-05 0)
(-0.000367042 -5.11016e-05 0)
(-0.000294425 -4.72314e-05 0)
(-0.0002274 -4.32518e-05 0)
(-0.000166107 -3.91774e-05 0)
(-0.000110663 -3.50239e-05 0)
(-6.11638e-05 -3.08086e-05 0)
(-1.76744e-05 -2.65505e-05 0)
(1.97686e-05 -2.2271e-05 0)
(5.11629e-05 -1.79946e-05 0)
(7.65448e-05 -1.37489e-05 0)
(9.59943e-05 -9.56602e-06 0)
(0.000109642 -5.48396e-06 0)
(0.000117678 -1.548e-06 0)
(0.000120363 2.18702e-06 0)
(0.000118043 5.65355e-06 0)
(0.000111164 8.76653e-06 0)
(0.000100297 1.14173e-05 0)
(8.61671e-05 1.34656e-05 0)
(6.96859e-05 1.47292e-05 0)
(5.19921e-05 1.49749e-05 0)
(3.44628e-05 1.39199e-05 0)
(1.87094e-05 1.12526e-05 0)
(6.772e-06 6.77954e-06 0)
(1.02595e-06 1.30237e-06 0)
(2.37727e-06 -8.27229e-06 0)
(1.05795e-05 -1.89385e-05 0)
(2.30535e-05 -2.32447e-05 0)
(3.538e-05 -2.21232e-05 0)
(4.44561e-05 -1.69683e-05 0)
(4.81814e-05 -8.95232e-06 0)
(4.4969e-05 1.02552e-06 0)
(3.36673e-05 1.22895e-05 0)
(1.34966e-05 2.43376e-05 0)
(-1.60289e-05 3.67983e-05 0)
(-5.51606e-05 4.93993e-05 0)
(-0.000103978 6.19359e-05 0)
(-0.000162421 7.42589e-05 0)
(-0.000230325 8.62598e-05 0)
(-0.000307448 9.78554e-05 0)
(-0.000393486 0.00010899 0)
(-0.000488093 0.000119623 0)
(-0.000590892 0.000129726 0)
(-0.000701483 0.000139285 0)
(-0.000819452 0.00014829 0)
(-0.000944377 0.000156738 0)
(-0.00107583 0.000164634 0)
(-0.00121339 0.000171983 0)
(-0.00135664 0.000178794 0)
(-0.00150515 0.00018508 0)
(-0.00165853 0.000190854 0)
(-0.00181637 0.000196129 0)
(-0.00197828 0.000200921 0)
(-0.00214388 0.000205246 0)
(-0.00231282 0.000209117 0)
(-0.00248472 0.000212552 0)
(-0.00265925 0.000215566 0)
(-0.00283607 0.000218172 0)
(-0.00301486 0.000220385 0)
(-0.00319531 0.00022222 0)
(-0.00337711 0.000223688 0)
(-0.00355996 0.000224801 0)
(-0.00374359 0.000225573 0)
(-0.00392772 0.000226012 0)
(-0.00411208 0.00022613 0)
(-0.00429641 0.000225933 0)
(-0.00448045 0.000225433 0)
(-0.00466397 0.000224634 0)
(-0.00484671 0.000223544 0)
(-0.00502843 0.00022217 0)
(-0.00520891 0.000220515 0)
(-0.00538792 0.000218584 0)
(-0.00556523 0.000216381 0)
(-0.00574062 0.00021391 0)
(-0.00591386 0.000211173 0)
(-0.00608474 0.000208172 0)
(-0.00625305 0.00020491 0)
(-0.00641856 0.000201387 0)
(-0.00658107 0.000197604 0)
(-0.00674036 0.000193562 0)
(-0.00689622 0.000189263 0)
(-0.00704844 0.000184706 0)
(-0.00719681 0.000179891 0)
(-0.00734111 0.00017482 0)
(-0.00748115 0.000169493 0)
(-0.0076167 0.00016391 0)
(-0.00774757 0.000158072 0)
(-0.00787354 0.000151981 0)
(-0.00799442 0.000145637 0)
(-0.00810999 0.000139043 0)
(-0.00822006 0.0001322 0)
(-0.00832443 0.000125111 0)
(-0.0084229 0.000117779 0)
(-0.00851527 0.000110209 0)
(-0.00860136 0.000102404 0)
(-0.00868098 9.43693e-05 0)
(-0.00875394 8.61117e-05 0)
(-0.00882008 7.76374e-05 0)
(-0.00887922 6.89537e-05 0)
(-0.0089312 6.00689e-05 0)
(-0.00897586 5.09918e-05 0)
(-0.00901306 4.17328e-05 0)
(-0.00904266 3.23031e-05 0)
(-0.00906451 2.27145e-05 0)
(-0.00907852 1.298e-05 0)
(-0.00908456 3.11332e-06 0)
(-0.00908253 -6.87103e-06 0)
(-0.00907237 -1.6957e-05 0)
(-0.00905398 -2.71279e-05 0)
(-0.00902732 -3.73664e-05 0)
(-0.00899234 -4.7654e-05 0)
(-0.00894901 -5.7971e-05 0)
(-0.00889733 -6.82971e-05 0)
(-0.00883729 -7.86116e-05 0)
(-0.00876892 -8.88924e-05 0)
(-0.00869225 -9.91174e-05 0)
(-0.00860735 -0.000109264 0)
(-0.00851429 -0.000119307 0)
(-0.00841317 -0.000129223 0)
(-0.0083041 -0.000138988 0)
(-0.00818721 -0.000148576 0)
(-0.00806267 -0.000157962 0)
(-0.00793065 -0.000167121 0)
(-0.00779134 -0.000176026 0)
(-0.00764496 -0.000184653 0)
(-0.00749174 -0.000192976 0)
(-0.00733195 -0.00020097 0)
(-0.00716585 -0.00020861 0)
(-0.00699375 -0.000215871 0)
(-0.00681596 -0.000222731 0)
(-0.00663281 -0.000229164 0)
(-0.00644466 -0.000235148 0)
(-0.00625187 -0.000240663 0)
(-0.00605483 -0.000245686 0)
(-0.00585395 -0.0002502 0)
(-0.00564963 -0.000254184 0)
(-0.00544232 -0.000257622 0)
(-0.00523246 -0.000260497 0)
(-0.00502049 -0.000262797 0)
(-0.0048069 -0.000264507 0)
(-0.00459216 -0.000265617 0)
(-0.00437674 -0.000266117 0)
(-0.00416115 -0.000265999 0)
(-0.00394588 -0.000265256 0)
(-0.00373143 -0.000263886 0)
(-0.00351831 -0.000261885 0)
(-0.00330701 -0.000259255 0)
(-0.00309805 -0.000255995 0)
(-0.00289191 -0.000252111 0)
(-0.0026891 -0.000247609 0)
(-0.00249011 -0.000242495 0)
(-0.00229542 -0.000236782 0)
(-0.00210551 -0.00023048 0)
(-0.00192083 -0.000223604 0)
(-0.00174184 -0.000216171 0)
(-0.00156898 -0.000208198 0)
(-0.00140266 -0.000199708 0)
(-0.00124329 -0.000190723 0)
(-0.00109124 -0.000181268 0)
(-0.000946883 -0.000171371 0)
(-0.000810547 -0.000161063 0)
(-0.000682544 -0.000150376 0)
(-0.000563153 -0.000139347 0)
(-0.000452626 -0.000128016 0)
(-0.000351178 -0.000116424 0)
(-0.000258987 -0.000104618 0)
(-0.000176194 -9.26513e-05 0)
(-0.00010289 -8.05799e-05 0)
(-3.91193e-05 -6.84681e-05 0)
(1.51294e-05 -5.63874e-05 0)
(5.99306e-05 -4.44201e-05 0)
(9.54287e-05 -3.26603e-05 0)
(0.000121849 -2.1218e-05 0)
(0.000139511 -1.02225e-05 0)
(0.000148843 1.72223e-07 0)
(0.000150397 9.78027e-06 0)
(0.000144878 1.83749e-05 0)
(0.000133162 2.56778e-05 0)
(0.000116335 3.13468e-05 0)
(9.57187e-05 3.49634e-05 0)
(7.29048e-05 3.60295e-05 0)
(4.97396e-05 3.39915e-05 0)
(2.8289e-05 2.83127e-05 0)
(1.12279e-05 1.87099e-05 0)
(2.09614e-06 6.05211e-06 0)
(2.48762e-06 -1.43077e-05 0)
(1.05867e-05 -3.03475e-05 0)
(2.20167e-05 -3.55609e-05 0)
(3.18501e-05 -3.19544e-05 0)
(3.66706e-05 -2.16282e-05 0)
(3.41178e-05 -6.3714e-06 0)
(2.23663e-05 1.23857e-05 0)
(4.35174e-08 3.35228e-05 0)
(-3.38134e-05 5.6174e-05 0)
(-7.98262e-05 7.96802e-05 0)
(-0.000138351 0.000103534 0)
(-0.000209521 0.000127353 0)
(-0.000293299 0.000150848 0)
(-0.000389511 0.000173798 0)
(-0.000497876 0.000196041 0)
(-0.000618032 0.000217456 0)
(-0.000749554 0.000237956 0)
(-0.000891971 0.000257481 0)
(-0.00104478 0.000275992 0)
(-0.00120745 0.000293464 0)
(-0.00137944 0.000309888 0)
(-0.0015602 0.000325263 0)
(-0.00174917 0.000339596 0)
(-0.00194581 0.000352902 0)
(-0.00214956 0.000365199 0)
(-0.00235989 0.000376509 0)
(-0.00257626 0.000386856 0)
(-0.00279816 0.000396268 0)
(-0.00302509 0.00040477 0)
(-0.00325654 0.000412391 0)
(-0.00349203 0.00041916 0)
(-0.00373111 0.000425104 0)
(-0.00397332 0.00043025 0)
(-0.00421822 0.000434625 0)
(-0.00446538 0.000438254 0)
(-0.0047144 0.000441161 0)
(-0.00496486 0.00044337 0)
(-0.00521639 0.000444903 0)
(-0.0054686 0.000445778 0)
(-0.00572112 0.000446016 0)
(-0.0059736 0.000445632 0)
(-0.00622569 0.000444644 0)
(-0.00647704 0.000443064 0)
(-0.00672732 0.000440906 0)
(-0.00697621 0.000438181 0)
(-0.00722338 0.0004349 0)
(-0.00746852 0.000431071 0)
(-0.0077113 0.000426701 0)
(-0.00795144 0.000421798 0)
(-0.00818862 0.000416366 0)
(-0.00842254 0.000410411 0)
(-0.0086529 0.000403936 0)
(-0.0088794 0.000396943 0)
(-0.00910176 0.000389437 0)
(-0.00931968 0.000381418 0)
(-0.00953287 0.000372888 0)
(-0.00974104 0.000363849 0)
(-0.00994389 0.000354301 0)
(-0.0101411 0.000344247 0)
(-0.0103325 0.000333688 0)
(-0.0105177 0.000322625 0)
(-0.0106965 0.000311061 0)
(-0.0108685 0.000298997 0)
(-0.0110335 0.000286439 0)
(-0.0111912 0.000273388 0)
(-0.0113413 0.000259851 0)
(-0.0114836 0.000245832 0)
(-0.0116178 0.000231339 0)
(-0.0117436 0.000216379 0)
(-0.0118608 0.000200961 0)
(-0.0119692 0.000185097 0)
(-0.0120684 0.000168797 0)
(-0.0121582 0.000152077 0)
(-0.0122385 0.000134949 0)
(-0.012309 0.000117432 0)
(-0.0123694 9.95433e-05 0)
(-0.0124197 8.13026e-05 0)
(-0.0124595 6.27325e-05 0)
(-0.0124888 4.38564e-05 0)
(-0.0125074 2.46996e-05 0)
(-0.012515 5.2894e-06 0)
(-0.0125117 -1.43448e-05 0)
(-0.0124973 -3.41723e-05 0)
(-0.0124717 -5.41601e-05 0)
(-0.0124347 -7.42738e-05 0)
(-0.0123865 -9.44772e-05 0)
(-0.0123269 -0.000114732 0)
(-0.0122559 -0.000134999 0)
(-0.0121735 -0.000155238 0)
(-0.0120798 -0.000175405 0)
(-0.0119748 -0.000195456 0)
(-0.0118587 -0.000215347 0)
(-0.0117314 -0.000235033 0)
(-0.0115932 -0.000254464 0)
(-0.0114442 -0.000273594 0)
(-0.0112846 -0.000292374 0)
(-0.0111145 -0.000310754 0)
(-0.0109344 -0.000328686 0)
(-0.0107443 -0.000346119 0)
(-0.0105447 -0.000363005 0)
(-0.0103357 -0.000379294 0)
(-0.0101179 -0.000394936 0)
(-0.0098915 -0.000409885 0)
(-0.00965697 -0.000424092 0)
(-0.00941471 -0.000437512 0)
(-0.00916519 -0.000450098 0)
(-0.00890887 -0.000461808 0)
(-0.00864627 -0.000472599 0)
(-0.00837791 -0.000482431 0)
(-0.00810432 -0.000491267 0)
(-0.00782607 -0.00049907 0)
(-0.00754374 -0.000505808 0)
(-0.00725794 -0.000511451 0)
(-0.00696928 -0.000515969 0)
(-0.00667839 -0.000519339 0)
(-0.00638591 -0.000521539 0)
(-0.00609249 -0.000522551 0)
(-0.0057988 -0.00052236 0)
(-0.00550551 -0.000520953 0)
(-0.00521329 -0.000518325 0)
(-0.00492281 -0.00051447 0)
(-0.00463476 -0.000509389 0)
(-0.00434982 -0.000503086 0)
(-0.00406864 -0.000495569 0)
(-0.00379191 -0.000486849 0)
(-0.00352028 -0.000476942 0)
(-0.0032544 -0.000465869 0)
(-0.00299491 -0.000453654 0)
(-0.00274243 -0.000440325 0)
(-0.00249755 -0.000425914 0)
(-0.00226087 -0.00041046 0)
(-0.00203295 -0.000394002 0)
(-0.00181431 -0.000376588 0)
(-0.00160548 -0.000358268 0)
(-0.00140694 -0.000339096 0)
(-0.00121911 -0.000319133 0)
(-0.00104242 -0.000298445 0)
(-0.000877242 -0.000277105 0)
(-0.000723892 -0.000255189 0)
(-0.000582656 -0.000232784 0)
(-0.000453762 -0.000209982 0)
(-0.000337386 -0.000186887 0)
(-0.000233638 -0.000163613 0)
(-0.000142564 -0.000140284 0)
(-6.41331e-05 -0.000117045 0)
(1.76911e-06 -9.40547e-05 0)
(5.53509e-05 -7.14979e-05 0)
(9.6927e-05 -4.9586e-05 0)
(0.000126933 -2.85656e-05 0)
(0.000145943 -8.72631e-06 0)
(0.000154687 9.58855e-06 0)
(0.000154076 2.59701e-05 0)
(0.000145227 3.993e-05 0)
(0.00012949 5.08861e-05 0)
(0.000108475 5.81521e-05 0)
(8.40776e-05 6.09435e-05 0)
(5.84532e-05 5.84165e-05 0)
(3.39891e-05 4.97644e-05 0)
(1.38895e-05 3.44523e-05 0)
(2.70934e-06 1.28584e-05 0)
(2.22804e-06 -1.98454e-05 0)
(8.87939e-06 -4.00616e-05 0)
(1.70243e-05 -4.46427e-05 0)
(2.1704e-05 -3.67775e-05 0)
(1.94121e-05 -1.93356e-05 0)
(7.66897e-06 5.26916e-06 0)
(-1.54718e-05 3.50682e-05 0)
(-5.14958e-05 6.84835e-05 0)
(-0.000101466 0.000104273 0)
(-0.000166098 0.000141452 0)
(-0.000245811 0.000179258 0)
(-0.000340782 0.000217098 0)
(-0.000450994 0.00025451 0)
(-0.000576267 0.000291142 0)
(-0.000716296 0.000326726 0)
(-0.000870677 0.000361059 0)
(-0.00103892 0.000393992 0)
(-0.00122049 0.000425418 0)
(-0.00141479 0.000455264 0)
(-0.0016212 0.000483483 0)
(-0.00183908 0.000510051 0)
(-0.00206777 0.000534958 0)
(-0.00230661 0.000558211 0)
(-0.00255492 0.000579825 0)
(-0.00281205 0.000599825 0)
(-0.00307735 0.000618241 0)
(-0.00335015 0.000635109 0)
(-0.00362984 0.000650466 0)
(-0.00391578 0.000664354 0)
(-0.00420736 0.000676815 0)
(-0.00450401 0.000687892 0)
(-0.00480512 0.000697626 0)
(-0.00511016 0.000706061 0)
(-0.00541856 0.000713237 0)
(-0.00572979 0.000719193 0)
(-0.00604334 0.000723967 0)
(-0.00635871 0.000727597 0)
(-0.00667541 0.000730115 0)
(-0.00699296 0.000731554 0)
(-0.0073109 0.000731943 0)
(-0.00762877 0.00073131 0)
(-0.00794614 0.000729679 0)
(-0.00826257 0.000727074 0)
(-0.00857765 0.000723516 0)
(-0.00889095 0.000719021 0)
(-0.00920206 0.000713608 0)
(-0.0095106 0.00070729 0)
(-0.00981616 0.00070008 0)
(-0.0101183 0.000691989 0)
(-0.0104168 0.000683025 0)
(-0.0107111 0.000673198 0)
(-0.0110009 0.000662513 0)
(-0.0112858 0.000650976 0)
(-0.0115654 0.000638591 0)
(-0.0118395 0.000625362 0)
(-0.0121075 0.000611293 0)
(-0.0123692 0.000596387 0)
(-0.0126241 0.000580646 0)
(-0.0128719 0.000564073 0)
(-0.0131123 0.000546672 0)
(-0.0133449 0.000528445 0)
(-0.0135694 0.000509397 0)
(-0.0137853 0.000489534 0)
(-0.0139923 0.00046886 0)
(-0.0141901 0.000447383 0)
(-0.0143784 0.000425112 0)
(-0.0145568 0.000402056 0)
(-0.014725 0.000378228 0)
(-0.0148826 0.000353641 0)
(-0.0150293 0.000328311 0)
(-0.0151648 0.000302254 0)
(-0.0152889 0.000275493 0)
(-0.0154012 0.000248049 0)
(-0.0155014 0.000219947 0)
(-0.0155893 0.000191214 0)
(-0.0156646 0.000161882 0)
(-0.015727 0.000131984 0)
(-0.0157764 0.000101555 0)
(-0.0158126 7.06347e-05 0)
(-0.0158352 3.92647e-05 0)
(-0.0158442 7.48976e-06 0)
(-0.0158394 -2.46422e-05 0)
(-0.0158207 -5.70805e-05 0)
(-0.015788 -8.97717e-05 0)
(-0.0157411 -0.000122659 0)
(-0.01568 -0.000155684 0)
(-0.0156047 -0.000188785 0)
(-0.0155151 -0.000221896 0)
(-0.0154113 -0.000254952 0)
(-0.0152934 -0.000287883 0)
(-0.0151613 -0.000320619 0)
(-0.0150152 -0.000353085 0)
(-0.0148553 -0.000385207 0)
(-0.0146817 -0.00041691 0)
(-0.0144946 -0.000448114 0)
(-0.0142943 -0.000478742 0)
(-0.014081 -0.000508713 0)
(-0.013855 -0.000537949 0)
(-0.0136166 -0.000566369 0)
(-0.0133663 -0.000593892 0)
(-0.0131044 -0.000620439 0)
(-0.0128314 -0.000645932 0)
(-0.0125478 -0.000670292 0)
(-0.0122539 -0.000693444 0)
(-0.0119505 -0.000715311 0)
(-0.0116379 -0.000735822 0)
(-0.0113169 -0.000754907 0)
(-0.010988 -0.000772497 0)
(-0.010652 -0.000788528 0)
(-0.0103094 -0.000802939 0)
(-0.00996096 -0.000815673 0)
(-0.00960744 -0.000826677 0)
(-0.00924956 -0.0008359 0)
(-0.00888808 -0.0008433 0)
(-0.00852379 -0.000848836 0)
(-0.00815748 -0.000852472 0)
(-0.00778997 -0.000854182 0)
(-0.00742206 -0.000853939 0)
(-0.0070546 -0.000851727 0)
(-0.00668841 -0.000847534 0)
(-0.00632434 -0.000841353 0)
(-0.00596321 -0.000833186 0)
(-0.00560588 -0.000823038 0)
(-0.00525317 -0.000810922 0)
(-0.00490591 -0.00079686 0)
(-0.0045649 -0.000780877 0)
(-0.00423096 -0.000763006 0)
(-0.00390487 -0.000743288 0)
(-0.00358739 -0.000721768 0)
(-0.00327927 -0.000698502 0)
(-0.00298122 -0.000673549 0)
(-0.00269395 -0.000646979 0)
(-0.00241811 -0.000618866 0)
(-0.00215431 -0.000589294 0)
(-0.00190316 -0.000558355 0)
(-0.00166519 -0.000526148 0)
(-0.00144091 -0.000492781 0)
(-0.00123076 -0.000458373 0)
(-0.00103514 -0.000423053 0)
(-0.00085438 -0.000386962 0)
(-0.000688762 -0.000350254 0)
(-0.000538486 -0.000313097 0)
(-0.000403677 -0.000275678 0)
(-0.000284379 -0.000238204 0)
(-0.00018054 -0.000200905 0)
(-9.20087e-05 -0.000164044 0)
(-1.85184e-05 -0.000127913 0)
(4.03239e-05 -9.28516e-05 0)
(8.50539e-05 -5.92464e-05 0)
(0.000116366 -2.75479e-05 0)
(0.000135134 1.71945e-06 0)
(0.00014243 2.7942e-05 0)
(0.000139551 5.04019e-05 0)
(0.000128036 6.82627e-05 0)
(0.000109698 8.05621e-05 0)
(8.66434e-05 8.62207e-05 0)
(6.12473e-05 8.40812e-05 0)
(3.61527e-05 7.29965e-05 0)
(1.49748e-05 5.20032e-05 0)
(2.96023e-06 2.06541e-05 0)
(1.74379e-06 -2.41396e-05 0)
(5.99604e-06 -4.64779e-05 0)
(9.14526e-06 -4.84116e-05 0)
(6.58633e-06 -3.42424e-05 0)
(-5.07984e-06 -7.59259e-06 0)
(-2.8351e-05 2.85025e-05 0)
(-6.51993e-05 7.15461e-05 0)
(-0.000117137 0.000119517 0)
(-0.000185271 0.000170779 0)
(-0.000270354 0.000224028 0)
(-0.000372836 0.000278224 0)
(-0.000492921 0.000332544 0)
(-0.000630595 0.000386341 0)
(-0.000785674 0.000439111 0)
(-0.000957833 0.000490461 0)
(-0.00114663 0.000540092 0)
(-0.00135153 0.000587781 0)
(-0.00157193 0.00063336 0)
(-0.00180718 0.000676715 0)
(-0.00205656 0.000717766 0)
(-0.00231937 0.000756467 0)
(-0.00259483 0.000792797 0)
(-0.00288221 0.000826756 0)
(-0.00318072 0.000858359 0)
(-0.00348961 0.000887633 0)
(-0.00380812 0.000914617 0)
(-0.0041355 0.000939356 0)
(-0.004471 0.000961901 0)
(-0.0048139 0.000982306 0)
(-0.00516348 0.00100063 0)
(-0.00551905 0.00101693 0)
(-0.00587993 0.00103126 0)
(-0.00624545 0.00104369 0)
(-0.00661497 0.00105427 0)
(-0.00698785 0.00106305 0)
(-0.00736349 0.00107009 0)
(-0.00774127 0.00107545 0)
(-0.00812063 0.00107916 0)
(-0.00850099 0.00108127 0)
(-0.0088818 0.00108184 0)
(-0.00926251 0.00108088 0)
(-0.0096426 0.00107845 0)
(-0.0100216 0.00107458 0)
(-0.0103989 0.00106929 0)
(-0.010774 0.00106261 0)
(-0.0111465 0.00105456 0)
(-0.0115159 0.00104517 0)
(-0.0118817 0.00103446 0)
(-0.0122435 0.00102244 0)
(-0.0126007 0.00100912 0)
(-0.0129529 0.000994519 0)
(-0.0132997 0.000978646 0)
(-0.0136406 0.000961509 0)
(-0.0139752 0.000943115 0)
(-0.0143029 0.000923471 0)
(-0.0146235 0.000902582 0)
(-0.0149364 0.000880454 0)
(-0.0152412 0.000857091 0)
(-0.0155374 0.0008325 0)
(-0.0158247 0.000806684 0)
(-0.0161026 0.00077965 0)
(-0.0163707 0.000751406 0)
(-0.0166285 0.00072196 0)
(-0.0168757 0.000691321 0)
(-0.0171119 0.000659501 0)
(-0.0173365 0.000626514 0)
(-0.0175493 0.000592374 0)
(-0.0177498 0.000557102 0)
(-0.0179376 0.000520717 0)
(-0.0181124 0.000483243 0)
(-0.0182739 0.000444708 0)
(-0.0184215 0.000405142 0)
(-0.0185551 0.000364579 0)
(-0.0186742 0.000323056 0)
(-0.0187785 0.000280616 0)
(-0.0188678 0.000237302 0)
(-0.0189417 0.000193166 0)
(-0.0190001 0.00014826 0)
(-0.0190426 0.000102641 0)
(-0.019069 5.63733e-05 0)
(-0.0190791 9.52144e-06 0)
(-0.0190727 -3.78438e-05 0)
(-0.0190498 -8.56475e-05 0)
(-0.01901 -0.000133811 0)
(-0.0189535 -0.000182251 0)
(-0.01888 -0.000230882 0)
(-0.0187896 -0.000279611 0)
(-0.0186822 -0.000328346 0)
(-0.0185579 -0.000376987 0)
(-0.0184167 -0.000425434 0)
(-0.0182587 -0.000473583 0)
(-0.0180841 -0.000521327 0)
(-0.0178929 -0.000568556 0)
(-0.0176856 -0.000615159 0)
(-0.0174621 -0.000661022 0)
(-0.017223 -0.000706031 0)
(-0.0169684 -0.00075007 0)
(-0.0166988 -0.000793022 0)
(-0.0164144 -0.00083477 0)
(-0.0161159 -0.000875198 0)
(-0.0158036 -0.00091419 0)
(-0.0154781 -0.000951631 0)
(-0.01514 -0.000987408 0)
(-0.0147897 -0.00102141 0)
(-0.014428 -0.00105353 0)
(-0.0140556 -0.00108365 0)
(-0.013673 -0.00111169 0)
(-0.0132812 -0.00113754 0)
(-0.0128807 -0.0011611 0)
(-0.0124725 -0.00118229 0)
(-0.0120574 -0.00120102 0)
(-0.0116361 -0.00121722 0)
(-0.0112097 -0.00123082 0)
(-0.0107789 -0.00124175 0)
(-0.0103448 -0.00124995 0)
(-0.0099082 -0.00125538 0)
(-0.00947012 -0.00125798 0)
(-0.00903152 -0.00125774 0)
(-0.00859337 -0.00125462 0)
(-0.00815665 -0.0012486 0)
(-0.00772236 -0.00123968 0)
(-0.00729148 -0.00122785 0)
(-0.00686499 -0.00121314 0)
(-0.00644389 -0.00119555 0)
(-0.00602912 -0.00117513 0)
(-0.00562167 -0.0011519 0)
(-0.00522246 -0.00112591 0)
(-0.00483242 -0.00109724 0)
(-0.00445245 -0.00106593 0)
(-0.00408343 -0.00103209 0)
(-0.00372619 -0.000995785 0)
(-0.00338155 -0.00095713 0)
(-0.00305028 -0.000916234 0)
(-0.00273312 -0.00087322 0)
(-0.00243074 -0.000828223 0)
(-0.00214378 -0.000781392 0)
(-0.00187282 -0.000732887 0)
(-0.00161838 -0.000682883 0)
(-0.00138092 -0.000631573 0)
(-0.00116083 -0.000579163 0)
(-0.00095842 -0.000525881 0)
(-0.000773911 -0.000471976 0)
(-0.000607446 -0.000417723 0)
(-0.000459063 -0.000363424 0)
(-0.000328696 -0.000309416 0)
(-0.000216158 -0.000256076 0)
(-0.000121135 -0.000203829 0)
(-4.31681e-05 -0.000153156 0)
(1.836e-05 -0.000104604 0)
(6.42397e-05 -5.88002e-05 0)
(9.54543e-05 -1.6467e-05 0)
(0.000113198 2.15643e-05 0)
(0.000118897 5.43363e-05 0)
(0.000114228 8.07518e-05 0)
(0.000101144 9.95669e-05 0)
(8.18972e-05 0.000109396 0)
(5.90262e-05 0.000108741 0)
(3.53714e-05 9.60491e-05 0)
(1.48173e-05 6.98186e-05 0)
(2.95525e-06 2.8668e-05 0)
(1.12728e-06 -2.67011e-05 0)
(2.33396e-06 -4.84105e-05 0)
(-7.69421e-07 -4.52531e-05 0)
(-1.21575e-05 -2.24712e-05 0)
(-3.49679e-05 1.56148e-05 0)
(-7.16286e-05 6.53876e-05 0)
(-0.000124052 0.000123855 0)
(-0.000193724 0.000188557 0)
(-0.000281731 0.000257486 0)
(-0.000388819 0.000329013 0)
(-0.000515445 0.000401819 0)
(-0.000661803 0.000474847 0)
(-0.000827877 0.000547252 0)
(-0.00101347 0.000618366 0)
(-0.00121822 0.000687662 0)
(-0.00144167 0.000754735 0)
(-0.00168324 0.000819271 0)
(-0.00194227 0.000881038 0)
(-0.00221804 0.000939867 0)
(-0.00250979 0.000995641 0)
(-0.00281672 0.00104829 0)
(-0.003138 0.00109776 0)
(-0.00347278 0.00114406 0)
(-0.00382022 0.00118719 0)
(-0.00417946 0.00122718 0)
(-0.00454965 0.00126408 0)
(-0.00492995 0.00129794 0)
(-0.00531951 0.00132882 0)
(-0.00571753 0.00135679 0)
(-0.00612318 0.00138192 0)
(-0.00653569 0.00140429 0)
(-0.00695426 0.00142397 0)
(-0.00737815 0.00144105 0)
(-0.00780661 0.00145558 0)
(-0.00823893 0.00146765 0)
(-0.00867439 0.00147733 0)
(-0.00911231 0.00148469 0)
(-0.00955201 0.00148978 0)
(-0.00999285 0.00149266 0)
(-0.0104342 0.00149341 0)
(-0.0108754 0.00149206 0)
(-0.0113158 0.00148866 0)
(-0.0117549 0.00148327 0)
(-0.0121921 0.00147592 0)
(-0.0126267 0.00146664 0)
(-0.0130582 0.00145547 0)
(-0.0134861 0.00144244 0)
(-0.0139099 0.00142757 0)
(-0.0143288 0.00141089 0)
(-0.0147425 0.00139241 0)
(-0.0151504 0.00137216 0)
(-0.0155519 0.00135015 0)
(-0.0159465 0.00132638 0)
(-0.0163338 0.00130088 0)
(-0.0167131 0.00127364 0)
(-0.0170841 0.00124469 0)
(-0.0174461 0.00121402 0)
(-0.0177987 0.00118165 0)
(-0.0181413 0.00114758 0)
(-0.0184736 0.00111183 0)
(-0.0187949 0.00107439 0)
(-0.0191047 0.00103529 0)
(-0.0194027 0.000994536 0)
(-0.0196883 0.000952141 0)
(-0.0199611 0.000908124 0)
(-0.0202205 0.000862504 0)
(-0.0204661 0.000815305 0)
(-0.0206975 0.000766552 0)
(-0.0209142 0.000716275 0)
(-0.0211158 0.000664509 0)
(-0.0213019 0.000611292 0)
(-0.021472 0.000556667 0)
(-0.0216258 0.000500681 0)
(-0.0217628 0.000443387 0)
(-0.0218828 0.000384843 0)
(-0.0219854 0.000325112 0)
(-0.0220702 0.000264263 0)
(-0.022137 0.00020237 0)
(-0.0221854 0.000139512 0)
(-0.0222153 7.57763e-05 0)
(-0.0222263 1.1253e-05 0)
(-0.0222184 -5.39604e-05 0)
(-0.0221912 -0.000119761 0)